FOO
141312
    1MOL0     O    1   4.974   6.566   9.772  0.3813 -0.2034  0.1338
    1MOL0     C    2   5.088   6.570   9.816  0.7299  0.4133 -0.5192
    1MOL0     O    3   5.153   6.682   9.850 -0.2503 -0.2103  0.2777
    1MOL0     C    4   5.108   6.810   9.810  1.2632  0.8508 -0.0342
    1MOL0     C    5   5.139   6.865   9.687 -0.0916 -0.5074 -0.7688
    1MOL0     C    6   5.096   6.998   9.659  0.3410 -0.3188 -0.6011
    1MOL0     C    7   5.029   7.071   9.762  0.2329  0.4091  0.0877
    1MOL0     O    8   5.016   7.200   9.732  0.4179 -0.5342  0.0826
    1MOL0     C    9   4.985   7.297   9.833  0.2435  0.2688  0.2360
    1MOL0     C   10   5.019   7.427   9.779  0.5927 -0.0414 -0.1501
    1MOL0     C   11   4.997   7.549   9.875 -0.3428 -0.3644 -0.4475
    1MOL0     C   12   5.054   7.689   9.825 -0.1241  0.2950  0.0506
    1MOL0     C   13   4.999   7.791   9.918 -0.4291  0.3414 -0.6305
    1MOL0     C   14   5.090   7.913   9.899  0.0166 -0.2620 -0.5415
    1MOL0     C   15   5.016   8.025   9.968 -0.2486  0.6190 -0.2674
    1MOL0     C   16   5.120   8.140  10.014  0.1437  0.8263  0.2787
    1MOL0     N   17   5.152   8.215   9.894 -0.1968 -0.5297  0.2912
    1MOL0     C   18   5.245   8.174   9.806 -0.6690 -0.0801  0.0230
    1MOL0     C   19   5.273   8.278   9.727 -0.1225  1.2656  0.2153
    1MOL0     C   20   5.380   8.287   9.616 -0.3140 -0.2376 -0.4423
    1MOL0     C   21   5.348   8.398   9.511 -0.0669 -0.1657  0.2635
    1MOL0     C   22   5.269   8.338   9.393 -0.1950 -0.1110  1.0639
    1MOL0     C   23   5.369   8.275   9.299 -0.1201  0.5292 -0.4834
    1MOL0     O   24   5.296   8.198   9.199  0.0563 -0.1910  0.1677
    1MOL0     C   25   5.392   8.141   9.108 -0.0159 -0.1393 -0.7212
    1MOL0     C   26   5.459   8.024   9.136  0.0465 -0.1562  0.6599
    1MOL0     C   27   5.567   7.982   9.062 -1.0656 -0.3995 -0.3148
    1MOL0     C   28   5.633   7.852   9.101 -0.1681  0.8338  0.2372
    1MOL0     C   29   5.616   8.059   8.949  0.9691  0.0495 -0.6375
    1MOL0     C   30   5.742   8.015   8.890 -0.9409  0.3460 -0.4403
    1MOL0     O   31   5.730   7.942   8.774 -0.3363  0.4569 -0.0282
    1MOL0     C   32   5.846   7.871   8.750  0.4274 -0.4856 -0.7188
    1MOL0     C   33   5.912   7.785   8.845  0.9058  0.1244  0.5467
    1MOL0     C   34   6.023   7.713   8.796 -0.1136  0.7400 -0.7587
    1MOL0     C   35   6.068   7.726   8.669  0.6199  0.3450 -0.5816
    1MOL0     O   36   6.167   7.646   8.629 -0.0126  0.2876 -0.5952
    1MOL0     C   37   6.199   7.626   8.490  0.5058 -0.1742  1.4083
    1MOL0     C   38   6.302   7.508   8.483 -0.3776 -0.3926  0.5691
    1MOL0     C   39   6.445   7.554   8.484 -0.3047 -0.3251 -0.0907
    1MOL0     C   40   6.538   7.449   8.441  0.5978  0.1619 -0.2130
    1MOL0     C   41   6.682   7.471   8.476 -0.4420 -0.1662  0.3344
    1MOL0     C   42   6.782   7.417   8.374 -0.4112 -0.3354 -0.2351
    1MOL0     C   43   6.922   7.433   8.432 -0.4555  0.0894 -0.7355
    1MOL0     C   44   7.031   7.347   8.361  0.2082  0.5734 -0.1998
    1MOL0    Cl   45   7.183   7.376   8.441 -0.0024 -0.0005  0.0543
    1MOL0     C   46   6.004   7.811   8.580 -0.7265 -0.7228 -0.8368
    1MOL0     C   47   5.893   7.879   8.619  0.2760  0.2533 -0.2627
    1MOL0     O   48   5.849   8.048   8.940  0.1720 -0.7506  0.2316
    1MOL0     C   49   5.538   8.172   8.915  0.1737  0.7225  0.4449
    1MOL0     C   50   5.428   8.221   8.990 -0.0722 -0.6441  0.2786
    1MOL0     N   51   5.185   8.382   9.766 -0.7092  0.8314  0.0267
    1MOL0     N   52   5.123   8.347   9.868  0.2565 -0.5538 -0.2432
    1MOL0     C   53   4.978   7.012   9.878  0.3208  0.3741 -1.1636
    1MOL0     C   54   5.021   6.879   9.900 -0.0926  0.1229 -1.9850
    1MOL0     C   55   5.143   6.437   9.853  0.1061 -0.3897 -0.3440
    1MOL0     C   56   5.258   6.436   9.932  0.3041 -0.0974 -0.2368
    1MOL0     C   57   5.326   6.317   9.960  0.3509  0.7019  0.2436
    1MOL0     C   58   5.286   6.193   9.913 -0.1434 -0.9284  0.0705
    1MOL0     O   59   5.367   6.085   9.940  0.3137  0.0001  0.0137
    1MOL0     C   60   5.307   5.953   9.947  1.2728 -0.0462  0.2448
    1MOL0     C   61   5.405   5.854  10.008 -1.8111 -0.3066  0.3202
    1MOL0     C   62   5.429   5.892  10.157  1.2509  0.1067  0.6485
    1MOL0     C   63   5.298   5.881  10.243 -0.9638 -0.6172 -0.4752
    1MOL0     C   64   5.220   5.753  10.238  0.5866 -0.4403  0.4089
    1MOL0     C   65   5.147   5.656  10.235  0.6255  1.2291  0.6353
    1MOL0     C   66   5.170   6.193   9.824  0.7887 -0.6681 -0.9571
    1MOL0     C   67   5.093   6.310   9.807 -0.7060  0.3955  0.3036
    1MOL0     C   68   4.977   6.296   9.713 -0.6852  0.0262 -0.7261
    1MOL0     H   69   5.199   6.811   9.615 -1.3107 -0.6414 -1.7127
    1MOL0     H   70   5.135   7.038   9.566  3.2027  1.9736  1.4113
    1MOL0     H   71   5.040   7.283   9.927  2.2205 -1.7153 -1.1185
    1MOL0     H   72   4.878   7.297   9.856 -0.0378 -0.0467 -0.9944
    1MOL0     H   73   5.123   7.425   9.746  0.7657 -2.2298  0.3961
    1MOL0     H   74   4.960   7.448   9.689  2.5803 -0.1138 -1.5356
    1MOL0     H   75   4.890   7.551   9.897 -0.0647  0.5128  0.9597
    1MOL0     H   76   5.045   7.530   9.972  0.4182  0.6361 -0.6125
    1MOL0     H   77   5.164   7.692   9.821 -0.0990 -0.8304 -2.6996
    1MOL0     H   78   5.034   7.703   9.718  1.8490 -1.5329 -0.6452
    1MOL0     H   79   4.997   7.757  10.022  1.7538  0.9732 -0.3325
    1MOL0     H   80   4.897   7.818   9.888 -0.8602  1.6797  1.7770
    1MOL0     H   81   5.192   7.891   9.932 -0.8731 -0.5217  2.2545
    1MOL0     H   82   5.107   7.939   9.794  0.3363  0.3671 -0.3343
    1MOL0     H   83   4.954   7.997  10.054 -1.0195  2.7418 -0.0723
    1MOL0     H   84   4.956   8.075   9.892  3.8434 -0.4304 -4.7076
    1MOL0     H   85   5.080   8.209  10.089  2.1447  1.0644  1.2157
    1MOL0     H   86   5.207   8.088  10.056  0.3326  1.0482  0.1648
    1MOL0     H   87   5.296   8.078   9.812 -0.8859 -0.1288  1.9021
    1MOL0     H   88   5.391   8.189   9.569 -0.8254  0.1376 -1.3548
    1MOL0     H   89   5.467   8.319   9.675 -0.1885 -0.9200 -0.2451
    1MOL0     H   90   5.297   8.485   9.553 -0.8818  0.5718 -2.0749
    1MOL0     H   91   5.444   8.435   9.474  0.8089 -1.0953  1.5329
    1MOL0     H   92   5.201   8.264   9.436  1.0126 -1.1676  1.2474
    1MOL0     H   93   5.228   8.420   9.334  3.2472  1.2098  0.2656
    1MOL0     H   94   5.449   8.335   9.255  2.9686 -3.8428 -1.5514
    1MOL0     H   95   5.425   8.200   9.356 -0.6027  0.7253  0.2541
    1MOL0     H   96   5.428   7.959   9.218 -0.4865 -1.0289 -0.2214
    1MOL0     H   97   5.663   7.789   9.017  1.1202 -1.0820  2.0370
    1MOL0     H   98   5.571   7.786   9.162  0.4580  0.9555  1.0161
    1MOL0     H   99   5.726   7.870   9.156 -0.2624  1.0127  0.3372
    1MOL0     H  100   5.879   7.770   8.947 -1.6989 -0.0424 -0.2535
    1MOL0     H  101   6.066   7.643   8.867 -3.1535  0.0404  0.5585
    1MOL0     H  102   6.107   7.605   8.435  1.0886  3.8245 -1.5530
    1MOL0     H  103   6.239   7.714   8.439  0.3276 -2.3495 -2.8608
    1MOL0     H  104   6.285   7.433   8.560 -2.0705 -1.2920 -0.6000
    1MOL0     H  105   6.295   7.461   8.385  0.1069 -2.1676  1.3514
    1MOL0     H  106   6.479   7.594   8.580  1.1079  1.4699 -1.2720
    1MOL0     H  107   6.451   7.645   8.424  0.5575 -0.2311  0.1336
    1MOL0     H  108   6.537   7.439   8.332 -1.0373  1.5041 -0.3630
    1MOL0     H  109   6.502   7.357   8.488 -0.3160 -1.0766 -3.0633
    1MOL0     H  110   6.693   7.579   8.471  0.8151 -0.3127 -0.5613
    1MOL0     H  111   6.698   7.444   8.581  0.0153 -1.4953 -0.0618
    1MOL0     H  112   6.779   7.490   8.293 -3.0409  1.3116  1.2038
    1MOL0     H  113   6.748   7.314   8.359 -0.0884 -0.6205  0.8981
    1MOL0     H  114   6.911   7.395   8.534  3.1215  0.7013  0.0231
    1MOL0     H  115   6.963   7.535   8.427  1.9802 -0.8265 -0.6782
    1MOL0     H  116   7.032   7.392   8.262  1.1311 -0.0984 -0.5081
    1MOL0     H  117   7.013   7.239   8.360  0.4280  0.5339 -0.0914
    1MOL0     H  118   6.034   7.812   8.476 -2.0098 -4.3050 -1.3979
    1MOL0     H  119   5.839   7.944   8.551 -2.7023 -0.3972  1.3014
    1MOL0     H  120   5.570   8.220   8.824 -0.7284  0.5014 -0.0016
    1MOL0     H  121   5.384   8.316   8.964  1.0893 -0.1891 -0.0546
    1MOL0     H  122   4.904   7.069   9.934 -2.0363 -2.6675 -0.9235
    1MOL0     H  123   4.995   6.835   9.996  0.1431  1.1731 -1.4147
    1MOL0     H  124   5.296   6.533   9.963 -0.5885  0.5962 -1.2350
    1MOL0     H  125   5.421   6.312  10.013  1.4675 -0.2706 -1.7261
    1MOL0     H  126   5.215   5.953  10.005  2.5300  1.6493  2.3876
    1MOL0     H  127   5.287   5.933   9.841 -2.0612  0.0407  0.7488
    1MOL0     H  128   5.498   5.852   9.951 -1.8054 -1.8108  0.3312
    1MOL0     H  129   5.353   5.758  10.004 -2.2824 -0.0712  0.7335
    1MOL0     H  130   5.497   5.824  10.210  2.2129 -1.4619 -2.3971
    1MOL0     H  131   5.476   5.991  10.151  2.9251 -0.7116 -0.7974
    1MOL0     H  132   5.232   5.965  10.219  2.0304  1.6273 -1.5278
    1MOL0     H  133   5.334   5.902  10.344 -0.4712 -1.9662 -0.3566
    1MOL0     H  134   5.087   5.567  10.229  0.4326  1.4785 -2.4303
    1MOL0     H  135   5.139   6.098   9.781 -0.5963 -1.9099  2.4211
    1MOL0     H  136   5.002   6.351   9.622 -1.1838  1.8424  0.1877
    1MOL0     H  137   4.957   6.189   9.702 -1.3031 -0.2107  2.0406
    1MOL0     H  138   4.883   6.335   9.754 -2.2009 -2.5971 -1.4201
    2MOL0     O  139   9.362   7.589   6.860 -0.6650 -0.5763  0.5105
    2MOL0     C  140   9.331   7.587   6.735 -0.3576 -0.1475  0.6980
    2MOL0     O  141   9.316   7.471   6.663  0.7760 -0.1918 -0.2236
    2MOL0     C  142   9.306   7.347   6.728  0.1901 -0.3846 -0.1118
    2MOL0     C  143   9.420   7.268   6.720 -0.0336 -0.8893 -0.2884
    2MOL0     C  144   9.401   7.142   6.775 -0.0679  0.1848 -0.0096
    2MOL0     C  145   9.287   7.102   6.855  0.5382  0.8673  0.2993
    2MOL0     O  146   9.305   6.979   6.915  0.5411  0.2030  0.7452
    2MOL0     C  147   9.188   6.889   6.932  0.1676  0.5644  1.0143
    2MOL0     C  148   9.100   6.863   6.814  0.4371  0.6801  0.8027
    2MOL0     C  149   9.166   6.833   6.679  0.2778 -0.5558  0.3218
    2MOL0     C  150   9.265   6.717   6.677  0.3753 -1.0957 -0.2148
    2MOL0     C  151   9.373   6.741   6.571 -0.6255 -0.4694  0.1534
    2MOL0     C  152   9.444   6.614   6.549  0.5645  0.7160  0.1929
    2MOL0     C  153   9.565   6.620   6.446 -0.1316 -0.4204  0.1751
    2MOL0     C  154   9.615   6.495   6.390  0.3460 -0.4000 -0.2718
    2MOL0     N  155   9.511   6.415   6.312 -0.7808 -0.3727  0.3909
    2MOL0     C  156   9.445   6.460   6.202 -0.4063  0.6304  0.4495
    2MOL0     C  157   9.331   6.386   6.195 -0.4346 -1.1457 -0.5232
    2MOL0     C  158   9.203   6.403   6.105 -0.2648  0.1281 -1.4861
    2MOL0     C  159   9.123   6.522   6.158 -0.1744  0.3686  0.1547
    2MOL0     C  160   9.073   6.514   6.301 -0.0488  0.0210 -0.2179
    2MOL0     C  161   8.968   6.399   6.336 -0.5065 -0.4902 -0.2482
    2MOL0     O  162   8.905   6.429   6.462  0.0849  0.0785 -0.4227
    2MOL0     C  163   8.971   6.404   6.579  0.7259  0.1656 -0.1623
    2MOL0     C  164   9.101   6.347   6.593 -0.7515 -0.3233 -0.0442
    2MOL0     C  165   9.161   6.318   6.720  1.1002  0.7615  1.3396
    2MOL0     C  166   9.298   6.252   6.718  0.0845 -0.1170  0.0055
    2MOL0     C  167   9.096   6.348   6.840  0.3298 -0.3648  0.1325
    2MOL0     C  168   9.149   6.308   6.976 -0.2180  0.5776 -0.4078
    2MOL0     O  169   9.283   6.304   6.988 -0.4311 -0.2032  0.3640
    2MOL0     C  170   9.334   6.259   7.111 -0.4072 -0.6319 -0.3888
    2MOL0     C  171   9.415   6.358   7.175  0.5246 -0.0425 -0.7777
    2MOL0     C  172   9.469   6.322   7.292  0.6169  0.0811  0.2066
    2MOL0     C  173   9.457   6.199   7.355 -0.9937 -0.0036 -0.5001
    2MOL0     O  174   9.510   6.177   7.476  0.0762  0.4027 -0.3759
    2MOL0     C  175   9.408   6.135   7.576 -0.1072 -0.6761  0.4059
    2MOL0     C  176   9.475   6.040   7.686 -1.0968  0.0023  0.1866
    2MOL0     C  177   9.557   5.922   7.624 -1.5670  0.1458 -0.9275
    2MOL0     C  178   9.707   5.955   7.621 -0.7614  0.4739  0.2938
    2MOL0     C  179   9.796   5.837   7.659 -0.3141 -0.6787  0.4301
    2MOL0     C  180   9.947   5.867   7.674  0.2687 -0.1160 -1.2470
    2MOL0     C  181  10.001   5.903   7.537 -0.5025  0.0900  0.2828
    2MOL0     C  182  10.152   5.904   7.522  0.4109  0.5670 -0.1836
    2MOL0    Cl  183  10.220   6.007   7.639 -0.1361  0.3783 -0.4092
    2MOL0     C  184   9.390   6.096   7.283 -0.9553 -0.7203  0.2676
    2MOL0     C  185   9.326   6.132   7.160  0.1903 -0.6500 -0.4401
    2MOL0     O  186   9.072   6.269   7.067 -0.2520 -0.2004 -0.1682
    2MOL0     C  187   8.965   6.403   6.823 -0.0396 -0.0579  0.3214
    2MOL0     C  188   8.904   6.425   6.697 -0.0825 -0.4004  0.4752
    2MOL0     N  189   9.343   6.288   6.287 -0.2977  1.6367  0.0712
    2MOL0     N  190   9.456   6.301   6.350 -0.2152 -0.1745 -0.2807
    2MOL0     C  191   9.174   7.187   6.856 -0.0865  0.2719 -0.3584
    2MOL0     C  192   9.176   7.297   6.777 -0.6409  0.5258 -0.0333
    2MOL0     C  193   9.287   7.714   6.670 -0.7773  0.5411 -0.0939
    2MOL0     C  194   9.287   7.718   6.527 -0.1375 -0.5073  0.4440
    2MOL0     C  195   9.239   7.834   6.466 -0.2796  1.1137 -0.0570
    2MOL0     C  196   9.183   7.942   6.537 -0.4461 -0.1974 -0.7449
    2MOL0     O  197   9.142   8.059   6.473  0.1513  1.0376  0.4855
    2MOL0     C  198   9.049   8.044   6.360  0.0753  0.8951  0.7098
    2MOL0     C  199   9.087   8.147   6.248  0.2528 -0.4326 -0.1027
    2MOL0     C  200   9.032   8.093   6.115  0.4043 -0.0035 -0.1578
    2MOL0     C  201   9.002   8.198   6.018  0.1976  0.3553  0.0399
    2MOL0     C  202   8.863   8.228   6.009 -0.1848 -1.0867  0.2643
    2MOL0     C  203   8.742   8.254   5.993 -0.8382 -0.1609  1.1175
    2MOL0     C  204   9.192   7.934   6.676  0.1253 -0.2633 -0.0517
    2MOL0     C  205   9.239   7.820   6.739 -0.6703 -0.2804  0.3313
    2MOL0     C  206   9.220   7.834   6.885  0.6676  0.0548 -0.4926
    2MOL0     H  207   9.517   7.300   6.682 -0.1259  0.2658  0.3923
    2MOL0     H  208   9.475   7.063   6.773 -0.9090 -0.7267  1.8377
    2MOL0     H  209   9.109   6.926   6.997 -1.5112 -0.5606 -0.3077
    2MOL0     H  210   9.218   6.792   6.973 -0.6274  0.8851  2.4149
    2MOL0     H  211   9.032   6.787   6.854  0.4904  0.1003 -0.1776
    2MOL0     H  212   9.044   6.955   6.794 -0.8767 -0.6965 -2.8106
    2MOL0     H  213   9.076   6.798   6.627  0.7191 -2.3869  0.7169
    2MOL0     H  214   9.198   6.934   6.653  0.1514 -0.2041  1.4739
    2MOL0     H  215   9.311   6.697   6.774  0.0297  1.2889  0.4834
    2MOL0     H  216   9.212   6.624   6.651  0.6809 -0.9847 -1.3148
    2MOL0     H  217   9.446   6.814   6.607 -0.8761 -0.3378  0.4040
    2MOL0     H  218   9.332   6.787   6.481  0.5413  1.1910  0.4272
    2MOL0     H  219   9.485   6.582   6.645  0.5894 -1.0838 -0.3824
    2MOL0     H  220   9.367   6.546   6.510 -0.0474  3.9764 -5.4397
    2MOL0     H  221   9.648   6.672   6.494 -2.3402  3.9697 -0.2579
    2MOL0     H  222   9.534   6.684   6.364 -1.5837 -2.2080 -0.7695
    2MOL0     H  223   9.699   6.519   6.323 -1.5334  2.6436 -1.7374
    2MOL0     H  224   9.642   6.428   6.472 -0.7007 -0.7609 -0.2154
    2MOL0     H  225   9.470   6.556   6.158  4.3066  0.0278  1.2717
    2MOL0     H  226   9.140   6.316   6.121  3.5722 -2.3476  2.3224
    2MOL0     H  227   9.236   6.405   6.001  2.9787 -2.9722 -0.6819
    2MOL0     H  228   9.196   6.603   6.148  1.7411 -1.4023 -1.0708
    2MOL0     H  229   9.042   6.550   6.090  1.5419  2.6867 -1.1002
    2MOL0     H  230   9.159   6.512   6.368  0.0034  0.7670 -0.2513
    2MOL0     H  231   9.015   6.601   6.331 -0.4043 -0.6603  1.1217
    2MOL0     H  232   8.890   6.399   6.259  0.3532 -2.3878 -1.1927
    2MOL0     H  233   9.030   6.309   6.340  0.9492  0.5432  0.9349
    2MOL0     H  234   9.159   6.330   6.502 -1.2110 -1.7654 -0.0888
    2MOL0     H  235   9.317   6.228   6.613 -0.9911 -3.8440  0.5228
    2MOL0     H  236   9.322   6.158   6.769  0.2386 -1.4453 -2.3672
    2MOL0     H  237   9.367   6.329   6.752 -0.8341  1.6930 -1.9262
    2MOL0     H  238   9.421   6.458   7.134  2.4380 -0.2713 -1.1466
    2MOL0     H  239   9.538   6.383   7.350  1.1158 -0.4880  0.2218
    2MOL0     H  240   9.373   6.230   7.619  0.7949  0.9518 -2.2438
    2MOL0     H  241   9.336   6.071   7.524 -0.1333  1.6057 -2.6210
    2MOL0     H  242   9.532   6.098   7.758 -0.8890 -0.1335  0.1308
    2MOL0     H  243   9.392   6.003   7.747 -2.2590  1.5543 -0.3825
    2MOL0     H  244   9.523   5.894   7.524 -1.0431 -0.7039 -0.8812
    2MOL0     H  245   9.521   5.834   7.679 -4.9862  0.7127 -2.0432
    2MOL0     H  246   9.729   6.037   7.691 -0.6396 -0.7359  1.7255
    2MOL0     H  247   9.722   5.994   7.520 -0.8008  1.9862  0.8444
    2MOL0     H  248   9.750   5.812   7.755  2.8279  4.1107  3.6182
    2MOL0     H  249   9.782   5.758   7.585  3.2914 -1.7184  0.7036
    2MOL0     H  250  10.000   5.776   7.702 -2.9273 -3.2244 -4.2769
    2MOL0     H  251   9.968   5.948   7.744 -4.1265  0.6081 -0.4418
    2MOL0     H  252   9.966   6.004   7.514 -0.9642  0.1134  1.0634
    2MOL0     H  253   9.966   5.834   7.459 -1.6989  2.7109 -1.6466
    2MOL0     H  254  10.180   5.938   7.422 -2.3159 -2.0284 -1.9955
    2MOL0     H  255  10.179   5.799   7.542 -2.4746 -0.1656  0.2879
    2MOL0     H  256   9.388   5.994   7.320 -0.1906 -1.2402 -1.0151
    2MOL0     H  257   9.254   6.064   7.116  0.7886 -2.1646  0.8557
    2MOL0     H  258   8.907   6.422   6.913  1.1157  0.3081  1.0242
    2MOL0     H  259   8.805   6.468   6.706  0.6183  1.1588  1.1292
    2MOL0     H  260   9.076   7.151   6.888 -0.9734  0.8229 -2.2853
    2MOL0     H  261   9.089   7.361   6.765 -0.7325  0.3986 -0.0456
    2MOL0     H  262   9.317   7.638   6.460  0.3782 -0.1406  0.2269
    2MOL0     H  263   9.250   7.826   6.359 -0.4675 -0.7204  0.0225
    2MOL0     H  264   9.049   7.947   6.307 -0.1379  0.4602  1.4960
    2MOL0     H  265   8.947   8.057   6.397  0.7060  3.1326  1.8268
    2MOL0     H  266   9.196   8.149   6.240  0.5486 -1.3002  2.6405
    2MOL0     H  267   9.041   8.246   6.258  0.2623 -0.3150 -1.1432
    2MOL0     H  268   9.099   8.015   6.077  3.1694  2.1815 -0.1095
    2MOL0     H  269   8.940   8.040   6.139 -0.1835  0.6776 -0.8713
    2MOL0     H  270   9.032   8.160   5.919  0.3205 -0.6854  0.4625
    2MOL0     H  271   9.056   8.290   6.042 -0.5891  0.3787  1.8699
    2MOL0     H  272   8.643   8.285   5.967 -0.6518  0.1153  0.7212
    2MOL0     H  273   9.166   8.032   6.714  0.5321 -0.0677 -0.2683
    2MOL0     H  274   9.170   7.750   6.933  1.1946 -0.8595 -1.4970
    2MOL0     H  275   9.316   7.832   6.936 -0.5866 -1.8957  2.0218
    2MOL0     H  276   9.159   7.922   6.912 -0.4780 -0.4342 -1.4038
    3MOL0     O  277   2.585   0.367   1.346  0.4045 -0.6900 -0.1032
    3MOL0     C  278   2.680   0.439   1.337  0.3335  0.3335 -1.4025
    3MOL0     O  279   2.761   0.470   1.441 -0.1591 -0.3978 -0.0861
    3MOL0     C  280   2.738   0.416   1.561 -0.7493  0.6185 -0.2744
    3MOL0     C  281   2.776   0.283   1.574 -0.3510 -0.0221  0.2233
    3MOL0     C  282   2.770   0.225   1.702 -0.5757 -0.7074  0.1822
    3MOL0     C  283   2.724   0.290   1.812  0.6434 -0.5208  0.4717
    3MOL0     O  284   2.693   0.221   1.920 -0.1220 -0.8023  0.0497
    3MOL0     C  285   2.614   0.279   2.031 -1.4136 -0.2552  0.0163
    3MOL0     C  286   2.595   0.179   2.154  0.6467 -0.3199  0.7931
    3MOL0     C  287   2.521   0.040   2.132 -0.1730 -0.0643 -0.0652
    3MOL0     C  288   2.520  -0.042   2.263 -0.5944  1.0316 -0.5153
    3MOL0     C  289   2.482   0.037   2.390 -0.0355 -0.3122 -0.2540
    3MOL0     C  290   2.464  -0.058   2.513  0.4587 -0.1718 -0.0868
    3MOL0     C  291   2.593  -0.123   2.576 -0.4574  0.4508 -0.8160
    3MOL0     C  292   2.551  -0.241   2.665 -0.7277 -0.3484  0.9920
    3MOL0     N  293   2.662  -0.267   2.758  0.3173 -0.1640  0.0756
    3MOL0     C  294   2.795  -0.309   2.738 -0.1923 -1.5321  0.6664
    3MOL0     C  295   2.841  -0.342   2.862 -0.0800 -0.1327 -0.6052
    3MOL0     C  296   2.970  -0.410   2.913 -0.1641  0.8679  0.3528
    3MOL0     C  297   2.940  -0.548   2.978  0.2615 -0.9103  0.7468
    3MOL0     C  298   3.061  -0.627   3.010 -0.4555  0.4159 -0.8377
    3MOL0     C  299   3.034  -0.764   3.078 -0.7506  0.2434  0.4304
    3MOL0     O  300   2.991  -0.761   3.215  0.0611 -0.1556 -0.0271
    3MOL0     C  301   3.085  -0.714   3.294 -0.5436 -0.4145 -0.1619
    3MOL0     C  302   3.176  -0.810   3.360 -0.0006 -0.3850 -0.0476
    3MOL0     C  303   3.237  -0.775   3.480 -1.2825 -0.7503  0.2340
    3MOL0     C  304   3.325  -0.881   3.531 -0.3650 -0.3148  0.2288
    3MOL0     C  305   3.227  -0.647   3.521  0.4455 -0.6059 -0.1410
    3MOL0     C  306   3.316  -0.598   3.620  0.3305  0.7902  0.0717
    3MOL0     O  307   3.386  -0.488   3.592  0.4784 -0.2830  0.3091
    3MOL0     C  308   3.490  -0.449   3.676 -0.4081 -0.0078 -0.3584
    3MOL0     C  309   3.534  -0.318   3.656 -0.0651  0.0416  0.6958
    3MOL0     C  310   3.647  -0.267   3.719 -1.0525  0.1532 -0.3550
    3MOL0     C  311   3.716  -0.351   3.816  0.7414 -0.0026  0.4734
    3MOL0     O  312   3.824  -0.302   3.890  0.2213  0.5133 -0.4606
    3MOL0     C  313   3.933  -0.219   3.829 -0.6553  1.0338  0.2585
    3MOL0     C  314   4.031  -0.274   3.716 -0.9020  0.4175  0.1701
    3MOL0     C  315   4.129  -0.366   3.784  0.1222  0.1979 -0.5489
    3MOL0     C  316   4.066  -0.497   3.805 -0.7490  0.0962  0.5627
    3MOL0     C  317   4.163  -0.617   3.857  0.0206  0.2889  0.7058
    3MOL0     C  318   4.271  -0.664   3.761 -0.7146  0.0036 -0.1906
    3MOL0     C  319   4.397  -0.728   3.836  0.3337  0.6825 -0.9292
    3MOL0     C  320   4.501  -0.809   3.748  0.1574 -0.4899 -0.0096
    3MOL0    Cl  321   4.644  -0.714   3.676 -0.4372 -0.1407  0.2597
    3MOL0     C  322   3.664  -0.482   3.846 -0.4936 -0.5740  0.2130
    3MOL0     C  323   3.554  -0.528   3.772 -0.7354 -0.2190  0.4716
    3MOL0     O  324   3.295  -0.648   3.731  0.0713  1.3349 -0.2461
    3MOL0     C  325   3.137  -0.558   3.473  0.2617  0.3813  0.1119
    3MOL0     C  326   3.064  -0.596   3.360  0.6959 -0.3677 -0.1850
    3MOL0     N  327   2.740  -0.309   2.961 -0.2836  0.5315 -0.0614
    3MOL0     N  328   2.642  -0.252   2.896  0.5350  0.3045  0.0482
    3MOL0     C  329   2.678   0.430   1.794 -0.2404  0.8770 -0.2211
    3MOL0     C  330   2.686   0.489   1.665  0.5451 -0.1076 -0.5764
    3MOL0     C  331   2.718   0.473   1.198 -0.0703 -0.2663  0.4847
    3MOL0     C  332   2.789   0.368   1.133 -0.2712  1.1010 -0.4378
    3MOL0     C  333   2.808   0.387   0.994 -0.2086  0.6942  0.5721
    3MOL0     C  334   2.791   0.510   0.935  0.4559 -0.2948 -0.1063
    3MOL0     O  335   2.819   0.545   0.801 -0.1088 -0.3785 -0.5283
    3MOL0     C  336   2.893   0.456   0.717  0.4444 -0.1820 -0.6311
    3MOL0     C  337   2.861   0.504   0.579  0.3814 -0.4102 -0.3871
    3MOL0     C  338   2.917   0.652   0.561  0.4461 -0.1919 -0.7050
    3MOL0     C  339   2.849   0.706   0.422  0.3650  1.5823 -1.2747
    3MOL0     C  340   2.903   0.831   0.363  0.6802  0.8549 -0.1372
    3MOL0     C  341   2.970   0.930   0.336 -0.3645  0.3347  0.8379
    3MOL0     C  342   2.724   0.614   0.992  0.1976 -0.3763  1.5980
    3MOL0     C  343   2.684   0.593   1.127  0.1295 -0.0062 -1.0262
    3MOL0     C  344   2.615   0.700   1.210 -0.0255 -1.2235  0.2084
    3MOL0     H  345   2.821   0.212   1.506 -0.2975  0.4518 -0.2415
    3MOL0     H  346   2.778   0.117   1.715 -0.1064 -0.4864  2.0732
    3MOL0     H  347   2.515   0.295   1.987 -1.0654  1.3942 -0.2446
    3MOL0     H  348   2.662   0.373   2.061  3.4154 -3.0348  2.2806
    3MOL0     H  349   2.692   0.148   2.193  0.9726 -2.5078 -1.4425
    3MOL0     H  350   2.546   0.239   2.231 -1.1097 -0.0388 -0.4627
    3MOL0     H  351   2.416   0.064   2.112  0.1106 -0.2629 -2.0307
    3MOL0     H  352   2.563  -0.013   2.046 -0.0276  1.9095 -1.2571
    3MOL0     H  353   2.446  -0.121   2.251  0.8710 -0.8217  1.8589
    3MOL0     H  354   2.615  -0.097   2.262 -0.7607  0.6348  1.6495
    3MOL0     H  355   2.383   0.082   2.380  0.1552  0.7034  1.7880
    3MOL0     H  356   2.546   0.123   2.413 -0.5945  0.1257 -0.3085
    3MOL0     H  357   2.396  -0.021   2.590  0.5809 -0.3959  0.1333
    3MOL0     H  358   2.415  -0.148   2.474  0.2159 -0.6905  1.3307
    3MOL0     H  359   2.645  -0.042   2.628 -2.9996  3.3622 -2.3994
    3MOL0     H  360   2.658  -0.168   2.500 -1.2228 -0.3304 -1.0231
    3MOL0     H  361   2.471  -0.206   2.730  1.0665 -0.7320  3.5878
    3MOL0     H  362   2.522  -0.329   2.606  3.8499 -1.8468  0.5295
    3MOL0     H  363   2.856  -0.333   2.652  2.8233  1.9765  1.5781
    3MOL0     H  364   3.020  -0.340   2.980 -1.0050  0.5021  1.3772
    3MOL0     H  365   3.042  -0.422   2.831  3.4946  1.7030  3.1779
    3MOL0     H  366   2.887  -0.534   3.073 -0.5871  0.0056  0.1608
    3MOL0     H  367   2.867  -0.600   2.915 -2.0914  4.0259 -1.1715
    3MOL0     H  368   3.127  -0.637   2.924  0.1109 -0.5175 -0.3042
    3MOL0     H  369   3.111  -0.561   3.081 -2.9976 -0.3219  1.8191
    3MOL0     H  370   2.964  -0.828   3.024  0.5463  1.2035 -2.6111
    3MOL0     H  371   3.125  -0.826   3.074 -2.1424 -1.9062  0.4928
    3MOL0     H  372   3.182  -0.913   3.326  3.7508 -0.5800  0.7862
    3MOL0     H  373   3.417  -0.878   3.471 -0.9971  2.1192 -0.7296
    3MOL0     H  374   3.288  -0.985   3.534 -1.2643  0.0047  0.5936
    3MOL0     H  375   3.358  -0.865   3.634  0.4039  2.9677 -0.4437
    3MOL0     H  376   3.493  -0.251   3.581  0.5358 -0.5144 -0.1575
    3MOL0     H  377   3.687  -0.169   3.694 -0.3354  0.4202  1.6528
    3MOL0     H  378   3.895  -0.130   3.779  1.1035  2.2415  0.9569
    3MOL0     H  379   4.002  -0.187   3.908  0.0061  0.8443 -0.2277
    3MOL0     H  380   3.975  -0.317   3.633  1.9455 -2.8331 -0.2835
    3MOL0     H  381   4.094  -0.206   3.659  1.8388  0.1886  2.6777
    3MOL0     H  382   4.166  -0.319   3.876 -1.1018  3.2105 -1.4569
    3MOL0     H  383   4.212  -0.372   3.713  0.6558  3.7627 -0.4064
    3MOL0     H  384   4.037  -0.532   3.705 -3.6971 -0.1456  1.4157
    3MOL0     H  385   3.977  -0.506   3.867  0.1073  1.2491  2.0195
    3MOL0     H  386   4.218  -0.585   3.947 -0.3112 -0.9932  1.3900
    3MOL0     H  387   4.083  -0.690   3.874 -1.6633  2.3470  2.3337
    3MOL0     H  388   4.316  -0.581   3.706 -0.8037 -0.9069 -1.6958
    3MOL0     H  389   4.235  -0.737   3.688  0.0397 -0.0070 -0.5614
    3MOL0     H  390   4.361  -0.794   3.916  0.3754  0.1792 -1.3194
    3MOL0     H  391   4.453  -0.644   3.877 -0.4347  1.0170 -0.5456
    3MOL0     H  392   4.445  -0.855   3.666  2.3578 -0.8030 -1.4040
    3MOL0     H  393   4.542  -0.895   3.802 -0.6551 -0.5062  0.6041
    3MOL0     H  394   3.704  -0.548   3.923  2.5013  0.0098 -0.6973
    3MOL0     H  395   3.528  -0.628   3.805  1.8726 -1.8654 -1.9842
    3MOL0     H  396   3.120  -0.464   3.525  0.8923 -0.5127  2.0688
    3MOL0     H  397   3.006  -0.522   3.306 -0.0927 -1.2862 -0.6125
    3MOL0     H  398   2.639   0.482   1.881 -0.8742  1.1060 -0.6322
    3MOL0     H  399   2.673   0.595   1.647  4.5395  0.2499 -2.4117
    3MOL0     H  400   2.810   0.268   1.170  0.5073  0.8193 -1.5741
    3MOL0     H  401   2.825   0.291   0.946 -3.0926 -0.1400  1.0198
    3MOL0     H  402   3.001   0.452   0.732  0.1307 -0.4770  2.1092
    3MOL0     H  403   2.855   0.354   0.732  0.5398 -0.2898 -1.1330
    3MOL0     H  404   2.754   0.503   0.558  0.2875  2.8220 -0.4726
    3MOL0     H  405   2.911   0.444   0.503 -1.7638 -1.3070 -1.1632
    3MOL0     H  406   2.897   0.725   0.640 -0.7228 -0.7094 -0.4925
    3MOL0     H  407   3.025   0.644   0.551  0.5561 -0.1120  0.2866
    3MOL0     H  408   2.746   0.730   0.446  1.0206  0.9209  2.9496
    3MOL0     H  409   2.846   0.616   0.359 -4.3218 -0.4129  1.3608
    3MOL0     H  410   3.039   1.006   0.306 -0.0468 -0.2707  0.0202
    3MOL0     H  411   2.694   0.705   0.942 -0.5380 -1.0129  0.8721
    3MOL0     H  412   2.602   0.800   1.167 -1.3656 -0.9815  1.1186
    3MOL0     H  413   2.509   0.675   1.223 -0.9767  1.6903 -1.0167
    3MOL0     H  414   2.661   0.719   1.307 -1.9315 -2.3334  1.3996
    4MOL0     O  415   9.242   9.368   4.710  0.2929  0.9495 -1.0241
    4MOL0     C  416   9.143   9.301   4.735  0.9552  0.4184  0.2846
    4MOL0     O  417   9.151   9.180   4.798  0.0099  0.6057  0.4323
    4MOL0     C  418   9.271   9.120   4.843 -0.2186  0.2403 -0.3329
    4MOL0     C  419   9.356   9.184   4.930 -0.4257  1.1686  0.3983
    4MOL0     C  420   9.473   9.127   4.976 -0.0347  0.2091 -0.1618
    4MOL0     C  421   9.512   8.991   4.934  0.6680 -0.1698 -0.9138
    4MOL0     O  422   9.628   8.921   4.943 -0.7307  0.0587 -0.4161
    4MOL0     C  423   9.715   8.974   5.043 -0.3798 -0.1557  0.3096
    4MOL0     C  424   9.816   8.870   5.078  0.0032 -0.9727  0.2089
    4MOL0     C  425   9.871   8.913   5.217 -0.1663  0.2181 -1.2829
    4MOL0     C  426  10.003   8.832   5.260  1.1715  0.7793  0.2746
    4MOL0     C  427  10.061   8.878   5.398 -1.1387 -0.1360 -1.0264
    4MOL0     C  428  10.197   8.811   5.409  0.2155 -0.1388  0.4419
    4MOL0     C  429  10.272   8.854   5.551 -0.4183 -0.0462 -0.5010
    4MOL0     C  430  10.376   8.758   5.599 -0.7111  0.2914  0.7436
    4MOL0     N  431  10.479   8.732   5.498  0.4362 -0.2767  0.7365
    4MOL0     C  432  10.459   8.638   5.395 -0.9685  0.0427 -0.5245
    4MOL0     C  433  10.566   8.655   5.315 -0.6158  0.0480 -0.5960
    4MOL0     C  434  10.589   8.579   5.190 -0.1518  0.4872  0.0601
    4MOL0     C  435  10.633   8.438   5.235  0.2238  1.0730 -0.2811
    4MOL0     C  436  10.776   8.439   5.297  0.2504  0.6535  0.0633
    4MOL0     C  437  10.831   8.320   5.377 -0.2225 -0.1071 -0.4505
    4MOL0     O  438  10.851   8.202   5.297  0.7742 -0.5943 -0.3610
    4MOL0     C  439  10.787   8.085   5.325  0.2423 -1.0048 -0.4232
    4MOL0     C  440  10.721   8.016   5.221  0.0556  0.2338 -0.3704
    4MOL0     C  441  10.659   7.895   5.252 -0.5309 -0.5236  0.3458
    4MOL0     C  442  10.589   7.828   5.135  0.8124 -0.0016  0.1053
    4MOL0     C  443  10.675   7.831   5.373 -0.6153 -0.5934 -0.0982
    4MOL0     C  444  10.632   7.698   5.410  0.8007 -0.9534 -0.2793
    4MOL0     O  445  10.740   7.607   5.408 -0.0747 -0.0691 -0.8937
    4MOL0     C  446  10.726   7.480   5.441  0.4710 -0.1319 -0.2915
    4MOL0     C  447  10.621   7.419   5.515 -0.6287  0.5056 -0.3598
    4MOL0     C  448  10.611   7.278   5.508  0.0706 -0.5424 -0.0195
    4MOL0     C  449  10.716   7.187   5.458  0.4961  0.7609  0.8518
    4MOL0     O  450  10.711   7.053   5.448 -1.1289 -0.2505 -0.4000
    4MOL0     C  451  10.598   6.985   5.498 -0.2188  0.6321 -0.4665
    4MOL0     C  452  10.602   6.839   5.462  0.2851 -0.1243 -0.6214
    4MOL0     C  453  10.505   6.759   5.536 -0.0291  0.8597 -0.0573
    4MOL0     C  454  10.365   6.785   5.479  0.9598  0.0214 -0.0430
    4MOL0     C  455  10.293   6.653   5.451  0.3854 -0.0732 -0.6478
    4MOL0     C  456  10.212   6.612   5.579 -0.0820 -0.3919  0.2686
    4MOL0     C  457  10.108   6.492   5.567 -0.7435 -0.4305 -0.7591
    4MOL0     C  458  10.049   6.474   5.710  0.8732  0.0048  0.2209
    4MOL0    Cl  459  10.164   6.420   5.840  0.1053  0.3168 -0.0671
    4MOL0     C  460  10.829   7.252   5.406 -0.0726 -0.3862  0.1244
    4MOL0     C  461  10.825   7.391   5.392 -0.0359 -0.0088 -0.3894
    4MOL0     O  462  10.511   7.673   5.432 -0.4950  0.4050 -0.3343
    4MOL0     C  463  10.734   7.900   5.476 -0.2719 -0.1373  0.5857
    4MOL0     C  464  10.786   8.024   5.459 -0.2304 -0.4102  0.9218
    4MOL0     N  465  10.642   8.742   5.383 -0.0222 -0.3875  0.1704
    4MOL0     N  466  10.595   8.804   5.481 -0.9694  1.2252 -0.4589
    4MOL0     C  467   9.421   8.925   4.855  1.0491  0.4477  0.7782
    4MOL0     C  468   9.296   8.984   4.807 -0.4588 -0.2508 -1.1094
    4MOL0     C  469   9.023   9.376   4.726  0.0451 -0.4621 -0.9024
    4MOL0     C  470   9.021   9.523   4.739 -0.6993 -0.5081  0.6418
    4MOL0     C  471   8.911   9.607   4.755 -0.5246  0.1496 -0.4623
    4MOL0     C  472   8.788   9.537   4.763  0.2818  0.2695  0.0891
    4MOL0     O  473   8.670   9.596   4.779  0.5082 -0.4640  0.2566
    4MOL0     C  474   8.659   9.715   4.860  0.2026  0.2056 -0.5238
    4MOL0     C  475   8.718   9.702   5.009 -0.9328  0.4012 -0.1653
    4MOL0     C  476   8.702   9.810   5.105  0.8133  0.1949  0.4596
    4MOL0     C  477   8.758   9.755   5.244 -0.3944  0.0530 -0.5933
    4MOL0     C  478   8.772   9.865   5.336  1.6178 -0.4100  0.3700
    4MOL0     C  479   8.794   9.949   5.426 -0.4360 -0.6079  0.3823
    4MOL0     C  480   8.779   9.399   4.752  0.1886 -0.3909 -0.5606
    4MOL0     C  481   8.896   9.317   4.740  0.2140 -0.0447 -0.4568
    4MOL0     C  482   8.870   9.167   4.728  0.0929  0.0906  0.0328
    4MOL0     H  483   9.333   9.283   4.970  1.3898  0.6578  2.9551
    4MOL0     H  484   9.548   9.176   5.037 -0.5580 -1.4778  1.9843
    4MOL0     H  485   9.660   8.991   5.136  1.2625 -2.0698  1.7257
    4MOL0     H  486   9.755   9.074   5.023  0.4276 -0.1190  1.9550
    4MOL0     H  487   9.754   8.780   5.087 -0.5834 -0.5581  0.3195
    4MOL0     H  488   9.884   8.851   4.994  1.8120 -2.6259  1.9373
    4MOL0     H  489   9.904   9.017   5.223  1.5991 -0.3706  0.4973
    4MOL0     H  490   9.789   8.906   5.288  0.1844 -1.9959 -0.9984
    4MOL0     H  491   9.979   8.726   5.273  3.8644  0.2197  1.3254
    4MOL0     H  492  10.083   8.841   5.186 -0.3923  1.7931 -1.3756
    4MOL0     H  493  10.004   8.846   5.486  0.0552  2.6760  0.9096
    4MOL0     H  494  10.069   8.987   5.403  1.8494  0.0196 -4.5882
    4MOL0     H  495  10.176   8.704   5.400  1.2920 -0.2164 -1.6728
    4MOL0     H  496  10.262   8.833   5.324 -0.4294  0.2745  0.0461
    4MOL0     H  497  10.199   8.844   5.633  0.1202 -0.1939 -0.0359
    4MOL0     H  498  10.306   8.958   5.543 -3.5190  1.1114 -0.0485
    4MOL0     H  499  10.429   8.791   5.689 -1.5332  1.8175  0.7150
    4MOL0     H  500  10.319   8.668   5.624 -1.4336  0.9198  1.4193
    4MOL0     H  501  10.372   8.574   5.395 -1.8760  1.2218  0.8423
    4MOL0     H  502  10.662   8.645   5.143 -0.1235 -0.1819 -0.8800
    4MOL0     H  503  10.496   8.582   5.132  1.4918  0.5641 -2.7856
    4MOL0     H  504  10.558   8.379   5.287  2.0071  0.0145  1.2124
    4MOL0     H  505  10.652   8.374   5.149  0.7776 -2.0681  2.0223
    4MOL0     H  506  10.840   8.468   5.213 -0.5696 -1.3698 -1.3348
    4MOL0     H  507  10.769   8.513   5.377 -4.9065  1.1880 -0.5615
    4MOL0     H  508  10.926   8.350   5.420  1.8423 -3.0088 -2.5524
    4MOL0     H  509  10.769   8.287   5.461 -2.5337  3.5564 -0.5060
    4MOL0     H  510  10.714   8.077   5.132  1.7315  5.2327  2.5554
    4MOL0     H  511  10.648   7.749   5.086  1.3073  0.4755 -0.0728
    4MOL0     H  512  10.569   7.902   5.058 -0.5178  0.0776  0.5039
    4MOL0     H  513  10.488   7.790   5.156  0.4569  0.1764 -1.1571
    4MOL0     H  514  10.550   7.482   5.567 -0.5090  1.2054 -1.0208
    4MOL0     H  515  10.527   7.222   5.546 -0.5441  0.7906  0.6293
    4MOL0     H  516  10.593   6.994   5.607 -1.2737  0.5649 -0.5007
    4MOL0     H  517  10.504   7.026   5.462 -0.6070 -0.0223 -0.2131
    4MOL0     H  518  10.592   6.830   5.353  1.4619  0.3860 -0.7918
    4MOL0     H  519  10.704   6.809   5.487 -0.3708 -2.3846 -0.3684
    4MOL0     H  520  10.510   6.783   5.643  2.1781  2.9935 -0.5569
    4MOL0     H  521  10.535   6.657   5.508  0.9175  1.3632 -0.9275
    4MOL0     H  522  10.362   6.856   5.396 -0.5020 -0.2209 -0.2405
    4MOL0     H  523  10.328   6.827   5.574  2.2202 -1.5407  1.1943
    4MOL0     H  524  10.218   6.664   5.371  0.5910  1.4935 -0.6525
    4MOL0     H  525  10.367   6.576   5.430  2.2272  0.5603  2.7792
    4MOL0     H  526  10.149   6.695   5.610 -0.0783 -0.4124  0.3280
    4MOL0     H  527  10.301   6.592   5.640  1.6959 -2.3641 -2.7084
    4MOL0     H  528  10.164   6.408   5.526  0.5215  1.1270 -2.3828
    4MOL0     H  529  10.026   6.502   5.496  0.7118  1.0799 -2.3107
    4MOL0     H  530   9.971   6.397   5.708  0.2089  0.6574 -2.2382
    4MOL0     H  531  10.011   6.573   5.737 -0.7729 -0.7489  0.8312
    4MOL0     H  532  10.911   7.196   5.362 -0.2629  0.3391 -1.2274
    4MOL0     H  533  10.917   7.423   5.345  1.2568 -0.8943  1.4444
    4MOL0     H  534  10.743   7.842   5.568  0.8629 -1.2214 -0.1871
    4MOL0     H  535  10.848   8.070   5.536  0.3422  1.5942 -0.6439
    4MOL0     H  536   9.427   8.828   4.807 -2.1364  0.0794  0.8490
    4MOL0     H  537   9.222   8.933   4.746  0.7321 -1.4908 -1.5568
    4MOL0     H  538   9.122   9.561   4.742  0.6034 -3.4406  4.9588
    4MOL0     H  539   8.920   9.714   4.770  2.2550 -0.2444  1.5386
    4MOL0     H  540   8.705   9.803   4.814 -0.9932  0.7689 -0.6945
    4MOL0     H  541   8.553   9.732   4.880  0.4168  1.4143 -0.3228
    4MOL0     H  542   8.827   9.694   5.008 -1.0140 -0.8623  0.0315
    4MOL0     H  543   8.677   9.612   5.055  1.4286  0.0050  1.3677
    4MOL0     H  544   8.750   9.904   5.076  1.7460 -0.1576  0.8086
    4MOL0     H  545   8.597   9.837   5.118  0.2685 -1.9416  0.8105
    4MOL0     H  546   8.851   9.699   5.235 -0.7184 -0.7373  0.7167
    4MOL0     H  547   8.686   9.693   5.298  1.2941 -0.5648  1.0808
    4MOL0     H  548   8.831  10.025   5.492 -1.5918  0.9653 -0.7185
    4MOL0     H  549   8.689   9.343   4.776 -0.0666  0.3469  0.2718
    4MOL0     H  550   8.893   9.120   4.824  0.8426 -1.5317 -0.8995
    4MOL0     H  551   8.765   9.164   4.698 -0.0149  3.7490 -0.4652
    4MOL0     H  552   8.924   9.108   4.654  3.6609  4.7918 -1.6207
    5MOL0     O  553   2.140  10.395   8.733  0.0107 -0.1643  0.2173
    5MOL0     C  554   2.098  10.403   8.613  0.2116  0.1405 -0.5539
    5MOL0     O  555   2.036  10.294   8.554  0.3741 -0.3768 -0.5393
    5MOL0     C  556   1.983  10.213   8.649 -0.5627 -0.2507 -0.8217
    5MOL0     C  557   2.063  10.108   8.714  0.1564 -0.8093  0.1456
    5MOL0     C  558   2.005  10.013   8.797  0.0993 -0.3934  1.2351
    5MOL0     C  559   1.870  10.015   8.812 -0.1309  0.0865  0.1293
    5MOL0     O  560   1.806   9.916   8.889  0.3062  0.0302  0.4334
    5MOL0     C  561   1.677   9.939   8.946  0.0366  0.9037 -0.0421
    5MOL0     C  562   1.664   9.848   9.067 -0.3047 -0.6864  0.1072
    5MOL0     C  563   1.520   9.836   9.111 -0.0225 -0.6475  0.2807
    5MOL0     C  564   1.512   9.749   9.242 -0.2258 -0.4284  0.1897
    5MOL0     C  565   1.374   9.770   9.299  0.5744  0.4237  0.1992
    5MOL0     C  566   1.269   9.672   9.234 -0.0865  0.4331 -0.0912
    5MOL0     C  567   1.128   9.704   9.268  0.5878  0.8854  0.3736
    5MOL0     C  568   1.021   9.597   9.232 -1.0295 -0.8929  0.3602
    5MOL0     N  569   0.986   9.605   9.086  0.4438  0.2376  0.1119
    5MOL0     C  570   0.898   9.690   9.025 -0.1303 -0.6973  0.4165
    5MOL0     C  571   0.877   9.650   8.895  0.2954 -0.3011  0.0511
    5MOL0     C  572   0.793   9.727   8.797  0.3890 -0.0899  1.0078
    5MOL0     C  573   0.846   9.858   8.747 -0.0721 -1.0327  0.5224
    5MOL0     C  574   0.987   9.857   8.698  0.6463 -0.0766  0.4255
    5MOL0     C  575   1.016   9.977   8.609  0.3491 -0.0701  0.0181
    5MOL0     O  576   0.977   9.947   8.477  0.1048  0.4065  0.2395
    5MOL0     C  577   0.924  10.048   8.398  0.2983  0.2380 -0.0085
    5MOL0     C  578   1.021  10.118   8.333 -0.4552 -0.2943 -0.7761
    5MOL0     C  579   0.984  10.225   8.256  0.0452  0.4718  0.0685
    5MOL0     C  580   1.089  10.311   8.188 -0.0675 -0.4479  0.1556
    5MOL0     C  581   0.850  10.269   8.247 -0.0712 -0.4957  0.2032
    5MOL0     C  582   0.793  10.374   8.144 -0.2716  0.3773  0.4053
    5MOL0     O  583   0.687  10.443   8.190  0.5489  0.1255  0.2170
    5MOL0     C  584   0.616  10.525   8.106  0.4240  0.8204  0.2220
    5MOL0     C  585   0.531  10.463   8.004  0.9641 -0.8210 -0.2000
    5MOL0     C  586   0.457  10.539   7.916 -0.2757  0.0524  0.5019
    5MOL0     C  587   0.464  10.675   7.911 -0.1615  0.5888 -1.1639
    5MOL0     O  588   0.376  10.734   7.826  0.6003 -0.5100  0.7722
    5MOL0     C  589   0.347  10.879   7.822 -0.2104 -0.2689  1.0122
    5MOL0     C  590   0.319  10.933   7.681  0.9291 -0.4722 -0.3218
    5MOL0     C  591   0.201  10.871   7.598  0.0599  0.1529  0.0950
    5MOL0     C  592   0.208  10.925   7.451 -0.4836 -0.2371  0.1873
    5MOL0     C  593   0.076  10.884   7.381 -0.5681  0.1068 -0.4133
    5MOL0     C  594  -0.027  10.987   7.403  1.1086 -0.3687  0.2170
    5MOL0     C  595  -0.165  10.944   7.344  0.3176 -0.0665  0.0398
    5MOL0     C  596  -0.268  11.058   7.367 -0.5895  0.8969  0.0803
    5MOL0    Cl  597  -0.404  11.058   7.250  0.2647  0.1715  0.0046
    5MOL0     C  598   0.551  10.743   8.002  0.6509 -0.1400 -0.2222
    5MOL0     C  599   0.626  10.666   8.104  0.3478  0.6735 -1.0583
    5MOL0     O  600   0.851  10.387   8.031  0.2832 -0.1658 -0.8290
    5MOL0     C  601   0.752  10.195   8.321 -0.1395  0.5679 -0.7641
    5MOL0     C  602   0.792  10.092   8.404  0.3987  0.3678  0.4359
    5MOL0     N  603   0.959   9.537   8.878 -0.1100 -0.6685 -0.3406
    5MOL0     N  604   1.025   9.521   8.989 -0.2117  0.0728  0.9231
    5MOL0     C  605   1.793  10.120   8.750  0.4307 -0.3301 -0.4457
    5MOL0     C  606   1.848  10.205   8.661  0.5112  0.9751 -0.1398
    5MOL0     C  607   2.139  10.520   8.538  0.0703 -0.5811 -0.3942
    5MOL0     C  608   2.047  10.610   8.477 -0.3104 -0.2062 -0.0759
    5MOL0     C  609   2.103  10.726   8.412  0.4230  0.1402  1.0063
    5MOL0     C  610   2.239  10.744   8.413 -0.4009 -1.4290 -0.9129
    5MOL0     O  611   2.295  10.852   8.358  0.4976  0.2243 -0.1120
    5MOL0     C  612   2.249  10.986   8.385  0.4833  0.1895 -0.1308
    5MOL0     C  613   2.257  11.081   8.274  0.3495  0.1981 -0.9162
    5MOL0     C  614   2.196  11.030   8.145 -0.5712  0.5194 -0.0249
    5MOL0     C  615   2.042  11.029   8.148  0.0585 -0.0440 -0.2161
    5MOL0     C  616   1.996  10.925   8.059  0.0512  0.5778  0.1354
    5MOL0     C  617   1.954  10.843   7.979 -0.0841 -0.1294  0.2023
    5MOL0     C  618   2.322  10.661   8.471 -0.5209 -1.3308 -0.1110
    5MOL0     C  619   2.277  10.554   8.542  1.1166  0.6450 -0.4060
    5MOL0     C  620   2.381  10.459   8.608  0.0925  0.3858 -0.6459
    5MOL0     H  621   2.171  10.105   8.703  0.2635 -2.6530  1.3456
    5MOL0     H  622   2.062   9.938   8.850  2.4977 -0.3861 -1.1398
    5MOL0     H  623   1.600   9.922   8.871 -0.8597 -0.8000  1.2099
    5MOL0     H  624   1.678  10.046   8.971  1.3230  1.1470 -0.9896
    5MOL0     H  625   1.712   9.752   9.044  2.6291  0.7381 -0.2100
    5MOL0     H  626   1.715   9.890   9.154 -1.7642  0.5952  0.3722
    5MOL0     H  627   1.486   9.937   9.136 -2.6920 -1.1425 -0.9222
    5MOL0     H  628   1.467   9.792   9.026  1.3119  0.9895 -1.4607
    5MOL0     H  629   1.545   9.647   9.226 -0.5090 -0.2736 -1.5163
    5MOL0     H  630   1.584   9.795   9.310  2.5924 -1.7519 -1.7417
    5MOL0     H  631   1.333   9.871   9.288  1.8684  0.7523 -2.3437
    5MOL0     H  632   1.371   9.742   9.405 -0.7993 -2.4637 -0.5149
    5MOL0     H  633   1.279   9.676   9.126 -1.1208  1.9970 -0.1749
    5MOL0     H  634   1.287   9.572   9.274  1.4383  0.3583 -0.9117
    5MOL0     H  635   1.103   9.791   9.207 -1.4403 -0.5945 -1.0216
    5MOL0     H  636   1.128   9.715   9.377  0.1791 -3.7834  1.0436
    5MOL0     H  637   1.057   9.494   9.244 -2.4816 -1.5042 -0.2693
    5MOL0     H  638   0.931   9.605   9.294 -1.0510 -1.2410  0.3797
    5MOL0     H  639   0.839   9.761   9.082  1.3400  1.3341 -0.4756
    5MOL0     H  640   0.691   9.742   8.834 -0.2958  1.9222 -1.3555
    5MOL0     H  641   0.775   9.664   8.709  2.9392  0.2301  0.1750
    5MOL0     H  642   0.775   9.889   8.670  0.7217 -3.4011 -1.2802
    5MOL0     H  643   0.822   9.936   8.819 -2.5378  0.5514 -1.8046
    5MOL0     H  644   1.059   9.862   8.779  1.1208  1.0586 -0.0439
    5MOL0     H  645   1.008   9.761   8.649  0.8917 -1.4426  3.0610
    5MOL0     H  646   0.958  10.065   8.637 -1.4479 -1.7244  1.7854
    5MOL0     H  647   1.123   9.997   8.601  0.0304  2.6254  1.3358
    5MOL0     H  648   1.124  10.096   8.356  0.7985  4.7236 -0.3570
    5MOL0     H  649   1.097  10.418   8.212 -0.1981 -0.2196 -0.7707
    5MOL0     H  650   1.078  10.309   8.079  2.5939 -3.3304 -0.1950
    5MOL0     H  651   1.186  10.275   8.224 -0.4039 -0.3099  1.2309
    5MOL0     H  652   0.525  10.354   7.999  0.0197 -0.9280  2.0215
    5MOL0     H  653   0.391  10.492   7.843  2.3006  2.2357 -3.5718
    5MOL0     H  654   0.259  10.898   7.884 -1.9520 -0.2006 -1.3858
    5MOL0     H  655   0.432  10.932   7.866 -1.3330  2.2072  0.3259
    5MOL0     H  656   0.291  11.038   7.694  1.3366 -0.4026  0.0136
    5MOL0     H  657   0.420  10.930   7.638  1.7763 -1.7967  1.6158
    5MOL0     H  658   0.102  10.887   7.642 -0.8365 -0.2968 -1.6624
    5MOL0     H  659   0.222  10.764   7.594 -0.4806  0.0787 -1.0355
    5MOL0     H  660   0.295  10.888   7.396  1.2221  3.5913 -0.0142
    5MOL0     H  661   0.233  11.032   7.453  4.8667 -1.1487 -1.4538
    5MOL0     H  662   0.096  10.868   7.274  1.5463 -1.4314  0.1421
    5MOL0     H  663   0.040  10.789   7.422 -0.2009 -0.0038 -0.3407
    5MOL0     H  664   0.009  11.067   7.337  0.7219 -0.3921 -0.0279
    5MOL0     H  665  -0.041  11.023   7.505 -0.4563 -0.6294  0.1193
    5MOL0     H  666  -0.204  10.854   7.394 -1.2638  1.4629  1.6978
    5MOL0     H  667  -0.166  10.920   7.237  0.6916 -4.5912  0.8329
    5MOL0     H  668  -0.218  11.154   7.361 -0.1795  0.5870 -3.3628
    5MOL0     H  669  -0.297  11.040   7.472  2.1377  0.8423  0.9025
    5MOL0     H  670   0.558  10.851   8.009  0.6704 -0.1209 -0.5314
    5MOL0     H  671   0.676  10.719   8.185 -4.2629 -0.9963  3.3885
    5MOL0     H  672   0.649  10.219   8.301 -0.1661  0.7855 -0.3862
    5MOL0     H  673   0.715  10.032   8.451 -0.8211 -0.9068 -2.8596
    5MOL0     H  674   1.687  10.103   8.761 -0.2188  1.9443 -2.4226
    5MOL0     H  675   1.786  10.278   8.610 -2.3210  1.0240  2.9869
    5MOL0     H  676   1.941  10.591   8.475 -0.3603  0.0949 -0.6251
    5MOL0     H  677   2.031  10.784   8.356 -0.8734 -1.9929  0.3538
    5MOL0     H  678   2.149  10.992   8.429  0.0164 -3.7524 -0.3516
    5MOL0     H  679   2.311  11.030   8.464 -0.2535 -0.3207  0.7517
    5MOL0     H  680   2.365  11.093   8.269  0.3121  0.6510 -0.7199
    5MOL0     H  681   2.200  11.170   8.301 -0.7535 -0.2116 -1.7968
    5MOL0     H  682   2.214  11.095   8.059 -1.6094  2.3779  1.0850
    5MOL0     H  683   2.246  10.938   8.113 -0.7236  1.0196 -1.7696
    5MOL0     H  684   2.008  11.130   8.122  1.2103  0.3903 -0.1035
    5MOL0     H  685   1.994  11.018   8.246 -1.3866  2.4316 -0.5537
    5MOL0     H  686   1.930  10.774   7.901  2.4870 -0.5809 -0.2570
    5MOL0     H  687   2.429  10.675   8.460 -0.6405 -1.3115 -1.4728
    5MOL0     H  688   2.393  10.483   8.714  1.8872 -0.0287 -0.7371
    5MOL0     H  689   2.350  10.355   8.591 -1.1423  0.1578  2.2764
    5MOL0     H  690   2.482  10.478   8.573  0.7887  0.1570  1.1484
    6MOL0     O  691   0.906   9.307   2.954  0.0475 -0.5582  0.3689
    6MOL0     C  692   0.842   9.379   3.033  0.2372 -0.2734 -0.1469
    6MOL0     O  693   0.785   9.343   3.161  0.1415 -0.6320  0.1295
    6MOL0     C  694   0.805   9.213   3.207  0.3877  0.0100 -0.1854
    6MOL0     C  695   0.698   9.140   3.240 -0.4567  0.0725 -0.6571
    6MOL0     C  696   0.712   9.018   3.312 -0.9014 -0.8230  1.1934
    6MOL0     C  697   0.838   8.972   3.333  0.2732  0.2270 -0.9460
    6MOL0     O  698   0.849   8.838   3.370 -0.4062 -0.3696  0.0409
    6MOL0     C  699   0.803   8.817   3.503 -0.3601 -0.1435  0.4459
    6MOL0     C  700   0.754   8.673   3.501  0.3052 -0.2955 -0.2699
    6MOL0     C  701   0.665   8.651   3.631 -0.8060  0.3312  1.2186
    6MOL0     C  702   0.585   8.530   3.614 -0.0774  0.6131 -0.1919
    6MOL0     C  703   0.532   8.481   3.743 -0.5562 -0.2963 -0.7831
    6MOL0     C  704   0.432   8.365   3.740  0.8279  0.7168  0.0683
    6MOL0     C  705   0.337   8.369   3.863  0.2614  0.4645 -0.0652
    6MOL0     C  706   0.233   8.249   3.843 -0.5744 -0.3335  0.5356
    6MOL0     N  707   0.298   8.121   3.847  1.1581 -0.2343  0.5789
    6MOL0     C  708   0.286   8.040   3.963  0.0896 -0.0142 -0.3512
    6MOL0     C  709   0.350   7.917   3.934  0.8776  0.0467  0.0223
    6MOL0     C  710   0.323   7.803   4.024 -0.3202  0.5793 -0.0319
    6MOL0     C  711   0.198   7.738   3.991  0.1837 -0.1893 -0.4742
    6MOL0     C  712   0.180   7.608   4.079 -0.1054 -0.3797  0.4352
    6MOL0     C  713   0.051   7.634   4.158  0.6192 -0.2143  0.0552
    6MOL0     O  714   0.044   7.535   4.263  0.0567  0.5723  0.1180
    6MOL0     C  715   0.048   7.590   4.395 -0.0605  0.0343 -0.7970
    6MOL0     C  716   0.158   7.672   4.435 -0.7029 -0.2650  0.5175
    6MOL0     C  717   0.172   7.731   4.557  0.2860  0.6801 -0.2882
    6MOL0     C  718   0.303   7.807   4.589 -0.3384 -0.1926  0.1580
    6MOL0     C  719   0.071   7.701   4.653  0.6608 -0.4363  0.2436
    6MOL0     C  720   0.081   7.743   4.794  0.0778 -0.2369  0.1625
    6MOL0     O  721  -0.032   7.795   4.848  0.8962  1.2639  0.7913
    6MOL0     C  722  -0.044   7.789   4.985 -0.4946  0.0690  0.3443
    6MOL0     C  723   0.022   7.713   5.081  0.1954  0.7996  0.6461
    6MOL0     C  724   0.016   7.729   5.218 -0.9715 -0.5971 -0.0959
    6MOL0     C  725  -0.068   7.826   5.271 -0.1712 -0.0239  0.2527
    6MOL0     O  726  -0.088   7.831   5.414 -0.2776 -0.2060  0.2100
    6MOL0     C  727  -0.182   7.922   5.470  0.7503  0.3440  0.1646
    6MOL0     C  728  -0.167   7.931   5.624 -0.9603 -0.6950 -0.7179
    6MOL0     C  729  -0.211   7.807   5.702  0.2527  0.9139 -0.8729
    6MOL0     C  730  -0.176   7.812   5.851  0.2116 -0.2246  0.8658
    6MOL0     C  731  -0.186   7.941   5.924  0.2394  0.5439  0.1379
    6MOL0     C  732  -0.125   7.921   6.063 -0.9353  0.1161  0.0584
    6MOL0     C  733   0.022   7.897   6.086 -0.2158  0.1763  0.0418
    6MOL0     C  734   0.090   7.910   6.226  0.5869 -0.0133  0.4043
    6MOL0    Cl  735   0.269   7.875   6.214 -0.0607 -0.2483 -0.3404
    6MOL0     C  736  -0.147   7.908   5.186  0.1362  0.7109 -0.3470
    6MOL0     C  737  -0.129   7.882   5.049 -0.2297 -0.5210 -0.6771
    6MOL0     O  738   0.190   7.748   4.841 -0.6060  0.9300 -0.3468
    6MOL0     C  739  -0.046   7.633   4.609 -0.6699  0.2225 -0.2726
    6MOL0     C  740  -0.051   7.581   4.484  0.3166 -0.7364  0.5043
    6MOL0     N  741   0.390   7.925   3.802  0.5117  0.8367 -0.6179
    6MOL0     N  742   0.353   8.038   3.754 -0.9408  1.2777 -0.6933
    6MOL0     C  743   0.951   9.046   3.292 -0.6593 -1.0186 -0.4240
    6MOL0     C  744   0.931   9.174   3.242  0.3230 -1.0899 -0.2408
    6MOL0     C  745   0.855   9.524   2.991  0.9356 -1.0390 -0.0501
    6MOL0     C  746   0.824   9.624   3.079  0.2077  0.8274 -0.3657
    6MOL0     C  747   0.826   9.758   3.051 -0.2825  0.2847 -1.0120
    6MOL0     C  748   0.862   9.812   2.927 -0.7947 -0.0794 -0.7014
    6MOL0     O  749   0.867   9.945   2.905  0.5153 -0.0980 -0.1958
    6MOL0     C  750   0.780  10.035   2.979 -0.4452  0.2642 -0.4262
    6MOL0     C  751   0.729  10.126   2.878 -0.2231 -0.4369  0.0051
    6MOL0     C  752   0.592  10.092   2.820  0.5293 -0.3039  0.1610
    6MOL0     C  753   0.475  10.127   2.913 -0.2364  0.4300 -0.0293
    6MOL0     C  754   0.349  10.089   2.854  0.2026 -0.1671  0.3332
    6MOL0     C  755   0.248  10.055   2.804  0.7253  0.6714 -0.5928
    6MOL0     C  756   0.895   9.711   2.832  1.1369 -0.6742  0.4989
    6MOL0     C  757   0.888   9.572   2.859  0.7088 -0.0587  0.3543
    6MOL0     C  758   0.930   9.483   2.744  0.4572 -0.3569  0.1848
    6MOL0     H  759   0.598   9.180   3.247 -0.7063 -0.8002  1.3163
    6MOL0     H  760   0.620   8.974   3.350 -1.6915 -0.2048  0.0739
    6MOL0     H  761   0.730   8.884   3.548  0.0221 -1.8675  4.0342
    6MOL0     H  762   0.880   8.822   3.580  1.2770 -0.6685 -1.0840
    6MOL0     H  763   0.690   8.651   3.415 -0.4761 -2.4159  0.7990
    6MOL0     H  764   0.832   8.600   3.477 -0.0272 -0.2135 -1.7501
    6MOL0     H  765   0.736   8.655   3.714  1.5510  1.8053 -0.7529
    6MOL0     H  766   0.592   8.731   3.643 -3.7345 -2.1654  1.1979
    6MOL0     H  767   0.510   8.552   3.537 -1.7014  3.7023  2.0537
    6MOL0     H  768   0.639   8.444   3.574 -0.6065  1.1005 -2.0676
    6MOL0     H  769   0.480   8.566   3.788  0.1931  0.3082 -1.0374
    6MOL0     H  770   0.618   8.458   3.808  0.2711 -0.4404 -1.9021
    6MOL0     H  771   0.374   8.352   3.648  0.8109 -4.0368  0.5393
    6MOL0     H  772   0.485   8.271   3.758 -0.4250 -0.2940 -1.2714
    6MOL0     H  773   0.273   8.457   3.860  1.1023  1.5731  5.1944
    6MOL0     H  774   0.390   8.373   3.958  1.4340 -1.1921 -0.5833
    6MOL0     H  775   0.160   8.258   3.924 -1.8082 -0.3650 -0.5426
    6MOL0     H  776   0.169   8.258   3.754  1.9757  0.9507 -1.3116
    6MOL0     H  777   0.237   8.063   4.057 -0.2066 -4.1472  0.6947
    6MOL0     H  778   0.312   7.844   4.125  0.7402  0.7860  0.0126
    6MOL0     H  779   0.408   7.734   4.034  0.1466  1.0884 -0.3879
    6MOL0     H  780   0.111   7.804   3.997 -0.1962 -0.5146 -2.0439
    6MOL0     H  781   0.201   7.713   3.885  0.1326  0.6211 -0.6781
    6MOL0     H  782   0.162   7.524   4.011  0.7530 -1.3999  1.4356
    6MOL0     H  783   0.267   7.595   4.144  0.5456 -0.5246 -0.4648
    6MOL0     H  784   0.037   7.736   4.195  0.8836  0.6955 -2.1686
    6MOL0     H  785  -0.037   7.630   4.093  0.8230 -0.9312 -0.1866
    6MOL0     H  786   0.252   7.689   4.383  0.9194 -1.7806  2.7686
    6MOL0     H  787   0.381   7.747   4.636  0.1883 -2.0040 -2.7272
    6MOL0     H  788   0.290   7.895   4.652  0.6823 -1.5967  2.4319
    6MOL0     H  789   0.338   7.859   4.499 -1.3903  0.0821 -0.0984
    6MOL0     H  790   0.094   7.637   5.052 -1.8332 -1.0736  0.3325
    6MOL0     H  791   0.067   7.667   5.291 -2.7779 -0.7766  1.0766
    6MOL0     H  792  -0.162   8.020   5.427  5.4984 -0.4767 -0.0325
    6MOL0     H  793  -0.283   7.887   5.448  0.0394  3.0633 -1.3576
    6MOL0     H  794  -0.062   7.934   5.656 -1.7070 -5.1811  3.1762
    6MOL0     H  795  -0.221   8.024   5.644  1.6421  0.4347  1.7301
    6MOL0     H  796  -0.178   7.715   5.652 -0.2310 -0.0962  0.5857
    6MOL0     H  797  -0.320   7.807   5.699  0.1928 -1.3131 -1.0167
    6MOL0     H  798  -0.075   7.774   5.870  0.6242  0.5662  0.3478
    6MOL0     H  799  -0.252   7.743   5.888 -1.5210  0.5192 -1.1045
    6MOL0     H  800  -0.132   8.018   5.868  1.0011 -0.2702 -0.2737
    6MOL0     H  801  -0.285   7.988   5.929  1.4341  3.1287  1.3693
    6MOL0     H  802  -0.179   7.836   6.106 -3.0151  0.4511 -1.7549
    6MOL0     H  803  -0.149   8.014   6.117  0.9461 -0.2849  1.7270
    6MOL0     H  804   0.082   7.950   6.011 -2.9105  1.3780 -1.4352
    6MOL0     H  805   0.038   7.791   6.064 -1.7945 -0.0969  0.1022
    6MOL0     H  806   0.052   7.845   6.305  1.7471 -0.3230  0.7385
    6MOL0     H  807   0.088   8.009   6.274 -1.1340 -0.6021  1.6477
    6MOL0     H  808  -0.210   7.992   5.214  2.0007  2.4624 -1.1758
    6MOL0     H  809  -0.181   7.940   4.973  0.2796  0.6553 -0.1575
    6MOL0     H  810  -0.129   7.609   4.675 -2.4536 -0.6008 -2.6878
    6MOL0     H  811  -0.145   7.532   4.460 -1.4621  1.4685  2.4988
    6MOL0     H  812   1.057   9.024   3.304  0.0002  1.3063 -1.4329
    6MOL0     H  813   1.004   9.247   3.208 -1.2123  0.6297 -0.0236
    6MOL0     H  814   0.808   9.617   3.186  0.0653 -0.3113 -0.4514
    6MOL0     H  815   0.796   9.822   3.134  3.5050 -0.7262  1.4099
    6MOL0     H  816   0.695   9.984   3.025  0.1086 -3.0021 -2.6569
    6MOL0     H  817   0.843  10.090   3.049 -1.5911  0.7115  0.2721
    6MOL0     H  818   0.794  10.138   2.791 -1.5721 -0.8824 -1.1231
    6MOL0     H  819   0.719  10.219   2.935  0.5099  0.8087 -1.8170
    6MOL0     H  820   0.576  10.150   2.729  0.0140 -0.7232 -0.0207
    6MOL0     H  821   0.602   9.983   2.810  1.9764 -0.3105  1.2419
    6MOL0     H  822   0.472  10.236   2.901  4.1313  0.6278 -1.1282
    6MOL0     H  823   0.480  10.091   3.016  3.5997 -2.1932 -0.9346
    6MOL0     H  824   0.169  10.001   2.755 -0.8005 -0.1012  2.4767
    6MOL0     H  825   0.932   9.755   2.740 -1.8413  0.6184 -0.1777
    6MOL0     H  826   0.938   9.534   2.648 -1.1344  0.6478  0.5505
    6MOL0     H  827   1.034   9.458   2.766  1.5245  2.5720 -1.0172
    6MOL0     H  828   0.865   9.396   2.727  0.6078 -0.2715 -0.9077
    7MOL0     O  829   9.395   9.351   3.001  0.2009 -0.2343  0.1345
    7MOL0     C  830   9.341   9.415   3.096 -0.2091  0.5849 -0.1989
    7MOL0     O  831   9.198   9.424   3.113 -0.4024 -0.7713 -0.0921
    7MOL0     C  832   9.123   9.324   3.048  0.5045 -0.6277 -0.7180
    7MOL0     C  833   9.078   9.335   2.915 -0.1586 -0.3604 -0.6643
    7MOL0     C  834   9.014   9.229   2.850 -0.2322 -0.6165  0.6541
    7MOL0     C  835   8.960   9.122   2.926 -0.1145 -0.3868 -0.2947
    7MOL0     O  836   8.905   9.009   2.869 -0.1557  0.2958  0.3454
    7MOL0     C  837   8.805   9.026   2.775  0.7170  0.7859 -0.1392
    7MOL0     C  838   8.733   8.885   2.752  0.9304 -0.9059 -0.5170
    7MOL0     C  839   8.607   8.900   2.656 -1.2000 -0.5079 -0.2825
    7MOL0     C  840   8.569   8.789   2.561  0.1773 -0.1918 -0.6433
    7MOL0     C  841   8.447   8.821   2.476  0.2205  0.7216  0.3959
    7MOL0     C  842   8.430   8.726   2.363  0.2495  0.5736  0.1770
    7MOL0     C  843   8.294   8.759   2.309 -0.6082  0.4617  0.0169
    7MOL0     C  844   8.295   8.673   2.184 -0.7712  0.4162 -0.6777
    7MOL0     N  845   8.177   8.696   2.097 -0.4787  0.5864 -0.0844
    7MOL0     C  846   8.059   8.624   2.090  0.0455 -0.4461 -0.3745
    7MOL0     C  847   7.981   8.686   1.990 -0.2020 -0.8207  0.4296
    7MOL0     C  848   7.843   8.664   1.945  0.5275 -0.2478  1.5410
    7MOL0     C  849   7.802   8.720   1.818  0.7233  0.3619  1.3187
    7MOL0     C  850   7.665   8.668   1.765 -0.6885  0.7853  0.6268
    7MOL0     C  851   7.627   8.740   1.636 -0.8882  0.0679 -0.0349
    7MOL0     O  852   7.505   8.668   1.600 -0.6615 -0.5907 -0.3196
    7MOL0     C  853   7.472   8.667   1.466  0.3527 -0.2567 -0.1635
    7MOL0     C  854   7.551   8.700   1.363 -0.1144 -0.1893 -0.0653
    7MOL0     C  855   7.508   8.690   1.229  0.1948  0.9843  0.9523
    7MOL0     C  856   7.592   8.729   1.116  0.2176 -0.1986 -0.8282
    7MOL0     C  857   7.369   8.653   1.211 -0.3389  0.4458 -0.3108
    7MOL0     C  858   7.307   8.653   1.073  0.5599  0.4673  1.2009
    7MOL0     O  859   7.222   8.545   1.043  0.3643 -0.3428  0.2808
    7MOL0     C  860   7.142   8.550   0.929  1.6284 -0.6274 -0.3913
    7MOL0     C  861   7.027   8.473   0.949  0.3585  1.5273 -0.5370
    7MOL0     C  862   6.929   8.453   0.848  0.0174  0.0905 -0.5482
    7MOL0     C  863   6.931   8.528   0.741 -0.1203  0.0306  0.4676
    7MOL0     O  864   6.817   8.506   0.663  0.0951 -0.3088  0.3688
    7MOL0     C  865   6.751   8.617   0.609 -0.0047  0.0487  0.4605
    7MOL0     C  866   6.617   8.580   0.560  0.1555 -0.0957  0.3732
    7MOL0     C  867   6.508   8.558   0.665  0.6114 -0.5906 -0.4072
    7MOL0     C  868   6.385   8.492   0.597  0.5197  0.0910  0.6670
    7MOL0     C  869   6.278   8.440   0.686  0.5420  0.0749 -0.2099
    7MOL0     C  870   6.324   8.334   0.794  0.4864 -0.8094 -0.1093
    7MOL0     C  871   6.227   8.227   0.810  1.0700 -0.0234  0.4403
    7MOL0     C  872   6.266   8.136   0.929 -0.2399  0.1726  0.6040
    7MOL0    Cl  873   6.387   8.004   0.882  0.4380  0.2464 -0.1819
    7MOL0     C  874   7.045   8.612   0.706 -0.6443 -0.4659  0.2254
    7MOL0     C  875   7.150   8.628   0.807  1.0720  0.2160  0.4819
    7MOL0     O  876   7.326   8.749   0.995  0.7733  0.2206  0.0013
    7MOL0     C  877   7.293   8.616   1.322  0.0249 -0.2909  0.2427
    7MOL0     C  878   7.343   8.618   1.449  0.4162  0.5872  0.1556
    7MOL0     N  879   8.057   8.784   1.935  0.4423  1.0984 -0.0570
    7MOL0     N  880   8.166   8.790   1.996 -0.3868 -0.3917  0.2881
    7MOL0     C  881   9.007   9.106   3.056 -0.5361  0.9571  0.4885
    7MOL0     C  882   9.090   9.205   3.115  0.6887  0.0621 -1.2203
    7MOL0     C  883   9.415   9.477   3.210  0.6330  0.2668  0.1044
    7MOL0     C  884   9.350   9.477   3.332  1.0280  0.2314  0.6661
    7MOL0     C  885   9.418   9.524   3.447 -0.0947  0.1619 -0.1630
    7MOL0     C  886   9.549   9.575   3.434  0.2197  0.8471 -0.2398
    7MOL0     O  887   9.624   9.643   3.523 -0.1066 -0.5061  0.2771
    7MOL0     C  888   9.553   9.705   3.633  0.2948  0.7156  0.0796
    7MOL0     C  889   9.478   9.826   3.583 -0.0343  0.3535  0.1546
    7MOL0     C  890   9.569   9.934   3.508 -0.6412  0.6317  0.6066
    7MOL0     C  891   9.479  10.039   3.432 -0.5826 -0.2781 -0.3102
    7MOL0     C  892   9.422  10.140   3.534  0.1292  0.3822  0.7935
    7MOL0     C  893   9.376  10.223   3.614  0.2508  0.3626 -0.3802
    7MOL0     C  894   9.604   9.580   3.308  0.1919  1.3199 -0.1110
    7MOL0     C  895   9.543   9.530   3.191  0.6101  0.8805  0.4157
    7MOL0     C  896   9.621   9.547   3.069 -0.3163 -0.0535  0.6345
    7MOL0     H  897   9.101   9.431   2.871 -1.3636  0.2454 -0.0001
    7MOL0     H  898   8.974   9.233   2.749 -0.3888 -0.1277  0.7355
    7MOL0     H  899   8.864   9.041   2.684  3.0031 -1.5584  0.8083
    7MOL0     H  900   8.738   9.110   2.792  1.0526  1.4387 -1.8688
    7MOL0     H  901   8.806   8.806   2.732  0.1521 -1.7074 -0.2539
    7MOL0     H  902   8.689   8.868   2.850 -2.5377  1.2962 -1.5025
    7MOL0     H  903   8.515   8.930   2.707 -1.3617  1.1255 -1.4661
    7MOL0     H  904   8.632   8.994   2.605 -0.2155 -0.9410 -0.6236
    7MOL0     H  905   8.662   8.779   2.504 -1.1090 -1.3171 -2.6646
    7MOL0     H  906   8.547   8.699   2.619 -2.3731  1.2519  0.8136
    7MOL0     H  907   8.456   8.926   2.445 -0.0001  0.1046 -1.9559
    7MOL0     H  908   8.354   8.814   2.533  0.0504  1.8161  0.2755
    7MOL0     H  909   8.508   8.755   2.292  0.1852  1.0464  0.2907
    7MOL0     H  910   8.434   8.620   2.387 -0.9286  0.7565  1.3177
    7MOL0     H  911   8.285   8.867   2.297  3.9228  1.1933  1.3816
    7MOL0     H  912   8.226   8.714   2.382  1.5592 -1.3274  1.0445
    7MOL0     H  913   8.387   8.701   2.130  0.2562 -1.8189 -0.2180
    7MOL0     H  914   8.297   8.569   2.217 -0.7268  0.0359 -1.8299
    7MOL0     H  915   8.030   8.543   2.156  0.9872 -2.4621 -2.3191
    7MOL0     H  916   7.775   8.715   2.014 -1.2151  2.6519 -1.9867
    7MOL0     H  917   7.825   8.556   1.940 -2.5162  0.1830 -2.6564
    7MOL0     H  918   7.783   8.827   1.828  1.0629  0.9214 -2.3902
    7MOL0     H  919   7.873   8.691   1.740 -0.7854 -0.3796  0.1678
    7MOL0     H  920   7.675   8.563   1.736  0.6262  1.1258 -0.2679
    7MOL0     H  921   7.584   8.679   1.838 -1.3954  0.4056 -0.0854
    7MOL0     H  922   7.616   8.849   1.645  1.3054  0.4929 -1.6368
    7MOL0     H  923   7.707   8.721   1.565 -1.6527  2.2164 -1.5611
    7MOL0     H  924   7.652   8.739   1.368  0.2557 -1.1723  0.2894
    7MOL0     H  925   7.694   8.733   1.155 -0.9369 -0.9892  2.6323
    7MOL0     H  926   7.565   8.823   1.067 -1.6232  0.0919  0.6029
    7MOL0     H  927   7.587   8.642   1.049 -5.3983 -0.6090 -0.3430
    7MOL0     H  928   7.001   8.435   1.046 -0.7783  0.1682 -1.3454
    7MOL0     H  929   6.846   8.386   0.873 -0.5941  1.0645  0.1150
    7MOL0     H  930   6.721   8.698   0.676 -3.1180 -1.1298  0.6435
    7MOL0     H  931   6.810   8.648   0.523 -2.6827  1.0904 -1.1131
    7MOL0     H  932   6.594   8.664   0.494  0.0922 -1.5504 -1.5316
    7MOL0     H  933   6.607   8.497   0.489 -4.0015 -0.1065  0.7249
    7MOL0     H  934   6.487   8.662   0.689  0.3208 -0.1509 -2.4196
    7MOL0     H  935   6.539   8.503   0.755 -1.8964 -0.0811  0.8740
    7MOL0     H  936   6.414   8.406   0.536 -0.1330  0.9169 -0.8651
    7MOL0     H  937   6.346   8.567   0.527  0.5280 -0.0452  0.5168
    7MOL0     H  938   6.223   8.518   0.740 -0.2082 -0.2005 -0.5569
    7MOL0     H  939   6.214   8.400   0.607  1.4123  2.4918 -2.2635
    7MOL0     H  940   6.345   8.388   0.887  0.9803 -0.2004 -0.5611
    7MOL0     H  941   6.416   8.290   0.753 -1.6327 -4.2466 -1.6971
    7MOL0     H  942   6.213   8.155   0.728  2.7901 -2.0253  1.7753
    7MOL0     H  943   6.125   8.264   0.824  0.9567 -0.7884  1.7864
    7MOL0     H  944   6.178   8.090   0.974  0.1097 -3.3725 -1.9267
    7MOL0     H  945   6.301   8.204   1.007 -1.0659  0.5252  0.6768
    7MOL0     H  946   7.070   8.642   0.605 -1.7516 -3.9513 -1.2398
    7MOL0     H  947   7.245   8.676   0.788  1.8274 -1.9025 -1.6677
    7MOL0     H  948   7.188   8.591   1.309 -0.2959  0.8996  0.4506
    7MOL0     H  949   7.280   8.601   1.536 -1.1504 -1.0293 -1.2296
    7MOL0     H  950   8.990   9.013   3.111  0.0826  1.8968  2.3860
    7MOL0     H  951   9.131   9.179   3.212 -0.5002 -2.9512 -1.4242
    7MOL0     H  952   9.252   9.436   3.350  1.0610 -1.6865 -2.8183
    7MOL0     H  953   9.362   9.510   3.539 -0.7498 -0.2781 -0.6221
    7MOL0     H  954   9.483   9.632   3.675 -0.7779  0.9525 -1.2198
    7MOL0     H  955   9.624   9.733   3.711  1.2800 -2.4237  0.4612
    7MOL0     H  956   9.447   9.875   3.675  0.4860  3.4200 -1.1607
    7MOL0     H  957   9.397   9.796   3.516  3.6363 -1.6977 -3.8858
    7MOL0     H  958   9.635   9.994   3.572  2.1937  1.0541 -2.4359
    7MOL0     H  959   9.631   9.876   3.439  2.6523  0.9219  3.0495
    7MOL0     H  960   9.397   9.990   3.378 -1.8628 -1.0138  2.1602
    7MOL0     H  961   9.549  10.091   3.367 -1.2762  0.3291 -0.5771
    7MOL0     H  962   9.345  10.281   3.699 -0.6662  0.5593 -0.8267
    7MOL0     H  963   9.704   9.622   3.302  0.9484 -0.3192  0.4921
    7MOL0     H  964   9.698   9.623   3.083 -0.6758  0.7269 -1.2990
    7MOL0     H  965   9.675   9.456   3.044  1.5150  0.6400  1.8572
    7MOL0     H  966   9.571   9.588   2.980  2.9015  0.0149 -1.2894
    8MOL0     O  967   6.396   7.167  11.024  0.1459  0.2160  0.0309
    8MOL0     C  968   6.410   7.106  10.919 -0.1938 -0.0027  0.0386
    8MOL0     O  969   6.396   6.967  10.893 -0.8661 -0.1319 -0.7200
    8MOL0     C  970   6.335   6.877  10.974 -0.1796 -1.1578  0.0237
    8MOL0     C  971   6.325   6.762  10.910 -0.8244  0.9759 -0.2349
    8MOL0     C  972   6.275   6.646  10.976 -0.1031  0.0859  0.3488
    8MOL0     C  973   6.233   6.658  11.118  0.6780 -0.1447  0.9805
    8MOL0     O  974   6.186   6.554  11.195  0.0787  0.1921 -0.9771
    8MOL0     C  975   6.169   6.431  11.130  0.4896 -0.1840 -0.0135
    8MOL0     C  976   6.189   6.311  11.233  0.7088  0.3620  0.2401
    8MOL0     C  977   6.156   6.174  11.165  0.4074  0.2826 -0.0467
    8MOL0     C  978   6.258   6.137  11.056  0.0738 -0.3753 -0.0715
    8MOL0     C  979   6.234   6.000  10.986  0.4490  0.4433  1.6086
    8MOL0     C  980   6.298   6.007  10.846  0.0587  0.4763  0.5586
    8MOL0     C  981   6.263   5.886  10.771  1.0748  0.0802  0.0474
    8MOL0     C  982   6.115   5.880  10.731 -0.3934  0.0751 -0.5873
    8MOL0     N  983   6.071   5.995  10.645 -0.7088  1.2082  0.3933
    8MOL0     C  984   6.064   5.979  10.508  1.0686 -0.3193  0.2027
    8MOL0     C  985   5.998   6.095  10.474 -0.6892  0.9578  0.4082
    8MOL0     C  986   5.948   6.140  10.342  0.3573 -0.4906 -0.1733
    8MOL0     C  987   5.823   6.060  10.303  0.0083 -0.5995  0.0980
    8MOL0     C  988   5.696   6.131  10.337  0.1924  0.9780 -0.6531
    8MOL0     C  989   5.666   6.257  10.257 -0.4783  0.3285 -1.0739
    8MOL0     O  990   5.541   6.324  10.300 -0.7395  0.3692 -0.2206
    8MOL0     C  991   5.518   6.456  10.260 -0.4743 -0.3137 -0.5873
    8MOL0     C  992   5.419   6.524  10.330 -0.5906 -0.0531  0.4157
    8MOL0     C  993   5.385   6.656  10.304 -0.3379 -0.8351  0.8016
    8MOL0     C  994   5.283   6.715  10.407 -0.3137 -0.1814  0.7425
    8MOL0     C  995   5.451   6.730  10.205 -0.3780  0.6961  0.9985
    8MOL0     C  996   5.412   6.869  10.171  0.1876  0.3617 -0.6938
    8MOL0     O  997   5.508   6.933  10.103  0.1140 -0.0614 -0.1043
    8MOL0     C  998   5.486   7.059  10.054  0.5977  0.0877  0.0012
    8MOL0     C  999   5.585   7.157  10.085  0.1249  1.0209  0.0565
    8MOL0     C 1000   5.557   7.288  10.063 -1.2939  0.4801  0.6687
    8MOL0     C 1001   5.431   7.326  10.002 -0.2021  0.6263  0.4567
    8MOL0     O 1002   5.385   7.459   9.993  0.2006  0.4647 -0.0086
    8MOL0     C 1003   5.484   7.556  10.012 -1.3070  0.4524 -0.4805
    8MOL0     C 1004   5.425   7.689   9.953  0.0671  1.2667 -1.2879
    8MOL0     C 1005   5.537   7.795   9.972 -0.5307  0.8093  0.6448
    8MOL0     C 1006   5.502   7.930   9.927  0.3013  0.3652  0.3523
    8MOL0     C 1007   5.626   8.010   9.936 -0.0237 -0.0746 -0.1774
    8MOL0     C 1008   5.588   8.158   9.902 -0.6397  0.1107  1.0860
    8MOL0     C 1009   5.702   8.233   9.840  0.1802 -0.0567  1.1377
    8MOL0     C 1010   5.800   8.268   9.950 -0.3226  0.0869  1.3218
    8MOL0    Cl 1011   5.898   8.134   9.999  0.5679  0.9344  0.1508
    8MOL0     C 1012   5.345   7.228   9.965  0.2185  0.1844 -0.7199
    8MOL0     C 1013   5.368   7.095   9.986  0.0028 -0.0589 -0.8639
    8MOL0     O 1014   5.303   6.915  10.198 -0.3197 -0.6230  0.0731
    8MOL0     C 1015   5.552   6.657  10.126  1.0113 -0.2740  0.1228
    8MOL0     C 1016   5.591   6.526  10.167  0.4420  0.3578  0.1292
    8MOL0     N 1017   5.969   6.163  10.587 -0.2798 -0.6459 -0.2387
    8MOL0     N 1018   6.020   6.111  10.693 -0.7653  0.4155 -1.0118
    8MOL0     C 1019   6.238   6.784  11.175 -0.4752  0.1555  0.1696
    8MOL0     C 1020   6.272   6.890  11.104 -0.6939 -1.0306  0.4683
    8MOL0     C 1021   6.456   7.194  10.805 -0.0250 -1.1043  0.5698
    8MOL0     C 1022   6.403   7.326  10.784  0.2977 -0.0454  0.7786
    8MOL0     C 1023   6.440   7.409  10.677  0.9733  0.0984 -0.7333
    8MOL0     C 1024   6.533   7.361  10.585 -0.1636 -0.6826 -0.2850
    8MOL0     O 1025   6.552   7.449  10.479  0.4597  0.2737 -0.1688
    8MOL0     C 1026   6.692   7.468  10.441  0.1749 -0.2257 -0.7814
    8MOL0     C 1027   6.740   7.606  10.513 -0.0677 -0.1334 -0.2288
    8MOL0     C 1028   6.860   7.680  10.457  0.0404 -0.4334  0.3173
    8MOL0     C 1029   6.986   7.589  10.480 -0.1753 -0.8006 -0.3938
    8MOL0     C 1030   7.007   7.488  10.380  0.4222  0.9934  0.2858
    8MOL0     C 1031   7.012   7.400  10.297  0.0354 -0.1091  0.6148
    8MOL0     C 1032   6.577   7.232  10.597 -0.2452 -0.9256  0.0402
    8MOL0     C 1033   6.547   7.150  10.711  0.6281 -0.4947  1.5617
    8MOL0     C 1034   6.620   7.015  10.727 -0.4704 -0.0713 -0.0765
    8MOL0     H 1035   6.367   6.754  10.810 -1.4849  1.2553 -0.5365
    8MOL0     H 1036   6.276   6.562  10.908  1.7299  0.4782 -0.1569
    8MOL0     H 1037   6.244   6.412  11.053  2.1809 -2.5461  2.0288
    8MOL0     H 1038   6.072   6.419  11.082  1.2856  1.5761 -2.2417
    8MOL0     H 1039   6.290   6.316  11.276  1.6653  2.2860 -2.0129
    8MOL0     H 1040   6.118   6.312  11.317  2.6660 -1.1654  2.0487
    8MOL0     H 1041   6.138   6.099  11.243  1.5417  0.6014  0.5317
    8MOL0     H 1042   6.063   6.185  11.108  0.4076 -1.8916 -0.5451
    8MOL0     H 1043   6.268   6.218  10.984 -1.8225 -1.9976 -2.3258
    8MOL0     H 1044   6.357   6.127  11.103 -0.3985  1.9633  1.5672
    8MOL0     H 1045   6.126   5.982  10.996  0.3214  0.6504  0.7231
    8MOL0     H 1046   6.286   5.926  11.047  1.2648  2.3825  3.3878
    8MOL0     H 1047   6.274   6.091  10.780  0.0455 -0.8805 -1.2761
    8MOL0     H 1048   6.407   6.006  10.848  0.0603  1.0150  0.9038
    8MOL0     H 1049   6.279   5.795  10.829 -0.8068  0.7048  1.6506
    8MOL0     H 1050   6.320   5.902  10.679  1.2671  0.2083  0.1883
    8MOL0     H 1051   6.102   5.781  10.686  3.7834  0.2117 -2.5542
    8MOL0     H 1052   6.056   5.891  10.823  2.0812  0.2494  1.0658
    8MOL0     H 1053   6.080   5.891  10.446  0.2766 -1.0561  1.0105
    8MOL0     H 1054   6.016   6.140  10.255  0.8566 -1.7031  0.1983
    8MOL0     H 1055   5.925   6.247  10.352  0.2508 -0.5092 -0.2154
    8MOL0     H 1056   5.817   6.043  10.195  0.3762  0.8796 -0.1705
    8MOL0     H 1057   5.822   5.960  10.347 -2.2276 -0.9569 -0.6299
    8MOL0     H 1058   5.611   6.062  10.332  0.5255  0.2540  1.9877
    8MOL0     H 1059   5.717   6.143  10.444  5.2705 -0.0575 -1.3055
    8MOL0     H 1060   5.750   6.324  10.272  0.2461 -0.4059 -1.7862
    8MOL0     H 1061   5.667   6.226  10.152  1.8962  0.1716 -1.0553
    8MOL0     H 1062   5.371   6.485  10.419  1.7804  2.5648  3.0073
    8MOL0     H 1063   5.328   6.797  10.463  1.7925  0.0027 -1.1019
    8MOL0     H 1064   5.241   6.639  10.474 -0.4690 -0.0543  0.7901
    8MOL0     H 1065   5.193   6.748  10.356  0.5727 -1.3229 -1.6931
    8MOL0     H 1066   5.681   7.139  10.132 -0.6554  1.6413  1.9903
    8MOL0     H 1067   5.638   7.357  10.083 -0.9305  0.4276 -0.5348
    8MOL0     H 1068   5.485   7.584  10.118 -0.8730  1.4640 -0.7468
    8MOL0     H 1069   5.582   7.522   9.979 -0.7531  0.1815  1.3148
    8MOL0     H 1070   5.397   7.684   9.848  0.2332  2.3562 -1.3904
    8MOL0     H 1071   5.337   7.722  10.010  0.5561 -0.2514  0.4714
    8MOL0     H 1072   5.620   7.754   9.914 -0.6333  2.3680 -0.6539
    8MOL0     H 1073   5.573   7.801  10.075  0.4502 -0.9519  0.4445
    8MOL0     H 1074   5.416   7.970   9.981 -0.2776  0.5778 -0.6822
    8MOL0     H 1075   5.473   7.927   9.821  1.7095  1.2666 -0.0862
    8MOL0     H 1076   5.651   8.012  10.042 -0.2050  2.0644 -0.1238
    8MOL0     H 1077   5.698   7.968   9.865 -1.9175  0.4236 -2.5385
    8MOL0     H 1078   5.545   8.210   9.988 -1.2948  0.2726  0.6662
    8MOL0     H 1079   5.505   8.160   9.831 -1.2128  2.3295  1.7274
    8MOL0     H 1080   5.662   8.327   9.800 -2.6944 -1.4478  0.4735
    8MOL0     H 1081   5.747   8.177   9.758  0.3679 -0.4899  1.5331
    8MOL0     H 1082   5.750   8.299  10.042 -0.4450 -2.1720  2.0918
    8MOL0     H 1083   5.863   8.351   9.916 -1.2313  1.2085  2.2867
    8MOL0     H 1084   5.255   7.253   9.910 -1.5318 -0.4773  1.6767
    8MOL0     H 1085   5.293   7.020   9.965  0.3532 -0.0965 -2.0571
    8MOL0     H 1086   5.598   6.709  10.042 -1.6239  1.2828 -0.4772
    8MOL0     H 1087   5.670   6.470  10.118 -1.1460 -2.3633  0.5067
    8MOL0     H 1088   6.221   6.800  11.281 -2.9908 -0.0200 -0.1484
    8MOL0     H 1089   6.272   6.977  11.168 -1.1023 -1.1256  0.6017
    8MOL0     H 1090   6.318   7.355  10.845 -0.7247 -1.1012 -0.1255
    8MOL0     H 1091   6.397   7.509  10.676 -1.0693 -0.6074  2.4389
    8MOL0     H 1092   6.763   7.387  10.459 -0.1201 -0.4062 -0.3931
    8MOL0     H 1093   6.701   7.495  10.335  3.0410  1.6218 -0.1825
    8MOL0     H 1094   6.746   7.591  10.621 -0.7662 -0.3012 -0.2038
    8MOL0     H 1095   6.654   7.674  10.508 -0.0032  0.0720  1.0578
    8MOL0     H 1096   6.849   7.695  10.349  0.3513 -2.5489 -0.0451
    8MOL0     H 1097   6.860   7.782  10.497  0.5527  0.4620 -1.8295
    8MOL0     H 1098   6.959   7.544  10.576 -1.9972  0.5176 -0.2498
    8MOL0     H 1099   7.072   7.654  10.498  0.6913 -2.5030  2.2703
    8MOL0     H 1100   7.001   7.329  10.218  0.7332  1.2794 -0.7925
    8MOL0     H 1101   6.636   7.187  10.518  0.8877 -0.8553  0.8314
    8MOL0     H 1102   6.721   7.021  10.686 -0.1969 -0.2126  0.5656
    8MOL0     H 1103   6.626   6.990  10.833  0.0484 -0.4228 -0.1837
    8MOL0     H 1104   6.593   6.929  10.665 -0.9553  1.2346 -1.7828
    9MOL0     O 1105   0.835   2.000   9.383 -0.2656  0.5709  0.8347
    9MOL0     C 1106   0.714   1.977   9.375 -0.7262  0.2200 -0.4862
    9MOL0     O 1107   0.618   2.058   9.423 -0.4832  0.1070  0.5062
    9MOL0     C 1108   0.662   2.188   9.450  0.5434  0.5491 -0.4869
    9MOL0     C 1109   0.733   2.273   9.367 -0.8485 -0.2866 -0.2026
    9MOL0     C 1110   0.759   2.405   9.410 -0.5338  0.3945  0.0689
    9MOL0     C 1111   0.726   2.439   9.547 -0.2531  0.2362  0.3650
    9MOL0     O 1112   0.769   2.561   9.582  0.0756 -0.1441  1.4042
    9MOL0     C 1113   0.773   2.603   9.717  0.8486 -0.5808 -0.5357
    9MOL0     C 1114   0.840   2.742   9.724  0.0625  0.8326 -0.9133
    9MOL0     C 1115   0.817   2.836   9.602  0.0225 -0.7290 -0.3285
    9MOL0     C 1116   0.859   2.984   9.645 -0.1906 -0.1621  0.6857
    9MOL0     C 1117   0.822   3.073   9.523 -0.8813 -0.0674 -0.2624
    9MOL0     C 1118   0.860   3.222   9.558 -0.1137  0.0830 -1.4771
    9MOL0     C 1119   0.776   3.285   9.673  0.2399 -0.3113  0.2224
    9MOL0     C 1120   0.624   3.265   9.643 -0.3286  0.2671 -0.2409
    9MOL0     N 1121   0.546   3.310   9.764  0.1862  0.7434  0.4317
    9MOL0     C 1122   0.557   3.433   9.824  0.2171 -0.5425  0.6888
    9MOL0     C 1123   0.488   3.431   9.939  0.0550  0.6610 -0.2337
    9MOL0     C 1124   0.457   3.541  10.019  0.2999 -0.2803 -0.4829
    9MOL0     C 1125   0.421   3.521  10.173  0.3270 -0.0257  1.4814
    9MOL0     C 1126   0.386   3.647  10.244  0.1100  0.6842 -0.8305
    9MOL0     C 1127   0.345   3.620  10.384  0.1073 -0.5321  0.0104
    9MOL0     O 1128   0.329   3.745  10.457 -0.5854 -0.2935 -0.1840
    9MOL0     C 1129   0.325   3.732  10.594 -0.6191 -0.6414  0.1097
    9MOL0     C 1130   0.235   3.647  10.663  0.1327  0.0290  1.7089
    9MOL0     C 1131   0.255   3.618  10.804  0.5003  0.8059 -0.3648
    9MOL0     C 1132   0.170   3.503  10.863  0.1514 -0.9703 -0.3309
    9MOL0     C 1133   0.365   3.680  10.872  0.1815 -0.0148 -0.8928
    9MOL0     C 1134   0.423   3.638  11.011 -0.6601  0.1175 -0.0501
    9MOL0     O 1135   0.339   3.632  11.116 -0.0638 -0.7050  0.0280
    9MOL0     C 1136   0.394   3.609  11.240  1.0481  0.0035  0.8805
    9MOL0     C 1137   0.519   3.659  11.288  0.2713  0.2127  0.1772
    9MOL0     C 1138   0.583   3.598  11.396 -0.5443 -0.0028 -0.2013
    9MOL0     C 1139   0.517   3.496  11.468 -0.1534 -0.2809 -0.5935
    9MOL0     O 1140   0.567   3.437  11.571 -0.1422  0.7947 -0.0995
    9MOL0     C 1141   0.647   3.324  11.523 -1.1878 -0.0876  0.0239
    9MOL0     C 1142   0.733   3.287  11.640 -0.2737 -1.2454  0.0942
    9MOL0     C 1143   0.806   3.406  11.721  0.1860  0.6848 -0.0240
    9MOL0     C 1144   0.759   3.406  11.862  0.3726 -0.3150  0.2762
    9MOL0     C 1145   0.797   3.542  11.931 -0.8300 -0.8067 -1.1302
    9MOL0     C 1146   0.948   3.550  11.962 -1.1010  0.5300 -0.0820
    9MOL0     C 1147   0.982   3.686  12.024 -0.3267  0.4689  0.4156
    9MOL0     C 1148   1.127   3.697  12.077  0.1638  0.3400  0.6413
    9MOL0    Cl 1149   1.228   3.666  11.932  0.6091 -0.1321 -0.0691
    9MOL0     C 1150   0.388   3.459  11.433 -0.2676  1.0286 -0.2862
    9MOL0     C 1151   0.326   3.516  11.319  0.7062 -0.9461  0.2387
    9MOL0     O 1152   0.547   3.611  11.014 -0.2748  0.5620 -1.2124
    9MOL0     C 1153   0.453   3.765  10.803 -0.0246  0.8374  0.2455
    9MOL0     C 1154   0.422   3.795  10.673  0.2831 -0.4253 -0.1946
    9MOL0     N 1155   0.440   3.298   9.953  0.2243  0.2740 -0.7021
    9MOL0     N 1156   0.472   3.229   9.843 -0.0609 -0.5891  0.9844
    9MOL0     C 1157   0.654   2.350   9.632 -0.6582 -0.8899  1.1040
    9MOL0     C 1158   0.635   2.227   9.582  0.4685  0.4938  0.3400
    9MOL0     C 1159   0.678   1.830   9.338 -0.3249 -1.0643  0.5287
    9MOL0     C 1160   0.692   1.792   9.202  0.5482  0.2089 -0.8336
    9MOL0     C 1161   0.652   1.669   9.163  0.0542  0.4922  0.1346
    9MOL0     C 1162   0.618   1.572   9.262  0.0026 -0.0474 -0.8304
    9MOL0     O 1163   0.566   1.452   9.216  0.3722  0.0246  0.1240
    9MOL0     C 1164   0.665   1.364   9.162  0.0043  0.3765  0.5082
    9MOL0     C 1165   0.689   1.250   9.269 -0.1914 -0.1584  0.0767
    9MOL0     C 1166   0.577   1.144   9.282 -0.5929 -0.2539  0.8641
    9MOL0     C 1167   0.613   1.064   9.405 -0.4203  0.6870  0.1256
    9MOL0     C 1168   0.522   0.951   9.395  0.1200 -0.0939 -0.0531
    9MOL0     C 1169   0.461   0.850   9.375  1.3505  0.4640 -0.1881
    9MOL0     C 1170   0.607   1.608   9.396 -0.6648 -0.4081  0.0021
    9MOL0     C 1171   0.634   1.733   9.432 -0.1768  0.1371 -0.1611
    9MOL0     C 1172   0.623   1.773   9.579  0.0726  0.6081 -0.1520
    9MOL0     H 1173   0.751   2.251   9.262 -0.0716  1.5690 -0.4862
    9MOL0     H 1174   0.798   2.471   9.333 -1.4670 -0.4872 -1.2055
    9MOL0     H 1175   0.822   2.545   9.795 -0.1166 -1.5749 -0.6512
    9MOL0     H 1176   0.670   2.616   9.749  0.3508  1.7462 -2.7635
    9MOL0     H 1177   0.801   2.787   9.815  2.3670 -1.0274  1.1351
    9MOL0     H 1178   0.947   2.736   9.748 -0.2320  2.6064  1.1211
    9MOL0     H 1179   0.874   2.809   9.512 -0.0229 -2.3070  0.0775
    9MOL0     H 1180   0.709   2.833   9.590 -0.2596  1.4441  1.1715
    9MOL0     H 1181   0.796   3.014   9.729  0.0834  0.4846  0.6627
    9MOL0     H 1182   0.964   2.987   9.678 -0.1454  0.3797  0.4979
    9MOL0     H 1183   0.721   3.055   9.484 -0.7074 -0.1645 -0.6650
    9MOL0     H 1184   0.887   3.042   9.441  1.2352  5.9156 -1.3719
    9MOL0     H 1185   0.963   3.228   9.595 -1.0866 -0.1300  1.5043
    9MOL0     H 1186   0.858   3.292   9.473  2.7171  0.0460 -1.6641
    9MOL0     H 1187   0.794   3.392   9.687  0.8033 -0.8500  6.0782
    9MOL0     H 1188   0.809   3.235   9.765  1.8245 -0.1703 -0.2359
    9MOL0     H 1189   0.593   3.319   9.553  1.5667 -2.5237 -2.7824
    9MOL0     H 1190   0.595   3.162   9.619  0.5175 -0.5988  2.1880
    9MOL0     H 1191   0.599   3.523   9.781 -0.0421 -1.0146 -0.5847
    9MOL0     H 1192   0.375   3.589   9.963  0.9414  0.5992 -0.6962
    9MOL0     H 1193   0.543   3.609  10.017  0.2949 -0.2677 -2.5102
    9MOL0     H 1194   0.340   3.448  10.165  1.4748 -1.1481 -3.0181
    9MOL0     H 1195   0.503   3.464  10.217 -0.7560 -1.6549  1.4768
    9MOL0     H 1196   0.470   3.717  10.236  0.8054 -0.3238 -3.2792
    9MOL0     H 1197   0.308   3.700  10.188 -1.7132 -2.9772 -2.0576
    9MOL0     H 1198   0.249   3.566  10.384  0.2070 -0.7104 -0.6092
    9MOL0     H 1199   0.427   3.564  10.429  1.0121  1.3598  0.8401
    9MOL0     H 1200   0.156   3.594  10.611  1.5086 -0.6088  0.2069
    9MOL0     H 1201   0.093   3.547  10.928  2.3379  0.7403  1.2535
    9MOL0     H 1202   0.221   3.448  10.942  1.1362 -0.9086 -0.9131
    9MOL0     H 1203   0.125   3.426  10.799  1.0698 -1.7043 -0.1069
    9MOL0     H 1204   0.571   3.740  11.238  1.0861 -0.0667  0.5501
    9MOL0     H 1205   0.685   3.628  11.418  2.0579 -4.6623 -3.9180
    9MOL0     H 1206   0.577   3.245  11.493 -1.5256  0.9037 -2.0189
    9MOL0     H 1207   0.715   3.360  11.445 -0.9594 -0.4811  0.0374
    9MOL0     H 1208   0.668   3.226  11.702  0.6889  0.2188  2.7070
    9MOL0     H 1209   0.815   3.226  11.601 -1.4443 -0.9358 -3.1659
    9MOL0     H 1210   0.796   3.507  11.679  2.3706  0.7820 -0.4331
    9MOL0     H 1211   0.911   3.375  11.730 -0.4264 -1.2281  0.8666
    9MOL0     H 1212   0.812   3.331  11.922  2.0230  2.3441  2.4009
    9MOL0     H 1213   0.650   3.400  11.861  0.1290  2.5461  1.1058
    9MOL0     H 1214   0.756   3.623  11.871  0.3076  0.0998 -0.7173
    9MOL0     H 1215   0.758   3.545  12.033  0.6555  1.8915 -0.5572
    9MOL0     H 1216   1.002   3.536  11.868  1.3604  1.5134  1.0839
    9MOL0     H 1217   0.971   3.468  12.031 -1.6631 -1.9524 -2.6637
    9MOL0     H 1218   0.916   3.727  12.101  2.3220  2.9280  1.5717
    9MOL0     H 1219   0.971   3.751  11.936 -0.7402 -0.1720 -0.0187
    9MOL0     H 1220   1.159   3.630  12.158 -1.0910  0.3720  1.1772
    9MOL0     H 1221   1.132   3.799  12.115 -0.7973  1.3920 -1.8752
    9MOL0     H 1222   0.344   3.379  11.492  0.1215  2.1492  1.6065
    9MOL0     H 1223   0.228   3.480  11.288 -0.1179  0.1341  1.4624
    9MOL0     H 1224   0.547   3.810  10.832  1.1813 -1.8274  0.7965
    9MOL0     H 1225   0.494   3.859  10.623  0.5589  3.1376  4.1671
    9MOL0     H 1226   0.610   2.374   9.728 -3.0920  0.6847 -0.2973
    9MOL0     H 1227   0.582   2.152   9.641 -0.5807  0.2144 -0.9176
    9MOL0     H 1228   0.711   1.866   9.124 -2.9834  2.3244  0.0988
    9MOL0     H 1229   0.648   1.639   9.059 -0.6687 -1.0293  0.5800
    9MOL0     H 1230   0.612   1.322   9.075 -0.0216 -0.3606  0.8767
    9MOL0     H 1231   0.761   1.408   9.134  1.5319 -2.2127  1.3294
    9MOL0     H 1232   0.707   1.289   9.370  1.0769  2.1772 -0.9637
    9MOL0     H 1233   0.783   1.208   9.233  1.0927  3.0371 -0.6746
    9MOL0     H 1234   0.479   1.191   9.276  0.2224  1.4903  0.4729
    9MOL0     H 1235   0.578   1.086   9.189 -1.0706  0.2415  0.5440
    9MOL0     H 1236   0.598   1.133   9.488  1.9952 -0.0606  1.2532
    9MOL0     H 1237   0.717   1.033   9.410 -1.0815 -1.4609  3.6407
    9MOL0     H 1238   0.397   0.765   9.368  0.3902  1.0369  1.0055
    9MOL0     H 1239   0.580   1.539   9.475  2.3479 -1.3605  0.3095
    9MOL0     H 1240   0.546   1.847   9.602  0.1261  0.4113  0.6878
    9MOL0     H 1241   0.608   1.684   9.640  3.4136  0.1202  0.1346
    9MOL0     H 1242   0.719   1.813   9.613 -0.2552  0.7062  0.6833
   10MOL0     O 1243   7.568   7.719  10.159 -0.0729 -1.0760 -0.0910
   10MOL0     C 1244   7.649   7.679  10.243 -0.3440 -0.3121  0.1282
   10MOL0     O 1245   7.641   7.712  10.382 -0.2330 -0.4253  0.3498
   10MOL0     C 1246   7.530   7.754  10.441 -0.2760  0.7750 -0.1002
   10MOL0     C 1247   7.399   7.767  10.393 -0.2366 -1.3613 -0.0812
   10MOL0     C 1248   7.300   7.812  10.475  0.0593  0.3554 -0.0831
   10MOL0     C 1249   7.323   7.826  10.614 -0.9661 -0.2466 -0.2842
   10MOL0     O 1250   7.217   7.856  10.693  0.1966 -0.1915 -0.3514
   10MOL0     C 1251   7.234   7.866  10.834  1.2062 -0.0287  0.4803
   10MOL0     C 1252   7.093   7.830  10.897 -0.3424 -0.6095 -0.4229
   10MOL0     C 1253   7.068   7.681  10.899  0.2381  0.0336 -0.5946
   10MOL0     C 1254   6.923   7.650  10.917  0.7076  0.2823  0.7399
   10MOL0     C 1255   6.911   7.521  10.991 -0.1337 -0.1028 -0.0881
   10MOL0     C 1256   6.776   7.498  11.054  0.6953 -0.0942 -0.0694
   10MOL0     C 1257   6.771   7.382  11.154  1.1078  0.6139 -0.1865
   10MOL0     C 1258   6.620   7.372  11.189  0.1603 -0.4592 -0.5883
   10MOL0     N 1259   6.577   7.485  11.276  0.4483  0.5984 -0.3022
   10MOL0     C 1260   6.552   7.494  11.410  0.5642 -0.6201 -0.1696
   10MOL0     C 1261   6.498   7.620  11.433 -0.3493  0.5826 -0.1244
   10MOL0     C 1262   6.439   7.686  11.556  0.3756 -0.0808 -0.0428
   10MOL0     C 1263   6.451   7.597  11.679  0.3908  0.1123 -0.5565
   10MOL0     C 1264   6.307   7.557  11.725 -0.4260  0.3746 -0.8210
   10MOL0     C 1265   6.310   7.467  11.854  0.0969  0.3969  1.0223
   10MOL0     O 1266   6.412   7.362  11.839  0.1895 -1.4040  0.1271
   10MOL0     C 1267   6.378   7.246  11.889 -1.4258 -0.0628 -0.2711
   10MOL0     C 1268   6.355   7.240  12.027 -0.1176  0.6531  0.1038
   10MOL0     C 1269   6.316   7.120  12.094  0.2837 -0.9052  0.0890
   10MOL0     C 1270   6.286   7.127  12.247 -0.3407 -0.1348 -0.0558
   10MOL0     C 1271   6.286   7.010  12.012  0.3950  0.4937 -0.2313
   10MOL0     C 1272   6.214   6.890  12.060  0.3666 -0.8953  0.0987
   10MOL0     O 1273   6.176   6.791  11.974  0.7940 -0.0077 -0.8888
   10MOL0     C 1274   6.071   6.709  12.004  0.3827  0.9725 -0.8290
   10MOL0     C 1275   5.949   6.716  11.937 -0.2333 -0.0122  0.4015
   10MOL0     C 1276   5.841   6.636  11.964 -0.3788  0.3862 -0.7317
   10MOL0     C 1277   5.849   6.539  12.065  0.6429  0.7782  0.1455
   10MOL0     O 1278   5.737   6.462  12.091 -0.0031 -0.0710 -0.3461
   10MOL0     C 1279   5.729   6.324  12.078 -0.4612  0.6064  0.4177
   10MOL0     C 1280   5.652   6.290  12.215 -0.3539 -0.1521  0.5960
   10MOL0     C 1281   5.512   6.351  12.235  0.2379  0.0343 -0.1094
   10MOL0     C 1282   5.404   6.259  12.160 -0.3084 -0.3112 -1.4693
   10MOL0     C 1283   5.297   6.342  12.101 -0.3482 -0.3094  0.1271
   10MOL0     C 1284   5.203   6.393  12.205 -0.0774 -0.4652 -0.9952
   10MOL0     C 1285   5.098   6.295  12.254  0.0212 -0.1876  0.5194
   10MOL0     C 1286   5.083   6.283  12.401 -0.1949  0.1455 -1.5662
   10MOL0    Cl 1287   4.984   6.417  12.472 -0.1777 -0.0536  0.1927
   10MOL0     C 1288   5.974   6.518  12.123  0.1648  1.2096 -0.1725
   10MOL0     C 1289   6.075   6.607  12.098  0.2648 -0.4092  0.2704
   10MOL0     O 1290   6.171   6.894  12.177 -0.0705 -0.0126 -0.6109
   10MOL0     C 1291   6.348   7.006  11.889 -0.8776 -0.1919  0.1224
   10MOL0     C 1292   6.393   7.120  11.822 -0.2806  0.0033  0.0498
   10MOL0     N 1293   6.483   7.679  11.313  0.5145 -0.2225  0.0825
   10MOL0     N 1294   6.519   7.596  11.222  0.6154 -0.6408 -0.2891
   10MOL0     C 1295   7.450   7.825  10.656  0.9273  0.6586 -0.3112
   10MOL0     C 1296   7.556   7.787  10.577  0.2917 -0.9972 -0.9456
   10MOL0     C 1297   7.773   7.617  10.196 -0.1429 -0.3700  0.0449
   10MOL0     C 1298   7.791   7.605  10.053  0.0019 -0.3729  0.8875
   10MOL0     C 1299   7.899   7.532   9.993  0.7626 -0.0283  0.6511
   10MOL0     C 1300   7.994   7.470  10.069  0.2622 -0.6913 -0.0841
   10MOL0     O 1301   8.102   7.417  10.011 -0.8883  0.1847 -0.3061
   10MOL0     C 1302   8.116   7.274  10.016 -0.4096  0.5564  0.2412
   10MOL0     C 1303   8.043   7.218   9.897 -0.3607 -0.0080  0.3656
   10MOL0     C 1304   8.118   7.242   9.764  0.2775  0.5084  0.6700
   10MOL0     C 1305   8.260   7.196   9.754 -0.0272  0.2103  0.0783
   10MOL0     C 1306   8.307   7.207   9.619  0.8134 -0.3305  0.2227
   10MOL0     C 1307   8.334   7.232   9.506 -0.6190 -0.4381  0.4898
   10MOL0     C 1308   7.992   7.491  10.208  0.5169 -0.1577  0.6714
   10MOL0     C 1309   7.887   7.568  10.270 -0.3196  0.2011  0.2590
   10MOL0     C 1310   7.887   7.568  10.418 -0.8547  0.2767 -0.1882
   10MOL0     H 1311   7.371   7.752  10.289 -0.1741 -1.0842 -0.1414
   10MOL0     H 1312   7.200   7.838  10.441  0.6224  0.8947 -1.3974
   10MOL0     H 1313   7.254   7.966  10.873  1.2339 -0.0239  0.4538
   10MOL0     H 1314   7.309   7.801  10.880  3.3841  3.6734  2.6449
   10MOL0     H 1315   7.089   7.868  11.000  1.7952 -1.4016  0.0160
   10MOL0     H 1316   7.020   7.884  10.838 -4.0605 -0.1310  4.0293
   10MOL0     H 1317   7.101   7.641  10.803  2.7348 -2.3231  1.0598
   10MOL0     H 1318   7.124   7.637  10.982 -0.4612  1.1740  0.5276
   10MOL0     H 1319   6.883   7.729  10.981 -0.3774 -0.5624  1.1456
   10MOL0     H 1320   6.864   7.643  10.825  0.0632 -2.7674  1.2528
   10MOL0     H 1321   6.980   7.501  11.074 -3.4091 -5.2144  1.9851
   10MOL0     H 1322   6.939   7.445  10.917  0.6194  0.4281 -0.3556
   10MOL0     H 1323   6.769   7.589  11.114  1.5980  0.6266 -1.0111
   10MOL0     H 1324   6.693   7.494  10.983 -0.8552 -0.1074  1.6664
   10MOL0     H 1325   6.837   7.397  11.240  0.2836  2.1562  0.1987
   10MOL0     H 1326   6.792   7.285  11.108  1.4174  0.2004  0.7926
   10MOL0     H 1327   6.554   7.375  11.102  1.8891 -1.6507 -1.9828
   10MOL0     H 1328   6.612   7.277  11.243 -1.1878 -0.4751 -0.7710
   10MOL0     H 1329   6.575   7.421  11.487 -2.4298  0.1378  1.5878
   10MOL0     H 1330   6.337   7.721  11.540 -0.5786 -2.6245  0.0914
   10MOL0     H 1331   6.494   7.779  11.574 -1.6121  0.5560  3.7338
   10MOL0     H 1332   6.515   7.511  11.654 -0.6140 -0.8618  0.1233
   10MOL0     H 1333   6.501   7.650  11.760  0.3772 -2.9843  1.6374
   10MOL0     H 1334   6.246   7.644  11.746  1.1919  1.6660 -1.2123
   10MOL0     H 1335   6.261   7.495  11.647  1.0820 -3.3256  0.9681
   10MOL0     H 1336   6.327   7.516  11.951 -0.9601 -1.2701  2.0899
   10MOL0     H 1337   6.210   7.426  11.869  0.1748  0.2643  1.1810
   10MOL0     H 1338   6.362   7.329  12.087  1.5171 -0.3134  1.4272
   10MOL0     H 1339   6.178   7.119  12.261 -0.1335 -1.3203  1.0984
   10MOL0     H 1340   6.305   7.226  12.289 -2.2455  0.0947  0.3356
   10MOL0     H 1341   6.332   7.047  12.306  0.3717  2.7606  3.6797
   10MOL0     H 1342   5.933   6.799  11.869  0.8467 -1.8493 -2.2663
   10MOL0     H 1343   5.744   6.647  11.918 -0.0986 -2.9421 -2.4725
   10MOL0     H 1344   5.668   6.294  11.993 -0.2288 -0.4131  0.5916
   10MOL0     H 1345   5.829   6.279  12.073 -0.6565 -0.0729  2.1165
   10MOL0     H 1346   5.645   6.181  12.216 -0.1044 -0.3333 -2.9787
   10MOL0     H 1347   5.725   6.300  12.296  0.0411 -1.1271  0.3790
   10MOL0     H 1348   5.508   6.451  12.193 -2.3398  0.3362  0.7033
   10MOL0     H 1349   5.487   6.335  12.340 -3.1213  0.0182 -0.8044
   10MOL0     H 1350   5.374   6.183  12.232  2.8510 -0.3300 -0.0049
   10MOL0     H 1351   5.455   6.209  12.077 -0.7313  0.1345 -2.0052
   10MOL0     H 1352   5.351   6.420  12.047 -0.5344 -0.6521 -0.5635
   10MOL0     H 1353   5.234   6.291  12.027 -1.6391  1.5117 -0.0880
   10MOL0     H 1354   5.163   6.487  12.164 -1.2474  0.9012  2.8627
   10MOL0     H 1355   5.258   6.424  12.294 -1.7967  0.5950 -0.2527
   10MOL0     H 1356   5.126   6.194  12.221 -2.4140 -0.4028 -1.2111
   10MOL0     H 1357   5.003   6.308  12.202  0.6460 -0.1677 -0.6463
   10MOL0     H 1358   5.185   6.276  12.439  0.6765  2.2514 -3.3151
   10MOL0     H 1359   5.015   6.200  12.423 -1.9567  1.7159 -0.7842
   10MOL0     H 1360   5.986   6.434  12.190 -2.1874  0.2365 -0.8639
   10MOL0     H 1361   6.172   6.600  12.148  0.7711  0.3318 -0.5780
   10MOL0     H 1362   6.341   6.912  11.836  3.1999  0.0924 -1.2707
   10MOL0     H 1363   6.426   7.123  11.719  1.7406  0.8476  0.6715
   10MOL0     H 1364   7.472   7.848  10.759 -1.4560 -0.3003  0.4783
   10MOL0     H 1365   7.661   7.774  10.601  0.4332 -0.7700 -1.4165
   10MOL0     H 1366   7.732   7.653   9.975 -2.1321 -1.0514  1.9966
   10MOL0     H 1367   7.910   7.534   9.885  1.4511  0.2039  0.7227
   10MOL0     H 1368   8.220   7.241  10.014 -0.6663 -0.2623  0.0785
   10MOL0     H 1369   8.077   7.220  10.102  2.0165 -1.8149 -0.0424
   10MOL0     H 1370   7.943   7.263   9.885  0.1725  2.2993  3.2664
   10MOL0     H 1371   8.035   7.110   9.909 -0.5015 -0.2715 -1.7706
   10MOL0     H 1372   8.070   7.180   9.687  2.4604  0.3513 -0.6259
   10MOL0     H 1373   8.121   7.343   9.724  0.0666 -0.4295 -1.8986
   10MOL0     H 1374   8.281   7.090   9.771  0.3141 -0.0547 -1.7338
   10MOL0     H 1375   8.322   7.260   9.816  1.0845 -0.5989 -0.1607
   10MOL0     H 1376   8.354   7.251   9.403 -1.4707  0.8218  0.5303
   10MOL0     H 1377   8.067   7.455  10.278 -0.5271 -0.1025  1.8577
   10MOL0     H 1378   7.955   7.493  10.458  0.2452  1.0549 -0.5540
   10MOL0     H 1379   7.908   7.666  10.461 -3.1316  0.0849  1.5285
   10MOL0     H 1380   7.790   7.548  10.464 -0.3258  0.8629  1.2436
   11MOL0     O 1381   3.411  10.938  10.782  0.0147  0.0537  0.3328
   11MOL0     C 1382   3.473  10.947  10.679  0.1791 -0.5935 -0.3358
   11MOL0     O 1383   3.423  10.945  10.559  0.1701 -0.2238 -0.2379
   11MOL0     C 1384   3.312  10.874  10.536  0.8502 -0.5649  0.4208
   11MOL0     C 1385   3.205  10.943  10.481  0.3382 -0.3337  0.1107
   11MOL0     C 1386   3.077  10.877  10.450 -0.5067  0.2699  0.4145
   11MOL0     C 1387   3.066  10.737  10.465 -0.1652  0.1021  0.8571
   11MOL0     O 1388   2.956  10.673  10.422  0.4014 -0.7287 -0.0109
   11MOL0     C 1389   2.965  10.634  10.286  0.5785 -0.4489  0.5472
   11MOL0     C 1390   2.829  10.587  10.242  0.0531 -0.5112  0.4012
   11MOL0     C 1391   2.720  10.690  10.253  0.1508  0.4360 -0.0415
   11MOL0     C 1392   2.734  10.790  10.138 -0.2929  0.6470 -0.9645
   11MOL0     C 1393   2.605  10.845  10.083  0.2427 -0.3252  0.4817
   11MOL0     C 1394   2.552  10.741   9.975 -0.1955 -0.6479  0.7602
   11MOL0     C 1395   2.400  10.737   9.942 -1.3955  0.1114 -0.5826
   11MOL0     C 1396   2.299  10.692  10.054 -0.8415 -0.2393  0.2676
   11MOL0     N 1397   2.348  10.579  10.128  0.1957 -0.1441  1.3835
   11MOL0     C 1398   2.373  10.458  10.083 -0.5438  0.1014  0.4833
   11MOL0     C 1399   2.408  10.375  10.185  0.3321  0.0349  0.9748
   11MOL0     C 1400   2.423  10.224  10.168  0.0251  0.1577  0.6402
   11MOL0     C 1401   2.542  10.161  10.245 -0.7359 -0.1514  0.5379
   11MOL0     C 1402   2.516  10.162  10.400 -0.4386  0.2796  1.0823
   11MOL0     C 1403   2.624  10.072  10.464  1.0622  0.4787 -1.0393
   11MOL0     O 1404   2.579  10.059  10.607  0.3913 -0.6506 -0.0777
   11MOL0     C 1405   2.671  10.000  10.687 -0.2980  0.9621 -0.2790
   11MOL0     C 1406   2.668  10.042  10.822  1.0124 -0.1066 -0.4483
   11MOL0     C 1407   2.770   9.998  10.913 -0.9065  0.1100 -0.3698
   11MOL0     C 1408   2.766  10.050  11.054  0.1073  1.0602 -0.2271
   11MOL0     C 1409   2.873   9.905  10.872 -0.5235 -0.4858  0.1772
   11MOL0     C 1410   2.980   9.850  10.960 -0.5030 -0.4688  0.0918
   11MOL0     O 1411   3.102   9.806  10.902  0.5160  0.4750  0.4210
   11MOL0     C 1412   3.195   9.728  10.970  0.3469 -0.7189  0.3289
   11MOL0     C 1413   3.265   9.637  10.892  0.8365 -0.7132 -0.0600
   11MOL0     C 1414   3.372   9.567  10.941  0.7525 -0.6840 -0.5368
   11MOL0     C 1415   3.419   9.597  11.082  0.2828 -0.7600 -0.0149
   11MOL0     O 1416   3.546   9.552  11.123  0.1960 -0.4505 -0.1962
   11MOL0     C 1417   3.535   9.498  11.255  0.8321  0.7395 -0.4676
   11MOL0     C 1418   3.682   9.486  11.300  0.2943  0.7573 -0.1038
   11MOL0     C 1419   3.712   9.389  11.415 -0.2079  0.0169 -0.8225
   11MOL0     C 1420   3.679   9.235  11.389 -0.0692  0.0966 -0.5300
   11MOL0     C 1421   3.683   9.154  11.514  0.1092  0.0753  0.3239
   11MOL0     C 1422   3.619   9.021  11.482 -0.1480  0.3912  0.4329
   11MOL0     C 1423   3.565   8.945  11.600  0.1839  0.3239  0.0366
   11MOL0     C 1424   3.500   8.807  11.559  0.1496 -0.1774 -1.0122
   11MOL0    Cl 1425   3.515   8.687  11.693  0.7365  0.2629 -0.2244
   11MOL0     C 1426   3.345   9.689  11.154 -0.4086  0.1748  0.4320
   11MOL0     C 1427   3.236   9.753  11.101  0.6267 -0.9114 -0.4025
   11MOL0     O 1428   2.940   9.808  11.070 -0.3589 -0.2675  0.5710
   11MOL0     C 1429   2.879   9.866  10.736  0.2252 -0.3957  0.9967
   11MOL0     C 1430   2.772   9.902  10.653  1.4765  0.3896  0.7653
   11MOL0     N 1431   2.379  10.446  10.302  0.1070  0.7380 -0.1792
   11MOL0     N 1432   2.334  10.565  10.268  0.1182 -0.3655 -0.3509
   11MOL0     C 1433   3.172  10.662  10.515 -0.1550 -0.8845  0.0940
   11MOL0     C 1434   3.288  10.738  10.554 -0.5842  0.1178 -0.1521
   11MOL0     C 1435   3.620  10.990  10.689  0.3635  0.1099  0.1472
   11MOL0     C 1436   3.682  11.017  10.559  0.4461  0.3509 -0.2035
   11MOL0     C 1437   3.811  11.060  10.538 -0.1519 -0.0945 -0.5772
   11MOL0     C 1438   3.880  11.087  10.659  0.6676 -0.4994 -0.4744
   11MOL0     O 1439   4.009  11.130  10.659 -0.0571 -0.3718 -0.6157
   11MOL0     C 1440   4.093  11.123  10.543 -0.4039  0.6534 -0.5222
   11MOL0     C 1441   4.229  11.182  10.580  0.2208 -0.3975 -0.3396
   11MOL0     C 1442   4.314  11.052  10.627  0.4706 -0.1602 -0.0942
   11MOL0     C 1443   4.297  11.011  10.773  0.0634 -0.5402 -0.3472
   11MOL0     C 1444   4.322  10.866  10.781  0.5148 -0.3009 -0.0915
   11MOL0     C 1445   4.341  10.748  10.786  0.4944  0.4982  0.1225
   11MOL0     C 1446   3.820  11.067  10.786 -1.1850  0.6892 -0.5604
   11MOL0     C 1447   3.691  11.023  10.806 -0.0920 -0.1480  0.0241
   11MOL0     C 1448   3.638  10.994  10.941  0.7161 -0.5583  0.4809
   11MOL0     H 1449   3.203  11.050  10.464 -0.7921 -0.0974  1.5656
   11MOL0     H 1450   2.998  10.925  10.394 -0.6254 -1.2280 -0.8025
   11MOL0     H 1451   3.041  10.555  10.280  3.9167  2.5873 -0.9976
   11MOL0     H 1452   2.999  10.714  10.219  1.0579 -1.1891 -0.1187
   11MOL0     H 1453   2.838  10.561  10.135  1.3468  2.9905 -0.4667
   11MOL0     H 1454   2.811  10.499  10.304 -0.2800 -1.4817 -1.0103
   11MOL0     H 1455   2.629  10.629  10.244  1.1706 -1.4177  1.3965
   11MOL0     H 1456   2.705  10.736  10.351 -1.6819  1.6310 -0.8363
   11MOL0     H 1457   2.788  10.874  10.182  1.5899 -0.7686 -0.4036
   11MOL0     H 1458   2.793  10.739  10.061  1.7637 -2.7807  2.4722
   11MOL0     H 1459   2.607  10.944  10.037 -3.4313 -0.6847 -0.8503
   11MOL0     H 1460   2.526  10.853  10.159 -1.6772  1.9392 -1.5756
   11MOL0     H 1461   2.604  10.762   9.882 -1.7549  1.9876  0.3770
   11MOL0     H 1462   2.583  10.644  10.014 -0.1655 -1.8076 -1.9409
   11MOL0     H 1463   2.386  10.663   9.863  2.6910 -0.8503 -0.6002
   11MOL0     H 1464   2.366  10.837   9.914 -1.4353 -0.1833 -1.6407
   11MOL0     H 1465   2.279  10.784  10.110  0.2193  0.2075 -0.0626
   11MOL0     H 1466   2.210  10.653  10.003 -0.4757 -3.3005  1.7673
   11MOL0     H 1467   2.362  10.432   9.978 -3.5194 -2.1151  1.1828
   11MOL0     H 1468   2.443  10.195  10.065  0.0885  0.2921  0.6140
   11MOL0     H 1469   2.327  10.184  10.203  0.1150  1.6248  2.7683
   11MOL0     H 1470   2.559  10.059  10.209 -1.9469 -1.0780  2.4093
   11MOL0     H 1471   2.627  10.223  10.217 -1.1972 -1.0294 -3.5295
   11MOL0     H 1472   2.540  10.264  10.434  1.2770  0.2770  0.0485
   11MOL0     H 1473   2.411  10.135  10.414 -0.0766 -1.5029  0.5435
   11MOL0     H 1474   2.617   9.977  10.412  0.2142 -1.6238  2.5427
   11MOL0     H 1475   2.722  10.119  10.464  2.5203 -2.3508 -1.6601
   11MOL0     H 1476   2.594  10.113  10.857  1.9746  0.7837 -0.1885
   11MOL0     H 1477   2.718  10.148  11.062 -2.1319  0.0533 -0.4223
   11MOL0     H 1478   2.869  10.072  11.083  0.7862 -1.2950 -0.6182
   11MOL0     H 1479   2.721   9.976  11.121  0.8072 -2.0755 -2.9301
   11MOL0     H 1480   3.246   9.630  10.786 -2.4452 -1.4054  0.4522
   11MOL0     H 1481   3.430   9.497  10.882  0.8014 -2.5178  1.5927
   11MOL0     H 1482   3.480   9.554  11.330  1.1037 -0.7176  0.8808
   11MOL0     H 1483   3.493   9.397  11.253  0.5588  0.8627 -1.3638
   11MOL0     H 1484   3.741   9.442  11.220  1.0089 -1.8577  1.7542
   11MOL0     H 1485   3.714   9.586  11.330 -0.3538  0.8669  0.2479
   11MOL0     H 1486   3.657   9.431  11.500  2.4620  1.2543  0.4317
   11MOL0     H 1487   3.814   9.410  11.450 -1.1594  0.8724  1.6830
   11MOL0     H 1488   3.745   9.203  11.308 -2.4467 -1.4287 -1.9790
   11MOL0     H 1489   3.574   9.236  11.359 -1.6221 -0.9681  4.0318
   11MOL0     H 1490   3.784   9.147  11.556  0.7641 -0.1828 -1.2201
   11MOL0     H 1491   3.618   9.200  11.588  0.0660 -0.9829  0.9588
   11MOL0     H 1492   3.692   8.947  11.445 -1.9885 -1.5694  0.5071
   11MOL0     H 1493   3.540   9.037  11.408 -0.0101  1.5329  0.5148
   11MOL0     H 1494   3.482   8.995  11.650  2.8334  1.4571  3.8191
   11MOL0     H 1495   3.644   8.934  11.676  0.0805 -2.1191 -0.1355
   11MOL0     H 1496   3.556   8.760  11.478  1.8201 -0.2216  0.1243
   11MOL0     H 1497   3.396   8.824  11.529 -0.1874  1.9653  1.0744
   11MOL0     H 1498   3.373   9.728  11.251 -4.0354  1.9594  0.9493
   11MOL0     H 1499   3.190   9.828  11.165 -2.1054 -2.8804  0.1106
   11MOL0     H 1500   2.959   9.806  10.696 -2.0916 -2.6389 -0.5811
   11MOL0     H 1501   2.758   9.864  10.553 -0.3580  0.0197  1.1239
   11MOL0     H 1502   3.166  10.554  10.515  2.3443 -1.1038  0.4078
   11MOL0     H 1503   3.377  10.691  10.595 -0.2136  1.9936  1.2980
   11MOL0     H 1504   3.626  11.006  10.467  1.0551 -1.8952 -0.3698
   11MOL0     H 1505   3.858  11.092  10.445  1.3286  3.1528  1.1110
   11MOL0     H 1506   4.093  11.016  10.519 -0.7074  0.6204 -0.3774
   11MOL0     H 1507   4.048  11.187  10.467  2.5273  1.2310 -1.8865
   11MOL0     H 1508   4.232  11.254  10.662  0.5111 -1.4271  0.5910
   11MOL0     H 1509   4.280  11.230  10.496  4.3586  0.3573  2.2963
   11MOL0     H 1510   4.294  10.963  10.566 -1.2426 -0.1145  0.3305
   11MOL0     H 1511   4.420  11.077  10.623 -0.0576  2.4410  0.2018
   11MOL0     H 1512   4.198  11.025  10.816  1.1115  1.7527  1.5161
   11MOL0     H 1513   4.367  11.056  10.843 -1.1982 -1.1929  1.4034
   11MOL0     H 1514   4.344  10.641  10.783 -0.9278  0.4215  0.7198
   11MOL0     H 1515   3.874  11.072  10.880 -2.5349  0.8235  0.2361
   11MOL0     H 1516   3.597  11.086  10.982 -0.3151 -0.7926  0.0078
   11MOL0     H 1517   3.560  10.919  10.958 -1.4023  1.7671  1.6078
   11MOL0     H 1518   3.716  10.950  11.004 -0.7731 -2.1537  1.3153
   12MOL0     O 1519   3.812   2.450   5.009  0.4667 -0.7854  0.4913
   12MOL0     C 1520   3.804   2.498   5.124  0.1546 -0.1009  0.2949
   12MOL0     O 1521   3.733   2.445   5.237 -0.7580 -0.7155  0.4120
   12MOL0     C 1522   3.660   2.335   5.220  0.8850  1.1943  0.1927
   12MOL0     C 1523   3.692   2.212   5.156  0.6590 -0.9259  0.1041
   12MOL0     C 1524   3.597   2.102   5.142  0.6564 -0.4914 -0.0876
   12MOL0     C 1525   3.476   2.114   5.213  0.0084  0.7317  0.0137
   12MOL0     O 1526   3.368   2.030   5.196  0.5269 -0.3736 -0.4706
   12MOL0     C 1527   3.388   1.902   5.136 -0.2854  0.7289  1.0999
   12MOL0     C 1528   3.263   1.822   5.107 -0.2829 -0.8796  0.3872
   12MOL0     C 1529   3.290   1.688   5.030 -0.1104 -0.3010 -0.3332
   12MOL0     C 1530   3.162   1.641   4.952  0.1768  0.3830 -0.2465
   12MOL0     C 1531   3.179   1.496   4.905 -0.1010  0.0695  0.2245
   12MOL0     C 1532   3.280   1.481   4.780  0.3282 -0.9029 -1.1884
   12MOL0     C 1533   3.235   1.369   4.688  0.1344 -0.3044  0.1345
   12MOL0     C 1534   3.217   1.230   4.762  0.4567  0.0731 -0.1167
   12MOL0     N 1535   3.163   1.135   4.666  0.5537 -0.5146 -0.0972
   12MOL0     C 1536   3.028   1.146   4.627  0.4457  0.7319 -0.0308
   12MOL0     C 1537   3.016   1.048   4.541 -0.1958 -0.9309 -0.1292
   12MOL0     C 1538   2.902   1.037   4.456  0.1179 -0.6868  0.2696
   12MOL0     C 1539   2.886   1.169   4.374 -0.5057  0.3417 -0.5306
   12MOL0     C 1540   2.936   1.140   4.228  0.0899 -0.1526 -0.5717
   12MOL0     C 1541   2.901   1.246   4.127 -0.4965 -0.3673 -0.6922
   12MOL0     O 1542   2.930   1.179   4.003 -0.8104  0.7272  0.5229
   12MOL0     C 1543   2.988   1.234   3.900  0.7584  0.1844 -0.0505
   12MOL0     C 1544   3.086   1.338   3.901  0.3838 -0.2344 -0.8733
   12MOL0     C 1545   3.142   1.387   3.781  0.1685  0.2223  0.0563
   12MOL0     C 1546   3.246   1.493   3.795 -0.4454  0.5928 -0.2866
   12MOL0     C 1547   3.096   1.340   3.656  0.5525  0.1501  1.0396
   12MOL0     C 1548   3.147   1.380   3.520  0.3877  0.0132  0.7008
   12MOL0     O 1549   3.241   1.467   3.507 -1.1651 -0.7825 -0.2109
   12MOL0     C 1550   3.234   1.547   3.395 -0.3418 -0.8542 -0.3293
   12MOL0     C 1551   3.361   1.590   3.346  1.3642  0.3233  0.2037
   12MOL0     C 1552   3.362   1.682   3.241 -0.0445 -0.4504  0.1305
   12MOL0     C 1553   3.243   1.732   3.178 -0.4102  0.1239  0.2510
   12MOL0     O 1554   3.233   1.804   3.061 -0.1608 -0.2341 -0.2854
   12MOL0     C 1555   3.315   1.754   2.956 -0.8291  0.1715 -0.8866
   12MOL0     C 1556   3.245   1.771   2.821 -0.4299  0.4017 -0.5435
   12MOL0     C 1557   3.222   1.914   2.783  0.0326  0.6858 -0.6265
   12MOL0     C 1558   3.159   1.926   2.646 -0.5249  0.0940 -0.2608
   12MOL0     C 1559   3.105   2.078   2.612  0.7421 -0.2370 -0.1607
   12MOL0     C 1560   3.072   2.087   2.466 -0.0409 -0.4514 -0.5028
   12MOL0     C 1561   3.002   1.975   2.396 -1.9110 -0.2205  0.1832
   12MOL0     C 1562   2.968   2.016   2.254 -0.2489  0.2391  0.6308
   12MOL0    Cl 1563   2.840   2.152   2.234 -0.2062 -0.0479  0.1072
   12MOL0     C 1564   3.122   1.699   3.230 -0.2225  0.1644 -0.2303
   12MOL0     C 1565   3.119   1.610   3.336 -0.5934  0.7243 -0.5575
   12MOL0     O 1566   3.092   1.320   3.426 -0.3297  0.7493  1.0739
   12MOL0     C 1567   2.994   1.250   3.656  0.6537  0.6298 -0.7680
   12MOL0     C 1568   2.945   1.192   3.777  1.0084 -0.9201 -0.2295
   12MOL0     N 1569   3.134   0.982   4.535 -0.0156  0.2667  0.3496
   12MOL0     N 1570   3.234   1.044   4.592 -0.2586 -0.7716  0.1851
   12MOL0     C 1571   3.449   2.231   5.283  0.5455  0.0476  0.0130
   12MOL0     C 1572   3.538   2.345   5.290 -0.4167  0.6025 -0.2571
   12MOL0     C 1573   3.896   2.618   5.159  0.4743  0.5761 -0.2410
   12MOL0     C 1574   4.011   2.644   5.076 -0.7569  0.9260 -0.3623
   12MOL0     C 1575   4.107   2.737   5.104 -0.7951  0.8328  0.6996
   12MOL0     C 1576   4.094   2.814   5.221 -0.2170 -0.9589 -0.9206
   12MOL0     O 1577   4.198   2.911   5.235  0.1415  0.7633 -1.0000
   12MOL0     C 1578   4.196   3.022   5.327 -0.3787  0.6950  0.0821
   12MOL0     C 1579   4.311   3.121   5.291  0.1722 -1.6496  0.1063
   12MOL0     C 1580   4.291   3.192   5.148 -0.5376  0.9169 -0.5921
   12MOL0     C 1581   4.375   3.319   5.120  0.1358  0.2373  0.1627
   12MOL0     C 1582   4.516   3.292   5.078  0.8159  0.5744  0.4245
   12MOL0     C 1583   4.638   3.283   5.060 -0.1858  0.0505 -0.1842
   12MOL0     C 1584   3.991   2.793   5.312 -0.1708 -0.5886  0.3690
   12MOL0     C 1585   3.880   2.714   5.271 -0.8406 -0.2760 -0.1488
   12MOL0     C 1586   3.751   2.714   5.352  0.7583  0.7163 -0.2901
   12MOL0     H 1587   3.785   2.213   5.101 -0.2518  0.7023 -1.5500
   12MOL0     H 1588   3.627   2.018   5.079  1.9984 -0.1720  0.0954
   12MOL0     H 1589   3.434   1.843   5.216  0.7259 -3.2389 -2.0480
   12MOL0     H 1590   3.452   1.897   5.047 -2.1570 -0.6273 -0.2444
   12MOL0     H 1591   3.216   1.800   5.203  1.7046 -3.2736  0.9066
   12MOL0     H 1592   3.197   1.882   5.043 -0.1622  0.2892  1.3332
   12MOL0     H 1593   3.361   1.706   4.950  0.7700 -2.0600 -0.0153
   12MOL0     H 1594   3.339   1.617   5.098  2.2717  0.6067 -0.9940
   12MOL0     H 1595   3.084   1.636   5.029  1.8168  1.1349  1.5742
   12MOL0     H 1596   3.157   1.705   4.864 -0.3226  3.8781  2.1429
   12MOL0     H 1597   3.081   1.457   4.876  0.3157 -1.0269  0.2591
   12MOL0     H 1598   3.221   1.441   4.989  0.1912 -0.3464 -0.1918
   12MOL0     H 1599   3.282   1.571   4.718  0.1563 -0.9084 -1.2029
   12MOL0     H 1600   3.380   1.460   4.818 -0.3218  0.6068  1.5987
   12MOL0     H 1601   3.311   1.366   4.609  0.4373  0.7294  0.3705
   12MOL0     H 1602   3.136   1.395   4.650  0.3605 -0.5039 -0.5969
   12MOL0     H 1603   3.311   1.189   4.801 -1.1492 -1.4267  2.5091
   12MOL0     H 1604   3.142   1.239   4.841  0.1772  0.7594 -0.4521
   12MOL0     H 1605   2.958   1.227   4.648 -1.0823 -1.0602  2.2656
   12MOL0     H 1606   2.809   1.004   4.502 -0.1923  0.5616  0.5732
   12MOL0     H 1607   2.943   0.954   4.397 -0.4915 -0.3612 -0.6338
   12MOL0     H 1608   2.779   1.189   4.368 -0.0494  2.8035 -2.1150
   12MOL0     H 1609   2.935   1.257   4.416 -0.3433 -0.3901  0.8693
   12MOL0     H 1610   3.045   1.132   4.241  0.3682  0.1090 -2.4987
   12MOL0     H 1611   2.885   1.048   4.200 -1.6311  0.8036 -0.6791
   12MOL0     H 1612   2.797   1.279   4.133 -0.0158  0.9532  3.7804
   12MOL0     H 1613   2.952   1.342   4.143  0.6129 -0.9018 -0.9420
   12MOL0     H 1614   3.118   1.376   3.997 -0.9991 -0.7165 -0.1902
   12MOL0     H 1615   3.262   1.515   3.901  0.1797  1.2186 -0.5067
   12MOL0     H 1616   3.239   1.592   3.750  2.5768  0.2184 -1.8532
   12MOL0     H 1617   3.338   1.445   3.759 -1.3395 -1.8504  0.4863
   12MOL0     H 1618   3.448   1.541   3.389 -1.0642 -2.2888  2.5832
   12MOL0     H 1619   3.456   1.726   3.209 -0.9232 -0.8958 -3.5311
   12MOL0     H 1620   3.400   1.823   2.962 -1.6781  1.1421  0.8728
   12MOL0     H 1621   3.353   1.651   2.963 -0.8520  0.2002 -0.2834
   12MOL0     H 1622   3.294   1.720   2.737  0.1967 -0.8150  0.5084
   12MOL0     H 1623   3.153   1.713   2.828 -2.4339  3.4943  0.3173
   12MOL0     H 1624   3.318   1.966   2.769  0.6667 -0.8808 -2.4701
   12MOL0     H 1625   3.173   1.966   2.866 -0.5174 -3.0045  1.5930
   12MOL0     H 1626   3.071   1.862   2.641 -1.8716  1.9626 -1.6424
   12MOL0     H 1627   3.220   1.885   2.565 -1.4982  0.4512 -1.1907
   12MOL0     H 1628   3.014   2.099   2.669  0.3667 -2.9937  0.3860
   12MOL0     H 1629   3.172   2.158   2.643 -0.7547  1.0197 -0.0425
   12MOL0     H 1630   3.166   2.113   2.415 -0.3918  1.3743 -0.2731
   12MOL0     H 1631   3.005   2.171   2.452  1.8997  0.8973 -2.3329
   12MOL0     H 1632   2.913   1.936   2.448 -0.8496 -4.0897 -0.6162
   12MOL0     H 1633   3.076   1.896   2.382  0.9327  2.2943  0.0619
   12MOL0     H 1634   2.925   1.925   2.211 -1.4553 -0.3361  2.8877
   12MOL0     H 1635   3.055   2.042   2.193 -0.9634  1.0732 -0.0475
   12MOL0     H 1636   3.026   1.730   3.188 -1.3713 -0.6803  1.6111
   12MOL0     H 1637   3.027   1.577   3.382  0.1459 -0.8742 -0.1128
   12MOL0     H 1638   2.953   1.202   3.568  2.6555  0.6996 -1.8024
   12MOL0     H 1639   2.870   1.114   3.768  0.3609 -0.4265  0.8224
   12MOL0     H 1640   3.346   2.230   5.318 -0.4560 -2.0320 -2.6234
   12MOL0     H 1641   3.502   2.433   5.342  0.2474  0.3247  0.7006
   12MOL0     H 1642   4.020   2.585   4.986 -1.9452  2.0838 -1.2780
   12MOL0     H 1643   4.189   2.750   5.035  0.3697  1.0987  2.0881
   12MOL0     H 1644   4.100   3.071   5.307  0.4219  1.2863 -2.7911
   12MOL0     H 1645   4.202   2.978   5.427 -1.6162 -4.5276 -1.8255
   12MOL0     H 1646   4.408   3.071   5.290  0.9906 -0.1243  0.6572
   12MOL0     H 1647   4.307   3.194   5.372  0.2335 -1.5776  0.0437
   12MOL0     H 1648   4.310   3.119   5.068 -1.4180 -0.4744  0.4199
   12MOL0     H 1649   4.185   3.218   5.149 -1.7717 -2.9046  3.7620
   12MOL0     H 1650   4.376   3.372   5.215 -0.4351 -2.6559  1.9172
   12MOL0     H 1651   4.332   3.369   5.033 -0.0795  0.1187  0.2003
   12MOL0     H 1652   4.745   3.280   5.058  0.0213 -3.4400  3.6218
   12MOL0     H 1653   3.989   2.841   5.409  1.1608 -1.1491  0.7034
   12MOL0     H 1654   3.759   2.664   5.448 -3.8798 -1.9334 -0.9817
   12MOL0     H 1655   3.721   2.814   5.386  2.3962  1.6183 -1.3401
   12MOL0     H 1656   3.656   2.686   5.304 -1.1934 -1.7340  4.4435
   13MOL0     O 1657   3.522  10.492   8.820 -0.2642  0.4023  0.1104
   13MOL0     C 1658   3.572  10.515   8.925 -0.7813 -0.2443 -0.6456
   13MOL0     O 1659   3.689  10.467   8.965  0.5586 -0.4299 -0.6814
   13MOL0     C 1660   3.755  10.372   8.879  0.2547 -0.3982  1.1539
   13MOL0     C 1661   3.852  10.421   8.801  0.3789  0.2171  0.1397
   13MOL0     C 1662   3.916  10.331   8.718  0.0187 -0.8635  0.3063
   13MOL0     C 1663   3.880  10.200   8.711  0.7750  0.8162  0.0865
   13MOL0     O 1664   3.962  10.137   8.615  0.3271  0.4981  0.3536
   13MOL0     C 1665   3.941  10.001   8.606 -0.0006  0.1210  0.7116
   13MOL0     C 1666   4.052   9.930   8.693 -0.3932  0.2855  0.5914
   13MOL0     C 1667   4.020   9.901   8.834 -0.1569 -0.4676  0.0019
   13MOL0     C 1668   4.121   9.809   8.897  0.4795  0.0784 -0.4169
   13MOL0     C 1669   4.093   9.778   9.043 -0.5386  1.2906  0.3760
   13MOL0     C 1670   4.215   9.693   9.103  0.0168 -0.2231 -0.4302
   13MOL0     C 1671   4.350   9.764   9.121  0.9772 -0.2181  0.1801
   13MOL0     C 1672   4.431   9.696   9.236 -0.0369  0.1917  0.5604
   13MOL0     N 1673   4.440   9.548   9.210  0.9065  0.2244 -0.4318
   13MOL0     C 1674   4.348   9.446   9.256 -0.5049 -0.0292 -0.2303
   13MOL0     C 1675   4.411   9.330   9.230 -0.8299  0.0088  0.0866
   13MOL0     C 1676   4.374   9.186   9.245 -0.1319 -0.9942  0.0734
   13MOL0     C 1677   4.377   9.123   9.103  0.4195 -0.3011 -0.5855
   13MOL0     C 1678   4.345   8.972   9.119  0.0891 -0.9615 -0.2027
   13MOL0     C 1679   4.462   8.890   9.174 -0.3367 -0.2022 -1.2990
   13MOL0     O 1680   4.459   8.910   9.317 -0.0712  0.1097 -0.3394
   13MOL0     C 1681   4.362   8.853   9.406  0.8620  0.0467  0.2085
   13MOL0     C 1682   4.262   8.773   9.354  0.8810  0.2268  0.3089
   13MOL0     C 1683   4.152   8.720   9.436  0.0147  0.1997  0.5722
   13MOL0     C 1684   4.053   8.635   9.360  0.0367 -0.1043 -0.1046
   13MOL0     C 1685   4.135   8.757   9.572  0.0756  0.3874 -0.6821
   13MOL0     C 1686   4.022   8.720   9.668 -1.3076 -0.1315 -0.0192
   13MOL0     O 1687   4.035   8.770   9.791 -0.1683 -0.9976 -0.1594
   13MOL0     C 1688   3.947   8.731   9.889 -0.1210 -0.6559  0.1085
   13MOL0     C 1689   3.954   8.595   9.932  0.1176  0.0887 -0.5227
   13MOL0     C 1690   3.881   8.575  10.056  1.2175  0.1379 -0.2359
   13MOL0     C 1691   3.817   8.681  10.124 -0.7794  1.0591 -0.0228
   13MOL0     O 1692   3.752   8.650  10.234 -0.2234 -1.6655 -0.6200
   13MOL0     C 1693   3.835   8.694  10.340  0.7655  0.6195  0.5274
   13MOL0     C 1694   3.811   8.613  10.462  0.6050 -0.4149  0.5340
   13MOL0     C 1695   3.901   8.640  10.579  0.7010  0.4339  0.3099
   13MOL0     C 1696   4.055   8.615  10.560  1.0772 -1.2791  0.0121
   13MOL0     C 1697   4.136   8.618  10.691 -0.4722 -0.7565  0.5053
   13MOL0     C 1698   4.290   8.596  10.658 -0.4282  0.2750 -0.1417
   13MOL0     C 1699   4.379   8.631  10.769 -1.1733  0.2509  0.2057
   13MOL0     C 1700   4.526   8.584  10.778 -1.0678  0.7895 -0.2092
   13MOL0    Cl 1701   4.629   8.643  10.644  0.5096  0.0293 -0.0027
   13MOL0     C 1702   3.815   8.817  10.079 -0.6617 -0.1724 -0.4957
   13MOL0     C 1703   3.885   8.837   9.959 -0.4226  0.2146 -0.5789
   13MOL0     O 1704   3.933   8.639   9.636 -0.8827 -0.0462  0.2720
   13MOL0     C 1705   4.238   8.842   9.615 -0.3681  0.1969 -0.0738
   13MOL0     C 1706   4.346   8.896   9.538  0.8922 -0.5881 -0.1628
   13MOL0     N 1707   4.530   9.371   9.168  0.3092  0.7226  0.5941
   13MOL0     N 1708   4.545   9.492   9.157  0.9466  0.3354 -0.1839
   13MOL0     C 1709   3.785  10.145   8.800 -0.5695  0.5085  0.2030
   13MOL0     C 1710   3.721  10.236   8.881 -0.5864 -0.3828 -1.0845
   13MOL0     C 1711   3.500  10.631   8.993 -0.4368 -0.5484  0.2447
   13MOL0     C 1712   3.442  10.735   8.901 -0.1649  0.5160 -0.7657
   13MOL0     C 1713   3.373  10.843   8.946  0.5446 -0.2479  0.2729
   13MOL0     C 1714   3.374  10.863   9.084  0.2882  0.4888  0.5211
   13MOL0     O 1715   3.298  10.962   9.144  0.5967  0.1436 -0.6080
   13MOL0     C 1716   3.209  11.036   9.061  1.0655  0.2705 -0.1104
   13MOL0     C 1717   3.107  11.117   9.139  1.3676  0.2017  0.0710
   13MOL0     C 1718   3.044  11.027   9.255 -0.3194 -0.6183  0.0413
   13MOL0     C 1719   2.965  11.105   9.359 -0.1389 -0.5925  0.0602
   13MOL0     C 1720   3.043  11.206   9.429  0.4822 -0.2022 -0.1724
   13MOL0     C 1721   3.119  11.290   9.471  0.3188  0.1882  0.9503
   13MOL0     C 1722   3.431  10.766   9.175  0.8991  0.1548  0.2673
   13MOL0     C 1723   3.493  10.648   9.135  0.1970 -0.4441  0.2295
   13MOL0     C 1724   3.555  10.558   9.231 -0.6033  0.5636 -0.1178
   13MOL0     H 1725   3.872  10.527   8.812  4.4032 -0.3601  0.1816
   13MOL0     H 1726   3.990  10.369   8.649 -0.8250 -1.0164 -0.7017
   13MOL0     H 1727   3.968   9.981   8.502 -2.4804  0.0347  0.0267
   13MOL0     H 1728   3.838   9.969   8.624 -0.0120  0.9424  2.2444
   13MOL0     H 1729   4.048   9.833   8.643 -1.8356  2.1155 -3.2941
   13MOL0     H 1730   4.155   9.965   8.680  0.7780 -1.4117  4.1662
   13MOL0     H 1731   4.024  10.000   8.881 -2.9566 -0.0396 -0.4730
   13MOL0     H 1732   3.918   9.865   8.852 -1.4798  3.1461  0.7062
   13MOL0     H 1733   4.138   9.713   8.846 -2.4963 -0.6711 -0.1838
   13MOL0     H 1734   4.215   9.864   8.897  0.6508  0.0592  3.2764
   13MOL0     H 1735   4.004   9.715   9.045  1.1536 -1.4951 -2.3068
   13MOL0     H 1736   4.070   9.867   9.103  2.8450  1.2665  1.9389
   13MOL0     H 1737   4.179   9.656   9.199  1.6616  0.9585  0.6833
   13MOL0     H 1738   4.234   9.607   9.037 -0.1280  1.5844 -3.0031
   13MOL0     H 1739   4.340   9.873   9.123  2.8243 -0.0272  1.6650
   13MOL0     H 1740   4.404   9.754   9.026 -0.0922  0.3251 -0.4944
   13MOL0     H 1741   4.535   9.729   9.231 -0.0292  0.1839  0.6615
   13MOL0     H 1742   4.395   9.706   9.339  2.6397  3.0633  1.3741
   13MOL0     H 1743   4.251   9.448   9.303 -1.4544 -0.7729 -2.0371
   13MOL0     H 1744   4.277   9.201   9.292 -1.4101  3.8415 -3.3265
   13MOL0     H 1745   4.455   9.147   9.308  0.3631 -0.3026 -0.1200
   13MOL0     H 1746   4.299   9.175   9.046  1.9089 -2.5823 -5.1268
   13MOL0     H 1747   4.470   9.135   9.048 -0.5426 -1.0928 -2.4874
   13MOL0     H 1748   4.253   8.965   9.178  0.8444 -2.3695  0.8568
   13MOL0     H 1749   4.334   8.935   9.017  0.8961 -0.0705 -0.6217
   13MOL0     H 1750   4.446   8.785   9.150  0.6387 -0.2970 -1.6050
   13MOL0     H 1751   4.554   8.921   9.123  0.4786  1.3272  0.9176
   13MOL0     H 1752   4.250   8.749   9.248 -3.0676  1.7383  0.2234
   13MOL0     H 1753   4.014   8.557   9.425 -1.1366 -0.4202 -1.1572
   13MOL0     H 1754   4.096   8.587   9.271 -2.1128  1.8210 -2.3229
   13MOL0     H 1755   3.984   8.705   9.312 -0.9766  0.1263  1.6123
   13MOL0     H 1756   4.014   8.521   9.881  1.1139 -0.6268  1.5645
   13MOL0     H 1757   3.869   8.479  10.104  0.0502 -0.6494 -1.9891
   13MOL0     H 1758   3.941   8.680  10.322  1.0309 -1.5422  2.9963
   13MOL0     H 1759   3.803   8.793  10.374 -3.4152 -0.4716  0.4309
   13MOL0     H 1760   3.705   8.623  10.489 -0.7575 -1.5222 -3.7131
   13MOL0     H 1761   3.821   8.505  10.448 -1.8538 -0.8106  1.3214
   13MOL0     H 1762   3.860   8.580  10.661  1.0322 -2.3495 -1.4306
   13MOL0     H 1763   3.896   8.745  10.609  3.0903  0.2859  1.4778
   13MOL0     H 1764   4.096   8.689  10.491  0.8254 -0.7235  0.4481
   13MOL0     H 1765   4.060   8.520  10.506  3.3582 -0.7921 -0.7498
   13MOL0     H 1766   4.121   8.719  10.731  1.2047 -0.6782  1.0269
   13MOL0     H 1767   4.090   8.544  10.757 -4.7656  1.6357  0.5929
   13MOL0     H 1768   4.322   8.650  10.568 -1.0702 -1.2195 -1.3016
   13MOL0     H 1769   4.300   8.488  10.644  3.8786 -0.1694  3.8564
   13MOL0     H 1770   4.322   8.591  10.854 -0.6147 -1.8455 -0.3310
   13MOL0     H 1771   4.392   8.739  10.771 -1.5242  0.2962  0.2155
   13MOL0     H 1772   4.536   8.476  10.772  0.3988  0.9877 -2.2411
   13MOL0     H 1773   4.564   8.621  10.874  2.7028  3.1271 -2.3716
   13MOL0     H 1774   3.767   8.895  10.137 -0.5296  0.5868 -1.4003
   13MOL0     H 1775   3.897   8.937   9.917 -2.2583  0.2870 -1.0462
   13MOL0     H 1776   4.227   8.868   9.720 -1.7024  0.7367 -0.3269
   13MOL0     H 1777   4.428   8.948   9.585  1.6842 -2.5810  0.7823
   13MOL0     H 1778   3.759  10.040   8.804  0.6265  0.1981  0.1765
   13MOL0     H 1779   3.645  10.206   8.953  0.1148 -0.4088 -0.3372
   13MOL0     H 1780   3.470  10.707   8.800  1.1727 -0.0909 -0.2494
   13MOL0     H 1781   3.339  10.914   8.871  0.5355 -1.7527 -1.2025
   13MOL0     H 1782   3.275  11.103   9.005  1.7193 -0.9774 -0.8958
   13MOL0     H 1783   3.159  10.973   8.987  1.9186 -0.4123 -0.1172
   13MOL0     H 1784   3.043  11.171   9.069  1.4911  2.5627  1.6528
   13MOL0     H 1785   3.161  11.200   9.184  0.1209  2.1090 -1.7711
   13MOL0     H 1786   2.985  10.943   9.217 -2.1436  0.6151  0.0049
   13MOL0     H 1787   3.125  10.998   9.323  3.0252  4.5419 -1.0676
   13MOL0     H 1788   2.942  11.036   9.441  2.2343 -1.6834 -0.0912
   13MOL0     H 1789   2.878  11.149   9.310 -0.6701 -0.2210  1.2893
   13MOL0     H 1790   3.181  11.354   9.530  2.1252 -0.2368 -0.3916
   13MOL0     H 1791   3.423  10.788   9.281  1.7353  1.6188  0.0616
   13MOL0     H 1792   3.585  10.461   9.192 -1.6558  0.0791  0.2378
   13MOL0     H 1793   3.651  10.598   9.264  0.2948 -1.8517  0.4122
   13MOL0     H 1794   3.485  10.549   9.314  0.3990  2.8210  1.0602
   14MOL0     O 1795   2.654   6.707  10.507  0.2406  0.0543  0.3058
   14MOL0     C 1796   2.609   6.688  10.395 -0.1732 -0.2863  0.3134
   14MOL0     O 1797   2.604   6.571  10.325  0.2487  0.0022 -0.3258
   14MOL0     C 1798   2.657   6.463  10.384 -0.4943  0.5925  0.6050
   14MOL0     C 1799   2.586   6.344  10.364  0.2599 -0.6644  0.2898
   14MOL0     C 1800   2.634   6.222  10.405 -0.4375  0.2538 -0.4569
   14MOL0     C 1801   2.757   6.217  10.460 -0.3507  1.0139  0.0595
   14MOL0     O 1802   2.825   6.100  10.491 -0.9413  0.2050  0.8059
   14MOL0     C 1803   2.774   6.033  10.612  0.9024  0.3780  0.0039
   14MOL0     C 1804   2.849   5.908  10.647 -0.8843  0.2207  0.7851
   14MOL0     C 1805   3.006   5.921  10.647 -0.5064 -0.0553  0.3217
   14MOL0     C 1806   3.059   5.975  10.780  0.3025 -0.8775 -0.4816
   14MOL0     C 1807   3.191   6.047  10.761 -0.6436  0.0253  0.5390
   14MOL0     C 1808   3.290   5.986  10.674 -0.5523  0.6483 -0.2057
   14MOL0     C 1809   3.324   5.839  10.708  0.0763  0.4787 -0.8079
   14MOL0     C 1810   3.394   5.744  10.605 -0.1495 -0.0833  0.1721
   14MOL0     N 1811   3.514   5.804  10.554  0.3025  0.0881  0.1704
   14MOL0     C 1812   3.518   5.892  10.445 -0.2140 -0.5288 -0.6607
   14MOL0     C 1813   3.651   5.914  10.418  0.3911 -0.9103  0.2905
   14MOL0     C 1814   3.713   6.003  10.319  0.8412  0.3132  0.0945
   14MOL0     C 1815   3.688   6.151  10.357 -0.0096  0.4982  0.2858
   14MOL0     C 1816   3.545   6.194  10.339  0.7358 -0.2678 -0.4873
   14MOL0     C 1817   3.506   6.318  10.253  0.5165  0.9521  0.1198
   14MOL0     O 1818   3.362   6.322  10.238 -0.3660  0.2923  0.3736
   14MOL0     C 1819   3.301   6.445  10.196  0.7480  0.7222 -0.6358
   14MOL0     C 1820   3.367   6.543  10.132  0.0189 -0.1463  0.7257
   14MOL0     C 1821   3.309   6.671  10.114  0.5247  0.2910 -0.1423
   14MOL0     C 1822   3.387   6.777  10.050 -0.4022 -0.8775  0.7162
   14MOL0     C 1823   3.181   6.695  10.148  0.2935 -0.0627 -1.1468
   14MOL0     C 1824   3.117   6.824  10.147 -0.9877 -0.4485 -0.2737
   14MOL0     O 1825   3.044   6.857  10.262  0.6693  0.8967 -0.1080
   14MOL0     C 1826   2.976   6.970  10.295 -0.1069 -0.8950  0.6371
   14MOL0     C 1827   2.957   7.082  10.213  0.1303  0.1496 -0.6072
   14MOL0     C 1828   2.870   7.181  10.245 -1.1688  0.3562 -0.0865
   14MOL0     C 1829   2.789   7.171  10.359 -0.3634  0.5895 -0.3739
   14MOL0     O 1830   2.697   7.275  10.374  0.5229 -0.6531  0.9814
   14MOL0     C 1831   2.739   7.379  10.455 -0.7779 -0.1996 -0.4806
   14MOL0     C 1832   2.720   7.329  10.602 -0.0779  0.0974  0.3670
   14MOL0     C 1833   2.585   7.280  10.646  0.2154 -0.9213 -0.1238
   14MOL0     C 1834   2.496   7.407  10.669  0.6946 -0.3986 -0.2602
   14MOL0     C 1835   2.344   7.389  10.657 -0.7887 -0.2277 -0.2048
   14MOL0     C 1836   2.288   7.297  10.773  0.7994  0.8206  0.2446
   14MOL0     C 1837   2.153   7.220  10.742  0.2945 -1.0698 -1.0108
   14MOL0     C 1838   2.152   7.081  10.814  0.3312 -0.7305  0.0785
   14MOL0    Cl 1839   2.278   6.983  10.732 -0.0757 -0.8022 -0.6442
   14MOL0     C 1840   2.792   7.053  10.437  1.1014 -0.9453 -0.0655
   14MOL0     C 1841   2.890   6.953  10.407 -0.2344  0.1071  0.6619
   14MOL0     O 1842   3.146   6.908  10.063 -0.0842  0.0094  0.6491
   14MOL0     C 1843   3.109   6.589  10.217 -0.5008  0.5224  0.8676
   14MOL0     C 1844   3.169   6.467  10.237  0.7992  0.4524  0.0392
   14MOL0     N 1845   3.727   5.847  10.511  0.5299  0.5745  0.1510
   14MOL0     N 1846   3.647   5.784  10.592 -0.5669 -0.4710  0.8810
   14MOL0     C 1847   2.837   6.332  10.490  0.6353 -0.5524  0.5582
   14MOL0     C 1848   2.786   6.457  10.436 -0.5125 -0.1349 -0.4839
   14MOL0     C 1849   2.534   6.812  10.342 -0.4128  1.1755  0.3654
   14MOL0     C 1850   2.448   6.880  10.427 -0.1822  0.5398  0.2824
   14MOL0     C 1851   2.379   6.987  10.382 -0.1985  1.4817  1.3263
   14MOL0     C 1852   2.414   7.044  10.257 -0.9242 -1.2062  0.2132
   14MOL0     O 1853   2.351   7.162  10.232  0.6063 -0.3864  0.0227
   14MOL0     C 1854   2.419   7.269  10.154  0.3333  0.9674 -0.5438
   14MOL0     C 1855   2.333   7.400  10.139  0.3830  0.2019  0.6954
   14MOL0     C 1856   2.323   7.481  10.269 -0.1188 -0.8295 -0.2959
   14MOL0     C 1857   2.235   7.603  10.239 -0.5862 -0.8114  0.3278
   14MOL0     C 1858   2.287   7.707  10.148 -0.1524 -0.8504 -0.7793
   14MOL0     C 1859   2.345   7.870  10.053  0.1139  0.6331  0.0302
   14MOL0     C 1860   2.507   6.977  10.182 -0.5175  1.0408  0.4061
   14MOL0     C 1861   2.570   6.861  10.215  0.1855  0.4738  0.3400
   14MOL0     C 1862   2.657   6.781  10.123 -0.5096 -0.2253 -0.4862
   14MOL0     H 1863   2.486   6.357  10.325  0.8166  2.2835 -0.3657
   14MOL0     H 1864   2.559   6.144  10.414  0.6018 -0.6883  0.1781
   14MOL0     H 1865   2.670   6.002  10.600 -0.2694  4.0001 -0.3473
   14MOL0     H 1866   2.800   6.098  10.697  2.4867  0.8257 -0.7897
   14MOL0     H 1867   2.813   5.872  10.744 -3.3575 -1.0301 -0.5178
   14MOL0     H 1868   2.820   5.835  10.571 -1.1468  1.1638 -0.0473
   14MOL0     H 1869   3.044   5.820  10.629  1.9821  0.7759  0.5766
   14MOL0     H 1870   3.036   5.983  10.562  0.1529  0.2597  0.7735
   14MOL0     H 1871   2.988   6.039  10.834  2.3164  0.2128  1.0007
   14MOL0     H 1872   3.084   5.899  10.855  0.4707  0.2668  0.6577
   14MOL0     H 1873   3.240   6.076  10.854 -2.5048  4.5687  0.3686
   14MOL0     H 1874   3.173   6.137  10.702 -0.6046  0.7899  1.6487
   14MOL0     H 1875   3.262   5.967  10.570  1.1260 -4.3413 -0.0079
   14MOL0     H 1876   3.379   6.050  10.679 -0.9430  1.2319 -0.5698
   14MOL0     H 1877   3.235   5.793  10.752  0.7837  0.2813  0.4645
   14MOL0     H 1878   3.390   5.848  10.794  0.0397  3.1055 -0.9863
   14MOL0     H 1879   3.424   5.652  10.656 -0.4116  1.3640  3.1552
   14MOL0     H 1880   3.320   5.728  10.526 -0.4473 -1.8540  0.7572
   14MOL0     H 1881   3.432   5.928  10.390 -0.1332  0.7325  0.0047
   14MOL0     H 1882   3.673   5.992  10.218  1.7600  1.6186 -0.4479
   14MOL0     H 1883   3.821   5.990  10.311  0.8107  0.1151  0.0074
   14MOL0     H 1884   3.718   6.173  10.460 -0.4525  1.5111  0.2134
   14MOL0     H 1885   3.756   6.211  10.297 -1.7819  1.4137 -0.9014
   14MOL0     H 1886   3.483   6.118  10.291  0.3840  1.1870 -2.4584
   14MOL0     H 1887   3.499   6.225  10.434 -0.4318  1.1983 -1.4901
   14MOL0     H 1888   3.556   6.407  10.292  4.4787 -1.1461  0.4203
   14MOL0     H 1889   3.546   6.293  10.154 -3.0027 -0.3474 -1.1122
   14MOL0     H 1890   3.469   6.520  10.103 -1.0980 -2.8308 -1.5630
   14MOL0     H 1891   3.363   6.791   9.945 -1.8661  1.3095  1.2884
   14MOL0     H 1892   3.493   6.747  10.047 -0.0404  0.3828 -1.8375
   14MOL0     H 1893   3.391   6.876  10.095 -0.4475 -0.2253 -0.6713
   14MOL0     H 1894   3.014   7.094  10.121 -1.0001  2.3093 -1.0835
   14MOL0     H 1895   2.873   7.269  10.181 -2.0218  1.0620  0.7980
   14MOL0     H 1896   2.845   7.394  10.431 -1.0906  0.5070 -1.4729
   14MOL0     H 1897   2.687   7.475  10.445 -2.4859 -1.0532 -0.2013
   14MOL0     H 1898   2.797   7.252  10.614  0.4816 -0.1576 -3.4515
   14MOL0     H 1899   2.742   7.419  10.659 -2.8782 -0.4933  2.6122
   14MOL0     H 1900   2.599   7.229  10.743  0.3644  0.8173  0.8058
   14MOL0     H 1901   2.536   7.208  10.580 -1.8097  0.6803 -0.4409
   14MOL0     H 1902   2.518   7.487  10.598 -1.2497  0.2498 -0.1993
   14MOL0     H 1903   2.514   7.435  10.774 -2.0100 -2.4419  0.8588
   14MOL0     H 1904   2.293   7.485  10.667 -0.3426  0.0658 -0.7362
   14MOL0     H 1905   2.315   7.352  10.558  0.9269 -3.7848  0.4613
   14MOL0     H 1906   2.268   7.360  10.860  0.0868 -0.4781  1.0457
   14MOL0     H 1907   2.360   7.219  10.800  1.3269  2.4281  4.0963
   14MOL0     H 1908   2.142   7.197  10.635 -0.7929 -5.1722 -0.2003
   14MOL0     H 1909   2.071   7.279  10.784  2.4742 -0.1995  2.4070
   14MOL0     H 1910   2.056   7.028  10.813 -0.5064  0.6752  1.3796
   14MOL0     H 1911   2.171   7.096  10.921  0.8932 -2.1247  0.1926
   14MOL0     H 1912   2.736   7.041  10.529  2.8353 -1.1221  0.9870
   14MOL0     H 1913   2.898   6.856  10.455 -0.9115 -1.4803 -2.1805
   14MOL0     H 1914   3.008   6.600  10.255  0.0367 -0.2095  2.6281
   14MOL0     H 1915   3.112   6.383  10.278  1.1609 -0.0026 -0.3790
   14MOL0     H 1916   2.936   6.321  10.532  0.4653  1.0387  1.4276
   14MOL0     H 1917   2.853   6.542  10.436  1.3422 -1.5271 -1.9584
   14MOL0     H 1918   2.419   6.839  10.523  1.9836 -1.4995  0.1504
   14MOL0     H 1919   2.296   7.036  10.432 -4.4648 -0.0628 -3.2962
   14MOL0     H 1920   2.522   7.284  10.187  0.0625 -1.1533  1.5030
   14MOL0     H 1921   2.428   7.233  10.051  1.3419  0.3819 -0.2659
   14MOL0     H 1922   2.238   7.363  10.101  2.2912 -1.7681 -2.6925
   14MOL0     H 1923   2.380   7.460  10.061  0.9514 -2.0126 -0.7681
   14MOL0     H 1924   2.281   7.419  10.349 -1.0556  0.6300  0.3893
   14MOL0     H 1925   2.424   7.517  10.294 -1.0841  1.1725  0.9908
   14MOL0     H 1926   2.226   7.662  10.332  3.4079  3.6436 -1.6919
   14MOL0     H 1927   2.131   7.582  10.210 -1.9634  1.8616  2.7222
   14MOL0     H 1928   2.372   7.962  10.007 -1.1004 -0.3312 -2.8212
   14MOL0     H 1929   2.529   7.020  10.085 -0.4556 -2.1662 -1.1358
   14MOL0     H 1930   2.748   6.753  10.178 -1.7644  0.1510  1.9152
   14MOL0     H 1931   2.609   6.696  10.074 -2.5576 -0.3166  1.5394
   14MOL0     H 1932   2.679   6.851  10.042  2.2038  2.6999  2.4600
   15MOL0     O 1933   3.853   3.587   4.324 -0.1174  0.0639 -0.5274
   15MOL0     C 1934   3.968   3.598   4.347 -1.2397 -0.5532 -0.4841
   15MOL0     O 1935   4.073   3.535   4.284 -0.3980 -0.1673 -0.2247
   15MOL0     C 1936   4.046   3.437   4.195  0.1059 -0.5434  0.1678
   15MOL0     C 1937   4.001   3.318   4.230 -0.8381 -0.3012  0.9863
   15MOL0     C 1938   3.993   3.211   4.134 -0.1730  0.3941 -0.0095
   15MOL0     C 1939   4.033   3.235   4.004 -0.7295  0.3101 -0.0758
   15MOL0     O 1940   4.039   3.134   3.918 -0.4936 -0.2492  0.5532
   15MOL0     C 1941   4.145   3.111   3.827 -0.6161  0.3049  0.3403
   15MOL0     C 1942   4.274   3.097   3.907 -0.0436 -0.0779  0.4244
   15MOL0     C 1943   4.381   3.061   3.802  1.0843 -0.7378 -0.7536
   15MOL0     C 1944   4.512   3.033   3.868  0.9249 -0.2155  0.5367
   15MOL0     C 1945   4.624   3.053   3.775 -0.5215  0.1952 -0.3977
   15MOL0     C 1946   4.671   2.943   3.693 -0.5406  0.8149  0.1187
   15MOL0     C 1947   4.733   2.837   3.774 -1.0971  0.9846  0.5546
   15MOL0     C 1948   4.770   2.720   3.685 -0.0632 -0.1625  0.3428
   15MOL0     N 1949   4.800   2.599   3.761  1.1361 -0.4565 -0.2769
   15MOL0     C 1950   4.926   2.573   3.825  0.5658  0.1535  0.3677
   15MOL0     C 1951   4.929   2.436   3.854  0.7816 -0.4691  0.8883
   15MOL0     C 1952   5.024   2.370   3.946 -0.5455  0.8131  0.5985
   15MOL0     C 1953   5.170   2.426   3.935 -0.4591  0.3298 -0.2394
   15MOL0     C 1954   5.265   2.316   4.000  0.5199 -1.0713  0.5157
   15MOL0     C 1955   5.305   2.201   3.916 -0.3623  0.7126  0.1574
   15MOL0     O 1956   5.411   2.124   3.978  0.1968  0.1253  0.2005
   15MOL0     C 1957   5.425   1.993   3.941 -1.2614  0.5972 -0.4163
   15MOL0     C 1958   5.350   1.916   3.850  0.1803 -0.1101 -0.7361
   15MOL0     C 1959   5.375   1.782   3.828  0.1470 -0.5043  0.6971
   15MOL0     C 1960   5.302   1.719   3.705 -0.5824 -0.1195 -0.4008
   15MOL0     C 1961   5.474   1.720   3.909  0.8573 -1.2323  0.3296
   15MOL0     C 1962   5.488   1.567   3.911  0.6910 -0.2769 -0.5716
   15MOL0     O 1963   5.570   1.523   4.010 -0.1589  0.1886 -0.3192
   15MOL0     C 1964   5.625   1.391   4.002 -0.4381 -0.0305 -1.5715
   15MOL0     C 1965   5.762   1.363   4.014 -0.1790 -0.3057  0.9692
   15MOL0     C 1966   5.814   1.236   4.013 -0.3721  1.3133 -0.4966
   15MOL0     C 1967   5.724   1.125   4.009 -0.0611  0.4122  0.2162
   15MOL0     O 1968   5.769   0.995   3.986  0.1985 -0.0746 -0.2670
   15MOL0     C 1969   5.897   0.951   4.041 -0.3783  0.0875  0.4639
   15MOL0     C 1970   5.983   0.873   3.938 -0.6596  0.1655 -0.4592
   15MOL0     C 1971   5.923   0.749   3.875  0.3609  0.1962 -0.0407
   15MOL0     C 1972   6.008   0.692   3.759  0.6206 -0.4034  0.5213
   15MOL0     C 1973   5.944   0.573   3.685  0.6167 -0.4303  1.1236
   15MOL0     C 1974   6.007   0.549   3.543 -0.1176  0.3952  0.0256
   15MOL0     C 1975   5.970   0.405   3.497 -0.3895 -1.2242 -0.1272
   15MOL0     C 1976   5.982   0.388   3.344  0.2100  0.3068 -0.3327
   15MOL0    Cl 1977   6.164   0.373   3.302 -0.0658 -0.3527  0.5571
   15MOL0     C 1978   5.588   1.146   4.013  0.2640  0.1420 -0.4477
   15MOL0     C 1979   5.541   1.279   4.013 -0.4555 -0.4054  0.4879
   15MOL0     O 1980   5.444   1.506   3.820  0.2613  0.3604  0.1547
   15MOL0     C 1981   5.561   1.789   3.992  0.9387 -0.7034  0.0785
   15MOL0     C 1982   5.530   1.925   4.012  0.2570 -1.3456  0.1869
   15MOL0     N 1983   4.814   2.386   3.798  0.0242  0.3666  0.6013
   15MOL0     N 1984   4.745   2.475   3.740 -0.1350 -0.4928  0.0918
   15MOL0     C 1985   4.076   3.367   3.964 -0.8245  0.3445 -0.4854
   15MOL0     C 1986   4.082   3.469   4.059  0.2032  1.1813 -0.4466
   15MOL0     C 1987   4.008   3.695   4.452  0.7444  0.1036  0.1916
   15MOL0     C 1988   4.041   3.827   4.410  0.0989  0.3036 -0.8600
   15MOL0     C 1989   4.058   3.930   4.504  0.0890 -0.1243  0.3325
   15MOL0     C 1990   4.048   3.897   4.643 -0.1057  1.1639  0.3044
   15MOL0     O 1991   4.072   3.977   4.752  0.1202  0.1345  0.2734
   15MOL0     C 1992   4.067   4.114   4.711 -0.6010 -0.1179 -0.5612
   15MOL0     C 1993   4.059   4.204   4.838  0.0078  0.7202  0.7553
   15MOL0     C 1994   3.927   4.171   4.909  0.5186 -0.0430  0.8756
   15MOL0     C 1995   3.931   4.231   5.048  0.3780 -0.0771 -0.0462
   15MOL0     C 1996   3.808   4.210   5.133 -1.0957  0.5101 -0.7021
   15MOL0     C 1997   3.708   4.210   5.196  0.6251  0.3988  0.5780
   15MOL0     C 1998   4.036   3.763   4.681  1.1697 -0.7840 -0.3454
   15MOL0     C 1999   4.019   3.663   4.589  0.0107  1.4279  0.3079
   15MOL0     C 2000   3.984   3.525   4.636 -0.0657 -0.0436 -0.0886
   15MOL0     H 2001   3.981   3.313   4.337 -1.0835  2.0588  1.1118
   15MOL0     H 2002   3.964   3.111   4.164 -2.4203  1.3894  1.3899
   15MOL0     H 2003   4.139   3.193   3.756  0.4031 -2.6709 -3.5308
   15MOL0     H 2004   4.121   3.013   3.785  2.9672 -1.9880  2.9476
   15MOL0     H 2005   4.299   3.194   3.952 -1.0842  0.1044  0.6526
   15MOL0     H 2006   4.266   3.027   3.990 -2.7673  2.7103  2.7752
   15MOL0     H 2007   4.342   2.979   3.740  0.8267  0.2680 -1.9479
   15MOL0     H 2008   4.406   3.145   3.737 -0.4090 -0.2398 -0.7097
   15MOL0     H 2009   4.517   3.096   3.958 -0.6476 -2.6849  2.5165
   15MOL0     H 2010   4.515   2.930   3.903  2.6129 -0.1628  0.6049
   15MOL0     H 2011   4.698   3.067   3.854 -2.7387  1.1063  1.6246
   15MOL0     H 2012   4.614   3.147   3.721 -1.4479  1.7480  2.2661
   15MOL0     H 2013   4.588   2.909   3.631  0.5856  2.2150 -2.2984
   15MOL0     H 2014   4.755   2.973   3.631  1.0818 -2.9365  0.2492
   15MOL0     H 2015   4.676   2.804   3.861  0.7084  0.9933  1.8000
   15MOL0     H 2016   4.826   2.871   3.820 -1.2267  1.9656  0.1138
   15MOL0     H 2017   4.698   2.697   3.606  1.8108 -3.1976 -0.6589
   15MOL0     H 2018   4.861   2.748   3.632 -1.9037  0.0200 -3.0076
   15MOL0     H 2019   5.005   2.646   3.841  0.9565  0.2771 -1.8004
   15MOL0     H 2020   5.025   2.261   3.935 -2.8916  0.3563  3.5495
   15MOL0     H 2021   4.983   2.378   4.047 -2.0744  0.9665 -0.0107
   15MOL0     H 2022   5.205   2.442   3.832  0.5259 -2.2369 -0.3688
   15MOL0     H 2023   5.187   2.522   3.985  1.8179 -0.0677 -0.1388
   15MOL0     H 2024   5.359   2.373   4.004  1.0176 -1.5917 -2.0004
   15MOL0     H 2025   5.235   2.295   4.103 -0.9851  1.0765  0.5808
   15MOL0     H 2026   5.216   2.138   3.903 -0.3388  1.2528 -4.5686
   15MOL0     H 2027   5.331   2.247   3.820  4.0159  3.0401  2.1612
   15MOL0     H 2028   5.263   1.961   3.803  0.0193  0.0988 -0.2439
   15MOL0     H 2029   5.360   1.655   3.638 -2.9833 -0.9741 -1.7769
   15MOL0     H 2030   5.245   1.783   3.638 -2.2414 -2.5601 -1.4527
   15MOL0     H 2031   5.227   1.653   3.749  0.1222 -0.2467  0.6425
   15MOL0     H 2032   5.827   1.450   4.005 -0.1946 -0.4829 -3.6065
   15MOL0     H 2033   5.919   1.207   4.007 -0.6043  0.1963  0.4888
   15MOL0     H 2034   5.955   1.033   4.084 -1.2660  0.9100  0.1377
   15MOL0     H 2035   5.872   0.894   4.131  0.0715 -1.2869 -0.2501
   15MOL0     H 2036   6.010   0.936   3.852  0.0229 -1.7532 -1.7151
   15MOL0     H 2037   6.078   0.835   3.976 -0.3110  2.1410  0.8191
   15MOL0     H 2038   5.825   0.772   3.832  1.0677  1.5229 -1.0025
   15MOL0     H 2039   5.923   0.674   3.954  0.5179  1.3148  1.0545
   15MOL0     H 2040   6.104   0.657   3.800  0.2089  0.9267  2.8310
   15MOL0     H 2041   6.035   0.772   3.690  0.3690  1.0889  2.0711
   15MOL0     H 2042   5.944   0.490   3.757 -1.5900  0.1604  1.8894
   15MOL0     H 2043   5.840   0.598   3.659  0.5571  2.1218  3.3846
   15MOL0     H 2044   6.116   0.559   3.539 -0.1831  0.8936 -3.2061
   15MOL0     H 2045   5.964   0.613   3.465  0.2061  0.6486  0.0529
   15MOL0     H 2046   5.868   0.390   3.534 -1.3644  1.4010 -1.4623
   15MOL0     H 2047   6.028   0.328   3.549  0.5256 -0.7946 -0.4991
   15MOL0     H 2048   5.935   0.478   3.303 -0.0144  0.5317  0.4069
   15MOL0     H 2049   5.945   0.290   3.313 -1.6801  1.0236 -0.4859
   15MOL0     H 2050   5.522   1.060   4.023  1.1813 -0.6773 -1.1880
   15MOL0     H 2051   5.436   1.294   4.037 -0.3616  0.5632  0.2966
   15MOL0     H 2052   5.634   1.741   4.056 -0.3044  0.6260  2.6490
   15MOL0     H 2053   5.589   1.986   4.080  1.7151 -1.1867 -1.1622
   15MOL0     H 2054   4.108   3.376   3.861 -1.0835 -3.8488 -1.1162
   15MOL0     H 2055   4.118   3.565   4.023  2.8823  0.1304 -0.7901
   15MOL0     H 2056   4.043   3.851   4.304 -3.4480  0.9281 -0.8991
   15MOL0     H 2057   4.093   4.028   4.474  1.7061 -1.0615 -1.0054
   15MOL0     H 2058   4.152   4.150   4.652  1.4510 -0.8237  1.8049
   15MOL0     H 2059   3.983   4.125   4.642 -0.4076 -0.9577 -0.9394
   15MOL0     H 2060   4.081   4.307   4.809 -1.2868  0.3743 -1.6938
   15MOL0     H 2061   4.139   4.166   4.902  1.1471  0.6984 -0.6329
   15MOL0     H 2062   3.846   4.220   4.855 -1.4573 -2.3114  1.6195
   15MOL0     H 2063   3.910   4.063   4.916  1.8874 -0.5011 -1.7920
   15MOL0     H 2064   3.964   4.335   5.053  0.1663 -0.0366  0.4987
   15MOL0     H 2065   4.013   4.178   5.098 -0.1748 -0.1883  0.7435
   15MOL0     H 2066   3.610   4.208   5.239  0.9646 -0.8387  1.3425
   15MOL0     H 2067   4.039   3.757   4.789 -0.1827  0.5123 -0.2068
   15MOL0     H 2068   4.009   3.495   4.738  2.6043 -1.4776 -1.0627
   15MOL0     H 2069   3.877   3.511   4.616  0.7617 -3.9918 -3.0526
   15MOL0     H 2070   4.034   3.447   4.577  0.6651  1.2505 -1.2239
   16MOL0     O 2071   9.429   8.332   2.278 -0.1428 -0.0506 -0.8968
   16MOL0     C 2072   9.339   8.255   2.306  0.1335 -0.6463  0.1307
   16MOL0     O 2073   9.204   8.283   2.275 -0.4693  0.3692 -0.2687
   16MOL0     C 2074   9.166   8.378   2.182 -0.2568  0.7177 -0.0582
   16MOL0     C 2075   9.235   8.400   2.063  0.4903 -0.7057 -0.8948
   16MOL0     C 2076   9.190   8.492   1.967  0.2067  0.1052 -0.4373
   16MOL0     C 2077   9.081   8.566   1.991  0.2314 -0.2444 -0.1034
   16MOL0     O 2078   9.031   8.661   1.899  0.5199  0.3961  0.0142
   16MOL0     C 2079   9.011   8.619   1.764  0.5265  0.4950  0.5491
   16MOL0     C 2080   8.981   8.735   1.665  0.3748  0.0931 -0.6153
   16MOL0     C 2081   9.106   8.822   1.634 -0.2555 -0.7468 -0.4137
   16MOL0     C 2082   9.149   8.907   1.757 -0.4057 -0.3179 -0.7276
   16MOL0     C 2083   9.212   9.039   1.703  0.3206 -0.0500  0.5976
   16MOL0     C 2084   9.258   9.129   1.817  0.1339  0.7467  0.3573
   16MOL0     C 2085   9.347   9.252   1.774 -0.7597 -0.0523  0.0632
   16MOL0     C 2086   9.262   9.355   1.703  0.2857  0.4956 -1.3622
   16MOL0     N 2087   9.339   9.462   1.642  0.0892  0.0176  0.1635
   16MOL0     C 2088   9.299   9.596   1.637 -0.2235 -0.2790 -0.0291
   16MOL0     C 2089   9.399   9.653   1.558 -0.8925 -0.1377 -0.6367
   16MOL0     C 2090   9.412   9.798   1.535 -0.0949 -0.3889 -0.2312
   16MOL0     C 2091   9.545   9.837   1.596 -0.3919  0.5482 -1.1531
   16MOL0     C 2092   9.548   9.830   1.751 -1.5751 -0.0676  0.5510
   16MOL0     C 2093   9.680   9.912   1.797  0.0550  0.8365  0.0138
   16MOL0     O 2094   9.743   9.854   1.913 -0.4127 -0.2461 -0.9844
   16MOL0     C 2095   9.706   9.867   2.047  0.3399 -0.1778  0.4682
   16MOL0     C 2096   9.783   9.808   2.147 -0.3685 -0.5774 -0.2999
   16MOL0     C 2097   9.768   9.830   2.289 -0.1852  0.1450  0.3414
   16MOL0     C 2098   9.879   9.783   2.384  0.1870  0.0349  0.0363
   16MOL0     C 2099   9.676   9.925   2.324 -0.0599 -0.0838 -0.4277
   16MOL0     C 2100   9.674   9.982   2.468  0.4638  0.6278  0.8843
   16MOL0     O 2101   9.675   9.886   2.569  0.4763 -0.6837  0.1199
   16MOL0     C 2102   9.682   9.940   2.691  0.0569  0.5620  0.4244
   16MOL0     C 2103   9.796  10.021   2.713 -0.8851  0.6198 -0.6735
   16MOL0     C 2104   9.818  10.061   2.848 -0.5457 -0.1791  0.2627
   16MOL0     C 2105   9.724  10.033   2.948 -0.4128 -0.3375  1.3592
   16MOL0     O 2106   9.746  10.063   3.082  0.7212  0.2461  0.1830
   16MOL0     C 2107   9.868  10.125   3.119 -0.0834  0.2328  1.0699
   16MOL0     C 2108   9.854  10.146   3.269 -0.2954  0.3365 -0.9040
   16MOL0     C 2109   9.966  10.230   3.321 -0.5666  0.2507 -0.7334
   16MOL0     C 2110   9.955  10.248   3.473 -0.0842 -0.3340 -1.2846
   16MOL0     C 2111  10.071  10.323   3.539  0.4445  0.0975  0.2133
   16MOL0     C 2112  10.195  10.231   3.571 -0.0125 -0.4946  0.0496
   16MOL0     C 2113  10.302  10.307   3.650 -0.2784  0.8703 -0.2244
   16MOL0     C 2114  10.244  10.349   3.785 -0.0582  0.4825 -0.3380
   16MOL0    Cl 2115  10.142  10.226   3.873 -0.0030  0.3565 -0.3601
   16MOL0     C 2116   9.602   9.961   2.927  0.5678  0.0433 -0.4499
   16MOL0     C 2117   9.585   9.924   2.794  0.9936 -0.3827  0.2799
   16MOL0     O 2118   9.654  10.100   2.476  0.1032  0.6356  1.0133
   16MOL0     C 2119   9.587   9.983   2.225 -0.6564 -0.1551 -0.6865
   16MOL0     C 2120   9.602   9.957   2.092  0.5611  0.5216  0.1438
   16MOL0     N 2121   9.502   9.556   1.531  0.0294 -0.1592  0.6163
   16MOL0     N 2122   9.460   9.444   1.584  0.2599  0.3391  0.5616
   16MOL0     C 2123   9.007   8.537   2.109 -0.2375 -1.5099 -0.2534
   16MOL0     C 2124   9.047   8.442   2.203  0.4245  0.4140 -0.2400
   16MOL0     C 2125   9.376   8.129   2.376  0.3897 -0.3135  0.4112
   16MOL0     C 2126   9.267   8.039   2.405  0.4258  0.1096 -0.1135
   16MOL0     C 2127   9.287   7.916   2.472 -0.4442 -0.2302 -0.5414
   16MOL0     C 2128   9.421   7.882   2.505  0.3020  0.6928  0.3637
   16MOL0     O 2129   9.460   7.764   2.570 -0.9847 -0.3307  0.1885
   16MOL0     C 2130   9.369   7.654   2.598  0.3724 -0.4216  0.0771
   16MOL0     C 2131   9.386   7.544   2.503 -0.3848  0.3645  0.4011
   16MOL0     C 2132   9.307   7.418   2.527  0.0875 -0.1965 -1.3960
   16MOL0     C 2133   9.365   7.344   2.661 -0.8404 -0.0868  0.1187
   16MOL0     C 2134   9.302   7.216   2.668  0.2230 -0.8797  0.6324
   16MOL0     C 2135   9.257   7.104   2.685  0.2430 -0.3209 -0.3723
   16MOL0     C 2136   9.522   7.963   2.473  0.1683 -1.0177  0.5763
   16MOL0     C 2137   9.506   8.093   2.418  0.0529  0.9282  0.0233
   16MOL0     C 2138   9.631   8.176   2.400 -0.0250 -0.2347  0.7655
   16MOL0     H 2139   9.321   8.341   2.037  1.6347  0.8356 -0.7417
   16MOL0     H 2140   9.260   8.509   1.886  3.9895 -1.3796  2.2000
   16MOL0     H 2141   8.923   8.553   1.769  2.1723 -2.0144 -1.4027
   16MOL0     H 2142   9.096   8.561   1.728 -0.1307 -1.4906  2.0045
   16MOL0     H 2143   8.928   8.697   1.577 -2.9935 -1.5852  1.9250
   16MOL0     H 2144   8.901   8.795   1.710  0.6818  0.6048 -0.7411
   16MOL0     H 2145   9.188   8.760   1.597 -0.2435 -0.4647 -0.8637
   16MOL0     H 2146   9.071   8.897   1.562  0.3095 -0.8044 -0.7522
   16MOL0     H 2147   9.069   8.934   1.827  0.8943 -0.7959  1.0323
   16MOL0     H 2148   9.226   8.858   1.819  1.0973  1.9957 -0.6316
   16MOL0     H 2149   9.136   9.090   1.643  0.7520  1.6216  1.4195
   16MOL0     H 2150   9.295   9.029   1.632 -0.2122  0.5815 -0.1287
   16MOL0     H 2151   9.180   9.168   1.884  1.3987  3.1852  0.5401
   16MOL0     H 2152   9.332   9.071   1.873  2.0946  1.0685 -1.7386
   16MOL0     H 2153   9.436   9.227   1.717  0.6840  2.8406  0.8890
   16MOL0     H 2154   9.385   9.307   1.860 -2.1662  0.6280  0.2838
   16MOL0     H 2155   9.192   9.302   1.637  0.2399 -0.9265 -0.2241
   16MOL0     H 2156   9.190   9.394   1.775 -1.8214 -2.8822 -1.3803
   16MOL0     H 2157   9.214   9.635   1.693  0.7191  0.7922  0.6881
   16MOL0     H 2158   9.331   9.843   1.594  0.7725 -1.0902  1.5587
   16MOL0     H 2159   9.424   9.819   1.428  0.8852  2.6577  0.3847
   16MOL0     H 2160   9.625   9.775   1.555 -1.6472 -0.8217 -1.6410
   16MOL0     H 2161   9.562   9.940   1.566 -1.7802  1.3619  0.6464
   16MOL0     H 2162   9.461   9.882   1.790 -0.6106  1.6808  0.4999
   16MOL0     H 2163   9.542   9.726   1.783 -3.0340 -1.8730 -4.5032
   16MOL0     H 2164   9.748   9.899   1.711  0.7279  2.1351  0.3314
   16MOL0     H 2165   9.660  10.019   1.798 -2.0499  0.4689  1.1508
   16MOL0     H 2166   9.869   9.753   2.111 -0.2695 -1.1492  0.7746
   16MOL0     H 2167   9.950   9.863   2.403 -1.6775  1.6006  0.7185
   16MOL0     H 2168   9.937   9.693   2.362  1.6679  1.2540 -1.2187
   16MOL0     H 2169   9.835   9.757   2.481  1.0024 -2.4812 -0.1965
   16MOL0     H 2170   9.871  10.060   2.645 -1.5436  3.1294 -0.0645
   16MOL0     H 2171   9.905  10.123   2.863 -1.4253  0.6728  2.1542
   16MOL0     H 2172   9.954  10.068   3.084 -2.7354 -0.7998 -5.0116
   16MOL0     H 2173   9.886  10.222   3.071  0.2385 -1.1488 -1.8474
   16MOL0     H 2174   9.755  10.191   3.282 -0.8322 -0.8405 -0.8007
   16MOL0     H 2175   9.848  10.056   3.330 -2.5901  2.0300  1.6120
   16MOL0     H 2176   9.974  10.325   3.268  0.5200  0.7868  0.3557
   16MOL0     H 2177  10.058  10.172   3.315 -0.4915 -0.1944  2.6563
   16MOL0     H 2178   9.928  10.157   3.528  2.5946 -1.2483 -1.3396
   16MOL0     H 2179   9.871  10.316   3.490  0.2524 -0.0614 -0.6818
   16MOL0     H 2180  10.107  10.407   3.479  0.1214  0.4433  0.4952
   16MOL0     H 2181  10.039  10.376   3.629 -0.8202  2.6189 -1.6023
   16MOL0     H 2182  10.242  10.186   3.483 -1.3086  1.1259 -1.5347
   16MOL0     H 2183  10.163  10.149   3.635  1.8284  0.7105  2.7207
   16MOL0     H 2184  10.339  10.398   3.601 -1.8023  1.5553 -0.1675
   16MOL0     H 2185  10.390  10.243   3.661 -0.7654 -0.5081 -3.3156
   16MOL0     H 2186  10.174  10.431   3.764 -0.7323 -0.3844 -1.6093
   16MOL0     H 2187  10.323  10.404   3.836 -1.0407  2.1244 -0.5111
   16MOL0     H 2188   9.545   9.923   3.012  0.3661 -0.4466 -0.8024
   16MOL0     H 2189   9.500   9.865   2.761  1.2869  0.1036 -1.4105
   16MOL0     H 2190   9.510  10.055   2.250 -2.7409 -1.6287 -2.4494
   16MOL0     H 2191   9.536  10.010   2.024 -1.3260 -1.3241  0.4465
   16MOL0     H 2192   8.923   8.603   2.129  0.0140 -0.6345 -1.8658
   16MOL0     H 2193   8.977   8.428   2.285  2.9607  2.0199  2.3886
   16MOL0     H 2194   9.168   8.069   2.375  0.1400 -1.1754 -0.5127
   16MOL0     H 2195   9.201   7.855   2.500 -0.7175 -0.2468 -1.3983
   16MOL0     H 2196   9.377   7.611   2.698  0.9483 -2.1774 -0.6618
   16MOL0     H 2197   9.263   7.679   2.599 -0.0733 -2.1507  1.6145
   16MOL0     H 2198   9.491   7.518   2.519 -0.0333  1.1668 -0.5339
   16MOL0     H 2199   9.381   7.578   2.399  1.3585 -0.7836 -0.1157
   16MOL0     H 2200   9.201   7.436   2.546 -0.2052 -1.9438 -1.1945
   16MOL0     H 2201   9.316   7.355   2.437 -4.7716  2.2627 -4.0307
   16MOL0     H 2202   9.336   7.399   2.750 -0.5641  0.1622  0.0582
   16MOL0     H 2203   9.475   7.340   2.656 -0.7041 -0.9985  2.5284
   16MOL0     H 2204   9.222   7.009   2.718  1.7116 -0.0544  2.2322
   16MOL0     H 2205   9.621   7.931   2.506  0.2665 -2.7805 -1.2332
   16MOL0     H 2206   9.649   8.189   2.293  1.0286 -3.7430  0.3661
   16MOL0     H 2207   9.625   8.274   2.447  1.3878  0.3043 -0.1078
   16MOL0     H 2208   9.718   8.119   2.436  0.7562 -0.8660 -1.8676
   17MOL0     O 2209  10.147  10.188   9.094  0.4994 -0.1067  0.2649
   17MOL0     C 2210  10.108  10.169   9.208  0.0959  0.3148 -0.2075
   17MOL0     O 2211  10.092  10.046   9.267 -0.2658  0.4305 -0.9439
   17MOL0     C 2212  10.090   9.928   9.196 -0.5080  0.0803  0.2040
   17MOL0     C 2213  10.000   9.902   9.089 -0.6846  0.0765 -0.4204
   17MOL0     C 2214   9.984   9.784   9.020 -1.2049 -0.0882 -0.5638
   17MOL0     C 2215  10.077   9.687   9.061  0.6139 -0.2301  0.5347
   17MOL0     O 2216  10.074   9.577   8.976 -0.1513  0.2780  0.0291
   17MOL0     C 2217  10.157   9.461   8.986  0.3644 -0.4931  0.1326
   17MOL0     C 2218  10.126   9.355   8.880 -0.0120 -0.3588 -0.1017
   17MOL0     C 2219   9.992   9.280   8.903  1.2740  0.0114  1.1545
   17MOL0     C 2220   9.974   9.184   8.790  0.4210  0.8250  0.9940
   17MOL0     C 2221   9.860   9.086   8.823 -0.1724 -0.3519  0.0890
   17MOL0     C 2222   9.793   9.049   8.694  0.0156  0.4649 -0.2035
   17MOL0     C 2223   9.666   8.970   8.728 -0.5019 -1.2530 -0.8453
   17MOL0     C 2224   9.578   8.934   8.605 -0.2969 -0.2550  0.0374
   17MOL0     N 2225   9.647   8.837   8.520  0.6773  0.1395  0.6406
   17MOL0     C 2226   9.648   8.700   8.535 -1.6509  0.1745 -0.7042
   17MOL0     C 2227   9.687   8.645   8.417  0.7389  0.4433  0.3748
   17MOL0     C 2228   9.676   8.501   8.353  0.0416 -0.6566  0.5580
   17MOL0     C 2229   9.553   8.412   8.399  0.1678 -0.0112  0.4530
   17MOL0     C 2230   9.568   8.266   8.356  0.3093  0.8091  0.4120
   17MOL0     C 2231   9.659   8.186   8.445 -0.2077 -0.0551  0.0675
   17MOL0     O 2232   9.598   8.176   8.576  0.0060  0.7546  0.0654
   17MOL0     C 2233   9.661   8.087   8.661  0.1097 -0.7091 -1.0032
   17MOL0     C 2234   9.583   8.040   8.760  0.8000 -0.5981 -1.0988
   17MOL0     C 2235   9.631   7.945   8.849 -0.0203 -0.0853 -0.1302
   17MOL0     C 2236   9.533   7.892   8.943  1.0459 -0.5262 -0.4446
   17MOL0     C 2237   9.760   7.895   8.827 -0.5586  0.0868  0.1952
   17MOL0     C 2238   9.830   7.791   8.898  0.5089  0.4728  0.4374
   17MOL0     O 2239   9.853   7.813   9.024  0.2018 -0.2714  0.3891
   17MOL0     C 2240   9.930   7.731   9.102 -0.1738  0.1776 -0.2171
   17MOL0     C 2241  10.060   7.698   9.073 -0.5733  0.1416  0.1067
   17MOL0     C 2242  10.127   7.613   9.148  0.0763  0.6946 -0.5380
   17MOL0     C 2243  10.080   7.544   9.262 -0.3892 -0.8141 -0.6283
   17MOL0     O 2244  10.161   7.480   9.361 -0.8183 -0.0328  0.6010
   17MOL0     C 2245  10.308   7.464   9.334  0.4553  0.1890  0.1086
   17MOL0     C 2246  10.370   7.396   9.451  1.2739  0.1176 -0.1207
   17MOL0     C 2247  10.503   7.318   9.431  0.3546 -0.1524  0.4874
   17MOL0     C 2248  10.605   7.326   9.539  1.1105 -0.0911  0.9546
   17MOL0     C 2249  10.554   7.246   9.661  0.9763  0.1961 -0.1602
   17MOL0     C 2250  10.663   7.193   9.741 -0.3480  0.7477  0.3081
   17MOL0     C 2251  10.604   7.089   9.839 -0.6261  0.9709 -0.6943
   17MOL0     C 2252  10.715   7.029   9.930 -0.0215  0.3352 -0.1357
   17MOL0    Cl 2253  10.858   6.967   9.832 -0.0179  0.1872  0.3431
   17MOL0     C 2254   9.941   7.568   9.287 -0.0125 -0.3540 -0.6651
   17MOL0     C 2255   9.867   7.656   9.205 -0.1218 -0.1147 -0.3442
   17MOL0     O 2256   9.878   7.696   8.832 -0.3399 -0.4885  0.2412
   17MOL0     C 2257   9.841   7.952   8.724 -0.0491 -0.6308 -0.0866
   17MOL0     C 2258   9.796   8.054   8.649  0.3662  0.6606  0.3479
   17MOL0     N 2259   9.706   8.750   8.322 -0.0079  0.2098 -0.6360
   17MOL0     N 2260   9.678   8.863   8.388  0.3679  0.0037 -0.0259
   17MOL0     C 2261  10.168   9.709   9.169  0.0870  0.0076 -0.6906
   17MOL0     C 2262  10.173   9.823   9.243  0.6207  0.4780  0.1189
   17MOL0     C 2263  10.106  10.285   9.297  0.3845  0.4718  0.1614
   17MOL0     C 2264  10.204  10.382   9.318  0.3422  1.3118  0.0971
   17MOL0     C 2265  10.190  10.481   9.413 -0.3766  0.1697 -0.0628
   17MOL0     C 2266  10.072  10.506   9.480 -0.1280  0.0383 -0.5116
   17MOL0     O 2267  10.060  10.612   9.567 -0.5149  0.2061 -0.0356
   17MOL0     C 2268   9.957  10.705   9.524 -0.7924 -0.0932  0.4557
   17MOL0     C 2269   9.996  10.807   9.423 -0.8206 -0.1192 -0.3219
   17MOL0     C 2270  10.080  10.915   9.491 -0.3383 -1.0146 -1.0768
   17MOL0     C 2271   9.983  10.994   9.586 -0.3746 -0.0990  0.3416
   17MOL0     C 2272  10.018  11.134   9.611 -0.8324 -0.0590 -0.4640
   17MOL0     C 2273  10.067  11.237   9.654  0.2664  0.4573 -0.9795
   17MOL0     C 2274   9.964  10.426   9.442  0.0112  0.6099  0.1257
   17MOL0     C 2275   9.982  10.307   9.363  0.4381 -0.2637  1.1592
   17MOL0     C 2276   9.872  10.215   9.373 -0.1034 -0.3175  0.6983
   17MOL0     H 2277   9.934   9.986   9.070  1.8673  2.8471  1.9416
   17MOL0     H 2278   9.919   9.778   8.933  1.1468 -0.0323 -2.4241
   17MOL0     H 2279  10.145   9.428   9.090 -1.3025 -2.3434 -0.5801
   17MOL0     H 2280  10.258   9.496   8.966 -0.2741  0.9100 -0.8454
   17MOL0     H 2281  10.124   9.406   8.783  1.5866  2.4372  1.2245
   17MOL0     H 2282  10.198   9.273   8.870 -0.3517 -0.6236 -0.4022
   17MOL0     H 2283   9.974   9.218   8.991  0.4841 -0.6527  0.5459
   17MOL0     H 2284   9.909   9.352   8.900  0.9075 -0.2681 -3.5401
   17MOL0     H 2285   9.940   9.233   8.699 -0.9815 -2.9526 -0.6972
   17MOL0     H 2286  10.068   9.129   8.779 -0.3635 -0.0973 -2.1040
   17MOL0     H 2287   9.798   9.128   8.903  0.8667 -0.4141  0.9516
   17MOL0     H 2288   9.894   8.989   8.860 -1.2508  0.1540  2.6285
   17MOL0     H 2289   9.758   9.147   8.661 -0.7635  1.1386  2.3352
   17MOL0     H 2290   9.857   8.996   8.622 -0.5572  0.0667 -0.4252
   17MOL0     H 2291   9.606   9.040   8.787  2.0424  2.1520 -2.0057
   17MOL0     H 2292   9.690   8.883   8.789  1.9114 -0.6322 -0.8097
   17MOL0     H 2293   9.486   8.886   8.639 -1.8653  0.8358 -2.3722
   17MOL0     H 2294   9.559   9.032   8.561 -1.8841 -0.5787 -0.0572
   17MOL0     H 2295   9.604   8.646   8.619 -1.0860 -1.4952 -1.4311
   17MOL0     H 2296   9.766   8.443   8.377 -0.9599 -1.0677  3.6902
   17MOL0     H 2297   9.688   8.510   8.244  2.2639  0.8921  0.8508
   17MOL0     H 2298   9.538   8.409   8.507 -2.4641  0.0822  0.1744
   17MOL0     H 2299   9.469   8.463   8.351  0.3089 -1.4525 -1.4335
   17MOL0     H 2300   9.468   8.223   8.360  0.6995 -0.1121  0.5559
   17MOL0     H 2301   9.590   8.256   8.249 -0.3934 -3.0032  0.4992
   17MOL0     H 2302   9.678   8.084   8.409 -0.8620 -1.0871  2.4645
   17MOL0     H 2303   9.755   8.238   8.452 -0.3982  0.1711  1.0879
   17MOL0     H 2304   9.483   8.082   8.769  2.1529  2.8722 -0.7750
   17MOL0     H 2305   9.553   7.800   8.998 -0.7177 -0.4695  0.3723
   17MOL0     H 2306   9.434   7.880   8.898 -0.3100  1.0311  1.9393
   17MOL0     H 2307   9.516   7.968   9.019 -0.0269  1.0049 -2.1173
   17MOL0     H 2308  10.113   7.725   8.983 -0.8051  0.0702 -0.0500
   17MOL0     H 2309  10.235   7.614   9.137  0.0019  0.8452 -1.3448
   17MOL0     H 2310  10.322   7.397   9.249  2.3793  0.8302 -0.1223
   17MOL0     H 2311  10.360   7.559   9.318 -0.2180  0.4833 -0.3799
   17MOL0     H 2312  10.388   7.481   9.518  1.6565  0.2170 -0.3498
   17MOL0     H 2313  10.292   7.335   9.498  2.1705 -1.4818 -0.6418
   17MOL0     H 2314  10.549   7.358   9.340 -2.5291  2.7449  0.1234
   17MOL0     H 2315  10.477   7.213   9.412  2.9380 -0.3734 -2.9479
   17MOL0     H 2316  10.647   7.425   9.556  0.7319  0.0095  1.3224
   17MOL0     H 2317  10.685   7.273   9.485  2.1816 -0.1280  2.5254
   17MOL0     H 2318  10.487   7.302   9.726  1.9890  0.5013  0.6381
   17MOL0     H 2319  10.496   7.161   9.624  0.6893 -0.1701  1.0950
   17MOL0     H 2320  10.717   7.273   9.791  1.1779 -2.0074  3.4912
   17MOL0     H 2321  10.736   7.143   9.678  1.0139 -0.4418  2.6949
   17MOL0     H 2322  10.551   7.015   9.778 -0.8124  1.2332 -0.8503
   17MOL0     H 2323  10.526   7.130   9.903 -0.0471 -0.8738  1.3140
   17MOL0     H 2324  10.661   6.956   9.991 -1.9270  1.2717 -0.6124
   17MOL0     H 2325  10.756   7.102  10.000 -0.5993 -0.2200  0.8141
   17MOL0     H 2326   9.889   7.513   9.365 -1.3370  2.8854  0.9276
   17MOL0     H 2327   9.767   7.672   9.246  1.0807  0.4418  2.6646
   17MOL0     H 2328   9.945   7.926   8.707 -0.5837 -1.4512 -2.5079
   17MOL0     H 2329   9.860   8.105   8.579  0.0123  1.4639  0.6004
   17MOL0     H 2330  10.238   9.631   9.198 -1.1126 -0.5636  0.8579
   17MOL0     H 2331  10.239   9.834   9.328  2.5006  2.5305 -1.5108
   17MOL0     H 2332  10.300  10.382   9.266  2.0956  2.8209  3.0717
   17MOL0     H 2333  10.263  10.554   9.446 -0.8690  0.6385 -0.0124
   17MOL0     H 2334   9.870  10.650   9.489 -0.2992 -1.9539  1.9607
   17MOL0     H 2335   9.907  10.751   9.610 -2.5292 -0.5583 -0.2617
   17MOL0     H 2336   9.911  10.847   9.368 -0.6018 -0.5899 -1.0124
   17MOL0     H 2337  10.054  10.762   9.343  0.7578  0.5552  0.3874
   17MOL0     H 2338  10.163  10.880   9.554  0.1083 -1.4046 -1.8641
   17MOL0     H 2339  10.124  10.979   9.414  0.1071 -0.3745 -0.3113
   17MOL0     H 2340   9.977  10.952   9.687 -0.6880 -0.9841 -0.0310
   17MOL0     H 2341   9.880  10.991   9.547  0.3438 -0.6620 -1.6593
   17MOL0     H 2342  10.118  11.313   9.710 -1.7345  0.2483  1.2615
   17MOL0     H 2343   9.874  10.441   9.502 -1.0586 -1.4662 -0.8559
   17MOL0     H 2344   9.779  10.249   9.419 -0.0170 -1.4430  1.7521
   17MOL0     H 2345   9.847  10.185   9.271  1.7158 -2.4185  0.8064
   17MOL0     H 2346   9.903  10.133   9.438 -0.7608  0.5442  2.1500
   18MOL0     O 2347   9.043  10.758   1.001  0.2045  0.7994  0.0889
   18MOL0     C 2348   9.140  10.689   1.028 -0.2734  0.1305 -0.2815
   18MOL0     O 2349   9.175  10.561   0.980  0.2884  0.3728  0.0097
   18MOL0     C 2350   9.115  10.506   0.866  0.8574 -0.5426 -0.1469
   18MOL0     C 2351   9.101  10.368   0.849 -0.0069  0.3625 -0.0887
   18MOL0     C 2352   9.019  10.311   0.747 -1.2089  0.7893  0.4210
   18MOL0     C 2353   8.967  10.389   0.647  0.0943  0.1156  0.9086
   18MOL0     O 2354   8.889  10.323   0.561  0.0855 -0.0268  0.9222
   18MOL0     C 2355   8.761  10.381   0.538  0.3715 -0.1169  0.0215
   18MOL0     C 2356   8.691  10.309   0.426 -0.0216  0.0515 -1.0361
   18MOL0     C 2357   8.695  10.151   0.438 -0.3802  0.9203  1.2218
   18MOL0     C 2358   8.596  10.097   0.330 -0.7352 -0.1727 -0.2305
   18MOL0     C 2359   8.574   9.946   0.320  0.0877 -0.0336 -0.5653
   18MOL0     C 2360   8.686   9.873   0.263 -0.1733  0.5375 -0.1765
   18MOL0     C 2361   8.640   9.731   0.237 -1.0475 -0.3314  0.3381
   18MOL0     C 2362   8.536   9.723   0.112  0.4776 -0.2230  0.6027
   18MOL0     N 2363   8.552   9.592   0.036 -0.0656  0.2017 -0.0566
   18MOL0     C 2364   8.666   9.566  -0.027  0.5675 -0.5560 -1.1985
   18MOL0     C 2365   8.640   9.456  -0.089 -0.1805 -0.7787  0.4591
   18MOL0     C 2366   8.746   9.386  -0.169 -0.5443  0.7804 -1.2886
   18MOL0     C 2367   8.770   9.247  -0.104  0.0419 -0.0766  0.8508
   18MOL0     C 2368   8.875   9.177  -0.179  0.4901  0.3429 -0.5037
   18MOL0     C 2369   8.888   9.036  -0.124 -0.5951  0.4350 -0.2593
   18MOL0     O 2370   8.787   8.945  -0.185 -1.0601 -0.1129  0.3123
   18MOL0     C 2371   8.805   8.806  -0.190  0.1182 -0.9959 -0.4962
   18MOL0     C 2372   8.797   8.742  -0.317  0.3346 -0.4180  0.1276
   18MOL0     C 2373   8.818   8.611  -0.334  0.1709  0.7413  0.9813
   18MOL0     C 2374   8.810   8.547  -0.468 -0.6031 -0.1311 -0.4297
   18MOL0     C 2375   8.866   8.530  -0.225  0.4279  0.0265 -0.7297
   18MOL0     C 2376   8.906   8.386  -0.241  0.0048 -1.2986 -0.4736
   18MOL0     O 2377   9.001   8.352  -0.154  0.1940 -0.0151 -0.6300
   18MOL0     C 2378   9.046   8.223  -0.145  0.1003  0.1385 -1.0195
   18MOL0     C 2379   9.111   8.157  -0.253  0.7323  0.3329 -0.2466
   18MOL0     C 2380   9.187   8.038  -0.229 -0.3714  0.3495  0.6770
   18MOL0     C 2381   9.194   7.979  -0.105  0.3436  0.1417 -0.4232
   18MOL0     O 2382   9.266   7.860  -0.093 -0.5922  0.5571 -0.2850
   18MOL0     C 2383   9.339   7.827   0.029 -0.3101 -0.8837 -0.7765
   18MOL0     C 2384   9.465   7.909   0.040  0.5543 -0.7331  0.1691
   18MOL0     C 2385   9.558   7.893  -0.092 -0.3553  0.0636 -0.7151
   18MOL0     C 2386   9.702   7.931  -0.072  0.0263 -0.0319  0.4663
   18MOL0     C 2387   9.776   7.950  -0.199 -0.1926 -0.3755 -0.3131
   18MOL0     C 2388   9.901   8.032  -0.207  0.3597 -0.4075  0.3254
   18MOL0     C 2389   9.962   8.063  -0.350  0.2505 -0.1969  0.7087
   18MOL0     C 2390  10.069   7.967  -0.393  0.6320  0.0263  0.4263
   18MOL0    Cl 2391  10.184   8.038  -0.508 -0.0721 -0.3696  0.3591
   18MOL0     C 2392   9.127   8.045   0.006  0.3737  0.4138 -0.4498
   18MOL0     C 2393   9.055   8.163  -0.015  0.3640  0.1730  0.4566
   18MOL0     O 2394   8.839   8.307  -0.309  0.1235 -0.8057 -0.4925
   18MOL0     C 2395   8.870   8.592  -0.093  0.4839 -0.0751  0.3812
   18MOL0     C 2396   8.841   8.726  -0.074  0.2937 -0.2187  0.3013
   18MOL0     N 2397   8.503   9.419  -0.082 -0.2364  0.0826  0.5492
   18MOL0     N 2398   8.455   9.497   0.004 -0.1878 -0.0832 -0.7274
   18MOL0     C 2399   8.991  10.523   0.651 -0.2607 -0.7884 -0.8638
   18MOL0     C 2400   9.054  10.588   0.768 -0.2004 -0.1262  0.4024
   18MOL0     C 2401   9.221  10.758   1.128 -0.3358  0.5109  0.1485
   18MOL0     C 2402   9.211  10.895   1.149 -0.3241 -0.3486  0.4835
   18MOL0     C 2403   9.297  10.964   1.231  0.2230  0.1364 -0.2944
   18MOL0     C 2404   9.397  10.899   1.299 -1.1752  0.3498 -0.1422
   18MOL0     O 2405   9.495  10.950   1.377  0.2716  0.5156  0.4796
   18MOL0     C 2406   9.501  11.093   1.393 -0.2246  0.9595 -0.2839
   18MOL0     C 2407   9.577  11.142   1.269  0.7007 -0.1821  0.2158
   18MOL0     C 2408   9.607  11.292   1.259  0.4037  0.4488  0.3078
   18MOL0     C 2409   9.615  11.327   1.117  0.2067  0.4548 -0.4080
   18MOL0     C 2410   9.661  11.462   1.096 -0.8677  0.8139  0.8593
   18MOL0     C 2411   9.712  11.571   1.059 -0.1029  0.4006 -1.0660
   18MOL0     C 2412   9.409  10.762   1.277  0.2024  0.4377 -0.6303
   18MOL0     C 2413   9.320  10.687   1.200 -0.5065  0.6212  0.7536
   18MOL0     C 2414   9.314  10.539   1.219  0.0052  0.1599  1.1036
   18MOL0     H 2415   9.148  10.300   0.920 -0.9878  0.2894  0.5148
   18MOL0     H 2416   9.029  10.204   0.733  0.5380  1.0467 -0.6862
   18MOL0     H 2417   8.758  10.487   0.512  2.1229 -0.7313 -3.2197
   18MOL0     H 2418   8.698  10.356   0.624  1.5028  0.1137  0.9484
   18MOL0     H 2419   8.585  10.335   0.422  0.6045  2.9181 -0.5762
   18MOL0     H 2420   8.733  10.344   0.332 -1.0092  0.7468 -1.2404
   18MOL0     H 2421   8.795  10.117   0.410 -1.1522  0.7603 -1.6616
   18MOL0     H 2422   8.660  10.107   0.532 -2.2176 -0.7943 -0.1559
   18MOL0     H 2423   8.495  10.133   0.350 -0.8932 -0.1189 -1.1025
   18MOL0     H 2424   8.621  10.133   0.230  1.4511  2.2948  1.0905
   18MOL0     H 2425   8.483   9.920   0.265  0.3657 -2.7905  0.1212
   18MOL0     H 2426   8.552   9.901   0.417  2.3131  4.0747  2.1340
   18MOL0     H 2427   8.727   9.907   0.168  1.6154 -1.6151 -0.2574
   18MOL0     H 2428   8.770   9.874   0.334  0.3236  1.4387 -0.7514
   18MOL0     H 2429   8.610   9.681   0.329 -1.9922  0.7988  0.6780
   18MOL0     H 2430   8.729   9.682   0.197 -1.3333  2.4499 -4.6162
   18MOL0     H 2431   8.434   9.742   0.146  0.2827  0.6358 -0.3892
   18MOL0     H 2432   8.547   9.809   0.045 -2.6910  0.7951  1.2298
   18MOL0     H 2433   8.758   9.622  -0.037  1.5077 -2.0063 -0.9580
   18MOL0     H 2434   8.840   9.443  -0.170  0.6244 -1.0567 -1.8602
   18MOL0     H 2435   8.713   9.377  -0.273 -0.6027  1.0092 -1.2895
   18MOL0     H 2436   8.805   9.265  -0.002  0.9830  0.5478  0.4352
   18MOL0     H 2437   8.678   9.188  -0.109  0.3361 -0.4412 -0.7539
   18MOL0     H 2438   8.841   9.169  -0.283  0.2920 -4.2172 -0.2855
   18MOL0     H 2439   8.969   9.232  -0.177  1.1259 -0.6113 -2.3860
   18MOL0     H 2440   8.988   8.996  -0.146 -0.3587  1.8103 -1.9179
   18MOL0     H 2441   8.881   9.030  -0.015 -1.2943 -3.3593 -0.3691
   18MOL0     H 2442   8.787   8.790  -0.414  1.1496 -1.4245 -0.4801
   18MOL0     H 2443   8.791   8.618  -0.549  0.1209  1.0741  0.4323
   18MOL0     H 2444   8.717   8.489  -0.458 -1.1368  0.8424  0.3148
   18MOL0     H 2445   8.889   8.475  -0.491  1.5487  2.2982 -0.9550
   18MOL0     H 2446   9.114   8.198  -0.354 -2.9682  0.9394 -0.2588
   18MOL0     H 2447   9.243   8.012  -0.318 -1.6417 -0.3518  0.0558
   18MOL0     H 2448   9.280   7.839   0.120  0.4123  0.9118 -0.5101
   18MOL0     H 2449   9.370   7.722   0.026  2.0313 -0.3163  0.5232
   18MOL0     H 2450   9.443   8.015   0.055  0.9201 -0.8546  1.7058
   18MOL0     H 2451   9.512   7.884   0.136 -0.1772  0.1424  0.7690
   18MOL0     H 2452   9.521   7.961  -0.169  1.0792  0.3593 -1.1781
   18MOL0     H 2453   9.542   7.787  -0.114 -1.8164 -0.0566  0.7935
   18MOL0     H 2454   9.757   7.859  -0.010  0.7060  0.8112  0.8579
   18MOL0     H 2455   9.705   8.029  -0.024  0.7090  0.5244 -0.6727
   18MOL0     H 2456   9.799   7.850  -0.237  2.2551 -1.5669  3.5975
   18MOL0     H 2457   9.712   8.015  -0.258  1.2651  0.9847 -0.4695
   18MOL0     H 2458   9.974   7.980  -0.144  0.0265 -1.1094  0.1341
   18MOL0     H 2459   9.878   8.128  -0.159 -3.2902 -2.5022  3.3181
   18MOL0     H 2460  10.011   8.161  -0.348  1.2164 -0.6485 -0.1520
   18MOL0     H 2461   9.879   8.077  -0.421 -1.9215 -2.4601  2.5961
   18MOL0     H 2462  10.030   7.874  -0.436  1.5556 -0.4062  0.4925
   18MOL0     H 2463  10.135   7.945  -0.308 -2.6137 -3.3500  2.3753
   18MOL0     H 2464   9.125   7.991   0.100 -0.4235  1.5207  0.1901
   18MOL0     H 2465   9.009   8.201   0.075 -1.5052  2.5200 -1.3572
   18MOL0     H 2466   8.904   8.533  -0.008  3.2373  2.7089  1.4135
   18MOL0     H 2467   8.854   8.754   0.030  0.9907 -0.9347  0.4125
   18MOL0     H 2468   8.954  10.596   0.579  1.7659  3.8060  2.2718
   18MOL0     H 2469   9.047  10.696   0.760  0.9592 -0.0858 -0.2964
   18MOL0     H 2470   9.146  10.964   1.097  3.4232  4.4924  1.5208
   18MOL0     H 2471   9.281  11.071   1.234 -0.6979  0.0553 -1.4876
   18MOL0     H 2472   9.407  11.147   1.406 -1.0321 -0.9118  2.7702
   18MOL0     H 2473   9.563  11.118   1.479  1.2654 -5.0551  0.8908
   18MOL0     H 2474   9.515  11.126   1.179  0.3573  1.9686  0.0184
   18MOL0     H 2475   9.672  11.088   1.261  0.7622 -0.3387  1.8455
   18MOL0     H 2476   9.524  11.342   1.311 -1.3065 -1.1886 -0.7085
   18MOL0     H 2477   9.702  11.323   1.303  0.3379  0.6781  0.2899
   18MOL0     H 2478   9.513  11.329   1.077  0.9407  0.0026 -2.4703
   18MOL0     H 2479   9.668  11.251   1.057 -0.0648  1.0915 -1.4893
   18MOL0     H 2480   9.777  11.646   1.020 -1.4385  2.3213  0.2429
   18MOL0     H 2481   9.480  10.707   1.338 -4.9027 -3.1275  3.0535
   18MOL0     H 2482   9.209  10.508   1.222 -0.9748  2.8628 -1.0879
   18MOL0     H 2483   9.359  10.501   1.126  0.4930 -0.0255  1.4131
   18MOL0     H 2484   9.366  10.499   1.307  0.2754 -0.5077  0.6534
   19MOL0     O 2485  10.010   0.503   3.852 -0.1476 -1.0151  0.1183
   19MOL0     C 2486   9.949   0.551   3.763 -0.1855 -0.8962 -0.1385
   19MOL0     O 2487   9.996   0.638   3.669 -0.3149  0.3249  0.1833
   19MOL0     C 2488  10.122   0.689   3.682 -0.3249  1.2151 -0.4124
   19MOL0     C 2489  10.165   0.744   3.808  0.1066  1.2353  0.9412
   19MOL0     C 2490  10.288   0.803   3.818 -0.5501  0.5895  0.3019
   19MOL0     C 2491  10.374   0.803   3.707 -0.1631  0.9954  0.4264
   19MOL0     O 2492  10.500   0.862   3.731 -1.3850  0.5694  0.2010
   19MOL0     C 2493  10.603   0.821   3.639  0.8095  0.4975  1.5798
   19MOL0     C 2494  10.733   0.870   3.682  0.4828 -0.0523 -1.2980
   19MOL0     C 2495  10.759   1.011   3.703  0.9619 -0.5396  0.1918
   19MOL0     C 2496  10.902   1.036   3.702  0.7753  1.0659 -0.5853
   19MOL0     C 2497  10.934   1.176   3.732  0.1265 -0.1739 -0.2887
   19MOL0     C 2498  11.089   1.187   3.757  0.9988  0.2056 -1.2208
   19MOL0     C 2499  11.141   1.319   3.813 -0.2572 -0.5814 -0.4252
   19MOL0     C 2500  11.299   1.319   3.831  0.1139  0.1913  0.7591
   19MOL0     N 2501  11.343   1.240   3.950  0.3360 -0.6902 -0.3431
   19MOL0     C 2502  11.404   1.298   4.059  0.0691  0.2290 -0.2274
   19MOL0     C 2503  11.413   1.191   4.150  0.4745 -0.7150  0.7567
   19MOL0     C 2504  11.471   1.189   4.288 -0.4287  0.6105 -0.2195
   19MOL0     C 2505  11.623   1.223   4.281  0.4193  0.2816  0.2203
   19MOL0     C 2506  11.671   1.236   4.432 -0.1581 -1.0472  0.2937
   19MOL0     C 2507  11.821   1.294   4.461  1.1265  0.2652  0.2092
   19MOL0     O 2508  11.908   1.187   4.428  0.0424  0.0480  0.0908
   19MOL0     C 2509  11.943   1.090   4.519 -0.5152 -0.4740 -0.1899
   19MOL0     C 2510  12.036   0.994   4.489 -0.1694 -0.4320  0.4065
   19MOL0     C 2511  12.080   0.896   4.574  0.0982 -0.0627 -1.7080
   19MOL0     C 2512  12.177   0.805   4.530 -0.5181  0.4076  0.1707
   19MOL0     C 2513  12.021   0.885   4.705  0.4987  0.1762  1.2236
   19MOL0     C 2514  12.063   0.791   4.811  0.2543  1.2836 -0.3566
   19MOL0     O 2515  12.127   0.668   4.777 -0.5485 -0.8152  0.1681
   19MOL0     C 2516  12.198   0.592   4.867  0.0170  0.2464  0.2498
   19MOL0     C 2517  12.325   0.635   4.906  0.4891 -0.2173  0.7719
   19MOL0     C 2518  12.394   0.579   5.017  0.6328 -1.0022  0.4572
   19MOL0     C 2519  12.337   0.466   5.082  0.4201 -1.0519 -0.3340
   19MOL0     O 2520  12.389   0.393   5.185  0.3268  0.0733  0.6174
   19MOL0     C 2521  12.454   0.485   5.276  0.2026  0.4170 -0.8891
   19MOL0     C 2522  12.431   0.437   5.423 -0.4104 -0.3278  0.9394
   19MOL0     C 2523  12.283   0.441   5.470  0.4628 -0.2443  0.1380
   19MOL0     C 2524  12.276   0.435   5.624 -0.0192  0.0699 -0.1519
   19MOL0     C 2525  12.331   0.297   5.671  0.4561 -0.5284 -0.4619
   19MOL0     C 2526  12.425   0.328   5.793  0.2467 -0.3930 -0.0621
   19MOL0     C 2527  12.518   0.205   5.825 -0.1938 -0.5316  0.1642
   19MOL0     C 2528  12.645   0.256   5.889 -0.2524  0.5871  0.0366
   19MOL0    Cl 2529  12.619   0.313   6.059 -0.1886  0.3592 -0.3944
   19MOL0     C 2530  12.204   0.432   5.044 -0.6622  0.1254 -0.9350
   19MOL0     C 2531  12.136   0.488   4.939  0.5483 -0.7107 -0.1189
   19MOL0     O 2532  12.046   0.830   4.926  0.0936  0.2205 -0.1704
   19MOL0     C 2533  11.909   0.964   4.735 -0.2474 -1.1175  0.4169
   19MOL0     C 2534  11.873   1.070   4.644 -0.5517  0.8792  0.1823
   19MOL0     N 2535  11.342   1.084   4.106 -0.3563  0.5699 -0.2934
   19MOL0     N 2536  11.312   1.112   3.980 -0.4833  0.5834 -0.0749
   19MOL0     C 2537  10.333   0.745   3.587  0.1743 -0.3538 -0.4600
   19MOL0     C 2538  10.203   0.690   3.573 -0.6270 -0.0858  0.4967
   19MOL0     C 2539   9.802   0.506   3.763 -0.2976  0.1792 -0.9538
   19MOL0     C 2540   9.761   0.410   3.855 -0.4797  0.4794  0.5655
   19MOL0     C 2541   9.638   0.358   3.856 -0.5097  1.4778  0.7786
   19MOL0     C 2542   9.544   0.395   3.752 -0.0933  0.5770 -0.5192
   19MOL0     O 2543   9.417   0.344   3.737 -0.1161  0.5579 -0.5796
   19MOL0     C 2544   9.410   0.206   3.770 -0.0449 -0.5865 -0.0472
   19MOL0     C 2545   9.260   0.164   3.754 -0.6035  0.4162 -0.0708
   19MOL0     C 2546   9.183   0.211   3.882  0.8848  0.7287  0.8740
   19MOL0     C 2547   9.042   0.147   3.866  0.4315  0.5249  0.4798
   19MOL0     C 2548   9.051  -0.002   3.866 -1.0439  0.3693 -0.0812
   19MOL0     C 2549   9.028  -0.114   3.848  0.5990  0.8185 -0.2266
   19MOL0     C 2550   9.571   0.496   3.672 -0.5559  0.0233  0.1653
   19MOL0     C 2551   9.702   0.555   3.676  1.0208  0.6917  0.8730
   19MOL0     C 2552   9.730   0.657   3.565  0.8347  1.2168 -0.8507
   19MOL0     H 2553  10.107   0.753   3.900 -0.9854 -0.3191  0.4369
   19MOL0     H 2554  10.327   0.840   3.912  0.1953  0.9513 -0.1373
   19MOL0     H 2555  10.581   0.878   3.548  4.0993 -0.2424  0.1849
   19MOL0     H 2556  10.628   0.717   3.618  0.5025  1.3429 -5.4425
   19MOL0     H 2557  10.760   0.821   3.776  1.8280  0.2306 -1.5161
   19MOL0     H 2558  10.798   0.843   3.598  2.1151  2.1308 -0.8206
   19MOL0     H 2559  10.724   1.059   3.611  0.5754  0.1508  0.6916
   19MOL0     H 2560  10.708   1.056   3.789  1.2430  0.2029 -0.0224
   19MOL0     H 2561  10.946   0.972   3.779 -4.7821  1.3988  3.4571
   19MOL0     H 2562  10.936   0.999   3.605 -1.5074 -0.3499 -0.9384
   19MOL0     H 2563  10.887   1.208   3.825  1.6610 -0.2409  0.5344
   19MOL0     H 2564  10.907   1.239   3.646 -3.7958 -1.3830 -0.1498
   19MOL0     H 2565  11.099   1.112   3.836  2.4753  1.4882 -0.1329
   19MOL0     H 2566  11.147   1.167   3.666 -1.7375  2.2708 -3.6039
   19MOL0     H 2567  11.093   1.347   3.907 -0.9082  3.3614 -1.7399
   19MOL0     H 2568  11.117   1.400   3.744  0.1940  2.0807  2.3380
   19MOL0     H 2569  11.341   1.260   3.749  1.6537  3.0383 -0.6599
   19MOL0     H 2570  11.341   1.420   3.829  0.2159  0.1732  1.5063
   19MOL0     H 2571  11.445   1.396   4.082  0.0569  0.2910 -0.4727
   19MOL0     H 2572  11.459   1.093   4.340 -2.3530  1.5383  1.1982
   19MOL0     H 2573  11.411   1.260   4.346 -0.4083  1.1899 -0.9025
   19MOL0     H 2574  11.676   1.135   4.244  1.2559  1.2702 -0.9773
   19MOL0     H 2575  11.631   1.304   4.209  0.7069 -1.2828 -1.5783
   19MOL0     H 2576  11.614   1.322   4.470  1.7322  0.3628  0.0862
   19MOL0     H 2577  11.654   1.147   4.493  1.5264 -0.6360  1.4401
   19MOL0     H 2578  11.847   1.372   4.389  0.8269 -0.2578 -0.4767
   19MOL0     H 2579  11.835   1.323   4.566 -2.2029  3.6908 -0.0899
   19MOL0     H 2580  12.094   1.015   4.400 -0.6131  3.2394  0.7953
   19MOL0     H 2581  12.124   0.715   4.498 -2.2352  1.5261 -0.2706
   19MOL0     H 2582  12.235   0.771   4.616  0.5201  0.5241 -0.4615
   19MOL0     H 2583  12.241   0.830   4.444 -0.4496 -5.2499 -1.8263
   19MOL0     H 2584  12.371   0.726   4.868 -0.3959 -0.1900 -0.2980
   19MOL0     H 2585  12.488   0.624   5.046  0.6149 -0.5313 -0.1873
   19MOL0     H 2586  12.561   0.488   5.252  0.5901  2.6469  0.7335
   19MOL0     H 2587  12.419   0.587   5.261 -0.3224  0.4577  0.4610
   19MOL0     H 2588  12.497   0.351   5.437 -0.0310 -0.7013 -2.2883
   19MOL0     H 2589  12.481   0.511   5.486  2.5432 -0.3728 -1.1092
   19MOL0     H 2590  12.220   0.359   5.435  0.5899 -0.7001  0.9563
   19MOL0     H 2591  12.243   0.538   5.441  0.7685 -0.2942 -0.4729
   19MOL0     H 2592  12.177   0.449   5.667 -0.7640  0.5052 -1.9066
   19MOL0     H 2593  12.335   0.520   5.660  0.5408  0.5898 -2.1227
   19MOL0     H 2594  12.241   0.248   5.708 -2.0835  4.5962  0.9650
   19MOL0     H 2595  12.377   0.242   5.588  0.5492  0.1160 -0.8475
   19MOL0     H 2596  12.355   0.335   5.876  1.0433 -2.5007  0.8654
   19MOL0     H 2597  12.482   0.421   5.790  1.0741 -0.7674  2.2978
   19MOL0     H 2598  12.547   0.161   5.729 -1.7664 -1.7757  0.2236
   19MOL0     H 2599  12.480   0.120   5.881  0.4722 -0.0456  1.4022
   19MOL0     H 2600  12.674   0.343   5.829 -3.9688 -0.6585 -4.0997
   19MOL0     H 2601  12.720   0.177   5.901 -1.9646 -0.9371  1.3399
   19MOL0     H 2602  12.165   0.350   5.103  2.2020  0.4942  1.7187
   19MOL0     H 2603  12.038   0.459   4.903  0.5790 -1.2298  0.2118
   19MOL0     H 2604  11.873   0.973   4.837 -0.7221 -1.4110  0.2783
   19MOL0     H 2605  11.784   1.123   4.674 -0.4750 -0.0071  2.1768
   19MOL0     H 2606  10.405   0.742   3.505  0.4931 -0.1036 -0.1895
   19MOL0     H 2607  10.153   0.648   3.486 -2.0761 -1.0109  1.7270
   19MOL0     H 2608   9.829   0.365   3.927  1.9051 -0.8218 -2.2599
   19MOL0     H 2609   9.617   0.277   3.924 -1.3190 -0.8330 -2.0158
   19MOL0     H 2610   9.471   0.151   3.698  0.4040 -0.8516  0.5288
   19MOL0     H 2611   9.438   0.186   3.873 -3.5329 -0.1332  1.1228
   19MOL0     H 2612   9.268   0.055   3.751  1.4299  0.5191 -3.8441
   19MOL0     H 2613   9.209   0.209   3.668 -0.3724  1.4359  0.3058
   19MOL0     H 2614   9.237   0.173   3.969  0.0197 -0.8638  0.7710
   19MOL0     H 2615   9.163   0.318   3.872 -4.2396 -0.0310 -0.3148
   19MOL0     H 2616   9.006   0.171   3.766 -0.9145 -1.2195  0.4978
   19MOL0     H 2617   8.970   0.182   3.940  0.1123  0.9785 -0.0376
   19MOL0     H 2618   9.001  -0.216   3.830  0.1312  0.3731  2.5492
   19MOL0     H 2619   9.491   0.516   3.602 -1.4335  1.5107  1.5199
   19MOL0     H 2620   9.768   0.748   3.613  0.9207  0.7385 -0.0051
   19MOL0     H 2621   9.811   0.622   3.499  0.0541 -1.2745 -0.5876
   19MOL0     H 2622   9.637   0.679   3.512 -0.6262 -0.0402  1.0454
   20MOL0     O 2623   7.391   3.136   6.805 -0.0563 -0.5445  0.5332
   20MOL0     C 2624   7.369   3.204   6.710  0.8031  0.7170 -0.2665
   20MOL0     O 2625   7.412   3.171   6.588 -0.5506 -0.2905 -0.2403
   20MOL0     C 2626   7.530   3.122   6.560 -1.2808  0.9483  1.0614
   20MOL0     C 2627   7.644   3.198   6.538 -0.0223  0.5777 -1.6153
   20MOL0     C 2628   7.759   3.141   6.487 -1.1746  0.3920  0.6795
   20MOL0     C 2629   7.761   3.002   6.458 -0.2706 -0.3915  0.5968
   20MOL0     O 2630   7.871   2.933   6.411 -0.0283 -0.4110  0.5393
   20MOL0     C 2631   8.005   2.986   6.439  0.4255 -0.0457  0.5427
   20MOL0     C 2632   8.100   2.894   6.363  0.9287  1.2361 -1.1150
   20MOL0     C 2633   8.253   2.899   6.413 -0.7394 -0.1013  0.6460
   20MOL0     C 2634   8.297   3.045   6.426  0.9947 -0.4130  0.3407
   20MOL0     C 2635   8.448   3.042   6.469  0.2322  0.6413  0.4726
   20MOL0     C 2636   8.504   3.189   6.463  0.8640 -0.5261  0.6161
   20MOL0     C 2637   8.653   3.196   6.500  0.2456  0.1571 -0.0915
   20MOL0     C 2638   8.663   3.186   6.656  0.1341 -0.3663 -0.5843
   20MOL0     N 2639   8.785   3.111   6.695  0.8688  0.5412  1.3189
   20MOL0     C 2640   8.782   3.010   6.782  0.4247  0.0491 -0.4217
   20MOL0     C 2641   8.907   2.966   6.782  0.0233  0.1240  0.4331
   20MOL0     C 2642   8.978   2.858   6.861  1.8097 -0.1097  0.0403
   20MOL0     C 2643   9.131   2.882   6.878  0.3435  0.5696 -0.3452
   20MOL0     C 2644   9.202   2.748   6.889 -0.4997  0.5236 -0.1452
   20MOL0     C 2645   9.332   2.770   6.959 -0.4439  0.1035 -0.9997
   20MOL0     O 2646   9.399   2.645   6.941 -0.2909  0.5359 -0.1193
   20MOL0     C 2647   9.494   2.628   6.842  0.2360  0.8654  0.2889
   20MOL0     C 2648   9.515   2.717   6.740  0.2386 -0.0505  0.6629
   20MOL0     C 2649   9.637   2.702   6.654 -0.1405 -0.0375 -0.7701
   20MOL0     C 2650   9.658   2.808   6.558 -0.8715  0.2690  0.0927
   20MOL0     C 2651   9.715   2.580   6.661  0.2951  0.4544 -0.4676
   20MOL0     C 2652   9.833   2.543   6.572  0.2673 -0.1183  0.0778
   20MOL0     O 2653   9.887   2.421   6.589  0.0157 -0.3271  0.0206
   20MOL0     C 2654  10.016   2.387   6.538  0.6884 -0.2257  1.1067
   20MOL0     C 2655  10.033   2.251   6.530 -0.4265 -0.3047 -0.5637
   20MOL0     C 2656  10.157   2.197   6.489 -0.7552  0.3206 -0.5746
   20MOL0     C 2657  10.266   2.288   6.455 -0.0094 -1.0633  0.6840
   20MOL0     O 2658  10.388   2.240   6.409  0.3052  0.4460 -1.1316
   20MOL0     C 2659  10.511   2.305   6.437  0.1232 -0.1508  1.1757
   20MOL0     C 2660  10.580   2.316   6.299 -0.1061 -0.5244 -0.5739
   20MOL0     C 2661  10.523   2.405   6.201  0.6293  0.6923 -0.0573
   20MOL0     C 2662  10.620   2.464   6.102 -0.8613 -0.1522  0.9146
   20MOL0     C 2663  10.555   2.565   6.015  0.0273  0.3298 -0.2137
   20MOL0     C 2664  10.670   2.618   5.919 -0.1579 -0.3716 -0.0565
   20MOL0     C 2665  10.606   2.682   5.788 -0.1752 -0.0191 -0.0557
   20MOL0     C 2666  10.714   2.700   5.683  0.2912  0.4784 -0.4910
   20MOL0    Cl 2667  10.652   2.785   5.534 -0.3143 -0.4481 -0.5447
   20MOL0     C 2668  10.245   2.425   6.470  0.8122 -0.8105  0.4014
   20MOL0     C 2669  10.118   2.476   6.506 -0.8337 -0.4451 -0.1548
   20MOL0     O 2670   9.864   2.618   6.481  0.1688  0.5685 -0.3603
   20MOL0     C 2671   9.672   2.474   6.751  0.7790 -0.0025 -0.4282
   20MOL0     C 2672   9.565   2.508   6.842 -0.5276  0.4166 -0.4164
   20MOL0     N 2673   8.979   3.036   6.680  0.0508  0.5888 -0.0318
   20MOL0     N 2674   8.902   3.124   6.625 -0.2284  0.6118 -0.2390
   20MOL0     C 2675   7.641   2.929   6.466  0.0511  0.9319 -0.0577
   20MOL0     C 2676   7.535   2.988   6.526 -0.9094  0.5895 -0.3098
   20MOL0     C 2677   7.253   3.311   6.725 -0.1328 -0.1822  0.5615
   20MOL0     C 2678   7.144   3.328   6.638 -0.0042 -0.7961 -0.1460
   20MOL0     C 2679   7.043   3.424   6.653  0.7808 -1.0522 -0.1668
   20MOL0     C 2680   7.041   3.518   6.764  0.4046  1.0260  0.8655
   20MOL0     O 2681   6.936   3.605   6.784 -0.6014  0.3796 -0.0496
   20MOL0     C 2682   6.848   3.632   6.675  0.9843 -0.4383  0.5501
   20MOL0     C 2683   6.764   3.760   6.698 -0.5485 -0.4793  0.2557
   20MOL0     C 2684   6.848   3.889   6.697  0.1891 -0.4182 -0.2069
   20MOL0     C 2685   6.761   4.005   6.747 -0.5333 -0.1411  0.0739
   20MOL0     C 2686   6.826   4.132   6.694  0.1705  0.8942 -1.0189
   20MOL0     C 2687   6.852   4.234   6.649  0.0113 -0.1020 -0.1249
   20MOL0     C 2688   7.141   3.493   6.851 -0.2790 -0.3421  0.4395
   20MOL0     C 2689   7.254   3.406   6.832  0.1562  0.3065  0.0120
   20MOL0     C 2690   7.364   3.411   6.941 -0.6939 -0.3131  0.3337
   20MOL0     H 2691   7.644   3.302   6.569 -0.2970  0.5946 -1.6699
   20MOL0     H 2692   7.849   3.200   6.478  0.1199 -1.5223  0.5627
   20MOL0     H 2693   8.040   2.986   6.542  0.5576  2.9972  0.5822
   20MOL0     H 2694   8.006   3.088   6.399 -2.9446  0.8044  2.2102
   20MOL0     H 2695   8.064   2.791   6.361  0.5492  1.3386 -0.0870
   20MOL0     H 2696   8.093   2.928   6.259 -1.0004 -1.8195 -2.1123
   20MOL0     H 2697   8.261   2.850   6.510 -2.8552  2.0235  2.0326
   20MOL0     H 2698   8.321   2.850   6.344  0.9843  3.4161 -0.4015
   20MOL0     H 2699   8.289   3.096   6.329 -1.0482  0.8165  1.0928
   20MOL0     H 2700   8.228   3.098   6.493 -0.6953 -0.3552 -1.3382
   20MOL0     H 2701   8.505   2.974   6.405 -0.7973 -0.5597  0.7844
   20MOL0     H 2702   8.439   3.001   6.570 -2.2711  0.9116  0.4205
   20MOL0     H 2703   8.490   3.236   6.366  0.2348 -2.0479 -0.0614
   20MOL0     H 2704   8.445   3.247   6.535  1.9984  1.2794  0.1668
   20MOL0     H 2705   8.698   3.292   6.471  0.9314 -0.1090  0.0586
   20MOL0     H 2706   8.703   3.111   6.452  0.0272  0.9342 -1.7538
   20MOL0     H 2707   8.672   3.284   6.703  2.2480 -1.2899  1.1193
   20MOL0     H 2708   8.574   3.136   6.696  0.7075 -1.5318 -0.7207
   20MOL0     H 2709   8.696   2.984   6.843  1.2516 -0.6972  0.4610
   20MOL0     H 2710   8.956   2.761   6.816 -0.8672  1.7887 -3.2543
   20MOL0     H 2711   8.937   2.862   6.962  0.3014 -2.9703 -0.3673
   20MOL0     H 2712   9.182   2.939   6.800 -0.6929  0.6740 -0.9516
   20MOL0     H 2713   9.149   2.939   6.970 -1.5549  0.2905  0.2268
   20MOL0     H 2714   9.147   2.666   6.935  0.7409 -0.2622 -0.0423
   20MOL0     H 2715   9.230   2.709   6.791 -0.8169 -1.9616  0.6955
   20MOL0     H 2716   9.391   2.849   6.911 -0.8167 -0.7781 -2.9988
   20MOL0     H 2717   9.315   2.787   7.066 -1.8246  2.7215 -1.5470
   20MOL0     H 2718   9.451   2.804   6.729 -2.2139 -1.7739  0.3244
   20MOL0     H 2719   9.766   2.814   6.543 -0.4957  1.3869  2.7336
   20MOL0     H 2720   9.624   2.905   6.596 -2.1783 -0.8250  1.8925
   20MOL0     H 2721   9.606   2.770   6.470 -0.4581  0.0354 -0.0523
   20MOL0     H 2722   9.945   2.187   6.536 -1.5201  0.6624 -4.0897
   20MOL0     H 2723  10.170   2.089   6.478 -2.3217  0.2859 -2.7167
   20MOL0     H 2724  10.514   2.409   6.472  1.1972 -0.5454  2.2995
   20MOL0     H 2725  10.574   2.242   6.500  0.7942  1.7395  2.4949
   20MOL0     H 2726  10.686   2.336   6.320 -0.0311 -0.2409 -1.1777
   20MOL0     H 2727  10.583   2.214   6.260  0.1046  0.0395 -2.1082
   20MOL0     H 2728  10.481   2.494   6.250 -1.1143  0.0910 -0.4137
   20MOL0     H 2729  10.442   2.351   6.152  1.1584  0.6668 -0.9168
   20MOL0     H 2730  10.648   2.382   6.035  1.5174  1.4968 -0.2758
   20MOL0     H 2731  10.705   2.514   6.150 -2.4052  1.6793  1.8765
   20MOL0     H 2732  10.479   2.515   5.955 -0.4143  0.7361  0.0031
   20MOL0     H 2733  10.504   2.639   6.077  2.6455  0.8792  1.4735
   20MOL0     H 2734  10.751   2.549   5.896 -0.4340 -0.7090 -0.0118
   20MOL0     H 2735  10.708   2.701   5.979 -0.0763 -0.3382 -0.1531
   20MOL0     H 2736  10.561   2.776   5.820 -0.3321  0.5867 -1.9262
   20MOL0     H 2737  10.532   2.613   5.747 -2.1912  2.2633 -0.4509
   20MOL0     H 2738  10.778   2.614   5.664  1.3156  0.9966  0.5129
   20MOL0     H 2739  10.784   2.768   5.731 -0.0950  0.5465 -0.0132
   20MOL0     H 2740  10.328   2.491   6.449  2.1443 -2.2269  0.9593
   20MOL0     H 2741  10.099   2.581   6.525 -2.1162 -0.3831 -1.5813
   20MOL0     H 2742   9.709   2.373   6.762 -2.8403 -1.8660 -2.8560
   20MOL0     H 2743   9.550   2.442   6.927 -0.8115  2.6733  1.4032
   20MOL0     H 2744   7.638   2.826   6.433  0.7078  1.4040 -1.6690
   20MOL0     H 2745   7.449   2.923   6.542 -1.2480  1.0789 -0.1259
   20MOL0     H 2746   7.129   3.250   6.564 -2.7952 -2.0579  1.5774
   20MOL0     H 2747   6.957   3.417   6.588  0.7511  0.8776 -0.3941
   20MOL0     H 2748   6.912   3.644   6.587  1.9221 -2.3038  0.9218
   20MOL0     H 2749   6.778   3.549   6.661  1.4478 -0.6095 -1.0561
   20MOL0     H 2750   6.698   3.772   6.784 -3.4664 -1.1774 -1.7334
   20MOL0     H 2751   6.694   3.750   6.614 -2.9469 -0.8628  2.2042
   20MOL0     H 2752   6.941   3.884   6.754  0.8077 -0.6846 -1.2121
   20MOL0     H 2753   6.883   3.914   6.596 -0.8263  1.3540 -0.1573
   20MOL0     H 2754   6.766   3.994   6.856 -0.2766  1.6231  0.2634
   20MOL0     H 2755   6.660   4.011   6.704 -0.0572  1.1190 -0.9274
   20MOL0     H 2756   6.905   4.317   6.608 -0.0883 -0.1370 -0.3266
   20MOL0     H 2757   7.146   3.550   6.943  3.9826  0.1779  0.0838
   20MOL0     H 2758   7.445   3.470   6.898  0.4201 -1.3401  0.9657
   20MOL0     H 2759   7.333   3.447   7.040 -0.6305 -0.1101  0.2801
   20MOL0     H 2760   7.398   3.311   6.969 -0.7164 -0.3990  0.0539
   21MOL0     O 2761   3.545   5.216   3.862  0.3926  0.0472  0.5046
   21MOL0     C 2762   3.510   5.173   3.974  1.0025  0.0934 -0.1611
   21MOL0     O 2763   3.584   5.194   4.087 -0.0323  0.1402  0.2683
   21MOL0     C 2764   3.718   5.196   4.062 -0.0350 -0.6268 -0.2000
   21MOL0     C 2765   3.788   5.088   4.003  0.9559  0.2281 -0.9317
   21MOL0     C 2766   3.921   5.091   3.979  0.6858  0.6164 -0.3494
   21MOL0     C 2767   3.989   5.214   3.988  0.2350  0.0798  0.5263
   21MOL0     O 2768   4.111   5.232   3.939  0.5090 -0.7538 -0.8944
   21MOL0     C 2769   4.156   5.144   3.832 -0.1432 -0.3355 -0.8720
   21MOL0     C 2770   4.275   5.064   3.872 -0.4944  0.3240  0.2592
   21MOL0     C 2771   4.412   5.132   3.867 -0.0115 -0.6739  0.5340
   21MOL0     C 2772   4.488   5.089   3.746 -0.4017 -0.4443 -0.7433
   21MOL0     C 2773   4.634   5.134   3.750  0.8783 -0.1005  0.4695
   21MOL0     C 2774   4.644   5.285   3.737 -0.3205  0.4085 -0.0732
   21MOL0     C 2775   4.791   5.335   3.775 -0.0979 -0.0603 -0.7864
   21MOL0     C 2776   4.902   5.291   3.675 -0.1314  0.0311 -0.3343
   21MOL0     N 2777   5.034   5.291   3.742 -0.1843  0.1443 -0.6209
   21MOL0     C 2778   5.083   5.385   3.829 -0.4491 -0.4331  1.1787
   21MOL0     C 2779   5.215   5.343   3.850 -0.1166  0.6292 -0.8616
   21MOL0     C 2780   5.313   5.416   3.941 -0.5279 -0.7673  0.4824
   21MOL0     C 2781   5.392   5.514   3.855 -0.0823  0.0205  0.0644
   21MOL0     C 2782   5.303   5.637   3.828  0.1169  0.1063 -0.0339
   21MOL0     C 2783   5.354   5.731   3.715  0.8214  0.3063 -1.2334
   21MOL0     O 2784   5.350   5.666   3.590 -0.4308  0.4235 -0.1326
   21MOL0     C 2785   5.226   5.631   3.536  0.3538 -0.0007  0.2785
   21MOL0     C 2786   5.125   5.722   3.504 -0.1324 -0.9734  0.4531
   21MOL0     C 2787   5.012   5.687   3.431 -0.0067 -0.4593  0.7457
   21MOL0     C 2788   4.935   5.799   3.381 -0.5783  0.0843 -0.4289
   21MOL0     C 2789   4.983   5.548   3.406 -0.4319 -0.6455 -0.5116
   21MOL0     C 2790   4.868   5.508   3.334  0.4843  0.4230 -0.0889
   21MOL0     O 2791   4.853   5.370   3.330  0.1977 -0.3765  0.9973
   21MOL0     C 2792   4.732   5.297   3.319  0.2394 -0.1281  1.3999
   21MOL0     C 2793   4.608   5.359   3.266  0.0804 -0.3246 -0.7077
   21MOL0     C 2794   4.502   5.279   3.260  0.0971  0.7763  1.1845
   21MOL0     C 2795   4.498   5.147   3.309  1.4867  0.1460  0.7020
   21MOL0     O 2796   4.378   5.081   3.287  0.3133  0.1119  0.2407
   21MOL0     C 2797   4.321   5.046   3.414  0.0111 -0.6739  0.5972
   21MOL0     C 2798   4.195   4.960   3.384 -0.1988 -0.6213  0.3744
   21MOL0     C 2799   4.203   4.820   3.439  0.2834 -1.5459  0.6215
   21MOL0     C 2800   4.329   4.738   3.406  0.8327  0.5138  0.4402
   21MOL0     C 2801   4.373   4.733   3.263 -0.0765 -0.5872 -0.5636
   21MOL0     C 2802   4.485   4.622   3.235  0.2980 -0.4398  0.2339
   21MOL0     C 2803   4.548   4.640   3.099 -0.1482  0.4837  0.1289
   21MOL0     C 2804   4.626   4.774   3.064  0.2105  0.2906  0.0705
   21MOL0    Cl 2805   4.719   4.803   3.219 -0.5054  0.1093 -0.3635
   21MOL0     C 2806   4.608   5.086   3.359  0.6505  0.1867 -0.0187
   21MOL0     C 2807   4.730   5.162   3.362 -0.2871 -0.6130  0.3771
   21MOL0     O 2808   4.785   5.595   3.307 -0.0194 -0.6970 -0.3362
   21MOL0     C 2809   5.086   5.460   3.447  0.3252 -0.0910 -0.0559
   21MOL0     C 2810   5.205   5.503   3.514 -0.0865  0.4547 -0.6476
   21MOL0     N 2811   5.242   5.228   3.776  1.0438 -0.3788 -0.7591
   21MOL0     N 2812   5.132   5.200   3.722  1.0696  0.2579  0.0281
   21MOL0     C 2813   3.931   5.326   4.044  0.3782 -0.2818  1.4235
   21MOL0     C 2814   3.797   5.313   4.073 -0.0353 -0.9368  0.1759
   21MOL0     C 2815   3.374   5.112   3.988  0.2018  0.1909 -0.1826
   21MOL0     C 2816   3.332   5.085   4.123  1.0585  0.5192  0.3273
   21MOL0     C 2817   3.199   5.049   4.153 -0.2501 -0.5432  0.2599
   21MOL0     C 2818   3.109   5.032   4.044  1.1404 -0.5131 -0.1624
   21MOL0     O 2819   2.984   4.969   4.073 -0.1006  0.8092 -0.7265
   21MOL0     C 2820   2.901   5.030   4.166  0.3564  0.2948 -0.0650
   21MOL0     C 2821   2.833   4.924   4.258  0.8109  0.3882 -0.0641
   21MOL0     C 2822   2.712   4.880   4.184  0.3890 -0.3129  0.7045
   21MOL0     C 2823   2.718   4.747   4.118  0.4289  0.2435  0.7915
   21MOL0     C 2824   2.758   4.638   4.205 -0.2428  0.2315 -0.3236
   21MOL0     C 2825   2.808   4.547   4.265 -0.3100 -0.1726 -0.3682
   21MOL0     C 2826   3.142   5.041   3.918 -0.0008 -0.6495 -0.2435
   21MOL0     C 2827   3.274   5.076   3.881  0.0501  0.6122  1.0603
   21MOL0     C 2828   3.314   5.060   3.729  0.3209  0.4226 -0.4219
   21MOL0     H 2829   3.722   5.002   3.993 -1.6586  2.0705 -0.7169
   21MOL0     H 2830   3.974   4.999   3.958 -3.1682 -1.9471  0.1917
   21MOL0     H 2831   4.198   5.203   3.749  0.5238 -0.4186 -0.6026
   21MOL0     H 2832   4.071   5.088   3.793 -2.4323  0.5576  2.4479
   21MOL0     H 2833   4.267   5.036   3.978  1.6281 -0.6837  0.2175
   21MOL0     H 2834   4.272   4.965   3.826 -0.4008 -0.8738  2.6433
   21MOL0     H 2835   4.402   5.240   3.856 -1.2497 -0.6332  1.8620
   21MOL0     H 2836   4.472   5.108   3.955 -1.7714 -0.3347  1.8664
   21MOL0     H 2837   4.478   4.981   3.735 -0.5828 -0.6627  1.1960
   21MOL0     H 2838   4.444   5.136   3.658 -1.9782 -0.8290 -0.1919
   21MOL0     H 2839   4.688   5.086   3.668 -1.3033 -0.2606 -0.9483
   21MOL0     H 2840   4.686   5.111   3.844  1.8725  0.7556  0.1537
   21MOL0     H 2841   4.637   5.322   3.635  1.4659  2.5662  0.5066
   21MOL0     H 2842   4.577   5.336   3.806 -0.0283 -0.3313  0.7915
   21MOL0     H 2843   4.817   5.302   3.876  0.7124  0.9431 -0.6553
   21MOL0     H 2844   4.796   5.444   3.786  1.8077 -0.3054  1.6216
   21MOL0     H 2845   4.888   5.190   3.635  3.4629 -1.7078  2.2888
   21MOL0     H 2846   4.902   5.364   3.593  3.3874  0.2284 -0.3022
   21MOL0     H 2847   5.036   5.477   3.862  4.3989  2.6095  0.4507
   21MOL0     H 2848   5.388   5.342   3.972  0.4826 -1.4048 -3.0580
   21MOL0     H 2849   5.258   5.461   4.025 -0.0078 -1.1414  1.0355
   21MOL0     H 2850   5.479   5.549   3.910 -0.9736 -1.8790  2.9234
   21MOL0     H 2851   5.421   5.471   3.758 -1.4296  1.1720 -0.8906
   21MOL0     H 2852   5.201   5.611   3.797 -1.2361  4.4675  0.1193
   21MOL0     H 2853   5.284   5.695   3.918 -1.2997 -0.4445  0.0593
   21MOL0     H 2854   5.274   5.806   3.715  1.0228  0.5204 -1.2117
   21MOL0     H 2855   5.448   5.778   3.746  0.3487 -0.2563  1.2808
   21MOL0     H 2856   5.143   5.828   3.524 -0.5897 -0.5043 -1.4931
   21MOL0     H 2857   4.912   5.783   3.275  0.4007 -1.5489 -0.4247
   21MOL0     H 2858   4.989   5.894   3.381 -2.3293  1.1401  0.3548
   21MOL0     H 2859   4.841   5.808   3.435  0.4370 -0.8082  1.5845
   21MOL0     H 2860   4.598   5.461   3.230  1.2002  0.4993  1.1707
   21MOL0     H 2861   4.412   5.325   3.219 -0.6091  1.0654  2.9509
   21MOL0     H 2862   4.390   5.001   3.487  1.4236 -0.4784 -0.5549
   21MOL0     H 2863   4.285   5.139   3.459 -3.8829 -1.4954 -0.4764
   21MOL0     H 2864   4.113   5.002   3.443 -0.9077  0.3033 -1.1875
   21MOL0     H 2865   4.162   4.983   3.282  0.4222  1.2275  0.5565
   21MOL0     H 2866   4.114   4.767   3.404 -1.6929  3.2843 -2.6910
   21MOL0     H 2867   4.201   4.826   3.549  3.9740 -0.1822  0.7434
   21MOL0     H 2868   4.307   4.638   3.445 -1.0204  0.6669 -0.1382
   21MOL0     H 2869   4.416   4.763   3.468  0.8332 -1.4071  1.2861
   21MOL0     H 2870   4.278   4.715   3.211 -0.0452 -1.5678 -0.2883
   21MOL0     H 2871   4.416   4.829   3.231 -2.4643  0.3997 -1.0785
   21MOL0     H 2872   4.438   4.524   3.247 -0.1131 -0.3041 -0.2703
   21MOL0     H 2873   4.555   4.622   3.320  0.4728  1.8409  0.1276
   21MOL0     H 2874   4.480   4.612   3.017  1.8171 -1.7167 -0.8846
   21MOL0     H 2875   4.632   4.570   3.096 -1.0170 -0.6784  1.6174
   21MOL0     H 2876   4.562   4.862   3.055  0.7748  0.5516 -1.7600
   21MOL0     H 2877   4.682   4.750   2.973 -1.3647 -0.5969 -0.7182
   21MOL0     H 2878   4.610   4.982   3.389  0.5225  0.2159  0.0925
   21MOL0     H 2879   4.820   5.114   3.400  0.2589 -0.9638 -1.2819
   21MOL0     H 2880   5.071   5.356   3.419 -2.1653 -0.0269  0.8079
   21MOL0     H 2881   5.280   5.441   3.561 -1.3980  0.7228  1.9529
   21MOL0     H 2882   3.988   5.418   4.040  0.3447 -0.3052 -2.0084
   21MOL0     H 2883   3.756   5.407   4.108  0.6545 -1.3747  2.3162
   21MOL0     H 2884   3.403   5.101   4.204  0.8271 -3.6574  1.5922
   21MOL0     H 2885   3.169   5.045   4.257 -0.6153  2.7757  0.3812
   21MOL0     H 2886   2.944   5.096   4.243 -1.2309 -0.2151  1.3215
   21MOL0     H 2887   2.823   5.092   4.121 -0.3756 -1.4443 -1.2861
   21MOL0     H 2888   2.795   4.964   4.353  1.6532 -1.0440  0.9200
   21MOL0     H 2889   2.910   4.849   4.277  0.5262  0.3495  1.0485
   21MOL0     H 2890   2.635   4.874   4.263  1.1844  0.3682  1.5533
   21MOL0     H 2891   2.683   4.958   4.113  0.4238  1.7633  2.8333
   21MOL0     H 2892   2.792   4.766   4.039 -0.1610  0.2498  0.2357
   21MOL0     H 2893   2.620   4.719   4.078  0.1100 -0.2625  1.9051
   21MOL0     H 2894   2.866   4.468   4.310  0.5615  1.2909  1.2129
   21MOL0     H 2895   3.080   4.997   3.841  0.3842  0.7741 -1.4151
   21MOL0     H 2896   3.221   5.073   3.674 -2.1287 -2.0452  2.7499
   21MOL0     H 2897   3.391   5.131   3.697  2.7311  0.3218  4.1880
   21MOL0     H 2898   3.350   4.957   3.721  1.2549  0.7038  0.0019
   22MOL0     O 2899   1.735   6.798   1.955 -0.4286 -0.2533 -0.5477
   22MOL0     C 2900   1.851   6.826   1.998  0.1277 -0.1420  0.5037
   22MOL0     O 2901   1.877   6.902   2.109 -0.7608 -0.1189 -0.3147
   22MOL0     C 2902   1.786   6.910   2.210  0.0100  0.1209 -0.4930
   22MOL0     C 2903   1.824   6.850   2.330  0.2944  0.1977 -0.7272
   22MOL0     C 2904   1.743   6.845   2.439  0.4573 -0.1824 -0.4859
   22MOL0     C 2905   1.618   6.889   2.434  1.8008  0.7563 -0.0408
   22MOL0     O 2906   1.543   6.890   2.548 -0.1246  0.4999  0.1199
   22MOL0     C 2907   1.407   6.843   2.523  0.2463  0.0959 -1.1019
   22MOL0     C 2908   1.389   6.733   2.630 -0.6074 -0.0044  0.3949
   22MOL0     C 2909   1.261   6.650   2.625  1.1115 -0.4190 -0.4135
   22MOL0     C 2910   1.134   6.742   2.609  0.3369 -1.1272 -0.0121
   22MOL0     C 2911   1.007   6.653   2.616 -0.2116 -0.1644 -0.1763
   22MOL0     C 2912   0.876   6.726   2.560 -0.7211  0.1034 -0.2043
   22MOL0     C 2913   0.833   6.844   2.646  0.0715  0.0773  0.2374
   22MOL0     C 2914   0.724   6.909   2.573 -0.1179 -0.2254  0.3688
   22MOL0     N 2915   0.679   7.036   2.625  1.5290  0.1641 -0.2532
   22MOL0     C 2916   0.756   7.143   2.616 -0.2645  0.6187  0.8733
   22MOL0     C 2917   0.679   7.241   2.664 -0.0242 -1.0807 -0.4017
   22MOL0     C 2918   0.727   7.384   2.699  0.2012  1.0921  0.0633
   22MOL0     C 2919   0.724   7.480   2.580 -0.0185 -0.0457  0.4552
   22MOL0     C 2920   0.589   7.459   2.495  0.2036  0.4693 -0.0874
   22MOL0     C 2921   0.560   7.563   2.388  0.9948 -0.7450 -0.2580
   22MOL0     O 2922   0.666   7.531   2.290  0.6611  0.1168  0.2125
   22MOL0     C 2923   0.712   7.634   2.213  0.5718  0.1295 -0.6188
   22MOL0     C 2924   0.847   7.648   2.193  0.7492  0.2304 -0.6544
   22MOL0     C 2925   0.881   7.774   2.131  0.3435  0.5042 -0.4565
   22MOL0     C 2926   1.033   7.805   2.167 -0.3482  0.5391 -0.3773
   22MOL0     C 2927   0.786   7.871   2.087 -0.2402 -0.6795  0.2829
   22MOL0     C 2928   0.823   8.009   2.037  0.3381 -0.0140  0.3876
   22MOL0     O 2929   0.946   8.032   2.001 -0.1229 -0.0171 -0.2855
   22MOL0     C 2930   0.976   8.152   1.943 -0.3115  0.1984 -0.2134
   22MOL0     C 2931   1.028   8.255   2.023 -0.3463  1.2231 -0.7961
   22MOL0     C 2932   1.038   8.378   1.980 -0.5622 -0.1327 -0.6504
   22MOL0     C 2933   1.021   8.408   1.846  0.5292  0.4513  0.3494
   22MOL0     O 2934   1.039   8.525   1.785  0.1091 -0.5921 -0.1970
   22MOL0     C 2935   1.111   8.625   1.857  0.0188 -0.2076 -0.5651
   22MOL0     C 2936   1.139   8.751   1.777  1.0804 -0.0361  0.0823
   22MOL0     C 2937   1.056   8.762   1.639 -0.5913 -0.3830 -0.2402
   22MOL0     C 2938   1.039   8.907   1.605  0.7747 -0.5987  0.6661
   22MOL0     C 2939   0.961   8.938   1.474  0.5270  0.6561  0.6970
   22MOL0     C 2940   1.030   8.888   1.355  0.5631  0.6599  0.4237
   22MOL0     C 2941   0.970   8.953   1.235  0.2481 -0.2938 -0.0666
   22MOL0     C 2942   1.069   9.041   1.162 -0.3780 -0.3845  0.1286
   22MOL0    Cl 2943   1.131   9.189   1.258  0.2499 -0.1408  0.1573
   22MOL0     C 2944   0.968   8.312   1.758 -0.2443 -0.7188  0.0663
   22MOL0     C 2945   0.943   8.188   1.811  0.5259  0.3583  0.0366
   22MOL0     O 2946   0.728   8.089   2.017  0.1776 -0.5198  0.0823
   22MOL0     C 2947   0.652   7.834   2.101 -0.0786 -0.0318 -0.4492
   22MOL0     C 2948   0.617   7.719   2.164 -0.9976 -0.2931 -0.9084
   22MOL0     N 2949   0.558   7.181   2.694 -0.5407  0.3645  0.8851
   22MOL0     N 2950   0.557   7.063   2.674  0.2717  0.2471 -0.4870
   22MOL0     C 2951   1.576   6.950   2.316  0.0799  0.0913 -0.3696
   22MOL0     C 2952   1.657   6.973   2.207  0.3917  0.8981  0.0648
   22MOL0     C 2953   1.960   6.804   1.902 -0.0361  0.5878  0.1875
   22MOL0     C 2954   1.965   6.681   1.839  0.1645  0.3027 -1.1429
   22MOL0     C 2955   2.040   6.668   1.722 -0.7528 -1.0768 -0.5003
   22MOL0     C 2956   2.139   6.766   1.690  0.0273  0.2883  0.4793
   22MOL0     O 2957   2.215   6.733   1.580 -0.1908  0.1643 -0.4568
   22MOL0     C 2958   2.307   6.826   1.531 -0.4770 -0.3879 -0.5108
   22MOL0     C 2959   2.368   6.789   1.389 -0.9257  0.1073  0.2068
   22MOL0     C 2960   2.468   6.659   1.403 -0.4416  0.1415 -0.1813
   22MOL0     C 2961   2.475   6.607   1.261 -0.6136  0.6782 -0.7142
   22MOL0     C 2962   2.571   6.486   1.268  0.1931 -1.9465 -0.5086
   22MOL0     C 2963   2.636   6.389   1.282  0.6174 -0.2096 -0.7453
   22MOL0     C 2964   2.137   6.887   1.760 -0.6695  0.6369  0.3777
   22MOL0     C 2965   2.050   6.902   1.867 -0.6597 -1.2043 -1.4688
   22MOL0     C 2966   2.050   7.043   1.929  0.2377 -0.8683  0.4258
   22MOL0     H 2967   1.921   6.803   2.344  0.2638  0.7285  1.7334
   22MOL0     H 2968   1.793   6.787   2.515 -0.6448  0.2408  0.5839
   22MOL0     H 2969   1.385   6.796   2.427 -3.7554  2.6166 -1.6267
   22MOL0     H 2970   1.336   6.924   2.541  0.7918  0.6071 -1.2165
   22MOL0     H 2971   1.467   6.660   2.606 -0.4295 -1.3515  4.3580
   22MOL0     H 2972   1.421   6.768   2.728  2.4708 -0.2217 -0.4127
   22MOL0     H 2973   1.264   6.590   2.534  0.4204 -0.3971 -0.4593
   22MOL0     H 2974   1.269   6.582   2.711  0.3628 -2.4781 -1.8907
   22MOL0     H 2975   1.127   6.820   2.686 -3.8218  1.9120 -2.9643
   22MOL0     H 2976   1.140   6.801   2.517  2.0378  0.6730  1.1783
   22MOL0     H 2977   0.992   6.607   2.714  1.9572 -0.3980  0.0973
   22MOL0     H 2978   1.027   6.565   2.554  2.0879  1.3003 -1.6707
   22MOL0     H 2979   0.902   6.765   2.460  0.5107 -0.6349 -0.2031
   22MOL0     H 2980   0.799   6.649   2.561 -0.2162 -0.3998  0.0087
   22MOL0     H 2981   0.920   6.910   2.639  0.0246 -0.0098 -6.1023
   22MOL0     H 2982   0.810   6.816   2.749 -0.4070  1.9707  0.6911
   22MOL0     H 2983   0.758   6.927   2.470 -0.6389 -0.7076  0.1055
   22MOL0     H 2984   0.653   6.830   2.546  0.8373 -1.0592  0.2154
   22MOL0     H 2985   0.861   7.143   2.589 -0.2362  0.2934  0.9786
   22MOL0     H 2986   0.830   7.374   2.734 -0.2151 -1.1276  0.8425
   22MOL0     H 2987   0.664   7.417   2.782 -0.4657  0.0090  0.0222
   22MOL0     H 2988   0.739   7.578   2.626  0.0692  0.0887  0.1480
   22MOL0     H 2989   0.814   7.473   2.518 -0.1209  1.2387  0.1369
   22MOL0     H 2990   0.583   7.362   2.444  0.3549 -0.0728  0.9060
   22MOL0     H 2991   0.510   7.468   2.570  0.8686  1.1550  0.5477
   22MOL0     H 2992   0.456   7.548   2.360 -0.2790 -0.5260  3.7371
   22MOL0     H 2993   0.589   7.662   2.425 -2.2043 -0.0303  0.6484
   22MOL0     H 2994   0.924   7.577   2.221  1.1020  0.5157 -0.8724
   22MOL0     H 2995   1.092   7.722   2.209 -1.4930  0.5611  1.3725
   22MOL0     H 2996   1.027   7.881   2.245 -0.1066  2.4916 -2.1862
   22MOL0     H 2997   1.082   7.856   2.083  1.5392 -0.8793 -0.2012
   22MOL0     H 2998   1.064   8.234   2.123 -1.7395  3.3345  0.2316
   22MOL0     H 2999   1.077   8.450   2.051 -0.5629 -0.5172 -0.2598
   22MOL0     H 3000   1.031   8.662   1.923 -1.5629  1.3754 -3.2169
   22MOL0     H 3001   1.200   8.589   1.910  1.9708  1.9389 -2.1941
   22MOL0     H 3002   1.114   8.835   1.841  1.1373  0.5294 -0.6203
   22MOL0     H 3003   1.245   8.764   1.756  1.2264  4.0064  2.2873
   22MOL0     H 3004   0.953   8.726   1.650 -0.1267 -2.1325 -1.3076
   22MOL0     H 3005   1.095   8.703   1.556  0.9366 -2.4479  1.8189
   22MOL0     H 3006   1.132   8.959   1.584  0.2969  1.8054  3.8010
   22MOL0     H 3007   0.998   8.971   1.683 -2.3355  0.7288 -1.8020
   22MOL0     H 3008   0.858   8.903   1.466 -1.1387  4.6533  2.1612
   22MOL0     H 3009   0.968   9.047   1.466 -2.4478  0.9956  1.6110
   22MOL0     H 3010   1.019   8.781   1.370  4.8648 -0.0525 -0.1685
   22MOL0     H 3011   1.136   8.906   1.374  0.9778  0.3071 -1.3975
   22MOL0     H 3012   0.879   9.006   1.262  1.0239  1.1193 -0.1291
   22MOL0     H 3013   0.953   8.867   1.170 -0.2744  0.6534 -1.2145
   22MOL0     H 3014   1.022   9.086   1.075  1.6789 -1.9331 -1.9204
   22MOL0     H 3015   1.164   8.992   1.136  1.2792  2.0219  1.2310
   22MOL0     H 3016   0.944   8.352   1.660  3.4401 -2.1268 -1.6017
   22MOL0     H 3017   0.886   8.112   1.758 -0.1798  0.3190  0.8216
   22MOL0     H 3018   0.573   7.904   2.078 -0.3844  0.1694  1.1149
   22MOL0     H 3019   0.509   7.713   2.180 -0.7337 -1.2849  0.7172
   22MOL0     H 3020   1.483   7.004   2.326 -0.2809 -0.6148  0.2627
   22MOL0     H 3021   1.617   7.025   2.120 -0.7149 -1.6308 -1.0391
   22MOL0     H 3022   1.894   6.605   1.870  1.7784 -0.6587  0.3247
   22MOL0     H 3023   2.046   6.575   1.666  1.5048 -0.8786 -0.6990
   22MOL0     H 3024   2.255   6.922   1.523 -1.7382 -1.1903 -3.4647
   22MOL0     H 3025   2.389   6.832   1.603  0.7166 -2.3249 -1.6184
   22MOL0     H 3026   2.430   6.872   1.354  1.6021 -1.7393  0.0194
   22MOL0     H 3027   2.281   6.769   1.326 -2.6791 -1.4447  2.9182
   22MOL0     H 3028   2.562   6.699   1.442 -0.8801  0.3414  0.7014
   22MOL0     H 3029   2.439   6.580   1.472  0.7041 -0.5473 -0.4721
   22MOL0     H 3030   2.509   6.682   1.190 -0.2065  1.1711 -0.0062
   22MOL0     H 3031   2.377   6.574   1.225  0.3764 -2.1685 -1.0365
   22MOL0     H 3032   2.668   6.287   1.290  2.2310  0.2291 -1.2447
   22MOL0     H 3033   2.213   6.963   1.750 -0.3921  0.4846  1.2365
   22MOL0     H 3034   1.953   7.090   1.914  2.0288  3.3770  0.4794
   22MOL0     H 3035   2.071   7.038   2.036  1.2302 -1.2527  0.2288
   22MOL0     H 3036   2.124   7.108   1.880 -1.0119 -2.0356 -3.3270
   23MOL0     O 3037   2.289   1.299   3.371 -0.3500 -0.1942 -0.1628
   23MOL0     C 3038   2.170   1.320   3.369  0.3108 -0.9566  0.0477
   23MOL0     O 3039   2.077   1.233   3.350 -0.2023  0.4899  0.2741
   23MOL0     C 3040   2.119   1.098   3.360  0.2245 -0.2364 -0.5153
   23MOL0     C 3041   2.161   1.027   3.244  0.7861  0.7670  0.1297
   23MOL0     C 3042   2.204   0.886   3.252  0.3851 -0.0712 -0.7177
   23MOL0     C 3043   2.188   0.823   3.375  0.0868 -0.0543 -0.2475
   23MOL0     O 3044   2.228   0.700   3.403 -0.1028 -0.7509 -0.0761
   23MOL0     C 3045   2.291   0.624   3.296 -0.9632 -0.1287  0.6459
   23MOL0     C 3046   2.296   0.469   3.325  0.8153 -1.1038  0.5710
   23MOL0     C 3047   2.379   0.399   3.229 -0.2672 -0.9193  1.0582
   23MOL0     C 3048   2.311   0.361   3.096 -0.2522 -0.3840  0.5809
   23MOL0     C 3049   2.389   0.259   3.020  0.4191  0.8041  0.0786
   23MOL0     C 3050   2.348   0.260   2.871  1.0628 -1.0308  0.1915
   23MOL0     C 3051   2.383   0.381   2.782 -0.4652 -0.1769 -0.1789
   23MOL0     C 3052   2.496   0.348   2.681 -1.0953 -0.1727  0.4427
   23MOL0     N 3053   2.623   0.303   2.738  0.0905 -0.7113 -0.4855
   23MOL0     C 3054   2.654   0.189   2.809  0.0032 -0.3464  0.4624
   23MOL0     C 3055   2.787   0.206   2.841 -1.0344  0.3693 -0.5904
   23MOL0     C 3056   2.897   0.114   2.901 -0.1637 -0.4211  0.5557
   23MOL0     C 3057   2.902   0.130   3.054 -0.4060 -0.5635  0.3728
   23MOL0     C 3058   2.829   0.015   3.122 -0.0024 -0.4186 -0.6964
   23MOL0     C 3059   2.783   0.037   3.268  1.0067 -0.0590 -0.0451
   23MOL0     O 3060   2.871   0.123   3.339  0.0064  0.1380 -0.0879
   23MOL0     C 3061   2.824   0.158   3.465 -0.0112  1.0870 -0.5669
   23MOL0     C 3062   2.702   0.102   3.520 -0.1597 -0.3751  0.0339
   23MOL0     C 3063   2.663   0.130   3.656  0.6176  0.6531  0.9305
   23MOL0     C 3064   2.536   0.063   3.698 -0.5003 -0.5857 -0.4797
   23MOL0     C 3065   2.741   0.224   3.731 -0.1408 -0.6899 -0.2491
   23MOL0     C 3066   2.701   0.260   3.863  0.1865  0.7223 -0.3234
   23MOL0     O 3067   2.811   0.268   3.952  0.2043 -0.2969 -0.0787
   23MOL0     C 3068   2.800   0.275   4.086  0.2409 -0.0161  0.5881
   23MOL0     C 3069   2.678   0.278   4.167 -0.9531  0.2354  0.2319
   23MOL0     C 3070   2.681   0.281   4.303 -0.6203 -0.2483  0.1281
   23MOL0     C 3071   2.799   0.270   4.376 -0.3678  0.1501 -0.1106
   23MOL0     O 3072   2.786   0.272   4.511  0.3494 -0.8407 -0.6605
   23MOL0     C 3073   2.874   0.184   4.574 -0.3866 -0.1547 -0.7142
   23MOL0     C 3074   2.817   0.139   4.716 -0.2645 -0.0943  0.8904
   23MOL0     C 3075   2.803   0.244   4.824  0.4846 -0.0292 -0.6998
   23MOL0     C 3076   2.746   0.192   4.958 -0.2486 -0.2210 -0.0532
   23MOL0     C 3077   2.742   0.296   5.077 -0.1901 -0.3100 -1.1276
   23MOL0     C 3078   2.852   0.409   5.098  0.4255 -0.6866  0.8418
   23MOL0     C 3079   2.829   0.519   5.213 -0.5443 -0.0512  0.6118
   23MOL0     C 3080   2.943   0.512   5.316  0.0772  0.3497  1.3800
   23MOL0    Cl 3081   2.954   0.356   5.406 -0.0920 -0.4123 -0.2711
   23MOL0     C 3082   2.916   0.271   4.309 -0.2100  0.2888  0.3092
   23MOL0     C 3083   2.915   0.273   4.163 -0.6373 -0.7519 -0.3884
   23MOL0     O 3084   2.581   0.283   3.889  0.0723 -0.0194 -1.2977
   23MOL0     C 3085   2.855   0.277   3.680 -0.3066  0.1161 -0.1964
   23MOL0     C 3086   2.897   0.236   3.555  0.0959 -0.7367 -0.5455
   23MOL0     N 3087   2.831   0.331   2.796  0.4099 -0.1184 -0.0762
   23MOL0     N 3088   2.731   0.386   2.739  0.0660 -1.0513 -0.0010
   23MOL0     C 3089   2.135   0.892   3.480 -0.5966  0.4996 -0.7426
   23MOL0     C 3090   2.107   1.024   3.479  0.1542  0.5959 -0.2909
   23MOL0     C 3091   2.124   1.461   3.396  0.3915  0.1985 -0.1254
   23MOL0     C 3092   2.192   1.566   3.333 -0.8758  0.4355 -0.3122
   23MOL0     C 3093   2.156   1.703   3.349 -0.4598 -0.0274  0.8617
   23MOL0     C 3094   2.055   1.741   3.428  0.8454 -0.0581 -0.1433
   23MOL0     O 3095   2.001   1.868   3.449 -0.9723  0.7301 -0.1432
   23MOL0     C 3096   2.076   1.967   3.378 -0.5667  1.3792 -1.2959
   23MOL0     C 3097   2.035   2.109   3.394 -0.1501 -0.5766  0.6296
   23MOL0     C 3098   2.040   2.162   3.533 -0.4385  0.4083  0.1967
   23MOL0     C 3099   1.995   2.311   3.535  0.0884 -0.6050  0.0137
   23MOL0     C 3100   2.043   2.366   3.668 -0.0388  0.4898 -0.2707
   23MOL0     C 3101   2.106   2.412   3.766  0.0638  1.2715 -0.7414
   23MOL0     C 3102   1.983   1.635   3.500  1.0243 -0.5957 -0.5063
   23MOL0     C 3103   2.025   1.501   3.488  0.6143 -0.6785  0.2469
   23MOL0     C 3104   1.966   1.399   3.578  0.1954  0.1788 -0.0047
   23MOL0     H 3105   2.169   1.074   3.146  0.3674 -0.6977 -0.6409
   23MOL0     H 3106   2.260   0.853   3.165  0.7918 -1.9339  0.2089
   23MOL0     H 3107   2.394   0.660   3.302 -1.3485  0.8581  1.4809
   23MOL0     H 3108   2.250   0.646   3.197 -0.6252  1.5151  0.8510
   23MOL0     H 3109   2.348   0.470   3.421 -0.4761  0.1164  1.2951
   23MOL0     H 3110   2.202   0.415   3.337  0.1605 -0.6683 -2.0788
   23MOL0     H 3111   2.461   0.461   3.190 -0.6012 -2.2921 -2.0951
   23MOL0     H 3112   2.416   0.308   3.277 -2.0064 -1.4189  1.5242
   23MOL0     H 3113   2.208   0.330   3.114 -0.4184 -1.5110 -1.8339
   23MOL0     H 3114   2.309   0.450   3.033  1.8894 -1.0308 -0.5035
   23MOL0     H 3115   2.372   0.161   3.065  0.4656 -0.4136 -2.3563
   23MOL0     H 3116   2.496   0.279   3.026  0.4932  0.9416 -1.3204
   23MOL0     H 3117   2.379   0.168   2.821 -1.5490 -0.4805 -2.7619
   23MOL0     H 3118   2.239   0.251   2.866  0.9369  0.7508 -1.3085
   23MOL0     H 3119   2.432   0.451   2.852 -0.7681  0.1549 -0.2954
   23MOL0     H 3120   2.294   0.429   2.741  0.9224  0.1426 -3.0298
   23MOL0     H 3121   2.469   0.275   2.604  0.4667  2.5259 -2.9538
   23MOL0     H 3122   2.521   0.436   2.621 -0.7278 -0.3376  0.3532
   23MOL0     H 3123   2.592   0.102   2.827 -2.4381  1.3120  0.7245
   23MOL0     H 3124   3.000   0.135   2.873  1.0846 -5.3225  0.6487
   23MOL0     H 3125   2.872   0.014   2.865 -0.1976  0.7038 -2.8850
   23MOL0     H 3126   3.003   0.143   3.091 -0.4545 -0.3073  0.4190
   23MOL0     H 3127   2.866   0.230   3.081  3.4849  1.2486 -0.4769
   23MOL0     H 3128   2.743  -0.021   3.064  1.5227 -2.3538 -1.9032
   23MOL0     H 3129   2.909  -0.059   3.135  1.2894  1.5201  6.3263
   23MOL0     H 3130   2.680   0.073   3.255  0.4394 -1.4212  0.3987
   23MOL0     H 3131   2.781  -0.060   3.318  1.1357  1.4095  3.0170
   23MOL0     H 3132   2.642   0.027   3.470  1.2741 -2.2049  0.9324
   23MOL0     H 3133   2.504  -0.015   3.628  0.1417 -0.4755 -0.9061
   23MOL0     H 3134   2.464   0.145   3.712  1.7572  1.1849  1.6273
   23MOL0     H 3135   2.552   0.010   3.792  1.5237  0.7834  0.0060
   23MOL0     H 3136   2.580   0.276   4.120 -2.7175 -3.7174  3.4751
   23MOL0     H 3137   2.589   0.282   4.361 -0.6209 -2.1531  0.2281
   23MOL0     H 3138   2.898   0.097   4.511 -1.1448  0.5938 -2.0893
   23MOL0     H 3139   2.967   0.231   4.608 -2.5906  2.1966  2.7535
   23MOL0     H 3140   2.722   0.085   4.707  1.4552 -2.9411 -2.4904
   23MOL0     H 3141   2.885   0.069   4.765 -2.0910 -3.9613 -1.6102
   23MOL0     H 3142   2.738   0.324   4.789 -1.0124 -1.2123 -0.7153
   23MOL0     H 3143   2.907   0.276   4.832 -0.1181  2.3094 -1.4335
   23MOL0     H 3144   2.805   0.106   4.991 -1.9953 -1.4541  0.0131
   23MOL0     H 3145   2.644   0.160   4.938 -0.3091  0.9622 -1.8422
   23MOL0     H 3146   2.642   0.340   5.065 -0.3944  1.4202  4.3372
   23MOL0     H 3147   2.738   0.234   5.167  1.2562  1.2702  0.0740
   23MOL0     H 3148   2.849   0.468   5.006  1.5853 -3.1697 -0.8754
   23MOL0     H 3149   2.957   0.385   5.113  0.9068 -1.1386 -2.5067
   23MOL0     H 3150   2.728   0.498   5.248  0.1860 -3.3955  1.0588
   23MOL0     H 3151   2.821   0.621   5.174  1.0083 -0.6575 -1.4273
   23MOL0     H 3152   2.930   0.591   5.391 -1.0938  1.2700  0.2604
   23MOL0     H 3153   3.036   0.544   5.269 -0.3044  3.1311  2.3080
   23MOL0     H 3154   3.010   0.269   4.364  1.4819  0.1409 -2.4078
   23MOL0     H 3155   3.016   0.281   4.125  0.5403 -1.6795  2.2641
   23MOL0     H 3156   2.910   0.345   3.743 -0.6756 -0.4846  0.8067
   23MOL0     H 3157   2.995   0.264   3.517 -0.3178  2.6820  0.5411
   23MOL0     H 3158   2.108   0.834   3.567  2.0498 -2.6826 -1.8312
   23MOL0     H 3159   2.058   1.071   3.564 -0.0938  0.3976 -0.3239
   23MOL0     H 3160   2.279   1.547   3.270  0.4903  1.2071  1.2455
   23MOL0     H 3161   2.218   1.765   3.286  1.1574 -0.9235  1.5113
   23MOL0     H 3162   2.185   1.961   3.393 -0.7981 -1.4225 -0.1882
   23MOL0     H 3163   2.066   1.947   3.271  0.0974  0.3302 -1.1759
   23MOL0     H 3164   1.929   2.109   3.365  0.3321  1.5715 -1.5456
   23MOL0     H 3165   2.094   2.167   3.322  0.1986  1.5330  2.4921
   23MOL0     H 3166   1.985   2.103   3.607 -1.9603 -1.0553 -1.9909
   23MOL0     H 3167   2.147   2.162   3.556 -0.5924  0.7565  0.9629
   23MOL0     H 3168   1.889   2.326   3.517 -0.8506 -4.2169  1.4940
   23MOL0     H 3169   2.065   2.363   3.469  1.5247 -3.7894 -1.1992
   23MOL0     H 3170   2.151   2.455   3.853 -0.6375 -0.6574  0.6446
   23MOL0     H 3171   1.918   1.650   3.586 -0.4406 -3.2133 -1.0332
   23MOL0     H 3172   2.042   1.368   3.650 -0.3334  1.4856  1.1557
   23MOL0     H 3173   1.885   1.446   3.636 -0.8869 -0.7427 -0.7152
   23MOL0     H 3174   1.918   1.317   3.523  1.3973 -2.7669  2.9770
   24MOL0     O 3175   0.922   2.768  10.396 -0.3742 -1.0282 -0.9399
   24MOL0     C 3176   0.907   2.863  10.321  0.4949 -0.4878  0.2157
   24MOL0     O 3177   0.987   2.880  10.208  0.1166 -0.9392  0.8776
   24MOL0     C 3178   1.049   2.767  10.150  0.6258 -0.4522 -0.5357
   24MOL0     C 3179   1.134   2.801  10.040  1.1185 -0.1519  0.8980
   24MOL0     C 3180   1.226   2.702   9.982  0.0214 -0.4786 -0.0803
   24MOL0     C 3181   1.235   2.579  10.038  0.9704 -0.5254 -0.4100
   24MOL0     O 3182   1.319   2.493   9.972 -0.2148 -0.0027 -0.6518
   24MOL0     C 3183   1.371   2.374  10.045  0.9826  0.3057  0.1310
   24MOL0     C 3184   1.452   2.283   9.957  0.2299  1.5866 -0.0131
   24MOL0     C 3185   1.586   2.335   9.901  0.7927  0.5600  0.0985
   24MOL0     C 3186   1.639   2.255   9.780  0.7844  0.1014 -1.1346
   24MOL0     C 3187   1.555   2.264   9.649  0.9939 -0.5849  0.5441
   24MOL0     C 3188   1.629   2.185   9.538  0.6013 -0.3964 -0.4061
   24MOL0     C 3189   1.753   2.261   9.483 -0.3502 -0.8342  0.0389
   24MOL0     C 3190   1.816   2.164   9.369  0.1286 -0.3973 -0.1348
   24MOL0     N 3191   1.733   2.164   9.249  0.9261  0.7771 -0.2749
   24MOL0     C 3192   1.702   2.272   9.161 -0.3663  1.0627  0.0911
   24MOL0     C 3193   1.613   2.220   9.075  1.2334 -1.2402  1.6601
   24MOL0     C 3194   1.551   2.277   8.953  0.4093 -1.1148  0.0680
   24MOL0     C 3195   1.513   2.426   8.969 -0.5928 -0.1860  0.4599
   24MOL0     C 3196   1.494   2.490   8.828  0.8027 -0.3582  0.0886
   24MOL0     C 3197   1.420   2.415   8.714 -0.4291 -0.6150 -1.2594
   24MOL0     O 3198   1.280   2.401   8.745 -0.4265  0.9193 -0.5008
   24MOL0     C 3199   1.188   2.347   8.658  0.1454  0.1149  0.6304
   24MOL0     C 3200   1.214   2.277   8.539 -0.4768 -1.1146  0.1445
   24MOL0     C 3201   1.115   2.221   8.466  1.0481  0.0997 -1.3423
   24MOL0     C 3202   1.153   2.176   8.333  0.0022  0.2395  0.5777
   24MOL0     C 3203   0.983   2.229   8.509 -0.3839  0.1741  0.0593
   24MOL0     C 3204   0.865   2.167   8.432  0.6961 -0.4474 -0.3920
   24MOL0     O 3205   0.735   2.205   8.475 -0.5198  0.4034  0.0915
   24MOL0     C 3206   0.638   2.142   8.409  0.2480 -0.0621  0.3738
   24MOL0     C 3207   0.557   2.045   8.480  0.0071 -0.8116 -0.1278
   24MOL0     C 3208   0.442   1.993   8.424  0.1743  0.1204  1.3680
   24MOL0     C 3209   0.399   2.046   8.310  0.0744 -0.0968  0.1662
   24MOL0     O 3210   0.269   2.019   8.257 -0.1018 -0.2822  0.3671
   24MOL0     C 3211   0.156   2.018   8.337  0.9244 -0.1491 -0.7353
   24MOL0     C 3212   0.036   1.989   8.234  0.1317 -0.2271 -1.2216
   24MOL0     C 3213  -0.041   2.105   8.161 -0.2523  0.1235 -0.7356
   24MOL0     C 3214  -0.082   2.058   8.019  0.0420 -0.0679 -0.1633
   24MOL0     C 3215  -0.109   2.163   7.923  0.1718 -0.2501  0.3985
   24MOL0     C 3216  -0.001   2.252   7.891 -0.9869 -0.2408 -0.0445
   24MOL0     C 3217  -0.029   2.360   7.781  0.1560 -0.5049 -0.3531
   24MOL0     C 3218  -0.002   2.327   7.639  0.1041 -0.2345  0.5655
   24MOL0    Cl 3219  -0.093   2.189   7.586  0.4777 -0.2427 -0.2333
   24MOL0     C 3220   0.473   2.141   8.232 -0.2379  0.5385  0.4963
   24MOL0     C 3221   0.600   2.184   8.284 -0.6858  0.7653  0.6882
   24MOL0     O 3222   0.885   2.080   8.348  0.2244  0.2927 -0.3582
   24MOL0     C 3223   0.953   2.315   8.612 -0.5775 -0.0857 -1.1500
   24MOL0     C 3224   1.059   2.361   8.698  0.7276 -0.4652  0.0546
   24MOL0     N 3225   1.581   2.092   9.114  0.4074  0.0237 -0.3123
   24MOL0     N 3226   1.661   2.057   9.206  0.0435 -0.3635 -0.1706
   24MOL0     C 3227   1.154   2.539  10.146 -0.0242 -0.5869 -0.1330
   24MOL0     C 3228   1.057   2.627  10.197  0.5670  0.0103 -0.3530
   24MOL0     C 3229   0.796   2.956  10.340  0.6882 -0.5270  1.3789
   24MOL0     C 3230   0.729   2.965  10.463 -0.1917  0.3885  0.0290
   24MOL0     C 3231   0.630   3.044  10.498  0.1701 -0.3884 -0.5312
   24MOL0     C 3232   0.577   3.124  10.392  0.2811 -0.3440  0.6653
   24MOL0     O 3233   0.473   3.211  10.407  0.5287  0.4035 -0.8650
   24MOL0     C 3234   0.403   3.197  10.532  0.0671 -0.1181  0.3926
   24MOL0     C 3235   0.272   3.283  10.539 -0.4714  0.7521 -0.0464
   24MOL0     C 3236   0.162   3.240  10.439 -0.2720 -0.7420 -0.3737
   24MOL0     C 3237   0.035   3.313  10.474  0.5302 -0.5267 -0.1303
   24MOL0     C 3238  -0.075   3.269  10.396  0.1278 -0.3064 -0.2209
   24MOL0     C 3239  -0.181   3.242  10.341 -0.1171  0.3276  0.8586
   24MOL0     C 3240   0.634   3.122  10.266  0.2000 -0.2170  0.0369
   24MOL0     C 3241   0.757   3.053  10.242  0.2469 -0.5757 -0.0665
   24MOL0     C 3242   0.811   3.084  10.099  0.9200  0.7008 -0.2272
   24MOL0     H 3243   1.142   2.901   9.998 -0.2991 -1.1415 -1.9724
   24MOL0     H 3244   1.286   2.725   9.894  0.3329  1.3943  0.5821
   24MOL0     H 3245   1.291   2.315  10.092  0.2323  0.7851 -0.5233
   24MOL0     H 3246   1.426   2.426  10.125 -0.9441  2.2868  0.2673
   24MOL0     H 3247   1.482   2.197  10.017  0.7655  1.1143 -0.9312
   24MOL0     H 3248   1.392   2.247   9.872 -0.3012  2.7096 -0.1447
   24MOL0     H 3249   1.558   2.433   9.862 -0.2292 -0.4673 -1.8741
   24MOL0     H 3250   1.646   2.342   9.992 -2.2123 -0.9251  2.3948
   24MOL0     H 3251   1.744   2.279   9.760  0.7034 -1.8644 -4.7097
   24MOL0     H 3252   1.638   2.148   9.802  0.0398  0.8188  3.2144
   24MOL0     H 3253   1.553   2.367   9.614  0.3674 -0.9232 -0.4454
   24MOL0     H 3254   1.453   2.226   9.663  0.6481  0.3171  0.4919
   24MOL0     H 3255   1.658   2.084   9.569  2.2992 -0.0679 -0.8239
   24MOL0     H 3256   1.547   2.165   9.468 -2.1980  1.3034  2.1886
   24MOL0     H 3257   1.833   2.282   9.554 -0.3728  0.9452 -0.4229
   24MOL0     H 3258   1.715   2.355   9.441  1.2330 -1.1968 -2.4095
   24MOL0     H 3259   1.915   2.205   9.346  0.5891 -0.7993  1.0585
   24MOL0     H 3260   1.832   2.065   9.412 -0.1329 -0.0729  0.7425
   24MOL0     H 3261   1.765   2.360   9.169  2.5755 -0.8343 -0.7388
   24MOL0     H 3262   1.464   2.212   8.940 -1.7424  1.8894 -2.1023
   24MOL0     H 3263   1.628   2.260   8.878 -0.9535 -0.1593 -1.6365
   24MOL0     H 3264   1.418   2.442   9.020 -0.0091 -1.0283  1.8580
   24MOL0     H 3265   1.594   2.479   9.020 -0.8028  0.0455  0.5590
   24MOL0     H 3266   1.451   2.588   8.850 -1.9091 -1.5177  0.3510
   24MOL0     H 3267   1.595   2.504   8.787  0.6816 -2.7013 -1.1895
   24MOL0     H 3268   1.418   2.482   8.627 -4.7590  0.8534 -0.2548
   24MOL0     H 3269   1.466   2.320   8.684 -0.7887 -1.2228  0.0252
   24MOL0     H 3270   1.313   2.269   8.496 -0.9177 -1.3300 -0.8711
   24MOL0     H 3271   1.099   2.242   8.265 -1.4130  0.0375  1.4555
   24MOL0     H 3272   1.125   2.070   8.320  0.4029  0.0719  1.0544
   24MOL0     H 3273   1.261   2.187   8.322  0.4874  0.6899  4.4570
   24MOL0     H 3274   0.576   2.033   8.586 -3.6306 -0.0164  0.7525
   24MOL0     H 3275   0.377   1.927   8.481 -1.1201 -0.0693 -0.2381
   24MOL0     H 3276   0.163   1.951   8.423 -0.0055  1.3232  0.5453
   24MOL0     H 3277   0.147   2.118   8.381  0.0425 -1.2589  1.7995
   24MOL0     H 3278   0.071   1.904   8.175  2.4167 -0.5052  0.3930
   24MOL0     H 3279  -0.049   1.953   8.293 -0.9686  1.2141 -1.8685
   24MOL0     H 3280   0.041   2.177   8.153 -2.6075  2.9110 -1.7063
   24MOL0     H 3281  -0.115   2.154   8.224 -0.3587 -0.0451 -0.7304
   24MOL0     H 3282  -0.174   1.999   8.030 -1.4921  2.3553  0.5896
   24MOL0     H 3283   0.002   1.996   7.987  3.2217  2.8244  1.9300
   24MOL0     H 3284  -0.151   2.122   7.831  2.3087 -0.2059 -0.6521
   24MOL0     H 3285  -0.188   2.232   7.955 -0.4738 -1.0266  0.5243
   24MOL0     H 3286   0.084   2.192   7.855 -3.5017 -1.8789 -3.9355
   24MOL0     H 3287   0.042   2.310   7.973 -0.3701 -1.1228  0.2771
   24MOL0     H 3288   0.027   2.450   7.808 -1.0457  0.9507 -2.4611
   24MOL0     H 3289  -0.136   2.384   7.788  0.2319  0.0882 -1.1900
   24MOL0     H 3290   0.106   2.314   7.625  0.4565  2.4768  0.1572
   24MOL0     H 3291  -0.024   2.408   7.568  3.9769  0.0025 -0.6173
   24MOL0     H 3292   0.430   2.163   8.135 -0.1049 -1.7299 -0.1457
   24MOL0     H 3293   0.665   2.242   8.219  0.2626 -3.8075 -3.0231
   24MOL0     H 3294   0.852   2.336   8.646 -1.4389 -0.9928 -3.0209
   24MOL0     H 3295   1.029   2.410   8.790 -2.5588 -2.3768  0.1517
   24MOL0     H 3296   1.149   2.435  10.179 -2.1186 -1.4838 -2.8327
   24MOL0     H 3297   0.991   2.577  10.267 -1.6031 -0.5667 -2.6728
   24MOL0     H 3298   0.755   2.897  10.544 -0.0700 -0.1601 -0.4639
   24MOL0     H 3299   0.578   3.039  10.594  0.7637 -3.5712 -0.2576
   24MOL0     H 3300   0.373   3.092  10.537  1.0335 -0.5088 -1.3017
   24MOL0     H 3301   0.469   3.218  10.617 -0.4914  0.3120  0.7314
   24MOL0     H 3302   0.306   3.384  10.515  0.4256  0.2636 -0.8835
   24MOL0     H 3303   0.243   3.280  10.644 -0.9654 -0.6710 -0.1968
   24MOL0     H 3304   0.209   3.254  10.342  0.9192 -2.6933 -0.1305
   24MOL0     H 3305   0.147   3.131  10.439 -1.5347 -0.6001 -1.6683
   24MOL0     H 3306   0.054   3.417  10.446  1.1368 -0.6446 -0.1651
   24MOL0     H 3307  -0.000   3.296  10.576 -1.6194 -1.8500 -1.0084
   24MOL0     H 3308  -0.269   3.215  10.286 -0.2538 -0.9306  1.6584
   24MOL0     H 3309   0.596   3.202  10.203  0.7857  0.8835  1.0529
   24MOL0     H 3310   0.776   3.182  10.065  3.1821  1.5610 -0.2787
   24MOL0     H 3311   0.921   3.085  10.092  1.1849 -5.1912 -3.5119
   24MOL0     H 3312   0.769   3.017  10.024  2.9313  1.1334 -1.8446
   25MOL0     O 3313  10.918   7.645  10.536 -0.0602  0.2039  0.1410
   25MOL0     C 3314  10.873   7.648  10.650  0.1600  0.3106 -0.1491
   25MOL0     O 3315  10.750   7.599  10.677  0.3451 -0.5350 -0.6819
   25MOL0     C 3316  10.665   7.540  10.582  0.3358  0.5851 -1.7283
   25MOL0     C 3317  10.655   7.405  10.560  0.8520  0.0613  0.4317
   25MOL0     C 3318  10.539   7.352  10.495  0.7238  0.2866  0.1170
   25MOL0     C 3319  10.458   7.435  10.411 -0.6437  0.3200  0.1295
   25MOL0     O 3320  10.347   7.393  10.349  0.2209  0.5168 -0.6819
   25MOL0     C 3321  10.368   7.351  10.215 -0.2288 -0.5445 -0.3622
   25MOL0     C 3322  10.352   7.470  10.112  0.3588 -0.6077 -0.2329
   25MOL0     C 3323  10.349   7.421   9.960  0.5625 -0.0929  0.4441
   25MOL0     C 3324  10.304   7.532   9.865  0.2791  0.3972 -0.2320
   25MOL0     C 3325  10.164   7.507   9.805  0.2416  0.9052 -0.8916
   25MOL0     C 3326  10.116   7.605   9.699  0.3573  0.8043 -0.1941
   25MOL0     C 3327   9.970   7.605   9.671  0.9517  0.5159  0.6809
   25MOL0     C 3328   9.939   7.722   9.570  0.3947 -0.1332 -0.8278
   25MOL0     N 3329   9.796   7.731   9.540  0.3283  0.0318  0.6679
   25MOL0     C 3330   9.701   7.633   9.551  0.1093 -0.5773  0.0829
   25MOL0     C 3331   9.589   7.688   9.503 -1.0849 -0.7921  0.0282
   25MOL0     C 3332   9.459   7.615   9.473 -0.3731  0.7409  0.2163
   25MOL0     C 3333   9.452   7.620   9.318 -0.1000 -0.7711 -0.4227
   25MOL0     C 3334   9.333   7.542   9.268 -0.4979 -0.1157 -0.1892
   25MOL0     C 3335   9.329   7.538   9.111  0.5296 -0.3708 -1.4648
   25MOL0     O 3336   9.286   7.658   9.051  0.4528 -0.1209 -0.8472
   25MOL0     C 3337   9.170   7.718   9.086 -0.0519 -0.2659 -1.5459
   25MOL0     C 3338   9.157   7.852   9.061  0.2290 -0.3635 -0.2260
   25MOL0     C 3339   9.052   7.929   9.112  1.0016  1.1737 -0.6740
   25MOL0     C 3340   9.045   8.079   9.126 -0.2167  0.3723  0.3585
   25MOL0     C 3341   8.939   7.850   9.170 -0.9481 -0.5654  0.2177
   25MOL0     C 3342   8.811   7.908   9.205 -0.4871  0.1387  0.1074
   25MOL0     O 3343   8.802   8.025   9.279  0.0496  0.2712 -0.5757
   25MOL0     C 3344   8.683   8.074   9.331 -0.5046  0.2763  0.4232
   25MOL0     C 3345   8.566   8.000   9.359  0.2228 -0.3475 -0.5359
   25MOL0     C 3346   8.456   8.066   9.427 -0.7931 -0.3047  0.1067
   25MOL0     C 3347   8.460   8.201   9.461  0.3262  0.6599 -0.2786
   25MOL0     O 3348   8.357   8.275   9.526 -0.1069 -0.1886 -0.0254
   25MOL0     C 3349   8.256   8.194   9.583 -0.0469  0.2122 -0.2347
   25MOL0     C 3350   8.166   8.278   9.673 -0.7788  0.7776  0.3299
   25MOL0     C 3351   8.114   8.404   9.613 -0.7993 -0.0534 -1.2500
   25MOL0     C 3352   8.020   8.360   9.499 -0.2865 -0.2685  0.3493
   25MOL0     C 3353   7.934   8.483   9.464 -0.6936 -0.8321  0.4003
   25MOL0     C 3354   7.838   8.466   9.343  0.3343 -0.2428  0.3671
   25MOL0     C 3355   7.754   8.597   9.326  0.3395 -0.9571  0.8783
   25MOL0     C 3356   7.644   8.590   9.209 -0.2478  0.7599 -0.8037
   25MOL0    Cl 3357   7.576   8.762   9.202  0.2772  0.0435 -0.2972
   25MOL0     C 3358   8.572   8.267   9.429  0.1189 -0.2561  0.5638
   25MOL0     C 3359   8.684   8.209   9.373 -0.2883 -0.0731 -0.9814
   25MOL0     O 3360   8.713   7.853   9.167  0.4083  1.1648 -0.3997
   25MOL0     C 3361   8.968   7.713   9.197  0.7479  0.7317  0.7501
   25MOL0     C 3362   9.077   7.641   9.153  0.3565 -0.3198  0.3258
   25MOL0     N 3363   9.610   7.821   9.471 -0.7651  0.0395  0.9454
   25MOL0     N 3364   9.734   7.847   9.503  1.1989  0.2231  0.5403
   25MOL0     C 3365  10.490   7.574  10.415 -0.5774  0.7005  0.8954
   25MOL0     C 3366  10.586   7.625  10.500  0.4781  0.2893 -0.3309
   25MOL0     C 3367  10.947   7.709  10.762 -0.6301 -0.6433  0.9340
   25MOL0     C 3368  10.901   7.673  10.896  0.3193 -0.2631  0.2542
   25MOL0     C 3369  10.971   7.721  11.007  0.0205 -0.7429 -0.7036
   25MOL0     C 3370  11.086   7.801  10.987 -0.0591 -0.4703  0.1208
   25MOL0     O 3371  11.148   7.828  11.104  0.9654  0.0031  1.1038
   25MOL0     C 3372  11.290   7.831  11.114 -0.0268 -0.5715  0.5145
   25MOL0     C 3373  11.352   7.699  11.146 -0.2141  0.8159 -0.1008
   25MOL0     C 3374  11.508   7.717  11.135  0.5474  0.5610 -0.0679
   25MOL0     C 3375  11.585   7.600  11.189  0.2914  0.4801  0.3838
   25MOL0     C 3376  11.545   7.474  11.127 -0.5302 -0.8681  0.4869
   25MOL0     C 3377  11.523   7.365  11.081  0.1595 -0.3671  0.4694
   25MOL0     C 3378  11.133   7.845  10.856  0.0208 -0.2425  0.6102
   25MOL0     C 3379  11.066   7.793  10.741 -0.0786 -0.1746 -0.0475
   25MOL0     C 3380  11.121   7.868  10.612  0.1210  0.4005 -0.4708
   25MOL0     H 3381  10.701   7.328  10.622  0.5225 -0.0648  0.5234
   25MOL0     H 3382  10.516   7.249  10.520  4.4304 -0.1467  2.3939
   25MOL0     H 3383  10.284   7.287  10.185  2.0193 -2.6138 -2.7919
   25MOL0     H 3384  10.452   7.281  10.222 -2.1847 -2.8532  3.3081
   25MOL0     H 3385  10.260   7.521  10.140  0.3701 -0.3275 -0.6980
   25MOL0     H 3386  10.437   7.538  10.126 -0.1625 -0.3656  2.2246
   25MOL0     H 3387  10.451   7.384   9.945 -0.1777 -2.2968  0.4257
   25MOL0     H 3388  10.277   7.340   9.942 -0.6738  0.9769  0.4648
   25MOL0     H 3389  10.315   7.626   9.920  0.8141 -1.3661  2.9717
   25MOL0     H 3390  10.383   7.534   9.790  0.7031 -1.6884  0.0919
   25MOL0     H 3391  10.090   7.491   9.884  0.3645  0.0637 -0.9375
   25MOL0     H 3392  10.173   7.412   9.751 -0.6365  1.2437 -1.6604
   25MOL0     H 3393  10.137   7.706   9.737  0.1117  1.7560 -2.4147
   25MOL0     H 3394  10.160   7.597   9.599  2.8310 -0.8032  0.9246
   25MOL0     H 3395   9.916   7.624   9.764 -2.4186 -0.1464 -0.9819
   25MOL0     H 3396   9.936   7.508   9.633 -1.3486  0.0193  3.6771
   25MOL0     H 3397   9.970   7.817   9.616 -1.1250  0.3082 -0.6558
   25MOL0     H 3398   9.997   7.703   9.480 -0.3937 -4.3866 -0.6555
   25MOL0     H 3399   9.714   7.530   9.582 -1.5677  0.0079  3.1310
   25MOL0     H 3400   9.380   7.679   9.512 -0.3658  1.7307 -1.2675
   25MOL0     H 3401   9.461   7.519   9.524  1.0907 -0.8910 -2.6326
   25MOL0     H 3402   9.426   7.723   9.292 -1.1600 -1.0714 -0.6191
   25MOL0     H 3403   9.536   7.574   9.266 -0.4589 -1.8100 -0.1102
   25MOL0     H 3404   9.331   7.438   9.301  0.0943 -0.5708 -1.5157
   25MOL0     H 3405   9.251   7.591   9.320 -0.1086  0.8082 -0.4125
   25MOL0     H 3406   9.434   7.532   9.079 -0.1270 -2.1359 -3.5233
   25MOL0     H 3407   9.272   7.455   9.069 -2.2383  0.8561 -0.3503
   25MOL0     H 3408   9.250   7.898   9.029  0.9491 -2.0672 -0.6940
   25MOL0     H 3409   8.943   8.108   9.101 -0.3091  1.4099  1.8121
   25MOL0     H 3410   9.118   8.133   9.065 -0.7956 -0.2628 -0.9294
   25MOL0     H 3411   9.056   8.103   9.232 -2.5470  1.5430  0.3996
   25MOL0     H 3412   8.549   7.895   9.334 -3.1831 -0.1342  0.4151
   25MOL0     H 3413   8.364   8.014   9.455 -1.3499  0.9639  0.6773
   25MOL0     H 3414   8.192   8.165   9.499 -0.5070 -0.5716  0.3737
   25MOL0     H 3415   8.307   8.122   9.647  0.6734  0.4825 -0.5025
   25MOL0     H 3416   8.079   8.227   9.715 -2.8911  5.0645  1.7432
   25MOL0     H 3417   8.225   8.299   9.763 -1.5020  0.6606  0.8407
   25MOL0     H 3418   8.187   8.478   9.577 -1.7063  2.0979  1.0048
   25MOL0     H 3419   8.062   8.459   9.691 -0.4854 -1.2498 -0.1629
   25MOL0     H 3420   7.951   8.286   9.541  0.6921 -2.6453 -1.9056
   25MOL0     H 3421   8.062   8.308   9.413 -0.5748 -0.5826  0.3913
   25MOL0     H 3422   7.867   8.515   9.545  0.6285 -3.6836  2.8170
   25MOL0     H 3423   7.987   8.578   9.450 -2.3377 -0.0045 -0.5545
   25MOL0     H 3424   7.777   8.377   9.363 -1.1236  0.9908  1.6807
   25MOL0     H 3425   7.901   8.455   9.254  2.9721 -0.0477  2.1041
   25MOL0     H 3426   7.822   8.680   9.307 -1.1397  0.4418  1.4234
   25MOL0     H 3427   7.702   8.617   9.420  1.5870  0.9697  1.2311
   25MOL0     H 3428   7.569   8.513   9.228  0.7568  0.1968  1.1261
   25MOL0     H 3429   7.696   8.566   9.116 -0.8023  1.4660 -1.3066
   25MOL0     H 3430   8.577   8.371   9.458  1.9951  0.5689 -2.2944
   25MOL0     H 3431   8.778   8.260   9.355 -0.7254 -0.1456 -3.8720
   25MOL0     H 3432   8.896   7.657   9.256 -0.8726  0.6577 -1.1856
   25MOL0     H 3433   9.088   7.535   9.173 -2.0273 -1.1680 -2.3666
   25MOL0     H 3434  10.447   7.649  10.348  2.1871  0.5476 -1.2447
   25MOL0     H 3435  10.614   7.729  10.497  2.0308 -0.0328  1.2065
   25MOL0     H 3436  10.817   7.609  10.921 -1.6160  2.1194  0.3462
   25MOL0     H 3437  10.949   7.682  11.106 -2.6711  2.5150  0.1857
   25MOL0     H 3438  11.343   7.883  11.034 -1.0312  0.0207  0.2245
   25MOL0     H 3439  11.298   7.897  11.201  0.9296 -1.5487  1.1960
   25MOL0     H 3440  11.305   7.609  11.106 -1.2491  1.0821  0.4906
   25MOL0     H 3441  11.327   7.684  11.251  1.2096  1.9481  0.4436
   25MOL0     H 3442  11.536   7.741  11.032  2.9335  0.1596  0.4296
   25MOL0     H 3443  11.536   7.805  11.194 -0.4813 -0.9323  2.8794
   25MOL0     H 3444  11.568   7.588  11.297 -0.8540  1.6686  0.3680
   25MOL0     H 3445  11.690   7.599  11.160  0.2394 -1.9652  0.0897
   25MOL0     H 3446  11.484   7.276  11.035 -2.4769  0.6976  0.5227
   25MOL0     H 3447  11.209   7.922  10.853 -1.5102  1.3652  1.3544
   25MOL0     H 3448  11.071   7.963  10.589 -1.3663 -0.4347 -0.8005
   25MOL0     H 3449  11.227   7.895  10.615 -0.3410  2.4124 -0.6432
   25MOL0     H 3450  11.103   7.795  10.533  0.5396  1.3205 -1.4431
   26MOL0     O 3451   6.402   9.851  10.230 -0.0922  0.6262  0.4609
   26MOL0     C 3452   6.440   9.897  10.338  0.2878 -0.3316 -1.4371
   26MOL0     O 3453   6.465   9.816  10.449  0.3471  0.5466 -0.3709
   26MOL0     C 3454   6.446   9.677  10.428  0.5007 -0.3866 -0.3521
   26MOL0     C 3455   6.551   9.622  10.365 -0.5731  0.5183  0.7015
   26MOL0     C 3456   6.521   9.497  10.297 -0.5672 -0.1566  0.3794
   26MOL0     C 3457   6.396   9.433  10.297  0.1689 -1.3863 -0.3853
   26MOL0     O 3458   6.382   9.313  10.230 -0.7640  0.1218  0.2799
   26MOL0     C 3459   6.252   9.278  10.185 -0.5048  0.6475 -0.0443
   26MOL0     C 3460   6.189   9.175  10.283  0.1587  0.4129  0.2977
   26MOL0     C 3461   6.249   9.036  10.286  0.6908 -0.1358  1.3981
   26MOL0     C 3462   6.382   9.026  10.365 -0.4052 -0.3062  0.5721
   26MOL0     C 3463   6.430   8.881  10.343  0.0102  0.4018  0.7570
   26MOL0     C 3464   6.552   8.850  10.427 -0.4711 -0.1005  0.5168
   26MOL0     C 3465   6.593   8.708  10.414  0.9678 -0.1107  0.2808
   26MOL0     C 3466   6.710   8.655  10.496 -0.5487 -0.5377 -0.1524
   26MOL0     N 3467   6.756   8.538  10.420 -0.7751  0.6545 -0.3088
   26MOL0     C 3468   6.741   8.411  10.450  0.6718  0.2534  0.2826
   26MOL0     C 3469   6.798   8.337  10.343  0.1891 -1.3867 -0.1127
   26MOL0     C 3470   6.810   8.192  10.339 -0.5176  0.9540 -0.2735
   26MOL0     C 3471   6.771   8.123  10.208  0.8061  0.2509 -0.0678
   26MOL0     C 3472   6.829   7.985  10.211  0.8832 -0.2680 -0.1270
   26MOL0     C 3473   6.772   7.890  10.103 -0.7522  0.9677  0.5615
   26MOL0     O 3474   6.849   7.880   9.980  0.5945 -0.0684 -0.1911
   26MOL0     C 3475   6.917   7.763   9.990  0.7970  0.4136  0.3405
   26MOL0     C 3476   7.045   7.760  10.025 -0.4512  0.2621 -0.1822
   26MOL0     C 3477   7.123   7.651  10.000  0.2906 -0.7694  0.7829
   26MOL0     C 3478   7.275   7.680  10.016  0.5969  0.2004 -0.0417
   26MOL0     C 3479   7.060   7.541   9.939  0.2970  0.9401  0.1686
   26MOL0     C 3480   7.134   7.432   9.879  0.6629 -0.2618 -0.5716
   26MOL0     O 3481   7.240   7.476   9.800  0.4365  0.3752 -0.0966
   26MOL0     C 3482   7.334   7.385   9.762  0.3383 -0.5269  0.8183
   26MOL0     C 3483   7.410   7.412   9.648  0.0027  0.0533  0.6335
   26MOL0     C 3484   7.522   7.338   9.617 -0.5036 -0.7338 -0.3164
   26MOL0     C 3485   7.559   7.226   9.691 -0.0741  0.0988 -0.3842
   26MOL0     O 3486   7.662   7.131   9.659 -0.6743  0.5860  0.4913
   26MOL0     C 3487   7.722   7.135   9.524  0.0623 -1.1587  0.1655
   26MOL0     C 3488   7.842   7.057   9.504  0.5119  0.1107  0.1832
   26MOL0     C 3489   7.827   6.912   9.528 -0.0642 -0.2555  0.8967
   26MOL0     C 3490   7.966   6.854   9.561 -0.3522 -0.3479  0.0282
   26MOL0     C 3491   7.980   6.705   9.587  0.2103 -0.0685  0.8042
   26MOL0     C 3492   8.110   6.646   9.646 -0.8297 -0.2543  0.1001
   26MOL0     C 3493   8.220   6.629   9.539  0.1283  0.7751  0.4766
   26MOL0     C 3494   8.342   6.551   9.577 -1.0290 -0.2561  0.5884
   26MOL0    Cl 3495   8.465   6.601   9.462  0.0372 -0.1598  0.1125
   26MOL0     C 3496   7.489   7.203   9.802  0.5703  0.2763  0.4642
   26MOL0     C 3497   7.385   7.282   9.841 -0.1572 -0.7295 -0.2887
   26MOL0     O 3498   7.087   7.319   9.885  0.3017  0.9735  0.4733
   26MOL0     C 3499   6.915   7.539   9.927 -0.4259 -0.6598 -0.5062
   26MOL0     C 3500   6.844   7.656   9.944  0.6606  0.5208 -0.0109
   26MOL0     N 3501   6.862   8.434  10.260 -0.5091  0.4925  0.9026
   26MOL0     N 3502   6.835   8.547  10.311  0.9160 -0.9188  0.1246
   26MOL0     C 3503   6.303   9.495  10.380  0.6802  0.7834  0.2799
   26MOL0     C 3504   6.323   9.617  10.445 -0.7016  0.0393 -0.0662
   26MOL0     C 3505   6.479  10.037  10.354 -0.0638 -0.4157 -0.7233
   26MOL0     C 3506   6.538  10.082  10.472 -0.3527  0.2403 -0.3399
   26MOL0     C 3507   6.572  10.211  10.502 -0.0862 -0.5023  0.6501
   26MOL0     C 3508   6.551  10.310  10.403  0.5769 -0.0982 -0.5036
   26MOL0     O 3509   6.571  10.443  10.434 -0.2419 -0.1273  0.0794
   26MOL0     C 3510   6.571  10.556  10.335 -0.0602  0.9743  0.1590
   26MOL0     C 3511   6.579  10.676  10.423 -0.8657  0.1917 -0.7499
   26MOL0     C 3512   6.716  10.692  10.485  0.8357 -0.8596 -0.8787
   26MOL0     C 3513   6.745  10.849  10.505  0.6370 -0.3535  0.7351
   26MOL0     C 3514   6.869  10.878  10.584 -0.4160 -0.8965  0.5011
   26MOL0     C 3515   6.965  10.933  10.624 -0.5888  0.2024  0.1419
   26MOL0     C 3516   6.504  10.270  10.281 -0.1986  0.5679 -0.1977
   26MOL0     C 3517   6.462  10.139  10.256  0.6604  0.1516 -0.3251
   26MOL0     C 3518   6.388  10.123  10.122  0.5166 -0.1498 -0.0140
   26MOL0     H 3519   6.649   9.666  10.378  0.5210 -0.5600 -2.8299
   26MOL0     H 3520   6.612   9.461  10.249  1.4096  1.3439  2.8160
   26MOL0     H 3521   6.255   9.246  10.080 -2.3728  2.2669 -0.6482
   26MOL0     H 3522   6.183   9.362  10.199 -1.1486 -0.2646  2.7593
   26MOL0     H 3523   6.170   9.209  10.385 -1.1903 -4.6619  1.9913
   26MOL0     H 3524   6.088   9.165  10.243  0.5580  0.6688 -0.8415
   26MOL0     H 3525   6.176   8.967  10.331  0.7666 -1.3257 -0.2112
   26MOL0     H 3526   6.260   9.000  10.183  1.9360 -1.3220  1.9072
   26MOL0     H 3527   6.449   9.101  10.321 -1.6999  0.9047  0.5706
   26MOL0     H 3528   6.369   9.040  10.473 -0.4609 -2.0636  0.8228
   26MOL0     H 3529   6.431   8.847  10.239 -1.4385 -0.3250  0.9482
   26MOL0     H 3530   6.347   8.824  10.386 -1.3488 -0.6658 -2.8455
   26MOL0     H 3531   6.633   8.920  10.403 -0.3756 -0.0432  0.9832
   26MOL0     H 3532   6.525   8.849  10.533  1.9098  3.5453  1.3416
   26MOL0     H 3533   6.619   8.694  10.309  0.4496  0.2410  0.1053
   26MOL0     H 3534   6.516   8.634  10.439  0.3725 -0.2294 -1.7788
   26MOL0     H 3535   6.794   8.723  10.511  0.7579 -1.8379 -1.2779
   26MOL0     H 3536   6.672   8.629  10.595 -1.4284  1.1950  0.0099
   26MOL0     H 3537   6.693   8.369  10.538  0.5269  2.0948  1.1265
   26MOL0     H 3538   6.743   8.163  10.420 -0.7509  1.5901 -0.2374
   26MOL0     H 3539   6.914   8.166  10.361 -0.8754  1.0867  1.6994
   26MOL0     H 3540   6.662   8.122  10.199  0.8029 -3.0077 -0.9452
   26MOL0     H 3541   6.811   8.171  10.119 -0.0590 -2.4470 -2.0380
   26MOL0     H 3542   6.938   7.992  10.207  1.2751 -3.1542  2.0193
   26MOL0     H 3543   6.812   7.940  10.309 -1.9819  2.3081  0.7021
   26MOL0     H 3544   6.759   7.793  10.151  1.1287  0.3270 -0.1380
   26MOL0     H 3545   6.666   7.910  10.086 -0.8752 -0.6591 -0.8607
   26MOL0     H 3546   7.100   7.849  10.055  1.1749 -0.5350 -0.6895
   26MOL0     H 3547   7.303   7.669   9.910 -0.6111  0.0657 -0.3695
   26MOL0     H 3548   7.330   7.599  10.064 -0.5136  1.3063  3.3608
   26MOL0     H 3549   7.297   7.776  10.064 -0.9563 -0.5937  2.4504
   26MOL0     H 3550   7.379   7.506   9.602 -1.1671 -0.2115  0.8306
   26MOL0     H 3551   7.595   7.353   9.537  1.9390 -2.6537  1.4208
   26MOL0     H 3552   7.641   7.129   9.450  1.8815 -1.1190 -1.9453
   26MOL0     H 3553   7.763   7.236   9.512  2.0631 -1.9978 -0.5011
   26MOL0     H 3554   7.885   7.079   9.406 -0.0007 -4.9371 -1.4603
   26MOL0     H 3555   7.922   7.091   9.569  0.2297  1.5211 -0.1673
   26MOL0     H 3556   7.788   6.859   9.440  1.1582  0.3708 -0.0569
   26MOL0     H 3557   7.748   6.898   9.602 -1.1991  2.0651  0.2285
   26MOL0     H 3558   7.998   6.907   9.651  2.9762  0.3698 -1.4077
   26MOL0     H 3559   8.052   6.883   9.499 -0.3075  0.0230  0.2601
   26MOL0     H 3560   7.904   6.685   9.662 -0.9345  1.3983  0.0802
   26MOL0     H 3561   7.943   6.649   9.500 -1.0435 -1.7094  2.3169
   26MOL0     H 3562   8.095   6.552   9.700 -2.0103 -1.5569 -2.3530
   26MOL0     H 3563   8.145   6.717   9.722 -1.0937 -1.4947  1.4277
   26MOL0     H 3564   8.259   6.727   9.510 -0.7179  1.5679  1.8859
   26MOL0     H 3565   8.165   6.575   9.461 -2.6071  0.3860  2.5265
   26MOL0     H 3566   8.331   6.443   9.562 -0.0217 -0.1661 -1.1336
   26MOL0     H 3567   8.378   6.570   9.678  4.5553  0.4346 -1.2071
   26MOL0     H 3568   7.510   7.113   9.858 -2.4908  0.3829  1.9323
   26MOL0     H 3569   7.324   7.248   9.924  0.9339 -1.1155  0.3723
   26MOL0     H 3570   6.862   7.455   9.881  1.6135 -2.5013  0.3320
   26MOL0     H 3571   6.739   7.652   9.918  0.6613 -2.9993  0.0786
   26MOL0     H 3572   6.199   9.464  10.378  0.5939  1.0810  0.1934
   26MOL0     H 3573   6.239   9.671  10.487 -0.5507  0.1012  0.1572
   26MOL0     H 3574   6.542  10.014  10.556 -1.7418  1.6310  0.9149
   26MOL0     H 3575   6.618  10.230  10.598 -2.1779 -2.8598  2.2569
   26MOL0     H 3576   6.656  10.538  10.267 -4.2370 -1.5775 -5.1557
   26MOL0     H 3577   6.481  10.550  10.274 -0.4145  2.8067  0.4444
   26MOL0     H 3578   6.501  10.686  10.498  0.0909  0.4293  0.2365
   26MOL0     H 3579   6.548  10.761  10.362 -3.1900  0.7295  1.0586
   26MOL0     H 3580   6.700  10.639  10.580  0.2003  1.4145  0.3439
   26MOL0     H 3581   6.789  10.644  10.420 -0.5427 -0.0665 -3.1395
   26MOL0     H 3582   6.665  10.894  10.565  2.3608  2.1275  1.3650
   26MOL0     H 3583   6.760  10.904  10.412 -1.0105 -1.9971 -0.5691
   26MOL0     H 3584   7.052  10.989  10.651 -2.5085  2.9801  0.9797
   26MOL0     H 3585   6.487  10.340  10.199  4.2730  1.0321 -0.9936
   26MOL0     H 3586   6.457  10.073  10.054  1.2100  0.6433  0.0954
   26MOL0     H 3587   6.294  10.069  10.138  1.7910 -2.3289  0.5055
   26MOL0     H 3588   6.367  10.220  10.076  1.4286  1.2285  2.3366
   27MOL0     O 3589   8.383   4.552   3.056 -0.2373 -0.6533 -0.5720
   27MOL0     C 3590   8.485   4.613   3.042 -0.0681 -0.0117  0.2232
   27MOL0     O 3591   8.532   4.698   3.134 -0.5682 -0.2865 -0.0501
   27MOL0     C 3592   8.457   4.707   3.255  0.0448 -0.5516  0.4431
   27MOL0     C 3593   8.494   4.630   3.373  0.2688  0.3066  0.4198
   27MOL0     C 3594   8.430   4.650   3.495  0.0316  0.1040 -0.6330
   27MOL0     C 3595   8.343   4.757   3.514  0.6800  0.8581 -0.6296
   27MOL0     O 3596   8.282   4.783   3.630 -0.3693  0.2097  0.5284
   27MOL0     C 3597   8.311   4.706   3.739 -0.4169 -0.9863 -0.3638
   27MOL0     C 3598   8.237   4.763   3.854 -0.0615  0.1512  0.5623
   27MOL0     C 3599   8.087   4.761   3.833  0.1154  0.0381 -0.1522
   27MOL0     C 3600   8.025   4.653   3.742  0.0389 -0.5390 -0.1623
   27MOL0     C 3601   7.881   4.603   3.788  0.0813 -0.6068 -0.1206
   27MOL0     C 3602   7.771   4.705   3.748  0.9607 -0.0968 -1.2848
   27MOL0     C 3603   7.636   4.675   3.821 -0.4877  1.4389 -0.2780
   27MOL0     C 3604   7.528   4.766   3.773 -0.2007 -0.3923 -0.2877
   27MOL0     N 3605   7.396   4.706   3.798  0.0041  0.0360 -0.0503
   27MOL0     C 3606   7.294   4.763   3.879 -0.4602 -0.1731  0.6176
   27MOL0     C 3607   7.199   4.664   3.876 -0.2193 -0.4403  0.1768
   27MOL0     C 3608   7.069   4.690   3.938  0.9304 -0.0275 -0.5614
   27MOL0     C 3609   7.081   4.684   4.087 -0.5092 -0.3430  0.3944
   27MOL0     C 3610   6.946   4.683   4.154 -0.1536  0.0573 -0.2800
   27MOL0     C 3611   6.885   4.819   4.164  0.6925 -0.1833 -0.2899
   27MOL0     O 3612   6.965   4.904   4.244 -0.0300 -0.0395 -0.5402
   27MOL0     C 3613   6.995   5.019   4.181  0.2081  0.0550 -0.5607
   27MOL0     C 3614   6.913   5.119   4.122  0.5057 -0.3889  0.0970
   27MOL0     C 3615   6.977   5.233   4.061  0.0638 -0.0317  1.3090
   27MOL0     C 3616   6.896   5.338   3.989 -0.1525  0.6814 -0.1296
   27MOL0     C 3617   7.115   5.242   4.053 -0.8321 -0.3149 -0.0675
   27MOL0     C 3618   7.195   5.347   3.983 -0.2769 -1.0656 -0.1200
   27MOL0     O 3619   7.150   5.471   4.011 -0.7487  0.2805 -0.0217
   27MOL0     C 3620   7.198   5.573   3.940  0.3263  1.5112  0.3730
   27MOL0     C 3621   7.290   5.653   4.003 -0.0440  0.5126  0.5284
   27MOL0     C 3622   7.360   5.753   3.934  0.4746 -0.0479 -0.6328
   27MOL0     C 3623   7.326   5.778   3.807  0.7412 -0.1436 -0.5838
   27MOL0     O 3624   7.398   5.882   3.749  0.9181  0.5034  0.3583
   27MOL0     C 3625   7.396   5.905   3.607 -0.0988 -0.1399 -0.8275
   27MOL0     C 3626   7.512   5.989   3.570 -0.0428 -1.1456 -0.5173
   27MOL0     C 3627   7.641   5.906   3.558 -0.7268 -0.2204 -0.4885
   27MOL0     C 3628   7.759   6.000   3.519  0.3860 -0.9226 -0.3953
   27MOL0     C 3629   7.890   5.904   3.513 -0.2120 -0.2302  1.2940
   27MOL0     C 3630   8.013   5.975   3.448 -0.5065 -0.0615 -0.1697
   27MOL0     C 3631   7.991   6.016   3.303 -0.4902  0.5331  0.5655
   27MOL0     C 3632   8.126   6.025   3.229  0.2224  0.7353 -0.9195
   27MOL0    Cl 3633   8.052   6.079   3.077  0.0419  0.1397  0.2411
   27MOL0     C 3634   7.228   5.709   3.746  0.4556 -0.2149  0.6527
   27MOL0     C 3635   7.155   5.611   3.816  0.3336 -0.5529  0.4244
   27MOL0     O 3636   7.267   5.311   3.888  0.1244  0.6519  0.3186
   27MOL0     C 3637   7.190   5.146   4.114 -1.3267  0.5174  0.5166
   27MOL0     C 3638   7.132   5.042   4.179  0.5132 -0.0296 -0.0561
   27MOL0     N 3639   7.228   4.561   3.786 -0.4622  0.6079  0.9400
   27MOL0     N 3640   7.347   4.591   3.747 -0.6063 -0.6522  1.2336
   27MOL0     C 3641   8.313   4.835   3.402 -0.0398 -0.2720  0.4449
   27MOL0     C 3642   8.368   4.819   3.275 -0.5183  0.3463 -0.3077
   27MOL0     C 3643   8.566   4.602   2.910  0.0271  0.0244 -0.2070
   27MOL0     C 3644   8.679   4.684   2.888 -0.6180  0.0618  0.6090
   27MOL0     C 3645   8.749   4.685   2.765 -0.0575 -0.6956 -0.0081
   27MOL0     C 3646   8.706   4.601   2.671 -0.7483  0.1656 -0.0824
   27MOL0     O 3647   8.759   4.620   2.547  0.0844 -1.0476  0.2309
   27MOL0     C 3648   8.745   4.527   2.434 -0.1521  0.1665  0.1706
   27MOL0     C 3649   8.812   4.569   2.307  0.1493 -0.6448 -0.1068
   27MOL0     C 3650   8.772   4.468   2.191 -0.2132 -0.8772 -0.6911
   27MOL0     C 3651   8.861   4.485   2.069 -0.0799  0.6043 -0.5202
   27MOL0     C 3652   8.854   4.617   2.008  0.3202  0.0057  0.1329
   27MOL0     C 3653   8.828   4.736   1.978  0.4617 -0.3713 -0.7483
   27MOL0     C 3654   8.607   4.503   2.687  0.5548  0.3149 -0.3460
   27MOL0     C 3655   8.537   4.508   2.811  0.1118  0.3477 -0.1384
   27MOL0     C 3656   8.433   4.405   2.837 -0.1370 -0.2152 -0.3942
   27MOL0     H 3657   8.572   4.555   3.363  0.5778  0.1554  3.2562
   27MOL0     H 3658   8.485   4.599   3.574  1.0646 -0.3915 -1.6563
   27MOL0     H 3659   8.417   4.714   3.762  0.1580  4.8443 -3.1088
   27MOL0     H 3660   8.286   4.600   3.727 -1.8309 -0.5764 -1.3643
   27MOL0     H 3661   8.264   4.719   3.950 -1.4884  0.3509  1.0830
   27MOL0     H 3662   8.265   4.869   3.864  5.0621 -0.7473 -1.3334
   27MOL0     H 3663   8.045   4.758   3.934  0.4613  0.4116  0.0077
   27MOL0     H 3664   8.050   4.854   3.788 -3.9822 -1.9567 -1.3458
   27MOL0     H 3665   8.022   4.684   3.637  0.0426  1.4624  0.3907
   27MOL0     H 3666   8.083   4.560   3.747  1.2902  0.2637  1.2778
   27MOL0     H 3667   7.872   4.571   3.892  0.3871  1.2999  0.5317
   27MOL0     H 3668   7.865   4.510   3.732 -0.0468 -1.1757  0.8373
   27MOL0     H 3669   7.814   4.803   3.771  0.6046 -0.0790 -0.6558
   27MOL0     H 3670   7.775   4.703   3.639  1.4905 -1.8517 -1.2672
   27MOL0     H 3671   7.632   4.686   3.930 -0.3095 -0.0511 -0.1043
   27MOL0     H 3672   7.610   4.578   3.778  1.8014  1.6029 -2.2024
   27MOL0     H 3673   7.527   4.867   3.815  1.2393 -0.5677  0.1958
   27MOL0     H 3674   7.529   4.784   3.665  1.3069 -2.2778 -0.6412
   27MOL0     H 3675   7.296   4.848   3.947  0.5396  0.1475  0.2107
   27MOL0     H 3676   7.003   4.611   3.902  0.0659  0.7458 -0.7057
   27MOL0     H 3677   7.024   4.786   3.912  0.4197 -0.7031 -2.2878
   27MOL0     H 3678   7.132   4.591   4.113 -2.0271 -1.2875  0.1457
   27MOL0     H 3679   7.151   4.759   4.124  1.5343 -3.0894  2.4558
   27MOL0     H 3680   6.888   4.615   4.090 -0.7405  1.6757 -1.5498
   27MOL0     H 3681   6.954   4.634   4.251  1.7089 -0.2921 -0.5647
   27MOL0     H 3682   6.873   4.861   4.063  1.0740 -0.7193 -0.5632
   27MOL0     H 3683   6.784   4.802   4.204  0.7207  1.8927  0.8357
   27MOL0     H 3684   6.805   5.113   4.130  0.2502  0.9028 -1.6861
   27MOL0     H 3685   6.935   5.342   3.887  0.7981  0.7788  0.2234
   27MOL0     H 3686   6.907   5.433   4.043  0.6141  1.1108 -1.0084
   27MOL0     H 3687   6.793   5.303   3.978 -0.7679  2.8313 -1.8222
   27MOL0     H 3688   7.314   5.634   4.108 -1.0043 -2.4375  0.3139
   27MOL0     H 3689   7.447   5.809   3.969  0.6685  0.3544 -1.7214
   27MOL0     H 3690   7.401   5.810   3.551  2.9510 -0.8766  0.4895
   27MOL0     H 3691   7.302   5.955   3.584 -0.5027 -1.8313 -3.3464
   27MOL0     H 3692   7.504   6.031   3.469  0.4636 -0.2246 -0.1900
   27MOL0     H 3693   7.524   6.075   3.636 -1.8946  0.4592 -2.1514
   27MOL0     H 3694   7.628   5.827   3.484  2.4443  0.9794 -2.5461
   27MOL0     H 3695   7.668   5.868   3.657  1.4285 -0.6560 -1.1987
   27MOL0     H 3696   7.771   6.071   3.602  2.2756 -0.1362 -1.2731
   27MOL0     H 3697   7.741   6.046   3.421 -2.9805 -1.6805 -0.2516
   27MOL0     H 3698   7.921   5.870   3.612  0.6344  0.1755  1.1777
   27MOL0     H 3699   7.864   5.817   3.453  1.9153  0.0891 -0.1916
   27MOL0     H 3700   8.093   5.901   3.456 -2.2436 -1.9575  0.6948
   27MOL0     H 3701   8.048   6.059   3.508 -0.8178 -1.1553  1.6034
   27MOL0     H 3702   7.947   6.116   3.295  0.8075  1.1425  0.7731
   27MOL0     H 3703   7.926   5.949   3.246 -2.0535  2.7118 -0.3614
   27MOL0     H 3704   8.190   5.936   3.225  0.8124  1.0441  0.8189
   27MOL0     H 3705   8.177   6.101   3.288  0.0654 -1.5922  2.5397
   27MOL0     H 3706   7.201   5.722   3.642 -2.2312  5.2801  1.6491
   27MOL0     H 3707   7.073   5.562   3.764 -0.4903 -2.3794  3.2502
   27MOL0     H 3708   7.297   5.164   4.117 -1.7463  3.3116  0.6871
   27MOL0     H 3709   7.196   4.973   4.234 -2.7396 -2.5983  0.8646
   27MOL0     H 3710   8.244   4.919   3.410  2.1086  1.5219  1.3960
   27MOL0     H 3711   8.354   4.893   3.197  6.2887  2.4834 -0.1258
   27MOL0     H 3712   8.715   4.756   2.962 -1.3113 -0.3025  1.3055
   27MOL0     H 3713   8.825   4.755   2.733 -2.2648  0.7638 -2.4070
   27MOL0     H 3714   8.796   4.433   2.457 -2.5789 -1.8569 -2.1169
   27MOL0     H 3715   8.641   4.498   2.415  0.4176 -0.9637 -1.3172
   27MOL0     H 3716   8.921   4.573   2.313  0.0622  1.5139  1.1654
   27MOL0     H 3717   8.769   4.669   2.292 -1.1418 -1.3226 -1.1575
   27MOL0     H 3718   8.753   4.368   2.230 -3.9980  0.0325  0.2569
   27MOL0     H 3719   8.669   4.490   2.160 -1.0814 -0.2992  2.2634
   27MOL0     H 3720   8.833   4.412   1.993  0.5772  0.6956 -0.8613
   27MOL0     H 3721   8.961   4.464   2.109 -1.2975  0.3428  2.7275
   27MOL0     H 3722   8.794   4.834   1.952 -0.9348 -0.7870 -0.5647
   27MOL0     H 3723   8.579   4.428   2.613 -0.5289  0.4515 -0.0906
   27MOL0     H 3724   8.438   4.334   2.754  1.9719 -0.5638 -0.0142
   27MOL0     H 3725   8.458   4.350   2.928 -0.9181 -1.6632 -1.0252
   27MOL0     H 3726   8.334   4.447   2.856  0.5692 -0.2008  4.3859
   28MOL0     O 3727   8.359   0.115   3.366 -0.1781 -0.1807  0.6487
   28MOL0     C 3728   8.446   0.064   3.295  0.4848 -0.7136 -0.5499
   28MOL0     O 3729   8.470  -0.064   3.277  0.1325  0.3338 -0.4387
   28MOL0     C 3730   8.410  -0.154   3.367  0.0552 -0.2377  0.6843
   28MOL0     C 3731   8.298  -0.225   3.317 -0.0388 -0.6125 -1.2921
   28MOL0     C 3732   8.259  -0.339   3.395 -0.3009 -0.4631 -1.0190
   28MOL0     C 3733   8.324  -0.371   3.517 -0.1711 -0.4363 -0.1770
   28MOL0     O 3734   8.328  -0.486   3.590 -0.0087  0.6104  0.6359
   28MOL0     C 3735   8.252  -0.596   3.522  0.7263  0.4055 -1.2727
   28MOL0     C 3736   8.295  -0.740   3.585  0.0565  1.4336  0.2082
   28MOL0     C 3737   8.449  -0.754   3.615 -0.1637  0.7155 -0.1158
   28MOL0     C 3738   8.497  -0.904   3.586  0.1387 -0.6135  0.6609
   28MOL0     C 3739   8.409  -1.017   3.631 -0.0673  1.0526 -0.2789
   28MOL0     C 3740   8.484  -1.151   3.655  0.5659  0.0987  1.2509
   28MOL0     C 3741   8.382  -1.266   3.709 -0.2723 -0.4471  1.1444
   28MOL0     C 3742   8.437  -1.401   3.751 -0.5223  0.0759 -0.3324
   28MOL0     N 3743   8.534  -1.448   3.638  0.4931 -0.2477  0.2108
   28MOL0     C 3744   8.490  -1.531   3.538 -0.1658  0.3964  0.3101
   28MOL0     C 3745   8.614  -1.570   3.488  0.1308  1.1559  0.2667
   28MOL0     C 3746   8.644  -1.661   3.368 -0.2950 -0.1103 -0.5719
   28MOL0     C 3747   8.537  -1.642   3.251  0.5026 -0.0788  0.5182
   28MOL0     C 3748   8.555  -1.498   3.189 -1.0308 -0.0910  0.0548
   28MOL0     C 3749   8.683  -1.457   3.103  0.0367  0.1854  0.4185
   28MOL0     O 3750   8.687  -1.325   3.062  0.5681  0.6401 -0.3004
   28MOL0     C 3751   8.713  -1.229   3.149 -0.5287 -0.7280  0.2189
   28MOL0     C 3752   8.745  -1.241   3.283 -0.9280  0.2137 -0.6992
   28MOL0     C 3753   8.791  -1.135   3.369  0.5772 -0.2715  0.3654
   28MOL0     C 3754   8.810  -1.161   3.514 -0.5993  0.3713  0.3321
   28MOL0     C 3755   8.790  -1.004   3.317 -0.3007  0.5415  0.3353
   28MOL0     C 3756   8.837  -0.888   3.392  0.1970 -0.0852  0.6523
   28MOL0     O 3757   8.790  -0.770   3.335 -0.3398 -0.5286 -0.1325
   28MOL0     C 3758   8.815  -0.646   3.388 -0.3499 -0.8056  0.2514
   28MOL0     C 3759   8.919  -0.606   3.473 -0.0159  0.1140 -0.0863
   28MOL0     C 3760   8.922  -0.472   3.517 -0.0051 -0.5120  0.0090
   28MOL0     C 3761   8.829  -0.373   3.470 -0.2399  0.5408 -0.3615
   28MOL0     O 3762   8.834  -0.240   3.488 -0.3933 -0.2317 -0.4239
   28MOL0     C 3763   8.960  -0.184   3.488 -0.0449 -0.0347  0.0413
   28MOL0     C 3764   8.946  -0.037   3.505 -0.2344  0.4214 -0.3754
   28MOL0     C 3765   8.888   0.020   3.375 -0.7678  0.3668 -0.2025
   28MOL0     C 3766   8.982   0.018   3.253 -0.2481  0.8522 -0.3104
   28MOL0     C 3767   8.929   0.081   3.124  0.5481 -0.2973  0.1060
   28MOL0     C 3768   9.033   0.094   3.005 -0.3984 -0.0741  0.7473
   28MOL0     C 3769   8.975   0.177   2.887 -0.1096 -0.6290 -0.8149
   28MOL0     C 3770   9.085   0.207   2.781  0.4793  0.6408  0.5945
   28MOL0    Cl 3771   9.044   0.115   2.622  0.9167 -0.3355 -0.2731
   28MOL0     C 3772   8.718  -0.423   3.394  0.0243  1.0626  1.1051
   28MOL0     C 3773   8.720  -0.554   3.355  1.1964  0.2244 -0.8093
   28MOL0     O 3774   8.930  -0.898   3.467 -0.7959 -0.1716 -0.0259
   28MOL0     C 3775   8.762  -0.993   3.176  0.2019 -0.6626 -0.0213
   28MOL0     C 3776   8.727  -1.101   3.091 -0.3007  0.0923 -0.3479
   28MOL0     N 3777   8.717  -1.525   3.562  0.1376 -0.0449 -0.4829
   28MOL0     N 3778   8.669  -1.448   3.657 -0.6613  0.0685 -0.7578
   28MOL0     C 3779   8.423  -0.286   3.567 -0.0772 -0.3515  0.2049
   28MOL0     C 3780   8.469  -0.183   3.492  0.2578  0.6226  0.2863
   28MOL0     C 3781   8.504   0.155   3.208 -0.8239  0.0910  0.2883
   28MOL0     C 3782   8.512   0.125   3.070 -0.1147  0.1645 -0.8736
   28MOL0     C 3783   8.562   0.220   2.988 -0.7233 -0.6636  0.3066
   28MOL0     C 3784   8.604   0.347   3.031 -0.2527  1.0822 -0.6037
   28MOL0     O 3785   8.664   0.430   2.941  0.0799 -0.0782 -0.6721
   28MOL0     C 3786   8.627   0.567   2.938 -0.2646 -0.6285  0.3609
   28MOL0     C 3787   8.562   0.585   2.799 -0.4252 -0.1855 -0.1453
   28MOL0     C 3788   8.430   0.515   2.791  0.1571  0.3855  0.6114
   28MOL0     C 3789   8.390   0.499   2.643 -0.1119 -0.4898 -0.2146
   28MOL0     C 3790   8.255   0.440   2.639 -0.5314 -0.0336  0.3518
   28MOL0     C 3791   8.144   0.392   2.617  0.5363  0.7515 -0.7144
   28MOL0     C 3792   8.610   0.371   3.166 -0.4705 -0.5187 -0.1335
   28MOL0     C 3793   8.558   0.279   3.256  0.1230 -0.3340  0.0573
   28MOL0     C 3794   8.563   0.320   3.407 -0.2154 -0.0502  0.3565
   28MOL0     H 3795   8.250  -0.187   3.227 -1.3814  0.2549 -0.2327
   28MOL0     H 3796   8.190  -0.413   3.355 -0.3645 -0.7371 -0.4159
   28MOL0     H 3797   8.280  -0.599   3.417 -1.6468 -1.3777 -1.9352
   28MOL0     H 3798   8.146  -0.587   3.546  0.9393 -1.4963  0.7112
   28MOL0     H 3799   8.226  -0.763   3.666 -0.5732  0.4006 -0.6020
   28MOL0     H 3800   8.277  -0.811   3.504  0.3097 -0.3959  1.6784
   28MOL0     H 3801   8.495  -0.694   3.536  2.9894 -3.2072 -1.6127
   28MOL0     H 3802   8.489  -0.723   3.712 -0.0005 -2.4208  0.9190
   28MOL0     H 3803   8.501  -0.922   3.478 -3.5820  0.7436  0.1342
   28MOL0     H 3804   8.603  -0.909   3.614  1.5461  3.7213 -2.6394
   28MOL0     H 3805   8.337  -1.038   3.552  0.3539  4.0968 -1.6266
   28MOL0     H 3806   8.350  -0.982   3.717 -0.4900  2.0462 -0.9604
   28MOL0     H 3807   8.533  -1.186   3.564  0.9042  1.3037  0.9482
   28MOL0     H 3808   8.554  -1.138   3.738 -0.7514 -1.4540  2.6995
   28MOL0     H 3809   8.299  -1.286   3.641  1.3446 -2.1507 -0.4619
   28MOL0     H 3810   8.340  -1.228   3.803  0.9384  2.9202  0.4418
   28MOL0     H 3811   8.492  -1.386   3.844  1.5882 -1.6316 -1.2233
   28MOL0     H 3812   8.357  -1.473   3.768 -1.0827  0.8692  0.4481
   28MOL0     H 3813   8.387  -1.550   3.511 -0.4722  0.5865  1.2952
   28MOL0     H 3814   8.654  -1.767   3.394  1.8845  0.6935  2.4094
   28MOL0     H 3815   8.740  -1.623   3.331  0.7699 -2.1885 -0.1035
   28MOL0     H 3816   8.566  -1.716   3.176  1.5897  1.0090 -0.1687
   28MOL0     H 3817   8.434  -1.660   3.283  0.4505  1.0492  1.0089
   28MOL0     H 3818   8.474  -1.482   3.117 -1.7329  3.5842  1.4736
   28MOL0     H 3819   8.532  -1.426   3.267 -0.4371  0.2783 -0.1032
   28MOL0     H 3820   8.768  -1.471   3.170  0.4707  0.1874 -0.1276
   28MOL0     H 3821   8.697  -1.519   3.014  0.8852  4.5040 -2.7937
   28MOL0     H 3822   8.744  -1.339   3.330  1.3326  1.8309  3.1784
   28MOL0     H 3823   8.908  -1.202   3.540 -2.1167 -0.7306  5.5860
   28MOL0     H 3824   8.730  -1.226   3.552 -2.1215  1.3793 -1.0287
   28MOL0     H 3825   8.791  -1.069   3.571  2.0067  0.3041  1.4360
   28MOL0     H 3826   8.985  -0.680   3.517 -3.3712 -0.7592  4.1972
   28MOL0     H 3827   9.013  -0.445   3.570 -1.0869 -0.1206  1.7408
   28MOL0     H 3828   9.018  -0.222   3.572  1.0241  0.3974 -0.4917
   28MOL0     H 3829   8.999  -0.212   3.390 -2.0681 -1.7678 -0.3484
   28MOL0     H 3830   8.877  -0.003   3.583 -0.1421  1.2838 -0.6537
   28MOL0     H 3831   9.046  -0.003   3.531 -0.9634  2.0690  0.4432
   28MOL0     H 3832   8.867   0.125   3.400 -2.4894 -0.2226  0.9900
   28MOL0     H 3833   8.793  -0.021   3.341  0.0837 -2.8838  0.9712
   28MOL0     H 3834   9.027  -0.078   3.224 -0.7073  0.8610 -1.0669
   28MOL0     H 3835   9.072   0.071   3.287  1.0346  0.0076 -2.2011
   28MOL0     H 3836   8.837   0.028   3.097 -0.6899  0.7448  2.0846
   28MOL0     H 3837   8.887   0.178   3.152  1.4125 -0.1729  1.0335
   28MOL0     H 3838   9.055  -0.009   2.973 -0.6626 -0.1325  0.7548
   28MOL0     H 3839   9.121   0.145   3.046 -0.9780  1.8156 -0.2440
   28MOL0     H 3840   8.943   0.273   2.930  0.5787 -1.4962  1.8437
   28MOL0     H 3841   8.884   0.129   2.849 -0.2445 -0.7720 -0.3141
   28MOL0     H 3842   9.181   0.160   2.801 -0.2437 -1.5189 -0.6967
   28MOL0     H 3843   9.094   0.316   2.771 -1.8267  1.0577  2.2413
   28MOL0     H 3844   8.632  -0.365   3.362  0.9523  1.7066 -0.3350
   28MOL0     H 3845   8.629  -0.589   3.306 -1.6962  0.3158  3.9354
   28MOL0     H 3846   8.759  -0.896   3.127 -1.5674  0.0214  1.3104
   28MOL0     H 3847   8.703  -1.085   2.987  0.7513 -3.7395 -1.3244
   28MOL0     H 3848   8.475  -0.303   3.661 -1.5074  2.0405  1.5556
   28MOL0     H 3849   8.560  -0.129   3.515  1.5444  0.0017 -2.8327
   28MOL0     H 3850   8.472   0.029   3.038 -2.2686  0.7066 -0.0444
   28MOL0     H 3851   8.566   0.210   2.880  0.9998  0.8213  0.1792
   28MOL0     H 3852   8.554   0.598   3.013  0.1017  2.3822 -0.4043
   28MOL0     H 3853   8.716   0.629   2.947 -0.7784 -0.1192  2.4681
   28MOL0     H 3854   8.634   0.552   2.723 -0.2146  0.0866 -0.0690
   28MOL0     H 3855   8.544   0.687   2.764  0.8710  0.7986  1.8509
   28MOL0     H 3856   8.426   0.414   2.834  0.5992  1.0644  2.3008
   28MOL0     H 3857   8.359   0.580   2.843  0.7416  1.3151  0.2505
   28MOL0     H 3858   8.465   0.445   2.585  1.0018  0.6477  0.0957
   28MOL0     H 3859   8.387   0.604   2.611 -0.2936  1.4385  4.9989
   28MOL0     H 3860   8.048   0.359   2.583  1.2236 -1.4551 -0.6850
   28MOL0     H 3861   8.648   0.472   3.174 -5.1505  1.4888  0.2707
   28MOL0     H 3862   8.603   0.249   3.479  0.8944  0.7706  0.5706
   28MOL0     H 3863   8.621   0.411   3.426 -2.2726  1.7299 -1.3219
   28MOL0     H 3864   8.460   0.343   3.435  0.0332  2.1415 -0.3028
   29MOL0     O 3865   1.546   5.786   6.916  0.8769  0.9579  0.7402
   29MOL0     C 3866   1.525   5.904   6.896  0.0319 -0.3500 -0.1847
   29MOL0     O 3867   1.407   5.970   6.872 -0.1197 -0.2370  0.5942
   29MOL0     C 3868   1.298   5.883   6.876 -0.5852 -0.1788  0.1807
   29MOL0     C 3869   1.232   5.872   6.997  0.4148  0.5748 -0.1865
   29MOL0     C 3870   1.125   5.784   7.009  1.0075 -0.2622 -0.4041
   29MOL0     C 3871   1.093   5.701   6.894  0.0433 -0.6033 -0.2973
   29MOL0     O 3872   1.002   5.595   6.888  0.5361  0.6725 -0.0749
   29MOL0     C 3873   1.013   5.509   6.998 -0.2283  0.5305 -0.4828
   29MOL0     C 3874   0.978   5.363   6.975 -0.5520 -0.1462 -0.2080
   29MOL0     C 3875   0.824   5.347   6.990 -0.2209  0.1585  0.0751
   29MOL0     C 3876   0.796   5.196   7.018 -0.5648 -0.9072  0.3883
   29MOL0     C 3877   0.652   5.145   7.019 -0.3042  0.5717  0.2691
   29MOL0     C 3878   0.604   5.115   6.878 -1.2254 -0.8142  0.4812
   29MOL0     C 3879   0.465   5.061   6.868 -0.7921 -0.0667 -1.1301
   29MOL0     C 3880   0.363   5.179   6.880  0.8581  0.6523 -0.6658
   29MOL0     N 3881   0.223   5.126   6.879  0.6766 -0.9999  0.4863
   29MOL0     C 3882   0.179   4.996   6.878  0.0940 -1.8537  0.0134
   29MOL0     C 3883   0.049   4.997   6.824 -0.4438 -0.0336 -0.2430
   29MOL0     C 3884  -0.028   4.870   6.799 -1.1229 -0.1825  0.7672
   29MOL0     C 3885  -0.137   4.841   6.905  1.0925 -0.2257 -0.2426
   29MOL0     C 3886  -0.085   4.777   7.038 -0.3119 -0.1702  0.3149
   29MOL0     C 3887  -0.072   4.620   7.036  0.2212 -0.1471 -0.3415
   29MOL0     O 3888  -0.197   4.552   7.063 -1.6441 -0.1047  0.3231
   29MOL0     C 3889  -0.204   4.416   7.068 -0.4041 -0.8675  1.1548
   29MOL0     C 3890  -0.327   4.364   7.080 -0.2531 -0.4224  0.0510
   29MOL0     C 3891  -0.347   4.231   7.106 -0.3717  0.6204  0.5090
   29MOL0     C 3892  -0.487   4.203   7.131  0.0737  0.0575 -0.5098
   29MOL0     C 3893  -0.243   4.132   7.098 -0.6578  0.2377  0.9024
   29MOL0     C 3894  -0.262   3.988   7.119  0.0231  1.0897 -0.3097
   29MOL0     O 3895  -0.390   3.939   7.126  0.0799  0.1659 -0.5433
   29MOL0     C 3896  -0.411   3.803   7.155  0.2964 -0.1700  0.0116
   29MOL0     C 3897  -0.351   3.735   7.257 -0.3269 -0.6483  0.1117
   29MOL0     C 3898  -0.368   3.599   7.255 -0.0722  0.2930 -0.2343
   29MOL0     C 3899  -0.470   3.535   7.182 -0.5410 -0.1378  0.4274
   29MOL0     O 3900  -0.496   3.402   7.184 -0.5767 -0.1720 -0.6125
   29MOL0     C 3901  -0.423   3.322   7.278  0.5114 -0.3144 -0.3410
   29MOL0     C 3902  -0.429   3.174   7.248  0.3528  0.4163  0.2273
   29MOL0     C 3903  -0.361   3.128   7.120  0.0700 -0.9280 -0.2282
   29MOL0     C 3904  -0.431   3.005   7.061  0.3500  0.3181 -0.5746
   29MOL0     C 3905  -0.368   2.988   6.921 -0.3650  0.2144  0.4433
   29MOL0     C 3906  -0.461   2.914   6.824  0.8020  0.3299  0.4480
   29MOL0     C 3907  -0.420   2.936   6.683 -0.3387 -0.5050  0.0655
   29MOL0     C 3908  -0.526   2.872   6.596 -0.1130  0.0565 -0.0033
   29MOL0    Cl 3909  -0.606   2.981   6.479 -0.2192  0.2540 -0.3269
   29MOL0     C 3910  -0.545   3.613   7.104 -0.5722 -0.4393  0.0050
   29MOL0     C 3911  -0.508   3.741   7.081  0.0767 -0.3880  0.3845
   29MOL0     O 3912  -0.162   3.912   7.110 -0.8308  0.3488 -0.5422
   29MOL0     C 3913  -0.113   4.185   7.081  0.1510  0.7320  0.0207
   29MOL0     C 3914  -0.096   4.327   7.070 -1.0129  0.5503  0.0946
   29MOL0     N 3915   0.024   5.136   6.808 -0.6199  0.5208 -0.0172
   29MOL0     N 3916   0.127   5.208   6.832  0.1718  0.2401  1.7417
   29MOL0     C 3917   1.161   5.719   6.769 -1.2864  0.1541  0.3063
   29MOL0     C 3918   1.266   5.808   6.762 -0.6697  0.2808 -0.4177
   29MOL0     C 3919   1.635   5.998   6.900 -0.2190 -0.1255 -0.8818
   29MOL0     C 3920   1.758   5.954   6.846  0.0599 -0.1225  0.2123
   29MOL0     C 3921   1.875   6.033   6.840 -0.1041  0.3506  0.3689
   29MOL0     C 3922   1.862   6.162   6.879 -0.6551 -0.1944 -0.8506
   29MOL0     O 3923   1.966   6.242   6.881  0.7583 -0.2019  0.5937
   29MOL0     C 3924   2.002   6.303   6.755  0.4415  0.0827 -0.6023
   29MOL0     C 3925   2.037   6.209   6.638  0.1959 -0.2644  0.0278
   29MOL0     C 3926   2.171   6.136   6.655  0.2541 -0.1065  0.3991
   29MOL0     C 3927   2.203   6.045   6.773 -0.2791  0.9196  0.1175
   29MOL0     C 3928   2.350   6.046   6.798 -0.8202 -0.3724  0.3028
   29MOL0     C 3929   2.470   6.065   6.804 -0.2419 -0.1095  0.4883
   29MOL0     C 3930   1.741   6.213   6.937  0.1794  0.5804 -1.8106
   29MOL0     C 3931   1.627   6.129   6.952 -0.0517  0.3527  1.2890
   29MOL0     C 3932   1.502   6.187   7.017  0.1740  0.0131  0.8059
   29MOL0     H 3933   1.229   5.936   7.085 -0.2364 -1.3798  1.2787
   29MOL0     H 3934   1.062   5.780   7.098 -0.7690  2.2974 -1.4355
   29MOL0     H 3935   0.965   5.553   7.086 -2.8360 -0.0718 -1.5220
   29MOL0     H 3936   1.120   5.501   7.017 -0.6486 -3.2909  1.1609
   29MOL0     H 3937   1.024   5.345   6.877  3.0439  2.5695  0.7703
   29MOL0     H 3938   1.030   5.299   7.047  0.1488  0.0188 -0.5595
   29MOL0     H 3939   0.791   5.414   7.070  2.0667  2.7871 -1.0434
   29MOL0     H 3940   0.777   5.384   6.898 -1.0692  3.4258  1.6477
   29MOL0     H 3941   0.855   5.142   6.943  0.9468 -2.7471  2.7495
   29MOL0     H 3942   0.839   5.186   7.118 -1.5029  0.1763  0.9206
   29MOL0     H 3943   0.586   5.219   7.065 -0.5996 -0.0914  0.9493
   29MOL0     H 3944   0.642   5.054   7.080 -1.8196  1.1911  0.9959
   29MOL0     H 3945   0.612   5.202   6.812 -0.3015 -2.3653 -1.5435
   29MOL0     H 3946   0.677   5.046   6.837 -0.5781 -0.3569  0.8403
   29MOL0     H 3947   0.439   4.982   6.941  1.5382  0.6054  0.5378
   29MOL0     H 3948   0.462   5.010   6.771 -2.5868  0.0882 -1.1904
   29MOL0     H 3949   0.392   5.232   6.972  1.4096 -2.9452  1.3937
   29MOL0     H 3950   0.356   5.241   6.790 -1.8385 -1.3303 -1.9563
   29MOL0     H 3951   0.237   4.907   6.903 -2.3183 -2.9760  2.1488
   29MOL0     H 3952   0.037   4.782   6.786 -1.8757 -0.8456  1.3869
   29MOL0     H 3953  -0.084   4.901   6.710 -0.3315 -0.0666  0.3013
   29MOL0     H 3954  -0.167   4.945   6.925  1.8659 -0.1321  0.5560
   29MOL0     H 3955  -0.224   4.793   6.860  1.4187  0.5307 -1.7510
   29MOL0     H 3956   0.021   4.800   7.043  0.2239 -1.9819 -1.4530
   29MOL0     H 3957  -0.132   4.824   7.125  0.0341  0.1144  0.3502
   29MOL0     H 3958  -0.041   4.593   6.935  0.7322  0.3790 -0.3351
   29MOL0     H 3959  -0.005   4.579   7.112  0.2640 -1.0075 -0.8338
   29MOL0     H 3960  -0.409   4.435   7.078 -1.4196 -1.7443 -0.6085
   29MOL0     H 3961  -0.558   4.286   7.135 -2.1116 -1.4962 -3.2360
   29MOL0     H 3962  -0.488   4.164   7.234  0.5184 -1.1298 -0.9338
   29MOL0     H 3963  -0.514   4.130   7.054  2.1761  1.5494 -2.7975
   29MOL0     H 3964  -0.277   3.786   7.318  0.8177  0.8963 -2.4126
   29MOL0     H 3965  -0.316   3.549   7.336 -0.4360  3.0076  1.8261
   29MOL0     H 3966  -0.318   3.354   7.286  0.6621 -1.0441  0.8460
   29MOL0     H 3967  -0.477   3.326   7.373  1.6261  0.2514  0.2890
   29MOL0     H 3968  -0.391   3.108   7.327  1.7968  1.5503  0.5226
   29MOL0     H 3969  -0.536   3.158   7.239  0.2942  0.9921 -0.1317
   29MOL0     H 3970  -0.252   3.114   7.125  0.3257  0.4359 -1.3397
   29MOL0     H 3971  -0.373   3.210   7.049  3.7018  1.1030  1.2028
   29MOL0     H 3972  -0.539   3.024   7.051  0.8152  2.3306 -2.7689
   29MOL0     H 3973  -0.401   2.919   7.122  0.9682 -0.6555 -2.1832
   29MOL0     H 3974  -0.336   3.083   6.878 -1.1909 -0.9083 -2.9763
   29MOL0     H 3975  -0.277   2.927   6.930 -0.3905  0.2925  1.3627
   29MOL0     H 3976  -0.561   2.952   6.846  0.0778 -0.6014 -1.0604
   29MOL0     H 3977  -0.478   2.809   6.849 -1.9318  0.0321 -2.1163
   29MOL0     H 3978  -0.324   2.891   6.655 -0.6787 -0.4604 -1.2442
   29MOL0     H 3979  -0.414   3.042   6.656 -2.9079 -0.6805 -1.5502
   29MOL0     H 3980  -0.603   2.841   6.666 -0.4816  3.4916  1.2840
   29MOL0     H 3981  -0.469   2.792   6.547 -1.1963  0.3976 -1.9201
   29MOL0     H 3982  -0.629   3.563   7.057  0.0785 -0.1091 -1.5669
   29MOL0     H 3983  -0.572   3.800   7.017  1.3573 -1.2107 -1.7514
   29MOL0     H 3984  -0.031   4.115   7.086 -0.6808 -0.1948  3.4162
   29MOL0     H 3985   0.003   4.352   7.033  0.2295 -4.6243 -0.7914
   29MOL0     H 3986   1.143   5.662   6.678  0.5969 -1.4688  0.8825
   29MOL0     H 3987   1.311   5.821   6.664  0.4384  2.3549  0.3212
   29MOL0     H 3988   1.770   5.851   6.815 -1.5379 -1.0504  2.4512
   29MOL0     H 3989   1.962   5.995   6.787  1.0214  1.4015  1.4022
   29MOL0     H 3990   1.919   6.368   6.727 -1.1088 -1.4829  0.2170
   29MOL0     H 3991   2.094   6.357   6.782  0.9814 -1.2494  0.2888
   29MOL0     H 3992   2.051   6.264   6.545 -0.2205 -0.8973 -0.4151
   29MOL0     H 3993   1.955   6.138   6.627 -0.5991  0.1154  2.7954
   29MOL0     H 3994   2.186   6.069   6.570 -3.2509 -2.1550  1.1746
   29MOL0     H 3995   2.243   6.217   6.649  1.5177 -1.2567 -0.5466
   29MOL0     H 3996   2.174   5.941   6.756  1.1572  0.4490  0.3824
   29MOL0     H 3997   2.151   6.076   6.865 -1.4329  0.7446 -0.4533
   29MOL0     H 3998   2.577   6.063   6.808  0.0220  0.5426 -3.1591
   29MOL0     H 3999   1.728   6.312   6.980 -0.6951  0.2268 -1.2483
   29MOL0     H 4000   1.432   6.231   6.946  2.2377  0.5431 -1.0413
   29MOL0     H 4001   1.443   6.114   7.073  1.4113  0.8770  3.3976
   29MOL0     H 4002   1.524   6.269   7.086 -2.3654  0.8624  0.6742
   30MOL0     O 4003   7.147  11.135  10.830  0.5543 -0.2453  0.3531
   30MOL0     C 4004   7.241  11.215  10.833  0.3662 -0.4997 -0.2341
   30MOL0     O 4005   7.271  11.312  10.742 -0.3056  0.3303  0.0124
   30MOL0     C 4006   7.199  11.325  10.622  1.0427  0.6336 -0.2687
   30MOL0     C 4007   7.062  11.372  10.617 -0.3440  0.7441  0.7711
   30MOL0     C 4008   6.984  11.354  10.507 -0.1461  0.8709  0.9384
   30MOL0     C 4009   7.047  11.299  10.388 -0.5640 -0.4528 -0.2534
   30MOL0     O 4010   6.962  11.286  10.278  0.5483  0.3739  0.5591
   30MOL0     C 4011   7.002  11.217  10.164  0.5266 -0.8475  0.0810
   30MOL0     C 4012   6.993  11.064  10.191  1.0725 -0.1784  0.3139
   30MOL0     C 4013   6.953  10.964  10.082  0.5730  0.2641  0.5668
   30MOL0     C 4014   6.810  10.971  10.020  0.7470 -0.2551  0.0686
   30MOL0     C 4015   6.793  10.889   9.893 -0.7641  0.7671 -1.1299
   30MOL0     C 4016   6.791  10.735   9.925 -0.2093  0.4279  0.5801
   30MOL0     C 4017   6.673  10.672  10.003 -0.3747 -0.1386 -0.4644
   30MOL0     C 4018   6.543  10.700   9.917  0.7943 -1.2632 -1.3134
   30MOL0     N 4019   6.431  10.610   9.949  0.0848 -0.4905  0.5547
   30MOL0     C 4020   6.344  10.632  10.054  0.7709 -0.8799  0.8055
   30MOL0     C 4021   6.249  10.537  10.030  0.2694  0.6384  0.4851
   30MOL0     C 4022   6.122  10.510  10.097  1.2919 -0.2250  0.5457
   30MOL0     C 4023   6.141  10.377  10.172  0.7089  0.1971 -0.1635
   30MOL0     C 4024   6.036  10.360  10.291 -0.4700  0.3615 -0.2986
   30MOL0     C 4025   6.059  10.233  10.376  0.4570 -0.3565  0.5855
   30MOL0     O 4026   6.054  10.124  10.288 -0.6050 -1.1579 -0.4518
   30MOL0     C 4027   6.021  10.002  10.332  0.1839  0.0780 -0.3705
   30MOL0     C 4028   6.053   9.904  10.239 -0.6255 -0.5391  0.2417
   30MOL0     C 4029   6.032   9.771  10.263  0.7744 -0.5215 -0.3831
   30MOL0     C 4030   6.068   9.677  10.153 -0.1533  0.1494  0.0202
   30MOL0     C 4031   5.978   9.729  10.390 -1.0928  0.0199  0.1349
   30MOL0     C 4032   5.929   9.593  10.425 -0.8334  0.6663  0.1805
   30MOL0     O 4033   5.928   9.550  10.564 -0.6140  0.2890  0.6146
   30MOL0     C 4034   5.913   9.419  10.595  0.4289  0.6460  0.3757
   30MOL0     C 4035   6.028   9.348  10.614  0.6839  0.0423  0.0278
   30MOL0     C 4036   6.016   9.207  10.634 -0.1819 -0.6942 -0.0649
   30MOL0     C 4037   5.900   9.132  10.616  0.3016 -0.4720  0.3870
   30MOL0     O 4038   5.898   8.997  10.637  0.0530 -0.6110 -0.1381
   30MOL0     C 4039   6.022   8.925  10.622 -1.5766 -0.5750  1.2096
   30MOL0     C 4040   5.996   8.776  10.602 -0.2814  0.1616  0.1292
   30MOL0     C 4041   5.928   8.711  10.722  0.2473  0.5739  0.9739
   30MOL0     C 4042   5.950   8.560  10.727 -0.1309  0.1764 -0.2285
   30MOL0     C 4043   5.901   8.497  10.855  0.2399  0.7807  0.2469
   30MOL0     C 4044   5.924   8.350  10.839 -0.2131 -0.4603 -0.5104
   30MOL0     C 4045   5.891   8.264  10.959 -0.2093  0.1998 -0.6990
   30MOL0     C 4046   5.750   8.218  10.971  0.6674  0.7639 -0.2437
   30MOL0    Cl 4047   5.749   8.097  11.106 -0.1993 -0.0380 -0.1961
   30MOL0     C 4048   5.782   9.203  10.590  0.0107 -0.7819 -0.6760
   30MOL0     C 4049   5.785   9.350  10.595  0.0559 -0.3063  0.1040
   30MOL0     O 4050   5.911   9.512  10.331  0.1057 -0.1016 -0.2201
   30MOL0     C 4051   5.924   9.829  10.476 -1.6445  0.1643 -0.2625
   30MOL0     C 4052   5.940   9.965  10.448 -0.0339 -0.5962  0.7145
   30MOL0     N 4053   6.296  10.451   9.926 -0.3830  1.0021  0.0455
   30MOL0     N 4054   6.397  10.508   9.866  0.8691 -0.7906 -1.0157
   30MOL0     C 4055   7.187  11.284  10.388 -0.1599  0.0318  0.7955
   30MOL0     C 4056   7.259  11.287  10.504 -0.4331  0.6711  0.2043
   30MOL0     C 4057   7.341  11.206  10.948  0.4702 -0.6316 -0.5974
   30MOL0     C 4058   7.482  11.195  10.923 -0.0498 -0.1922  0.5202
   30MOL0     C 4059   7.569  11.139  11.011 -0.4924 -0.3927  0.4277
   30MOL0     C 4060   7.505  11.094  11.129 -0.6036 -0.7961  0.1880
   30MOL0     O 4061   7.571  11.024  11.227 -0.6317  0.0518 -0.0744
   30MOL0     C 4062   7.709  10.979  11.214 -0.3325  0.7031  0.3999
   30MOL0     C 4063   7.773  10.914  11.336 -0.1666 -0.3028  0.0111
   30MOL0     C 4064   7.894  10.830  11.279  1.3242 -0.1008 -0.3288
   30MOL0     C 4065   7.945  10.750  11.402  0.1752 -0.7832  0.1933
   30MOL0     C 4066   8.057  10.675  11.365 -0.6477  0.5518 -0.2050
   30MOL0     C 4067   8.165  10.625  11.338  0.5934  0.8557  0.7163
   30MOL0     C 4068   7.373  11.117  11.170 -0.7798  0.1050  0.0434
   30MOL0     C 4069   7.288  11.172  11.077  0.0817  0.4917 -1.1630
   30MOL0     C 4070   7.153  11.223  11.122 -0.2570  1.3138  0.1252
   30MOL0     H 4071   7.015  11.409  10.708 -0.9696 -0.8074  1.1118
   30MOL0     H 4072   6.880  11.384  10.501 -0.6136 -0.8763 -0.9199
   30MOL0     H 4073   7.102  11.234  10.123  0.6554 -0.3557  0.5853
   30MOL0     H 4074   6.932  11.245  10.084  1.4089 -2.6813 -1.4209
   30MOL0     H 4075   7.093  11.031  10.219 -0.3848 -3.4922  2.3109
   30MOL0     H 4076   6.926  11.044  10.276  1.2758 -0.8155  0.3314
   30MOL0     H 4077   7.029  10.975  10.004  0.3299 -0.0563  0.2832
   30MOL0     H 4078   6.982  10.862  10.112  0.4541 -0.3258 -1.1893
   30MOL0     H 4079   6.726  10.938  10.082 -2.2790  1.2777 -2.9274
   30MOL0     H 4080   6.783  11.073   9.993 -1.5243 -1.1253 -1.1943
   30MOL0     H 4081   6.883  10.904   9.832  0.6244  0.5450  0.7999
   30MOL0     H 4082   6.698  10.907   9.840 -0.6406 -1.0333 -2.0622
   30MOL0     H 4083   6.806  10.680   9.832  3.6435  1.0370  0.6939
   30MOL0     H 4084   6.879  10.722   9.989  0.9115  4.3221  0.0512
   30MOL0     H 4085   6.664  10.717  10.102 -0.4429 -0.0856 -0.4945
   30MOL0     H 4086   6.693  10.568  10.032  1.5435  1.0098  2.8934
   30MOL0     H 4087   6.524  10.807   9.919 -3.2730 -1.8371  0.4533
   30MOL0     H 4088   6.555  10.688   9.809 -0.4818  0.9580 -1.7635
   30MOL0     H 4089   6.330  10.721  10.114 -0.9585 -1.7751  1.8295
   30MOL0     H 4090   6.051  10.510  10.014  2.7622  1.6989 -0.8168
   30MOL0     H 4091   6.106  10.600  10.157  0.7736  0.6286 -0.8080
   30MOL0     H 4092   6.133  10.293  10.103  0.3443  0.5354 -0.5392
   30MOL0     H 4093   6.245  10.377  10.206  0.6488 -0.3277  0.0202
   30MOL0     H 4094   6.053  10.443  10.360 -1.9178  0.0016  0.5137
   30MOL0     H 4095   5.935  10.378  10.253 -0.6852  2.4270  1.0806
   30MOL0     H 4096   6.159  10.235  10.419  0.7928  1.7748 -0.1876
   30MOL0     H 4097   5.989  10.229  10.461  0.7160  0.6114  0.8509
   30MOL0     H 4098   6.096   9.930  10.143 -0.1942 -0.4876  0.4453
   30MOL0     H 4099   6.151   9.723  10.098 -0.9220  2.7672  0.9007
   30MOL0     H 4100   5.991   9.683  10.076  1.0420 -1.0617 -1.3421
   30MOL0     H 4101   6.107   9.581  10.187  2.8227  0.9831 -0.7223
   30MOL0     H 4102   6.120   9.406  10.616  0.7377  0.0708  3.8545
   30MOL0     H 4103   6.114   9.161  10.650  2.2029  3.9184  0.4378
   30MOL0     H 4104   6.082   8.955  10.535  0.7787 -2.2317  2.1686
   30MOL0     H 4105   6.097   8.924  10.701  1.4058 -3.5089 -1.3196
   30MOL0     H 4106   5.943   8.759  10.508 -1.9242 -0.5755  1.1341
   30MOL0     H 4107   6.091   8.725  10.583  1.9673  3.5175  1.4475
   30MOL0     H 4108   5.820   8.725  10.720 -0.5868 -3.9274 -2.9783
   30MOL0     H 4109   5.976   8.736  10.817 -1.3261  1.9836  1.4353
   30MOL0     H 4110   6.057   8.551  10.711  0.8728  2.9243  3.5040
   30MOL0     H 4111   5.903   8.505  10.646  1.1091  1.2674 -1.7512
   30MOL0     H 4112   5.944   8.534  10.948  0.8805  1.0527 -0.1580
   30MOL0     H 4113   5.794   8.517  10.870 -0.2596  0.4209 -2.3792
   30MOL0     H 4114   6.027   8.337  10.806 -1.1983 -4.3984 -2.6778
   30MOL0     H 4115   5.860   8.327  10.754 -0.6509  1.7262 -0.8100
   30MOL0     H 4116   5.928   8.318  11.046 -0.4159  1.3640 -1.3214
   30MOL0     H 4117   5.955   8.174  10.961 -2.7336 -1.7120  0.9289
   30MOL0     H 4118   5.727   8.164  10.879 -0.4897 -0.4151  0.6941
   30MOL0     H 4119   5.667   8.288  10.989 -1.6136 -2.0291  0.8888
   30MOL0     H 4120   5.681   9.167  10.575 -0.9067  1.7350 -1.0030
   30MOL0     H 4121   5.692   9.405  10.589  1.0469  1.6450  1.5400
   30MOL0     H 4122   5.855   9.804  10.556  0.1527 -0.6628  1.1241
   30MOL0     H 4123   5.891  10.040  10.510 -0.2184  1.4605 -1.7511
   30MOL0     H 4124   7.235  11.253  10.295 -0.2884 -0.9361  1.0429
   30MOL0     H 4125   7.366  11.270  10.518 -0.3765  2.2324  2.1173
   30MOL0     H 4126   7.522  11.233  10.829 -1.8053  3.7396  1.1374
   30MOL0     H 4127   7.671  11.143  10.973 -1.1166  1.7289 -1.2633
   30MOL0     H 4128   7.724  10.902  11.138  2.8805  1.5827 -0.0142
   30MOL0     H 4129   7.758  11.067  11.173  0.3296  0.6213  1.0020
   30MOL0     H 4130   7.694  10.844  11.365 -1.7537  2.1142  1.9678
   30MOL0     H 4131   7.801  10.974  11.423  0.4505 -0.7663  0.1352
   30MOL0     H 4132   7.882  10.768  11.190  3.5956  2.4684 -2.6452
   30MOL0     H 4133   7.967  10.906  11.249  0.0781  0.8416 -1.0379
   30MOL0     H 4134   7.872  10.696  11.462 -0.6402  0.4647  0.3505
   30MOL0     H 4135   7.987  10.820  11.474 -0.6118 -1.4690  1.3489
   30MOL0     H 4136   8.261  10.577  11.329  0.1483  0.3071 -2.3048
   30MOL0     H 4137   7.334  11.076  11.263 -1.1516 -1.0774 -0.6142
   30MOL0     H 4138   7.108  11.275  11.036 -0.9308  2.3449  1.0633
   30MOL0     H 4139   7.095  11.138  11.157  0.2246  2.5847  4.5293
   30MOL0     H 4140   7.165  11.282  11.213  0.7697 -1.5613  1.9485
   31MOL0     O 4141  10.913   6.530   8.410 -0.3317  1.2144  0.0702
   31MOL0     C 4142  11.018   6.459   8.399  1.3211  0.5232 -0.5770
   31MOL0     O 4143  11.021   6.325   8.413  0.0435  0.3342  0.3843
   31MOL0     C 4144  10.911   6.272   8.474 -0.0140  0.3095 -0.4247
   31MOL0     C 4145  10.910   6.237   8.608  0.7037 -0.0430 -0.7398
   31MOL0     C 4146  10.789   6.186   8.664  0.0407  0.5499  0.3388
   31MOL0     C 4147  10.681   6.156   8.575 -0.7951 -0.2766 -0.4010
   31MOL0     O 4148  10.565   6.111   8.631  1.3060 -0.2530 -0.4057
   31MOL0     C 4149  10.477   6.218   8.658  0.3358 -0.5104  0.1142
   31MOL0     C 4150  10.326   6.177   8.646  0.1036  0.5236 -1.3783
   31MOL0     C 4151  10.311   6.112   8.505  0.2092 -0.3326 -0.6692
   31MOL0     C 4152  10.166   6.107   8.477  0.4333 -0.3772 -0.0880
   31MOL0     C 4153  10.132   6.018   8.358 -0.5635 -0.1938 -0.1937
   31MOL0     C 4154  10.179   6.061   8.217 -0.1962 -0.0010 -0.4233
   31MOL0     C 4155  10.150   5.957   8.103  0.2599 -0.6613 -0.6385
   31MOL0     C 4156  10.219   5.966   7.969 -0.6512 -0.2746 -0.5166
   31MOL0     N 4157  10.370   5.966   7.984 -0.4789  0.4460  0.5679
   31MOL0     C 4158  10.454   5.991   7.878 -0.3192  0.1248  0.7122
   31MOL0     C 4159  10.567   5.927   7.918 -0.4153 -0.3416 -0.4810
   31MOL0     C 4160  10.706   5.927   7.853  0.0364 -0.7764  0.0785
   31MOL0     C 4161  10.701   5.854   7.727 -0.3480  0.2605 -0.5440
   31MOL0     C 4162  10.822   5.871   7.629 -0.6059 -0.6472 -0.3645
   31MOL0     C 4163  10.783   5.874   7.481  0.4686 -1.6540  0.3331
   31MOL0     O 4164  10.868   5.957   7.395  0.3001 -0.0352 -0.6178
   31MOL0     C 4165  10.995   5.920   7.358  0.6352 -0.4203  0.1946
   31MOL0     C 4166  11.068   6.011   7.287  0.5550 -0.7216 -0.4141
   31MOL0     C 4167  11.187   5.987   7.226 -0.4274 -0.5821  0.4738
   31MOL0     C 4168  11.240   6.094   7.135  0.1930  0.5965  0.8270
   31MOL0     C 4169  11.249   5.857   7.247 -0.1410 -0.5076  0.4470
   31MOL0     C 4170  11.379   5.836   7.202 -0.2334 -0.2644 -0.6761
   31MOL0     O 4171  11.395   5.710   7.143 -0.6648 -0.5690  0.0997
   31MOL0     C 4172  11.527   5.676   7.095  0.6172  0.2389 -0.2845
   31MOL0     C 4173  11.581   5.762   7.000  0.4012 -0.7835 -1.1457
   31MOL0     C 4174  11.698   5.730   6.945 -0.3731  0.3104 -0.6490
   31MOL0     C 4175  11.774   5.616   6.984  1.5288 -0.6356  0.2282
   31MOL0     O 4176  11.885   5.581   6.916  0.4509 -0.5204  0.0496
   31MOL0     C 4177  11.996   5.663   6.942 -0.9739 -0.5336 -0.1205
   31MOL0     C 4178  12.117   5.589   6.873  0.6735  0.6097 -1.0646
   31MOL0     C 4179  12.110   5.624   6.728 -0.1414 -0.0078  0.3551
   31MOL0     C 4180  12.233   5.558   6.653 -0.1995 -0.2686 -0.0117
   31MOL0     C 4181  12.260   5.608   6.510  0.2723 -0.4365 -0.8065
   31MOL0     C 4182  12.370   5.513   6.444  0.0246  0.0131 -0.0172
   31MOL0     C 4183  12.412   5.563   6.314 -0.0977 -0.4466  0.3846
   31MOL0     C 4184  12.312   5.525   6.200 -0.5649 -0.0667 -0.6287
   31MOL0    Cl 4185  12.303   5.347   6.180  0.0559 -0.1767 -0.0150
   31MOL0     C 4186  11.719   5.528   7.071  0.4569 -0.0587  0.5093
   31MOL0     C 4187  11.594   5.556   7.128  0.0242 -0.5171  0.7679
   31MOL0     O 4188  11.474   5.915   7.219 -0.5150  0.8700  0.2173
   31MOL0     C 4189  11.171   5.758   7.312  0.1983  0.8610  0.3391
   31MOL0     C 4190  11.045   5.790   7.370  0.5283 -0.9063 -0.7433
   31MOL0     N 4191  10.555   5.857   8.034  0.1735 -0.3996 -0.2656
   31MOL0     N 4192  10.432   5.881   8.077 -0.4883 -0.5387 -0.7921
   31MOL0     C 4193  10.687   6.186   8.441 -0.0284  1.3081  0.6013
   31MOL0     C 4194  10.805   6.238   8.388  0.3258  0.4427 -0.0308
   31MOL0     C 4195  11.152   6.521   8.380  0.8442  0.4018 -0.7576
   31MOL0     C 4196  11.272   6.448   8.396 -0.1404  0.0893 -0.9732
   31MOL0     C 4197  11.394   6.505   8.373 -0.1963 -0.2067 -0.1643
   31MOL0     C 4198  11.404   6.638   8.331  0.5642 -0.4795 -0.1284
   31MOL0     O 4199  11.531   6.681   8.313  0.0916 -0.0108 -0.1635
   31MOL0     C 4200  11.560   6.813   8.282  0.9203 -0.3106 -0.8434
   31MOL0     C 4201  11.711   6.850   8.290 -0.2828  0.2340  0.3494
   31MOL0     C 4202  11.809   6.781   8.193  1.4507 -0.1858 -0.4934
   31MOL0     C 4203  11.747   6.749   8.054 -0.7711 -0.0923 -0.0612
   31MOL0     C 4204  11.691   6.869   7.983 -0.3226  0.6871 -0.6629
   31MOL0     C 4205  11.638   6.971   7.951 -0.5587 -0.6207 -0.3701
   31MOL0     C 4206  11.284   6.707   8.304  0.1007 -0.2373 -0.1121
   31MOL0     C 4207  11.160   6.659   8.338  0.3142 -0.2492 -0.0492
   31MOL0     C 4208  11.041   6.753   8.324 -0.9644 -1.3891  0.7558
   31MOL0     H 4209  10.999   6.255   8.667 -2.0492 -0.0787  3.8874
   31MOL0     H 4210  10.781   6.168   8.771 -1.2730  4.8009  1.1512
   31MOL0     H 4211  10.496   6.300   8.589 -0.9874 -0.1793  0.1096
   31MOL0     H 4212  10.493   6.268   8.754 -0.7243 -1.2965  0.7344
   31MOL0     H 4213  10.287   6.106   8.721 -0.0298  2.8627  0.9128
   31MOL0     H 4214  10.262   6.265   8.651 -1.9575 -0.7578 -3.1831
   31MOL0     H 4215  10.360   6.168   8.425  1.1499  0.2269  0.2810
   31MOL0     H 4216  10.362   6.015   8.498  1.5825  0.4674 -2.6384
   31MOL0     H 4217  10.117   6.061   8.563  1.0365  3.5677  2.6117
   31MOL0     H 4218  10.129   6.209   8.461  2.0801  0.1638 -0.6903
   31MOL0     H 4219  10.023   6.022   8.353 -0.5050  0.3631 -3.7364
   31MOL0     H 4220  10.177   5.919   8.370  3.6938  1.5695  0.1831
   31MOL0     H 4221  10.112   6.145   8.202  0.2102  0.6587  1.2788
   31MOL0     H 4222  10.281   6.101   8.213 -0.2296  0.2938  1.1873
   31MOL0     H 4223  10.045   5.978   8.082 -0.1391 -0.3065  1.4795
   31MOL0     H 4224  10.154   5.861   8.156 -1.5882 -0.3961  0.0386
   31MOL0     H 4225  10.184   5.880   7.910  4.2724 -1.5455 -2.0654
   31MOL0     H 4226  10.198   6.060   7.917  1.4110 -0.0470 -1.0271
   31MOL0     H 4227  10.444   6.018   7.773 -0.8190 -0.7049  0.5322
   31MOL0     H 4228  10.774   5.874   7.920  1.6027  0.6791 -0.2800
   31MOL0     H 4229  10.735   6.033   7.844  0.4398 -0.6523  2.2760
   31MOL0     H 4230  10.700   5.750   7.761 -1.2685  0.2570 -0.5645
   31MOL0     H 4231  10.609   5.887   7.678 -0.1685 -1.0451 -1.8213
   31MOL0     H 4232  10.864   5.971   7.649 -1.4234 -0.2667 -0.5241
   31MOL0     H 4233  10.906   5.803   7.648  1.4708  1.4277 -1.4746
   31MOL0     H 4234  10.780   5.773   7.438 -0.6753 -1.6805  0.4480
   31MOL0     H 4235  10.680   5.910   7.474  1.9705  3.7704  1.5309
   31MOL0     H 4236  11.022   6.108   7.272  1.0795 -0.2172  1.1332
   31MOL0     H 4237  11.277   6.178   7.195 -0.2611  2.0654 -0.8353
   31MOL0     H 4238  11.162   6.130   7.066 -1.2605 -0.8271  1.6559
   31MOL0     H 4239  11.328   6.066   7.077  2.4449  1.4160  3.5984
   31MOL0     H 4240  11.535   5.858   6.976  0.5656 -0.2202  0.6293
   31MOL0     H 4241  11.743   5.789   6.867  1.5436  1.3904  1.1899
   31MOL0     H 4242  11.985   5.761   6.896  2.9140 -0.7581 -1.9031
   31MOL0     H 4243  12.013   5.669   7.050 -0.3133  1.8765 -0.3211
   31MOL0     H 4244  12.216   5.615   6.912 -0.4247  1.2715  1.5680
   31MOL0     H 4245  12.117   5.481   6.888  0.7021  0.7360 -0.0506
   31MOL0     H 4246  12.120   5.732   6.712 -1.8720  0.6870  3.2116
   31MOL0     H 4247  12.020   5.585   6.681 -0.2394  1.4400 -0.7110
   31MOL0     H 4248  12.231   5.448   6.658  1.3146 -0.3533 -0.6956
   31MOL0     H 4249  12.322   5.595   6.705 -2.1243  2.5621  1.5200
   31MOL0     H 4250  12.167   5.590   6.454 -2.0455  0.8165  2.3107
   31MOL0     H 4251  12.287   5.714   6.506 -2.8391  0.4317 -2.5196
   31MOL0     H 4252  12.340   5.408   6.446 -1.7178  0.4567 -0.6664
   31MOL0     H 4253  12.457   5.512   6.510  0.9458  2.8605 -1.0547
   31MOL0     H 4254  12.512   5.523   6.296  0.7714 -0.0498  3.6683
   31MOL0     H 4255  12.421   5.672   6.309 -2.0567 -0.2954 -3.0764
   31MOL0     H 4256  12.345   5.576   6.109 -4.3386  0.3014 -1.9708
   31MOL0     H 4257  12.208   5.553   6.218 -1.1686 -2.7483  0.5228
   31MOL0     H 4258  11.769   5.433   7.089  2.7701  0.4370 -2.5824
   31MOL0     H 4259  11.542   5.500   7.204 -0.1548  0.7800  1.6425
   31MOL0     H 4260  11.187   5.655   7.339 -2.5782  0.7975  2.0737
   31MOL0     H 4261  10.992   5.712   7.423  0.2057 -0.8127 -0.9285
   31MOL0     H 4262  10.596   6.183   8.381 -1.6221  4.4492  2.6045
   31MOL0     H 4263  10.817   6.242   8.280  1.3285  5.6627  0.0188
   31MOL0     H 4264  11.274   6.341   8.414 -1.3636  0.2248  0.0325
   31MOL0     H 4265  11.480   6.441   8.389  0.1702  0.7289  1.7909
   31MOL0     H 4266  11.523   6.840   8.182  1.7739  1.1748 -0.7839
   31MOL0     H 4267  11.510   6.882   8.350 -0.9458 -0.6022 -1.8321
   31MOL0     H 4268  11.758   6.833   8.387  2.0350 -2.5408 -1.1035
   31MOL0     H 4269  11.708   6.956   8.262  1.6169 -0.0052 -0.9319
   31MOL0     H 4270  11.899   6.839   8.172  4.0549 -2.9556  1.9765
   31MOL0     H 4271  11.847   6.687   8.234  2.0937 -1.1054 -3.0020
   31MOL0     H 4272  11.666   6.677   8.072  2.0544 -3.1008  1.6264
   31MOL0     H 4273  11.831   6.705   8.000 -0.3481 -0.2349  0.7046
   31MOL0     H 4274  11.594   7.057   7.904 -3.5821 -1.1410  1.2464
   31MOL0     H 4275  11.283   6.811   8.274  2.9463 -0.1086 -0.0403
   31MOL0     H 4276  10.972   6.704   8.255  1.1876 -0.9702 -1.8941
   31MOL0     H 4277  11.006   6.756   8.427 -1.2969 -0.6245  0.6275
   31MOL0     H 4278  11.069   6.851   8.284  2.3755 -0.4127  4.7299
   32MOL0     O 4279   4.367   3.577   1.301  0.6933  0.6516  0.5551
   32MOL0     C 4280   4.310   3.670   1.352 -0.4641 -0.1535  1.4522
   32MOL0     O 4281   4.200   3.746   1.307  0.8468 -0.6379 -0.0807
   32MOL0     C 4282   4.207   3.781   1.171  0.6922 -0.0596 -0.9154
   32MOL0     C 4283   4.108   3.734   1.081 -0.4901 -0.2179 -0.8025
   32MOL0     C 4284   4.122   3.761   0.948  0.3758  0.2623  0.7038
   32MOL0     C 4285   4.235   3.831   0.892 -0.4690 -0.8495  0.9373
   32MOL0     O 4286   4.246   3.870   0.760  0.6189 -0.5094  0.5469
   32MOL0     C 4287   4.170   3.988   0.730 -0.1126  1.2140 -0.5258
   32MOL0     C 4288   4.239   4.112   0.792 -0.7968  0.3720 -0.3092
   32MOL0     C 4289   4.157   4.233   0.771 -0.6641  0.5865  0.2305
   32MOL0     C 4290   4.154   4.290   0.631 -0.2318 -0.5354  0.0309
   32MOL0     C 4291   4.289   4.343   0.585  0.0295 -0.0977  0.6376
   32MOL0     C 4292   4.297   4.428   0.454 -0.6249  0.3215  0.1364
   32MOL0     C 4293   4.428   4.497   0.433 -0.7326  0.4851  0.5718
   32MOL0     C 4294   4.482   4.614   0.521  0.1138  0.5000  0.3720
   32MOL0     N 4295   4.588   4.696   0.455  0.0994  0.9823  0.7249
   32MOL0     C 4296   4.594   4.737   0.318  0.0461  0.4243 -0.4716
   32MOL0     C 4297   4.717   4.777   0.301 -0.1685  0.0290  0.6853
   32MOL0     C 4298   4.792   4.822   0.177  0.5155 -0.6193 -0.2952
   32MOL0     C 4299   4.826   4.704   0.091  0.0009  0.0544  0.0283
   32MOL0     C 4300   4.948   4.632   0.150 -0.5460  0.4192 -0.5243
   32MOL0     C 4301   5.018   4.551   0.037  0.3306  0.1604 -0.1843
   32MOL0     O 4302   5.063   4.625  -0.079 -0.2126  0.2934 -0.4409
   32MOL0     C 4303   5.097   4.539  -0.182 -0.3616 -1.0189 -0.6650
   32MOL0     C 4304   5.025   4.543  -0.301  0.4760 -0.4116  0.5006
   32MOL0     C 4305   5.056   4.453  -0.413  0.0234 -0.8437 -0.0222
   32MOL0     C 4306   4.971   4.472  -0.536 -0.4348  0.3712 -1.3582
   32MOL0     C 4307   5.166   4.362  -0.396  0.0068  0.8197  0.2466
   32MOL0     C 4308   5.206   4.246  -0.491  0.6158 -0.3110  0.0532
   32MOL0     O 4309   5.134   4.220  -0.606 -0.1293 -0.2838  0.3192
   32MOL0     C 4310   5.182   4.151  -0.718  0.0176 -0.4239  0.4540
   32MOL0     C 4311   5.287   4.054  -0.723 -0.8733  0.0421  0.6913
   32MOL0     C 4312   5.319   3.986  -0.847 -0.1708 -0.3005 -1.0527
   32MOL0     C 4313   5.244   4.016  -0.961 -0.1710  0.3008 -0.1947
   32MOL0     O 4314   5.258   3.963  -1.082 -0.7122  0.8718  0.4734
   32MOL0     C 4315   5.317   3.832  -1.092 -0.0930 -0.7179 -0.1855
   32MOL0     C 4316   5.351   3.798  -1.235  0.9484 -0.8352 -0.1494
   32MOL0     C 4317   5.230   3.815  -1.330 -0.1931 -1.3251  0.1167
   32MOL0     C 4318   5.256   3.776  -1.474 -0.2265 -0.0577 -0.8453
   32MOL0     C 4319   5.125   3.792  -1.554  1.0289 -0.0649  0.2909
   32MOL0     C 4320   5.124   3.692  -1.673 -0.0540  0.4653  0.2690
   32MOL0     C 4321   5.238   3.699  -1.771 -0.4051  0.4052  1.4018
   32MOL0     C 4322   5.203   3.615  -1.890 -0.4603  0.8365 -1.4351
   32MOL0    Cl 4323   5.250   3.713  -2.039 -0.6540 -0.3456  0.0396
   32MOL0     C 4324   5.147   4.115  -0.951 -0.2690  0.2816  0.1344
   32MOL0     C 4325   5.112   4.174  -0.828  0.4034 -0.2602  0.3716
   32MOL0     O 4326   5.314   4.200  -0.478 -0.3155 -0.0478 -0.2889
   32MOL0     C 4327   5.238   4.366  -0.276  0.4102  0.4651 -0.5055
   32MOL0     C 4328   5.201   4.453  -0.174 -0.6633 -0.3090 -0.5560
   32MOL0     N 4329   4.781   4.770   0.420  0.6451  0.2010 -0.5557
   32MOL0     N 4330   4.706   4.714   0.510 -0.7313  0.6660 -0.1689
   32MOL0     C 4331   4.329   3.874   0.984  0.2401  0.8467 -0.6653
   32MOL0     C 4332   4.311   3.858   1.119  0.0020  0.8257 -0.2235
   32MOL0     C 4333   4.336   3.698   1.491 -0.2066  0.4222  0.8498
   32MOL0     C 4334   4.220   3.728   1.568 -0.8051  0.1512  0.1370
   32MOL0     C 4335   4.244   3.756   1.706  0.2584  0.8476  0.3165
   32MOL0     C 4336   4.373   3.749   1.766 -0.0020 -0.3732 -0.0902
   32MOL0     O 4337   4.398   3.791   1.896  0.3058  0.7863  0.2622
   32MOL0     C 4338   4.301   3.783   1.996  0.3600 -1.1385  0.6753
   32MOL0     C 4339   4.386   3.762   2.126 -0.5626  0.6044 -0.7690
   32MOL0     C 4340   4.305   3.786   2.257 -0.1847  0.2570 -0.2900
   32MOL0     C 4341   4.257   3.923   2.289  0.7412  0.2510  0.3462
   32MOL0     C 4342   4.323   4.037   2.229  0.1612  0.4318  0.2828
   32MOL0     C 4343   4.377   4.138   2.189 -0.9346  0.1606 -0.9855
   32MOL0     C 4344   4.482   3.728   1.681 -0.2841  0.1812 -0.2652
   32MOL0     C 4345   4.465   3.705   1.544 -0.4565  0.0567  0.6990
   32MOL0     C 4346   4.588   3.714   1.455  0.2123 -0.2410  0.0470
   32MOL0     H 4347   4.024   3.670   1.105 -1.3970  1.4577  0.7474
   32MOL0     H 4348   4.053   3.727   0.872 -0.9763 -2.0673  2.8059
   32MOL0     H 4349   4.067   3.987   0.768 -0.0970  1.0773 -0.4864
   32MOL0     H 4350   4.159   3.992   0.622 -0.4108 -3.2839 -0.8514
   32MOL0     H 4351   4.251   4.095   0.900  1.1632  1.7110 -0.2606
   32MOL0     H 4352   4.340   4.121   0.751 -0.5118 -0.1921  0.2578
   32MOL0     H 4353   4.056   4.209   0.809 -0.8118  0.7838 -0.0370
   32MOL0     H 4354   4.196   4.306   0.842 -0.8685  2.1036 -1.1767
   32MOL0     H 4355   4.116   4.215   0.561  2.0486 -1.7852  0.0404
   32MOL0     H 4356   4.083   4.373   0.619 -3.0025 -2.4766  1.7311
   32MOL0     H 4357   4.360   4.261   0.568 -0.7320 -0.1271 -3.5512
   32MOL0     H 4358   4.312   4.414   0.664 -0.3622 -1.7573  2.3090
   32MOL0     H 4359   4.276   4.363   0.369  0.4885  1.8285 -1.3702
   32MOL0     H 4360   4.222   4.507   0.465  1.4796  3.0549 -3.0574
   32MOL0     H 4361   4.429   4.533   0.330 -0.4608  1.7218  0.9949
   32MOL0     H 4362   4.503   4.417   0.435  0.9297  1.9351 -0.6202
   32MOL0     H 4363   4.395   4.676   0.544  1.2461  2.0958  0.5631
   32MOL0     H 4364   4.513   4.581   0.621 -2.4927  0.8536  1.3863
   32MOL0     H 4365   4.519   4.742   0.240 -1.6825 -0.3360  1.0489
   32MOL0     H 4366   4.879   4.878   0.212 -1.0267  0.4276  2.1335
   32MOL0     H 4367   4.729   4.892   0.122  3.3533  3.5257  1.2349
   32MOL0     H 4368   4.742   4.634   0.097  0.2603 -0.2964 -0.3543
   32MOL0     H 4369   4.847   4.733  -0.012  2.1029 -1.1858  0.0590
   32MOL0     H 4370   5.017   4.709   0.186 -2.9746  1.7726  1.6165
   32MOL0     H 4371   4.912   4.565   0.230  0.8829  1.0872  0.7297
   32MOL0     H 4372   5.111   4.506   0.073 -1.1607 -3.6359 -0.5930
   32MOL0     H 4373   4.951   4.466   0.021 -1.0906  1.1187  0.4831
   32MOL0     H 4374   4.926   4.587  -0.311  0.4322 -0.4773  0.6396
   32MOL0     H 4375   4.982   4.397  -0.614 -0.9706  0.5859 -1.6381
   32MOL0     H 4376   4.997   4.567  -0.582  1.4816  0.8841  0.5938
   32MOL0     H 4377   4.864   4.471  -0.516 -0.5013  0.4391 -1.7074
   32MOL0     H 4378   5.344   4.028  -0.635 -0.1247  4.4336  1.7011
   32MOL0     H 4379   5.407   3.923  -0.835 -2.1502 -2.7224  2.5454
   32MOL0     H 4380   5.415   3.841  -1.044 -0.9593 -2.7343  2.1701
   32MOL0     H 4381   5.262   3.756  -1.036 -0.5183  1.2953  2.3273
   32MOL0     H 4382   5.431   3.861  -1.272  1.4601 -0.4111  1.5792
   32MOL0     H 4383   5.391   3.696  -1.239 -0.1172 -1.3725  1.5608
   32MOL0     H 4384   5.211   3.923  -1.341  1.9889 -1.0467 -1.7695
   32MOL0     H 4385   5.150   3.756  -1.286  1.3262 -2.7774  1.0032
   32MOL0     H 4386   5.294   3.673  -1.471  0.1375  0.0819  1.8472
   32MOL0     H 4387   5.336   3.836  -1.518  0.0417 -1.0698 -1.8032
   32MOL0     H 4388   5.033   3.774  -1.497 -0.1205 -1.3532 -1.8502
   32MOL0     H 4389   5.118   3.896  -1.586  0.1830  0.5429  2.2675
   32MOL0     H 4390   5.032   3.715  -1.728  0.5295 -0.2137 -1.0462
   32MOL0     H 4391   5.115   3.588  -1.640 -2.5172  0.8968  1.1190
   32MOL0     H 4392   5.323   3.661  -1.714 -0.2329 -0.1780  0.7677
   32MOL0     H 4393   5.253   3.800  -1.811  0.1140  0.4374  1.6737
   32MOL0     H 4394   5.095   3.597  -1.891 -0.3596 -0.1210  0.6965
   32MOL0     H 4395   5.258   3.522  -1.874 -0.1917  1.0211 -1.2886
   32MOL0     H 4396   5.076   4.132  -1.031 -2.5867 -0.3261  1.9522
   32MOL0     H 4397   5.021   4.233  -0.828 -0.3154 -1.2092 -2.1083
   32MOL0     H 4398   5.326   4.303  -0.265 -0.2983 -0.5261 -0.3082
   32MOL0     H 4399   5.258   4.453  -0.082  0.3424  1.7953 -1.1204
   32MOL0     H 4400   4.424   3.913   0.948 -0.0901  0.8725 -1.5583
   32MOL0     H 4401   4.387   3.880   1.193  2.5501 -1.8912 -1.8085
   32MOL0     H 4402   4.118   3.719   1.532  0.0075 -3.5256 -1.7526
   32MOL0     H 4403   4.160   3.766   1.774 -0.4562 -2.9991  0.2535
   32MOL0     H 4404   4.240   3.871   2.018  2.5209  0.1176  2.0364
   32MOL0     H 4405   4.244   3.690   1.995 -0.2965 -0.7833  2.2291
   32MOL0     H 4406   4.474   3.828   2.122 -0.1865  0.3326  1.5998
   32MOL0     H 4407   4.435   3.665   2.135  2.0149  1.9199  1.0360
   32MOL0     H 4408   4.219   3.720   2.242 -0.1744  0.5937 -2.1329
   32MOL0     H 4409   4.374   3.754   2.335 -1.8513 -1.0108  0.7403
   32MOL0     H 4410   4.249   3.936   2.397 -1.8585  0.6331  0.1732
   32MOL0     H 4411   4.155   3.932   2.249  1.6641  0.5970 -2.1230
   32MOL0     H 4412   4.434   4.224   2.160 -3.7004  3.9622  3.3626
   32MOL0     H 4413   4.582   3.738   1.721 -0.2867 -1.0986  0.1118
   32MOL0     H 4414   4.676   3.739   1.515 -1.5586  3.2378  1.5169
   32MOL0     H 4415   4.592   3.633   1.383  0.2293  1.8839 -2.4933
   32MOL0     H 4416   4.564   3.802   1.394 -0.1549  0.2878  0.9163
   33MOL0     O 4417   8.485   0.543   0.809  0.3533  0.1336  0.5604
   33MOL0     C 4418   8.531   0.529   0.699  0.3209 -0.4985 -0.4003
   33MOL0     O 4419   8.520   0.618   0.595  1.1550  0.3021  0.0720
   33MOL0     C 4420   8.530   0.756   0.613  0.4467  0.2838 -0.0094
   33MOL0     C 4421   8.463   0.834   0.513 -0.8972 -0.0701  0.0685
   33MOL0     C 4422   8.477   0.970   0.525 -0.8718 -0.7943  0.1268
   33MOL0     C 4423   8.542   1.037   0.632 -0.2304  0.1727 -0.1220
   33MOL0     O 4424   8.585   1.162   0.652  0.1602 -0.3669 -0.5865
   33MOL0     C 4425   8.585   1.255   0.535 -0.1571 -0.5345 -0.3815
   33MOL0     C 4426   8.656   1.385   0.562 -0.1095 -0.1152 -0.3727
   33MOL0     C 4427   8.583   1.504   0.498 -0.0293 -0.0829 -0.3206
   33MOL0     C 4428   8.652   1.638   0.507 -0.0051 -0.3787 -0.0850
   33MOL0     C 4429   8.587   1.755   0.441  0.4507 -0.2491  0.1953
   33MOL0     C 4430   8.593   1.755   0.290 -0.0561 -0.5776 -0.2363
   33MOL0     C 4431   8.506   1.855   0.219  0.1486  0.1312  0.7622
   33MOL0     C 4432   8.576   1.992   0.225  1.4890 -0.8663 -0.9237
   33MOL0     N 4433   8.685   2.020   0.136 -0.3688 -0.8606 -0.1863
   33MOL0     C 4434   8.771   2.134   0.153  0.6324  0.0427 -0.3572
   33MOL0     C 4435   8.883   2.101   0.089  0.4127 -0.6325 -0.2410
   33MOL0     C 4436   9.004   2.192   0.096  0.1395  0.2894 -0.5952
   33MOL0     C 4437   8.976   2.337   0.084  0.2321 -0.5784  0.4670
   33MOL0     C 4438   8.892   2.385  -0.039  0.4119  0.3709 -0.4260
   33MOL0     C 4439   8.867   2.537  -0.044  0.2326 -0.2868  0.2628
   33MOL0     O 4440   8.810   2.593   0.078 -0.5126  0.9368 -0.3069
   33MOL0     C 4441   8.731   2.712   0.057  1.1210  0.3676  0.2722
   33MOL0     C 4442   8.769   2.810  -0.034  0.0833 -0.0127 -1.0175
   33MOL0     C 4443   8.693   2.934  -0.033 -0.0823  0.2765 -0.6255
   33MOL0     C 4444   8.751   3.049  -0.111  0.5398  0.6891  0.3978
   33MOL0     C 4445   8.578   2.951   0.051  0.0243 -0.3468  0.1017
   33MOL0     C 4446   8.474   3.045   0.027 -0.7280 -0.5518 -0.2864
   33MOL0     O 4447   8.353   3.011   0.093 -0.0240  0.3120  0.0478
   33MOL0     C 4448   8.235   3.078   0.071 -0.1352 -0.4764  0.6020
   33MOL0     C 4449   8.189   3.168  -0.023 -0.5944 -0.9066 -0.0615
   33MOL0     C 4450   8.053   3.214  -0.019 -0.4694 -0.5120  0.5884
   33MOL0     C 4451   7.961   3.163   0.073  0.1316  0.4700 -0.1404
   33MOL0     O 4452   7.827   3.193   0.072 -0.1913 -0.4196 -0.2170
   33MOL0     C 4453   7.766   3.244  -0.042  0.1948  1.0643 -0.1559
   33MOL0     C 4454   7.618   3.262  -0.011  0.4959  0.2237 -0.3210
   33MOL0     C 4455   7.579   3.383   0.082  0.6815  0.3496 -0.7194
   33MOL0     C 4456   7.607   3.519   0.023  0.4473 -0.3405  0.4820
   33MOL0     C 4457   7.542   3.631   0.106  0.4334  0.0476  0.1562
   33MOL0     C 4458   7.394   3.627   0.129 -1.3863  0.9496 -0.6271
   33MOL0     C 4459   7.309   3.615   0.005  0.4524 -0.5690  0.4802
   33MOL0     C 4460   7.163   3.658   0.041 -0.8101  0.2263 -0.6269
   33MOL0    Cl 4461   7.067   3.613  -0.103  0.0091  0.5471 -0.0855
   33MOL0     C 4462   8.004   3.066   0.165  0.3545 -0.6257 -0.3493
   33MOL0     C 4463   8.143   3.033   0.159  0.5886 -0.2511  0.7276
   33MOL0     O 4464   8.487   3.143  -0.042 -0.3591 -0.5519 -0.0860
   33MOL0     C 4465   8.550   2.846   0.145  0.1767 -1.0020  0.9605
   33MOL0     C 4466   8.629   2.734   0.149  0.5159  0.2919  0.6044
   33MOL0     N 4467   8.862   1.992   0.012 -0.5071  0.7418  0.4620
   33MOL0     N 4468   8.752   1.941   0.049  0.1586 -0.0529 -0.0084
   33MOL0     C 4469   8.587   0.958   0.735 -0.5870  1.2020  1.3252
   33MOL0     C 4470   8.588   0.814   0.724  0.1267 -0.7937 -1.0797
   33MOL0     C 4471   8.594   0.403   0.670 -0.4520 -1.3891  0.6203
   33MOL0     C 4472   8.560   0.343   0.546  0.2635 -0.1322  0.4240
   33MOL0     C 4473   8.617   0.222   0.499 -0.9073  1.4529  0.3880
   33MOL0     C 4474   8.720   0.157   0.581 -0.0608  0.6909  0.0008
   33MOL0     O 4475   8.773   0.043   0.527  0.3798 -0.1080  0.9758
   33MOL0     C 4476   8.823  -0.058   0.607  0.4059  0.2137 -0.3478
   33MOL0     C 4477   8.826  -0.176   0.511 -0.0884  0.1989  0.1781
   33MOL0     C 4478   8.876  -0.316   0.559  0.5879 -1.0050  0.2935
   33MOL0     C 4479   9.026  -0.347   0.532 -0.4181 -0.0191  0.2220
   33MOL0     C 4480   9.037  -0.489   0.546 -0.5432 -0.2444  0.5322
   33MOL0     C 4481   9.048  -0.610   0.556 -0.8904  0.1672 -1.3150
   33MOL0     C 4482   8.760   0.222   0.691 -0.7099  0.2621  0.1683
   33MOL0     C 4483   8.704   0.339   0.747  0.8537 -0.6075 -0.8720
   33MOL0     C 4484   8.769   0.415   0.858 -0.7492  0.2536  0.3257
   33MOL0     H 4485   8.416   0.777   0.434  0.3967  0.0158 -0.7966
   33MOL0     H 4486   8.429   1.024   0.444  1.1939  1.4747  0.2901
   33MOL0     H 4487   8.483   1.256   0.494  0.2239  1.6450 -1.4358
   33MOL0     H 4488   8.642   1.204   0.457  1.0108  2.1722 -1.4249
   33MOL0     H 4489   8.662   1.408   0.669 -4.0856  1.3780 -0.2899
   33MOL0     H 4490   8.759   1.397   0.528 -1.2975  2.4554 -3.5946
   33MOL0     H 4491   8.566   1.477   0.393 -3.0721  5.3674 -1.6291
   33MOL0     H 4492   8.479   1.513   0.531 -1.0495 -3.0408 -2.2916
   33MOL0     H 4493   8.663   1.658   0.614  0.8282 -0.6489 -0.1152
   33MOL0     H 4494   8.751   1.629   0.463  0.9288  2.6806  1.1578
   33MOL0     H 4495   8.621   1.853   0.475 -0.8765  0.1727  0.3555
   33MOL0     H 4496   8.482   1.749   0.472  0.4577  2.0923  0.8434
   33MOL0     H 4497   8.697   1.774   0.262  0.7131  0.1356  2.7888
   33MOL0     H 4498   8.563   1.660   0.244 -1.3501  1.0318 -2.9788
   33MOL0     H 4499   8.406   1.861   0.261 -0.2932  2.0883 -0.4600
   33MOL0     H 4500   8.483   1.826   0.116  1.0452 -1.5290  0.9904
   33MOL0     H 4501   8.495   2.064   0.214  0.2877 -2.2407 -1.5240
   33MOL0     H 4502   8.633   2.021   0.314 -0.7341  2.7712 -0.5091
   33MOL0     H 4503   8.762   2.224   0.213  0.0601  0.1749 -0.6341
   33MOL0     H 4504   9.083   2.159   0.028 -1.0716  1.5339 -2.7239
   33MOL0     H 4505   9.041   2.182   0.198 -1.9629  0.3583  0.2179
   33MOL0     H 4506   8.930   2.370   0.177  2.8793  1.9178  1.0553
   33MOL0     H 4507   9.076   2.382   0.076 -0.2654  0.6441  1.0001
   33MOL0     H 4508   8.944   2.347  -0.127  0.7946 -3.0342  1.0750
   33MOL0     H 4509   8.792   2.340  -0.043  0.2275  0.6415  0.7744
   33MOL0     H 4510   8.968   2.581  -0.051  0.2956 -0.0329  2.2666
   33MOL0     H 4511   8.800   2.552  -0.129 -0.0314 -4.5345 -0.4939
   33MOL0     H 4512   8.855   2.808  -0.100  0.1011  1.8647 -1.1142
   33MOL0     H 4513   8.850   3.016  -0.144  0.2437  1.0794 -0.9599
   33MOL0     H 4514   8.760   3.138  -0.048  1.7733  1.9829 -1.5095
   33MOL0     H 4515   8.691   3.079  -0.198 -2.3840 -2.7690  0.9806
   33MOL0     H 4516   8.265   3.199  -0.093 -0.0203 -0.3199  0.8066
   33MOL0     H 4517   8.025   3.288  -0.094  2.6102  1.4127  1.1715
   33MOL0     H 4518   7.797   3.343  -0.077 -0.8772  0.8273 -1.9074
   33MOL0     H 4519   7.798   3.177  -0.122 -0.3554 -1.5958  1.7049
   33MOL0     H 4520   7.565   3.257  -0.106 -0.0475  0.5694 -0.0417
   33MOL0     H 4521   7.580   3.168   0.030 -0.5035  0.4576 -0.6808
   33MOL0     H 4522   7.641   3.381   0.172 -2.3469 -2.9657  1.5407
   33MOL0     H 4523   7.476   3.368   0.114  1.0329 -3.0630 -0.8762
   33MOL0     H 4524   7.569   3.513  -0.080 -0.5820 -2.8365  0.9337
   33MOL0     H 4525   7.713   3.546   0.019  0.5661  0.2307  4.2847
   33MOL0     H 4526   7.587   3.633   0.205  0.6698  0.7387  0.0380
   33MOL0     H 4527   7.578   3.724   0.061  1.6925 -1.3034 -1.7870
   33MOL0     H 4528   7.363   3.719   0.180 -1.9256  0.1498  0.5114
   33MOL0     H 4529   7.361   3.550   0.199 -0.3197  0.0573 -1.0814
   33MOL0     H 4530   7.316   3.513  -0.032 -1.6413 -0.2934 -0.8885
   33MOL0     H 4531   7.341   3.679  -0.078 -0.0900  0.5754  1.1226
   33MOL0     H 4532   7.164   3.765   0.060 -3.2280  0.4707 -1.4326
   33MOL0     H 4533   7.121   3.616   0.133 -0.2175  1.0607  0.0317
   33MOL0     H 4534   7.925   3.014   0.218 -0.4771  1.3430  0.4087
   33MOL0     H 4535   8.178   2.952   0.223 -0.3848  0.6997  2.5429
   33MOL0     H 4536   8.469   2.842   0.217  1.3416 -2.3446  2.2574
   33MOL0     H 4537   8.606   2.656   0.221  0.5842  0.7259  1.1079
   33MOL0     H 4538   8.634   1.004   0.821 -1.4631  0.6888  2.0996
   33MOL0     H 4539   8.622   0.748   0.802 -1.1665 -2.3621 -1.7781
   33MOL0     H 4540   8.481   0.386   0.486 -1.2625  1.3451  3.2835
   33MOL0     H 4541   8.594   0.156   0.415 -0.8045  0.8276  0.8427
   33MOL0     H 4542   8.913  -0.029   0.662 -1.7295  1.1116  2.9620
   33MOL0     H 4543   8.757  -0.084   0.690 -0.6739 -2.6051 -1.9448
   33MOL0     H 4544   8.877  -0.149   0.418 -2.0582 -0.7749 -1.2603
   33MOL0     H 4545   8.720  -0.186   0.487  0.2354 -1.3441 -0.7726
   33MOL0     H 4546   8.852  -0.340   0.663 -0.0302 -3.6087 -0.3861
   33MOL0     H 4547   8.820  -0.384   0.494  1.8417 -2.7931  1.0164
   33MOL0     H 4548   9.088  -0.303   0.611 -1.1335 -0.1241  0.8588
   33MOL0     H 4549   9.079  -0.307   0.445 -0.9512 -2.3112 -1.2381
   33MOL0     H 4550   9.049  -0.716   0.573 -1.3943  0.3362 -0.0996
   33MOL0     H 4551   8.848   0.181   0.741 -0.3103  1.4444  0.4772
   33MOL0     H 4552   8.691   0.437   0.931 -2.0790 -3.2505  0.1601
   33MOL0     H 4553   8.851   0.354   0.898 -0.1103  0.4380 -0.6790
   33MOL0     H 4554   8.818   0.504   0.818  2.5892 -0.0647  3.1948
   34MOL0     O 4555   0.820   0.199   9.756 -0.5289 -0.6793  0.0101
   34MOL0     C 4556   0.799   0.310   9.806 -0.4072  0.0134  0.5545
   34MOL0     O 4557   0.711   0.406   9.757 -1.5518  0.3105  0.4840
   34MOL0     C 4558   0.629   0.373   9.654 -0.2844  0.9971 -0.1349
   34MOL0     C 4559   0.559   0.252   9.633 -0.3778 -0.5000  0.2197
   34MOL0     C 4560   0.469   0.251   9.534 -0.0089  0.2875  0.1545
   34MOL0     C 4561   0.462   0.353   9.446  0.5767 -0.0503 -0.0433
   34MOL0     O 4562   0.383   0.345   9.343 -0.1275 -1.2184  0.2023
   34MOL0     C 4563   0.271   0.431   9.324 -0.2275  0.1599  0.7101
   34MOL0     C 4564   0.200   0.402   9.201 -0.6342  0.8303  0.0275
   34MOL0     C 4565   0.268   0.501   9.097 -0.8318  0.0149  0.1626
   34MOL0     C 4566   0.164   0.603   9.039 -0.8845  0.2635  0.4611
   34MOL0     C 4567   0.160   0.730   9.133 -0.3525  1.0550  0.1261
   34MOL0     C 4568   0.059   0.837   9.112  0.6635  0.2324  0.0826
   34MOL0     C 4569   0.054   0.960   9.212  0.2337  0.5797  0.5851
   34MOL0     C 4570   0.178   1.040   9.220  0.5874 -0.0621  0.2434
   34MOL0     N 4571   0.172   1.119   9.350  0.5065  0.2204 -0.8979
   34MOL0     C 4572   0.211   1.253   9.363  0.9761  0.2139 -0.7243
   34MOL0     C 4573   0.228   1.276   9.493 -0.3130 -0.1298  0.2454
   34MOL0     C 4574   0.286   1.411   9.536 -0.8851  0.0961 -1.0101
   34MOL0     C 4575   0.186   1.509   9.604 -0.1671 -0.3996  0.4738
   34MOL0     C 4576   0.253   1.641   9.642 -0.0689  0.4635  0.3757
   34MOL0     C 4577   0.172   1.722   9.737  0.6308 -0.3166  0.3199
   34MOL0     O 4578   0.035   1.727   9.681  0.0914 -0.1815 -1.1958
   34MOL0     C 4579  -0.007   1.858   9.669  0.4840 -0.3602  0.1421
   34MOL0     C 4580  -0.042   1.937   9.777 -1.2918  0.2353 -0.6282
   34MOL0     C 4581  -0.087   2.070   9.748  0.4134 -0.0089 -0.2087
   34MOL0     C 4582  -0.102   2.147   9.871 -0.2940  0.4267 -0.8136
   34MOL0     C 4583  -0.120   2.115   9.613 -0.2240  0.2558  0.4087
   34MOL0     C 4584  -0.196   2.228   9.574  0.6910 -0.5841 -0.4811
   34MOL0     O 4585  -0.162   2.289   9.455 -1.0648  0.7405  0.6639
   34MOL0     C 4586  -0.189   2.421   9.442  1.0845 -0.3403  0.0730
   34MOL0     C 4587  -0.082   2.498   9.406 -1.0893  0.4020 -1.3367
   34MOL0     C 4588  -0.100   2.630   9.378 -1.1978 -0.1573  0.9588
   34MOL0     C 4589  -0.228   2.682   9.372 -0.7048  0.1704  0.3377
   34MOL0     O 4590  -0.266   2.797   9.323  0.2353 -0.5151  0.8566
   34MOL0     C 4591  -0.218   2.819   9.189  0.4688  0.9033 -0.4499
   34MOL0     C 4592  -0.259   2.959   9.150  0.1743 -0.4203 -0.0060
   34MOL0     C 4593  -0.186   3.055   9.228  0.4376 -0.8232 -0.8927
   34MOL0     C 4594  -0.042   3.075   9.188  0.6354  0.8037  0.2754
   34MOL0     C 4595   0.026   3.210   9.235  0.5216  0.4440  0.0994
   34MOL0     C 4596  -0.067   3.335   9.186 -0.1780  0.6497  0.1311
   34MOL0     C 4597  -0.014   3.470   9.242  0.5660 -0.2316 -0.6561
   34MOL0     C 4598  -0.073   3.596   9.178 -0.2482  0.9631  0.0131
   34MOL0    Cl 4599   0.001   3.621   9.014 -0.2188  0.3829 -0.4623
   34MOL0     C 4600  -0.339   2.602   9.404  0.0315  0.1855 -0.7729
   34MOL0     C 4601  -0.322   2.469   9.435  0.0184 -0.4452  0.0321
   34MOL0     O 4602  -0.297   2.258   9.646 -0.3162  0.2472 -0.5109
   34MOL0     C 4603  -0.070   2.032   9.509 -0.4675 -0.5030  0.0439
   34MOL0     C 4604  -0.034   1.896   9.542  0.5166 -0.8098  0.2216
   34MOL0     N 4605   0.207   1.160   9.556 -0.5624 -0.6694 -0.0984
   34MOL0     N 4606   0.168   1.065   9.473 -0.3949 -0.0775  0.3231
   34MOL0     C 4607   0.532   0.472   9.463  0.2698 -0.6664  0.4065
   34MOL0     C 4608   0.610   0.487   9.568  0.7827  0.0876 -0.7297
   34MOL0     C 4609   0.857   0.341   9.944  0.0494  0.1620  0.9036
   34MOL0     C 4610   0.995   0.356   9.959  0.5715  0.5779 -0.4874
   34MOL0     C 4611   1.051   0.371  10.096 -0.2478  0.6303  0.4977
   34MOL0     C 4612   0.965   0.369  10.199 -1.2627 -0.6026 -0.5158
   34MOL0     O 4613   0.992   0.353  10.327 -0.5852 -0.1109  0.2765
   34MOL0     C 4614   1.125   0.341  10.365 -0.7808  0.3533 -1.0315
   34MOL0     C 4615   1.128   0.342  10.528  1.0155 -0.2205 -0.5272
   34MOL0     C 4616   1.096   0.201  10.574  0.2526  0.1929 -0.1359
   34MOL0     C 4617   1.205   0.094  10.554 -0.5854  0.6364 -0.4827
   34MOL0     C 4618   1.326   0.141  10.614  0.1525  0.0902  0.5448
   34MOL0     C 4619   1.439   0.173  10.644  0.4508  0.0387  0.2981
   34MOL0     C 4620   0.827   0.370  10.176  0.8111  0.8652 -0.3888
   34MOL0     C 4621   0.770   0.347  10.053 -0.6692 -1.1484 -0.0912
   34MOL0     C 4622   0.616   0.348  10.049  0.5960  0.6108  0.5458
   34MOL0     H 4623   0.582   0.168   9.696 -0.2739  0.4676  1.5097
   34MOL0     H 4624   0.423   0.158   9.502  0.5565  0.0588  0.0021
   34MOL0     H 4625   0.296   0.537   9.334 -1.5031  0.4525  0.8777
   34MOL0     H 4626   0.213   0.401   9.411 -0.2015 -1.3250  0.2373
   34MOL0     H 4627   0.190   0.295   9.180  0.1375  0.6239  0.6728
   34MOL0     H 4628   0.095   0.431   9.209 -1.5764 -1.8327 -1.3445
   34MOL0     H 4629   0.353   0.556   9.136  2.4082 -4.9550  1.0539
   34MOL0     H 4630   0.322   0.446   9.019  0.8883 -0.1143  1.3920
   34MOL0     H 4631   0.208   0.642   8.946 -0.1699 -1.2854  0.1170
   34MOL0     H 4632   0.072   0.547   9.020  0.7201 -1.5947 -2.8211
   34MOL0     H 4633   0.260   0.775   9.133 -0.0084  0.3587 -1.2731
   34MOL0     H 4634   0.145   0.690   9.233  3.9019  0.7041  0.8286
   34MOL0     H 4635   0.045   0.864   9.007 -0.7147 -2.5225 -0.5261
   34MOL0     H 4636  -0.038   0.787   9.117  1.4750 -1.4897 -0.2441
   34MOL0     H 4637   0.021   0.917   9.307  1.4029 -1.4195  0.1475
   34MOL0     H 4638  -0.029   1.018   9.172  0.0440 -0.2211 -0.1990
   34MOL0     H 4639   0.270   0.982   9.230  2.0941  2.2042  0.3299
   34MOL0     H 4640   0.186   1.099   9.128  0.4523 -0.5659 -0.0980
   34MOL0     H 4641   0.209   1.328   9.284 -0.0979 -0.9501 -1.8422
   34MOL0     H 4642   0.317   1.455   9.441 -0.1972  0.3756 -0.6579
   34MOL0     H 4643   0.364   1.400   9.611 -2.3287  1.0786  0.7336
   34MOL0     H 4644   0.093   1.530   9.552 -1.0929 -0.1886  2.1564
   34MOL0     H 4645   0.152   1.461   9.697  2.6602  3.9120  4.1860
   34MOL0     H 4646   0.351   1.635   9.691 -0.9785 -0.7597  2.1595
   34MOL0     H 4647   0.281   1.701   9.555 -1.0989  1.8271  0.9444
   34MOL0     H 4648   0.164   1.678   9.837  0.2808  1.1713  0.9689
   34MOL0     H 4649   0.223   1.816   9.755  0.2792  0.0148 -0.3585
   34MOL0     H 4650  -0.028   1.885   9.871  1.8640  3.0144  0.6333
   34MOL0     H 4651  -0.185   2.112   9.933  2.8363 -1.3887  2.7780
   34MOL0     H 4652  -0.112   2.256   9.865  0.4945  0.7266  1.7746
   34MOL0     H 4653  -0.018   2.120   9.935 -0.8779 -0.5111 -0.4164
   34MOL0     H 4654   0.016   2.454   9.393 -1.0783 -0.5342  1.3106
   34MOL0     H 4655  -0.022   2.702   9.357 -1.2046  0.4542  2.8385
   34MOL0     H 4656  -0.109   2.828   9.175  0.6272  0.6747  0.5471
   34MOL0     H 4657  -0.258   2.733   9.134 -1.9662  1.1597  0.7866
   34MOL0     H 4658  -0.239   2.985   9.046 -1.6263  3.1283  0.3938
   34MOL0     H 4659  -0.368   2.964   9.162 -0.6049 -1.4779 -4.5715
   34MOL0     H 4660  -0.183   3.033   9.335 -1.4417  0.9524 -0.4032
   34MOL0     H 4661  -0.244   3.147   9.221 -0.2613 -1.0200  1.4651
   34MOL0     H 4662  -0.031   3.054   9.082  0.3067 -1.1857  0.5923
   34MOL0     H 4663   0.019   2.992   9.226  2.2805  2.2444  0.9080
   34MOL0     H 4664   0.031   3.206   9.345 -0.1227 -2.4557  0.1169
   34MOL0     H 4665   0.129   3.223   9.201  1.2913 -1.0547  1.6887
   34MOL0     H 4666  -0.171   3.318   9.214 -0.9202  0.8567 -2.2997
   34MOL0     H 4667  -0.080   3.330   9.078 -1.8826 -1.4862  0.3652
   34MOL0     H 4668   0.095   3.460   9.245  0.4336 -1.8026  1.7035
   34MOL0     H 4669  -0.038   3.481   9.348  0.4459  1.9499 -0.8663
   34MOL0     H 4670  -0.052   3.679   9.245 -1.6179  1.1765  0.2020
   34MOL0     H 4671  -0.182   3.606   9.174 -0.2393  0.6923 -1.4096
   34MOL0     H 4672  -0.438   2.644   9.391  0.3146  1.0347 -0.2795
   34MOL0     H 4673  -0.398   2.397   9.463 -0.6718 -0.1575 -1.0198
   34MOL0     H 4674  -0.076   2.063   9.405  1.8941  0.4795  0.1434
   34MOL0     H 4675  -0.013   1.821   9.467  2.0477  2.1519 -2.5724
   34MOL0     H 4676   0.520   0.547   9.386  1.2316  1.3911  2.1393
   34MOL0     H 4677   0.652   0.586   9.583 -0.8473  0.5706  0.8857
   34MOL0     H 4678   1.052   0.345   9.867  0.0801 -4.3965 -0.4677
   34MOL0     H 4679   1.158   0.378  10.115 -0.5398 -0.4545  2.8993
   34MOL0     H 4680   1.168   0.250  10.322 -0.4381 -0.3557  0.7556
   34MOL0     H 4681   1.187   0.426  10.334 -0.7529  0.1765 -1.4617
   34MOL0     H 4682   1.039   0.400  10.558  0.5014 -0.8325 -0.8472
   34MOL0     H 4683   1.225   0.380  10.562  1.1047  0.5418 -1.5736
   34MOL0     H 4684   1.066   0.211  10.678 -1.3033  1.7530 -0.6912
   34MOL0     H 4685   1.004   0.179  10.519  0.1998  0.4677 -0.1621
   34MOL0     H 4686   1.223   0.068  10.449 -1.4214 -1.3025 -0.1926
   34MOL0     H 4687   1.171   0.006  10.609 -1.1032  3.0245  3.3809
   34MOL0     H 4688   1.528   0.209  10.690  0.9627  0.0337 -0.6710
   34MOL0     H 4689   0.765   0.374  10.265 -1.1526 -0.8495 -1.6039
   34MOL0     H 4690   0.573   0.259  10.002  1.9521 -0.9649  2.1438
   34MOL0     H 4691   0.577   0.347  10.151 -0.5419  0.9091  0.1307
   34MOL0     H 4692   0.581   0.441  10.004 -2.2491 -1.3717 -1.7394
   35MOL0     O 4693   0.325   7.210   4.015  0.2919  0.4412 -1.2200
   35MOL0     C 4694   0.384   7.319   4.001  0.3862 -0.3082 -0.3929
   35MOL0     O 4695   0.451   7.390   4.104  0.1674  0.2761  0.2594
   35MOL0     C 4696   0.414   7.383   4.234  0.9668  0.5918 -0.5442
   35MOL0     C 4697   0.297   7.333   4.291 -0.2777 -0.6000  1.0602
   35MOL0     C 4698   0.274   7.339   4.427  0.1568 -0.7810 -0.1853
   35MOL0     C 4699   0.369   7.397   4.511 -0.8092 -0.1180 -0.3860
   35MOL0     O 4700   0.344   7.413   4.645 -0.3234  0.8881 -0.4651
   35MOL0     C 4701   0.212   7.393   4.708 -1.2754  0.7432  0.3179
   35MOL0     C 4702   0.205   7.249   4.758  0.5784  0.4826 -0.4477
   35MOL0     C 4703   0.067   7.216   4.803 -0.2647  0.5372 -0.6170
   35MOL0     C 4704   0.029   7.273   4.944  0.7280 -0.0451  0.2997
   35MOL0     C 4705  -0.126   7.284   4.970  0.0009  0.1966 -0.2809
   35MOL0     C 4706  -0.180   7.418   4.929  0.2285  0.0773 -0.1005
   35MOL0     C 4707  -0.327   7.406   4.880  0.3656  0.7678  0.1467
   35MOL0     C 4708  -0.414   7.346   4.992  0.1901  0.4988 -0.2826
   35MOL0     N 4709  -0.554   7.327   4.962  0.1725  0.1926  0.2857
   35MOL0     C 4710  -0.660   7.392   5.012  0.4242  0.6491 -1.4373
   35MOL0     C 4711  -0.767   7.347   4.941  0.1403  0.0258 -0.8257
   35MOL0     C 4712  -0.904   7.415   4.935 -0.1992 -0.0133 -0.8697
   35MOL0     C 4713  -0.985   7.430   5.065  0.2315  0.2958  0.1116
   35MOL0     C 4714  -1.115   7.503   5.054  0.1318 -0.3696 -0.3726
   35MOL0     C 4715  -1.203   7.503   5.179  0.1858  0.3728 -0.3870
   35MOL0     O 4716  -1.278   7.375   5.180 -0.2173  0.4606  0.3602
   35MOL0     C 4717  -1.323   7.338   5.303  0.2450  0.1928 -0.6566
   35MOL0     C 4718  -1.326   7.417   5.419 -0.7061  0.4759 -1.0826
   35MOL0     C 4719  -1.364   7.369   5.540  1.1869  0.0887 -0.7178
   35MOL0     C 4720  -1.327   7.466   5.649  0.4552  0.0530  0.7018
   35MOL0     C 4721  -1.418   7.236   5.544 -0.7594 -0.1971  0.5267
   35MOL0     C 4722  -1.464   7.180   5.672 -0.1230  0.1956 -0.1891
   35MOL0     O 4723  -1.536   7.060   5.674  0.3200  0.2939  0.3898
   35MOL0     C 4724  -1.564   6.983   5.783 -0.9746 -0.5146 -0.5591
   35MOL0     C 4725  -1.467   6.895   5.828 -0.5079  1.5666  0.1416
   35MOL0     C 4726  -1.502   6.803   5.928  0.3909 -0.4136 -0.3645
   35MOL0     C 4727  -1.625   6.810   5.989  0.2781  0.6475 -0.2652
   35MOL0     O 4728  -1.672   6.726   6.077  0.0812  0.3456  0.2922
   35MOL0     C 4729  -1.587   6.687   6.187  0.0173  0.2471 -0.2825
   35MOL0     C 4730  -1.567   6.788   6.301 -0.5881 -0.3764 -1.6470
   35MOL0     C 4731  -1.703   6.818   6.364  0.0253 -0.9883  0.0662
   35MOL0     C 4732  -1.804   6.898   6.291  0.7269 -0.0332  0.5151
   35MOL0     C 4733  -1.902   6.960   6.395  0.4574 -0.6558  0.5440
   35MOL0     C 4734  -2.023   7.006   6.312  0.1488  0.1530  0.1852
   35MOL0     C 4735  -2.128   7.095   6.383  0.3242  0.7574  0.4422
   35MOL0     C 4736  -2.225   7.134   6.268 -0.0631 -0.2754  1.3381
   35MOL0    Cl 4737  -2.340   6.985   6.234  0.1619 -0.1100  0.5383
   35MOL0     C 4738  -1.725   6.901   5.938 -0.1114 -0.3563 -0.6611
   35MOL0     C 4739  -1.693   6.983   5.833 -0.7497  0.9865  1.1898
   35MOL0     O 4740  -1.436   7.238   5.778  0.3431  0.5473  0.6314
   35MOL0     C 4741  -1.422   7.159   5.426 -0.4857  0.1519  0.1863
   35MOL0     C 4742  -1.367   7.205   5.310  0.2699 -0.6433  0.5310
   35MOL0     N 4743  -0.729   7.225   4.880  0.5761  0.3152  0.2665
   35MOL0     N 4744  -0.603   7.213   4.897 -0.9094 -0.7388  0.2174
   35MOL0     C 4745   0.486   7.443   4.458 -1.1270  0.7336 -0.5724
   35MOL0     C 4746   0.508   7.446   4.321  0.5244  0.1360 -0.2852
   35MOL0     C 4747   0.411   7.361   3.867 -1.0342 -0.1424  0.2043
   35MOL0     C 4748   0.468   7.497   3.851 -0.4672  0.6073 -0.4758
   35MOL0     C 4749   0.493   7.539   3.724 -0.2718 -0.1701  0.2961
   35MOL0     C 4750   0.471   7.466   3.602  0.3535  0.0427  0.3278
   35MOL0     O 4751   0.513   7.514   3.473  0.4954  0.3122  0.0636
   35MOL0     C 4752   0.631   7.593   3.483 -0.6596  0.3382 -0.9419
   35MOL0     C 4753   0.609   7.748   3.457 -0.6706  1.3535  0.4017
   35MOL0     C 4754   0.748   7.816   3.440  0.8955 -0.4595  0.6258
   35MOL0     C 4755   0.802   7.788   3.300 -0.8909 -0.6791 -0.0537
   35MOL0     C 4756   0.947   7.836   3.293  0.1468 -0.0711  0.2544
   35MOL0     C 4757   1.068   7.871   3.292 -0.5419  0.4548  0.4942
   35MOL0     C 4758   0.412   7.343   3.614  0.0038  0.1632 -1.0415
   35MOL0     C 4759   0.387   7.288   3.745 -0.5203 -0.0222 -0.4894
   35MOL0     C 4760   0.342   7.141   3.734  0.2132 -0.7828  0.1940
   35MOL0     H 4761   0.217   7.293   4.230 -0.4464 -0.0173  0.8963
   35MOL0     H 4762   0.187   7.286   4.465 -1.1823  2.3641  1.5133
   35MOL0     H 4763   0.137   7.419   4.632 -0.5236  1.0151 -0.3415
   35MOL0     H 4764   0.207   7.456   4.798  0.2153 -1.5241  2.0805
   35MOL0     H 4765   0.225   7.185   4.672 -0.4480  0.0722 -0.3912
   35MOL0     H 4766   0.271   7.225   4.842  0.8811  1.4758 -0.3907
   35MOL0     H 4767   0.006   7.254   4.721  1.8439  4.0320 -0.7664
   35MOL0     H 4768   0.051   7.108   4.813 -1.3068  0.4337 -2.8039
   35MOL0     H 4769   0.059   7.208   5.027  0.2584  1.8881  2.0825
   35MOL0     H 4770   0.080   7.369   4.956  1.3480 -0.6106  2.9974
   35MOL0     H 4771  -0.147   7.266   5.075 -0.0956  1.3575 -0.0981
   35MOL0     H 4772  -0.177   7.207   4.911 -2.8239  0.0038  2.2301
   35MOL0     H 4773  -0.165   7.494   5.007 -1.2509  0.0708  0.2115
   35MOL0     H 4774  -0.133   7.455   4.837 -2.4096  0.4312 -1.3982
   35MOL0     H 4775  -0.325   7.337   4.795 -2.5777  0.1234  0.5102
   35MOL0     H 4776  -0.359   7.508   4.857  0.8731  0.8430 -0.2450
   35MOL0     H 4777  -0.383   7.242   5.004 -1.1416 -0.0828 -1.6354
   35MOL0     H 4778  -0.397   7.408   5.080  2.7648  3.0473 -2.3831
   35MOL0     H 4779  -0.663   7.477   5.080 -3.8432  0.3592 -0.9883
   35MOL0     H 4780  -0.959   7.342   4.876  0.9241 -0.9209 -0.8204
   35MOL0     H 4781  -0.892   7.507   4.877 -0.9702 -1.1164 -2.8574
   35MOL0     H 4782  -1.000   7.327   5.099 -0.6253  0.6752  0.9406
   35MOL0     H 4783  -0.920   7.482   5.137  0.7462  1.2771 -1.0280
   35MOL0     H 4784  -1.101   7.611   5.037  1.4904 -0.5586 -0.5395
   35MOL0     H 4785  -1.176   7.464   4.972 -1.1278 -1.5552  1.0633
   35MOL0     H 4786  -1.139   7.506   5.268 -0.6511  0.1927  0.2308
   35MOL0     H 4787  -1.269   7.590   5.176  1.2775  1.2486  0.1413
   35MOL0     H 4788  -1.317   7.525   5.409 -3.6298  1.1896  2.0953
   35MOL0     H 4789  -1.223   7.452   5.678  0.6146  0.2398  0.2347
   35MOL0     H 4790  -1.383   7.458   5.742 -1.9684 -4.6859 -0.8183
   35MOL0     H 4791  -1.342   7.564   5.602 -1.5359 -1.0994 -1.2959
   35MOL0     H 4792  -1.365   6.894   5.789 -0.0760  2.1972  1.2269
   35MOL0     H 4793  -1.426   6.732   5.961  1.1797  1.2220  1.5491
   35MOL0     H 4794  -1.639   6.599   6.225 -3.1010  1.3925 -1.5208
   35MOL0     H 4795  -1.498   6.646   6.139 -1.2030 -0.9837 -1.6078
   35MOL0     H 4796  -1.500   6.746   6.377 -0.1443  2.7032 -0.1681
   35MOL0     H 4797  -1.520   6.879   6.262 -1.9929  0.0434 -2.3972
   35MOL0     H 4798  -1.685   6.875   6.456 -0.5008  1.6907 -1.3880
   35MOL0     H 4799  -1.749   6.723   6.393 -1.2301 -0.1305  1.0439
   35MOL0     H 4800  -1.860   6.826   6.231 -0.4001  1.2443 -0.0075
   35MOL0     H 4801  -1.757   6.983   6.240  1.9118  1.5482  3.9394
   35MOL0     H 4802  -1.954   6.892   6.463  0.8053  0.7559  2.3286
   35MOL0     H 4803  -1.858   7.045   6.449 -1.5402  0.8862 -0.1186
   35MOL0     H 4804  -2.076   6.915   6.281  3.5101 -2.1089  0.5878
   35MOL0     H 4805  -1.989   7.071   6.231 -2.6768  2.2377  0.5110
   35MOL0     H 4806  -2.065   7.171   6.430  0.4518  0.5690  0.5793
   35MOL0     H 4807  -2.179   7.029   6.454  3.0735  0.3574  2.2031
   35MOL0     H 4808  -2.161   7.164   6.185  2.0656 -4.0730  1.3640
   35MOL0     H 4809  -2.297   7.210   6.298 -0.4830  0.3973 -1.2082
   35MOL0     H 4810  -1.829   6.903   5.968  0.2060  0.2790  0.4287
   35MOL0     H 4811  -1.772   7.049   5.798 -1.1832 -0.3478 -0.5020
   35MOL0     H 4812  -1.460   7.058   5.434 -1.1439 -0.0104 -3.4232
   35MOL0     H 4813  -1.359   7.148   5.218 -0.0548  1.4348 -0.8401
   35MOL0     H 4814   0.556   7.482   4.531 -1.4416  0.1555  0.0457
   35MOL0     H 4815   0.600   7.494   4.289  0.5600  1.0410  1.0891
   35MOL0     H 4816   0.488   7.563   3.934 -1.2365  1.3393 -0.8457
   35MOL0     H 4817   0.529   7.641   3.710  1.1559 -0.6532  0.2229
   35MOL0     H 4818   0.696   7.584   3.571 -2.4976  1.7108  0.6277
   35MOL0     H 4819   0.698   7.563   3.401  2.5396 -0.9417  1.8735
   35MOL0     H 4820   0.548   7.785   3.540 -0.4594  0.8485  0.7858
   35MOL0     H 4821   0.563   7.771   3.361  2.2743  1.3188 -1.1333
   35MOL0     H 4822   0.737   7.924   3.452 -4.3239 -0.4600 -1.1949
   35MOL0     H 4823   0.816   7.787   3.520  0.5679 -1.3247  0.6025
   35MOL0     H 4824   0.746   7.853   3.233 -1.0750 -3.5661 -3.0071
   35MOL0     H 4825   0.794   7.685   3.264 -1.2191 -1.4349  2.0467
   35MOL0     H 4826   1.172   7.890   3.306  0.0214  0.0756 -2.3734
   35MOL0     H 4827   0.390   7.285   3.525 -2.4062 -1.8755  0.7170
   35MOL0     H 4828   0.401   7.099   3.816  0.1413  0.9244  1.1533
   35MOL0     H 4829   0.240   7.134   3.772  0.6457 -3.0515  1.1230
   35MOL0     H 4830   0.347   7.094   3.635 -2.7483  0.2041 -0.5229
   36MOL0     O 4831   7.671   0.778   9.845 -0.0083 -0.5206 -0.4286
   36MOL0     C 4832   7.792   0.780   9.808 -0.0344  0.8374  0.2811
   36MOL0     O 4833   7.854   0.865   9.711  0.5673 -0.2221  0.0700
   36MOL0     C 4834   7.771   0.954   9.661 -0.5342 -0.2055  0.6773
   36MOL0     C 4835   7.689   0.927   9.554 -0.9918 -0.5872  0.5834
   36MOL0     C 4836   7.592   1.016   9.514 -0.4103 -0.0122 -0.3301
   36MOL0     C 4837   7.568   1.135   9.594 -0.2112  0.7704  0.3575
   36MOL0     O 4838   7.469   1.210   9.554 -1.0190  0.7921 -0.0431
   36MOL0     C 4839   7.426   1.319   9.642 -0.1904  0.2050 -0.9636
   36MOL0     C 4840   7.298   1.359   9.566  0.0408 -0.4490 -0.6312
   36MOL0     C 4841   7.319   1.383   9.419 -0.1466  0.1388  0.0993
   36MOL0     C 4842   7.252   1.283   9.321  0.2695 -0.0788 -0.5594
   36MOL0     C 4843   7.318   1.271   9.192  0.8317  0.5040  1.0136
   36MOL0     C 4844   7.437   1.175   9.211 -0.3388 -0.0909 -0.6706
   36MOL0     C 4845   7.536   1.167   9.099  0.3402  0.1780 -0.1029
   36MOL0     C 4846   7.625   1.293   9.075  0.6207  0.2232 -0.1462
   36MOL0     N 4847   7.735   1.293   9.161 -1.0745  0.3824 -0.0073
   36MOL0     C 4848   7.743   1.286   9.301  0.7041  0.7653 -0.7020
   36MOL0     C 4849   7.872   1.310   9.333 -0.3123  0.3435  0.3211
   36MOL0     C 4850   7.923   1.333   9.474  0.2973 -0.2269 -0.2777
   36MOL0     C 4851   7.973   1.201   9.524 -0.3496 -0.6299  0.2689
   36MOL0     C 4852   8.115   1.168   9.468 -0.3050 -0.1351 -0.8086
   36MOL0     C 4853   8.160   1.049   9.555 -0.2007 -0.1149 -0.0600
   36MOL0     O 4854   8.175   1.081   9.697 -0.2267 -0.0234 -0.5283
   36MOL0     C 4855   8.289   1.153   9.737 -0.3361  0.4693 -0.1941
   36MOL0     C 4856   8.402   1.199   9.653 -0.5124  1.0418  0.2412
   36MOL0     C 4857   8.518   1.264   9.717  1.1184  0.7639 -0.5391
   36MOL0     C 4858   8.637   1.274   9.628  0.0703  0.0577  0.0425
   36MOL0     C 4859   8.505   1.293   9.859 -0.5725  1.8426 -0.3271
   36MOL0     C 4860   8.622   1.343   9.939  0.4968 -0.1919  0.5114
   36MOL0     O 4861   8.595   1.371  10.067  0.0794 -0.2484  0.4511
   36MOL0     C 4862   8.697   1.405  10.158 -0.4412  0.0081 -0.6543
   36MOL0     C 4863   8.786   1.517  10.139 -0.1885 -0.3964  0.9800
   36MOL0     C 4864   8.864   1.559  10.250 -0.4375  0.1375  1.0842
   36MOL0     C 4865   8.852   1.497  10.375  0.2718  0.7513 -0.0692
   36MOL0     O 4866   8.913   1.534  10.493 -0.2662  0.4737 -0.2138
   36MOL0     C 4867   9.044   1.600  10.490  0.0054 -1.0760 -0.4130
   36MOL0     C 4868   9.107   1.593  10.632  0.2320  0.3923  0.1084
   36MOL0     C 4869   9.134   1.448  10.675  0.0269 -0.2136 -0.1969
   36MOL0     C 4870   9.214   1.455  10.801 -0.0083 -0.7886  0.0803
   36MOL0     C 4871   9.266   1.318  10.839 -0.3996 -0.4350  0.1143
   36MOL0     C 4872   9.146   1.249  10.908 -0.1328  0.2002  0.2022
   36MOL0     C 4873   9.191   1.128  10.988 -0.9190 -0.4751 -0.5450
   36MOL0     C 4874   9.208   0.997  10.901  0.0835 -0.1047 -0.1320
   36MOL0    Cl 4875   9.245   0.865  11.021  0.6790 -0.2840  0.3971
   36MOL0     C 4876   8.752   1.400  10.394  0.3125  0.3771  0.7220
   36MOL0     C 4877   8.679   1.348  10.286 -0.3055 -0.8940 -1.0986
   36MOL0     O 4878   8.732   1.345   9.888  0.0692  0.1886 -0.8010
   36MOL0     C 4879   8.384   1.246   9.927 -0.5591 -0.2063  0.5748
   36MOL0     C 4880   8.283   1.178   9.872  0.0271 -0.5397 -0.7348
   36MOL0     N 4881   7.939   1.322   9.220 -0.9338 -0.1708 -0.0619
   36MOL0     N 4882   7.865   1.300   9.123 -0.0761 -0.5937  0.2291
   36MOL0     C 4883   7.660   1.164   9.694  0.3810  0.0676 -0.0035
   36MOL0     C 4884   7.753   1.068   9.733  0.2620 -1.6234  0.8437
   36MOL0     C 4885   7.876   0.654   9.850 -0.2695  0.5722  0.5778
   36MOL0     C 4886   7.955   0.582   9.760  0.0429 -0.2705  0.0801
   36MOL0     C 4887   8.021   0.461   9.802  0.3476 -0.1424 -0.4717
   36MOL0     C 4888   7.991   0.403   9.929 -0.6035  0.2584  0.4949
   36MOL0     O 4889   8.060   0.289   9.957 -0.7596  0.1010  0.3490
   36MOL0     C 4890   8.033   0.219  10.080  0.9016 -0.3205 -0.7474
   36MOL0     C 4891   8.124   0.096  10.095 -0.1128  0.7698 -0.2837
   36MOL0     C 4892   8.101   0.038  10.230  0.1694  0.2428 -0.2541
   36MOL0     C 4893   8.104   0.146  10.343  0.4851  0.2928  0.1596
   36MOL0     C 4894   8.127   0.089  10.473  0.6062 -0.2933  0.4757
   36MOL0     C 4895   8.145   0.028  10.579  0.7840  0.5293 -0.2895
   36MOL0     C 4896   7.908   0.474  10.013  0.8510 -0.6545 -0.0353
   36MOL0     C 4897   7.856   0.601   9.980 -0.6889  0.4060 -0.8284
   36MOL0     C 4898   7.783   0.676  10.096  0.1854 -0.6096 -0.6844
   36MOL0     H 4899   7.704   0.825   9.519  2.2324  0.1509 -0.5623
   36MOL0     H 4900   7.528   1.006   9.426 -2.4794  1.4959  0.8938
   36MOL0     H 4901   7.498   1.401   9.652  2.2152 -1.7466 -1.4000
   36MOL0     H 4902   7.391   1.291   9.742 -0.0193  0.6096 -0.7890
   36MOL0     H 4903   7.224   1.281   9.581 -1.2426  0.8787  0.1979
   36MOL0     H 4904   7.265   1.446   9.624  2.8890  0.3957 -0.1034
   36MOL0     H 4905   7.263   1.471   9.387  0.2792 -0.0479 -1.2376
   36MOL0     H 4906   7.426   1.403   9.406 -0.1881 -0.2926 -0.9943
   36MOL0     H 4907   7.243   1.183   9.364  0.8551 -0.9933 -2.4434
   36MOL0     H 4908   7.151   1.323   9.310  0.8314  2.6391  2.5354
   36MOL0     H 4909   7.340   1.375   9.165 -2.9745  1.1493 -0.1390
   36MOL0     H 4910   7.240   1.236   9.124  0.2810  1.5081  1.1118
   36MOL0     H 4911   7.493   1.188   9.304 -0.6095  1.7882 -0.7198
   36MOL0     H 4912   7.387   1.080   9.229 -1.4920  0.9128  2.0359
   36MOL0     H 4913   7.477   1.138   9.011  0.5479 -1.7070  0.3330
   36MOL0     H 4914   7.598   1.081   9.125 -1.5554 -1.2613 -0.1270
   36MOL0     H 4915   7.662   1.304   8.973  2.3793  4.3120  0.7179
   36MOL0     H 4916   7.557   1.377   9.096 -1.2783 -1.5534  1.1508
   36MOL0     H 4917   7.673   1.265   9.381 -0.9857 -1.5455 -2.6294
   36MOL0     H 4918   7.838   1.373   9.532  0.2605 -0.7642  0.0470
   36MOL0     H 4919   7.994   1.416   9.476 -1.9962  1.9006 -1.1428
   36MOL0     H 4920   7.980   1.210   9.633 -0.1270  1.8646  0.1009
   36MOL0     H 4921   7.900   1.126   9.491 -1.6672 -0.0848  1.7987
   36MOL0     H 4922   8.093   1.136   9.366 -0.2336  0.9271 -1.1722
   36MOL0     H 4923   8.181   1.255   9.471 -0.4039 -0.0855  0.2088
   36MOL0     H 4924   8.085   0.970   9.547  1.5025 -2.2918  3.1807
   36MOL0     H 4925   8.254   1.017   9.508  0.2009 -0.4906  0.9868
   36MOL0     H 4926   8.402   1.176   9.547  1.9997 -1.5111  0.6740
   36MOL0     H 4927   8.698   1.362   9.654  1.4288 -1.2425  1.4493
   36MOL0     H 4928   8.599   1.304   9.530  0.5941  3.6682  0.7924
   36MOL0     H 4929   8.697   1.183   9.626  1.0413  0.6779 -0.8293
   36MOL0     H 4930   8.804   1.558  10.041 -2.0052  1.8231  1.4831
   36MOL0     H 4931   8.929   1.641  10.224 -1.0985  0.3802  0.1441
   36MOL0     H 4932   9.118   1.553  10.425  1.9407  2.3500 -0.9626
   36MOL0     H 4933   9.040   1.704  10.454  3.7484 -1.2068 -1.7178
   36MOL0     H 4934   9.196   1.654  10.620 -0.5534  1.1661 -2.3622
   36MOL0     H 4935   9.030   1.638  10.696 -2.5839  0.8194 -3.2618
   36MOL0     H 4936   9.203   1.392  10.611 -0.9229 -2.4166  0.6134
   36MOL0     H 4937   9.039   1.394  10.678  0.5155 -1.0487  2.0440
   36MOL0     H 4938   9.153   1.503  10.878  3.1065  1.7579  1.2034
   36MOL0     H 4939   9.298   1.524  10.784  0.6903 -1.2136  1.5977
   36MOL0     H 4940   9.311   1.272  10.751 -2.6708  1.4351 -2.1597
   36MOL0     H 4941   9.345   1.345  10.910 -2.3935 -1.4366  2.9218
   36MOL0     H 4942   9.072   1.218  10.834 -0.1941 -1.5168  0.9231
   36MOL0     H 4943   9.104   1.315  10.985  0.2840 -0.8878  1.4009
   36MOL0     H 4944   9.108   1.106  11.056 -0.8983  1.3418  0.1470
   36MOL0     H 4945   9.281   1.153  11.044 -0.0480  0.7514 -2.3830
   36MOL0     H 4946   9.295   1.008  10.835  1.1675  0.1294  1.2764
   36MOL0     H 4947   9.119   0.976  10.842  1.4396  0.7750 -2.6681
   36MOL0     H 4948   8.724   1.376  10.496 -1.8029 -2.6239 -0.4275
   36MOL0     H 4949   8.611   1.269  10.317 -3.4853  1.7385 -0.8750
   36MOL0     H 4950   8.378   1.268  10.033  0.7305  2.3688  0.1779
   36MOL0     H 4951   8.196   1.146   9.929  0.3423  1.7028  1.1693
   36MOL0     H 4952   7.669   1.256   9.750  0.9562  0.2655 -0.4134
   36MOL0     H 4953   7.826   1.090   9.811  1.1854 -0.1681 -0.3650
   36MOL0     H 4954   7.965   0.620   9.659 -0.7582 -3.1623 -1.1965
   36MOL0     H 4955   8.099   0.421   9.738  0.4059 -0.9326  0.0818
   36MOL0     H 4956   8.042   0.294  10.159  1.1365 -0.7587 -0.3540
   36MOL0     H 4957   7.927   0.192  10.078  1.0318 -0.8127 -2.2626
   36MOL0     H 4958   8.229   0.115  10.071 -0.0113 -3.2715 -4.6657
   36MOL0     H 4959   8.084   0.024  10.022 -0.5199  0.2031  0.4858
   36MOL0     H 4960   8.020  -0.035  10.230  0.4059 -0.0226 -0.2655
   36MOL0     H 4961   8.192  -0.020  10.249 -0.3666 -0.1890  1.1757
   36MOL0     H 4962   8.008   0.198  10.345  2.4455  4.3347 -0.4977
   36MOL0     H 4963   8.177   0.227  10.335  1.0860 -0.2039  0.4325
   36MOL0     H 4964   8.134  -0.014  10.677  0.2783  3.9148  1.2522
   36MOL0     H 4965   7.885   0.436  10.112  0.7066  1.7986  0.9472
   36MOL0     H 4966   7.839   0.656  10.188 -0.7819 -0.4681 -0.0535
   36MOL0     H 4967   7.756   0.780  10.079 -1.5297 -0.8421  0.3850
   36MOL0     H 4968   7.693   0.615  10.108  1.6897 -3.1844 -1.5636
   37MOL0     O 4969   0.742   2.321   7.260 -0.0872  0.6384 -0.3804
   37MOL0     C 4970   0.833   2.266   7.202 -0.2171 -0.1377 -0.2451
   37MOL0     O 4971   0.814   2.169   7.106  0.0377 -0.5136 -0.0523
   37MOL0     C 4972   0.699   2.151   7.030  0.8308  0.4133  0.0529
   37MOL0     C 4973   0.597   2.251   7.011  0.6863  0.3879  0.3303
   37MOL0     C 4974   0.479   2.225   6.940 -0.3571 -0.1241 -0.8483
   37MOL0     C 4975   0.458   2.096   6.893  0.1544  0.2160 -0.0865
   37MOL0     O 4976   0.344   2.071   6.830 -0.3671  0.0470  0.3988
   37MOL0     C 4977   0.247   2.022   6.920 -0.7577  0.1936  0.0950
   37MOL0     C 4978   0.123   2.044   6.852 -0.5501 -0.0388  0.1764
   37MOL0     C 4979   0.006   1.949   6.904 -0.9285  0.9065  0.9947
   37MOL0     C 4980  -0.136   1.984   6.849 -0.0278 -0.9429  0.1495
   37MOL0     C 4981  -0.233   1.893   6.922  0.5898 -0.0787  0.1482
   37MOL0     C 4982  -0.377   1.932   6.889 -0.1803 -0.6469 -0.8469
   37MOL0     C 4983  -0.463   1.817   6.935 -0.6086 -0.3036  0.9875
   37MOL0     C 4984  -0.616   1.866   6.936  0.6713  0.3000 -0.2028
   37MOL0     N 4985  -0.677   1.844   6.808 -0.2557  0.0681  0.4988
   37MOL0     C 4986  -0.763   1.936   6.751 -0.5177 -0.3433 -0.7879
   37MOL0     C 4987  -0.841   1.865   6.668  0.3725  0.2633 -0.8243
   37MOL0     C 4988  -0.961   1.914   6.584  0.6263 -0.2023 -0.4961
   37MOL0     C 4989  -1.085   1.851   6.624 -0.1550 -0.6996 -0.9341
   37MOL0     C 4990  -1.215   1.928   6.583  0.3454 -0.3879  0.2376
   37MOL0     C 4991  -1.346   1.854   6.621  1.3150  0.7594  0.4519
   37MOL0     O 4992  -1.406   1.931   6.727 -0.9487 -0.1839  0.7644
   37MOL0     C 4993  -1.545   1.937   6.735 -0.1271 -0.1197  0.4566
   37MOL0     C 4994  -1.629   1.832   6.683  0.9871  0.2376 -0.2443
   37MOL0     C 4995  -1.768   1.850   6.691  0.3177  0.4301 -0.0314
   37MOL0     C 4996  -1.845   1.724   6.645 -0.8956 -0.6096  1.2754
   37MOL0     C 4997  -1.827   1.965   6.740  0.2623 -1.4394 -0.8592
   37MOL0     C 4998  -1.973   1.994   6.725 -0.7791  0.4935  0.1238
   37MOL0     O 4999  -2.023   2.077   6.821  0.2215 -0.4442 -0.7327
   37MOL0     C 5000  -2.153   2.109   6.832 -0.1608 -0.0734  0.8757
   37MOL0     C 5001  -2.232   2.030   6.911  0.3358 -0.5216  0.6783
   37MOL0     C 5002  -2.372   2.055   6.920 -0.0292  0.6065 -0.8022
   37MOL0     C 5003  -2.432   2.158   6.852 -0.5891  0.0479 -0.1290
   37MOL0     O 5004  -2.566   2.159   6.863  0.1154 -0.0382 -0.3932
   37MOL0     C 5005  -2.656   2.228   6.779 -0.7251  0.3620  0.3651
   37MOL0     C 5006  -2.803   2.206   6.833  0.0128  0.2243  0.3146
   37MOL0     C 5007  -2.893   2.287   6.729 -1.0562  0.2308 -0.1276
   37MOL0     C 5008  -3.042   2.254   6.738  0.1220  0.3800  0.2726
   37MOL0     C 5009  -3.125   2.364   6.673  0.0003 -0.8431  0.3100
   37MOL0     C 5010  -3.281   2.349   6.668 -0.0469  0.3380 -0.9931
   37MOL0     C 5011  -3.349   2.443   6.582 -0.1987 -0.0319 -0.5222
   37MOL0     C 5012  -3.508   2.432   6.604 -0.2823 -0.3039  0.1295
   37MOL0    Cl 5013  -3.585   2.544   6.481 -0.0494 -0.1868 -0.4767
   37MOL0     C 5014  -2.354   2.243   6.767 -0.0020 -1.1037  0.1115
   37MOL0     C 5015  -2.214   2.214   6.766 -0.6593  0.3960 -0.0120
   37MOL0     O 5016  -2.048   1.943   6.631 -0.4459  0.0252  0.2292
   37MOL0     C 5017  -1.746   2.063   6.800 -0.7275 -0.5752 -0.5746
   37MOL0     C 5018  -1.606   2.048   6.799  0.7038  0.0526  0.6264
   37MOL0     N 5019  -0.797   1.729   6.679  0.9244  0.3262  0.2155
   37MOL0     N 5020  -0.704   1.719   6.761 -0.0557 -0.2043  0.1068
   37MOL0     C 5021   0.558   1.996   6.893 -0.4034 -0.2612 -0.6147
   37MOL0     C 5022   0.675   2.027   6.964 -0.5304  0.1598 -0.4336
   37MOL0     C 5023   0.976   2.312   7.215 -0.6429  0.4012  0.0341
   37MOL0     C 5024   1.069   2.260   7.123 -0.6059  0.5086 -0.3052
   37MOL0     C 5025   1.194   2.304   7.112 -0.8830  0.0553 -0.1726
   37MOL0     C 5026   1.238   2.408   7.195  0.0095  0.2165 -1.5502
   37MOL0     O 5027   1.370   2.442   7.181 -0.1049 -0.1178  0.5060
   37MOL0     C 5028   1.432   2.540   7.258  0.9198  0.0667 -0.4799
   37MOL0     C 5029   1.481   2.669   7.180 -0.3601  1.0515  0.5132
   37MOL0     C 5030   1.362   2.728   7.095 -0.5182 -0.1083 -0.2486
   37MOL0     C 5031   1.413   2.865   7.050 -0.0605 -0.6614 -0.6916
   37MOL0     C 5032   1.330   2.913   6.936  0.4469 -0.6973 -0.5092
   37MOL0     C 5033   1.279   2.946   6.833 -0.3703  0.9750  0.2780
   37MOL0     C 5034   1.147   2.466   7.289  0.8364 -0.2636  0.3419
   37MOL0     C 5035   1.018   2.415   7.305 -0.7952  0.2487 -0.2282
   37MOL0     C 5036   0.923   2.471   7.410  0.9839  0.0482  0.0606
   37MOL0     H 5037   0.609   2.348   7.057 -2.1622  1.5018 -1.0729
   37MOL0     H 5038   0.404   2.302   6.928 -2.1220 -1.9542 -2.0972
   37MOL0     H 5039   0.237   2.066   7.019 -1.9139  0.4859 -0.1265
   37MOL0     H 5040   0.273   1.916   6.927  2.2875  0.9698  2.5460
   37MOL0     H 5041   0.102   2.151   6.857  1.9416  0.7954 -3.4233
   37MOL0     H 5042   0.143   2.020   6.747  1.1963 -0.8225  0.6584
   37MOL0     H 5043   0.035   1.846   6.879 -0.2509  1.8000 -2.4971
   37MOL0     H 5044   0.003   1.954   7.013 -1.5607 -1.4808  1.1430
   37MOL0     H 5045  -0.176   2.085   6.864  0.0260 -1.1538  1.9512
   37MOL0     H 5046  -0.132   1.981   6.740 -2.4364 -4.0367  0.0167
   37MOL0     H 5047  -0.229   1.915   7.029 -2.6149  1.4267  0.0631
   37MOL0     H 5048  -0.215   1.790   6.890 -0.5143 -0.0087 -0.7432
   37MOL0     H 5049  -0.404   2.020   6.948  0.1997 -0.8070 -0.4261
   37MOL0     H 5050  -0.390   1.946   6.782 -2.3242  0.2819 -0.5124
   37MOL0     H 5051  -0.446   1.801   7.042 -1.7139  3.0534  1.7865
   37MOL0     H 5052  -0.453   1.725   6.876 -0.2816  0.0585  0.4673
   37MOL0     H 5053  -0.665   1.793   7.001  1.1283 -0.5133 -0.7584
   37MOL0     H 5054  -0.645   1.964   6.975 -1.5138 -0.1675 -0.5246
   37MOL0     H 5055  -0.775   2.040   6.781 -0.7005 -0.3283 -0.9139
   37MOL0     H 5056  -0.953   1.891   6.477 -0.9867 -0.3293 -0.6184
   37MOL0     H 5057  -0.969   2.023   6.592  0.1314  0.0833 -3.5205
   37MOL0     H 5058  -1.096   1.759   6.566 -0.5647  0.9935 -3.7214
   37MOL0     H 5059  -1.087   1.837   6.733 -0.7940 -0.5012 -0.9150
   37MOL0     H 5060  -1.206   2.024   6.635 -1.8534 -0.1112  0.1979
   37MOL0     H 5061  -1.218   1.949   6.476 -3.7614  3.8302  0.8105
   37MOL0     H 5062  -1.418   1.847   6.539  1.1588  2.5695  0.3973
   37MOL0     H 5063  -1.318   1.756   6.661  3.0304 -0.7030 -3.6929
   37MOL0     H 5064  -1.577   1.741   6.654  3.4830  1.3318  0.4963
   37MOL0     H 5065  -1.773   1.654   6.602  0.8992  1.2916  0.9690
   37MOL0     H 5066  -1.913   1.752   6.564 -2.2933 -4.4544  0.9277
   37MOL0     H 5067  -1.906   1.678   6.722 -1.9125 -0.2496  0.7011
   37MOL0     H 5068  -2.191   1.945   6.963 -0.5691 -1.2845  0.1774
   37MOL0     H 5069  -2.427   1.980   6.976  3.8521 -3.8590 -2.3336
   37MOL0     H 5070  -2.643   2.334   6.757 -0.5645  0.2494 -0.0828
   37MOL0     H 5071  -2.643   2.181   6.681 -0.7020  1.4038 -0.1376
   37MOL0     H 5072  -2.828   2.101   6.817 -0.2342  0.2852  0.2982
   37MOL0     H 5073  -2.815   2.228   6.939  0.9126 -2.6815  1.1019
   37MOL0     H 5074  -2.856   2.268   6.629 -0.3259  0.4680  0.0943
   37MOL0     H 5075  -2.879   2.394   6.746  1.2394 -0.2726  1.7256
   37MOL0     H 5076  -3.074   2.243   6.843  0.3987 -2.8410  0.1382
   37MOL0     H 5077  -3.064   2.159   6.687 -0.3433  1.4610 -1.6185
   37MOL0     H 5078  -3.113   2.462   6.719  1.1961 -0.3727 -0.9510
   37MOL0     H 5079  -3.091   2.367   6.569 -1.5655 -0.1011 -0.2170
   37MOL0     H 5080  -3.310   2.351   6.773  2.1097 -3.0976 -0.1862
   37MOL0     H 5081  -3.303   2.246   6.638 -2.3879  0.0130  1.5030
   37MOL0     H 5082  -3.330   2.432   6.475 -2.0643  5.5827 -1.7527
   37MOL0     H 5083  -3.316   2.543   6.608  1.0908 -0.2346 -1.3060
   37MOL0     H 5084  -3.521   2.461   6.709 -0.2515  0.4923 -0.0814
   37MOL0     H 5085  -3.549   2.332   6.589 -1.2229  0.2603 -1.3082
   37MOL0     H 5086  -2.386   2.325   6.703  0.4908 -1.3610 -0.4822
   37MOL0     H 5087  -2.152   2.279   6.706 -0.4433  0.5155  0.3393
   37MOL0     H 5088  -1.784   2.153   6.848 -1.9830 -0.4747 -1.6612
   37MOL0     H 5089  -1.561   2.141   6.832 -1.0210  1.0549  0.2254
   37MOL0     H 5090   0.549   1.894   6.856 -3.5800 -0.5217  0.5576
   37MOL0     H 5091   0.753   1.951   6.973 -2.1713 -1.5521 -0.0700
   37MOL0     H 5092   1.050   2.181   7.051  0.6806 -0.8539  0.7819
   37MOL0     H 5093   1.275   2.250   7.064  1.4421  0.2315  3.1802
   37MOL0     H 5094   1.369   2.577   7.340  3.4981  0.3836  1.5093
   37MOL0     H 5095   1.520   2.498   7.308  1.8234 -0.1044 -2.1283
   37MOL0     H 5096   1.569   2.640   7.122  0.1448  0.6456  1.4579
   37MOL0     H 5097   1.509   2.740   7.258 -1.4919  0.3374  1.6222
   37MOL0     H 5098   1.342   2.657   7.014 -0.8194 -2.0032  1.4057
   37MOL0     H 5099   1.271   2.742   7.155 -0.6178  0.8559 -0.5955
   37MOL0     H 5100   1.517   2.855   7.017 -0.8772  0.5853 -4.1930
   37MOL0     H 5101   1.409   2.939   7.131 -1.9565  0.4128 -1.6730
   37MOL0     H 5102   1.222   2.995   6.756  0.8029  0.4525 -0.9626
   37MOL0     H 5103   1.165   2.552   7.352  2.4167  2.2075 -3.1472
   37MOL0     H 5104   0.963   2.539   7.486 -1.2071  1.2285  0.2400
   37MOL0     H 5105   0.844   2.529   7.360  2.4738  2.6134  0.4626
   37MOL0     H 5106   0.871   2.392   7.463 -1.6790  0.3537 -1.8853
   38MOL0     O 5107   5.356   5.206   0.822 -0.7505 -0.6461  0.3859
   38MOL0     C 5108   5.295   5.169   0.915  0.5525  0.2994 -0.6142
   38MOL0     O 5109   5.317   5.046   0.986 -0.3665  0.1024  0.7695
   38MOL0     C 5110   5.420   4.954   0.941  0.2559 -0.6595 -0.1122
   38MOL0     C 5111   5.432   4.917   0.803 -0.2061  0.8874  0.4581
   38MOL0     C 5112   5.542   4.831   0.753 -0.1837  0.1524 -0.6458
   38MOL0     C 5113   5.625   4.784   0.848 -0.9431  0.4235  0.4889
   38MOL0     O 5114   5.736   4.719   0.805 -0.1459 -0.5050  0.4340
   38MOL0     C 5115   5.756   4.581   0.843 -0.0173 -0.3138 -0.5054
   38MOL0     C 5116   5.852   4.527   0.742  1.2154  0.2687 -0.3554
   38MOL0     C 5117   5.898   4.385   0.786 -0.5215  0.0758 -0.4671
   38MOL0     C 5118   6.014   4.340   0.691  1.0287 -0.4967 -0.6134
   38MOL0     C 5119   6.031   4.188   0.712  0.2647  0.0096  0.3176
   38MOL0     C 5120   5.937   4.087   0.637  0.2542 -0.3165 -1.1034
   38MOL0     C 5121   5.886   3.968   0.737  0.4091 -0.5694 -0.0561
   38MOL0     C 5122   5.807   3.862   0.654  0.5290  0.0912  1.0682
   38MOL0     N 5123   5.724   3.775   0.740  0.6257 -0.1824  0.1429
   38MOL0     C 5124   5.594   3.731   0.706  0.3040  0.0269  0.0631
   38MOL0     C 5125   5.565   3.657   0.816  0.0908  1.0528  0.0965
   38MOL0     C 5126   5.427   3.570   0.834  0.3555  0.1155  0.1391
   38MOL0     C 5127   5.349   3.634   0.954 -0.0833 -0.2321  0.3539
   38MOL0     C 5128   5.233   3.551   0.997  0.1226  0.0716  0.2126
   38MOL0     C 5129   5.161   3.622   1.111  0.3695  0.8200 -0.5859
   38MOL0     O 5130   5.247   3.600   1.226 -0.3484  0.3448 -0.3456
   38MOL0     C 5131   5.234   3.680   1.332 -0.2696 -0.8448 -0.2649
   38MOL0     C 5132   5.128   3.757   1.362 -0.1291 -0.2636 -0.5368
   38MOL0     C 5133   5.123   3.832   1.491  0.2756 -0.0467  0.1361
   38MOL0     C 5134   5.000   3.913   1.520  0.5028  0.5252  0.4378
   38MOL0     C 5135   5.240   3.823   1.573 -0.3782  0.2878 -0.2817
   38MOL0     C 5136   5.252   3.888   1.714  0.4270  0.2134 -0.2264
   38MOL0     O 5137   5.374   3.860   1.780 -0.5602  0.1661  0.1751
   38MOL0     C 5138   5.385   3.863   1.915  0.7581 -0.3463 -0.0349
   38MOL0     C 5139   5.278   3.828   1.995  0.3586  0.5399 -0.2576
   38MOL0     C 5140   5.296   3.817   2.131 -0.6418 -0.4379  0.9453
   38MOL0     C 5141   5.409   3.871   2.187 -0.4039  0.5475 -0.8813
   38MOL0     O 5142   5.421   3.861   2.324 -0.3476  0.4849  0.7896
   38MOL0     C 5143   5.486   3.962   2.399  0.4392  0.8597  0.8399
   38MOL0     C 5144   5.521   3.890   2.533 -0.8600  0.1124 -0.2516
   38MOL0     C 5145   5.639   3.788   2.524 -1.0161 -0.5040 -0.0415
   38MOL0     C 5146   5.588   3.653   2.537 -0.5021  0.1819 -0.4732
   38MOL0     C 5147   5.704   3.557   2.498 -0.2577  0.8069 -0.2179
   38MOL0     C 5148   5.825   3.551   2.588 -0.0032 -1.4089  0.0064
   38MOL0     C 5149   5.914   3.431   2.550 -0.1832 -0.1315  0.1046
   38MOL0     C 5150   6.021   3.414   2.658  0.2001 -0.2053  0.5325
   38MOL0    Cl 5151   5.965   3.329   2.810 -0.0415  0.0919  0.0380
   38MOL0     C 5152   5.493   3.946   2.106 -0.2135  0.0732  0.1264
   38MOL0     C 5153   5.486   3.938   1.972  0.8558  0.3860 -0.8807
   38MOL0     O 5154   5.154   3.949   1.769  0.6567 -0.5598  0.5427
   38MOL0     C 5155   5.350   3.748   1.532 -0.1288  0.3928  0.8167
   38MOL0     C 5156   5.348   3.676   1.415  0.1629 -0.5289  0.4193
   38MOL0     N 5157   5.671   3.645   0.904  0.1661  0.4107 -0.6488
   38MOL0     N 5158   5.762   3.717   0.860 -0.5989 -0.3632  0.5405
   38MOL0     C 5159   5.614   4.817   0.996  0.0136 -0.3992  0.6797
   38MOL0     C 5160   5.509   4.901   1.037 -0.0461 -0.1985 -0.4105
   38MOL0     C 5161   5.186   5.248   0.980 -0.0906 -0.7904  0.8388
   38MOL0     C 5162   5.138   5.214   1.114 -0.4526 -0.2279  0.1197
   38MOL0     C 5163   5.051   5.294   1.182 -0.5703  0.4548 -1.1330
   38MOL0     C 5164   5.002   5.414   1.126  2.2368 -0.3690 -0.8364
   38MOL0     O 5165   4.923   5.483   1.214  0.2742 -0.3049 -0.3395
   38MOL0     C 5166   4.873   5.606   1.165  0.0705 -0.7134 -0.6085
   38MOL0     C 5167   4.759   5.651   1.260 -0.2545  0.6421  0.1039
   38MOL0     C 5168   4.620   5.586   1.246  0.0268 -0.4738 -0.2902
   38MOL0     C 5169   4.617   5.444   1.292 -0.5632  0.1236 -0.4476
   38MOL0     C 5170   4.475   5.389   1.301  0.8579 -0.0678  0.0076
   38MOL0     C 5171   4.353   5.379   1.294 -1.1800 -0.6556  0.5619
   38MOL0     C 5172   5.046   5.451   0.999  0.4611 -0.2714  0.1502
   38MOL0     C 5173   5.132   5.369   0.926 -0.1204 -0.1139  0.0822
   38MOL0     C 5174   5.175   5.422   0.796 -0.2885  0.6272  1.0300
   38MOL0     H 5175   5.351   4.932   0.733  0.8063  1.5046 -0.6082
   38MOL0     H 5176   5.549   4.796   0.650 -1.4555 -2.0528 -0.0534
   38MOL0     H 5177   5.658   4.534   0.835 -1.1622  1.8698 -0.1364
   38MOL0     H 5178   5.800   4.574   0.943  1.9794 -2.6240 -1.4274
   38MOL0     H 5179   5.822   4.531   0.637 -0.5192 -0.4650  0.0949
   38MOL0     H 5180   5.942   4.590   0.750  3.2136 -2.3366 -0.6958
   38MOL0     H 5181   5.928   4.386   0.891 -0.7563  1.4893 -0.3971
   38MOL0     H 5182   5.812   4.319   0.779  1.6045 -3.4458  2.5487
   38MOL0     H 5183   5.987   4.367   0.589 -1.1549  2.2541  0.5398
   38MOL0     H 5184   6.106   4.395   0.712 -0.1931  1.0995  0.8401
   38MOL0     H 5185   6.006   4.166   0.816 -2.1030  1.8328  0.2177
   38MOL0     H 5186   6.133   4.161   0.682  0.3761 -0.2522  0.9237
   38MOL0     H 5187   5.850   4.131   0.586  0.4934  1.3751 -0.1458
   38MOL0     H 5188   5.998   4.051   0.554 -1.7475 -4.3009 -1.0407
   38MOL0     H 5189   5.808   4.017   0.797  0.9405 -2.3629  2.2477
   38MOL0     H 5190   5.967   3.918   0.791 -0.4231 -1.7985  0.0991
   38MOL0     H 5191   5.731   3.917   0.598  3.1745  2.8195 -0.1157
   38MOL0     H 5192   5.869   3.802   0.587 -2.6827  0.5622 -2.6336
   38MOL0     H 5193   5.534   3.754   0.619  0.2353  1.3245  0.4352
   38MOL0     H 5194   5.443   3.463   0.842  2.3554  0.3100 -0.7901
   38MOL0     H 5195   5.366   3.586   0.745 -0.1015  1.3013  0.6416
   38MOL0     H 5196   5.426   3.644   1.031  2.5331 -2.7524 -1.7156
   38MOL0     H 5197   5.310   3.732   0.926  0.0895  0.1197  1.2980
   38MOL0     H 5198   5.175   3.539   0.905 -0.6384  1.4410  0.4763
   38MOL0     H 5199   5.263   3.450   1.025  1.9668 -0.3001 -2.6529
   38MOL0     H 5200   5.129   3.723   1.083  2.1116  2.0386  1.5223
   38MOL0     H 5201   5.066   3.567   1.117 -0.9926  2.7018 -2.8871
   38MOL0     H 5202   5.040   3.762   1.299  0.6518  0.6029 -1.5767
   38MOL0     H 5203   4.946   3.877   1.608 -4.1207  1.5066 -1.6656
   38MOL0     H 5204   4.929   3.899   1.438  0.2713 -2.9560  1.0954
   38MOL0     H 5205   5.022   4.020   1.532  0.5708  0.6478 -0.6900
   38MOL0     H 5206   5.190   3.779   1.954  0.0760 -1.3073  2.3107
   38MOL0     H 5207   5.212   3.795   2.197  0.0292 -1.3106  1.5330
   38MOL0     H 5208   5.586   3.990   2.365 -0.3777  1.5965 -1.1588
   38MOL0     H 5209   5.416   4.044   2.418  1.1461  1.8914 -0.7790
   38MOL0     H 5210   5.568   3.957   2.606  0.8961 -0.5643 -0.7104
   38MOL0     H 5211   5.427   3.850   2.571 -0.6609 -1.7604 -1.6089
   38MOL0     H 5212   5.716   3.799   2.602 -1.7702 -1.2093  0.8287
   38MOL0     H 5213   5.680   3.795   2.423 -1.4392 -1.8214 -0.3252
   38MOL0     H 5214   5.499   3.645   2.475 -0.2574  7.1826 -2.4986
   38MOL0     H 5215   5.562   3.638   2.643 -2.1237  0.7271 -0.7760
   38MOL0     H 5216   5.652   3.460   2.504 -2.1224  1.7958  0.3835
   38MOL0     H 5217   5.742   3.580   2.398 -0.8189  3.1613  0.0606
   38MOL0     H 5218   5.791   3.546   2.692  0.4047 -1.9106  0.1144
   38MOL0     H 5219   5.868   3.650   2.569 -1.8196 -0.2702  1.4504
   38MOL0     H 5220   5.957   3.453   2.451  1.2474 -0.9826  0.5116
   38MOL0     H 5221   5.848   3.343   2.550 -2.3362  1.4087  0.0304
   38MOL0     H 5222   6.062   3.511   2.689 -0.6645  0.4393 -0.2605
   38MOL0     H 5223   6.109   3.359   2.625 -0.1236 -1.7817  2.1523
   38MOL0     H 5224   5.576   3.998   2.155 -1.7765  1.9275  0.9448
   38MOL0     H 5225   5.556   3.983   1.902  1.6804 -1.4200 -1.2938
   38MOL0     H 5226   5.439   3.726   1.592  1.6158 -1.3388 -2.1689
   38MOL0     H 5227   5.429   3.608   1.388  1.4136  1.1504 -0.2462
   38MOL0     H 5228   5.682   4.774   1.069 -0.9881 -1.1725  1.1827
   38MOL0     H 5229   5.504   4.938   1.138  0.7414  1.7946 -1.0534
   38MOL0     H 5230   5.172   5.128   1.172  0.8245  0.0006 -0.2631
   38MOL0     H 5231   5.031   5.271   1.286  1.0438 -0.6410 -1.0376
   38MOL0     H 5232   4.944   5.688   1.178 -1.7208  1.0241 -1.2564
   38MOL0     H 5233   4.830   5.616   1.065  0.6095 -2.2702 -1.0389
   38MOL0     H 5234   4.742   5.759   1.254 -2.4568  0.5370  2.3846
   38MOL0     H 5235   4.795   5.623   1.359  3.3176 -0.4723 -1.3471
   38MOL0     H 5236   4.541   5.631   1.307 -2.3497 -2.8112 -1.4226
   38MOL0     H 5237   4.579   5.604   1.146  0.1361 -1.3251 -0.5021
   38MOL0     H 5238   4.665   5.427   1.389  1.4583  1.0481 -1.2394
   38MOL0     H 5239   4.668   5.375   1.224  3.1572 -2.6179  4.4620
   38MOL0     H 5240   4.247   5.385   1.276 -0.9532  7.3535 -2.4806
   38MOL0     H 5241   5.009   5.543   0.954  2.5087 -0.0439 -1.1880
   38MOL0     H 5242   5.146   5.348   0.720 -0.4711  1.9969 -0.2815
   38MOL0     H 5243   5.144   5.524   0.773  0.5773 -0.0072 -4.0387
   38MOL0     H 5244   5.282   5.435   0.780  0.4013 -2.9254  1.7921
   39MOL0     O 5245   4.696   5.524   9.350 -0.1869 -0.0671  0.1748
   39MOL0     C 5246   4.657   5.622   9.283  0.2005 -0.0439  0.7531
   39MOL0     O 5247   4.575   5.635   9.166 -0.1263  0.5076 -0.0574
   39MOL0     C 5248   4.515   5.522   9.110 -1.9664 -0.3246  0.2725
   39MOL0     C 5249   4.449   5.535   8.990 -0.2783 -0.5903 -0.0893
   39MOL0     C 5250   4.384   5.443   8.922  0.3046  0.4644 -0.4882
   39MOL0     C 5251   4.370   5.316   8.979  0.0723  0.3807 -1.2364
   39MOL0     O 5252   4.308   5.202   8.935  0.2869 -0.1568  0.4571
   39MOL0     C 5253   4.329   5.170   8.800 -0.5195  0.4375  0.5474
   39MOL0     C 5254   4.235   5.054   8.769  0.1561  0.1831 -0.9536
   39MOL0     C 5255   4.292   4.916   8.815 -1.0498 -0.1953 -1.0023
   39MOL0     C 5256   4.195   4.801   8.775 -0.9683  1.1670  0.4943
   39MOL0     C 5257   4.229   4.666   8.845  0.2089  0.1389  0.3593
   39MOL0     C 5258   4.340   4.562   8.790  0.9110 -0.8147  0.1061
   39MOL0     C 5259   4.456   4.627   8.723 -0.2900  0.4043  0.3476
   39MOL0     C 5260   4.572   4.529   8.683 -0.1308 -0.2404  0.6358
   39MOL0     N 5261   4.547   4.414   8.593 -0.1153  0.1328 -0.1615
   39MOL0     C 5262   4.502   4.291   8.642 -0.7749  0.2877 -0.5099
   39MOL0     C 5263   4.482   4.212   8.531  0.8652  0.5561  0.0702
   39MOL0     C 5264   4.422   4.068   8.504 -0.7551  0.5684 -0.4786
   39MOL0     C 5265   4.477   4.003   8.378 -0.4721 -0.0925 -1.0062
   39MOL0     C 5266   4.423   3.870   8.346 -0.1242 -0.1735 -0.1162
   39MOL0     C 5267   4.497   3.805   8.227 -0.5016 -0.1801 -0.1373
   39MOL0     O 5268   4.492   3.882   8.110  0.0791 -0.2283  0.7733
   39MOL0     C 5269   4.601   3.922   8.045  0.2921  0.8782  0.6313
   39MOL0     C 5270   4.678   4.024   8.096 -0.3900 -0.7633 -0.9954
   39MOL0     C 5271   4.789   4.081   8.025  0.0074  0.2357 -0.2504
   39MOL0     C 5272   4.837   4.220   8.056 -0.1649 -0.8013 -1.0468
   39MOL0     C 5273   4.835   4.008   7.907 -0.2138  0.4723 -0.8225
   39MOL0     C 5274   4.953   4.053   7.828  0.0172  0.7950  0.7864
   39MOL0     O 5275   4.954   4.021   7.696 -0.2388 -0.6388  0.3332
   39MOL0     C 5276   5.055   4.071   7.613 -0.2758  0.2926 -0.0762
   39MOL0     C 5277   5.109   4.205   7.620  0.5566  1.2303 -0.2776
   39MOL0     C 5278   5.197   4.252   7.531 -1.0660  0.0317  0.1644
   39MOL0     C 5279   5.233   4.167   7.429 -1.0248 -0.9715 -0.0888
   39MOL0     O 5280   5.339   4.211   7.353  0.0160 -1.0031  0.0445
   39MOL0     C 5281   5.352   4.189   7.212  0.6082 -0.0576  0.4156
   39MOL0     C 5282   5.411   4.317   7.150 -1.3567 -0.1994  0.5281
   39MOL0     C 5283   5.313   4.437   7.157 -0.4813 -0.0157 -0.4044
   39MOL0     C 5284   5.393   4.570   7.131  0.6201 -0.3980  0.2280
   39MOL0     C 5285   5.298   4.690   7.115 -0.4347  0.7972 -0.2849
   39MOL0     C 5286   5.370   4.816   7.083 -1.5488  0.6678  0.5627
   39MOL0     C 5287   5.282   4.938   7.118 -1.0853  0.0110  0.0280
   39MOL0     C 5288   5.278   5.028   6.993 -0.5462 -0.4109 -0.3075
   39MOL0    Cl 5289   5.202   5.192   7.023  0.1463  0.1515 -0.6942
   39MOL0     C 5290   5.176   4.037   7.411 -0.0990 -1.1439 -0.8092
   39MOL0     C 5291   5.086   3.983   7.501  0.2519 -0.2269  0.7442
   39MOL0     O 5292   5.049   4.080   7.897  0.4656 -0.4555  0.0092
   39MOL0     C 5293   4.752   3.894   7.868  0.0050  0.4885  1.5580
   39MOL0     C 5294   4.635   3.853   7.925  0.1139  0.6181 -0.6860
   39MOL0     N 5295   4.538   4.282   8.430 -0.4541  0.7441 -1.2261
   39MOL0     N 5296   4.572   4.403   8.462  0.7341  0.3362 -0.0465
   39MOL0     C 5297   4.431   5.294   9.103 -0.3585 -0.2230 -0.1515
   39MOL0     C 5298   4.499   5.399   9.172  1.2756 -0.3918  0.5092
   39MOL0     C 5299   4.698   5.755   9.331  0.0930 -0.1512  0.0689
   39MOL0     C 5300   4.731   5.854   9.232 -0.3733 -0.2282 -0.2118
   39MOL0     C 5301   4.771   5.984   9.272 -0.1002  0.3279  0.7157
   39MOL0     C 5302   4.778   6.021   9.413 -0.0856  0.9752 -0.6255
   39MOL0     O 5303   4.835   6.136   9.456 -0.3255  0.5033 -0.0078
   39MOL0     C 5304   4.792   6.257   9.384 -0.8373  0.2989 -1.0793
   39MOL0     C 5305   4.748   6.371   9.479 -0.0467  0.5411  0.5717
   39MOL0     C 5306   4.637   6.458   9.407  0.1411  1.3255  0.2797
   39MOL0     C 5307   4.563   6.559   9.502  0.0707  0.7703  0.6066
   39MOL0     C 5308   4.470   6.640   9.431  0.3484 -1.5581  0.3003
   39MOL0     C 5309   4.386   6.711   9.372  0.9635  1.2151 -0.5624
   39MOL0     C 5310   4.755   5.923   9.507 -0.9110  0.6759  0.1542
   39MOL0     C 5311   4.722   5.786   9.469 -1.2328 -0.7418 -0.4980
   39MOL0     C 5312   4.708   5.674   9.571  0.3274  0.6247  0.8835
   39MOL0     H 5313   4.458   5.631   8.941  1.9556  0.9356  2.9491
   39MOL0     H 5314   4.332   5.461   8.829  2.5566  1.6155 -1.6041
   39MOL0     H 5315   4.434   5.144   8.779 -0.6822  0.7840 -0.8229
   39MOL0     H 5316   4.304   5.250   8.729  1.3758 -0.5142 -1.3370
   39MOL0     H 5317   4.140   5.069   8.822  1.5501  2.2035  1.1989
   39MOL0     H 5318   4.218   5.043   8.662 -3.3063 -1.7042 -0.3571
   39MOL0     H 5319   4.398   4.909   8.789 -0.2982  2.1901  1.0506
   39MOL0     H 5320   4.295   4.912   8.924 -0.4291 -1.0376 -1.0456
   39MOL0     H 5321   4.094   4.821   8.811  0.3500  0.0427  5.5378
   39MOL0     H 5322   4.196   4.780   8.667 -0.6847 -1.2166  0.9081
   39MOL0     H 5323   4.135   4.613   8.862  0.7333 -1.5830 -1.6266
   39MOL0     H 5324   4.260   4.707   8.941  1.0248 -0.1622  0.2375
   39MOL0     H 5325   4.374   4.497   8.870 -1.5287  0.3704  2.2400
   39MOL0     H 5326   4.296   4.497   8.714 -0.0395 -0.4791  0.3545
   39MOL0     H 5327   4.498   4.705   8.788  0.2673 -0.1579  0.6686
   39MOL0     H 5328   4.429   4.674   8.628  2.0216 -4.0549 -2.8699
   39MOL0     H 5329   4.654   4.592   8.648 -0.1006  0.7050  2.2463
   39MOL0     H 5330   4.608   4.491   8.779  1.3113  1.1745  0.6986
   39MOL0     H 5331   4.486   4.271   8.748 -0.1785  4.5179  0.5319
   39MOL0     H 5332   4.314   4.081   8.495 -1.0672 -2.4248 -2.4888
   39MOL0     H 5333   4.454   4.003   8.585  3.2372  0.5758 -1.8119
   39MOL0     H 5334   4.474   4.067   8.289 -2.0595  2.7612  0.9553
   39MOL0     H 5335   4.585   3.987   8.378 -0.5193 -0.4981 -1.8806
   39MOL0     H 5336   4.421   3.795   8.425 -2.0335  1.2787  1.2974
   39MOL0     H 5337   4.317   3.881   8.324 -0.7768 -4.7361 -0.1581
   39MOL0     H 5338   4.604   3.788   8.242  0.3152  2.1970 -2.4305
   39MOL0     H 5339   4.460   3.706   8.200  0.9985 -0.3087 -1.9670
   39MOL0     H 5340   4.650   4.088   8.179 -1.1731  0.0508 -1.8463
   39MOL0     H 5341   4.900   4.269   7.981  2.8784 -1.1089  1.1306
   39MOL0     H 5342   4.890   4.219   8.152 -0.1086  1.2128 -1.0157
   39MOL0     H 5343   4.745   4.273   8.084 -1.1077 -0.9722 -3.5847
   39MOL0     H 5344   5.082   4.265   7.707  1.6686 -0.6056  1.4341
   39MOL0     H 5345   5.240   4.352   7.539 -3.9842  1.3801  0.7455
   39MOL0     H 5346   5.415   4.101   7.193  0.3224 -0.0684 -0.5511
   39MOL0     H 5347   5.255   4.152   7.178 -0.2992  1.5695  1.1410
   39MOL0     H 5348   5.504   4.335   7.205 -2.1999  2.2926  1.2319
   39MOL0     H 5349   5.451   4.299   7.050  0.6238  0.5883  1.1315
   39MOL0     H 5350   5.272   4.445   7.258 -0.9299  1.4571 -0.6869
   39MOL0     H 5351   5.236   4.424   7.081 -1.4671  1.9553  0.2008
   39MOL0     H 5352   5.447   4.584   7.037  0.1222 -1.0379 -0.1595
   39MOL0     H 5353   5.461   4.585   7.214 -0.0818 -0.4755  0.8291
   39MOL0     H 5354   5.228   4.680   7.031  0.8253 -0.2443 -1.2501
   39MOL0     H 5355   5.238   4.704   7.205 -1.9057 -0.6002 -0.9794
   39MOL0     H 5356   5.406   4.814   6.980 -2.9498  1.0907  0.0331
   39MOL0     H 5357   5.461   4.815   7.143 -0.4434 -0.8600 -1.0255
   39MOL0     H 5358   5.333   4.990   7.199 -1.2093  1.9561 -1.0855
   39MOL0     H 5359   5.183   4.909   7.155 -0.9979  0.1220  0.3476
   39MOL0     H 5360   5.209   4.976   6.927 -2.6694  2.5902 -0.6513
   39MOL0     H 5361   5.379   5.030   6.950 -0.1522 -4.5408 -0.0098
   39MOL0     H 5362   5.201   3.976   7.325 -4.6934 -3.0772 -1.0395
   39MOL0     H 5363   5.042   3.888   7.473  2.4754 -0.6187 -1.8391
   39MOL0     H 5364   4.778   3.831   7.783 -3.9441 -1.1463  1.3377
   39MOL0     H 5365   4.573   3.771   7.890  0.0913 -0.3368  1.4234
   39MOL0     H 5366   4.411   5.194   9.139  0.2700 -1.5027 -3.0237
   39MOL0     H 5367   4.540   5.382   9.272 -0.2536  2.1660  1.6622
   39MOL0     H 5368   4.732   5.823   9.128  0.3630 -0.3009 -0.1887
   39MOL0     H 5369   4.800   6.062   9.202 -0.6757 -0.7898 -0.8001
   39MOL0     H 5370   4.876   6.291   9.322  1.2729 -0.2659  1.2886
   39MOL0     H 5371   4.707   6.227   9.322 -1.6250  0.4858 -0.1069
   39MOL0     H 5372   4.836   6.426   9.513 -0.5167  1.4509  0.3242
   39MOL0     H 5373   4.704   6.322   9.567 -1.8826 -1.6099 -1.4173
   39MOL0     H 5374   4.673   6.521   9.326  1.7995  0.8657  0.6203
   39MOL0     H 5375   4.562   6.383   9.380 -1.8143  2.9167  0.9891
   39MOL0     H 5376   4.643   6.617   9.548  2.2646 -1.3564 -0.3376
   39MOL0     H 5377   4.506   6.492   9.567 -1.2677  1.7107  0.4430
   39MOL0     H 5378   4.316   6.767   9.315 -0.0028  0.2414 -0.3790
   39MOL0     H 5379   4.742   5.960   9.608 -0.0350  2.6487 -0.3981
   39MOL0     H 5380   4.612   5.624   9.555  0.6245  0.9306 -2.4688
   39MOL0     H 5381   4.789   5.601   9.557  1.7935  1.8794  2.3246
   39MOL0     H 5382   4.722   5.712   9.673  0.6648 -0.6884  1.3444
   40MOL0     O 5383   0.625   6.491   8.594  0.3468 -0.1647  0.6484
   40MOL0     C 5384   0.559   6.593   8.614  0.5071 -0.5107  0.6411
   40MOL0     O 5385   0.474   6.615   8.716 -0.9415  0.9291  0.2438
   40MOL0     C 5386   0.440   6.514   8.809  0.7887  0.2313  0.1431
   40MOL0     C 5387   0.419   6.552   8.949  0.4074 -0.1495  0.5412
   40MOL0     C 5388   0.412   6.456   9.047 -0.3089  0.2251 -0.1385
   40MOL0     C 5389   0.434   6.325   9.026  0.2426 -0.6028 -0.6824
   40MOL0     O 5390   0.446   6.243   9.127 -0.8008 -0.2707  0.5022
   40MOL0     C 5391   0.569   6.268   9.204 -0.5395 -0.2877  0.8179
   40MOL0     C 5392   0.681   6.182   9.142  0.2382  0.2256  0.2460
   40MOL0     C 5393   0.755   6.238   9.020  0.2100 -0.4435  0.2072
   40MOL0     C 5394   0.790   6.120   8.930  0.0940 -0.2284  0.3687
   40MOL0     C 5395   0.884   6.162   8.818  0.7814  0.7926  0.3350
   40MOL0     C 5396   0.805   6.234   8.716 -0.3446  0.2053 -0.0039
   40MOL0     C 5397   0.902   6.285   8.603  1.1004 -0.1503  1.2473
   40MOL0     C 5398   0.885   6.209   8.461  0.7552 -0.2073 -0.2676
   40MOL0     N 5399   1.018   6.195   8.393 -0.0933  0.7877  0.4888
   40MOL0     C 5400   1.082   6.286   8.330  0.0717 -0.6511  0.2870
   40MOL0     C 5401   1.204   6.240   8.290  0.4647  1.0358 -0.1533
   40MOL0     C 5402   1.315   6.290   8.202 -0.0261 -0.7510 -0.3064
   40MOL0     C 5403   1.287   6.339   8.061 -0.2448 -0.1005  0.2358
   40MOL0     C 5404   1.187   6.255   7.988  0.3130 -0.3806 -1.0145
   40MOL0     C 5405   1.184   6.279   7.840  0.9300  0.2472  0.0825
   40MOL0     O 5406   1.049   6.294   7.796  0.3395  0.7152 -0.0991
   40MOL0     C 5407   1.054   6.346   7.670 -0.2389 -0.1288 -0.7815
   40MOL0     C 5408   1.066   6.262   7.557 -0.2704 -0.0269 -0.3941
   40MOL0     C 5409   1.051   6.306   7.432 -0.1028  0.7952  0.6384
   40MOL0     C 5410   1.043   6.200   7.319 -0.3774 -0.8088  0.0312
   40MOL0     C 5411   1.021   6.450   7.413  0.7344 -0.5372 -0.4571
   40MOL0     C 5412   1.013   6.527   7.282  0.6241  0.3093  0.3144
   40MOL0     O 5413   0.984   6.661   7.278 -0.3290 -0.1907  0.6526
   40MOL0     C 5414   0.989   6.726   7.151  0.4884  0.6081  0.5171
   40MOL0     C 5415   0.873   6.714   7.068  0.2757 -0.3073 -0.1743
   40MOL0     C 5416   0.881   6.762   6.937 -0.6187 -0.5959 -0.2088
   40MOL0     C 5417   1.004   6.814   6.886  0.5469 -0.1869 -0.3745
   40MOL0     O 5418   1.026   6.866   6.764  0.4339 -0.0668 -1.3078
   40MOL0     C 5419   0.995   7.004   6.759  0.7048 -0.0814 -0.2401
   40MOL0     C 5420   0.921   7.038   6.629  0.0137  0.0104  0.2405
   40MOL0     C 5421   0.848   7.169   6.637 -0.6771  0.0404  0.6843
   40MOL0     C 5422   0.957   7.282   6.599  0.9782  0.2830 -0.7094
   40MOL0     C 5423   0.884   7.413   6.573  0.3282 -0.5267  0.1820
   40MOL0     C 5424   0.979   7.519   6.530  0.4476 -0.1705  0.2535
   40MOL0     C 5425   0.914   7.642   6.480 -0.4912 -0.8809 -0.1446
   40MOL0     C 5426   1.015   7.753   6.470 -0.5298  0.6878  0.2993
   40MOL0    Cl 5427   0.931   7.874   6.357 -0.1096  0.0310  0.3510
   40MOL0     C 5428   1.116   6.812   6.973 -0.2210  0.7204  0.3868
   40MOL0     C 5429   1.102   6.769   7.097 -0.4414 -0.1129  0.5829
   40MOL0     O 5430   1.044   6.463   7.179 -0.1087  0.5804 -0.2317
   40MOL0     C 5431   1.007   6.537   7.525 -0.4811  0.6171 -0.0727
   40MOL0     C 5432   1.014   6.483   7.654 -0.6129  0.0467  0.4618
   40MOL0     N 5433   1.204   6.111   8.325 -0.6101  0.1522  0.2736
   40MOL0     N 5434   1.093   6.083   8.401  0.3512 -0.1821  0.3900
   40MOL0     C 5435   0.441   6.281   8.892 -0.1435  0.5109  0.9346
   40MOL0     C 5436   0.446   6.372   8.789  0.2926 -0.4728  0.3140
   40MOL0     C 5437   0.573   6.707   8.516 -0.5697  0.2406  0.4129
   40MOL0     C 5438   0.658   6.692   8.410 -1.0662 -0.2810  0.1295
   40MOL0     C 5439   0.691   6.799   8.322 -0.0911 -0.1050  0.1288
   40MOL0     C 5440   0.636   6.925   8.342 -0.1261 -0.4865  1.2365
   40MOL0     O 5441   0.664   7.027   8.257  0.0327 -0.2598 -0.0833
   40MOL0     C 5442   0.759   7.022   8.147  0.5054 -0.8005 -0.2004
   40MOL0     C 5443   0.708   6.954   8.012 -0.2121  0.5857 -1.0240
   40MOL0     C 5444   0.662   7.055   7.904 -0.3605  0.4148 -0.2829
   40MOL0     C 5445   0.554   6.997   7.802 -0.2848 -0.0073  0.3608
   40MOL0     C 5446   0.601   6.861   7.756  0.4326 -0.4680 -0.4947
   40MOL0     C 5447   0.639   6.747   7.722 -0.1885 -0.3250  0.3208
   40MOL0     C 5448   0.548   6.946   8.447  0.5975  0.7696  0.0049
   40MOL0     C 5449   0.509   6.835   8.521  1.0616 -0.3266 -0.7140
   40MOL0     C 5450   0.409   6.881   8.631  0.8828  0.2211  1.0315
   40MOL0     H 5451   0.413   6.659   8.963 -5.6104 -0.1552  0.6008
   40MOL0     H 5452   0.408   6.479   9.153  1.6164  3.2593 -0.5883
   40MOL0     H 5453   0.565   6.246   9.311  4.0857 -2.7810  0.7283
   40MOL0     H 5454   0.604   6.371   9.207  0.0995 -0.4790  0.0157
   40MOL0     H 5455   0.745   6.158   9.227  0.2465 -1.6087 -0.2248
   40MOL0     H 5456   0.649   6.079   9.123  3.1142 -0.8382  0.6405
   40MOL0     H 5457   0.696   6.310   8.962  0.8366 -1.3132 -1.5978
   40MOL0     H 5458   0.845   6.284   9.060  1.0910 -3.2489  1.7506
   40MOL0     H 5459   0.835   6.043   8.994  0.1185 -3.7833 -3.4925
   40MOL0     H 5460   0.697   6.068   8.906 -0.9929  0.0582  3.4759
   40MOL0     H 5461   0.930   6.072   8.776 -1.8068  1.7033 -5.4719
   40MOL0     H 5462   0.966   6.221   8.860 -0.4208  2.2527  0.7268
   40MOL0     H 5463   0.726   6.180   8.663 -1.5487  1.4769  0.4478
   40MOL0     H 5464   0.761   6.319   8.768 -0.5943 -0.4241  0.8398
   40MOL0     H 5465   1.007   6.274   8.633  2.2597 -1.6532 -2.7167
   40MOL0     H 5466   0.872   6.389   8.591 -0.7379 -0.6197  1.4610
   40MOL0     H 5467   0.831   6.115   8.477 -2.1717  1.2518 -0.9178
   40MOL0     H 5468   0.811   6.254   8.394 -0.5802 -1.7684  0.0763
   40MOL0     H 5469   1.044   6.387   8.316  0.0758  0.0446  4.2218
   40MOL0     H 5470   1.382   6.204   8.193 -1.2965 -1.6197 -2.1050
   40MOL0     H 5471   1.378   6.365   8.251 -2.4008  1.8026 -0.9173
   40MOL0     H 5472   1.239   6.436   8.070  1.8721  1.1594 -1.0942
   40MOL0     H 5473   1.377   6.333   7.999 -1.8224 -0.1807 -2.2025
   40MOL0     H 5474   1.223   6.152   7.999 -0.1821 -0.4387  0.3118
   40MOL0     H 5475   1.088   6.258   8.035  1.3014 -0.1574  1.1961
   40MOL0     H 5476   1.252   6.362   7.816  2.6901 -1.0120  0.5605
   40MOL0     H 5477   1.232   6.192   7.794 -0.9773 -0.4588 -0.6621
   40MOL0     H 5478   1.086   6.157   7.580 -1.4794  0.4995  4.1731
   40MOL0     H 5479   1.144   6.203   7.275 -0.2732  0.6485  0.3293
   40MOL0     H 5480   0.967   6.224   7.245 -2.0203 -4.1012  0.4878
   40MOL0     H 5481   1.026   6.098   7.354 -0.9578 -0.7376 -0.0470
   40MOL0     H 5482   0.787   6.673   7.119  1.7441 -2.3601  0.8233
   40MOL0     H 5483   0.791   6.762   6.877 -1.6094  0.9780  1.1895
   40MOL0     H 5484   0.934   7.039   6.843 -0.5782  0.0166 -1.1850
   40MOL0     H 5485   1.089   7.060   6.749  0.6951 -0.3908 -2.3190
   40MOL0     H 5486   0.992   7.028   6.546  1.6188  0.7971  1.4579
   40MOL0     H 5487   0.853   6.962   6.591 -1.7100  0.9847  1.2298
   40MOL0     H 5488   0.798   7.192   6.732 -0.7265  3.1052  0.0397
   40MOL0     H 5489   0.771   7.172   6.559  0.0747  0.3599 -0.0703
   40MOL0     H 5490   1.009   7.239   6.513  0.4021  1.8498 -1.8812
   40MOL0     H 5491   1.020   7.298   6.686  0.0737  4.7361 -0.6727
   40MOL0     H 5492   0.818   7.394   6.489 -1.1131  0.4967  1.0267
   40MOL0     H 5493   0.825   7.440   6.662  2.7318  2.7246  1.0160
   40MOL0     H 5494   1.033   7.482   6.442 -0.5656 -3.5188  0.9018
   40MOL0     H 5495   1.045   7.541   6.614 -0.7894 -0.2263  1.2738
   40MOL0     H 5496   0.834   7.675   6.546  0.1943  0.5372  0.0238
   40MOL0     H 5497   0.863   7.627   6.384  2.1174 -0.6019 -1.6812
   40MOL0     H 5498   1.111   7.717   6.431  0.8366  0.0325  3.8905
   40MOL0     H 5499   1.041   7.806   6.562  1.5950 -2.3333  1.6153
   40MOL0     H 5500   1.203   6.865   6.936 -1.5417  2.5202 -0.2682
   40MOL0     H 5501   1.188   6.768   7.163 -1.2858  2.4831  1.8628
   40MOL0     H 5502   0.996   6.645   7.522 -0.6355  0.6727  1.6665
   40MOL0     H 5503   0.988   6.554   7.732 -1.4451  0.4977 -0.2153
   40MOL0     H 5504   0.453   6.175   8.872  3.7941  0.6851  1.5282
   40MOL0     H 5505   0.467   6.341   8.687 -1.8351  1.5432 -0.8336
   40MOL0     H 5506   0.716   6.600   8.408 -3.6433 -2.0077 -0.8401
   40MOL0     H 5507   0.778   6.783   8.260  0.4913  2.8693  0.0420
   40MOL0     H 5508   0.785   7.129   8.145  1.5931 -1.0225  0.9579
   40MOL0     H 5509   0.849   6.978   8.191  0.4615 -0.2869  0.4284
   40MOL0     H 5510   0.619   6.893   8.030  1.3133 -1.2310  0.8095
   40MOL0     H 5511   0.782   6.894   7.959  0.4237  0.2882  0.1611
   40MOL0     H 5512   0.634   7.151   7.949  2.5771  2.6604 -2.7846
   40MOL0     H 5513   0.752   7.077   7.845 -0.9091 -1.4603 -1.9535
   40MOL0     H 5514   0.539   7.066   7.718  0.1616 -0.2196  0.1036
   40MOL0     H 5515   0.456   6.993   7.849 -0.0347 -0.2575  0.8671
   40MOL0     H 5516   0.687   6.673   7.661  2.8997  4.0042 -3.2080
   40MOL0     H 5517   0.511   7.048   8.449 -1.1040  0.1880  0.6771
   40MOL0     H 5518   0.314   6.836   8.601  1.1578 -0.2965  0.9203
   40MOL0     H 5519   0.415   6.832   8.729 -1.8869 -0.4173  0.9751
   40MOL0     H 5520   0.391   6.987   8.648 -2.4171 -0.3441  1.7883
   41MOL0     O 5521   9.937   7.811  10.271  0.1560  0.6410 -0.0703
   41MOL0     C 5522  10.057   7.848  10.266 -0.2321  0.6066  0.4349
   41MOL0     O 5523  10.126   7.881  10.156  0.1341 -0.3034 -0.3722
   41MOL0     C 5524  10.071   7.904  10.031  0.7031 -0.2290 -0.0594
   41MOL0     C 5525   9.945   7.953  10.011  0.1410  1.1770 -0.4351
   41MOL0     C 5526   9.904   7.989   9.884  0.3388  0.0177  0.0557
   41MOL0     C 5527   9.998   7.992   9.782  0.7008 -0.6979  0.5748
   41MOL0     O 5528   9.951   8.054   9.667 -0.1402  0.2016  0.0416
   41MOL0     C 5529  10.043   8.124   9.568  0.3224  0.3353 -0.4188
   41MOL0     C 5530   9.989   8.117   9.428 -1.1712 -0.4138 -0.5869
   41MOL0     C 5531   9.856   8.186   9.422 -0.2715  0.6402  1.1082
   41MOL0     C 5532   9.835   8.215   9.272 -0.4776  1.0882  0.4440
   41MOL0     C 5533   9.712   8.305   9.228 -0.5088  0.4675  1.1439
   41MOL0     C 5534   9.708   8.278   9.070 -0.3265  0.1196  0.1243
   41MOL0     C 5535   9.582   8.336   8.991 -0.5223 -0.6422 -0.6151
   41MOL0     C 5536   9.610   8.418   8.864  0.2171 -0.8220 -0.3518
   41MOL0     N 5537   9.494   8.497   8.835  0.3234  0.3517 -0.2692
   41MOL0     C 5538   9.393   8.452   8.750 -0.2892 -0.2080 -0.3221
   41MOL0     C 5539   9.358   8.569   8.691  0.2418  0.0655  0.1992
   41MOL0     C 5540   9.252   8.595   8.585  0.3918  0.9977  0.2999
   41MOL0     C 5541   9.110   8.612   8.644 -0.0334  0.2837 -0.1717
   41MOL0     C 5542   9.053   8.491   8.726 -0.1912 -0.1800  0.1903
   41MOL0     C 5543   8.988   8.374   8.646 -0.6400  0.3194  1.6145
   41MOL0     O 5544   8.884   8.430   8.564 -0.1313 -0.6663  0.9799
   41MOL0     C 5545   8.818   8.347   8.474  1.1072 -0.2604  0.2807
   41MOL0     C 5546   8.833   8.208   8.463 -0.0352  1.0216  0.3300
   41MOL0     C 5547   8.775   8.136   8.357  1.5076  0.0103  0.0924
   41MOL0     C 5548   8.808   7.984   8.354  0.7120 -0.7748  1.1147
   41MOL0     C 5549   8.695   8.206   8.256  0.3240  0.7957 -1.1003
   41MOL0     C 5550   8.608   8.135   8.163  0.6614 -0.8437 -0.5121
   41MOL0     O 5551   8.480   8.188   8.154  0.8772  1.1545 -0.7433
   41MOL0     C 5552   8.398   8.127   8.061  0.7390  0.4917 -0.3975
   41MOL0     C 5553   8.327   8.198   7.952 -0.3937 -0.5616 -0.6310
   41MOL0     C 5554   8.223   8.132   7.886  0.3669  0.1008  0.7502
   41MOL0     C 5555   8.181   8.003   7.924 -0.4345  0.0863  0.4812
   41MOL0     O 5556   8.081   7.940   7.848 -0.0141  0.2987 -0.9230
   41MOL0     C 5557   8.127   7.858   7.747 -0.5341 -0.1613  0.9219
   41MOL0     C 5558   8.126   7.720   7.791 -0.4344  0.5528 -0.1817
   41MOL0     C 5559   7.982   7.669   7.809 -0.8993 -0.6691  0.0402
   41MOL0     C 5560   7.965   7.518   7.758  0.3472 -0.8327 -0.1072
   41MOL0     C 5561   7.840   7.447   7.782  0.3751  0.0504 -0.8891
   41MOL0     C 5562   7.811   7.320   7.704 -1.1473 -0.4446  1.3385
   41MOL0     C 5563   7.905   7.204   7.721 -1.0853 -0.1984 -1.5304
   41MOL0     C 5564   7.849   7.092   7.646 -0.6603  0.0247 -0.8062
   41MOL0    Cl 5565   7.957   6.953   7.645 -0.1567  0.2352  0.2341
   41MOL0     C 5566   8.257   7.934   8.020 -1.3595 -0.7862 -0.7160
   41MOL0     C 5567   8.352   7.995   8.086 -0.2593  0.0549 -0.6164
   41MOL0     O 5568   8.648   8.032   8.110  0.2770  0.5781  0.0946
   41MOL0     C 5569   8.681   8.341   8.279 -0.4152 -0.5432  0.2935
   41MOL0     C 5570   8.748   8.411   8.382  0.6204 -0.4455 -1.3050
   41MOL0     N 5571   9.413   8.678   8.760 -0.6695 -0.0896 -0.6454
   41MOL0     N 5572   9.495   8.631   8.844  0.3488 -0.3080  0.6630
   41MOL0     C 5573  10.130   7.944   9.796  0.2901 -1.1687 -0.4183
   41MOL0     C 5574  10.165   7.901   9.926 -0.0518 -0.0120  0.1818
   41MOL0     C 5575  10.127   7.879  10.394 -0.0581  0.9749 -0.2317
   41MOL0     C 5576  10.206   7.994  10.398  1.0255  0.3542 -0.2231
   41MOL0     C 5577  10.283   8.025  10.507 -0.1950  0.2355 -0.8021
   41MOL0     C 5578  10.281   7.942  10.627 -0.7939  1.2077  0.1195
   41MOL0     O 5579  10.353   7.957  10.742 -0.1039 -0.0515  0.0521
   41MOL0     C 5580  10.425   8.087  10.757  0.3960  0.4366 -0.2870
   41MOL0     C 5581  10.573   8.058  10.728 -0.4229  0.9536  0.2572
   41MOL0     C 5582  10.653   7.973  10.831  0.0865 -0.4287 -0.2970
   41MOL0     C 5583  10.667   8.052  10.959 -0.2501 -0.2504 -0.4432
   41MOL0     C 5584  10.740   8.186  10.948 -0.7715 -0.0927 -0.0256
   41MOL0     C 5585  10.801   8.289  10.926 -0.0077 -0.2364  0.8362
   41MOL0     C 5586  10.204   7.828  10.618 -0.0609  0.4031 -0.0522
   41MOL0     C 5587  10.131   7.793  10.501 -0.3690 -0.1698 -0.5641
   41MOL0     C 5588  10.066   7.658  10.491  0.9294  0.0189  0.1593
   41MOL0     H 5589   9.871   7.960  10.090  0.3028  0.0746 -0.1689
   41MOL0     H 5590   9.803   8.027   9.876  0.1743 -0.2604  0.7527
   41MOL0     H 5591  10.139   8.073   9.550  0.9802  1.9559 -1.7169
   41MOL0     H 5592  10.061   8.226   9.602  0.3125 -0.4439  2.1316
   41MOL0     H 5593  10.058   8.170   9.362  0.4035  0.2778  1.5127
   41MOL0     H 5594   9.978   8.017   9.386  2.2093 -1.4790  0.7696
   41MOL0     H 5595   9.773   8.126   9.459  0.7504 -0.3943  1.7889
   41MOL0     H 5596   9.847   8.281   9.476  0.3634  1.0591  0.4985
   41MOL0     H 5597   9.925   8.262   9.231  1.4866 -0.8329  2.2997
   41MOL0     H 5598   9.832   8.120   9.219  1.2136  2.1585 -1.7082
   41MOL0     H 5599   9.733   8.412   9.237  1.7289  0.5788 -3.0689
   41MOL0     H 5600   9.615   8.268   9.262  0.7352 -4.0657  0.4526
   41MOL0     H 5601   9.793   8.330   9.026  1.5324  0.2019  3.4587
   41MOL0     H 5602   9.709   8.176   9.032 -2.1752  0.5363 -1.1684
   41MOL0     H 5603   9.538   8.410   9.058 -1.8369 -1.3635 -0.6386
   41MOL0     H 5604   9.519   8.251   8.963  2.1590 -2.7104 -0.8202
   41MOL0     H 5605   9.683   8.495   8.891  0.5967  0.0367 -3.4831
   41MOL0     H 5606   9.653   8.353   8.787  1.6102  1.0689 -1.2605
   41MOL0     H 5607   9.362   8.348   8.743 -2.9387  0.3587  1.3600
   41MOL0     H 5608   9.246   8.503   8.525  2.2015  1.5415 -0.8179
   41MOL0     H 5609   9.279   8.671   8.512  0.4702 -0.4468 -1.2475
   41MOL0     H 5610   9.117   8.700   8.709  1.2539 -0.9811  1.5015
   41MOL0     H 5611   9.045   8.632   8.559  0.2152  1.1987 -0.1619
   41MOL0     H 5612   9.125   8.442   8.792 -1.8453 -1.5360  1.0574
   41MOL0     H 5613   8.969   8.534   8.781 -0.0930  0.6671 -0.3056
   41MOL0     H 5614   9.057   8.311   8.589  1.1041  1.2293  2.6043
   41MOL0     H 5615   8.932   8.313   8.717 -3.8200  1.8102  0.5843
   41MOL0     H 5616   8.889   8.162   8.543  2.9819 -0.6691 -2.5118
   41MOL0     H 5617   8.732   7.929   8.409  1.0924 -0.0165  2.4423
   41MOL0     H 5618   8.897   7.980   8.419  0.0403  0.7343  2.2031
   41MOL0     H 5619   8.833   7.949   8.254 -0.2407  1.2696  0.0989
   41MOL0     H 5620   8.358   8.300   7.934 -0.3436 -0.2431  1.0786
   41MOL0     H 5621   8.187   8.173   7.793 -1.8302  0.8524  1.8554
   41MOL0     H 5622   8.074   7.862   7.651 -0.8461 -0.2752  1.0883
   41MOL0     H 5623   8.231   7.887   7.732 -0.4696  0.1309  1.8857
   41MOL0     H 5624   8.171   7.665   7.708  1.0692  0.4071  0.6794
   41MOL0     H 5625   8.186   7.705   7.881 -2.8579  0.1401  1.4550
   41MOL0     H 5626   7.913   7.731   7.751 -2.2939 -1.2067  1.0832
   41MOL0     H 5627   7.961   7.686   7.915 -1.9219 -2.5432  0.1721
   41MOL0     H 5628   8.050   7.461   7.797  2.2312  1.6840 -0.2905
   41MOL0     H 5629   7.977   7.517   7.649  1.7633  0.9707 -0.0223
   41MOL0     H 5630   7.855   7.415   7.885  0.2560 -1.7333 -1.3966
   41MOL0     H 5631   7.765   7.526   7.768  2.3912  1.8806 -2.1251
   41MOL0     H 5632   7.815   7.344   7.597  0.8919  0.9995  1.6803
   41MOL0     H 5633   7.711   7.281   7.726 -1.1440 -2.0479 -1.0076
   41MOL0     H 5634   7.914   7.160   7.821 -2.8451 -1.7918 -2.0383
   41MOL0     H 5635   7.999   7.248   7.686 -1.8116  2.4826 -0.3714
   41MOL0     H 5636   7.807   7.107   7.546  2.1776 -2.0167 -2.4470
   41MOL0     H 5637   7.753   7.081   7.698 -1.9466 -0.0076 -3.0432
   41MOL0     H 5638   8.226   7.833   8.044  2.3440 -1.8015  0.3713
   41MOL0     H 5639   8.390   7.939   8.171 -2.7243 -0.3801  0.2718
   41MOL0     H 5640   8.628   8.403   8.208  0.5022 -1.0870 -0.8958
   41MOL0     H 5641   8.737   8.514   8.411  0.4813 -0.6775 -0.5058
   41MOL0     H 5642  10.205   7.954   9.718 -0.6498 -1.5701 -1.3897
   41MOL0     H 5643  10.265   7.874   9.956  1.3926  1.0404 -3.1872
   41MOL0     H 5644  10.212   8.042  10.301  0.7396 -1.4835 -1.1968
   41MOL0     H 5645  10.340   8.117  10.501 -0.5333  0.8965  3.1196
   41MOL0     H 5646  10.393   8.171  10.696 -0.1746  0.8765  0.5964
   41MOL0     H 5647  10.396   8.119  10.857 -1.9446 -0.6113 -0.5650
   41MOL0     H 5648  10.634   8.147  10.708  2.2575 -0.8414 -0.0639
   41MOL0     H 5649  10.574   7.987  10.645 -0.2032  0.2346  0.8632
   41MOL0     H 5650  10.605   7.875  10.839 -1.5952  0.3090 -0.9891
   41MOL0     H 5651  10.756   7.955  10.798  2.2830  2.4814  4.0304
   41MOL0     H 5652  10.712   7.996  11.042 -0.0471  0.3732 -0.1224
   41MOL0     H 5653  10.566   8.079  10.990 -0.2894 -1.0415  0.1499
   41MOL0     H 5654  10.858   8.379  10.912 -0.1103 -0.4069 -0.8528
   41MOL0     H 5655  10.176   7.761  10.700  1.7615 -0.6992 -0.2722
   41MOL0     H 5656  10.073   7.591  10.577  1.0851 -1.6755 -1.1216
   41MOL0     H 5657   9.958   7.657  10.472  1.1791 -0.3730 -1.3808
   41MOL0     H 5658  10.115   7.601  10.411  0.8669 -3.6420  2.4676
   42MOL0     O 5659   0.209   4.610   9.057  0.8122 -1.7771  0.2594
   42MOL0     C 5660   0.180   4.596   8.934  0.0931  0.0693 -0.6586
   42MOL0     O 5661   0.266   4.610   8.829 -0.2643  0.3941  0.0754
   42MOL0     C 5662   0.366   4.705   8.860  1.5268 -0.2634 -0.0362
   42MOL0     C 5663   0.369   4.825   8.782  0.2276 -0.2387  0.0964
   42MOL0     C 5664   0.459   4.922   8.811 -0.7524  0.4789 -0.1275
   42MOL0     C 5665   0.565   4.898   8.903 -0.8653  0.4617  0.7115
   42MOL0     O 5666   0.658   4.994   8.944  0.4261 -0.5602  0.4161
   42MOL0     C 5667   0.607   5.130   8.979  0.0895  0.1743 -0.0014
   42MOL0     C 5668   0.640   5.248   8.881  0.0801  0.6905  0.0815
   42MOL0     C 5669   0.787   5.238   8.838 -0.5294 -0.1454  0.6450
   42MOL0     C 5670   0.812   5.352   8.736  0.1369 -0.1456 -0.2690
   42MOL0     C 5671   0.957   5.358   8.695  0.0586  0.0954 -0.0208
   42MOL0     C 5672   0.983   5.424   8.558 -0.2846  0.5216  0.3429
   42MOL0     C 5673   1.127   5.397   8.530  0.3961  0.3720  0.3091
   42MOL0     C 5674   1.160   5.446   8.390  0.0488  0.0201  0.2132
   42MOL0     N 5675   1.083   5.389   8.279 -0.0157 -0.4915  0.4033
   42MOL0     C 5676   0.972   5.452   8.228 -1.3253 -0.3308 -1.1182
   42MOL0     C 5677   0.924   5.365   8.132 -0.6618  0.1056 -0.3696
   42MOL0     C 5678   0.805   5.398   8.045  0.1316  0.1055  0.4062
   42MOL0     C 5679   0.682   5.367   8.128  0.4927  0.7320  0.1653
   42MOL0     C 5680   0.656   5.228   8.188  0.8187  0.1895  0.6123
   42MOL0     C 5681   0.665   5.119   8.069  0.2310 -0.7663 -1.1066
   42MOL0     O 5682   0.577   5.131   7.954  0.2286 -0.3097 -0.0832
   42MOL0     C 5683   0.447   5.108   7.977 -0.3654  0.7235  0.2575
   42MOL0     C 5684   0.357   5.154   7.884  0.1818 -0.0186 -0.1419
   42MOL0     C 5685   0.223   5.134   7.891  0.6645  0.7514  0.8711
   42MOL0     C 5686   0.138   5.187   7.774  0.5008  0.9012 -0.6254
   42MOL0     C 5687   0.168   5.072   8.000  0.3994  1.1238 -0.0399
   42MOL0     C 5688   0.017   5.050   8.028 -0.3962 -0.1023  0.9204
   42MOL0     O 5689  -0.013   4.972   8.140 -0.5130 -0.1215  0.2049
   42MOL0     C 5690  -0.134   4.906   8.161 -0.1758  0.1083 -0.1298
   42MOL0     C 5691  -0.148   4.842   8.276 -0.0217  0.2235 -0.9774
   42MOL0     C 5692  -0.268   4.792   8.330 -0.0696 -0.0217 -0.5824
   42MOL0     C 5693  -0.393   4.810   8.265 -1.4795  0.2485  0.8757
   42MOL0     O 5694  -0.513   4.764   8.303  0.1096 -0.4595 -0.2967
   42MOL0     C 5695  -0.533   4.752   8.444 -0.9601 -0.4352 -0.4039
   42MOL0     C 5696  -0.686   4.739   8.469 -0.5186 -0.2546 -1.2863
   42MOL0     C 5697  -0.731   4.713   8.614 -0.2578  0.9714  0.1328
   42MOL0     C 5698  -0.685   4.579   8.665 -0.6648  1.0229  0.7456
   42MOL0     C 5699  -0.752   4.531   8.795 -0.0472 -0.4527  0.1017
   42MOL0     C 5700  -0.881   4.453   8.777  1.1161 -0.4203 -0.0031
   42MOL0     C 5701  -0.842   4.315   8.751 -0.0127  0.6635 -0.0481
   42MOL0     C 5702  -0.955   4.226   8.713 -0.5644 -0.5381 -0.7618
   42MOL0    Cl 5703  -0.927   4.073   8.808 -0.4903 -0.0655  0.1408
   42MOL0     C 5704  -0.377   4.869   8.138  0.0360 -1.0241 -0.7056
   42MOL0     C 5705  -0.257   4.911   8.083  0.0266  0.0642 -0.0318
   42MOL0     O 5706  -0.065   5.076   7.940 -0.5352  0.3916  0.4246
   42MOL0     C 5707   0.254   5.030   8.103 -0.0891  0.3721 -0.1742
   42MOL0     C 5708   0.392   5.041   8.085 -0.1423  0.2075  0.4080
   42MOL0     N 5709   1.012   5.256   8.117  0.4269  0.9100  0.3014
   42MOL0     N 5710   1.100   5.266   8.209  0.0081  0.3437 -0.8501
   42MOL0     C 5711   0.569   4.773   8.966 -0.8535  0.2259  0.3364
   42MOL0     C 5712   0.477   4.674   8.943  0.6773 -0.2294 -0.4020
   42MOL0     C 5713   0.055   4.521   8.903 -0.0651  0.1996 -0.4486
   42MOL0     C 5714   0.062   4.425   8.797  1.0076 -0.8740  1.3038
   42MOL0     C 5715  -0.042   4.341   8.764  0.4588  0.0889  0.1987
   42MOL0     C 5716  -0.154   4.346   8.847  0.6326  0.4891  1.1128
   42MOL0     O 5717  -0.263   4.281   8.803  0.2598 -0.1805  0.5448
   42MOL0     C 5718  -0.383   4.343   8.754  0.5410  0.4609  0.4831
   42MOL0     C 5719  -0.452   4.285   8.629  0.2213  0.6604  0.2029
   42MOL0     C 5720  -0.379   4.352   8.514 -0.2660 -0.1049  0.3699
   42MOL0     C 5721  -0.429   4.300   8.378 -0.0365  0.3057  0.3340
   42MOL0     C 5722  -0.573   4.295   8.367  0.0146 -0.0007 -0.0496
   42MOL0     C 5723  -0.690   4.271   8.373 -0.2724 -0.4163  0.0739
   42MOL0     C 5724  -0.162   4.429   8.956 -0.3075  0.0511  0.4465
   42MOL0     C 5725  -0.065   4.518   8.985  0.1967  0.4232  0.6336
   42MOL0     C 5726  -0.089   4.629   9.083  0.1372 -0.4301  0.1195
   42MOL0     H 5727   0.290   4.838   8.708 -0.1904  2.2408  0.8998
   42MOL0     H 5728   0.452   5.019   8.764  1.9930  0.9491  0.2599
   42MOL0     H 5729   0.653   5.152   9.076 -1.4140  0.1002  0.7559
   42MOL0     H 5730   0.499   5.127   8.994  0.3245 -2.9042  1.7653
   42MOL0     H 5731   0.572   5.241   8.795  1.5533  0.7626 -1.1234
   42MOL0     H 5732   0.626   5.346   8.927 -2.1703  0.4700 -0.0364
   42MOL0     H 5733   0.852   5.264   8.922 -0.9671  1.2817  0.5760
   42MOL0     H 5734   0.813   5.144   8.788 -0.2946  0.3599 -0.1970
   42MOL0     H 5735   0.735   5.345   8.659 -0.0668  1.3219 -0.2281
   42MOL0     H 5736   0.793   5.450   8.780 -1.7548 -0.4968 -0.2359
   42MOL0     H 5737   0.991   5.255   8.701 -3.5323 -1.2475 -0.2820
   42MOL0     H 5738   1.005   5.411   8.778 -1.1755 -3.2173  3.0427
   42MOL0     H 5739   0.919   5.382   8.480 -0.3942 -1.3700  1.3734
   42MOL0     H 5740   0.969   5.532   8.561 -0.7425  0.5302 -1.3282
   42MOL0     H 5741   1.155   5.291   8.541 -0.4015  0.2781  1.7659
   42MOL0     H 5742   1.183   5.451   8.607  2.1425  0.8761 -1.2462
   42MOL0     H 5743   1.146   5.555   8.393 -1.3597 -0.1542  0.5482
   42MOL0     H 5744   1.268   5.426   8.383  0.2586  1.5361 -2.2430
   42MOL0     H 5745   0.934   5.548   8.259  0.9067  0.2312  0.1185
   42MOL0     H 5746   0.803   5.327   7.961 -0.9526  0.4423  0.1288
   42MOL0     H 5747   0.794   5.502   8.015  1.9904  0.6892  1.6199
   42MOL0     H 5748   0.662   5.445   8.203 -2.7896  0.2385 -0.0201
   42MOL0     H 5749   0.591   5.383   8.069  0.8642  2.0375 -0.0722
   42MOL0     H 5750   0.715   5.193   8.273 -0.9747 -2.4271  0.8964
   42MOL0     H 5751   0.556   5.232   8.232  1.0284  0.3141  1.0940
   42MOL0     H 5752   0.772   5.119   8.048  1.2390 -2.4924  2.9969
   42MOL0     H 5753   0.670   5.022   8.120  0.1194  0.7502  2.0533
   42MOL0     H 5754   0.394   5.203   7.795  1.0990  0.0118  0.2526
   42MOL0     H 5755   0.203   5.239   7.702 -1.0388 -1.9100 -4.3574
   42MOL0     H 5756   0.056   5.252   7.805  0.8710  1.5885 -1.0529
   42MOL0     H 5757   0.099   5.104   7.716  4.3065 -2.6989  1.4328
   42MOL0     H 5758  -0.056   4.833   8.333 -1.8010 -1.5293  1.8549
   42MOL0     H 5759  -0.264   4.748   8.429 -0.4135 -0.0778 -0.5921
   42MOL0     H 5760  -0.477   4.669   8.486  1.2458 -0.3272 -2.8652
   42MOL0     H 5761  -0.501   4.843   8.496 -4.7805  0.4618  0.7542
   42MOL0     H 5762  -0.724   4.841   8.451 -0.8371 -0.1486 -0.0922
   42MOL0     H 5763  -0.737   4.668   8.403 -0.0295 -0.3366 -1.5825
   42MOL0     H 5764  -0.839   4.726   8.614 -0.3318  0.8927 -2.4998
   42MOL0     H 5765  -0.685   4.784   8.683  2.9508 -0.4262 -0.3506
   42MOL0     H 5766  -0.579   4.587   8.691 -0.1895 -0.8737 -0.3772
   42MOL0     H 5767  -0.702   4.501   8.590  1.0613  0.8704  0.4720
   42MOL0     H 5768  -0.676   4.468   8.841  1.5795  2.1205  1.1405
   42MOL0     H 5769  -0.769   4.603   8.874  0.4516 -1.9581  1.6451
   42MOL0     H 5770  -0.940   4.491   8.693  2.8504 -0.3812 -1.2464
   42MOL0     H 5771  -0.947   4.456   8.865  0.7981 -2.0064 -0.1620
   42MOL0     H 5772  -0.792   4.277   8.841  0.0184  1.3149  0.2163
   42MOL0     H 5773  -0.764   4.319   8.675  0.0310 -0.6494 -0.0891
   42MOL0     H 5774  -0.959   4.207   8.605 -0.1146 -1.7852 -0.5709
   42MOL0     H 5775  -1.056   4.257   8.742  0.2027  0.9543  0.4140
   42MOL0     H 5776  -0.463   4.887   8.074 -0.3596  0.3537  0.1733
   42MOL0     H 5777  -0.271   4.967   7.990  0.0463 -0.8922 -0.6258
   42MOL0     H 5778   0.229   4.981   8.196  3.1190 -0.0647  0.5841
   42MOL0     H 5779   0.455   5.013   8.169 -2.8820  1.2588  2.9868
   42MOL0     H 5780   0.657   4.758   9.027  0.4681  1.5293 -1.1659
   42MOL0     H 5781   0.475   4.580   8.998 -0.1866  1.1393  2.1067
   42MOL0     H 5782   0.153   4.412   8.740  0.4334 -4.3639  0.9607
   42MOL0     H 5783  -0.033   4.277   8.678 -1.7191 -2.2638  1.5852
   42MOL0     H 5784  -0.461   4.345   8.831  0.2121 -1.7454  0.2825
   42MOL0     H 5785  -0.361   4.450   8.744  4.1799 -0.2282 -0.1700
   42MOL0     H 5786  -0.560   4.300   8.635 -0.3783 -3.2099  2.2691
   42MOL0     H 5787  -0.433   4.177   8.636 -2.3056  0.1616  0.1556
   42MOL0     H 5788  -0.393   4.460   8.504  1.1722 -0.1052 -5.8761
   42MOL0     H 5789  -0.272   4.340   8.537 -0.5047 -2.6067  0.5366
   42MOL0     H 5790  -0.395   4.199   8.356 -2.4896 -0.4476 -0.3506
   42MOL0     H 5791  -0.387   4.368   8.304  2.6245 -2.3868 -0.8389
   42MOL0     H 5792  -0.797   4.274   8.377 -0.4568  2.4828 -2.9416
   42MOL0     H 5793  -0.254   4.426   9.014 -1.0224  0.3762 -0.6398
   42MOL0     H 5794  -0.047   4.722   9.044  0.4883 -1.7037 -2.7738
   42MOL0     H 5795  -0.192   4.652   9.111  0.3980  1.8714 -0.6476
   42MOL0     H 5796  -0.034   4.611   9.176 -0.1475  2.2544  0.8959
   43MOL0     O 5797   6.303   3.939   6.681 -0.3463  0.8130 -0.2836
   43MOL0     C 5798   6.288   4.056   6.647 -0.4908  0.3377 -0.1149
   43MOL0     O 5799   6.176   4.129   6.673  0.5277  0.0042 -0.3525
   43MOL0     C 5800   6.060   4.065   6.687  0.0121  0.3072 -0.3888
   43MOL0     C 5801   5.970   4.061   6.577  0.4008  0.1809 -0.8335
   43MOL0     C 5802   5.848   4.000   6.590  0.7427  0.7297 -0.1130
   43MOL0     C 5803   5.803   3.951   6.710  0.2447  0.2915  0.8526
   43MOL0     O 5804   5.679   3.896   6.732 -0.0215 -0.3370  0.2926
   43MOL0     C 5805   5.589   3.870   6.627  0.1783 -1.2599  0.9343
   43MOL0     C 5806   5.467   3.808   6.690  0.1203  0.6439  0.4247
   43MOL0     C 5807   5.499   3.683   6.786 -0.7088 -0.5216  0.1312
   43MOL0     C 5808   5.598   3.583   6.724 -0.3499  1.0297 -0.5010
   43MOL0     C 5809   5.596   3.451   6.813 -0.4173  0.4912 -0.6101
   43MOL0     C 5810   5.676   3.344   6.743 -0.2415  0.2039  0.5032
   43MOL0     C 5811   5.703   3.217   6.830  1.3814 -0.8489 -0.0834
   43MOL0     C 5812   5.726   3.090   6.751 -0.8411  0.0914 -0.0269
   43MOL0     N 5813   5.859   3.100   6.689 -0.3984  0.3462 -0.1853
   43MOL0     C 5814   5.976   3.072   6.752 -0.3495 -0.3714  0.7688
   43MOL0     C 5815   6.075   3.098   6.658  0.4902  0.6069  0.4707
   43MOL0     C 5816   6.227   3.092   6.673 -0.0372 -0.0936  1.0958
   43MOL0     C 5817   6.263   3.244   6.657  0.4051  0.4178  0.1300
   43MOL0     C 5818   6.401   3.263   6.705 -1.2690 -0.0375 -0.1087
   43MOL0     C 5819   6.448   3.412   6.688 -1.2014  0.2657 -0.2974
   43MOL0     O 5820   6.451   3.449   6.549  0.1295  0.1263  0.4639
   43MOL0     C 5821   6.351   3.533   6.500  0.5841 -0.6814 -0.6138
   43MOL0     C 5822   6.224   3.560   6.552  0.5787 -0.2741 -0.0541
   43MOL0     C 5823   6.130   3.636   6.475 -0.4300 -0.2159  0.1934
   43MOL0     C 5824   5.993   3.652   6.545  0.8203 -0.2936  0.6581
   43MOL0     C 5825   6.166   3.685   6.351 -0.5954 -1.0843 -1.3483
   43MOL0     C 5826   6.087   3.784   6.284 -0.4916  0.0971  0.1633
   43MOL0     O 5827   6.093   3.764   6.153  0.1725  0.0427 -0.0502
   43MOL0     C 5828   6.026   3.863   6.075 -0.0722  0.9334 -0.7709
   43MOL0     C 5829   5.900   3.844   6.046  0.3185 -0.0162  0.1879
   43MOL0     C 5830   5.838   3.941   5.970 -0.0216  0.8491  1.0246
   43MOL0     C 5831   5.910   4.042   5.908  0.5098 -0.3260  0.1858
   43MOL0     O 5832   5.863   4.139   5.821  0.0640  0.8263  0.1622
   43MOL0     C 5833   5.724   4.143   5.792  0.3774  0.5848  0.3582
   43MOL0     C 5834   5.691   4.271   5.736  1.3782  0.4195  0.1369
   43MOL0     C 5835   5.547   4.261   5.666 -0.4669 -0.3357  0.1317
   43MOL0     C 5836   5.521   4.371   5.569  0.2512  0.5286 -0.3126
   43MOL0     C 5837   5.387   4.350   5.502 -1.1022 -0.5682 -0.2462
   43MOL0     C 5838   5.351   4.457   5.395  0.2825  0.7364 -0.3345
   43MOL0     C 5839   5.220   4.416   5.342 -0.0477  0.3368 -0.0593
   43MOL0     C 5840   5.172   4.520   5.251  0.0019  0.6872 -0.4418
   43MOL0    Cl 5841   5.247   4.489   5.081  0.1676  0.0856  0.2029
   43MOL0     C 5842   6.041   4.063   5.946  0.0270  0.0011  0.8598
   43MOL0     C 5843   6.100   3.969   6.033  1.2437 -0.1897  0.7811
   43MOL0     O 5844   6.039   3.881   6.338  0.5327 -0.6351  0.3966
   43MOL0     C 5845   6.298   3.651   6.295  0.5227 -0.3331 -0.0806
   43MOL0     C 5846   6.390   3.585   6.376  0.3070  0.1705  0.6627
   43MOL0     N 5847   6.017   3.134   6.543  0.5202 -0.7542  1.2048
   43MOL0     N 5848   5.890   3.124   6.562 -0.0574 -0.0730 -0.5777
   43MOL0     C 5849   5.887   3.960   6.822 -0.0238 -0.5300 -1.0938
   43MOL0     C 5850   6.016   4.013   6.808  0.0587 -0.6628  0.4881
   43MOL0     C 5851   6.394   4.139   6.577  0.0229 -1.3746  0.6727
   43MOL0     C 5852   6.419   4.269   6.626 -0.3272 -0.6420 -0.8480
   43MOL0     C 5853   6.518   4.342   6.570  0.7058 -0.0913 -0.8781
   43MOL0     C 5854   6.585   4.298   6.456 -0.4440  0.2814  0.2024
   43MOL0     O 5855   6.698   4.352   6.396  0.5469 -0.3623 -0.8164
   43MOL0     C 5856   6.715   4.489   6.434  0.7332  0.3827 -0.9313
   43MOL0     C 5857   6.819   4.568   6.356 -0.0714 -1.4498 -0.5268
   43MOL0     C 5858   6.795   4.589   6.209 -0.7481  0.1755  0.1167
   43MOL0     C 5859   6.663   4.658   6.167  0.1226 -0.5154  1.0155
   43MOL0     C 5860   6.653   4.671   6.023 -0.5808  0.3996  0.5301
   43MOL0     C 5861   6.650   4.673   5.900  0.2807 -0.0065  0.1735
   43MOL0     C 5862   6.556   4.169   6.405 -0.4500  0.1787  0.2020
   43MOL0     C 5863   6.452   4.093   6.466  0.5735 -1.1625 -0.4423
   43MOL0     C 5864   6.400   3.969   6.404 -0.1901  0.7507 -0.3022
   43MOL0     H 5865   6.006   4.104   6.484  3.5725  0.3864  0.3757
   43MOL0     H 5866   5.785   3.990   6.503  1.1018  2.0326 -0.5349
   43MOL0     H 5867   5.635   3.810   6.547 -0.3084  0.7384 -0.9592
   43MOL0     H 5868   5.568   3.963   6.574 -0.2098 -2.5615 -1.3730
   43MOL0     H 5869   5.419   3.891   6.742  0.1995  0.8103  0.2361
   43MOL0     H 5870   5.399   3.782   6.609 -0.2270  1.0681  0.5792
   43MOL0     H 5871   5.546   3.725   6.875 -0.2206  0.5216 -0.6057
   43MOL0     H 5872   5.405   3.644   6.826 -0.2747 -1.4238  0.3043
   43MOL0     H 5873   5.562   3.557   6.624  0.3920 -0.4666 -0.4125
   43MOL0     H 5874   5.699   3.621   6.707 -0.1783  0.7402 -0.1486
   43MOL0     H 5875   5.501   3.405   6.841  1.0090 -2.1784  0.1254
   43MOL0     H 5876   5.650   3.470   6.907 -1.6446 -0.9322  0.4329
   43MOL0     H 5877   5.616   3.319   6.656 -2.1494  2.7204  0.9989
   43MOL0     H 5878   5.774   3.388   6.720  0.1008  0.0848  1.6327
   43MOL0     H 5879   5.614   3.200   6.891  1.3797 -1.0855 -0.1508
   43MOL0     H 5880   5.789   3.232   6.897  0.9885  3.3913 -0.3086
   43MOL0     H 5881   5.729   3.002   6.816  0.4235 -0.1741 -0.4078
   43MOL0     H 5882   5.650   3.082   6.673 -1.3709 -2.0891  0.6508
   43MOL0     H 5883   5.986   3.033   6.853 -3.3823 -4.3063 -0.2100
   43MOL0     H 5884   6.268   3.039   6.586  2.0209  0.5360  1.6422
   43MOL0     H 5885   6.281   3.050   6.758 -0.4716  0.8081  1.8255
   43MOL0     H 5886   6.251   3.281   6.554 -3.5454 -1.8617 -0.4031
   43MOL0     H 5887   6.207   3.296   6.735 -1.3884 -1.2948  0.0511
   43MOL0     H 5888   6.411   3.236   6.811 -1.1319 -2.2296 -0.6290
   43MOL0     H 5889   6.475   3.210   6.645 -2.1126  0.0458 -1.2449
   43MOL0     H 5890   6.397   3.483   6.753  3.2489  2.4741  1.2073
   43MOL0     H 5891   6.553   3.415   6.720 -1.2571 -1.6290  0.1856
   43MOL0     H 5892   6.188   3.538   6.652  1.0086  2.4715  0.7913
   43MOL0     H 5893   6.008   3.635   6.653  0.2061  1.7694  1.1091
   43MOL0     H 5894   5.936   3.560   6.530  3.4650 -2.1749  1.2101
   43MOL0     H 5895   5.943   3.748   6.534  1.5106 -0.0757 -0.7811
   43MOL0     H 5896   5.838   3.765   6.088  0.2619  0.7722  1.6431
   43MOL0     H 5897   5.730   3.938   5.957  0.2478  0.9677 -2.0302
   43MOL0     H 5898   5.706   4.054   5.730 -2.7009 -0.1667  2.1058
   43MOL0     H 5899   5.660   4.127   5.880  0.5540 -1.2922  0.1992
   43MOL0     H 5900   5.707   4.345   5.815  4.2764 -2.8651  2.9651
   43MOL0     H 5901   5.768   4.298   5.663  1.2813  0.4913  0.0604
   43MOL0     H 5902   5.465   4.256   5.739  0.1232 -1.0140  0.7744
   43MOL0     H 5903   5.548   4.162   5.620  2.0132 -0.4312  0.2690
   43MOL0     H 5904   5.593   4.372   5.487  1.1038 -1.2056  0.3738
   43MOL0     H 5905   5.523   4.461   5.632 -0.3124 -0.8302  1.7350
   43MOL0     H 5906   5.390   4.251   5.455  1.6804 -0.9510  0.6039
   43MOL0     H 5907   5.307   4.343   5.578 -3.3634  2.0576 -2.1804
   43MOL0     H 5908   5.428   4.466   5.318 -1.3230 -0.5269 -2.1598
   43MOL0     H 5909   5.344   4.548   5.455  0.8046  1.3209 -1.1319
   43MOL0     H 5910   5.153   4.410   5.429  1.7784  2.8023  1.6711
   43MOL0     H 5911   5.219   4.314   5.303 -0.1615  0.0181  0.7580
   43MOL0     H 5912   5.192   4.623   5.283  2.0808 -0.4795  2.3604
   43MOL0     H 5913   5.063   4.517   5.246  0.0440  0.3095 -1.5147
   43MOL0     H 5914   6.097   4.151   5.915  3.1028 -1.7980  0.8437
   43MOL0     H 5915   6.204   3.993   6.050  1.5413 -0.0590 -0.9942
   43MOL0     H 5916   6.316   3.673   6.191 -0.6981 -1.4349 -0.5650
   43MOL0     H 5917   6.485   3.556   6.333  1.1565  3.5317 -0.0220
   43MOL0     H 5918   5.846   3.924   6.915 -0.2441  1.4348 -0.3904
   43MOL0     H 5919   6.091   4.022   6.886  0.0602 -0.5191  0.4692
   43MOL0     H 5920   6.370   4.318   6.708 -0.8734  0.2787 -1.7070
   43MOL0     H 5921   6.539   4.440   6.612 -0.7869  0.8728 -2.2464
   43MOL0     H 5922   6.618   4.538   6.446  0.6727  0.0615 -0.0426
   43MOL0     H 5923   6.767   4.484   6.531  3.0081  0.7283 -2.0727
   43MOL0     H 5924   6.918   4.524   6.370  2.2564  2.9826 -1.4652
   43MOL0     H 5925   6.823   4.670   6.394 -1.1069 -1.4523 -0.3699
   43MOL0     H 5926   6.883   4.639   6.167  0.7368 -1.0432  1.6192
   43MOL0     H 5927   6.786   4.490   6.162 -2.9330  1.4172 -2.3590
   43MOL0     H 5928   6.652   4.755   6.215 -2.0264 -0.4215  0.4222
   43MOL0     H 5929   6.576   4.600   6.200 -1.3252  2.6640  3.2399
   43MOL0     H 5930   6.644   4.679   5.793  0.5793  0.6097  0.1872
   43MOL0     H 5931   6.598   4.135   6.311  1.4273  0.9831  0.7154
   43MOL0     H 5932   6.448   3.935   6.312  1.3544 -2.0968  1.4113
   43MOL0     H 5933   6.393   3.879   6.465 -2.8254 -1.1820 -3.1584
   43MOL0     H 5934   6.295   3.985   6.377  0.3116  3.3768 -1.0780
   44MOL0     O 5935   1.289   3.599   2.380  0.1821 -0.6981 -0.0834
   44MOL0     C 5936   1.236   3.708   2.409  0.4547 -0.9253  0.5145
   44MOL0     O 5937   1.268   3.785   2.508 -0.3251  0.4902 -0.5474
   44MOL0     C 5938   1.350   3.749   2.617 -0.1509 -0.1048 -0.9435
   44MOL0     C 5939   1.405   3.622   2.642  0.8254 -0.9152 -0.4919
   44MOL0     C 5940   1.488   3.600   2.754  0.3864  0.4167  0.2811
   44MOL0     C 5941   1.513   3.702   2.845 -0.0547  0.9055  0.1775
   44MOL0     O 5942   1.586   3.671   2.954 -0.2690  0.1129  0.4443
   44MOL0     C 5943   1.679   3.762   3.007  0.3689  1.2175 -0.3717
   44MOL0     C 5944   1.778   3.695   3.111 -0.0904 -0.0893  0.5561
   44MOL0     C 5945   1.737   3.697   3.253  0.5219  0.0816  0.1666
   44MOL0     C 5946   1.602   3.632   3.272 -1.8825 -0.0805 -0.9156
   44MOL0     C 5947   1.531   3.676   3.404 -0.4901  0.5298 -0.8671
   44MOL0     C 5948   1.612   3.652   3.525 -0.6776 -0.1985 -1.5814
   44MOL0     C 5949   1.530   3.656   3.649  0.1673 -0.5968 -0.0975
   44MOL0     C 5950   1.599   3.600   3.768 -0.1859  0.2901  0.3734
   44MOL0     N 5951   1.525   3.625   3.891 -0.0961 -0.1075  0.2866
   44MOL0     C 5952   1.389   3.643   3.908  0.5608 -0.0346 -0.6117
   44MOL0     C 5953   1.372   3.686   4.033 -0.4275 -0.7957  0.0012
   44MOL0     C 5954   1.241   3.725   4.092  0.8862 -0.2948  0.3403
   44MOL0     C 5955   1.192   3.874   4.068  0.5393  1.0455  0.0714
   44MOL0     C 5956   1.291   3.981   4.101 -0.5516  0.2910  0.1550
   44MOL0     C 5957   1.320   3.990   4.252  0.7246  1.0607 -0.0573
   44MOL0     O 5958   1.216   4.074   4.297 -0.1050 -0.0177  0.4184
   44MOL0     C 5959   1.230   4.134   4.417  0.8920  0.4309 -0.1450
   44MOL0     C 5960   1.154   4.244   4.430  0.0035  0.3360  0.3150
   44MOL0     C 5961   1.145   4.323   4.552  0.0208  0.0921  0.5365
   44MOL0     C 5962   1.062   4.443   4.548  0.1296  0.1933 -0.0493
   44MOL0     C 5963   1.221   4.282   4.666 -0.8259  0.4068 -0.4475
   44MOL0     C 5964   1.218   4.341   4.796  0.1043 -0.5480  0.9748
   44MOL0     O 5965   1.321   4.308   4.885 -1.0803  0.2807  0.5235
   44MOL0     C 5966   1.331   4.366   5.007  0.2538  0.7757 -0.1325
   44MOL0     C 5967   1.266   4.476   5.057  1.3031 -1.3160 -0.3733
   44MOL0     C 5968   1.303   4.522   5.190  0.6566 -0.3639  0.9974
   44MOL0     C 5969   1.397   4.460   5.264  0.1729 -1.0436 -0.6403
   44MOL0     O 5970   1.412   4.512   5.390 -0.4626 -0.3319  0.1670
   44MOL0     C 5971   1.533   4.477   5.464 -0.4516  0.5698  0.1679
   44MOL0     C 5972   1.610   4.601   5.507 -0.7436 -0.4391  0.2975
   44MOL0     C 5973   1.518   4.699   5.572  0.2252  0.5061 -0.2450
   44MOL0     C 5974   1.471   4.814   5.488  0.3445  0.7068  0.0275
   44MOL0     C 5975   1.404   4.933   5.569  0.2974  0.0371 -0.3740
   44MOL0     C 5976   1.364   5.037   5.460 -0.5815  0.6448 -0.1504
   44MOL0     C 5977   1.293   5.150   5.521 -0.0024 -0.1383 -0.8692
   44MOL0     C 5978   1.230   5.259   5.423 -0.2674  0.1471  1.0796
   44MOL0    Cl 5979   1.073   5.188   5.351  0.0933 -0.4786 -0.0287
   44MOL0     C 5980   1.449   4.345   5.214 -0.2492  1.0744 -0.4259
   44MOL0     C 5981   1.416   4.295   5.084  0.2862  0.7780 -0.6215
   44MOL0     O 5982   1.114   4.389   4.831  0.0102  0.6646  0.9527
   44MOL0     C 5983   1.313   4.174   4.648  0.2345  0.7223  0.4995
   44MOL0     C 5984   1.318   4.102   4.523 -0.5871 -0.0101  0.0743
   44MOL0     N 5985   1.501   3.695   4.087  0.3022 -0.1619 -0.8698
   44MOL0     N 5986   1.585   3.666   4.004 -0.5219 -0.7270  0.4478
   44MOL0     C 5987   1.458   3.831   2.825  0.2276  0.4171 -0.8243
   44MOL0     C 5988   1.387   3.855   2.709 -0.6906 -0.2442 -0.0519
   44MOL0     C 5989   1.137   3.764   2.317 -0.0291 -0.6516 -0.9601
   44MOL0     C 5990   1.028   3.677   2.281 -0.0487  0.0937  0.1576
   44MOL0     C 5991   0.911   3.708   2.213  0.4573 -0.6204 -0.4261
   44MOL0     C 5992   0.914   3.838   2.156 -0.2572  0.8325 -1.1185
   44MOL0     O 5993   0.799   3.888   2.098  0.5741  0.2417 -0.1242
   44MOL0     C 5994   0.772   3.849   1.968  0.4714 -0.0613 -0.0770
   44MOL0     C 5995   0.847   3.929   1.860 -0.5506  0.4603  0.0888
   44MOL0     C 5996   0.821   4.078   1.859 -0.7815 -0.3685  0.2168
   44MOL0     C 5997   0.914   4.142   1.754  0.4112 -0.9872 -0.1790
   44MOL0     C 5998   0.858   4.119   1.623  0.2693  0.3192  0.3563
   44MOL0     C 5999   0.813   4.086   1.513  0.0595  0.2440 -0.4433
   44MOL0     C 6000   1.006   3.937   2.196 -0.7420  0.4549  0.1812
   44MOL0     C 6001   1.115   3.902   2.275 -0.0605  0.0702 -0.3673
   44MOL0     C 6002   1.217   4.006   2.298  0.1807  0.4477  0.1543
   44MOL0     H 6003   1.377   3.532   2.588 -2.6224 -1.7004  2.2393
   44MOL0     H 6004   1.547   3.511   2.771  0.5949  0.7311  1.2966
   44MOL0     H 6005   1.631   3.840   3.066  1.7655 -0.5092  3.4098
   44MOL0     H 6006   1.744   3.789   2.923  2.5032  0.1070  0.8130
   44MOL0     H 6007   1.800   3.591   3.084  1.3778  0.2333  0.4554
   44MOL0     H 6008   1.867   3.756   3.093  1.2532 -2.1296 -0.0391
   44MOL0     H 6009   1.809   3.643   3.315  0.9117  2.5159  2.0238
   44MOL0     H 6010   1.731   3.799   3.292 -1.5046 -0.7657  2.3258
   44MOL0     H 6011   1.530   3.665   3.197 -1.0649 -0.7077 -2.0191
   44MOL0     H 6012   1.622   3.524   3.271 -0.5677  0.1403 -1.0384
   44MOL0     H 6013   1.443   3.610   3.408 -0.3555  0.3406 -0.9777
   44MOL0     H 6014   1.493   3.778   3.405 -2.9730 -0.3300 -0.4054
   44MOL0     H 6015   1.657   3.552   3.527 -1.4489 -0.5537  0.8230
   44MOL0     H 6016   1.691   3.726   3.536 -1.3338  0.5796 -2.0018
   44MOL0     H 6017   1.431   3.613   3.634 -0.1643  0.0281  0.2344
   44MOL0     H 6018   1.513   3.761   3.674 -1.2838 -0.6299 -0.8886
   44MOL0     H 6019   1.596   3.492   3.758 -4.0431  0.4134 -1.6596
   44MOL0     H 6020   1.706   3.622   3.768  0.1576 -1.2892  0.0765
   44MOL0     H 6021   1.314   3.625   3.831 -1.3837 -0.7302  1.3181
   44MOL0     H 6022   1.244   3.713   4.201 -2.0838 -0.5838  0.4580
   44MOL0     H 6023   1.165   3.656   4.055 -0.6866  0.6507  1.6927
   44MOL0     H 6024   1.180   3.887   3.960 -0.2087  0.1618  0.0349
   44MOL0     H 6025   1.103   3.883   4.131  0.7662 -0.6122  0.6659
   44MOL0     H 6026   1.383   3.964   4.043 -1.3027 -1.3080 -0.6465
   44MOL0     H 6027   1.250   4.079   4.075  1.5965  2.0843  2.9184
   44MOL0     H 6028   1.315   3.887   4.287  2.3868  0.6398 -0.9463
   44MOL0     H 6029   1.420   4.028   4.272  0.6500  0.7648  0.9004
   44MOL0     H 6030   1.098   4.262   4.339 -3.8538 -0.4525  2.2765
   44MOL0     H 6031   1.008   4.442   4.453  0.4326 -0.9618 -0.2308
   44MOL0     H 6032   1.124   4.532   4.560 -0.8414  0.7400  1.1400
   44MOL0     H 6033   0.986   4.442   4.627  1.0490  1.9867  0.9144
   44MOL0     H 6034   1.188   4.524   4.999  2.1873  2.0314  0.9753
   44MOL0     H 6035   1.259   4.610   5.234 -1.3001 -0.6021 -0.3699
   44MOL0     H 6036   1.503   4.422   5.554 -1.5363 -0.2108 -0.6484
   44MOL0     H 6037   1.599   4.408   5.410 -1.2218 -0.2959  0.3128
   44MOL0     H 6038   1.687   4.576   5.580  0.0826 -1.1231 -0.7742
   44MOL0     H 6039   1.646   4.654   5.418 -1.3599  2.8886  1.8662
   44MOL0     H 6040   1.564   4.739   5.663  1.0090 -2.8363  0.9640
   44MOL0     H 6041   1.421   4.660   5.605  2.1651 -2.9190  1.8929
   44MOL0     H 6042   1.401   4.768   5.418 -1.3453  0.7660  1.5952
   44MOL0     H 6043   1.551   4.853   5.424 -1.0966 -0.3094 -2.5740
   44MOL0     H 6044   1.315   4.904   5.625  0.7044  0.1035  0.3203
   44MOL0     H 6045   1.473   4.973   5.644 -0.1596 -2.9376  1.7821
   44MOL0     H 6046   1.318   4.977   5.381  2.3348 -0.2251 -1.2985
   44MOL0     H 6047   1.458   5.077   5.421 -0.8424 -1.0307 -2.7173
   44MOL0     H 6048   1.362   5.204   5.587  4.0121 -3.1916 -2.1353
   44MOL0     H 6049   1.211   5.114   5.584 -0.9631 -0.9133 -2.4771
   44MOL0     H 6050   1.296   5.281   5.339 -3.2502  2.6934 -0.8049
   44MOL0     H 6051   1.219   5.347   5.487  1.1874  1.9904 -1.0295
   44MOL0     H 6052   1.523   4.285   5.266 -2.2742 -2.2552 -1.0735
   44MOL0     H 6053   1.473   4.221   5.029  1.6551 -1.0000  2.8558
   44MOL0     H 6054   1.379   4.137   4.726  0.7760 -0.7739 -0.6313
   44MOL0     H 6055   1.389   4.021   4.515 -1.0460 -0.4858  0.6795
   44MOL0     H 6056   1.472   3.916   2.891 -3.3807 -0.2164  1.0273
   44MOL0     H 6057   1.364   3.958   2.684 -1.5423 -0.3646  0.1901
   44MOL0     H 6058   1.029   3.581   2.333  1.9230  1.4583  2.9420
   44MOL0     H 6059   0.829   3.638   2.207 -0.9955  1.0157 -0.7152
   44MOL0     H 6060   0.796   3.742   1.957  4.9487  0.9286 -2.3361
   44MOL0     H 6061   0.668   3.876   1.947  1.2702  2.6228 -0.9498
   44MOL0     H 6062   0.819   3.880   1.766 -3.1690 -1.8179  1.8639
   44MOL0     H 6063   0.950   3.897   1.878 -1.8294 -4.7358  0.0287
   44MOL0     H 6064   0.716   4.096   1.837 -0.1054  0.8358 -2.4649
   44MOL0     H 6065   0.854   4.127   1.952 -1.8691  0.9027 -0.0454
   44MOL0     H 6066   1.013   4.097   1.753  0.6781 -0.4276  0.4758
   44MOL0     H 6067   0.921   4.245   1.789 -1.4770 -1.7859  2.9611
   44MOL0     H 6068   0.768   4.060   1.419 -1.0503 -1.2943  0.4546
   44MOL0     H 6069   0.971   4.037   2.169 -1.3101  0.0971 -0.4236
   44MOL0     H 6070   1.312   3.966   2.262  1.1856  1.8778  1.0940
   44MOL0     H 6071   1.202   4.093   2.233  0.9918 -1.1092 -2.2341
   44MOL0     H 6072   1.230   4.039   2.401  0.0161 -3.9701  1.8032
   45MOL0     O 6073   6.487   1.579   3.399  0.2069 -0.2359  0.2091
   45MOL0     C 6074   6.434   1.467   3.418  1.0334  0.9054  0.4374
   45MOL0     O 6075   6.497   1.350   3.452  0.2229 -0.0108  0.0537
   45MOL0     C 6076   6.627   1.350   3.490 -0.6054 -0.6154  0.4440
   45MOL0     C 6077   6.676   1.425   3.606 -0.2213  0.1560  0.5175
   45MOL0     C 6078   6.813   1.439   3.620 -0.5391 -0.1113 -1.1312
   45MOL0     C 6079   6.908   1.386   3.528 -0.5284  1.3688  0.3572
   45MOL0     O 6080   7.046   1.401   3.530  0.0335  0.1016 -0.2092
   45MOL0     C 6081   7.076   1.540   3.573  0.2677 -0.4064 -0.0693
   45MOL0     C 6082   7.225   1.563   3.560 -0.8230 -0.0354 -0.4069
   45MOL0     C 6083   7.274   1.696   3.622  0.3855 -0.0859  0.3695
   45MOL0     C 6084   7.327   1.796   3.521 -0.2979 -0.0172  1.5916
   45MOL0     C 6085   7.478   1.787   3.489 -0.6935 -0.8046 -0.5380
   45MOL0     C 6086   7.565   1.890   3.579  0.1068  0.2320  0.2377
   45MOL0     C 6087   7.709   1.888   3.546 -0.7492 -0.0156  0.0624
   45MOL0     C 6088   7.774   1.771   3.636 -0.1058  0.0633  0.1965
   45MOL0     N 6089   7.714   1.636   3.643 -1.0291  0.0026 -0.4418
   45MOL0     C 6090   7.732   1.533   3.553  0.4199  1.0572  0.1595
   45MOL0     C 6091   7.672   1.425   3.616  0.2583 -0.6284  0.6723
   45MOL0     C 6092   7.651   1.286   3.558  0.4019 -0.2082 -0.1396
   45MOL0     C 6093   7.509   1.273   3.493 -0.2817 -0.2239  0.1461
   45MOL0     C 6094   7.460   1.136   3.503  0.8654  0.3433 -0.5508
   45MOL0     C 6095   7.305   1.124   3.486 -0.8387 -0.9512 -0.3143
   45MOL0     O 6096   7.250   0.998   3.479 -0.1400 -0.4631 -0.3108
   45MOL0     C 6097   7.151   0.959   3.389 -0.1784  0.1914  0.8359
   45MOL0     C 6098   7.127   0.822   3.364 -0.5878  0.6535  0.3032
   45MOL0     C 6099   7.034   0.773   3.275  0.6435 -0.2998  0.8032
   45MOL0     C 6100   7.020   0.622   3.264 -0.0257  0.4972  0.4337
   45MOL0     C 6101   6.952   0.859   3.198  0.3284  0.0637  0.7414
   45MOL0     C 6102   6.851   0.818   3.088  0.5138 -0.4383 -0.3075
   45MOL0     O 6103   6.845   0.905   2.992  0.3397  0.0001  0.3967
   45MOL0     C 6104   6.753   0.903   2.894  0.0931 -0.2491  0.5376
   45MOL0     C 6105   6.612   0.903   2.918  0.8734 -0.5583  0.1102
   45MOL0     C 6106   6.522   0.885   2.806  0.0784  0.0166 -1.0211
   45MOL0     C 6107   6.573   0.857   2.684 -0.7531 -0.4422 -0.6229
   45MOL0     O 6108   6.479   0.835   2.595 -0.3020  0.5093  0.0657
   45MOL0     C 6109   6.481   0.939   2.487  0.0277  0.5594  0.1599
   45MOL0     C 6110   6.389   1.047   2.536  0.4850 -0.4422 -0.2708
   45MOL0     C 6111   6.247   0.984   2.532 -0.6337  0.4338 -0.3362
   45MOL0     C 6112   6.143   1.087   2.592 -0.0217 -0.4139 -0.3879
   45MOL0     C 6113   6.006   1.034   2.558 -0.0895  0.3612  0.3057
   45MOL0     C 6114   5.902   1.131   2.611 -0.3055  0.0280  0.9503
   45MOL0     C 6115   5.761   1.065   2.620  0.8728  0.4882  0.6062
   45MOL0     C 6116   5.747   0.942   2.703  0.8312 -1.0656 -0.4353
   45MOL0    Cl 6117   5.799   0.988   2.873 -0.1733  0.0662 -0.1656
   45MOL0     C 6118   6.708   0.865   2.657  0.5542  0.7477 -0.0173
   45MOL0     C 6119   6.801   0.887   2.758 -0.0150  0.2670  0.0911
   45MOL0     O 6120   6.770   0.725   3.100  0.7007  0.8740 -0.2333
   45MOL0     C 6121   6.985   1.003   3.210 -0.6255  0.3258  0.7275
   45MOL0     C 6122   7.079   1.052   3.311  0.2925  1.1781 -0.6002
   45MOL0     N 6123   7.613   1.473   3.739 -0.4800  0.1866  0.1825
   45MOL0     N 6124   7.654   1.586   3.746 -0.0599 -0.6748  0.0499
   45MOL0     C 6125   6.854   1.310   3.416  0.7290  0.2456 -0.7377
   45MOL0     C 6126   6.717   1.297   3.398 -0.6716 -0.1158 -0.0412
   45MOL0     C 6127   6.286   1.466   3.436 -0.1206  0.5764  0.6370
   45MOL0     C 6128   6.224   1.360   3.507 -1.1145  0.4301 -0.4008
   45MOL0     C 6129   6.091   1.364   3.541 -0.3949  0.3996 -0.2745
   45MOL0     C 6130   6.010   1.474   3.498 -0.0904  1.0337  0.3467
   45MOL0     O 6131   5.876   1.501   3.507  0.2902 -0.7161  0.0714
   45MOL0     C 6132   5.811   1.434   3.613  0.6843 -0.2263 -0.4778
   45MOL0     C 6133   5.773   1.301   3.556  0.7604  0.8174 -0.4999
   45MOL0     C 6134   5.721   1.200   3.666  0.9724  0.2515  1.2730
   45MOL0     C 6135   5.668   1.074   3.588 -0.0414 -0.3213 -0.8857
   45MOL0     C 6136   5.754   1.028   3.477  0.3205 -0.7930 -0.6449
   45MOL0     C 6137   5.834   0.997   3.386  0.0891 -0.0886  0.2886
   45MOL0     C 6138   6.068   1.564   3.407 -0.3810  0.3702 -0.1175
   45MOL0     C 6139   6.201   1.561   3.373  0.4067 -0.6756 -0.2509
   45MOL0     C 6140   6.246   1.651   3.269  0.1169  0.2873 -0.4267
   45MOL0     H 6141   6.610   1.473   3.677 -1.4577  0.1796 -0.6036
   45MOL0     H 6142   6.839   1.498   3.708 -0.1422 -1.7026 -0.1342
   45MOL0     H 6143   7.049   1.555   3.678 -1.0707 -2.4695 -0.0719
   45MOL0     H 6144   7.025   1.598   3.495  0.5553  0.8851  0.6757
   45MOL0     H 6145   7.263   1.489   3.631 -0.4529 -0.0312 -0.6012
   45MOL0     H 6146   7.279   1.540   3.468 -0.9945 -1.1158 -0.2536
   45MOL0     H 6147   7.195   1.746   3.679  0.3853  0.1929  0.1315
   45MOL0     H 6148   7.360   1.683   3.688 -2.1545 -1.2440  3.7446
   45MOL0     H 6149   7.265   1.781   3.432 -1.2526 -1.5445  2.4697
   45MOL0     H 6150   7.292   1.894   3.553 -0.1193  0.4046  0.5140
   45MOL0     H 6151   7.487   1.809   3.382  0.0802  0.5286 -0.2141
   45MOL0     H 6152   7.518   1.686   3.501 -1.1268 -0.8662  0.4984
   45MOL0     H 6153   7.522   1.989   3.565  0.3705  0.1353 -1.5501
   45MOL0     H 6154   7.551   1.876   3.687 -0.6152  1.3496  0.3009
   45MOL0     H 6155   7.762   1.982   3.561 -0.1911 -0.6386  2.4251
   45MOL0     H 6156   7.731   1.863   3.441  0.9292  0.1024  0.3541
   45MOL0     H 6157   7.876   1.777   3.595  0.3124  1.1083  1.3125
   45MOL0     H 6158   7.784   1.809   3.738  1.2662  2.8982 -0.8794
   45MOL0     H 6159   7.764   1.534   3.449 -2.1688 -0.0985 -0.7200
   45MOL0     H 6160   7.648   1.236   3.655  0.3272  2.2695  1.2113
   45MOL0     H 6161   7.729   1.238   3.498 -1.1245 -1.9128 -0.8709
   45MOL0     H 6162   7.444   1.327   3.562  0.1404  0.0275  0.3537
   45MOL0     H 6163   7.509   1.303   3.388  1.7302 -0.1705  0.1107
   45MOL0     H 6164   7.503   1.073   3.425 -4.1233 -3.0813 -1.0226
   45MOL0     H 6165   7.488   1.092   3.599  0.0566  0.3575 -0.3006
   45MOL0     H 6166   7.259   1.186   3.564  0.7900  0.1072 -0.1361
   45MOL0     H 6167   7.286   1.186   3.398 -2.1622 -0.3280  0.3756
   45MOL0     H 6168   7.194   0.756   3.418 -0.9050 -0.8855 -1.1064
   45MOL0     H 6169   6.941   0.584   3.198 -0.1525 -1.5426  1.6545
   45MOL0     H 6170   6.977   0.590   3.359 -0.3148 -0.2233  0.0697
   45MOL0     H 6171   7.118   0.576   3.249  0.2093  0.7984  1.0078
   45MOL0     H 6172   6.568   0.926   3.014 -0.1148 -2.5247  0.1833
   45MOL0     H 6173   6.416   0.894   2.824 -0.8198 -3.5884 -3.4066
   45MOL0     H 6174   6.580   0.975   2.455 -0.3447  2.5769  1.0920
   45MOL0     H 6175   6.433   0.892   2.401  0.2273 -0.2025  0.4583
   45MOL0     H 6176   6.410   1.082   2.638 -0.5825  3.7052 -1.3060
   45MOL0     H 6177   6.381   1.132   2.468 -4.0846 -0.7549 -0.4106
   45MOL0     H 6178   6.245   0.890   2.588  0.5135  0.5453 -0.0614
   45MOL0     H 6179   6.227   0.957   2.428 -1.1574  0.0988 -0.1533
   45MOL0     H 6180   6.159   1.179   2.536 -3.3951  1.1693  0.9835
   45MOL0     H 6181   6.161   1.110   2.697 -1.1341  1.9272 -0.6548
   45MOL0     H 6182   5.994   1.030   2.449  0.1545  1.3769  0.2300
   45MOL0     H 6183   6.006   0.931   2.595  0.3979  0.4201  0.4778
   45MOL0     H 6184   5.900   1.230   2.566 -2.5700 -0.2750  0.2856
   45MOL0     H 6185   5.926   1.143   2.717  4.6769  1.0705 -0.0341
   45MOL0     H 6186   5.731   1.043   2.517 -1.8643 -0.1872  1.4853
   45MOL0     H 6187   5.697   1.142   2.662 -1.3723 -1.0365  0.1642
   45MOL0     H 6188   5.797   0.857   2.655  0.9850 -1.2309  0.0163
   45MOL0     H 6189   5.641   0.915   2.714  0.5101  0.6565  1.1745
   45MOL0     H 6190   6.739   0.845   2.555  0.0659  2.0895 -0.4442
   45MOL0     H 6191   6.904   0.882   2.722 -0.9095 -1.9428 -2.5237
   45MOL0     H 6192   6.944   1.075   3.140 -1.6191 -1.2507 -0.3728
   45MOL0     H 6193   7.109   1.156   3.316 -0.9884  1.5348 -0.1728
   45MOL0     H 6194   6.918   1.255   3.348  2.3488  0.7292  0.3060
   45MOL0     H 6195   6.663   1.248   3.319 -0.7786  0.8789 -0.5987
   45MOL0     H 6196   6.284   1.288   3.562 -2.6081 -0.5727 -0.0493
   45MOL0     H 6197   6.047   1.301   3.618  0.3701  0.7835  0.4952
   45MOL0     H 6198   5.868   1.423   3.706 -1.4028  0.2754  0.9098
   45MOL0     H 6199   5.721   1.485   3.647 -0.3619 -2.8157  0.9800
   45MOL0     H 6200   5.863   1.258   3.511  1.5801  1.4508  0.4896
   45MOL0     H 6201   5.704   1.305   3.471 -2.0813 -0.3842  1.5825
   45MOL0     H 6202   5.802   1.161   3.729  0.8476 -1.4170  0.4496
   45MOL0     H 6203   5.643   1.248   3.726 -2.0368 -0.6887 -1.5943
   45MOL0     H 6204   5.571   1.105   3.547 -0.9559  2.0915  2.5765
   45MOL0     H 6205   5.656   0.990   3.656 -2.8982 -1.6895 -2.9052
   45MOL0     H 6206   5.915   0.977   3.319 -0.0467 -0.7595  0.3181
   45MOL0     H 6207   6.005   1.647   3.373 -1.1344 -1.2520 -3.0303
   45MOL0     H 6208   6.300   1.589   3.197 -1.7114 -3.1825  0.9545
   45MOL0     H 6209   6.159   1.687   3.213 -1.6502  0.7718  2.4052
   45MOL0     H 6210   6.301   1.738   3.306 -0.9258  1.0844 -0.6997
   46MOL0     O 6211   5.459  10.594   4.293 -0.3049  0.5744  0.7817
   46MOL0     C 6212   5.348  10.536   4.280  1.6007  0.1873 -0.6653
   46MOL0     O 6213   5.258  10.512   4.391 -0.2296 -0.0220 -0.1536
   46MOL0     C 6214   5.286  10.549   4.522 -0.3592 -0.2294  0.6071
   46MOL0     C 6215   5.213  10.480   4.620 -0.0646  0.3921 -0.3544
   46MOL0     C 6216   5.222  10.520   4.757 -0.1087  0.1589 -0.3005
   46MOL0     C 6217   5.304  10.634   4.793 -0.3703  0.5539 -0.6828
   46MOL0     O 6218   5.315  10.685   4.919 -0.2052 -0.5154 -0.5555
   46MOL0     C 6219   5.366  10.610   5.031 -0.4792  0.2169  0.4424
   46MOL0     C 6220   5.306  10.668   5.159 -0.7007 -0.4343 -0.6986
   46MOL0     C 6221   5.160  10.684   5.176  0.0408  0.2957 -0.0902
   46MOL0     C 6222   5.104  10.757   5.298 -1.5984  0.4329  0.0617
   46MOL0     C 6223   4.962  10.729   5.329 -1.4895  0.2142 -0.2724
   46MOL0     C 6224   4.921  10.842   5.438  0.2906  0.8043  0.2791
   46MOL0     C 6225   4.788  10.825   5.505 -0.3378  0.8146  0.4529
   46MOL0     C 6226   4.786  10.698   5.605  0.5340  0.2040  0.2064
   46MOL0     N 6227   4.869  10.718   5.730  0.6415  0.2868  0.7919
   46MOL0     C 6228   4.975  10.642   5.754  0.1302  0.4832 -0.4216
   46MOL0     C 6229   5.024  10.683   5.876  0.0041  0.4929  0.7274
   46MOL0     C 6230   5.137  10.631   5.966  0.3048 -0.0240  1.0371
   46MOL0     C 6231   5.147  10.477   5.929 -0.3596 -0.3036 -0.8406
   46MOL0     C 6232   5.266  10.451   5.832  0.5331 -0.1662  0.0697
   46MOL0     C 6233   5.253  10.314   5.762 -0.2743 -0.4029  0.2688
   46MOL0     O 6234   5.188  10.207   5.824  0.2122  0.5867  0.2864
   46MOL0     C 6235   5.135  10.103   5.747 -0.3964 -0.0695 -0.1458
   46MOL0     C 6236   5.027  10.024   5.797  0.0978  0.0440  0.7325
   46MOL0     C 6237   4.968   9.921   5.724  0.1698 -1.6543 -0.0979
   46MOL0     C 6238   4.851   9.849   5.779  0.1910  0.2508 -0.6626
   46MOL0     C 6239   5.027   9.880   5.605 -1.1585 -0.2941  0.0965
   46MOL0     C 6240   4.988   9.764   5.520 -0.6759 -0.6641  0.5511
   46MOL0     O 6241   5.066   9.747   5.416 -0.5292  0.3603 -0.5827
   46MOL0     C 6242   5.065   9.628   5.353  0.8465  0.3306 -0.1830
   46MOL0     C 6243   5.060   9.638   5.215  0.2320 -0.2110  0.7127
   46MOL0     C 6244   5.071   9.524   5.136  0.1052 -0.2758  0.1060
   46MOL0     C 6245   5.073   9.395   5.187  0.9322 -0.8310 -0.0612
   46MOL0     O 6246   5.068   9.281   5.112 -0.0290  0.2066  0.7320
   46MOL0     C 6247   5.107   9.290   4.971 -0.6211  0.7989  0.1693
   46MOL0     C 6248   5.114   9.150   4.907 -0.3072 -0.3522 -0.3359
   46MOL0     C 6249   5.204   9.147   4.781  0.4882 -0.5091  0.5447
   46MOL0     C 6250   5.223   9.006   4.724 -0.1192 -0.8724 -1.1697
   46MOL0     C 6251   5.356   8.985   4.635 -0.1855 -0.7539  0.3264
   46MOL0     C 6252   5.337   9.047   4.496  0.2549  0.3532  0.4043
   46MOL0     C 6253   5.227   8.993   4.402 -0.2749  0.8016 -0.1890
   46MOL0     C 6254   5.189   9.096   4.291 -0.4751  0.1360 -0.9390
   46MOL0    Cl 6255   5.135   9.242   4.386  0.4224  0.3485  0.0383
   46MOL0     C 6256   5.072   9.386   5.329  0.1042 -0.5305 -0.0413
   46MOL0     C 6257   5.061   9.498   5.409 -0.0599 -0.6358  0.4386
   46MOL0     O 6258   4.874   9.714   5.531 -0.6945 -0.0896  0.1483
   46MOL0     C 6259   5.140   9.952   5.561  0.8373  0.5916 -0.9435
   46MOL0     C 6260   5.196  10.051   5.635  0.5852 -0.0123  0.3948
   46MOL0     N 6261   4.939  10.782   5.922  0.0810 -0.2920  0.1992
   46MOL0     N 6262   4.848  10.798   5.832  0.5332  0.5543 -0.3582
   46MOL0     C 6263   5.376  10.703   4.696  0.2531 -0.2112  0.9374
   46MOL0     C 6264   5.370  10.657   4.561  1.0246 -0.1251 -0.4068
   46MOL0     C 6265   5.284  10.496   4.149  0.2638  0.5295  0.1713
   46MOL0     C 6266   5.148  10.509   4.129  0.1511  0.8852  0.3811
   46MOL0     C 6267   5.087  10.465   4.013  0.0581 -0.2139  1.0689
   46MOL0     C 6268   5.162  10.433   3.899  1.2154  0.6112 -0.6409
   46MOL0     O 6269   5.105  10.396   3.778  0.6137  0.2512 -0.0062
   46MOL0     C 6270   4.974  10.447   3.741  0.0773  0.7204  0.0235
   46MOL0     C 6271   4.943  10.376   3.609  0.9199 -0.3065  0.2909
   46MOL0     C 6272   4.812  10.421   3.541  0.0809 -0.8586 -0.8375
   46MOL0     C 6273   4.819  10.562   3.493 -0.4035 -0.4219  0.6551
   46MOL0     C 6274   4.692  10.589   3.422  0.0552 -0.4289 -0.1197
   46MOL0     C 6275   4.588  10.624   3.380  0.2582  0.3815 -0.6684
   46MOL0     C 6276   5.301  10.421   3.912  0.4872 -0.3092  0.1176
   46MOL0     C 6277   5.361  10.455   4.032  0.1775  0.6345  0.9683
   46MOL0     C 6278   5.515  10.456   4.032  0.0738 -0.6634 -0.2006
   46MOL0     H 6279   5.133  10.408   4.603  0.1380 -0.4669  1.9566
   46MOL0     H 6280   5.162  10.465   4.828 -0.8008  1.6382  0.3167
   46MOL0     H 6281   5.475  10.614   5.024 -0.5534  0.3624 -1.1082
   46MOL0     H 6282   5.344  10.504   5.012 -2.9457  1.1324 -2.8746
   46MOL0     H 6283   5.330  10.599   5.240  0.4932  1.0864  0.2779
   46MOL0     H 6284   5.348  10.765   5.186 -3.5293  0.2464  1.7753
   46MOL0     H 6285   5.112  10.729   5.089 -4.5535 -1.1691  1.3838
   46MOL0     H 6286   5.133  10.578   5.177  4.7227 -1.1448  1.8466
   46MOL0     H 6287   5.172  10.741   5.382  0.7290  4.1828 -0.8691
   46MOL0     H 6288   5.120  10.864   5.287 -1.3408  0.5336  1.2586
   46MOL0     H 6289   4.943  10.635   5.381 -0.8786  1.6052  2.6787
   46MOL0     H 6290   4.899  10.735   5.240  0.8006 -4.5232 -2.5524
   46MOL0     H 6291   4.993  10.841   5.520  0.5644 -0.2595  0.0404
   46MOL0     H 6292   4.922  10.944   5.401  0.3559  0.0899 -1.8156
   46MOL0     H 6293   4.698  10.819   5.442  0.2109 -0.7517 -0.2288
   46MOL0     H 6294   4.764  10.914   5.564  1.8542  1.3195  0.6713
   46MOL0     H 6295   4.683  10.681   5.637  0.2083  0.7304 -0.5399
   46MOL0     H 6296   4.808  10.606   5.549 -2.1491 -0.2235 -0.2598
   46MOL0     H 6297   5.016  10.553   5.708  1.2160 -0.4355  2.1574
   46MOL0     H 6298   5.115  10.647   6.072  2.5021 -1.7061  1.8338
   46MOL0     H 6299   5.233  10.681   5.950  1.3728 -1.6924  1.9242
   46MOL0     H 6300   5.172  10.418   6.018  1.9237  0.8121 -0.6616
   46MOL0     H 6301   5.055  10.441   5.884  0.1402 -0.8731 -1.4325
   46MOL0     H 6302   5.278  10.536   5.764  0.3433  0.3546  0.6658
   46MOL0     H 6303   5.352  10.445   5.899  0.7068 -0.5226 -0.1857
   46MOL0     H 6304   5.201  10.329   5.667  0.9590  2.6269 -0.0365
   46MOL0     H 6305   5.351  10.288   5.722  0.0255  3.1059 -1.6365
   46MOL0     H 6306   4.980  10.060   5.888  1.0077 -0.5280  1.4418
   46MOL0     H 6307   4.813   9.885   5.875  0.9374 -1.4125  0.3044
   46MOL0     H 6308   4.848   9.740   5.784 -3.3209  0.2525 -0.4199
   46MOL0     H 6309   4.774   9.879   5.708 -0.1466 -0.3183 -0.5393
   46MOL0     H 6310   5.054   9.732   5.161 -3.5414 -2.3191 -3.1867
   46MOL0     H 6311   5.066   9.541   5.029 -2.3743  2.1019  0.4810
   46MOL0     H 6312   5.040   9.351   4.910 -1.7954 -2.8760 -2.6285
   46MOL0     H 6313   5.209   9.327   4.961 -0.4565  0.0578 -1.1636
   46MOL0     H 6314   5.157   9.085   4.984  2.3115 -4.5242 -4.8085
   46MOL0     H 6315   5.012   9.117   4.885 -0.3756 -0.4788  0.1495
   46MOL0     H 6316   5.304   9.181   4.810  0.4021 -2.1620  3.1200
   46MOL0     H 6317   5.169   9.204   4.694  0.6432 -5.1003 -2.9449
   46MOL0     H 6318   5.138   8.986   4.658 -0.7383  4.8869 -2.6670
   46MOL0     H 6319   5.224   8.940   4.811  1.6922  2.8737  1.9938
   46MOL0     H 6320   5.437   9.028   4.694 -0.6942  2.7136 -1.2901
   46MOL0     H 6321   5.369   8.878   4.615 -2.0574 -0.6774 -1.6580
   46MOL0     H 6322   5.427   9.031   4.436 -0.2903 -1.5626  0.0132
   46MOL0     H 6323   5.313   9.152   4.514 -0.9220  0.2199 -0.2810
   46MOL0     H 6324   5.137   8.971   4.460  0.0752  0.1376  0.1182
   46MOL0     H 6325   5.269   8.900   4.362 -0.2007  0.7696 -0.0378
   46MOL0     H 6326   5.118   9.072   4.211  2.7487  1.3883 -4.5379
   46MOL0     H 6327   5.271   9.125   4.225 -0.7759  0.9616 -0.9650
   46MOL0     H 6328   5.067   9.286   5.371 -0.2162 -0.5810 -0.2000
   46MOL0     H 6329   5.030   9.482   5.513  0.6649 -0.3118  0.7073
   46MOL0     H 6330   5.191   9.918   5.472 -0.3563 -0.7222 -1.1555
   46MOL0     H 6331   5.284  10.094   5.588  1.5044  0.2775  2.2689
   46MOL0     H 6332   5.442  10.787   4.712 -0.1001 -0.1445  2.1844
   46MOL0     H 6333   5.429  10.713   4.490  1.5526  0.1907  0.2682
   46MOL0     H 6334   5.078  10.542   4.205  0.4804  1.2976  0.5108
   46MOL0     H 6335   4.981  10.483   3.995 -0.2858 -3.8187 -1.7152
   46MOL0     H 6336   4.908  10.409   3.819  1.8416 -0.9568  0.7735
   46MOL0     H 6337   4.970  10.555   3.726  0.1824  0.7041 -0.1225
   46MOL0     H 6338   4.936  10.271   3.639  2.6728 -0.3098  0.8149
   46MOL0     H 6339   5.033  10.388   3.549  2.5421 -1.8313  2.2684
   46MOL0     H 6340   4.794  10.345   3.465 -3.2966 -1.7237  0.6231
   46MOL0     H 6341   4.725  10.417   3.607 -0.8201 -2.5870 -2.0680
   46MOL0     H 6342   4.889  10.583   3.412 -3.9060  0.7166 -2.3638
   46MOL0     H 6343   4.827  10.623   3.584 -3.9744  3.8455 -1.4809
   46MOL0     H 6344   4.495  10.669   3.352  0.9884  0.6258 -2.9063
   46MOL0     H 6345   5.357  10.375   3.831 -0.5010 -4.4811  1.5497
   46MOL0     H 6346   5.558  10.401   4.116  1.8514  0.8278 -0.0611
   46MOL0     H 6347   5.564  10.419   3.942  2.7016 -2.0472  1.6628
   46MOL0     H 6348   5.547  10.557   4.062 -3.1747 -0.4849  3.4999
   47MOL0     O 6349   8.256   8.577   4.929  0.1755  0.1079  0.9093
   47MOL0     C 6350   8.333   8.605   5.026 -0.4558  0.5476  0.2286
   47MOL0     O 6351   8.452   8.544   5.038 -0.4709 -0.0447  0.0384
   47MOL0     C 6352   8.476   8.434   4.960  0.1740  0.7630  0.3423
   47MOL0     C 6353   8.426   8.308   4.994  1.3363 -0.2180 -0.0326
   47MOL0     C 6354   8.452   8.198   4.914 -0.6360  0.1578  0.5234
   47MOL0     C 6355   8.532   8.209   4.795 -0.1164  0.1459 -0.1493
   47MOL0     O 6356   8.552   8.095   4.713  0.4416 -0.1413 -0.1472
   47MOL0     C 6357   8.607   8.123   4.586  0.9589 -0.5904 -0.2062
   47MOL0     C 6358   8.564   8.008   4.497 -0.0641 -0.6599 -0.8453
   47MOL0     C 6359   8.414   8.016   4.451  1.0272 -0.1834  0.0486
   47MOL0     C 6360   8.380   8.135   4.359 -0.4531 -0.3108 -0.4865
   47MOL0     C 6361   8.367   8.109   4.199  0.1725  0.3172  0.5442
   47MOL0     C 6362   8.508   8.100   4.139 -0.6376  0.1080 -1.0438
   47MOL0     C 6363   8.510   8.083   3.985 -0.5108  0.7025  0.2265
   47MOL0     C 6364   8.635   8.125   3.909  0.1282 -0.4589  0.2680
   47MOL0     N 6365   8.759   8.150   3.978 -0.0661 -0.6901  0.5490
   47MOL0     C 6366   8.822   8.076   4.081  1.1777 -0.1018 -0.2870
   47MOL0     C 6367   8.912   8.152   4.140  0.3095  0.0080 -0.8507
   47MOL0     C 6368   9.008   8.125   4.251  0.8649 -0.4351 -0.2603
   47MOL0     C 6369   8.953   8.068   4.385  0.1769  0.3667  0.4290
   47MOL0     C 6370   8.902   7.922   4.374  0.3569  0.7399  0.1353
   47MOL0     C 6371   8.897   7.852   4.503 -0.4245 -0.6077 -0.1489
   47MOL0     O 6372   8.847   7.722   4.478  0.2225  0.6303 -0.0642
   47MOL0     C 6373   8.910   7.604   4.513 -0.1445 -1.0791  0.8982
   47MOL0     C 6374   8.857   7.483   4.468  0.3678  0.8194 -0.2112
   47MOL0     C 6375   8.926   7.363   4.486  0.0100  0.6513 -0.1240
   47MOL0     C 6376   8.861   7.241   4.429  0.6098  0.3290  0.7899
   47MOL0     C 6377   9.047   7.362   4.552  0.3384 -0.0778  0.1491
   47MOL0     C 6378   9.116   7.231   4.582 -0.2990 -0.5843  0.0530
   47MOL0     O 6379   9.111   7.129   4.490 -0.2105  0.4898 -0.4791
   47MOL0     C 6380   9.088   6.996   4.534  0.3623  0.8055 -0.1516
   47MOL0     C 6381   8.997   6.962   4.637  0.4226  1.3894  0.5056
   47MOL0     C 6382   8.979   6.829   4.664  0.7050  0.7943 -0.4991
   47MOL0     C 6383   9.031   6.722   4.583 -0.4132 -0.6206 -0.7667
   47MOL0     O 6384   9.003   6.591   4.609  0.2863 -0.1485  0.5251
   47MOL0     C 6385   8.875   6.548   4.560  0.3953 -0.5555  0.0200
   47MOL0     C 6386   8.891   6.410   4.496 -0.2259 -0.5881 -0.4169
   47MOL0     C 6387   9.006   6.399   4.395  0.4947 -0.0324 -0.1276
   47MOL0     C 6388   9.051   6.263   4.358  0.6131 -0.6572 -0.5979
   47MOL0     C 6389   8.932   6.162   4.356 -0.7222  0.7927 -0.2901
   47MOL0     C 6390   8.987   6.023   4.318 -0.1808  1.6275 -0.4631
   47MOL0     C 6391   8.870   5.928   4.318 -0.0596  0.1896 -0.0566
   47MOL0     C 6392   8.933   5.785   4.302  0.0256 -0.7454 -0.0066
   47MOL0    Cl 6393   8.777   5.694   4.332 -0.1510 -0.5068  0.1297
   47MOL0     C 6394   9.110   6.766   4.478  0.3644  0.8288  0.2089
   47MOL0     C 6395   9.149   6.896   4.451  0.7237  0.1560 -0.7909
   47MOL0     O 6396   9.162   7.221   4.696  0.0033 -0.3083  0.0232
   47MOL0     C 6397   9.098   7.481   4.606  1.0494 -0.0202 -0.0053
   47MOL0     C 6398   9.025   7.595   4.595  0.8181  0.0157  0.3261
   47MOL0     N 6399   8.900   8.278   4.085  0.5474 -0.5005  0.5386
   47MOL0     N 6400   8.809   8.279   3.991  0.3882 -0.2417 -0.6280
   47MOL0     C 6401   8.586   8.339   4.770 -0.3213 -0.7933 -0.1870
   47MOL0     C 6402   8.559   8.449   4.849 -0.2071  0.4802 -0.0451
   47MOL0     C 6403   8.308   8.709   5.135 -0.4067  0.1962 -0.5251
   47MOL0     C 6404   8.390   8.701   5.251  0.6781  0.6786  0.4977
   47MOL0     C 6405   8.374   8.803   5.347  1.5256  0.3991 -0.2359
   47MOL0     C 6406   8.280   8.909   5.329 -0.5649  0.9572 -0.7018
   47MOL0     O 6407   8.281   9.008   5.429  0.3414 -0.0735  0.5504
   47MOL0     C 6408   8.154   9.058   5.471 -0.2420  0.0771  0.9744
   47MOL0     C 6409   8.158   9.114   5.616 -0.1400  0.4120 -0.1771
   47MOL0     C 6410   8.166   8.992   5.712 -0.5356 -0.0271  0.1949
   47MOL0     C 6411   8.182   9.021   5.862  0.0833 -1.0727  0.7818
   47MOL0     C 6412   8.209   8.906   5.935  0.1295 -0.3040  0.0454
   47MOL0     C 6413   8.233   8.813   6.009  0.7044 -0.9874 -0.3014
   47MOL0     C 6414   8.197   8.897   5.215 -0.1843  0.4572 -0.5871
   47MOL0     C 6415   8.202   8.798   5.126  0.2857 -0.6415  0.1843
   47MOL0     C 6416   8.100   8.795   5.014  0.3326 -0.1901  0.2261
   47MOL0     H 6417   8.366   8.302   5.084  1.2487 -0.3981 -0.1013
   47MOL0     H 6418   8.388   8.112   4.927 -3.4171  2.0689  0.3675
   47MOL0     H 6419   8.716   8.118   4.588  1.0089  0.4204 -0.1087
   47MOL0     H 6420   8.567   8.220   4.555 -0.0831 -1.2179 -0.8752
   47MOL0     H 6421   8.627   7.993   4.409 -1.2927 -0.2741 -1.8161
   47MOL0     H 6422   8.587   7.925   4.565  0.6281  0.2695  0.0905
   47MOL0     H 6423   8.403   7.919   4.403  1.0881  0.5325 -1.4988
   47MOL0     H 6424   8.339   8.017   4.530 -0.5070 -1.1261 -1.3219
   47MOL0     H 6425   8.280   8.171   4.385 -0.1566 -0.5371  1.0581
   47MOL0     H 6426   8.443   8.224   4.370  0.4819 -0.2774 -4.5414
   47MOL0     H 6427   8.314   8.192   4.153  0.7405  1.1699  1.3905
   47MOL0     H 6428   8.308   8.017   4.187  1.9784 -1.0085  1.2908
   47MOL0     H 6429   8.561   8.184   4.185 -3.0255 -0.0336  2.3892
   47MOL0     H 6430   8.547   8.009   4.186 -3.6176 -0.7967 -0.0757
   47MOL0     H 6431   8.426   8.133   3.937  1.9459  0.0077 -5.6411
   47MOL0     H 6432   8.495   7.976   3.970 -3.9208  1.2321 -0.7597
   47MOL0     H 6433   8.661   8.038   3.848 -2.6260  0.4855 -2.4845
   47MOL0     H 6434   8.615   8.210   3.844 -1.1872  1.5176  3.0649
   47MOL0     H 6435   8.798   7.975   4.112  1.4288  0.1053  0.6102
   47MOL0     H 6436   9.073   8.210   4.276 -0.9526  0.5793  1.2675
   47MOL0     H 6437   9.071   8.049   4.205  0.5449  0.5253 -2.3859
   47MOL0     H 6438   9.029   8.065   4.464  0.8824  0.5135 -0.2319
   47MOL0     H 6439   8.865   8.123   4.417 -2.1437 -0.4165 -3.8996
   47MOL0     H 6440   8.806   7.920   4.322  1.7711 -2.1029 -2.7487
   47MOL0     H 6441   8.974   7.862   4.317  0.3107 -1.0466  1.8510
   47MOL0     H 6442   8.987   7.850   4.566  0.4596 -2.0602 -1.3943
   47MOL0     H 6443   8.824   7.894   4.572 -1.7012 -0.9340 -1.2736
   47MOL0     H 6444   8.765   7.477   4.412 -0.4353  0.0829  1.1308
   47MOL0     H 6445   8.762   7.264   4.389  0.4154  2.2724  2.2505
   47MOL0     H 6446   8.848   7.168   4.510 -2.0635  0.9644  1.0008
   47MOL0     H 6447   8.924   7.190   4.355 -0.6263 -0.5398  0.2982
   47MOL0     H 6448   8.936   7.022   4.704 -2.1796  1.0478 -1.3882
   47MOL0     H 6449   8.911   6.784   4.737  3.2309 -0.8954  0.9575
   47MOL0     H 6450   8.797   6.542   4.637 -0.7409  1.5459 -0.9003
   47MOL0     H 6451   8.833   6.609   4.480 -0.3354 -0.8759  0.1459
   47MOL0     H 6452   8.905   6.342   4.581  3.0120  0.2196 -0.1959
   47MOL0     H 6453   8.802   6.382   4.438  2.6151 -1.9817 -4.5810
   47MOL0     H 6454   9.090   6.462   4.426  0.5434  0.2339 -0.7748
   47MOL0     H 6455   8.975   6.438   4.297  0.7840  0.3905 -0.0551
   47MOL0     H 6456   9.123   6.235   4.436 -0.7799  0.8808  1.2987
   47MOL0     H 6457   9.093   6.267   4.257  2.4716 -2.0287  0.0477
   47MOL0     H 6458   8.883   6.154   4.454 -0.8882  0.3362 -0.4081
   47MOL0     H 6459   8.856   6.191   4.283  0.5724 -0.1556 -2.0911
   47MOL0     H 6460   9.053   5.998   4.401 -1.5880 -0.8126  0.0130
   47MOL0     H 6461   9.040   6.013   4.223  2.8742  0.1668  1.2668
   47MOL0     H 6462   8.793   5.964   4.249 -1.0506  0.6688  1.2569
   47MOL0     H 6463   8.831   5.930   4.420  1.6729  0.5246  0.6297
   47MOL0     H 6464   9.020   5.756   4.361 -1.8761 -0.4838  3.1582
   47MOL0     H 6465   8.960   5.773   4.196  2.7818  1.9449  0.2842
   47MOL0     H 6466   9.147   6.680   4.422 -1.5506 -2.7548  3.9457
   47MOL0     H 6467   9.200   6.930   4.361  0.5974 -0.5725 -1.1399
   47MOL0     H 6468   9.200   7.492   4.643  1.1358 -0.8829  0.0242
   47MOL0     H 6469   9.054   7.685   4.648  1.1159 -1.5476  3.0300
   47MOL0     H 6470   8.652   8.352   4.685  2.2859  1.6003  2.0115
   47MOL0     H 6471   8.610   8.543   4.830 -0.9533  1.5793  2.8482
   47MOL0     H 6472   8.438   8.606   5.270  2.0256  1.4138  0.9069
   47MOL0     H 6473   8.426   8.802   5.442  2.2790  2.0161 -0.5936
   47MOL0     H 6474   8.119   9.146   5.417  2.7516  2.1391  2.1295
   47MOL0     H 6475   8.074   8.984   5.465  0.0257 -0.1732  0.4307
   47MOL0     H 6476   8.074   9.179   5.643 -1.6098 -1.6993  0.7041
   47MOL0     H 6477   8.246   9.177   5.625  0.5066 -0.3448 -0.9665
   47MOL0     H 6478   8.077   8.935   5.686  1.5529 -2.4132 -2.4879
   47MOL0     H 6479   8.243   8.930   5.666 -0.8568  2.5204 -4.4140
   47MOL0     H 6480   8.095   9.071   5.906 -0.9295 -0.7110 -1.4425
   47MOL0     H 6481   8.262   9.095   5.870 -1.6994  1.1614 -0.5724
   47MOL0     H 6482   8.237   8.732   6.079  1.4315 -0.3255  0.4557
   47MOL0     H 6483   8.126   8.976   5.189 -2.0181 -1.7481 -2.7725
   47MOL0     H 6484   8.022   8.719   5.022 -0.1284  0.4679  3.4513
   47MOL0     H 6485   8.050   8.891   4.998 -4.1898 -2.1962  0.7936
   47MOL0     H 6486   8.157   8.770   4.924 -1.2753 -0.3836 -0.7716
   48MOL0     O 6487   4.948  11.113   2.740  0.5171  0.2022 -0.3043
   48MOL0     C 6488   4.878  11.043   2.666 -0.5935  0.0205  0.2232
   48MOL0     O 6489   4.932  10.974   2.565 -0.3777 -0.4183  0.0793
   48MOL0     C 6490   5.068  10.980   2.531 -0.6402  0.2385 -0.7641
   48MOL0     C 6491   5.150  11.091   2.534  0.0401 -0.4937  0.3116
   48MOL0     C 6492   5.284  11.081   2.491  0.7129 -0.7887  0.5412
   48MOL0     C 6493   5.339  10.960   2.442 -0.4178 -0.4706 -0.0597
   48MOL0     O 6494   5.470  10.930   2.409 -0.8064 -0.5666 -0.7955
   48MOL0     C 6495   5.562  11.037   2.412  0.4862  0.6844 -0.6842
   48MOL0     C 6496   5.705  10.989   2.385  0.9051 -0.8253  0.4254
   48MOL0     C 6497   5.775  11.073   2.285 -0.6179  0.3661  0.5841
   48MOL0     C 6498   5.896  10.996   2.218 -0.5758  0.0727 -0.7098
   48MOL0     C 6499   6.021  10.985   2.313  0.9918  0.5319  0.2814
   48MOL0     C 6500   6.080  11.126   2.362  1.1154  0.1718 -0.1319
   48MOL0     C 6501   6.116  11.213   2.248 -0.2724 -0.2389  0.5325
   48MOL0     C 6502   6.193  11.337   2.288  0.7146 -1.0261  0.0698
   48MOL0     N 6503   6.321  11.353   2.200 -0.1213 -0.2315 -0.3232
   48MOL0     C 6504   6.315  11.354   2.064 -0.5349  0.7379  0.1192
   48MOL0     C 6505   6.439  11.370   2.017 -0.3444  0.0071 -0.6394
   48MOL0     C 6506   6.465  11.376   1.872  1.0745  0.1318 -1.6735
   48MOL0     C 6507   6.518  11.514   1.842 -0.2591  0.5626 -0.5515
   48MOL0     C 6508   6.495  11.558   1.696  0.7125  0.4281 -0.4104
   48MOL0     C 6509   6.562  11.693   1.673  0.3192  0.1588 -0.2920
   48MOL0     O 6510   6.699  11.703   1.684  0.0774 -0.8379 -0.5192
   48MOL0     C 6511   6.760  11.827   1.677 -0.3523  0.1209  0.3040
   48MOL0     C 6512   6.874  11.849   1.747 -0.2703 -0.9039  0.5105
   48MOL0     C 6513   6.964  11.956   1.724 -0.1202 -0.6788  0.5104
   48MOL0     C 6514   7.075  11.965   1.828  0.1685 -0.9761 -0.5689
   48MOL0     C 6515   6.951  12.029   1.608  0.2426 -0.0380 -0.7385
   48MOL0     C 6516   7.035  12.146   1.570 -0.5524  0.0767  0.2057
   48MOL0     O 6517   6.988  12.226   1.472 -0.7779 -0.0618  0.2052
   48MOL0     C 6518   7.059  12.333   1.440 -0.0564  0.0570 -0.1082
   48MOL0     C 6519   7.175  12.325   1.359 -0.4558  1.1224 -1.1938
   48MOL0     C 6520   7.249  12.437   1.339 -0.5422  0.0671 -0.7524
   48MOL0     C 6521   7.210  12.563   1.394 -0.4203 -0.4330 -0.2874
   48MOL0     O 6522   7.291  12.676   1.378 -0.4251 -0.0738 -0.3624
   48MOL0     C 6523   7.222  12.799   1.366  0.6129 -0.8297  0.8355
   48MOL0     C 6524   7.279  12.894   1.270  0.4593  0.0245  0.2773
   48MOL0     C 6525   7.221  13.034   1.275  0.5502 -0.0241 -0.1396
   48MOL0     C 6526   7.233  13.115   1.140  0.7709 -1.3415  0.2302
   48MOL0     C 6527   7.227  13.271   1.149 -0.0758 -0.1692  0.3135
   48MOL0     C 6528   7.081  13.311   1.191  0.0269  0.8386  0.3192
   48MOL0     C 6529   7.063  13.462   1.154 -0.1531 -0.1508 -0.4408
   48MOL0     C 6530   6.943  13.534   1.226  1.1838  0.7152 -0.3665
   48MOL0    Cl 6531   6.779  13.491   1.171 -0.1157  0.2386 -0.6204
   48MOL0     C 6532   7.098  12.572   1.480 -0.0837  0.4708 -0.1798
   48MOL0     C 6533   7.031  12.446   1.501  0.2166 -0.7224 -1.4282
   48MOL0     O 6534   7.141  12.162   1.631 -0.0995 -0.0991 -0.5179
   48MOL0     C 6535   6.838  12.006   1.529 -0.2587  0.0460  0.0298
   48MOL0     C 6536   6.743  11.908   1.569  0.4929 -0.3751  0.1675
   48MOL0     N 6537   6.523  11.365   2.126 -0.5842  0.5845 -0.3349
   48MOL0     N 6538   6.452  11.374   2.236  0.8014 -0.3023 -0.0371
   48MOL0     C 6539   5.247  10.859   2.430 -0.1430  0.8857  0.9172
   48MOL0     C 6540   5.113  10.864   2.464 -0.1483 -0.1355 -0.8205
   48MOL0     C 6541   4.729  11.077   2.678 -0.7893 -0.6101 -0.5739
   48MOL0     C 6542   4.651  11.068   2.564  0.7862 -0.0061 -1.3774
   48MOL0     C 6543   4.511  11.094   2.565 -0.5644  1.3212 -0.0007
   48MOL0     C 6544   4.451  11.121   2.690  0.4171  0.0749  0.6216
   48MOL0     O 6545   4.319  11.119   2.723  0.0909  0.2816  1.0090
   48MOL0     C 6546   4.237  11.050   2.638  0.5948  0.3226  0.9249
   48MOL0     C 6547   4.095  11.071   2.707 -0.9699  0.6195 -0.5037
   48MOL0     C 6548   3.989  11.008   2.621 -0.8215 -1.0495  0.1734
   48MOL0     C 6549   3.850  11.038   2.679  0.4357 -0.4792  0.1335
   48MOL0     C 6550   3.750  11.018   2.573  0.1309  0.2132 -0.4183
   48MOL0     C 6551   3.665  10.979   2.491 -0.0208 -0.7520 -0.1640
   48MOL0     C 6552   4.531  11.134   2.800 -0.0343 -0.4247  0.3156
   48MOL0     C 6553   4.672  11.117   2.800 -0.3457  0.7553 -0.5868
   48MOL0     C 6554   4.739  11.141   2.938  1.5221  0.1122 -0.2293
   48MOL0     H 6555   5.111  11.187   2.568  0.7222 -0.2413  0.4006
   48MOL0     H 6556   5.352  11.165   2.498  0.4930 -0.7779  3.7761
   48MOL0     H 6557   5.554  11.088   2.508 -2.9700 -0.0461 -0.4795
   48MOL0     H 6558   5.534  11.107   2.332  2.3798  0.6515 -1.4339
   48MOL0     H 6559   5.761  10.994   2.479 -0.3889  2.5367  1.1804
   48MOL0     H 6560   5.694  10.889   2.344 -1.4012 -1.0013  1.3563
   48MOL0     H 6561   5.711  11.104   2.202 -0.1882 -2.3772 -0.8625
   48MOL0     H 6562   5.805  11.159   2.346  2.1927 -0.4863  0.5230
   48MOL0     H 6563   5.867  10.893   2.194  0.6953 -0.3780 -0.4187
   48MOL0     H 6564   5.921  11.037   2.119  2.6739  0.7804  0.2766
   48MOL0     H 6565   6.100  10.933   2.258  1.8394  1.3936  0.6522
   48MOL0     H 6566   5.973  10.941   2.400 -0.3300 -1.3713 -1.3201
   48MOL0     H 6567   6.007  11.169   2.431 -0.5152  1.0540 -2.2679
   48MOL0     H 6568   6.176  11.107   2.410  0.9849  0.5248  0.2725
   48MOL0     H 6569   6.029  11.233   2.183  1.2547  3.8841 -0.5376
   48MOL0     H 6570   6.184  11.161   2.180  0.2408  1.3962 -0.2416
   48MOL0     H 6571   6.127  11.423   2.280  0.1548 -1.6078 -2.3113
   48MOL0     H 6572   6.233  11.332   2.390  0.3350 -0.3153  0.2561
   48MOL0     H 6573   6.228  11.340   2.000  0.1712 -1.0033 -0.5093
   48MOL0     H 6574   6.374  11.356   1.814 -0.7736 -0.3162  1.1636
   48MOL0     H 6575   6.537  11.297   1.847 -0.8365 -1.7729 -1.5027
   48MOL0     H 6576   6.471  11.582   1.914 -0.8484 -0.1853 -0.2141
   48MOL0     H 6577   6.626  11.513   1.859  0.0075 -1.0059 -2.0050
   48MOL0     H 6578   6.548  11.482   1.637  1.0541  0.0738  0.3412
   48MOL0     H 6579   6.390  11.564   1.665  0.7967  2.1620 -0.4469
   48MOL0     H 6580   6.540  11.732   1.573  0.2014 -0.2369 -0.4210
   48MOL0     H 6581   6.514  11.754   1.750 -1.8857 -3.2201  1.2562
   48MOL0     H 6582   6.888  11.786   1.834 -1.8669 -0.8407  0.8373
   48MOL0     H 6583   7.168  11.923   1.789  0.7028 -0.5060  0.1537
   48MOL0     H 6584   7.060  11.914   1.924  1.2782 -2.8957 -1.3652
   48MOL0     H 6585   7.091  12.071   1.851 -1.3105 -0.3642 -2.1439
   48MOL0     H 6586   7.201  12.231   1.312  2.3587  1.1491  0.1087
   48MOL0     H 6587   7.333  12.424   1.271  1.4528 -3.0794  1.9909
   48MOL0     H 6588   7.117  12.782   1.340 -1.1600  1.4709  5.3422
   48MOL0     H 6589   7.227  12.839   1.468  0.0504 -0.2751  0.6542
   48MOL0     H 6590   7.386  12.914   1.270  0.5217 -0.2086  1.8322
   48MOL0     H 6591   7.246  12.859   1.171  1.3135 -1.0280  0.3484
   48MOL0     H 6592   7.281  13.076   1.357  1.3980  1.4982 -1.4803
   48MOL0     H 6593   7.116  13.032   1.307 -0.3536 -1.8623 -2.8424
   48MOL0     H 6594   7.152  13.083   1.074  2.6897  0.1798 -3.0877
   48MOL0     H 6595   7.329  13.093   1.094  0.3501 -3.8247  0.3900
   48MOL0     H 6596   7.293  13.312   1.227 -0.5703 -0.3080  0.8144
   48MOL0     H 6597   7.251  13.317   1.053  1.1817  0.6792  0.9984
   48MOL0     H 6598   7.055  13.307   1.297 -3.3821 -1.7158 -0.4340
   48MOL0     H 6599   7.002  13.256   1.138 -0.8212 -0.3562  2.6863
   48MOL0     H 6600   7.040  13.470   1.047  1.3895 -1.6409 -0.9391
   48MOL0     H 6601   7.154  13.521   1.172  0.3571 -1.4553  1.5830
   48MOL0     H 6602   6.952  13.643   1.213 -5.0151  2.0148  2.6029
   48MOL0     H 6603   6.955  13.532   1.335 -1.6931  1.8343  0.0514
   48MOL0     H 6604   7.056  12.662   1.525 -1.1210  0.4318 -1.0383
   48MOL0     H 6605   6.945  12.462   1.565  1.1022  0.3727 -0.4712
   48MOL0     H 6606   6.816  12.059   1.438 -0.0857 -0.6430 -0.4189
   48MOL0     H 6607   6.650  11.897   1.515 -2.6351 -1.2260  5.0381
   48MOL0     H 6608   5.284  10.776   2.370  0.6990  0.1139  2.4679
   48MOL0     H 6609   5.049  10.777   2.453 -0.3972  0.2367 -2.6067
   48MOL0     H 6610   4.701  11.047   2.470  0.3920 -1.5840 -1.2646
   48MOL0     H 6611   4.445  11.073   2.481 -2.8080 -0.4676  2.0620
   48MOL0     H 6612   4.230  11.085   2.535  2.1148  0.7968  0.9608
   48MOL0     H 6613   4.255  10.942   2.639 -0.4951  0.0594 -1.3152
   48MOL0     H 6614   4.066  11.173   2.734 -2.5599  0.3480 -1.0613
   48MOL0     H 6615   4.101  11.024   2.805  0.3095 -2.2194 -1.8467
   48MOL0     H 6616   3.997  11.042   2.518 -0.7761  1.8723  1.0691
   48MOL0     H 6617   4.022  10.904   2.632  1.7041 -0.1231  3.0051
   48MOL0     H 6618   3.841  11.139   2.720  1.5633  0.8435 -2.6266
   48MOL0     H 6619   3.830  10.959   2.752 -1.4259  1.5627  2.0074
   48MOL0     H 6620   3.592  10.946   2.420 -1.5652  1.0022  0.5270
   48MOL0     H 6621   4.484  11.147   2.897  1.1822  1.7830  0.6711
   48MOL0     H 6622   4.681  11.207   3.003  0.0481  0.8996 -2.2526
   48MOL0     H 6623   4.741  11.045   2.991 -2.0774  0.6002  1.1064
   48MOL0     H 6624   4.835  11.192   2.938 -0.0363  3.2675 -0.0260
   49MOL0     O 6625   3.663   2.931   6.143  1.0418 -0.1957  0.2038
   49MOL0     C 6626   3.651   2.994   6.246  0.5331 -0.4693  0.3207
   49MOL0     O 6627   3.740   3.083   6.292  0.2077 -0.0344 -0.7246
   49MOL0     C 6628   3.866   3.094   6.239 -0.7057 -0.0037 -0.4454
   49MOL0     C 6629   3.900   3.220   6.174  0.1583  0.6990 -0.0911
   49MOL0     C 6630   4.037   3.239   6.151 -1.0740 -0.9769  0.6914
   49MOL0     C 6631   4.140   3.144   6.168  1.1614 -0.0558  0.6954
   49MOL0     O 6632   4.264   3.174   6.121  0.4798 -0.4308 -0.5653
   49MOL0     C 6633   4.372   3.078   6.128  1.2679 -0.5267 -0.4978
   49MOL0     C 6634   4.505   3.154   6.102 -0.3881  1.1581 -0.6195
   49MOL0     C 6635   4.624   3.065   6.121  0.4673 -0.0712  0.2932
   49MOL0     C 6636   4.760   3.138   6.093  0.7063 -0.7481  0.4408
   49MOL0     C 6637   4.881   3.056   6.138 -0.3366 -1.5333  0.2403
   49MOL0     C 6638   5.015   3.121   6.114  0.5165  0.6151  0.5278
   49MOL0     C 6639   5.048   3.213   6.227  0.6325 -0.2828 -0.1335
   49MOL0     C 6640   5.085   3.144   6.356 -0.1423 -0.3105 -0.6216
   49MOL0     N 6641   5.221   3.170   6.400  0.8349 -0.5454  0.3243
   49MOL0     C 6642   5.330   3.143   6.319  0.6643 -0.0877  0.7538
   49MOL0     C 6643   5.435   3.145   6.396  0.0809  0.2089 -0.2923
   49MOL0     C 6644   5.584   3.100   6.371 -0.2302  0.0656 -0.2341
   49MOL0     C 6645   5.657   3.163   6.248 -0.2427 -0.8061  0.3205
   49MOL0     C 6646   5.707   3.066   6.145 -0.2848  1.1002 -0.1488
   49MOL0     C 6647   5.826   2.986   6.205 -0.3084 -0.4188  0.5503
   49MOL0     O 6648   5.899   2.919   6.099 -1.0293  0.6029  0.2576
   49MOL0     C 6649   6.015   2.853   6.129 -0.2762 -0.4935  0.2302
   49MOL0     C 6650   6.068   2.836   6.260  0.0566 -0.0762  0.0317
   49MOL0     C 6651   6.181   2.744   6.280  0.0400  0.3731 -0.4722
   49MOL0     C 6652   6.245   2.725   6.420  0.7111  0.0805 -0.1432
   49MOL0     C 6653   6.250   2.701   6.170 -1.0134  0.2784  0.3478
   49MOL0     C 6654   6.366   2.605   6.174  0.2769  0.0842  0.0238
   49MOL0     O 6655   6.470   2.644   6.255 -0.3818 -0.5080  0.1855
   49MOL0     C 6656   6.584   2.572   6.262  0.2901  1.1015  0.0424
   49MOL0     C 6657   6.607   2.466   6.360 -0.1422 -0.2378 -0.5873
   49MOL0     C 6658   6.730   2.392   6.350 -0.6455 -0.4634  0.3929
   49MOL0     C 6659   6.818   2.416   6.246 -0.4532 -0.5127  1.2835
   49MOL0     O 6660   6.920   2.335   6.247 -0.4043  0.0326 -0.7050
   49MOL0     C 6661   7.036   2.373   6.184 -0.2510 -0.7651  0.2982
   49MOL0     C 6662   7.157   2.312   6.248  0.1080 -0.0682 -0.0023
   49MOL0     C 6663   7.285   2.397   6.245  0.1891  1.2081  0.5439
   49MOL0     C 6664   7.385   2.322   6.331  0.1470 -0.0303  0.1006
   49MOL0     C 6665   7.516   2.385   6.373 -0.4527 -0.7406  0.5398
   49MOL0     C 6666   7.609   2.431   6.248 -0.8694  0.9832 -0.2793
   49MOL0     C 6667   7.741   2.472   6.297 -0.3722 -0.8890 -0.2333
   49MOL0     C 6668   7.817   2.524   6.175  0.5266  0.2499  0.2119
   49MOL0    Cl 6669   7.881   2.393   6.086 -0.1867 -0.4836 -0.3671
   49MOL0     C 6670   6.796   2.517   6.149  0.6124 -1.0261  0.1280
   49MOL0     C 6671   6.681   2.587   6.160  1.1472 -0.0576  0.4494
   49MOL0     O 6672   6.369   2.519   6.084  0.7730  1.0797 -0.5256
   49MOL0     C 6673   6.208   2.745   6.042 -0.4928 -0.3607  0.0827
   49MOL0     C 6674   6.087   2.816   6.018  0.6701 -0.3146  0.2395
   49MOL0     N 6675   5.398   3.198   6.512 -0.4918  0.1282 -0.8461
   49MOL0     N 6676   5.268   3.217   6.510 -0.0167  0.5958 -0.8039
   49MOL0     C 6677   4.103   3.018   6.209  0.4377  1.0980 -1.0376
   49MOL0     C 6678   3.965   2.994   6.242  0.0736  0.2557  0.2260
   49MOL0     C 6679   3.525   2.972   6.315 -0.1949 -0.1832  0.4020
   49MOL0     C 6680   3.404   2.965   6.239  0.0826  0.7195 -0.2055
   49MOL0     C 6681   3.277   2.950   6.294  0.1508 -0.4898 -0.4912
   49MOL0     C 6682   3.280   2.918   6.435  0.3012  0.8057 -0.6792
   49MOL0     O 6683   3.168   2.896   6.511 -0.5711 -0.3237  0.8873
   49MOL0     C 6684   3.067   2.994   6.483  0.9152 -0.0177  0.4072
   49MOL0     C 6685   2.945   2.940   6.415  0.2041  0.2494  0.0369
   49MOL0     C 6686   2.837   3.045   6.412 -0.2945  0.2628 -1.1712
   49MOL0     C 6687   2.766   3.048   6.553  0.1695 -0.0285  0.5381
   49MOL0     C 6688   2.629   3.107   6.529  0.1780 -0.3276 -0.8760
   49MOL0     C 6689   2.510   3.147   6.504  0.0698  0.6883  0.4482
   49MOL0     C 6690   3.396   2.910   6.509  1.0037 -0.3304 -0.0900
   49MOL0     C 6691   3.520   2.943   6.451 -0.3408  0.1789 -0.2551
   49MOL0     C 6692   3.643   2.925   6.537 -0.6409  0.1671 -0.5095
   49MOL0     H 6693   3.822   3.294   6.157 -0.4251  0.1408  0.1085
   49MOL0     H 6694   4.074   3.334   6.115 -0.1475 -0.2955  3.2489
   49MOL0     H 6695   4.355   3.013   6.042 -1.0335 -2.9084  1.5930
   49MOL0     H 6696   4.377   3.020   6.221  0.2455 -2.1431 -1.3998
   49MOL0     H 6697   4.497   3.182   5.996 -2.0925 -1.8230 -1.3949
   49MOL0     H 6698   4.512   3.245   6.162 -0.6068  0.8417 -0.1119
   49MOL0     H 6699   4.615   3.031   6.225 -2.2600 -1.1123 -0.2033
   49MOL0     H 6700   4.625   2.977   6.055  0.6878 -0.6968  1.1036
   49MOL0     H 6701   4.759   3.157   5.985  0.8131 -1.5004  0.3034
   49MOL0     H 6702   4.758   3.226   6.158  1.1779 -0.1773 -0.2982
   49MOL0     H 6703   4.892   2.964   6.081  1.4793 -0.3962 -1.3975
   49MOL0     H 6704   4.867   3.035   6.245  0.0408 -2.0554  0.1895
   49MOL0     H 6705   5.091   3.042   6.116 -1.2257 -1.1523  0.6086
   49MOL0     H 6706   5.012   3.168   6.016  0.4900 -4.9785 -2.5883
   49MOL0     H 6707   4.967   3.286   6.240  1.1530 -0.2759  6.3504
   49MOL0     H 6708   5.131   3.270   6.186  0.6035 -2.4302 -3.6428
   49MOL0     H 6709   5.007   3.179   6.424 -0.2410  1.4183 -1.5721
   49MOL0     H 6710   5.083   3.035   6.349  2.4623 -0.6343  1.7319
   49MOL0     H 6711   5.318   3.102   6.219 -3.0452  1.5491  0.3619
   49MOL0     H 6712   5.585   2.991   6.367  2.0807  0.0621 -0.4824
   49MOL0     H 6713   5.631   3.131   6.464  2.3202 -0.2603 -1.3287
   49MOL0     H 6714   5.590   3.234   6.200  2.8995  1.4643 -1.0732
   49MOL0     H 6715   5.740   3.228   6.277 -1.2969  0.6880  0.0623
   49MOL0     H 6716   5.624   2.998   6.123 -1.5714  2.1198  1.3420
   49MOL0     H 6717   5.738   3.119   6.054  0.8172 -1.4780 -1.3740
   49MOL0     H 6718   5.898   3.042   6.265  0.2671 -1.2313  0.6506
   49MOL0     H 6719   5.783   2.909   6.271 -0.9150  0.9845  1.8529
   49MOL0     H 6720   6.014   2.866   6.349 -0.0315  0.8365 -0.3195
   49MOL0     H 6721   6.165   2.724   6.495  0.4640 -1.1270 -0.4002
   49MOL0     H 6722   6.318   2.803   6.443  2.1009 -1.3496  0.5152
   49MOL0     H 6723   6.282   2.622   6.422  1.5895  0.3838 -0.5446
   49MOL0     H 6724   6.543   2.442   6.444 -0.6841 -1.6567 -1.3845
   49MOL0     H 6725   6.762   2.313   6.417  1.5387  0.0308  0.0057
   49MOL0     H 6726   7.030   2.348   6.077  1.2613 -0.2000  0.0527
   49MOL0     H 6727   7.051   2.481   6.180 -0.3831 -0.7340  0.6251
   49MOL0     H 6728   7.133   2.280   6.350 -4.5838  1.0058 -0.5854
   49MOL0     H 6729   7.171   2.234   6.172  0.7912 -0.0168  0.0581
   49MOL0     H 6730   7.259   2.493   6.291  1.1167  1.2806  0.9314
   49MOL0     H 6731   7.324   2.414   6.145  2.1400 -1.5196  0.7228
   49MOL0     H 6732   7.416   2.222   6.298  1.5890  0.4125  0.0453
   49MOL0     H 6733   7.327   2.310   6.423  0.9592  1.0298  0.7753
   49MOL0     H 6734   7.509   2.472   6.439 -0.4200  2.6380 -3.4371
   49MOL0     H 6735   7.567   2.305   6.426 -3.3259 -0.4441  4.2102
   49MOL0     H 6736   7.562   2.499   6.175 -2.0232  0.3260 -0.1689
   49MOL0     H 6737   7.617   2.340   6.188 -1.7691  1.5392 -1.2743
   49MOL0     H 6738   7.800   2.398   6.351  0.6835  0.9641  1.2572
   49MOL0     H 6739   7.727   2.555   6.367  1.5345 -0.3177 -0.4928
   49MOL0     H 6740   7.896   2.592   6.208 -0.3852  0.0380  3.1677
   49MOL0     H 6741   7.752   2.585   6.112  2.5244 -0.6167 -2.8797
   49MOL0     H 6742   6.857   2.547   6.064 -3.3056  2.3007 -1.8604
   49MOL0     H 6743   6.659   2.676   6.101 -2.6211  1.1981  3.3347
   49MOL0     H 6744   6.259   2.708   5.954  0.3992 -1.1717  0.9123
   49MOL0     H 6745   6.069   2.852   5.917  2.1125  1.7324  0.6519
   49MOL0     H 6746   4.172   2.934   6.212 -1.1226 -0.2713 -1.6252
   49MOL0     H 6747   3.935   2.899   6.287  1.6986 -0.1846  0.4419
   49MOL0     H 6748   3.410   2.973   6.131  1.6962  0.0451 -0.1901
   49MOL0     H 6749   3.185   2.963   6.238 -0.3308 -1.5347  0.0240
   49MOL0     H 6750   3.046   3.034   6.583 -0.8395  0.3776 -0.0811
   49MOL0     H 6751   3.101   3.080   6.425 -0.9680 -0.9500 -2.2897
   49MOL0     H 6752   2.905   2.845   6.452 -0.6350 -1.7891 -5.2308
   49MOL0     H 6753   2.962   2.914   6.311  2.8481 -0.8722  0.6762
   49MOL0     H 6754   2.895   3.136   6.397 -0.2868  0.2183 -1.4108
   49MOL0     H 6755   2.772   3.021   6.327 -2.0108  0.3377  0.0478
   49MOL0     H 6756   2.830   3.101   6.624  3.3970  0.6904 -2.5860
   49MOL0     H 6757   2.757   2.955   6.609  1.2962 -0.5936 -0.1809
   49MOL0     H 6758   2.417   3.195   6.482  0.6599  2.3116  1.3338
   49MOL0     H 6759   3.382   2.887   6.614  2.3213  1.4510  0.5126
   49MOL0     H 6760   3.660   2.827   6.583  3.2046  1.2060  0.6641
   49MOL0     H 6761   3.734   2.947   6.482 -1.2207  0.3193 -1.4209
   49MOL0     H 6762   3.638   2.997   6.620  0.7268  2.1189 -2.0317
   50MOL0     O 6763   8.584   0.918   3.997 -0.1291 -0.2464  1.0332
   50MOL0     C 6764   8.579   0.913   3.877  0.1348  0.2439  0.3718
   50MOL0     O 6765   8.483   0.848   3.806 -0.2170 -0.3813 -0.4661
   50MOL0     C 6766   8.388   0.784   3.881  0.1409  0.9605  0.0014
   50MOL0     C 6767   8.285   0.864   3.943  0.3812 -0.5158  0.8850
   50MOL0     C 6768   8.181   0.793   4.011 -0.6704  0.2427  0.0147
   50MOL0     C 6769   8.176   0.650   4.012  0.3817  0.7093 -0.1395
   50MOL0     O 6770   8.072   0.594   4.081  0.4669 -0.2997 -0.8731
   50MOL0     C 6771   8.085   0.453   4.124  1.1561  0.9752 -0.5478
   50MOL0     C 6772   8.022   0.368   4.007 -0.1794 -0.7666 -1.1555
   50MOL0     C 6773   7.864   0.387   3.999  0.4256  0.6871  0.4591
   50MOL0     C 6774   7.797   0.304   4.108  0.6535  0.1037  0.2131
   50MOL0     C 6775   7.645   0.323   4.097 -0.0049 -0.9242  0.1460
   50MOL0     C 6776   7.584   0.255   4.218  0.0850  0.5907 -0.3559
   50MOL0     C 6777   7.426   0.258   4.237 -1.1470 -0.2884 -0.7328
   50MOL0     C 6778   7.371   0.144   4.323 -0.0700  0.0823 -0.0037
   50MOL0     N 6779   7.421   0.134   4.462  0.0147 -0.2049 -0.0245
   50MOL0     C 6780   7.550   0.089   4.498 -0.2313 -0.0424 -0.0201
   50MOL0     C 6781   7.541   0.076   4.635  0.2194 -1.2993  0.5133
   50MOL0     C 6782   7.673   0.041   4.722 -0.6184  0.4137  0.5606
   50MOL0     C 6783   7.724  -0.108   4.706  0.6015  0.3085  0.4741
   50MOL0     C 6784   7.626  -0.188   4.792  0.2447 -0.3519  0.2312
   50MOL0     C 6785   7.674  -0.335   4.803  0.1322 -0.4909  0.6713
   50MOL0     O 6786   7.578  -0.400   4.892 -0.3201  0.3277  0.1231
   50MOL0     C 6787   7.587  -0.530   4.878 -0.4203  0.3140  0.3265
   50MOL0     C 6788   7.707  -0.606   4.914  0.3961 -1.1250  0.1755
   50MOL0     C 6789   7.709  -0.740   4.906  0.7281 -0.3060 -0.3584
   50MOL0     C 6790   7.835  -0.806   4.944  0.2817  0.0722  0.3338
   50MOL0     C 6791   7.602  -0.810   4.850  0.3803  0.3155  0.2578
   50MOL0     C 6792   7.591  -0.960   4.852  0.0587  1.0249 -0.1756
   50MOL0     O 6793   7.682  -1.037   4.800 -0.9314 -0.0027 -0.0746
   50MOL0     C 6794   7.663  -1.174   4.778  0.8656 -1.0670  0.4128
   50MOL0     C 6795   7.547  -1.248   4.798  0.3383  0.0529 -0.3602
   50MOL0     C 6796   7.538  -1.385   4.776 -0.3827  1.1952 -0.0681
   50MOL0     C 6797   7.653  -1.448   4.727 -0.5801  0.3045  1.4929
   50MOL0     O 6798   7.631  -1.584   4.716 -1.0326 -0.9619 -0.2858
   50MOL0     C 6799   7.620  -1.636   4.584 -0.5525  0.0630  0.4769
   50MOL0     C 6800   7.513  -1.570   4.500 -0.0732 -0.3292  1.4643
   50MOL0     C 6801   7.472  -1.655   4.378  0.5466  0.4688  0.6342
   50MOL0     C 6802   7.318  -1.657   4.372  0.4045  0.4438 -0.3001
   50MOL0     C 6803   7.259  -1.744   4.260 -0.1644  0.1621  0.0533
   50MOL0     C 6804   7.306  -1.705   4.120 -0.5684  0.0086 -0.4746
   50MOL0     C 6805   7.383  -1.818   4.044 -0.5194 -0.2856  0.6240
   50MOL0     C 6806   7.480  -1.765   3.930  0.0267  0.0859 -0.1879
   50MOL0    Cl 6807   7.641  -1.725   3.997  0.3583 -0.5322  0.2097
   50MOL0     C 6808   7.771  -1.378   4.700  0.2308 -0.0300  0.3743
   50MOL0     C 6809   7.773  -1.236   4.732 -0.3412  0.7224 -0.2575
   50MOL0     O 6810   7.494  -0.999   4.923 -0.2223 -0.6098 -0.2741
   50MOL0     C 6811   7.493  -0.739   4.813 -0.2660 -0.1682  0.5732
   50MOL0     C 6812   7.473  -0.602   4.840  0.3940  0.4892  0.1580
   50MOL0     N 6813   7.414   0.111   4.672  0.1517 -0.4130  0.2437
   50MOL0     N 6814   7.340   0.148   4.568  0.2720  0.3002 -0.5858
   50MOL0     C 6815   8.285   0.582   3.954 -0.2459  0.5265  0.5118
   50MOL0     C 6816   8.380   0.649   3.889 -0.1085 -0.6322 -1.0537
   50MOL0     C 6817   8.687   0.987   3.808 -0.0833 -0.2516  0.4144
   50MOL0     C 6818   8.777   1.066   3.876 -0.0024  0.3783 -0.1232
   50MOL0     C 6819   8.885   1.128   3.827 -0.1361 -0.1062 -0.0922
   50MOL0     C 6820   8.903   1.115   3.690  0.5893 -0.2850  0.4896
   50MOL0     O 6821   9.008   1.173   3.619  0.4201 -0.0558 -1.4257
   50MOL0     C 6822   9.045   1.304   3.652 -0.8717 -0.2442 -0.0482
   50MOL0     C 6823   9.181   1.341   3.607 -0.2842  0.0290 -0.4425
   50MOL0     C 6824   9.210   1.288   3.457  0.6947  0.6396  0.2141
   50MOL0     C 6825   9.354   1.324   3.415 -0.5097 -0.4221 -0.2073
   50MOL0     C 6826   9.396   1.301   3.274 -0.5759 -0.2883 -0.2582
   50MOL0     C 6827   9.410   1.297   3.147 -0.3078  0.0243 -1.1340
   50MOL0     C 6828   8.812   1.039   3.616 -0.7002 -0.0042  0.8110
   50MOL0     C 6829   8.710   0.971   3.663 -0.1766 -0.7984 -0.2110
   50MOL0     C 6830   8.630   0.894   3.559  0.1663 -0.3821  0.9784
   50MOL0     H 6831   8.304   0.970   3.945  5.4060 -1.0955 -0.9066
   50MOL0     H 6832   8.097   0.846   4.054 -0.8188  0.6639 -0.7842
   50MOL0     H 6833   8.034   0.444   4.220 -0.4975  3.2983 -1.1222
   50MOL0     H 6834   8.189   0.425   4.139  1.0940  1.1446  0.2235
   50MOL0     H 6835   8.073   0.387   3.912 -1.8646 -2.1045 -2.3833
   50MOL0     H 6836   8.043   0.263   4.031 -1.1252 -0.2976  2.3547
   50MOL0     H 6837   7.836   0.492   3.984  1.0066  0.7151 -0.5175
   50MOL0     H 6838   7.832   0.337   3.907  1.8533 -2.7530  1.6513
   50MOL0     H 6839   7.811   0.196   4.094 -4.6823 -0.8785  0.2659
   50MOL0     H 6840   7.836   0.326   4.208  2.1233 -0.8570 -0.1138
   50MOL0     H 6841   7.599   0.281   4.007  1.1734  1.4791 -1.6679
   50MOL0     H 6842   7.623   0.428   4.077 -0.9430 -1.7808 -4.4447
   50MOL0     H 6843   7.613   0.150   4.219 -2.3476 -0.1340 -0.5350
   50MOL0     H 6844   7.612   0.305   4.312  0.9565  0.0773 -0.3344
   50MOL0     H 6845   7.377   0.253   4.139 -2.9396  0.6974  0.0738
   50MOL0     H 6846   7.410   0.357   4.281  1.4395  0.3463 -1.0362
   50MOL0     H 6847   7.262   0.154   4.323 -0.0734  1.0276 -2.9679
   50MOL0     H 6848   7.381   0.042   4.286  0.8273 -1.5109  4.0623
   50MOL0     H 6849   7.631   0.062   4.432 -0.3715 -1.5373  0.3973
   50MOL0     H 6850   7.634   0.052   4.824 -3.7749  1.3666 -0.6195
   50MOL0     H 6851   7.756   0.111   4.709  0.9621 -1.1443  1.8548
   50MOL0     H 6852   7.733  -0.155   4.607  2.2514 -4.5784  2.5962
   50MOL0     H 6853   7.827  -0.111   4.743  0.7827  2.5892  0.2841
   50MOL0     H 6854   7.638  -0.153   4.895  2.2390 -1.2312  0.3254
   50MOL0     H 6855   7.521  -0.172   4.763  0.2190  1.5682  1.2377
   50MOL0     H 6856   7.664  -0.370   4.700  1.5779  2.1095 -0.4355
   50MOL0     H 6857   7.775  -0.344   4.844 -0.5588 -2.3777  2.0986
   50MOL0     H 6858   7.798  -0.551   4.934 -0.0388 -0.2743 -0.1096
   50MOL0     H 6859   7.878  -0.745   5.024  1.5291  0.1457 -0.3743
   50MOL0     H 6860   7.902  -0.793   4.859  0.7989 -3.5101  0.0654
   50MOL0     H 6861   7.824  -0.911   4.974 -0.0282  0.4531  1.6305
   50MOL0     H 6862   7.455  -1.210   4.842  0.9399  0.1074  0.8812
   50MOL0     H 6863   7.448  -1.443   4.794  0.4650 -0.6461 -1.4919
   50MOL0     H 6864   7.715  -1.628   4.532 -0.7849 -2.7219 -0.5295
   50MOL0     H 6865   7.610  -1.744   4.598  2.0300 -0.0099  2.4127
   50MOL0     H 6866   7.429  -1.551   4.567  0.3514  2.2890  1.3618
   50MOL0     H 6867   7.553  -1.475   4.464 -1.8521 -1.0943 -3.4304
   50MOL0     H 6868   7.510  -1.758   4.372  0.8011  0.6645 -1.9890
   50MOL0     H 6869   7.513  -1.612   4.286 -1.6839  0.8179 -0.2390
   50MOL0     H 6870   7.289  -1.552   4.364  0.3486  0.4106 -0.5369
   50MOL0     H 6871   7.270  -1.701   4.460 -2.2544 -0.5246 -2.0959
   50MOL0     H 6872   7.296  -1.846   4.275  1.1597  0.8311  1.5330
   50MOL0     H 6873   7.150  -1.732   4.263 -0.2821 -0.2774 -1.3911
   50MOL0     H 6874   7.374  -1.620   4.122  1.6142 -1.6422 -0.6862
   50MOL0     H 6875   7.215  -1.700   4.059 -0.6097 -3.4088 -0.8887
   50MOL0     H 6876   7.309  -1.891   4.010 -0.5226 -0.5844  1.2497
   50MOL0     H 6877   7.445  -1.881   4.108 -2.0641 -0.2994  2.1896
   50MOL0     H 6878   7.436  -1.678   3.880 -0.8462 -1.5932 -2.5410
   50MOL0     H 6879   7.490  -1.834   3.846  0.9534  0.6510 -0.5576
   50MOL0     H 6880   7.853  -1.437   4.660 -0.5982 -0.5102 -0.6406
   50MOL0     H 6881   7.865  -1.178   4.726  0.8867 -1.0353  0.7207
   50MOL0     H 6882   7.420  -0.803   4.764 -0.8055  0.3502  0.6781
   50MOL0     H 6883   7.380  -0.551   4.819  0.4469  0.7645  0.5677
   50MOL0     H 6884   8.278   0.474   3.942 -1.6679  0.8162 -1.7696
   50MOL0     H 6885   8.449   0.594   3.825 -0.2134 -0.6954 -1.1141
   50MOL0     H 6886   8.767   1.077   3.984 -1.0010  0.8447 -0.2454
   50MOL0     H 6887   8.940   1.196   3.891 -1.1711  0.4760  0.1981
   50MOL0     H 6888   8.967   1.369   3.612 -0.0516 -0.4833 -2.1927
   50MOL0     H 6889   9.060   1.319   3.759 -0.4419  3.3238 -0.4964
   50MOL0     H 6890   9.257   1.287   3.664  0.9673  0.5005 -1.6030
   50MOL0     H 6891   9.193   1.447   3.631 -3.5838  0.1906  0.9669
   50MOL0     H 6892   9.197   1.180   3.458 -0.1292  0.7253 -0.0747
   50MOL0     H 6893   9.131   1.336   3.397  0.6210  2.5470  1.7496
   50MOL0     H 6894   9.429   1.272   3.474  1.4876  1.9892 -0.4660
   50MOL0     H 6895   9.355   1.430   3.444 -2.4711 -0.5104  0.3122
   50MOL0     H 6896   9.430   1.319   3.044 -0.0293  2.5412 -0.6140
   50MOL0     H 6897   8.842   1.041   3.512  1.0513 -0.1602  1.2749
   50MOL0     H 6898   8.627   0.789   3.589  3.4224 -0.4193  1.5837
   50MOL0     H 6899   8.531   0.940   3.552  1.6247  2.9422  0.5316
   50MOL0     H 6900   8.676   0.908   3.461 -1.2421 -2.9677 -0.1508
   51MOL0     O 6901   4.886   0.925  11.021 -0.7559  0.3327 -0.0906
   51MOL0     C 6902   4.811   0.840  11.062  0.2660 -0.0151 -0.0789
   51MOL0     O 6903   4.706   0.787  10.994  0.1391  0.3417  0.3410
   51MOL0     C 6904   4.685   0.847  10.875 -0.2062  0.4705  1.2689
   51MOL0     C 6905   4.579   0.934  10.864  0.3071  0.2253  0.3744
   51MOL0     C 6906   4.549   0.997  10.746 -1.4948  0.9957  0.6807
   51MOL0     C 6907   4.635   0.974  10.631 -0.4155  0.7711 -0.2067
   51MOL0     O 6908   4.611   1.038  10.514  0.9755 -0.5181 -0.5917
   51MOL0     C 6909   4.606   0.939  10.411  0.4050  0.7374  0.1335
   51MOL0     C 6910   4.505   0.982  10.301 -0.0051 -0.0638  0.3017
   51MOL0     C 6911   4.350   0.980  10.346  0.2445 -0.5730  0.1216
   51MOL0     C 6912   4.299   0.835  10.373 -0.3164 -0.1674  0.6655
   51MOL0     C 6913   4.289   0.806  10.530 -0.3349  0.0218  0.6012
   51MOL0     C 6914   4.228   0.675  10.559  1.5311 -0.0946 -0.2676
   51MOL0     C 6915   4.319   0.556  10.524 -0.4625  0.5089 -0.3025
   51MOL0     C 6916   4.256   0.422  10.573  0.4955 -0.8689  0.1187
   51MOL0     N 6917   4.366   0.323  10.555  0.4029  0.6291 -0.2911
   51MOL0     C 6918   4.425   0.248  10.659 -0.3768 -0.0725  0.2718
   51MOL0     C 6919   4.521   0.172  10.602  0.4286 -0.1171 -0.1121
   51MOL0     C 6920   4.603   0.057  10.665  0.7642  0.3856 -0.0676
   51MOL0     C 6921   4.619   0.075  10.815  0.9120  1.0281 -0.5966
   51MOL0     C 6922   4.749  -0.004  10.853 -0.3492  0.1426 -0.3691
   51MOL0     C 6923   4.737  -0.048  10.996  0.7765  0.0127  0.8752
   51MOL0     O 6924   4.757   0.075  11.071  0.6475 -0.2896  0.1157
   51MOL0     C 6925   4.785   0.063  11.203 -0.5623  0.8893 -0.8113
   51MOL0     C 6926   4.752  -0.043  11.280  0.3336 -0.6904 -0.4987
   51MOL0     C 6927   4.781  -0.068  11.414 -0.3877 -0.0463  0.2407
   51MOL0     C 6928   4.734  -0.200  11.471  0.7001 -0.6709 -0.7087
   51MOL0     C 6929   4.839   0.043  11.488  1.3286 -0.5213  0.4239
   51MOL0     C 6930   4.880   0.033  11.631  0.3071  0.3268 -0.0861
   51MOL0     O 6931   4.934   0.147  11.688  0.3328  0.0718  1.3319
   51MOL0     C 6932   5.004   0.142  11.808 -0.9001  0.2052 -0.3012
   51MOL0     C 6933   4.945   0.125  11.934 -0.5203 -0.0329  0.2018
   51MOL0     C 6934   5.027   0.100  12.046 -0.0496 -0.9880  0.3984
   51MOL0     C 6935   5.163   0.108  12.032 -0.5381  0.0340  0.2620
   51MOL0     O 6936   5.232   0.079  12.147  0.1504 -0.2415 -0.0827
   51MOL0     C 6937   5.373   0.080  12.152  0.5140  0.4640  1.5259
   51MOL0     C 6938   5.432   0.062  12.292  0.0140  1.0359  0.2675
   51MOL0     C 6939   5.385   0.172  12.388 -0.4033 -0.2780 -0.6504
   51MOL0     C 6940   5.403   0.313  12.334 -0.7618 -0.8923  0.7136
   51MOL0     C 6941   5.369   0.407  12.449 -0.5498 -0.3919  1.5066
   51MOL0     C 6942   5.395   0.564  12.430 -0.1372  0.7108  0.7703
   51MOL0     C 6943   5.356   0.644  12.557  0.7588 -0.0891 -1.0796
   51MOL0     C 6944   5.457   0.707  12.649  0.2998  0.0559 -0.2883
   51MOL0    Cl 6945   5.588   0.787  12.561 -0.0673 -0.4283 -0.5314
   51MOL0     C 6946   5.225   0.130  11.905  0.9260  0.0322 -0.5000
   51MOL0     C 6947   5.146   0.149  11.790 -0.2323 -0.7131 -0.5094
   51MOL0     O 6948   4.864  -0.070  11.695  0.6019 -0.3504  0.0675
   51MOL0     C 6949   4.856   0.174  11.419  0.2923 -0.0437 -0.0991
   51MOL0     C 6950   4.838   0.178  11.282 -0.4987  0.9772  0.3782
   51MOL0     N 6951   4.520   0.192  10.465  0.0287 -0.5910  0.3195
   51MOL0     N 6952   4.430   0.284  10.440  0.0931  0.2128 -0.2252
   51MOL0     C 6953   4.752   0.886  10.640 -0.0392  0.0205 -0.0659
   51MOL0     C 6954   4.774   0.828  10.763  0.8576 -0.2457 -0.8312
   51MOL0     C 6955   4.848   0.769  11.182  1.0909  0.1575 -0.0106
   51MOL0     C 6956   4.809   0.631  11.192  0.5303 -0.3188  0.2476
   51MOL0     C 6957   4.828   0.557  11.308 -0.4298  0.1684 -0.6471
   51MOL0     C 6958   4.877   0.627  11.421  0.5594  0.1056 -1.0479
   51MOL0     O 6959   4.899   0.544  11.529  0.2473  0.7924  0.6106
   51MOL0     C 6960   4.905   0.611  11.659 -0.9107 -0.0978  0.3422
   51MOL0     C 6961   4.906   0.505  11.769  0.5543  0.1905  0.0648
   51MOL0     C 6962   4.913   0.564  11.910 -0.7566  0.3627  0.1067
   51MOL0     C 6963   4.884   0.476  12.026  0.4302  0.4499  0.3686
   51MOL0     C 6964   4.761   0.402  11.998 -0.5147  0.0429  0.6620
   51MOL0     C 6965   4.668   0.328  11.983 -0.1853  0.0484 -0.4750
   51MOL0     C 6966   4.915   0.757  11.419  0.2535  0.3784  0.4447
   51MOL0     C 6967   4.896   0.834  11.298  0.1057  0.2976 -0.4796
   51MOL0     C 6968   4.928   0.985  11.316  0.2040 -0.2086 -0.5531
   51MOL0     H 6969   4.524   0.953  10.955  0.4456 -0.3573  0.5871
   51MOL0     H 6970   4.469   1.068  10.727 -0.9969  1.4334  0.1909
   51MOL0     H 6971   4.580   0.838  10.443  0.3268  1.1706  1.4644
   51MOL0     H 6972   4.707   0.929  10.370  1.4579  0.9324  2.5165
   51MOL0     H 6973   4.522   1.088  10.284 -2.1611  1.0201  3.8079
   51MOL0     H 6974   4.517   0.918  10.213 -1.6448  1.0411 -0.7931
   51MOL0     H 6975   4.334   1.035  10.439 -0.6908 -1.8863  0.7761
   51MOL0     H 6976   4.283   1.016  10.267 -1.3308 -0.1833  1.5630
   51MOL0     H 6977   4.201   0.817  10.326  1.2589 -0.0723 -3.0486
   51MOL0     H 6978   4.361   0.762  10.320  0.3777  0.9400 -0.0979
   51MOL0     H 6979   4.236   0.890  10.575  2.2059  3.6828 -2.5582
   51MOL0     H 6980   4.383   0.810  10.586 -2.0072  2.5594  3.5199
   51MOL0     H 6981   4.193   0.683  10.662 -0.7788 -1.3994 -0.8859
   51MOL0     H 6982   4.134   0.665  10.505  0.8799 -1.3366  1.0026
   51MOL0     H 6983   4.412   0.569  10.580 -0.4541  0.7787 -0.3745
   51MOL0     H 6984   4.352   0.560  10.420 -1.9007  3.7619 -0.7826
   51MOL0     H 6985   4.228   0.421  10.679 -1.9741 -1.9104 -0.4742
   51MOL0     H 6986   4.166   0.385  10.522 -0.0152  1.0793 -0.4633
   51MOL0     H 6987   4.401   0.262  10.764 -0.4129  0.9573  0.1388
   51MOL0     H 6988   4.703   0.056  10.621  0.9494 -0.8238  0.3470
   51MOL0     H 6989   4.561  -0.039  10.635  3.4309 -0.9535  0.2345
   51MOL0     H 6990   4.606   0.179  10.846 -0.2713  1.5117 -2.4792
   51MOL0     H 6991   4.536   0.016  10.854  0.1315  0.3454 -3.0913
   51MOL0     H 6992   4.765  -0.089  10.785  0.1002 -0.5362  0.5697
   51MOL0     H 6993   4.837   0.057  10.832  1.2059 -2.2012 -1.0142
   51MOL0     H 6994   4.638  -0.088  11.018  0.2775 -0.6063 -2.0219
   51MOL0     H 6995   4.814  -0.119  11.027 -0.2883 -1.7170 -0.2638
   51MOL0     H 6996   4.683  -0.111  11.232 -2.7780  0.8033  1.5162
   51MOL0     H 6997   4.659  -0.174  11.546  0.4946  3.2076 -2.0228
   51MOL0     H 6998   4.815  -0.251  11.522  0.6321 -0.1013 -0.0174
   51MOL0     H 6999   4.695  -0.270  11.397 -1.9272  0.7349 -0.7764
   51MOL0     H 7000   4.836   0.124  11.931 -0.7754  4.3900  0.7586
   51MOL0     H 7001   4.979   0.091  12.143 -0.7983  0.9213  0.2534
   51MOL0     H 7002   5.425  -0.004  12.104  1.0876  0.9463  1.2898
   51MOL0     H 7003   5.415   0.170  12.106  0.6737 -0.8233 -1.0261
   51MOL0     H 7004   5.397  -0.035  12.328 -3.3507  1.5660 -1.1953
   51MOL0     H 7005   5.541   0.061  12.294  0.0059  0.5302  0.8303
   51MOL0     H 7006   5.431   0.155  12.485 -1.9793 -2.0763 -0.1525
   51MOL0     H 7007   5.278   0.158  12.408 -0.6666  0.0995 -1.7210
   51MOL0     H 7008   5.342   0.346  12.249  1.1122  2.5383  0.5029
   51MOL0     H 7009   5.507   0.328  12.303 -1.8460  0.9615 -2.4969
   51MOL0     H 7010   5.273   0.386  12.496 -0.7622  1.7885  2.1528
   51MOL0     H 7011   5.444   0.383  12.524  1.5928 -1.1756 -0.7486
   51MOL0     H 7012   5.322   0.602  12.357 -1.2912  0.3347  1.6845
   51MOL0     H 7013   5.499   0.588  12.406  0.9803 -2.6562  1.7244
   51MOL0     H 7014   5.295   0.576  12.618 -0.6018  2.7794  1.0130
   51MOL0     H 7015   5.293   0.727  12.523  1.6054  0.8160 -0.4675
   51MOL0     H 7016   5.492   0.627  12.714  2.1603 -0.9474 -2.3992
   51MOL0     H 7017   5.414   0.786  12.712  1.1788 -0.0407  0.4533
   51MOL0     H 7018   5.333   0.122  11.902  1.5003  1.2199  5.2800
   51MOL0     H 7019   5.188   0.160  11.691 -0.7640  3.2646 -0.4707
   51MOL0     H 7020   4.883   0.264  11.473  2.9924 -0.6137 -0.3794
   51MOL0     H 7021   4.850   0.268  11.223 -4.4822  1.0214 -0.6632
   51MOL0     H 7022   4.826   0.874  10.562 -0.8876  1.4905 -1.1527
   51MOL0     H 7023   4.864   0.767  10.769  1.8482  1.2994  1.8903
   51MOL0     H 7024   4.765   0.585  11.104  1.9513  0.2040 -0.7678
   51MOL0     H 7025   4.809   0.452  11.328  1.8883  0.1801  2.3267
   51MOL0     H 7026   4.998   0.669  11.655  0.1814 -1.6493  1.5903
   51MOL0     H 7027   4.827   0.678  11.695 -1.8989 -1.7906  1.5037
   51MOL0     H 7028   4.981   0.427  11.752  0.0455 -0.8668  2.3423
   51MOL0     H 7029   4.807   0.459  11.756  0.0215  1.7093 -1.6208
   51MOL0     H 7030   5.017   0.593  11.925 -1.3790  1.5854  2.5233
   51MOL0     H 7031   4.840   0.646  11.913 -0.4113  0.6804 -0.1775
   51MOL0     H 7032   4.881   0.528  12.123 -0.1862  0.1871  0.4948
   51MOL0     H 7033   4.968   0.406  12.022  1.1553  1.3601 -2.5927
   51MOL0     H 7034   4.583   0.264  11.992 -0.5790  0.4575 -1.2341
   51MOL0     H 7035   4.943   0.818  11.504 -2.9976  1.1480  1.1170
   51MOL0     H 7036   4.973   1.010  11.413 -0.7822 -1.9520  0.4063
   51MOL0     H 7037   4.997   1.012  11.235 -0.5258  0.6285 -0.9095
   51MOL0     H 7038   4.842   1.050  11.299 -1.5550 -2.7027 -1.8046
   52MOL0     O 7039   6.305   5.066   2.406 -0.3175 -0.3314 -0.1017
   52MOL0     C 7040   6.243   5.160   2.360 -0.7281 -0.8997  0.0321
   52MOL0     O 7041   6.251   5.192   2.226 -0.5870  0.3114 -0.2249
   52MOL0     C 7042   6.340   5.120   2.148  0.5929  0.5928 -0.0354
   52MOL0     C 7043   6.297   5.026   2.049 -0.6888  0.3508  0.4988
   52MOL0     C 7044   6.398   4.957   1.977  0.5572  0.9937 -0.2283
   52MOL0     C 7045   6.534   4.973   1.996 -0.0520 -0.6391  0.1634
   52MOL0     O 7046   6.621   4.898   1.921  0.9432  1.3162  0.0875
   52MOL0     C 7047   6.763   4.904   1.918  0.2041  0.1202  0.3263
   52MOL0     C 7048   6.813   4.809   2.019  0.1702 -0.0809 -0.7560
   52MOL0     C 7049   6.962   4.784   2.006  0.2397 -0.7796 -0.1007
   52MOL0     C 7050   6.991   4.695   1.883 -0.0602  0.5973  0.0792
   52MOL0     C 7051   7.144   4.640   1.904  0.5517 -0.7494  0.2568
   52MOL0     C 7052   7.169   4.565   1.778  0.3036 -0.2373  0.7949
   52MOL0     C 7053   7.318   4.525   1.748 -0.2255  0.0674  0.3193
   52MOL0     C 7054   7.374   4.441   1.866 -0.0665 -0.2245 -0.7502
   52MOL0     N 7055   7.485   4.352   1.819  0.1151  0.6870 -0.1283
   52MOL0     C 7056   7.470   4.254   1.725  0.5609 -0.0582 -0.3506
   52MOL0     C 7057   7.592   4.233   1.669 -0.3264  0.6389 -0.3811
   52MOL0     C 7058   7.634   4.144   1.559 -0.2669 -0.3010  0.1491
   52MOL0     C 7059   7.643   3.997   1.593 -0.3879  0.0692 -0.2272
   52MOL0     C 7060   7.655   3.917   1.473  0.8718 -0.2881 -0.2703
   52MOL0     C 7061   7.526   3.900   1.393 -0.1152  0.3912 -0.7235
   52MOL0     O 7062   7.529   3.783   1.325 -0.0074 -0.0624 -0.1407
   52MOL0     C 7063   7.579   3.779   1.197  0.0381  0.0128 -0.2596
   52MOL0     C 7064   7.510   3.699   1.104  0.1543 -0.2358 -0.4126
   52MOL0     C 7065   7.539   3.685   0.969  0.3164  1.1106  1.4104
   52MOL0     C 7066   7.461   3.575   0.890  0.6355 -0.2558  0.6604
   52MOL0     C 7067   7.647   3.762   0.920 -0.7714 -0.1047  0.0885
   52MOL0     C 7068   7.713   3.756   0.782  1.0452 -0.1249  0.0896
   52MOL0     O 7069   7.681   3.658   0.697 -0.1726  0.1913  0.2243
   52MOL0     C 7070   7.740   3.660   0.566 -0.8971  0.6264  0.3989
   52MOL0     C 7071   7.776   3.529   0.524 -0.1399  0.2166  0.4596
   52MOL0     C 7072   7.825   3.519   0.389  0.6562 -0.3528  0.8235
   52MOL0     C 7073   7.855   3.632   0.307 -0.4677  0.9084 -0.0816
   52MOL0     O 7074   7.892   3.603   0.184  0.3386  0.2116  0.5687
   52MOL0     C 7075   7.929   3.713   0.101 -0.1153  0.5054  0.3322
   52MOL0     C 7076   8.009   3.656  -0.025  0.2145 -0.2068  0.4934
   52MOL0     C 7077   8.100   3.539  -0.001  0.5308 -0.5103 -0.3843
   52MOL0     C 7078   8.215   3.591   0.083 -0.2475  0.4010 -0.6987
   52MOL0     C 7079   8.338   3.498   0.080  1.1301  0.1762 -0.3983
   52MOL0     C 7080   8.451   3.556   0.167 -0.3275  0.1781  0.3773
   52MOL0     C 7081   8.574   3.471   0.184 -0.5471 -1.1499  0.3722
   52MOL0     C 7082   8.656   3.522   0.304 -0.8265  0.3141  0.8792
   52MOL0    Cl 7083   8.684   3.688   0.318  0.1149  0.3094  0.2075
   52MOL0     C 7084   7.811   3.757   0.352 -0.0915  0.5038  0.0750
   52MOL0     C 7085   7.754   3.765   0.479 -0.6414  0.2009  1.0911
   52MOL0     O 7086   7.784   3.847   0.758 -0.2272 -0.1932  1.3157
   52MOL0     C 7087   7.720   3.841   1.012  0.7043  0.4531 -0.2459
   52MOL0     C 7088   7.681   3.853   1.148 -0.2801  0.6998  0.4225
   52MOL0     N 7089   7.669   4.326   1.735 -0.6179  0.1663 -0.5946
   52MOL0     N 7090   7.616   4.387   1.826 -0.5625 -0.1516 -0.1021
   52MOL0     C 7091   6.572   5.078   2.082  0.3028 -0.3910  0.0504
   52MOL0     C 7092   6.476   5.146   2.162 -0.9143 -0.1934 -0.4121
   52MOL0     C 7093   6.146   5.230   2.447  0.0914 -0.2871  0.7551
   52MOL0     C 7094   6.022   5.275   2.391  0.4388 -0.4488  0.0459
   52MOL0     C 7095   5.922   5.336   2.466  0.3458  1.0416 -0.4406
   52MOL0     C 7096   5.934   5.341   2.598 -0.9556  0.2439 -1.3713
   52MOL0     O 7097   5.820   5.393   2.654  0.4175 -0.4041  0.0705
   52MOL0     C 7098   5.812   5.375   2.802 -0.9424  0.8357  0.2693
   52MOL0     C 7099   5.765   5.240   2.871 -0.1014 -0.4139 -0.3761
   52MOL0     C 7100   5.627   5.204   2.814  0.5945 -0.1395 -0.5846
   52MOL0     C 7101   5.627   5.079   2.742  1.4520 -0.5142 -0.0917
   52MOL0     C 7102   5.638   4.957   2.815  0.9285  0.2064  0.6771
   52MOL0     C 7103   5.639   4.837   2.862 -0.6200  0.2478 -0.5452
   52MOL0     C 7104   6.059   5.313   2.666 -0.4446  0.4769  1.7010
   52MOL0     C 7105   6.154   5.251   2.584 -0.5703 -0.3345 -0.5267
   52MOL0     C 7106   6.288   5.213   2.653 -0.0145 -0.3954  0.1706
   52MOL0     H 7107   6.192   5.003   2.033 -0.2987  0.3958 -2.8298
   52MOL0     H 7108   6.358   4.887   1.904  0.8222 -0.5104  1.0377
   52MOL0     H 7109   6.801   5.005   1.937  0.6505 -0.2194  1.3296
   52MOL0     H 7110   6.795   4.871   1.819 -1.9620  2.7157 -1.3825
   52MOL0     H 7111   6.793   4.849   2.119  3.3692 -0.1386  0.0147
   52MOL0     H 7112   6.761   4.714   2.009 -2.2868  1.0376  0.4610
   52MOL0     H 7113   7.007   4.883   1.992  2.5092 -1.7329 -0.1125
   52MOL0     H 7114   7.006   4.739   2.096 -0.3740  1.7303  1.5342
   52MOL0     H 7115   6.916   4.616   1.877  1.3120 -0.7024 -0.8569
   52MOL0     H 7116   6.981   4.751   1.789 -0.1261  3.4941  1.7104
   52MOL0     H 7117   7.164   4.571   1.986  6.5031 -2.2671 -1.9314
   52MOL0     H 7118   7.208   4.729   1.904 -2.4384  1.6375 -2.1076
   52MOL0     H 7119   7.101   4.479   1.771  0.3886 -0.2263 -0.2678
   52MOL0     H 7120   7.134   4.626   1.695 -0.5606 -2.2867 -0.4097
   52MOL0     H 7121   7.383   4.612   1.738  1.0053 -0.6754  1.5147
   52MOL0     H 7122   7.322   4.468   1.654  1.6181 -2.6631  1.9189
   52MOL0     H 7123   7.395   4.506   1.951 -0.3149  0.0753 -0.9155
   52MOL0     H 7124   7.288   4.389   1.908  0.0672 -0.0351 -0.2418
   52MOL0     H 7125   7.384   4.191   1.705  0.8484 -0.6210  0.1702
   52MOL0     H 7126   7.727   4.188   1.521  0.0918  1.3029  2.6577
   52MOL0     H 7127   7.552   4.157   1.489 -1.9404 -0.3374  2.0140
   52MOL0     H 7128   7.731   3.979   1.655 -0.4854  1.3538  0.3238
   52MOL0     H 7129   7.566   3.968   1.665  0.2702 -4.4107 -1.0376
   52MOL0     H 7130   7.732   3.960   1.409  1.1350  1.6177  1.2331
   52MOL0     H 7131   7.689   3.817   1.502  2.0859  0.9003  2.9877
   52MOL0     H 7132   7.448   3.895   1.469  1.5186  2.3569  1.2427
   52MOL0     H 7133   7.512   3.977   1.316  0.7981  0.2604 -1.0321
   52MOL0     H 7134   7.436   3.632   1.148  0.9756 -1.6960 -1.1793
   52MOL0     H 7135   7.488   3.475   0.923 -4.1646 -1.4523  1.7195
   52MOL0     H 7136   7.467   3.584   0.781  1.6104 -1.3568  0.6136
   52MOL0     H 7137   7.353   3.582   0.906  0.2935 -3.1270  0.1593
   52MOL0     H 7138   7.769   3.448   0.596 -1.6349 -0.3843 -0.3266
   52MOL0     H 7139   7.837   3.425   0.336 -0.8840  0.0698 -0.3183
   52MOL0     H 7140   7.833   3.757   0.071  0.0741 -1.3160 -3.5646
   52MOL0     H 7141   7.989   3.785   0.157 -1.3911  1.9342 -0.0665
   52MOL0     H 7142   7.948   3.616  -0.107  3.8634 -4.0727 -0.6234
   52MOL0     H 7143   8.054   3.742  -0.075 -2.5234  0.7218 -0.6131
   52MOL0     H 7144   8.147   3.500  -0.093  0.4146 -1.0155 -0.2329
   52MOL0     H 7145   8.048   3.462   0.056  2.1704 -1.1946  0.2538
   52MOL0     H 7146   8.187   3.603   0.188  0.6705  0.7618 -0.4850
   52MOL0     H 7147   8.250   3.684   0.036  2.5391 -0.0108  0.3727
   52MOL0     H 7148   8.298   3.402   0.116 -5.3891  2.5911  0.1472
   52MOL0     H 7149   8.373   3.467  -0.019  0.7507  0.4940 -0.6349
   52MOL0     H 7150   8.414   3.585   0.266  0.8226  4.2608 -0.2013
   52MOL0     H 7151   8.483   3.651   0.122  2.6911 -0.4616  0.9908
   52MOL0     H 7152   8.635   3.472   0.093 -1.5133 -2.3483 -0.3232
   52MOL0     H 7153   8.535   3.369   0.190  0.1179 -1.4714 -0.6180
   52MOL0     H 7154   8.743   3.458   0.319 -0.4463 -0.0289 -2.1819
   52MOL0     H 7155   8.589   3.504   0.389  0.8257 -4.6004  1.4356
   52MOL0     H 7156   7.806   3.848   0.294 -3.0066 -0.3452 -1.1828
   52MOL0     H 7157   7.746   3.866   0.518  1.1759  0.6484  0.4013
   52MOL0     H 7158   7.796   3.907   0.972 -1.3445  1.4951 -2.7215
   52MOL0     H 7159   7.732   3.917   1.220  0.3172  0.0812  0.5519
   52MOL0     H 7160   6.678   5.102   2.092  0.5121 -1.4534  0.6045
   52MOL0     H 7161   6.495   5.215   2.243  1.3711 -0.0170 -1.0319
   52MOL0     H 7162   6.002   5.252   2.287 -0.0393 -0.4585  0.1355
   52MOL0     H 7163   5.834   5.371   2.414  1.4420  4.2194 -0.3961
   52MOL0     H 7164   5.903   5.402   2.856 -0.6167  2.8617 -1.1839
   52MOL0     H 7165   5.746   5.458   2.829 -0.7911  0.8561  0.5771
   52MOL0     H 7166   5.758   5.270   2.976 -2.4077  1.3668 -0.9541
   52MOL0     H 7167   5.839   5.162   2.852  0.4136 -0.3427  1.2220
   52MOL0     H 7168   5.557   5.198   2.898  1.8215 -0.0241  0.4654
   52MOL0     H 7169   5.591   5.285   2.749  0.0911  0.4805  0.4408
   52MOL0     H 7170   5.700   5.083   2.661 -0.4681  0.6531 -1.8866
   52MOL0     H 7171   5.529   5.085   2.693  0.8255  1.0346  1.2561
   52MOL0     H 7172   5.656   4.736   2.892  0.3219  0.0422 -1.6774
   52MOL0     H 7173   6.079   5.330   2.771 -0.5133 -1.9698  2.1563
   52MOL0     H 7174   6.301   5.104   2.651  1.3039 -0.3001  1.9149
   52MOL0     H 7175   6.362   5.259   2.588  0.0325 -1.7175 -0.7736
   52MOL0     H 7176   6.297   5.251   2.755  1.4669  1.0825 -0.4737
   53MOL0     O 7177   2.967   3.772   2.533 -0.2168 -0.1792 -0.4083
   53MOL0     C 7178   2.894   3.839   2.611 -0.9411  0.7110 -0.4054
   53MOL0     O 7179   2.847   3.796   2.727  0.6608 -0.0475  0.2017
   53MOL0     C 7180   2.868   3.674   2.799  0.3335 -0.7762  1.1435
   53MOL0     C 7181   2.826   3.676   2.934 -0.3189  0.3346 -0.8536
   53MOL0     C 7182   2.868   3.577   3.023  0.5078 -0.0278  0.8083
   53MOL0     C 7183   2.948   3.477   2.973 -0.3399  0.9711  0.1525
   53MOL0     O 7184   2.989   3.371   3.048  0.4446 -0.4916  0.2351
   53MOL0     C 7185   3.106   3.379   3.131  0.1308  1.0373 -0.4474
   53MOL0     C 7186   3.171   3.242   3.146  0.9817  0.5025 -0.9508
   53MOL0     C 7187   3.320   3.247   3.102 -0.0102  0.5749 -0.0514
   53MOL0     C 7188   3.338   3.276   2.947 -0.4392  0.0655  0.7089
   53MOL0     C 7189   3.490   3.253   2.906 -0.0128  0.7294  0.0006
   53MOL0     C 7190   3.523   3.310   2.768  0.1049 -0.2062  0.0232
   53MOL0     C 7191   3.659   3.259   2.717 -0.6818  0.0929  0.8372
   53MOL0     C 7192   3.665   3.289   2.564 -0.1465 -0.6332 -0.3930
   53MOL0     N 7193   3.795   3.252   2.513 -0.1114  0.0755  0.2202
   53MOL0     C 7194   3.814   3.121   2.471  1.4209  0.2752 -0.0859
   53MOL0     C 7195   3.934   3.117   2.417  0.7368 -0.0423  0.5152
   53MOL0     C 7196   3.983   2.996   2.352 -1.0030 -0.3722  0.1086
   53MOL0     C 7197   4.101   2.935   2.428  0.0662  0.5294 -0.0656
   53MOL0     C 7198   4.083   2.915   2.574  0.1859  0.3433 -1.2253
   53MOL0     C 7199   4.210   2.930   2.650  0.2312 -0.4072  0.3052
   53MOL0     O 7200   4.265   3.061   2.644 -0.4239 -0.5241 -0.6768
   53MOL0     C 7201   4.375   3.067   2.729  0.2287  0.7696  0.9556
   53MOL0     C 7202   4.504   3.031   2.681  0.5209 -0.7533  0.3857
   53MOL0     C 7203   4.617   3.053   2.750 -0.2614  1.2196  0.0623
   53MOL0     C 7204   4.747   3.011   2.690 -0.4088 -0.8779 -0.1981
   53MOL0     C 7205   4.616   3.116   2.872  0.1541 -0.4652  0.3526
   53MOL0     C 7206   4.739   3.141   2.961 -0.4791 -0.6593  0.0978
   53MOL0     O 7207   4.860   3.101   2.915  0.0827  0.2153 -1.1330
   53MOL0     C 7208   4.974   3.119   2.995 -0.1089  0.6192 -0.5222
   53MOL0     C 7209   5.014   3.238   3.063 -0.9654  0.4066  0.8711
   53MOL0     C 7210   5.136   3.238   3.131 -0.2220  0.1937 -0.3147
   53MOL0     C 7211   5.213   3.128   3.148 -0.0531  0.2708 -0.5866
   53MOL0     O 7212   5.331   3.120   3.227  0.4449  0.5311 -0.0317
   53MOL0     C 7213   5.334   3.188   3.353 -0.1383 -0.3542  0.5780
   53MOL0     C 7214   5.444   3.296   3.356  0.0393 -1.3752 -0.2443
   53MOL0     C 7215   5.438   3.410   3.250  1.3661  0.2950 -0.1294
   53MOL0     C 7216   5.560   3.508   3.250 -0.3815  0.5363 -0.3802
   53MOL0     C 7217   5.557   3.595   3.124  0.5787 -0.0301  0.2319
   53MOL0     C 7218   5.678   3.679   3.103 -0.6088  0.1029  0.6029
   53MOL0     C 7219   5.674   3.757   2.968 -0.3996 -0.1489  0.1229
   53MOL0     C 7220   5.777   3.870   2.964 -1.0070 -0.3170  0.6579
   53MOL0    Cl 7221   5.764   3.992   3.084  0.1639  0.3441 -0.1690
   53MOL0     C 7222   5.179   3.011   3.087 -0.4140 -0.1357 -0.4430
   53MOL0     C 7223   5.058   2.999   3.012  1.3632 -1.0188  0.7361
   53MOL0     O 7224   4.727   3.196   3.072  0.5124 -0.5557 -0.5631
   53MOL0     C 7225   4.487   3.152   2.919 -1.0053 -0.3401  0.4878
   53MOL0     C 7226   4.365   3.128   2.856  1.1195  0.6691 -0.8181
   53MOL0     N 7227   3.996   3.242   2.433 -0.4619 -0.2183 -0.5781
   53MOL0     N 7228   3.921   3.323   2.495  0.0352  0.8985 -0.6987
   53MOL0     C 7229   2.987   3.477   2.843 -1.1255  0.7937 -0.9156
   53MOL0     C 7230   2.947   3.571   2.747 -0.3709  0.4672  0.6184
   53MOL0     C 7231   2.847   3.966   2.569 -0.1177 -0.6249 -0.3202
   53MOL0     C 7232   2.955   4.053   2.517  0.3866  1.3477 -0.1486
   53MOL0     C 7233   2.930   4.172   2.463  0.4961  0.8275 -0.3852
   53MOL0     C 7234   2.802   4.223   2.471 -0.0124 -0.0463  0.1308
   53MOL0     O 7235   2.784   4.334   2.395 -0.1712 -0.3471 -0.0547
   53MOL0     C 7236   2.665   4.340   2.321  0.3332 -0.7276 -0.5680
   53MOL0     C 7237   2.644   4.216   2.232 -0.1232 -0.9760  0.1280
   53MOL0     C 7238   2.522   4.222   2.139  0.1681 -0.8701 -1.1763
   53MOL0     C 7239   2.532   4.154   2.007 -0.8917 -0.2260 -0.2268
   53MOL0     C 7240   2.639   4.215   1.925  0.2860 -0.1619  0.5609
   53MOL0     C 7241   2.725   4.274   1.869  1.0691 -0.2904  0.5583
   53MOL0     C 7242   2.703   4.156   2.539  0.2278  0.0821 -0.0478
   53MOL0     C 7243   2.719   4.023   2.588 -0.2539 -1.1759 -0.4305
   53MOL0     C 7244   2.606   3.963   2.668 -0.6852  0.3277 -0.4455
   53MOL0     H 7245   2.755   3.753   2.962  0.9580  2.0872 -2.1924
   53MOL0     H 7246   2.836   3.577   3.126  3.9028  2.2033  2.0337
   53MOL0     H 7247   3.076   3.411   3.231 -0.2567 -0.1668 -0.1567
   53MOL0     H 7248   3.181   3.455   3.109  0.8850  1.1323  2.0912
   53MOL0     H 7249   3.156   3.198   3.245  1.4846  0.4722 -0.8840
   53MOL0     H 7250   3.125   3.167   3.081  0.5818  1.7526 -2.1509
   53MOL0     H 7251   3.371   3.335   3.144  1.5728  1.9465 -4.3375
   53MOL0     H 7252   3.366   3.151   3.130 -0.4196  0.9892  2.2154
   53MOL0     H 7253   3.297   3.201   2.879 -0.2897 -0.8496  1.6081
   53MOL0     H 7254   3.293   3.374   2.924 -2.4578 -0.2023  3.0225
   53MOL0     H 7255   3.515   3.147   2.905 -2.1917  0.1310  1.4742
   53MOL0     H 7256   3.565   3.300   2.971  1.0926 -0.5470 -0.2959
   53MOL0     H 7257   3.442   3.271   2.705 -0.6617 -1.7407  1.8866
   53MOL0     H 7258   3.511   3.419   2.766 -1.5500 -0.3674  0.3284
   53MOL0     H 7259   3.672   3.153   2.742  0.2363  0.3168  1.3786
   53MOL0     H 7260   3.747   3.299   2.769  2.0724 -1.5345 -2.1819
   53MOL0     H 7261   3.587   3.232   2.512  1.2521 -1.6069 -1.4954
   53MOL0     H 7262   3.641   3.395   2.549  0.0982 -0.4524  0.4706
   53MOL0     H 7263   3.742   3.040   2.470  0.1116  1.3475  1.3398
   53MOL0     H 7264   4.016   3.023   2.251  1.4951 -0.1535  0.9251
   53MOL0     H 7265   3.906   2.922   2.330 -0.2250 -1.4724  0.9880
   53MOL0     H 7266   4.125   2.840   2.379  0.9683  2.4822 -3.7225
   53MOL0     H 7267   4.186   2.996   2.397  0.8804  0.5519  2.0258
   53MOL0     H 7268   4.003   2.972   2.620 -0.4517 -2.2207  1.1151
   53MOL0     H 7269   4.056   2.812   2.600  1.3544 -0.0069 -1.3264
   53MOL0     H 7270   4.179   2.898   2.750  0.7849 -1.2713  0.2110
   53MOL0     H 7271   4.284   2.858   2.613 -0.6482 -0.0566 -2.3255
   53MOL0     H 7272   4.504   2.994   2.579  2.2880  2.5963 -0.9796
   53MOL0     H 7273   4.737   2.972   2.589  2.1421 -1.2411 -0.3875
   53MOL0     H 7274   4.799   2.939   2.755  0.7808  2.2890  2.6858
   53MOL0     H 7275   4.812   3.097   2.672  1.7715 -2.3956  0.0596
   53MOL0     H 7276   4.955   3.329   3.068  0.7251  1.5087  1.6515
   53MOL0     H 7277   5.145   3.334   3.181 -1.1451  1.1932 -1.9735
   53MOL0     H 7278   5.234   3.224   3.378 -0.7320  2.7126 -4.5729
   53MOL0     H 7279   5.373   3.108   3.416 -1.5448 -0.8280  0.8832
   53MOL0     H 7280   5.451   3.333   3.459 -3.3824  0.0626 -0.3746
   53MOL0     H 7281   5.542   3.251   3.338 -0.0225 -1.0341 -1.5661
   53MOL0     H 7282   5.348   3.467   3.273  1.4475  0.0331  0.8851
   53MOL0     H 7283   5.432   3.365   3.150 -0.0978  0.8654 -0.3274
   53MOL0     H 7284   5.648   3.444   3.249  1.2588  2.6555  0.7679
   53MOL0     H 7285   5.564   3.568   3.342  1.1214  5.5681 -3.2987
   53MOL0     H 7286   5.549   3.538   3.031  2.5998  0.4989 -0.3187
   53MOL0     H 7287   5.464   3.651   3.138 -0.2138 -1.7419  2.3826
   53MOL0     H 7288   5.765   3.615   3.088  0.4595  1.6598 -0.2061
   53MOL0     H 7289   5.703   3.746   3.185  1.0971 -1.3741  1.3546
   53MOL0     H 7290   5.573   3.791   2.943 -0.8677 -2.0065 -0.6454
   53MOL0     H 7291   5.708   3.685   2.893 -1.1977  3.0128 -3.6149
   53MOL0     H 7292   5.769   3.915   2.864 -2.3268 -1.8436  0.0375
   53MOL0     H 7293   5.883   3.842   2.969 -0.0553  2.7145  0.0367
   53MOL0     H 7294   5.236   2.920   3.105  0.6084  0.5013 -0.3807
   53MOL0     H 7295   5.039   2.908   2.957 -1.0595  0.6815 -1.5344
   53MOL0     H 7296   4.477   3.213   3.008 -1.3877 -0.1497  0.3165
   53MOL0     H 7297   4.267   3.171   2.873  2.4283  3.5144  0.1318
   53MOL0     H 7298   3.046   3.392   2.810 -3.9994 -0.1594 -4.2941
   53MOL0     H 7299   2.973   3.553   2.643  3.2754  3.5820  0.7729
   53MOL0     H 7300   3.058   4.019   2.507 -0.4963 -1.2433 -1.4407
   53MOL0     H 7301   3.013   4.221   2.413  1.7143 -2.6098 -2.0926
   53MOL0     H 7302   2.578   4.351   2.387 -0.6921 -2.9851 -1.4278
   53MOL0     H 7303   2.669   4.433   2.265 -1.4301  1.8514  3.1595
   53MOL0     H 7304   2.639   4.123   2.290 -2.2232 -1.1785 -0.2813
   53MOL0     H 7305   2.740   4.209   2.179  0.5674 -0.6346  1.3144
   53MOL0     H 7306   2.453   4.164   2.200 -1.4638 -0.0181 -2.1605
   53MOL0     H 7307   2.494   4.322   2.105 -2.7580 -1.6587 -1.3422
   53MOL0     H 7308   2.439   4.163   1.951 -0.1226  1.4728 -1.3214
   53MOL0     H 7309   2.549   4.046   2.018  0.1048 -0.1033 -0.4498
   53MOL0     H 7310   2.804   4.312   1.807  0.1952  1.2913  0.3565
   53MOL0     H 7311   2.596   4.178   2.538  0.3011  0.6241  1.4295
   53MOL0     H 7312   2.606   3.858   2.637  1.6646 -0.1275  0.8773
   53MOL0     H 7313   2.636   3.971   2.772 -1.2517  0.0282 -0.2530
   53MOL0     H 7314   2.506   4.005   2.650  0.1775  1.8725 -1.9524
   54MOL0     O 7315   5.805  10.469   5.712  1.2412  0.2715  0.5941
   54MOL0     C 7316   5.689  10.432   5.697  0.5705  0.1466  0.0540
   54MOL0     O 7317   5.588  10.492   5.620 -0.0733  0.8453  0.0054
   54MOL0     C 7318   5.634  10.582   5.525  0.0462 -0.0449 -0.2671
   54MOL0     C 7319   5.600  10.568   5.390 -0.9612  0.0554  0.0817
   54MOL0     C 7320   5.650  10.663   5.294 -0.3937 -0.1053  0.0308
   54MOL0     C 7321   5.716  10.785   5.328 -0.5953 -1.0699  0.7199
   54MOL0     O 7322   5.767  10.891   5.247 -0.1535 -0.2252 -0.2026
   54MOL0     C 7323   5.681  10.921   5.135 -0.3690  0.0259  0.4101
   54MOL0     C 7324   5.673  11.078   5.120 -0.0506  0.3077  0.1275
   54MOL0     C 7325   5.541  11.129   5.075 -0.4475 -0.7821 -0.5899
   54MOL0     C 7326   5.535  11.280   5.051  0.2960  1.2141 -0.1127
   54MOL0     C 7327   5.395  11.317   5.011  0.6410  0.8457  0.2610
   54MOL0     C 7328   5.373  11.462   5.010  0.3854  0.1152  0.3889
   54MOL0     C 7329   5.234  11.493   4.937  0.3079  0.6003  0.3168
   54MOL0     C 7330   5.161  11.613   4.989 -0.2226  0.8120  0.9971
   54MOL0     N 7331   5.066  11.660   4.895  0.0848  0.2071  0.1363
   54MOL0     C 7332   5.062  11.777   4.827 -0.2833 -0.1912  0.3210
   54MOL0     C 7333   4.979  11.761   4.722  0.8731  0.9788 -0.8056
   54MOL0     C 7334   4.933  11.874   4.626  0.5318 -1.0999 -0.3761
   54MOL0     C 7335   4.931  12.020   4.687  0.9553 -0.4982  0.0862
   54MOL0     C 7336   5.059  12.104   4.678  0.7894 -0.2138 -0.4515
   54MOL0     C 7337   5.049  12.238   4.772  0.5436  0.4564 -0.0082
   54MOL0     O 7338   4.997  12.219   4.903 -0.0533  0.2073  0.6568
   54MOL0     C 7339   5.064  12.144   4.992 -0.0691  0.6613 -0.8496
   54MOL0     C 7340   5.195  12.088   4.982  0.1828 -0.4830 -0.3144
   54MOL0     C 7341   5.232  11.980   5.062  0.4411  1.0497  0.6411
   54MOL0     C 7342   5.374  11.950   5.044 -0.7242  0.3098  0.4239
   54MOL0     C 7343   5.154  11.929   5.166  0.5955 -1.3249 -0.0580
   54MOL0     C 7344   5.181  11.823   5.271 -0.1018  0.8173  0.2160
   54MOL0     O 7345   5.095  11.792   5.377  0.6989 -0.0078  0.3899
   54MOL0     C 7346   5.126  11.698   5.478  0.4030  0.4134 -0.1885
   54MOL0     C 7347   5.028  11.595   5.496  0.2713 -0.2123  0.5489
   54MOL0     C 7348   5.047  11.498   5.595  0.0169 -0.1586 -0.3625
   54MOL0     C 7349   5.168  11.496   5.675  1.0168 -1.0072 -0.0726
   54MOL0     O 7350   5.183  11.408   5.776 -0.0194  0.3007 -0.3947
   54MOL0     C 7351   5.130  11.277   5.758  0.5680  0.1952  0.9996
   54MOL0     C 7352   5.202  11.184   5.856  0.8765  0.2449 -0.4708
   54MOL0     C 7353   5.353  11.180   5.834 -0.4477  0.2058  0.5082
   54MOL0     C 7354   5.421  11.049   5.890  0.8999  0.1911  0.3023
   54MOL0     C 7355   5.568  11.069   5.878 -0.2715  0.2773  0.8431
   54MOL0     C 7356   5.652  10.955   5.921 -0.0974 -0.3909  0.2942
   54MOL0     C 7357   5.792  10.995   5.934  0.0766  0.1461 -0.6767
   54MOL0     C 7358   5.876  10.870   5.973 -0.0778  0.4968  0.6098
   54MOL0    Cl 7359   5.832  10.794   6.134  0.1387 -0.3450  0.2250
   54MOL0     C 7360   5.249  11.600   5.666  0.1726 -0.6552  0.2883
   54MOL0     C 7361   5.238  11.702   5.565 -0.2522 -0.1289  0.4610
   54MOL0     O 7362   5.298  11.776   5.266  0.4265  0.9351  0.0776
   54MOL0     C 7363   5.023  11.987   5.176 -1.3602  0.8669 -1.4897
   54MOL0     C 7364   4.985  12.097   5.098  0.3333  0.0771 -0.7329
   54MOL0     N 7365   4.916  11.634   4.737  0.3288 -0.2068 -0.3463
   54MOL0     N 7366   4.979  11.566   4.834 -0.9407 -0.4132 -0.0521
   54MOL0     C 7367   5.739  10.802   5.465  0.4734 -0.2303 -0.0153
   54MOL0     C 7368   5.719  10.700   5.562 -0.7196  0.1042  0.6024
   54MOL0     C 7369   5.641  10.326   5.785 -1.1079 -0.6174  0.1257
   54MOL0     C 7370   5.604  10.205   5.729 -0.1966  0.9635 -0.1677
   54MOL0     C 7371   5.558  10.102   5.810  0.3642 -0.6731 -0.1198
   54MOL0     C 7372   5.551  10.113   5.946  0.3580  0.6468  0.3940
   54MOL0     O 7373   5.506  10.021   6.033  0.1714  0.4427  0.0396
   54MOL0     C 7374   5.465   9.899   5.980 -0.2364  0.4113 -0.9627
   54MOL0     C 7375   5.575   9.787   5.974  0.2922  1.0745 -0.5792
   54MOL0     C 7376   5.646   9.748   6.107 -0.6697  0.6287  0.1990
   54MOL0     C 7377   5.566   9.723   6.239  0.5999  0.2014 -0.5235
   54MOL0     C 7378   5.645   9.699   6.357 -0.0169  0.1451  1.0310
   54MOL0     C 7379   5.715   9.675   6.456 -0.0553  0.2560  0.4563
   54MOL0     C 7380   5.589  10.232   6.005 -0.8220 -0.4061  0.7741
   54MOL0     C 7381   5.641  10.339   5.929  0.3779  0.2050 -0.9208
   54MOL0     C 7382   5.684  10.474   6.007 -0.4903 -0.2495 -0.1478
   54MOL0     H 7383   5.544  10.479   5.364 -0.3803  0.4358 -2.7258
   54MOL0     H 7384   5.643  10.635   5.189 -1.9450  2.3954 -0.6147
   54MOL0     H 7385   5.579  10.883   5.149 -1.2794  1.7678 -1.0214
   54MOL0     H 7386   5.721  10.865   5.049 -0.8588 -1.8135  1.3232
   54MOL0     H 7387   5.698  11.125   5.215 -0.7446 -2.2902  1.6803
   54MOL0     H 7388   5.749  11.121   5.053  0.9654  1.1792  1.7615
   54MOL0     H 7389   5.500  11.079   4.987 -0.1172 -2.3145  0.0888
   54MOL0     H 7390   5.467  11.106   5.152 -2.2932  0.4464 -1.9411
   54MOL0     H 7391   5.546  11.333   5.146  0.1005 -2.5461  2.1698
   54MOL0     H 7392   5.600  11.303   4.966 -2.6581  1.1295 -2.5639
   54MOL0     H 7393   5.322  11.269   5.077  0.1125 -1.4784 -1.8386
   54MOL0     H 7394   5.378  11.275   4.912  2.7207 -0.0101  0.2149
   54MOL0     H 7395   5.379  11.503   5.111 -1.6126 -3.1617  2.0214
   54MOL0     H 7396   5.456  11.515   4.962  0.7755 -0.2835  0.6097
   54MOL0     H 7397   5.166  11.412   4.965  1.6288 -0.9695 -0.8087
   54MOL0     H 7398   5.246  11.490   4.828  0.3666 -2.2183  0.3315
   54MOL0     H 7399   5.110  11.589   5.083 -0.2818 -0.2200  0.7134
   54MOL0     H 7400   5.238  11.687   5.014 -2.4358  3.6630 -0.1295
   54MOL0     H 7401   5.115  11.871   4.844 -0.2115 -0.3513  1.0471
   54MOL0     H 7402   4.837  11.854   4.576 -1.6876  1.3898  2.5189
   54MOL0     H 7403   5.007  11.882   4.546 -0.0253  0.1020 -0.8025
   54MOL0     H 7404   4.852  12.081   4.642 -1.0870 -1.5123  2.1567
   54MOL0     H 7405   4.910  12.007   4.793 -0.3549 -2.2851 -0.3490
   54MOL0     H 7406   5.144  12.038   4.698 -0.6200 -1.2070  3.0164
   54MOL0     H 7407   5.068  12.135   4.573 -2.6592  3.1158 -0.0023
   54MOL0     H 7408   5.141  12.296   4.772  0.8321  0.3519 -4.8088
   54MOL0     H 7409   4.974  12.300   4.722  2.1169  2.5572  0.1221
   54MOL0     H 7410   5.252  12.141   4.907  3.0116  1.3192  2.7935
   54MOL0     H 7411   5.428  11.979   5.135 -0.5282 -1.6501  0.9804
   54MOL0     H 7412   5.417  12.013   4.965 -0.1081 -1.1568 -0.4497
   54MOL0     H 7413   5.392  11.845   5.017 -2.1582  0.9638 -3.8191
   54MOL0     H 7414   4.939  11.595   5.433  0.2740  3.2761  0.3652
   54MOL0     H 7415   4.979  11.416   5.612 -0.9891  0.7550  0.1206
   54MOL0     H 7416   5.022  11.276   5.777  0.1936 -0.3712 -0.9114
   54MOL0     H 7417   5.149  11.235   5.659 -0.7263  0.0298  0.8057
   54MOL0     H 7418   5.185  11.195   5.963  0.2614  2.4026 -0.7308
   54MOL0     H 7419   5.162  11.084   5.837  0.2139  0.2704  0.6991
   54MOL0     H 7420   5.388  11.261   5.897  0.4975 -0.2837  0.6262
   54MOL0     H 7421   5.380  11.188   5.728 -0.6104  0.0625  0.4543
   54MOL0     H 7422   5.383  10.960   5.840  1.7939  1.4800 -2.9368
   54MOL0     H 7423   5.393  11.047   5.996 -0.2930 -0.6148 -0.0096
   54MOL0     H 7424   5.605  11.093   5.778 -2.6424 -2.1948 -0.7613
   54MOL0     H 7425   5.585  11.153   5.946 -0.1226  0.8107  0.1470
   54MOL0     H 7426   5.641  10.882   5.840 -0.6603  3.4466 -3.5049
   54MOL0     H 7427   5.624  10.919   6.020 -0.3257  0.7866  0.6687
   54MOL0     H 7428   5.805  11.064   6.018  4.1324 -3.0203  1.6656
   54MOL0     H 7429   5.839  11.038   5.845 -1.6036 -1.0834 -2.2094
   54MOL0     H 7430   5.980  10.906   5.970  0.4173 -0.9200 -1.3794
   54MOL0     H 7431   5.875  10.783   5.906 -0.1126 -2.7682  4.5017
   54MOL0     H 7432   5.337  11.602   5.730  0.0060 -0.8833  0.5269
   54MOL0     H 7433   5.308  11.784   5.562  0.2342 -0.4690  1.7262
   54MOL0     H 7434   4.948  11.955   5.246 -0.5482  0.0883 -0.9633
   54MOL0     H 7435   4.883  12.131   5.112 -0.8147 -3.3245 -0.1418
   54MOL0     H 7436   5.800  10.885   5.498 -0.1969 -0.9588  3.4714
   54MOL0     H 7437   5.751  10.719   5.664  0.5236  0.3906  0.1879
   54MOL0     H 7438   5.633  10.177   5.629 -1.6626 -0.5012 -0.2299
   54MOL0     H 7439   5.559  10.005   5.761 -0.5940 -2.5829  3.2924
   54MOL0     H 7440   5.388   9.866   6.049  0.4118  0.3704 -0.2461
   54MOL0     H 7441   5.410   9.912   5.886 -2.1693  1.2435  0.2408
   54MOL0     H 7442   5.657   9.800   5.902  0.0208  0.4385 -1.0072
   54MOL0     H 7443   5.522   9.698   5.940 -1.6992  1.5522  1.0663
   54MOL0     H 7444   5.707   9.659   6.085 -2.0006 -0.1628 -0.4481
   54MOL0     H 7445   5.707   9.834   6.134  0.2462 -0.0716  0.4300
   54MOL0     H 7446   5.504   9.635   6.217  0.3018  0.1322  0.5301
   54MOL0     H 7447   5.499   9.805   6.267  1.3246  0.0971  1.7347
   54MOL0     H 7448   5.767   9.656   6.548 -0.9185 -0.1599  0.8736
   54MOL0     H 7449   5.583  10.245   6.113  1.7805  0.4593  0.8836
   54MOL0     H 7450   5.637  10.497   6.103 -0.6092  1.3569 -0.5593
   54MOL0     H 7451   5.794  10.482   6.010 -0.5400  0.3192  0.5055
   54MOL0     H 7452   5.661  10.562   5.946  0.0646 -0.9496 -1.4229
   55MOL0     O 7453   5.867  10.340   1.251  0.1403 -0.2299  0.1062
   55MOL0     C 7454   5.776  10.313   1.170  0.6700 -0.6441 -0.4738
   55MOL0     O 7455   5.728  10.185   1.151 -0.2372  0.0593 -0.9026
   55MOL0     C 7456   5.608  10.167   1.097  0.1011  0.6811  0.8459
   55MOL0     C 7457   5.490  10.220   1.146  0.5097  0.2715 -0.2189
   55MOL0     C 7458   5.367  10.225   1.077 -0.0917 -0.1058 -0.3166
   55MOL0     C 7459   5.350  10.163   0.956 -0.2866  0.5676  0.2962
   55MOL0     O 7460   5.224  10.142   0.912  0.0525 -0.6203  0.0898
   55MOL0     C 7461   5.216  10.093   0.781 -0.3318  0.7371 -0.6189
   55MOL0     C 7462   5.073  10.107   0.747  0.1946 -0.5476 -0.9856
   55MOL0     C 7463   5.035  10.026   0.612  0.2778 -0.2521 -0.0593
   55MOL0     C 7464   4.912  10.072   0.543  0.3639  0.3441  0.5364
   55MOL0     C 7465   4.785  10.037   0.620 -0.1284 -0.5508  0.4927
   55MOL0     C 7466   4.662  10.041   0.538  0.1854  0.0136  0.2787
   55MOL0     C 7467   4.533  10.014   0.625 -0.0542 -0.5329  0.4478
   55MOL0     C 7468   4.409  10.063   0.539 -0.6220  0.8368 -0.5511
   55MOL0     N 7469   4.282  10.032   0.613 -0.5974 -0.2272  0.2332
   55MOL0     C 7470   4.239   9.905   0.657  0.0310 -0.0968  0.5831
   55MOL0     C 7471   4.118   9.931   0.715 -0.0096 -0.7480  0.3492
   55MOL0     C 7472   4.045   9.843   0.806 -0.7532 -0.7206  0.2266
   55MOL0     C 7473   4.077   9.882   0.948 -0.8872 -0.5095  0.2464
   55MOL0     C 7474   4.189   9.799   1.001 -0.5301 -0.4415 -0.2462
   55MOL0     C 7475   4.211   9.857   1.140  0.1562 -0.0947 -0.2535
   55MOL0     O 7476   4.284   9.761   1.221  0.2404  0.8266 -0.0577
   55MOL0     C 7477   4.414   9.741   1.198 -0.5725 -1.0973  0.5352
   55MOL0     C 7478   4.492   9.825   1.115  0.0406  0.2812  0.6311
   55MOL0     C 7479   4.622   9.789   1.087 -0.2036  0.0727  0.8835
   55MOL0     C 7480   4.690   9.862   0.977  0.8022  0.1144 -0.8113
   55MOL0     C 7481   4.688   9.686   1.154  0.6732  0.1020 -0.3708
   55MOL0     C 7482   4.824   9.647   1.141 -0.3221  0.4229 -0.2263
   55MOL0     O 7483   4.917   9.742   1.167 -0.4977 -0.3014  0.1873
   55MOL0     C 7484   5.049   9.714   1.214  0.1424 -0.7487  0.5027
   55MOL0     C 7485   5.152   9.801   1.174 -0.5631  1.2898 -0.0898
   55MOL0     C 7486   5.280   9.773   1.221 -0.5881 -0.8043 -0.0337
   55MOL0     C 7487   5.310   9.671   1.311  0.8711  0.3109 -0.7125
   55MOL0     O 7488   5.445   9.657   1.345 -0.8043  0.1468 -0.4767
   55MOL0     C 7489   5.487   9.609   1.474  0.6402  0.1129  0.2932
   55MOL0     C 7490   5.497   9.458   1.475 -0.4173 -0.4161 -0.3600
   55MOL0     C 7491   5.632   9.412   1.415 -0.6166 -0.5522  0.6010
   55MOL0     C 7492   5.653   9.272   1.469 -0.2941  0.3191  0.5278
   55MOL0     C 7493   5.764   9.198   1.390  0.4620 -0.8065 -0.8267
   55MOL0     C 7494   5.792   9.059   1.455  0.6457 -0.0137  0.9775
   55MOL0     C 7495   5.913   8.986   1.386  0.9831 -0.3129 -0.5599
   55MOL0     C 7496   5.922   8.835   1.423 -0.4989  0.0883 -0.0345
   55MOL0    Cl 7497   6.086   8.778   1.367  0.6860 -0.6723 -0.0826
   55MOL0     C 7498   5.201   9.594   1.360  0.6856  0.3738 -0.4792
   55MOL0     C 7499   5.069   9.608   1.314 -0.4906 -0.8233  0.8824
   55MOL0     O 7500   4.845   9.529   1.121 -0.3538  0.4972  0.6902
   55MOL0     C 7501   4.617   9.615   1.257  0.2841 -0.4054 -0.4776
   55MOL0     C 7502   4.483   9.642   1.266 -0.3859  0.1299 -0.6345
   55MOL0     N 7503   4.096  10.067   0.700  0.0740 -0.0498 -0.0319
   55MOL0     N 7504   4.190  10.122   0.644 -0.3321  0.0343 -0.2892
   55MOL0     C 7505   5.468  10.091   0.916 -0.0218  0.5443 -0.1677
   55MOL0     C 7506   5.598  10.097   0.980  0.5683 -1.2874 -0.0869
   55MOL0     C 7507   5.743  10.424   1.094 -1.3015 -0.2931 -0.1858
   55MOL0     C 7508   5.708  10.539   1.167 -0.2326 -0.1213 -0.4588
   55MOL0     C 7509   5.690  10.664   1.109 -0.4269 -0.8486 -0.0691
   55MOL0     C 7510   5.703  10.665   0.965 -0.5997  0.1203  0.4724
   55MOL0     O 7511   5.681  10.778   0.890 -0.1183 -0.6164 -0.6337
   55MOL0     C 7512   5.679  10.914   0.944 -0.1673 -0.1381 -0.0852
   55MOL0     C 7513   5.822  10.949   0.993  0.2657  0.9176  0.4796
   55MOL0     C 7514   5.851  11.097   0.991 -0.4530  0.7025 -0.4168
   55MOL0     C 7515   5.889  11.144   0.854 -0.1530 -0.9158  0.9963
   55MOL0     C 7516   6.023  11.106   0.818 -0.5039 -0.0813  0.1072
   55MOL0     C 7517   6.128  11.065   0.767  0.2510 -0.1604  0.1878
   55MOL0     C 7518   5.731  10.548   0.893  0.0009  0.4543 -0.1560
   55MOL0     C 7519   5.762  10.431   0.959  0.2610 -0.2912  0.2408
   55MOL0     C 7520   5.826  10.323   0.873  0.4807 -0.7661 -0.2167
   55MOL0     H 7521   5.490  10.262   1.246  0.4558  2.4790 -1.1006
   55MOL0     H 7522   5.284  10.263   1.135  1.1386  2.2774 -0.0175
   55MOL0     H 7523   5.240   9.987   0.772  3.0777  1.4798 -1.9239
   55MOL0     H 7524   5.285  10.153   0.721 -0.5803  1.0076 -0.6367
   55MOL0     H 7525   5.013  10.068   0.830  0.2254 -0.5986 -0.9882
   55MOL0     H 7526   5.060  10.216   0.741  0.8323 -0.0026  3.6149
   55MOL0     H 7527   5.111  10.063   0.543 -0.7141  2.6120  0.2239
   55MOL0     H 7528   5.039   9.918   0.625 -0.8445 -0.1054  1.9767
   55MOL0     H 7529   4.911  10.178   0.516 -1.1627 -0.7323 -4.7609
   55MOL0     H 7530   4.890  10.013   0.454 -1.8421 -0.7717  1.7400
   55MOL0     H 7531   4.773  10.100   0.708 -0.3174 -0.5611  0.4756
   55MOL0     H 7532   4.796   9.931   0.647 -1.0542 -0.5000  1.1263
   55MOL0     H 7533   4.649  10.139   0.491  0.5617 -1.1128 -2.3460
   55MOL0     H 7534   4.673   9.976   0.451 -2.5696 -0.9433  0.5581
   55MOL0     H 7535   4.523  10.073   0.716 -2.5385  0.3621 -0.3139
   55MOL0     H 7536   4.525   9.905   0.637  3.9454 -1.1666 -1.1509
   55MOL0     H 7537   4.415  10.169   0.514 -0.8426  2.0932  3.8787
   55MOL0     H 7538   4.403   9.990   0.458  0.4547 -1.1232  1.0234
   55MOL0     H 7539   4.280   9.809   0.628 -0.8058 -0.2510 -0.1281
   55MOL0     H 7540   4.081   9.740   0.793  0.3751 -0.4300  0.8323
   55MOL0     H 7541   3.937   9.848   0.791 -0.4504  2.6571 -1.7891
   55MOL0     H 7542   4.116   9.984   0.940  3.6885 -2.0883 -0.5038
   55MOL0     H 7543   3.977   9.876   0.991 -2.6113 -3.7192 -3.5343
   55MOL0     H 7544   4.150   9.698   1.017 -1.2940 -0.2454 -0.7995
   55MOL0     H 7545   4.272   9.809   0.931 -0.4098  2.6778  0.2222
   55MOL0     H 7546   4.254   9.958   1.143  0.5938 -0.2035  4.0492
   55MOL0     H 7547   4.117   9.869   1.196 -0.0074 -0.1943 -0.5060
   55MOL0     H 7548   4.448   9.913   1.069 -1.9199 -1.5571 -1.2573
   55MOL0     H 7549   4.614   9.907   0.913 -0.2587 -2.0193 -1.1243
   55MOL0     H 7550   4.767   9.806   0.922  3.0373  1.5821  0.6304
   55MOL0     H 7551   4.756   9.940   1.016  0.9542  0.8084 -2.3784
   55MOL0     H 7552   5.132   9.881   1.103  2.2418  0.2780 -2.2090
   55MOL0     H 7553   5.364   9.831   1.184 -0.7037  0.0635  1.0019
   55MOL0     H 7554   5.587   9.651   1.487  1.9157 -1.8781 -2.1045
   55MOL0     H 7555   5.424   9.639   1.558  3.3028  1.5864  1.8897
   55MOL0     H 7556   5.498   9.419   1.577 -2.3199  0.0284 -0.1349
   55MOL0     H 7557   5.414   9.416   1.416  0.2391  0.7423 -2.1853
   55MOL0     H 7558   5.714   9.480   1.438 -2.5704  2.3656 -0.4968
   55MOL0     H 7559   5.622   9.412   1.306  1.1463  3.3479  0.2905
   55MOL0     H 7560   5.559   9.219   1.447 -0.5162  0.8520  0.1711
   55MOL0     H 7561   5.673   9.277   1.576 -0.7763  0.1123  0.6336
   55MOL0     H 7562   5.737   9.195   1.284  0.8650  2.7214 -1.1378
   55MOL0     H 7563   5.850   9.265   1.396  0.1446 -0.4289 -0.4486
   55MOL0     H 7564   5.703   9.002   1.426  0.6195  0.8435 -0.7337
   55MOL0     H 7565   5.803   9.067   1.563  1.6104  1.5877  0.7755
   55MOL0     H 7566   6.008   9.026   1.424  0.2077  0.0451  1.0921
   55MOL0     H 7567   5.892   9.003   1.280 -1.8063  0.2894  0.0073
   55MOL0     H 7568   5.839   8.782   1.375 -1.4963  2.0096 -0.5246
   55MOL0     H 7569   5.909   8.822   1.531 -1.0943 -1.9543 -0.2961
   55MOL0     H 7570   5.217   9.512   1.428 -1.1993  0.8041  0.5587
   55MOL0     H 7571   4.988   9.549   1.356 -1.6113 -1.3972 -1.8524
   55MOL0     H 7572   4.669   9.541   1.317 -0.6481 -1.1997 -0.6324
   55MOL0     H 7573   4.431   9.583   1.341  0.4517 -0.2820 -0.3633
   55MOL0     H 7574   5.466  10.032   0.825 -1.3629  0.1593  0.0882
   55MOL0     H 7575   5.680  10.043   0.933  1.1118  0.8444 -1.7305
   55MOL0     H 7576   5.696  10.522   1.273  1.7454 -1.7786 -0.4421
   55MOL0     H 7577   5.668  10.757   1.160  1.4733  0.1669 -1.0272
   55MOL0     H 7578   5.646  10.982   0.865 -1.1410 -0.5498 -0.0545
   55MOL0     H 7579   5.603  10.919   1.023 -3.3485 -0.4508 -2.8993
   55MOL0     H 7580   5.887  10.893   0.925  0.9506 -0.2861  2.0666
   55MOL0     H 7581   5.843  10.912   1.094  0.7306  1.1537  0.4687
   55MOL0     H 7582   5.765  11.150   1.033 -2.2083 -1.4457 -1.0676
   55MOL0     H 7583   5.936  11.121   1.055  0.0946 -0.0817 -0.8313
   55MOL0     H 7584   5.886  11.252   0.844 -4.7659 -0.8659  1.1443
   55MOL0     H 7585   5.813  11.102   0.787  0.6404  0.4836 -0.8501
   55MOL0     H 7586   6.222  11.033   0.726  0.8534  2.7056 -0.8735
   55MOL0     H 7587   5.745  10.565   0.786 -1.1657 -0.2150 -0.4280
   55MOL0     H 7588   5.893  10.263   0.935  0.3238  2.2242  3.1692
   55MOL0     H 7589   5.747  10.256   0.838  0.7071 -1.8927  1.2954
   55MOL0     H 7590   5.896  10.360   0.798  1.3182  0.0833  0.9350
   56MOL0     O 7591   8.858   9.017   1.304  0.2433  0.6845 -0.1060
   56MOL0     C 7592   8.795   8.990   1.202  1.2748  0.3573 -0.6375
   56MOL0     O 7593   8.763   9.071   1.098 -0.0197 -0.3403  0.0766
   56MOL0     C 7594   8.812   9.200   1.087 -0.3495 -0.7200 -0.5845
   56MOL0     C 7595   8.926   9.249   1.154  0.1438  0.8175  0.3088
   56MOL0     C 7596   8.964   9.387   1.134 -0.5429 -0.5646 -0.0779
   56MOL0     C 7597   8.887   9.480   1.067  0.0625 -0.1706  0.0851
   56MOL0     O 7598   8.911   9.613   1.093  0.3013 -0.0298 -0.9289
   56MOL0     C 7599   8.823   9.711   1.047 -0.2727 -0.2121  0.6744
   56MOL0     C 7600   8.859   9.850   1.113  0.6293 -0.0377  0.5838
   56MOL0     C 7601   8.771   9.958   1.067  0.0700  0.1095  0.5379
   56MOL0     C 7602   8.838  10.100   1.055 -0.7660 -0.1324 -1.1837
   56MOL0     C 7603   8.735  10.208   1.040 -0.4159 -0.4185 -0.4812
   56MOL0     C 7604   8.805  10.344   1.044  1.0772  0.1788  0.3084
   56MOL0     C 7605   8.722  10.452   1.115 -0.3927  0.6767  0.3409
   56MOL0     C 7606   8.774  10.587   1.081 -0.2476 -0.3898 -0.8280
   56MOL0     N 7607   8.698  10.681   1.167 -0.7878 -0.0549  0.0280
   56MOL0     C 7608   8.610  10.771   1.118  0.3720 -0.2421  0.0688
   56MOL0     C 7609   8.615  10.860   1.223 -0.1859 -0.2464 -0.1920
   56MOL0     C 7610   8.529  10.985   1.221  0.7713 -0.3616  0.2130
   56MOL0     C 7611   8.378  10.971   1.209 -0.6751 -1.0041 -0.4040
   56MOL0     C 7612   8.317  10.896   1.331 -0.2833 -0.3753 -0.2803
   56MOL0     C 7613   8.338  10.749   1.310 -0.0996  0.4339  1.5677
   56MOL0     O 7614   8.302  10.714   1.176 -0.2828 -0.8865 -0.2948
   56MOL0     C 7615   8.316  10.582   1.130 -0.4152 -0.1955  0.8316
   56MOL0     C 7616   8.347  10.474   1.215  0.5838 -0.6426 -0.1794
   56MOL0     C 7617   8.353  10.347   1.164  1.0696 -0.1024 -0.1097
   56MOL0     C 7618   8.414  10.246   1.249  0.0445 -0.4740  0.1501
   56MOL0     C 7619   8.323  10.330   1.025  0.1440  0.1472 -0.6079
   56MOL0     C 7620   8.336  10.194   0.960  0.1694 -0.8676  0.1802
   56MOL0     O 7621   8.276  10.088   1.017 -0.1597  0.3116  0.2601
   56MOL0     C 7622   8.298   9.967   0.957 -0.0822  0.5747  0.0439
   56MOL0     C 7623   8.403   9.879   0.994 -0.2687  1.1431  0.7340
   56MOL0     C 7624   8.414   9.753   0.942  0.3271  0.2603  0.7625
   56MOL0     C 7625   8.312   9.704   0.857 -1.1155 -0.3454  0.4153
   56MOL0     O 7626   8.334   9.573   0.818 -0.3055 -0.3100  0.6703
   56MOL0     C 7627   8.253   9.512   0.712  0.1965 -0.1943 -0.8514
   56MOL0     C 7628   8.326   9.399   0.643 -0.0714  0.7655 -0.1304
   56MOL0     C 7629   8.433   9.464   0.550  0.4238 -0.6151  0.3981
   56MOL0     C 7630   8.558   9.384   0.555 -0.7349 -0.3995  0.6778
   56MOL0     C 7631   8.658   9.413   0.445 -0.2614 -0.5636 -0.4981
   56MOL0     C 7632   8.766   9.304   0.438  0.8400 -0.5953  0.2297
   56MOL0     C 7633   8.863   9.317   0.319  0.0045 -0.8531 -0.4091
   56MOL0     C 7634   8.922   9.179   0.273 -0.0935 -1.0151 -0.0678
   56MOL0    Cl 7635   9.045   9.213   0.151 -0.1774 -0.2283 -0.0410
   56MOL0     C 7636   8.211   9.790   0.818 -0.2755 -0.3108  0.7486
   56MOL0     C 7637   8.193   9.925   0.873 -0.4566  0.1025  0.2674
   56MOL0     O 7638   8.389  10.204   0.852 -0.4622 -0.6095 -0.2249
   56MOL0     C 7639   8.288  10.444   0.952  0.7130 -0.2024 -0.2559
   56MOL0     C 7640   8.284  10.571   1.006  0.4664  0.0952  0.8057
   56MOL0     N 7641   8.695  10.821   1.335  0.3321 -0.6760  0.0445
   56MOL0     N 7642   8.742  10.714   1.291 -0.2493  1.1097  0.0868
   56MOL0     C 7643   8.781   9.427   0.989 -1.2587  0.2614  0.6542
   56MOL0     C 7644   8.745   9.289   1.004  0.9996  0.1673 -0.7049
   56MOL0     C 7645   8.760   8.846   1.190  0.5522 -0.0972  0.3165
   56MOL0     C 7646   8.825   8.778   1.088 -0.0086 -0.3368  0.3101
   56MOL0     C 7647   8.808   8.643   1.069 -0.0343  0.3434  0.0501
   56MOL0     C 7648   8.732   8.563   1.152 -0.7142 -0.3181 -0.8431
   56MOL0     O 7649   8.692   8.428   1.137 -0.2697 -0.6361 -0.1903
   56MOL0     C 7650   8.740   8.366   1.016  0.6738 -0.6303  0.2155
   56MOL0     C 7651   8.663   8.238   0.984 -0.2315 -0.3568  0.8535
   56MOL0     C 7652   8.508   8.268   0.966 -0.5520 -0.2763 -0.2108
   56MOL0     C 7653   8.409   8.148   0.936 -0.5070 -0.4809 -0.2246
   56MOL0     C 7654   8.447   8.029   1.012  0.5368 -0.7043  0.7896
   56MOL0     C 7655   8.477   7.926   1.068 -0.7969 -0.4266  0.9454
   56MOL0     C 7656   8.678   8.631   1.268 -0.5554 -0.7239  0.1051
   56MOL0     C 7657   8.689   8.767   1.284  0.2944 -0.1208 -0.0466
   56MOL0     C 7658   8.633   8.835   1.413 -1.2765  0.2353 -0.7719
   56MOL0     H 7659   8.992   9.191   1.216  1.2174  0.8417 -0.7776
   56MOL0     H 7660   9.056   9.425   1.175 -0.0435 -1.1595 -0.6254
   56MOL0     H 7661   8.722   9.687   1.083  0.0271 -0.3102  1.4778
   56MOL0     H 7662   8.827   9.725   0.939 -0.8287  1.6998  0.8681
   56MOL0     H 7663   8.840   9.848   1.221  0.1541  0.6318  0.5203
   56MOL0     H 7664   8.963   9.872   1.089  0.5787 -0.5012 -0.0903
   56MOL0     H 7665   8.724   9.932   0.972  0.4774 -0.8169  0.5789
   56MOL0     H 7666   8.697   9.977   1.145 -0.1503  0.2605  0.2936
   56MOL0     H 7667   8.883  10.111   1.154 -0.1856  0.3868 -1.5003
   56MOL0     H 7668   8.920  10.114   0.984 -0.8075  3.0127 -0.7380
   56MOL0     H 7669   8.658  10.196   1.117 -3.2812 -0.8554 -3.2230
   56MOL0     H 7670   8.693  10.198   0.940  3.0560  2.1093 -2.3962
   56MOL0     H 7671   8.895  10.330   1.105  0.5628  2.0415  1.6148
   56MOL0     H 7672   8.863  10.367   0.954  4.3613 -0.2531  2.1366
   56MOL0     H 7673   8.713  10.442   1.224 -0.4271  2.0026  0.4744
   56MOL0     H 7674   8.623  10.443   1.070 -1.0738 -1.7050  2.0859
   56MOL0     H 7675   8.882  10.584   1.101 -0.5730 -2.4839  0.9337
   56MOL0     H 7676   8.753  10.585   0.974  0.1720 -1.3918 -0.9071
   56MOL0     H 7677   8.552  10.766   1.026  0.5549 -1.1561 -0.0063
   56MOL0     H 7678   8.570  11.041   1.137  2.2937 -0.9917  0.4918
   56MOL0     H 7679   8.560  11.036   1.313 -2.6435  0.0274  1.2743
   56MOL0     H 7680   8.334  11.070   1.212 -2.1537 -1.5975 -1.4970
   56MOL0     H 7681   8.352  10.938   1.108  1.2811 -2.3046 -0.5443
   56MOL0     H 7682   8.375  10.909   1.423  0.8259 -3.8042 -0.3543
   56MOL0     H 7683   8.214  10.924   1.353  0.5645  0.3152  3.4603
   56MOL0     H 7684   8.440  10.731   1.344 -0.9034 -0.2120  3.7676
   56MOL0     H 7685   8.274  10.683   1.368 -0.2323 -1.6244 -0.7355
   56MOL0     H 7686   8.349  10.499   1.320 -1.4642 -3.6908  0.7422
   56MOL0     H 7687   8.517  10.279   1.260 -0.6670  2.3870 -0.7865
   56MOL0     H 7688   8.409  10.149   1.200  2.0644  0.5981 -2.3986
   56MOL0     H 7689   8.363  10.240   1.345  0.4596 -1.8681  0.3056
   56MOL0     H 7690   8.484   9.923   1.053  0.3532  3.4943 -1.6243
   56MOL0     H 7691   8.487   9.680   0.975  0.3406 -0.2556 -0.3655
   56MOL0     H 7692   8.156   9.489   0.757 -0.1325  2.1409 -0.2504
   56MOL0     H 7693   8.239   9.590   0.636  0.6118  3.5402  2.5473
   56MOL0     H 7694   8.368   9.324   0.711 -0.6085 -1.1860 -1.8542
   56MOL0     H 7695   8.251   9.345   0.585  0.8032 -0.3608 -0.2567
   56MOL0     H 7696   8.446   9.568   0.581  1.5733 -0.6803  0.1996
   56MOL0     H 7697   8.395   9.461   0.447  1.7633 -0.1938 -0.1396
   56MOL0     H 7698   8.532   9.278   0.554  2.9655 -1.4847 -0.6899
   56MOL0     H 7699   8.603   9.414   0.650 -0.4397  3.8384 -0.5824
   56MOL0     H 7700   8.611   9.414   0.346 -3.0717 -2.0716  0.6764
   56MOL0     H 7701   8.710   9.507   0.465  0.5351 -0.5475 -2.4732
   56MOL0     H 7702   8.732   9.200   0.425 -1.4068  0.3659 -2.7418
   56MOL0     H 7703   8.827   9.314   0.528  0.9607  3.3456 -0.1500
   56MOL0     H 7704   8.943   9.391   0.333  0.1353 -1.1051  0.2334
   56MOL0     H 7705   8.802   9.363   0.241 -3.7201 -0.0730  2.6238
   56MOL0     H 7706   8.842   9.120   0.227 -1.7973  1.6422 -0.7133
   56MOL0     H 7707   8.971   9.132   0.360 -2.6838 -3.5110  0.2068
   56MOL0     H 7708   8.133   9.758   0.749  0.8998 -0.5663 -0.5010
   56MOL0     H 7709   8.129  10.006   0.841  2.0720  2.5555  1.0278
   56MOL0     H 7710   8.251  10.425   0.851 -1.3882 -2.1138  0.7808
   56MOL0     H 7711   8.262  10.660   0.949  0.0802  1.1054  2.4757
   56MOL0     H 7712   8.725   9.489   0.920 -1.9451 -0.1316  0.8439
   56MOL0     H 7713   8.670   9.229   0.955  0.4133 -2.1781  2.7381
   56MOL0     H 7714   8.885   8.825   1.011 -1.0018  1.7267  0.7401
   56MOL0     H 7715   8.858   8.608   0.980  1.5653  0.2235  0.9499
   56MOL0     H 7716   8.734   8.431   0.928  2.7007 -0.7547 -0.0636
   56MOL0     H 7717   8.847   8.343   1.021  0.8308 -0.7973 -2.4106
   56MOL0     H 7718   8.679   8.157   1.056 -0.5999 -1.4451 -0.2430
   56MOL0     H 7719   8.695   8.203   0.885 -1.6859  1.6748 -0.4235
   56MOL0     H 7720   8.491   8.315   1.064  0.4599  1.6695 -0.9028
   56MOL0     H 7721   8.498   8.344   0.888  4.0934 -0.1807 -0.9991
   56MOL0     H 7722   8.421   8.129   0.829  0.8400 -0.0603 -0.1752
   56MOL0     H 7723   8.302   8.156   0.954 -0.2700  4.3052  0.5290
   56MOL0     H 7724   8.500   7.834   1.119 -0.3009 -0.5953  0.4344
   56MOL0     H 7725   8.629   8.560   1.334 -0.7342 -0.6796  0.0188
   56MOL0     H 7726   8.559   8.765   1.454 -0.4032 -0.6481 -0.6518
   56MOL0     H 7727   8.711   8.859   1.485 -0.4168  1.6127 -2.1091
   56MOL0     H 7728   8.585   8.929   1.386 -0.5606  0.3492 -1.7058
   57MOL0     O 7729   0.382   3.924   6.123 -0.4456 -0.8766 -0.1461
   57MOL0     C 7730   0.487   3.894   6.058 -0.2074  0.2840 -1.0081
   57MOL0     O 7731   0.496   3.905   5.923 -0.0672  0.4590  1.0099
   57MOL0     C 7732   0.391   3.949   5.842 -0.4630 -0.6281  0.1012
   57MOL0     C 7733   0.377   3.895   5.712 -0.6709  1.3212 -0.7655
   57MOL0     C 7734   0.276   3.937   5.628  0.2068 -0.7192 -0.6039
   57MOL0     C 7735   0.186   4.040   5.663 -0.8222  0.2222  0.0684
   57MOL0     O 7736   0.091   4.092   5.583  0.2053 -0.1945 -0.3757
   57MOL0     C 7737   0.037   4.011   5.477 -0.4379 -0.5030 -0.7772
   57MOL0     C 7738  -0.061   4.090   5.390  0.2540 -0.2050  0.3556
   57MOL0     C 7739  -0.035   4.234   5.387  0.4576  0.6313  0.4108
   57MOL0     C 7740  -0.157   4.302   5.319 -0.4131  0.0954  0.2041
   57MOL0     C 7741  -0.132   4.439   5.271  0.2921 -0.2847 -0.4228
   57MOL0     C 7742  -0.240   4.498   5.189  1.1138 -0.2752  0.5414
   57MOL0     C 7743  -0.219   4.641   5.142 -0.6272 -1.0984  0.8012
   57MOL0     C 7744  -0.237   4.757   5.243 -0.1457  0.8070 -0.8572
   57MOL0     N 7745  -0.374   4.779   5.291 -0.4303 -0.5407 -0.3907
   57MOL0     C 7746  -0.417   4.806   5.423  0.0543  0.5165 -0.0568
   57MOL0     C 7747  -0.552   4.814   5.418  0.3034  0.3070  0.2634
   57MOL0     C 7748  -0.661   4.839   5.527  0.1607 -0.8105 -0.6491
   57MOL0     C 7749  -0.716   4.980   5.506  0.3019 -0.2192  0.6651
   57MOL0     C 7750  -0.620   5.078   5.582  0.6691 -0.8564 -0.7560
   57MOL0     C 7751  -0.641   5.221   5.558  0.4716  0.1931  0.3691
   57MOL0     O 7752  -0.611   5.307   5.673  0.1158 -0.3297 -0.9144
   57MOL0     C 7753  -0.580   5.437   5.673 -0.1360  0.5175  0.4952
   57MOL0     C 7754  -0.537   5.508   5.562 -0.2914 -0.7727 -0.0333
   57MOL0     C 7755  -0.504   5.650   5.562 -0.5039 -0.4270  0.2284
   57MOL0     C 7756  -0.438   5.698   5.427 -0.3416  0.5087  0.0299
   57MOL0     C 7757  -0.506   5.723   5.688  0.3687  1.2695  0.1559
   57MOL0     C 7758  -0.455   5.867   5.701  1.6145  0.7897 -0.1499
   57MOL0     O 7759  -0.445   5.940   5.591 -0.5365  0.3056 -0.2599
   57MOL0     C 7760  -0.347   6.045   5.600  0.4807  0.4791  0.4383
   57MOL0     C 7761  -0.208   6.012   5.598  0.2840 -0.6658 -0.6720
   57MOL0     C 7762  -0.106   6.110   5.583  0.7612 -0.0355 -0.0135
   57MOL0     C 7763  -0.141   6.248   5.563 -0.0726  1.2241  0.0836
   57MOL0     O 7764  -0.051   6.346   5.536  0.3389  0.1563  1.0201
   57MOL0     C 7765   0.084   6.320   5.538  0.1635 -0.6919  0.2217
   57MOL0     C 7766   0.138   6.302   5.399 -0.4305  0.0306 -0.1273
   57MOL0     C 7767   0.092   6.412   5.300 -0.0520  0.0574  0.7491
   57MOL0     C 7768   0.181   6.409   5.173 -0.2825 -0.4551 -0.2195
   57MOL0     C 7769   0.182   6.539   5.098  0.9427  0.0625  0.7392
   57MOL0     C 7770   0.066   6.587   5.020  0.6521  0.5140  1.0888
   57MOL0     C 7771   0.048   6.509   4.896  0.2076  1.2406  0.4211
   57MOL0     C 7772  -0.082   6.541   4.827 -0.3644  0.4954 -0.0896
   57MOL0    Cl 7773  -0.088   6.727   4.796 -0.0830  0.5185 -0.1026
   57MOL0     C 7774  -0.280   6.280   5.568 -0.0654 -0.0845  0.3199
   57MOL0     C 7775  -0.380   6.176   5.583 -0.7851 -0.3299 -0.6570
   57MOL0     O 7776  -0.441   5.904   5.814 -0.3582 -0.6383 -0.3416
   57MOL0     C 7777  -0.549   5.647   5.802  0.8186 -0.8967  0.5123
   57MOL0     C 7778  -0.579   5.504   5.794  0.6188 -0.4248 -0.0481
   57MOL0     N 7779  -0.578   4.776   5.292  0.5259  0.0270  0.1235
   57MOL0     N 7780  -0.483   4.772   5.213 -0.2427  0.6452 -0.0206
   57MOL0     C 7781   0.202   4.099   5.789 -0.4668  0.2380  0.1331
   57MOL0     C 7782   0.303   4.059   5.875  1.9114  0.1173 -0.3193
   57MOL0     C 7783   0.615   3.868   6.134  0.7014 -0.4975  0.1951
   57MOL0     C 7784   0.737   3.890   6.057  0.8646  0.6924 -0.4444
   57MOL0     C 7785   0.867   3.881   6.112  0.6675 -0.0757  0.8650
   57MOL0     C 7786   0.878   3.841   6.246 -0.6976  0.1174  0.0582
   57MOL0     O 7787   1.004   3.836   6.305  0.2800 -0.2890 -0.3741
   57MOL0     C 7788   1.118   3.848   6.224  0.0024  0.0523  0.2277
   57MOL0     C 7789   1.240   3.802   6.297  0.9065  0.2224  0.3229
   57MOL0     C 7790   1.242   3.653   6.318  0.1883  0.8311 -0.0797
   57MOL0     C 7791   1.159   3.611   6.443 -0.0804  0.3444 -0.6400
   57MOL0     C 7792   1.180   3.468   6.477  0.4018  0.3204  0.2363
   57MOL0     C 7793   1.185   3.345   6.504  0.0903  0.6315  1.2332
   57MOL0     C 7794   0.766   3.816   6.317 -0.2399  0.6264 -0.1798
   57MOL0     C 7795   0.636   3.834   6.267  0.8938 -0.2715  0.2545
   57MOL0     C 7796   0.528   3.805   6.364  0.1808  1.3034  0.2460
   57MOL0     H 7797   0.459   3.828   5.687 -0.2265  1.3279  0.5963
   57MOL0     H 7798   0.292   3.892   5.531  2.6363  1.0920 -1.1479
   57MOL0     H 7799  -0.017   3.929   5.524 -0.6098  0.1215  0.1420
   57MOL0     H 7800   0.111   3.958   5.417  0.5754 -3.8247  2.9858
   57MOL0     H 7801  -0.070   4.057   5.286  0.2967 -1.9560  0.8641
   57MOL0     H 7802  -0.159   4.085   5.438  0.3253  4.2000  1.3927
   57MOL0     H 7803  -0.012   4.280   5.484 -0.2742 -0.3805  1.0824
   57MOL0     H 7804   0.053   4.256   5.326  0.8018 -2.1466 -0.2365
   57MOL0     H 7805  -0.187   4.243   5.232  0.9032 -2.0078  1.0802
   57MOL0     H 7806  -0.243   4.304   5.386  0.0075  2.4702  0.7615
   57MOL0     H 7807  -0.045   4.432   5.205  1.2369  0.8578  0.6320
   57MOL0     H 7808  -0.108   4.508   5.352  0.9228  0.7359 -1.4426
   57MOL0     H 7809  -0.252   4.439   5.098  0.5107  2.0359 -0.9595
   57MOL0     H 7810  -0.338   4.493   5.237  0.7921  2.2610  0.3057
   57MOL0     H 7811  -0.290   4.671   5.065  1.9961  2.6529 -0.4487
   57MOL0     H 7812  -0.121   4.657   5.098 -0.7726 -0.3945  0.7192
   57MOL0     H 7813  -0.178   4.732   5.332 -0.2888 -0.7112 -1.1528
   57MOL0     H 7814  -0.192   4.848   5.202  2.1843 -0.4265 -1.1827
   57MOL0     H 7815  -0.349   4.834   5.502  1.4978 -0.9146 -0.7265
   57MOL0     H 7816  -0.612   4.831   5.625 -0.7423 -1.5127 -0.2464
   57MOL0     H 7817  -0.739   4.762   5.524 -0.6112 -0.1807  1.7153
   57MOL0     H 7818  -0.704   5.009   5.402  0.9472  2.2255  1.3451
   57MOL0     H 7819  -0.821   4.991   5.536 -0.8563 -0.1506 -2.9757
   57MOL0     H 7820  -0.632   5.060   5.689 -1.2352  0.9125 -0.6167
   57MOL0     H 7821  -0.513   5.057   5.569  1.3235  0.6912  1.5065
   57MOL0     H 7822  -0.589   5.255   5.468 -0.1883  0.0077 -0.0952
   57MOL0     H 7823  -0.745   5.235   5.525 -0.2184 -5.2572 -0.8918
   57MOL0     H 7824  -0.517   5.454   5.470  3.5623  1.5277 -0.7615
   57MOL0     H 7825  -0.475   5.795   5.393 -0.5090  1.2354  2.1192
   57MOL0     H 7826  -0.446   5.618   5.353  2.1872 -0.8129  1.0498
   57MOL0     H 7827  -0.329   5.710   5.432 -0.4084  0.7810  1.1312
   57MOL0     H 7828  -0.182   5.907   5.611  0.0874 -0.6357  0.0021
   57MOL0     H 7829  -0.004   6.078   5.569  0.8638  0.7176 -1.1031
   57MOL0     H 7830   0.127   6.411   5.581 -2.6743  0.1918  1.4064
   57MOL0     H 7831   0.121   6.242   5.605  2.0962 -0.0732 -0.0625
   57MOL0     H 7832   0.247   6.308   5.408  0.1152 -4.6752 -1.0225
   57MOL0     H 7833   0.109   6.202   5.365 -2.5777  1.4369 -2.8553
   57MOL0     H 7834   0.097   6.505   5.358 -0.0548 -0.5177  1.7006
   57MOL0     H 7835  -0.011   6.396   5.266  0.4959  0.0707 -0.9770
   57MOL0     H 7836   0.158   6.317   5.118  1.3892 -1.0378 -0.0168
   57MOL0     H 7837   0.285   6.394   5.204 -0.3113 -3.0533 -1.1103
   57MOL0     H 7838   0.202   6.617   5.172 -1.4281 -0.1459  1.6891
   57MOL0     H 7839   0.265   6.535   5.026  1.2559  1.4933  0.9945
   57MOL0     H 7840   0.071   6.695   5.005 -3.6316  0.5940 -1.6080
   57MOL0     H 7841  -0.024   6.584   5.082 -0.6747 -0.4338 -0.7538
   57MOL0     H 7842   0.056   6.401   4.908 -1.2277  1.2951  2.4920
   57MOL0     H 7843   0.119   6.546   4.822 -0.6094 -1.8981 -2.1530
   57MOL0     H 7844  -0.148   6.502   4.905  0.3130 -1.5036 -0.4621
   57MOL0     H 7845  -0.093   6.491   4.730  1.2121  3.3612 -1.9024
   57MOL0     H 7846  -0.312   6.383   5.554 -1.1437 -0.8088 -4.2141
   57MOL0     H 7847  -0.482   6.212   5.576 -1.1035  0.0537  3.4044
   57MOL0     H 7848  -0.536   5.700   5.897 -3.4985  1.4568  0.0404
   57MOL0     H 7849  -0.587   5.453   5.889  1.0481  1.0849  0.8350
   57MOL0     H 7850   0.132   4.179   5.810  0.2453  0.8661  0.1636
   57MOL0     H 7851   0.313   4.124   5.962  0.0187  1.8310 -1.3074
   57MOL0     H 7852   0.726   3.927   5.955 -1.0377  1.6007  0.0279
   57MOL0     H 7853   0.947   3.912   6.046  0.0718 -3.6539 -1.8534
   57MOL0     H 7854   1.105   3.788   6.133 -0.4009  1.6313 -0.7926
   57MOL0     H 7855   1.128   3.952   6.190  0.8179 -0.3429 -0.7929
   57MOL0     H 7856   1.259   3.873   6.379 -1.5239  0.2677  0.9060
   57MOL0     H 7857   1.314   3.818   6.218 -0.0280 -2.2044 -1.1456
   57MOL0     H 7858   1.193   3.611   6.229  2.2104  2.8985 -2.3277
   57MOL0     H 7859   1.347   3.631   6.338 -0.8960 -2.9330  2.5708
   57MOL0     H 7860   1.053   3.641   6.440 -0.2971 -0.4749 -1.2989
   57MOL0     H 7861   1.205   3.665   6.527  0.7672  1.1603 -1.6064
   57MOL0     H 7862   1.195   3.244   6.539  1.0862  0.6285  0.9656
   57MOL0     H 7863   0.792   3.780   6.416 -0.7653  2.9314  0.8501
   57MOL0     H 7864   0.560   3.807   6.469  1.7603 -0.6042 -0.1322
   57MOL0     H 7865   0.448   3.879   6.355  1.2225  2.2842 -1.5649
   57MOL0     H 7866   0.476   3.714   6.332 -1.2384  2.9386 -2.5614
   58MOL0     O 7867   2.162   8.171   6.155 -0.4639  0.0550 -0.0194
   58MOL0     C 7868   2.248   8.129   6.071 -0.2259 -0.8747 -0.2267
   58MOL0     O 7869   2.227   8.068   5.951  0.0599 -0.0743  0.4620
   58MOL0     C 7870   2.101   8.034   5.897 -0.5695  0.4425 -0.5589
   58MOL0     C 7871   1.972   8.073   5.948 -0.4260 -0.6374  0.5712
   58MOL0     C 7872   1.857   8.048   5.870 -1.0340 -0.3670 -0.5462
   58MOL0     C 7873   1.872   7.961   5.761 -0.1425  0.1777  0.1731
   58MOL0     O 7874   1.770   7.925   5.680  0.5695 -0.0763  0.5573
   58MOL0     C 7875   1.723   7.790   5.675 -0.6543 -0.2478 -0.2951
   58MOL0     C 7876   1.603   7.793   5.772  1.4590  0.3734  0.6767
   58MOL0     C 7877   1.561   7.663   5.831  0.5732 -1.3703 -0.3813
   58MOL0     C 7878   1.521   7.564   5.718  0.3955  0.5081 -0.7919
   58MOL0     C 7879   1.407   7.469   5.758 -0.7373 -0.3351 -0.6538
   58MOL0     C 7880   1.391   7.359   5.658 -0.9899  0.5730 -0.3450
   58MOL0     C 7881   1.258   7.285   5.691  0.4995  0.9542 -0.3843
   58MOL0     C 7882   1.254   7.207   5.822  0.1085  0.6395 -0.7405
   58MOL0     N 7883   1.166   7.261   5.925  0.7448 -0.1854 -0.3001
   58MOL0     C 7884   1.027   7.246   5.924  0.2121  0.5175  0.7648
   58MOL0     C 7885   0.987   7.290   6.043 -0.4057  0.1491 -0.5870
   58MOL0     C 7886   0.853   7.288   6.117 -0.0337  0.3389 -0.0317
   58MOL0     C 7887   0.857   7.226   6.258 -0.7630  0.4487 -0.1310
   58MOL0     C 7888   0.843   7.070   6.248 -0.0303  0.2326  0.1943
   58MOL0     C 7889   0.981   7.004   6.211 -0.3415 -0.8858  0.5175
   58MOL0     O 7890   0.985   6.871   6.251  0.2421 -0.0749 -0.3202
   58MOL0     C 7891   1.060   6.783   6.184  0.3208  1.2154  0.0519
   58MOL0     C 7892   1.075   6.667   6.250 -0.9264  0.2614 -0.7423
   58MOL0     C 7893   1.171   6.570   6.203  0.7325  0.0193  0.3708
   58MOL0     C 7894   1.200   6.462   6.300 -0.3928 -0.5690 -0.6110
   58MOL0     C 7895   1.239   6.587   6.077  0.2810 -0.3753  0.4872
   58MOL0     C 7896   1.323   6.486   6.018 -0.1785 -0.5193 -0.5925
   58MOL0     O 7897   1.342   6.508   5.879  0.7171  0.1204 -0.5258
   58MOL0     C 7898   1.430   6.432   5.820 -0.1773  0.1301 -0.4099
   58MOL0     C 7899   1.385   6.343   5.723 -0.7762 -0.4481 -0.5212
   58MOL0     C 7900   1.485   6.275   5.652  0.8396  0.2273 -0.1407
   58MOL0     C 7901   1.627   6.280   5.679  2.1298 -0.1326 -0.6100
   58MOL0     O 7902   1.717   6.228   5.592 -0.7085  0.5410 -0.8771
   58MOL0     C 7903   1.684   6.192   5.454  0.5208 -0.7503 -1.6348
   58MOL0     C 7904   1.654   6.043   5.458  0.1151 -0.8102 -0.3028
   58MOL0     C 7905   1.623   5.988   5.316 -1.2670 -0.0589  0.0113
   58MOL0     C 7906   1.685   5.855   5.291  0.4857 -0.1008 -0.5329
   58MOL0     C 7907   1.632   5.787   5.155  0.6492  0.2430 -1.0618
   58MOL0     C 7908   1.663   5.639   5.151  0.3998  0.0985 -0.4757
   58MOL0     C 7909   1.812   5.612   5.138  0.7677  0.6367 -0.6724
   58MOL0     C 7910   1.836   5.472   5.202  0.0182  0.1912  0.1674
   58MOL0    Cl 7911   1.820   5.505   5.382  0.0561 -0.3352 -0.4086
   58MOL0     C 7912   1.663   6.372   5.781  0.8843 -0.6315 -0.0183
   58MOL0     C 7913   1.570   6.455   5.840 -0.9615 -0.5551  0.4734
   58MOL0     O 7914   1.400   6.421   6.085  0.6875  0.4989 -0.4132
   58MOL0     C 7915   1.215   6.708   6.006  0.3412 -0.6177 -0.5389
   58MOL0     C 7916   1.138   6.807   6.072  0.0609  0.4181  0.1076
   58MOL0     N 7917   1.104   7.338   6.101 -0.6276  0.3106 -0.1741
   58MOL0     N 7918   1.203   7.333   6.023  0.4701  0.0431 -0.3780
   58MOL0     C 7919   1.987   7.901   5.723 -0.7200 -0.5558  0.6073
   58MOL0     C 7920   2.105   7.937   5.796  0.0476 -0.5656  0.0818
   58MOL0     C 7921   2.389   8.150   6.116 -1.0395  0.0156 -0.5795
   58MOL0     C 7922   2.463   8.261   6.059  0.1971  0.1996 -0.2738
   58MOL0     C 7923   2.596   8.289   6.105  0.1123 -0.9820 -0.2441
   58MOL0     C 7924   2.654   8.208   6.203  0.4964 -0.7441 -0.7981
   58MOL0     O 7925   2.774   8.252   6.254 -0.4101  0.5045 -0.3001
   58MOL0     C 7926   2.764   8.289   6.386  0.0026 -0.8391  0.0038
   58MOL0     C 7927   2.850   8.413   6.426 -0.7151 -0.3139 -0.2380
   58MOL0     C 7928   2.807   8.546   6.350 -1.1930 -0.3495  0.3950
   58MOL0     C 7929   2.920   8.650   6.327  0.8116  0.5609  0.0093
   58MOL0     C 7930   3.011   8.641   6.440  0.5875 -0.2243 -0.4745
   58MOL0     C 7931   3.103   8.638   6.523  0.8093  0.4887 -0.8432
   58MOL0     C 7932   2.577   8.103   6.258 -1.0630  0.9838  0.5312
   58MOL0     C 7933   2.450   8.070   6.213  0.2739  0.1659  0.0272
   58MOL0     C 7934   2.379   7.946   6.273  0.2316 -0.3994 -1.1042
   58MOL0     H 7935   1.965   8.147   6.028 -0.8200  1.6982 -1.4940
   58MOL0     H 7936   1.761   8.084   5.905  0.8865  1.9816  2.9175
   58MOL0     H 7937   1.798   7.729   5.727 -1.1910 -1.7143 -1.1686
   58MOL0     H 7938   1.710   7.756   5.572  1.6393  1.8201 -1.3707
   58MOL0     H 7939   1.632   7.857   5.855  0.8474 -0.2667  1.3912
   58MOL0     H 7940   1.523   7.833   5.708  4.3417 -0.5520 -4.0197
   58MOL0     H 7941   1.650   7.643   5.892  1.3535  2.2705 -0.0539
   58MOL0     H 7942   1.475   7.680   5.897  0.2449 -1.8901 -0.6730
   58MOL0     H 7943   1.494   7.619   5.628  3.0940  1.5391 -1.0580
   58MOL0     H 7944   1.605   7.500   5.691  1.1540  1.2173 -0.1680
   58MOL0     H 7945   1.312   7.520   5.777 -0.4059 -0.0491  0.2965
   58MOL0     H 7946   1.435   7.426   5.854  1.6348  1.9373 -0.2080
   58MOL0     H 7947   1.383   7.380   5.551 -0.0336 -3.5798 -1.4066
   58MOL0     H 7948   1.485   7.303   5.660  0.3157  2.5338 -2.1938
   58MOL0     H 7949   1.253   7.212   5.609 -0.0798  1.1968 -0.5748
   58MOL0     H 7950   1.166   7.345   5.685  1.1258  2.4536  2.8774
   58MOL0     H 7951   1.223   7.104   5.800 -1.2890  0.7217  0.6696
   58MOL0     H 7952   1.359   7.203   5.851  0.6827 -0.5719 -2.8045
   58MOL0     H 7953   0.970   7.220   5.836  2.4073 -0.5960 -0.3824
   58MOL0     H 7954   0.772   7.250   6.054 -1.1483  0.5652  1.2005
   58MOL0     H 7955   0.819   7.391   6.135 -0.5652  0.2919 -0.7164
   58MOL0     H 7956   0.942   7.250   6.322 -1.4584 -0.6320  1.2517
   58MOL0     H 7957   0.774   7.263   6.319 -0.7792 -2.2144  1.6337
   58MOL0     H 7958   0.822   7.031   6.348  0.9388  1.0650  0.7445
   58MOL0     H 7959   0.766   7.036   6.177 -1.9021 -0.3610  2.3900
   58MOL0     H 7960   0.994   7.023   6.104  0.3883  2.1709  1.0512
   58MOL0     H 7961   1.054   7.064   6.266 -0.7173  1.1356 -1.0440
   58MOL0     H 7962   1.011   6.649   6.336 -1.0738 -0.6642 -1.0308
   58MOL0     H 7963   1.151   6.377   6.251 -0.9885 -0.4995 -0.1378
   58MOL0     H 7964   1.160   6.465   6.401  0.0791 -0.8104 -0.4145
   58MOL0     H 7965   1.308   6.455   6.319 -0.4350  0.3273  0.0289
   58MOL0     H 7966   1.280   6.328   5.700 -0.2021 -1.2472 -2.9314
   58MOL0     H 7967   1.461   6.221   5.561  1.2480  2.0533 -1.3982
   58MOL0     H 7968   1.610   6.256   5.406 -1.1055 -1.0601  0.2913
   58MOL0     H 7969   1.777   6.193   5.396  1.9657 -3.5193  0.3770
   58MOL0     H 7970   1.744   5.993   5.497 -1.2821 -3.7270 -0.5753
   58MOL0     H 7971   1.574   6.013   5.527  0.1929 -0.1618  0.0721
   58MOL0     H 7972   1.654   6.056   5.237 -2.7426 -1.8463 -2.2613
   58MOL0     H 7973   1.514   5.973   5.318 -1.0327 -2.1449 -0.0909
   58MOL0     H 7974   1.658   5.788   5.373 -0.5914  1.4276  0.4093
   58MOL0     H 7975   1.792   5.876   5.284  0.3004  1.0735 -0.1230
   58MOL0     H 7976   1.523   5.794   5.146  0.4108 -3.3773 -2.7779
   58MOL0     H 7977   1.683   5.840   5.074  0.2111  0.6846 -1.0544
   58MOL0     H 7978   1.600   5.593   5.073 -0.7604 -2.8561  1.9895
   58MOL0     H 7979   1.622   5.595   5.243  2.7245 -2.9424 -0.7258
   58MOL0     H 7980   1.868   5.691   5.189  1.3893 -0.3501  0.1913
   58MOL0     H 7981   1.842   5.600   5.033 -0.5689 -6.4021 -0.7432
   58MOL0     H 7982   1.931   5.435   5.163 -1.7255 -2.6902 -1.7502
   58MOL0     H 7983   1.771   5.398   5.155  2.0717  0.5078 -3.4836
   58MOL0     H 7984   1.767   6.383   5.807  0.1288 -1.2152  3.9082
   58MOL0     H 7985   1.608   6.526   5.913 -2.9979 -0.6289  1.6736
   58MOL0     H 7986   1.273   6.740   5.920  1.6072 -0.2177  0.4369
   58MOL0     H 7987   1.138   6.907   6.029  2.0715  1.5397  2.4811
   58MOL0     H 7988   1.988   7.831   5.641 -0.0802  1.1709 -0.9197
   58MOL0     H 7989   2.187   7.887   5.746  0.1680 -1.3673  1.0746
   58MOL0     H 7990   2.420   8.322   5.980 -2.8405 -2.0596 -0.5750
   58MOL0     H 7991   2.653   8.370   6.060  2.9215 -2.0242  1.1875
   58MOL0     H 7992   2.662   8.324   6.400  1.3567  4.0482 -0.6970
   58MOL0     H 7993   2.796   8.208   6.453 -0.9324 -1.9451 -0.8498
   58MOL0     H 7994   2.955   8.393   6.404  0.1518  4.0548 -1.1765
   58MOL0     H 7995   2.833   8.429   6.533 -3.1743  0.6677 -0.7109
   58MOL0     H 7996   2.761   8.512   6.257  0.1317 -4.3673  0.9883
   58MOL0     H 7997   2.728   8.593   6.409 -1.2782 -2.7123  2.3477
   58MOL0     H 7998   2.866   8.743   6.304 -1.5992 -1.1712 -1.9742
   58MOL0     H 7999   2.970   8.629   6.232 -0.4203  3.3974 -1.3940
   58MOL0     H 8000   3.188   8.617   6.584  0.7468  2.4696  0.0318
   58MOL0     H 8001   2.607   8.031   6.333  0.3184  1.4877  0.4844
   58MOL0     H 8002   2.297   7.974   6.340  1.8316  0.9814  0.3775
   58MOL0     H 8003   2.339   7.889   6.189 -1.2570 -1.5995  0.3618
   58MOL0     H 8004   2.437   7.866   6.319 -1.8346 -1.4388 -0.1997
   59MOL0     O 8005   0.591  10.943   6.171  0.7452  0.1658  0.0396
   59MOL0     C 8006   0.618  10.969   6.289  0.4005 -0.3183  0.1322
   59MOL0     O 8007   0.744  11.004   6.335 -0.5637 -0.1741  0.4663
   59MOL0     C 8008   0.849  10.929   6.284 -0.0766 -0.2992  0.4455
   59MOL0     C 8009   0.942  10.996   6.203  0.7818  0.5517 -0.6681
   59MOL0     C 8010   1.055  10.925   6.153 -0.4357 -0.6125  0.8095
   59MOL0     C 8011   1.066  10.786   6.163 -0.1481 -0.0188  0.3271
   59MOL0     O 8012   1.176  10.718   6.104  0.3256 -0.2436 -0.0931
   59MOL0     C 8013   1.182  10.727   5.960  0.1039  0.2513  0.0910
   59MOL0     C 8014   1.253  10.612   5.890 -0.1657 -0.3075 -1.1472
   59MOL0     C 8015   1.287  10.657   5.755  1.5194  0.3452  0.1336
   59MOL0     C 8016   1.389  10.553   5.691  0.6772  0.1200 -0.2517
   59MOL0     C 8017   1.404  10.575   5.539 -0.2298  0.9364  0.4632
   59MOL0     C 8018   1.528  10.494   5.489 -0.7181 -1.1726 -0.0732
   59MOL0     C 8019   1.531  10.499   5.341 -0.4618 -0.6032  0.5747
   59MOL0     C 8020   1.658  10.447   5.274  0.4691  0.8065 -0.5525
   59MOL0     N 8021   1.680  10.306   5.273 -0.2395  0.6555 -1.0726
   59MOL0     C 8022   1.796  10.248   5.332  0.4669 -0.4674 -0.2158
   59MOL0     C 8023   1.766  10.116   5.341  0.2175  0.2495 -0.4549
   59MOL0     C 8024   1.848  10.025   5.423 -0.4287  0.0871  0.2115
   59MOL0     C 8025   1.940   9.952   5.332 -0.2883  0.5485 -0.2219
   59MOL0     C 8026   2.055   9.893   5.415  0.1842  0.3205  0.0801
   59MOL0     C 8027   2.201   9.935   5.379  0.2354  0.3481 -0.3368
   59MOL0     O 8028   2.311   9.901   5.464 -0.6122  0.3610 -0.9881
   59MOL0     C 8029   2.351   9.979   5.568  0.5345 -0.1763  0.5948
   59MOL0     C 8030   2.449   9.929   5.642 -0.0701 -0.5162  0.2432
   59MOL0     C 8031   2.519  10.006   5.742 -0.8278  0.6875 -0.0597
   59MOL0     C 8032   2.628   9.936   5.815 -0.9082  0.1336 -0.8284
   59MOL0     C 8033   2.477  10.131   5.766 -0.2572 -1.0219  0.9867
   59MOL0     C 8034   2.528  10.214   5.877 -0.1359 -0.7744  0.5699
   59MOL0     O 8035   2.485  10.345   5.868  0.2139 -0.0371  0.1197
   59MOL0     C 8036   2.456  10.411   5.989  0.1926  0.0411  0.5319
   59MOL0     C 8037   2.547  10.506   6.038 -0.0569  0.0286  0.6273
   59MOL0     C 8038   2.522  10.598   6.146 -1.1324  0.5539 -0.5491
   59MOL0     C 8039   2.399  10.585   6.215  0.0364 -0.4239  0.2592
   59MOL0     O 8040   2.356  10.661   6.321 -0.4615 -0.0515  0.2604
   59MOL0     C 8041   2.441  10.771   6.351 -0.6388  0.2266  0.5622
   59MOL0     C 8042   2.404  10.856   6.469 -0.0942  0.6352  0.3675
   59MOL0     C 8043   2.344  10.777   6.589 -0.0163 -0.7999  0.1514
   59MOL0     C 8044   2.349  10.870   6.710 -0.6188 -0.0898 -0.4840
   59MOL0     C 8045   2.265  10.825   6.837  0.4580 -0.1945 -0.6217
   59MOL0     C 8046   2.234  10.949   6.925 -0.3912 -0.4026 -0.5728
   59MOL0     C 8047   2.116  10.920   7.019 -0.9124 -0.2605  0.1485
   59MOL0     C 8048   2.094  11.025   7.126  0.9117 -0.2617  0.6947
   59MOL0    Cl 8049   2.216  11.048   7.244 -0.2149  0.6977  0.3493
   59MOL0     C 8050   2.311  10.483   6.172 -0.0208 -0.4090  0.0401
   59MOL0     C 8051   2.334  10.401   6.052 -1.0728 -0.0866  0.8694
   59MOL0     O 8052   2.609  10.177   5.960 -0.0905 -0.8818  0.5638
   59MOL0     C 8053   2.356  10.171   5.701  0.5422  0.2395 -0.0938
   59MOL0     C 8054   2.293  10.097   5.607  1.2617 -0.0915  1.3141
   59MOL0     N 8055   1.645  10.094   5.276  0.7817  0.5044  0.3068
   59MOL0     N 8056   1.596  10.207   5.246  0.3684 -0.2062 -0.5581
   59MOL0     C 8057   0.958  10.722   6.228  0.0024 -0.1117  0.5636
   59MOL0     C 8058   0.851  10.785   6.291  0.6238  0.4037 -0.3160
   59MOL0     C 8059   0.508  10.974   6.381 -0.1212  0.9546 -0.4019
   59MOL0     C 8060   0.424  10.859   6.387  1.2613 -0.1062  0.0308
   59MOL0     C 8061   0.318  10.846   6.476  0.6725  0.2458 -0.5565
   59MOL0     C 8062   0.303  10.950   6.577 -0.6529 -0.5882  0.4280
   59MOL0     O 8063   0.202  10.935   6.669 -0.8282 -0.1861 -0.2719
   59MOL0     C 8064   0.149  11.045   6.746 -0.9354 -0.5784  0.5379
   59MOL0     C 8065   0.083  11.164   6.660 -1.2623 -0.5256 -0.7251
   59MOL0     C 8066  -0.019  11.096   6.559 -0.3510  0.3969 -0.0476
   59MOL0     C 8067  -0.131  11.207   6.556 -0.1105  0.6766  0.6576
   59MOL0     C 8068  -0.223  11.192   6.432  0.4125 -0.8023 -0.2030
   59MOL0     C 8069  -0.278  11.157   6.325 -0.4706 -0.3956 -0.2316
   59MOL0     C 8070   0.392  11.055   6.576  0.9253  0.3222  0.0082
   59MOL0     C 8071   0.490  11.074   6.485 -1.2797  0.7524  0.2704
   59MOL0     C 8072   0.582  11.198   6.498  1.2821 -0.3358 -0.5624
   59MOL0     H 8073   0.937  11.103   6.186 -2.0922  1.4335  3.8980
   59MOL0     H 8074   1.130  10.986   6.104 -1.7692  1.1237  0.8413
   59MOL0     H 8075   1.239  10.814   5.925 -0.3736  1.3244  1.8550
   59MOL0     H 8076   1.083  10.747   5.918 -0.8485 -0.9247  1.6817
   59MOL0     H 8077   1.344  10.585   5.944 -0.4482  0.8192 -0.0476
   59MOL0     H 8078   1.190  10.523   5.879 -2.6564  1.2609 -0.3818
   59MOL0     H 8079   1.194  10.666   5.698 -0.5999  0.6351  3.4346
   59MOL0     H 8080   1.349  10.747   5.754  1.8437  0.1671 -2.2917
   59MOL0     H 8081   1.485  10.584   5.735  0.4059 -1.3429  1.4821
   59MOL0     H 8082   1.359  10.451   5.716 -1.0264 -0.0666 -2.7224
   59MOL0     H 8083   1.419  10.680   5.513  1.8807  0.2704 -1.3559
   59MOL0     H 8084   1.314  10.554   5.481  0.2605  3.9610 -1.6085
   59MOL0     H 8085   1.605  10.540   5.551 -1.9744  0.4129  0.3695
   59MOL0     H 8086   1.517  10.386   5.507  5.3949 -2.1991 -0.4460
   59MOL0     H 8087   1.513  10.603   5.313 -1.1480 -0.2232  2.3252
   59MOL0     H 8088   1.446  10.445   5.298  0.6148 -0.4997 -1.8343
   59MOL0     H 8089   1.655  10.465   5.166 -1.6108 -3.5444 -1.4415
   59MOL0     H 8090   1.748  10.492   5.315  0.9527  0.4089 -1.1572
   59MOL0     H 8091   1.883  10.302   5.367  1.3980  1.2609 -4.5522
   59MOL0     H 8092   1.788   9.950   5.475  1.5400  0.0054  2.5265
   59MOL0     H 8093   1.913  10.075   5.495  1.5992 -0.9139 -0.8107
   59MOL0     H 8094   1.886   9.870   5.283 -0.5131 -0.7723  2.0939
   59MOL0     H 8095   1.979  10.020   5.255  0.6633  3.1803  2.4048
   59MOL0     H 8096   2.031   9.890   5.521  0.0391 -2.7500  0.0438
   59MOL0     H 8097   2.051   9.786   5.392 -0.1408  0.4858 -0.6756
   59MOL0     H 8098   2.225   9.870   5.294  3.2083 -1.5284  1.7401
   59MOL0     H 8099   2.210  10.039   5.347  0.7520  0.3627 -0.1563
   59MOL0     H 8100   2.477   9.825   5.631 -1.5138 -0.7320 -2.0137
   59MOL0     H 8101   2.726   9.986   5.822 -1.0135  0.2481 -0.0392
   59MOL0     H 8102   2.653   9.841   5.769  1.7171  0.5970 -0.5523
   59MOL0     H 8103   2.600   9.922   5.920 -0.6764  0.1531 -0.7615
   59MOL0     H 8104   2.638  10.499   5.980  0.3448 -1.5438  1.4009
   59MOL0     H 8105   2.597  10.667   6.183 -0.8576 -0.2861  0.5130
   59MOL0     H 8106   2.538  10.725   6.373 -0.6536 -0.4783 -0.7153
   59MOL0     H 8107   2.452  10.834   6.262 -0.0728  0.3407  0.7050
   59MOL0     H 8108   2.494  10.912   6.498  0.5117  2.0177 -3.5491
   59MOL0     H 8109   2.333  10.930   6.430 -0.7984 -0.2068  0.0407
   59MOL0     H 8110   2.397  10.685   6.616  0.8441  0.4913  3.3780
   59MOL0     H 8111   2.240  10.756   6.562  0.5596 -0.3141 -2.8185
   59MOL0     H 8112   2.307  10.967   6.680  0.9230  0.9112  0.4091
   59MOL0     H 8113   2.453  10.895   6.735 -1.0528 -0.7416  2.2769
   59MOL0     H 8114   2.173  10.777   6.801  0.3619 -0.9857  0.6204
   59MOL0     H 8115   2.319  10.748   6.892 -5.0222 -2.6320  2.1969
   59MOL0     H 8116   2.209  11.043   6.875 -0.0069 -0.7229 -1.3733
   59MOL0     H 8117   2.314  10.967   6.997 -1.8439  0.7378  0.8550
   59MOL0     H 8118   2.130  10.827   7.076 -2.5131 -0.5432  0.1278
   59MOL0     H 8119   2.031  10.888   6.958 -0.9856  1.1107 -0.4922
   59MOL0     H 8120   1.996  11.011   7.172  0.0688 -0.8904 -1.1746
   59MOL0     H 8121   2.080  11.118   7.071 -1.1012  0.1839  1.8770
   59MOL0     H 8122   2.224  10.463   6.233 -0.3460 -0.6910 -0.5108
   59MOL0     H 8123   2.249  10.341   6.022  0.9175 -3.2620  1.0412
   59MOL0     H 8124   2.303  10.257   5.740  0.9750  1.3683 -1.8572
   59MOL0     H 8125   2.189  10.125   5.593  2.0092  2.2750 -0.1045
   59MOL0     H 8126   0.967  10.614   6.218 -1.3093 -0.1490 -0.4218
   59MOL0     H 8127   0.760  10.743   6.333 -1.1764  4.3720  0.2797
   59MOL0     H 8128   0.441  10.781   6.312  1.1557  2.2497 -2.6034
   59MOL0     H 8129   0.251  10.761   6.472 -1.6301  1.9267  0.1619
   59MOL0     H 8130   0.079  10.996   6.814  1.7591 -3.3947  1.5555
   59MOL0     H 8131   0.235  11.079   6.804  1.3453 -2.9526 -1.2309
   59MOL0     H 8132   0.162  11.220   6.608  0.5732  0.2244  2.6049
   59MOL0     H 8133   0.035  11.234   6.728 -0.2696  1.3162 -1.8157
   59MOL0     H 8134   0.034  11.073   6.466 -0.3347 -3.0335  0.7010
   59MOL0     H 8135  -0.061  11.010   6.612 -0.7671  1.2698  1.0808
   59MOL0     H 8136  -0.083  11.306   6.549  0.5997  0.2770 -0.4400
   59MOL0     H 8137  -0.177  11.215   6.655  0.1131  0.1303  0.8064
   59MOL0     H 8138  -0.311  11.135   6.225 -1.8382  1.0595 -0.1522
   59MOL0     H 8139   0.384  11.129   6.655 -0.2074  0.2823 -0.0598
   59MOL0     H 8140   0.574  11.262   6.410 -1.8005 -0.0989 -0.2211
   59MOL0     H 8141   0.551  11.257   6.585 -2.0723  1.6519 -2.8731
   59MOL0     H 8142   0.689  11.177   6.508  2.1763  4.2584  2.7168
   60MOL0     O 8143   7.889   6.965   3.877 -0.1640 -0.9338 -0.5390
   60MOL0     C 8144   7.934   6.851   3.881  0.8170 -0.0713 -0.8611
   60MOL0     O 8145   7.981   6.787   3.776  0.5718  0.5120 -0.1851
   60MOL0     C 8146   7.988   6.853   3.658 -0.2626  0.5090  0.1280
   60MOL0     C 8147   8.108   6.859   3.597 -0.2825  0.5499  0.7100
   60MOL0     C 8148   8.115   6.896   3.462  0.2458 -0.2291  0.5193
   60MOL0     C 8149   7.996   6.949   3.392  0.9955 -0.3933 -0.0341
   60MOL0     O 8150   7.984   6.998   3.259 -0.5895  0.1455  0.0357
   60MOL0     C 8151   8.094   6.966   3.173 -0.2706 -0.3653  0.4951
   60MOL0     C 8152   8.060   7.009   3.042  0.2840 -0.6978 -0.2254
   60MOL0     C 8153   8.170   6.982   2.938  0.4086 -0.2249  0.4286
   60MOL0     C 8154   8.145   7.059   2.804  0.7806 -0.1160  0.1719
   60MOL0     C 8155   8.011   7.014   2.743  0.4773 -0.4706  0.2990
   60MOL0     C 8156   7.980   7.049   2.602 -1.6819 -0.6157 -0.4330
   60MOL0     C 8157   8.061   6.973   2.506  0.3253  0.2617 -0.1566
   60MOL0     C 8158   8.030   7.030   2.370  1.5287 -0.1965 -0.2442
   60MOL0     N 8159   8.080   6.958   2.255  0.1953 -0.1080 -0.2095
   60MOL0     C 8160   8.099   6.824   2.240 -0.3815  0.0686  0.0303
   60MOL0     C 8161   8.170   6.807   2.129  1.0978  0.0533  0.0565
   60MOL0     C 8162   8.207   6.677   2.063 -0.8315  0.8777  0.5870
   60MOL0     C 8163   8.301   6.603   2.156  0.1517  0.6432 -0.1283
   60MOL0     C 8164   8.312   6.450   2.119 -0.2522 -0.0361  0.0590
   60MOL0     C 8165   8.389   6.388   2.234  0.2303  0.4443  0.1495
   60MOL0     O 8166   8.517   6.370   2.174 -0.0485  0.1224  0.2707
   60MOL0     C 8167   8.611   6.303   2.250  0.8670  0.6522  0.0116
   60MOL0     C 8168   8.600   6.249   2.372  0.4355 -0.6206  0.8640
   60MOL0     C 8169   8.700   6.163   2.427  0.0286  0.6366 -0.1362
   60MOL0     C 8170   8.668   6.086   2.554  0.4470  0.7216  0.1943
   60MOL0     C 8171   8.814   6.141   2.356  0.2195 -0.9418 -0.5784
   60MOL0     C 8172   8.930   6.051   2.399  0.3937  0.8334 -0.2966
   60MOL0     O 8173   9.035   6.017   2.310 -0.6648 -0.8342 -0.6645
   60MOL0     C 8174   9.142   5.954   2.368 -0.6803  0.2223 -1.1896
   60MOL0     C 8175   9.258   6.034   2.372  0.2556 -0.1650 -0.4976
   60MOL0     C 8176   9.378   5.977   2.425  0.1938 -0.3164 -0.7550
   60MOL0     C 8177   9.382   5.849   2.484  0.6236 -0.8871  1.4998
   60MOL0     O 8178   9.491   5.791   2.536 -0.5852 -0.0636 -0.7728
   60MOL0     C 8179   9.593   5.876   2.601  0.2553  0.1553  0.0150
   60MOL0     C 8180   9.712   5.790   2.656 -0.6225 -0.6706 -0.2234
   60MOL0     C 8181   9.795   5.719   2.542  0.3116  0.0307 -0.8378
   60MOL0     C 8182   9.915   5.631   2.583  0.2655 -0.2034  0.0432
   60MOL0     C 8183   9.899   5.533   2.694 -0.0703  0.7416  0.3884
   60MOL0     C 8184  10.040   5.469   2.733  0.1154 -0.2369 -0.8451
   60MOL0     C 8185  10.029   5.363   2.852 -0.2418 -0.0543 -1.1374
   60MOL0     C 8186   9.929   5.249   2.833 -0.1239  0.2342  0.2613
   60MOL0    Cl 8187   9.907   5.173   2.986  0.4695 -0.1796 -0.3595
   60MOL0     C 8188   9.259   5.781   2.500 -0.6279 -0.2780  0.2447
   60MOL0     C 8189   9.136   5.830   2.434 -0.1005 -0.1268  0.2618
   60MOL0     O 8190   8.926   6.014   2.511 -0.4172  1.0527 -0.8839
   60MOL0     C 8191   8.834   6.209   2.235 -0.5549  0.0935 -0.6005
   60MOL0     C 8192   8.737   6.296   2.192  0.1177 -1.4457  0.1663
   60MOL0     N 8193   8.193   6.924   2.069  1.4821 -0.6840 -0.8963
   60MOL0     N 8194   8.135   7.017   2.142 -0.0174 -1.3634 -0.5635
   60MOL0     C 8195   7.875   6.950   3.463 -0.4113 -0.2482 -0.3390
   60MOL0     C 8196   7.878   6.911   3.599  0.8646 -0.2212  0.0617
   60MOL0     C 8197   7.898   6.766   3.994 -0.1061  0.4341 -0.3144
   60MOL0     C 8198   7.860   6.633   3.979  0.0721  0.5186  0.2401
   60MOL0     C 8199   7.842   6.549   4.092  0.6151 -0.8893  0.7291
   60MOL0     C 8200   7.854   6.601   4.221  0.6225 -0.5782  0.0071
   60MOL0     O 8201   7.834   6.517   4.329  0.3813  1.0043 -0.7696
   60MOL0     C 8202   7.779   6.567   4.451 -1.4752 -0.7648 -0.1447
   60MOL0     C 8203   7.737   6.471   4.557 -0.6454  1.4563 -0.1481
   60MOL0     C 8204   7.848   6.370   4.592  0.0823 -0.8872  0.3543
   60MOL0     C 8205   7.811   6.264   4.696  0.6348 -0.6389 -0.1151
   60MOL0     C 8206   7.704   6.163   4.654  0.2692 -0.6969  0.1231
   60MOL0     C 8207   7.629   6.079   4.608  0.6020  0.5630  0.5676
   60MOL0     C 8208   7.896   6.734   4.240  0.1887 -0.5339 -0.6337
   60MOL0     C 8209   7.910   6.815   4.132 -0.2344 -0.3420  0.3294
   60MOL0     C 8210   7.950   6.957   4.159 -0.3098  0.2427  0.4471
   60MOL0     H 8211   8.199   6.815   3.635 -0.0310 -2.4775 -2.7803
   60MOL0     H 8212   8.201   6.876   3.400  2.0295 -0.4209  2.8814
   60MOL0     H 8213   8.118   6.860   3.171 -2.2139 -0.8257  0.6310
   60MOL0     H 8214   8.187   7.013   3.207 -1.4120  2.6006 -0.1164
   60MOL0     H 8215   7.966   6.962   3.013 -0.4150 -0.0622  0.9494
   60MOL0     H 8216   8.038   7.116   3.041 -0.5635 -0.8457 -2.5653
   60MOL0     H 8217   8.267   7.012   2.978  0.0407 -0.7169  1.7319
   60MOL0     H 8218   8.178   6.874   2.923  0.0222 -0.0098 -1.6917
   60MOL0     H 8219   8.140   7.165   2.828 -0.5268 -0.2878  0.7198
   60MOL0     H 8220   8.223   7.048   2.728  1.0827  0.0352  0.4552
   60MOL0     H 8221   7.934   7.060   2.806  0.6790 -1.3675  1.2221
   60MOL0     H 8222   7.995   6.906   2.750 -0.3473 -0.3522  0.4112
   60MOL0     H 8223   7.882   7.006   2.578 -0.9348 -3.5313  1.2221
   60MOL0     H 8224   7.981   7.156   2.583  0.6527 -0.5201 -0.0489
   60MOL0     H 8225   8.028   6.869   2.500  0.0110  0.4245 -1.5776
   60MOL0     H 8226   8.170   6.968   2.518  0.4565 -1.4832 -1.6196
   60MOL0     H 8227   7.923   7.017   2.353  1.7814  0.2549 -2.3734
   60MOL0     H 8228   8.043   7.138   2.374 -2.1824  0.4742 -1.7321
   60MOL0     H 8229   8.075   6.746   2.311 -0.9936  2.7152  2.8960
   60MOL0     H 8230   8.274   6.683   1.977 -1.0752 -0.8052  0.2437
   60MOL0     H 8231   8.118   6.616   2.044  0.8252 -1.7335  0.5757
   60MOL0     H 8232   8.396   6.657   2.158 -1.1934  3.2313 -1.5961
   60MOL0     H 8233   8.258   6.611   2.257 -0.8481 -2.2128 -0.2401
   60MOL0     H 8234   8.213   6.406   2.112 -0.6071  0.5226  1.3033
   60MOL0     H 8235   8.366   6.437   2.024  3.1286 -1.0365  1.9279
   60MOL0     H 8236   8.400   6.443   2.328 -0.9043  1.7290 -0.4345
   60MOL0     H 8237   8.331   6.298   2.258  1.7153  0.3525  4.1795
   60MOL0     H 8238   8.505   6.243   2.424  0.7057  0.1176  1.4588
   60MOL0     H 8239   8.560   6.079   2.568  0.4768 -0.6994 -0.1610
   60MOL0     H 8240   8.711   6.142   2.638 -1.6717  1.1018  1.0974
   60MOL0     H 8241   8.705   5.983   2.559 -0.8876 -0.0712 -3.6028
   60MOL0     H 8242   9.263   6.132   2.325  1.1908 -0.0582 -0.1888
   60MOL0     H 8243   9.465   6.042   2.439  0.5562 -1.4303  3.3780
   60MOL0     H 8244   9.634   5.951   2.533  2.5381 -1.8937 -1.0246
   60MOL0     H 8245   9.550   5.918   2.692 -0.4747 -1.7956  0.6268
   60MOL0     H 8246   9.786   5.858   2.698 -2.7191  1.8090 -0.2540
   60MOL0     H 8247   9.674   5.723   2.734 -0.0852  0.6040  1.1874
   60MOL0     H 8248   9.824   5.800   2.476 -1.6044  2.6558  1.3057
   60MOL0     H 8249   9.732   5.650   2.486  0.2915  0.0667 -0.8590
   60MOL0     H 8250   9.999   5.694   2.615  1.9744 -1.4771 -1.6561
   60MOL0     H 8251   9.945   5.576   2.493 -0.0803  1.1959 -0.9529
   60MOL0     H 8252   9.858   5.574   2.787  1.2072  0.8887  0.9009
   60MOL0     H 8253   9.829   5.461   2.650  0.8124  0.5796 -0.8034
   60MOL0     H 8254  10.088   5.560   2.771  0.4688 -0.0301 -1.7621
   60MOL0     H 8255  10.095   5.434   2.645 -1.4199 -4.4989 -0.3432
   60MOL0     H 8256  10.002   5.415   2.944 -2.4374 -1.6962 -0.7794
   60MOL0     H 8257  10.125   5.313   2.872 -0.6188 -0.6166 -0.7163
   60MOL0     H 8258   9.963   5.178   2.757  0.9561  0.2732  0.6789
   60MOL0     H 8259   9.839   5.306   2.807  0.4611  1.0769  0.0306
   60MOL0     H 8260   9.255   5.682   2.544 -2.5777 -0.5786 -0.5053
   60MOL0     H 8261   9.039   5.789   2.458 -1.1910  0.5701 -2.5957
   60MOL0     H 8262   8.931   6.199   2.189  2.1864 -1.7630  4.6988
   60MOL0     H 8263   8.763   6.356   2.105 -1.4190  1.6784  1.6964
   60MOL0     H 8264   7.784   6.993   3.422 -0.4793 -1.6969 -1.7827
   60MOL0     H 8265   7.786   6.909   3.656  1.2559  0.1842  0.7362
   60MOL0     H 8266   7.840   6.588   3.883 -1.4674 -0.6571  1.0690
   60MOL0     H 8267   7.816   6.444   4.084  3.6977 -1.5924 -1.8985
   60MOL0     H 8268   7.847   6.634   4.504 -1.3169 -0.8062 -0.2937
   60MOL0     H 8269   7.683   6.616   4.430 -1.1416  2.4208  4.3106
   60MOL0     H 8270   7.653   6.413   4.519  1.1938 -3.5681  2.4589
   60MOL0     H 8271   7.716   6.529   4.648 -1.1625 -0.0671  0.7407
   60MOL0     H 8272   7.885   6.319   4.502  2.0521  1.3215 -0.2070
   60MOL0     H 8273   7.931   6.429   4.633 -1.5487  2.4308 -0.7581
   60MOL0     H 8274   7.807   6.304   4.797  1.3053 -0.6000 -0.0993
   60MOL0     H 8275   7.902   6.203   4.691  0.8994 -0.1856 -3.1775
   60MOL0     H 8276   7.571   5.997   4.568 -2.0211  2.7256 -0.3900
   60MOL0     H 8277   7.910   6.778   4.338  5.0293 -2.4464 -0.1638
   60MOL0     H 8278   8.042   6.977   4.103  0.1991 -2.9193  0.0069
   60MOL0     H 8279   7.871   7.022   4.120 -1.3690 -0.7931  0.8170
   60MOL0     H 8280   7.959   6.991   4.263 -0.1820 -0.1897  0.5785
   61MOL0     O 8281   2.319   3.020   9.888 -0.0630 -0.9198  0.4928
   61MOL0     C 8282   2.330   3.133   9.929 -0.1478 -0.2039 -0.9091
   61MOL0     O 8283   2.229   3.226   9.933 -0.2699  0.0320 -0.8063
   61MOL0     C 8284   2.120   3.212   9.853 -0.4052 -0.4842  1.1760
   61MOL0     C 8285   2.119   3.232   9.713 -0.5471 -0.5784 -1.2745
   61MOL0     C 8286   2.011   3.203   9.639  0.2852  0.3814 -0.2585
   61MOL0     C 8287   1.891   3.155   9.698  0.8327  0.7687  0.0341
   61MOL0     O 8288   1.779   3.119   9.628  0.2421  1.5489  0.5413
   61MOL0     C 8289   1.741   3.206   9.524  1.1423 -0.4721 -1.2200
   61MOL0     C 8290   1.634   3.307   9.575 -0.0456 -0.1431  0.3409
   61MOL0     C 8291   1.585   3.403   9.463  0.3677  0.0078  0.1030
   61MOL0     C 8292   1.683   3.476   9.367  0.5407  0.0613  0.1105
   61MOL0     C 8293   1.774   3.580   9.444 -0.2244 -0.1386  0.0170
   61MOL0     C 8294   1.858   3.668   9.349  1.3678 -0.4004 -0.8980
   61MOL0     C 8295   1.974   3.592   9.282  0.0868  0.4995 -0.1942
   61MOL0     C 8296   2.065   3.500   9.368  0.3111 -0.2125  0.7844
   61MOL0     N 8297   2.118   3.582   9.483  0.1657 -0.0979 -0.1287
   61MOL0     C 8298   2.090   3.547   9.612  0.4711 -0.5355  0.5061
   61MOL0     C 8299   2.188   3.597   9.692 -0.2122  0.0715 -0.4065
   61MOL0     C 8300   2.215   3.564   9.842 -0.9582 -0.1349  0.6753
   61MOL0     C 8301   2.127   3.670   9.914 -0.1004  0.1053 -0.1320
   61MOL0     C 8302   2.055   3.616  10.036  0.6525 -0.5718 -0.3315
   61MOL0     C 8303   1.994   3.735  10.108  0.4317  0.3711  0.8826
   61MOL0     O 8304   1.857   3.755  10.073  0.3074  0.2936 -0.4141
   61MOL0     C 8305   1.781   3.802  10.176  0.3514 -0.0252  0.1751
   61MOL0     C 8306   1.682   3.721  10.229 -0.0773  0.3834 -0.0525
   61MOL0     C 8307   1.595   3.770  10.329 -0.4278 -0.3623  0.7405
   61MOL0     C 8308   1.494   3.669  10.367 -0.3658 -0.8904  0.3563
   61MOL0     C 8309   1.593   3.907  10.371 -0.0801 -0.2088  0.2638
   61MOL0     C 8310   1.510   3.970  10.473 -0.1026 -0.7754  1.1667
   61MOL0     O 8311   1.567   4.072  10.551  0.0854  0.5444  0.7578
   61MOL0     C 8312   1.493   4.137  10.646 -0.2151  0.4932  1.9915
   61MOL0     C 8313   1.443   4.078  10.755  0.6272 -0.4282 -0.9582
   61MOL0     C 8314   1.357   4.141  10.847 -0.5322 -0.0537  0.9076
   61MOL0     C 8315   1.337   4.278  10.834 -0.3061 -0.1312 -0.6086
   61MOL0     O 8316   1.273   4.343  10.940  0.2605 -0.3807  0.5028
   61MOL0     C 8317   1.226   4.480  10.903  0.0132  0.5940 -0.5751
   61MOL0     C 8318   1.138   4.563  11.002 -0.6671  0.1925  0.1323
   61MOL0     C 8319   1.217   4.610  11.126  0.2370  0.3604  0.1476
   61MOL0     C 8320   1.138   4.651  11.255  0.5375  0.4879 -0.0631
   61MOL0     C 8321   1.115   4.802  11.235  1.1710 -0.9756  0.7118
   61MOL0     C 8322   1.050   4.868  11.356 -0.3871 -0.3821  0.0806
   61MOL0     C 8323   0.909   4.827  11.387  0.3924  0.1586 -0.2864
   61MOL0     C 8324   0.882   4.851  11.537 -0.9169 -0.1416 -0.6669
   61MOL0    Cl 8325   0.710   4.861  11.545  0.4325  0.0697 -0.0503
   61MOL0     C 8326   1.403   4.345  10.721 -0.2111  0.0844  0.6584
   61MOL0     C 8327   1.464   4.268  10.621 -0.2462 -0.0446 -0.0894
   61MOL0     O 8328   1.388   3.944  10.486  0.1683  0.2938 -0.2544
   61MOL0     C 8329   1.690   3.989  10.316 -1.4466 -1.0656 -0.4070
   61MOL0     C 8330   1.779   3.942  10.217  0.2985 -0.2168  0.6087
   61MOL0     N 8331   2.275   3.669   9.610  0.3077  0.0338  0.7393
   61MOL0     N 8332   2.231   3.663   9.490 -0.5365  1.0073  0.3475
   61MOL0     C 8333   1.879   3.167   9.834  0.1394 -0.0646  0.3264
   61MOL0     C 8334   1.991   3.199   9.913 -0.0820  0.2437  0.0487
   61MOL0     C 8335   2.460   3.159  10.007 -0.3843  0.0421  0.8074
   61MOL0     C 8336   2.583   3.130   9.947 -0.9927  0.5459 -0.6863
   61MOL0     C 8337   2.703   3.160  10.007  0.0111 -0.4034 -0.3915
   61MOL0     C 8338   2.712   3.224  10.130  0.1941 -0.0981  0.0271
   61MOL0     O 8339   2.838   3.240  10.176  0.3676 -0.0609 -0.1772
   61MOL0     C 8340   2.841   3.319  10.306 -0.5009  0.2588  1.2283
   61MOL0     C 8341   2.989   3.343  10.344 -0.7174  0.4266 -0.4337
   61MOL0     C 8342   3.010   3.445  10.452 -0.0167  0.1461 -0.4107
   61MOL0     C 8343   2.975   3.383  10.590  0.3293  0.0379 -0.3101
   61MOL0     C 8344   3.083   3.323  10.665  0.0912 -1.2595  0.4561
   61MOL0     C 8345   3.187   3.291  10.718 -0.0161 -0.3190  0.6839
   61MOL0     C 8346   2.584   3.257  10.191 -0.2104 -0.1344  1.2127
   61MOL0     C 8347   2.465   3.227  10.130  0.3370  0.2186  0.1556
   61MOL0     C 8348   2.348   3.295  10.193 -0.2997  0.8565 -0.1673
   61MOL0     H 8349   2.207   3.245   9.651 -1.8118 -1.2177 -3.2755
   61MOL0     H 8350   2.017   3.220   9.532 -2.5826  0.8991 -0.4115
   61MOL0     H 8351   1.678   3.155   9.450 -3.7455  3.9234 -0.7386
   61MOL0     H 8352   1.832   3.245   9.478  2.4373  1.6189  2.6873
   61MOL0     H 8353   1.556   3.247   9.624 -0.6956 -0.3725 -0.9173
   61MOL0     H 8354   1.670   3.368   9.658  1.3590  3.3195 -2.5543
   61MOL0     H 8355   1.523   3.334   9.404 -1.2695 -0.6311  2.4333
   61MOL0     H 8356   1.522   3.480   9.509 -1.0367 -0.0287 -1.6328
   61MOL0     H 8357   1.743   3.405   9.310 -0.6531  0.7359 -2.1004
   61MOL0     H 8358   1.621   3.525   9.291 -0.8219 -2.6491 -0.6490
   61MOL0     H 8359   1.830   3.533   9.525 -0.2888 -3.8888 -1.8727
   61MOL0     H 8360   1.703   3.646   9.494  1.1732  1.4844 -0.0534
   61MOL0     H 8361   1.794   3.722   9.279  0.8782  4.2427  2.6558
   61MOL0     H 8362   1.895   3.758   9.400 -0.7874  0.6651 -1.1175
   61MOL0     H 8363   2.046   3.662   9.240  2.1216 -1.0848  0.4748
   61MOL0     H 8364   1.936   3.533   9.198  0.2070 -1.8521  1.3079
   61MOL0     H 8365   2.002   3.417   9.404  1.7118 -0.6921  2.2820
   61MOL0     H 8366   2.151   3.466   9.309  0.2398  0.2583  0.4108
   61MOL0     H 8367   2.016   3.478   9.650  2.8811 -1.6599  3.6873
   61MOL0     H 8368   2.319   3.587   9.867 -0.8731 -1.0840  1.2646
   61MOL0     H 8369   2.197   3.458   9.865  2.1229 -1.2777 -1.5439
   61MOL0     H 8370   2.200   3.744   9.949 -0.0182  0.7840 -1.6431
   61MOL0     H 8371   2.059   3.735   9.857 -0.7057  0.0249  0.4934
   61MOL0     H 8372   1.981   3.543  10.002  0.4053 -0.8625  0.7845
   61MOL0     H 8373   2.127   3.575  10.107  1.3824  1.4277  0.1458
   61MOL0     H 8374   2.007   3.704  10.212  1.2345 -0.7977  0.4583
   61MOL0     H 8375   2.041   3.832  10.091  4.7082 -1.5203  0.6644
   61MOL0     H 8376   1.664   3.620  10.196 -4.0501  0.6255  0.8909
   61MOL0     H 8377   1.411   3.661  10.296 -0.3509 -4.5298  0.5456
   61MOL0     H 8378   1.466   3.692  10.471 -2.3770 -3.6879  0.5668
   61MOL0     H 8379   1.536   3.568  10.368  0.7309 -0.4563  1.2490
   61MOL0     H 8380   1.465   3.974  10.774  1.9440  0.1022  0.5695
   61MOL0     H 8381   1.317   4.084  10.931  1.5700  0.3659  2.2524
   61MOL0     H 8382   1.317   4.540  10.890  1.6871 -1.6874  0.1278
   61MOL0     H 8383   1.167   4.474  10.811 -1.9107 -0.9734  0.6724
   61MOL0     H 8384   1.102   4.651  10.949 -3.3102 -0.4711  0.6789
   61MOL0     H 8385   1.048   4.507  11.029  1.3287 -1.5520  4.0857
   61MOL0     H 8386   1.299   4.677  11.099  1.1894  1.1679  4.3463
   61MOL0     H 8387   1.266   4.513  11.139 -0.7832 -0.4012 -1.3828
   61MOL0     H 8388   1.215   4.654  11.333  0.7607  2.7756 -0.2841
   61MOL0     H 8389   1.058   4.578  11.269  3.2906 -3.0525 -1.2218
   61MOL0     H 8390   1.212   4.851  11.219  1.0402 -0.4096  1.6202
   61MOL0     H 8391   1.055   4.809  11.144  2.1455 -1.6759 -0.0110
   61MOL0     H 8392   1.055   4.976  11.342 -0.8484 -0.0755  1.9588
   61MOL0     H 8393   1.107   4.830  11.441 -1.0459 -0.2776  0.5793
   61MOL0     H 8394   0.889   4.726  11.351 -0.9559  0.2991  0.0132
   61MOL0     H 8395   0.841   4.891  11.329 -1.8943 -0.2504  1.8238
   61MOL0     H 8396   0.916   4.941  11.589 -0.3993 -1.6698  1.8058
   61MOL0     H 8397   0.901   4.762  11.598 -1.3509  2.2802  3.3621
   61MOL0     H 8398   1.390   4.453  10.710 -0.5300  0.4979  3.9743
   61MOL0     H 8399   1.487   4.313  10.525 -1.7188  2.5034  0.6727
   61MOL0     H 8400   1.712   4.091  10.346 -0.5125 -0.6600 -2.3249
   61MOL0     H 8401   1.847   4.017  10.179  1.0762 -1.0176  0.3793
   61MOL0     H 8402   1.780   3.152   9.874 -2.1245  1.5387 -3.9722
   61MOL0     H 8403   1.977   3.203  10.021 -1.6583 -0.5614 -0.0987
   61MOL0     H 8404   2.584   3.075   9.853 -0.4047  1.3200 -1.1587
   61MOL0     H 8405   2.794   3.127   9.957 -0.6493  0.7480 -2.4892
   61MOL0     H 8406   2.798   3.417  10.282 -3.0482 -1.4225 -1.9284
   61MOL0     H 8407   2.795   3.273  10.393  0.6353 -1.6123  0.9048
   61MOL0     H 8408   3.038   3.377  10.253 -1.1106 -1.3139 -1.3374
   61MOL0     H 8409   3.033   3.243  10.356 -2.0162 -0.1289 -0.0871
   61MOL0     H 8410   3.113   3.477  10.439  0.5130 -2.4129 -3.8125
   61MOL0     H 8411   2.950   3.533  10.425 -0.5000  0.8185  2.5261
   61MOL0     H 8412   2.901   3.304  10.570 -1.0203  1.0318  0.6172
   61MOL0     H 8413   2.917   3.452  10.652 -4.2225 -2.1380 -1.6884
   61MOL0     H 8414   3.274   3.264  10.774  0.1525 -0.6692  0.2639
   61MOL0     H 8415   2.586   3.307  10.287  1.1006  0.8957  0.6891
   61MOL0     H 8416   2.356   3.302  10.302 -2.2038  2.2470 -0.0738
   61MOL0     H 8417   2.335   3.395  10.150  0.8756  1.4021  0.6816
   61MOL0     H 8418   2.265   3.225  10.185  0.8386 -0.9858  2.5929
   62MOL0     O 8419  11.437   7.266   2.141 -1.1088 -0.5179 -0.0745
   62MOL0     C 8420  11.342   7.187   2.140 -0.1645 -0.3023 -0.4112
   62MOL0     O 8421  11.300   7.107   2.245 -0.4069 -0.4370  0.3847
   62MOL0     C 8422  11.311   7.141   2.382 -0.4545  0.1982 -0.0021
   62MOL0     C 8423  11.405   7.222   2.441  0.0144 -0.3270 -0.5980
   62MOL0     C 8424  11.387   7.266   2.573 -0.1503 -0.4465 -0.4226
   62MOL0     C 8425  11.297   7.196   2.654  0.7353  0.1134 -0.0392
   62MOL0     O 8426  11.274   7.226   2.790 -0.0203  0.8144  0.1068
   62MOL0     C 8427  11.365   7.325   2.861  0.7721 -0.6105  0.2759
   62MOL0     C 8428  11.301   7.467   2.862 -0.3564  0.3022 -0.0921
   62MOL0     C 8429  11.280   7.537   2.732 -0.0929 -0.6156 -0.2253
   62MOL0     C 8430  11.405   7.617   2.675 -0.1276  0.8924 -0.3428
   62MOL0     C 8431  11.380   7.689   2.537  0.0755 -0.5210 -0.0913
   62MOL0     C 8432  11.385   7.608   2.407 -0.2090 -0.5103  0.1907
   62MOL0     C 8433  11.347   7.699   2.285 -0.4172  1.1102 -0.4184
   62MOL0     C 8434  11.376   7.636   2.152 -0.3830 -0.8139 -0.7749
   62MOL0     N 8435  11.516   7.653   2.109 -0.2452 -0.5940  0.3046
   62MOL0     C 8436  11.606   7.553   2.081 -1.3707 -0.6466  1.1947
   62MOL0     C 8437  11.718   7.621   2.064 -0.4801  0.4723 -0.0159
   62MOL0     C 8438  11.852   7.562   2.074 -0.1431 -0.1347 -0.5369
   62MOL0     C 8439  11.873   7.455   1.971  0.0651 -0.4880  0.1621
   62MOL0     C 8440  12.015   7.399   1.964 -0.0241  0.3913  0.6993
   62MOL0     C 8441  12.062   7.335   2.089 -0.0263  0.2587  0.2764
   62MOL0     O 8442  11.967   7.247   2.147  0.0264  0.3721  0.2445
   62MOL0     C 8443  12.008   7.130   2.197 -0.5593 -0.0603 -1.1084
   62MOL0     C 8444  12.045   7.015   2.121 -0.7307 -0.8322 -0.8743
   62MOL0     C 8445  12.070   6.889   2.167 -1.3456  1.1925 -0.0896
   62MOL0     C 8446  12.129   6.791   2.068  0.0006  0.6295 -0.2073
   62MOL0     C 8447  12.049   6.868   2.311 -0.2814  0.6712 -0.3694
   62MOL0     C 8448  12.050   6.738   2.387  0.6334  0.3463  0.2838
   62MOL0     O 8449  12.108   6.629   2.322  0.4114  0.2929  0.1531
   62MOL0     C 8450  12.149   6.519   2.399  0.4238  0.9763 -0.2406
   62MOL0     C 8451  12.055   6.453   2.482  0.6172  0.7949 -0.4377
   62MOL0     C 8452  12.106   6.352   2.567 -0.1504 -0.6143  0.4833
   62MOL0     C 8453  12.241   6.315   2.568  0.1432  0.9889 -0.0935
   62MOL0     O 8454  12.277   6.225   2.663  0.1226  0.1951 -0.2577
   62MOL0     C 8455  12.400   6.155   2.647 -0.6357  0.0556  0.3294
   62MOL0     C 8456  12.396   6.030   2.737  0.1557  0.2515 -1.1397
   62MOL0     C 8457  12.528   5.984   2.796  0.4910  0.7023  0.2170
   62MOL0     C 8458  12.571   6.064   2.921 -0.5803  0.2123  0.3949
   62MOL0     C 8459  12.482   6.032   3.040  0.1992 -0.3031  1.4778
   62MOL0     C 8460  12.545   6.099   3.167  0.5769 -0.2428 -0.4655
   62MOL0     C 8461  12.466   6.223   3.205  0.5004 -0.0393  0.7368
   62MOL0     C 8462  12.526   6.276   3.336 -0.4048  0.0278  0.0094
   62MOL0    Cl 8463  12.471   6.440   3.353 -0.1392  0.2532  0.2698
   62MOL0     C 8464  12.324   6.389   2.483  0.3255  0.2417 -0.0043
   62MOL0     C 8465  12.281   6.488   2.399  0.5478 -0.5756 -0.1239
   62MOL0     O 8466  12.025   6.747   2.506  0.2329  0.1142  0.3726
   62MOL0     C 8467  11.992   6.980   2.388 -0.6501 -1.0992 -0.1551
   62MOL0     C 8468  11.985   7.107   2.335  0.8839  0.9004 -0.4041
   62MOL0     N 8469  11.696   7.758   2.066  0.3878 -0.5688  0.3223
   62MOL0     N 8470  11.571   7.775   2.086 -0.6757  0.4010 -0.2348
   62MOL0     C 8471  11.215   7.094   2.600 -0.3944 -0.3314  0.3945
   62MOL0     C 8472  11.216   7.069   2.465 -0.6376  0.2279 -0.3639
   62MOL0     C 8473  11.255   7.169   2.012  0.3304 -0.5006  1.2826
   62MOL0     C 8474  11.147   7.080   2.028  0.2071  0.4368 -0.1774
   62MOL0     C 8475  11.078   7.046   1.913 -0.2432 -0.2806  0.0199
   62MOL0     C 8476  11.108   7.093   1.790  0.1139  0.5071 -0.1169
   62MOL0     O 8477  11.009   7.073   1.700 -1.1642  0.4708 -0.0078
   62MOL0     C 8478  11.036   7.116   1.565 -0.3451 -0.1767 -0.3144
   62MOL0     C 8479  10.921   7.109   1.461 -0.6498  0.7660 -0.2325
   62MOL0     C 8480  10.878   6.969   1.424 -0.8188  0.0885  0.0094
   62MOL0     C 8481  11.002   6.898   1.359  0.6416  0.2600  0.4265
   62MOL0     C 8482  10.951   6.769   1.313 -0.2791 -0.1641 -0.4761
   62MOL0     C 8483  10.930   6.659   1.266 -0.6595 -0.1007 -0.0480
   62MOL0     C 8484  11.211   7.180   1.769 -0.6902  0.8635  0.7630
   62MOL0     C 8485  11.287   7.223   1.883  0.5034 -0.2687 -1.2020
   62MOL0     C 8486  11.404   7.305   1.859  0.3470 -0.1335 -0.3736
   62MOL0     H 8487  11.483   7.260   2.375  1.2946 -0.7891  0.5843
   62MOL0     H 8488  11.445   7.346   2.619  1.3205 -0.6240 -1.8952
   62MOL0     H 8489  11.464   7.326   2.815  0.6881 -2.0103  0.0285
   62MOL0     H 8490  11.373   7.304   2.968 -0.3253  0.4580  0.5864
   62MOL0     H 8491  11.207   7.464   2.918  1.6437 -1.7705  3.5180
   62MOL0     H 8492  11.364   7.534   2.922  0.1794 -0.5703  0.3412
   62MOL0     H 8493  11.234   7.473   2.656  0.6879  0.5852 -1.7632
   62MOL0     H 8494  11.204   7.609   2.762 -0.0840 -0.3971 -0.7296
   62MOL0     H 8495  11.422   7.701   2.743 -4.6022  1.9637 -0.2810
   62MOL0     H 8496  11.497   7.558   2.668  0.9527  2.2190  1.6922
   62MOL0     H 8497  11.456   7.768   2.530 -1.7109  1.4790  1.8708
   62MOL0     H 8498  11.284   7.739   2.529  0.2086 -0.3913 -0.9841
   62MOL0     H 8499  11.488   7.575   2.388 -0.4938 -0.1083 -2.4512
   62MOL0     H 8500  11.322   7.520   2.420 -0.1494 -0.3005  2.1048
   62MOL0     H 8501  11.389   7.800   2.281 -0.3424  1.0882 -4.4076
   62MOL0     H 8502  11.239   7.719   2.287  0.0052  4.1986 -1.6614
   62MOL0     H 8503  11.340   7.532   2.154 -2.9180 -0.0903 -2.9264
   62MOL0     H 8504  11.317   7.687   2.074 -0.0046  0.3967 -0.2899
   62MOL0     H 8505  11.589   7.446   2.088 -3.8968 -0.3366  0.7649
   62MOL0     H 8506  11.860   7.514   2.172  2.2262  0.1399 -0.5374
   62MOL0     H 8507  11.925   7.644   2.075 -0.4682  0.2142  2.1415
   62MOL0     H 8508  11.802   7.372   1.976  0.9880 -1.3671 -0.6026
   62MOL0     H 8509  11.845   7.495   1.873  2.2917 -1.4332 -0.9323
   62MOL0     H 8510  12.022   7.322   1.886  0.9548  0.5032  0.6570
   62MOL0     H 8511  12.083   7.478   1.931 -2.1202  2.5411  1.2918
   62MOL0     H 8512  12.143   7.269   2.056 -0.8591 -2.1051  2.5775
   62MOL0     H 8513  12.086   7.419   2.154 -0.3863  1.5071 -1.1618
   62MOL0     H 8514  12.038   7.025   2.013 -4.4919 -0.2094 -0.7125
   62MOL0     H 8515  12.126   6.831   1.967 -2.0755 -3.2314 -1.9087
   62MOL0     H 8516  12.079   6.694   2.074  3.7587 -1.5041 -0.2504
   62MOL0     H 8517  12.231   6.772   2.103 -1.6434 -1.7161  4.0427
   62MOL0     H 8518  11.958   6.500   2.479  1.5154  2.7645 -0.1829
   62MOL0     H 8519  12.037   6.307   2.637 -0.3068 -1.1489 -0.0069
   62MOL0     H 8520  12.401   6.114   2.545  2.9088 -2.6374  1.2386
   62MOL0     H 8521  12.489   6.209   2.681 -2.1281  2.2536  0.9640
   62MOL0     H 8522  12.329   6.030   2.823  3.6758  0.4875  1.8840
   62MOL0     H 8523  12.350   5.955   2.673 -0.7746 -0.1894  0.0208
   62MOL0     H 8524  12.605   5.978   2.718  1.4310 -0.4288  1.2097
   62MOL0     H 8525  12.521   5.880   2.826 -0.5780  0.7141  0.0388
   62MOL0     H 8526  12.573   6.171   2.897  2.3960  0.7497  2.4557
   62MOL0     H 8527  12.674   6.035   2.942 -1.0762 -0.2675  2.3378
   62MOL0     H 8528  12.383   6.076   3.024  1.7533  2.6104 -1.2262
   62MOL0     H 8529  12.479   5.923   3.050 -0.9590 -0.4363  0.0189
   62MOL0     H 8530  12.652   6.119   3.157  0.1601  2.3230 -0.3255
   62MOL0     H 8531  12.537   6.031   3.252  2.3271  2.7250  2.3144
   62MOL0     H 8532  12.360   6.195   3.207  0.4674 -0.0475 -0.4749
   62MOL0     H 8533  12.488   6.298   3.128  1.4470  3.2228  3.9065
   62MOL0     H 8534  12.634   6.262   3.333 -0.6706 -2.3900 -0.2388
   62MOL0     H 8535  12.493   6.216   3.421  1.3837  0.1182  0.8223
   62MOL0     H 8536  12.426   6.353   2.476  1.8692  3.9215  1.0953
   62MOL0     H 8537  12.358   6.545   2.348  2.2908 -1.2042  1.6880
   62MOL0     H 8538  11.963   6.981   2.493 -1.2764 -0.8755 -0.3254
   62MOL0     H 8539  11.937   7.193   2.381 -0.4320 -0.5748  1.0904
   62MOL0     H 8540  11.162   7.031   2.671 -0.2638 -0.8883  0.0061
   62MOL0     H 8541  11.169   6.978   2.428  1.7197 -2.1403  2.0027
   62MOL0     H 8542  11.112   7.035   2.120 -2.3181 -0.1573 -1.3335
   62MOL0     H 8543  10.991   6.985   1.938  2.2217 -2.6075  4.0672
   62MOL0     H 8544  11.071   7.219   1.580  1.8390 -1.2571  3.0713
   62MOL0     H 8545  11.120   7.061   1.523 -1.0912 -0.6045 -1.3050
   62MOL0     H 8546  10.953   7.168   1.375  0.5170  1.5011  0.6745
   62MOL0     H 8547  10.838   7.166   1.503  0.2044  2.1007 -0.3169
   62MOL0     H 8548  10.844   6.921   1.516 -0.4580 -0.7287 -0.2778
   62MOL0     H 8549  10.786   6.979   1.364 -0.0464  3.8158 -0.7815
   62MOL0     H 8550  11.084   6.882   1.429  2.0445  1.8851 -0.7542
   62MOL0     H 8551  11.027   6.951   1.266  0.3659 -1.0070 -0.3879
   62MOL0     H 8552  10.920   6.563   1.220  3.4312 -0.7779  0.0701
   62MOL0     H 8553  11.242   7.233   1.679  2.1590  0.8934  1.6461
   62MOL0     H 8554  11.396   7.411   1.883  0.3559  0.5265 -3.0388
   62MOL0     H 8555  11.490   7.258   1.909  1.1760  1.8175  0.1568
   62MOL0     H 8556  11.436   7.304   1.755  0.9417  0.2186 -0.1990
   63MOL0     O 8557   8.675   2.169   3.257 -0.1523  0.5481 -0.3587
   63MOL0     C 8558   8.615   2.203   3.363  0.3807  0.4632  0.0525
   63MOL0     O 8559   8.485   2.210   3.371 -0.3628 -0.7905 -0.4177
   63MOL0     C 8560   8.401   2.210   3.268 -0.2406  0.3294  0.3137
   63MOL0     C 8561   8.310   2.105   3.256 -0.6011  0.9059 -0.3635
   63MOL0     C 8562   8.226   2.087   3.150 -0.7893  0.2741 -0.1293
   63MOL0     C 8563   8.251   2.155   3.036  1.3940 -0.0436  0.9040
   63MOL0     O 8564   8.191   2.125   2.914  0.1300  0.2014 -0.0092
   63MOL0     C 8565   8.184   1.982   2.881  0.4884  0.2893 -0.5912
   63MOL0     C 8566   8.042   1.933   2.860  1.6594 -0.3121 -0.2927
   63MOL0     C 8567   8.039   1.781   2.874 -0.2438 -0.8825 -0.1149
   63MOL0     C 8568   8.064   1.717   2.734 -0.2506 -0.3317  0.5010
   63MOL0     C 8569   8.081   1.559   2.729  0.5704  0.6791  1.0788
   63MOL0     C 8570   8.115   1.498   2.580  0.2085 -0.7450  0.3999
   63MOL0     C 8571   8.168   1.351   2.595 -0.2550 -0.4692 -0.6370
   63MOL0     C 8572   8.176   1.279   2.462  0.1541  0.4574  0.4692
   63MOL0     N 8573   8.069   1.182   2.450  1.2064  0.1277 -0.5025
   63MOL0     C 8574   7.931   1.213   2.434  0.1054 -0.0069 -0.2224
   63MOL0     C 8575   7.857   1.099   2.411  0.5345 -0.0258  0.3318
   63MOL0     C 8576   7.713   1.098   2.375  0.1097 -1.0473  0.3020
   63MOL0     C 8577   7.620   1.032   2.483 -0.5891  0.1868  0.4061
   63MOL0     C 8578   7.627   1.119   2.612 -1.2213  0.1051 -0.2703
   63MOL0     C 8579   7.497   1.119   2.694 -0.0523 -0.2423  1.0244
   63MOL0     O 8580   7.467   1.232   2.770 -0.8599 -0.6822 -0.4394
   63MOL0     C 8581   7.561   1.294   2.849  0.4716  0.8209 -0.8020
   63MOL0     C 8582   7.651   1.209   2.919  0.2362  0.6932 -0.6667
   63MOL0     C 8583   7.740   1.265   3.020 -0.0224  0.1717 -0.0358
   63MOL0     C 8584   7.811   1.168   3.115  0.1482  0.0790 -0.3419
   63MOL0     C 8585   7.760   1.406   3.025  1.0506 -0.0355  0.1593
   63MOL0     C 8586   7.871   1.472   3.077  0.2084 -0.1415 -0.4795
   63MOL0     O 8587   7.852   1.593   3.140  0.2464 -0.3850  0.0726
   63MOL0     C 8588   7.948   1.650   3.222  0.0628  0.0890  0.2416
   63MOL0     C 8589   8.055   1.575   3.292  0.0618  0.0250 -0.3107
   63MOL0     C 8590   8.133   1.637   3.393 -0.3354 -0.2518 -0.3338
   63MOL0     C 8591   8.114   1.766   3.436  0.5688 -0.1481 -0.1869
   63MOL0     O 8592   8.179   1.823   3.542 -0.8897 -0.3323 -0.2503
   63MOL0     C 8593   8.232   1.729   3.645 -0.6648 -0.7174  0.3121
   63MOL0     C 8594   8.385   1.744   3.652  0.1447  0.6537 -0.5869
   63MOL0     C 8595   8.414   1.886   3.683 -0.7975 -0.0523 -0.1048
   63MOL0     C 8596   8.556   1.887   3.751  0.3081 -0.0568 -0.4460
   63MOL0     C 8597   8.666   1.879   3.647 -0.3212  0.2118 -0.6758
   63MOL0     C 8598   8.801   1.942   3.701 -0.6676 -0.5124  0.7143
   63MOL0     C 8599   8.917   1.926   3.594 -0.1142  0.1002 -0.5193
   63MOL0     C 8600   9.042   2.014   3.618  0.4236 -0.8370 -0.0926
   63MOL0    Cl 8601   9.106   1.991   3.784  0.0270  0.5054 -0.5165
   63MOL0     C 8602   8.011   1.840   3.370  0.7084 -0.0320  0.6734
   63MOL0     C 8603   7.943   1.786   3.254  0.9607 -0.0937  0.0278
   63MOL0     O 8604   7.976   1.408   3.080  0.0928  0.0440 -0.0364
   63MOL0     C 8605   7.679   1.484   2.932  0.3924 -0.0753 -0.3857
   63MOL0     C 8606   7.572   1.429   2.856  0.8405  0.6410  0.4667
   63MOL0     N 8607   7.947   0.997   2.423  0.1088  0.6444  0.5870
   63MOL0     N 8608   8.072   1.044   2.452  0.6668  0.2849  0.7086
   63MOL0     C 8609   8.348   2.265   3.047 -0.0363 -0.1644 -0.4309
   63MOL0     C 8610   8.414   2.301   3.164 -1.3498 -0.7385 -0.4705
   63MOL0     C 8611   8.686   2.251   3.484 -0.7935 -0.1983 -0.0919
   63MOL0     C 8612   8.616   2.269   3.603 -0.4697 -0.5907 -0.4504
   63MOL0     C 8613   8.671   2.329   3.733  0.1641  0.3861 -0.4418
   63MOL0     C 8614   8.808   2.365   3.729  0.0615  0.1821 -0.2436
   63MOL0     O 8615   8.856   2.406   3.851  0.0484 -0.0838  0.2166
   63MOL0     C 8616   8.991   2.407   3.886 -1.1877 -0.0943  0.0918
   63MOL0     C 8617   9.011   2.277   3.979  0.4807 -0.0698 -0.3056
   63MOL0     C 8618   8.922   2.289   4.106 -0.3375 -0.0153 -0.8797
   63MOL0     C 8619   8.788   2.199   4.096 -0.1353 -0.1978 -0.1651
   63MOL0     C 8620   8.731   2.168   4.227 -0.2115  0.7999  0.3855
   63MOL0     C 8621   8.680   2.130   4.327  1.1037 -1.0279 -0.3831
   63MOL0     C 8622   8.880   2.350   3.610 -0.0671 -0.4216  0.3905
   63MOL0     C 8623   8.829   2.295   3.489  0.4878 -0.1835 -0.4042
   63MOL0     C 8624   8.912   2.289   3.370 -0.0784  0.7330 -0.4696
   63MOL0     H 8625   8.307   2.040   3.343  0.0157  3.1582  1.4674
   63MOL0     H 8626   8.159   2.003   3.164  0.3869 -0.5299  0.9454
   63MOL0     H 8627   8.213   1.932   2.974  0.4164 -0.7715 -1.1250
   63MOL0     H 8628   8.261   1.963   2.806 -2.6253 -1.0960 -3.6847
   63MOL0     H 8629   7.980   1.966   2.943 -1.3737 -4.0803 -0.8114
   63MOL0     H 8630   7.984   1.970   2.774  1.9108  0.0680 -0.3053
   63MOL0     H 8631   8.114   1.752   2.948 -1.8220 -2.4996  0.9579
   63MOL0     H 8632   7.947   1.743   2.921  0.8747 -2.6203  0.7746
   63MOL0     H 8633   7.978   1.731   2.668 -1.8096 -0.4097  2.4312
   63MOL0     H 8634   8.146   1.769   2.683 -1.2910 -3.8801 -5.8403
   63MOL0     H 8635   7.993   1.505   2.766  2.2577 -2.0270  1.4099
   63MOL0     H 8636   8.170   1.550   2.791  1.8533  1.6956 -0.5328
   63MOL0     H 8637   8.024   1.518   2.523  1.3810  0.6620 -1.0574
   63MOL0     H 8638   8.190   1.560   2.531  0.0890 -0.4223  0.6210
   63MOL0     H 8639   8.101   1.295   2.662  0.4030 -1.7252 -1.0023
   63MOL0     H 8640   8.267   1.358   2.641  1.0347 -0.2855 -3.2415
   63MOL0     H 8641   8.148   1.353   2.387 -0.5958 -0.5249 -0.2505
   63MOL0     H 8642   8.272   1.226   2.457 -2.4526 -4.9360  0.5240
   63MOL0     H 8643   7.899   1.313   2.407 -1.4836  0.0345  1.6004
   63MOL0     H 8644   7.712   1.038   2.284  1.4932  1.2819 -1.3736
   63MOL0     H 8645   7.679   1.197   2.343 -1.8670 -1.5787  0.5692
   63MOL0     H 8646   7.519   1.022   2.443  0.4496 -1.6506 -2.0162
   63MOL0     H 8647   7.658   0.930   2.500 -0.5781  0.4622  2.3301
   63MOL0     H 8648   7.711   1.093   2.676 -2.0294  0.0584  0.8032
   63MOL0     H 8649   7.632   1.223   2.579 -2.4649 -0.3976 -2.2141
   63MOL0     H 8650   7.416   1.115   2.621  1.4796  0.0066 -0.7818
   63MOL0     H 8651   7.489   1.029   2.755 -0.9515 -0.4275  0.6534
   63MOL0     H 8652   7.635   1.102   2.912 -3.3594  1.0543 -0.0962
   63MOL0     H 8653   7.737   1.100   3.157  0.7077 -1.1970 -1.3446
   63MOL0     H 8654   7.861   1.227   3.193  0.8643  0.2323 -0.9050
   63MOL0     H 8655   7.880   1.105   3.059  2.4703  1.5392  0.7448
   63MOL0     H 8656   8.083   1.473   3.270  0.1370  0.0188 -0.1883
   63MOL0     H 8657   8.221   1.581   3.422 -0.5371 -1.1408 -1.3896
   63MOL0     H 8658   8.192   1.763   3.742 -3.1486 -0.0672 -0.8686
   63MOL0     H 8659   8.205   1.624   3.635 -2.6082 -0.2197  0.0377
   63MOL0     H 8660   8.433   1.681   3.728 -2.6230  1.5064  2.0526
   63MOL0     H 8661   8.429   1.721   3.555  0.6301 -2.4946  0.2698
   63MOL0     H 8662   8.333   1.932   3.741  0.8082  3.8852 -0.6606
   63MOL0     H 8663   8.418   1.929   3.582  1.0275 -2.2915 -1.0581
   63MOL0     H 8664   8.562   1.817   3.834 -1.4068  0.0354 -0.2275
   63MOL0     H 8665   8.569   1.987   3.793 -2.0853 -0.6570  2.0077
   63MOL0     H 8666   8.679   1.773   3.623  3.0137  0.5553 -0.7264
   63MOL0     H 8667   8.627   1.930   3.558 -0.5500 -0.4424 -0.9617
   63MOL0     H 8668   8.830   1.911   3.802 -0.1741 -1.1404  0.3848
   63MOL0     H 8669   8.778   2.049   3.704  0.3376 -0.2672  0.0500
   63MOL0     H 8670   8.888   1.940   3.489  1.4582 -2.0092 -1.2770
   63MOL0     H 8671   8.957   1.826   3.611  5.0402  2.1972  1.5971
   63MOL0     H 8672   9.002   2.116   3.627  0.5217 -0.9039  1.4281
   63MOL0     H 8673   9.128   1.992   3.553  1.8500  1.2256  0.9676
   63MOL0     H 8674   7.987   1.945   3.384 -4.6349 -0.4274 -2.6962
   63MOL0     H 8675   7.877   1.852   3.199  3.2465  0.2505 -2.4418
   63MOL0     H 8676   7.705   1.589   2.923 -1.1272  0.4975  1.3408
   63MOL0     H 8677   7.510   1.476   2.781 -4.8161 -2.2098  2.6992
   63MOL0     H 8678   8.367   2.326   2.960 -0.7015  1.5379  0.5634
   63MOL0     H 8679   8.484   2.379   3.195 -3.0564  1.1611 -1.1884
   63MOL0     H 8680   8.515   2.228   3.606 -2.5676  3.7099 -2.6148
   63MOL0     H 8681   8.622   2.325   3.830  1.1837  2.6418  0.2364
   63MOL0     H 8682   9.059   2.405   3.801  1.6134  0.6661  2.1494
   63MOL0     H 8683   9.026   2.495   3.941  0.3273  1.6845 -3.4381
   63MOL0     H 8684   9.117   2.278   4.006  0.7967  1.0774 -1.4961
   63MOL0     H 8685   8.987   2.188   3.921  1.3279  0.0830 -0.9073
   63MOL0     H 8686   8.972   2.255   4.197  2.1273  3.9484 -0.5261
   63MOL0     H 8687   8.896   2.395   4.114 -1.6525 -0.4136  0.5110
   63MOL0     H 8688   8.807   2.102   4.049  0.3024 -1.4326  2.4311
   63MOL0     H 8689   8.711   2.255   4.042  0.7876  1.8775  0.5827
   63MOL0     H 8690   8.634   2.099   4.418  0.9316  2.6580  0.9481
   63MOL0     H 8691   8.982   2.387   3.602 -1.0221  2.0962 -1.6679
   63MOL0     H 8692   9.015   2.322   3.388  0.5680 -1.8103  1.0346
   63MOL0     H 8693   8.917   2.187   3.330 -0.8004 -1.1174  3.6413
   63MOL0     H 8694   8.871   2.355   3.293  1.0828  0.9833 -0.8877
   64MOL0     O 8695   7.728   4.316   0.404 -0.6219  0.6830  0.9168
   64MOL0     C 8696   7.699   4.209   0.348  0.3041 -0.4971 -0.7752
   64MOL0     O 8697   7.607   4.125   0.388 -0.2289  0.7760 -0.1981
   64MOL0     C 8698   7.553   4.155   0.511  0.5822 -0.1490  1.1275
   64MOL0     C 8699   7.422   4.213   0.522  0.2432 -0.8526 -0.1410
   64MOL0     C 8700   7.367   4.233   0.647 -0.3430  0.5138  0.7896
   64MOL0     C 8701   7.435   4.193   0.765 -0.0671 -1.6029 -0.1090
   64MOL0     O 8702   7.372   4.219   0.893  0.0163  0.6616  0.7155
   64MOL0     C 8703   7.406   4.135   1.003  1.4690 -1.1604 -0.6732
   64MOL0     C 8704   7.305   4.151   1.115 -0.0481  0.3638 -0.1334
   64MOL0     C 8705   7.280   4.288   1.170 -0.5100  0.5386  1.1548
   64MOL0     C 8706   7.388   4.347   1.259 -0.1075 -0.0434  0.1129
   64MOL0     C 8707   7.347   4.448   1.357  0.5556  0.5636 -0.9339
   64MOL0     C 8708   7.295   4.581   1.289 -0.4152 -0.6476 -0.1562
   64MOL0     C 8709   7.258   4.684   1.413  0.5071  0.0287  0.3793
   64MOL0     C 8710   7.190   4.810   1.343  1.4409  0.7204 -0.2206
   64MOL0     N 8711   7.158   4.905   1.443  0.5083 -0.1493 -0.7080
   64MOL0     C 8712   7.151   5.040   1.404  0.8474  0.4241 -0.8232
   64MOL0     C 8713   7.056   5.096   1.487  0.2258 -0.0086  0.8103
   64MOL0     C 8714   6.998   5.237   1.467 -0.7841  0.5089 -0.3659
   64MOL0     C 8715   6.861   5.263   1.524  0.7851  0.0641 -0.1630
   64MOL0     C 8716   6.866   5.291   1.676  1.0854 -0.0421 -0.8063
   64MOL0     C 8717   6.729   5.313   1.747  0.0354 -0.2836  0.2612
   64MOL0     O 8718   6.759   5.349   1.880  0.3853 -0.1928  0.0119
   64MOL0     C 8719   6.667   5.413   1.962  0.3565  0.5678 -0.9338
   64MOL0     C 8720   6.529   5.427   1.938 -0.1189 -0.2516 -0.0314
   64MOL0     C 8721   6.444   5.508   2.020  0.3505 -0.1031  0.4648
   64MOL0     C 8722   6.305   5.544   1.972 -0.2259  0.4524 -0.3286
   64MOL0     C 8723   6.499   5.583   2.132  1.1824 -0.1914  0.4367
   64MOL0     C 8724   6.424   5.681   2.231  0.8459  0.5212 -0.3498
   64MOL0     O 8725   6.468   5.701   2.359  0.8953 -0.2223  0.5510
   64MOL0     C 8726   6.384   5.763   2.440  0.3320  0.2780 -0.3584
   64MOL0     C 8727   6.257   5.710   2.472  0.1027  0.4158 -1.0541
   64MOL0     C 8728   6.173   5.789   2.553  0.6301 -0.3600 -0.1347
   64MOL0     C 8729   6.217   5.912   2.610  0.3051 -0.2769 -0.5532
   64MOL0     O 8730   6.132   5.988   2.694  0.3052  0.5175  1.1492
   64MOL0     C 8731   6.081   6.108   2.626 -0.3068  0.4977  0.4283
   64MOL0     C 8732   6.002   6.089   2.496 -0.7117 -0.7061  0.4052
   64MOL0     C 8733   5.893   6.193   2.464  0.0951  0.2887 -0.4499
   64MOL0     C 8734   5.945   6.326   2.414  0.4485  0.3696  0.1946
   64MOL0     C 8735   5.838   6.433   2.389  0.5816  0.0486  0.5492
   64MOL0     C 8736   5.746   6.412   2.267  0.0598 -0.1975  0.6379
   64MOL0     C 8737   5.811   6.427   2.138  0.1870 -0.2699  1.1211
   64MOL0     C 8738   5.722   6.375   2.012 -0.4948 -0.3008  0.2000
   64MOL0    Cl 8739   5.772   6.446   1.864 -0.0041  0.1071  0.4680
   64MOL0     C 8740   6.348   5.946   2.585 -0.2735 -0.8516 -0.3534
   64MOL0     C 8741   6.424   5.888   2.494  0.4919 -0.6030  0.4586
   64MOL0     O 8742   6.343   5.744   2.172 -0.2228  0.6743 -0.0619
   64MOL0     C 8743   6.631   5.558   2.164  0.0507  0.4492  0.0129
   64MOL0     C 8744   6.713   5.471   2.075  0.4065 -0.3676  0.4828
   64MOL0     N 8745   7.004   5.002   1.568 -0.2888  0.0400  0.2489
   64MOL0     N 8746   7.063   4.887   1.541 -0.0453  0.2348  0.6339
   64MOL0     C 8747   7.565   4.147   0.755 -0.2123 -0.0360 -0.6561
   64MOL0     C 8748   7.619   4.124   0.624  0.3141 -1.2459 -1.0527
   64MOL0     C 8749   7.798   4.166   0.254  0.5721  0.3921  0.1498
   64MOL0     C 8750   7.930   4.167   0.304 -0.6919  0.4735  0.5094
   64MOL0     C 8751   8.027   4.120   0.216 -0.2285 -1.2573 -0.6722
   64MOL0     C 8752   8.001   4.107   0.075  0.4019 -0.0673 -0.7726
   64MOL0     O 8753   8.099   4.079  -0.017 -0.5107 -0.3697 -0.0885
   64MOL0     C 8754   8.225   4.149  -0.026 -0.6277 -0.1374 -1.0984
   64MOL0     C 8755   8.214   4.304   0.006 -0.4147 -0.2205  0.0968
   64MOL0     C 8756   8.353   4.380  -0.013  0.2230  0.4587 -0.5332
   64MOL0     C 8757   8.416   4.363  -0.152  0.5741  0.5174 -0.6145
   64MOL0     C 8758   8.426   4.496  -0.201  1.1433  0.2204  0.5257
   64MOL0     C 8759   8.452   4.601  -0.260 -0.3904  0.0489  0.0254
   64MOL0     C 8760   7.866   4.103   0.036 -0.3131  0.3141  0.1806
   64MOL0     C 8761   7.761   4.127   0.124  0.6266 -0.5848 -0.6516
   64MOL0     C 8762   7.619   4.113   0.089 -0.2373 -0.1483  0.1304
   64MOL0     H 8763   7.364   4.233   0.432  0.0447 -1.0175 -0.0507
   64MOL0     H 8764   7.265   4.271   0.650 -0.8939 -0.7217 -0.7675
   64MOL0     H 8765   7.505   4.160   1.041  0.7371  1.2391 -0.1418
   64MOL0     H 8766   7.403   4.032   0.968 -0.1910 -0.5281 -2.7021
   64MOL0     H 8767   7.208   4.111   1.082  0.6795 -0.6668 -1.0718
   64MOL0     H 8768   7.334   4.084   1.197  2.1055 -1.7688 -2.4954
   64MOL0     H 8769   7.253   4.356   1.088  0.2409 -1.1043 -0.5426
   64MOL0     H 8770   7.191   4.279   1.233 -2.0190 -0.1199 -0.9285
   64MOL0     H 8771   7.427   4.265   1.319 -0.2768 -0.9848 -1.0306
   64MOL0     H 8772   7.478   4.392   1.217  1.1670 -2.4829  0.1033
   64MOL0     H 8773   7.424   4.462   1.434 -1.8775 -1.3960  2.0676
   64MOL0     H 8774   7.264   4.409   1.416  0.7420  1.4450 -0.0501
   64MOL0     H 8775   7.380   4.614   1.230 -1.8620  1.5298 -1.1492
   64MOL0     H 8776   7.219   4.567   1.211  0.6674  0.0742 -1.3654
   64MOL0     H 8777   7.348   4.693   1.476 -0.0762  0.3692  1.1755
   64MOL0     H 8778   7.180   4.643   1.478  1.6444 -0.2205  1.6532
   64MOL0     H 8779   7.256   4.858   1.270  3.2625  0.4003  1.1624
   64MOL0     H 8780   7.090   4.790   1.303  1.4112  0.6362 -0.1029
   64MOL0     H 8781   7.188   5.081   1.310  0.3389  0.3817 -1.0418
   64MOL0     H 8782   6.982   5.242   1.359 -1.8806 -0.7044 -0.2889
   64MOL0     H 8783   7.076   5.312   1.481 -1.6594  1.1011  1.8956
   64MOL0     H 8784   6.829   5.345   1.459  2.9918 -0.4253 -2.0084
   64MOL0     H 8785   6.795   5.181   1.495  0.5740  0.5335 -1.0651
   64MOL0     H 8786   6.907   5.204   1.727 -1.8960 -0.1274  1.7090
   64MOL0     H 8787   6.928   5.380   1.696 -2.1721  2.0046  1.1894
   64MOL0     H 8788   6.693   5.404   1.699 -0.5949 -0.6430  0.0464
   64MOL0     H 8789   6.662   5.228   1.736 -1.6567  1.1176 -0.7174
   64MOL0     H 8790   6.494   5.369   1.853 -1.5427 -0.0182  0.3727
   64MOL0     H 8791   6.263   5.450   1.933  0.3218  1.5831 -3.9895
   64MOL0     H 8792   6.314   5.616   1.890 -0.4456  0.4905 -0.3198
   64MOL0     H 8793   6.243   5.579   2.055  1.0016  0.9395  0.4086
   64MOL0     H 8794   6.231   5.612   2.433 -1.0095  0.7192 -1.1219
   64MOL0     H 8795   6.074   5.754   2.581 -0.2281  0.5467 -1.9300
   64MOL0     H 8796   6.011   6.153   2.698 -2.4184  0.0917 -1.2603
   64MOL0     H 8797   6.155   6.188   2.613  0.1992  0.5993  3.2418
   64MOL0     H 8798   6.064   6.094   2.407 -0.3070  0.5957  0.7307
   64MOL0     H 8799   5.953   5.992   2.494  1.1357 -1.6704 -0.1171
   64MOL0     H 8800   5.831   6.204   2.554 -1.9189  0.9778 -1.8389
   64MOL0     H 8801   5.823   6.148   2.393 -0.0952 -5.7884  2.9408
   64MOL0     H 8802   6.000   6.311   2.320 -1.8710 -3.0656 -0.7826
   64MOL0     H 8803   6.006   6.369   2.494 -2.5661  0.2496  2.7526
   64MOL0     H 8804   5.776   6.430   2.478 -0.3966 -2.4667 -0.1309
   64MOL0     H 8805   5.891   6.529   2.381  0.2852  0.1556 -0.2190
   64MOL0     H 8806   5.686   6.503   2.263  3.9774  2.6315 -0.0567
   64MOL0     H 8807   5.694   6.317   2.285  0.8676 -1.0037 -1.0233
   64MOL0     H 8808   5.904   6.368   2.137  2.8053  3.4491 -1.1709
   64MOL0     H 8809   5.853   6.526   2.118 -1.5343  0.3128  0.2081
   64MOL0     H 8810   5.620   6.412   2.027 -0.1083  1.9178 -1.9179
   64MOL0     H 8811   5.732   6.267   2.000 -2.0706 -0.3361 -1.2323
   64MOL0     H 8812   6.393   6.038   2.620 -2.2984  0.3872 -0.8483
   64MOL0     H 8813   6.522   5.932   2.484  0.7697 -1.2680  0.2076
   64MOL0     H 8814   6.693   5.598   2.244  1.7486  0.6380 -1.3261
   64MOL0     H 8815   6.818   5.449   2.090 -0.1880 -2.0247  2.4847
   64MOL0     H 8816   7.619   4.123   0.845 -1.3886  2.4263  0.7918
   64MOL0     H 8817   7.719   4.088   0.601  0.1507 -0.9040 -2.3816
   64MOL0     H 8818   7.952   4.203   0.404  2.4579  1.5096 -0.4365
   64MOL0     H 8819   8.129   4.106   0.252 -0.1364 -0.9705 -0.8199
   64MOL0     H 8820   8.304   4.115   0.041 -0.4093 -0.8030 -1.6795
   64MOL0     H 8821   8.271   4.123  -0.122  0.1632 -0.2952 -0.6836
   64MOL0     H 8822   8.171   4.306   0.107 -2.2735 -2.3764 -0.5758
   64MOL0     H 8823   8.142   4.354  -0.059  1.7135  2.2513 -0.5499
   64MOL0     H 8824   8.362   4.485   0.017 -1.2420  0.3635  0.3454
   64MOL0     H 8825   8.418   4.329   0.059  1.4053 -0.4019 -2.1468
   64MOL0     H 8826   8.356   4.299  -0.217  2.0259 -1.2743 -0.2677
   64MOL0     H 8827   8.512   4.316  -0.129 -1.7494 -4.6870 -0.1997
   64MOL0     H 8828   8.491   4.678  -0.323  2.1842 -0.3454  1.0034
   64MOL0     H 8829   7.845   4.089  -0.069  3.4033  0.5884 -0.7376
   64MOL0     H 8830   7.623   4.080  -0.015 -0.0568 -2.2965  0.7667
   64MOL0     H 8831   7.573   4.026   0.136 -0.6209 -2.4725 -4.1081
   64MOL0     H 8832   7.559   4.205   0.091  0.4280  0.3263  2.9888
   65MOL0     O 8833   0.563   0.370   6.458  0.3014 -0.1967  0.1385
   65MOL0     C 8834   0.496   0.408   6.552  0.1410 -0.3734  0.2678
   65MOL0     O 8835   0.380   0.366   6.596 -0.0066  0.3463  0.0169
   65MOL0     C 8836   0.347   0.245   6.539  0.1996 -0.4953  0.7734
   65MOL0     C 8837   0.296   0.232   6.410  0.5775 -0.6949 -0.2582
   65MOL0     C 8838   0.286   0.108   6.351 -0.0046  0.3504  0.8723
   65MOL0     C 8839   0.345  -0.002   6.411  0.3773 -0.1800 -0.0123
   65MOL0     O 8840   0.362  -0.128   6.341 -0.0705 -0.0607  0.8718
   65MOL0     C 8841   0.299  -0.145   6.220  0.1290 -0.8593  0.7248
   65MOL0     C 8842   0.303  -0.293   6.193 -0.6657  0.2953 -0.2497
   65MOL0     C 8843   0.226  -0.343   6.072 -0.3906 -0.4809  0.4523
   65MOL0     C 8844   0.067  -0.335   6.070  0.0400  0.0966  0.1166
   65MOL0     C 8845   0.007  -0.384   5.941  0.9807 -0.3266  0.2397
   65MOL0     C 8846  -0.129  -0.444   5.955  0.4193 -0.0363  0.3960
   65MOL0     C 8847  -0.171  -0.533   5.832 -0.3601 -0.3186  0.5314
   65MOL0     C 8848  -0.146  -0.480   5.694 -0.0575 -0.3713  0.2055
   65MOL0     N 8849  -0.252  -0.523   5.601 -0.6713  0.7222  0.6749
   65MOL0     C 8850  -0.245  -0.647   5.541  0.6023  0.7901  0.3771
   65MOL0     C 8851  -0.362  -0.666   5.468  0.0228  0.8834  0.1261
   65MOL0     C 8852  -0.399  -0.783   5.378 -0.1845 -0.0858  0.6085
   65MOL0     C 8853  -0.356  -0.769   5.238 -0.5893  0.5672  0.9197
   65MOL0     C 8854  -0.208  -0.787   5.213 -1.1993  0.2936  0.3101
   65MOL0     C 8855  -0.162  -0.730   5.083  0.0709  0.2066  0.9851
   65MOL0     O 8856  -0.193  -0.594   5.059  0.1172  0.5289 -0.4942
   65MOL0     C 8857  -0.140  -0.513   5.145 -0.3882  0.3719 -0.1880
   65MOL0     C 8858  -0.002  -0.496   5.152 -0.1041 -0.9439  0.4637
   65MOL0     C 8859   0.062  -0.394   5.231 -0.4592 -0.4993 -0.2344
   65MOL0     C 8860   0.208  -0.369   5.215 -0.6689 -0.0777 -0.6507
   65MOL0     C 8861  -0.024  -0.326   5.315  0.4287  0.6751  0.8327
   65MOL0     C 8862   0.011  -0.213   5.406 -0.7447 -0.3121 -0.0255
   65MOL0     O 8863   0.094  -0.111   5.356 -0.0267 -0.3718  0.3623
   65MOL0     C 8864   0.114   0.008   5.427 -0.4569  0.3774 -1.2508
   65MOL0     C 8865   0.007   0.086   5.477 -0.2722  1.4520  0.0154
   65MOL0     C 8866   0.039   0.209   5.547  0.5825 -0.1537 -0.2208
   65MOL0     C 8867   0.167   0.251   5.580 -0.3181  0.8412 -0.8491
   65MOL0     O 8868   0.199   0.348   5.668  0.1579 -0.4902 -0.2766
   65MOL0     C 8869   0.108   0.457   5.697  0.1637 -0.1614 -0.4954
   65MOL0     C 8870   0.134   0.516   5.840  0.3519  0.7648 -0.9415
   65MOL0     C 8871   0.054   0.649   5.872  0.3642  1.4117  0.0594
   65MOL0     C 8872  -0.033   0.635   6.001 -0.3798  0.6871 -0.0372
   65MOL0     C 8873  -0.139   0.746   6.017  0.2334  1.5226 -0.7060
   65MOL0     C 8874  -0.218   0.728   6.148 -0.7245 -0.4003  0.1081
   65MOL0     C 8875  -0.290   0.858   6.205 -0.0762 -0.7023  0.2661
   65MOL0     C 8876  -0.412   0.850   6.294  0.4565  0.8881  0.1185
   65MOL0    Cl 8877  -0.376   0.738   6.423 -0.2082 -0.3112 -0.5820
   65MOL0     C 8878   0.268   0.175   5.522 -0.1500  0.1139 -0.6960
   65MOL0     C 8879   0.243   0.049   5.455  0.0734 -0.1937  0.8810
   65MOL0     O 8880  -0.029  -0.225   5.523 -0.1031  0.1990  0.4416
   65MOL0     C 8881  -0.162  -0.356   5.323  0.5106 -0.5998  0.8767
   65MOL0     C 8882  -0.223  -0.438   5.230 -0.0540 -0.1316 -0.2590
   65MOL0     N 8883  -0.445  -0.555   5.499  0.1752  0.4320 -0.0923
   65MOL0     N 8884  -0.375  -0.474   5.577  0.8144 -0.4003 -0.3183
   65MOL0     C 8885   0.406   0.008   6.539 -0.4399  0.7643 -0.1680
   65MOL0     C 8886   0.406   0.134   6.601  0.0433 -0.2106 -0.1748
   65MOL0     C 8887   0.547   0.520   6.629 -0.1946  0.4874 -0.3405
   65MOL0     C 8888   0.564   0.633   6.563 -0.3186 -0.3476  0.9118
   65MOL0     C 8889   0.616   0.751   6.623 -0.7475 -0.1000  0.9571
   65MOL0     C 8890   0.678   0.748   6.750  0.3217 -0.2463  0.1899
   65MOL0     O 8891   0.750   0.858   6.770 -0.5552 -0.7667  0.1471
   65MOL0     C 8892   0.817   0.850   6.900  1.7053  0.3004  0.8011
   65MOL0     C 8893   0.925   0.956   6.881 -1.6915  0.3009  0.5622
   65MOL0     C 8894   1.041   0.908   6.785 -0.6905  0.1924 -0.0727
   65MOL0     C 8895   1.158   1.009   6.776 -0.9541 -0.2570  0.6965
   65MOL0     C 8896   1.213   1.019   6.913  1.0884  0.1841  0.0888
   65MOL0     C 8897   1.242   1.033   7.029 -0.0200 -0.4591  0.3130
   65MOL0     C 8898   0.650   0.633   6.821 -0.2348  0.0591  0.1902
   65MOL0     C 8899   0.590   0.519   6.764  0.9635  0.7452 -0.7462
   65MOL0     C 8900   0.563   0.406   6.855 -0.3319  0.8183 -0.2978
   65MOL0     H 8901   0.270   0.324   6.359 -1.9626 -0.1857  1.7446
   65MOL0     H 8902   0.242   0.105   6.252  1.1790  1.7689  0.2498
   65MOL0     H 8903   0.351  -0.094   6.138  0.9718  1.6689  2.6956
   65MOL0     H 8904   0.195  -0.110   6.226  0.2002 -0.0365 -1.8101
   65MOL0     H 8905   0.408  -0.322   6.182 -0.8111  0.0320 -0.9874
   65MOL0     H 8906   0.262  -0.348   6.279  0.1439  1.3808  0.8569
   65MOL0     H 8907   0.272  -0.295   5.985  0.5968  0.1269  1.2889
   65MOL0     H 8908   0.247  -0.451   6.070 -1.3920 -0.6859  0.6469
   65MOL0     H 8909   0.020  -0.393   6.150 -1.9301 -1.4727 -2.0417
   65MOL0     H 8910   0.037  -0.230   6.069 -1.9442 -0.3925 -2.2434
   65MOL0     H 8911   0.082  -0.452   5.900 -0.8734 -2.7088  0.5819
   65MOL0     H 8912  -0.005  -0.304   5.867 -1.3584 -1.1954 -0.3989
   65MOL0     H 8913  -0.131  -0.507   6.044 -0.7518 -1.5923 -0.6799
   65MOL0     H 8914  -0.205  -0.365   5.960 -0.4651 -0.6785 -1.6995
   65MOL0     H 8915  -0.276  -0.563   5.839 -0.1196 -1.0731  1.1096
   65MOL0     H 8916  -0.109  -0.624   5.830  0.5507  0.2476 -1.8212
   65MOL0     H 8917  -0.147  -0.370   5.696 -2.4476 -0.3493  0.1091
   65MOL0     H 8918  -0.049  -0.516   5.657 -0.0226  0.9993 -1.1162
   65MOL0     H 8919  -0.157  -0.708   5.559 -1.3799 -1.7687  2.3947
   65MOL0     H 8920  -0.507  -0.796   5.386 -0.0398 -1.5695  0.4060
   65MOL0     H 8921  -0.357  -0.881   5.404 -0.7754 -1.2515 -2.4471
   65MOL0     H 8922  -0.397  -0.847   5.173  3.1798  1.0137 -2.3957
   65MOL0     H 8923  -0.397  -0.674   5.201  1.9517  1.8272  1.1420
   65MOL0     H 8924  -0.173  -0.731   5.301 -2.0306  3.0617 -1.0118
   65MOL0     H 8925  -0.175  -0.891   5.224 -1.0716  0.3814  0.7742
   65MOL0     H 8926  -0.055  -0.753   5.076  0.0097 -0.7913  2.7457
   65MOL0     H 8927  -0.223  -0.789   5.014 -0.2105  1.8859 -0.2800
   65MOL0     H 8928   0.054  -0.551   5.076 -0.7711 -2.0425  0.7576
   65MOL0     H 8929   0.251  -0.464   5.183  1.9990  0.8759 -0.1950
   65MOL0     H 8930   0.260  -0.350   5.309 -0.5551  2.1443 -1.0988
   65MOL0     H 8931   0.230  -0.286   5.146 -2.2977  0.7646 -0.1948
   65MOL0     H 8932  -0.097   0.057   5.462 -0.5858  2.3931  0.2750
   65MOL0     H 8933  -0.047   0.248   5.602  1.1345 -0.2075  0.7101
   65MOL0     H 8934   0.116   0.533   5.618  4.0445 -2.9673 -3.1229
   65MOL0     H 8935   0.008   0.412   5.698  1.2645 -2.7296 -0.8153
   65MOL0     H 8936   0.114   0.439   5.914  2.3010 -0.3131 -1.4598
   65MOL0     H 8937   0.241   0.538   5.849  0.4203 -0.0051  0.3518
   65MOL0     H 8938  -0.020   0.674   5.796 -1.9348  0.5308  1.9031
   65MOL0     H 8939   0.124   0.730   5.893 -0.7109  2.0269  1.4232
   65MOL0     H 8940   0.026   0.624   6.092 -0.9717 -0.5292  0.2218
   65MOL0     H 8941  -0.073   0.534   5.987  1.4599 -0.0298 -0.3842
   65MOL0     H 8942  -0.083   0.838   6.037  4.0471 -0.4433 -1.3194
   65MOL0     H 8943  -0.202   0.763   5.930 -1.4329 -0.3607  0.0682
   65MOL0     H 8944  -0.141   0.686   6.212  0.2693  2.9755  1.2818
   65MOL0     H 8945  -0.291   0.654   6.113  0.9849 -0.6336 -3.4387
   65MOL0     H 8946  -0.320   0.925   6.124 -2.6699 -2.0631 -0.0073
   65MOL0     H 8947  -0.216   0.899   6.275  3.8628 -3.9281 -1.6268
   65MOL0     H 8948  -0.485   0.803   6.226  3.3680 -0.4525 -2.3061
   65MOL0     H 8949  -0.452   0.947   6.326  0.6289  1.7373 -2.0534
   65MOL0     H 8950   0.362   0.222   5.549 -0.8732  0.8716  0.6109
   65MOL0     H 8951   0.333  -0.009   5.433 -1.3307 -1.4374 -2.1867
   65MOL0     H 8952  -0.219  -0.315   5.406 -1.6179 -0.4058 -0.5838
   65MOL0     H 8953  -0.328  -0.466   5.233 -0.2489  0.6687  0.9890
   65MOL0     H 8954   0.462  -0.071   6.587 -0.1601  2.0568  1.7183
   65MOL0     H 8955   0.459   0.135   6.695  1.2206  2.9696 -0.7750
   65MOL0     H 8956   0.538   0.644   6.459 -0.1982 -3.8903  0.3907
   65MOL0     H 8957   0.642   0.840   6.567  0.6902  0.1080  1.8847
   65MOL0     H 8958   0.746   0.865   6.982 -0.4696 -0.6095 -0.8166
   65MOL0     H 8959   0.874   0.759   6.918  1.5879 -0.3106 -1.5224
   65MOL0     H 8960   0.962   0.961   6.984  2.5785  2.7001 -0.8314
   65MOL0     H 8961   0.875   1.051   6.859 -0.4066  1.1502  1.1242
   65MOL0     H 8962   1.088   0.814   6.816 -2.0096 -0.6545 -0.5349
   65MOL0     H 8963   1.003   0.895   6.683 -0.3690 -3.4113  0.1349
   65MOL0     H 8964   1.130   1.106   6.735  1.2684 -0.6131 -1.9172
   65MOL0     H 8965   1.235   0.967   6.712 -0.6854 -0.0137  0.8588
   65MOL0     H 8966   1.267   1.082   7.121  2.9799  1.2734 -1.2695
   65MOL0     H 8967   0.665   0.627   6.929 -0.2295  0.0080  0.1870
   65MOL0     H 8968   0.655   0.348   6.853  0.2770  1.8091 -1.5127
   65MOL0     H 8969   0.553   0.446   6.957 -0.1473 -0.1960  0.1361
   65MOL0     H 8970   0.474   0.351   6.822  0.0525  1.5912 -2.7801
   66MOL0     O 8971   4.639   9.617   7.378  0.0228  0.9183 -0.2734
   66MOL0     C 8972   4.744   9.667   7.428  0.1176 -0.5628  0.4611
   66MOL0     O 8973   4.871   9.677   7.366  0.5511  0.0706 -0.1514
   66MOL0     C 8974   4.924   9.621   7.254  0.4101 -1.2114 -0.8359
   66MOL0     C 8975   4.845   9.585   7.144 -0.4321  0.1963 -0.5702
   66MOL0     C 8976   4.908   9.543   7.029 -0.0614  0.0756 -0.4037
   66MOL0     C 8977   5.048   9.533   7.022 -0.1582  1.0632  0.1480
   66MOL0     O 8978   5.109   9.478   6.909  0.1105  0.1490  0.5235
   66MOL0     C 8979   5.223   9.548   6.853 -0.0625 -0.0271 -0.2140
   66MOL0     C 8980   5.249   9.494   6.708 -0.7128  0.0254  0.1807
   66MOL0     C 8981   5.147   9.520   6.604  0.5560 -0.5006  1.4212
   66MOL0     C 8982   5.129   9.404   6.499  0.4540 -0.5633 -0.0406
   66MOL0     C 8983   5.233   9.405   6.393 -0.8524 -0.3380 -0.3533
   66MOL0     C 8984   5.205   9.306   6.271  0.2933 -0.2457 -0.2815
   66MOL0     C 8985   5.292   9.334   6.153 -1.0171 -0.6670 -0.1011
   66MOL0     C 8986   5.432   9.321   6.202  0.1129  0.0223 -0.7031
   66MOL0     N 8987   5.520   9.309   6.092  0.0573 -0.1014  0.4636
   66MOL0     C 8988   5.531   9.212   6.000 -0.4272 -0.2335  0.0522
   66MOL0     C 8989   5.642   9.240   5.934 -0.1859 -1.2025 -0.0759
   66MOL0     C 8990   5.702   9.152   5.825 -0.2124  0.0922  0.3591
   66MOL0     C 8991   5.787   9.227   5.723 -0.0849 -0.2609  0.9741
   66MOL0     C 8992   5.843   9.150   5.604  0.6407  0.9442  0.6147
   66MOL0     C 8993   5.950   9.043   5.643  0.5998 -0.4201 -0.2109
   66MOL0     O 8994   5.959   8.948   5.529  0.2704  0.3344 -0.5812
   66MOL0     C 8995   6.043   8.836   5.531 -0.3629 -0.8637 -0.0676
   66MOL0     C 8996   6.059   8.756   5.417 -0.4889 -0.3973  1.2027
   66MOL0     C 8997   6.137   8.636   5.423  0.4575 -0.5593 -0.8001
   66MOL0     C 8998   6.127   8.526   5.329 -0.4977 -0.5132  0.0088
   66MOL0     C 8999   6.207   8.614   5.541 -0.2695 -0.2534 -0.4320
   66MOL0     C 9000   6.302   8.501   5.546  0.2632 -0.2035 -0.4423
   66MOL0     O 9001   6.326   8.458   5.674 -0.2114 -0.4993  0.6084
   66MOL0     C 9002   6.424   8.371   5.693 -0.5706  0.1754  0.3079
   66MOL0     C 9003   6.553   8.382   5.632 -0.0291  0.7744 -0.6525
   66MOL0     C 9004   6.645   8.280   5.647 -1.1006 -0.3692  0.1707
   66MOL0     C 9005   6.613   8.160   5.711  0.2715 -0.1352  0.5467
   66MOL0     O 9006   6.713   8.065   5.706  0.1696 -0.8910  0.2263
   66MOL0     C 9007   6.672   7.932   5.733 -0.4387  1.1239 -0.2976
   66MOL0     C 9008   6.597   7.854   5.623  0.5212 -0.2274  0.0861
   66MOL0     C 9009   6.615   7.714   5.615 -1.3805 -0.0760 -0.6263
   66MOL0     C 9010   6.573   7.629   5.737  0.0799  0.1168 -0.8780
   66MOL0     C 9011   6.600   7.483   5.708 -0.0934 -0.6432 -0.1531
   66MOL0     C 9012   6.544   7.391   5.824  0.2590 -0.7769 -0.2593
   66MOL0     C 9013   6.622   7.391   5.956 -0.1487 -0.2648  0.7196
   66MOL0     C 9014   6.589   7.270   6.048  0.4461  0.5093  0.5729
   66MOL0    Cl 9015   6.411   7.281   6.090 -0.5918 -0.0765 -0.4646
   66MOL0     C 9016   6.480   8.146   5.769 -0.0503 -0.0537 -0.0083
   66MOL0     C 9017   6.385   8.252   5.763 -0.2110 -0.8640  0.1893
   66MOL0     O 9018   6.357   8.459   5.451  0.1151  0.9267 -0.3459
   66MOL0     C 9019   6.204   8.703   5.645 -0.5811  0.9947  0.0743
   66MOL0     C 9020   6.107   8.800   5.656 -0.1396  0.2083  1.2499
   66MOL0     N 9021   5.692   9.359   5.972  0.0235 -0.4359  0.5043
   66MOL0     N 9022   5.615   9.400   6.066 -0.0292 -0.1195 -0.0816
   66MOL0     C 9023   5.121   9.556   7.136  0.8179 -0.5250 -0.6785
   66MOL0     C 9024   5.060   9.604   7.249  0.7353  0.5534  0.3293
   66MOL0     C 9025   4.721   9.748   7.550 -1.1277 -0.3112 -0.1866
   66MOL0     C 9026   4.818   9.853   7.572  0.1954  0.0623 -0.2079
   66MOL0     C 9027   4.803   9.946   7.677  0.0165  0.0674  0.3487
   66MOL0     C 9028   4.693   9.931   7.767 -0.4669  0.3747 -1.0352
   66MOL0     O 9029   4.670  10.025   7.862 -0.9340 -0.3053  0.0923
   66MOL0     C 9030   4.695   9.976   7.994  0.8761 -0.0911 -0.0879
   66MOL0     C 9031   4.590  10.003   8.095 -0.0631  0.0345  0.6782
   66MOL0     C 9032   4.454   9.953   8.054  0.0752 -0.2660  0.1359
   66MOL0     C 9033   4.368   9.986   8.171  0.0845  0.7445 -1.3620
   66MOL0     C 9034   4.225   9.973   8.158 -1.2227  0.4095  0.7090
   66MOL0     C 9035   4.107   9.961   8.140 -0.6195 -0.3306  0.4215
   66MOL0     C 9036   4.605   9.820   7.753 -0.2896  0.3965 -0.0850
   66MOL0     C 9037   4.625   9.721   7.655  0.3436  0.0641  0.0347
   66MOL0     C 9038   4.525   9.604   7.643  0.3991 -0.3359  0.5711
   66MOL0     H 9039   4.737   9.588   7.143 -0.5058 -0.7502  0.6993
   66MOL0     H 9040   4.854   9.526   6.937  0.0372  1.5404 -0.7542
   66MOL0     H 9041   5.315   9.549   6.913  0.5649 -0.2866 -1.1517
   66MOL0     H 9042   5.202   9.653   6.831 -0.2994  0.1437  0.7999
   66MOL0     H 9043   5.348   9.524   6.673 -1.1862  1.9674  0.4042
   66MOL0     H 9044   5.263   9.386   6.724 -1.1111 -0.5027 -2.4598
   66MOL0     H 9045   5.053   9.516   6.660 -0.5848 -0.1505 -0.3794
   66MOL0     H 9046   5.155   9.615   6.550 -2.3768  0.8197  3.0833
   66MOL0     H 9047   5.114   9.302   6.535  1.0647 -0.5003  0.4037
   66MOL0     H 9048   5.027   9.410   6.460  0.3537  1.0891  0.4155
   66MOL0     H 9049   5.333   9.384   6.433  0.1207 -1.5793 -3.1884
   66MOL0     H 9050   5.248   9.506   6.355  2.1282 -0.9833 -1.1611
   66MOL0     H 9051   5.219   9.204   6.308  0.7679 -0.7402 -1.7731
   66MOL0     H 9052   5.104   9.308   6.228 -0.5329 -3.9125  1.0715
   66MOL0     H 9053   5.270   9.438   6.126  0.0307 -0.1463  0.9645
   66MOL0     H 9054   5.280   9.268   6.067  2.4636  0.6399 -1.7650
   66MOL0     H 9055   5.469   9.402   6.266  2.8408 -1.8557  0.3199
   66MOL0     H 9056   5.439   9.233   6.268  2.9806  0.6770  0.0079
   66MOL0     H 9057   5.462   9.129   5.988 -0.8514  0.1316 -0.0541
   66MOL0     H 9058   5.624   9.108   5.763  1.6645 -1.9237 -0.6957
   66MOL0     H 9059   5.767   9.083   5.881 -0.0751  0.6156  0.8543
   66MOL0     H 9060   5.726   9.314   5.698 -2.4439 -1.8582  0.7881
   66MOL0     H 9061   5.880   9.259   5.771  0.0688 -1.9822  1.9091
   66MOL0     H 9062   5.759   9.096   5.560  4.3431 -3.7510 -1.5695
   66MOL0     H 9063   5.882   9.224   5.534  1.8965  2.1609  2.5005
   66MOL0     H 9064   6.042   9.098   5.665 -0.5916  0.8243  1.9739
   66MOL0     H 9065   5.933   8.996   5.740  0.3237  1.0170  0.4652
   66MOL0     H 9066   6.001   8.781   5.328  1.8314  1.2542  0.0320
   66MOL0     H 9067   6.109   8.437   5.390 -2.2520 -0.3302 -0.1899
   66MOL0     H 9068   6.223   8.519   5.277 -0.5442 -0.4258 -0.0873
   66MOL0     H 9069   6.050   8.539   5.253  0.1178 -0.5466 -0.6275
   66MOL0     H 9070   6.593   8.465   5.574  0.4971 -0.9003 -2.8028
   66MOL0     H 9071   6.744   8.296   5.606 -0.8690 -1.6074  0.1946
   66MOL0     H 9072   6.756   7.872   5.771 -0.6569  0.0495 -1.4234
   66MOL0     H 9073   6.611   7.934   5.823 -1.8130 -1.3568 -1.0628
   66MOL0     H 9074   6.492   7.876   5.644  1.2475  3.6000  0.5098
   66MOL0     H 9075   6.614   7.902   5.526  0.0976  1.3308  0.7545
   66MOL0     H 9076   6.715   7.684   5.584 -2.3513 -2.3372 -1.8657
   66MOL0     H 9077   6.545   7.681   5.536 -0.6755 -1.8829 -0.5462
   66MOL0     H 9078   6.473   7.650   5.775  1.8127  2.5352  2.8846
   66MOL0     H 9079   6.635   7.649   5.825 -1.4495 -1.2177  0.5875
   66MOL0     H 9080   6.548   7.460   5.615  3.6742 -0.6804 -2.4777
   66MOL0     H 9081   6.706   7.464   5.689 -0.5634 -1.8357 -1.8164
   66MOL0     H 9082   6.538   7.287   5.794 -1.1625 -2.5682  5.0468
   66MOL0     H 9083   6.442   7.430   5.830  1.0664  1.4176  0.2209
   66MOL0     H 9084   6.607   7.487   6.005  1.5907  0.0097  0.7798
   66MOL0     H 9085   6.728   7.385   5.930 -0.4603 -1.0228 -0.4387
   66MOL0     H 9086   6.640   7.267   6.145 -0.6294  3.0122  1.2992
   66MOL0     H 9087   6.620   7.176   6.003 -0.0167 -0.7275  2.6781
   66MOL0     H 9088   6.442   8.052   5.810  1.5224 -1.5096 -1.7158
   66MOL0     H 9089   6.281   8.238   5.789 -1.3258  0.0163 -3.2854
   66MOL0     H 9090   6.276   8.704   5.726  1.6857 -1.4812 -1.7838
   66MOL0     H 9091   6.096   8.844   5.754 -2.4076 -1.9849  2.0900
   66MOL0     H 9092   5.227   9.537   7.141  0.8750  0.0395  1.0694
   66MOL0     H 9093   5.122   9.628   7.336 -1.6354  0.5310  2.1300
   66MOL0     H 9094   4.891   9.876   7.494  0.7609 -2.7698 -0.6322
   66MOL0     H 9095   4.854  10.041   7.681 -2.4728  1.4950  0.4563
   66MOL0     H 9096   4.694   9.866   7.996 -1.7495 -0.1786 -2.0686
   66MOL0     H 9097   4.791  10.021   8.022  0.8081 -0.8676  1.5462
   66MOL0     H 9098   4.588  10.109   8.120  2.7432  0.3243  0.0140
   66MOL0     H 9099   4.631   9.951   8.182  1.1962 -2.8581 -1.4594
   66MOL0     H 9100   4.421  10.020   7.973 -0.3288 -1.8483 -1.0521
   66MOL0     H 9101   4.459   9.847   8.030 -1.4938 -0.9023  2.3099
   66MOL0     H 9102   4.384  10.087   8.208  3.0817  0.8153 -2.5659
   66MOL0     H 9103   4.399   9.910   8.243 -1.6081  0.3713 -0.9862
   66MOL0     H 9104   4.003   9.941   8.123 -0.8266 -1.0595  2.2917
   66MOL0     H 9105   4.524   9.799   7.823  0.2901 -2.1676 -0.0706
   66MOL0     H 9106   4.576   9.521   7.594 -1.3843 -1.5467  0.6770
   66MOL0     H 9107   4.489   9.564   7.738 -1.7094 -3.1058 -1.2575
   66MOL0     H 9108   4.446   9.646   7.579 -0.3885 -0.8646  1.1706
   67MOL0     O 9109   5.411   5.392   4.267 -0.6616 -0.1573  1.3450
   67MOL0     C 9110   5.459   5.300   4.324  1.1622 -1.1265  0.8912
   67MOL0     O 9111   5.575   5.247   4.291  0.8377 -0.2011 -0.6591
   67MOL0     C 9112   5.624   5.264   4.165 -1.0962  1.1411 -0.0818
   67MOL0     C 9113   5.613   5.153   4.077 -0.5948 -0.0945  0.3857
   67MOL0     C 9114   5.641   5.162   3.939 -0.5368 -0.7330  0.1224
   67MOL0     C 9115   5.701   5.286   3.900 -0.3959 -0.1654  0.6505
   67MOL0     O 9116   5.718   5.305   3.765  0.1096  0.6277  0.0340
   67MOL0     C 9117   5.743   5.431   3.708 -0.7578 -0.7672  0.5976
   67MOL0     C 9118   5.751   5.430   3.543  0.1497 -0.2566 -0.6857
   67MOL0     C 9119   5.615   5.387   3.486 -0.2119  0.6021 -0.9444
   67MOL0     C 9120   5.616   5.324   3.347 -0.8056  0.4520 -0.0355
   67MOL0     C 9121   5.599   5.433   3.243  0.2993  0.6443  0.5876
   67MOL0     C 9122   5.460   5.499   3.245  0.2676 -0.8088  0.0160
   67MOL0     C 9123   5.404   5.548   3.110 -0.8192  0.2006  1.1524
   67MOL0     C 9124   5.268   5.619   3.121 -0.0497 -0.0297 -0.7168
   67MOL0     N 9125   5.230   5.703   3.008 -0.4612 -0.0325  0.5981
   67MOL0     C 9126   5.174   5.829   3.025 -0.6668  0.6915  0.1791
   67MOL0     C 9127   5.087   5.852   2.924 -0.3958 -0.2728  0.6109
   67MOL0     C 9128   4.983   5.960   2.925 -0.5178 -1.4241 -0.6066
   67MOL0     C 9129   5.035   6.103   2.956 -0.0977 -0.8224 -0.1669
   67MOL0     C 9130   5.149   6.163   2.874 -0.2982 -0.4049 -0.1911
   67MOL0     C 9131   5.126   6.179   2.721  0.0164  0.1614 -0.3332
   67MOL0     O 9132   5.225   6.263   2.669  0.2686  0.1557  0.4898
   67MOL0     C 9133   5.208   6.305   2.536 -0.3565  0.5493 -0.0927
   67MOL0     C 9134   5.296   6.399   2.485 -0.0147  0.7352 -0.0758
   67MOL0     C 9135   5.296   6.414   2.351  0.6909  1.4189  0.3396
   67MOL0     C 9136   5.420   6.487   2.296  1.0006  0.1440  0.8941
   67MOL0     C 9137   5.195   6.358   2.266  0.3125 -0.1649 -0.8299
   67MOL0     C 9138   5.182   6.365   2.118 -0.4219 -0.8592  0.8292
   67MOL0     O 9139   5.074   6.306   2.050  0.0415  0.2613  0.0223
   67MOL0     C 9140   5.079   6.308   1.918  1.0790 -0.5249  0.2342
   67MOL0     C 9141   5.045   6.431   1.844  0.4014  0.6028  0.7091
   67MOL0     C 9142   5.034   6.423   1.704 -0.1762  0.3108  0.2486
   67MOL0     C 9143   5.064   6.306   1.633  0.3246 -0.0458  0.2796
   67MOL0     O 9144   5.054   6.317   1.498  0.6613 -0.4815 -0.1200
   67MOL0     C 9145   5.105   6.207   1.419  1.0375  0.1028 -0.9880
   67MOL0     C 9146   5.087   6.230   1.280  0.2821  0.3854 -0.2842
   67MOL0     C 9147   5.188   6.153   1.196 -0.8937  0.3160  0.8210
   67MOL0     C 9148   5.192   6.006   1.212 -0.3219  0.5260  1.4276
   67MOL0     C 9149   5.077   5.932   1.148 -0.4063 -0.9496  0.6471
   67MOL0     C 9150   5.054   5.942   0.991  0.6479 -0.0744 -0.0487
   67MOL0     C 9151   5.180   5.921   0.903  0.7196  0.7371 -0.4895
   67MOL0     C 9152   5.229   5.781   0.940 -0.9273 -0.4270  0.5526
   67MOL0    Cl 9153   5.347   5.732   0.836  0.1345 -0.3185 -0.2091
   67MOL0     C 9154   5.109   6.187   1.707  1.3138 -0.4028  0.5106
   67MOL0     C 9155   5.116   6.191   1.840 -0.2309  0.1090 -0.1525
   67MOL0     O 9156   5.258   6.447   2.058  0.0705  1.1426 -0.0458
   67MOL0     C 9157   5.106   6.272   2.320  0.4948  0.4603 -0.1475
   67MOL0     C 9158   5.118   6.238   2.455  0.6178  0.7751  0.2478
   67MOL0     N 9159   5.110   5.748   2.839  0.5898 -0.2135  0.2228
   67MOL0     N 9160   5.189   5.664   2.887  0.3463  0.3297 -0.2967
   67MOL0     C 9161   5.732   5.395   3.991  0.4504  0.2109 -1.4677
   67MOL0     C 9162   5.690   5.373   4.120 -0.5143 -0.3188 -0.3290
   67MOL0     C 9163   5.379   5.239   4.434 -0.2329  0.5190  0.5948
   67MOL0     C 9164   5.454   5.143   4.514 -0.9800 -0.1993  0.5648
   67MOL0     C 9165   5.412   5.085   4.632  0.4160  0.6199 -0.3145
   67MOL0     C 9166   5.289   5.123   4.685 -0.0397  0.4240 -0.5260
   67MOL0     O 9167   5.258   5.058   4.807  0.0497  1.8676  0.1768
   67MOL0     C 9168   5.131   5.091   4.859  0.2556  0.4887 -0.1570
   67MOL0     C 9169   5.082   5.018   4.992  0.2264  0.0792  0.5050
   67MOL0     C 9170   5.161   5.038   5.125 -0.9646  0.5195 -0.0982
   67MOL0     C 9171   5.177   4.910   5.214 -0.3803  0.1394  0.3942
   67MOL0     C 9172   5.062   4.897   5.308 -0.7534 -0.0185  0.9424
   67MOL0     C 9173   4.973   4.896   5.385  0.1539 -0.5202 -0.5719
   67MOL0     C 9174   5.217   5.225   4.613 -1.5399 -0.5167 -0.4102
   67MOL0     C 9175   5.255   5.274   4.481  0.1349  0.5927 -0.4004
   67MOL0     C 9176   5.149   5.360   4.416 -0.2058  0.3832  0.7281
   67MOL0     H 9177   5.566   5.065   4.120 -0.0723 -1.3348 -1.4786
   67MOL0     H 9178   5.605   5.098   3.858  0.5708 -1.0051 -0.1693
   67MOL0     H 9179   5.844   5.459   3.740 -1.7720  1.5857  2.0519
   67MOL0     H 9180   5.673   5.507   3.744 -3.8795 -3.1945  0.0893
   67MOL0     H 9181   5.796   5.524   3.509  4.2961 -2.4071 -1.7611
   67MOL0     H 9182   5.828   5.353   3.528  1.3274  1.0989 -1.9578
   67MOL0     H 9183   5.569   5.325   3.564  0.5765  2.2470  0.9386
   67MOL0     H 9184   5.536   5.462   3.496 -0.1133  0.4533  2.0131
   67MOL0     H 9185   5.710   5.269   3.337  0.8011  2.6700  1.9041
   67MOL0     H 9186   5.534   5.252   3.335 -1.7353  1.0982  1.9555
   67MOL0     H 9187   5.595   5.386   3.144 -0.5913  1.0871  0.4017
   67MOL0     H 9188   5.680   5.507   3.241  0.6165  0.3046  0.6113
   67MOL0     H 9189   5.393   5.422   3.283 -1.2641  1.5003  2.2988
   67MOL0     H 9190   5.464   5.589   3.307 -4.4989  1.2662 -2.2117
   67MOL0     H 9191   5.390   5.463   3.042  3.5498 -1.8109  2.4240
   67MOL0     H 9192   5.476   5.608   3.055 -1.4814  1.1826  1.3334
   67MOL0     H 9193   5.188   5.545   3.125  1.1900 -1.7891 -4.2530
   67MOL0     H 9194   5.273   5.672   3.217  3.0388  0.2777 -0.9297
   67MOL0     H 9195   5.183   5.887   3.116  1.8842  3.1804 -1.5027
   67MOL0     H 9196   4.891   5.937   2.978  1.7981 -3.9834  2.7177
   67MOL0     H 9197   4.954   5.983   2.822 -1.3733 -1.9393 -0.4880
   67MOL0     H 9198   4.955   6.178   2.964  2.3202  1.7568  1.6478
   67MOL0     H 9199   5.080   6.091   3.055  1.4953  0.5436 -0.6872
   67MOL0     H 9200   5.173   6.253   2.931  0.1685 -2.8606  3.9115
   67MOL0     H 9201   5.226   6.086   2.884 -2.7996 -3.2604 -1.4945
   67MOL0     H 9202   5.126   6.080   2.673  2.0855  0.7248 -1.6293
   67MOL0     H 9203   5.025   6.218   2.708  0.3968  1.6411  0.8889
   67MOL0     H 9204   5.375   6.450   2.541  0.3529  0.0137  0.0802
   67MOL0     H 9205   5.493   6.519   2.371 -0.1230  2.4077  1.1002
   67MOL0     H 9206   5.401   6.575   2.234  1.3816 -0.6586 -0.4127
   67MOL0     H 9207   5.473   6.413   2.235  1.4957  0.2101  1.2310
   67MOL0     H 9208   5.021   6.523   1.897 -0.0403  0.2309  1.1607
   67MOL0     H 9209   5.007   6.508   1.642 -2.9321 -0.3118  0.4693
   67MOL0     H 9210   5.213   6.198   1.434  1.2752  2.2368 -1.1326
   67MOL0     H 9211   5.052   6.115   1.447 -2.0825  2.6041  2.4278
   67MOL0     H 9212   4.989   6.201   1.241  0.4605 -0.3314 -0.2039
   67MOL0     H 9213   5.100   6.335   1.250 -0.6608  0.7720  0.5845
   67MOL0     H 9214   5.289   6.181   1.228 -0.2941 -2.4844  1.6365
   67MOL0     H 9215   5.168   6.178   1.092 -2.8918 -4.5949 -0.2513
   67MOL0     H 9216   5.204   5.965   1.312 -2.1423 -1.8180  0.7926
   67MOL0     H 9217   5.288   5.981   1.166 -1.0773  1.0903 -0.5928
   67MOL0     H 9218   5.093   5.827   1.174  0.8784 -0.8445  0.3321
   67MOL0     H 9219   4.988   5.962   1.204  0.0053  0.6980  0.4615
   67MOL0     H 9220   5.008   6.037   0.963  1.4196 -0.4307 -2.8498
   67MOL0     H 9221   4.974   5.868   0.982 -1.9162  2.2130  2.0301
   67MOL0     H 9222   5.260   5.992   0.925  3.0968 -1.8957 -0.0107
   67MOL0     H 9223   5.145   5.925   0.799  1.3167  0.2962 -0.7088
   67MOL0     H 9224   5.155   5.703   0.921  0.9427 -1.9614 -0.7840
   67MOL0     H 9225   5.267   5.776   1.043 -0.9122 -0.8863  0.5246
   67MOL0     H 9226   5.142   6.099   1.653  3.2393 -0.9009  2.3943
   67MOL0     H 9227   5.156   6.105   1.892  1.0187  0.4623 -0.5041
   67MOL0     H 9228   5.026   6.236   2.258 -1.9304  1.7954  1.9956
   67MOL0     H 9229   5.048   6.162   2.488  1.1733 -1.3982 -3.1343
   67MOL0     H 9230   5.771   5.494   3.967  4.7145 -0.5428  1.2189
   67MOL0     H 9231   5.701   5.457   4.188 -1.7304 -1.9902  2.0903
   67MOL0     H 9232   5.553   5.115   4.481 -2.4766 -4.2513 -1.2332
   67MOL0     H 9233   5.466   5.015   4.696 -4.0554 -3.9078 -0.8397
   67MOL0     H 9234   5.116   5.195   4.886 -2.5891 -0.2045  1.3512
   67MOL0     H 9235   5.062   5.072   4.776  1.5484  0.1571 -1.2070
   67MOL0     H 9236   5.064   4.913   4.972 -0.1409  0.1765  0.3300
   67MOL0     H 9237   4.983   5.063   5.003 -2.4028 -1.7112 -8.2086
   67MOL0     H 9238   5.262   5.072   5.100  0.4462 -3.4332 -0.6454
   67MOL0     H 9239   5.120   5.116   5.189  2.3326  1.7539  0.7331
   67MOL0     H 9240   5.271   4.912   5.269  0.5899 -0.5079 -1.1655
   67MOL0     H 9241   5.182   4.827   5.143  0.9100  1.0877 -0.6768
   67MOL0     H 9242   4.906   4.901   5.468  1.6668 -0.4990  0.6866
   67MOL0     H 9243   5.121   5.259   4.650  0.8439  4.6830  1.9899
   67MOL0     H 9244   5.050   5.338   4.459 -0.0819 -0.5828  0.5412
   67MOL0     H 9245   5.162   5.468   4.422  3.2209  0.0196  4.5504
   67MOL0     H 9246   5.149   5.326   4.313 -0.4954  2.5342 -0.0281
   68MOL0     O 9247   5.922   8.042   9.562 -0.9469 -0.1898  0.5783
   68MOL0     C 9248   5.820   7.989   9.513  0.5378 -0.2949  0.1832
   68MOL0     O 9249   5.735   8.042   9.419 -0.0633  0.1424 -1.0160
   68MOL0     C 9250   5.748   8.173   9.377  0.5836  0.4384 -0.2169
   68MOL0     C 9251   5.811   8.191   9.257  0.6136 -0.0378 -0.5002
   68MOL0     C 9252   5.841   8.315   9.218  0.7453  0.2600 -0.4708
   68MOL0     C 9253   5.797   8.434   9.286  0.0774  0.3903  0.8516
   68MOL0     O 9254   5.824   8.547   9.213 -0.1547 -0.6796  0.8092
   68MOL0     C 9255   5.858   8.662   9.297  0.5820  0.1664  0.4456
   68MOL0     C 9256   5.906   8.783   9.210  0.2863 -0.1055 -0.0087
   68MOL0     C 9257   6.032   8.745   9.133 -0.2041  0.0346  0.0768
   68MOL0     C 9258   6.075   8.862   9.045 -0.8158 -0.4764  0.1361
   68MOL0     C 9259   6.180   8.811   8.946  0.3798 -0.1883  0.2330
   68MOL0     C 9260   6.253   8.922   8.870  1.2859 -0.2206  0.3891
   68MOL0     C 9261   6.345   8.887   8.757 -0.0984  0.2072  0.2404
   68MOL0     C 9262   6.451   8.783   8.809 -0.1709  0.3518 -0.1237
   68MOL0     N 9263   6.548   8.740   8.707 -0.8353 -0.4372  0.2900
   68MOL0     C 9264   6.566   8.611   8.653  0.0807 -0.5668  0.5163
   68MOL0     C 9265   6.679   8.620   8.576 -0.2650 -0.6355 -0.9739
   68MOL0     C 9266   6.748   8.526   8.473 -0.8178 -0.4235 -0.0373
   68MOL0     C 9267   6.846   8.430   8.532  0.1150 -0.1073  0.2728
   68MOL0     C 9268   6.919   8.363   8.412  0.4539  0.0122  0.2627
   68MOL0     C 9269   7.041   8.451   8.365 -0.8306  0.5431  0.2801
   68MOL0     O 9270   7.122   8.386   8.272  0.1871 -0.4374 -0.1177
   68MOL0     C 9271   7.220   8.460   8.212 -0.1551  0.5484  0.0554
   68MOL0     C 9272   7.232   8.595   8.181  0.7013 -0.4684  0.3724
   68MOL0     C 9273   7.356   8.646   8.134  0.0899 -0.8615  0.2121
   68MOL0     C 9274   7.360   8.797   8.111  0.7082 -0.1168  0.6781
   68MOL0     C 9275   7.471   8.560   8.103  0.4491  0.4688  0.5147
   68MOL0     C 9276   7.602   8.606   8.051  0.6959 -0.3316 -0.1224
   68MOL0     O 9277   7.623   8.737   8.038 -0.0409  0.4656  0.0296
   68MOL0     C 9278   7.745   8.806   8.024  0.0521  0.3020 -0.6676
   68MOL0     C 9279   7.742   8.920   7.946  0.6794  0.5247 -1.0360
   68MOL0     C 9280   7.853   8.999   7.935  0.3041  0.6848 -0.0497
   68MOL0     C 9281   7.967   8.959   7.989  0.5394 -0.4559  0.1073
   68MOL0     O 9282   8.083   9.029   7.977  1.4256 -0.2744 -0.4350
   68MOL0     C 9283   8.095   9.128   7.875 -0.5262 -0.5332 -0.3332
   68MOL0     C 9284   8.236   9.181   7.875 -0.9832 -0.9647 -0.7696
   68MOL0     C 9285   8.261   9.319   7.823  0.2075  0.0641 -0.4651
   68MOL0     C 9286   8.390   9.369   7.880  0.9793  0.1252 -0.3581
   68MOL0     C 9287   8.436   9.495   7.809 -0.0229  0.0233  0.2008
   68MOL0     C 9288   8.579   9.525   7.861  0.8344 -0.6898 -0.1653
   68MOL0     C 9289   8.619   9.669   7.835  0.4762  0.4370  0.2753
   68MOL0     C 9290   8.768   9.687   7.836 -0.7343 -0.2554  0.1258
   68MOL0    Cl 9291   8.822   9.841   7.752  0.4076 -0.4560  0.2449
   68MOL0     C 9292   7.966   8.855   8.079  0.0579  0.5578  0.9032
   68MOL0     C 9293   7.859   8.777   8.095  0.5603  0.3018  0.8876
   68MOL0     O 9294   7.685   8.520   8.045  0.0807 -0.2871 -0.2426
   68MOL0     C 9295   7.447   8.425   8.118  0.0033  0.0740  0.0739
   68MOL0     C 9296   7.331   8.376   8.178  0.3121 -0.3285 -0.4686
   68MOL0     N 9297   6.716   8.754   8.576 -1.1181 -0.2698  0.6718
   68MOL0     N 9298   6.641   8.821   8.645  0.2903  0.4970  0.1792
   68MOL0     C 9299   5.736   8.413   9.412  1.1737  0.2979 -0.9343
   68MOL0     C 9300   5.716   8.282   9.461  0.0652 -0.0546  0.6883
   68MOL0     C 9301   5.767   7.846   9.557 -0.0245  0.2406 -0.4610
   68MOL0     C 9302   5.657   7.791   9.498  0.1800 -0.1826 -0.1673
   68MOL0     C 9303   5.610   7.662   9.530 -0.0734 -0.6915  0.4141
   68MOL0     C 9304   5.683   7.588   9.622 -0.0417  1.2268 -1.2636
   68MOL0     O 9305   5.676   7.452   9.639 -0.3133  0.1433 -0.5886
   68MOL0     C 9306   5.574   7.385   9.565  0.1712 -0.2385 -0.1488
   68MOL0     C 9307   5.571   7.236   9.582 -0.5875 -0.1434 -0.0769
   68MOL0     C 9308   5.694   7.181   9.514  0.3672 -0.3616 -0.0109
   68MOL0     C 9309   5.725   7.036   9.555  0.6458  0.2650  0.5304
   68MOL0     C 9310   5.761   7.031   9.695 -0.3045 -0.4942 -0.2250
   68MOL0     C 9311   5.784   7.025   9.813 -0.5918 -1.0121 -0.8468
   68MOL0     C 9312   5.795   7.647   9.696 -0.0171  0.4118 -0.7634
   68MOL0     C 9313   5.841   7.776   9.659  0.4069  0.3626 -0.6858
   68MOL0     C 9314   5.974   7.827   9.726  0.1239  0.1163  1.0978
   68MOL0     H 9315   5.825   8.100   9.200 -1.7517 -1.6869  1.3288
   68MOL0     H 9316   5.898   8.317   9.125  4.3105 -1.1624  1.4700
   68MOL0     H 9317   5.928   8.629   9.374 -0.8413 -1.8537  0.9496
   68MOL0     H 9318   5.763   8.693   9.340 -0.3514 -2.1400  0.1406
   68MOL0     H 9319   5.822   8.797   9.142  0.0487 -0.2836  0.2458
   68MOL0     H 9320   5.912   8.861   9.286 -2.0183 -3.2439  3.7926
   68MOL0     H 9321   6.105   8.730   9.213  0.6656  1.8611 -0.3178
   68MOL0     H 9322   6.022   8.660   9.065  0.3064  2.2737 -3.0206
   68MOL0     H 9323   5.992   8.914   8.997 -2.5813 -3.0901  0.0886
   68MOL0     H 9324   6.123   8.940   9.104  0.5321 -0.2394 -1.2159
   68MOL0     H 9325   6.141   8.747   8.865 -2.6095  3.5125 -1.5760
   68MOL0     H 9326   6.259   8.765   9.006  0.0715  2.8965  3.3213
   68MOL0     H 9327   6.164   8.965   8.823 -0.0141 -2.4563  0.6411
   68MOL0     H 9328   6.299   8.996   8.936  3.9687 -0.8633 -0.6268
   68MOL0     H 9329   6.400   8.977   8.726 -1.7086  0.3960 -2.3900
   68MOL0     H 9330   6.291   8.838   8.676 -0.4744 -0.8429  1.1068
   68MOL0     H 9331   6.508   8.823   8.893 -0.5233 -1.6424  1.0987
   68MOL0     H 9332   6.400   8.697   8.852 -0.3034  0.7034  0.4304
   68MOL0     H 9333   6.496   8.528   8.658 -2.2351  1.1515 -1.2132
   68MOL0     H 9334   6.788   8.588   8.392 -3.0356  2.3258  0.8114
   68MOL0     H 9335   6.659   8.470   8.440 -1.4638 -1.0785  2.5663
   68MOL0     H 9336   6.919   8.481   8.596  1.0207  1.5049 -1.9233
   68MOL0     H 9337   6.790   8.351   8.583  1.4505 -2.8809 -2.2719
   68MOL0     H 9338   6.942   8.259   8.434 -1.6088 -0.7728 -1.0296
   68MOL0     H 9339   6.858   8.343   8.323  2.8766 -0.7229 -1.3226
   68MOL0     H 9340   7.005   8.543   8.318 -2.4257 -0.8890 -1.4718
   68MOL0     H 9341   7.095   8.482   8.455 -1.8446 -0.3547  1.2351
   68MOL0     H 9342   7.153   8.666   8.201  3.0186  2.2724  0.3963
   68MOL0     H 9343   7.358   8.816   8.003  1.6454 -0.7563  0.5387
   68MOL0     H 9344   7.458   8.837   8.137  0.2139  2.0560 -0.5383
   68MOL0     H 9345   7.294   8.857   8.175  2.3530  1.8552  0.6152
   68MOL0     H 9346   7.650   8.934   7.889 -2.1469 -0.3450  2.9349
   68MOL0     H 9347   7.843   9.078   7.861 -1.8808  0.0001 -0.5377
   68MOL0     H 9348   8.063   9.086   7.779 -0.5864 -0.9384 -0.1382
   68MOL0     H 9349   8.031   9.213   7.901 -0.2004 -0.3302 -0.1905
   68MOL0     H 9350   8.274   9.178   7.978  1.0767 -1.5915 -1.5009
   68MOL0     H 9351   8.290   9.105   7.819  1.1862  0.6596 -1.0174
   68MOL0     H 9352   8.190   9.390   7.866 -0.5272  0.8220 -2.7806
   68MOL0     H 9353   8.248   9.322   7.715 -1.4129  1.4327 -0.2679
   68MOL0     H 9354   8.464   9.292   7.854  0.9770  0.2678 -0.8032
   68MOL0     H 9355   8.382   9.391   7.986 -0.4898  0.8746 -0.5963
   68MOL0     H 9356   8.434   9.483   7.700  0.7666 -0.3999  0.2283
   68MOL0     H 9357   8.376   9.583   7.834  1.6792  1.6288 -1.0905
   68MOL0     H 9358   8.652   9.455   7.819  1.0038 -1.2872  1.0946
   68MOL0     H 9359   8.590   9.502   7.967 -1.5446 -0.4294  0.1825
   68MOL0     H 9360   8.573   9.733   7.911  1.1491  1.1524  0.0907
   68MOL0     H 9361   8.580   9.698   7.737 -2.4866  2.4388  1.8875
   68MOL0     H 9362   8.819   9.601   7.792 -0.6409  0.2740 -0.8425
   68MOL0     H 9363   8.801   9.708   7.938 -1.3478 -2.8514  0.9281
   68MOL0     H 9364   8.058   8.833   8.133  0.2836 -0.6730  0.0688
   68MOL0     H 9365   7.859   8.680   8.143 -0.7591 -0.0141  0.2891
   68MOL0     H 9366   7.521   8.347   8.101 -2.0961 -2.5666  2.1955
   68MOL0     H 9367   7.325   8.269   8.195 -4.2979 -0.4232 -1.4138
   68MOL0     H 9368   5.706   8.499   9.471 -3.0320 -1.3671 -0.2539
   68MOL0     H 9369   5.666   8.265   9.556 -1.1000  1.3759  0.3812
   68MOL0     H 9370   5.600   7.849   9.426 -2.1809 -1.2019  0.7790
   68MOL0     H 9371   5.536   7.622   9.462  2.1176 -0.3860 -2.3523
   68MOL0     H 9372   5.479   7.424   9.604  1.0462  2.8083 -0.7632
   68MOL0     H 9373   5.575   7.409   9.458 -4.6368 -0.8063 -0.5468
   68MOL0     H 9374   5.488   7.191   9.527  1.9939 -2.5120 -2.3700
   68MOL0     H 9375   5.552   7.212   9.687 -1.2037 -4.0177 -0.9194
   68MOL0     H 9376   5.668   7.173   9.408 -0.3104 -1.3199  0.2156
   68MOL0     H 9377   5.780   7.249   9.517 -2.2354  3.2801 -0.9325
   68MOL0     H 9378   5.814   7.005   9.500  1.2991  1.6011  0.7967
   68MOL0     H 9379   5.634   6.977   9.542 -0.6427  2.4010 -0.7199
   68MOL0     H 9380   5.819   7.016   9.914 -0.8988 -1.5120 -0.7821
   68MOL0     H 9381   5.860   7.579   9.750  0.9025  0.4193 -1.8169
   68MOL0     H 9382   5.965   7.929   9.763 -2.1481  0.4127 -0.1176
   68MOL0     H 9383   6.005   7.751   9.798 -2.4133 -2.3741 -0.2402
   68MOL0     H 9384   6.049   7.810   9.648 -0.1584  0.7738  0.6792
   69MOL0     O 9385   4.082   4.519   9.104  0.1908 -0.2407  0.9944
   69MOL0     C 9386   4.010   4.624   9.122 -0.0630  0.4146  0.0371
   69MOL0     O 9387   3.880   4.617   9.138  0.3615 -0.5029  0.0164
   69MOL0     C 9388   3.821   4.497   9.133  1.0173  0.0674 -0.5880
   69MOL0     C 9389   3.767   4.439   9.023  1.2057  0.4843 -0.0678
   69MOL0     C 9390   3.707   4.308   9.030 -1.1659 -0.4776 -0.3225
   69MOL0     C 9391   3.683   4.245   9.146 -0.5149 -0.0759 -0.5796
   69MOL0     O 9392   3.624   4.123   9.140 -0.3033 -0.4518 -0.1114
   69MOL0     C 9393   3.485   4.132   9.112 -0.1615  0.2727  0.9165
   69MOL0     C 9394   3.425   3.997   9.055 -0.1231 -0.1108 -0.4827
   69MOL0     C 9395   3.515   3.930   8.955 -0.4717  0.8379  0.6129
   69MOL0     C 9396   3.464   3.785   8.903  0.7185 -0.1441 -0.7790
   69MOL0     C 9397   3.324   3.759   8.843 -0.2624  0.3164  0.6545
   69MOL0     C 9398   3.290   3.850   8.730  0.5013 -0.3241  0.8521
   69MOL0     C 9399   3.148   3.812   8.682 -0.4551 -0.5340 -0.2355
   69MOL0     C 9400   3.079   3.921   8.604 -0.2136  1.0304  0.4561
   69MOL0     N 9401   3.155   3.992   8.500 -0.6844 -1.0366  0.0814
   69MOL0     C 9402   3.253   3.935   8.427 -0.1310  0.0721 -0.2794
   69MOL0     C 9403   3.292   4.037   8.334  0.5149  0.1267 -0.4071
   69MOL0     C 9404   3.399   4.041   8.235 -0.3181 -0.7229  0.2243
   69MOL0     C 9405   3.544   4.049   8.294  0.0637 -1.0656 -0.4260
   69MOL0     C 9406   3.603   3.923   8.358 -0.4339  1.0048 -0.1028
   69MOL0     C 9407   3.738   3.883   8.290 -0.7370 -0.1323 -0.4209
   69MOL0     O 9408   3.723   3.881   8.147 -0.1792 -0.0461 -0.3475
   69MOL0     C 9409   3.835   3.845   8.066  0.1134  0.0700  0.3069
   69MOL0     C 9410   3.802   3.806   7.935  0.1290 -0.0232 -0.0606
   69MOL0     C 9411   3.907   3.741   7.865  0.0067  0.6873  0.3839
   69MOL0     C 9412   3.856   3.690   7.740 -0.1638 -0.0125  0.5221
   69MOL0     C 9413   4.041   3.730   7.908 -0.6771  0.3453 -0.3528
   69MOL0     C 9414   4.150   3.666   7.833  0.2353  0.9445  0.5348
   69MOL0     O 9415   4.127   3.611   7.714 -0.5380  0.8742  0.0613
   69MOL0     C 9416   4.217   3.504   7.673  1.0510 -0.8824  0.7341
   69MOL0     C 9417   4.234   3.386   7.739 -0.1479 -0.1258  0.1139
   69MOL0     C 9418   4.312   3.283   7.683  0.2585  0.6417  0.1052
   69MOL0     C 9419   4.371   3.296   7.561 -0.3390 -0.9448  0.2896
   69MOL0     O 9420   4.436   3.199   7.492 -0.0458 -0.1109 -0.2021
   69MOL0     C 9421   4.353   3.086   7.463  0.2507  0.0337 -0.2509
   69MOL0     C 9422   4.370   3.038   7.317 -0.8707  0.6327 -0.4050
   69MOL0     C 9423   4.260   2.962   7.251  0.8553 -0.6794  0.3962
   69MOL0     C 9424   4.264   2.988   7.102  0.0250  0.1967 -0.4501
   69MOL0     C 9425   4.163   2.912   7.006 -0.3795  0.3086 -0.6268
   69MOL0     C 9426   4.025   2.968   7.007  0.0035  0.3220 -0.3509
   69MOL0     C 9427   3.944   2.884   6.920  0.4719 -0.4183 -0.3036
   69MOL0     C 9428   3.794   2.922   6.924  1.3038  0.0453  0.1697
   69MOL0    Cl 9429   3.772   3.083   6.833  0.6898  0.2688  0.2545
   69MOL0     C 9430   4.342   3.410   7.497  0.0013 -0.4189 -0.0786
   69MOL0     C 9431   4.269   3.522   7.545 -0.5817 -0.0784  0.0271
   69MOL0     O 9432   4.256   3.663   7.891 -0.1836 -0.1065 -0.0468
   69MOL0     C 9433   4.064   3.796   8.026 -0.1660 -0.1307  0.5035
   69MOL0     C 9434   3.961   3.844   8.105  0.1831 -0.2794 -0.5675
   69MOL0     N 9435   3.219   4.146   8.367  0.1386 -0.0066  0.1088
   69MOL0     N 9436   3.140   4.119   8.457 -0.5504  0.3009 -0.1491
   69MOL0     C 9437   3.723   4.308   9.268 -0.4001 -0.3141  0.5050
   69MOL0     C 9438   3.797   4.430   9.263  0.2132 -0.0265 -0.1354
   69MOL0     C 9439   4.086   4.748   9.164 -0.9192  0.5940  0.8898
   69MOL0     C 9440   4.228   4.732   9.195  0.7596  0.5115  0.1912
   69MOL0     C 9441   4.302   4.835   9.247 -0.3631  0.0307 -0.1679
   69MOL0     C 9442   4.240   4.958   9.285 -0.0841  0.5584 -0.2300
   69MOL0     O 9443   4.321   5.053   9.333 -0.3783 -0.6081 -0.8968
   69MOL0     C 9444   4.305   5.057   9.475 -0.0242  0.0359 -0.0014
   69MOL0     C 9445   4.365   5.181   9.542 -0.7072 -0.7379  0.1821
   69MOL0     C 9446   4.289   5.310   9.495 -0.5314  0.0359  0.2619
   69MOL0     C 9447   4.362   5.430   9.553 -0.0212 -0.2882 -0.8878
   69MOL0     C 9448   4.304   5.547   9.495  1.2991  0.3692 -0.5494
   69MOL0     C 9449   4.262   5.653   9.445 -0.3720 -0.0921  0.4355
   69MOL0     C 9450   4.104   4.977   9.259  0.7988 -0.2150  0.3388
   69MOL0     C 9451   4.026   4.871   9.203 -0.4294  0.3288  0.7664
   69MOL0     C 9452   3.875   4.904   9.179 -0.0028 -0.3134 -0.0026
   69MOL0     H 9453   3.760   4.507   8.938 -0.2804  3.3555  2.1927
   69MOL0     H 9454   3.706   4.248   8.939  1.2274 -1.6768  0.3496
   69MOL0     H 9455   3.466   4.212   9.041 -0.4015  0.1000  0.7877
   69MOL0     H 9456   3.426   4.144   9.203 -0.1195 -1.9646  1.2925
   69MOL0     H 9457   3.421   3.915   9.127 -0.5818 -0.8628 -1.3515
   69MOL0     H 9458   3.321   4.007   9.021 -0.2169  1.6397  0.1726
   69MOL0     H 9459   3.525   4.002   8.874 -2.1008  3.8955  2.9353
   69MOL0     H 9460   3.615   3.912   8.995  0.1953 -3.4487 -2.2563
   69MOL0     H 9461   3.545   3.746   8.841  0.3546 -0.3511 -1.1302
   69MOL0     H 9462   3.469   3.709   8.982  0.1040 -1.3044 -1.8224
   69MOL0     H 9463   3.247   3.771   8.920 -1.0458  2.6154 -0.4092
   69MOL0     H 9464   3.317   3.656   8.807 -3.4173  0.0025  1.8392
   69MOL0     H 9465   3.283   3.950   8.774  2.8390 -0.2709  1.1849
   69MOL0     H 9466   3.364   3.851   8.650 -1.0704  1.6836 -0.6960
   69MOL0     H 9467   3.099   3.779   8.774  1.3021 -0.9065  0.6153
   69MOL0     H 9468   3.149   3.724   8.617 -0.5159 -0.7073 -0.0033
   69MOL0     H 9469   2.995   3.876   8.550 -0.4796 -1.0101  2.4406
   69MOL0     H 9470   3.038   3.991   8.677 -1.8111 -2.2855  2.9893
   69MOL0     H 9471   3.292   3.834   8.431  2.1953  0.7622 -2.6958
   69MOL0     H 9472   3.381   4.122   8.164 -4.1838 -1.2489  0.3903
   69MOL0     H 9473   3.391   3.949   8.177  1.0428 -0.1353 -0.9912
   69MOL0     H 9474   3.597   4.098   8.211 -0.0669  1.0690  0.6748
   69MOL0     H 9475   3.534   4.120   8.376 -2.8671 -0.6680 -1.0335
   69MOL0     H 9476   3.627   3.947   8.463  2.4244 -0.3048 -0.3522
   69MOL0     H 9477   3.544   3.832   8.372  1.3595 -0.1362  0.4212
   69MOL0     H 9478   3.816   3.954   8.318 -2.2955  1.0742  1.1282
   69MOL0     H 9479   3.766   3.782   8.319 -1.2662  0.2441  1.5140
   69MOL0     H 9480   3.700   3.815   7.900 -0.0989 -0.3680  0.5009
   69MOL0     H 9481   3.748   3.680   7.749 -0.0863 -0.8531  0.5796
   69MOL0     H 9482   3.888   3.590   7.711 -1.5700 -0.3223 -0.0605
   69MOL0     H 9483   3.871   3.756   7.653 -1.5818  0.9132  0.9508
   69MOL0     H 9484   4.168   3.380   7.825 -1.8920  0.0922 -1.1584
   69MOL0     H 9485   4.320   3.199   7.751  1.6259  2.1336  1.8880
   69MOL0     H 9486   4.380   3.004   7.530  0.1235  0.1628 -0.0424
   69MOL0     H 9487   4.249   3.119   7.472  0.0854 -0.7889  1.1308
   69MOL0     H 9488   4.394   3.127   7.258  2.2286  0.3630  0.2537
   69MOL0     H 9489   4.454   2.969   7.310 -3.1823 -2.2175 -1.9440
   69MOL0     H 9490   4.168   2.997   7.298  1.7626  1.3057  0.8065
   69MOL0     H 9491   4.284   2.858   7.274  0.2048 -1.3612 -1.8012
   69MOL0     H 9492   4.357   2.951   7.059  0.9132  1.0722  0.6589
   69MOL0     H 9493   4.252   3.096   7.084 -1.1879 -0.1112 -1.7512
   69MOL0     H 9494   4.200   2.924   6.904  0.8586 -2.4618 -0.5913
   69MOL0     H 9495   4.166   2.803   7.021 -3.2883  0.3179  0.8097
   69MOL0     H 9496   4.027   3.072   6.972  1.7069  0.2574 -0.5002
   69MOL0     H 9497   3.981   2.964   7.107  1.1829  2.3472  0.3098
   69MOL0     H 9498   3.958   2.782   6.959  0.2505 -0.5607 -0.5927
   69MOL0     H 9499   3.981   2.877   6.817  1.5470  0.5571 -0.0027
   69MOL0     H 9500   3.754   2.928   7.025  0.2870  0.3173 -0.2329
   69MOL0     H 9501   3.748   2.840   6.868 -0.1627  1.6429 -1.0983
   69MOL0     H 9502   4.385   3.440   7.402 -1.8946 -0.2900 -0.9493
   69MOL0     H 9503   4.249   3.611   7.486 -1.0119 -1.1075 -1.4281
   69MOL0     H 9504   4.164   3.822   8.061 -0.9725  0.9254  2.1373
   69MOL0     H 9505   3.983   3.892   8.200 -0.4155 -1.3507  0.1353
   69MOL0     H 9506   3.726   4.258   9.364  4.2507  0.4182  0.9769
   69MOL0     H 9507   3.834   4.471   9.357 -0.5904 -1.4121  0.8256
   69MOL0     H 9508   4.267   4.632   9.188 -1.8249 -0.5552 -0.2761
   69MOL0     H 9509   4.404   4.828   9.283  0.3474  1.3487 -1.7710
   69MOL0     H 9510   4.200   5.046   9.502  0.2018  0.7209  1.2420
   69MOL0     H 9511   4.352   4.972   9.525  0.1883  2.3178  4.0921
   69MOL0     H 9512   4.471   5.194   9.517 -0.3276  0.0766  1.9891
   69MOL0     H 9513   4.354   5.164   9.650  1.7245  0.2640  0.6663
   69MOL0     H 9514   4.293   5.314   9.386  0.8595  0.9334  0.3223
   69MOL0     H 9515   4.185   5.303   9.530 -0.3762 -1.6214  0.5040
   69MOL0     H 9516   4.469   5.427   9.531  0.3087 -2.4347  0.6538
   69MOL0     H 9517   4.364   5.433   9.662  6.3552 -2.9889 -0.5033
   69MOL0     H 9518   4.206   5.728   9.393  3.1079  0.3086 -3.2528
   69MOL0     H 9519   4.055   5.073   9.273  0.1064 -0.6923  1.2602
   69MOL0     H 9520   3.894   4.997   9.125 -2.5109  1.2193  1.5716
   69MOL0     H 9521   3.828   4.834   9.110  1.3250 -1.9763  0.6984
   69MOL0     H 9522   3.826   4.902   9.277  0.7150  0.7742  0.4010
   70MOL0     O 9523   2.063   7.795   6.333 -0.1110 -0.1041 -0.0220
   70MOL0     C 9524   1.966   7.768   6.257 -0.8299 -0.7514 -0.1008
   70MOL0     O 9525   1.978   7.679   6.155  0.0745 -0.5507 -0.4338
   70MOL0     C 9526   2.093   7.605   6.139 -0.2523  0.2982 -0.2716
   70MOL0     C 9527   2.162   7.608   6.021  0.3504 -0.1973 -0.4130
   70MOL0     C 9528   2.273   7.527   5.993  0.2270  0.4282 -0.9765
   70MOL0     C 9529   2.317   7.434   6.085  0.2321 -0.2250 -0.6632
   70MOL0     O 9530   2.434   7.365   6.076  0.2064  0.2109 -0.1939
   70MOL0     C 9531   2.528   7.391   5.969  0.5140  0.2405  1.1108
   70MOL0     C 9532   2.633   7.281   5.976 -0.1108  0.3522 -0.2336
   70MOL0     C 9533   2.697   7.259   6.118  0.8633 -0.5763 -0.1896
   70MOL0     C 9534   2.834   7.188   6.109  0.1418  0.5642 -0.1076
   70MOL0     C 9535   2.840   7.042   6.093 -0.7427 -0.8824 -0.2417
   70MOL0     C 9536   2.770   6.969   6.204  0.6162 -0.3408  0.2772
   70MOL0     C 9537   2.773   6.813   6.188  0.6409 -0.2313  0.6751
   70MOL0     C 9538   2.672   6.758   6.083 -0.1678  0.1054 -0.1724
   70MOL0     N 9539   2.539   6.776   6.131  0.5880  0.1712  0.7549
   70MOL0     C 9540   2.484   6.721   6.243 -0.4718  0.0391  0.4920
   70MOL0     C 9541   2.353   6.754   6.239  0.5186  0.6770 -0.6893
   70MOL0     C 9542   2.251   6.702   6.339 -0.9698  0.0150  0.0005
   70MOL0     C 9543   2.204   6.820   6.424  0.1523 -0.1206  0.7784
   70MOL0     C 9544   2.087   6.789   6.520 -0.0531  0.2617  0.2425
   70MOL0     C 9545   2.117   6.649   6.592  0.1700  0.7670 -0.7769
   70MOL0     O 9546   2.009   6.609   6.689 -0.7680 -0.1558  0.1164
   70MOL0     C 9547   2.004   6.676   6.809  0.7171 -0.0554  0.3837
   70MOL0     C 9548   2.101   6.746   6.871  0.1721 -0.0999 -0.6644
   70MOL0     C 9549   2.101   6.800   7.001 -1.2618  1.1413 -0.4757
   70MOL0     C 9550   2.220   6.879   7.046  0.7985 -0.1384  0.9775
   70MOL0     C 9551   1.982   6.783   7.080 -0.7129  0.8500 -0.5607
   70MOL0     C 9552   1.966   6.831   7.219  0.6272 -0.6384  0.3898
   70MOL0     O 9553   1.849   6.799   7.281 -0.1754 -0.7313 -0.2432
   70MOL0     C 9554   1.841   6.810   7.415 -0.2007 -0.3040 -0.2268
   70MOL0     C 9555   1.873   6.930   7.484 -0.8122 -0.2634  0.2424
   70MOL0     C 9556   1.851   6.940   7.619  0.7536 -0.4294  0.2898
   70MOL0     C 9557   1.800   6.828   7.693  0.2677 -0.3001  0.1225
   70MOL0     O 9558   1.784   6.832   7.830 -1.0014  0.3882 -0.4037
   70MOL0     C 9559   1.904   6.868   7.903  0.5129 -0.3550 -0.8276
   70MOL0     C 9560   1.883   6.871   8.055 -0.2024  0.2360 -1.1798
   70MOL0     C 9561   1.761   6.964   8.098 -0.3523  0.8595  0.2808
   70MOL0     C 9562   1.730   6.981   8.247  0.6428  0.3433 -0.1386
   70MOL0     C 9563   1.606   7.073   8.257 -0.3602  0.1406  1.1912
   70MOL0     C 9564   1.571   7.113   8.397  0.4118 -0.0939  0.6128
   70MOL0     C 9565   1.538   6.994   8.481  0.2854  0.8518 -0.4988
   70MOL0     C 9566   1.531   7.035   8.621  0.9173  0.5948 -0.3532
   70MOL0    Cl 9567   1.453   6.911   8.733  0.1134  0.0298  0.2773
   70MOL0     C 9568   1.777   6.706   7.622  0.0526 -0.3153  0.5920
   70MOL0     C 9569   1.792   6.698   7.487  0.4300  0.0101 -0.5293
   70MOL0     O 9570   2.059   6.897   7.276  1.1224  0.0218  0.3993
   70MOL0     C 9571   1.875   6.714   7.014  0.0201  0.0876  0.2057
   70MOL0     C 9572   1.884   6.666   6.884 -0.0431 -0.8539 -0.6071
   70MOL0     N 9573   2.335   6.830   6.127  1.2682 -0.0441  0.8463
   70MOL0     N 9574   2.450   6.851   6.070 -0.0427  0.6501  0.3308
   70MOL0     C 9575   2.235   7.414   6.201 -0.5409 -0.9126 -1.0147
   70MOL0     C 9576   2.123   7.505   6.228 -0.6205  0.4679 -0.6481
   70MOL0     C 9577   1.855   7.871   6.255  1.2800 -0.1723  0.2650
   70MOL0     C 9578   1.742   7.854   6.165 -0.2239 -0.0190 -0.3744
   70MOL0     C 9579   1.652   7.950   6.144 -0.0292 -0.0269 -0.4200
   70MOL0     C 9580   1.648   8.062   6.232  0.1116  0.1977 -0.3706
   70MOL0     O 9581   1.545   8.149   6.229 -0.0363 -0.2988 -0.1562
   70MOL0     C 9582   1.423   8.094   6.180 -0.9156 -0.3453 -0.6023
   70MOL0     C 9583   1.317   8.200   6.192  0.5306  0.2497  0.1937
   70MOL0     C 9584   1.292   8.278   6.322 -0.8031 -0.1147  0.4033
   70MOL0     C 9585   1.269   8.188   6.443 -0.0116  0.3058  0.3246
   70MOL0     C 9586   1.246   8.270   6.558  0.6894  0.2306 -0.1435
   70MOL0     C 9587   1.219   8.334   6.660 -0.0163 -0.0796 -0.0255
   70MOL0     C 9588   1.744   8.075   6.335 -0.2622 -0.0451 -0.3995
   70MOL0     C 9589   1.839   7.974   6.355 -0.5082 -0.6793 -0.4134
   70MOL0     C 9590   1.935   8.000   6.472 -0.5462 -0.4248  0.8960
   70MOL0     H 9591   2.144   7.701   5.967 -1.3399  1.2787  2.4715
   70MOL0     H 9592   2.333   7.535   5.903  0.4502 -3.9143 -1.4303
   70MOL0     H 9593   2.576   7.489   5.975 -2.1016  1.5998  1.5150
   70MOL0     H 9594   2.479   7.384   5.871 -0.0632  2.9905  1.1098
   70MOL0     H 9595   2.587   7.188   5.942 -1.3544  0.5645  0.7812
   70MOL0     H 9596   2.710   7.311   5.904  1.7501 -2.1139  0.5934
   70MOL0     H 9597   2.717   7.357   6.162 -0.0259 -1.8838  3.4163
   70MOL0     H 9598   2.619   7.222   6.185  1.0067 -1.2851 -0.4068
   70MOL0     H 9599   2.893   7.232   6.028  2.4129 -0.3565  0.9578
   70MOL0     H 9600   2.886   7.204   6.203  1.1468  4.5344 -1.1409
   70MOL0     H 9601   2.943   7.006   6.091  0.8162  3.1192 -1.8357
   70MOL0     H 9602   2.804   7.015   5.993 -0.1065  0.4462 -0.8470
   70MOL0     H 9603   2.807   6.997   6.303 -3.3285  1.4409  1.4752
   70MOL0     H 9604   2.667   7.006   6.212  0.2582 -0.6670 -2.1160
   70MOL0     H 9605   2.743   6.769   6.284 -3.7836  3.8989  1.5784
   70MOL0     H 9606   2.874   6.785   6.159  0.1936 -1.0284 -0.1587
   70MOL0     H 9607   2.684   6.825   5.997 -0.9719  1.8763  1.0140
   70MOL0     H 9608   2.692   6.655   6.054 -0.3803  0.2539 -0.8746
   70MOL0     H 9609   2.544   6.655   6.305 -0.5709  0.8113  1.4098
   70MOL0     H 9610   2.293   6.623   6.403  1.1908  0.8665 -0.2806
   70MOL0     H 9611   2.162   6.665   6.287  0.3209  2.7803 -4.7083
   70MOL0     H 9612   2.282   6.854   6.493  1.6475  0.0238 -0.8915
   70MOL0     H 9613   2.173   6.910   6.370  1.3987  1.5703  2.7278
   70MOL0     H 9614   2.074   6.862   6.601 -1.5037 -1.4119  1.6079
   70MOL0     H 9615   1.989   6.787   6.471 -0.9254 -1.6390  1.9071
   70MOL0     H 9616   2.124   6.567   6.520 -2.1597  0.0539 -0.2880
   70MOL0     H 9617   2.210   6.661   6.647  1.0146  1.5870 -2.3368
   70MOL0     H 9618   2.187   6.787   6.818  2.2214  1.6168  3.5222
   70MOL0     H 9619   2.242   6.872   7.153 -1.3397  0.2143  1.4866
   70MOL0     H 9620   2.192   6.976   7.005 -0.2364 -0.4194  1.0045
   70MOL0     H 9621   2.312   6.846   6.995 -1.3859 -2.6463 -1.6891
   70MOL0     H 9622   1.904   7.015   7.424 -4.3442  1.3799  0.5562
   70MOL0     H 9623   1.866   7.034   7.671 -0.8301  0.1410 -0.2065
   70MOL0     H 9624   1.971   6.782   7.894  0.6527 -0.2006 -1.2907
   70MOL0     H 9625   1.950   6.960   7.866  2.6605 -0.1530  2.0251
   70MOL0     H 9626   1.852   6.774   8.093 -0.0047 -0.8907 -3.6948
   70MOL0     H 9627   1.965   6.918   8.110 -1.0603 -0.4039  0.7271
   70MOL0     H 9628   1.672   6.921   8.051  0.8444  0.0794 -1.3767
   70MOL0     H 9629   1.772   7.062   8.049  1.2075  0.7632  0.3808
   70MOL0     H 9630   1.806   7.043   8.295  0.3355  2.3397 -2.0556
   70MOL0     H 9631   1.720   6.877   8.279 -5.3246 -1.0932 -4.8177
   70MOL0     H 9632   1.624   7.167   8.205 -1.3962 -0.0863  0.3839
   70MOL0     H 9633   1.523   7.031   8.200 -0.3810  1.1622  0.4395
   70MOL0     H 9634   1.489   7.184   8.381  0.7995  0.1205 -0.5384
   70MOL0     H 9635   1.665   7.156   8.431 -0.8823  4.9648 -1.2933
   70MOL0     H 9636   1.617   6.918   8.485 -0.7447 -0.2431 -0.4831
   70MOL0     H 9637   1.445   6.947   8.448  1.8433 -1.9497 -1.1613
   70MOL0     H 9638   1.479   7.130   8.636 -0.0612  0.1010 -0.5623
   70MOL0     H 9639   1.630   7.054   8.663 -0.0497  0.2488  2.3113
   70MOL0     H 9640   1.747   6.613   7.671  1.1275 -1.5190 -0.9364
   70MOL0     H 9641   1.770   6.608   7.430  1.4741 -1.4263  1.2147
   70MOL0     H 9642   1.779   6.706   7.063  0.1846 -2.6501  0.2139
   70MOL0     H 9643   1.795   6.630   6.834 -1.6632  1.6206  0.3173
   70MOL0     H 9644   2.247   7.333   6.272 -2.6187  0.4374  0.9823
   70MOL0     H 9645   2.057   7.492   6.313 -0.1509  0.8592 -0.2199
   70MOL0     H 9646   1.734   7.766   6.102  0.5119 -0.2275 -0.1877
   70MOL0     H 9647   1.576   7.927   6.069 -2.0264  0.8650  1.2323
   70MOL0     H 9648   1.422   8.061   6.075 -3.1069 -1.0731 -0.4008
   70MOL0     H 9649   1.401   8.002   6.235  0.4757 -0.4243 -0.1501
   70MOL0     H 9650   1.235   8.134   6.162  0.6425  1.0730 -2.1694
   70MOL0     H 9651   1.324   8.278   6.116 -0.6012  2.3347  2.1027
   70MOL0     H 9652   1.371   8.346   6.356 -1.2244 -0.1529  1.5086
   70MOL0     H 9653   1.198   8.334   6.315  0.1645  1.8516  1.9829
   70MOL0     H 9654   1.353   8.118   6.456 -0.5834 -0.0556  2.5745
   70MOL0     H 9655   1.173   8.138   6.425 -2.8005  5.0586  0.5049
   70MOL0     H 9656   1.192   8.390   6.747 -2.2533  0.8574 -1.2378
   70MOL0     H 9657   1.735   8.156   6.407 -1.0181 -2.5724  2.5952
   70MOL0     H 9658   1.905   8.093   6.523  0.8348  0.8499 -0.5042
   70MOL0     H 9659   1.957   7.909   6.528 -3.4318 -2.9283 -1.6999
   70MOL0     H 9660   2.021   8.044   6.420 -0.0500 -0.6469  1.5154
   71MOL0     O 9661   2.102   9.529   1.981 -0.2578 -1.5168 -0.5191
   71MOL0     C 9662   2.059   9.607   2.066 -1.2905 -0.6589 -0.2135
   71MOL0     O 9663   1.987   9.728   2.034  1.0768  0.2219  0.2373
   71MOL0     C 9664   2.012   9.791   1.914 -0.1177  0.5300  0.3600
   71MOL0     C 9665   2.133   9.787   1.835  0.4727 -0.3476  0.4041
   71MOL0     C 9666   2.138   9.866   1.712  0.4849  0.0964 -0.3346
   71MOL0     C 9667   2.028   9.931   1.663 -0.0156 -1.4900  0.1439
   71MOL0     O 9668   2.052   9.996   1.543 -0.7254 -0.2808 -0.5840
   71MOL0     C 9669   2.024  10.136   1.567  0.7851 -0.1871  0.2808
   71MOL0     C 9670   2.068  10.234   1.447 -0.6394 -0.4869 -0.3817
   71MOL0     C 9671   2.018  10.373   1.484 -0.6264  0.1660 -1.0333
   71MOL0     C 9672   2.007  10.461   1.371 -0.4153 -0.0732  0.5734
   71MOL0     C 9673   1.860  10.453   1.315 -0.4443  0.4551 -0.7420
   71MOL0     C 9674   1.871  10.473   1.164 -0.0064  0.7672 -0.2695
   71MOL0     C 9675   1.729  10.448   1.118  1.2871  0.2753  0.3030
   71MOL0     C 9676   1.706  10.482   0.975 -0.6240 -0.0240 -0.0168
   71MOL0     N 9677   1.760  10.611   0.925  0.5315  0.4578 -0.9938
   71MOL0     C 9678   1.882  10.618   0.865  0.5344  0.6831 -0.2151
   71MOL0     C 9679   1.880  10.735   0.809 -0.2402 -1.0680 -0.4060
   71MOL0     C 9680   1.999  10.800   0.735  0.6859  0.2302  0.3022
   71MOL0     C 9681   1.951  10.838   0.599 -0.6594 -0.9332 -0.3829
   71MOL0     C 9682   1.921  10.724   0.510 -0.3408 -0.3225 -0.1303
   71MOL0     C 9683   1.838  10.786   0.392 -0.9674  0.0660 -0.3304
   71MOL0     O 9684   1.857  10.683   0.287  0.2984  0.1183 -0.1255
   71MOL0     C 9685   1.800  10.695   0.166 -0.4641 -0.5601 -0.0812
   71MOL0     C 9686   1.677  10.762   0.145 -0.0029  0.1611 -0.0115
   71MOL0     C 9687   1.617  10.749   0.018  0.8113 -0.1964 -0.5691
   71MOL0     C 9688   1.492  10.840   0.016  0.8540 -0.2729 -0.7113
   71MOL0     C 9689   1.682  10.679  -0.091  0.6857 -0.9999 -0.2333
   71MOL0     C 9690   1.627  10.671  -0.226  0.3323  0.3745  0.5804
   71MOL0     O 9691   1.491  10.640  -0.235 -0.5147 -0.5116  0.6909
   71MOL0     C 9692   1.440  10.592  -0.357 -0.4124  0.6312  0.0328
   71MOL0     C 9693   1.481  10.471  -0.406 -0.2133  1.2851 -1.0446
   71MOL0     C 9694   1.410  10.420  -0.510 -0.2071 -0.3073  0.1570
   71MOL0     C 9695   1.285  10.477  -0.558 -1.5529  0.2125 -0.1341
   71MOL0     O 9696   1.202  10.412  -0.644  0.4049  0.8141 -0.4766
   71MOL0     C 9697   1.185  10.273  -0.618 -0.0159 -0.2246  0.2381
   71MOL0     C 9698   1.071  10.238  -0.717  1.4802  0.7278 -0.9022
   71MOL0     C 9699   1.034  10.091  -0.715 -0.0760 -0.2287 -0.0178
   71MOL0     C 9700   1.137  10.002  -0.779 -0.1716 -0.2906 -0.1933
   71MOL0     C 9701   1.075   9.863  -0.810  0.0290  0.3090  0.6226
   71MOL0     C 9702   1.008   9.798  -0.688 -0.5910 -0.7400  0.1332
   71MOL0     C 9703   1.096   9.730  -0.578 -0.3570 -0.0092 -0.5607
   71MOL0     C 9704   1.176   9.617  -0.639 -0.7092  1.2891  1.3712
   71MOL0    Cl 9705   1.260   9.531  -0.509 -0.4566 -0.3111 -0.4684
   71MOL0     C 9706   1.250  10.606  -0.517 -1.0159  0.6827  0.1930
   71MOL0     C 9707   1.335  10.660  -0.418  0.4086  0.0718  0.4106
   71MOL0     O 9708   1.706  10.679  -0.319  0.8195  0.5507 -0.0705
   71MOL0     C 9709   1.803  10.615  -0.062  0.0998  0.2971  0.0723
   71MOL0     C 9710   1.860  10.622   0.063  0.5663  0.4603 -0.1116
   71MOL0     N 9711   1.760  10.796   0.830  0.1399  0.2476 -0.0298
   71MOL0     N 9712   1.687  10.721   0.902 -0.3133  0.0999  0.7809
   71MOL0     C 9713   1.908   9.919   1.738 -0.4523  0.1911  0.2406
   71MOL0     C 9714   1.900   9.853   1.859  0.1533 -0.6673 -0.3012
   71MOL0     C 9715   2.053   9.568   2.208 -0.6685  1.2812 -0.1260
   71MOL0     C 9716   1.987   9.652   2.298  1.3124 -0.2478 -0.4505
   71MOL0     C 9717   1.989   9.622   2.430  0.7570  0.6273  0.8755
   71MOL0     C 9718   2.028   9.498   2.478  0.0523  0.2080 -0.2863
   71MOL0     O 9719   2.006   9.457   2.608  0.0288  0.2318  0.7835
   71MOL0     C 9720   2.131   9.459   2.676  1.0351  0.4750 -0.2130
   71MOL0     C 9721   2.202   9.586   2.696 -0.6573 -0.7091 -0.3749
   71MOL0     C 9722   2.287   9.566   2.823 -0.4887 -0.4493 -0.0920
   71MOL0     C 9723   2.404   9.670   2.860 -0.2620  0.6359 -0.3126
   71MOL0     C 9724   2.373   9.764   2.965 -0.3130 -1.5661  0.1397
   71MOL0     C 9725   2.347   9.847   3.057  0.1172 -0.4253 -0.3390
   71MOL0     C 9726   2.089   9.409   2.384 -0.3666 -0.5727  0.5420
   71MOL0     C 9727   2.103   9.439   2.243 -0.9081  1.3296 -0.8380
   71MOL0     C 9728   2.170   9.328   2.171 -0.3778  0.5869 -0.0743
   71MOL0     H 9729   2.222   9.729   1.857  0.6083  0.3835  1.8529
   71MOL0     H 9730   2.227   9.862   1.650  0.1695 -1.1220 -0.7373
   71MOL0     H 9731   2.086  10.163   1.653 -0.7325  3.0133  0.5282
   71MOL0     H 9732   1.918  10.151   1.588  0.6808  2.1485 -1.4966
   71MOL0     H 9733   2.177  10.230   1.439 -0.6053 -5.1721 -0.5533
   71MOL0     H 9734   2.029  10.214   1.347  1.6766 -2.0606 -1.0562
   71MOL0     H 9735   1.928  10.368   1.547  1.2889  0.1536  1.9173
   71MOL0     H 9736   2.095  10.423   1.544 -1.3358 -0.1888  0.2018
   71MOL0     H 9737   2.027  10.563   1.406 -0.2986  0.0773  0.0762
   71MOL0     H 9738   2.077  10.430   1.294 -2.2283 -0.3956 -1.0068
   71MOL0     H 9739   1.802  10.523   1.376  4.2789  0.1469  4.9126
   71MOL0     H 9740   1.823  10.350   1.319 -0.5449  0.5155 -0.0363
   71MOL0     H 9741   1.906  10.572   1.133  0.5024  1.2987  1.8026
   71MOL0     H 9742   1.938  10.397   1.124 -1.7809 -2.1138  1.8507
   71MOL0     H 9743   1.657  10.517   1.164 -1.0810  0.4153 -3.1855
   71MOL0     H 9744   1.681  10.352   1.137 -2.6095  0.7707 -4.7523
   71MOL0     H 9745   1.763  10.399   0.932 -1.0393 -3.7972  5.6464
   71MOL0     H 9746   1.602  10.471   0.944 -0.3433  0.1953 -1.0735
   71MOL0     H 9747   1.966  10.549   0.865  0.5989  0.7573 -0.8891
   71MOL0     H 9748   2.084  10.733   0.722 -0.3246 -0.7464 -1.8682
   71MOL0     H 9749   2.031  10.887   0.791  4.9289  0.9061 -2.6940
   71MOL0     H 9750   1.869  10.910   0.610  1.0988  1.1818 -0.2818
   71MOL0     H 9751   2.026  10.898   0.546 -4.4020  4.2267 -0.7018
   71MOL0     H 9752   2.018  10.676   0.497  0.4423  1.1784 -0.0347
   71MOL0     H 9753   1.850  10.650   0.550 -1.5406  0.2967 -1.0349
   71MOL0     H 9754   1.736  10.813   0.422 -0.5374 -0.5480  1.8789
   71MOL0     H 9755   1.879  10.881   0.356 -2.8677  0.6599 -1.0794
   71MOL0     H 9756   1.628  10.807   0.230  0.5498 -0.5200  0.6851
   71MOL0     H 9757   1.431  10.813   0.103  0.8453 -1.6742 -1.1336
   71MOL0     H 9758   1.441  10.838  -0.080 -1.2919 -2.6524  0.3485
   71MOL0     H 9759   1.518  10.944   0.038 -0.9159  0.3831 -1.5184
   71MOL0     H 9760   1.566  10.417  -0.365 -0.9950  0.6838 -0.1706
   71MOL0     H 9761   1.434  10.327  -0.562 -2.8732 -0.3567 -1.1552
   71MOL0     H 9762   1.272  10.218  -0.657 -0.4096 -0.2832 -0.5628
   71MOL0     H 9763   1.158  10.265  -0.513 -1.2364  4.5246  0.5149
   71MOL0     H 9764   0.981  10.296  -0.691  0.6109 -1.3341  1.0228
   71MOL0     H 9765   1.072  10.267  -0.822 -3.9998 -1.4330 -1.8777
   71MOL0     H 9766   0.942  10.076  -0.772 -0.9457  1.6459  0.8034
   71MOL0     H 9767   1.029  10.059  -0.610 -1.5191 -2.8520 -0.7931
   71MOL0     H 9768   1.221   9.984  -0.711  0.4614  2.1385 -0.2159
   71MOL0     H 9769   1.171  10.052  -0.870  2.2267 -0.6347  0.4307
   71MOL0     H 9770   0.998   9.868  -0.887  2.0260  0.7423 -1.4487
   71MOL0     H 9771   1.150   9.789  -0.842  1.6289  2.9224 -2.1638
   71MOL0     H 9772   0.949   9.717  -0.732  0.3126 -2.7120  2.3394
   71MOL0     H 9773   0.934   9.867  -0.646 -0.7321 -0.1759 -0.9853
   71MOL0     H 9774   1.036   9.699  -0.492  0.1133  0.6555  0.0297
   71MOL0     H 9775   1.166   9.795  -0.525  2.8267 -4.2026  0.9406
   71MOL0     H 9776   1.249   9.643  -0.717  1.1063 -2.7166  1.4806
   71MOL0     H 9777   1.101   9.553  -0.685  2.9072 -1.4790 -1.3212
   71MOL0     H 9778   1.163  10.657  -0.556 -1.2395 -0.8961 -1.4618
   71MOL0     H 9779   1.320  10.756  -0.369  2.2219 -0.7442  2.7551
   71MOL0     H 9780   1.862  10.577  -0.145  1.2055  0.3162  0.8266
   71MOL0     H 9781   1.956  10.581   0.092 -0.4774 -0.8219  1.7456
   71MOL0     H 9782   1.821   9.979   1.714  1.2727  3.1967  0.8801
   71MOL0     H 9783   1.810   9.863   1.919  1.5351 -1.0169  1.9738
   71MOL0     H 9784   1.956   9.751   2.266 -0.6599  0.2711  2.6747
   71MOL0     H 9785   1.947   9.700   2.493 -2.7123 -2.3510  2.6841
   71MOL0     H 9786   2.096   9.437   2.777 -2.0501  0.5584 -1.1630
   71MOL0     H 9787   2.197   9.383   2.631  3.6616  2.9588 -0.8517
   71MOL0     H 9788   2.128   9.666   2.703 -2.4809 -2.2883 -1.1367
   71MOL0     H 9789   2.268   9.610   2.612 -1.0210  2.5073  0.1365
   71MOL0     H 9790   2.209   9.576   2.898  0.7182  3.2844  0.9043
   71MOL0     H 9791   2.331   9.467   2.811 -2.0359 -1.3874  1.5360
   71MOL0     H 9792   2.443   9.724   2.773  1.5440  1.1318  0.7585
   71MOL0     H 9793   2.492   9.613   2.890  0.4882  0.7892 -2.0989
   71MOL0     H 9794   2.326   9.918   3.134 -2.4103 -0.0281 -1.2948
   71MOL0     H 9795   2.139   9.321   2.425  0.1499 -1.0070 -0.9360
   71MOL0     H 9796   2.088   9.259   2.149  1.3048 -2.1845  1.7450
   71MOL0     H 9797   2.244   9.354   2.094  0.8794  1.4979  1.3698
   71MOL0     H 9798   2.230   9.263   2.235 -2.1337  0.7558  1.8155
   72MOL0     O 9799   4.313   4.936   6.606  0.4871  0.8522  0.2050
   72MOL0     C 9800   4.312   4.920   6.730 -0.3279 -0.4770 -0.2777
   72MOL0     O 9801   4.231   4.992   6.805  0.4318  0.0989 -0.4874
   72MOL0     C 9802   4.176   5.105   6.747 -0.7872  0.1514  1.2432
   72MOL0     C 9803   4.055   5.084   6.677  0.8097  0.6229 -0.1566
   72MOL0     C 9804   3.977   5.188   6.613  0.5141 -0.1507 -0.3844
   72MOL0     C 9805   4.024   5.325   6.614 -0.9610  0.6601 -0.6592
   72MOL0     O 9806   3.976   5.429   6.541  0.2836  0.4781 -0.4270
   72MOL0     C 9807   3.845   5.459   6.567  0.0879 -0.2925  0.6210
   72MOL0     C 9808   3.790   5.515   6.440 -0.8086 -0.1301  0.0217
   72MOL0     C 9809   3.646   5.545   6.425  0.2363 -0.5496  0.3562
   72MOL0     C 9810   3.616   5.610   6.295  0.8665 -0.0193  0.7000
   72MOL0     C 9811   3.467   5.625   6.272 -0.3637 -0.0316 -1.2203
   72MOL0     C 9812   3.436   5.647   6.127  0.6438 -0.4404  0.2818
   72MOL0     C 9813   3.283   5.697   6.130  0.4546  0.1224 -0.2354
   72MOL0     C 9814   3.197   5.655   6.011  0.5524  0.6237  0.1068
   72MOL0     N 9815   3.198   5.739   5.892  0.3845 -0.3585 -0.1410
   72MOL0     C 9816   3.280   5.741   5.783  0.3363  0.3939  0.0655
   72MOL0     C 9817   3.266   5.861   5.723 -0.1702  0.1135  1.0160
   72MOL0     C 9818   3.328   5.924   5.594 -0.0489 -0.4905 -0.2662
   72MOL0     C 9819   3.380   6.063   5.624 -0.6569 -0.7415 -0.9609
   72MOL0     C 9820   3.378   6.167   5.503  0.1394  0.8839 -0.1988
   72MOL0     C 9821   3.455   6.283   5.551 -0.8452 -0.6399 -0.1830
   72MOL0     O 9822   3.446   6.403   5.466 -0.4440 -0.0986  0.0166
   72MOL0     C 9823   3.537   6.502   5.493  0.9889  0.1494  0.3047
   72MOL0     C 9824   3.634   6.505   5.593 -0.1133  1.3055 -0.6777
   72MOL0     C 9825   3.727   6.604   5.592  0.5481 -0.2474  0.0630
   72MOL0     C 9826   3.842   6.598   5.687 -0.4280 -0.5613 -0.2615
   72MOL0     C 9827   3.711   6.711   5.491 -0.9659 -0.4721 -0.3119
   72MOL0     C 9828   3.794   6.831   5.480  0.4224 -0.0826 -0.5179
   72MOL0     O 9829   3.803   6.905   5.593 -0.1381 -0.0567  0.3898
   72MOL0     C 9830   3.906   6.990   5.620 -0.2052  0.1608  0.0117
   72MOL0     C 9831   3.898   7.058   5.742 -0.4319 -0.5386  0.2022
   72MOL0     C 9832   3.993   7.154   5.761 -0.0349 -0.1444 -0.8080
   72MOL0     C 9833   4.108   7.171   5.685  0.3898  0.4921 -0.7500
   72MOL0     O 9834   4.193   7.277   5.700 -0.0426  0.3329 -0.6141
   72MOL0     C 9835   4.282   7.277   5.812 -0.1822  0.7512  0.2866
   72MOL0     C 9836   4.281   7.417   5.876  0.7251 -0.5942 -0.5133
   72MOL0     C 9837   4.301   7.536   5.773  0.1558 -1.0002 -0.3610
   72MOL0     C 9838   4.311   7.679   5.836  0.4174  0.9398  0.1031
   72MOL0     C 9839   4.317   7.781   5.737 -1.0200 -0.4650  0.4821
   72MOL0     C 9840   4.308   7.914   5.807  0.6106 -0.1405  0.6231
   72MOL0     C 9841   4.315   8.043   5.717 -0.2024 -0.1535 -0.8117
   72MOL0     C 9842   4.465   8.085   5.697 -0.3414  0.1184  0.3809
   72MOL0    Cl 9843   4.461   8.246   5.607 -0.1879 -0.0521  0.1326
   72MOL0     C 9844   4.125   7.088   5.578  0.3160 -0.8254 -0.3747
   72MOL0     C 9845   4.027   6.994   5.547 -0.2698  0.6596  0.0409
   72MOL0     O 9846   3.820   6.865   5.368  0.0616  0.7998  0.2463
   72MOL0     C 9847   3.617   6.695   5.386 -0.3857  1.0548 -0.5787
   72MOL0     C 9848   3.529   6.591   5.387  0.4998 -0.2601 -0.8959
   72MOL0     N 9849   3.172   5.926   5.792 -0.1922  0.5216  0.8152
   72MOL0     N 9850   3.131   5.856   5.888  0.4632  0.0490 -0.6801
   72MOL0     C 9851   4.149   5.336   6.688  0.1723  0.1374 -0.5108
   72MOL0     C 9852   4.228   5.230   6.744  1.6484 -0.6089  0.3904
   72MOL0     C 9853   4.402   4.816   6.801  0.0259  0.2803 -0.4567
   72MOL0     C 9854   4.440   4.840   6.931  0.4626  0.2956 -0.1073
   72MOL0     C 9855   4.530   4.762   7.005 -0.3742  0.5750 -0.2548
   72MOL0     C 9856   4.580   4.650   6.950  0.2820 -0.2030  0.8385
   72MOL0     O 9857   4.650   4.574   7.027 -0.1141 -0.1418  0.0246
   72MOL0     C 9858   4.709   4.451   6.970  0.9719 -0.2249  0.1447
   72MOL0     C 9859   4.764   4.365   7.086 -0.3720 -0.0931  0.6300
   72MOL0     C 9860   4.915   4.377   7.088  0.4451  0.3339  0.7486
   72MOL0     C 9861   4.976   4.306   7.212 -0.6979  0.1338 -0.5435
   72MOL0     C 9862   4.932   4.161   7.221  0.0247  0.5635 -0.0814
   72MOL0     C 9863   4.904   4.044   7.239 -0.5159  1.0934 -0.2754
   72MOL0     C 9864   4.542   4.616   6.816  0.3623  0.3591 -0.7765
   72MOL0     C 9865   4.452   4.696   6.741 -1.1792 -0.6139  0.2931
   72MOL0     C 9866   4.421   4.656   6.600  0.0640 -0.1119  0.4151
   72MOL0     H 9867   4.006   4.988   6.660  0.0052  0.4395  2.6894
   72MOL0     H 9868   3.888   5.158   6.558  1.1157 -0.4490 -1.2127
   72MOL0     H 9869   3.848   5.531   6.650  2.1144  0.1565  0.2109
   72MOL0     H 9870   3.786   5.369   6.584  2.2089 -1.6100  1.3699
   72MOL0     H 9871   3.837   5.612   6.419 -1.4823  1.0318  3.3054
   72MOL0     H 9872   3.804   5.444   6.358 -2.2156  1.1477 -1.4106
   72MOL0     H 9873   3.599   5.446   6.428 -3.3778  1.0072  0.2654
   72MOL0     H 9874   3.615   5.618   6.501  3.4880 -0.2374  1.5396
   72MOL0     H 9875   3.659   5.709   6.280  0.5953  0.3363  2.1280
   72MOL0     H 9876   3.654   5.554   6.209  1.9103 -2.6498  2.7448
   72MOL0     H 9877   3.430   5.708   6.332 -0.1120  1.5973 -3.1839
   72MOL0     H 9878   3.416   5.535   6.309  2.4752  0.1859  4.1278
   72MOL0     H 9879   3.491   5.721   6.067  0.2043 -1.3832 -1.3537
   72MOL0     H 9880   3.456   5.559   6.064  0.2671 -1.4096  1.4847
   72MOL0     H 9881   3.281   5.807   6.128  2.9412  0.2225 -1.9770
   72MOL0     H 9882   3.230   5.663   6.220 -3.9412 -1.2156 -3.0169
   72MOL0     H 9883   3.232   5.554   5.988  0.0340  0.4800 -0.0800
   72MOL0     H 9884   3.094   5.642   6.047 -0.3812  0.9312 -2.2125
   72MOL0     H 9885   3.357   5.667   5.767  0.2952  0.5323 -0.8063
   72MOL0     H 9886   3.252   5.922   5.516  0.8085  1.5264 -1.2076
   72MOL0     H 9887   3.410   5.862   5.558  0.7926 -0.0617  0.8410
   72MOL0     H 9888   3.313   6.105   5.699 -1.3053  1.2078 -2.5376
   72MOL0     H 9889   3.479   6.052   5.671 -0.3943 -0.5110 -1.4473
   72MOL0     H 9890   3.423   6.109   5.422 -0.0401 -1.2387  1.1277
   72MOL0     H 9891   3.274   6.188   5.475 -0.5474  1.5476  2.5225
   72MOL0     H 9892   3.426   6.316   5.651 -3.7014  2.8229 -1.9359
   72MOL0     H 9893   3.561   6.257   5.551 -0.7463 -0.3076  1.0796
   72MOL0     H 9894   3.640   6.428   5.669  1.9245  1.5178 -0.5758
   72MOL0     H 9895   3.803   6.590   5.789  0.6006 -1.6341  0.0593
   72MOL0     H 9896   3.910   6.684   5.677 -1.0000 -0.0329  0.3101
   72MOL0     H 9897   3.897   6.505   5.673  2.5280  0.8826  0.9238
   72MOL0     H 9898   3.808   7.064   5.803 -3.8069  3.0674 -4.4439
   72MOL0     H 9899   3.978   7.200   5.859  1.7312 -2.9398  0.8941
   72MOL0     H 9900   4.266   7.196   5.884 -3.1581  1.7560  0.8908
   72MOL0     H 9901   4.384   7.269   5.773 -0.7147 -1.8993 -0.8304
   72MOL0     H 9902   4.185   7.425   5.927 -0.8204  0.4296 -3.3192
   72MOL0     H 9903   4.366   7.416   5.945 -1.0680  0.2739  1.8360
   72MOL0     H 9904   4.230   7.521   5.691  1.0542 -0.8637 -1.1930
   72MOL0     H 9905   4.403   7.534   5.731 -0.0008  1.8567 -1.0240
   72MOL0     H 9906   4.400   7.685   5.899  0.3995 -0.0151  0.2260
   72MOL0     H 9907   4.222   7.698   5.896 -0.3173  4.5589 -1.8516
   72MOL0     H 9908   4.401   7.766   5.668 -3.0812  2.7218 -3.1217
   72MOL0     H 9909   4.224   7.781   5.679 -0.7286  0.2715 -0.0028
   72MOL0     H 9910   4.386   7.925   5.882  0.0340  0.8184  1.1026
   72MOL0     H 9911   4.212   7.918   5.859  0.1392 -1.9060 -0.0366
   72MOL0     H 9912   4.278   8.124   5.781  0.4950 -0.9343  0.6234
   72MOL0     H 9913   4.255   8.048   5.626 -1.5150  1.5425  0.0733
   72MOL0     H 9914   4.516   8.008   5.639 -1.8039  0.1307 -0.9597
   72MOL0     H 9915   4.521   8.100   5.790  0.8696 -3.0276  0.2678
   72MOL0     H 9916   4.215   7.115   5.523 -0.0150 -0.0224 -0.5377
   72MOL0     H 9917   4.039   6.936   5.457 -0.3826  0.5526  0.0949
   72MOL0     H 9918   3.596   6.781   5.323 -0.3415  3.7882  2.8521
   72MOL0     H 9919   3.461   6.577   5.304 -0.2438  2.8531 -0.9380
   72MOL0     H 9920   4.182   5.438   6.707 -0.3192 -0.0563  1.5563
   72MOL0     H 9921   4.325   5.250   6.789  0.6369  0.4661  2.2198
   72MOL0     H 9922   4.408   4.932   6.978 -1.6792 -0.9649  1.0953
   72MOL0     H 9923   4.557   4.799   7.103 -0.1729 -0.5043  0.1059
   72MOL0     H 9924   4.628   4.382   6.946  0.4660 -0.3454  2.0634
   72MOL0     H 9925   4.782   4.459   6.888 -0.8896 -1.7285 -1.7652
   72MOL0     H 9926   4.717   4.267   7.091  1.3367 -0.8815  2.6883
   72MOL0     H 9927   4.736   4.412   7.181  0.2824  0.7042  0.4492
   72MOL0     H 9928   4.955   4.342   6.992  0.9378  4.2059 -0.5998
   72MOL0     H 9929   4.937   4.483   7.101 -0.8633  0.5268  1.5475
   72MOL0     H 9930   4.950   4.362   7.302 -2.9075 -3.4282  1.2008
   72MOL0     H 9931   5.085   4.312   7.209 -0.5458  0.5094  2.6133
   72MOL0     H 9932   4.871   3.943   7.249 -0.5065  0.8228 -2.4776
   72MOL0     H 9933   4.584   4.526   6.773  2.5332  2.3107 -3.1145
   72MOL0     H 9934   4.498   4.589   6.560  2.2161  1.3178  1.9116
   72MOL0     H 9935   4.325   4.604   6.603 -0.9649  1.7413  1.6019
   72MOL0     H 9936   4.413   4.740   6.531 -0.6272 -0.1140  0.4897
   73MOL0     O 9937   6.957   3.255   0.726 -1.2661 -1.1643  0.7890
   73MOL0     C 9938   6.910   3.169   0.647  0.1329  0.4855  0.0921
   73MOL0     O 9939   6.919   3.179   0.510 -0.0581  0.1814 -0.5492
   73MOL0     C 9940   6.901   3.290   0.442  0.7458 -0.7620  0.1459
   73MOL0     C 9941   6.904   3.281   0.305 -0.3747  0.9307  0.6690
   73MOL0     C 9942   6.910   3.390   0.220 -0.2635  1.1573 -0.0292
   73MOL0     C 9943   6.888   3.519   0.277 -0.6110  0.0017  0.0260
   73MOL0     O 9944   6.892   3.623   0.191 -0.5904 -0.2762 -0.0959
   73MOL0     C 9945   6.867   3.752   0.235  0.3501 -0.2241 -0.1022
   73MOL0     C 9946   6.848   3.852   0.122 -0.1093 -1.2516  0.6833
   73MOL0     C 9947   6.860   4.008   0.170  1.3353 -0.2670  0.3295
   73MOL0     C 9948   6.732   4.089   0.135  0.4644 -0.5036  0.0134
   73MOL0     C 9949   6.768   4.245   0.161  1.3618  0.0014 -0.1705
   73MOL0     C 9950   6.652   4.339   0.119  0.4929  0.0237 -0.4258
   73MOL0     C 9951   6.658   4.476   0.178  0.4991  0.1751  0.6145
   73MOL0     C 9952   6.774   4.554   0.113  0.3357  0.3702 -1.2812
   73MOL0     N 9953   6.746   4.593  -0.030  0.7898 -0.1023 -0.7178
   73MOL0     C 9954   6.634   4.657  -0.079  0.3665 -0.6533 -0.5480
   73MOL0     C 9955   6.659   4.670  -0.212 -1.1136 -0.6989 -0.1013
   73MOL0     C 9956   6.564   4.720  -0.321  0.6002 -0.0336  0.7661
   73MOL0     C 9957   6.580   4.634  -0.455  0.3083 -0.1501  0.4312
   73MOL0     C 9958   6.483   4.712  -0.547 -0.6763  0.1604  0.7637
   73MOL0     C 9959   6.465   4.648  -0.685 -0.4910  0.5367 -0.0435
   73MOL0     O 9960   6.577   4.612  -0.766 -0.6573 -0.7342  0.4047
   73MOL0     C 9961   6.609   4.714  -0.849  0.2305  0.1168 -0.1984
   73MOL0     C 9962   6.542   4.705  -0.972  0.4593 -0.3967 -0.4548
   73MOL0     C 9963   6.580   4.778  -1.085  0.3527  0.5600 -0.5801
   73MOL0     C 9964   6.498   4.763  -1.206  0.5218 -0.0338  0.9413
   73MOL0     C 9965   6.699   4.862  -1.067  0.6539 -0.1081  0.5442
   73MOL0     C 9966   6.768   4.939  -1.178  0.8160 -0.2705  0.6160
   73MOL0     O 9967   6.756   4.887  -1.306  0.0948  0.3694  0.0974
   73MOL0     C 9968   6.832   4.936  -1.407  0.3321  0.7875 -0.6337
   73MOL0     C 9969   6.877   5.065  -1.427 -0.0603 -0.4371 -0.3986
   73MOL0     C 9970   6.978   5.098  -1.529 -0.3473 -0.1164  0.1749
   73MOL0     C 9971   7.021   4.996  -1.620  0.0415 -0.6868  0.2586
   73MOL0     O 9972   7.107   5.008  -1.727 -0.1857  0.0175  0.2088
   73MOL0     C 9973   7.175   5.131  -1.752 -0.8149 -0.3906 -0.8361
   73MOL0     C 9974   7.229   5.136  -1.888  0.6721  0.3892  1.0257
   73MOL0     C 9975   7.362   5.053  -1.905  0.2375 -0.3156 -1.4692
   73MOL0     C 9976   7.408   5.030  -2.056 -0.1754 -0.4384 -0.3654
   73MOL0     C 9977   7.408   5.154  -2.155  0.1187 -0.5904  0.6674
   73MOL0     C 9978   7.528   5.246  -2.134 -0.6232 -0.5073  0.7604
   73MOL0     C 9979   7.520   5.372  -2.224  0.6678 -1.1527  0.5657
   73MOL0     C 9980   7.614   5.484  -2.181  0.6686 -0.4223  0.4306
   73MOL0    Cl 9981   7.682   5.571  -2.318 -0.1290 -0.2656 -0.1733
   73MOL0     C 9982   6.957   4.875  -1.598  0.1288  0.2074  0.1985
   73MOL0     C 9983   6.872   4.840  -1.495 -0.2800 -0.6757 -0.5695
   73MOL0     O 9984   6.837   5.033  -1.151 -0.2578 -0.1367  0.2821
   73MOL0     C 9985   6.755   4.876  -0.941  0.8335  0.0746  0.4482
   73MOL0     C 9986   6.709   4.807  -0.829 -0.3195 -0.4593  0.5660
   73MOL0     N 9987   6.780   4.610  -0.247 -0.0033  0.1405 -0.6925
   73MOL0     N 9988   6.826   4.562  -0.138 -0.1771  0.0041 -0.3247
   73MOL0     C 9989   6.877   3.527   0.411 -0.3306  0.2868  0.4444
   73MOL0     C 9990   6.889   3.419   0.494 -0.6878  0.3345 -0.3362
   73MOL0     C 9991   6.848   3.038   0.698  0.1669 -0.4788 -0.2925
   73MOL0     C 9992   6.773   2.955   0.607 -0.7656 -0.3272  0.5567
   73MOL0     C 9993   6.705   2.841   0.647  0.2069  0.0074 -0.6856
   73MOL0     C 9994   6.708   2.819   0.783  0.7960  1.3638  0.3876
   73MOL0     O 9995   6.637   2.707   0.824 -0.2100  0.1435  0.5673
   73MOL0     C 9996   6.728   2.600   0.862 -0.0832  0.0447 -0.0434
   73MOL0     C 9997   6.666   2.475   0.923 -0.6139 -0.3091  0.4001
   73MOL0     C 9998   6.602   2.397   0.820 -0.5370 -0.4515  0.9889
   73MOL0     C 9999   6.512   2.283   0.864 -0.1911  0.3062 -0.2259
   73MOL0     C10000   6.444   2.243   0.741 -1.3515 -0.7067  0.5638
   73MOL0     C10001   6.406   2.212   0.631  0.2940 -0.8302  0.0390
   73MOL0     C10002   6.788   2.886   0.870 -1.3035 -0.7533  0.2409
   73MOL0     C10003   6.851   3.001   0.830  0.2939  0.1280 -1.3775
   73MOL0     C10004   6.927   3.078   0.929 -0.2776 -0.0696  0.2300
   73MOL0     H10005   6.900   3.180   0.266 -1.7431  1.3429 -0.3066
   73MOL0     H10006   6.932   3.367   0.116 -0.8522 -2.5183  0.5086
   73MOL0     H10007   6.951   3.791   0.293 -1.9887  2.1199  1.9847
   73MOL0     H10008   6.778   3.751   0.298  0.6599  0.5830  0.3585
   73MOL0     H10009   6.917   3.836   0.039  0.9298  4.1464  0.1630
   73MOL0     H10010   6.750   3.838   0.074 -0.8983  1.2557  1.3894
   73MOL0     H10011   6.886   4.021   0.276  0.5446  1.9594  0.3042
   73MOL0     H10012   6.948   4.046   0.117  2.0925 -2.0354  0.2357
   73MOL0     H10013   6.709   4.063   0.031  4.0651  1.4826 -1.4718
   73MOL0     H10014   6.648   4.054   0.195  1.4858 -1.5644  0.8640
   73MOL0     H10015   6.856   4.266   0.101  0.7270 -1.9545 -1.9156
   73MOL0     H10016   6.792   4.259   0.267 -1.9147 -2.7108  1.1395
   73MOL0     H10017   6.666   4.340   0.010  5.3352  0.4505 -0.0398
   73MOL0     H10018   6.558   4.294   0.149 -1.4176  5.0098  2.0957
   73MOL0     H10019   6.691   4.458   0.281 -1.0577  0.1677  1.1375
   73MOL0     H10020   6.563   4.529   0.181  0.8252  0.7859  0.3742
   73MOL0     H10021   6.792   4.651   0.162 -2.2490  0.3927 -0.2351
   73MOL0     H10022   6.868   4.498   0.119 -1.1990 -2.2123  0.3043
   73MOL0     H10023   6.545   4.685  -0.023 -1.1717 -0.8186 -2.7827
   73MOL0     H10024   6.598   4.819  -0.355  0.4111 -0.6943 -1.5023
   73MOL0     H10025   6.464   4.722  -0.277  0.3824 -2.4966  0.5045
   73MOL0     H10026   6.684   4.632  -0.487  0.1156  1.6877 -0.4339
   73MOL0     H10027   6.551   4.529  -0.442  0.2757  0.1930  4.0689
   73MOL0     H10028   6.386   4.716  -0.498  0.0826  0.1923  2.3468
   73MOL0     H10029   6.522   4.813  -0.566 -0.6690  0.1300  0.6129
   73MOL0     H10030   6.430   4.545  -0.677  0.0374  0.4269  1.0562
   73MOL0     H10031   6.390   4.706  -0.740  0.6802  1.1438 -1.0380
   73MOL0     H10032   6.452   4.645  -0.985 -0.1167  0.1689  0.7235
   73MOL0     H10033   6.527   4.676  -1.266 -1.8011 -0.6857  0.6548
   73MOL0     H10034   6.500   4.859  -1.258  2.2334 -0.8680 -0.6515
   73MOL0     H10035   6.393   4.747  -1.180  0.3971 -2.2912 -0.6682
   73MOL0     H10036   6.837   5.150  -1.374 -1.2464 -1.7387  0.8613
   73MOL0     H10037   7.019   5.199  -1.527 -0.7474  0.4260 -5.2300
   73MOL0     H10038   7.103   5.213  -1.743 -0.5427 -0.1917 -0.4279
   73MOL0     H10039   7.240   5.159  -1.668 -2.5104  0.7441  0.1744
   73MOL0     H10040   7.154   5.109  -1.963  0.8604  3.1334 -0.2711
   73MOL0     H10041   7.260   5.241  -1.896  1.2874  0.0684 -4.7774
   73MOL0     H10042   7.335   4.957  -1.859 -0.9890  1.6557  2.3960
   73MOL0     H10043   7.431   5.107  -1.840  1.2403 -0.9459 -1.9895
   73MOL0     H10044   7.335   4.954  -2.085 -3.1072 -0.1794  5.1051
   73MOL0     H10045   7.513   4.999  -2.051  0.1282  0.7544  2.7999
   73MOL0     H10046   7.417   5.138  -2.263 -1.5410  1.7335  0.1076
   73MOL0     H10047   7.318   5.213  -2.137 -0.2656 -0.0051 -2.6405
   73MOL0     H10048   7.619   5.191  -2.161  0.7612  3.0751 -2.9577
   73MOL0     H10049   7.532   5.288  -2.033 -1.7209  2.5324 -0.3442
   73MOL0     H10050   7.417   5.408  -2.238  1.3953 -0.2709 -4.7895
   73MOL0     H10051   7.572   5.335  -2.313  0.4367 -1.0917  0.4035
   73MOL0     H10052   7.693   5.431  -2.128  1.5040 -0.9978 -1.3357
   73MOL0     H10053   7.580   5.559  -2.108  2.3997  2.1874 -1.2638
   73MOL0     H10054   6.980   4.789  -1.660 -1.0051 -1.2205  1.6583
   73MOL0     H10055   6.839   4.737  -1.480  3.1282 -1.4168  3.6117
   73MOL0     H10056   6.841   4.939  -0.921  0.0792  1.2096  0.2141
   73MOL0     H10057   6.774   4.794  -0.742 -1.0433 -0.2997  1.1394
   73MOL0     H10058   6.871   3.621   0.465 -0.1136  2.0208 -2.3541
   73MOL0     H10059   6.897   3.433   0.602  1.3609 -3.3939  0.1344
   73MOL0     H10060   6.771   2.981   0.502 -1.2685 -0.7789  0.4502
   73MOL0     H10061   6.640   2.778   0.588  0.5784 -0.8170 -0.2310
   73MOL0     H10062   6.788   2.574   0.774 -2.0738 -2.9859 -0.6719
   73MOL0     H10063   6.789   2.632   0.946 -0.5317 -0.3832  0.4572
   73MOL0     H10064   6.584   2.489   0.994  0.0819 -2.0570  1.6232
   73MOL0     H10065   6.748   2.418   0.967  0.2666  1.5289  1.2576
   73MOL0     H10066   6.539   2.471   0.768  0.5430 -0.1637  0.0364
   73MOL0     H10067   6.660   2.358   0.736  1.2744  1.4730  1.2475
   73MOL0     H10068   6.433   2.323   0.928  0.9161  2.0882  0.1073
   73MOL0     H10069   6.555   2.194   0.910 -1.0064 -0.5045 -1.0114
   73MOL0     H10070   6.366   2.181   0.537  0.2992 -0.0134 -0.2437
   73MOL0     H10071   6.792   2.852   0.973 -0.5887 -2.6152 -0.3543
   73MOL0     H10072   7.036   3.079   0.917 -0.3428  1.8373 -0.5743
   73MOL0     H10073   6.883   3.176   0.949  2.1639  0.7943  1.8533
   73MOL0     H10074   6.905   3.039   1.029  2.1773  1.2693  1.3943
   74MOL0     O10075   6.600   5.498   7.265 -0.2100  0.6281  0.4631
   74MOL0     C10076   6.533   5.594   7.227  1.0227 -0.8931  0.5910
   74MOL0     O10077   6.536   5.649   7.100 -0.3968 -0.2237 -0.6219
   74MOL0     C10078   6.647   5.620   7.029 -0.1112 -0.3455 -1.0410
   74MOL0     C10079   6.640   5.539   6.921 -0.6242 -0.3150  1.1552
   74MOL0     C10080   6.753   5.514   6.836  0.1356  0.0978 -0.5001
   74MOL0     C10081   6.878   5.565   6.872 -0.2243  0.3136 -0.8606
   74MOL0     O10082   6.985   5.530   6.806 -0.1180  0.2098  0.1772
   74MOL0     C10083   7.000   5.586   6.673 -0.0849 -0.3648  0.6016
   74MOL0     C10084   7.139   5.572   6.614 -0.1657  0.3718 -1.4236
   74MOL0     C10085   7.149   5.429   6.555  0.3698  0.7529 -0.9167
   74MOL0     C10086   7.287   5.384   6.492  1.3457  0.2184 -0.0213
   74MOL0     C10087   7.405   5.376   6.596  0.0070  0.0475 -0.3813
   74MOL0     C10088   7.399   5.247   6.684  1.2103 -0.5570  0.1490
   74MOL0     C10089   7.506   5.233   6.777 -0.4096  0.3740 -0.5636
   74MOL0     C10090   7.518   5.340   6.880 -0.1127 -0.1317 -0.0707
   74MOL0     N10091   7.619   5.316   6.983  0.0108 -0.0105  0.0655
   74MOL0     C10092   7.625   5.385   7.097 -0.4916 -1.2820  0.4711
   74MOL0     C10093   7.721   5.319   7.176  0.1010  0.7174  0.9833
   74MOL0     C10094   7.760   5.343   7.326 -0.2758  0.3693  0.1026
   74MOL0     C10095   7.747   5.217   7.423  0.4490 -0.2853  0.1478
   74MOL0     C10096   7.795   5.251   7.569 -0.0554  0.1223 -0.7508
   74MOL0     C10097   7.815   5.127   7.657 -0.2689  0.0095  0.5758
   74MOL0     O10098   7.863   5.160   7.787  0.2394 -0.7803  0.5943
   74MOL0     C10099   7.911   5.056   7.868  0.0606  0.4033 -0.4383
   74MOL0     C10100   7.960   5.085   7.994 -0.4120 -0.2916 -0.1848
   74MOL0     C10101   8.011   4.989   8.081  0.3069 -0.7599  0.3596
   74MOL0     C10102   8.054   5.035   8.222  0.5402  0.1883 -0.4051
   74MOL0     C10103   8.014   4.850   8.049 -0.4934  0.2007  0.2981
   74MOL0     C10104   8.066   4.737   8.139 -0.0788 -0.2609  0.1661
   74MOL0     O10105   7.970   4.632   8.155 -0.1462 -0.6792 -0.2972
   74MOL0     C10106   8.021   4.530   8.237  0.5624 -0.7918  0.0430
   74MOL0     C10107   8.015   4.529   8.377  1.1761 -0.4682 -0.2149
   74MOL0     C10108   8.044   4.414   8.447 -0.1812 -0.2050 -0.7278
   74MOL0     C10109   8.106   4.308   8.382  0.3125 -0.1222  0.3570
   74MOL0     O10110   8.146   4.197   8.449 -0.7342  0.7963 -0.0099
   74MOL0     C10111   8.285   4.211   8.469 -0.9779 -0.4689 -0.4572
   74MOL0     C10112   8.332   4.122   8.589  0.0061  0.4020 -0.8615
   74MOL0     C10113   8.308   3.975   8.564  0.0891  0.3679 -0.6584
   74MOL0     C10114   8.445   3.916   8.521  0.2870 -0.4107 -0.0790
   74MOL0     C10115   8.421   3.766   8.480  0.0224  0.5174 -0.2125
   74MOL0     C10116   8.556   3.690   8.467 -0.0722 -0.3671 -0.8119
   74MOL0     C10117   8.543   3.542   8.456  0.6166 -0.5811 -0.1206
   74MOL0     C10118   8.452   3.498   8.331  0.1261  0.3564 -0.2971
   74MOL0    Cl10119   8.455   3.327   8.292  0.0018 -0.1046  0.0914
   74MOL0     C10120   8.089   4.296   8.241  0.2215  1.0611 -0.4344
   74MOL0     C10121   8.050   4.412   8.176  0.2052  0.2133 -0.4648
   74MOL0     O10122   8.183   4.750   8.179 -0.1522 -0.4804  0.3175
   74MOL0     C10123   7.966   4.816   7.921 -0.5674  0.0737 -0.1644
   74MOL0     C10124   7.917   4.917   7.836 -1.0061  0.0871 -0.4835
   74MOL0     N10125   7.793   5.226   7.101  0.0641 -0.1236  0.5431
   74MOL0     N10126   7.737   5.235   6.983  0.1529  0.2778  0.7806
   74MOL0     C10127   6.886   5.650   6.981  0.2107 -0.4754  0.7489
   74MOL0     C10128   6.774   5.677   7.060  0.3458 -0.1944  0.0177
   74MOL0     C10129   6.419   5.643   7.314 -0.9841  0.3837  0.4105
   74MOL0     C10130   6.376   5.775   7.277  0.0326  0.4872 -1.3895
   74MOL0     C10131   6.293   5.844   7.369  0.1510 -0.1134  0.5158
   74MOL0     C10132   6.245   5.782   7.493  0.0303 -0.7258  0.3139
   74MOL0     O10133   6.147   5.845   7.562  0.8331 -0.1501  1.1030
   74MOL0     C10134   6.195   5.944   7.659 -1.0515 -0.7699 -1.2890
   74MOL0     C10135   6.091   5.998   7.769  0.3391  0.1266 -0.5812
   74MOL0     C10136   6.059   6.145   7.752  0.1460  0.0984  0.3024
   74MOL0     C10137   6.024   6.217   7.881  0.2571 -0.7149 -0.0817
   74MOL0     C10138   5.919   6.150   7.955 -0.0764 -0.5621 -0.0606
   74MOL0     C10139   5.827   6.090   8.018 -0.3054 -0.0002 -0.0517
   74MOL0     C10140   6.285   5.655   7.514  0.1902 -0.2725 -0.4937
   74MOL0     C10141   6.371   5.574   7.430  0.8571 -0.1723 -0.5410
   74MOL0     C10142   6.387   5.434   7.459 -0.3578 -1.0066  0.3048
   74MOL0     H10143   6.547   5.485   6.904 -1.5055  1.1846  1.0528
   74MOL0     H10144   6.744   5.440   6.757 -0.3937  0.3748 -0.7053
   74MOL0     H10145   6.974   5.690   6.695  0.6826  0.1911 -0.9320
   74MOL0     H10146   6.919   5.550   6.609  1.1805 -0.8520 -0.7753
   74MOL0     H10147   7.154   5.637   6.527  0.6108  2.1687 -0.0079
   74MOL0     H10148   7.219   5.591   6.686 -0.2510  3.2873 -1.9727
   74MOL0     H10149   7.131   5.367   6.643 -0.2764 -0.6544 -2.0059
   74MOL0     H10150   7.072   5.404   6.481 -0.0847 -2.2210  0.4206
   74MOL0     H10151   7.262   5.290   6.441 -1.0519  1.6661 -1.7255
   74MOL0     H10152   7.303   5.466   6.422  0.1306 -1.7633 -2.8043
   74MOL0     H10153   7.416   5.473   6.646  1.8827  1.3723 -3.0718
   74MOL0     H10154   7.485   5.370   6.521  0.2245  1.9914 -0.3631
   74MOL0     H10155   7.305   5.228   6.736  2.2045 -4.8404  0.7246
   74MOL0     H10156   7.397   5.164   6.613  1.7266  0.4755 -1.1216
   74MOL0     H10157   7.602   5.238   6.725 -0.6832  0.2592 -1.0851
   74MOL0     H10158   7.496   5.140   6.835  1.1014  2.0186  2.5790
   74MOL0     H10159   7.540   5.439   6.840  2.7555 -1.3135 -1.7184
   74MOL0     H10160   7.417   5.350   6.922 -0.5455 -0.2769 -1.0544
   74MOL0     H10161   7.579   5.481   7.121 -0.5652 -0.9063 -1.0777
   74MOL0     H10162   7.698   5.418   7.375  0.0831  0.0741  1.0271
   74MOL0     H10163   7.860   5.382   7.310 -0.5304  0.3916 -1.7163
   74MOL0     H10164   7.647   5.173   7.431  0.3690 -0.2500 -0.6010
   74MOL0     H10165   7.814   5.141   7.381  1.1393  1.3880 -1.9155
   74MOL0     H10166   7.892   5.298   7.550  0.0745 -0.9711 -3.1802
   74MOL0     H10167   7.723   5.317   7.619  1.7107  3.2427 -2.0216
   74MOL0     H10168   7.715   5.083   7.662 -0.9501  1.5333  0.6246
   74MOL0     H10169   7.887   5.059   7.608  2.5740  0.7619  3.3454
   74MOL0     H10170   7.942   5.188   8.025  2.6047  0.5045 -0.7631
   74MOL0     H10171   8.050   5.143   8.235 -0.1641  0.0667  0.5205
   74MOL0     H10172   8.156   5.006   8.249  0.1664  0.1238  1.0231
   74MOL0     H10173   7.991   4.994   8.301 -0.6925 -0.1196 -1.5150
   74MOL0     H10174   7.969   4.612   8.430  2.0996 -0.1783  0.1376
   74MOL0     H10175   8.043   4.416   8.556  1.0715 -0.2894 -0.6930
   74MOL0     H10176   8.335   4.161   8.385 -0.6296 -1.5893  0.3873
   74MOL0     H10177   8.329   4.309   8.488 -0.8983 -0.1592 -2.0946
   74MOL0     H10178   8.438   4.147   8.602 -0.3740  3.7873 -2.9864
   74MOL0     H10179   8.285   4.148   8.684  0.0751  0.8397 -0.9447
   74MOL0     H10180   8.240   3.971   8.478  2.2748  0.6201 -2.4823
   74MOL0     H10181   8.264   3.927   8.652  1.4041  0.6442  0.1694
   74MOL0     H10182   8.525   3.938   8.592  0.6182  3.2892 -1.4089
   74MOL0     H10183   8.487   3.964   8.432 -1.1119 -1.5519 -1.4206
   74MOL0     H10184   8.368   3.711   8.557  1.4959  0.3629  0.7403
   74MOL0     H10185   8.358   3.765   8.391  0.3262 -0.4035 -0.4223
   74MOL0     H10186   8.613   3.715   8.557  0.1045 -5.1020  0.6758
   74MOL0     H10187   8.608   3.725   8.378  0.2348 -1.2776 -1.0022
   74MOL0     H10188   8.497   3.490   8.540  0.4869 -1.7615 -0.8999
   74MOL0     H10189   8.647   3.513   8.440  1.3307  3.2757 -4.8421
   74MOL0     H10190   8.479   3.550   8.239  1.7874 -3.4781 -2.2084
   74MOL0     H10191   8.347   3.518   8.354 -0.0991 -2.0304  1.1050
   74MOL0     H10192   8.119   4.210   8.182  0.9307  0.2521  1.0350
   74MOL0     H10193   8.053   4.420   8.068 -5.0840  0.4621 -0.8752
   74MOL0     H10194   7.957   4.711   7.894  2.8264 -0.4237  0.1774
   74MOL0     H10195   7.886   4.882   7.738 -1.5892  3.1567 -1.4907
   74MOL0     H10196   6.982   5.700   6.983  1.6108 -3.0084  2.4582
   74MOL0     H10197   6.790   5.748   7.141  1.0482  2.8131 -2.5579
   74MOL0     H10198   6.421   5.836   7.200  0.1723 -0.5957 -2.1935
   74MOL0     H10199   6.259   5.945   7.352 -0.6842 -0.5740 -0.7087
   74MOL0     H10200   6.266   5.887   7.719 -0.6120  0.7580 -0.3059
   74MOL0     H10201   6.250   6.035   7.632 -0.6843  0.7530  3.6516
   74MOL0     H10202   6.113   5.959   7.869 -2.7765 -2.3782 -0.7180
   74MOL0     H10203   5.999   5.943   7.747 -1.2044  1.2205  2.4962
   74MOL0     H10204   6.144   6.203   7.713  0.9096 -0.0615  1.6641
   74MOL0     H10205   5.984   6.156   7.673  0.8243 -0.1166 -0.3866
   74MOL0     H10206   5.994   6.319   7.853  3.1893  0.2868  0.0674
   74MOL0     H10207   6.104   6.229   7.956 -2.2361  0.8168  2.5480
   74MOL0     H10208   5.752   6.032   8.069 -1.4074  1.2292 -0.2205
   74MOL0     H10209   6.234   5.613   7.601  0.4342  2.4597  1.0635
   74MOL0     H10210   6.351   5.367   7.380  1.0307 -2.0007  0.4968
   74MOL0     H10211   6.494   5.412   7.465  0.4834  1.1023 -3.5854
   74MOL0     H10212   6.343   5.403   7.554  0.8297  1.1205  1.6238
   75MOL0     O10213   7.668   8.469  11.000  0.6955  0.2448 -0.7021
   75MOL0     C10214   7.690   8.577  10.954 -1.1168 -0.3792 -0.2560
   75MOL0     O10215   7.758   8.673  11.028  0.0275  0.6760 -0.3051
   75MOL0     C10216   7.762   8.661  11.168 -0.2523 -0.8917  0.8360
   75MOL0     C10217   7.670   8.735  11.246 -0.6313 -0.0100 -0.0567
   75MOL0     C10218   7.684   8.743  11.387  0.2024  0.0272 -0.1165
   75MOL0     C10219   7.788   8.670  11.456 -0.1598 -0.3369  0.2297
   75MOL0     O10220   7.802   8.687  11.594 -1.4215 -0.4439 -0.6665
   75MOL0     C10221   7.928   8.651  11.647 -0.0141 -0.6400  0.4009
   75MOL0     C10222   8.039   8.757  11.625  0.3926 -0.1041  1.1535
   75MOL0     C10223   8.153   8.702  11.726 -0.5168 -0.0177  0.0529
   75MOL0     C10224   8.279   8.768  11.697 -0.3090 -0.1392 -0.6325
   75MOL0     C10225   8.292   8.928  11.710  0.9621  0.1567  0.8142
   75MOL0     C10226   8.435   8.969  11.742 -0.6298 -0.1274 -0.3249
   75MOL0     C10227   8.465   9.118  11.712 -0.0188  0.7575  0.4818
   75MOL0     C10228   8.431   9.202  11.836 -0.9653  0.0749  0.5719
   75MOL0     N10229   8.290   9.228  11.844  0.1110  0.0823  0.7745
   75MOL0     C10230   8.219   9.309  11.761 -0.3647 -0.1860  0.1276
   75MOL0     C10231   8.102   9.326  11.833 -0.1981  0.0067  0.4843
   75MOL0     C10232   7.984   9.409  11.799 -0.2118 -0.5616 -0.1197
   75MOL0     C10233   8.006   9.553  11.841  0.2352 -0.5124  0.2846
   75MOL0     C10234   7.876   9.639  11.858 -0.4096 -0.1625 -0.4037
   75MOL0     C10235   7.900   9.796  11.885  1.1899 -0.3781  0.3666
   75MOL0     O10236   8.012   9.844  11.950 -0.4768 -0.5760  0.1525
   75MOL0     C10237   8.030   9.977  11.989  0.3133 -0.4739  0.6982
   75MOL0     C10238   7.933  10.075  11.977 -0.0679 -0.5981 -1.2240
   75MOL0     C10239   7.950  10.214  12.015 -0.3925 -0.8704  0.0378
   75MOL0     C10240   7.844  10.309  11.990  0.0346  0.2570 -0.1667
   75MOL0     C10241   8.074  10.245  12.076  0.8441 -0.7693 -1.0529
   75MOL0     C10242   8.107  10.384  12.131  0.1243  0.0338  0.3243
   75MOL0     O10243   8.241  10.420  12.133  0.6468 -0.2521  0.1205
   75MOL0     C10244   8.287  10.539  12.179  0.2094 -0.1012 -1.0379
   75MOL0     C10245   8.215  10.664  12.182 -0.0609 -0.3333  0.0720
   75MOL0     C10246   8.274  10.773  12.244  0.4830  1.0589  0.2462
   75MOL0     C10247   8.404  10.768  12.293 -0.8509 -0.9325 -0.2731
   75MOL0     O10248   8.468  10.867  12.362  0.8377  0.0624  0.1346
   75MOL0     C10249   8.393  10.983  12.412 -0.2070 -0.1014  0.3378
   75MOL0     C10250   8.389  11.098  12.308  0.7985 -0.1944 -0.5334
   75MOL0     C10251   8.319  11.226  12.359  0.3905  0.1660 -0.1335
   75MOL0     C10252   8.325  11.346  12.264  0.1294 -0.2517  0.8231
   75MOL0     C10253   8.259  11.469  12.340 -0.3160  0.1378  0.6875
   75MOL0     C10254   8.191  11.569  12.237 -0.4815  0.1197  0.0535
   75MOL0     C10255   8.296  11.643  12.163  0.4184  0.2576  0.3999
   75MOL0     C10256   8.230  11.744  12.066  0.5015  0.9053 -0.4878
   75MOL0    Cl10257   8.165  11.665  11.923  0.0674 -0.0334  0.2768
   75MOL0     C10258   8.470  10.646  12.293 -0.0939  0.1299 -0.4168
   75MOL0     C10259   8.418  10.534  12.223 -0.8804 -0.2463  0.2221
   75MOL0     O10260   8.013  10.450  12.176  0.3276  0.3194  0.1035
   75MOL0     C10261   8.172  10.149  12.101 -0.2969 -0.2100 -0.2807
   75MOL0     C10262   8.149  10.014  12.052  0.0320  1.0587  0.5080
   75MOL0     N10263   8.109   9.253  11.957 -0.6395 -0.2497 -0.5600
   75MOL0     N10264   8.220   9.190  11.952 -0.6996  0.5475 -1.0278
   75MOL0     C10265   7.875   8.602  11.371 -0.5023  0.0602  0.2444
   75MOL0     C10266   7.869   8.593  11.230  0.7295 -0.5352 -0.9055
   75MOL0     C10267   7.665   8.607  10.815  0.3591 -0.8384  0.5280
   75MOL0     C10268   7.770   8.627  10.726 -0.1395  0.4319 -0.9494
   75MOL0     C10269   7.749   8.657  10.599  0.0312  0.3527  1.0241
   75MOL0     C10270   7.617   8.666  10.548  0.1843 -0.3388 -0.1617
   75MOL0     O10271   7.609   8.702  10.411  1.0337  0.1845 -0.1110
   75MOL0     C10272   7.550   8.611  10.309  1.1877 -0.0139 -0.3014
   75MOL0     C10273   7.619   8.474  10.300  0.9009  0.9657  0.4405
   75MOL0     C10274   7.748   8.486  10.218 -0.0489 -0.3277 -0.1923
   75MOL0     C10275   7.870   8.552  10.295 -0.0420  1.0525  0.3297
   75MOL0     C10276   7.990   8.518  10.226 -0.1041  0.8198  0.4292
   75MOL0     C10277   8.083   8.488  10.155 -0.2209 -0.5678 -0.6116
   75MOL0     C10278   7.514   8.646  10.633 -0.4012 -0.6145  0.1411
   75MOL0     C10279   7.532   8.614  10.766 -0.4942 -0.6756 -0.7708
   75MOL0     C10280   7.412   8.598  10.856 -0.4897  0.2682  0.2616
   75MOL0     H10281   7.603   8.798  11.190  0.6471 -0.5601 -2.3025
   75MOL0     H10282   7.614   8.808  11.439  0.5115  0.7063 -0.5419
   75MOL0     H10283   7.953   8.548  11.621 -1.4717 -0.9412  0.0985
   75MOL0     H10284   7.911   8.663  11.754 -0.4234  3.3760  0.0417
   75MOL0     H10285   8.083   8.756  11.524  0.8812  1.5415  1.3189
   75MOL0     H10286   8.004   8.858  11.649  0.9288  0.0541  1.2770
   75MOL0     H10287   8.126   8.727  11.829 -0.5289 -0.4033  0.1442
   75MOL0     H10288   8.164   8.594  11.726  2.3320  0.1767  0.9439
   75MOL0     H10289   8.361   8.726  11.756  0.9868  1.0784 -1.4919
   75MOL0     H10290   8.305   8.744  11.594 -0.5274 -1.9275 -0.3146
   75MOL0     H10291   8.221   8.970  11.782 -4.5488  1.2650 -4.4601
   75MOL0     H10292   8.259   8.975  11.617  3.4893  0.2522 -0.0951
   75MOL0     H10293   8.444   8.953  11.850  0.9103  0.8090 -0.2833
   75MOL0     H10294   8.503   8.905  11.686  1.1901 -0.9953  2.6507
   75MOL0     H10295   8.406   9.150  11.625 -0.2725 -1.4733 -0.2342
   75MOL0     H10296   8.572   9.128  11.691 -0.3090 -0.6903 -2.0355
   75MOL0     H10297   8.488   9.160  11.920  1.0608 -0.4225 -0.9739
   75MOL0     H10298   8.484   9.295  11.812 -1.4905  1.0027  2.7959
   75MOL0     H10299   8.247   9.361  11.670  3.1368  1.5651  2.0058
   75MOL0     H10300   7.895   9.370  11.850 -0.0544 -0.6442  0.0923
   75MOL0     H10301   7.961   9.399  11.692  1.2865  0.5155 -0.5786
   75MOL0     H10302   8.078   9.566  11.923  2.4832 -0.6858 -1.5434
   75MOL0     H10303   8.061   9.595  11.756 -0.1313 -2.4362 -0.9822
   75MOL0     H10304   7.826   9.626  11.762 -1.4967  0.1997  0.0928
   75MOL0     H10305   7.826   9.597  11.946  0.5944 -0.4356  0.0490
   75MOL0     H10306   7.906   9.842  11.786 -0.0302 -0.6594  0.1397
   75MOL0     H10307   7.810   9.830  11.938  0.9409 -0.5603  0.0645
   75MOL0     H10308   7.847  10.058  11.914 -2.8567  1.3158  1.7328
   75MOL0     H10309   7.773  10.275  11.913 -0.2957 -2.8945  1.3733
   75MOL0     H10310   7.881  10.402  11.946  0.9863 -1.6020 -3.7708
   75MOL0     H10311   7.797  10.335  12.085  2.0674 -1.2589  1.3466
   75MOL0     H10312   8.112  10.673  12.148 -0.3219  1.0264  1.1520
   75MOL0     H10313   8.209  10.861  12.239 -2.6116 -1.0312  0.7939
   75MOL0     H10314   8.294  10.951  12.445  0.6329 -4.7065 -0.9571
   75MOL0     H10315   8.457  11.021  12.492  3.0885 -0.1923 -2.0094
   75MOL0     H10316   8.494  11.126  12.296  1.0233 -0.9621 -0.4204
   75MOL0     H10317   8.351  11.065  12.211  1.3550 -1.7630 -0.2490
   75MOL0     H10318   8.367  11.256  12.452  1.2604 -0.4010 -0.3804
   75MOL0     H10319   8.219  11.193  12.387  0.1614  2.1901  1.6527
   75MOL0     H10320   8.265  11.325  12.175 -0.5928  0.7777  1.0512
   75MOL0     H10321   8.427  11.355  12.228 -0.5917  4.2221 -0.7512
   75MOL0     H10322   8.176  11.450  12.408 -0.8384  2.3448  0.7460
   75MOL0     H10323   8.336  11.514  12.403  1.6849 -1.6108 -0.4044
   75MOL0     H10324   8.115  11.628  12.289 -0.8752 -0.0127 -0.3601
   75MOL0     H10325   8.131  11.505  12.172 -1.6507  1.8182 -0.6066
   75MOL0     H10326   8.356  11.571  12.106  0.9120  1.6187 -0.8761
   75MOL0     H10327   8.352  11.689  12.245 -1.0729 -2.7253  3.3096
   75MOL0     H10328   8.299  11.817  12.025  1.8479  0.7360  1.3772
   75MOL0     H10329   8.154  11.803  12.118  1.0586  2.2758 -1.2097
   75MOL0     H10330   8.574  10.642  12.325 -0.2127  1.1551  0.1604
   75MOL0     H10331   8.470  10.439  12.226 -1.2225 -0.4249  0.7451
   75MOL0     H10332   8.257  10.182  12.160 -1.9263  1.0500  1.4841
   75MOL0     H10333   8.225   9.940  12.075 -1.1846  0.3193  2.4106
   75MOL0     H10334   7.961   8.546  11.405 -0.5103 -0.5082 -0.6316
   75MOL0     H10335   7.951   8.553  11.170  0.6683 -2.3682  0.1875
   75MOL0     H10336   7.871   8.616  10.762 -0.8056  1.0675  1.2407
   75MOL0     H10337   7.837   8.662  10.535  0.5007 -2.7411  1.2725
   75MOL0     H10338   7.446   8.593  10.336  0.6241  1.9718 -0.9880
   75MOL0     H10339   7.540   8.654  10.209  0.3994 -2.7015 -1.4622
   75MOL0     H10340   7.547   8.410  10.248 -2.1498  4.0062  0.5691
   75MOL0     H10341   7.643   8.422  10.394  0.4472  0.6041  0.3637
   75MOL0     H10342   7.777   8.388  10.179 -5.5150 -0.5945 -4.7810
   75MOL0     H10343   7.738   8.552  10.131  3.8483  1.0806  0.2307
   75MOL0     H10344   7.872   8.505  10.394 -1.3952 -2.8367 -1.2927
   75MOL0     H10345   7.856   8.659  10.276  0.7666  1.0289 -0.4649
   75MOL0     H10346   8.169   8.461  10.097  0.9146 -1.6827  1.4559
   75MOL0     H10347   7.414   8.654  10.591 -0.4661  0.1862  0.4417
   75MOL0     H10348   7.352   8.507  10.842 -2.3253  1.5976 -1.1576
   75MOL0     H10349   7.450   8.612  10.957  1.0757  1.3576 -0.4362
   75MOL0     H10350   7.337   8.673  10.828 -1.9471 -1.3145 -0.3005
   76MOL0     O10351   4.569   4.586  11.525 -0.5080  0.1632  0.5158
   76MOL0     C10352   4.550   4.489  11.455  0.0847  0.4363  0.1976
   76MOL0     O10353   4.473   4.485  11.336 -0.1980  0.4523 -0.2092
   76MOL0     C10354   4.371   4.585  11.321 -0.7483 -0.7553  0.4423
   76MOL0     C10355   4.404   4.684  11.219 -0.4131  0.5216 -1.2521
   76MOL0     C10356   4.300   4.782  11.196 -0.9839  0.7430 -0.6478
   76MOL0     C10357   4.163   4.766  11.248 -0.2826  0.1493 -0.7056
   76MOL0     O10358   4.056   4.826  11.192 -0.7684 -0.2356  0.0348
   76MOL0     C10359   4.091   4.936  11.107 -0.3235  0.2272 -0.7431
   76MOL0     C10360   3.968   4.992  11.021 -0.4748  0.4076 -0.3770
   76MOL0     C10361   3.841   5.044  11.101  0.0588  0.1234 -0.5502
   76MOL0     C10362   3.875   5.118  11.231 -0.6292 -0.2409 -0.4101
   76MOL0     C10363   3.982   5.227  11.231  0.2604 -0.0968  0.3762
   76MOL0     C10364   3.952   5.342  11.130 -0.1384  0.5326 -0.4159
   76MOL0     C10365   3.827   5.433  11.144 -0.7252 -0.1485  0.5674
   76MOL0     C10366   3.783   5.456  11.289  0.1099  0.5946  0.3195
   76MOL0     N10367   3.893   5.513  11.377  0.3877  0.2317 -0.4047
   76MOL0     C10368   3.994   5.604  11.344  0.4250 -0.3238  0.0342
   76MOL0     C10369   4.072   5.621  11.460  0.7560  1.2016 -0.0654
   76MOL0     C10370   4.193   5.698  11.480 -0.0992 -0.3108  0.3181
   76MOL0     C10371   4.318   5.624  11.454 -0.3997  0.1570 -0.5022
   76MOL0     C10372   4.433   5.719  11.483  0.0133  0.1700  1.4186
   76MOL0     C10373   4.571   5.664  11.431  0.4171 -0.0148 -0.5825
   76MOL0     O10374   4.596   5.538  11.495  0.1969 -0.3410 -0.6377
   76MOL0     C10375   4.718   5.483  11.501 -0.8330 -0.3738 -1.1732
   76MOL0     C10376   4.833   5.533  11.429 -0.1289 -0.3011 -1.2078
   76MOL0     C10377   4.957   5.475  11.443 -0.1311  0.2615 -0.3828
   76MOL0     C10378   5.067   5.532  11.351 -0.0450  0.2003 -0.2595
   76MOL0     C10379   4.975   5.359  11.526 -0.2657  0.1489  0.1921
   76MOL0     C10380   5.096   5.269  11.526 -0.6923  0.5666 -0.3008
   76MOL0     O10381   5.098   5.163  11.609 -0.1546  0.1230 -0.0767
   76MOL0     C10382   5.217   5.099  11.641  0.0694 -0.7025 -0.4928
   76MOL0     C10383   5.337   5.176  11.660  0.6748 -0.4398 -0.4108
   76MOL0     C10384   5.447   5.106  11.707 -0.6223  0.1307  0.9085
   76MOL0     C10385   5.461   4.973  11.716 -0.3978 -0.5693 -0.4485
   76MOL0     O10386   5.571   4.893  11.731  0.6522  0.0436 -0.0213
   76MOL0     C10387   5.687   4.943  11.670  0.9895 -0.3807 -0.4177
   76MOL0     C10388   5.796   4.830  11.664  0.4674 -0.2424  0.4559
   76MOL0     C10389   5.786   4.755  11.534 -0.2103  0.2986  0.3301
   76MOL0     C10390   5.670   4.653  11.516 -0.1991 -0.6085  0.7061
   76MOL0     C10391   5.658   4.596  11.366 -0.7912  0.0116  0.4887
   76MOL0     C10392   5.640   4.687  11.247 -0.2690  0.3024 -0.1745
   76MOL0     C10393   5.659   4.601  11.116  0.5874  0.0980  0.6599
   76MOL0     C10394   5.547   4.501  11.085 -0.5779 -0.0244  0.5161
   76MOL0    Cl10395   5.390   4.565  11.050 -0.3198 -0.0423 -0.1071
   76MOL0     C10396   5.339   4.907  11.692  0.3196  0.4889 -0.1180
   76MOL0     C10397   5.214   4.961  11.666 -0.0500 -0.5853 -0.2541
   76MOL0     O10398   5.174   5.271  11.430  0.6586 -0.4773  0.3538
   76MOL0     C10399   4.861   5.326  11.602 -0.6297 -0.0852  1.2788
   76MOL0     C10400   4.738   5.379  11.590 -0.2715  0.3014  0.0244
   76MOL0     N10401   4.018   5.537  11.550  0.7484  0.6012  0.5015
   76MOL0     N10402   3.917   5.476  11.500  0.2912  1.1563 -0.7944
   76MOL0     C10403   4.145   4.672  11.339  0.3877  0.2050 -0.5242
   76MOL0     C10404   4.244   4.583  11.374  0.4362  0.6886  0.0640
   76MOL0     C10405   4.642   4.385  11.472 -0.0356  0.3563  0.7869
   76MOL0     C10406   4.692   4.317  11.351  1.0132 -0.3456  0.6403
   76MOL0     C10407   4.767   4.202  11.365  0.5834  0.5230  0.6154
   76MOL0     C10408   4.804   4.151  11.490  0.1553  0.4005 -0.7104
   76MOL0     O10409   4.892   4.043  11.493  0.1768  0.9451  0.3799
   76MOL0     C10410   4.981   4.017  11.600  0.6783 -0.1324  0.5740
   76MOL0     C10411   5.114   3.949  11.565 -0.6522  0.2380  0.4579
   76MOL0     C10412   5.166   4.026  11.441 -0.1029  0.1271  0.1622
   76MOL0     C10413   5.298   3.972  11.387  0.1375 -0.0424  1.2733
   76MOL0     C10414   5.419   3.995  11.470  0.7730 -0.2257  0.4038
   76MOL0     C10415   5.525   4.004  11.540 -0.2232  0.0845  0.0891
   76MOL0     C10416   4.752   4.203  11.607  0.1886 -1.6344  0.3822
   76MOL0     C10417   4.668   4.321  11.603 -0.5639 -0.1008  0.3776
   76MOL0     C10418   4.602   4.375  11.731  0.5478  0.5706 -0.2524
   76MOL0     H10419   4.496   4.681  11.162  0.8232 -0.4146  0.6907
   76MOL0     H10420   4.333   4.856  11.124 -1.0199  1.3427 -0.0663
   76MOL0     H10421   4.159   4.904  11.027  0.0135  4.1802 -2.2827
   76MOL0     H10422   4.143   5.012  11.165 -2.1254 -0.4859  2.0322
   76MOL0     H10423   4.016   5.076  10.971 -0.3836 -0.2631 -1.4584
   76MOL0     H10424   3.933   4.914  10.952 -2.1421 -2.4609  3.3360
   76MOL0     H10425   3.777   5.103  11.035  1.4476  3.3534  0.7716
   76MOL0     H10426   3.781   4.958  11.131  1.4526 -0.8929 -0.5606
   76MOL0     H10427   3.783   5.170  11.259 -0.1185  3.0147 -3.9266
   76MOL0     H10428   3.904   5.044  11.306 -1.7700 -0.0340  0.2431
   76MOL0     H10429   4.084   5.191  11.217 -1.0883 -3.3160 -2.6884
   76MOL0     H10430   3.988   5.271  11.331  1.0968  1.3028 -0.2640
   76MOL0     H10431   4.034   5.411  11.150  1.6177 -1.2787 -1.0952
   76MOL0     H10432   3.966   5.319  11.024 -0.8600  1.8128 -0.8138
   76MOL0     H10433   3.753   5.373  11.090 -0.5212  0.4569 -0.4082
   76MOL0     H10434   3.825   5.529  11.092 -1.9609 -0.3739  0.1527
   76MOL0     H10435   3.697   5.522  11.275 -0.5822 -0.3366  0.0699
   76MOL0     H10436   3.736   5.364  11.325 -1.9723  0.1589 -3.0207
   76MOL0     H10437   4.008   5.648  11.245  0.2371 -0.7555 -0.1895
   76MOL0     H10438   4.189   5.727  11.585  2.7826 -1.8778  0.9332
   76MOL0     H10439   4.191   5.783  11.411  1.7936 -1.1597 -0.8519
   76MOL0     H10440   4.341   5.552  11.533  1.1773 -1.5744 -2.4227
   76MOL0     H10441   4.326   5.570  11.359  0.9033 -0.2914 -0.1613
   76MOL0     H10442   4.415   5.809  11.423 -0.9780  1.0079  2.9059
   76MOL0     H10443   4.443   5.745  11.589  1.9897 -0.4969  1.4301
   76MOL0     H10444   4.567   5.655  11.322  1.1918  2.5152 -0.9011
   76MOL0     H10445   4.654   5.734  11.446  1.4361 -1.7542  2.8260
   76MOL0     H10446   4.809   5.617  11.364 -2.6276 -1.3440 -1.7684
   76MOL0     H10447   5.042   5.636  11.327  1.8205  0.3557 -1.7644
   76MOL0     H10448   5.078   5.473  11.258  1.0029 -0.7125  0.4138
   76MOL0     H10449   5.169   5.523  11.388  0.2881 -2.1283 -1.5129
   76MOL0     H10450   5.333   5.283  11.643 -0.2651 -0.4260 -0.1505
   76MOL0     H10451   5.536   5.166  11.720 -0.8646  0.3184  1.7366
   76MOL0     H10452   5.668   4.988  11.573  1.4373 -0.0180 -0.3411
   76MOL0     H10453   5.722   5.026  11.732 -1.9173 -0.9528  2.2478
   76MOL0     H10454   5.892   4.882  11.664  1.3036 -1.6916 -0.9080
   76MOL0     H10455   5.798   4.768  11.754 -0.3943  1.1364  1.4758
   76MOL0     H10456   5.873   4.691  11.516 -0.4404  0.6226 -2.3865
   76MOL0     H10457   5.783   4.830  11.453  0.0573  0.6090  0.6025
   76MOL0     H10458   5.566   4.674  11.544 -1.0389  0.9968 -3.0570
   76MOL0     H10459   5.685   4.560  11.573  1.8227 -0.5106  0.3823
   76MOL0     H10460   5.747   4.534  11.351  0.6510  2.2835 -0.8772
   76MOL0     H10461   5.575   4.526  11.377  0.7762 -1.9334  0.5370
   76MOL0     H10462   5.716   4.765  11.245  1.5808 -1.4139  0.3400
   76MOL0     H10463   5.542   4.735  11.248  0.5548  2.0709  1.5167
   76MOL0     H10464   5.749   4.541  11.125  1.5823  1.6228  1.4412
   76MOL0     H10465   5.674   4.665  11.028 -0.2102 -0.3487  0.1934
   76MOL0     H10466   5.534   4.430  11.167 -2.5907  1.7543  1.8334
   76MOL0     H10467   5.572   4.447  10.993  0.7989  1.4917 -0.0676
   76MOL0     H10468   5.342   4.799  11.691  0.7431  0.4173  2.1653
   76MOL0     H10469   5.127   4.904  11.633  1.8328 -3.7837 -0.1292
   76MOL0     H10470   4.870   5.242  11.669 -1.3008  0.0599  1.5637
   76MOL0     H10471   4.650   5.346  11.643  0.9147  1.1007  2.6599
   76MOL0     H10472   4.047   4.660  11.384  0.8580 -0.1315  0.4161
   76MOL0     H10473   4.231   4.498  11.439  4.6027  1.7237  2.6889
   76MOL0     H10474   4.667   4.343  11.249  2.2417 -0.1713  0.3738
   76MOL0     H10475   4.792   4.138  11.281  1.9002 -0.1974  1.5146
   76MOL0     H10476   5.004   4.116  11.640  1.9705  1.5523 -3.7148
   76MOL0     H10477   4.925   3.956  11.672  0.4479  1.2612  1.6172
   76MOL0     H10478   5.104   3.844  11.537 -1.3978 -0.3040  2.5591
   76MOL0     H10479   5.181   3.951  11.652 -0.4996  1.2352  0.3287
   76MOL0     H10480   5.087   4.004  11.369 -0.4574 -1.4583  0.9748
   76MOL0     H10481   5.164   4.134  11.458 -0.1886  0.6286 -2.6399
   76MOL0     H10482   5.319   4.016  11.289 -4.6811 -0.8581 -0.3950
   76MOL0     H10483   5.275   3.869  11.361  2.3252 -0.4585  0.7943
   76MOL0     H10484   5.608   4.033  11.601 -0.0424  1.2282 -0.6786
   76MOL0     H10485   4.772   4.153  11.702 -0.8643 -2.6236  0.1042
   76MOL0     H10486   4.672   4.358  11.813  2.5602  1.1724 -1.7794
   76MOL0     H10487   4.575   4.479  11.712 -1.0108 -0.3073 -3.4909
   76MOL0     H10488   4.510   4.322  11.759  0.5740  1.2598  1.2436
   77MOL0     O10489  11.491   6.039   0.222 -0.0386 -0.0869 -0.1420
   77MOL0     C10490  11.483   5.971   0.320 -0.6261 -0.0322  0.3920
   77MOL0     O10491  11.589   5.908   0.373  0.2882  0.8948  0.4277
   77MOL0     C10492  11.706   5.893   0.302 -0.2860 -0.4428 -0.4053
   77MOL0     C10493  11.826   5.890   0.378 -0.4492 -0.4739 -0.4802
   77MOL0     C10494  11.950   5.870   0.317 -0.8965 -0.1252  0.0658
   77MOL0     C10495  11.950   5.836   0.180 -0.4553  0.6294  0.4868
   77MOL0     O10496  12.057   5.801   0.099  0.5059  0.3775 -0.1162
   77MOL0     C10497  12.159   5.895   0.063  0.1392  0.3032  0.0742
   77MOL0     C10498  12.123   5.967  -0.073 -0.6754  0.3171  0.4712
   77MOL0     C10499  12.200   6.084  -0.113  0.6958  0.1901 -0.1041
   77MOL0     C10500  12.336   6.068  -0.191 -0.2109 -0.1594  0.2996
   77MOL0     C10501  12.436   6.180  -0.160  0.0666 -0.3513  0.1630
   77MOL0     C10502  12.582   6.166  -0.206 -0.0605 -0.1801  0.2395
   77MOL0     C10503  12.674   6.273  -0.143  0.1519 -0.0630 -0.4604
   77MOL0     C10504  12.818   6.272  -0.200  0.5171  0.3549  0.9463
   77MOL0     N10505  12.936   6.203  -0.138 -0.3134  0.2732  0.1239
   77MOL0     C10506  12.940   6.071  -0.090  0.1751 -0.6458  1.0300
   77MOL0     C10507  13.067   6.062  -0.042  0.1481  0.6540 -0.5279
   77MOL0     C10508  13.126   5.933   0.022  0.2993 -0.2208 -1.1934
   77MOL0     C10509  13.169   5.836  -0.073  0.2390  0.6550  0.4101
   77MOL0     C10510  13.059   5.763  -0.157 -0.6277  0.1894  0.0053
   77MOL0     C10511  13.109   5.633  -0.229  1.1366  0.7147 -0.5040
   77MOL0     O10512  13.157   5.538  -0.130  0.5418  0.3921  0.3550
   77MOL0     C10513  13.230   5.427  -0.174  0.4873  0.1558  0.4791
   77MOL0     C10514  13.219   5.368  -0.305  0.7521 -0.3590  0.0294
   77MOL0     C10515  13.280   5.250  -0.345  0.0238  0.8496 -0.0774
   77MOL0     C10516  13.245   5.194  -0.479  0.0700  0.6876  0.8793
   77MOL0     C10517  13.372   5.189  -0.253 -0.5692 -0.0776 -0.5920
   77MOL0     C10518  13.455   5.067  -0.281 -0.5687 -0.2836  0.3606
   77MOL0     O10519  13.496   4.992  -0.170 -0.6143 -0.6100  0.2711
   77MOL0     C10520  13.564   4.874  -0.189 -0.3239 -0.4133 -0.6289
   77MOL0     C10521  13.673   4.861  -0.281 -0.4277 -0.2977 -0.2034
   77MOL0     C10522  13.726   4.741  -0.318 -0.5622  0.3383  0.4802
   77MOL0     C10523  13.672   4.621  -0.260 -0.1834  0.1100  0.5814
   77MOL0     O10524  13.714   4.493  -0.290  0.8015  0.6946  0.3049
   77MOL0     C10525  13.831   4.469  -0.374  0.2080  0.0551 -0.1309
   77MOL0     C10526  13.896   4.325  -0.355 -0.7411 -0.0584  0.2459
   77MOL0     C10527  14.013   4.303  -0.454 -0.3563 -0.1126  0.7118
   77MOL0     C10528  14.090   4.169  -0.447  0.8971  0.3891 -1.1614
   77MOL0     C10529  14.002   4.046  -0.462 -0.3668 -0.7943  0.3700
   77MOL0     C10530  14.084   3.921  -0.453 -0.4660 -0.5897  0.3576
   77MOL0     C10531  14.130   3.891  -0.313  1.0001 -0.2320 -0.8795
   77MOL0     C10532  14.032   3.860  -0.197  0.1578 -0.1766  0.4770
   77MOL0    Cl10533  14.007   3.685  -0.219  0.2806  0.0764 -0.0061
   77MOL0     C10534  13.570   4.633  -0.167 -0.8015  0.3572  0.1889
   77MOL0     C10535  13.513   4.757  -0.130 -0.1480  0.4877 -0.3744
   77MOL0     O10536  13.479   5.039  -0.403  1.1852 -0.1988 -0.6645
   77MOL0     C10537  13.375   5.243  -0.118  1.0890  0.0050 -0.0496
   77MOL0     C10538  13.307   5.363  -0.087  0.6095  0.3754  0.4045
   77MOL0     N10539  13.126   6.183  -0.054 -0.5286  0.9442  0.5632
   77MOL0     N10540  13.054   6.274  -0.115 -0.0122 -0.5008 -0.5528
   77MOL0     C10541  11.832   5.842   0.106  0.3150 -0.4315  0.5774
   77MOL0     C10542  11.711   5.870   0.165  0.0273  0.2019  0.4605
   77MOL0     C10543  11.346   5.953   0.388  0.2295 -0.4114  0.4247
   77MOL0     C10544  11.345   5.877   0.507 -0.6601  0.0998  0.3144
   77MOL0     C10545  11.216   5.848   0.571 -0.2521  0.1419  0.6914
   77MOL0     C10546  11.104   5.924   0.545 -0.1913 -0.7194  0.2673
   77MOL0     O10547  11.000   5.909   0.627 -0.9030 -0.1554  0.4493
   77MOL0     C10548  10.887   6.002   0.634 -0.1724 -0.5660  0.9853
   77MOL0     C10549  10.769   5.935   0.705 -0.1469 -0.4402  0.5578
   77MOL0     C10550  10.641   5.909   0.613 -0.6128 -0.0529  0.4049
   77MOL0     C10551  10.592   6.025   0.517  0.0429  1.2037 -0.1362
   77MOL0     C10552  10.610   6.166   0.565 -0.3141  0.2545 -1.1959
   77MOL0     C10553  10.628   6.283   0.587 -0.5118  0.5602  0.3781
   77MOL0     C10554  11.114   6.015   0.436 -0.3354  0.6538  0.2502
   77MOL0     C10555  11.232   6.027   0.354  1.0013  0.1296 -0.9368
   77MOL0     C10556  11.214   6.125   0.242 -0.1251 -0.6603  1.3840
   77MOL0     H10557  11.815   5.895   0.486 -1.8091 -0.6341 -0.5943
   77MOL0     H10558  12.044   5.859   0.370 -0.4669  1.0760 -0.4139
   77MOL0     H10559  12.247   5.836   0.037 -1.2164 -2.5069  1.3254
   77MOL0     H10560  12.188   5.963   0.143  0.2004 -1.3098  1.4722
   77MOL0     H10561  12.121   5.894  -0.154 -0.4863 -0.6221  1.3001
   77MOL0     H10562  12.024   6.011  -0.059 -1.5462 -1.6378  0.8227
   77MOL0     H10563  12.139   6.145  -0.180 -0.5941 -1.6475 -0.6742
   77MOL0     H10564  12.227   6.139  -0.022  2.4879 -4.1477  2.3126
   77MOL0     H10565  12.392   5.978  -0.167  3.1684  1.6886 -0.1193
   77MOL0     H10566  12.321   6.064  -0.299 -1.6641  0.6199  0.4393
   77MOL0     H10567  12.441   6.201  -0.052  1.8159 -2.6151  0.5939
   77MOL0     H10568  12.401   6.265  -0.219  0.7498 -0.8027 -0.9252
   77MOL0     H10569  12.625   6.069  -0.180  0.3784 -0.0651 -0.0365
   77MOL0     H10570  12.586   6.169  -0.316 -1.3023  1.1316  0.1886
   77MOL0     H10571  12.677   6.256  -0.035  0.3457  1.7884 -0.1520
   77MOL0     H10572  12.640   6.376  -0.155  0.8957  0.2909  0.4331
   77MOL0     H10573  12.817   6.229  -0.301 -0.0057 -2.2526  1.9679
   77MOL0     H10574  12.840   6.379  -0.200  2.1273  0.0548  0.3169
   77MOL0     H10575  12.869   5.990  -0.090  0.8880 -1.2849  1.1859
   77MOL0     H10576  13.046   5.896   0.087  0.6395  1.9230  0.5656
   77MOL0     H10577  13.214   5.966   0.077 -1.1806  0.3047  0.9771
   77MOL0     H10578  13.242   5.879  -0.143  3.0196  3.5845  4.6414
   77MOL0     H10579  13.201   5.752  -0.011 -3.4846 -1.8590 -0.7488
   77MOL0     H10580  12.965   5.754  -0.101 -0.5746 -1.2335 -0.0907
   77MOL0     H10581  13.028   5.834  -0.234  0.2099 -1.1383 -1.6181
   77MOL0     H10582  13.030   5.581  -0.283  1.6675 -0.1776 -0.4426
   77MOL0     H10583  13.177   5.645  -0.314  1.3778 -0.4331 -0.4946
   77MOL0     H10584  13.163   5.428  -0.376  0.5203  0.9583  1.2668
   77MOL0     H10585  13.141   5.212  -0.510 -0.3139 -3.6204 -1.1796
   77MOL0     H10586  13.256   5.085  -0.481 -2.7976  0.3125  0.5672
   77MOL0     H10587  13.311   5.229  -0.559  0.5987 -0.8326  0.6150
   77MOL0     H10588  13.713   4.955  -0.320  0.1994 -0.3485  0.2904
   77MOL0     H10589  13.808   4.750  -0.389  1.2307 -1.3935  2.2083
   77MOL0     H10590  13.804   4.494  -0.478 -0.5309  2.6526  0.6045
   77MOL0     H10591  13.903   4.543  -0.337  0.8122 -1.7276  2.4858
   77MOL0     H10592  13.928   4.314  -0.251  1.3510  0.4506 -0.2975
   77MOL0     H10593  13.822   4.247  -0.378 -0.4096 -1.3324  3.1197
   77MOL0     H10594  14.095   4.372  -0.433 -0.2711 -0.2461  0.8201
   77MOL0     H10595  13.988   4.325  -0.558  0.1724  1.7319  0.9367
   77MOL0     H10596  14.124   4.169  -0.342  1.5712  1.4756 -1.3550
   77MOL0     H10597  14.178   4.180  -0.511  1.9099  1.1625  0.2746
   77MOL0     H10598  13.918   4.046  -0.392 -0.0203 -2.4784  0.8232
   77MOL0     H10599  13.971   4.041  -0.567  1.7718 -2.8573 -0.2233
   77MOL0     H10600  14.173   3.935  -0.514 -1.0853  1.8736 -0.0922
   77MOL0     H10601  14.023   3.836  -0.486 -1.4187 -1.3591  3.6645
   77MOL0     H10602  14.183   3.980  -0.278 -0.0953 -0.1479  0.6826
   77MOL0     H10603  14.206   3.814  -0.319  2.3077  1.0895 -5.0417
   77MOL0     H10604  13.944   3.926  -0.191 -0.5671 -1.1862  1.5708
   77MOL0     H10605  14.083   3.867  -0.101  4.0084 -1.0718 -1.3152
   77MOL0     H10606  13.525   4.542  -0.130  3.1559 -1.4853  0.9614
   77MOL0     H10607  13.432   4.749  -0.057  0.7154 -0.5745  0.5097
   77MOL0     H10608  13.430   5.195  -0.039  0.2284 -1.4714 -0.3085
   77MOL0     H10609  13.327   5.410   0.009  1.6963  0.2055  0.2824
   77MOL0     H10610  11.816   5.799   0.008 -2.0288 -2.4569  1.7277
   77MOL0     H10611  11.624   5.847   0.104 -0.3145 -0.4101  1.1645
   77MOL0     H10612  11.440   5.843   0.547 -0.4759  0.7924  0.4669
   77MOL0     H10613  11.202   5.760   0.633 -0.7050 -0.3974 -0.1552
   77MOL0     H10614  10.924   6.091   0.685  1.6361 -1.5256  1.4374
   77MOL0     H10615  10.857   6.037   0.535 -0.1203 -0.9012  0.8494
   77MOL0     H10616  10.730   5.996   0.787  2.6804  1.7753  0.4074
   77MOL0     H10617  10.796   5.837   0.745 -0.8002 -0.7729  0.2112
   77MOL0     H10618  10.666   5.821   0.552  0.3103 -0.3992  1.2678
   77MOL0     H10619  10.570   5.882   0.691  0.6875  1.0119  2.0123
   77MOL0     H10620  10.485   6.013   0.495 -0.0818  2.7663 -0.5027
   77MOL0     H10621  10.634   6.003   0.419  0.1420 -2.2618  0.5583
   77MOL0     H10622  10.648   6.383   0.621 -1.1631  0.9420 -0.3351
   77MOL0     H10623  11.023   6.064   0.404 -0.1177  0.2991 -0.9245
   77MOL0     H10624  11.223   6.076   0.145  0.1670  0.9443  0.5531
   77MOL0     H10625  11.122   6.185   0.243 -0.2624 -0.5641 -2.4321
   77MOL0     H10626  11.291   6.201   0.261 -1.6334  0.6980  2.3677
   78MOL0     O10627   7.332  10.067   5.219 -0.4983 -0.6757 -0.1795
   78MOL0     C10628   7.351  10.185   5.191  0.6767 -0.6370 -0.1607
   78MOL0     O10629   7.264  10.290   5.211  0.4095  0.3527  0.7861
   78MOL0     C10630   7.135  10.281   5.254 -0.6572 -0.0118 -0.4936
   78MOL0     C10631   7.071  10.159   5.290  0.8657 -0.6910  0.3287
   78MOL0     C10632   6.932  10.160   5.321  0.3733 -0.6505  0.0463
   78MOL0     C10633   6.869  10.283   5.331  0.7824  1.1653  0.2052
   78MOL0     O10634   6.735  10.271   5.368  0.6934 -0.0203  0.0000
   78MOL0     C10635   6.708  10.273   5.510  0.1596  0.6054  0.1225
   78MOL0     C10636   6.562  10.232   5.528 -0.3487  0.0985  0.1616
   78MOL0     C10637   6.558  10.164   5.665 -0.5345 -0.3690 -1.2051
   78MOL0     C10638   6.428  10.080   5.675 -0.2432 -0.0404 -0.6473
   78MOL0     C10639   6.415   9.975   5.780 -0.0150  0.3241 -0.4550
   78MOL0     C10640   6.491   9.841   5.741 -0.3532 -0.2514  0.5944
   78MOL0     C10641   6.485   9.735   5.857  1.2491 -0.6451  0.7349
   78MOL0     C10642   6.358   9.651   5.852 -0.1240 -0.2814 -0.2223
   78MOL0     N10643   6.352   9.551   5.747  0.2467 -0.2450  0.6103
   78MOL0     C10644   6.358   9.418   5.759  0.1882  1.0333  0.2314
   78MOL0     C10645   6.323   9.367   5.642  0.8852  0.2800  0.5385
   78MOL0     C10646   6.301   9.221   5.593 -0.7040  0.6314  0.0180
   78MOL0     C10647   6.411   9.179   5.491 -0.3059 -0.0354  0.5691
   78MOL0     C10648   6.379   9.042   5.447 -0.1809  0.0403  0.6574
   78MOL0     C10649   6.448   8.995   5.316 -0.3705 -0.0285  0.9016
   78MOL0     O10650   6.587   8.979   5.341  0.0506 -0.0677 -0.1685
   78MOL0     C10651   6.649   8.858   5.358 -0.5453 -0.8207  0.2495
   78MOL0     C10652   6.779   8.866   5.396 -0.3784  0.0561 -0.6586
   78MOL0     C10653   6.853   8.747   5.413  0.3986 -0.7511  0.2002
   78MOL0     C10654   6.992   8.762   5.469  0.5101  0.1140  0.1100
   78MOL0     C10655   6.797   8.620   5.380  0.0563 -0.1551  0.8641
   78MOL0     C10656   6.862   8.492   5.400 -1.5344  1.0453 -0.6279
   78MOL0     O10657   6.816   8.393   5.321  0.6835  0.1832 -0.2251
   78MOL0     C10658   6.869   8.264   5.310  0.1228  0.8502  0.5992
   78MOL0     C10659   6.977   8.195   5.375  0.1230 -1.4078 -0.2420
   78MOL0     C10660   7.021   8.066   5.337 -0.3835  0.0588 -0.0062
   78MOL0     C10661   6.958   8.002   5.226 -1.0001  0.3626  0.3130
   78MOL0     O10662   7.010   7.890   5.179  0.5794 -0.8132  0.6962
   78MOL0     C10663   7.079   7.907   5.058 -0.3626  0.1647  0.3073
   78MOL0     C10664   7.212   7.826   5.052 -0.5238 -0.9610 -0.4872
   78MOL0     C10665   7.185   7.688   5.110 -0.1997  0.2169  0.3152
   78MOL0     C10666   7.311   7.601   5.092 -0.6811  0.1332 -0.7107
   78MOL0     C10667   7.282   7.459   5.152  0.4767  0.3468 -1.0552
   78MOL0     C10668   7.400   7.370   5.159 -0.1314 -0.7098  0.0673
   78MOL0     C10669   7.369   7.221   5.174 -0.5472 -0.1546 -0.3208
   78MOL0     C10670   7.362   7.158   5.038 -0.8511 -0.0296  0.0926
   78MOL0    Cl10671   7.323   6.986   5.065  0.4433  0.3904  0.1012
   78MOL0     C10672   6.845   8.063   5.170  0.1275  0.1590  1.0063
   78MOL0     C10673   6.806   8.192   5.208  1.1862 -0.0847 -0.4921
   78MOL0     O10674   6.970   8.486   5.464  0.2717 -0.6400  0.0055
   78MOL0     C10675   6.666   8.619   5.334  1.3328  0.4034  0.3499
   78MOL0     C10676   6.599   8.739   5.306 -0.0173  0.0855 -1.2487
   78MOL0     N10677   6.312   9.469   5.544 -0.0875 -0.7163  0.0916
   78MOL0     N10678   6.320   9.585   5.616  0.6015 -0.0334 -0.0601
   78MOL0     C10679   6.933  10.402   5.313  0.2476  0.5619  0.0044
   78MOL0     C10680   7.061  10.406   5.271 -0.3027 -0.3573  0.7036
   78MOL0     C10681   7.488  10.230   5.162 -0.6028  0.1743 -0.2484
   78MOL0     C10682   7.524  10.364   5.175 -0.3673  0.4633 -0.5613
   78MOL0     C10683   7.656  10.405   5.166  0.7430  0.1435 -1.3879
   78MOL0     C10684   7.756  10.323   5.119 -0.4170  0.1142 -0.4809
   78MOL0     O10685   7.882  10.373   5.101  0.5822  0.1365 -0.3191
   78MOL0     C10686   7.985  10.300   5.038  0.7737  0.1841  0.2945
   78MOL0     C10687   8.106  10.386   5.046 -0.4170  0.4797 -0.0733
   78MOL0     C10688   8.098  10.506   4.948 -0.1787  0.1792 -0.0534
   78MOL0     C10689   8.236  10.558   4.908  0.8680  0.5031 -0.2224
   78MOL0     C10690   8.284  10.644   5.022 -0.0198 -1.3640 -0.2531
   78MOL0     C10691   8.316  10.725   5.110  0.1163  0.3927 -0.3594
   78MOL0     C10692   7.719  10.196   5.081 -0.1894  0.2851 -0.4544
   78MOL0     C10693   7.588  10.143   5.097  0.1506  0.1816  0.0345
   78MOL0     C10694   7.560  10.000   5.052 -0.1677  0.3379 -0.5100
   78MOL0     H10695   7.115  10.060   5.291  0.8044 -0.7221  0.0515
   78MOL0     H10696   6.888  10.061   5.334  0.0391 -0.5470 -0.2803
   78MOL0     H10697   6.734  10.371   5.551  3.2738 -0.9374  2.2475
   78MOL0     H10698   6.770  10.189   5.542 -3.3011 -1.3909  2.2228
   78MOL0     H10699   6.487  10.311   5.522 -4.4097 -2.6928  5.3405
   78MOL0     H10700   6.542  10.160   5.448  0.4959 -2.6209  2.2522
   78MOL0     H10701   6.637  10.089   5.674 -0.9237 -0.6947 -0.4690
   78MOL0     H10702   6.553  10.232   5.751 -1.4812 -2.4137  0.4346
   78MOL0     H10703   6.343  10.144   5.700 -0.3840 -0.2973 -0.4670
   78MOL0     H10704   6.420  10.038   5.574  0.6529 -0.2607 -0.6355
   78MOL0     H10705   6.309   9.952   5.793 -0.0280  0.7167  0.1491
   78MOL0     H10706   6.456  10.002   5.877 -0.3482 -2.7333  0.6562
   78MOL0     H10707   6.470   9.805   5.640  1.8499 -0.0670  0.0264
   78MOL0     H10708   6.598   9.857   5.728 -0.0482 -1.3763  1.5767
   78MOL0     H10709   6.484   9.789   5.952  3.5011  2.0473 -0.6403
   78MOL0     H10710   6.572   9.667   5.860  1.0696 -1.2902 -3.4248
   78MOL0     H10711   6.367   9.590   5.943  2.0356  1.7385  1.0360
   78MOL0     H10712   6.269   9.714   5.845 -3.4614 -4.5474 -0.8016
   78MOL0     H10713   6.386   9.359   5.845 -1.3738 -0.3753 -0.1667
   78MOL0     H10714   6.199   9.209   5.555 -0.6128  0.5250 -0.1936
   78MOL0     H10715   6.312   9.158   5.681  1.9463  0.0730 -0.6135
   78MOL0     H10716   6.396   9.243   5.403  0.1775 -0.3121  0.2787
   78MOL0     H10717   6.515   9.196   5.518 -0.3649 -0.6186  1.1852
   78MOL0     H10718   6.397   8.969   5.527  7.2450  2.2459  1.8397
   78MOL0     H10719   6.278   9.027   5.409  0.3610 -2.7750  0.0556
   78MOL0     H10720   6.414   8.892   5.299  0.8083 -0.0932 -1.4187
   78MOL0     H10721   6.434   9.068   5.237 -0.8114  1.1726  2.0519
   78MOL0     H10722   6.817   8.967   5.412 -2.1356  0.4823  1.2396
   78MOL0     H10723   7.056   8.682   5.429  0.5648 -2.4277  4.5375
   78MOL0     H10724   7.000   8.734   5.575 -1.7748  1.5278  0.7247
   78MOL0     H10725   7.029   8.864   5.457 -1.3410  1.0961  2.0826
   78MOL0     H10726   7.022   8.249   5.459  1.4596 -1.5390 -0.8442
   78MOL0     H10727   7.116   8.028   5.374  0.5855  1.7732 -0.6459
   78MOL0     H10728   6.993   7.880   4.997 -3.5959  3.0296  3.2214
   78MOL0     H10729   7.111   8.010   5.042 -1.1747  0.3902  0.1131
   78MOL0     H10730   7.254   7.818   4.951  1.2132 -0.4544  0.1655
   78MOL0     H10731   7.293   7.873   5.109 -1.9514 -1.9756  2.5659
   78MOL0     H10732   7.104   7.644   5.052  1.1594  1.0529 -2.3460
   78MOL0     H10733   7.173   7.698   5.219  2.0815 -1.9036  0.8756
   78MOL0     H10734   7.397   7.652   5.135 -1.7606  3.4179 -2.1463
   78MOL0     H10735   7.334   7.586   4.986 -0.4150 -0.7114 -0.5428
   78MOL0     H10736   7.236   7.474   5.250 -1.8783 -2.2820 -1.6272
   78MOL0     H10737   7.209   7.424   5.078 -0.0105  0.3563 -0.5806
   78MOL0     H10738   7.459   7.407   5.244  0.6393  1.4241 -1.3287
   78MOL0     H10739   7.458   7.391   5.069  0.3581 -1.2775  0.2417
   78MOL0     H10740   7.272   7.219   5.225 -1.7338 -1.9727 -2.4549
   78MOL0     H10741   7.453   7.176   5.226  0.7387  0.0818 -2.0823
   78MOL0     H10742   7.454   7.174   4.980 -1.3399  4.2429  0.1482
   78MOL0     H10743   7.291   7.205   4.970 -0.7344  2.0686  1.3116
   78MOL0     H10744   6.800   8.010   5.087 -0.2665  1.1975  0.5440
   78MOL0     H10745   6.726   8.222   5.141 -0.6922  0.3481  1.7936
   78MOL0     H10746   6.621   8.527   5.299 -1.8543  2.2111 -0.6784
   78MOL0     H10747   6.499   8.732   5.265 -1.0352  2.6113  0.5174
   78MOL0     H10748   6.879  10.493   5.336 -1.4559 -1.0343  2.8391
   78MOL0     H10749   7.102  10.497   5.230  1.4355 -0.9319  1.0983
   78MOL0     H10750   7.454  10.440   5.209  0.8311  0.3524  2.4448
   78MOL0     H10751   7.681  10.509   5.186  0.6989 -0.4476  2.4996
   78MOL0     H10752   8.017  10.212   5.095  1.4148 -0.0228 -0.3775
   78MOL0     H10753   7.974  10.273   4.933 -0.3665 -0.6259  0.6129
   78MOL0     H10754   8.194  10.322   5.030 -0.4867 -0.3048  2.1982
   78MOL0     H10755   8.140  10.411   5.148  0.6152 -1.5767  0.1287
   78MOL0     H10756   8.039  10.492   4.856 -0.6244  1.8098 -0.0529
   78MOL0     H10757   8.041  10.582   5.002  2.3511  2.8834 -0.9105
   78MOL0     H10758   8.231  10.605   4.810  0.8871  1.4492  0.2180
   78MOL0     H10759   8.306  10.476   4.893  0.1639 -0.4246  1.3655
   78MOL0     H10760   8.316  10.779   5.203  1.3015 -2.5853  1.5322
   78MOL0     H10761   7.786  10.130   5.026 -1.7945 -2.4697  0.6864
   78MOL0     H10762   7.461   9.994   5.006  0.0248 -0.9836 -0.7922
   78MOL0     H10763   7.635   9.968   4.979 -1.0284  1.5361 -1.9593
   78MOL0     H10764   7.565   9.925   5.131  0.2249 -2.8459 -3.3147
   79MOL0     O10765   7.654   6.567   6.126  0.5440  0.4214  0.4521
   79MOL0     C10766   7.713   6.581   6.027 -0.6804  0.2719 -0.7312
   79MOL0     O10767   7.671   6.551   5.903 -0.3784 -0.1752  0.3876
   79MOL0     C10768   7.543   6.503   5.887 -0.2701  0.1585  0.1681
   79MOL0     C10769   7.544   6.369   5.874 -0.1838 -0.7205  0.4911
   79MOL0     C10770   7.433   6.306   5.836  0.2173  0.8946  0.6747
   79MOL0     C10771   7.309   6.372   5.814  0.4879  0.0164  0.3533
   79MOL0     O10772   7.200   6.293   5.780  0.1469 -1.4711  0.3571
   79MOL0     C10773   7.104   6.293   5.892  0.4736  0.5731  0.1627
   79MOL0     C10774   6.987   6.195   5.837  0.4283 -0.8018  0.1172
   79MOL0     C10775   6.861   6.197   5.930 -1.0143  0.0374  0.6135
   79MOL0     C10776   6.882   6.124   6.057 -0.1896 -0.1596  0.9633
   79MOL0     C10777   6.761   6.159   6.148 -0.8689 -0.1799 -0.3486
   79MOL0     C10778   6.765   6.301   6.217  0.5509 -0.5115  0.1889
   79MOL0     C10779   6.895   6.308   6.294  0.2485 -0.3277 -0.1080
   79MOL0     C10780   6.888   6.456   6.344  0.0714  0.5445 -0.7247
   79MOL0     N10781   6.785   6.484   6.445  1.0882 -0.1689  0.0165
   79MOL0     C10782   6.785   6.432   6.571  0.3967 -0.1153 -0.3903
   79MOL0     C10783   6.674   6.490   6.626 -0.3776  0.7292 -0.2737
   79MOL0     C10784   6.629   6.462   6.768  1.1012 -0.1247 -0.6186
   79MOL0     C10785   6.555   6.343   6.797 -0.5524 -0.0095 -0.4237
   79MOL0     C10786   6.538   6.323   6.944  0.2066 -0.0803  0.6813
   79MOL0     C10787   6.495   6.171   6.969  0.7045 -0.1507 -0.4118
   79MOL0     O10788   6.370   6.145   6.890  0.5679  0.8636  0.1861
   79MOL0     C10789   6.368   6.049   6.782  0.1167 -1.5257 -0.5392
   79MOL0     C10790   6.455   5.947   6.751 -0.0902 -0.2393 -0.7312
   79MOL0     C10791   6.435   5.846   6.656  0.1346  0.8527 -0.0657
   79MOL0     C10792   6.545   5.733   6.654  0.4526  0.7103 -0.2864
   79MOL0     C10793   6.314   5.845   6.578 -0.4986  0.3687  0.0514
   79MOL0     C10794   6.272   5.740   6.483  0.2494 -0.0516 -0.7547
   79MOL0     O10795   6.143   5.738   6.450  0.8525 -0.2891  0.5472
   79MOL0     C10796   6.085   5.618   6.420  0.4755  0.5642 -0.4585
   79MOL0     C10797   6.125   5.523   6.326  0.4094 -0.1193 -0.2519
   79MOL0     C10798   6.067   5.394   6.317  0.7024  0.0762 -0.4342
   79MOL0     C10799   5.955   5.364   6.407 -0.4323 -0.2562 -0.4708
   79MOL0     O10800   5.888   5.239   6.405  0.3040 -0.4115  0.1833
   79MOL0     C10801   5.887   5.154   6.292  0.2652 -0.1464 -0.2138
   79MOL0     C10802   5.776   5.048   6.311 -0.6926 -0.3146  0.4324
   79MOL0     C10803   5.816   4.973   6.437  0.4577 -0.0303 -0.4359
   79MOL0     C10804   5.760   5.022   6.569  0.2051 -0.4512  0.1925
   79MOL0     C10805   5.782   4.903   6.670  0.4191 -0.5426 -0.1017
   79MOL0     C10806   5.742   4.949   6.808  0.3923 -0.2651 -0.4821
   79MOL0     C10807   5.765   4.848   6.922  1.0982  0.1599  0.3109
   79MOL0     C10808   5.791   4.933   7.044  0.0380  0.5878  0.5697
   79MOL0    Cl10809   5.758   4.847   7.197 -0.0044 -0.1026  0.4732
   79MOL0     C10810   5.919   5.462   6.500  0.1453 -0.4647 -0.1533
   79MOL0     C10811   5.978   5.590   6.507  0.0465 -0.0971 -0.1495
   79MOL0     O10812   6.353   5.667   6.427 -0.1359 -0.1000 -0.2084
   79MOL0     C10813   6.235   5.947   6.608  0.5239  0.4928  1.1706
   79MOL0     C10814   6.261   6.054   6.701 -0.2789  0.0794 -0.2138
   79MOL0     N10815   6.627   6.587   6.544  0.2980 -0.9158  0.4341
   79MOL0     N10816   6.692   6.582   6.433  0.2209  0.4381 -0.2378
   79MOL0     C10817   7.308   6.512   5.828  0.8893  0.7091 -0.0911
   79MOL0     C10818   7.428   6.580   5.864 -0.5654  0.6842  0.8809
   79MOL0     C10819   7.857   6.640   6.048 -0.8128 -0.6089 -0.4255
   79MOL0     C10820   7.921   6.613   6.166  0.2405 -0.7356 -0.1002
   79MOL0     C10821   8.056   6.656   6.198 -0.2339  1.0004 -0.2135
   79MOL0     C10822   8.118   6.742   6.098  0.3231 -0.5305  0.4372
   79MOL0     O10823   8.247   6.788   6.104 -0.3082 -0.8025 -0.0436
   79MOL0     C10824   8.340   6.692   6.061  0.4571  0.2413 -0.4430
   79MOL0     C10825   8.411   6.746   5.937 -0.3378 -0.0389  0.4594
   79MOL0     C10826   8.500   6.639   5.878 -0.1088 -0.5496 -0.0555
   79MOL0     C10827   8.645   6.669   5.895 -1.0157  0.8312 -1.1254
   79MOL0     C10828   8.703   6.658   6.033 -0.5838 -0.1652  0.7698
   79MOL0     C10829   8.752   6.651   6.145  1.0099  1.0184 -0.6712
   79MOL0     C10830   8.043   6.776   5.986 -0.6226 -0.6853 -0.4941
   79MOL0     C10831   7.920   6.722   5.946  0.2358 -0.0569  0.2830
   79MOL0     C10832   7.857   6.769   5.815  0.3990 -1.0767  0.4322
   79MOL0     H10833   7.638   6.316   5.887  1.8895  1.9316 -2.3122
   79MOL0     H10834   7.429   6.198   5.829  2.9117  0.6813  1.5555
   79MOL0     H10835   7.066   6.392   5.919  1.7112  1.2725 -0.5711
   79MOL0     H10836   7.145   6.234   5.975 -1.6028 -0.2502  0.6775
   79MOL0     H10837   6.951   6.242   5.745  0.0417 -2.1734 -0.4593
   79MOL0     H10838   7.026   6.098   5.804  5.4292  1.2466 -0.8538
   79MOL0     H10839   6.828   6.300   5.946 -0.1395  0.2620  1.0451
   79MOL0     H10840   6.785   6.151   5.866  2.0494 -2.3042 -1.6539
   79MOL0     H10841   6.870   6.021   6.023 -0.9680  0.5880 -1.2055
   79MOL0     H10842   6.980   6.129   6.106 -1.3919  0.5018  3.4768
   79MOL0     H10843   6.760   6.082   6.225 -1.1056 -0.5829 -0.7435
   79MOL0     H10844   6.666   6.153   6.094 -1.3360  2.3905  0.0421
   79MOL0     H10845   6.775   6.383   6.145  0.5499  0.2699  1.0641
   79MOL0     H10846   6.676   6.325   6.275  1.3919  1.5652  0.6995
   79MOL0     H10847   6.981   6.296   6.227 -0.5339  1.4942 -1.4994
   79MOL0     H10848   6.883   6.247   6.384 -2.4026 -1.9776 -1.4543
   79MOL0     H10849   6.980   6.481   6.398 -2.2701 -1.7328  5.2215
   79MOL0     H10850   6.864   6.526   6.264 -1.0946  2.3560  1.1070
   79MOL0     H10851   6.844   6.354   6.618 -0.6167 -0.4496  0.3486
   79MOL0     H10852   6.576   6.553   6.797  0.0011 -1.0239  0.2638
   79MOL0     H10853   6.716   6.459   6.834  0.2313  1.4975  0.6928
   79MOL0     H10854   6.466   6.370   6.740 -0.1412  5.9951  1.0488
   79MOL0     H10855   6.609   6.262   6.746  1.7935  0.7577  0.6933
   79MOL0     H10856   6.623   6.366   6.999 -0.0362  0.6209  0.5279
   79MOL0     H10857   6.450   6.377   6.983  0.5928 -1.7275  4.2279
   79MOL0     H10858   6.580   6.107   6.945  1.4124  1.3209 -2.0995
   79MOL0     H10859   6.471   6.155   7.074 -1.6626 -0.3156 -0.9316
   79MOL0     H10860   6.542   5.932   6.815  0.8928  0.4041 -1.8851
   79MOL0     H10861   6.572   5.708   6.757 -3.4225 -2.0489  0.2874
   79MOL0     H10862   6.633   5.743   6.589  1.5443 -3.2783  0.2987
   79MOL0     H10863   6.494   5.644   6.613  2.1604  0.4883 -2.0952
   79MOL0     H10864   6.207   5.539   6.257  0.2153 -2.7469 -1.1962
   79MOL0     H10865   6.093   5.320   6.242 -1.4028 -1.4082  0.1980
   79MOL0     H10866   5.860   5.211   6.202 -0.5530 -2.1714 -1.2987
   79MOL0     H10867   5.981   5.100   6.274 -1.3372 -2.3715 -2.5965
   79MOL0     H10868   5.683   5.104   6.320  0.4551  2.1285 -1.6522
   79MOL0     H10869   5.776   4.982   6.223 -1.0391  2.2337 -1.6008
   79MOL0     H10870   5.921   4.993   6.460  0.5914  1.7009 -2.2376
   79MOL0     H10871   5.798   4.866   6.425  3.0920 -0.6518  0.4760
   79MOL0     H10872   5.656   5.054   6.558  1.0777  3.1796  1.2833
   79MOL0     H10873   5.809   5.113   6.604 -0.6569 -0.0639  0.4282
   79MOL0     H10874   5.720   4.814   6.655 -1.9846  0.9330  0.6159
   79MOL0     H10875   5.890   4.886   6.673  1.1214  3.0721 -0.4732
   79MOL0     H10876   5.633   4.956   6.806  0.2293 -1.4842  1.3745
   79MOL0     H10877   5.789   5.047   6.824  3.4167 -1.8328  1.0804
   79MOL0     H10878   5.851   4.781   6.922  0.4396 -0.7493  1.6944
   79MOL0     H10879   5.670   4.793   6.925 -0.3808  2.5831  1.8342
   79MOL0     H10880   5.728   5.023   7.048  0.6947  1.0794  0.0971
   79MOL0     H10881   5.896   4.965   7.046  0.1740  0.2841 -0.8232
   79MOL0     H10882   5.832   5.435   6.560  1.0484 -2.0342  0.5218
   79MOL0     H10883   5.945   5.666   6.576 -3.4523  0.4240 -2.1716
   79MOL0     H10884   6.155   5.965   6.536  1.5843  1.0601  0.1059
   79MOL0     H10885   6.191   6.135   6.723  1.3943  1.4340  0.3141
   79MOL0     H10886   7.222   6.568   5.792  0.4815  0.1065 -0.0760
   79MOL0     H10887   7.442   6.688   5.859 -0.2417  0.7403  2.5534
   79MOL0     H10888   7.867   6.551   6.236  1.0935  0.4803  1.7013
   79MOL0     H10889   8.129   6.627   6.273 -0.7465 -0.3757 -0.2267
   79MOL0     H10890   8.415   6.667   6.137  0.0031 -0.2444 -0.1491
   79MOL0     H10891   8.285   6.599   6.042  0.1361 -0.2402  2.3682
   79MOL0     H10892   8.461   6.836   5.974 -2.1941  1.2241  0.0142
   79MOL0     H10893   8.337   6.781   5.864  0.4053 -0.3611 -0.4777
   79MOL0     H10894   8.467   6.542   5.916 -1.8504  0.0127 -0.0457
   79MOL0     H10895   8.494   6.615   5.772  1.5922 -1.8026  0.0955
   79MOL0     H10896   8.667   6.766   5.849  2.1673  0.2621 -1.0151
   79MOL0     H10897   8.703   6.602   5.831  1.7076  3.0936 -1.2519
   79MOL0     H10898   8.787   6.632   6.244  1.8038 -2.1681 -1.4274
   79MOL0     H10899   8.084   6.838   5.907 -0.6727  5.0041  3.3689
   79MOL0     H10900   7.931   6.809   5.746  1.1985 -2.0981  0.6730
   79MOL0     H10901   7.812   6.690   5.754  1.4956 -0.1930 -1.6069
   79MOL0     H10902   7.785   6.852   5.820  0.4882 -0.7970 -1.8072
   80MOL0     O10903   4.518   6.127   6.339  0.0795 -0.2164  0.7409
   80MOL0     C10904   4.532   6.253   6.346  0.4931 -0.1102 -0.2809
   80MOL0     O10905   4.652   6.310   6.322  0.2213  0.0335 -0.7320
   80MOL0     C10906   4.765   6.232   6.337  0.6158  0.2273  0.6692
   80MOL0     C10907   4.791   6.178   6.459 -0.1650 -0.6302 -0.8942
   80MOL0     C10908   4.910   6.107   6.479 -0.6874 -0.0539  1.1767
   80MOL0     C10909   5.007   6.095   6.372  0.3126 -0.5256 -0.4924
   80MOL0     O10910   5.127   6.030   6.385  0.1243  0.1501 -0.1679
   80MOL0     C10911   5.123   5.886   6.422 -0.0756 -0.0988 -0.0122
   80MOL0     C10912   5.255   5.816   6.400 -0.3131  1.9554 -0.1326
   80MOL0     C10913   5.310   5.821   6.259  0.0542 -0.0693 -0.3041
   80MOL0     C10914   5.421   5.923   6.251 -0.2724 -0.1860  0.6685
   80MOL0     C10915   5.498   5.925   6.121 -0.3699  0.0116 -0.2077
   80MOL0     C10916   5.421   5.977   5.999  0.3122 -0.0564 -0.0206
   80MOL0     C10917   5.513   5.993   5.883 -0.8836 -0.5364  0.6891
   80MOL0     C10918   5.576   5.862   5.828  0.2747  0.5933  0.1312
   80MOL0     N10919   5.473   5.769   5.772 -0.2838  0.2456  0.6500
   80MOL0     C10920   5.430   5.781   5.641 -0.6177  0.2132 -1.6132
   80MOL0     C10921   5.358   5.672   5.603  0.5598  0.4217  0.1738
   80MOL0     C10922   5.300   5.653   5.461 -1.0339 -0.3272 -0.8825
   80MOL0     C10923   5.342   5.516   5.389  0.6879 -0.3075  0.1357
   80MOL0     C10924   5.225   5.464   5.310  0.4042 -0.6234 -0.3018
   80MOL0     C10925   5.260   5.384   5.192  0.0376 -0.5368  0.7156
   80MOL0     O10926   5.336   5.472   5.107  0.1569  0.5208 -0.4721
   80MOL0     C10927   5.277   5.550   5.013  1.2889 -0.6560  0.0030
   80MOL0     C10928   5.301   5.690   5.001 -1.0453  0.2245  0.1133
   80MOL0     C10929   5.265   5.762   4.894  0.4605 -0.4078  0.4069
   80MOL0     C10930   5.320   5.905   4.873 -0.2294  0.7415 -0.3852
   80MOL0     C10931   5.186   5.692   4.792 -0.5094 -0.1734  0.2921
   80MOL0     C10932   5.147   5.764   4.663  0.2335 -0.1925 -0.4151
   80MOL0     O10933   5.124   5.892   4.673 -0.3245 -0.7912 -0.0781
   80MOL0     C10934   5.064   5.959   4.571 -0.3752 -0.0020 -0.1617
   80MOL0     C10935   5.142   6.033   4.476 -0.3658 -0.4391 -1.1418
   80MOL0     C10936   5.075   6.117   4.389 -0.6443  0.6333  0.8275
   80MOL0     C10937   4.933   6.116   4.376 -0.0287 -0.1278 -0.0181
   80MOL0     O10938   4.879   6.203   4.278 -0.2928 -0.8580 -0.8480
   80MOL0     C10939   4.743   6.199   4.227 -0.0061 -0.7496  0.5901
   80MOL0     C10940   4.712   6.083   4.129 -0.1683 -0.4942 -0.2197
   80MOL0     C10941   4.574   6.021   4.131 -0.5203  0.3386  1.0155
   80MOL0     C10942   4.473   6.103   4.074 -0.1517 -0.5914 -0.4266
   80MOL0     C10943   4.331   6.038   4.082 -0.9043 -0.9140 -0.3725
   80MOL0     C10944   4.223   6.119   3.999 -0.2886  0.6327  0.2254
   80MOL0     C10945   4.208   6.054   3.858 -0.1242  0.2958  0.1647
   80MOL0     C10946   4.116   6.141   3.766 -0.3581  0.2940  0.4100
   80MOL0    Cl10947   4.102   6.070   3.598  0.3545 -0.2139 -0.1064
   80MOL0     C10948   4.861   6.040   4.462  1.1591 -0.3524  0.7534
   80MOL0     C10949   4.925   5.962   4.555  0.9177  0.4503  0.0624
   80MOL0     O10950   5.125   5.691   4.562  0.5768 -0.6300 -0.2148
   80MOL0     C10951   5.156   5.564   4.811  0.3449  0.4777  0.1415
   80MOL0     C10952   5.198   5.492   4.923 -0.3007  0.0859  0.1902
   80MOL0     N10953   5.345   5.589   5.723 -0.3812  0.4297  1.2365
   80MOL0     N10954   5.424   5.645   5.816 -0.0141  0.0379 -0.1191
   80MOL0     C10955   4.975   6.161   6.252 -0.5702  0.3875 -0.5148
   80MOL0     C10956   4.859   6.231   6.235  0.4803 -0.8380 -0.0754
   80MOL0     C10957   4.410   6.328   6.393  0.1874  0.2172  1.1139
   80MOL0     C10958   4.433   6.444   6.464 -0.1313  0.3829 -0.1481
   80MOL0     C10959   4.332   6.537   6.485 -0.5109 -0.6740 -0.2072
   80MOL0     C10960   4.204   6.518   6.421  0.1224  0.5369  0.4519
   80MOL0     O10961   4.101   6.615   6.392  0.6743  0.8506 -0.2627
   80MOL0     C10962   4.119   6.738   6.461 -0.8887 -0.1441  0.1150
   80MOL0     C10963   4.205   6.844   6.392 -0.1874  0.2525 -0.5393
   80MOL0     C10964   4.164   6.878   6.251  1.1190  0.2305  1.9212
   80MOL0     C10965   4.269   6.966   6.185 -1.0479 -0.1622 -0.1544
   80MOL0     C10966   4.258   6.952   6.037 -0.2057  1.1740  0.3385
   80MOL0     C10967   4.225   6.949   5.922 -0.5041 -0.6620  0.1162
   80MOL0     C10968   4.178   6.402   6.353 -0.3793 -0.1724 -0.4247
   80MOL0     C10969   4.273   6.307   6.346 -1.3213 -0.9805 -0.3828
   80MOL0     C10970   4.224   6.167   6.294 -0.2444  0.4415 -0.8493
   80MOL0     H10971   4.721   6.181   6.543 -0.1788  2.4309 -0.8983
   80MOL0     H10972   4.932   6.064   6.576  2.7378 -2.4445 -0.4821
   80MOL0     H10973   5.041   5.840   6.367 -0.7275  1.6132 -0.5368
   80MOL0     H10974   5.085   5.882   6.525 -3.8089  2.2844 -1.1044
   80MOL0     H10975   5.325   5.866   6.467  0.8600  0.8493 -0.4915
   80MOL0     H10976   5.232   5.712   6.427  0.3284  0.5162 -4.3545
   80MOL0     H10977   5.357   5.725   6.236 -1.8529 -0.3185 -3.7423
   80MOL0     H10978   5.235   5.837   6.181  0.5592 -3.4192 -1.6324
   80MOL0     H10979   5.385   6.024   6.274  3.2347  1.5148 -0.7005
   80MOL0     H10980   5.492   5.889   6.327  0.8378  1.1510  0.2629
   80MOL0     H10981   5.538   5.824   6.105 -2.5393 -1.0389  0.5179
   80MOL0     H10982   5.578   5.996   6.143 -0.6294  0.3894 -0.4865
   80MOL0     H10983   5.338   5.909   5.980 -0.4351  0.8642 -0.1174
   80MOL0     H10984   5.370   6.072   6.014 -1.6883 -0.8669 -1.2439
   80MOL0     H10985   5.593   6.062   5.912 -0.3560 -0.7253 -0.2477
   80MOL0     H10986   5.467   6.045   5.798  2.6256  2.1979  0.1941
   80MOL0     H10987   5.645   5.884   5.746 -0.1070  0.1433 -0.3191
   80MOL0     H10988   5.636   5.816   5.906  0.0784  1.9686  1.1279
   80MOL0     H10989   5.468   5.859   5.575  0.9032  0.3802 -0.6043
   80MOL0     H10990   5.333   5.738   5.401 -2.1315  1.0039  0.3294
   80MOL0     H10991   5.193   5.639   5.479 -0.4390 -1.6365  2.4255
   80MOL0     H10992   5.434   5.538   5.334  0.1596  1.1325 -0.1942
   80MOL0     H10993   5.367   5.439   5.463  0.4145 -0.1314  0.4111
   80MOL0     H10994   5.167   5.395   5.372 -5.2104  3.8573  0.3164
   80MOL0     H10995   5.153   5.542   5.282  1.1265  0.9966  2.0681
   80MOL0     H10996   5.322   5.298   5.221 -1.5348 -1.4076  1.6528
   80MOL0     H10997   5.171   5.347   5.141 -0.7905  3.8542 -1.5200
   80MOL0     H10998   5.364   5.731   5.080 -0.2938  1.0519 -0.8844
   80MOL0     H10999   5.370   5.915   4.776  1.1190 -3.0596 -0.2329
   80MOL0     H11000   5.394   5.930   4.950  1.0303 -1.3823 -0.8176
   80MOL0     H11001   5.237   5.974   4.889  0.0588  1.2314 -0.9422
   80MOL0     H11002   5.250   6.039   4.484 -0.3834  0.9345 -1.6337
   80MOL0     H11003   5.124   6.176   4.311  0.9615 -0.4300  0.9697
   80MOL0     H11004   4.663   6.199   4.301  2.2115 -2.2300  3.1957
   80MOL0     H11005   4.736   6.294   4.173  0.3773  1.2232  3.7532
   80MOL0     H11006   4.731   6.132   4.033  2.8305 -1.2039 -0.0787
   80MOL0     H11007   4.776   5.995   4.138 -3.0899 -2.5164  4.0309
   80MOL0     H11008   4.541   5.995   4.233 -3.5760  1.0935  0.3244
   80MOL0     H11009   4.571   5.936   4.063  0.3707 -2.8398  4.5697
   80MOL0     H11010   4.500   6.113   3.969  0.1304 -1.8155 -0.4940
   80MOL0     H11011   4.474   6.205   4.114 -0.6418 -0.3888 -0.9255
   80MOL0     H11012   4.334   5.938   4.038 -1.0625 -1.2531  0.3585
   80MOL0     H11013   4.290   6.016   4.182 -0.0979 -2.2753 -0.3088
   80MOL0     H11014   4.245   6.225   3.990 -2.1135  1.0358  0.1974
   80MOL0     H11015   4.130   6.115   4.057  0.7371  0.3287  1.9110
   80MOL0     H11016   4.158   5.957   3.870 -0.6194  0.0326 -3.1100
   80MOL0     H11017   4.306   6.037   3.813 -0.8321  0.4627 -1.5066
   80MOL0     H11018   4.145   6.245   3.753 -0.5354  0.3972  0.8440
   80MOL0     H11019   4.017   6.135   3.812 -0.9277 -1.1083 -0.8917
   80MOL0     H11020   4.752   6.048   4.460  1.1830  0.1041 -1.0676
   80MOL0     H11021   4.864   5.902   4.622  0.7803  1.1403  0.5669
   80MOL0     H11022   5.103   5.506   4.736  1.3757  0.6247 -0.7289
   80MOL0     H11023   5.180   5.385   4.924  0.6203 -0.0890 -0.4451
   80MOL0     H11024   5.052   6.162   6.175 -0.2611  1.5784 -0.2047
   80MOL0     H11025   4.838   6.287   6.145 -1.4558  0.1115  0.9006
   80MOL0     H11026   4.538   6.457   6.486 -0.0175 -2.3199  1.3227
   80MOL0     H11027   4.369   6.635   6.515  1.2696 -1.0305 -1.1231
   80MOL0     H11028   4.024   6.788   6.481 -0.8071  0.4627 -0.9411
   80MOL0     H11029   4.176   6.711   6.550 -0.6407  0.7358  0.2293
   80MOL0     H11030   4.305   6.803   6.407 -0.5094 -0.7128 -0.9456
   80MOL0     H11031   4.201   6.938   6.448  0.1028 -0.6649  1.0839
   80MOL0     H11032   4.165   6.782   6.198  2.8193 -0.3611  2.9419
   80MOL0     H11033   4.064   6.921   6.253 -1.0576 -4.2507  2.3447
   80MOL0     H11034   4.369   6.931   6.211  0.1439 -0.5216 -4.4296
   80MOL0     H11035   4.259   7.073   6.207 -0.6407  0.0757 -1.0547
   80MOL0     H11036   4.177   6.946   5.825  0.1091 -0.1771 -0.2060
   80MOL0     H11037   4.087   6.392   6.296 -1.2932  0.0129  0.9675
   80MOL0     H11038   4.118   6.142   6.284  0.0740 -1.0110 -0.8850
   80MOL0     H11039   4.269   6.153   6.195  0.8791  1.7671 -0.5591
   80MOL0     H11040   4.253   6.085   6.361 -0.8033  0.0945 -1.0264
   81MOL0     O11041   9.992   2.583   4.761 -0.5737  0.0761  0.9599
   81MOL0     C11042   9.992   2.679   4.688 -0.6565  1.3003  1.4673
   81MOL0     O11043   9.914   2.691   4.576 -0.3451 -0.2445  0.4264
   81MOL0     C11044   9.819   2.597   4.544 -0.0644  0.9134  0.1282
   81MOL0     C11045   9.708   2.647   4.480 -0.4808 -0.2127 -0.2416
   81MOL0     C11046   9.627   2.568   4.406  0.3778  0.2069  0.1394
   81MOL0     C11047   9.638   2.434   4.406  0.1622 -0.0903  0.2114
   81MOL0     O11048   9.561   2.344   4.330  0.2262 -0.7057  0.2087
   81MOL0     C11049   9.423   2.382   4.307 -0.4794 -0.0181  0.6086
   81MOL0     C11050   9.346   2.288   4.215 -0.4804  1.1427 -0.0852
   81MOL0     C11051   9.341   2.144   4.275  0.0373 -0.6575 -0.6208
   81MOL0     C11052   9.203   2.077   4.247  0.3852  0.2923  0.0990
   81MOL0     C11053   9.205   1.940   4.309 -0.1480 -0.0223  0.3555
   81MOL0     C11054   9.101   1.939   4.421 -0.7223  0.3839 -0.1194
   81MOL0     C11055   9.066   1.808   4.491 -0.2944 -0.5988  0.9056
   81MOL0     C11056   8.952   1.816   4.600 -0.4943 -0.1332  0.9529
   81MOL0     N11057   8.817   1.829   4.542 -0.0218  1.2231 -0.7433
   81MOL0     C11058   8.775   1.766   4.426  0.1234  0.1984 -0.4484
   81MOL0     C11059   8.644   1.774   4.438 -0.9514 -0.6837  0.2428
   81MOL0     C11060   8.539   1.713   4.350  0.2068  1.3633 -0.4694
   81MOL0     C11061   8.459   1.827   4.283 -1.0065  0.3996  0.4432
   81MOL0     C11062   8.332   1.770   4.207 -0.4787 -0.1012  0.0137
   81MOL0     C11063   8.363   1.695   4.076 -0.0828  0.1982 -0.3031
   81MOL0     O11064   8.245   1.674   3.999 -0.5808  0.1774  0.2249
   81MOL0     C11065   8.159   1.566   4.014 -0.9673  0.1093 -0.7845
   81MOL0     C11066   8.176   1.457   4.114  1.6457 -0.4873 -0.4590
   81MOL0     C11067   8.087   1.352   4.136  0.5108 -0.6633  0.1717
   81MOL0     C11068   8.119   1.240   4.232  0.8133  1.1712  0.6504
   81MOL0     C11069   7.965   1.357   4.069 -0.5872  0.0519  0.5562
   81MOL0     C11070   7.859   1.255   4.089  1.3087 -0.7187  0.4372
   81MOL0     O11071   7.818   1.180   3.983  0.5299  0.0638  0.5564
   81MOL0     C11072   7.689   1.123   3.979  0.3114 -0.5355  0.4056
   81MOL0     C11073   7.572   1.189   4.019  0.1980  1.5876  0.3341
   81MOL0     C11074   7.448   1.127   3.992 -0.4456 -0.0251 -0.5990
   81MOL0     C11075   7.441   1.004   3.936 -0.0268 -0.8076  0.1903
   81MOL0     O11076   7.323   0.938   3.902 -0.2806  1.2374  0.0174
   81MOL0     C11077   7.196   1.007   3.883  0.4977 -0.2495 -0.2365
   81MOL0     C11078   7.087   0.929   3.802 -0.4535  0.1021 -0.3900
   81MOL0     C11079   6.962   1.008   3.767 -0.1215 -0.1366  0.3025
   81MOL0     C11080   6.894   0.942   3.641  0.1404 -0.8627 -0.7678
   81MOL0     C11081   6.758   1.007   3.622 -0.2803 -0.3205 -0.2616
   81MOL0     C11082   6.690   0.951   3.498  0.1528 -0.5715 -0.1863
   81MOL0     C11083   6.709   0.801   3.459 -0.0574 -0.0327  0.1848
   81MOL0     C11084   6.629   0.712   3.556  0.3856 -0.7817  0.8963
   81MOL0    Cl11085   6.643   0.540   3.497  0.2070 -0.0475  0.3944
   81MOL0     C11086   7.561   0.933   3.915 -0.9338 -0.1475  0.6642
   81MOL0     C11087   7.681   0.998   3.919 -1.1628  0.0883  0.0083
   81MOL0     O11088   7.799   1.259   4.203 -1.1107 -0.5382 -0.9916
   81MOL0     C11089   7.934   1.468   3.987 -0.2202 -0.7057  0.7567
   81MOL0     C11090   8.034   1.573   3.955  0.7556  0.7736 -0.6751
   81MOL0     N11091   8.610   1.832   4.556 -1.0275  0.2987  0.7799
   81MOL0     N11092   8.718   1.866   4.616  0.0207 -0.3077 -0.1121
   81MOL0     C11093   9.742   2.377   4.479 -0.0274 -0.3851  0.7310
   81MOL0     C11094   9.836   2.454   4.542 -0.2628 -0.8265 -0.0510
   81MOL0     C11095  10.077   2.790   4.719  0.4523 -0.5643 -0.3791
   81MOL0     C11096  10.027   2.894   4.796 -0.0823  0.7353 -0.3255
   81MOL0     C11097  10.110   3.000   4.839 -0.5386 -0.2455  0.9271
   81MOL0     C11098  10.243   3.010   4.791  0.8299  0.3527  0.0656
   81MOL0     O11099  10.309   3.125   4.807 -0.5367 -0.3830  0.6319
   81MOL0     C11100  10.449   3.123   4.776 -0.6971  0.2213 -0.6811
   81MOL0     C11101  10.509   3.260   4.807  0.4744 -1.1432 -0.0962
   81MOL0     C11102  10.659   3.264   4.816 -0.5312  0.7630 -0.1275
   81MOL0     C11103  10.710   3.226   4.957  0.2874  0.0925  0.2328
   81MOL0     C11104  10.717   3.080   4.982 -0.6296  0.5739  0.4735
   81MOL0     C11105  10.726   2.960   5.005  0.1922  0.1949  0.7879
   81MOL0     C11106  10.295   2.907   4.705 -0.0508 -0.4550 -0.9653
   81MOL0     C11107  10.215   2.791   4.675  0.2883  0.2906  1.0496
   81MOL0     C11108  10.268   2.682   4.567  0.4711 -0.1266  0.1081
   81MOL0     H11109   9.682   2.751   4.465 -0.4041 -0.2945 -1.0065
   81MOL0     H11110   9.546   2.609   4.346  0.2174 -2.4675 -1.6059
   81MOL0     H11111   9.417   2.478   4.256  0.7237 -0.4232 -0.3439
   81MOL0     H11112   9.367   2.375   4.401 -1.2246 -2.7306  0.0648
   81MOL0     H11113   9.243   2.319   4.198 -0.8886 -0.1507 -0.1344
   81MOL0     H11114   9.379   2.293   4.111 -2.7960  1.2227 -0.8749
   81MOL0     H11115   9.424   2.082   4.240 -0.0698 -2.2049  1.6594
   81MOL0     H11116   9.355   2.153   4.383 -3.7504 -0.7857  0.0192
   81MOL0     H11117   9.140   2.143   4.308 -0.2727  1.3388 -1.6530
   81MOL0     H11118   9.171   2.076   4.143 -0.7894 -1.6577  0.4296
   81MOL0     H11119   9.306   1.928   4.349 -1.6685  0.0353  4.7937
   81MOL0     H11120   9.173   1.870   4.231 -0.5122  2.2996 -1.6977
   81MOL0     H11121   9.130   2.011   4.498 -0.5596  0.5573 -0.3435
   81MOL0     H11122   9.012   1.990   4.384 -1.9914  1.3084  3.7070
   81MOL0     H11123   9.151   1.764   4.545  2.3167 -0.6795 -2.9016
   81MOL0     H11124   9.045   1.741   4.407 -3.2335 -0.6935  1.6101
   81MOL0     H11125   8.955   1.723   4.659  1.5449 -0.8503 -0.1658
   81MOL0     H11126   8.963   1.906   4.661  1.0596  1.0581 -0.9673
   81MOL0     H11127   8.836   1.710   4.355 -0.1647  2.1733 -2.3789
   81MOL0     H11128   8.463   1.655   4.403 -0.6031 -2.9158 -5.4396
   81MOL0     H11129   8.575   1.646   4.271  1.9072  0.3632  1.0896
   81MOL0     H11130   8.425   1.905   4.351 -2.3710  1.4626 -1.3440
   81MOL0     H11131   8.526   1.876   4.211  1.7751 -4.8113 -1.0303
   81MOL0     H11132   8.280   1.697   4.270 -1.0213 -0.1446 -0.4738
   81MOL0     H11133   8.256   1.845   4.185 -1.6679 -2.0709 -3.5604
   81MOL0     H11134   8.433   1.753   4.015  0.6572 -1.6620 -1.3371
   81MOL0     H11135   8.419   1.605   4.104  0.9682  0.9182 -0.0460
   81MOL0     H11136   8.266   1.469   4.172  2.0338  2.0442 -1.4650
   81MOL0     H11137   8.090   1.144   4.188  1.0234  0.5938  1.7448
   81MOL0     H11138   8.069   1.240   4.329 -1.0129  2.5075 -0.2434
   81MOL0     H11139   8.224   1.230   4.263  0.7824  1.3751  0.8231
   81MOL0     H11140   7.580   1.283   4.072  0.8501  1.0890  1.1504
   81MOL0     H11141   7.361   1.181   4.029 -0.0527  1.8140 -2.1730
   81MOL0     H11142   7.142   1.033   3.974  0.1409 -0.7599 -0.2949
   81MOL0     H11143   7.217   1.104   3.837 -0.4746  0.2280  0.2938
   81MOL0     H11144   7.153   0.913   3.716 -0.3700 -0.7978 -0.1639
   81MOL0     H11145   7.067   0.829   3.840  1.6521 -1.4840 -3.0503
   81MOL0     H11146   6.979   1.115   3.750  0.7674 -0.4442 -0.8996
   81MOL0     H11147   6.885   1.005   3.844 -0.1099 -4.1691  0.3601
   81MOL0     H11148   6.886   0.836   3.666  0.1594 -0.0728  3.4283
   81MOL0     H11149   6.949   0.938   3.546  1.1453 -2.7496 -0.1665
   81MOL0     H11150   6.700   0.984   3.712  3.5049  1.1877  2.8210
   81MOL0     H11151   6.764   1.116   3.622  0.9742 -0.3787 -0.6630
   81MOL0     H11152   6.724   1.000   3.407 -2.5948 -0.5291 -1.2756
   81MOL0     H11153   6.584   0.969   3.517 -0.3553 -1.8769 -1.5575
   81MOL0     H11154   6.810   0.760   3.465 -0.7621 -1.7293  0.8527
   81MOL0     H11155   6.680   0.774   3.357  1.4813  1.7896 -0.8053
   81MOL0     H11156   6.527   0.745   3.578  0.8854  0.2597  1.7476
   81MOL0     H11157   6.678   0.714   3.654 -0.4176 -1.0163  1.3078
   81MOL0     H11158   7.564   0.831   3.876  2.5064  0.7817 -2.0487
   81MOL0     H11159   7.779   0.959   3.895 -1.2462  0.1398 -0.4411
   81MOL0     H11160   7.835   1.475   3.943 -0.4373  2.6358  1.5108
   81MOL0     H11161   8.010   1.643   3.876  0.1396 -0.7301 -1.8878
   81MOL0     H11162   9.754   2.269   4.482  1.6850 -0.2121  1.6559
   81MOL0     H11163   9.924   2.413   4.589 -0.3670  0.7166  1.5648
   81MOL0     H11164   9.921   2.891   4.819  0.6012  0.6316  3.3708
   81MOL0     H11165  10.076   3.084   4.900 -2.2943 -1.6239  1.9467
   81MOL0     H11166  10.490   3.038   4.831 -0.4363 -1.1845 -2.8848
   81MOL0     H11167  10.465   3.101   4.670 -4.4621  2.6550 -1.9573
   81MOL0     H11168  10.455   3.308   4.889  2.7950  1.6624 -0.0742
   81MOL0     H11169  10.475   3.309   4.715  0.2921 -0.6170  0.2446
   81MOL0     H11170  10.693   3.206   4.729 -1.2625 -1.5051  1.0188
   81MOL0     H11171  10.700   3.360   4.785 -1.6984  0.4052 -3.1716
   81MOL0     H11172  10.637   3.266   5.028 -1.8388  0.5610 -2.0740
   81MOL0     H11173  10.803   3.273   4.990  1.4433 -1.4689 -0.6610
   81MOL0     H11174  10.733   2.854   5.022  4.7350 -0.1181 -1.5317
   81MOL0     H11175  10.394   2.917   4.662 -0.5393 -1.2479 -2.3248
   81MOL0     H11176  10.250   2.707   4.462 -1.4584 -0.9805  0.1925
   81MOL0     H11177  10.374   2.658   4.572  0.5922  0.3388 -0.0967
   81MOL0     H11178  10.215   2.587   4.575  0.5647 -0.2501 -0.6306
   82MOL0     O11179   3.474   1.058   6.880 -0.1589  0.2365 -0.7209
   82MOL0     C11180   3.467   0.941   6.917  0.6491 -0.0857  0.5911
   82MOL0     O11181   3.504   0.894   7.038  0.5006  0.1808  0.0357
   82MOL0     C11182   3.550   0.971   7.141 -1.3021 -0.8536  0.5961
   82MOL0     C11183   3.650   1.068   7.141  0.5238 -0.3526 -0.2700
   82MOL0     C11184   3.689   1.141   7.258  0.1210  0.2649  0.3277
   82MOL0     C11185   3.629   1.115   7.379  0.6379  0.1009 -0.8720
   82MOL0     O11186   3.646   1.188   7.491  0.2836 -0.0828  0.0274
   82MOL0     C11187   3.719   1.321   7.484 -0.4795  0.4343 -0.4152
   82MOL0     C11188   3.726   1.393   7.624  0.8048  0.2811  0.5925
   82MOL0     C11189   3.794   1.306   7.730  0.0718  0.1582 -0.5779
   82MOL0     C11190   3.840   1.396   7.850  0.2815  0.0844  0.4034
   82MOL0     C11191   3.929   1.324   7.963  0.3218  0.9987  0.1397
   82MOL0     C11192   4.081   1.343   7.946 -0.4368 -0.6383 -0.0647
   82MOL0     C11193   4.160   1.274   8.053 -0.6060 -0.3306 -0.3582
   82MOL0     C11194   4.312   1.283   8.056  0.1042 -0.2276 -0.2248
   82MOL0     N11195   4.380   1.222   7.945  1.2678  0.6869  0.4962
   82MOL0     C11196   4.413   1.094   7.963  0.4719  0.5977 -0.2764
   82MOL0     C11197   4.433   1.044   7.841  0.1006  0.9255 -0.8530
   82MOL0     C11198   4.464   0.899   7.808  0.0333 -0.2718 -0.3503
   82MOL0     C11199   4.600   0.862   7.743 -0.0073  0.3408 -0.0210
   82MOL0     C11200   4.576   0.755   7.636 -0.2739 -0.1862 -0.4060
   82MOL0     C11201   4.693   0.669   7.606  1.0627 -0.2368  0.1449
   82MOL0     O11202   4.727   0.602   7.730  1.2480 -0.0553  0.0202
   82MOL0     C11203   4.815   0.496   7.732  0.3492 -0.6321  0.8863
   82MOL0     C11204   4.818   0.426   7.858 -0.3079  0.7600  0.7963
   82MOL0     C11205   4.881   0.301   7.870  0.1431  0.5692  0.2701
   82MOL0     C11206   4.856   0.221   8.004  0.1944 -0.0035 -0.1577
   82MOL0     C11207   4.960   0.257   7.768  0.4297 -0.9524  0.3548
   82MOL0     C11208   5.015   0.115   7.760 -0.2314 -1.0296  0.8501
   82MOL0     O11209   5.053   0.050   7.869  0.7054  0.4187  0.0314
   82MOL0     C11210   5.157  -0.044   7.862  0.4973 -0.0255 -0.7148
   82MOL0     C11211   5.242  -0.094   7.755 -0.3804 -0.3569  0.5364
   82MOL0     C11212   5.343  -0.189   7.769 -0.0237  0.4112 -0.9675
   82MOL0     C11213   5.371  -0.237   7.900  0.7429  0.0652 -0.1182
   82MOL0     O11214   5.466  -0.338   7.904  0.7573  0.0323 -0.5385
   82MOL0     C11215   5.559  -0.343   8.013 -0.1313 -0.1890 -0.4586
   82MOL0     C11216   5.672  -0.455   8.000 -0.2540 -1.0573 -0.4442
   82MOL0     C11217   5.788  -0.444   7.889  0.7063  0.9120  0.1357
   82MOL0     C11218   5.912  -0.516   7.937  0.7147  1.1394 -0.3612
   82MOL0     C11219   5.881  -0.657   7.978  0.3969  1.4058  0.5252
   82MOL0     C11220   6.001  -0.742   7.974 -0.1169 -0.2543  0.0369
   82MOL0     C11221   6.122  -0.682   8.052  0.3443  0.1413 -0.1767
   82MOL0     C11222   6.222  -0.789   8.094 -0.0704  0.3080 -0.4235
   82MOL0    Cl11223   6.277  -0.896   7.972 -0.1914  0.3256  0.2424
   82MOL0     C11224   5.276  -0.204   8.005  0.1264 -1.3166  1.2358
   82MOL0     C11225   5.172  -0.110   7.992 -0.6427 -1.2228  0.3518
   82MOL0     O11226   4.992   0.062   7.651 -1.1491 -0.3929  0.4296
   82MOL0     C11227   4.950   0.321   7.645 -1.1771 -0.0200  0.0329
   82MOL0     C11228   4.873   0.433   7.621 -0.7640 -0.5692  0.2495
   82MOL0     N11229   4.411   1.152   7.748 -0.7984  0.0639  0.2111
   82MOL0     N11230   4.385   1.260   7.807 -0.7857 -0.1214 -0.2339
   82MOL0     C11231   3.533   1.013   7.378 -0.3497  1.0486  0.1506
   82MOL0     C11232   3.488   0.946   7.262  0.1260  0.0725  0.0944
   82MOL0     C11233   3.440   0.844   6.805  0.1812  0.2244 -0.6512
   82MOL0     C11234   3.461   0.878   6.671 -0.1293 -0.6754  0.3954
   82MOL0     C11235   3.454   0.784   6.570  0.3672 -0.4576  0.4644
   82MOL0     C11236   3.413   0.654   6.601  0.4092  1.0304 -0.3860
   82MOL0     O11237   3.402   0.542   6.518 -0.1518 -0.2614 -0.5128
   82MOL0     C11238   3.372   0.563   6.381  0.1168 -0.1488 -0.3053
   82MOL0     C11239   3.500   0.587   6.298  0.6014 -0.2167  0.0235
   82MOL0     C11240   3.466   0.582   6.142 -1.0022  1.0114 -0.0148
   82MOL0     C11241   3.596   0.520   6.074 -0.2463  0.3303  0.2050
   82MOL0     C11242   3.566   0.485   5.940 -0.3831 -0.7695 -0.0231
   82MOL0     C11243   3.547   0.448   5.830 -0.9824  0.6507  0.6612
   82MOL0     C11244   3.393   0.617   6.734 -0.3674 -0.4026  0.0763
   82MOL0     C11245   3.406   0.712   6.836 -0.1165  0.5408 -0.3638
   82MOL0     C11246   3.359   0.664   6.973 -0.2414  0.0915  0.3987
   82MOL0     H11247   3.694   1.103   7.048 -1.3964  0.1146 -1.0430
   82MOL0     H11248   3.760   1.221   7.242 -0.4886  0.4855 -1.4611
   82MOL0     H11249   3.667   1.389   7.416 -0.4938  1.6938  0.8170
   82MOL0     H11250   3.820   1.305   7.447  0.5787  0.8664  2.1475
   82MOL0     H11251   3.765   1.496   7.621  0.0143  0.5885  0.6148
   82MOL0     H11252   3.624   1.415   7.657  0.8211  2.0399 -0.3928
   82MOL0     H11253   3.717   1.235   7.763  0.1914  1.6337  3.3638
   82MOL0     H11254   3.871   1.244   7.683 -1.2969 -0.9549 -1.4760
   82MOL0     H11255   3.889   1.489   7.819 -0.0492  1.2275  3.0070
   82MOL0     H11256   3.748   1.416   7.906 -0.5880  0.4428 -1.1116
   82MOL0     H11257   3.919   1.215   7.962  0.7609  0.9446  0.8015
   82MOL0     H11258   3.895   1.375   8.054 -1.8647  4.5400 -2.4080
   82MOL0     H11259   4.103   1.305   7.845  0.1948  1.9301 -0.9680
   82MOL0     H11260   4.100   1.450   7.951 -1.6074 -0.4673  1.3264
   82MOL0     H11261   4.138   1.170   8.026  0.4635 -0.3571 -1.1726
   82MOL0     H11262   4.126   1.293   8.155  3.8523  0.5911  1.1428
   82MOL0     H11263   4.337   1.389   8.068  0.6032 -0.5668  2.4287
   82MOL0     H11264   4.347   1.241   8.151 -2.7585 -2.1230  0.1113
   82MOL0     H11265   4.441   1.050   8.058  2.2054  1.2926 -0.4344
   82MOL0     H11266   4.383   0.874   7.739 -2.8189  4.7166  0.7733
   82MOL0     H11267   4.449   0.837   7.897 -0.0970 -0.8331 -0.7510
   82MOL0     H11268   4.635   0.953   7.692 -3.1986  0.4739 -2.3436
   82MOL0     H11269   4.676   0.836   7.816  1.8834  3.1948 -0.7965
   82MOL0     H11270   4.492   0.694   7.671 -1.2552  0.4408 -1.5731
   82MOL0     H11271   4.531   0.801   7.548 -2.1845  2.7361  1.9205
   82MOL0     H11272   4.679   0.592   7.530  0.9470 -1.8872  1.7476
   82MOL0     H11273   4.787   0.719   7.582 -0.2543  1.8115 -0.9718
   82MOL0     H11274   4.753   0.477   7.929 -0.9161  1.2571 -0.0944
   82MOL0     H11275   4.820   0.119   7.990 -2.0650  0.7726 -0.4845
   82MOL0     H11276   4.796   0.282   8.072  0.1986 -3.0800  2.8760
   82MOL0     H11277   4.954   0.220   8.052  1.2307 -2.2056 -2.1481
   82MOL0     H11278   5.244  -0.053   7.654 -2.3890  0.5585  0.8383
   82MOL0     H11279   5.405  -0.230   7.691  0.6748 -1.1335  0.3420
   82MOL0     H11280   5.603  -0.243   8.023  0.4019 -0.2531 -1.9452
   82MOL0     H11281   5.502  -0.377   8.100  0.2890 -1.2905 -0.6003
   82MOL0     H11282   5.721  -0.459   8.097 -0.3671 -2.6605 -0.4249
   82MOL0     H11283   5.618  -0.547   7.976 -1.9674  0.1158 -1.3252
   82MOL0     H11284   5.812  -0.339   7.868 -1.0046  1.4626  0.7113
   82MOL0     H11285   5.760  -0.496   7.796 -1.7768 -1.6486  2.1165
   82MOL0     H11286   5.957  -0.463   8.022 -1.8849 -0.1110  1.9667
   82MOL0     H11287   5.976  -0.510   7.849  0.5920 -1.3085 -0.6724
   82MOL0     H11288   5.857  -0.669   8.084 -1.5166 -1.0473 -0.0968
   82MOL0     H11289   5.796  -0.691   7.919 -0.2357  2.6710  0.6773
   82MOL0     H11290   6.023  -0.751   7.867  0.0682 -0.7033  0.1124
   82MOL0     H11291   5.992  -0.841   8.019  3.6126 -0.3260  0.9718
   82MOL0     H11292   6.092  -0.639   8.148  0.3511 -1.0703  0.3929
   82MOL0     H11293   6.166  -0.602   7.991  0.4190  1.7797  1.9131
   82MOL0     H11294   6.164  -0.842   8.171 -1.2404  2.6972  0.4463
   82MOL0     H11295   6.312  -0.752   8.144  1.4291 -1.4458 -1.6836
   82MOL0     H11296   5.292  -0.240   8.106 -0.5166  0.6873  2.1147
   82MOL0     H11297   5.102  -0.078   8.069  0.6237  4.5359 -0.4466
   82MOL0     H11298   4.999   0.289   7.553 -2.9851 -0.0912 -0.9619
   82MOL0     H11299   4.890   0.482   7.526  1.4373  1.6689  1.6668
   82MOL0     H11300   3.490   0.985   7.473  1.1820 -3.1537 -0.1908
   82MOL0     H11301   3.399   0.885   7.272 -0.8393  1.5561  0.9255
   82MOL0     H11302   3.496   0.975   6.639 -3.0780  0.6212  0.8172
   82MOL0     H11303   3.465   0.820   6.468  0.7377 -1.2665  0.2111
   82MOL0     H11304   3.325   0.468   6.358 -0.3522  0.4759 -2.0439
   82MOL0     H11305   3.295   0.639   6.365 -0.7371 -1.3634 -2.3125
   82MOL0     H11306   3.571   0.508   6.325  0.4954 -0.1432  0.5151
   82MOL0     H11307   3.537   0.685   6.327  2.8917 -0.8546 -0.5146
   82MOL0     H11308   3.379   0.520   6.119  0.5838 -2.5497  2.6361
   82MOL0     H11309   3.436   0.679   6.099 -1.6398 -0.1231 -2.2855
   82MOL0     H11310   3.635   0.433   6.127  0.7188  1.8072  2.0320
   82MOL0     H11311   3.667   0.603   6.078 -0.2277  0.3001  0.5796
   82MOL0     H11312   3.522   0.422   5.729  2.4046  1.7811 -0.5843
   82MOL0     H11313   3.376   0.512   6.757 -0.6689  0.0345  2.0368
   82MOL0     H11314   3.289   0.580   6.964  0.6670 -0.4331 -2.8049
   82MOL0     H11315   3.441   0.632   7.039  3.2872 -0.9728 -3.9899
   82MOL0     H11316   3.307   0.745   7.024  0.2262  0.9834 -0.5212
   83MOL0     O11317   0.120   2.383   2.368 -0.7991 -0.6940 -0.5996
   83MOL0     C11318   0.129   2.499   2.407  0.3143  0.1835 -0.3348
   83MOL0     O11319   0.176   2.535   2.533 -0.8543  0.5578  0.7795
   83MOL0     C11320   0.290   2.481   2.599  1.0485 -0.6125  0.1135
   83MOL0     C11321   0.352   2.360   2.556 -0.1670  0.8823 -0.9995
   83MOL0     C11322   0.454   2.297   2.624 -0.3298 -0.2206 -0.5197
   83MOL0     C11323   0.496   2.351   2.741 -0.5014 -1.2595 -0.8022
   83MOL0     O11324   0.590   2.297   2.826  0.3278  0.0478 -0.2587
   83MOL0     C11325   0.662   2.185   2.783  0.0011 -0.5428  0.2294
   83MOL0     C11326   0.598   2.050   2.825 -0.7506 -0.8053  1.5287
   83MOL0     C11327   0.451   2.030   2.795  0.3278 -0.2663 -0.1693
   83MOL0     C11328   0.404   1.905   2.867  0.1886 -0.0148 -0.0219
   83MOL0     C11329   0.272   1.844   2.802  0.4006  0.2491 -0.2113
   83MOL0     C11330   0.155   1.937   2.810 -0.7595  0.2775  0.2107
   83MOL0     C11331   0.113   1.993   2.948  0.5779  0.1607  0.6292
   83MOL0     C11332  -0.020   2.051   2.935  0.1469  0.4424  0.2009
   83MOL0     N11333  -0.100   2.070   3.052  0.3564  0.2166  0.3841
   83MOL0     C11334  -0.087   2.166   3.144  0.7967  0.2651 -0.1417
   83MOL0     C11335  -0.201   2.168   3.219 -0.2496  1.3056 -0.2326
   83MOL0     C11336  -0.230   2.252   3.343  0.2258 -0.4354  0.1604
   83MOL0     C11337  -0.113   2.245   3.439 -0.8541 -0.3569  0.5998
   83MOL0     C11338  -0.085   2.103   3.475  0.0819  1.0125 -0.5307
   83MOL0     C11339  -0.060   2.094   3.626  0.0852  0.0685  0.3726
   83MOL0     O11340  -0.048   1.948   3.652  0.2996 -0.2329 -0.0082
   83MOL0     C11341  -0.010   1.909   3.779  0.4413  0.1900  0.2532
   83MOL0     C11342   0.023   2.000   3.887  0.7240  0.2543  0.0914
   83MOL0     C11343   0.077   1.930   4.008  0.4041  0.6199  0.2687
   83MOL0     C11344   0.145   2.011   4.114  0.1429 -0.1557 -0.5445
   83MOL0     C11345   0.087   1.788   4.013  0.2127  0.8658  1.2047
   83MOL0     C11346   0.129   1.706   4.127 -0.5625 -0.6570 -0.8790
   83MOL0     O11347   0.064   1.733   4.249  0.1815 -0.2673  0.0699
   83MOL0     C11348   0.124   1.684   4.372  0.3894 -0.1997  0.9154
   83MOL0     C11349   0.260   1.651   4.394  0.6013 -0.1117  0.9239
   83MOL0     C11350   0.310   1.615   4.510  0.6056 -0.4933  0.4461
   83MOL0     C11351   0.222   1.587   4.617 -0.9122  0.9172 -0.4954
   83MOL0     O11352   0.280   1.540   4.736  0.2831  0.1218 -0.8182
   83MOL0     C11353   0.252   1.621   4.853  0.2582  0.2018 -0.8332
   83MOL0     C11354   0.326   1.562   4.966 -0.7922  0.5025  0.0249
   83MOL0     C11355   0.476   1.587   4.940 -0.0190 -0.1998  0.0366
   83MOL0     C11356   0.558   1.628   5.058 -0.1394 -0.3697 -0.6564
   83MOL0     C11357   0.593   1.779   5.067  1.0022  0.7491  0.2189
   83MOL0     C11358   0.728   1.808   4.988 -0.4392  0.0456  0.2164
   83MOL0     C11359   0.741   1.767   4.842 -0.1795  0.9780  0.0070
   83MOL0     C11360   0.877   1.794   4.782  0.0721  0.0080  0.4534
   83MOL0    Cl11361   0.895   1.715   4.617 -0.0688  0.1225 -0.3461
   83MOL0     C11362   0.089   1.610   4.600 -0.5461  0.0869 -0.3474
   83MOL0     C11363   0.041   1.655   4.480  0.0062 -0.1215  0.4442
   83MOL0     O11364   0.218   1.616   4.111 -0.8993  0.3107  0.4426
   83MOL0     C11365   0.056   1.713   3.896  0.1894  0.0994  0.3511
   83MOL0     C11366   0.010   1.771   3.784  0.9271  0.1138  0.5137
   83MOL0     N11367  -0.276   2.060   3.179  0.4175  0.3752 -0.8016
   83MOL0     N11368  -0.206   1.993   3.084  0.2784 -0.7089 -0.1463
   83MOL0     C11369   0.445   2.472   2.790  0.0057 -0.6434 -1.0142
   83MOL0     C11370   0.337   2.531   2.720  0.0960  0.3673 -0.3910
   83MOL0     C11371   0.064   2.610   2.326  0.2369  0.4047 -0.5852
   83MOL0     C11372   0.027   2.728   2.394 -0.0442  0.0224  0.7533
   83MOL0     C11373  -0.033   2.832   2.322 -0.5139 -0.5959 -0.5237
   83MOL0     C11374  -0.040   2.838   2.188 -0.0544 -0.2368 -0.0498
   83MOL0     O11375  -0.094   2.959   2.136  0.0662  0.0771 -0.1451
   83MOL0     C11376  -0.143   2.961   1.998  0.4833 -0.1089 -0.8950
   83MOL0     C11377  -0.184   3.104   1.979  0.8853  0.4547  0.0534
   83MOL0     C11378  -0.293   3.149   2.078  0.3042  0.3361  0.1101
   83MOL0     C11379  -0.424   3.083   2.048  0.9859  0.3273 -0.1179
   83MOL0     C11380  -0.532   3.163   2.107 -0.6864  0.2561 -0.3475
   83MOL0     C11381  -0.627   3.225   2.149 -0.1034 -0.2141  0.2521
   83MOL0     C11382  -0.005   2.718   2.121  0.2586 -0.4257  0.1876
   83MOL0     C11383   0.050   2.606   2.190 -0.5345  0.4979  0.5663
   83MOL0     C11384   0.083   2.486   2.100  0.8243 -0.0491 -0.0903
   83MOL0     H11385   0.319   2.300   2.471  0.1146  0.3186 -0.7173
   83MOL0     H11386   0.493   2.201   2.591 -0.1816 -0.3243 -0.0447
   83MOL0     H11387   0.758   2.189   2.837 -0.4311  1.7042  0.9562
   83MOL0     H11388   0.695   2.203   2.680  0.2594  0.0444  0.4105
   83MOL0     H11389   0.656   1.969   2.780  0.0341  0.9485 -0.8384
   83MOL0     H11390   0.618   2.049   2.933  3.5538 -1.5562  0.9205
   83MOL0     H11391   0.405   2.126   2.820  4.0182  2.9068 -4.0132
   83MOL0     H11392   0.433   2.024   2.688 -1.0416  1.3400 -0.0705
   83MOL0     H11393   0.485   1.833   2.856  1.3294  1.2882 -0.3198
   83MOL0     H11394   0.390   1.928   2.973  1.9513 -0.1271  0.2520
   83MOL0     H11395   0.250   1.754   2.860  1.6913  0.8516  1.2565
   83MOL0     H11396   0.292   1.819   2.697  1.3659  1.5531 -0.3584
   83MOL0     H11397   0.173   2.020   2.741 -1.4325 -2.1872 -3.1954
   83MOL0     H11398   0.068   1.878   2.781  0.0991 -1.6208  1.2911
   83MOL0     H11399   0.189   2.068   2.974  3.2396 -1.8986 -0.7460
   83MOL0     H11400   0.104   1.920   3.029  0.8354  0.6440  1.0999
   83MOL0     H11401  -0.011   2.153   2.896  0.1957 -0.5245 -2.5205
   83MOL0     H11402  -0.084   1.986   2.874 -0.8548  0.6926  0.9460
   83MOL0     H11403  -0.001   2.229   3.166 -1.9172  3.0370  3.9298
   83MOL0     H11404  -0.312   2.205   3.398 -2.7715  3.0891 -0.8868
   83MOL0     H11405  -0.254   2.354   3.312 -2.6831 -1.1303 -0.1138
   83MOL0     H11406  -0.021   2.286   3.397 -1.3362 -0.4285 -0.5555
   83MOL0     H11407  -0.129   2.309   3.526 -2.9602 -1.7202  1.2857
   83MOL0     H11408  -0.170   2.039   3.451  1.9792 -1.1093 -2.0132
   83MOL0     H11409   0.002   2.062   3.422  0.8237 -2.6091  2.9729
   83MOL0     H11410   0.036   2.142   3.644  0.1911  1.5228 -3.2131
   83MOL0     H11411  -0.139   2.148   3.680  0.2924  1.5627 -0.7644
   83MOL0     H11412   0.022   2.109   3.882 -1.2160  0.2116 -1.3719
   83MOL0     H11413   0.163   2.112   4.077  0.0526  0.8850  2.0300
   83MOL0     H11414   0.241   1.965   4.140 -1.4376 -2.7736  1.2252
   83MOL0     H11415   0.090   2.010   4.209  0.2119 -1.3775 -0.4935
   83MOL0     H11416   0.327   1.687   4.317 -0.8336 -2.1382 -1.3892
   83MOL0     H11417   0.416   1.597   4.522  1.2247  1.8049 -0.8293
   83MOL0     H11418   0.288   1.723   4.839 -0.0157  0.5006  0.5221
   83MOL0     H11419   0.144   1.622   4.870  0.0910  1.5222 -1.8078
   83MOL0     H11420   0.307   1.615   5.060  0.5859  2.1590 -0.5796
   83MOL0     H11421   0.312   1.454   4.975  0.2280  0.4920  2.0161
   83MOL0     H11422   0.482   1.672   4.872 -0.3881  0.5570  0.9194
   83MOL0     H11423   0.525   1.499   4.898 -1.2267 -0.3781 -1.0642
   83MOL0     H11424   0.644   1.560   5.059  1.8027  1.9120  2.2767
   83MOL0     H11425   0.502   1.591   5.144 -0.3505  1.0472 -0.1636
   83MOL0     H11426   0.513   1.837   5.021  2.1561  3.9712  1.9838
   83MOL0     H11427   0.583   1.813   5.171 -1.6249  0.2297  0.1904
   83MOL0     H11428   0.808   1.761   5.046 -0.2955  1.1538  0.9483
   83MOL0     H11429   0.746   1.916   4.993  1.7976 -0.1639 -1.5039
   83MOL0     H11430   0.661   1.805   4.778 -1.1985 -2.0277 -0.6481
   83MOL0     H11431   0.725   1.659   4.841 -1.3504  1.1362  0.1615
   83MOL0     H11432   0.943   1.743   4.852 -1.3232 -1.2016  0.9493
   83MOL0     H11433   0.888   1.898   4.752  0.7492 -0.5231 -1.2641
   83MOL0     H11434   0.025   1.600   4.686  0.3810 -0.2382  0.3224
   83MOL0     H11435  -0.063   1.676   4.456  0.5837  3.7611  0.6507
   83MOL0     H11436   0.070   1.605   3.898  1.9303  0.3148  2.1817
   83MOL0     H11437  -0.015   1.724   3.690 -1.0778  1.9456  0.0399
   83MOL0     H11438   0.477   2.516   2.884  0.1809 -0.5798 -1.1031
   83MOL0     H11439   0.294   2.621   2.762  0.9600  0.3782  0.5336
   83MOL0     H11440   0.033   2.737   2.502 -0.5423  1.6161  0.6800
   83MOL0     H11441  -0.067   2.922   2.372  2.0255 -0.2857  0.7512
   83MOL0     H11442  -0.059   2.933   1.933 -1.1432  0.5603 -3.4028
   83MOL0     H11443  -0.223   2.888   1.986  0.2246 -0.4609  2.1676
   83MOL0     H11444  -0.219   3.125   1.877 -0.1314  3.1178  0.8393
   83MOL0     H11445  -0.094   3.164   1.994  1.0911  0.7336 -1.9699
   83MOL0     H11446  -0.269   3.134   2.183 -0.4056 -0.4011  0.1766
   83MOL0     H11447  -0.308   3.255   2.056 -5.8470 -0.1737  0.1680
   83MOL0     H11448  -0.421   2.976   2.072  0.4599  0.3576  0.1013
   83MOL0     H11449  -0.448   3.075   1.942  3.0730  0.5509 -0.6512
   83MOL0     H11450  -0.728   3.255   2.171  0.3487 -0.3396  2.7942
   83MOL0     H11451  -0.009   2.726   2.012  0.1453  1.5504  0.2943
   83MOL0     H11452   0.034   2.516   2.007 -2.7232  0.2009  1.7066
   83MOL0     H11453   0.192   2.473   2.095  1.0772  1.3183  1.2140
   83MOL0     H11454   0.040   2.396   2.144 -0.0898  0.1748 -0.5001
   84MOL0     O11455  11.480   5.000   5.566 -0.3495 -0.0248  0.3894
   84MOL0     C11456  11.525   5.100   5.618  0.2721  0.8260 -0.1477
   84MOL0     O11457  11.547   5.222   5.551 -0.3819  0.3072 -0.1027
   84MOL0     C11458  11.488   5.240   5.427 -0.3601  0.8569 -0.8622
   84MOL0     C11459  11.568   5.229   5.313  0.3777 -0.4607 -0.2853
   84MOL0     C11460  11.519   5.241   5.189 -0.2352  0.7102 -0.3354
   84MOL0     C11461  11.389   5.267   5.169  1.7548 -0.7476  0.3155
   84MOL0     O11462  11.326   5.290   5.050  0.6816  0.3392 -0.6095
   84MOL0     C11463  11.344   5.426   5.016  0.7119  0.4345 -0.0215
   84MOL0     C11464  11.231   5.436   4.914  0.3791 -0.1920 -0.4248
   84MOL0     C11465  11.209   5.586   4.886  0.3992 -0.1801 -0.0902
   84MOL0     C11466  11.089   5.630   4.805  0.0327  0.0749  0.3400
   84MOL0     C11467  11.080   5.778   4.755  0.3418 -0.0068 -0.4282
   84MOL0     C11468  11.192   5.800   4.652 -0.1710 -0.5480 -0.3081
   84MOL0     C11469  11.209   5.942   4.629  0.6210  0.2725 -0.8411
   84MOL0     C11470  11.306   5.970   4.508  0.2431 -0.1913  0.4007
   84MOL0     N11471  11.310   6.110   4.461  0.4723 -0.0047 -0.2248
   84MOL0     C11472  11.207   6.184   4.400 -0.8436  0.2861 -0.0950
   84MOL0     C11473  11.274   6.299   4.369 -0.7318  0.3999  0.2678
   84MOL0     C11474  11.216   6.411   4.301  0.7893  0.2012  0.3939
   84MOL0     C11475  11.087   6.471   4.368 -0.2833 -0.5241 -0.1673
   84MOL0     C11476  11.046   6.597   4.294  0.8404  0.0807  0.0232
   84MOL0     C11477  11.132   6.709   4.344  0.7943  0.4122  1.1283
   84MOL0     O11478  11.082   6.827   4.282 -0.9683  0.3114  0.7168
   84MOL0     C11479  11.132   6.943   4.325 -0.2753 -0.2655 -0.1178
   84MOL0     C11480  11.215   6.957   4.433  0.9175 -0.0566 -0.3025
   84MOL0     C11481  11.243   7.082   4.489  0.4459  0.4633 -0.2592
   84MOL0     C11482  11.317   7.095   4.619  0.2963  0.8815 -0.1214
   84MOL0     C11483  11.194   7.201   4.424  0.5073 -0.0095 -0.2898
   84MOL0     C11484  11.229   7.342   4.463  0.2404  0.5142 -1.1554
   84MOL0     O11485  11.204   7.442   4.379 -0.1074  0.6080 -0.5821
   84MOL0     C11486  11.211   7.576   4.427  0.5259 -0.2100 -0.0766
   84MOL0     C11487  11.263   7.681   4.354 -0.3650 -0.4417  0.7202
   84MOL0     C11488  11.285   7.811   4.403 -0.8083 -0.9300  0.2181
   84MOL0     C11489  11.245   7.835   4.535  0.7421 -0.1125  0.2141
   84MOL0     O11490  11.255   7.956   4.599  0.1090  0.5669 -0.0045
   84MOL0     C11491  11.350   8.056   4.559  0.1382 -0.8655  2.0598
   84MOL0     C11492  11.498   8.022   4.550 -0.1961  0.4786 -1.3372
   84MOL0     C11493  11.572   8.126   4.457  0.2023  0.0729 -0.4731
   84MOL0     C11494  11.720   8.103   4.465 -1.4240  0.0425  1.1238
   84MOL0     C11495  11.792   8.186   4.367 -0.0905 -0.6047  0.4137
   84MOL0     C11496  11.929   8.154   4.329 -0.3637 -0.0444 -0.1261
   84MOL0     C11497  12.001   8.260   4.235  0.0430 -0.6764 -0.2227
   84MOL0     C11498  12.126   8.202   4.170 -1.8128  0.0288 -0.4803
   84MOL0    Cl11499  12.227   8.321   4.080 -0.0470 -0.6629 -0.1276
   84MOL0     C11500  11.190   7.729   4.611 -0.2744 -0.0601 -0.4667
   84MOL0     C11501  11.183   7.603   4.561  0.1835  0.1839 -1.0242
   84MOL0     O11502  11.308   7.356   4.549 -0.2702 -0.0422 -0.9405
   84MOL0     C11503  11.117   7.188   4.304  0.6318 -0.0561 -0.0023
   84MOL0     C11504  11.088   7.057   4.262  0.5438  0.7216  0.0277
   84MOL0     N11505  11.398   6.299   4.424 -0.2825  0.1259 -0.2749
   84MOL0     N11506  11.412   6.191   4.488  0.4166 -0.7761 -0.3317
   84MOL0     C11507  11.302   5.284   5.280 -0.0172  0.3645 -0.3991
   84MOL0     C11508  11.352   5.268   5.408 -0.7799 -0.6477 -0.3077
   84MOL0     C11509  11.564   5.087   5.765 -0.3732 -0.5461  0.1160
   84MOL0     C11510  11.634   5.190   5.830  0.1013  0.0157  0.7422
   84MOL0     C11511  11.652   5.175   5.958 -0.7979  0.4773  0.0806
   84MOL0     C11512  11.623   5.062   6.031 -0.3317 -0.0230 -0.0686
   84MOL0     O11513  11.633   5.050   6.165 -0.6941  1.1120 -0.7062
   84MOL0     C11514  11.683   5.157   6.241  0.7689 -0.0472 -0.2639
   84MOL0     C11515  11.670   5.136   6.391 -0.4535  0.2282 -1.6410
   84MOL0     C11516  11.749   5.019   6.451 -0.5160 -0.1121 -1.0679
   84MOL0     C11517  11.874   5.052   6.534 -0.9058  0.3653  0.4899
   84MOL0     C11518  11.961   5.130   6.451 -0.5478 -0.1274 -0.1508
   84MOL0     C11519  12.036   5.197   6.379  1.0536 -0.5338 -0.3754
   84MOL0     C11520  11.574   4.955   5.968 -0.3570 -0.0586  0.1051
   84MOL0     C11521  11.546   4.961   5.835  1.1386  0.3743 -0.5009
   84MOL0     C11522  11.495   4.828   5.784 -0.4662 -0.1979 -0.6199
   84MOL0     H11523  11.670   5.195   5.327  0.6058  0.1609 -0.4036
   84MOL0     H11524  11.585   5.239   5.102  1.4824 -1.8891  0.9140
   84MOL0     H11525  11.444   5.431   4.973  0.5160  1.9135 -0.3509
   84MOL0     H11526  11.328   5.484   5.108  0.7322 -1.9109  1.5431
   84MOL0     H11527  11.253   5.394   4.815  1.0405 -1.0573  0.0668
   84MOL0     H11528  11.143   5.382   4.951  0.3820 -1.6319 -2.3605
   84MOL0     H11529  11.220   5.646   4.977 -0.8201  1.0640 -0.7322
   84MOL0     H11530  11.299   5.619   4.833  0.3495  1.7035  0.9401
   84MOL0     H11531  11.073   5.566   4.718 -3.7334  1.2284  0.0486
   84MOL0     H11532  10.998   5.611   4.861 -0.4837  2.0397  0.2309
   84MOL0     H11533  11.098   5.846   4.838  2.0273 -0.3422 -0.4868
   84MOL0     H11534  10.981   5.800   4.713  0.2867 -0.9350 -0.8016
   84MOL0     H11535  11.291   5.768   4.687 -0.4758  3.3755  5.4645
   84MOL0     H11536  11.174   5.741   4.561  0.4746  0.6973 -1.2834
   84MOL0     H11537  11.260   5.988   4.714 -1.2335  0.3456  0.2865
   84MOL0     H11538  11.110   5.977   4.599 -0.3999 -0.5657  1.3245
   84MOL0     H11539  11.405   5.938   4.543  0.2821 -0.9625 -0.3869
   84MOL0     H11540  11.277   5.915   4.418  1.6705 -2.0803  1.0209
   84MOL0     H11541  11.101   6.162   4.400 -1.4390  2.7795  1.2032
   84MOL0     H11542  11.195   6.377   4.199  0.4125 -1.5527  1.0222
   84MOL0     H11543  11.286   6.495   4.298 -0.9438  1.7198 -0.9612
   84MOL0     H11544  11.005   6.398   4.367  1.2661 -2.3183 -0.2490
   84MOL0     H11545  11.099   6.491   4.475  1.7317  1.9454 -0.7613
   84MOL0     H11546  11.068   6.596   4.187 -0.4666  2.5789 -0.3335
   84MOL0     H11547  10.942   6.629   4.307  0.8954  0.7273 -0.9751
   84MOL0     H11548  11.125   6.715   4.453  1.4129  1.1964  1.1389
   84MOL0     H11549  11.239   6.701   4.323  0.3816 -3.5583 -0.3910
   84MOL0     H11550  11.250   6.874   4.492  0.6640 -0.6784 -1.0106
   84MOL0     H11551  11.265   7.166   4.683 -0.7181  1.7895 -1.8793
   84MOL0     H11552  11.417   7.136   4.608  1.1635 -0.7505  1.0651
   84MOL0     H11553  11.337   7.000   4.671  1.0567  0.7141 -0.7034
   84MOL0     H11554  11.310   7.676   4.256  1.7052 -0.4738  1.6499
   84MOL0     H11555  11.332   7.889   4.343 -1.7883 -1.9085 -1.9656
   84MOL0     H11556  11.321   8.079   4.456 -0.9209 -1.0766  2.2967
   84MOL0     H11557  11.343   8.149   4.617 -1.1047  0.2235  0.2767
   84MOL0     H11558  11.533   8.021   4.654  0.7097 -2.9900 -1.5405
   84MOL0     H11559  11.521   7.923   4.509 -0.9787 -0.6520  0.7900
   84MOL0     H11560  11.542   8.222   4.499  1.5619 -0.1302  1.0367
   84MOL0     H11561  11.527   8.106   4.359 -0.1183 -2.0022  0.0411
   84MOL0     H11562  11.738   7.998   4.441 -0.8227  0.8889 -2.6991
   84MOL0     H11563  11.754   8.141   4.563  0.3243  0.8754  0.2482
   84MOL0     H11564  11.734   8.183   4.275  0.3676 -0.6570  0.1210
   84MOL0     H11565  11.805   8.292   4.392  0.3293 -0.6911  0.5791
   84MOL0     H11566  11.930   8.064   4.268 -0.6307  1.5205 -2.5684
   84MOL0     H11567  11.981   8.132   4.423  0.5358  1.3571 -0.2630
   84MOL0     H11568  12.031   8.348   4.292  2.3650 -0.3764 -1.7682
   84MOL0     H11569  11.936   8.297   4.155 -1.9222  0.7892  1.9341
   84MOL0     H11570  12.095   8.118   4.107 -1.1539 -0.2800 -0.4012
   84MOL0     H11571  12.179   8.142   4.244  0.9744 -0.4464 -2.7036
   84MOL0     H11572  11.168   7.754   4.715 -2.0748  3.2553 -1.4935
   84MOL0     H11573  11.154   7.521   4.626 -1.0503  2.9466  2.2479
   84MOL0     H11574  11.071   7.271   4.250  1.5646  3.2136  3.7591
   84MOL0     H11575  11.011   7.048   4.187 -3.5796 -0.3742  3.9289
   84MOL0     H11576  11.198   5.312   5.270 -0.1620 -0.2039 -0.5544
   84MOL0     H11577  11.284   5.257   5.493 -0.0235 -2.1014  0.1337
   84MOL0     H11578  11.653   5.287   5.785 -1.9951  1.6390  3.0796
   84MOL0     H11579  11.710   5.249   6.013  0.3059  0.1381 -0.6117
   84MOL0     H11580  11.791   5.167   6.229  0.9260 -2.0242 -0.8114
   84MOL0     H11581  11.628   5.249   6.216  1.0945  0.0764 -0.5288
   84MOL0     H11582  11.563   5.132   6.414  0.1027  2.5995  2.1742
   84MOL0     H11583  11.699   5.229   6.441 -1.0355 -1.2812  1.8148
   84MOL0     H11584  11.684   4.971   6.525  1.2612  0.8794  1.2507
   84MOL0     H11585  11.774   4.941   6.379  0.2537 -0.1749 -0.7407
   84MOL0     H11586  11.925   4.962   6.570 -1.4766  0.8452  2.6547
   84MOL0     H11587  11.847   5.110   6.622 -3.3623 -0.3357  0.2648
   84MOL0     H11588  12.105   5.259   6.325  0.6962 -0.1858 -0.4447
   84MOL0     H11589  11.559   4.861   6.020 -1.9399 -1.3170 -2.4153
   84MOL0     H11590  11.506   4.738   5.845 -0.1070 -0.6901 -1.4010
   84MOL0     H11591  11.391   4.837   5.753 -1.7842  1.3384  3.5851
   84MOL0     H11592  11.565   4.809   5.702  0.4236  0.4006 -0.0270
   85MOL0     O11593   1.206   3.663   9.607 -0.2792 -0.1843 -0.6033
   85MOL0     C11594   1.220   3.659   9.482  0.4966  0.0424  0.7078
   85MOL0     O11595   1.236   3.765   9.402  0.7235 -0.4099 -0.6376
   85MOL0     C11596   1.226   3.901   9.433  0.0487 -0.8503 -0.4956
   85MOL0     C11597   1.272   3.988   9.342  0.5424  0.4711  0.1013
   85MOL0     C11598   1.263   4.121   9.353 -1.2639  0.2100 -0.5611
   85MOL0     C11599   1.202   4.184   9.464 -0.2226 -0.1431 -0.0514
   85MOL0     O11600   1.209   4.318   9.475  0.1451  0.0237  0.2236
   85MOL0     C11601   1.201   4.400   9.357  0.4184  1.0173 -0.8016
   85MOL0     C11602   1.166   4.540   9.396  0.1687 -1.2725  0.0921
   85MOL0     C11603   1.119   4.646   9.285  0.7926 -0.1671  0.1162
   85MOL0     C11604   0.972   4.647   9.245  0.3438  0.3962  0.1239
   85MOL0     C11605   0.950   4.655   9.094  0.2141  0.2019  0.5135
   85MOL0     C11606   1.002   4.540   9.007  0.0098  0.5506  0.0168
   85MOL0     C11607   0.917   4.537   8.880 -0.5391 -0.2065  0.3878
   85MOL0     C11608   0.961   4.417   8.781 -0.1989 -0.5005  0.2943
   85MOL0     N11609   1.085   4.445   8.703 -0.7446  0.5735  0.8787
   85MOL0     C11610   1.212   4.441   8.755  0.3565 -0.3368 -0.9098
   85MOL0     C11611   1.287   4.487   8.655  0.0114 -0.0413 -0.2398
   85MOL0     C11612   1.435   4.512   8.641  0.1522 -0.3084  0.3082
   85MOL0     C11613   1.532   4.406   8.702  0.5374 -0.5468 -0.8828
   85MOL0     C11614   1.511   4.268   8.639 -0.7183 -0.5123  0.0776
   85MOL0     C11615   1.610   4.156   8.670  0.0652  0.4639 -1.3522
   85MOL0     O11616   1.526   4.032   8.665  0.8167 -0.6118  0.9344
   85MOL0     C11617   1.578   3.921   8.726  0.6732  0.6387 -0.5021
   85MOL0     C11618   1.694   3.913   8.805 -0.2536 -0.0804  0.1550
   85MOL0     C11619   1.732   3.799   8.875 -0.4879 -0.4540  0.5819
   85MOL0     C11620   1.856   3.807   8.957 -0.5103 -0.8469  0.4654
   85MOL0     C11621   1.664   3.678   8.856  0.2739  0.0741  0.7686
   85MOL0     C11622   1.696   3.543   8.919 -0.1117  0.3588 -0.8133
   85MOL0     O11623   1.633   3.429   8.874  0.4029  0.0154 -0.9226
   85MOL0     C11624   1.657   3.311   8.946  0.0330 -0.2490  0.4092
   85MOL0     C11625   1.570   3.272   9.046  1.4270  0.0209 -0.4719
   85MOL0     C11626   1.576   3.159   9.113  0.1515 -0.1097 -0.9435
   85MOL0     C11627   1.675   3.063   9.090 -0.2169 -0.2919  0.5787
   85MOL0     O11628   1.674   2.945   9.161 -0.3377 -0.0215 -0.3593
   85MOL0     C11629   1.745   2.829   9.105  1.0246 -0.3025 -0.4966
   85MOL0     C11630   1.713   2.709   9.187 -1.1351  0.3302 -0.5507
   85MOL0     C11631   1.566   2.698   9.228 -1.4798 -0.6854 -0.2610
   85MOL0     C11632   1.521   2.596   9.333 -0.2469 -0.2662 -0.5451
   85MOL0     C11633   1.380   2.605   9.380 -0.0550  0.1576  0.6448
   85MOL0     C11634   1.345   2.489   9.477 -0.2211  0.6551 -0.1902
   85MOL0     C11635   1.193   2.478   9.508  0.5908 -0.4092 -0.7782
   85MOL0     C11636   1.136   2.563   9.622 -0.3018 -0.1100  0.1782
   85MOL0    Cl11637   1.161   2.730   9.587  0.1207 -0.1254 -0.6311
   85MOL0     C11638   1.759   3.103   8.985 -0.2914 -0.3293  0.9677
   85MOL0     C11639   1.757   3.223   8.915 -0.3171  0.0035  1.1551
   85MOL0     O11640   1.778   3.541   9.006  0.5649 -0.0269 -0.3999
   85MOL0     C11641   1.549   3.684   8.771 -0.7895  0.1433  0.0077
   85MOL0     C11642   1.507   3.799   8.711 -0.7474 -0.5634 -0.0518
   85MOL0     N11643   1.207   4.521   8.550 -0.2653  0.1699  0.1219
   85MOL0     N11644   1.087   4.496   8.577 -0.5646 -0.9485 -0.3980
   85MOL0     C11645   1.161   4.101   9.569 -0.4584 -0.0722  0.6249
   85MOL0     C11646   1.174   3.962   9.554 -0.1539 -0.1596  0.4804
   85MOL0     C11647   1.229   3.525   9.425 -0.3463 -0.8721  0.1182
   85MOL0     C11648   1.215   3.407   9.510  0.0159  0.3998 -0.3906
   85MOL0     C11649   1.208   3.276   9.467 -0.1059  0.1747  0.3039
   85MOL0     C11650   1.248   3.251   9.333 -0.3190 -0.5095  0.1740
   85MOL0     O11651   1.262   3.126   9.281 -0.7926  0.3786  0.1052
   85MOL0     C11652   1.139   3.055   9.242 -0.2001  0.0518  0.2319
   85MOL0     C11653   1.167   2.905   9.220 -0.7570  0.8031  0.1201
   85MOL0     C11654   1.042   2.817   9.192  0.3553  0.0489 -0.2524
   85MOL0     C11655   0.987   2.856   9.047  0.1398  0.7594  0.2796
   85MOL0     C11656   1.076   2.822   8.938 -0.1674  0.6998 -0.9973
   85MOL0     C11657   1.160   2.786   8.854 -0.2829  0.1983  0.0262
   85MOL0     C11658   1.269   3.362   9.254 -0.2272 -0.0135 -0.0011
   85MOL0     C11659   1.262   3.499   9.291  0.3909 -0.4578 -0.0002
   85MOL0     C11660   1.307   3.592   9.188 -0.1319 -0.2279 -0.0821
   85MOL0     H11661   1.331   3.946   9.261  1.0898 -2.8961  2.0535
   85MOL0     H11662   1.310   4.162   9.264 -0.7352 -0.7981 -0.7512
   85MOL0     H11663   1.116   4.363   9.298  1.4489 -0.4312 -1.4451
   85MOL0     H11664   1.292   4.391   9.297  0.4539  0.1907 -0.6332
   85MOL0     H11665   1.096   4.538   9.481 -1.9245 -1.1615 -1.5510
   85MOL0     H11666   1.259   4.581   9.435 -0.0100 -0.9469  0.1823
   85MOL0     H11667   1.146   4.748   9.314 -1.3402 -0.1495  2.3516
   85MOL0     H11668   1.174   4.615   9.195  1.9506 -0.6899  0.9645
   85MOL0     H11669   0.926   4.558   9.288  0.2189  1.4439  2.2808
   85MOL0     H11670   0.916   4.730   9.289 -1.2568 -1.5109  1.8563
   85MOL0     H11671   1.008   4.744   9.070 -0.1179  0.6583  1.3650
   85MOL0     H11672   0.845   4.670   9.069 -0.9134 -3.9597  1.8571
   85MOL0     H11673   1.106   4.556   8.977 -0.6654 -0.0083 -2.9898
   85MOL0     H11674   0.997   4.444   9.059  1.4578 -0.5874 -1.8226
   85MOL0     H11675   0.917   4.637   8.836 -1.6656  0.6215  2.1462
   85MOL0     H11676   0.813   4.513   8.906  0.2552 -2.6871  1.5330
   85MOL0     H11677   0.976   4.333   8.849  0.7856  0.9322  1.9579
   85MOL0     H11678   0.878   4.387   8.717 -0.3707 -2.7485  1.4661
   85MOL0     H11679   1.249   4.417   8.854  0.3594 -0.5200 -0.9560
   85MOL0     H11680   1.472   4.608   8.678 -0.0941  0.3246 -1.0331
   85MOL0     H11681   1.458   4.507   8.534  1.5005 -4.0957  0.6451
   85MOL0     H11682   1.639   4.423   8.685  0.8117 -0.3203  0.8826
   85MOL0     H11683   1.507   4.392   8.808 -0.7963  0.9246 -0.9664
   85MOL0     H11684   1.411   4.249   8.679 -2.2795  2.7941 -1.8949
   85MOL0     H11685   1.503   4.285   8.531 -1.0725 -0.2720  0.1402
   85MOL0     H11686   1.685   4.152   8.590 -1.1299 -0.4492 -2.4619
   85MOL0     H11687   1.650   4.165   8.772  0.6727 -2.7450 -1.1845
   85MOL0     H11688   1.761   3.998   8.821  2.7952 -1.8079 -2.2471
   85MOL0     H11689   1.908   3.901   8.936 -4.1579  0.7508 -2.3543
   85MOL0     H11690   1.925   3.726   8.930  0.3574  0.3959 -1.1637
   85MOL0     H11691   1.840   3.805   9.065 -0.6710 -1.6409  0.4382
   85MOL0     H11692   1.480   3.332   9.055  0.2506 -1.8919  1.4271
   85MOL0     H11693   1.516   3.137   9.200  0.9070  2.1327  0.2135
   85MOL0     H11694   1.708   2.808   9.004  0.2405  0.3685 -0.3609
   85MOL0     H11695   1.853   2.845   9.104  1.0841 -0.5656  0.7064
   85MOL0     H11696   1.741   2.626   9.122 -1.2970  1.5238 -2.2056
   85MOL0     H11697   1.780   2.714   9.273 -0.5938  1.5516 -1.0088
   85MOL0     H11698   1.512   2.677   9.136 -1.7149  2.5259 -1.0001
   85MOL0     H11699   1.526   2.794   9.263 -1.2202 -0.7867  0.3318
   85MOL0     H11700   1.585   2.606   9.421 -2.6939  0.1275  1.3216
   85MOL0     H11701   1.550   2.500   9.290  4.8106  1.1463 -0.8514
   85MOL0     H11702   1.364   2.704   9.425 -0.8583  0.4525 -0.2586
   85MOL0     H11703   1.318   2.613   9.290  2.9630  2.2479 -1.4480
   85MOL0     H11704   1.402   2.500   9.570  0.6608  3.3950 -0.9642
   85MOL0     H11705   1.384   2.393   9.443 -0.2670 -0.6190  2.9577
   85MOL0     H11706   1.178   2.373   9.533 -0.5147 -0.3724 -1.2107
   85MOL0     H11707   1.134   2.500   9.418 -3.1119  2.0093  1.9931
   85MOL0     H11708   1.183   2.535   9.717 -2.4345  2.7993  2.2535
   85MOL0     H11709   1.034   2.530   9.640  0.0562 -1.0183  0.6102
   85MOL0     H11710   1.837   3.037   8.949 -0.9602  0.0010 -1.2832
   85MOL0     H11711   1.841   3.241   8.848 -0.6746  4.1488  1.5686
   85MOL0     H11712   1.477   3.604   8.753  1.1648 -1.4101 -1.2240
   85MOL0     H11713   1.413   3.802   8.657  0.3254 -3.1668 -2.3026
   85MOL0     H11714   1.116   4.141   9.659  0.3524 -1.0231  1.4659
   85MOL0     H11715   1.146   3.904   9.641 -1.9876  2.7351  1.9858
   85MOL0     H11716   1.186   3.413   9.615  1.5761  0.9463  0.0403
   85MOL0     H11717   1.174   3.190   9.523 -3.5944  0.8680 -0.5054
   85MOL0     H11718   1.084   3.073   9.335  2.8349 -1.3127  2.4363
   85MOL0     H11719   1.091   3.106   9.158 -0.3278  1.9482  1.4043
   85MOL0     H11720   1.204   2.864   9.315 -0.3853  1.5926  0.3238
   85MOL0     H11721   1.244   2.883   9.146  0.8027 -1.7686  2.2848
   85MOL0     H11722   1.063   2.709   9.193  0.7446  0.1057 -1.3679
   85MOL0     H11723   0.967   2.835   9.270 -0.6887  0.8190 -1.3907
   85MOL0     H11724   0.974   2.964   9.036  3.6337  1.2720  0.2198
   85MOL0     H11725   0.894   2.801   9.030  0.6109  0.3395 -1.0355
   85MOL0     H11726   1.249   2.757   8.801 -0.2624  0.4812 -0.0969
   85MOL0     H11727   1.291   3.330   9.153 -2.1940 -1.9654  0.1184
   85MOL0     H11728   1.395   3.643   9.230  1.6098 -0.5892 -3.0040
   85MOL0     H11729   1.347   3.538   9.101  0.3193 -2.7450  1.5981
   85MOL0     H11730   1.241   3.674   9.160  1.2523  1.3311  0.9668
   86MOL0     O11731   1.966   8.986   2.623 -0.1620 -0.1483 -0.1930
   86MOL0     C11732   1.926   8.920   2.728  0.0104  0.2618  0.2563
   86MOL0     O11733   1.985   8.797   2.771 -0.1287 -0.8475  0.5979
   86MOL0     C11734   2.101   8.762   2.701  0.1515 -0.3646 -1.0334
   86MOL0     C11735   2.221   8.771   2.784  0.4434 -0.9804  0.2302
   86MOL0     C11736   2.344   8.752   2.716  0.8387 -0.1895  0.4136
   86MOL0     C11737   2.345   8.724   2.577  0.8502 -0.6847  0.8852
   86MOL0     O11738   2.473   8.690   2.529  0.5786 -0.0714 -0.4455
   86MOL0     C11739   2.508   8.722   2.396  0.4300 -0.7684 -0.2767
   86MOL0     C11740   2.639   8.804   2.400 -0.6914 -0.3037  0.0970
   86MOL0     C11741   2.748   8.733   2.479 -0.1170 -0.5972  0.5457
   86MOL0     C11742   2.877   8.820   2.464 -0.3898 -0.6276  0.1837
   86MOL0     C11743   2.987   8.746   2.537 -0.9890  0.3381  0.1379
   86MOL0     C11744   2.982   8.768   2.689 -0.4854 -0.9049  0.0763
   86MOL0     C11745   3.093   8.694   2.770 -0.6685  0.1923 -0.8836
   86MOL0     C11746   3.092   8.539   2.791 -0.1257 -0.0365  0.2050
   86MOL0     N11747   3.135   8.454   2.679  1.0727  0.0204  0.1095
   86MOL0     C11748   3.258   8.404   2.663  0.2835  1.0828  0.2295
   86MOL0     C11749   3.258   8.305   2.555 -0.8639  1.0638 -0.1145
   86MOL0     C11750   3.381   8.230   2.520 -0.3214  0.3114  0.1569
   86MOL0     C11751   3.344   8.097   2.452 -0.1283 -0.3835  0.3437
   86MOL0     C11752   3.464   8.025   2.391  0.4556  0.5014  0.0157
   86MOL0     C11753   3.497   8.074   2.249  0.2820  0.7433 -0.4034
   86MOL0     O11754   3.525   8.209   2.247 -0.3235  0.2296  0.6071
   86MOL0     C11755   3.634   8.254   2.168  0.4998 -0.6454  0.0415
   86MOL0     C11756   3.705   8.369   2.202 -0.0022 -0.0987 -0.4838
   86MOL0     C11757   3.814   8.417   2.135  0.8158  0.1067  0.8436
   86MOL0     C11758   3.870   8.548   2.183 -0.8967 -1.1347 -0.5688
   86MOL0     C11759   3.869   8.348   2.026 -0.8367 -0.9283  0.1235
   86MOL0     C11760   3.999   8.371   1.960  0.8346  0.6126  0.4693
   86MOL0     O11761   4.071   8.260   1.912  0.0308 -0.7785  0.3744
   86MOL0     C11762   4.188   8.277   1.841 -0.7383 -0.4163  0.0050
   86MOL0     C11763   4.180   8.253   1.700  0.2534 -0.8797 -0.0615
   86MOL0     C11764   4.292   8.278   1.617 -0.5843  0.1818 -0.4020
   86MOL0     C11765   4.406   8.329   1.671  0.2693 -0.9870  0.4881
   86MOL0     O11766   4.502   8.380   1.586  0.3499  0.5471  1.0417
   86MOL0     C11767   4.516   8.523   1.597 -0.7454  0.6372 -1.0587
   86MOL0     C11768   4.617   8.566   1.501  0.4263 -0.3943  1.0367
   86MOL0     C11769   4.611   8.726   1.474  0.1698  0.6010 -0.3769
   86MOL0     C11770   4.653   8.802   1.602  0.3030  0.7446  0.9733
   86MOL0     C11771   4.625   8.947   1.603  1.0126 -0.8619  0.4973
   86MOL0     C11772   4.655   9.016   1.467  0.7802  0.3590 -0.5599
   86MOL0     C11773   4.638   9.165   1.466 -0.7529  0.6610 -0.4287
   86MOL0     C11774   4.503   9.214   1.515  0.6109 -1.0259  0.2239
   86MOL0    Cl11775   4.482   9.387   1.500  0.3342 -0.5494  0.0054
   86MOL0     C11776   4.419   8.351   1.805 -0.5046  0.7322 -0.3837
   86MOL0     C11777   4.311   8.324   1.893 -1.1637  0.5379 -0.1851
   86MOL0     O11778   4.039   8.483   1.955  0.5112 -0.1646 -0.1303
   86MOL0     C11779   3.800   8.229   1.994 -0.8233 -0.1656  0.3587
   86MOL0     C11780   3.690   8.182   2.061 -0.2249 -0.1266  0.4511
   86MOL0     N11781   3.125   8.313   2.505 -0.5122 -0.6738 -0.1947
   86MOL0     N11782   3.058   8.393   2.585  0.3298 -0.3732  1.0953
   86MOL0     C11783   2.226   8.702   2.502  0.6304 -0.7936 -0.2727
   86MOL0     C11784   2.099   8.720   2.566 -0.4557 -0.8816 -0.4988
   86MOL0     C11785   1.801   8.962   2.808 -0.9687  0.5295  0.3954
   86MOL0     C11786   1.755   8.869   2.908 -0.4995 -0.1655  0.0718
   86MOL0     C11787   1.654   8.908   2.998  1.1419  0.5045  1.2858
   86MOL0     C11788   1.593   9.034   2.979  0.0066 -0.1133 -0.6209
   86MOL0     O11789   1.512   9.098   3.081  0.1150 -0.1555  0.4328
   86MOL0     C11790   1.375   9.049   3.081 -0.1865  0.0011 -0.5029
   86MOL0     C11791   1.285   9.122   2.976 -0.9944  0.4186 -0.2656
   86MOL0     C11792   1.261   9.264   3.023  0.9245 -0.3937 -0.5476
   86MOL0     C11793   1.311   9.359   2.916  0.7255 -0.3006  0.1728
   86MOL0     C11794   1.269   9.499   2.946  0.1868  0.0196  0.3899
   86MOL0     C11795   1.221   9.610   2.966 -0.2901 -0.0792  0.7944
   86MOL0     C11796   1.635   9.117   2.877  0.2155 -0.7003 -0.6359
   86MOL0     C11797   1.737   9.088   2.789  0.5644  1.1416 -0.8858
   86MOL0     C11798   1.773   9.198   2.692  0.5551 -0.4890  0.3296
   86MOL0     H11799   2.212   8.810   2.885  0.1548  0.1118 -0.1990
   86MOL0     H11800   2.434   8.774   2.773 -0.6153  1.4233  2.1960
   86MOL0     H11801   2.439   8.795   2.351 -1.1219 -1.3493  1.0548
   86MOL0     H11802   2.508   8.635   2.330  0.0532 -0.7221 -0.3455
   86MOL0     H11803   2.663   8.821   2.295 -1.7326  2.1479  0.1818
   86MOL0     H11804   2.631   8.904   2.444 -2.1885 -0.0301 -0.7198
   86MOL0     H11805   2.722   8.723   2.585  1.4850 -2.0535  0.8589
   86MOL0     H11806   2.771   8.631   2.449  1.8414 -0.9272  2.7915
   86MOL0     H11807   2.904   8.826   2.358 -0.8292 -1.8611 -0.0090
   86MOL0     H11808   2.865   8.925   2.495  3.0175 -0.8156  2.7005
   86MOL0     H11809   3.082   8.773   2.490 -1.2419 -0.2718 -0.7301
   86MOL0     H11810   2.980   8.640   2.513 -2.2107 -0.5514  3.7646
   86MOL0     H11811   2.987   8.875   2.710  1.3382 -1.1081  0.8771
   86MOL0     H11812   2.880   8.751   2.725 -1.1721  1.1338 -0.7839
   86MOL0     H11813   3.106   8.743   2.867  4.1103  1.6100 -1.9445
   86MOL0     H11814   3.187   8.727   2.724  0.4373 -0.5490  0.7705
   86MOL0     H11815   3.159   8.511   2.873  0.3559 -1.6938 -0.7085
   86MOL0     H11816   2.991   8.509   2.821 -1.1221  2.5405 -0.2633
   86MOL0     H11817   3.336   8.435   2.731  0.3563 -2.3454  1.9000
   86MOL0     H11818   3.451   8.205   2.600 -0.4362  3.2193  1.2924
   86MOL0     H11819   3.440   8.304   2.466 -0.9210  2.3864  2.1906
   86MOL0     H11820   3.300   8.035   2.531 -1.8196  3.1089  2.3579
   86MOL0     H11821   3.254   8.116   2.392  0.6713  0.6836 -0.5655
   86MOL0     H11822   3.552   8.020   2.455 -1.1243 -2.6825  2.2024
   86MOL0     H11823   3.426   7.922   2.390 -3.4283  1.7887  0.0850
   86MOL0     H11824   3.583   8.009   2.226 -0.2107 -1.4202  3.1294
   86MOL0     H11825   3.415   8.056   2.179  0.7553  0.8781 -1.0019
   86MOL0     H11826   3.666   8.420   2.290 -0.7773  1.0122 -1.4362
   86MOL0     H11827   3.853   8.617   2.099  0.4808  1.2522  0.9700
   86MOL0     H11828   3.976   8.544   2.209 -1.3534  2.0532  2.5229
   86MOL0     H11829   3.833   8.580   2.281  1.9644 -0.8489  0.5121
   86MOL0     H11830   4.082   8.224   1.663  0.4145  0.4428 -1.6296
   86MOL0     H11831   4.279   8.275   1.510  2.9110  4.5545 -1.2421
   86MOL0     H11832   4.428   8.584   1.577 -1.4011  0.8799  2.0802
   86MOL0     H11833   4.538   8.549   1.701 -1.0513  0.8772 -1.0521
   86MOL0     H11834   4.715   8.544   1.544  0.2706  0.0180  1.6143
   86MOL0     H11835   4.611   8.515   1.404 -0.3442 -1.4393  1.6181
   86MOL0     H11836   4.512   8.759   1.444 -0.8630  1.4012  3.3134
   86MOL0     H11837   4.677   8.742   1.389 -0.3133  0.6212 -0.7469
   86MOL0     H11838   4.757   8.782   1.627 -0.3761 -1.6542  2.1518
   86MOL0     H11839   4.591   8.770   1.686 -0.6065  1.9772  0.7898
   86MOL0     H11840   4.518   8.954   1.624  0.9571 -1.2101  0.3348
   86MOL0     H11841   4.671   8.991   1.692 -0.9990 -0.8899  1.6274
   86MOL0     H11842   4.592   8.975   1.387 -0.4695 -0.5877  0.8482
   86MOL0     H11843   4.758   8.988   1.442  0.0896 -0.3261 -2.9059
   86MOL0     H11844   4.644   9.187   1.359 -3.0004 -0.9707 -0.9579
   86MOL0     H11845   4.724   9.203   1.522  1.9330 -2.0875 -2.3503
   86MOL0     H11846   4.467   9.186   1.614  0.1447 -1.7686 -0.1421
   86MOL0     H11847   4.433   9.161   1.449 -0.4570 -0.0100  0.5069
   86MOL0     H11848   4.514   8.380   1.848 -1.4271 -0.1493  2.4849
   86MOL0     H11849   4.323   8.331   2.000 -1.4754  0.5806 -0.1508
   86MOL0     H11850   3.826   8.157   1.917 -1.2566 -3.1667  2.8341
   86MOL0     H11851   3.649   8.089   2.023 -0.3528  0.0438  0.1688
   86MOL0     H11852   2.227   8.667   2.399  1.7695  2.3676 -1.4845
   86MOL0     H11853   2.002   8.723   2.518 -0.1012 -0.0467 -1.1900
   86MOL0     H11854   1.799   8.773   2.932  2.4243  0.8524 -0.7574
   86MOL0     H11855   1.618   8.839   3.073  0.4735  0.4639  0.9367
   86MOL0     H11856   1.361   8.942   3.064  1.1140 -0.1250 -0.8972
   86MOL0     H11857   1.336   9.070   3.181  0.3721 -1.3685  0.0264
   86MOL0     H11858   1.185   9.079   2.969 -0.0572 -2.7097  2.6275
   86MOL0     H11859   1.336   9.115   2.879  1.1056 -1.9175  0.8906
   86MOL0     H11860   1.156   9.289   3.041  1.6250  2.1626  0.4560
   86MOL0     H11861   1.319   9.285   3.113  1.9018  0.5258 -1.3622
   86MOL0     H11862   1.277   9.332   2.816  2.2708 -2.6902  0.2141
   86MOL0     H11863   1.420   9.358   2.928  0.9477  2.9027 -0.5119
   86MOL0     H11864   1.181   9.707   2.988  2.3832  1.2182  0.2912
   86MOL0     H11865   1.590   9.215   2.862  2.9542  0.3591 -2.7827
   86MOL0     H11866   1.783   9.158   2.591  0.7660 -0.7734  0.4631
   86MOL0     H11867   1.695   9.273   2.677  0.8148 -0.5099 -1.2638
   86MOL0     H11868   1.868   9.246   2.719 -0.4539  1.0655  1.3139
   87MOL0     O11869   6.016   0.325   7.199 -1.0864 -1.0946 -0.3000
   87MOL0     C11870   6.039   0.251   7.294 -1.0602 -0.3882 -0.3855
   87MOL0     O11871   6.155   0.233   7.365  0.5412 -0.3732  0.5825
   87MOL0     C11872   6.274   0.276   7.304  0.0051 -1.0130  0.1100
   87MOL0     C11873   6.390   0.296   7.379 -0.4797  0.0543  0.2639
   87MOL0     C11874   6.514   0.334   7.337 -0.1268 -0.4256  0.8937
   87MOL0     C11875   6.529   0.365   7.201  0.1328  0.0400 -0.2169
   87MOL0     O11876   6.648   0.416   7.168  0.0154 -0.4001  0.1670
   87MOL0     C11877   6.690   0.426   7.038 -1.8362  0.3925 -0.2166
   87MOL0     C11878   6.717   0.282   6.977 -0.4983 -0.6739  0.0103
   87MOL0     C11879   6.779   0.178   7.077 -0.7618 -0.3832 -0.5849
   87MOL0     C11880   6.762   0.040   7.010 -0.2497  0.2866 -0.3474
   87MOL0     C11881   6.808  -0.084   7.082  0.6153 -0.1099 -0.3737
   87MOL0     C11882   6.742  -0.107   7.230 -0.0095 -0.3342  0.6190
   87MOL0     C11883   6.587  -0.111   7.226 -0.3376 -0.2234 -0.3546
   87MOL0     C11884   6.537  -0.079   7.360  0.2395 -0.2427  0.7533
   87MOL0     N11885   6.586  -0.181   7.453  0.7093 -0.5773  0.5323
   87MOL0     C11886   6.508  -0.287   7.492 -0.2547 -0.2845  0.4007
   87MOL0     C11887   6.588  -0.364   7.569 -0.1304  0.3012  0.5165
   87MOL0     C11888   6.555  -0.504   7.603 -0.0453 -0.3582  0.2272
   87MOL0     C11889   6.551  -0.522   7.760  0.6850  0.9970 -0.0431
   87MOL0     C11890   6.555  -0.677   7.783  0.2320 -0.5007 -0.0776
   87MOL0     C11891   6.455  -0.774   7.699 -0.5144 -0.1221  0.8355
   87MOL0     O11892   6.507  -0.903   7.716 -0.1660 -0.4122 -0.4819
   87MOL0     C11893   6.500  -0.994   7.610 -0.1670  0.4925 -1.4292
   87MOL0     C11894   6.617  -1.061   7.584  0.2446 -0.1473  0.1269
   87MOL0     C11895   6.644  -1.118   7.465 -0.1381 -0.1451 -1.0082
   87MOL0     C11896   6.763  -1.208   7.468  0.7020 -0.1251  0.8302
   87MOL0     C11897   6.562  -1.101   7.352 -0.4631  1.6152  0.3095
   87MOL0     C11898   6.590  -1.162   7.215  0.1740  0.6798 -0.3378
   87MOL0     O11899   6.526  -1.091   7.118 -0.0030 -0.2448  0.1877
   87MOL0     C11900   6.530  -1.155   6.996  0.4896 -0.6533  0.4098
   87MOL0     C11901   6.607  -1.107   6.890 -0.7495 -0.0790 -0.0276
   87MOL0     C11902   6.608  -1.168   6.767 -0.9157 -0.6281  0.9533
   87MOL0     C11903   6.525  -1.288   6.754 -0.7103  0.7160 -0.9926
   87MOL0     O11904   6.514  -1.368   6.639  0.5124  0.5094  0.9340
   87MOL0     C11905   6.606  -1.334   6.528  0.0884 -0.3606 -0.0902
   87MOL0     C11906   6.542  -1.255   6.427 -0.0609 -0.7812  0.6679
   87MOL0     C11907   6.503  -1.321   6.294 -1.0622 -0.2923  0.4568
   87MOL0     C11908   6.350  -1.321   6.280 -0.4447  1.0254  0.1768
   87MOL0     C11909   6.315  -1.377   6.140  0.2730  0.3669 -0.5617
   87MOL0     C11910   6.162  -1.352   6.110 -0.0059  0.2340  0.3384
   87MOL0     C11911   6.129  -1.398   5.964  0.2491 -0.1015 -0.1686
   87MOL0     C11912   5.980  -1.410   5.949  0.0584 -0.6143 -1.4899
   87MOL0    Cl11913   5.919  -1.554   6.047  0.2730 -0.5632 -0.1188
   87MOL0     C11914   6.452  -1.342   6.860  0.5212 -1.3461 -0.6194
   87MOL0     C11915   6.444  -1.266   6.976  0.0959 -0.2780 -0.4433
   87MOL0     O11916   6.656  -1.269   7.204 -0.8981  0.7659  0.5005
   87MOL0     C11917   6.454  -1.027   7.372 -0.3627 -0.3403 -0.2340
   87MOL0     C11918   6.412  -0.985   7.498  0.1796 -0.4468 -0.4610
   87MOL0     N11919   6.706  -0.288   7.602 -0.0400  0.1819  0.0753
   87MOL0     N11920   6.700  -0.179   7.529  0.4558 -0.8490 -0.1076
   87MOL0     C11921   6.422   0.354   7.118 -0.1520  0.5933  0.4999
   87MOL0     C11922   6.291   0.313   7.168 -0.8328  0.3290  0.2254
   87MOL0     C11923   5.939   0.151   7.337 -0.2182  0.1613 -0.0382
   87MOL0     C11924   5.876   0.076   7.238 -0.1751  0.5492  0.8731
   87MOL0     C11925   5.787  -0.031   7.272  0.4983  0.5652  0.1613
   87MOL0     C11926   5.760  -0.047   7.402 -0.2416 -0.5668  0.5308
   87MOL0     O11927   5.660  -0.131   7.426  0.4287  0.1645 -0.5112
   87MOL0     C11928   5.647  -0.194   7.548 -1.4331 -0.1122 -1.2367
   87MOL0     C11929   5.581  -0.329   7.539  0.3811  0.3617  0.0769
   87MOL0     C11930   5.669  -0.437   7.480 -0.4323 -0.3411 -0.6199
   87MOL0     C11931   5.613  -0.572   7.526  0.8286  1.0129  0.5752
   87MOL0     C11932   5.710  -0.686   7.519 -0.0996 -1.0756 -0.6198
   87MOL0     C11933   5.794  -0.767   7.526 -0.2506  0.3500  0.5491
   87MOL0     C11934   5.815   0.030   7.500 -0.1394  0.3445  0.1069
   87MOL0     C11935   5.902   0.135   7.470  0.7710 -0.4140  0.5850
   87MOL0     C11936   5.951   0.232   7.573  0.3649  0.9218 -0.5078
   87MOL0     H11937   6.373   0.264   7.481 -0.8830 -0.0645  0.1602
   87MOL0     H11938   6.599   0.340   7.403 -0.9502  3.0900  1.8304
   87MOL0     H11939   6.792   0.459   7.019 -1.3910 -0.2425  0.9898
   87MOL0     H11940   6.629   0.489   6.972 -1.0350  0.4494 -0.9173
   87MOL0     H11941   6.621   0.255   6.934 -0.4245  1.0519 -1.3649
   87MOL0     H11942   6.785   0.290   6.892  1.0997 -1.7903  1.1058
   87MOL0     H11943   6.885   0.192   7.099 -0.7359  1.3350 -1.6060
   87MOL0     H11944   6.730   0.181   7.175  1.5613  2.5584  0.6219
   87MOL0     H11945   6.660   0.019   6.977 -0.1248 -0.8574 -0.0227
   87MOL0     H11946   6.824   0.035   6.921 -0.6599 -3.7117 -0.5789
   87MOL0     H11947   6.917  -0.081   7.086  0.6264 -1.1120  2.5667
   87MOL0     H11948   6.789  -0.177   7.027  0.1680 -0.4112  0.2646
   87MOL0     H11949   6.775  -0.203   7.270 -4.2414 -2.0137  0.5342
   87MOL0     H11950   6.785  -0.028   7.292  2.6071 -3.3682  3.0335
   87MOL0     H11951   6.552  -0.210   7.197 -1.4487  0.1348 -0.2818
   87MOL0     H11952   6.551  -0.034   7.158  0.3821  2.7014  2.3059
   87MOL0     H11953   6.572   0.024   7.369  2.2548 -0.2463 -4.0222
   87MOL0     H11954   6.428  -0.080   7.360  0.1787 -2.5891 -1.0749
   87MOL0     H11955   6.401  -0.295   7.475 -0.3893  1.8710 -0.0378
   87MOL0     H11956   6.606  -0.584   7.549  0.3048  0.8276 -1.2355
   87MOL0     H11957   6.450  -0.520   7.578  0.1164 -0.8255 -0.1602
   87MOL0     H11958   6.617  -0.461   7.823 -1.2204  3.8110 -0.6008
   87MOL0     H11959   6.447  -0.496   7.778  0.0234 -0.1807 -1.8149
   87MOL0     H11960   6.661  -0.701   7.770  0.8572  0.6758  2.3133
   87MOL0     H11961   6.520  -0.697   7.885 -0.0106  2.7661  0.5984
   87MOL0     H11962   6.349  -0.771   7.722 -0.8782 -2.3244 -0.2734
   87MOL0     H11963   6.457  -0.758   7.590 -0.9079 -2.9014  0.3657
   87MOL0     H11964   6.701  -1.063   7.653  0.9648  1.1504 -0.6751
   87MOL0     H11965   6.826  -1.203   7.557  2.9550 -2.1283 -0.5395
   87MOL0     H11966   6.826  -1.175   7.385  4.1070 -2.3491  2.3095
   87MOL0     H11967   6.756  -1.316   7.454 -0.2327  0.0172  0.0889
   87MOL0     H11968   6.652  -1.009   6.903 -0.1578 -0.3754  0.1656
   87MOL0     H11969   6.660  -1.117   6.686  1.7437 -0.1545  2.8467
   87MOL0     H11970   6.695  -1.287   6.571 -1.0384  1.5363  0.2876
   87MOL0     H11971   6.634  -1.432   6.490  0.5320 -0.0753 -0.5122
   87MOL0     H11972   6.454  -1.197   6.459 -0.3741 -0.1961 -1.1094
   87MOL0     H11973   6.616  -1.180   6.396 -0.5555 -0.7677 -0.5657
   87MOL0     H11974   6.549  -1.420   6.296 -0.6604 -0.1490 -0.8246
   87MOL0     H11975   6.548  -1.257   6.218  0.0235  0.3155  1.5625
   87MOL0     H11976   6.323  -1.215   6.278 -0.4368  1.1601  3.3474
   87MOL0     H11977   6.301  -1.368   6.365  1.4017 -0.3892  0.5121
   87MOL0     H11978   6.378  -1.326   6.067  4.4975 -4.5496 -0.9317
   87MOL0     H11979   6.331  -1.485   6.131 -1.6061  0.0382 -0.4165
   87MOL0     H11980   6.144  -1.245   6.121  3.0841  0.8788 -0.1118
   87MOL0     H11981   6.114  -1.414   6.186  2.2817 -3.3953 -0.9111
   87MOL0     H11982   6.165  -1.501   5.956  1.2673  0.2535 -0.2440
   87MOL0     H11983   6.170  -1.340   5.881 -0.7631  1.4590  0.3623
   87MOL0     H11984   5.966  -1.411   5.841 -3.5569  0.0134 -1.1483
   87MOL0     H11985   5.933  -1.319   5.988 -0.0480 -0.5865 -1.6820
   87MOL0     H11986   6.391  -1.428   6.833  1.4426 -1.5943 -2.0239
   87MOL0     H11987   6.376  -1.287   7.058 -1.0196  2.1699 -0.6524
   87MOL0     H11988   6.396  -0.974   7.297 -0.2817  2.7723  1.6875
   87MOL0     H11989   6.317  -0.937   7.517  0.1876 -1.0826  1.4288
   87MOL0     H11990   6.437   0.371   7.012  1.4150 -0.0782  0.5917
   87MOL0     H11991   6.213   0.304   7.092 -0.5412 -2.2671  0.1488
   87MOL0     H11992   5.896   0.094   7.133  1.4919 -0.5807  0.9569
   87MOL0     H11993   5.743  -0.092   7.194 -2.2788  3.9945 -1.2429
   87MOL0     H11994   5.743  -0.202   7.601 -2.6775  0.2526  1.2473
   87MOL0     H11995   5.586  -0.127   7.609  1.0263  0.1165  1.1529
   87MOL0     H11996   5.487  -0.327   7.483  0.4500  2.5335 -0.0514
   87MOL0     H11997   5.561  -0.346   7.645 -1.1423  1.6362  0.0295
   87MOL0     H11998   5.670  -0.440   7.371  0.9683 -2.9500 -0.6229
   87MOL0     H11999   5.773  -0.419   7.508 -0.4951 -1.3107  0.3292
   87MOL0     H12000   5.527  -0.603   7.466  0.7556 -1.2116  1.7174
   87MOL0     H12001   5.574  -0.568   7.628  0.1456  0.2685  0.3560
   87MOL0     H12002   5.875  -0.837   7.536  1.8488  2.4702 -0.6767
   87MOL0     H12003   5.790   0.020   7.606 -0.2178 -1.2105 -0.0349
   87MOL0     H12004   5.920   0.199   7.673 -1.7547  2.5200 -0.5591
   87MOL0     H12005   6.059   0.248   7.565  0.4284  0.3491 -0.8238
   87MOL0     H12006   5.905   0.330   7.552 -2.6347  0.0358  1.2207
   88MOL0     O12007   6.670   1.143   4.813  0.1351 -0.6973  0.1397
   88MOL0     C12008   6.718   1.222   4.726 -0.7324 -0.8060  0.0780
   88MOL0     O12009   6.847   1.256   4.709 -0.8566 -0.5382 -0.5491
   88MOL0     C12010   6.955   1.222   4.789  1.3269 -0.1044 -0.0582
   88MOL0     C12011   7.080   1.212   4.723  0.5307  0.7266 -0.2621
   88MOL0     C12012   7.196   1.192   4.799 -0.5355  0.5347 -0.0226
   88MOL0     C12013   7.179   1.179   4.941  0.6109 -0.4032 -0.1982
   88MOL0     O12014   7.276   1.157   5.034  0.4701 -0.0905  0.4742
   88MOL0     C12015   7.396   1.114   4.983 -1.2047 -0.2360  0.7290
   88MOL0     C12016   7.481   1.050   5.089  0.1324 -0.2011  0.2353
   88MOL0     C12017   7.515   1.165   5.190 -0.1117  0.2666 -0.6981
   88MOL0     C12018   7.631   1.137   5.285 -0.3056 -0.2441 -0.0069
   88MOL0     C12019   7.639   1.000   5.343 -0.6102 -0.2796  0.0627
   88MOL0     C12020   7.526   0.937   5.426 -0.0722 -0.2913 -0.6036
   88MOL0     C12021   7.431   1.031   5.500 -0.1715 -0.8659 -0.1720
   88MOL0     C12022   7.489   1.088   5.627 -0.2177 -0.3957 -0.1895
   88MOL0     N12023   7.556   0.992   5.724 -0.0112  0.8308  0.4934
   88MOL0     C12024   7.481   0.899   5.805 -0.5923 -0.0523  0.2359
   88MOL0     C12025   7.567   0.851   5.900 -0.4451 -0.7082  0.8525
   88MOL0     C12026   7.545   0.769   6.023 -0.6338 -0.2120 -0.4783
   88MOL0     C12027   7.457   0.657   5.972 -0.4643 -0.2429 -0.5992
   88MOL0     C12028   7.459   0.535   6.067 -0.2876 -0.6195  0.1393
   88MOL0     C12029   7.369   0.417   6.031  0.0166  0.2995  0.3162
   88MOL0     O12030   7.247   0.470   5.977  0.3058  0.6808  0.6538
   88MOL0     C12031   7.146   0.378   5.965  0.5820 -0.6612  0.0138
   88MOL0     C12032   7.134   0.309   5.851 -1.0804 -0.2653  0.8257
   88MOL0     C12033   7.060   0.200   5.831  0.5464 -0.0801 -0.2975
   88MOL0     C12034   7.060   0.129   5.696 -0.2562  0.0903  0.0930
   88MOL0     C12035   6.978   0.156   5.941 -0.4277  0.3138 -0.3686
   88MOL0     C12036   6.900   0.041   5.954  0.8030  0.3816  0.6189
   88MOL0     O12037   6.804   0.037   6.060  0.1010  0.1845 -0.6507
   88MOL0     C12038   6.746  -0.089   6.098 -0.0203 -1.0754 -1.0767
   88MOL0     C12039   6.613  -0.115   6.059  0.6275  0.9706  0.2275
   88MOL0     C12040   6.551  -0.239   6.099  0.1926 -0.0326 -0.3158
   88MOL0     C12041   6.621  -0.335   6.175 -0.4541 -0.2184 -0.1299
   88MOL0     O12042   6.570  -0.460   6.226  0.2493 -0.4636  0.9436
   88MOL0     C12043   6.475  -0.520   6.134  0.5118 -0.5101  0.1219
   88MOL0     C12044   6.473  -0.672   6.176  0.8860 -1.1231  0.1752
   88MOL0     C12045   6.403  -0.764   6.062  1.2055  0.0705  1.0684
   88MOL0     C12046   6.354  -0.904   6.119 -0.4274  0.1685  0.1287
   88MOL0     C12047   6.292  -1.007   6.018  0.0989  0.1188  0.8838
   88MOL0     C12048   6.160  -0.953   5.952 -0.3560 -0.0646 -0.4921
   88MOL0     C12049   6.104  -1.039   5.835  0.7618 -0.2641  0.4266
   88MOL0     C12050   6.107  -0.972   5.695  0.2910 -0.3312 -0.6106
   88MOL0    Cl12051   6.009  -0.809   5.686 -0.2451 -0.1533 -0.0700
   88MOL0     C12052   6.758  -0.308   6.209  0.2503  0.0654  0.5851
   88MOL0     C12053   6.820  -0.187   6.170  0.0202 -0.2464  0.1296
   88MOL0     O12054   6.913  -0.050   5.882 -0.5936  0.2526  1.3539
   88MOL0     C12055   6.983   0.237   6.060 -0.1825 -0.1542 -1.1173
   88MOL0     C12056   7.065   0.352   6.071  0.2916 -0.6471  0.1341
   88MOL0     N12057   7.691   0.905   5.870  0.2134  0.1117  0.2873
   88MOL0     N12058   7.686   0.989   5.769  0.4724 -0.9636  0.0532
   88MOL0     C12059   7.054   1.169   4.996  0.7208 -0.1140 -0.1863
   88MOL0     C12060   6.941   1.196   4.919  0.1860  0.1504 -0.9246
   88MOL0     C12061   6.623   1.291   4.641  0.6140 -0.1829  0.2672
   88MOL0     C12062   6.656   1.407   4.568  0.1141 -0.6011 -0.6797
   88MOL0     C12063   6.571   1.488   4.494 -0.4577 -0.2912  0.5346
   88MOL0     C12064   6.441   1.441   4.464  0.0722 -0.0793  0.5988
   88MOL0     O12065   6.358   1.513   4.378  0.5437  0.3289 -0.8832
   88MOL0     C12066   6.216   1.487   4.363  0.2953 -0.4654 -0.1134
   88MOL0     C12067   6.188   1.412   4.236 -0.5139 -0.6427  0.2083
   88MOL0     C12068   6.204   1.504   4.111  0.2710  0.2643  0.0418
   88MOL0     C12069   6.166   1.453   3.965  1.1706  0.1219  0.1659
   88MOL0     C12070   6.184   1.543   3.863  0.2826  0.0674 -0.5627
   88MOL0     C12071   6.203   1.609   3.766  0.4620 -0.9030  0.8144
   88MOL0     C12072   6.410   1.319   4.520 -0.9082  1.0586 -0.5907
   88MOL0     C12073   6.496   1.236   4.612 -0.4224  0.1585  0.4395
   88MOL0     C12074   6.430   1.109   4.669  0.1602 -0.9144 -0.2510
   88MOL0     H12075   7.085   1.227   4.615  0.9877 -1.4934 -0.6000
   88MOL0     H12076   7.296   1.179   4.758 -0.6740  0.2341 -0.2773
   88MOL0     H12077   7.452   1.202   4.950  2.0853 -2.1544  0.6909
   88MOL0     H12078   7.389   1.042   4.900  2.3498  2.2298 -2.0240
   88MOL0     H12079   7.427   0.969   5.139  0.2849 -0.3274  0.1964
   88MOL0     H12080   7.573   1.025   5.034 -0.9828 -0.7210 -1.4479
   88MOL0     H12081   7.554   1.257   5.146 -2.2293  0.8680 -1.4126
   88MOL0     H12082   7.428   1.196   5.247 -0.2927 -2.7232  0.8360
   88MOL0     H12083   7.728   1.168   5.247  1.5119 -0.6572  3.8452
   88MOL0     H12084   7.620   1.210   5.366 -0.8322 -2.9590  2.5567
   88MOL0     H12085   7.741   0.988   5.382  0.2729  3.0226 -0.8877
   88MOL0     H12086   7.641   0.937   5.254 -1.8918 -0.7696  0.3553
   88MOL0     H12087   7.465   0.873   5.362  1.1657 -0.8887 -1.2326
   88MOL0     H12088   7.576   0.873   5.500  0.0053  2.7428  2.1898
   88MOL0     H12089   7.351   0.963   5.530 -0.3056 -0.2330  0.9890
   88MOL0     H12090   7.386   1.104   5.432  1.3237  1.5365  1.2690
   88MOL0     H12091   7.560   1.167   5.599 -2.9851  2.4411  0.2811
   88MOL0     H12092   7.410   1.133   5.688  0.8262  0.2400  0.7349
   88MOL0     H12093   7.380   0.863   5.793 -0.6349  0.3473 -0.6897
   88MOL0     H12094   7.498   0.821   6.108  1.7887 -0.7331  1.3039
   88MOL0     H12095   7.649   0.751   6.052 -0.1999  0.2620 -1.6690
   88MOL0     H12096   7.358   0.702   5.982  1.3598  3.6792  1.9975
   88MOL0     H12097   7.472   0.631   5.867  0.2402  3.4346 -1.5511
   88MOL0     H12098   7.560   0.494   6.066  0.6119  1.4562 -0.9671
   88MOL0     H12099   7.444   0.567   6.171  0.8851  0.4649 -0.0117
   88MOL0     H12100   7.406   0.344   5.959 -3.0264 -2.1983  1.0911
   88MOL0     H12101   7.355   0.373   6.130  2.5485  0.2772  0.7109
   88MOL0     H12102   7.185   0.346   5.762 -1.3568  1.6750  1.4185
   88MOL0     H12103   7.108   0.192   5.620  1.9403 -2.1903 -0.5632
   88MOL0     H12104   6.956   0.113   5.667 -1.0612  1.2156  2.1774
   88MOL0     H12105   7.120   0.037   5.696 -0.5864 -0.1402 -1.0079
   88MOL0     H12106   6.553  -0.044   6.002 -0.3080 -1.3776 -1.9392
   88MOL0     H12107   6.445  -0.252   6.077 -0.5636 -0.0849  2.7962
   88MOL0     H12108   6.372  -0.485   6.150  0.2281 -1.5600  0.7486
   88MOL0     H12109   6.502  -0.514   6.028  1.9018 -1.4902  0.3943
   88MOL0     H12110   6.579  -0.697   6.188  1.4034  1.0190  0.5758
   88MOL0     H12111   6.411  -0.680   6.266  0.3947  1.8741  0.2331
   88MOL0     H12112   6.475  -0.775   5.980 -2.6426  1.3952 -2.8810
   88MOL0     H12113   6.316  -0.709   6.024  0.9447  0.5598  2.3211
   88MOL0     H12114   6.272  -0.879   6.187 -0.0279  1.6906  0.0792
   88MOL0     H12115   6.441  -0.950   6.165  0.7970  0.4712 -1.8011
   88MOL0     H12116   6.357  -1.011   5.931  2.4867  1.0049  2.5275
   88MOL0     H12117   6.281  -1.109   6.055  2.6091 -0.6348 -0.2581
   88MOL0     H12118   6.172  -0.850   5.917  4.5020 -1.0360 -2.5058
   88MOL0     H12119   6.077  -0.959   6.023 -2.7380 -0.2759 -3.0788
   88MOL0     H12120   5.999  -1.055   5.859 -0.1100  1.4178 -1.8605
   88MOL0     H12121   6.154  -1.135   5.823 -1.3690 -1.4218  0.4030
   88MOL0     H12122   6.061  -1.045   5.629 -1.2999 -1.2201  1.3711
   88MOL0     H12123   6.215  -0.961   5.683  0.3452  0.3107  0.2895
   88MOL0     H12124   6.824  -0.377   6.260  0.9213 -1.1728 -1.7809
   88MOL0     H12125   6.921  -0.175   6.206  0.1815  1.9741 -0.8649
   88MOL0     H12126   6.946   0.192   6.152  0.6878 -0.2245 -0.7885
   88MOL0     H12127   7.060   0.414   6.160 -1.3735 -1.2622  0.4946
   88MOL0     H12128   7.045   1.156   5.103 -1.5258 -1.7597 -0.5141
   88MOL0     H12129   6.846   1.198   4.972 -0.4637  0.4584 -2.0704
   88MOL0     H12130   6.750   1.460   4.572 -1.2642  2.2600 -2.7682
   88MOL0     H12131   6.594   1.581   4.443 -4.6828  1.0829  0.7371
   88MOL0     H12132   6.169   1.449   4.454 -1.8391  1.3982 -0.3257
   88MOL0     H12133   6.168   1.585   4.356  2.3214  0.8517  2.3909
   88MOL0     H12134   6.085   1.376   4.226 -2.7892  5.2955 -2.2551
   88MOL0     H12135   6.261   1.330   4.234 -0.5023 -0.6344  0.3017
   88MOL0     H12136   6.136   1.586   4.139  0.2195  0.5755 -0.9453
   88MOL0     H12137   6.307   1.540   4.104  0.4925  0.4081  2.8268
   88MOL0     H12138   6.060   1.425   3.959  1.5951 -1.4484 -0.7313
   88MOL0     H12139   6.220   1.359   3.947  0.3371 -0.0956 -1.3139
   88MOL0     H12140   6.232   1.677   3.689 -2.2880 -1.5349 -0.9011
   88MOL0     H12141   6.316   1.265   4.512 -0.8745 -0.1104  3.9505
   88MOL0     H12142   6.385   1.135   4.765  0.3996 -0.8959 -0.1459
   88MOL0     H12143   6.357   1.063   4.601 -0.4129  0.0866 -0.3377
   88MOL0     H12144   6.495   1.022   4.675 -0.0616 -1.0214  0.6307
   89MOL0     O12145   4.589  10.104   1.388  0.0943  0.0304  0.2783
   89MOL0     C12146   4.593  10.223   1.411 -0.0136  1.1209 -0.4311
   89MOL0     O12147   4.515  10.283   1.506  0.1567 -0.5541 -0.1145
   89MOL0     C12148   4.437  10.200   1.590  0.4089 -0.4462  1.1250
   89MOL0     C12149   4.474  10.174   1.725  1.0070 -0.7365 -1.3292
   89MOL0     C12150   4.398  10.085   1.809  0.1932 -0.4620  0.2403
   89MOL0     C12151   4.282  10.032   1.753  0.3076  0.6425  0.8665
   89MOL0     O12152   4.196   9.960   1.833 -0.4760  0.0399 -0.2855
   89MOL0     C12153   4.052   9.980   1.840  0.1123 -0.6640  0.3628
   89MOL0     C12154   3.991   9.866   1.753  0.3071  0.8242 -0.2896
   89MOL0     C12155   4.067   9.733   1.775 -0.2418 -0.3705  0.7353
   89MOL0     C12156   4.009   9.635   1.667  0.1142 -0.3544  0.4351
   89MOL0     C12157   4.084   9.504   1.685  0.0042  0.1492  0.1478
   89MOL0     C12158   4.038   9.420   1.799  0.5428  0.3782 -0.0833
   89MOL0     C12159   4.129   9.297   1.822  0.3369  0.2467  0.5632
   89MOL0     C12160   4.043   9.168   1.835 -1.0228 -0.2294  0.0417
   89MOL0     N12161   3.972   9.168   1.968  0.9654 -0.4734 -0.8558
   89MOL0     C12162   3.871   9.254   2.007 -0.8700 -0.3058  0.8936
   89MOL0     C12163   3.840   9.224   2.139 -0.7791 -0.6229 -0.0937
   89MOL0     C12164   3.747   9.297   2.236 -0.0641  0.7045  0.7820
   89MOL0     C12165   3.817   9.372   2.352  0.2447  0.4442 -1.0060
   89MOL0     C12166   3.718   9.472   2.409 -0.8982 -0.2625  0.0689
   89MOL0     C12167   3.786   9.551   2.522 -0.0305 -0.0126 -0.1276
   89MOL0     O12168   3.717   9.667   2.551  0.1637  0.6108  0.1706
   89MOL0     C12169   3.793   9.779   2.585  0.2636 -0.9876 -0.3961
   89MOL0     C12170   3.937   9.797   2.595  0.5289  0.0452  0.6618
   89MOL0     C12171   3.990   9.921   2.621 -1.3995 -0.1316 -0.1836
   89MOL0     C12172   4.138   9.923   2.657  0.2460  0.7225  0.2069
   89MOL0     C12173   3.910  10.046   2.635 -0.7789  0.5341  0.3693
   89MOL0     C12174   3.961  10.173   2.680  0.0561 -0.8064 -0.2016
   89MOL0     O12175   4.077  10.216   2.634 -0.8432 -0.2960  0.3261
   89MOL0     C12176   4.126  10.336   2.692 -0.0238  1.0669  0.2354
   89MOL0     C12177   4.128  10.457   2.619  0.4216 -0.2760  0.3297
   89MOL0     C12178   4.180  10.577   2.674  0.2214  0.4559  0.0256
   89MOL0     C12179   4.211  10.574   2.808 -0.6673 -0.1948 -0.8298
   89MOL0     O12180   4.257  10.682   2.877 -0.6774 -0.1706 -0.8688
   89MOL0     C12181   4.397  10.730   2.849 -0.0813  0.8728  0.5565
   89MOL0     C12182   4.501  10.644   2.925  0.3144 -1.2224  0.8910
   89MOL0     C12183   4.642  10.713   2.916  0.9691  0.3264 -0.1712
   89MOL0     C12184   4.711  10.704   2.773 -0.0114 -0.3563 -0.1004
   89MOL0     C12185   4.778  10.564   2.759  0.6120  0.5097 -0.5798
   89MOL0     C12186   4.848  10.566   2.619 -0.4634  0.3567 -0.1565
   89MOL0     C12187   4.908  10.422   2.591 -0.7738  0.8291 -0.3057
   89MOL0     C12188   5.050  10.429   2.523  0.1969 -0.6403 -0.1222
   89MOL0    Cl12189   5.043  10.484   2.358  0.0994 -0.1131 -0.0432
   89MOL0     C12190   4.209  10.452   2.882 -0.2103  0.3859 -0.1820
   89MOL0     C12191   4.173  10.337   2.819  0.7337  0.5583  0.3038
   89MOL0     O12192   3.884  10.242   2.744  0.8554 -0.7139  0.0674
   89MOL0     C12193   3.766  10.018   2.631 -0.9048  1.0443 -0.5136
   89MOL0     C12194   3.722   9.887   2.608  0.0913 -0.4267  0.6968
   89MOL0     N12195   3.929   9.126   2.178 -0.2305  0.5671  0.1654
   89MOL0     N12196   4.000   9.080   2.077  0.2223  0.2177 -0.3898
   89MOL0     C12197   4.251  10.049   1.616  0.3043 -0.3489  0.1151
   89MOL0     C12198   4.331  10.133   1.536 -0.1449 -0.5473 -0.5312
   89MOL0     C12199   4.671  10.310   1.318  0.2359 -0.1456 -0.4963
   89MOL0     C12200   4.780  10.247   1.244 -1.1765  0.6774 -0.7640
   89MOL0     C12201   4.867  10.323   1.169 -0.3582 -0.0026 -0.7783
   89MOL0     C12202   4.859  10.466   1.160 -0.5210 -0.0249 -0.7931
   89MOL0     O12203   4.936  10.542   1.079  0.8019 -0.0770  0.1111
   89MOL0     C12204   5.050  10.488   1.011 -0.2930 -0.2333 -0.1019
   89MOL0     C12205   5.093  10.578   0.897 -1.0207 -0.4094 -0.9353
   89MOL0     C12206   5.253  10.577   0.863 -0.2701  0.3593  0.1912
   89MOL0     C12207   5.334  10.604   0.990 -0.2683  0.0236 -0.0596
   89MOL0     C12208   5.308  10.745   1.018 -0.2697 -0.2173  0.7746
   89MOL0     C12209   5.288  10.863   1.051 -0.2871 -1.0266  0.5289
   89MOL0     C12210   4.752  10.527   1.241 -0.8051  0.0118 -0.8939
   89MOL0     C12211   4.658  10.454   1.312  0.2411 -0.1065  0.3546
   89MOL0     C12212   4.543  10.541   1.378  0.1888  0.5519 -0.3241
   89MOL0     H12213   4.566  10.227   1.750  0.5415  1.0925 -3.1979
   89MOL0     H12214   4.426  10.063   1.911 -2.7726  2.5783  1.8984
   89MOL0     H12215   4.031  10.081   1.804  0.6801 -0.6392  0.0849
   89MOL0     H12216   4.018   9.973   1.943  1.5974 -1.6244  0.8279
   89MOL0     H12217   3.886   9.858   1.784 -0.0874  0.3693 -1.7037
   89MOL0     H12218   3.990   9.882   1.645  1.3613  0.4615 -0.3555
   89MOL0     H12219   4.174   9.755   1.763 -0.8624  2.3027 -0.6118
   89MOL0     H12220   4.028   9.698   1.871 -1.0764 -1.1672  0.1216
   89MOL0     H12221   3.903   9.625   1.693 -0.5978  1.2738 -1.5707
   89MOL0     H12222   4.030   9.674   1.567 -0.2971  1.0268  0.8605
   89MOL0     H12223   4.189   9.529   1.703 -0.2482  0.1329  1.7707
   89MOL0     H12224   4.070   9.447   1.593  1.6743 -1.8546  1.0735
   89MOL0     H12225   4.035   9.470   1.896  1.0308  0.6651 -0.2128
   89MOL0     H12226   3.938   9.397   1.762  0.3842  0.3890  0.3264
   89MOL0     H12227   4.182   9.302   1.917  0.8430  0.2053  0.2873
   89MOL0     H12228   4.191   9.279   1.733 -1.9488  0.3330 -1.1454
   89MOL0     H12229   3.978   9.155   1.748  1.6956  1.2335 -2.3746
   89MOL0     H12230   4.124   9.095   1.840  1.0654  2.0134  0.6018
   89MOL0     H12231   3.843   9.334   1.940 -0.0297 -0.2714  0.5675
   89MOL0     H12232   3.679   9.227   2.286 -2.3606  3.1526  1.3492
   89MOL0     H12233   3.686   9.363   2.173  3.3920 -1.3951 -5.6851
   89MOL0     H12234   3.848   9.298   2.426 -1.7443 -1.4753 -1.9611
   89MOL0     H12235   3.910   9.416   2.315  0.1979  0.8162 -0.6889
   89MOL0     H12236   3.705   9.545   2.329 -0.8106 -1.6942 -1.3128
   89MOL0     H12237   3.620   9.431   2.439 -2.0107  2.2324  0.0565
   89MOL0     H12238   3.793   9.497   2.617  1.8972  1.7315  0.7993
   89MOL0     H12239   3.890   9.557   2.486  0.0252 -2.4095 -0.5351
   89MOL0     H12240   4.007   9.715   2.586  0.0444 -0.2981 -0.1883
   89MOL0     H12241   4.197   9.958   2.572 -0.4500  0.4434 -0.3922
   89MOL0     H12242   4.177   9.822   2.674  0.5207  0.3583 -2.1994
   89MOL0     H12243   4.162   9.990   2.740  3.6218  1.1650 -0.9475
   89MOL0     H12244   4.101  10.447   2.515  2.1671 -0.4461 -0.1408
   89MOL0     H12245   4.181  10.670   2.618  0.5476  0.2283 -0.3533
   89MOL0     H12246   4.434  10.735   2.746  0.4939 -0.3241  0.6920
   89MOL0     H12247   4.398  10.832   2.890 -0.5256 -0.5974  4.6965
   89MOL0     H12248   4.463  10.644   3.028 -1.8734 -0.4869  0.1458
   89MOL0     H12249   4.500  10.544   2.879  0.6966 -1.5934  1.6726
   89MOL0     H12250   4.714  10.675   2.989 -1.7945 -1.4494  1.8131
   89MOL0     H12251   4.609  10.813   2.943 -0.1794  0.2992 -1.3701
   89MOL0     H12252   4.794  10.776   2.770  1.3459 -1.8471  0.3483
   89MOL0     H12253   4.634  10.731   2.700  1.1505  2.7096 -0.3239
   89MOL0     H12254   4.850  10.554   2.841 -0.1592  1.6036  0.2700
   89MOL0     H12255   4.713  10.476   2.752  0.7088  0.2579  1.2300
   89MOL0     H12256   4.930  10.638   2.623 -0.9597  0.8934  0.9350
   89MOL0     H12257   4.779  10.593   2.539  0.5417  2.6981 -0.3184
   89MOL0     H12258   4.835  10.380   2.521 -0.4677  0.2355 -0.2808
   89MOL0     H12259   4.902  10.359   2.680 -0.9369 -0.4572 -1.1937
   89MOL0     H12260   5.104  10.335   2.535 -0.9690 -1.6403 -2.1555
   89MOL0     H12261   5.105  10.509   2.574 -0.2230 -0.8943  0.7453
   89MOL0     H12262   4.238  10.442   2.986  2.7322  1.9754 -0.7218
   89MOL0     H12263   4.174  10.243   2.872  1.5971  0.0691 -0.5515
   89MOL0     H12264   3.696  10.091   2.669 -3.6546 -1.3738 -0.5989
   89MOL0     H12265   3.615   9.867   2.612  0.7008 -4.4250  1.3595
   89MOL0     H12266   4.172   9.992   1.568 -1.1456  0.9025  0.9434
   89MOL0     H12267   4.290  10.157   1.438  0.0526  0.3884 -0.3955
   89MOL0     H12268   4.796  10.140   1.249  0.3805  0.3013 -6.8043
   89MOL0     H12269   4.935  10.263   1.109 -2.7326 -3.6690 -0.1678
   89MOL0     H12270   5.130  10.477   1.085 -0.6836 -0.6832  0.2645
   89MOL0     H12271   5.034  10.386   0.974 -2.5353 -0.1944  0.5883
   89MOL0     H12272   5.079  10.683   0.924 -0.8641 -0.1986 -1.6446
   89MOL0     H12273   5.040  10.549   0.806 -0.6917 -0.9911 -0.9414
   89MOL0     H12274   5.272  10.471   0.840  0.8776  0.0538  2.3254
   89MOL0     H12275   5.291  10.632   0.777  3.7701 -2.3083  0.0127
   89MOL0     H12276   5.441  10.588   0.971  0.4144  2.1380  1.6721
   89MOL0     H12277   5.313  10.537   1.074 -3.3413 -0.6945 -1.2580
   89MOL0     H12278   5.282  10.968   1.073  1.0548 -0.3970 -1.7764
   89MOL0     H12279   4.723  10.631   1.244 -4.0407 -0.7775 -1.1423
   89MOL0     H12280   4.528  10.641   1.336  0.6074  0.6240 -0.3121
   89MOL0     H12281   4.446  10.494   1.362 -1.2376  3.6005 -1.3472
   89MOL0     H12282   4.563  10.540   1.486 -2.1178  0.0714  0.1370
   90MOL0     O12283   0.781   0.779   9.693 -1.0017 -0.8144 -0.3485
   90MOL0     C12284   0.877   0.707   9.716 -0.8035  0.5425 -0.7898
   90MOL0     O12285   0.948   0.635   9.625  0.3771  0.5140  0.0040
   90MOL0     C12286   0.909   0.652   9.498 -0.1519  0.7370  0.3882
   90MOL0     C12287   0.914   0.776   9.434  0.5176 -0.2362 -0.2339
   90MOL0     C12288   0.901   0.777   9.294  0.2114  0.8705 -0.3638
   90MOL0     C12289   0.888   0.653   9.227  0.2591  0.1065  0.9020
   90MOL0     O12290   0.886   0.656   9.091  0.6649 -1.1701 -0.4452
   90MOL0     C12291   0.766   0.598   9.024 -0.7064 -0.2931 -0.3203
   90MOL0     C12292   0.639   0.682   9.030  0.3623 -0.5216 -0.5102
   90MOL0     C12293   0.639   0.816   8.951  0.0304  0.0342 -0.6751
   90MOL0     C12294   0.511   0.884   8.966  0.1405 -0.1608 -0.7572
   90MOL0     C12295   0.539   1.034   8.927  0.2956  0.4888 -0.2261
   90MOL0     C12296   0.554   1.065   8.774  0.1272  0.5769 -1.4525
   90MOL0     C12297   0.563   1.214   8.751 -0.7752 -1.1071  0.1954
   90MOL0     C12298   0.711   1.253   8.757  0.4787  1.1420  0.7003
   90MOL0     N12299   0.732   1.396   8.732 -0.2729 -0.9353 -0.8544
   90MOL0     C12300   0.722   1.459   8.615 -0.3038 -0.3168 -0.1797
   90MOL0     C12301   0.746   1.582   8.635  0.5797 -0.1326  0.0806
   90MOL0     C12302   0.721   1.682   8.517  0.0992 -0.5148 -1.4495
   90MOL0     C12303   0.845   1.772   8.497  0.1877 -0.3289 -0.4250
   90MOL0     C12304   0.963   1.697   8.453  0.3096 -0.3546  0.5795
   90MOL0     C12305   1.037   1.790   8.366 -0.2531  1.6506  0.1279
   90MOL0     O12306   1.178   1.753   8.366  0.2931  0.0987  0.3029
   90MOL0     C12307   1.200   1.635   8.298 -0.4546 -0.7378 -0.3365
   90MOL0     C12308   1.147   1.600   8.169 -0.1690  0.3315  0.3949
   90MOL0     C12309   1.176   1.474   8.105  0.0750 -0.2256 -0.3419
   90MOL0     C12310   1.090   1.441   7.986  0.7578 -0.0018 -0.2825
   90MOL0     C12311   1.275   1.383   8.172  0.3162  0.0500  0.2933
   90MOL0     C12312   1.327   1.259   8.106  0.2187 -0.2267  0.2164
   90MOL0     O12313   1.450   1.209   8.138 -0.2204 -0.2353 -1.5106
   90MOL0     C12314   1.531   1.166   8.031  0.9255  0.2573  0.3559
   90MOL0     C12315   1.564   1.029   8.024  0.5872  0.2091 -0.2473
   90MOL0     C12316   1.670   0.980   7.942  0.0310  0.0701 -0.3018
   90MOL0     C12317   1.733   1.060   7.851 -0.3774  0.3278  0.7985
   90MOL0     O12318   1.822   1.013   7.757 -0.2246  0.8469 -0.2532
   90MOL0     C12319   1.850   0.874   7.739  0.2017 -0.5426 -0.2539
   90MOL0     C12320   1.947   0.844   7.624  0.3800 -0.1466 -0.0064
   90MOL0     C12321   1.875   0.849   7.486  0.8718  0.5745 -0.5584
   90MOL0     C12322   1.976   0.852   7.381  0.0017  0.6957  0.4279
   90MOL0     C12323   1.932   0.879   7.239 -0.5562 -0.0182  0.0982
   90MOL0     C12324   1.783   0.834   7.224  0.0109  0.5037 -0.7224
   90MOL0     C12325   1.734   0.853   7.079 -0.6084 -0.5970  0.4485
   90MOL0     C12326   1.586   0.824   7.056  0.0978  0.4471 -0.6896
   90MOL0    Cl12327   1.491   0.901   7.182 -0.3338 -0.0098 -0.3230
   90MOL0     C12328   1.693   1.199   7.841 -0.0593 -0.0878 -0.0820
   90MOL0     C12329   1.602   1.251   7.940  0.5215 -0.3513 -0.7570
   90MOL0     O12330   1.263   1.214   8.016 -0.4431 -0.3346 -0.3991
   90MOL0     C12331   1.328   1.427   8.297  0.4963  0.3532  0.0061
   90MOL0     C12332   1.286   1.544   8.354 -0.4628 -0.2325 -0.0712
   90MOL0     N12333   0.763   1.610   8.769  0.4394 -0.6146 -0.9171
   90MOL0     N12334   0.744   1.500   8.831 -0.3277 -0.3874  0.4847
   90MOL0     C12335   0.880   0.534   9.296 -0.4615  0.0106 -0.4315
   90MOL0     C12336   0.898   0.537   9.433  0.5241 -0.7130  0.1099
   90MOL0     C12337   0.924   0.708   9.858  0.1769  0.5117 -0.6960
   90MOL0     C12338   0.847   0.665   9.974 -0.2083 -0.6290 -0.3257
   90MOL0     C12339   0.893   0.672  10.104  0.0666  0.3537 -0.3855
   90MOL0     C12340   1.026   0.701  10.129  0.0373  0.2902 -0.3490
   90MOL0     O12341   1.087   0.678  10.250  0.0710 -0.0347  0.7938
   90MOL0     C12342   1.092   0.788  10.342 -0.0200  0.3703 -0.0904
   90MOL0     C12343   1.238   0.846  10.338  0.1201  0.5275 -0.4967
   90MOL0     C12344   1.355   0.749  10.347  0.4081 -0.0652 -0.3876
   90MOL0     C12345   1.362   0.691  10.490 -0.3672 -0.3803  0.2694
   90MOL0     C12346   1.430   0.570  10.485 -0.1545  1.1378  0.2994
   90MOL0     C12347   1.495   0.460  10.485  0.0827 -1.5907 -0.1124
   90MOL0     C12348   1.103   0.741  10.023 -1.0284  0.1498 -0.4900
   90MOL0     C12349   1.062   0.742   9.885  0.2093 -0.2193 -0.1555
   90MOL0     C12350   1.157   0.810   9.786  0.4923 -0.6959  0.3538
   90MOL0     H12351   0.948   0.865   9.487 -0.7172 -0.1572  0.4815
   90MOL0     H12352   0.916   0.868   9.236 -1.2004  0.5671 -1.2593
   90MOL0     H12353   0.743   0.495   9.056  0.5001  0.5484  3.7701
   90MOL0     H12354   0.783   0.589   8.916 -0.7302 -0.3315 -0.3210
   90MOL0     H12355   0.553   0.627   8.990  0.4973 -1.4478  0.4264
   90MOL0     H12356   0.620   0.709   9.134 -2.3061  1.5585 -1.4240
   90MOL0     H12357   0.723   0.876   8.985 -0.3453  1.7680 -2.6154
   90MOL0     H12358   0.664   0.793   8.847  2.0341 -2.8398  0.3167
   90MOL0     H12359   0.448   0.841   8.888 -0.2341 -3.5864  1.2341
   90MOL0     H12360   0.477   0.881   9.070  0.8537  2.4715 -0.3783
   90MOL0     H12361   0.625   1.070   8.984 -0.3813  1.4907  0.1974
   90MOL0     H12362   0.450   1.087   8.961 -1.4450 -1.1225 -2.0183
   90MOL0     H12363   0.626   1.008   8.715  0.4420  1.5731 -2.0571
   90MOL0     H12364   0.465   1.021   8.728  1.5074 -3.0594 -1.0080
   90MOL0     H12365   0.508   1.269   8.828 -0.4535 -2.5828  1.5360
   90MOL0     H12366   0.511   1.235   8.657 -2.1547  0.7144  1.3016
   90MOL0     H12367   0.744   1.218   8.855  1.2113 -1.1878 -0.2900
   90MOL0     H12368   0.771   1.196   8.685 -0.7256  0.6473  0.0633
   90MOL0     H12369   0.694   1.417   8.519  2.4531  0.6191 -1.5057
   90MOL0     H12370   0.629   1.740   8.532 -0.7265 -1.9629 -0.7421
   90MOL0     H12371   0.689   1.624   8.430  1.7371 -2.9137 -0.5426
   90MOL0     H12372   0.814   1.844   8.421 -3.0097  0.9450  1.8439
   90MOL0     H12373   0.869   1.834   8.585  1.5457 -1.3160 -0.0626
   90MOL0     H12374   1.028   1.659   8.532 -2.6045 -3.5757  1.6875
   90MOL0     H12375   0.929   1.611   8.394 -2.3876  1.8997 -1.4239
   90MOL0     H12376   1.003   1.802   8.263 -2.4038 -1.2116  0.3708
   90MOL0     H12377   1.043   1.889   8.412  2.0615  0.0676  3.6437
   90MOL0     H12378   1.076   1.670   8.127  0.1310  0.3546 -0.0771
   90MOL0     H12379   1.037   1.346   7.984 -0.4971  0.6335  1.1219
   90MOL0     H12380   1.146   1.453   7.893  0.1454  2.4348 -0.4178
   90MOL0     H12381   1.008   1.514   7.982 -0.2584 -1.0880  0.1861
   90MOL0     H12382   1.510   0.964   8.091  0.7253 -1.3166 -1.5611
   90MOL0     H12383   1.695   0.876   7.926 -0.1520 -0.1970  1.0193
   90MOL0     H12384   1.897   0.848   7.834 -0.5390  1.1949  0.6367
   90MOL0     H12385   1.762   0.809   7.734 -0.1210 -0.1917  0.6347
   90MOL0     H12386   2.019   0.926   7.623  0.0109  0.1795 -0.7581
   90MOL0     H12387   1.980   0.745   7.655 -2.3928 -1.0999  0.2439
   90MOL0     H12388   1.822   0.945   7.490 -3.1016 -1.3473  4.5964
   90MOL0     H12389   1.811   0.762   7.468  4.6483 -2.5932  0.2434
   90MOL0     H12390   1.998   0.746   7.396  0.0602  0.7508  0.7397
   90MOL0     H12391   2.064   0.916   7.399  0.7614  0.2165 -1.3534
   90MOL0     H12392   1.950   0.979   7.199  3.2480  0.5753  2.7753
   90MOL0     H12393   2.007   0.824   7.181 -0.4478 -0.6955  0.8580
   90MOL0     H12394   1.728   0.904   7.287  0.0214 -0.4130  0.3177
   90MOL0     H12395   1.775   0.731   7.257  2.7114  0.0912 -1.1488
   90MOL0     H12396   1.801   0.795   7.016 -0.5708  1.1367 -1.1823
   90MOL0     H12397   1.757   0.958   7.059 -1.6539  0.3239  3.4712
   90MOL0     H12398   1.571   0.716   7.067  0.4147  0.4760  0.1450
   90MOL0     H12399   1.559   0.854   6.955 -1.2929  1.5230 -0.0340
   90MOL0     H12400   1.722   1.258   7.755 -0.7125  1.7147  0.8699
   90MOL0     H12401   1.585   1.357   7.952 -1.6906 -0.0459 -4.8643
   90MOL0     H12402   1.387   1.358   8.356  0.5735  0.8894  0.5663
   90MOL0     H12403   1.325   1.568   8.453  1.0479  0.0644 -0.7244
   90MOL0     H12404   0.884   0.438   9.245  2.0220 -0.3099  0.2288
   90MOL0     H12405   0.905   0.444   9.489  1.1108 -0.1929  0.9102
   90MOL0     H12406   0.741   0.646   9.959 -0.0619  0.1220 -2.7683
   90MOL0     H12407   0.829   0.644  10.187 -2.6100  0.9853 -2.1280
   90MOL0     H12408   1.021   0.871  10.337  0.4863  0.9396  1.5306
   90MOL0     H12409   1.091   0.741  10.441 -2.5582 -5.9217 -2.5658
   90MOL0     H12410   1.253   0.910  10.425  2.0484  1.9132 -1.7495
   90MOL0     H12411   1.245   0.902  10.244 -1.3669  1.4016 -0.1196
   90MOL0     H12412   1.343   0.665  10.278  0.4816 -0.1581 -0.2882
   90MOL0     H12413   1.454   0.794  10.335  1.2397 -1.4385  0.8762
   90MOL0     H12414   1.265   0.678  10.540 -1.5277  1.2925 -1.3706
   90MOL0     H12415   1.414   0.759  10.558  2.8857 -2.0230 -0.3878
   90MOL0     H12416   1.535   0.360  10.483 -1.9526 -2.5942  2.6609
   90MOL0     H12417   1.205   0.772  10.044 -1.4781  0.8742  0.6966
   90MOL0     H12418   1.252   0.760   9.806  1.1240 -0.4644 -1.8821
   90MOL0     H12419   1.131   0.801   9.680 -2.2735 -1.4665  1.0123
   90MOL0     H12420   1.161   0.917   9.808  0.0461 -0.1239 -2.0708
   91MOL0     O12421   1.018   7.581   1.467 -0.4865 -0.7232  0.4278
   91MOL0     C12422   1.081   7.577   1.359  0.3307  0.2012  0.6648
   91MOL0     O12423   1.148   7.683   1.292  0.3222 -1.1919  0.4263
   91MOL0     C12424   1.099   7.803   1.311 -1.0074 -0.0525 -1.0092
   91MOL0     C12425   0.964   7.838   1.352 -0.2971  0.6356  1.0149
   91MOL0     C12426   0.930   7.972   1.363  0.3490 -0.5322 -1.1396
   91MOL0     C12427   1.013   8.070   1.341 -1.3053 -0.7382 -0.6635
   91MOL0     O12428   0.976   8.198   1.367  0.7599 -0.0147 -0.0451
   91MOL0     C12429   0.882   8.247   1.279  0.0234 -0.2724  0.8092
   91MOL0     C12430   0.801   8.347   1.354  1.3650  0.1338  0.1379
   91MOL0     C12431   0.657   8.301   1.389  0.2337 -0.8318  0.0042
   91MOL0     C12432   0.633   8.177   1.468  0.0805  0.0309 -0.2767
   91MOL0     C12433   0.492   8.176   1.526  0.0861  0.3337 -0.2229
   91MOL0     C12434   0.412   8.108   1.415 -0.4347 -0.2632 -0.0948
   91MOL0     C12435   0.277   8.066   1.466  0.3021  1.1606 -1.5085
   91MOL0     C12436   0.182   8.195   1.495 -0.5849 -0.4653 -0.2977
   91MOL0     N12437   0.062   8.155   1.563  0.0691  0.2838 -0.6644
   91MOL0     C12438   0.056   8.125   1.691  0.5681 -0.3154  0.0616
   91MOL0     C12439  -0.077   8.099   1.711 -0.3551 -0.5446  0.2869
   91MOL0     C12440  -0.129   8.083   1.844  0.5948  0.7141 -0.8035
   91MOL0     C12441  -0.274   8.127   1.864 -0.0306  0.3090  0.8633
   91MOL0     C12442  -0.332   8.081   1.997 -0.1082 -0.1120 -1.0935
   91MOL0     C12443  -0.235   8.097   2.126  0.3088 -1.3019  0.7319
   91MOL0     O12444  -0.306   8.108   2.247 -0.7194  0.4519 -0.1013
   91MOL0     C12445  -0.233   8.097   2.367  0.9947  1.1210 -0.0457
   91MOL0     C12446  -0.303   8.052   2.481 -0.2155 -0.3738  0.3758
   91MOL0     C12447  -0.241   8.013   2.604  0.5155 -0.4233 -0.0336
   91MOL0     C12448  -0.336   7.989   2.714 -0.5367  0.7690 -0.0642
   91MOL0     C12449  -0.100   8.019   2.617  0.3212 -0.5717 -0.6373
   91MOL0     C12450  -0.025   7.998   2.739  0.3260  0.9005 -0.5952
   91MOL0     O12451  -0.092   7.976   2.860 -1.0159 -0.0586  0.2732
   91MOL0     C12452  -0.038   7.921   2.971  0.5935  0.1172 -0.5231
   91MOL0     C12453   0.052   7.811   2.969 -0.6304  0.5034 -0.1064
   91MOL0     C12454   0.109   7.776   3.090 -0.3158  1.3168  0.8436
   91MOL0     C12455   0.060   7.827   3.213  0.5628 -0.0400  0.0377
   91MOL0     O12456   0.099   7.786   3.335 -0.3029 -0.6250 -0.3768
   91MOL0     C12457   0.160   7.660   3.349 -1.0161  0.2107 -0.2023
   91MOL0     C12458   0.117   7.604   3.487 -0.6096 -0.4202  0.7300
   91MOL0     C12459  -0.027   7.547   3.489 -0.3325 -0.2052 -0.3597
   91MOL0     C12460  -0.044   7.455   3.619  1.0568 -0.0998 -0.3435
   91MOL0     C12461   0.005   7.312   3.592 -0.4975  0.2950 -0.1680
   91MOL0     C12462  -0.081   7.236   3.495  0.7007  0.6782  0.0742
   91MOL0     C12463  -0.015   7.104   3.454 -0.2566  0.4427  0.1015
   91MOL0     C12464  -0.090   6.981   3.508  0.0326 -0.0091 -0.5662
   91MOL0    Cl12465  -0.020   6.831   3.455  0.7033 -0.0251  0.5417
   91MOL0     C12466  -0.047   7.921   3.212  0.8068  0.6541  0.5695
   91MOL0     C12467  -0.103   7.965   3.086  0.1873 -0.6361  1.4984
   91MOL0     O12468   0.103   7.997   2.735  0.5561  0.3109 -0.2054
   91MOL0     C12469  -0.028   8.053   2.500  0.9354 -0.5687 -0.1831
   91MOL0     C12470  -0.097   8.088   2.380  0.3986 -0.1889  0.8978
   91MOL0     N12471  -0.146   8.100   1.592  0.3701  0.5028 -0.0391
   91MOL0     N12472  -0.060   8.143   1.507 -0.5769  0.0705 -0.5465
   91MOL0     C12473   1.149   8.050   1.317 -0.1619 -0.1938  1.1885
   91MOL0     C12474   1.190   7.907   1.299 -0.4701 -1.1828  0.4342
   91MOL0     C12475   1.117   7.441   1.305  0.0562  0.5613 -0.3771
   91MOL0     C12476   1.152   7.443   1.164  0.1267 -1.2838 -0.0331
   91MOL0     C12477   1.200   7.334   1.102 -0.1754  0.8265  0.2266
   91MOL0     C12478   1.223   7.216   1.176  0.4292 -0.6422 -1.1627
   91MOL0     O12479   1.266   7.096   1.123  0.4482  0.3654  0.2108
   91MOL0     C12480   1.346   7.106   1.006 -1.0385  0.4294  0.5625
   91MOL0     C12481   1.491   7.148   1.003  0.1629 -0.3656  0.1647
   91MOL0     C12482   1.563   7.042   1.078 -0.7092  0.1016 -0.2006
   91MOL0     C12483   1.701   7.082   1.140 -0.5305 -0.6161 -0.1327
   91MOL0     C12484   1.792   7.128   1.041 -0.2161  0.2126  0.5759
   91MOL0     C12485   1.879   7.159   0.959  0.1931  0.4622 -0.0977
   91MOL0     C12486   1.177   7.201   1.309  0.2103 -0.1898 -0.1321
   91MOL0     C12487   1.128   7.315   1.378 -0.2354 -0.6518  0.4553
   91MOL0     C12488   1.124   7.315   1.527 -0.0095 -0.5995  0.1492
   91MOL0     H12489   0.882   7.774   1.382  0.8182 -0.5907  1.5785
   91MOL0     H12490   0.827   7.991   1.388  0.1916 -0.6351 -1.6936
   91MOL0     H12491   0.815   8.167   1.245  0.6439 -0.6650  0.4753
   91MOL0     H12492   0.929   8.305   1.198 -0.9169 -2.7109 -1.6548
   91MOL0     H12493   0.845   8.372   1.451 -0.6574 -0.9504  1.4170
   91MOL0     H12494   0.801   8.430   1.283 -1.0645  1.6151  1.6813
   91MOL0     H12495   0.608   8.376   1.451  1.2260  0.0168 -0.2073
   91MOL0     H12496   0.602   8.307   1.294  0.2336  2.0274  0.1000
   91MOL0     H12497   0.646   8.088   1.406  1.5222 -1.9356  2.5979
   91MOL0     H12498   0.694   8.177   1.559 -0.4194  3.1232  0.1670
   91MOL0     H12499   0.459   8.275   1.558  0.5943 -0.0359  1.5470
   91MOL0     H12500   0.490   8.108   1.611 -0.5002 -0.9517 -1.2209
   91MOL0     H12501   0.403   8.184   1.336 -1.6246 -1.3712 -1.0768
   91MOL0     H12502   0.464   8.024   1.366  3.0238  0.8822  1.2707
   91MOL0     H12503   0.299   8.022   1.563  2.8112  0.8580 -2.1461
   91MOL0     H12504   0.221   7.997   1.402  0.4652  1.6490 -2.1945
   91MOL0     H12505   0.236   8.270   1.554  2.0641 -1.5661 -1.1304
   91MOL0     H12506   0.156   8.243   1.400  1.5404 -2.3352 -1.9485
   91MOL0     H12507   0.144   8.146   1.751  1.5898  0.2010 -1.5280
   91MOL0     H12508  -0.069   8.140   1.916  0.3814  0.5640 -0.5042
   91MOL0     H12509  -0.121   7.975   1.861 -0.1187  0.5987 -1.1638
   91MOL0     H12510  -0.289   8.232   1.837  1.5502  0.0136 -1.4875
   91MOL0     H12511  -0.334   8.067   1.795 -0.3145 -1.7777  2.7959
   91MOL0     H12512  -0.425   8.131   2.024  0.3656  0.4306 -0.4214
   91MOL0     H12513  -0.356   7.976   1.983 -2.6328 -0.1275  2.2993
   91MOL0     H12514  -0.166   8.013   2.130  1.8682 -0.2854 -2.0115
   91MOL0     H12515  -0.183   8.192   2.109  2.1768 -2.6401 -1.6693
   91MOL0     H12516  -0.409   8.051   2.457  0.3714 -1.2451 -2.5709
   91MOL0     H12517  -0.440   7.972   2.687 -1.0697 -2.1427  3.1422
   91MOL0     H12518  -0.343   8.064   2.794 -1.6591  0.6156 -0.0052
   91MOL0     H12519  -0.306   7.902   2.773 -0.9541  0.8201  0.2323
   91MOL0     H12520   0.089   7.774   2.874 -0.4103  2.5399 -0.8712
   91MOL0     H12521   0.182   7.696   3.094 -0.9977  0.7246  1.8207
   91MOL0     H12522   0.148   7.591   3.265  2.4225  0.1380 -0.7503
   91MOL0     H12523   0.263   7.695   3.349 -1.1608  1.1197  3.6306
   91MOL0     H12524   0.193   7.534   3.522 -1.7198 -1.5214  0.9799
   91MOL0     H12525   0.126   7.677   3.568  0.2659 -0.5401  0.7517
   91MOL0     H12526  -0.024   7.485   3.398  2.5709  1.8045 -1.7912
   91MOL0     H12527  -0.092   7.633   3.471 -1.4555 -1.3272 -2.0070
   91MOL0     H12528  -0.151   7.443   3.640  1.1306 -3.2134 -1.2641
   91MOL0     H12529  -0.004   7.500   3.710  0.7050 -2.2779  0.9570
   91MOL0     H12530   0.107   7.330   3.555  0.1314 -3.3260 -0.5402
   91MOL0     H12531   0.025   7.251   3.681  3.0205  2.5808  0.8299
   91MOL0     H12532  -0.098   7.292   3.403 -0.6086 -0.6357 -0.5286
   91MOL0     H12533  -0.183   7.221   3.533 -0.3076  1.5578 -2.1101
   91MOL0     H12534   0.091   7.094   3.477 -0.0527 -1.8887 -1.4796
   91MOL0     H12535  -0.021   7.082   3.347  3.2409 -1.8657  0.2116
   91MOL0     H12536  -0.198   6.970   3.497  0.1298 -4.3533  1.0398
   91MOL0     H12537  -0.064   6.978   3.614 -1.6865 -2.8531 -0.1262
   91MOL0     H12538  -0.089   7.952   3.307  1.2536  0.6006  0.7840
   91MOL0     H12539  -0.182   8.038   3.075  0.8602 -0.1342 -0.2388
   91MOL0     H12540   0.080   8.057   2.494  1.0140 -0.5219  0.9441
   91MOL0     H12541  -0.030   8.103   2.295  1.1901  0.4354  1.6172
   91MOL0     H12542   1.225   8.126   1.307 -0.7970  0.6877  2.6912
   91MOL0     H12543   1.297   7.891   1.289 -0.7208 -1.7603 -2.1047
   91MOL0     H12544   1.156   7.532   1.101 -0.3783 -1.1816  0.0778
   91MOL0     H12545   1.222   7.327   0.996 -1.1875 -0.9689  0.0787
   91MOL0     H12546   1.352   7.004   0.967 -0.8128  0.7853 -0.3568
   91MOL0     H12547   1.290   7.154   0.925 -2.1551 -1.5385  0.0980
   91MOL0     H12548   1.516   7.251   1.030  0.9415  0.3471 -2.9190
   91MOL0     H12549   1.523   7.140   0.899  1.5854  0.4759  0.5154
   91MOL0     H12550   1.505   6.991   1.156 -1.3053 -0.3463 -0.9210
   91MOL0     H12551   1.579   6.957   1.011 -1.6609  0.2969 -0.6943
   91MOL0     H12552   1.744   7.002   1.201 -4.5578 -1.1349  2.4195
   91MOL0     H12553   1.692   7.162   1.215  2.0507  0.7597 -1.1792
   91MOL0     H12554   1.948   7.181   0.881  1.9016  1.3365  1.5770
   91MOL0     H12555   1.190   7.103   1.355 -4.8593 -0.6782  0.8927
   91MOL0     H12556   1.169   7.219   1.553  1.2146 -0.2591 -0.5882
   91MOL0     H12557   1.184   7.402   1.555 -1.9159  1.9545 -2.9406
   91MOL0     H12558   1.020   7.323   1.559 -0.0463 -2.9985  0.7499
   92MOL0     O12559   2.549   0.837   3.833  0.5419 -0.0247  0.6933
   92MOL0     C12560   2.611   0.761   3.897  0.1093 -0.6371  0.0893
   92MOL0     O12561   2.692   0.663   3.843 -0.2677 -0.9297 -0.1778
   92MOL0     C12562   2.694   0.641   3.705 -0.2579 -0.2676  0.0130
   92MOL0     C12563   2.634   0.531   3.642 -0.3113 -0.4365  0.4854
   92MOL0     C12564   2.645   0.507   3.497 -0.1733  0.1874 -0.7927
   92MOL0     C12565   2.719   0.596   3.423 -0.2283 -0.1067 -0.2035
   92MOL0     O12566   2.719   0.563   3.293  0.7014  0.1208 -0.0707
   92MOL0     C12567   2.814   0.624   3.208 -0.3087 -0.6189  0.4612
   92MOL0     C12568   2.762   0.611   3.061  0.0567 -0.2621 -0.8878
   92MOL0     C12569   2.616   0.665   3.031 -0.0405  0.2754 -0.2097
   92MOL0     C12570   2.588   0.806   2.989 -1.0687  0.4470 -0.9442
   92MOL0     C12571   2.659   0.913   3.078 -0.1641  0.2176 -0.1431
   92MOL0     C12572   2.596   0.894   3.218 -0.3805 -0.7053 -0.4958
   92MOL0     C12573   2.607   1.020   3.309 -0.1981 -0.8907 -0.1219
   92MOL0     C12574   2.561   1.007   3.446  0.3555  0.1853  0.0785
   92MOL0     N12575   2.555   1.137   3.506  0.0172 -0.4976 -0.2151
   92MOL0     C12576   2.452   1.185   3.599 -0.2601 -0.1867  1.2592
   92MOL0     C12577   2.512   1.294   3.650 -0.6675  1.0317 -0.1101
   92MOL0     C12578   2.454   1.382   3.755  0.4804  0.7182  0.2330
   92MOL0     C12579   2.332   1.457   3.713 -0.4961 -0.9707  0.0505
   92MOL0     C12580   2.370   1.600   3.675 -0.4063  1.1045  0.0031
   92MOL0     C12581   2.421   1.698   3.785  0.1161  1.1488 -1.3491
   92MOL0     O12582   2.407   1.834   3.739 -0.4115 -0.8442  0.2141
   92MOL0     C12583   2.314   1.904   3.810  0.1248  0.2357  1.4743
   92MOL0     C12584   2.180   1.898   3.777  0.5935 -0.2525 -0.3442
   92MOL0     C12585   2.086   1.967   3.855  0.2694 -0.2503  0.2003
   92MOL0     C12586   1.937   1.946   3.829 -0.1214 -0.2935 -0.2443
   92MOL0     C12587   2.138   2.064   3.948  0.3277  0.7532  0.3820
   92MOL0     C12588   2.054   2.145   4.042  0.2314 -0.0037 -0.7746
   92MOL0     O12589   2.105   2.191   4.163  0.3169 -0.0102 -0.2943
   92MOL0     C12590   2.011   2.253   4.242  0.1523  0.1108 -0.0156
   92MOL0     C12591   1.960   2.377   4.217 -0.1589 -0.4093 -0.1873
   92MOL0     C12592   1.865   2.436   4.296 -0.4630  0.0045  0.1450
   92MOL0     C12593   1.816   2.375   4.408 -1.1166  1.2265  0.0605
   92MOL0     O12594   1.733   2.439   4.490  0.5096 -0.6928  0.6977
   92MOL0     C12595   1.781   2.460   4.621 -0.2112 -0.1942 -0.6447
   92MOL0     C12596   1.772   2.610   4.660  0.6155 -0.1241 -0.2102
   92MOL0     C12597   1.706   2.619   4.804 -0.1546 -0.1214  0.4357
   92MOL0     C12598   1.696   2.760   4.867 -0.8650 -0.1580 -0.6518
   92MOL0     C12599   1.631   2.758   5.005  0.2774 -0.7107 -0.4688
   92MOL0     C12600   1.479   2.758   4.985 -0.3064 -0.1794 -0.4938
   92MOL0     C12601   1.417   2.794   5.128  0.1028 -0.0217  0.7994
   92MOL0     C12602   1.367   2.944   5.151 -0.2586  0.5044  0.7981
   92MOL0    Cl12603   1.232   2.940   5.265 -0.1660  0.6469 -0.0517
   92MOL0     C12604   1.877   2.254   4.446 -0.4014  0.1684  0.3185
   92MOL0     C12605   1.973   2.195   4.359  0.3139 -1.3837 -0.6006
   92MOL0     O12606   1.942   2.175   3.999  0.6741  0.4762  0.2163
   92MOL0     C12607   2.278   2.066   3.965  0.3507  0.0942 -0.4448
   92MOL0     C12608   2.361   1.992   3.896 -0.0788  0.4811 -0.1798
   92MOL0     N12609   2.640   1.318   3.594  0.1036 -0.8656 -0.2942
   92MOL0     N12610   2.658   1.224   3.510  0.7649  0.0061 -0.5922
   92MOL0     C12611   2.787   0.701   3.483 -0.0728  0.2127 -0.2474
   92MOL0     C12612   2.768   0.723   3.624  0.0081 -0.0315 -0.5905
   92MOL0     C12613   2.626   0.765   4.054  0.8706  0.6240  0.7353
   92MOL0     C12614   2.671   0.645   4.124  0.5613  0.5343 -0.6205
   92MOL0     C12615   2.685   0.641   4.268 -0.6519  0.3877  0.6674
   92MOL0     C12616   2.657   0.750   4.349  0.0178 -0.7917  0.2564
   92MOL0     O12617   2.650   0.754   4.488  0.3346  0.3113 -0.0853
   92MOL0     C12618   2.684   0.640   4.572 -0.4707  0.8129  0.7747
   92MOL0     C12619   2.749   0.702   4.691 -0.7895  0.3348 -0.3800
   92MOL0     C12620   2.650   0.768   4.791  0.5881  0.6168 -0.3232
   92MOL0     C12621   2.712   0.772   4.938 -0.3100 -0.6867 -0.4735
   92MOL0     C12622   2.631   0.867   5.018 -0.6208 -1.2134  0.0270
   92MOL0     C12623   2.557   0.943   5.074  0.1049 -0.0419 -0.3977
   92MOL0     C12624   2.626   0.870   4.269 -0.2277 -1.2201 -0.8475
   92MOL0     C12625   2.619   0.875   4.134 -0.9789 -0.3183  0.1951
   92MOL0     C12626   2.614   1.006   4.070 -0.2134 -0.3273  0.1656
   92MOL0     H12627   2.571   0.470   3.706 -2.0955  0.4006 -0.3805
   92MOL0     H12628   2.614   0.415   3.450  1.0081 -0.8003  0.3015
   92MOL0     H12629   2.914   0.584   3.226 -1.0667 -2.5622  0.5376
   92MOL0     H12630   2.827   0.730   3.232 -1.4372 -0.6911  1.4648
   92MOL0     H12631   2.825   0.659   2.986 -0.3024  1.0718 -0.3733
   92MOL0     H12632   2.768   0.506   3.032 -1.8666 -0.9424  0.9119
   92MOL0     H12633   2.583   0.600   2.949 -0.3325 -0.5651  0.5646
   92MOL0     H12634   2.569   0.641   3.127  3.3395 -2.9589  0.9172
   92MOL0     H12635   2.626   0.816   2.887  1.8623 -0.1058  0.0137
   92MOL0     H12636   2.480   0.821   2.978 -1.6428 -2.1000  0.4885
   92MOL0     H12637   2.638   1.010   3.033 -2.1004 -1.3072 -2.7730
   92MOL0     H12638   2.767   0.894   3.071  0.3507  2.1146  1.6025
   92MOL0     H12639   2.492   0.864   3.206 -0.8317  1.0600 -1.3606
   92MOL0     H12640   2.645   0.815   3.276  0.2387 -0.3288 -0.5022
   92MOL0     H12641   2.556   1.106   3.265 -2.4561 -2.0220  0.1131
   92MOL0     H12642   2.711   1.049   3.324 -1.0637  2.6832 -0.2671
   92MOL0     H12643   2.457   0.972   3.437  0.6357 -0.2378 -1.9103
   92MOL0     H12644   2.628   0.936   3.495  0.5398  0.3182  0.0190
   92MOL0     H12645   2.351   1.151   3.620 -0.6283  0.9185  1.2999
   92MOL0     H12646   2.538   1.440   3.791  0.7982  0.0289  0.6291
   92MOL0     H12647   2.422   1.316   3.836 -1.0467  3.5155  2.0781
   92MOL0     H12648   2.272   1.419   3.629 -2.5068  2.1682 -0.0940
   92MOL0     H12649   2.274   1.468   3.805  0.1429  1.7054  0.2129
   92MOL0     H12650   2.441   1.600   3.592 -1.2669  1.4153 -0.7457
   92MOL0     H12651   2.276   1.637   3.633  0.5441  1.8396 -1.5673
   92MOL0     H12652   2.360   1.678   3.874  0.0636 -0.7217 -1.7663
   92MOL0     H12653   2.526   1.678   3.809  0.0728  2.0670 -0.2732
   92MOL0     H12654   2.166   1.842   3.685  3.1713  0.1443 -1.0664
   92MOL0     H12655   1.877   2.026   3.785 -1.3266 -2.1629 -2.1822
   92MOL0     H12656   1.883   1.915   3.918 -0.2160 -2.9898 -1.1636
   92MOL0     H12657   1.932   1.875   3.746 -0.1533 -0.6484  0.0625
   92MOL0     H12658   1.975   2.443   4.132 -1.7203 -1.2230 -1.1478
   92MOL0     H12659   1.822   2.535   4.283  1.9933  1.3283  1.2541
   92MOL0     H12660   1.719   2.391   4.679 -2.1995  1.1026 -1.1332
   92MOL0     H12661   1.887   2.434   4.625 -0.7069 -2.2557  0.1583
   92MOL0     H12662   1.874   2.650   4.655  0.0895  1.1542 -3.4455
   92MOL0     H12663   1.709   2.670   4.593 -2.3776 -2.0425  0.6868
   92MOL0     H12664   1.765   2.552   4.867 -0.1328 -2.3489 -1.7872
   92MOL0     H12665   1.606   2.577   4.793 -0.2441  0.1764  0.0889
   92MOL0     H12666   1.653   2.833   4.798 -0.6894 -0.9348 -1.6043
   92MOL0     H12667   1.795   2.799   4.890 -1.5253  0.9692  0.4254
   92MOL0     H12668   1.667   2.679   5.072  0.8995  0.5036  0.6827
   92MOL0     H12669   1.669   2.849   5.054 -0.4532 -1.4638  1.5818
   92MOL0     H12670   1.449   2.657   4.959  2.1594 -0.7944 -1.1259
   92MOL0     H12671   1.445   2.830   4.910 -0.2189  0.4289  0.0289
   92MOL0     H12672   1.495   2.763   5.198  0.9563  1.3819  0.5095
   92MOL0     H12673   1.328   2.730   5.124  1.0933 -1.3859 -1.0744
   92MOL0     H12674   1.336   2.986   5.055 -2.7042 -4.4274 -0.9011
   92MOL0     H12675   1.454   3.001   5.184 -0.4400  2.6930 -2.1121
   92MOL0     H12676   1.848   2.213   4.543 -2.9904 -0.0871 -0.4978
   92MOL0     H12677   2.022   2.101   4.379  3.8008  0.7839  2.3813
   92MOL0     H12678   2.319   2.122   4.049 -0.9219 -1.6326  1.4150
   92MOL0     H12679   2.469   1.998   3.906  0.3759 -0.2950 -3.5108
   92MOL0     H12680   2.859   0.769   3.437  0.3618  0.1765  0.3575
   92MOL0     H12681   2.817   0.807   3.672  0.0861 -0.3285 -0.1326
   92MOL0     H12682   2.672   0.549   4.074 -0.5847 -0.4361  1.1072
   92MOL0     H12683   2.716   0.549   4.317 -3.0134 -0.0189  1.5288
   92MOL0     H12684   2.602   0.580   4.613 -2.4499  4.1124  2.0034
   92MOL0     H12685   2.761   0.579   4.523  0.4216  0.7280  2.2390
   92MOL0     H12686   2.825   0.775   4.660  2.1411 -2.5037 -0.4692
   92MOL0     H12687   2.808   0.631   4.749  1.3612  2.9367  0.8695
   92MOL0     H12688   2.631   0.869   4.756 -1.7924  1.0306  1.8312
   92MOL0     H12689   2.552   0.721   4.802 -0.8637  3.6941  1.2984
   92MOL0     H12690   2.817   0.802   4.943 -0.2589 -1.0514  2.6603
   92MOL0     H12691   2.708   0.669   4.977  0.4413 -0.6401 -0.2582
   92MOL0     H12692   2.489   1.011   5.121  1.4744 -0.2506  2.0515
   92MOL0     H12693   2.602   0.955   4.331  0.9476 -1.3224 -0.2310
   92MOL0     H12694   2.697   1.017   4.000 -1.0140  0.1384 -0.7493
   92MOL0     H12695   2.523   1.014   4.010 -1.9364  1.4285  2.7587
   92MOL0     H12696   2.626   1.083   4.147 -1.8058 -0.0565  0.1925
   93MOL0     O12697  10.605   2.000   7.060 -0.9091  0.5173 -0.1162
   93MOL0     C12698  10.551   2.061   7.147  0.4267 -1.6362  0.5751
   93MOL0     O12699  10.610   2.156   7.222 -0.6854 -0.6946  0.3829
   93MOL0     C12700  10.743   2.141   7.231 -0.4459 -0.0874  0.2877
   93MOL0     C12701  10.832   2.255   7.216  0.2292  0.2353 -0.1439
   93MOL0     C12702  10.972   2.240   7.237  0.0700 -0.5923 -1.4512
   93MOL0     C12703  11.026   2.118   7.274  0.2397 -0.6107  0.4537
   93MOL0     O12704  11.157   2.104   7.297 -0.2946  0.1380 -0.2797
   93MOL0     C12705  11.251   2.197   7.251 -0.0344 -0.2543  0.6161
   93MOL0     C12706  11.391   2.131   7.274 -0.6263 -0.1167  0.3460
   93MOL0     C12707  11.507   2.224   7.255  0.5693  0.4930 -0.2246
   93MOL0     C12708  11.636   2.143   7.273 -0.3192  0.0959 -0.4040
   93MOL0     C12709  11.763   2.221   7.277  1.2544  0.0047  0.2847
   93MOL0     C12710  11.882   2.125   7.317  0.5841  0.3004  0.1916
   93MOL0     C12711  12.008   2.204   7.329  0.1858 -0.3813 -0.7448
   93MOL0     C12712  12.001   2.289   7.458 -0.1055 -0.0060  0.6969
   93MOL0     N12713  11.983   2.432   7.427  0.0078 -0.6898 -0.5376
   93MOL0     C12714  12.097   2.499   7.387 -0.1082 -0.5031  1.2642
   93MOL0     C12715  12.054   2.630   7.368  0.8934  0.2998  1.1746
   93MOL0     C12716  12.143   2.743   7.345 -0.1598  0.1388  0.7611
   93MOL0     C12717  12.239   2.752   7.463  0.2863 -0.4161 -0.3762
   93MOL0     C12718  12.288   2.894   7.480  1.1451 -0.2705 -0.2587
   93MOL0     C12719  12.391   2.939   7.575 -0.1479 -0.3810 -0.0179
   93MOL0     O12720  12.336   2.919   7.705  0.3734  0.5300  0.3501
   93MOL0     C12721  12.412   2.968   7.813 -0.7714 -0.2195  0.7352
   93MOL0     C12722  12.535   3.041   7.804  0.1249  0.2646 -0.7105
   93MOL0     C12723  12.604   3.091   7.914 -0.0087  0.7544 -0.0773
   93MOL0     C12724  12.724   3.174   7.882 -0.0412  0.0800 -1.6857
   93MOL0     C12725  12.559   3.050   8.042 -0.3019  0.2000 -0.9440
   93MOL0     C12726  12.633   3.082   8.169 -0.4507 -0.1064  1.1243
   93MOL0     O12727  12.606   3.004   8.279  0.2470 -0.5211 -0.8997
   93MOL0     C12728  12.651   3.021   8.407  0.7829  0.6763  0.7115
   93MOL0     C12729  12.549   3.023   8.496  0.7147  0.5343  0.6261
   93MOL0     C12730  12.575   3.054   8.633  0.1410  0.5245  0.2292
   93MOL0     C12731  12.699   3.097   8.674  0.0532 -0.5532 -0.3243
   93MOL0     O12732  12.700   3.117   8.811 -0.3435 -0.2051 -0.2155
   93MOL0     C12733  12.781   3.217   8.877 -0.2735 -0.2059  0.0063
   93MOL0     C12734  12.716   3.360   8.852  0.3082 -0.4239  0.0414
   93MOL0     C12735  12.559   3.363   8.864 -0.0673  0.4697  0.4251
   93MOL0     C12736  12.501   3.308   8.992  0.4159 -1.0003  0.3013
   93MOL0     C12737  12.348   3.312   8.974  0.9837  0.2678 -0.9851
   93MOL0     C12738  12.287   3.246   9.098  0.0877  0.1695 -0.1660
   93MOL0     C12739  12.302   3.098   9.082 -0.3248  0.3899 -0.1196
   93MOL0     C12740  12.194   3.017   9.165 -0.5743 -1.0451  0.0839
   93MOL0    Cl12741  12.207   2.832   9.151  0.0902  0.2347 -0.0076
   93MOL0     C12742  12.803   3.106   8.585 -0.6673 -0.1919 -0.5175
   93MOL0     C12743  12.778   3.073   8.454  0.0679  0.6904  0.1652
   93MOL0     O12744  12.698   3.187   8.173 -0.3497  0.0078  0.7289
   93MOL0     C12745  12.440   2.969   8.053 -0.3335 -0.1118  0.4393
   93MOL0     C12746  12.375   2.932   7.935  0.0495 -0.5470  0.2049
   93MOL0     N12747  11.918   2.629   7.393 -0.5209  0.1879 -0.3415
   93MOL0     N12748  11.876   2.516   7.438  0.1350 -0.2164  1.0186
   93MOL0     C12749  10.942   2.005   7.301 -0.3190  0.1805  0.4532
   93MOL0     C12750  10.805   2.015   7.263 -0.0890 -0.0143 -0.9033
   93MOL0     C12751  10.402   2.047   7.167  0.7087  0.2414  0.7341
   93MOL0     C12752  10.340   2.126   7.270 -0.3565  0.1877  0.4694
   93MOL0     C12753  10.204   2.125   7.302 -0.1124 -0.4908  0.2233
   93MOL0     C12754  10.116   2.038   7.231 -0.2839  0.1344  0.5467
   93MOL0     O12755   9.981   2.033   7.270  0.4647  0.6490  1.4966
   93MOL0     C12756   9.880   1.977   7.175 -1.0128 -0.0707  0.8134
   93MOL0     C12757   9.861   1.827   7.205 -0.2015 -1.0979 -0.2771
   93MOL0     C12758   9.763   1.761   7.106  0.2882  0.3143  0.1897
   93MOL0     C12759   9.715   1.633   7.176 -0.0375  0.5939 -0.4292
   93MOL0     C12760   9.637   1.531   7.098  0.3000 -0.1600 -0.2863
   93MOL0     C12761   9.569   1.457   7.031 -0.2829 -0.2159 -0.3506
   93MOL0     C12762  10.182   1.946   7.140 -0.2688 -0.6581  0.3446
   93MOL0     C12763  10.315   1.949   7.101  0.2699 -0.9754 -0.5809
   93MOL0     C12764  10.374   1.849   7.002  0.2253 -0.3169 -0.0017
   93MOL0     H12765  10.770   2.339   7.185 -2.9165 -0.0989  4.2550
   93MOL0     H12766  11.026   2.332   7.218 -1.2556  0.7384  0.7869
   93MOL0     H12767  11.246   2.296   7.298 -0.8874 -0.0352  0.0791
   93MOL0     H12768  11.233   2.220   7.146 -4.6546  1.2002  1.4903
   93MOL0     H12769  11.400   2.078   7.370 -5.1469 -1.2890  0.3529
   93MOL0     H12770  11.407   2.052   7.200 -0.3726 -0.1706  0.4576
   93MOL0     H12771  11.496   2.272   7.157 -0.3038  0.0646 -0.3405
   93MOL0     H12772  11.479   2.299   7.329 -0.1382  0.6139 -0.6072
   93MOL0     H12773  11.630   2.091   7.369 -3.0927 -1.5092 -1.3306
   93MOL0     H12774  11.650   2.073   7.190  0.9844 -0.1868  0.0319
   93MOL0     H12775  11.754   2.302   7.350  1.5067 -0.8598  1.3114
   93MOL0     H12776  11.770   2.269   7.179  0.9083  0.1794  0.3456
   93MOL0     H12777  11.863   2.077   7.413  3.2864 -1.0516  0.1448
   93MOL0     H12778  11.905   2.046   7.245  0.9927  1.9045 -1.5247
   93MOL0     H12779  12.026   2.272   7.246  1.0885  2.1242  1.3550
   93MOL0     H12780  12.098   2.142   7.343  0.3944  0.5687  3.3671
   93MOL0     H12781  11.931   2.237   7.524  0.0407 -2.3314 -0.8626
   93MOL0     H12782  12.095   2.278   7.513 -0.1702  3.6773  1.7970
   93MOL0     H12783  12.198   2.460   7.372 -0.9191 -2.1264 -0.4825
   93MOL0     H12784  12.079   2.831   7.334 -1.8397 -0.6999  2.8736
   93MOL0     H12785  12.204   2.734   7.255  3.4164 -0.3097  3.0426
   93MOL0     H12786  12.183   2.715   7.550 -1.6095 -0.3847 -1.5330
   93MOL0     H12787  12.328   2.690   7.453 -0.2183 -1.1960 -0.1738
   93MOL0     H12788  12.338   2.915   7.385 -0.4968  2.1259 -0.6980
   93MOL0     H12789  12.215   2.974   7.493 -1.4331 -2.6221  0.8165
   93MOL0     H12790  12.481   2.880   7.554  1.0973  0.5406  2.3511
   93MOL0     H12791  12.411   3.044   7.551  1.1419 -0.3151  1.2069
   93MOL0     H12792  12.585   3.071   7.712  0.4499  2.4453  0.1250
   93MOL0     H12793  12.724   3.256   7.955  0.0576 -1.5819  0.2600
   93MOL0     H12794  12.724   3.225   7.785 -0.9060  5.8910  0.9411
   93MOL0     H12795  12.809   3.108   7.901 -0.0043  0.3459 -0.9113
   93MOL0     H12796  12.451   2.983   8.470  2.0407 -1.7092 -1.2602
   93MOL0     H12797  12.497   3.059   8.709 -0.3793  2.4588 -0.3612
   93MOL0     H12798  12.788   3.184   8.981 -0.1817 -1.2559 -0.3226
   93MOL0     H12799  12.874   3.223   8.820 -1.7213  0.3872 -2.4377
   93MOL0     H12800  12.761   3.429   8.924 -2.6698  0.9590  0.7025
   93MOL0     H12801  12.749   3.397   8.755 -0.6319 -1.0381 -0.5271
   93MOL0     H12802  12.524   3.298   8.785  0.4507 -3.0730  2.8768
   93MOL0     H12803  12.521   3.466   8.856  0.3373  0.6935  1.2242
   93MOL0     H12804  12.532   3.362   9.082 -0.1958  0.8129 -0.5269
   93MOL0     H12805  12.536   3.205   8.997 -0.0915 -1.2883 -1.4006
   93MOL0     H12806  12.313   3.415   8.966  0.5055  0.2592  0.6343
   93MOL0     H12807  12.320   3.260   8.882  0.9646  0.6369 -1.1867
   93MOL0     H12808  12.183   3.281   9.105 -0.3983 -1.2422  0.1377
   93MOL0     H12809  12.336   3.272   9.192 -2.2799 -0.5886  1.3885
   93MOL0     H12810  12.400   3.060   9.111 -0.0650  1.2044  0.0931
   93MOL0     H12811  12.295   3.067   8.977  2.1077 -1.9981  0.3349
   93MOL0     H12812  12.095   3.061   9.153 -0.0773  0.8700  2.1702
   93MOL0     H12813  12.211   3.042   9.270 -1.9800  1.1984 -0.1545
   93MOL0     H12814  12.897   3.155   8.609 -0.8199  0.2371 -0.7805
   93MOL0     H12815  12.857   3.062   8.381 -1.3778 -0.2770 -1.3425
   93MOL0     H12816  12.407   2.922   8.145 -0.0311 -3.8832 -1.2191
   93MOL0     H12817  12.287   2.868   7.939 -1.0437  0.8433 -0.7297
   93MOL0     H12818  10.989   1.918   7.345  1.1304  1.0463  0.6898
   93MOL0     H12819  10.753   1.919   7.268  0.0016 -0.2485 -3.4038
   93MOL0     H12820  10.404   2.197   7.321 -2.2356  1.4254  1.2189
   93MOL0     H12821  10.178   2.198   7.378  2.4773  0.1829  0.5561
   93MOL0     H12822   9.790   2.037   7.189 -0.0916  2.3026 -2.4117
   93MOL0     H12823   9.898   2.007   7.072 -4.6883 -0.7016 -0.1480
   93MOL0     H12824   9.815   1.831   7.304 -2.7008  1.9999 -1.3919
   93MOL0     H12825   9.957   1.776   7.220  0.3175  0.8999  5.9814
   93MOL0     H12826   9.684   1.828   7.070 -0.8629 -0.2859  1.4968
   93MOL0     H12827   9.812   1.720   7.017 -0.0856  2.8796 -1.2938
   93MOL0     H12828   9.649   1.656   7.260  1.2301  0.9660  0.5062
   93MOL0     H12829   9.797   1.577   7.221 -0.9778  0.2643  0.9067
   93MOL0     H12830   9.535   1.376   6.969 -1.7289 -1.8150  2.2794
   93MOL0     H12831  10.130   1.866   7.089 -0.4249  0.7318 -1.8084
   93MOL0     H12832  10.440   1.768   7.034  1.1015 -0.3742 -1.8181
   93MOL0     H12833  10.288   1.812   6.946 -1.7409  1.6676  1.5215
   93MOL0     H12834  10.436   1.899   6.927  2.9845 -1.2654  1.4864
   94MOL0     O12835   2.195   0.016   4.434  0.3370  0.6549  0.2395
   94MOL0     C12836   2.265  -0.078   4.432 -0.2793  0.1547  0.5044
   94MOL0     O12837   2.271  -0.172   4.327 -0.5090 -0.6147 -0.2623
   94MOL0     C12838   2.241  -0.134   4.200  0.2980  0.3877  0.5864
   94MOL0     C12839   2.338  -0.041   4.149  0.7558  0.0990  0.8932
   94MOL0     C12840   2.305   0.018   4.022  0.3323  1.1288 -0.7910
   94MOL0     C12841   2.206  -0.034   3.938 -1.0720  0.2380 -0.3745
   94MOL0     O12842   2.179   0.023   3.813 -0.7908  0.4236  0.1744
   94MOL0     C12843   2.062  -0.005   3.734 -0.5527 -0.7738  0.7532
   94MOL0     C12844   2.053   0.112   3.628  0.4958 -0.5436 -0.2236
   94MOL0     C12845   2.187   0.151   3.554  1.3431  1.1358  0.1849
   94MOL0     C12846   2.217   0.069   3.432  0.5095  0.8033  0.6915
   94MOL0     C12847   2.206  -0.085   3.460 -0.8237  0.1836  0.2526
   94MOL0     C12848   2.255  -0.148   3.344 -0.0064 -0.4569  0.4547
   94MOL0     C12849   2.173  -0.135   3.211 -1.0745 -0.1256 -0.2649
   94MOL0     C12850   2.258  -0.186   3.094  0.3998  0.2774  0.0801
   94MOL0     N12851   2.197  -0.175   2.958  0.3655  0.1249 -0.0913
   94MOL0     C12852   2.118  -0.267   2.904  0.0462  0.2575  0.6054
   94MOL0     C12853   2.106  -0.226   2.774  1.1974  0.7670  0.2864
   94MOL0     C12854   2.032  -0.294   2.658 -0.1234  0.7762  0.5218
   94MOL0     C12855   2.138  -0.350   2.554  0.7509  0.7914 -0.2232
   94MOL0     C12856   2.082  -0.351   2.413  0.0347 -0.4847  0.6601
   94MOL0     C12857   1.938  -0.399   2.384  0.1441 -0.6979  0.2676
   94MOL0     O12858   1.931  -0.541   2.426  0.6938 -0.6589 -0.3717
   94MOL0     C12859   1.846  -0.615   2.346  0.0986  0.6134  0.9000
   94MOL0     C12860   1.883  -0.741   2.314 -0.5437 -0.1811 -0.0299
   94MOL0     C12861   1.799  -0.828   2.244 -0.0793  0.0875 -0.2896
   94MOL0     C12862   1.863  -0.965   2.202  0.0473  0.0928 -0.6134
   94MOL0     C12863   1.665  -0.792   2.223 -0.6317  0.1684 -0.0712
   94MOL0     C12864   1.564  -0.881   2.162 -0.0375  0.3601  0.3878
   94MOL0     O12865   1.606  -0.988   2.096  0.4114 -0.2216  0.5480
   94MOL0     C12866   1.508  -1.075   2.057  1.4162  0.0792 -0.2965
   94MOL0     C12867   1.495  -1.186   2.137  1.2360  0.0486  0.2569
   94MOL0     C12868   1.376  -1.273   2.123  0.1274 -0.7569  1.1449
   94MOL0     C12869   1.304  -1.256   1.994 -0.6519 -0.0065  0.3564
   94MOL0     O12870   1.199  -1.333   1.950  0.1181  0.0191  0.2011
   94MOL0     C12871   1.121  -1.407   2.048 -0.4762 -0.9488  0.7326
   94MOL0     C12872   1.012  -1.467   1.962  0.7999  0.0775 -0.5190
   94MOL0     C12873   0.905  -1.545   2.042  1.1089  0.4691  0.0399
   94MOL0     C12874   0.963  -1.686   2.072  0.0516  0.3985 -0.4021
   94MOL0     C12875   0.861  -1.757   2.158 -0.3284 -0.3941  0.4480
   94MOL0     C12876   0.919  -1.887   2.219  0.2868  0.1865  0.0666
   94MOL0     C12877   0.824  -1.990   2.269  0.2361  0.6558 -0.0711
   94MOL0     C12878   0.728  -1.929   2.372  0.6754  0.3771  0.4064
   94MOL0    Cl12879   0.647  -2.059   2.472 -0.0721  0.3445  0.3048
   94MOL0     C12880   1.337  -1.151   1.908  0.0593  0.5820  0.4180
   94MOL0     C12881   1.431  -1.058   1.948  1.2659 -0.1574 -0.0881
   94MOL0     O12882   1.452  -0.841   2.174 -0.9652  0.6242 -0.1008
   94MOL0     C12883   1.622  -0.662   2.265 -0.7594 -0.5188  0.2703
   94MOL0     C12884   1.714  -0.578   2.330 -0.2765  0.0520  0.2653
   94MOL0     N12885   2.179  -0.117   2.760 -0.6489  0.3277  1.0253
   94MOL0     N12886   2.237  -0.090   2.864 -0.1648 -0.2105  0.4277
   94MOL0     C12887   2.128  -0.139   3.989  0.7554  0.3527  0.0773
   94MOL0     C12888   2.139  -0.182   4.121 -0.5465  0.3058 -0.1950
   94MOL0     C12889   2.352  -0.095   4.554 -0.1097  0.0204 -0.1623
   94MOL0     C12890   2.373   0.021   4.632  0.9438  0.4408  0.2016
   94MOL0     C12891   2.428   0.009   4.759 -0.2370  0.7791 -0.4753
   94MOL0     C12892   2.475  -0.113   4.810  0.8659  0.0900 -0.3398
   94MOL0     O12893   2.520  -0.098   4.942  0.2708  0.1973  0.8493
   94MOL0     C12894   2.499  -0.213   5.023  0.5656 -0.4631 -0.1607
   94MOL0     C12895   2.502  -0.154   5.166  0.6805 -0.1155  0.6705
   94MOL0     C12896   2.463  -0.266   5.268 -0.0997 -0.2025  0.7615
   94MOL0     C12897   2.458  -0.212   5.406 -0.6840 -0.7607 -0.1311
   94MOL0     C12898   2.337  -0.135   5.427  0.4224 -0.0109  0.1379
   94MOL0     C12899   2.237  -0.067   5.450 -0.9416 -0.0947 -0.4032
   94MOL0     C12900   2.463  -0.227   4.731 -0.3252  0.4142  0.3314
   94MOL0     C12901   2.397  -0.221   4.603 -0.2431  0.7097 -0.2435
   94MOL0     C12902   2.377  -0.362   4.535  0.2538 -0.0045 -0.4117
   94MOL0     H12903   2.424  -0.009   4.205  2.1663 -1.6188 -0.1579
   94MOL0     H12904   2.369   0.098   3.987  2.4733 -0.1472  0.0070
   94MOL0     H12905   1.978   0.005   3.803  2.5736  2.0336  4.7396
   94MOL0     H12906   2.056  -0.098   3.679 -2.3117 -0.9147  1.1464
   94MOL0     H12907   1.978   0.088   3.552 -0.1607 -0.1056  0.2735
   94MOL0     H12908   2.029   0.201   3.687 -1.8606 -1.2649 -0.0005
   94MOL0     H12909   2.200   0.259   3.544 -0.4069  1.6762  2.7190
   94MOL0     H12910   2.275   0.139   3.618  0.7202  2.0629  1.2494
   94MOL0     H12911   2.166   0.101   3.341  3.6184  1.0787 -1.0864
   94MOL0     H12912   2.321   0.095   3.413  0.3977  1.4681  0.9544
   94MOL0     H12913   2.099  -0.104   3.473 -0.9851  0.3111 -0.8317
   94MOL0     H12914   2.260  -0.124   3.546 -0.4176 -3.7649 -1.6094
   94MOL0     H12915   2.358  -0.115   3.326 -0.7969  1.2332 -1.3396
   94MOL0     H12916   2.276  -0.253   3.365  0.4575 -0.8607 -1.8102
   94MOL0     H12917   2.144  -0.034   3.183  0.1230  0.5582  0.8698
   94MOL0     H12918   2.085  -0.199   3.226  0.0566 -2.7973 -3.5447
   94MOL0     H12919   2.345  -0.120   3.092  0.3861  0.4727  2.4773
   94MOL0     H12920   2.297  -0.284   3.123 -1.4090 -0.2243  0.9518
   94MOL0     H12921   2.083  -0.359   2.948  2.9452 -1.1067  0.2827
   94MOL0     H12922   1.966  -0.224   2.607 -0.1190  0.9514  0.7540
   94MOL0     H12923   1.975  -0.382   2.690  0.8289 -1.6789 -3.7460
   94MOL0     H12924   2.237  -0.305   2.544  2.2511 -2.1208  0.2659
   94MOL0     H12925   2.174  -0.453   2.568  2.2613  1.0745 -1.6732
   94MOL0     H12926   2.071  -0.243   2.396 -2.6320 -0.2670  3.0706
   94MOL0     H12927   2.160  -0.391   2.348 -1.7321 -1.3603 -1.0275
   94MOL0     H12928   1.869  -0.341   2.447 -0.4497 -2.6291  1.4558
   94MOL0     H12929   1.915  -0.391   2.277  0.5256 -2.8233 -0.0135
   94MOL0     H12930   1.984  -0.776   2.332 -0.1546  0.0120 -1.6974
   94MOL0     H12931   1.971  -0.971   2.216  0.1481  0.0929 -1.3387
   94MOL0     H12932   1.855  -0.982   2.094  1.2331  2.0017 -1.0544
   94MOL0     H12933   1.811  -1.047   2.252 -0.9036  1.1669  0.2064
   94MOL0     H12934   1.556  -1.193   2.227 -0.2609 -1.9183  1.1877
   94MOL0     H12935   1.359  -1.363   2.182  2.1172 -2.1312 -0.2815
   94MOL0     H12936   1.175  -1.489   2.095 -0.1113 -1.0295  0.1789
   94MOL0     H12937   1.067  -1.351   2.125 -2.2015 -0.4714 -0.7576
   94MOL0     H12938   0.963  -1.386   1.907 -1.3563  0.4897  1.8075
   94MOL0     H12939   1.061  -1.533   1.890  0.4837 -0.5470 -0.1746
   94MOL0     H12940   0.806  -1.544   1.994  0.5390  4.5922  0.9228
   94MOL0     H12941   0.888  -1.497   2.139 -0.6792 -0.5776  0.2899
   94MOL0     H12942   1.045  -1.678   2.143 -1.5721 -2.5190  2.0794
   94MOL0     H12943   0.990  -1.741   1.981 -1.9870  0.1688 -0.9336
   94MOL0     H12944   0.834  -1.692   2.242 -3.0924 -0.7773 -0.0283
   94MOL0     H12945   0.776  -1.778   2.092  0.9847 -0.4201 -1.2934
   94MOL0     H12946   0.995  -1.865   2.295  2.1805  1.7611 -2.1062
   94MOL0     H12947   0.971  -1.933   2.134  1.1957  2.6033 -0.7976
   94MOL0     H12948   0.890  -2.064   2.313 -0.8888 -0.0091  0.5559
   94MOL0     H12949   0.760  -2.036   2.193 -4.2784  3.0798  1.8399
   94MOL0     H12950   0.655  -1.859   2.331  0.7277  1.4376  2.0091
   94MOL0     H12951   0.792  -1.873   2.441 -0.4733  0.1969  1.6596
   94MOL0     H12952   1.280  -1.139   1.816 -0.3442 -1.8531  0.2806
   94MOL0     H12953   1.448  -0.967   1.891  0.0270 -0.4821 -1.0299
   94MOL0     H12954   1.521  -0.622   2.253 -0.1672  1.9687  2.5718
   94MOL0     H12955   1.694  -0.479   2.371  5.6644  0.3989  3.4584
   94MOL0     H12956   2.042  -0.182   3.938  0.5047 -4.8595  4.0137
   94MOL0     H12957   2.079  -0.261   4.164  3.1388 -2.3078  0.6140
   94MOL0     H12958   2.339   0.119   4.600  1.2926  1.1426  1.8816
   94MOL0     H12959   2.440   0.092   4.828  1.2618  0.1837  0.0063
   94MOL0     H12960   2.417  -0.279   4.993  0.9757 -1.0849  0.0599
   94MOL0     H12961   2.587  -0.277   5.013  0.6470 -0.1681 -1.4565
   94MOL0     H12962   2.426  -0.075   5.168  2.0205  1.2134  0.6667
   94MOL0     H12963   2.596  -0.104   5.193  0.1497  2.3519 -1.5702
   94MOL0     H12964   2.365  -0.303   5.239  0.3578  0.9591 -2.6577
   94MOL0     H12965   2.536  -0.347   5.256 -0.0784 -0.3561  1.7987
   94MOL0     H12966   2.552  -0.165   5.435 -1.0459  0.4237 -0.7909
   94MOL0     H12967   2.459  -0.297   5.473  1.6579  0.6730  1.8165
   94MOL0     H12968   2.171   0.017   5.467  1.1458  1.6398 -0.4567
   94MOL0     H12969   2.509  -0.322   4.756  1.3174  0.2476 -2.8567
   94MOL0     H12970   2.275  -0.374   4.498  0.4180 -0.0695 -0.8441
   94MOL0     H12971   2.455  -0.372   4.459  1.0550 -0.3581  0.4403
   94MOL0     H12972   2.402  -0.437   4.611 -0.5295  0.7615  0.6269
   95MOL0     O12973   4.790   3.889   4.609 -0.6492 -0.2168 -0.1918
   95MOL0     C12974   4.758   4.004   4.597  0.4308 -0.5057  1.3358
   95MOL0     O12975   4.819   4.087   4.515  0.0706  0.1788  1.4154
   95MOL0     C12976   4.937   4.044   4.450  0.4067 -0.8086 -0.0372
   95MOL0     C12977   4.938   4.038   4.312 -0.5797  0.6589  0.1639
   95MOL0     C12978   5.036   3.969   4.241 -0.3853  0.1630 -0.6716
   95MOL0     C12979   5.158   3.942   4.304  0.0705 -0.9367 -0.1003
   95MOL0     O12980   5.252   3.878   4.243 -0.5734  0.3724  0.3018
   95MOL0     C12981   5.367   3.957   4.198  0.7088  0.3829  0.8221
   95MOL0     C12982   5.490   3.871   4.157 -0.4620  0.2498  0.1761
   95MOL0     C12983   5.562   3.800   4.274  0.6890 -0.1703 -0.1968
   95MOL0     C12984   5.683   3.731   4.217 -0.5253 -0.0353  0.0932
   95MOL0     C12985   5.747   3.627   4.307  0.1793 -0.8860 -0.9036
   95MOL0     C12986   5.867   3.564   4.246 -0.1914  0.1389  0.1201
   95MOL0     C12987   5.822   3.477   4.130  0.5540  0.5889 -0.7765
   95MOL0     C12988   5.919   3.366   4.089 -0.7450  0.2157 -0.0425
   95MOL0     N12989   5.869   3.283   3.976  0.1814  1.2118  0.0108
   95MOL0     C12990   5.847   3.338   3.852 -0.2829  1.0629 -0.2143
   95MOL0     C12991   5.775   3.236   3.801 -0.1736  0.0757  1.1402
   95MOL0     C12992   5.737   3.230   3.659  0.3551 -0.0773 -0.3931
   95MOL0     C12993   5.792   3.101   3.593  0.1547  0.9334 -0.6380
   95MOL0     C12994   5.938   3.110   3.530 -0.5180  0.2918 -0.3524
   95MOL0     C12995   6.035   3.133   3.638 -0.5079 -0.3183 -0.6479
   95MOL0     O12996   6.163   3.121   3.581  0.2114  0.7145 -0.1532
   95MOL0     C12997   6.270   3.120   3.664 -0.3057 -0.4229  0.2596
   95MOL0     C12998   6.270   3.204   3.777 -0.1220  0.4300 -0.8375
   95MOL0     C12999   6.369   3.190   3.873 -0.6607  0.5992 -0.0373
   95MOL0     C13000   6.355   3.284   4.001  0.4680  0.0889  0.3816
   95MOL0     C13001   6.480   3.103   3.854  0.7045 -0.0790  0.7221
   95MOL0     C13002   6.595   3.080   3.945  0.0250 -0.1903 -0.0557
   95MOL0     O13003   6.569   3.087   4.078  0.1683 -0.0510  0.7375
   95MOL0     C13004   6.625   3.007   4.175  0.7053  0.6914 -1.1700
   95MOL0     C13005   6.558   3.007   4.297 -0.0635 -0.2285 -0.0928
   95MOL0     C13006   6.596   2.914   4.390 -0.2002  1.2839  0.2235
   95MOL0     C13007   6.710   2.828   4.377  0.4145  0.1144 -0.6141
   95MOL0     O13008   6.764   2.749   4.472 -0.3197  0.1107 -0.8997
   95MOL0     C13009   6.717   2.615   4.476 -0.5725  0.5483  0.2232
   95MOL0     C13010   6.742   2.528   4.605 -1.1927  0.0844 -0.1157
   95MOL0     C13011   6.899   2.505   4.600  0.3949 -0.2922  0.4680
   95MOL0     C13012   6.945   2.431   4.724  0.6886 -0.1894  0.1586
   95MOL0     C13013   7.097   2.452   4.751 -0.2655 -0.4422 -0.0561
   95MOL0     C13014   7.186   2.368   4.671  0.4529  0.4136  0.9337
   95MOL0     C13015   7.153   2.213   4.669 -0.0069 -0.3135  1.0212
   95MOL0     C13016   7.272   2.141   4.604  0.7842  0.0095  0.0304
   95MOL0    Cl13017   7.194   1.999   4.516 -0.3171  0.2044  0.0760
   95MOL0     C13018   6.783   2.839   4.258 -0.6144  0.3565 -0.7569
   95MOL0     C13019   6.734   2.932   4.156 -0.8287 -1.2190  0.1778
   95MOL0     O13020   6.710   3.066   3.890 -0.2472 -0.2333 -0.6675
   95MOL0     C13021   6.476   3.022   3.731 -0.4023  0.4303  0.7668
   95MOL0     C13022   6.373   3.039   3.634  0.3998  0.7310  0.1779
   95MOL0     N13023   5.756   3.129   3.883  0.1029 -0.1913 -0.2283
   95MOL0     N13024   5.831   3.152   3.992 -0.0326  0.3440  0.6304
   95MOL0     C13025   5.167   3.951   4.448 -0.9025  0.1703  1.4561
   95MOL0     C13026   5.055   3.999   4.512  0.9031 -0.5502 -0.6540
   95MOL0     C13027   4.653   4.068   4.672 -0.9156  0.4365 -0.1757
   95MOL0     C13028   4.678   4.195   4.729 -0.3198 -1.5132  0.0409
   95MOL0     C13029   4.590   4.264   4.807 -0.1333 -0.0198 -0.1578
   95MOL0     C13030   4.472   4.200   4.841 -0.3107 -0.4827  0.0452
   95MOL0     O13031   4.382   4.254   4.932  0.4103 -0.1077  0.6659
   95MOL0     C13032   4.420   4.256   5.067 -0.4102 -0.1867  0.2990
   95MOL0     C13033   4.318   4.335   5.148 -0.2060  0.3908 -0.6289
   95MOL0     C13034   4.337   4.490   5.151  1.3329  0.7211  0.1623
   95MOL0     C13035   4.409   4.548   5.268 -0.1847 -0.6181  0.1533
   95MOL0     C13036   4.330   4.663   5.323 -0.4918  0.4802 -0.0957
   95MOL0     C13037   4.274   4.752   5.384  1.1866  0.9210  0.0563
   95MOL0     C13038   4.434   4.085   4.784 -0.3270  0.9473 -0.4535
   95MOL0     C13039   4.526   4.019   4.704 -0.2424  0.6097  0.2871
   95MOL0     C13040   4.485   3.888   4.639  0.4700 -1.1279 -0.1909
   95MOL0     H13041   4.845   4.057   4.260 -0.6979 -0.0121  0.1216
   95MOL0     H13042   5.024   3.948   4.135 -1.4159  1.4044 -0.8272
   95MOL0     H13043   5.398   4.007   4.290 -1.8880 -3.5515  4.2653
   95MOL0     H13044   5.338   4.034   4.126  2.8566  0.7265  0.2529
   95MOL0     H13045   5.464   3.797   4.081  0.4128 -1.5155  1.5288
   95MOL0     H13046   5.560   3.929   4.097  0.6955 -2.2922 -1.0896
   95MOL0     H13047   5.591   3.866   4.356  0.1043 -1.4738  1.0991
   95MOL0     H13048   5.483   3.742   4.322 -1.4512  0.6704 -2.4975
   95MOL0     H13049   5.649   3.695   4.120 -3.7321  2.0018  0.3102
   95MOL0     H13050   5.767   3.795   4.188 -1.0336  0.6386  0.0672
   95MOL0     H13051   5.674   3.554   4.342 -0.3947  1.5865  3.8804
   95MOL0     H13052   5.767   3.685   4.397 -2.5356 -0.7025 -0.3490
   95MOL0     H13053   5.942   3.635   4.208  0.4258 -0.7080 -0.2651
   95MOL0     H13054   5.912   3.492   4.315 -0.8341 -0.8017 -0.4204
   95MOL0     H13055   5.820   3.547   4.047 -0.1368  0.9044 -0.5029
   95MOL0     H13056   5.726   3.428   4.151  1.2365  0.1993  1.8768
   95MOL0     H13057   6.021   3.400   4.067 -0.7785 -1.0067 -2.4394
   95MOL0     H13058   5.937   3.296   4.171 -0.4516 -3.8227 -3.1973
   95MOL0     H13059   5.876   3.432   3.806 -0.1379  0.1732 -2.0682
   95MOL0     H13060   5.776   3.318   3.607  2.0280 -0.6463 -0.1596
   95MOL0     H13061   5.629   3.211   3.655  0.6202 -1.6522 -1.1265
   95MOL0     H13062   5.795   3.013   3.658  1.9791 -0.1138 -2.0523
   95MOL0     H13063   5.736   3.075   3.503 -0.5189  2.9916 -0.8702
   95MOL0     H13064   5.965   3.010   3.494  1.6812  0.2099  1.2858
   95MOL0     H13065   5.950   3.183   3.449  1.9466  0.1882 -0.1648
   95MOL0     H13066   6.024   3.224   3.697  0.6294  1.8658 -3.5207
   95MOL0     H13067   6.023   3.046   3.702  1.8365  0.4596  0.9785
   95MOL0     H13068   6.186   3.270   3.796  0.2605  1.6314 -2.9829
   95MOL0     H13069   6.283   3.364   3.982 -1.5413 -2.2314 -2.8798
   95MOL0     H13070   6.451   3.325   4.036 -0.8321  1.6111  2.3890
   95MOL0     H13071   6.306   3.235   4.086  2.3451 -1.6366  0.5413
   95MOL0     H13072   6.471   3.069   4.315 -0.1633  1.0874 -3.9973
   95MOL0     H13073   6.532   2.923   4.477  1.0038 -0.7609  1.3944
   95MOL0     H13074   6.608   2.619   4.479 -0.5758 -0.0606  1.6693
   95MOL0     H13075   6.749   2.566   4.384  5.3042 -0.2959  2.3008
   95MOL0     H13076   6.718   2.589   4.693  0.1836  0.2508  0.1686
   95MOL0     H13077   6.680   2.438   4.611 -1.3030 -0.0067 -2.1891
   95MOL0     H13078   6.950   2.601   4.610  3.5441 -1.8611  0.8514
   95MOL0     H13079   6.929   2.457   4.506 -2.2484  1.0104 -1.1510
   95MOL0     H13080   6.924   2.325   4.711  2.0900 -0.1403 -3.9629
   95MOL0     H13081   6.894   2.486   4.804 -0.8502 -0.4575 -0.5916
   95MOL0     H13082   7.123   2.556   4.728 -1.6545  0.3899  1.8698
   95MOL0     H13083   7.119   2.437   4.857  2.4033 -2.0005 -0.7338
   95MOL0     H13084   7.282   2.365   4.722 -0.6809  0.5025  3.1819
   95MOL0     H13085   7.194   2.412   4.571  2.1123  0.2518  0.9678
   95MOL0     H13086   7.072   2.191   4.598  1.9096 -0.5057 -1.2167
   95MOL0     H13087   7.113   2.165   4.758 -2.1279 -1.3814 -0.4164
   95MOL0     H13088   7.328   2.107   4.692 -1.4284 -0.6184  1.2624
   95MOL0     H13089   7.324   2.212   4.538  1.0022 -0.0465  0.1407
   95MOL0     H13090   6.875   2.787   4.233  0.6794  1.4280  1.4714
   95MOL0     H13091   6.806   2.931   4.075  0.7044  0.9097  1.4411
   95MOL0     H13092   6.555   2.946   3.730 -3.0759 -2.5505 -0.2414
   95MOL0     H13093   6.381   2.975   3.546  0.3185 -1.6317  1.7861
   95MOL0     H13094   5.254   3.905   4.494 -0.3866  0.6150  0.9386
   95MOL0     H13095   5.046   3.984   4.619  1.1921  1.2908 -0.3421
   95MOL0     H13096   4.777   4.230   4.703 -1.5973  1.0466 -1.8206
   95MOL0     H13097   4.601   4.366   4.842 -0.1610  0.1927 -0.7707
   95MOL0     H13098   4.414   4.154   5.107 -3.7573  0.6310  2.2577
   95MOL0     H13099   4.522   4.289   5.091  0.4000 -1.2105 -1.4446
   95MOL0     H13100   4.318   4.309   5.254 -0.7943  3.1997  0.1485
   95MOL0     H13101   4.213   4.322   5.119  0.0786  0.8876 -1.9410
   95MOL0     H13102   4.391   4.498   5.057 -1.1565 -4.3461 -2.1073
   95MOL0     H13103   4.239   4.531   5.126  0.3970 -1.4004  0.0982
   95MOL0     H13104   4.509   4.576   5.234 -0.2760  0.7526  0.9607
   95MOL0     H13105   4.421   4.475   5.349 -1.7625 -1.3320 -0.2153
   95MOL0     H13106   4.228   4.835   5.435 -1.3367  0.2781 -1.0239
   95MOL0     H13107   4.347   4.036   4.827  1.4466 -1.5813  0.5263
   95MOL0     H13108   4.386   3.866   4.680  0.2028  1.1317  0.4685
   95MOL0     H13109   4.471   3.885   4.531 -3.5252 -0.1756  0.1582
   95MOL0     H13110   4.549   3.805   4.673  1.4197  0.4584  2.1451
   96MOL0     O13111   7.618   0.448   4.813 -0.3147 -0.0187  0.6825
   96MOL0     C13112   7.595   0.482   4.693 -0.2149  0.4238  0.2207
   96MOL0     O13113   7.677   0.478   4.583 -0.1180  0.0722  0.4939
   96MOL0     C13114   7.809   0.445   4.584  0.2101  0.3639 -0.1233
   96MOL0     C13115   7.881   0.530   4.663 -1.2812 -0.3143 -0.3023
   96MOL0     C13116   8.017   0.520   4.643 -0.2969 -0.6735  0.4678
   96MOL0     C13117   8.090   0.428   4.557  0.1067 -0.8507  0.3658
   96MOL0     O13118   8.228   0.439   4.538  0.0797  0.6547 -0.7267
   96MOL0     C13119   8.271   0.563   4.494 -0.1071  0.4791  0.6942
   96MOL0     C13120   8.426   0.565   4.477 -0.0632  0.5440 -0.5637
   96MOL0     C13121   8.447   0.514   4.334 -0.2039 -0.0224  0.3121
   96MOL0     C13122   8.593   0.469   4.318  0.0638  0.2046 -0.4182
   96MOL0     C13123   8.656   0.477   4.182 -0.8469 -0.3356  0.0078
   96MOL0     C13124   8.655   0.623   4.144  0.6360  0.9125 -0.5566
   96MOL0     C13125   8.765   0.657   4.044  0.1262  0.6816 -0.3805
   96MOL0     C13126   8.899   0.654   4.110  0.5336 -0.0970  0.0230
   96MOL0     N13127   8.989   0.731   4.021  0.5645 -0.4913 -0.1414
   96MOL0     C13128   8.991   0.741   3.882 -0.2956 -0.9780  0.4572
   96MOL0     C13129   9.084   0.832   3.860  0.4764 -0.9208 -0.3743
   96MOL0     C13130   9.144   0.860   3.728  0.0398  0.2433  0.8740
   96MOL0     C13131   9.291   0.805   3.712 -0.7820  0.0236 -0.2588
   96MOL0     C13132   9.383   0.900   3.633 -0.6283 -0.1658 -0.4791
   96MOL0     C13133   9.356   0.873   3.477 -0.4176 -0.7034  0.1863
   96MOL0     O13134   9.391   0.731   3.444 -0.1462  0.2130  0.0854
   96MOL0     C13135   9.378   0.685   3.317 -0.2175  0.0059 -0.0893
   96MOL0     C13136   9.307   0.744   3.212 -0.3962 -0.0777 -0.0468
   96MOL0     C13137   9.295   0.684   3.086  0.5418  0.4487 -0.0255
   96MOL0     C13138   9.214   0.766   2.987  0.4394 -0.0049  0.4595
   96MOL0     C13139   9.326   0.545   3.071 -0.3946 -0.1450 -1.2825
   96MOL0     C13140   9.328   0.472   2.950 -0.2438 -0.6859 -0.3399
   96MOL0     O13141   9.351   0.538   2.840 -1.0321 -0.0528 -0.1327
   96MOL0     C13142   9.383   0.455   2.736 -1.1999 -0.4330  0.0440
   96MOL0     C13143   9.297   0.447   2.627  0.1428 -0.4985  0.5746
   96MOL0     C13144   9.317   0.378   2.511 -0.3483  0.6287 -0.5190
   96MOL0     C13145   9.425   0.292   2.512 -1.0028  0.5362  0.0932
   96MOL0     O13146   9.450   0.207   2.405 -0.9875 -0.9865 -0.0804
   96MOL0     C13147   9.354   0.147   2.321 -0.3262 -0.0150 -0.5876
   96MOL0     C13148   9.399   0.014   2.264 -0.3872  0.4818 -0.6608
   96MOL0     C13149   9.463   0.046   2.122  0.0615  0.1186 -0.0429
   96MOL0     C13150   9.519  -0.074   2.050 -0.1401 -0.3775 -0.0594
   96MOL0     C13151   9.590  -0.047   1.914  0.8704  0.2400 -0.1908
   96MOL0     C13152   9.675  -0.164   1.864  0.6948 -0.0184  0.2383
   96MOL0     C13153   9.580  -0.278   1.829  0.3539 -0.3680 -0.8034
   96MOL0     C13154   9.627  -0.354   1.707 -0.7852 -0.2392  0.0514
   96MOL0    Cl13155   9.799  -0.408   1.728 -0.0061  0.0676 -0.0703
   96MOL0     C13156   9.527   0.290   2.618  0.4735 -0.0432  0.3569
   96MOL0     C13157   9.495   0.368   2.732  0.4409  0.8718 -0.4267
   96MOL0     O13158   9.309   0.349   2.964  1.0211 -0.0229 -0.7080
   96MOL0     C13159   9.397   0.493   3.180  0.1814 -0.9974 -0.5653
   96MOL0     C13160   9.426   0.557   3.300  0.1926  0.5102  0.5313
   96MOL0     N13161   9.148   0.859   3.979  0.3840  0.9074 -0.4570
   96MOL0     N13162   9.094   0.791   4.070 -0.3064 -0.4191 -0.0914
   96MOL0     C13163   8.007   0.334   4.490  0.0259  0.0954  0.2926
   96MOL0     C13164   7.868   0.344   4.506 -0.5240  0.0833 -0.6504
   96MOL0     C13165   7.479   0.564   4.691  1.0514 -0.1593 -0.2839
   96MOL0     C13166   7.498   0.694   4.632 -0.5104  0.2259 -0.5273
   96MOL0     C13167   7.398   0.790   4.628  0.2835 -1.0816  0.0240
   96MOL0     C13168   7.274   0.760   4.685 -0.2491  0.5520 -0.3489
   96MOL0     O13169   7.185   0.856   4.685  1.0906  0.5152 -0.6364
   96MOL0     C13170   7.072   0.834   4.764  0.6062  0.6505 -0.5388
   96MOL0     C13171   6.954   0.772   4.701  0.5558  0.3135  0.5230
   96MOL0     C13172   6.829   0.770   4.804 -0.5576 -0.1514  0.0830
   96MOL0     C13173   6.812   0.637   4.891 -0.7457  0.1716 -0.6499
   96MOL0     C13174   6.925   0.611   4.982 -0.1224 -0.5069 -0.4702
   96MOL0     C13175   7.020   0.570   5.050 -0.0293 -1.1287  0.6246
   96MOL0     C13176   7.249   0.631   4.735  0.8647 -0.4204 -0.3026
   96MOL0     C13177   7.347   0.533   4.736  0.0610 -0.2934 -0.6887
   96MOL0     C13178   7.306   0.400   4.803 -0.2745  0.2582  0.0312
   96MOL0     H13179   7.830   0.606   4.721  0.7395 -0.3659  1.6922
   96MOL0     H13180   8.082   0.579   4.707  0.0078 -1.3063  0.7488
   96MOL0     H13181   8.233   0.647   4.553 -0.6504  2.0280 -1.7175
   96MOL0     H13182   8.222   0.581   4.398  0.7412  1.6482  0.4624
   96MOL0     H13183   8.462   0.668   4.481  2.7045 -0.3301 -0.6440
   96MOL0     H13184   8.471   0.499   4.552 -2.4250 -1.4376 -0.7627
   96MOL0     H13185   8.390   0.421   4.334 -1.8646  0.8008  4.1950
   96MOL0     H13186   8.407   0.585   4.261 -3.7743  0.3573  2.4287
   96MOL0     H13187   8.660   0.532   4.378  1.4429  1.1408 -2.8223
   96MOL0     H13188   8.607   0.368   4.359  2.7454  0.0852 -1.4454
   96MOL0     H13189   8.619   0.403   4.110  1.4380 -2.5448  0.9507
   96MOL0     H13190   8.763   0.462   4.197 -0.9603  0.6145  2.0677
   96MOL0     H13191   8.551   0.629   4.113  0.4095  2.4082  0.3828
   96MOL0     H13192   8.663   0.676   4.239  0.9464  1.4914 -0.9020
   96MOL0     H13193   8.741   0.753   3.998 -2.6346  0.3111  0.0885
   96MOL0     H13194   8.769   0.583   3.964  1.7631  0.8031 -0.4397
   96MOL0     H13195   8.893   0.687   4.214 -2.3131  0.5244 -0.2663
   96MOL0     H13196   8.938   0.552   4.106  2.0870  0.3292  2.2419
   96MOL0     H13197   8.932   0.696   3.803 -0.0525  0.2526 -0.4568
   96MOL0     H13198   9.141   0.967   3.707  1.5882  0.5974  2.2281
   96MOL0     H13199   9.079   0.819   3.650  0.0116  0.0204  1.0141
   96MOL0     H13200   9.347   0.800   3.806 -2.1520  4.6799  1.0618
   96MOL0     H13201   9.283   0.711   3.656  1.1493 -0.0005 -0.5519
   96MOL0     H13202   9.356   1.005   3.646 -0.2985  0.0640 -1.6017
   96MOL0     H13203   9.490   0.888   3.654  0.3227  1.4905 -3.8177
   96MOL0     H13204   9.253   0.896   3.447  0.8910  1.2847 -3.2947
   96MOL0     H13205   9.431   0.934   3.427 -0.8615 -1.2031 -1.1197
   96MOL0     H13206   9.263   0.843   3.220 -3.0916 -0.8045 -3.6339
   96MOL0     H13207   9.190   0.694   2.908  2.3628 -2.5002  1.9662
   96MOL0     H13208   9.262   0.857   2.950  0.2132  1.4551  3.4595
   96MOL0     H13209   9.128   0.802   3.044  1.4598  0.1730  1.9574
   96MOL0     H13210   9.211   0.510   2.648  1.9098  1.1620  3.4357
   96MOL0     H13211   9.248   0.387   2.428 -1.6365 -1.1408  0.3019
   96MOL0     H13212   9.272   0.123   2.390  2.1221  2.1942  3.4651
   96MOL0     H13213   9.314   0.213   2.243  0.4552  0.9341 -0.1995
   96MOL0     H13214   9.474  -0.031   2.329 -0.6068  2.0386  0.7200
   96MOL0     H13215   9.313  -0.054   2.263  1.0572 -1.3895 -1.3766
   96MOL0     H13216   9.550   0.113   2.132  0.1941  0.2535 -1.7669
   96MOL0     H13217   9.391   0.095   2.057 -1.1387 -1.4563  0.0583
   96MOL0     H13218   9.436  -0.145   2.052 -2.3188  2.0065  0.1822
   96MOL0     H13219   9.593  -0.117   2.118  1.3272  2.4702  0.3069
   96MOL0     H13220   9.517  -0.029   1.835 -1.4275  0.7570  1.9178
   96MOL0     H13221   9.661   0.033   1.936 -0.4652  1.2667  0.5313
   96MOL0     H13222   9.751  -0.193   1.936 -0.4744 -0.8454  1.1744
   96MOL0     H13223   9.726  -0.124   1.776  3.4607  0.9687  2.1710
   96MOL0     H13224   9.475  -0.250   1.812  1.0373  2.3764 -0.9603
   96MOL0     H13225   9.587  -0.359   1.903  1.4868 -2.0386 -2.6540
   96MOL0     H13226   9.620  -0.290   1.619 -1.2759  1.1012  1.0209
   96MOL0     H13227   9.567  -0.445   1.698 -2.5917  0.7031  1.6985
   96MOL0     H13228   9.621   0.236   2.620  1.8819  2.1843 -0.7608
   96MOL0     H13229   9.558   0.355   2.819  1.5552 -0.6765 -1.3994
   96MOL0     H13230   9.443   0.396   3.164 -0.1435 -1.2159 -0.1894
   96MOL0     H13231   9.490   0.511   3.374  0.5611  1.6524  0.9451
   96MOL0     H13232   8.046   0.251   4.433 -0.6509 -1.7185  2.3511
   96MOL0     H13233   7.795   0.279   4.461 -2.0667  1.5590 -0.3725
   96MOL0     H13234   7.600   0.718   4.603 -1.3580  2.6515 -1.7329
   96MOL0     H13235   7.429   0.884   4.582  0.3806 -1.2247 -0.2051
   96MOL0     H13236   7.093   0.772   4.851  1.2442  2.2164  0.4787
   96MOL0     H13237   7.028   0.925   4.807 -0.5347 -0.6226  1.1266
   96MOL0     H13238   6.974   0.672   4.663 -2.8527  0.2315 -1.4157
   96MOL0     H13239   6.920   0.834   4.618 -4.4128  1.2316  2.8388
   96MOL0     H13240   6.814   0.861   4.863  0.7399 -0.7372  1.3829
   96MOL0     H13241   6.741   0.771   4.739  1.1404  1.2168 -2.3330
   96MOL0     H13242   6.796   0.552   4.823  0.3907  1.4475 -2.6128
   96MOL0     H13243   6.725   0.656   4.955  0.8236 -0.1216  1.6740
   96MOL0     H13244   7.109   0.549   5.104  0.3872  1.9934  1.3358
   96MOL0     H13245   7.153   0.592   4.766  0.1599  0.2823 -1.5466
   96MOL0     H13246   7.387   0.327   4.802  0.4501  1.0107  1.3562
   96MOL0     H13247   7.288   0.411   4.910  1.5428  2.6262  0.1789
   96MOL0     H13248   7.211   0.365   4.761  0.8540 -2.9245 -0.1048
   97MOL0     O13249   8.988   4.190   5.023 -0.1326  0.2222 -0.1463
   97MOL0     C13250   8.974   4.299   4.972  0.3343 -0.3414 -0.0782
   97MOL0     O13251   9.067   4.398   4.975  0.6436 -1.1817 -0.1153
   97MOL0     C13252   9.192   4.349   5.001  0.0541 -0.3309  0.5046
   97MOL0     C13253   9.257   4.274   4.899 -1.1413  0.8933 -1.0602
   97MOL0     C13254   9.393   4.243   4.912  1.3792 -1.2538  0.9826
   97MOL0     C13255   9.467   4.293   5.019  0.5802  0.3867 -1.7210
   97MOL0     O13256   9.601   4.271   5.027 -0.4717  0.3005  0.1264
   97MOL0     C13257   9.642   4.218   5.155  0.2193 -0.3054  0.6870
   97MOL0     C13258   9.741   4.097   5.158  1.1069  0.2393 -0.8961
   97MOL0     C13259   9.844   4.101   5.038  0.1818 -1.0085  0.0214
   97MOL0     C13260   9.978   4.140   5.102  0.2413 -0.0079 -0.3999
   97MOL0     C13261  10.064   4.026   5.147 -0.2951  0.5483 -0.1225
   97MOL0     C13262  10.132   3.942   5.037  0.1473 -0.3838  0.0511
   97MOL0     C13263  10.190   4.022   4.918 -0.4074 -0.0457  0.1993
   97MOL0     C13264  10.319   4.102   4.965  0.2947 -0.2133  0.1094
   97MOL0     N13265  10.380   4.173   4.854 -0.0171  0.2297 -0.5000
   97MOL0     C13266  10.326   4.287   4.802  0.4265 -0.0154 -1.3415
   97MOL0     C13267  10.412   4.334   4.714 -0.9389  0.2926 -0.5765
   97MOL0     C13268  10.408   4.454   4.623 -0.2544 -0.6186 -0.1746
   97MOL0     C13269  10.338   4.581   4.672 -0.2910 -0.3814 -0.5457
   97MOL0     C13270  10.337   4.676   4.549 -0.1189  0.5782 -0.5687
   97MOL0     C13271  10.318   4.817   4.576  0.8567  0.4091 -0.3824
   97MOL0     O13272  10.404   4.875   4.679 -0.4974 -0.4207  0.3488
   97MOL0     C13273  10.423   5.011   4.696 -0.5639 -0.5704 -1.0683
   97MOL0     C13274  10.358   5.112   4.630 -0.2141  0.2651 -0.1251
   97MOL0     C13275  10.348   5.247   4.679 -0.0640  0.7506  0.7731
   97MOL0     C13276  10.251   5.338   4.620  0.3755 -0.8268 -0.3467
   97MOL0     C13277  10.441   5.282   4.774 -0.0178  0.3011  0.4570
   97MOL0     C13278  10.463   5.426   4.814  0.1721  0.9272  0.8500
   97MOL0     O13279  10.415   5.531   4.739 -0.4780 -0.2754 -0.0977
   97MOL0     C13280  10.416   5.665   4.785  0.8460  0.6358  0.4959
   97MOL0     C13281  10.440   5.757   4.678 -0.1211 -0.3391  0.3374
   97MOL0     C13282  10.419   5.886   4.694 -0.1557 -1.6547 -0.4757
   97MOL0     C13283  10.376   5.938   4.819  0.3608  0.6350 -0.3680
   97MOL0     O13284  10.372   6.068   4.842  0.6087 -0.4048 -0.9300
   97MOL0     C13285  10.284   6.146   4.750  0.0790  0.0102  0.4006
   97MOL0     C13286  10.261   6.281   4.815 -0.3366 -0.8944 -0.0760
   97MOL0     C13287  10.396   6.348   4.867  0.0831  0.6851 -0.5548
   97MOL0     C13288  10.395   6.496   4.868  0.1513 -0.1421 -0.2783
   97MOL0     C13289  10.523   6.565   4.923  0.9912  0.1283  0.5635
   97MOL0     C13290  10.509   6.715   4.928  0.1300 -0.0392  0.2187
   97MOL0     C13291  10.612   6.789   5.021  0.6571 -0.5713  0.2077
   97MOL0     C13292  10.589   6.934   5.016 -0.3290  0.2894 -0.8157
   97MOL0    Cl13293  10.422   6.980   5.068  0.4619  0.0300  0.0459
   97MOL0     C13294  10.368   5.847   4.927  0.2900  0.7051 -0.1013
   97MOL0     C13295  10.369   5.706   4.911 -0.8237  0.7579  0.0105
   97MOL0     O13296  10.532   5.440   4.917 -0.0811  0.0615  0.0162
   97MOL0     C13297  10.507   5.184   4.839 -1.1103  0.1172  0.6657
   97MOL0     C13298  10.500   5.054   4.798 -0.3460 -0.2450  0.7925
   97MOL0     N13299  10.516   4.239   4.713  0.6536 -0.5720  0.7643
   97MOL0     N13300  10.504   4.146   4.800 -0.5781  0.3456  0.0719
   97MOL0     C13301   9.398   4.369   5.116 -0.2090 -2.0156  0.0509
   97MOL0     C13302   9.261   4.396   5.107 -0.9089 -0.0508  0.2962
   97MOL0     C13303   8.838   4.358   4.939 -0.6662  0.5101  0.2753
   97MOL0     C13304   8.827   4.496   4.900  0.7889 -0.3216 -0.4334
   97MOL0     C13305   8.705   4.557   4.864 -0.1815 -0.3920 -0.2106
   97MOL0     C13306   8.583   4.490   4.878 -0.5578 -0.3528 -0.3047
   97MOL0     O13307   8.461   4.553   4.858  0.0307 -0.2207  0.1821
   97MOL0     C13308   8.464   4.692   4.884 -0.2573  0.0061 -0.3705
   97MOL0     C13309   8.333   4.755   4.885  0.5449  0.0697 -0.1423
   97MOL0     C13310   8.349   4.895   4.938  0.8790  0.4198  0.7124
   97MOL0     C13311   8.369   4.909   5.083  0.7171 -0.8875  0.1854
   97MOL0     C13312   8.455   5.015   5.119 -0.2642  0.4436 -1.5010
   97MOL0     C13313   8.535   5.103   5.152  0.7996  0.0944 -1.1214
   97MOL0     C13314   8.594   4.352   4.909 -0.4857  0.4074  0.2263
   97MOL0     C13315   8.719   4.286   4.935  0.0301  0.7164  0.0562
   97MOL0     C13316   8.713   4.138   4.962  0.4302  1.1880 -0.1100
   97MOL0     H13317   9.199   4.248   4.811  0.1769 -1.1439 -1.3882
   97MOL0     H13318   9.442   4.186   4.834 -0.0562  0.9522 -1.7260
   97MOL0     H13319   9.558   4.175   5.210 -0.4520 -0.3695 -0.3587
   97MOL0     H13320   9.686   4.299   5.213  1.5648 -0.9786  0.6518
   97MOL0     H13321   9.785   4.074   5.255  0.6791 -0.7567 -0.9267
   97MOL0     H13322   9.681   4.009   5.131  0.6485  0.6774 -1.3479
   97MOL0     H13323   9.845   4.009   4.980 -0.0785  0.6806 -2.8663
   97MOL0     H13324   9.813   4.182   4.970 -0.8974 -2.7684 -1.6877
   97MOL0     H13325  10.044   4.188   5.029  2.6160  1.1360  2.3239
   97MOL0     H13326   9.970   4.210   5.186  4.3031  0.5703 -0.3351
   97MOL0     H13327  10.011   3.955   5.210  2.4757 -0.6732  1.0035
   97MOL0     H13328  10.141   4.069   5.212  0.8451 -2.1643  0.4694
   97MOL0     H13329  10.215   3.880   5.072 -0.2717 -0.3300  1.1726
   97MOL0     H13330  10.070   3.862   4.996 -1.7553  0.5162  1.0862
   97MOL0     H13331  10.116   4.086   4.869  0.1970 -0.5958 -1.5249
   97MOL0     H13332  10.223   3.948   4.844 -1.0343  0.8450 -1.0057
   97MOL0     H13333  10.291   4.179   5.037  0.5481  0.5779 -0.6097
   97MOL0     H13334  10.388   4.031   5.011 -0.1186 -0.2266  0.7091
   97MOL0     H13335  10.230   4.335   4.819 -1.8484 -3.2586 -3.6529
   97MOL0     H13336  10.349   4.419   4.537 -1.7829 -0.2312  0.6685
   97MOL0     H13337  10.511   4.471   4.590  0.0675 -2.2660 -0.0781
   97MOL0     H13338  10.230   4.574   4.689 -0.3980  0.5522 -0.7515
   97MOL0     H13339  10.382   4.629   4.759  0.8555  0.0830 -1.3559
   97MOL0     H13340  10.434   4.666   4.500  0.4796 -1.5167  0.9288
   97MOL0     H13341  10.263   4.628   4.484  0.7367 -2.4431  0.5211
   97MOL0     H13342  10.311   4.878   4.486 -0.7196  1.3496  0.3431
   97MOL0     H13343  10.217   4.838   4.613  1.4849  5.0414 -0.7670
   97MOL0     H13344  10.287   5.084   4.553 -1.0834  3.4664 -0.6129
   97MOL0     H13345  10.207   5.402   4.697  1.8546 -1.4507  1.0835
   97MOL0     H13346  10.168   5.274   4.588 -0.7678  0.2947  0.2854
   97MOL0     H13347  10.289   5.402   4.541 -0.6227  0.2070 -0.0082
   97MOL0     H13348  10.476   5.715   4.584  2.7143  0.0255  1.1506
   97MOL0     H13349  10.435   5.938   4.600 -0.5408 -0.2358  0.2131
   97MOL0     H13350  10.337   6.151   4.654  1.6370 -1.2208  1.1448
   97MOL0     H13351  10.192   6.090   4.728  0.5478  0.6814 -4.4382
   97MOL0     H13352  10.209   6.345   4.744 -2.9224 -2.6661  0.0756
   97MOL0     H13353  10.199   6.263   4.904 -0.6403  1.7011  0.3116
   97MOL0     H13354  10.473   6.323   4.794 -3.6818 -4.6761 -3.4078
   97MOL0     H13355  10.417   6.304   4.965 -0.2903 -0.0116 -0.7728
   97MOL0     H13356  10.304   6.515   4.924 -0.3784 -2.6273 -0.2111
   97MOL0     H13357  10.385   6.530   4.764  0.8743 -2.5649 -1.2182
   97MOL0     H13358  10.546   6.518   5.019  0.7292  0.0899  0.6082
   97MOL0     H13359  10.610   6.548   4.859  2.3085  1.8301  1.8043
   97MOL0     H13360  10.408   6.745   4.956  0.7246  1.9398  0.4604
   97MOL0     H13361  10.527   6.756   4.829  0.4592  1.0516  0.7075
   97MOL0     H13362  10.716   6.773   4.993  0.8590  1.1093 -0.1375
   97MOL0     H13363  10.590   6.758   5.124  0.3096 -1.0820 -0.0185
   97MOL0     H13364  10.603   6.972   4.914 -2.6817 -0.2846 -1.4224
   97MOL0     H13365  10.656   6.990   5.081 -1.0450  0.9795 -0.6557
   97MOL0     H13366  10.365   5.910   5.016  2.7884  1.3247 -0.3666
   97MOL0     H13367  10.355   5.636   4.992  1.1840 -0.1284 -0.3536
   97MOL0     H13368  10.565   5.205   4.928  1.7122 -0.8432 -0.8331
   97MOL0     H13369  10.541   4.974   4.860 -1.1951  1.0099  3.0859
   97MOL0     H13370   9.453   4.423   5.192 -0.4894 -2.8594  0.8656
   97MOL0     H13371   9.217   4.462   5.180 -0.1876  2.3854 -1.3405
   97MOL0     H13372   8.914   4.561   4.906  1.6700 -1.5929  3.0956
   97MOL0     H13373   8.691   4.660   4.833 -2.5899  1.7879  6.2774
   97MOL0     H13374   8.508   4.708   4.983  0.4056  2.5567 -0.9904
   97MOL0     H13375   8.522   4.741   4.806  1.2319  2.0894  1.8641
   97MOL0     H13376   8.263   4.690   4.938 -0.1603  1.0437  0.1449
   97MOL0     H13377   8.284   4.754   4.787  0.4150  0.8169 -0.0889
   97MOL0     H13378   8.442   4.929   4.893  0.2549  1.8439  0.4360
   97MOL0     H13379   8.262   4.955   4.909  3.1529  2.9469 -1.4181
   97MOL0     H13380   8.396   4.816   5.134  1.0086  0.0747  1.8620
   97MOL0     H13381   8.271   4.929   5.128  0.0123  1.7053 -2.2406
   97MOL0     H13382   8.609   5.176   5.179  0.8880 -0.2034 -0.5598
   97MOL0     H13383   8.496   4.305   4.902  0.5171 -1.5423 -1.9346
   97MOL0     H13384   8.756   4.151   5.062  3.0786  0.1217 -1.0382
   97MOL0     H13385   8.614   4.101   4.990  0.5164 -0.1100 -1.4244
   97MOL0     H13386   8.764   4.069   4.895  0.6144 -1.4297  2.5393
   98MOL0     O13387   6.895   3.491   9.386 -0.5256 -0.0560 -0.0569
   98MOL0     C13388   6.789   3.450   9.432  0.0864  0.7937 -1.3809
   98MOL0     O13389   6.767   3.322   9.488  0.2738 -0.4062  0.9894
   98MOL0     C13390   6.867   3.230   9.506  0.3247 -0.0894  0.0021
   98MOL0     C13391   6.810   3.114   9.562 -0.0770  0.4263 -0.0410
   98MOL0     C13392   6.890   3.005   9.586  0.1239  1.0898 -0.0540
   98MOL0     C13393   7.024   2.997   9.545  0.6280 -0.3031  0.5950
   98MOL0     O13394   7.084   2.870   9.559 -0.0993  0.6528 -0.5184
   98MOL0     C13395   7.212   2.859   9.507 -0.2472  0.2040  0.0030
   98MOL0     C13396   7.266   2.716   9.515 -0.2957 -0.0849 -0.5370
   98MOL0     C13397   7.278   2.672   9.667 -0.0495  0.0051  0.4830
   98MOL0     C13398   7.357   2.543   9.682 -0.1770  0.6619  0.8883
   98MOL0     C13399   7.352   2.496   9.827  0.3640  0.1540 -0.5673
   98MOL0     C13400   7.434   2.379   9.863  0.0682  0.8321  0.5420
   98MOL0     C13401   7.400   2.360  10.014  0.3139 -0.0975 -0.1416
   98MOL0     C13402   7.533   2.363  10.093  0.0400 -0.4848  0.3434
   98MOL0     N13403   7.532   2.379  10.233 -0.6565  0.3181 -0.1433
   98MOL0     C13404   7.652   2.358  10.305  0.0589 -0.7105 -0.8436
   98MOL0     C13405   7.613   2.348  10.430  0.7209  0.0885 -0.0186
   98MOL0     C13406   7.702   2.336  10.548  1.1509  0.1299  0.2553
   98MOL0     C13407   7.738   2.486  10.588 -0.4104  0.3939 -0.2262
   98MOL0     C13408   7.815   2.574  10.484 -0.0280 -0.3269 -0.8440
   98MOL0     C13409   7.885   2.693  10.545  1.2166 -0.1958 -0.5591
   98MOL0     O13410   7.909   2.797  10.455  0.6660  0.4187  0.2292
   98MOL0     C13411   7.978   2.909  10.490 -0.4567 -0.3453  0.1127
   98MOL0     C13412   7.973   2.962  10.613 -0.0984 -0.3124 -0.5784
   98MOL0     C13413   8.069   3.057  10.651 -0.0608  0.4821  0.0004
   98MOL0     C13414   8.053   3.112  10.790 -0.0981 -0.3984  0.0866
   98MOL0     C13415   8.156   3.116  10.561  0.7306 -0.4462 -0.5878
   98MOL0     C13416   8.242   3.229  10.589  0.3662 -0.0703 -1.3617
   98MOL0     O13417   8.204   3.357  10.554  0.5978  0.4755  0.1404
   98MOL0     C13418   8.273   3.467  10.600  0.0101 -1.1475 -0.3342
   98MOL0     C13419   8.342   3.546  10.502  0.3074  0.3788 -0.2917
   98MOL0     C13420   8.408   3.655  10.540  0.7444 -0.2349  0.0091
   98MOL0     C13421   8.408   3.698  10.676  0.6526  0.0574 -0.1580
   98MOL0     O13422   8.476   3.808  10.712 -0.1809  0.2251 -0.4986
   98MOL0     C13423   8.511   3.904  10.617  0.2688  0.3926 -0.5775
   98MOL0     C13424   8.400   4.019  10.592 -0.0911  0.4517  0.4001
   98MOL0     C13425   8.462   4.139  10.522 -0.1022 -0.7547 -0.7018
   98MOL0     C13426   8.362   4.260  10.543 -0.2598 -0.8699  0.4663
   98MOL0     C13427   8.426   4.396  10.565 -0.0552  0.6023  0.1668
   98MOL0     C13428   8.340   4.505  10.503 -0.0736  0.8451 -0.8103
   98MOL0     C13429   8.420   4.636  10.511  0.3185  0.0435  0.6484
   98MOL0     C13430   8.327   4.740  10.458  0.1000 -0.5141 -0.7125
   98MOL0    Cl13431   8.344   4.758  10.278  0.6004  0.1949  0.0251
   98MOL0     C13432   8.335   3.621  10.775 -0.7798 -0.2282  0.2242
   98MOL0     C13433   8.275   3.504  10.739 -0.7665  0.4694  0.1617
   98MOL0     O13434   8.329   3.203  10.668 -0.5887  0.4099 -0.7766
   98MOL0     C13435   8.144   3.081  10.429  0.1749 -0.4412 -0.1973
   98MOL0     C13436   8.050   2.981  10.398  0.2024 -0.4678  0.4574
   98MOL0     N13437   7.469   2.364  10.439 -1.0588 -0.9103  1.3371
   98MOL0     N13438   7.419   2.378  10.313 -0.4815  0.7886 -0.3240
   98MOL0     C13439   7.074   3.108   9.475 -0.5023  0.1031 -0.2251
   98MOL0     C13440   6.999   3.227   9.463 -0.0840  1.0967 -0.3923
   98MOL0     C13441   6.675   3.530   9.399  1.0874 -0.3194  0.6166
   98MOL0     C13442   6.553   3.462   9.391  0.2682 -0.5252 -0.6212
   98MOL0     C13443   6.437   3.540   9.357 -0.5548 -0.2571 -0.8241
   98MOL0     C13444   6.444   3.674   9.323 -0.6621  0.4464 -0.0450
   98MOL0     O13445   6.326   3.747   9.307 -0.4538 -0.4306 -0.1560
   98MOL0     C13446   6.310   3.825   9.181 -0.4970  0.3846  0.1496
   98MOL0     C13447   6.172   3.887   9.170 -0.4782  0.3379 -0.5144
   98MOL0     C13448   6.065   3.799   9.124 -0.4925  0.5128 -0.1552
   98MOL0     C13449   5.925   3.870   9.143 -0.4339 -0.4726  1.1530
   98MOL0     C13450   5.809   3.783   9.088  0.0425 -0.6166 -0.7832
   98MOL0     C13451   5.700   3.739   9.057  0.0945 -0.3383 -0.5964
   98MOL0     C13452   6.560   3.747   9.341  0.1854  0.3063  0.4843
   98MOL0     C13453   6.679   3.674   9.376 -0.1452 -0.8633 -0.7175
   98MOL0     C13454   6.790   3.751   9.427  0.5864 -0.2246  0.3299
   98MOL0     H13455   6.705   3.105   9.589 -0.7919  0.5177 -2.5870
   98MOL0     H13456   6.844   2.920   9.637 -1.4038  1.3439 -0.9208
   98MOL0     H13457   7.275   2.929   9.564 -1.3655 -0.2193  1.8316
   98MOL0     H13458   7.229   2.895   9.405  3.3471  0.7895  0.6853
   98MOL0     H13459   7.198   2.657   9.452  0.8948 -0.0502 -1.9035
   98MOL0     H13460   7.364   2.700   9.469  0.4579  0.1870  0.9212
   98MOL0     H13461   7.346   2.738   9.721  0.5411  0.0830 -0.3217
   98MOL0     H13462   7.176   2.662   9.704 -1.9854  2.4224 -3.5540
   98MOL0     H13463   7.315   2.465   9.617 -0.6428  0.8815  0.9175
   98MOL0     H13464   7.459   2.559   9.648  0.0223  0.0618  1.1924
   98MOL0     H13465   7.246   2.484   9.850  0.4279 -1.6207 -1.0500
   98MOL0     H13466   7.402   2.576   9.881 -0.9874  0.3341  0.4466
   98MOL0     H13467   7.413   2.287   9.808  0.1349  0.9139  0.3809
   98MOL0     H13468   7.537   2.414   9.852  0.1537  1.1714  2.1262
   98MOL0     H13469   7.364   2.258  10.032 -2.8779  1.4179  3.3672
   98MOL0     H13470   7.322   2.422  10.060 -2.5574 -5.0330  2.5006
   98MOL0     H13471   7.581   2.268  10.070 -0.5721 -0.3342 -1.7879
   98MOL0     H13472   7.589   2.452  10.065 -1.3525  0.5947  0.8358
   98MOL0     H13473   7.753   2.349  10.267 -0.2320 -2.1277 -1.3522
   98MOL0     H13474   7.795   2.285  10.522  0.8373  0.5847 -1.9869
   98MOL0     H13475   7.650   2.287  10.631 -0.7951  0.0213 -0.9620
   98MOL0     H13476   7.641   2.531  10.613 -0.1863 -0.8727  3.5392
   98MOL0     H13477   7.812   2.473  10.668  1.3507  1.2739 -1.6493
   98MOL0     H13478   7.890   2.516  10.429  0.5224  0.6751 -1.1830
   98MOL0     H13479   7.742   2.615  10.413 -1.0991  0.0190  0.4328
   98MOL0     H13480   7.824   2.727  10.629  3.2332 -1.1680  1.4172
   98MOL0     H13481   7.977   2.666  10.598 -0.6531 -1.1122  2.4600
   98MOL0     H13482   7.895   2.922  10.677  0.2242 -2.3742 -1.3972
   98MOL0     H13483   8.111   3.059  10.865 -0.9786  1.2806  2.0583
   98MOL0     H13484   7.953   3.135  10.828  0.1597 -1.0345  1.1889
   98MOL0     H13485   8.101   3.209  10.800 -0.1754 -0.5113  1.8011
   98MOL0     H13486   8.341   3.495  10.406  2.9225  0.7931 -0.6179
   98MOL0     H13487   8.483   3.679  10.465 -0.1573 -0.8895 -1.1122
   98MOL0     H13488   8.602   3.946  10.661  0.5901 -3.0812  2.5698
   98MOL0     H13489   8.550   3.870  10.521  0.8392 -1.5897  0.3031
   98MOL0     H13490   8.319   3.972  10.535  0.2312 -0.2915  0.5523
   98MOL0     H13491   8.357   4.035  10.691  1.8016 -2.0799  1.7363
   98MOL0     H13492   8.479   4.122  10.415 -1.4890  0.3803 -1.1254
   98MOL0     H13493   8.553   4.168  10.577 -0.7600 -0.9303  0.5106
   98MOL0     H13494   8.300   4.254  10.633  0.4066  1.7229  1.1712
   98MOL0     H13495   8.295   4.256  10.457  0.2488 -1.5642  0.0888
   98MOL0     H13496   8.427   4.423  10.671 -0.8861  2.1092 -0.1686
   98MOL0     H13497   8.525   4.392  10.520  0.2326  1.6986  0.6737
   98MOL0     H13498   8.253   4.522  10.567 -1.0452  0.8167 -2.0741
   98MOL0     H13499   8.301   4.479  10.404  1.3861  1.7994 -1.6671
   98MOL0     H13500   8.514   4.625  10.456 -0.2768  1.0713 -0.6167
   98MOL0     H13501   8.450   4.660  10.614 -0.3356  0.3944  0.7616
   98MOL0     H13502   8.349   4.836  10.505 -3.3070 -0.3577  0.7954
   98MOL0     H13503   8.222   4.725  10.483 -0.5943  0.6646 -2.7383
   98MOL0     H13504   8.334   3.655  10.878  2.0005 -2.3244  1.0639
   98MOL0     H13505   8.230   3.445  10.818  0.5408  1.8754  2.0220
   98MOL0     H13506   8.205   3.136  10.357 -0.3507  1.9385  1.0744
   98MOL0     H13507   8.050   2.956  10.292  1.0055 -0.0862  0.3554
   98MOL0     H13508   7.173   3.117   9.432  0.7385 -1.9756  1.9628
   98MOL0     H13509   7.055   3.307   9.418  1.6671  1.7911  2.7655
   98MOL0     H13510   6.556   3.354   9.405  0.4873 -0.6080 -1.2611
   98MOL0     H13511   6.343   3.486   9.366  0.0531 -1.0146  2.0456
   98MOL0     H13512   6.395   3.894   9.174  0.6080 -0.3616  4.0902
   98MOL0     H13513   6.320   3.742   9.111 -1.9805 -0.4653  0.9009
   98MOL0     H13514   6.168   3.986   9.124  1.5241 -0.0307 -1.6065
   98MOL0     H13515   6.145   3.906   9.274 -0.2959  0.3230 -0.4632
   98MOL0     H13516   6.068   3.779   9.016 -2.2360  2.1698 -0.5682
   98MOL0     H13517   6.069   3.700   9.170 -0.5105  0.0461 -1.1240
   98MOL0     H13518   5.928   3.961   9.083  3.7699 -1.6856 -0.8389
   98MOL0     H13519   5.913   3.889   9.250 -0.3387  1.5528  0.8377
   98MOL0     H13520   5.603   3.699   9.034 -0.7233 -1.3550  3.7095
   98MOL0     H13521   6.556   3.856   9.345 -5.4101  0.7872 -4.4054
   98MOL0     H13522   6.881   3.727   9.370  0.9540 -4.3078  2.2783
   98MOL0     H13523   6.760   3.855   9.409  1.4948 -0.4720 -3.4347
   98MOL0     H13524   6.795   3.722   9.532  1.9355 -0.7356  0.1495
   99MOL0     O13525   9.623   3.402   3.518  0.5987 -0.5610 -0.1457
   99MOL0     C13526   9.497   3.384   3.495 -1.2103  0.1518  0.1860
   99MOL0     O13527   9.401   3.425   3.581 -0.4122  0.0005 -0.1474
   99MOL0     C13528   9.436   3.498   3.698  0.2526  0.1414  0.7404
   99MOL0     C13529   9.517   3.440   3.803 -0.3195 -0.1582  0.3304
   99MOL0     C13530   9.546   3.523   3.908  0.1084 -0.9220 -1.1569
   99MOL0     C13531   9.479   3.644   3.935 -0.2854  0.3229  0.3655
   99MOL0     O13532   9.481   3.716   4.051  0.8543  0.6192  0.0660
   99MOL0     C13533   9.549   3.661   4.162 -0.3805  1.0873  0.4628
   99MOL0     C13534   9.461   3.563   4.231  0.9051  0.1199  0.9668
   99MOL0     C13535   9.331   3.627   4.285 -0.0668 -0.4882  0.0191
   99MOL0     C13536   9.259   3.529   4.385  0.0644  0.2271 -0.6024
   99MOL0     C13537   9.150   3.446   4.337  0.3596  0.7266  0.8519
   99MOL0     C13538   9.189   3.374   4.199 -0.4982  0.4400 -0.2852
   99MOL0     C13539   9.054   3.314   4.140 -0.7420 -0.6534 -0.4897
   99MOL0     C13540   8.967   3.226   4.238  0.7023  0.1443  1.1725
   99MOL0     N13541   8.859   3.151   4.164  0.5530  0.3106 -0.2070
   99MOL0     C13542   8.759   3.085   4.232 -0.6214  0.2602  0.1888
   99MOL0     C13543   8.660   3.067   4.140  0.0637 -0.3567  0.1349
   99MOL0     C13544   8.545   2.970   4.161 -0.5243 -0.3711  0.3345
   99MOL0     C13545   8.453   3.018   4.279 -0.2649  0.7082  1.0093
   99MOL0     C13546   8.360   2.897   4.319 -0.7950  0.2199 -0.8056
   99MOL0     C13547   8.230   2.943   4.377  0.2546 -0.2875 -0.3389
   99MOL0     O13548   8.154   3.019   4.283 -0.6298 -0.9204  0.5844
   99MOL0     C13549   8.059   2.962   4.203  0.9821 -0.4480 -0.1039
   99MOL0     C13550   8.038   2.819   4.200  0.6318 -1.4208 -0.2365
   99MOL0     C13551   7.947   2.768   4.107  0.2157 -0.1100  0.4886
   99MOL0     C13552   7.919   2.620   4.092 -0.6609  1.9524  0.3707
   99MOL0     C13553   7.873   2.852   4.013  0.3496  0.1083 -0.2461
   99MOL0     C13554   7.792   2.786   3.901  0.8339 -0.4677 -0.5316
   99MOL0     O13555   7.658   2.766   3.906 -0.7570  0.5572  0.2500
   99MOL0     C13556   7.579   2.843   3.985 -0.3846 -0.5130 -0.1657
   99MOL0     C13557   7.531   2.788   4.100  0.6660  0.2097  0.9519
   99MOL0     C13558   7.427   2.854   4.174  0.6703  0.0054 -0.4611
   99MOL0     C13559   7.382   2.984   4.145  0.3894 -0.0355  0.5893
   99MOL0     O13560   7.284   3.042   4.230 -0.0855  0.2342 -1.0153
   99MOL0     C13561   7.248   3.175   4.200 -0.2427  1.0338  0.3352
   99MOL0     C13562   7.178   3.258   4.308 -0.9564  0.4101 -0.3390
   99MOL0     C13563   7.029   3.270   4.279 -0.9441 -0.2889  0.6139
   99MOL0     C13564   6.963   3.382   4.360 -0.4498  0.4690  0.1314
   99MOL0     C13565   6.826   3.417   4.293  0.3259 -1.0517  0.3244
   99MOL0     C13566   6.737   3.507   4.375  0.7341  0.4594 -0.0594
   99MOL0     C13567   6.595   3.505   4.329  0.6434  0.3986  0.0306
   99MOL0     C13568   6.519   3.380   4.372 -0.1318 -0.4764  0.8141
   99MOL0    Cl13569   6.349   3.396   4.291 -0.3520  0.3822 -0.2254
   99MOL0     C13570   7.444   3.039   4.028 -0.0814  0.4392 -0.2802
   99MOL0     C13571   7.542   2.979   3.956 -1.1546 -0.5327  0.7345
   99MOL0     O13572   7.866   2.735   3.820 -0.8411 -0.3884  0.2225
   99MOL0     C13573   7.899   2.989   4.025  0.0023  0.0736 -0.4093
   99MOL0     C13574   7.986   3.041   4.119  1.5908 -0.1875  0.1382
   99MOL0     N13575   8.688   3.139   4.031  0.0908  1.1632 -0.4141
   99MOL0     N13576   8.812   3.186   4.039 -0.1413  0.1260 -0.6632
   99MOL0     C13577   9.393   3.691   3.839  0.3670 -0.6106  0.4325
   99MOL0     C13578   9.369   3.618   3.719  0.4635  0.5792 -1.8447
   99MOL0     C13579   9.455   3.293   3.378 -0.4577  0.1017 -0.0482
   99MOL0     C13580   9.323   3.297   3.334  1.5477  0.5491 -0.2254
   99MOL0     C13581   9.264   3.210   3.233  1.2566  0.3095 -0.0854
   99MOL0     C13582   9.353   3.137   3.163 -0.4568  0.0822 -0.3379
   99MOL0     O13583   9.305   3.074   3.054 -0.1964 -0.0118  0.2375
   99MOL0     C13584   9.374   3.003   2.944 -0.7800  1.0096  0.1644
   99MOL0     C13585   9.478   3.085   2.862  0.9063 -0.5743 -0.0151
   99MOL0     C13586   9.413   3.215   2.816  1.0771  0.1935 -0.1451
   99MOL0     C13587   9.497   3.269   2.705 -0.5369 -0.4334 -0.0862
   99MOL0     C13588   9.438   3.398   2.672 -0.2280  0.6362  0.1995
   99MOL0     C13589   9.376   3.502   2.658  0.8317 -0.3188  0.7638
   99MOL0     C13590   9.487   3.124   3.206 -0.8804 -0.1881 -0.0803
   99MOL0     C13591   9.545   3.208   3.306  0.8172 -0.1956 -0.3185
   99MOL0     C13592   9.701   3.207   3.308 -0.0613 -0.3236  0.4389
   99MOL0     H13593   9.567   3.344   3.791  3.1679  1.6315 -1.0342
   99MOL0     H13594   9.614   3.484   3.983  2.8126  1.1512 -2.3776
   99MOL0     H13595   9.576   3.736   4.237  0.1409  0.8344  0.5331
   99MOL0     H13596   9.639   3.607   4.134 -2.1950 -1.4400 -0.9224
   99MOL0     H13597   9.425   3.490   4.158  3.1638  0.6263 -0.7547
   99MOL0     H13598   9.522   3.511   4.306  1.6219  0.5455  0.6832
   99MOL0     H13599   9.350   3.724   4.332  0.3370 -0.8460  0.6181
   99MOL0     H13600   9.259   3.640   4.204 -0.0115  0.6485  0.1429
   99MOL0     H13601   9.325   3.456   4.431 -2.2736 -1.4532  0.2965
   99MOL0     H13602   9.219   3.585   4.470  0.4376  2.2748 -1.7195
   99MOL0     H13603   9.064   3.512   4.330  0.9481  1.4147 -0.2457
   99MOL0     H13604   9.132   3.372   4.415 -2.9768  0.6665  0.1496
   99MOL0     H13605   9.216   3.440   4.116 -1.0878  1.1580  0.0875
   99MOL0     H13606   9.260   3.292   4.215 -0.1397  1.2528  2.9878
   99MOL0     H13607   9.091   3.252   4.058  2.1555  0.0939  0.1356
   99MOL0     H13608   8.989   3.397   4.114  0.5989  0.4135 -0.5281
   99MOL0     H13609   9.034   3.156   4.290 -0.6249  0.2387  3.1488
   99MOL0     H13610   8.920   3.294   4.310  2.3513  1.4152  1.0932
   99MOL0     H13611   8.770   3.037   4.328  0.9883 -0.2261 -0.2036
   99MOL0     H13612   8.570   2.864   4.172 -1.2911 -1.0872 -3.4101
   99MOL0     H13613   8.489   2.962   4.067  1.1888 -1.3966 -0.6580
   99MOL0     H13614   8.507   3.051   4.368  0.5928 -1.5032  1.3695
   99MOL0     H13615   8.384   3.094   4.241 -0.8224 -0.0220  0.5276
   99MOL0     H13616   8.333   2.826   4.240  0.7159 -0.1736 -0.9832
   99MOL0     H13617   8.408   2.832   4.393 -1.6528 -1.6622 -1.8257
   99MOL0     H13618   8.176   2.856   4.417  2.0573 -1.1512  0.3430
   99MOL0     H13619   8.250   2.989   4.474 -4.1319 -0.4063  0.8303
   99MOL0     H13620   8.103   2.752   4.255  0.4253 -0.5040  1.1661
   99MOL0     H13621   7.963   2.559   4.171  0.4270  0.4396 -1.3565
   99MOL0     H13622   7.974   2.574   4.010 -2.4649  0.9978 -0.3474
   99MOL0     H13623   7.815   2.589   4.103  0.1437 -0.0418  3.5559
   99MOL0     H13624   7.564   2.686   4.116 -1.2367 -0.3563  1.5486
   99MOL0     H13625   7.384   2.809   4.262 -0.4003  1.0637 -0.4162
   99MOL0     H13626   7.339   3.232   4.179 -0.1097  1.0680  1.0059
   99MOL0     H13627   7.184   3.161   4.113  0.7166 -0.9748 -0.1095
   99MOL0     H13628   7.189   3.215   4.408 -0.6621 -1.0264 -0.9644
   99MOL0     H13629   7.227   3.356   4.311  1.8965 -0.8820 -1.5012
   99MOL0     H13630   6.981   3.177   4.312 -0.7973  0.6030  3.6248
   99MOL0     H13631   6.997   3.294   4.178 -1.9545  0.2246  1.0484
   99MOL0     H13632   7.022   3.474   4.368 -3.4113  2.6078 -0.9485
   99MOL0     H13633   6.938   3.351   4.461  1.0563  5.0882  2.2045
   99MOL0     H13634   6.844   3.472   4.200  2.2021 -1.6537  0.2871
   99MOL0     H13635   6.781   3.317   4.287  0.2744 -1.0198  0.1739
   99MOL0     H13636   6.769   3.610   4.390 -2.7191  1.7578 -0.6063
   99MOL0     H13637   6.753   3.467   4.476  1.8755 -1.5202 -0.9675
   99MOL0     H13638   6.585   3.527   4.222  0.0481  0.8803  0.1755
   99MOL0     H13639   6.535   3.579   4.383 -0.2954 -0.8961  0.8219
   99MOL0     H13640   6.513   3.378   4.481 -0.4383 -0.5237  0.8003
   99MOL0     H13641   6.570   3.290   4.337  2.3388  2.0488 -2.6727
   99MOL0     H13642   7.429   3.144   4.004  1.5917  0.8334  0.2953
   99MOL0     H13643   7.591   3.029   3.874 -2.2978 -1.7823 -0.7881
   99MOL0     H13644   7.851   3.049   3.949 -2.7885 -0.3486  0.9052
   99MOL0     H13645   8.011   3.146   4.106 -2.3030  0.9692  0.6606
   99MOL0     H13646   9.343   3.784   3.861  1.6196 -0.3413  2.4303
   99MOL0     H13647   9.304   3.644   3.637  1.0520 -0.8795 -2.8048
   99MOL0     H13648   9.262   3.373   3.381 -4.0463 -4.3409  1.7309
   99MOL0     H13649   9.158   3.210   3.213  0.7569  0.2689  2.3522
   99MOL0     H13650   9.439   2.922   2.978 -0.2539  0.3281 -2.2842
   99MOL0     H13651   9.296   2.962   2.879  1.7076 -2.3802 -1.0050
   99MOL0     H13652   9.502   3.024   2.774  5.8938  0.1346  0.5927
   99MOL0     H13653   9.566   3.112   2.921 -0.3783  0.7701  1.4004
   99MOL0     H13654   9.315   3.186   2.778  0.9606 -1.3959  1.2546
   99MOL0     H13655   9.405   3.278   2.905  0.1374  0.7193 -0.5878
   99MOL0     H13656   9.495   3.196   2.623 -1.7380 -1.3136  0.6871
   99MOL0     H13657   9.597   3.294   2.742 -1.9847  0.3792  3.7854
   99MOL0     H13658   9.325   3.595   2.638  1.5693 -0.3632 -1.5926
   99MOL0     H13659   9.552   3.066   3.141  2.0121  2.1085  0.4964
   99MOL0     H13660   9.742   3.197   3.410  0.4026  1.8820  0.5247
   99MOL0     H13661   9.727   3.109   3.266  0.1249 -0.4436  0.8179
   99MOL0     H13662   9.751   3.288   3.255  2.2392 -2.2996 -0.6142
  100MOL0     O13663   5.869   2.656  10.398 -0.6585 -0.1221 -0.1812
  100MOL0     C13664   5.813   2.619  10.495  0.3519  0.7593 -0.0571
  100MOL0     O13665   5.882   2.586  10.613  0.1619  0.3299 -0.4833
  100MOL0     C13666   6.021   2.598  10.612 -0.2572  0.5221 -0.1951
  100MOL0     C13667   6.101   2.481  10.575 -1.1040 -0.8832 -0.5668
  100MOL0     C13668   6.242   2.500  10.573 -0.7322  0.8776  0.8169
  100MOL0     C13669   6.294   2.624  10.626 -0.7164  0.1405  0.0130
  100MOL0     O13670   6.428   2.629  10.622 -0.4976  0.2204 -0.2335
  100MOL0     C13671   6.499   2.742  10.640  0.2740  0.0843  0.3539
  100MOL0     C13672   6.626   2.727  10.559 -0.3299  0.0360 -0.4645
  100MOL0     C13673   6.603   2.698  10.409  0.0846  0.2128  0.2538
  100MOL0     C13674   6.619   2.840  10.334 -0.5232  0.1050  0.3956
  100MOL0     C13675   6.603   2.847  10.180 -0.2137  0.9427  0.4264
  100MOL0     C13676   6.486   2.754  10.126  0.4680  0.3987  0.6785
  100MOL0     C13677   6.356   2.808  10.176 -1.2740 -0.3747  0.1636
  100MOL0     C13678   6.239   2.703  10.162 -0.0236 -0.3518 -0.0253
  100MOL0     N13679   6.193   2.680  10.033 -0.3470 -0.5755  0.3091
  100MOL0     C13680   6.250   2.592   9.952 -0.7370 -0.2154  0.0730
  100MOL0     C13681   6.172   2.579   9.848  0.2336 -0.5296 -0.2897
  100MOL0     C13682   6.191   2.499   9.727 -0.2465  0.3561  0.0223
  100MOL0     C13683   6.270   2.571   9.621 -1.0184  0.1093  0.5128
  100MOL0     C13684   6.202   2.683   9.540  0.2337 -0.3909  0.3411
  100MOL0     C13685   6.073   2.637   9.480  0.6989  0.0036 -0.3183
  100MOL0     O13686   6.035   2.706   9.364  0.3742 -0.5236 -0.6929
  100MOL0     C13687   5.967   2.822   9.378  0.0989 -0.6942  0.1669
  100MOL0     C13688   5.909   2.891   9.264 -0.0758  0.8098 -1.2097
  100MOL0     C13689   5.861   3.015   9.267 -1.3454  0.2649 -0.0101
  100MOL0     C13690   5.797   3.061   9.137  0.5446  0.1995  0.0687
  100MOL0     C13691   5.853   3.085   9.398 -0.5602  0.2158  0.4168
  100MOL0     C13692   5.793   3.221   9.415 -1.2773 -0.2476 -0.2667
  100MOL0     O13693   5.842   3.302   9.520  0.8592 -0.2261  0.0774
  100MOL0     C13694   5.792   3.428   9.541 -0.0170  0.4928  0.2333
  100MOL0     C13695   5.710   3.455   9.653 -0.2140 -0.5249  0.9597
  100MOL0     C13696   5.665   3.587   9.679  0.3964  0.3381 -0.6575
  100MOL0     C13697   5.703   3.690   9.595 -0.2459 -0.5481  0.5687
  100MOL0     O13698   5.677   3.823   9.617 -0.4321  0.1340  0.0551
  100MOL0     C13699   5.620   3.865   9.743 -0.1004 -0.9653  0.8365
  100MOL0     C13700   5.575   4.003   9.717  1.1053 -0.0409  0.2012
  100MOL0     C13701   5.482   4.012   9.593 -0.3394  0.1618 -0.0896
  100MOL0     C13702   5.551   4.031   9.452 -0.2752  0.8282 -0.9807
  100MOL0     C13703   5.450   4.093   9.353  0.0112  0.3120  0.5424
  100MOL0     C13704   5.338   4.011   9.306  0.5253  0.0244  0.0707
  100MOL0     C13705   5.386   3.876   9.249 -0.3301 -0.1615 -0.2323
  100MOL0     C13706   5.268   3.805   9.166 -0.3070 -0.1686 -0.1860
  100MOL0    Cl13707   5.351   3.684   9.061 -0.4456  0.2012 -0.0293
  100MOL0     C13708   5.787   3.664   9.486 -0.7845 -0.2382 -0.5992
  100MOL0     C13709   5.823   3.534   9.459  0.1541  0.3001 -0.0619
  100MOL0     O13710   5.705   3.256   9.342  0.0774  0.2357  0.7536
  100MOL0     C13711   5.892   3.010   9.507 -1.2628  0.5041 -0.1533
  100MOL0     C13712   5.949   2.884   9.496  0.3598 -0.8170 -0.7386
  100MOL0     N13713   6.070   2.675   9.862 -0.5593  0.1152  0.0017
  100MOL0     N13714   6.084   2.737   9.976 -0.5194  0.1574  0.3009
  100MOL0     C13715   6.210   2.727  10.657  0.2030 -0.5861  0.7038
  100MOL0     C13716   6.070   2.722  10.649 -0.1962  0.8861  0.2683
  100MOL0     C13717   5.666   2.590  10.501 -0.0038  0.4289  0.8100
  100MOL0     C13718   5.586   2.561  10.619 -0.7606  0.7857  0.0336
  100MOL0     C13719   5.450   2.540  10.624  0.4600 -0.7497  0.0202
  100MOL0     C13720   5.377   2.521  10.502 -0.6524  0.0376 -0.2260
  100MOL0     O13721   5.239   2.489  10.495 -0.5820 -0.7370  0.2808
  100MOL0     C13722   5.157   2.469  10.611  0.1324  0.4890 -0.6636
  100MOL0     C13723   5.015   2.438  10.558 -0.6552  0.4968 -1.8260
  100MOL0     C13724   4.912   2.419  10.660  0.3904  0.3501 -0.9208
  100MOL0     C13725   4.768   2.430  10.595  0.0324  0.2883 -1.5124
  100MOL0     C13726   4.668   2.377  10.685  0.5163 -0.1305  0.0812
  100MOL0     C13727   4.570   2.331  10.734  0.9661  0.2981 -0.2681
  100MOL0     C13728   5.447   2.551  10.375 -0.3049  0.3704 -0.2749
  100MOL0     C13729   5.589   2.587  10.377  0.0719  0.1016  0.6604
  100MOL0     C13730   5.642   2.622  10.240 -0.4307  0.4147  0.3942
  100MOL0     H13731   6.074   2.388  10.526  2.4463 -0.2477 -4.4030
  100MOL0     H13732   6.304   2.421  10.533 -0.2289  1.1545  1.0328
  100MOL0     H13733   6.521   2.759  10.746  1.1327  1.2165 -0.0020
  100MOL0     H13734   6.453   2.838  10.615  0.9050  0.2758 -0.0740
  100MOL0     H13735   6.680   2.822  10.569 -1.5954  0.7064  0.1039
  100MOL0     H13736   6.693   2.653  10.604 -0.0534  1.2900  1.2990
  100MOL0     H13737   6.676   2.627  10.369  1.1963  0.0860  2.3979
  100MOL0     H13738   6.504   2.656  10.390 -0.4506  1.9706 -1.2121
  100MOL0     H13739   6.549   2.908  10.382  1.2938  0.5542  2.5886
  100MOL0     H13740   6.714   2.886  10.365 -0.7605  2.4506 -1.9898
  100MOL0     H13741   6.699   2.823  10.134 -0.7813  3.5754 -2.5114
  100MOL0     H13742   6.588   2.951  10.148 -1.7219  1.0881  1.5006
  100MOL0     H13743   6.500   2.754  10.017  2.3976 -1.4292  0.8568
  100MOL0     H13744   6.498   2.653  10.165  0.4758 -0.2309 -0.8836
  100MOL0     H13745   6.327   2.891  10.112 -1.5222 -0.0331  0.7051
  100MOL0     H13746   6.359   2.849  10.278 -3.2051 -0.4738  0.3026
  100MOL0     H13747   6.266   2.602  10.197 -0.8391 -0.5711 -0.0004
  100MOL0     H13748   6.158   2.741  10.225  3.4046  1.6408  3.6630
  100MOL0     H13749   6.341   2.536   9.969  0.3192  1.1040 -0.9428
  100MOL0     H13750   6.092   2.479   9.684 -0.6211  1.7798  0.1743
  100MOL0     H13751   6.234   2.400   9.746  1.1933  0.9729  0.0555
  100MOL0     H13752   6.361   2.610   9.667 -2.8127  0.2948  4.2609
  100MOL0     H13753   6.303   2.499   9.545  3.3243  0.2885  1.9619
  100MOL0     H13754   6.184   2.760   9.616  1.1596  0.0864  0.0870
  100MOL0     H13755   6.266   2.724   9.461  1.9003 -1.8770  0.8616
  100MOL0     H13756   6.100   2.538   9.442 -0.3910 -1.3166  2.1181
  100MOL0     H13757   5.991   2.621   9.550  1.3045 -2.1676 -0.0361
  100MOL0     H13758   5.912   2.833   9.172  1.2706 -0.8530 -0.1852
  100MOL0     H13759   5.693   3.028   9.129  0.7982 -1.2317  2.0190
  100MOL0     H13760   5.848   3.011   9.054 -2.4227 -1.7963 -0.7273
  100MOL0     H13761   5.791   3.168   9.116  0.5846  0.2170  0.1461
  100MOL0     H13762   5.688   3.379   9.727 -1.3518 -0.6503  0.4964
  100MOL0     H13763   5.602   3.603   9.766 -1.0762 -1.6934 -1.2691
  100MOL0     H13764   5.530   3.809   9.770 -2.1526  0.4416 -2.4855
  100MOL0     H13765   5.693   3.869   9.825  1.9753 -1.6021 -0.8750
  100MOL0     H13766   5.522   4.043   9.804  2.5535 -2.1422  2.2062
  100MOL0     H13767   5.651   4.078   9.695  0.0786  1.9353  2.9017
  100MOL0     H13768   5.416   4.098   9.609  3.2716  2.9028  1.5504
  100MOL0     H13769   5.425   3.919   9.589 -2.0881  1.1793 -0.0823
  100MOL0     H13770   5.589   3.936   9.415  1.7739  0.9911  0.5083
  100MOL0     H13771   5.633   4.102   9.465  0.8408  0.3913 -4.6319
  100MOL0     H13772   5.426   4.191   9.394  0.6610  0.4598  0.5845
  100MOL0     H13773   5.500   4.097   9.256  1.1747 -1.3485  1.0325
  100MOL0     H13774   5.299   4.071   9.223 -1.2299 -3.8360 -2.1841
  100MOL0     H13775   5.261   3.987   9.381  0.6070 -1.9832 -0.4255
  100MOL0     H13776   5.422   3.803   9.322 -3.3714 -2.7213 -1.0672
  100MOL0     H13777   5.459   3.903   9.173 -2.1769  1.7507 -1.4640
  100MOL0     H13778   5.212   3.880   9.108 -0.7879 -0.1779  0.2564
  100MOL0     H13779   5.192   3.751   9.223  1.8450 -1.0418  1.9969
  100MOL0     H13780   5.814   3.751   9.426 -0.2293 -0.4879 -0.7151
  100MOL0     H13781   5.884   3.509   9.372 -2.5892 -3.9861 -1.1008
  100MOL0     H13782   5.892   3.051   9.607  2.0733 -2.7386  1.4157
  100MOL0     H13783   5.957   2.843   9.596 -0.0328 -2.5017 -1.3656
  100MOL0     H13784   6.255   2.823  10.681  2.7659 -1.8032  1.1104
  100MOL0     H13785   6.013   2.812  10.668  1.6474  2.1234  0.1158
  100MOL0     H13786   5.653   2.553  10.705  0.1134 -1.1690 -0.7628
  100MOL0     H13787   5.413   2.527  10.725  3.5373 -4.3212  0.9292
  100MOL0     H13788   5.192   2.380  10.664 -0.9287 -0.0066 -0.7812
  100MOL0     H13789   5.156   2.553  10.682 -0.9610 -0.4437  0.4677
  100MOL0     H13790   5.030   2.343  10.505  0.6342 -0.8349  0.7369
  100MOL0     H13791   4.994   2.522  10.491  1.2968  4.0682  1.5998
  100MOL0     H13792   4.919   2.320  10.706  0.2263  1.5530  1.9016
  100MOL0     H13793   4.925   2.495  10.737 -1.5191  1.5030 -1.6602
  100MOL0     H13794   4.774   2.380  10.498  1.2920 -1.6816 -0.4872
  100MOL0     H13795   4.745   2.534  10.567 -4.8121 -0.5611 -1.5708
  100MOL0     H13796   4.478   2.294  10.775  1.1783  0.8004  0.7047
  100MOL0     H13797   5.382   2.556  10.287 -0.7333 -2.6649 -0.2107
  100MOL0     H13798   5.696   2.533  10.206  2.0931  1.9341  0.2176
  100MOL0     H13799   5.573   2.638  10.157 -1.0095 -0.7798  0.6112
  100MOL0     H13800   5.706   2.709  10.251  0.1337 -0.0766  1.0690
  101MOL0     O13801   1.296   8.213   7.765  0.7917 -0.2643 -0.4919
  101MOL0     C13802   1.184   8.243   7.791  0.0119  0.5811  0.1440
  101MOL0     O13803   1.147   8.356   7.862 -0.7239 -0.1759 -0.6633
  101MOL0     C13804   1.234   8.465   7.886 -0.4999  0.5192  0.0488
  101MOL0     C13805   1.167   8.587   7.871 -0.8844 -0.0344  0.9927
  101MOL0     C13806   1.229   8.705   7.904  0.6477 -1.2055 -0.1605
  101MOL0     C13807   1.353   8.702   7.964  0.8212  0.6056  0.6747
  101MOL0     O13808   1.429   8.808   8.004  0.4709  0.4756  0.0591
  101MOL0     C13809   1.385   8.946   8.000  0.5622 -0.4401  0.1803
  101MOL0     C13810   1.348   8.988   8.133  0.4228  0.2185 -0.8916
  101MOL0     C13811   1.478   8.998   8.222 -0.3010  0.2990  1.0263
  101MOL0     C13812   1.540   9.141   8.222  0.8166 -0.1073  0.7117
  101MOL0     C13813   1.641   9.167   8.340  0.1843 -0.1357 -0.9051
  101MOL0     C13814   1.728   9.294   8.326 -0.9152 -0.4075 -0.4176
  101MOL0     C13815   1.645   9.425   8.335 -0.3852  0.1187 -0.9724
  101MOL0     C13816   1.730   9.542   8.387  0.8174 -0.5123 -0.5860
  101MOL0     N13817   1.832   9.570   8.288  0.5570  0.1396 -0.1373
  101MOL0     C13818   1.970   9.530   8.296 -0.3210  0.3001 -0.5550
  101MOL0     C13819   2.033   9.569   8.176  1.2975 -1.0445  0.6744
  101MOL0     C13820   2.173   9.551   8.126 -0.3025  0.8054 -0.9024
  101MOL0     C13821   2.177   9.560   7.973 -0.0671 -0.4681 -0.0929
  101MOL0     C13822   2.169   9.715   7.927  0.4644  0.2824 -0.2198
  101MOL0     C13823   2.171   9.742   7.777  0.0353 -0.8929 -0.0635
  101MOL0     O13824   2.190   9.877   7.734 -0.4262  0.0823  0.3191
  101MOL0     C13825   2.138   9.905   7.606  0.1541  0.5535  0.5073
  101MOL0     C13826   2.118  10.039   7.587  0.9296  0.3100  0.6123
  101MOL0     C13827   2.049  10.087   7.470 -0.3532 -0.4480 -0.5085
  101MOL0     C13828   2.039  10.239   7.462 -0.1277 -0.1134 -0.4206
  101MOL0     C13829   2.014  10.000   7.366  0.2459  0.0119 -1.0448
  101MOL0     C13830   1.939  10.046   7.242  0.6512  1.5741 -0.6293
  101MOL0     O13831   1.969   9.964   7.141  0.6377 -0.6677  0.2311
  101MOL0     C13832   1.943  10.017   7.019 -0.2879  0.4474  0.7204
  101MOL0     C13833   1.810  10.037   6.990 -0.1366 -0.8996  0.1992
  101MOL0     C13834   1.773  10.097   6.871 -0.0472  0.6339  0.3712
  101MOL0     C13835   1.868  10.143   6.780 -0.7235  0.1404  0.6385
  101MOL0     O13836   1.842  10.190   6.656  0.6552 -0.2430 -0.1700
  101MOL0     C13837   1.718  10.151   6.599 -0.2763 -0.0578  0.5624
  101MOL0     C13838   1.717  10.194   6.459  1.1081  0.0429  0.1854
  101MOL0     C13839   1.582  10.192   6.387 -1.4997  0.6694 -0.4071
  101MOL0     C13840   1.615  10.204   6.233  0.1757 -0.0854  1.1313
  101MOL0     C13841   1.476  10.193   6.158 -0.4152 -0.5495 -0.0979
  101MOL0     C13842   1.450  10.049   6.116  0.5041  0.2344 -0.4335
  101MOL0     C13843   1.327  10.020   6.023  0.5236  0.2157 -0.6794
  101MOL0     C13844   1.337   9.879   5.965 -0.2259  0.5771  0.3719
  101MOL0    Cl13845   1.185   9.817   5.913  0.2047  0.1771  0.0545
  101MOL0     C13846   2.005  10.139   6.823  0.4881 -0.4694 -0.2851
  101MOL0     C13847   2.049  10.079   6.942 -0.1186 -0.0236 -0.2847
  101MOL0     O13848   1.854  10.130   7.240  0.8124  0.1822 -1.0881
  101MOL0     C13849   2.041   9.860   7.384  0.2486  0.1898 -0.0258
  101MOL0     C13850   2.090   9.815   7.511 -0.1108 -0.5996  0.7136
  101MOL0     N13851   1.928   9.632   8.100 -0.7181 -0.0128  0.0980
  101MOL0     N13852   1.816   9.634   8.162  0.3898  0.3883 -1.3567
  101MOL0     C13853   1.414   8.581   7.982 -0.9090 -0.0505 -0.2391
  101MOL0     C13854   1.363   8.466   7.942  0.5216 -0.1745  1.2319
  101MOL0     C13855   1.080   8.147   7.767 -1.1420  0.2044 -0.3936
  101MOL0     C13856   0.969   8.143   7.862  0.7776  0.3584 -0.1743
  101MOL0     C13857   0.876   8.041   7.868  0.0990 -0.2764  0.7531
  101MOL0     C13858   0.884   7.938   7.772  0.3207  0.7600  0.1023
  101MOL0     O13859   0.794   7.833   7.795  0.1735 -0.0865  0.1498
  101MOL0     C13860   0.783   7.715   7.710 -0.0114 -0.3150  0.7203
  101MOL0     C13861   0.654   7.713   7.618 -0.9230 -0.0500  0.0903
  101MOL0     C13862   0.645   7.848   7.533  0.8621 -0.5704  0.6894
  101MOL0     C13863   0.593   7.822   7.390 -0.0313  0.4424  0.4868
  101MOL0     C13864   0.701   7.749   7.323  0.5184  0.4879  1.0663
  101MOL0     C13865   0.789   7.684   7.276  0.2877 -0.2261  0.7927
  101MOL0     C13866   0.972   7.953   7.665  0.3286 -0.2690  0.0827
  101MOL0     C13867   1.088   8.043   7.668  0.2540  0.3918  0.0333
  101MOL0     C13868   1.187   8.036   7.543 -0.2302  0.2641 -0.2804
  101MOL0     H13869   1.063   8.590   7.840 -0.3813  3.0270 -0.6951
  101MOL0     H13870   1.185   8.800   7.875  3.1386  0.2323  0.4522
  101MOL0     H13871   1.300   8.962   7.934  0.4125 -2.0035 -0.0356
  101MOL0     H13872   1.471   9.004   7.966  1.0650  0.8556  3.2968
  101MOL0     H13873   1.298   9.085   8.142 -0.0977 -0.2072  1.5986
  101MOL0     H13874   1.273   8.919   8.172  1.7943  0.3508  2.2885
  101MOL0     H13875   1.441   8.980   8.324 -1.0894  0.0103  0.6948
  101MOL0     H13876   1.558   8.925   8.206 -1.7466 -1.6645  2.2851
  101MOL0     H13877   1.583   9.157   8.122  2.3266 -0.2207  1.3243
  101MOL0     H13878   1.469   9.220   8.250  2.9865  2.3901 -0.4212
  101MOL0     H13879   1.704   9.078   8.352 -1.3435 -1.3306 -1.2794
  101MOL0     H13880   1.590   9.183   8.436  0.2719  0.8947 -1.0204
  101MOL0     H13881   1.801   9.299   8.408  0.9993 -1.1421 -1.9824
  101MOL0     H13882   1.792   9.290   8.238  0.4640  1.0223  0.4404
  101MOL0     H13883   1.566   9.413   8.409  0.8950  3.8463  1.2625
  101MOL0     H13884   1.599   9.449   8.238 -0.7254 -1.9112 -1.3505
  101MOL0     H13885   1.661   9.627   8.392 -1.3601 -2.1816 -1.1980
  101MOL0     H13886   1.767   9.523   8.488 -2.6807  0.2286  0.9855
  101MOL0     H13887   2.023   9.481   8.377  2.6843  0.7100 -2.1093
  101MOL0     H13888   2.214   9.455   8.160 -0.2476  0.0241 -3.0171
  101MOL0     H13889   2.249   9.621   8.160  1.0266 -0.5353 -1.0049
  101MOL0     H13890   2.268   9.518   7.930 -0.2803  0.5709 -1.6326
  101MOL0     H13891   2.098   9.500   7.928  1.0468 -2.0315 -0.0485
  101MOL0     H13892   2.079   9.763   7.967  1.1392  1.0980  0.3600
  101MOL0     H13893   2.255   9.769   7.968 -0.0427  1.3523 -0.5245
  101MOL0     H13894   2.237   9.667   7.734 -0.2075 -1.2704  0.2151
  101MOL0     H13895   2.074   9.700   7.748 -1.3163  1.3460  0.9467
  101MOL0     H13896   2.158  10.111   7.658  1.2012 -0.2084  0.9952
  101MOL0     H13897   2.105  10.282   7.537 -0.1177  0.0111 -0.5024
  101MOL0     H13898   1.939  10.266   7.499 -0.8604 -1.4598 -1.3041
  101MOL0     H13899   2.055  10.279   7.361  2.0053 -1.7918 -0.8417
  101MOL0     H13900   1.726   9.999   7.047 -3.2775  1.1784 -2.6382
  101MOL0     H13901   1.666  10.114   6.864 -0.0134  0.6587 -0.1088
  101MOL0     H13902   1.692  10.045   6.607 -0.0128 -0.0594  1.6204
  101MOL0     H13903   1.641  10.212   6.648 -0.5397  0.6022 -0.6547
  101MOL0     H13904   1.758  10.295   6.456  1.1743  0.0367 -2.8488
  101MOL0     H13905   1.783  10.131   6.398 -2.0772 -1.0313 -2.4929
  101MOL0     H13906   1.526  10.280   6.419 -2.7492 -0.8161  1.7239
  101MOL0     H13907   1.532  10.098   6.411 -1.3132  0.1850 -1.8309
  101MOL0     H13908   1.686  10.125   6.206  0.2558  0.6387 -1.0303
  101MOL0     H13909   1.658  10.299   6.199  0.2475  0.4614  2.6826
  101MOL0     H13910   1.394  10.205   6.230 -0.1621 -4.1332  1.0112
  101MOL0     H13911   1.465  10.272   6.083 -2.8830  0.8169  1.5474
  101MOL0     H13912   1.442   9.991   6.208  1.4175  0.8464  0.0477
  101MOL0     H13913   1.543  10.006   6.076  0.1414 -0.3882 -0.6143
  101MOL0     H13914   1.328  10.095   5.943 -0.0570  0.2172 -0.6929
  101MOL0     H13915   1.229  10.023   6.071  0.6542  0.1016 -0.4057
  101MOL0     H13916   1.369   9.800   6.034 -3.3840 -0.3299  0.9276
  101MOL0     H13917   1.406   9.887   5.880  0.2185  6.5191  0.8842
  101MOL0     H13918   2.084  10.169   6.755  0.8419 -0.4443  0.1321
  101MOL0     H13919   2.155  10.080   6.964 -0.1315  2.4429 -0.0537
  101MOL0     H13920   2.005   9.779   7.321  0.2388 -1.0089  1.4721
  101MOL0     H13921   2.114   9.710   7.521 -0.0002 -0.4838  1.9130
  101MOL0     H13922   1.510   8.598   8.031 -1.6725  4.0894  0.2393
  101MOL0     H13923   1.407   8.370   7.967 -3.2797 -2.5706 -0.3386
  101MOL0     H13924   0.948   8.230   7.923  3.5976  1.8191 -1.0725
  101MOL0     H13925   0.793   8.037   7.938 -2.1377 -0.1046 -1.7485
  101MOL0     H13926   0.875   7.685   7.660 -0.0713  1.1003 -0.3072
  101MOL0     H13927   0.769   7.627   7.774 -0.9640 -1.7051 -1.2941
  101MOL0     H13928   0.564   7.711   7.680  0.4843 -0.5359  2.2444
  101MOL0     H13929   0.654   7.625   7.552  4.4092  0.1840 -0.6458
  101MOL0     H13930   0.577   7.914   7.590  2.0273 -0.2811  1.7920
  101MOL0     H13931   0.736   7.906   7.521 -0.5215  1.2685 -1.6934
  101MOL0     H13932   0.575   7.910   7.327  1.0095 -1.1198 -2.1202
  101MOL0     H13933   0.497   7.771   7.382 -0.8856  2.2861 -4.5998
  101MOL0     H13934   0.863   7.634   7.217 -0.8384 -0.7650 -0.2154
  101MOL0     H13935   0.981   7.864   7.603  0.2281 -1.5010  1.7639
  101MOL0     H13936   1.137   7.965   7.477 -2.6648  0.8389  0.8075
  101MOL0     H13937   1.190   8.133   7.491 -0.5551  0.5398  0.2049
  101MOL0     H13938   1.281   7.988   7.570 -1.2193 -0.3041  2.5440
  102MOL0     O13939   4.041   4.879   3.030 -0.8016  0.2780 -0.0038
  102MOL0     C13940   4.130   4.804   2.985 -0.5503 -0.1478  0.2928
  102MOL0     O13941   4.131   4.666   2.989 -0.0203  0.1813  0.2858
  102MOL0     C13942   4.044   4.606   3.076  0.3747  0.8454  0.5964
  102MOL0     C13943   4.092   4.490   3.140 -0.1242 -0.1699  0.0722
  102MOL0     C13944   4.027   4.409   3.221 -0.2006 -0.1836  0.2329
  102MOL0     C13945   3.886   4.434   3.255 -0.0727 -0.7104 -0.3088
  102MOL0     O13946   3.830   4.347   3.347  0.2126 -0.5651 -0.4708
  102MOL0     C13947   3.697   4.296   3.311  1.0499  0.2609  0.0238
  102MOL0     C13948   3.625   4.281   3.447 -0.1507 -0.2983  1.2388
  102MOL0     C13949   3.607   4.410   3.528  0.0169  0.8099 -0.7797
  102MOL0     C13950   3.527   4.524   3.462 -1.0761 -0.0528  0.6226
  102MOL0     C13951   3.504   4.655   3.534  1.2504 -0.1435 -0.0661
  102MOL0     C13952   3.631   4.719   3.608 -0.2386  0.6799  0.4661
  102MOL0     C13953   3.738   4.760   3.507 -0.1653 -0.0889  0.3469
  102MOL0     C13954   3.863   4.824   3.577  1.2000  0.5718 -0.2966
  102MOL0     N13955   3.911   4.736   3.686 -0.9207 -0.2421 -0.2451
  102MOL0     C13956   3.943   4.607   3.670 -0.3241  0.4747 -0.3181
  102MOL0     C13957   3.991   4.557   3.785 -0.1418  0.2109  0.3267
  102MOL0     C13958   4.058   4.424   3.810 -0.4735 -0.6412 -0.3251
  102MOL0     C13959   4.019   4.307   3.730  0.7715  0.4086  0.4651
  102MOL0     C13960   4.087   4.289   3.598 -0.5504 -0.1581 -0.2828
  102MOL0     C13961   4.234   4.279   3.616 -0.5278  0.4181  0.4064
  102MOL0     O13962   4.291   4.217   3.498 -0.5181 -0.5611 -0.6283
  102MOL0     C13963   4.411   4.152   3.524 -0.1805  0.4602 -1.2344
  102MOL0     C13964   4.520   4.234   3.499  0.4881  0.4110 -0.7050
  102MOL0     C13965   4.647   4.187   3.528 -0.7465 -0.8221 -0.6279
  102MOL0     C13966   4.757   4.294   3.499  1.0808  1.1086  0.6617
  102MOL0     C13967   4.668   4.050   3.562 -0.1543 -0.0075 -0.8699
  102MOL0     C13968   4.801   3.988   3.580  0.1520  0.2131  0.1659
  102MOL0     O13969   4.797   3.857   3.606 -0.5019  0.8822 -0.2315
  102MOL0     C13970   4.915   3.795   3.649  0.4984  0.0267  0.7596
  102MOL0     C13971   4.979   3.816   3.767  0.4026 -0.2560  0.6598
  102MOL0     C13972   5.107   3.780   3.796 -0.5466 -0.1443  1.0587
  102MOL0     C13973   5.171   3.695   3.698  0.5519  0.5637 -0.2137
  102MOL0     O13974   5.285   3.626   3.740 -0.1437 -1.2614  0.1313
  102MOL0     C13975   5.343   3.521   3.678  0.5715 -0.0085  0.0804
  102MOL0     C13976   5.434   3.456   3.765  0.3848 -0.2588  0.4326
  102MOL0     C13977   5.384   3.369   3.876 -0.2691 -0.2293  0.1717
  102MOL0     C13978   5.485   3.278   3.945 -0.4816  0.2135 -0.1915
  102MOL0     C13979   5.422   3.193   4.061  0.3465  0.4077  0.7913
  102MOL0     C13980   5.519   3.169   4.175  0.4252  0.7082  0.4896
  102MOL0     C13981   5.455   3.103   4.305 -0.2828  0.7964 -0.7895
  102MOL0     C13982   5.545   3.102   4.428  0.1228  0.2509  1.5179
  102MOL0    Cl13983   5.455   3.029   4.556 -0.1274  0.4667 -0.1498
  102MOL0     C13984   5.110   3.680   3.571 -0.4276 -0.0965 -0.0858
  102MOL0     C13985   4.984   3.730   3.545 -0.2564  0.5647  0.3604
  102MOL0     O13986   4.899   4.060   3.595 -0.1150  0.0457  0.2209
  102MOL0     C13987   4.555   3.970   3.585 -0.4962  0.0274  0.4537
  102MOL0     C13988   4.426   4.024   3.568 -0.0956  0.3644 -0.0458
  102MOL0     N13989   3.993   4.670   3.866  0.1372  0.2722 -0.6422
  102MOL0     N13990   3.935   4.773   3.813 -0.9984 -0.5152 -0.1350
  102MOL0     C13991   3.831   4.551   3.194 -1.1413  0.5010  0.3053
  102MOL0     C13992   3.905   4.631   3.095 -0.5681  0.4495  0.5305
  102MOL0     C13993   4.241   4.864   2.905 -0.3545  0.1748 -0.0658
  102MOL0     C13994   4.338   4.785   2.848  0.3689  1.1237  0.1121
  102MOL0     C13995   4.448   4.827   2.773  0.2651  0.6765  0.3824
  102MOL0     C13996   4.461   4.963   2.746  0.2447  0.1811  0.3644
  102MOL0     O13997   4.581   5.000   2.688  0.4596  0.5434 -0.2270
  102MOL0     C13998   4.670   4.915   2.610  0.2985 -0.1434  0.4642
  102MOL0     C13999   4.603   4.883   2.477 -0.0701  0.2752  0.4916
  102MOL0     C14000   4.540   4.992   2.384 -1.1549  0.1686 -0.9468
  102MOL0     C14001   4.557   4.963   2.227  0.1397 -0.2087  0.3643
  102MOL0     C14002   4.693   5.022   2.204  1.2017  0.6101 -0.1758
  102MOL0     C14003   4.803   5.060   2.187  0.6242  0.4173  0.1637
  102MOL0     C14004   4.360   5.053   2.775 -0.1502  0.0406 -0.3204
  102MOL0     C14005   4.261   5.003   2.865 -0.5633  0.6581 -0.7400
  102MOL0     C14006   4.181   5.123   2.929  0.4825  0.4213 -0.3145
  102MOL0     H14007   4.195   4.474   3.109 -0.2855 -1.8718  0.3034
  102MOL0     H14008   4.054   4.325   3.284 -2.8459 -0.2453  1.4482
  102MOL0     H14009   3.701   4.212   3.241  2.3811  2.0533 -2.2000
  102MOL0     H14010   3.651   4.367   3.241  1.8896 -2.2486 -3.3905
  102MOL0     H14011   3.527   4.232   3.440 -1.3862  2.0122  1.3101
  102MOL0     H14012   3.683   4.213   3.510 -1.6405 -3.6922 -0.7690
  102MOL0     H14013   3.563   4.367   3.618 -0.1847  0.6639 -0.9472
  102MOL0     H14014   3.698   4.447   3.576 -2.2869  0.2726  4.7140
  102MOL0     H14015   3.576   4.561   3.372 -1.2364  4.1725  2.0841
  102MOL0     H14016   3.430   4.481   3.435  0.0370 -2.1840 -0.2783
  102MOL0     H14017   3.427   4.631   3.608  0.3616  0.1972 -0.8688
  102MOL0     H14018   3.459   4.722   3.460  2.1921  0.4295 -0.1384
  102MOL0     H14019   3.592   4.806   3.663  2.0585  2.6866 -0.8560
  102MOL0     H14020   3.669   4.646   3.680 -0.3899 -1.5471 -1.5950
  102MOL0     H14021   3.702   4.841   3.443  0.8917 -2.0374 -2.9995
  102MOL0     H14022   3.770   4.677   3.443 -1.5409  0.3058 -0.8881
  102MOL0     H14023   3.942   4.829   3.502  1.8983  0.4443  0.4145
  102MOL0     H14024   3.838   4.918   3.626 -2.2017  0.8574 -2.2739
  102MOL0     H14025   3.947   4.551   3.577  3.2885  0.9733 -0.5805
  102MOL0     H14026   4.047   4.405   3.917 -0.6440  2.8395  0.3765
  102MOL0     H14027   4.164   4.450   3.794 -0.6961  0.3763 -0.1983
  102MOL0     H14028   4.023   4.216   3.791 -4.4003  0.2678  1.0882
  102MOL0     H14029   3.914   4.324   3.705  1.4513  3.0228 -0.8375
  102MOL0     H14030   4.043   4.214   3.533 -0.7185  2.0842 -2.9335
  102MOL0     H14031   4.059   4.374   3.534 -2.4183 -0.2493  0.3266
  102MOL0     H14032   4.287   4.373   3.635 -1.0804  0.7289  0.4156
  102MOL0     H14033   4.260   4.218   3.703  1.4088  0.8587  0.1905
  102MOL0     H14034   4.509   4.336   3.464 -1.1345 -0.2850 -2.3902
  102MOL0     H14035   4.713   4.383   3.452 -3.3274 -0.4236  1.4496
  102MOL0     H14036   4.830   4.245   3.434 -2.1553 -2.2007 -0.8358
  102MOL0     H14037   4.803   4.329   3.592  0.1055  2.1196  0.7938
  102MOL0     H14038   4.935   3.891   3.832 -1.2623 -2.8857  2.7749
  102MOL0     H14039   5.163   3.809   3.884 -0.8387  0.0433  1.1816
  102MOL0     H14040   5.269   3.446   3.651  2.2211 -1.3290 -0.9936
  102MOL0     H14041   5.384   3.552   3.582 -1.6160  0.2257 -0.8092
  102MOL0     H14042   5.496   3.397   3.696 -0.4227  0.7207 -1.1867
  102MOL0     H14043   5.499   3.531   3.811 -0.0777  0.5365 -0.2000
  102MOL0     H14044   5.295   3.318   3.837  0.5499  1.0499 -3.8573
  102MOL0     H14045   5.354   3.438   3.955 -0.7413 -1.5604  1.1972
  102MOL0     H14046   5.569   3.340   3.979 -1.4857 -0.3893  3.9451
  102MOL0     H14047   5.525   3.202   3.877  4.1620  1.0673  1.2526
  102MOL0     H14048   5.329   3.237   4.098  0.6025  2.9399 -1.2621
  102MOL0     H14049   5.404   3.095   4.017 -1.3148  2.4414 -3.6062
  102MOL0     H14050   5.551   3.269   4.205  0.5670  0.5046  1.0168
  102MOL0     H14051   5.602   3.105   4.144 -0.8058 -0.9153  0.3791
  102MOL0     H14052   5.432   2.999   4.281  3.2029  0.3336 -2.8462
  102MOL0     H14053   5.355   3.137   4.332 -0.1615 -0.2777  1.2347
  102MOL0     H14054   5.586   3.201   4.448 -1.7519  0.9031  2.2715
  102MOL0     H14055   5.628   3.034   4.404  0.4831  1.6318 -1.6659
  102MOL0     H14056   5.163   3.623   3.495 -1.8112 -3.3846  1.1998
  102MOL0     H14057   4.947   3.718   3.444 -0.6412  0.7076  0.4793
  102MOL0     H14058   4.565   3.869   3.624 -1.1205 -0.2275 -0.0283
  102MOL0     H14059   4.340   3.957   3.571  1.0843 -1.4454  5.3932
  102MOL0     H14060   3.730   4.575   3.224 -0.5088  1.4915  1.7723
  102MOL0     H14061   3.861   4.704   3.028  1.6513 -0.3979 -2.0377
  102MOL0     H14062   4.331   4.677   2.862 -1.7156  1.1228 -0.5895
  102MOL0     H14063   4.522   4.753   2.743  0.2807 -0.4929  3.0292
  102MOL0     H14064   4.762   4.973   2.594 -1.0114  1.6442 -1.1064
  102MOL0     H14065   4.708   4.828   2.665  1.0234  1.4301  2.6158
  102MOL0     H14066   4.522   4.814   2.503 -0.4077  1.1019  1.7156
  102MOL0     H14067   4.669   4.828   2.409 -2.6865  0.0909 -2.1008
  102MOL0     H14068   4.434   4.997   2.411 -1.1236 -2.5084 -0.0483
  102MOL0     H14069   4.583   5.088   2.413 -2.6956  0.9158 -1.0398
  102MOL0     H14070   4.485   5.028   2.178  0.5104  0.7059  1.0105
  102MOL0     H14071   4.562   4.860   2.190  1.5981 -0.0732  0.1018
  102MOL0     H14072   4.906   5.086   2.201  0.9966 -0.8453 -0.1512
  102MOL0     H14073   4.367   5.160   2.759  2.1064  0.7112  3.6385
  102MOL0     H14074   4.185   5.127   3.038 -2.3892  2.1053 -0.1524
  102MOL0     H14075   4.215   5.224   2.905  1.3241  0.4400  0.8942
  102MOL0     H14076   4.072   5.119   2.913  0.1619 -0.1654  1.6915
  103MOL0     O14077   5.127  10.229   7.961 -0.1255 -0.7069 -0.1485
  103MOL0     C14078   5.073  10.241   7.848 -0.1059  0.2775 -0.6740
  103MOL0     O14079   4.992  10.347   7.807  0.2299 -0.3335 -0.1576
  103MOL0     C14080   4.930  10.417   7.906  0.1897 -0.0554 -0.2173
  103MOL0     C14081   4.822  10.366   7.962  0.3896  0.1838  0.4347
  103MOL0     C14082   4.744  10.441   8.045  0.2446  0.4805 -0.1803
  103MOL0     C14083   4.784  10.563   8.094 -0.4110  0.5847 -0.9787
  103MOL0     O14084   4.711  10.637   8.194 -0.4798 -0.5372 -0.2499
  103MOL0     C14085   4.579  10.670   8.162  0.3707 -0.0094 -0.2457
  103MOL0     C14086   4.532  10.796   8.233 -0.7579  0.7003 -0.2006
  103MOL0     C14087   4.387  10.830   8.207  0.0792 -1.2360 -0.4229
  103MOL0     C14088   4.353  10.968   8.281  0.7662  0.0862 -0.6712
  103MOL0     C14089   4.339  10.946   8.435 -0.3905  0.3024 -0.7961
  103MOL0     C14090   4.319  11.084   8.519 -0.5372 -0.2935  0.3815
  103MOL0     C14091   4.197  11.150   8.465 -0.0418 -0.8783  0.5410
  103MOL0     C14092   4.137  11.242   8.573 -0.1720  0.3136  0.3016
  103MOL0     N14093   4.016  11.191   8.640  0.8892  0.1826 -0.6777
  103MOL0     C14094   4.022  11.129   8.759 -0.3271 -0.9017  0.2658
  103MOL0     C14095   3.897  11.077   8.784 -0.6402  0.3651  0.0856
  103MOL0     C14096   3.870  10.994   8.897 -0.1325 -0.7875  0.9073
  103MOL0     C14097   3.897  11.080   9.025 -0.2502  0.1348 -0.5474
  103MOL0     C14098   3.823  11.029   9.146  0.2860  0.3810 -0.2003
  103MOL0     C14099   3.855  10.887   9.196  0.1097 -0.1332  1.2978
  103MOL0     O14100   3.994  10.856   9.176  0.3763 -0.5668  0.0762
  103MOL0     C14101   4.041  10.721   9.160 -0.3193 -0.1949  0.3829
  103MOL0     C14102   3.970  10.607   9.194 -0.2717 -0.2045  0.2455
  103MOL0     C14103   4.001  10.480   9.153  0.0910  0.6924 -0.2591
  103MOL0     C14104   3.910  10.372   9.208  0.1762  0.8210 -0.9965
  103MOL0     C14105   4.130  10.463   9.086  0.4124 -1.2849  0.7992
  103MOL0     C14106   4.186  10.327   9.045  0.4675 -0.4656  0.4968
  103MOL0     O14107   4.277  10.323   8.954 -0.4665 -0.4409  0.1752
  103MOL0     C14108   4.352  10.215   8.931 -0.7608  0.1444  0.0096
  103MOL0     C14109   4.446  10.172   9.016 -0.5251 -0.5266 -1.2917
  103MOL0     C14110   4.521  10.064   8.987 -0.1005 -0.3653  0.5430
  103MOL0     C14111   4.510   9.988   8.866 -0.2339 -0.4857 -0.8191
  103MOL0     O14112   4.589   9.883   8.829  0.1516 -0.1289  0.1302
  103MOL0     C14113   4.702   9.859   8.912  0.7577 -0.4407  0.1452
  103MOL0     C14114   4.783   9.770   8.820  0.1312  0.0169 -0.4905
  103MOL0     C14115   4.891   9.700   8.897  0.2289  0.0515 -0.1293
  103MOL0     C14116   4.996   9.639   8.807  0.7698  0.1691 -1.1078
  103MOL0     C14117   5.094   9.542   8.892  0.3891  0.0468 -0.1406
  103MOL0     C14118   5.157   9.437   8.797 -0.0609 -0.8889 -0.0757
  103MOL0     C14119   5.222   9.496   8.672  0.6434  0.3123 -0.6558
  103MOL0     C14120   5.307   9.399   8.594  0.5454 -0.4757  0.0894
  103MOL0    Cl14121   5.472   9.374   8.665 -0.7096 -0.3017  0.2287
  103MOL0     C14122   4.411  10.037   8.775  0.5929 -0.4032 -0.7351
  103MOL0     C14123   4.335  10.150   8.811  0.1480 -0.4484  0.1678
  103MOL0     O14124   4.140  10.227   9.106  0.5261 -0.4955 -0.3451
  103MOL0     C14125   4.205  10.577   9.058 -0.1836 -0.5531  0.2102
  103MOL0     C14126   4.154  10.699   9.085 -0.6844  0.2664 -1.4426
  103MOL0     N14127   3.813  11.099   8.684  0.0006 -0.9368  0.4045
  103MOL0     N14128   3.884  11.170   8.603  0.0647  0.8986  0.0675
  103MOL0     C14129   4.905  10.606   8.052 -0.7321 -0.5053 -0.5075
  103MOL0     C14130   4.982  10.537   7.958 -0.1734  0.2939  0.2423
  103MOL0     C14131   5.114  10.140   7.748 -0.2057 -0.2224 -0.6839
  103MOL0     C14132   5.154  10.185   7.618  0.0775  0.3882 -0.0205
  103MOL0     C14133   5.231  10.104   7.531 -0.7109  0.7039  0.4504
  103MOL0     C14134   5.255   9.968   7.566  0.7776 -0.3107 -0.2173
  103MOL0     O14135   5.318   9.877   7.498 -0.4549 -0.6415  0.2108
  103MOL0     C14136   5.314   9.886   7.352 -0.0475  0.4076 -0.6827
  103MOL0     C14137   5.381   9.766   7.284 -0.3364 -0.6247 -0.2169
  103MOL0     C14138   5.537   9.766   7.281  0.4816 -0.5567 -0.3378
  103MOL0     C14139   5.601   9.651   7.203 -0.0388  0.4644  0.8056
  103MOL0     C14140   5.571   9.515   7.259 -0.1371 -0.2888  0.3058
  103MOL0     C14141   5.555   9.398   7.297  0.3893  0.9100 -0.4252
  103MOL0     C14142   5.216   9.930   7.686  0.3530  0.7666 -0.2341
  103MOL0     C14143   5.148  10.008   7.782 -0.2540 -0.9543 -0.6183
  103MOL0     C14144   5.114   9.950   7.914  1.0393  0.3520  0.1555
  103MOL0     H14145   4.805  10.264   7.930  1.5864 -0.5961  2.1456
  103MOL0     H14146   4.660  10.393   8.095  1.3020 -3.2244 -1.6393
  103MOL0     H14147   4.518  10.587   8.198 -0.5022  1.1497  1.0306
  103MOL0     H14148   4.578  10.685   8.053  0.4360 -0.6019 -0.3303
  103MOL0     H14149   4.554  10.787   8.339  1.4930  1.4772 -0.5456
  103MOL0     H14150   4.586  10.882   8.193  0.1649 -0.8026 -2.4389
  103MOL0     H14151   4.366  10.831   8.100  1.0375  0.8817 -0.6405
  103MOL0     H14152   4.322  10.749   8.240 -0.6195 -0.1911  0.8623
  103MOL0     H14153   4.433  11.042   8.268  3.0022 -2.1079 -0.2106
  103MOL0     H14154   4.267  11.020   8.240  1.5762  2.7273  0.7548
  103MOL0     H14155   4.424  10.888   8.473 -1.9680 -1.2576  0.5219
  103MOL0     H14156   4.249  10.891   8.463 -0.2918  0.0086 -1.0587
  103MOL0     H14157   4.313  11.075   8.628 -1.1938  2.7479  0.6725
  103MOL0     H14158   4.405  11.141   8.484 -1.4411 -0.4189 -2.3391
  103MOL0     H14159   4.129  11.071   8.431 -4.0960  1.8618  1.6446
  103MOL0     H14160   4.234  11.209   8.381 -2.0607  2.4286  1.8347
  103MOL0     H14161   4.213  11.257   8.651  0.5244 -2.5945  0.2994
  103MOL0     H14162   4.114  11.342   8.534  1.4293  0.9312  0.8158
  103MOL0     H14163   4.107  11.119   8.826  1.1951  2.0022 -1.0721
  103MOL0     H14164   3.933  10.905   8.900  0.9431 -0.4017 -3.3796
  103MOL0     H14165   3.767  10.959   8.896 -0.9134  0.9706  4.5447
  103MOL0     H14166   4.001  11.072   9.057 -0.0545 -1.4185 -1.4654
  103MOL0     H14167   3.860  11.181   9.005 -0.7055 -0.3537 -2.3425
  103MOL0     H14168   3.861  11.092   9.227  4.4964 -1.3205 -0.5829
  103MOL0     H14169   3.715  11.036   9.132 -0.4384 -0.4315  3.8635
  103MOL0     H14170   3.821  10.867   9.298 -0.2458 -1.1721  0.9924
  103MOL0     H14171   3.795  10.816   9.139 -1.1551 -0.0568  2.4792
  103MOL0     H14172   3.871  10.619   9.238 -0.4621  0.8693 -0.4309
  103MOL0     H14173   3.949  10.322   9.297  2.7601  0.0115 -2.4868
  103MOL0     H14174   3.903  10.284   9.142  2.0739  0.3333 -0.5938
  103MOL0     H14175   3.813  10.418   9.228 -0.2866  0.2304 -1.8054
  103MOL0     H14176   4.446  10.214   9.116  0.4235  0.0534 -1.5281
  103MOL0     H14177   4.584  10.035   9.071 -1.3201 -0.8060  1.3383
  103MOL0     H14178   4.762   9.947   8.936  1.5751 -1.5164  2.3827
  103MOL0     H14179   4.670   9.798   8.997  0.0009 -2.0877 -1.2623
  103MOL0     H14180   4.725   9.700   8.761  0.6370 -0.6579 -0.2014
  103MOL0     H14181   4.829   9.846   8.756  1.0551 -0.3558 -0.2871
  103MOL0     H14182   4.839   9.625   8.957 -4.2697  2.2710 -0.8659
  103MOL0     H14183   4.944   9.774   8.958  0.0467 -2.4818  3.4313
  103MOL0     H14184   5.054   9.722   8.767 -0.1350  0.4162 -1.9406
  103MOL0     H14185   4.948   9.579   8.729  0.1710 -1.7027  0.6116
  103MOL0     H14186   5.170   9.603   8.941 -3.6981  3.2692  2.8727
  103MOL0     H14187   5.051   9.485   8.975 -1.7698  0.1973 -1.0981
  103MOL0     H14188   5.080   9.369   8.760 -1.3111  1.8976 -3.1251
  103MOL0     H14189   5.235   9.375   8.841  1.4202  0.8684 -0.0825
  103MOL0     H14190   5.282   9.585   8.693 -1.7431  2.0254 -0.7350
  103MOL0     H14191   5.135   9.514   8.608 -1.7737 -2.5557  1.5563
  103MOL0     H14192   5.321   9.428   8.490  0.1839 -1.3164 -0.2066
  103MOL0     H14193   5.243   9.310   8.597 -1.4016  0.6035 -3.3964
  103MOL0     H14194   4.399   9.994   8.677 -0.6487 -2.4234  0.2370
  103MOL0     H14195   4.254  10.183   8.747  0.0102 -1.2827 -0.1001
  103MOL0     H14196   4.296  10.582   8.999 -1.9359  1.3354 -2.5883
  103MOL0     H14197   4.194  10.797   9.063 -2.6449  1.4119 -0.2794
  103MOL0     H14198   4.947  10.691   8.105 -3.2332 -0.2251  1.1925
  103MOL0     H14199   5.074  10.586   7.928 -0.4947 -0.2959 -1.8615
  103MOL0     H14200   5.149  10.290   7.594 -0.3616  0.3954  0.0930
  103MOL0     H14201   5.274  10.137   7.437  1.1257 -3.2409 -0.2933
  103MOL0     H14202   5.209   9.885   7.321 -0.4865 -0.0170  0.7665
  103MOL0     H14203   5.357   9.984   7.329  0.3453  0.6326  0.9460
  103MOL0     H14204   5.337   9.774   7.184 -3.4639 -0.0207  1.0761
  103MOL0     H14205   5.348   9.669   7.323  1.3348 -1.5089 -0.8807
  103MOL0     H14206   5.572   9.855   7.228 -0.0736  0.9972  1.7825
  103MOL0     H14207   5.567   9.778   7.385 -4.6640  2.7660  1.1735
  103MOL0     H14208   5.710   9.659   7.202 -0.0008 -0.0210  1.0719
  103MOL0     H14209   5.572   9.662   7.098 -0.2894 -1.8153  0.5935
  103MOL0     H14210   5.524   9.299   7.324 -0.5116  1.0959 -0.7172
  103MOL0     H14211   5.234   9.827   7.714  0.1484  0.5288 -0.9854
  103MOL0     H14212   5.031   9.999   7.964  2.2387  1.4681  1.1347
  103MOL0     H14213   5.091   9.844   7.897  1.2078  0.5713 -1.6728
  103MOL0     H14214   5.201   9.950   7.981 -0.5202 -2.4757  2.3899
  104MOL0     O14215  11.295   4.744   8.785  0.1530  0.1379  0.4031
  104MOL0     C14216  11.298   4.861   8.815  0.6161  0.4402  0.2446
  104MOL0     O14217  11.214   4.923   8.912 -1.2107  0.0639  0.0629
  104MOL0     C14218  11.150   4.857   9.002 -0.4561  0.3958  0.4339
  104MOL0     C14219  11.104   4.938   9.096  1.1383 -0.5867 -0.5440
  104MOL0     C14220  11.015   4.899   9.192  0.1782  0.6246  0.4663
  104MOL0     C14221  10.975   4.764   9.201 -0.2160  0.1031 -0.0452
  104MOL0     O14222  10.887   4.707   9.294 -0.1260 -0.1381 -0.3699
  104MOL0     C14223  10.803   4.798   9.364  0.1742 -0.2740 -0.8905
  104MOL0     C14224  10.725   4.725   9.480 -0.4347 -0.7429  0.2214
  104MOL0     C14225  10.823   4.678   9.593  0.1152  0.4844 -0.4477
  104MOL0     C14226  10.900   4.539   9.553 -0.0030 -0.1992 -0.7655
  104MOL0     C14227  10.974   4.468   9.665 -1.0715 -0.6366  0.0881
  104MOL0     C14228  11.058   4.352   9.618  0.0208 -0.1007 -0.5070
  104MOL0     C14229  11.175   4.303   9.706 -0.1527 -0.6444  0.2649
  104MOL0     C14230  11.121   4.252   9.836  1.1146  0.1490 -0.6027
  104MOL0     N14231  11.237   4.214   9.926  0.3105 -0.1925 -0.6614
  104MOL0     C14232  11.315   4.106   9.913 -1.2686  0.3779  0.7124
  104MOL0     C14233  11.411   4.124   9.999  0.2177 -0.0073 -0.1646
  104MOL0     C14234  11.508   4.017  10.034 -0.6812  0.3737  0.3426
  104MOL0     C14235  11.533   4.014  10.188  0.5306 -1.1450 -0.6748
  104MOL0     C14236  11.655   3.928  10.236 -0.2951 -0.3059  0.1112
  104MOL0     C14237  11.785   3.998  10.225  0.1954 -0.3348  0.4455
  104MOL0     O14238  11.836   3.987  10.091  1.0826  0.8064  0.1373
  104MOL0     C14239  11.974   3.979  10.068 -0.0924  0.6986  0.5077
  104MOL0     C14240  12.013   3.960   9.932 -0.4079 -0.4783 -0.7899
  104MOL0     C14241  12.146   3.947   9.890  0.6820 -0.1268  0.5973
  104MOL0     C14242  12.159   3.891   9.747 -0.4829 -0.6363 -0.1909
  104MOL0     C14243  12.255   3.956   9.984  0.8376  0.5700  0.5472
  104MOL0     C14244  12.402   3.924   9.951 -0.1792 -0.2160  0.2077
  104MOL0     O14245  12.472   3.862  10.052  0.2852 -0.6967 -0.4431
  104MOL0     C14246  12.598   3.836  10.035 -0.2500 -0.2928  0.2824
  104MOL0     C14247  12.633   3.717   9.961  0.4270  0.4322  0.1636
  104MOL0     C14248  12.758   3.666   9.951 -0.2261  0.0456  0.5561
  104MOL0     C14249  12.869   3.738  10.009  0.8857 -0.5008  0.7841
  104MOL0     O14250  12.999   3.698   9.997 -0.3655  0.4899  0.2909
  104MOL0     C14251  13.031   3.616   9.888 -0.5642  0.9843  0.6619
  104MOL0     C14252  13.174   3.613   9.856  0.0331  0.9449  0.9119
  104MOL0     C14253  13.228   3.750   9.847  0.9899  0.9073 -0.0483
  104MOL0     C14254  13.137   3.839   9.760 -0.8062 -0.0943 -0.1253
  104MOL0     C14255  13.206   3.969   9.715  0.3607  0.1160 -0.4262
  104MOL0     C14256  13.317   3.930   9.603  0.3741 -0.7285 -0.0643
  104MOL0     C14257  13.390   4.052   9.566  0.0589  0.9087  0.2832
  104MOL0     C14258  13.501   4.024   9.467 -0.3366  0.5431 -0.2856
  104MOL0    Cl14259  13.435   4.003   9.301  0.6025  0.6573 -0.3383
  104MOL0     C14260  12.839   3.855  10.090  0.9348  0.4659 -0.9906
  104MOL0     C14261  12.702   3.899  10.103  0.9254 -1.1301  0.4186
  104MOL0     O14262  12.446   3.935   9.836  0.6519 -0.1685  0.5230
  104MOL0     C14263  12.219   3.982  10.113  1.0291 -1.3250 -0.4906
  104MOL0     C14264  12.079   3.993  10.157 -0.3495  0.1237  0.0807
  104MOL0     N14265  11.383   4.239  10.080 -0.3537 -0.8532  0.1310
  104MOL0     N14266  11.295   4.294  10.019  0.6522  0.1931  0.5443
  104MOL0     C14267  11.035   4.678   9.111  0.2421 -0.4132  0.3069
  104MOL0     C14268  11.119   4.725   9.007  0.8716  1.6985  0.7624
  104MOL0     C14269  11.372   4.952   8.725 -0.3390  0.9029 -0.2046
  104MOL0     C14270  11.330   5.079   8.724  0.7214  0.1172 -0.2094
  104MOL0     C14271  11.391   5.172   8.641  0.8327 -0.9834  0.4042
  104MOL0     C14272  11.509   5.147   8.561  0.5807  0.1075 -0.2996
  104MOL0     O14273  11.584   5.235   8.492 -0.6868 -0.1476  1.5246
  104MOL0     C14274  11.535   5.369   8.512  0.1535  0.1022  0.5709
  104MOL0     C14275  11.625   5.463   8.426  0.6401  0.8426 -0.3694
  104MOL0     C14276  11.592   5.606   8.456 -0.2134  0.1952 -0.0616
  104MOL0     C14277  11.702   5.691   8.385  0.0640 -0.2678 -0.4713
  104MOL0     C14278  11.653   5.829   8.380 -0.1899 -0.3285  0.4173
  104MOL0     C14279  11.609   5.939   8.388  0.8895 -0.1603  0.0258
  104MOL0     C14280  11.547   5.017   8.559 -0.2021 -0.4663 -0.4645
  104MOL0     C14281  11.485   4.925   8.645 -0.1892  0.6096 -0.1226
  104MOL0     C14282  11.576   4.805   8.664  0.4654  1.0487  0.1926
  104MOL0     H14283  11.129   5.043   9.085 -0.9433 -0.0927 -1.0690
  104MOL0     H14284  10.998   4.968   9.274 -1.0379 -0.9389  1.5683
  104MOL0     H14285  10.739   4.831   9.282 -0.1025 -1.5239 -1.1928
  104MOL0     H14286  10.859   4.881   9.407 -0.1236 -1.1397  1.2707
  104MOL0     H14287  10.646   4.794   9.513  0.6325  0.9464 -0.6208
  104MOL0     H14288  10.677   4.635   9.440  1.6133 -0.6707 -2.7405
  104MOL0     H14289  10.894   4.761   9.602  0.1520  0.4608 -0.5185
  104MOL0     H14290  10.774   4.664   9.691 -0.8212  1.1465 -0.7973
  104MOL0     H14291  10.829   4.462   9.521  1.4631 -0.8769 -2.5127
  104MOL0     H14292  10.970   4.560   9.472  0.2205 -0.8235 -0.7397
  104MOL0     H14293  10.896   4.428   9.730 -0.7662 -3.3123 -1.0621
  104MOL0     H14294  11.033   4.535   9.727 -2.6175 -0.0094  0.9283
  104MOL0     H14295  10.996   4.262   9.610  0.4016 -1.0282  4.0187
  104MOL0     H14296  11.109   4.373   9.524  1.7538  1.4928  0.7314
  104MOL0     H14297  11.238   4.389   9.730 -0.0148 -0.5399 -0.4280
  104MOL0     H14298  11.228   4.225   9.650 -0.7103 -1.1082  0.3682
  104MOL0     H14299  11.061   4.327   9.888 -0.3415 -1.0720 -0.4407
  104MOL0     H14300  11.057   4.168   9.808 -0.4132  1.0681  0.0318
  104MOL0     H14301  11.297   4.013   9.860  1.1519 -1.7827  3.3948
  104MOL0     H14302  11.602   4.052   9.990 -0.4072  0.4071  0.9349
  104MOL0     H14303  11.493   3.917   9.993 -1.8709  1.0557 -0.9315
  104MOL0     H14304  11.535   4.114  10.231 -1.0409 -0.7951 -1.3294
  104MOL0     H14305  11.440   3.975  10.231 -1.2512  3.2647 -0.0406
  104MOL0     H14306  11.645   3.903  10.342  2.0285  0.6973  0.6355
  104MOL0     H14307  11.660   3.838  10.174 -0.0416  0.8765 -1.6421
  104MOL0     H14308  11.763   4.102  10.252  2.2378  1.1410 -2.8843
  104MOL0     H14309  11.855   3.964  10.301  0.4901 -2.4876 -0.6863
  104MOL0     H14310  11.931   3.959   9.862 -1.1492 -1.1207  0.0690
  104MOL0     H14311  12.227   3.954   9.689  0.8463  0.0371  2.0058
  104MOL0     H14312  12.066   3.887   9.689 -0.2803  0.5943 -0.6338
  104MOL0     H14313  12.200   3.789   9.747  0.1846 -0.3724 -0.2356
  104MOL0     H14314  12.542   3.669   9.926 -2.0028  3.5887  1.6370
  104MOL0     H14315  12.762   3.581   9.884 -0.2025  2.1143 -2.2828
  104MOL0     H14316  13.000   3.512   9.901 -1.7153  1.3290  0.8284
  104MOL0     H14317  12.978   3.659   9.802  2.0492  6.3843  1.3434
  104MOL0     H14318  13.233   3.555   9.927 -1.1704  1.3754  2.3099
  104MOL0     H14319  13.183   3.574   9.754  0.3713  1.8214  0.5905
  104MOL0     H14320  13.327   3.742   9.801  1.2527  2.6496  0.1544
  104MOL0     H14321  13.233   3.792   9.948  2.1248  1.2164 -0.2181
  104MOL0     H14322  13.047   3.858   9.820  0.8375 -0.8398  2.7604
  104MOL0     H14323  13.118   3.789   9.665  2.3622  1.0577 -1.5181
  104MOL0     H14324  13.133   4.034   9.667 -1.7350 -1.8045  0.0200
  104MOL0     H14325  13.249   4.030   9.796 -0.6031  3.2012 -2.0654
  104MOL0     H14326  13.248   3.907   9.521 -0.7940  2.9223 -0.2926
  104MOL0     H14327  13.384   3.857   9.650  2.4212  1.4179  0.5400
  104MOL0     H14328  13.434   4.090   9.659  1.6453  1.1238 -0.5248
  104MOL0     H14329  13.321   4.121   9.517 -0.4819  0.4706  0.4158
  104MOL0     H14330  13.546   3.930   9.500 -0.7936  0.2449 -0.4945
  104MOL0     H14331  13.571   4.106   9.482  2.1886 -1.7616  1.5815
  104MOL0     H14332  12.922   3.899  10.144  1.7332 -2.9731  0.8873
  104MOL0     H14333  12.678   3.989  10.159 -2.6075 -1.7801  0.1648
  104MOL0     H14334  12.296   3.994  10.188  0.8811  0.8540 -0.6351
  104MOL0     H14335  12.054   4.010  10.262 -1.8467  0.8242 -0.3681
  104MOL0     H14336  11.030   4.570   9.118 -1.1998 -0.2783  2.1106
  104MOL0     H14337  11.160   4.657   8.933  0.9086 -0.1657  2.4396
  104MOL0     H14338  11.248   5.114   8.785  0.2124 -0.7024 -0.3991
  104MOL0     H14339  11.354   5.273   8.660 -2.5545 -1.4379 -2.7465
  104MOL0     H14340  11.429   5.386   8.491  0.0638  0.0341  0.9573
  104MOL0     H14341  11.532   5.404   8.615  1.0109  3.0365 -0.3034
  104MOL0     H14342  11.622   5.431   8.321  2.8835  0.8556 -0.4927
  104MOL0     H14343  11.728   5.450   8.459  0.5759  0.3384 -0.3684
  104MOL0     H14344  11.489   5.616   8.420 -0.6382  3.2852  1.6516
  104MOL0     H14345  11.590   5.636   8.561 -0.8355 -0.1798  0.0376
  104MOL0     H14346  11.730   5.657   8.285  1.7750  0.2606 -0.2054
  104MOL0     H14347  11.799   5.689   8.435 -0.1780 -2.1399 -0.0189
  104MOL0     H14348  11.567   6.038   8.384  3.6143  1.1838  1.6606
  104MOL0     H14349  11.633   4.988   8.499  0.6931  1.6826 -0.3347
  104MOL0     H14350  11.574   4.736   8.580  1.1616  3.1962 -1.7171
  104MOL0     H14351  11.681   4.830   8.686  0.2013  2.0119  0.4077
  104MOL0     H14352  11.544   4.733   8.739  1.0962 -3.4988 -3.4683
  105MOL0     O14353   7.448   5.539   0.798 -0.0153  0.1904  0.4184
  105MOL0     C14354   7.400   5.652   0.783 -0.5128  0.8629  0.3456
  105MOL0     O14355   7.366   5.709   0.660  0.4713 -0.0702 -0.5511
  105MOL0     C14356   7.361   5.638   0.545  0.3219 -0.3043  0.0164
  105MOL0     C14357   7.465   5.640   0.457 -0.6383  0.2909  0.3235
  105MOL0     C14358   7.454   5.590   0.329  0.7831  0.5364 -0.4042
  105MOL0     C14359   7.345   5.520   0.291 -0.5366 -0.2911 -0.5998
  105MOL0     O14360   7.322   5.480   0.160 -0.4180 -1.2459 -0.4522
  105MOL0     C14361   7.308   5.593   0.070 -0.0572  0.6604 -0.5637
  105MOL0     C14362   7.259   5.549  -0.062  0.3867  0.0739  0.1451
  105MOL0     C14363   7.119   5.488  -0.052 -0.3683 -1.5765  0.2658
  105MOL0     C14364   7.059   5.470  -0.196  0.9698 -0.0551  0.8078
  105MOL0     C14365   6.994   5.584  -0.258  0.2228  0.6121 -0.3436
  105MOL0     C14366   6.879   5.646  -0.175  0.5138 -0.2356 -0.9510
  105MOL0     C14367   6.773   5.552  -0.121  0.5158 -0.2271  0.7913
  105MOL0     C14368   6.712   5.480  -0.236 -0.9895  0.2845  0.0257
  105MOL0     N14369   6.591   5.406  -0.208  0.7128 -0.5909 -0.4337
  105MOL0     C14370   6.461   5.425  -0.258  0.3542 -0.7893 -0.2850
  105MOL0     C14371   6.374   5.334  -0.196 -0.4464 -0.3698  0.3760
  105MOL0     C14372   6.219   5.345  -0.234 -1.3442  0.9760 -0.9179
  105MOL0     C14373   6.145   5.433  -0.131 -0.9987 -0.3378 -0.4585
  105MOL0     C14374   6.096   5.353  -0.015  0.2973 -0.2361  0.4928
  105MOL0     C14375   6.002   5.424   0.082 -0.2003 -0.2487 -0.7466
  105MOL0     O14376   6.094   5.513   0.164  1.1084  0.2971 -0.5488
  105MOL0     C14377   6.053   5.576   0.278  0.0940 -0.9048  0.2718
  105MOL0     C14378   6.147   5.646   0.353 -0.2436 -0.2475 -1.0983
  105MOL0     C14379   6.118   5.722   0.468  0.1047  0.6421  0.0493
  105MOL0     C14380   6.239   5.767   0.548  0.1927 -0.4983 -0.0504
  105MOL0     C14381   5.984   5.746   0.502  0.4085  0.0388 -0.6979
  105MOL0     C14382   5.939   5.838   0.613  0.5339 -0.5538  1.1959
  105MOL0     O14383   5.804   5.836   0.645  0.1140  0.2838 -0.3386
  105MOL0     C14384   5.746   5.913   0.744 -0.4058 -0.5261  0.7460
  105MOL0     C14385   5.617   5.945   0.734  0.0579 -0.5297 -0.7736
  105MOL0     C14386   5.552   6.040   0.812  0.0862  0.1716 -0.4415
  105MOL0     C14387   5.618   6.092   0.923  0.4566 -0.3354  0.6647
  105MOL0     O14388   5.546   6.185   1.004  0.1787 -0.0376 -0.4396
  105MOL0     C14389   5.588   6.237   1.130  0.9989 -0.0979 -0.2989
  105MOL0     C14390   5.633   6.383   1.106  0.8816 -0.1062  0.1496
  105MOL0     C14391   5.643   6.463   1.231 -0.0359  0.3847 -0.4653
  105MOL0     C14392   5.762   6.421   1.324 -0.3427  1.2945  1.1293
  105MOL0     C14393   5.780   6.518   1.447 -0.0703 -0.6396 -0.5782
  105MOL0     C14394   5.825   6.657   1.419 -0.3844 -0.4586  0.7519
  105MOL0     C14395   5.890   6.725   1.555 -0.3951  0.5916  0.5810
  105MOL0     C14396   5.967   6.854   1.549 -0.3501 -0.1975 -0.2566
  105MOL0    Cl14397   6.126   6.826   1.459 -0.0089  0.4143  0.0032
  105MOL0     C14398   5.752   6.069   0.934 -0.1917 -0.0554  0.4802
  105MOL0     C14399   5.814   5.981   0.843 -0.5034 -0.0959  0.5819
  105MOL0     O14400   6.018   5.916   0.656 -0.0564  0.1299  1.1503
  105MOL0     C14401   5.888   5.673   0.429  0.4100  0.3522  0.5906
  105MOL0     C14402   5.919   5.582   0.322 -0.6241 -0.4372 -0.0914
  105MOL0     N14403   6.448   5.260  -0.116  0.8510  0.4981 -0.3211
  105MOL0     N14404   6.580   5.295  -0.128 -0.0332 -0.3442  0.1898
  105MOL0     C14405   7.246   5.501   0.387  0.2085  0.6701  0.0756
  105MOL0     C14406   7.247   5.562   0.517  0.2007  0.3481  0.0945
  105MOL0     C14407   7.392   5.736   0.903  0.6334  0.2707 -0.2318
  105MOL0     C14408   7.487   5.733   1.007 -0.0066 -0.3044 -0.4529
  105MOL0     C14409   7.473   5.812   1.120  0.4633  0.5378 -0.1891
  105MOL0     C14410   7.354   5.897   1.132 -0.8970  1.0363  0.1885
  105MOL0     O14411   7.330   5.973   1.239  0.2016 -1.2359 -1.0500
  105MOL0     C14412   7.414   5.968   1.364 -0.7925  0.0725  0.3322
  105MOL0     C14413   7.359   6.059   1.471  0.4508  0.8999 -0.3725
  105MOL0     C14414   7.453   6.076   1.590 -0.7949 -0.7388 -0.5045
  105MOL0     C14415   7.548   6.192   1.568 -0.7054 -0.2309 -0.4102
  105MOL0     C14416   7.613   6.224   1.697 -0.6425  0.5491  0.6534
  105MOL0     C14417   7.678   6.263   1.792 -0.7028 -0.2219 -0.1174
  105MOL0     C14418   7.255   5.890   1.040  0.9243  0.9125 -0.0777
  105MOL0     C14419   7.264   5.797   0.927  0.8822 -0.0767  0.6090
  105MOL0     C14420   7.144   5.790   0.829 -0.7151 -0.2324  0.1357
  105MOL0     H14421   7.546   5.706   0.485  3.0204 -2.6712 -2.3043
  105MOL0     H14422   7.541   5.607   0.266  0.9397  0.6501 -0.1588
  105MOL0     H14423   7.400   5.652   0.064  0.0097  0.6090 -0.0737
  105MOL0     H14424   7.233   5.660   0.113  0.7823  2.4279 -1.7351
  105MOL0     H14425   7.255   5.647  -0.110  1.9220 -0.6574 -1.5887
  105MOL0     H14426   7.335   5.481  -0.101  1.7600  2.5314 -1.7603
  105MOL0     H14427   7.143   5.402   0.010 -1.3526 -0.0664  2.8830
  105MOL0     H14428   7.051   5.551   0.006 -0.6742 -3.6218  2.2576
  105MOL0     H14429   7.141   5.429  -0.255 -0.5040 -0.7990 -0.8240
  105MOL0     H14430   7.002   5.376  -0.191  0.2317  0.4185  1.7814
  105MOL0     H14431   6.948   5.555  -0.353 -2.1410  2.0117  0.2958
  105MOL0     H14432   7.071   5.657  -0.286  2.2082 -0.5021  1.8100
  105MOL0     H14433   6.918   5.711  -0.097 -2.1461  0.6308 -0.2473
  105MOL0     H14434   6.826   5.719  -0.238 -3.3520 -2.8606 -1.1038
  105MOL0     H14435   6.698   5.614  -0.071 -1.1441 -0.4893 -1.2341
  105MOL0     H14436   6.816   5.484  -0.047 -0.8922 -1.2953  0.6498
  105MOL0     H14437   6.674   5.561  -0.299  1.2936 -1.3152 -3.7521
  105MOL0     H14438   6.791   5.424  -0.287 -1.3831 -2.2460  1.9467
  105MOL0     H14439   6.427   5.497  -0.333 -0.0077 -2.2314 -1.5470
  105MOL0     H14440   6.183   5.242  -0.234  1.1872 -0.0883  2.2155
  105MOL0     H14441   6.207   5.380  -0.337 -0.2498  3.9880 -0.1404
  105MOL0     H14442   6.214   5.507  -0.091 -0.1602 -1.6276  0.5542
  105MOL0     H14443   6.067   5.492  -0.180 -0.1938  0.8914 -0.2957
  105MOL0     H14444   6.038   5.273  -0.062 -0.0770  0.0533  0.4616
  105MOL0     H14445   6.187   5.311   0.029  1.4495  2.0920  0.4976
  105MOL0     H14446   5.923   5.482   0.033 -2.0740 -0.6160  1.6325
  105MOL0     H14447   5.949   5.357   0.150 -4.4091  2.9016 -0.4877
  105MOL0     H14448   6.253   5.641   0.330 -0.1362 -0.7626 -0.5109
  105MOL0     H14449   6.264   5.867   0.512  2.1617 -1.9441 -3.0845
  105MOL0     H14450   6.329   5.707   0.538  0.3209 -0.3668  0.2932
  105MOL0     H14451   6.221   5.757   0.655 -2.0935  0.3832 -0.2936
  105MOL0     H14452   5.547   5.901   0.664 -3.2317  0.5042  1.6220
  105MOL0     H14453   5.450   6.062   0.783 -0.4909 -3.4329 -1.7432
  105MOL0     H14454   5.497   6.235   1.189  0.3056  0.3125 -1.3187
  105MOL0     H14455   5.657   6.173   1.185 -0.3750 -0.7487  0.6993
  105MOL0     H14456   5.734   6.384   1.066  0.5542 -0.4329 -0.6995
  105MOL0     H14457   5.574   6.422   1.022  1.1464 -2.5674 -1.2634
  105MOL0     H14458   5.543   6.477   1.272 -1.6333 -2.4021 -2.9933
  105MOL0     H14459   5.659   6.568   1.204  0.7853 -0.0746 -1.8805
  105MOL0     H14460   5.850   6.414   1.258 -1.4682  0.3084 -0.3328
  105MOL0     H14461   5.738   6.319   1.355  1.5215  0.7851  1.0478
  105MOL0     H14462   5.683   6.521   1.495  0.4955 -0.5677  0.5873
  105MOL0     H14463   5.853   6.474   1.516 -1.5676 -3.5867 -0.7561
  105MOL0     H14464   5.738   6.711   1.380 -2.7301 -2.8802  2.2739
  105MOL0     H14465   5.905   6.655   1.344 -0.7625 -3.9130  0.3084
  105MOL0     H14466   5.949   6.643   1.598  0.2822 -2.0603 -4.6255
  105MOL0     H14467   5.801   6.733   1.618 -0.0954 -1.4570  1.3551
  105MOL0     H14468   5.981   6.901   1.646  1.1458 -1.2733  0.0770
  105MOL0     H14469   5.903   6.928   1.500 -2.9320  0.4718  3.6477
  105MOL0     H14470   5.807   6.125   1.009 -2.1481  1.0209  1.1718
  105MOL0     H14471   5.914   5.953   0.875 -0.5599 -1.7813 -0.5611
  105MOL0     H14472   5.783   5.679   0.455 -0.2424  0.5219 -1.8231
  105MOL0     H14473   5.836   5.537   0.269 -1.6136  3.2797 -2.0584
  105MOL0     H14474   7.160   5.447   0.349  1.0175 -1.7329  1.4207
  105MOL0     H14475   7.171   5.551   0.594  2.5677 -1.1608  2.3752
  105MOL0     H14476   7.581   5.690   0.974  0.9617  1.8121 -0.6209
  105MOL0     H14477   7.557   5.812   1.189 -1.8311 -1.4307  2.8785
  105MOL0     H14478   7.420   5.866   1.404  0.7855 -0.0968 -0.2843
  105MOL0     H14479   7.515   5.990   1.328 -1.8518  0.3630 -2.7299
  105MOL0     H14480   7.267   6.012   1.507  2.7188 -3.2466  0.6264
  105MOL0     H14481   7.333   6.157   1.430  0.9526  2.3096  2.4098
  105MOL0     H14482   7.385   6.091   1.674  0.9975 -1.7945  1.2174
  105MOL0     H14483   7.514   5.986   1.605 -3.6541 -2.5224  1.3909
  105MOL0     H14484   7.491   6.274   1.523 -2.4525 -2.7018 -2.9867
  105MOL0     H14485   7.617   6.156   1.492 -2.8554 -4.1045 -0.7746
  105MOL0     H14486   7.733   6.316   1.867  0.7356 -0.5970 -0.8591
  105MOL0     H14487   7.172   5.959   1.056  0.6159  0.1536  1.8104
  105MOL0     H14488   7.147   5.687   0.791 -2.5716  0.1901 -1.2827
  105MOL0     H14489   7.050   5.813   0.878 -1.1906 -1.6287 -0.0550
  105MOL0     H14490   7.165   5.862   0.750  1.2339  1.6077  2.1918
  106MOL0     O14491   0.614  10.471   2.971  0.1506  0.0100 -0.3255
  106MOL0     C14492   0.612  10.534   2.869  0.8413 -0.4251  0.0050
  106MOL0     O14493   0.710  10.597   2.804  0.3583  0.7564 -0.8273
  106MOL0     C14494   0.828  10.612   2.850 -0.3489  0.3063 -0.0058
  106MOL0     C14495   0.895  10.541   2.941  0.6932  0.3198 -0.2717
  106MOL0     C14496   1.029  10.566   2.965 -0.3485  0.2500  0.8236
  106MOL0     C14497   1.097  10.674   2.901 -0.4091  0.2671 -0.2255
  106MOL0     O14498   1.229  10.708   2.930  1.0441  0.2310 -0.9963
  106MOL0     C14499   1.318  10.592   2.931 -0.4181 -0.1887 -0.3217
  106MOL0     C14500   1.461  10.640   2.941 -0.1257 -0.0393 -0.1539
  106MOL0     C14501   1.499  10.723   3.072  0.1019  0.7773 -0.1764
  106MOL0     C14502   1.648  10.753   3.078 -0.1516 -0.2990  0.2581
  106MOL0     C14503   1.671  10.842   3.204  0.4500  0.5373  0.6076
  106MOL0     C14504   1.663  10.755   3.331  0.2235  0.5796  0.4172
  106MOL0     C14505   1.737  10.815   3.449 -0.8928 -0.4476  0.0258
  106MOL0     C14506   1.896  10.813   3.446  0.5349 -0.0569 -1.1446
  106MOL0     N14507   1.940  10.669   3.453  0.7694  0.6271 -0.4601
  106MOL0     C14508   1.937  10.574   3.552 -0.2827 -0.8060 -0.9180
  106MOL0     C14509   2.031  10.480   3.512  0.2532  0.9119 -0.9279
  106MOL0     C14510   2.069  10.359   3.589 -0.0074 -0.5194  0.2599
  106MOL0     C14511   2.210  10.308   3.568 -0.6438 -0.3463  0.0966
  106MOL0     C14512   2.226  10.160   3.613 -0.4091 -0.7247  0.0869
  106MOL0     C14513   2.355  10.091   3.563 -0.6727  0.7136  0.7003
  106MOL0     O14514   2.369  10.115   3.424 -0.8667 -0.0145 -0.6346
  106MOL0     C14515   2.479  10.061   3.360 -0.4190  0.2830 -0.5279
  106MOL0     C14516   2.553   9.951   3.411 -0.5551  0.2118  0.5045
  106MOL0     C14517   2.642   9.899   3.319 -0.7771  0.1451  0.5556
  106MOL0     C14518   2.716   9.783   3.376  0.2844  0.1029 -0.6099
  106MOL0     C14519   2.661   9.942   3.193 -0.3256 -0.0204  0.6398
  106MOL0     C14520   2.751   9.882   3.098  0.5012  0.1565  0.1453
  106MOL0     O14521   2.723   9.899   2.969  0.1890  0.5359  0.3736
  106MOL0     C14522   2.817   9.912   2.862  0.0153  0.6669  0.2431
  106MOL0     C14523   2.953   9.937   2.875 -0.5347 -0.8151  0.9946
  106MOL0     C14524   3.038   9.946   2.761  0.2472 -0.0714 -1.3045
  106MOL0     C14525   2.985   9.912   2.630  0.9158 -0.1787 -0.7619
  106MOL0     O14526   3.048   9.934   2.511  0.5966 -0.6700  0.1884
  106MOL0     C14527   3.185   9.906   2.492  1.3646  0.1062 -0.8208
  106MOL0     C14528   3.197   9.778   2.415  0.6038  0.0184  0.1660
  106MOL0     C14529   3.342   9.724   2.434  0.5955  0.6402  0.5623
  106MOL0     C14530   3.434   9.742   2.312 -0.8551  0.4469  0.5918
  106MOL0     C14531   3.386   9.695   2.174 -0.3207  0.0239 -0.0020
  106MOL0     C14532   3.380   9.540   2.178  0.1982 -0.5998 -0.4933
  106MOL0     C14533   3.394   9.486   2.037  0.3722 -0.3275 -0.3119
  106MOL0     C14534   3.384   9.328   2.037 -0.6041 -0.1341  0.7946
  106MOL0    Cl14535   3.399   9.259   1.866 -0.3181 -0.0840  0.4787
  106MOL0     C14536   2.845   9.888   2.625 -0.2017 -0.3162 -0.5855
  106MOL0     C14537   2.764   9.887   2.737  0.8132 -0.5082  0.8977
  106MOL0     O14538   2.858   9.833   3.137  0.8754  0.3530  0.5320
  106MOL0     C14539   2.583  10.048   3.141 -0.2380 -0.1627 -1.0203
  106MOL0     C14540   2.484  10.108   3.231  0.3991  0.0277  0.5412
  106MOL0     N14541   2.066  10.509   3.387 -0.2841  0.0990 -0.5298
  106MOL0     N14542   2.028  10.625   3.361  0.4378 -0.9266  0.1596
  106MOL0     C14543   1.031  10.754   2.826  1.1206 -0.6805  0.1146
  106MOL0     C14544   0.899  10.722   2.791 -0.0371  0.7156  0.7676
  106MOL0     C14545   0.491  10.504   2.792 -0.0737  0.0993  0.3367
  106MOL0     C14546   0.366  10.491   2.861 -1.0221 -0.6441 -0.0449
  106MOL0     C14547   0.249  10.461   2.794 -0.2431 -0.4449 -0.1663
  106MOL0     C14548   0.244  10.443   2.659  0.6158 -0.2259  0.0879
  106MOL0     O14549   0.129  10.387   2.611  0.7215 -0.2429 -0.2443
  106MOL0     C14550   0.140  10.311   2.494 -0.9235 -0.8353  0.2450
  106MOL0     C14551   0.127  10.393   2.364  0.0181 -0.1967 -0.0194
  106MOL0     C14552  -0.016  10.411   2.311  0.4013  0.1948  0.1915
  106MOL0     C14553  -0.037  10.501   2.184 -0.2636  0.2622 -0.9984
  106MOL0     C14554  -0.034  10.646   2.231 -0.6410  0.4248  0.0845
  106MOL0     C14555  -0.021  10.763   2.246  0.5663 -0.1623  0.2752
  106MOL0     C14556   0.367  10.462   2.589  1.0567  0.5224  0.1571
  106MOL0     C14557   0.485  10.501   2.650 -0.1301  0.2537  0.3833
  106MOL0     C14558   0.607  10.516   2.558 -1.4439  0.7188  0.0651
  106MOL0     H14559   0.842  10.463   2.996 -0.9983  1.5126 -0.1687
  106MOL0     H14560   1.083  10.506   3.036  2.4234 -0.2696 -1.5208
  106MOL0     H14561   1.318  10.534   2.839 -0.6007 -0.6069 -0.0618
  106MOL0     H14562   1.280  10.526   3.010 -2.5641  0.2971 -0.8790
  106MOL0     H14563   1.536  10.562   2.927  2.9735  2.4015  1.4659
  106MOL0     H14564   1.478  10.708   2.858  1.0387  1.2902  1.1106
  106MOL0     H14565   1.435  10.812   3.081 -1.6644 -0.3585 -1.0354
  106MOL0     H14566   1.473  10.655   3.153  1.0838 -1.6053 -1.7617
  106MOL0     H14567   1.700  10.656   3.075 -3.0957 -1.9807 -1.9900
  106MOL0     H14568   1.658  10.822   2.994  2.2837  0.7635  1.3145
  106MOL0     H14569   1.593  10.918   3.205 -2.9784 -2.6759  1.3942
  106MOL0     H14570   1.773  10.881   3.205  0.6247  0.0858  0.5292
  106MOL0     H14571   1.557  10.736   3.352 -0.3926  1.7301 -1.4834
  106MOL0     H14572   1.718  10.664   3.309 -2.4394 -0.8320 -0.8150
  106MOL0     H14573   1.696  10.761   3.534  1.8982 -2.7481  0.0594
  106MOL0     H14574   1.714  10.920   3.465  1.3099  0.0577  0.1221
  106MOL0     H14575   1.942  10.859   3.358  1.1485 -1.3265 -1.5060
  106MOL0     H14576   1.915  10.865   3.540 -1.9252 -0.7421 -0.1919
  106MOL0     H14577   1.887  10.582   3.648 -0.2109 -2.4471 -0.7044
  106MOL0     H14578   1.992  10.285   3.565  1.1873 -1.5908 -0.3888
  106MOL0     H14579   2.067  10.380   3.696  1.6764  0.2952  0.1684
  106MOL0     H14580   2.231  10.313   3.460  1.5110  0.4107  0.5025
  106MOL0     H14581   2.291  10.374   3.601  1.2427 -0.1588 -4.1777
  106MOL0     H14582   2.219  10.155   3.722  1.8694  1.4240  0.4074
  106MOL0     H14583   2.146  10.101   3.567 -0.5235  0.8764 -1.8910
  106MOL0     H14584   2.441  10.123   3.623 -0.3325 -1.7229  1.6031
  106MOL0     H14585   2.342   9.986   3.588  1.0400  0.4320  0.5496
  106MOL0     H14586   2.533   9.915   3.511 -2.0355 -1.2220 -0.2599
  106MOL0     H14587   2.751   9.713   3.300 -3.3381 -0.4647 -1.9992
  106MOL0     H14588   2.645   9.723   3.433 -2.4415  1.9125 -1.8653
  106MOL0     H14589   2.803   9.813   3.433 -0.3041 -2.7884  2.0501
  106MOL0     H14590   2.992   9.940   2.976  0.6540  1.5951  0.5370
  106MOL0     H14591   3.140   9.980   2.778  0.3929 -1.7255  1.7700
  106MOL0     H14592   3.227   9.985   2.430 -0.8387  2.1839  0.1972
  106MOL0     H14593   3.230   9.893   2.591 -0.5583  3.2394  0.6106
  106MOL0     H14594   3.126   9.705   2.455 -3.0949  3.4691  0.6807
  106MOL0     H14595   3.172   9.807   2.313  2.0388  4.7500  0.8896
  106MOL0     H14596   3.323   9.618   2.450 -1.7627  0.7873 -0.7181
  106MOL0     H14597   3.391   9.758   2.525 -0.7293 -1.0856  1.9742
  106MOL0     H14598   3.525   9.687   2.340 -2.7780 -2.0406  2.4915
  106MOL0     H14599   3.462   9.846   2.297  1.2317  0.1173  1.8185
  106MOL0     H14600   3.299   9.749   2.135 -0.4138 -0.3647 -0.3444
  106MOL0     H14601   3.462   9.722   2.100  0.0290 -1.0476 -0.0465
  106MOL0     H14602   3.297   9.496   2.235 -0.7983 -1.9807 -2.8718
  106MOL0     H14603   3.470   9.515   2.235 -0.7882 -0.6528  1.1067
  106MOL0     H14604   3.493   9.516   2.001  0.5302 -2.4490 -1.8624
  106MOL0     H14605   3.314   9.524   1.973  1.5305  2.1450 -0.4281
  106MOL0     H14606   3.285   9.298   2.072 -0.2328 -2.5465 -0.0337
  106MOL0     H14607   3.463   9.292   2.104  1.1490  2.0401  0.0291
  106MOL0     H14608   2.792   9.898   2.531 -0.3168 -2.1494 -0.7449
  106MOL0     H14609   2.658   9.895   2.717  0.5565  1.0560  2.6648
  106MOL0     H14610   2.587  10.080   3.037 -2.7416  3.3454 -0.2175
  106MOL0     H14611   2.418  10.190   3.205 -0.3077 -0.2903  1.3309
  106MOL0     H14612   1.075  10.840   2.777  2.7926 -0.3006  2.1552
  106MOL0     H14613   0.856  10.781   2.711  3.1119  0.0590 -1.5852
  106MOL0     H14614   0.373  10.504   2.969  1.6475 -1.1156 -0.0895
  106MOL0     H14615   0.160  10.457   2.856 -0.0690 -1.7005  0.0403
  106MOL0     H14616   0.236  10.257   2.489 -1.2205 -1.3433 -0.0549
  106MOL0     H14617   0.059  10.240   2.512 -1.4775  0.3038  2.7816
  106MOL0     H14618   0.186  10.346   2.285 -4.2826 -2.3657 -2.3269
  106MOL0     H14619   0.152  10.499   2.372 -4.4506  1.3582 -2.7139
  106MOL0     H14620  -0.056  10.313   2.282 -3.3081  1.5672  0.1707
  106MOL0     H14621  -0.082  10.464   2.381  0.8045  0.6227  0.2494
  106MOL0     H14622  -0.136  10.475   2.147  0.7021 -2.5930 -1.8531
  106MOL0     H14623   0.035  10.484   2.102 -1.7002 -0.0749 -2.2374
  106MOL0     H14624  -0.013  10.869   2.247  1.0689 -0.1944  2.1094
  106MOL0     H14625   0.367  10.446   2.482  1.4691 -4.8282  0.7103
  106MOL0     H14626   0.674  10.433   2.586 -1.6214  0.8320  0.8480
  106MOL0     H14627   0.580  10.516   2.452 -4.1551  2.8261  0.6591
  106MOL0     H14628   0.652  10.613   2.580 -0.8475  1.0041 -2.1674
  107MOL0     O14629   5.642   3.284   0.511 -0.1781  1.0856 -0.4963
  107MOL0     C14630   5.553   3.361   0.497  0.2388  0.1197 -0.0963
  107MOL0     O14631   5.426   3.333   0.536 -0.3385  0.3299 -0.5608
  107MOL0     C14632   5.376   3.217   0.599 -0.3990  0.3328 -0.4351
  107MOL0     C14633   5.251   3.234   0.657  0.2763  0.5530 -0.2016
  107MOL0     C14634   5.182   3.119   0.689  0.3977 -0.6739 -0.7585
  107MOL0     C14635   5.226   2.990   0.682 -0.5123  1.0687  0.4895
  107MOL0     O14636   5.139   2.884   0.711 -0.1488  0.2512  0.2781
  107MOL0     C14637   5.191   2.764   0.756 -0.9365  0.4114  0.4245
  107MOL0     C14638   5.080   2.673   0.816  0.3624  0.1949 -0.0153
  107MOL0     C14639   4.958   2.664   0.737  0.2398  0.3569  0.3399
  107MOL0     C14640   4.846   2.587   0.812  0.3150  0.6270  0.0919
  107MOL0     C14641   4.729   2.559   0.712  0.3731  0.4932  0.3236
  107MOL0     C14642   4.622   2.457   0.767 -0.6544  0.2470  0.9680
  107MOL0     C14643   4.580   2.484   0.912  0.2491 -0.0856  0.1118
  107MOL0     C14644   4.471   2.382   0.940  0.7339 -0.2814  0.1528
  107MOL0     N14645   4.412   2.384   1.071  0.0198 -0.1438  0.0303
  107MOL0     C14646   4.283   2.348   1.098 -0.1548 -0.1927  0.5134
  107MOL0     C14647   4.264   2.368   1.231 -0.1706  1.4070 -0.0811
  107MOL0     C14648   4.150   2.323   1.326  0.3750 -0.5027  0.1170
  107MOL0     C14649   4.104   2.180   1.268 -0.3179 -0.5884 -0.2500
  107MOL0     C14650   4.195   2.068   1.323 -0.6336  0.1061 -0.4517
  107MOL0     C14651   4.324   2.046   1.241  0.2875  0.1559 -0.0199
  107MOL0     O14652   4.280   2.007   1.114  0.5100  0.2973  0.2930
  107MOL0     C14653   4.360   2.012   1.009  0.2126 -0.3398 -0.2402
  107MOL0     C14654   4.503   1.992   1.008 -0.7481  0.3239  0.7031
  107MOL0     C14655   4.568   1.985   0.877 -0.5334 -0.7252 -0.3469
  107MOL0     C14656   4.716   1.976   0.873 -0.5651 -0.0634 -0.0695
  107MOL0     C14657   4.506   2.021   0.757  0.0877 -0.7078  0.8539
  107MOL0     C14658   4.559   2.013   0.616 -0.4250 -1.4128 -0.5724
  107MOL0     O14659   4.500   2.116   0.539 -0.9595  0.4457  0.0072
  107MOL0     C14660   4.577   2.198   0.456 -0.0358  0.2334 -0.1952
  107MOL0     C14661   4.511   2.259   0.346 -0.1892  0.8182  0.5897
  107MOL0     C14662   4.589   2.340   0.257  0.3542 -0.6092 -0.1448
  107MOL0     C14663   4.725   2.346   0.266  0.3353  0.7163 -0.8493
  107MOL0     O14664   4.802   2.416   0.170 -0.1890 -0.9874 -0.0147
  107MOL0     C14665   4.732   2.501   0.078  0.7747 -0.2626 -0.0554
  107MOL0     C14666   4.842   2.593   0.031  0.2578  0.5782  0.0875
  107MOL0     C14667   4.924   2.540  -0.086  0.3912 -0.3766  0.2752
  107MOL0     C14668   5.014   2.644  -0.149 -0.9785  0.5375  0.4126
  107MOL0     C14669   5.095   2.749  -0.059 -0.3842  0.5074  0.4602
  107MOL0     C14670   5.158   2.864  -0.140  0.4708  0.5941  0.7467
  107MOL0     C14671   5.294   2.826  -0.209  0.4848  0.6232  0.3042
  107MOL0     C14672   5.395   2.941  -0.216  0.6544  0.8003 -0.1165
  107MOL0    Cl14673   5.537   2.857  -0.288 -0.3301 -0.2006 -0.3108
  107MOL0     C14674   4.780   2.294   0.380  0.0105  0.9730 -0.2393
  107MOL0     C14675   4.712   2.213   0.474  0.2750 -0.3985 -0.2553
  107MOL0     O14676   4.656   1.939   0.577  0.1781  0.3635  0.0907
  107MOL0     C14677   4.364   2.041   0.765  0.7719  0.5366 -0.4790
  107MOL0     C14678   4.295   2.041   0.885 -0.1947  0.5552  0.7923
  107MOL0     N14679   4.382   2.421   1.277 -0.3260 -0.7854 -0.5575
  107MOL0     N14680   4.478   2.410   1.186 -0.4366  0.4099 -0.0667
  107MOL0     C14681   5.353   2.975   0.638 -0.5612 -1.5066 -0.0349
  107MOL0     C14682   5.428   3.082   0.595  0.5266 -0.1510  0.4937
  107MOL0     C14683   5.590   3.488   0.440  0.4907 -0.0636 -1.0271
  107MOL0     C14684   5.728   3.525   0.431 -0.1624  0.9580 -0.1909
  107MOL0     C14685   5.770   3.655   0.374  0.0754  0.2531  0.1147
  107MOL0     C14686   5.677   3.739   0.318  0.0478 -0.7294  0.7146
  107MOL0     O14687   5.695   3.873   0.272  0.4739  0.3830 -0.6916
  107MOL0     C14688   5.814   3.891   0.193 -0.3303  0.4041  0.0990
  107MOL0     C14689   5.888   4.017   0.241 -0.0485 -0.2738  0.5520
  107MOL0     C14690   5.796   4.136   0.264  0.7394 -0.8178 -0.4156
  107MOL0     C14691   5.872   4.264   0.256  0.5006  0.4586  0.7991
  107MOL0     C14692   5.795   4.389   0.266  0.2534  0.1716 -0.9012
  107MOL0     C14693   5.739   4.489   0.270  0.1031 -0.6776 -0.4401
  107MOL0     C14694   5.542   3.698   0.315 -0.4107  0.5527  0.3875
  107MOL0     C14695   5.498   3.577   0.383 -0.5429 -0.5423 -0.3957
  107MOL0     C14696   5.344   3.569   0.386 -0.1114  0.1458  0.6161
  107MOL0     H14697   5.209   3.334   0.659 -2.0019 -0.3073  2.8529
  107MOL0     H14698   5.080   3.135   0.721  1.7036  2.2634  2.6148
  107MOL0     H14699   5.281   2.779   0.816  0.5886 -0.1736 -1.6040
  107MOL0     H14700   5.236   2.705   0.676  0.3058 -2.9505  3.3430
  107MOL0     H14701   5.133   2.578   0.825  0.3364  0.3218  1.8373
  107MOL0     H14702   5.063   2.725   0.911  3.6127  1.0380  0.2276
  107MOL0     H14703   4.919   2.765   0.726  0.1441  0.3150  0.2925
  107MOL0     H14704   4.975   2.613   0.641  0.7551 -3.7978  2.3888
  107MOL0     H14705   4.890   2.494   0.849 -1.0523  0.8096  2.4366
  107MOL0     H14706   4.816   2.651   0.896  0.1925  1.3422 -0.4861
  107MOL0     H14707   4.768   2.509   0.623  0.2454  1.1390 -0.0986
  107MOL0     H14708   4.688   2.656   0.685 -4.1973 -0.6589  2.2020
  107MOL0     H14709   4.539   2.453   0.696  0.6777 -0.1896 -0.6100
  107MOL0     H14710   4.677   2.363   0.772 -2.5159 -0.9280  0.1210
  107MOL0     H14711   4.553   2.590   0.920 -0.3741 -0.1452 -0.9864
  107MOL0     H14712   4.663   2.476   0.983 -2.5997 -1.5703  3.6282
  107MOL0     H14713   4.397   2.422   0.870  0.7217  1.9941  1.3809
  107MOL0     H14714   4.500   2.282   0.904 -2.6222 -0.4270 -2.6478
  107MOL0     H14715   4.204   2.305   1.037 -1.1141  2.0904  0.0298
  107MOL0     H14716   4.073   2.400   1.317  1.3614  0.3646 -1.2979
  107MOL0     H14717   4.184   2.327   1.429 -3.0981  2.8479  1.3692
  107MOL0     H14718   4.009   2.164   1.320  0.6680 -0.5078  1.6985
  107MOL0     H14719   4.078   2.174   1.162 -1.8353  4.0729 -0.3629
  107MOL0     H14720   4.228   2.074   1.427 -0.4041  1.4252 -0.5758
  107MOL0     H14721   4.142   1.972   1.326  0.8682 -0.7685 -1.0070
  107MOL0     H14722   4.377   2.142   1.237 -0.3142  0.5187  0.5170
  107MOL0     H14723   4.395   1.979   1.290  1.7816 -0.6732 -3.0937
  107MOL0     H14724   4.558   2.001   1.101 -1.5125  3.4253  0.9726
  107MOL0     H14725   4.761   2.033   0.791 -0.4377 -0.4613 -0.2789
  107MOL0     H14726   4.733   1.868   0.862 -1.8724 -0.2507 -0.4195
  107MOL0     H14727   4.762   2.002   0.969  1.2653 -2.4298 -0.1994
  107MOL0     H14728   4.403   2.254   0.343 -0.3908  3.6351  0.3537
  107MOL0     H14729   4.530   2.385   0.178 -1.5191  0.0125  1.5219
  107MOL0     H14730   4.697   2.436  -0.002  2.4718  0.4605 -1.4455
  107MOL0     H14731   4.651   2.555   0.128 -0.4687 -2.0958  0.0054
  107MOL0     H14732   4.804   2.691   0.002  1.8925  2.0725  2.6266
  107MOL0     H14733   4.899   2.626   0.118  0.7331 -2.0696  0.8699
  107MOL0     H14734   4.860   2.501  -0.166  0.0326 -2.0732  1.3334
  107MOL0     H14735   4.981   2.454  -0.049  0.6341 -0.8673 -1.1761
  107MOL0     H14736   4.953   2.698  -0.221 -0.6618 -0.9717 -1.0326
  107MOL0     H14737   5.093   2.586  -0.198 -0.3272  0.4547  1.5063
  107MOL0     H14738   5.029   2.798   0.013 -0.3264  0.0684  0.8138
  107MOL0     H14739   5.173   2.697  -0.004  0.4884 -0.1805 -1.3547
  107MOL0     H14740   5.177   2.945  -0.069  0.2716  0.9929  0.3456
  107MOL0     H14741   5.088   2.895  -0.218 -0.8884  0.7744  2.0033
  107MOL0     H14742   5.267   2.792  -0.309  0.1819 -1.8086  1.1428
  107MOL0     H14743   5.337   2.744  -0.150 -0.2345 -1.0367 -1.4110
  107MOL0     H14744   5.407   2.981  -0.114  0.8393  1.7830 -0.5138
  107MOL0     H14745   5.374   3.023  -0.285 -1.4044 -1.7788 -2.7613
  107MOL0     H14746   4.888   2.297   0.379  0.0265  0.4813 -0.3980
  107MOL0     H14747   4.772   2.171   0.554  1.7612 -0.1382 -1.1820
  107MOL0     H14748   4.306   2.043   0.673  2.2955  1.3631 -1.4656
  107MOL0     H14749   4.189   2.056   0.899 -0.6884 -3.0825  2.1095
  107MOL0     H14750   5.396   2.875   0.643 -1.0875 -1.7841 -0.8992
  107MOL0     H14751   5.499   3.061   0.516 -4.1324  2.5367 -5.1659
  107MOL0     H14752   5.797   3.449   0.466 -1.8420 -1.3239 -1.5212
  107MOL0     H14753   5.873   3.684   0.392  1.3213 -2.9699 -1.1080
  107MOL0     H14754   5.880   3.803   0.198 -1.0591 -0.0816  3.0412
  107MOL0     H14755   5.780   3.905   0.090 -0.4652  1.1285  0.2393
  107MOL0     H14756   5.966   4.042   0.169 -0.1863 -0.6765  0.2613
  107MOL0     H14757   5.942   3.992   0.333  0.1284 -1.7670  0.0702
  107MOL0     H14758   5.712   4.127   0.195  0.6288 -5.1849 -0.0057
  107MOL0     H14759   5.750   4.125   0.362  0.6549  0.5918 -0.2786
  107MOL0     H14760   5.926   4.266   0.161  0.5169  3.0811  0.7941
  107MOL0     H14761   5.950   4.264   0.333  4.0121 -0.9744 -2.4628
  107MOL0     H14762   5.683   4.579   0.278 -0.8264 -0.9104 -3.1167
  107MOL0     H14763   5.462   3.755   0.269 -1.9152 -3.3197 -2.3344
  107MOL0     H14764   5.301   3.469   0.373 -2.5648  1.1177  0.7518
  107MOL0     H14765   5.308   3.623   0.474 -1.4478  1.5279 -0.7204
  107MOL0     H14766   5.302   3.622   0.300 -1.2731 -0.3992  0.8203
  108MOL0     O14767   1.945   0.643   6.819 -0.0519 -0.0163 -0.0828
  108MOL0     C14768   2.008   0.671   6.716  0.7035 -0.1522 -0.0183
  108MOL0     O14769   2.022   0.798   6.673 -0.0461  0.8293 -0.6929
  108MOL0     C14770   1.914   0.879   6.676 -0.1024 -0.3557 -0.8553
  108MOL0     C14771   1.783   0.838   6.641 -0.1957 -0.0392 -0.1667
  108MOL0     C14772   1.675   0.925   6.662  0.0362  0.9523  1.2570
  108MOL0     C14773   1.703   1.058   6.692 -0.1816 -0.8915 -0.2506
  108MOL0     O14774   1.599   1.152   6.724  0.1919 -0.1015  0.0717
  108MOL0     C14775   1.485   1.146   6.649  0.2778 -0.7652 -0.9847
  108MOL0     C14776   1.395   1.273   6.689  0.4036 -0.6506  0.6542
  108MOL0     C14777   1.433   1.397   6.605  0.9517  0.8712 -0.4180
  108MOL0     C14778   1.420   1.524   6.691  0.2698 -0.8262 -0.6547
  108MOL0     C14779   1.449   1.630   6.584  0.5933  0.7774  0.1838
  108MOL0     C14780   1.427   1.775   6.630  0.6440 -0.4124 -0.3850
  108MOL0     C14781   1.279   1.809   6.635 -0.3928 -0.5994 -0.5162
  108MOL0     C14782   1.250   1.956   6.662  0.0619  0.5700 -0.3837
  108MOL0     N14783   1.343   2.027   6.756  0.4750 -0.1190 -0.8931
  108MOL0     C14784   1.392   2.159   6.727  0.3509 -0.2007  0.0385
  108MOL0     C14785   1.444   2.202   6.846  0.1448 -0.7165 -0.3935
  108MOL0     C14786   1.515   2.334   6.869  0.8487  0.8057 -0.1919
  108MOL0     C14787   1.529   2.447   6.758  1.1884  0.3387 -0.5134
  108MOL0     C14788   1.629   2.553   6.813  0.0233 -0.5767 -0.6450
  108MOL0     C14789   1.631   2.685   6.735  0.4178  1.2374 -0.5887
  108MOL0     O14790   1.698   2.792   6.798  0.0712 -0.8110 -0.1399
  108MOL0     C14791   1.716   2.907   6.727 -0.2685 -1.1530  0.2070
  108MOL0     C14792   1.658   2.930   6.599 -0.2361  0.1616  0.7420
  108MOL0     C14793   1.657   3.058   6.546 -0.7001  0.4469  0.2400
  108MOL0     C14794   1.573   3.075   6.415 -0.5318  0.3145  0.1843
  108MOL0     C14795   1.733   3.165   6.601  0.1974  0.5342 -0.9264
  108MOL0     C14796   1.763   3.294   6.538  0.2750 -0.3569  0.2782
  108MOL0     O14797   1.756   3.404   6.624 -0.1451  0.5066  0.4414
  108MOL0     C14798   1.741   3.525   6.558 -0.5359  0.4073  0.5570
  108MOL0     C14799   1.847   3.601   6.505  0.3157  0.6461  0.5862
  108MOL0     C14800   1.835   3.717   6.424  0.4691  0.3459  0.3827
  108MOL0     C14801   1.701   3.773   6.411 -0.0979 -0.1711  1.1070
  108MOL0     O14802   1.667   3.894   6.377  0.2152 -0.0780  0.3132
  108MOL0     C14803   1.767   3.991   6.329 -0.0838  0.7176 -0.0342
  108MOL0     C14804   1.723   4.126   6.351  0.8503 -0.8565  1.0571
  108MOL0     C14805   1.573   4.133   6.324  0.1629  0.4901  0.6232
  108MOL0     C14806   1.526   4.273   6.288 -0.5745  0.7452  1.6758
  108MOL0     C14807   1.375   4.259   6.269  0.6225 -0.1997  0.0418
  108MOL0     C14808   1.305   4.391   6.227  0.9118  0.3163 -0.0215
  108MOL0     C14809   1.156   4.380   6.254  0.4827 -0.0224  0.6650
  108MOL0     C14810   1.081   4.507   6.238  0.0199  0.0823  0.0612
  108MOL0    Cl14811   1.130   4.626   6.356 -0.1334  0.0399 -0.4231
  108MOL0     C14812   1.594   3.696   6.467  0.1183 -0.0133  0.2164
  108MOL0     C14813   1.612   3.577   6.536 -0.1102 -0.3765  0.0068
  108MOL0     O14814   1.783   3.295   6.418  0.3450  0.3826 -0.7481
  108MOL0     C14815   1.789   3.139   6.726 -0.2778  0.0763  0.7021
  108MOL0     C14816   1.786   3.013   6.785  0.1045 -1.3164  0.4546
  108MOL0     N14817   1.438   2.101   6.940  0.8749  0.2702 -0.3156
  108MOL0     N14818   1.379   2.000   6.885  0.1636 -0.0215  0.1943
  108MOL0     C14819   1.836   1.102   6.715 -0.2227 -0.2647 -0.3888
  108MOL0     C14820   1.941   1.013   6.701 -0.5950 -0.0337  1.0494
  108MOL0     C14821   2.069   0.547   6.651 -0.3891  0.5965 -0.5078
  108MOL0     C14822   2.130   0.455   6.741  0.7464  0.0430 -0.8106
  108MOL0     C14823   2.207   0.351   6.692  0.9980 -0.0993 -0.4743
  108MOL0     C14824   2.240   0.344   6.559  0.4189 -1.0085 -0.1485
  108MOL0     O14825   2.332   0.253   6.512  0.2394 -0.1612 -0.4014
  108MOL0     C14826   2.285   0.120   6.489 -0.0460 -0.2595  0.0125
  108MOL0     C14827   2.409   0.048   6.431  0.2314  0.7077  0.5789
  108MOL0     C14828   2.396  -0.093   6.358 -0.5064 -1.7867 -0.2186
  108MOL0     C14829   2.534  -0.169   6.337 -0.1390 -0.6231 -0.0146
  108MOL0     C14830   2.534  -0.270   6.229 -0.6184 -0.4772  0.5382
  108MOL0     C14831   2.549  -0.340   6.131  0.0765 -1.2745 -0.0046
  108MOL0     C14832   2.174   0.426   6.471 -0.0313 -0.8621 -0.0708
  108MOL0     C14833   2.089   0.530   6.517 -0.1871  0.8017 -0.2057
  108MOL0     C14834   2.030   0.614   6.407  0.6041 -0.1082  0.3782
  108MOL0     H14835   1.753   0.739   6.609 -2.3441  0.6728 -0.5793
  108MOL0     H14836   1.578   0.886   6.631 -0.2956  2.8667 -0.2597
  108MOL0     H14837   1.427   1.055   6.667 -0.2236 -0.2731  0.0100
  108MOL0     H14838   1.504   1.149   6.541  0.8447  0.8256 -0.8689
  108MOL0     H14839   1.289   1.254   6.674  0.5703 -1.5645  0.5424
  108MOL0     H14840   1.409   1.299   6.795 -1.2228  0.4726  0.6293
  108MOL0     H14841   1.537   1.390   6.570  1.1629 -0.9326  0.4167
  108MOL0     H14842   1.370   1.401   6.516  0.2214 -2.7854 -0.2130
  108MOL0     H14843   1.318   1.534   6.728  1.0250  2.7763  0.8408
  108MOL0     H14844   1.492   1.539   6.772 -3.5837 -0.1645  2.9999
  108MOL0     H14845   1.374   1.619   6.504  0.9156  0.3892 -0.0657
  108MOL0     H14846   1.552   1.623   6.548  1.2404 -2.1830  2.1971
  108MOL0     H14847   1.474   1.804   6.725  2.1639  1.1692 -1.5659
  108MOL0     H14848   1.468   1.838   6.551 -0.2317  3.8428  2.2597
  108MOL0     H14849   1.239   1.732   6.702 -0.3471 -0.3489 -0.2028
  108MOL0     H14850   1.234   1.787   6.538  2.2477 -2.4984 -1.4341
  108MOL0     H14851   1.245   2.027   6.579 -0.7843  0.3182 -0.5638
  108MOL0     H14852   1.150   1.958   6.707 -0.0519  4.4259 -0.5307
  108MOL0     H14853   1.390   2.221   6.638 -1.7916 -1.7139 -1.0512
  108MOL0     H14854   1.617   2.311   6.901  0.7093 -2.6391 -1.7446
  108MOL0     H14855   1.454   2.373   6.951 -0.3712 -3.3409  1.1768
  108MOL0     H14856   1.573   2.417   6.663  1.9209 -2.8745  0.6979
  108MOL0     H14857   1.431   2.487   6.729  1.7538 -0.0912 -3.2447
  108MOL0     H14858   1.621   2.579   6.919  0.6122 -0.7190 -0.5644
  108MOL0     H14859   1.733   2.524   6.798  0.4187  0.5706 -0.2854
  108MOL0     H14860   1.673   2.661   6.637  1.2405 -1.9639  0.4228
  108MOL0     H14861   1.528   2.721   6.728  0.9018  3.0792  0.9898
  108MOL0     H14862   1.603   2.859   6.539 -3.5674  0.9589  2.5739
  108MOL0     H14863   1.488   3.143   6.430  0.2190  1.5172 -0.8954
  108MOL0     H14864   1.523   2.983   6.383  0.0877 -0.5610  1.6060
  108MOL0     H14865   1.643   3.117   6.343 -0.0157  1.5552  1.3665
  108MOL0     H14866   1.946   3.557   6.515  1.1152  2.8715  5.2195
  108MOL0     H14867   1.929   3.762   6.392  1.3645 -1.1074  0.8914
  108MOL0     H14868   1.866   3.990   6.374 -0.5778  0.7611  1.0854
  108MOL0     H14869   1.778   3.986   6.220 -3.6766  1.3851 -0.5468
  108MOL0     H14870   1.748   4.175   6.445  2.4041 -0.1149  0.2963
  108MOL0     H14871   1.782   4.180   6.276 -1.4999  1.7856  0.9188
  108MOL0     H14872   1.517   4.097   6.411 -0.8463 -2.3957 -1.0767
  108MOL0     H14873   1.534   4.077   6.238  1.0323 -1.5557  1.4874
  108MOL0     H14874   1.572   4.295   6.192 -1.7929 -4.0317 -0.3248
  108MOL0     H14875   1.557   4.343   6.366  2.5469  0.5009  0.7763
  108MOL0     H14876   1.343   4.178   6.203 -1.8249  1.5940 -1.1022
  108MOL0     H14877   1.344   4.253   6.374  3.8803  5.7815  1.8374
  108MOL0     H14878   1.324   4.417   6.122  3.0186 -2.9015 -0.5876
  108MOL0     H14879   1.341   4.473   6.289  1.7535  0.1920 -0.3327
  108MOL0     H14880   1.160   4.345   6.357 -0.1497 -0.7816  0.4463
  108MOL0     H14881   1.108   4.305   6.189  0.5893 -1.2303  1.9496
  108MOL0     H14882   0.975   4.489   6.259 -0.1487  0.6850 -0.2499
  108MOL0     H14883   1.101   4.547   6.139  0.1569 -0.8743 -0.3065
  108MOL0     H14884   1.493   3.735   6.468 -0.2694 -0.9895  0.2275
  108MOL0     H14885   1.527   3.536   6.592 -0.2755  0.4327  0.3593
  108MOL0     H14886   1.842   3.214   6.784  4.9412 -0.9088 -2.0938
  108MOL0     H14887   1.830   2.992   6.882  1.7730  0.1114  0.0386
  108MOL0     H14888   1.843   1.202   6.755 -1.5545  0.2737 -1.4338
  108MOL0     H14889   2.043   1.044   6.718 -0.0233 -1.0506 -0.3447
  108MOL0     H14890   2.117   0.456   6.849 -1.3183 -0.3069 -1.0104
  108MOL0     H14891   2.242   0.287   6.773  1.2528  3.1096  2.1619
  108MOL0     H14892   2.264   0.073   6.586  2.2725  0.1478  0.7547
  108MOL0     H14893   2.188   0.121   6.438 -0.6759  1.0968  1.1624
  108MOL0     H14894   2.481   0.030   6.512 -0.8570 -1.4685  1.1276
  108MOL0     H14895   2.451   0.115   6.355  0.0987 -1.3261 -1.3681
  108MOL0     H14896   2.327  -0.158   6.412 -1.8883 -1.8767 -1.9885
  108MOL0     H14897   2.360  -0.071   6.257 -0.9362  0.5838  0.3828
  108MOL0     H14898   2.571  -0.215   6.429  0.0729  1.9294  1.2781
  108MOL0     H14899   2.607  -0.088   6.327  0.8766 -1.6034 -0.6928
  108MOL0     H14900   2.546  -0.385   6.034 -0.8375 -1.2547  0.0066
  108MOL0     H14901   2.200   0.411   6.367 -0.2289 -0.5539 -0.1643
  108MOL0     H14902   1.921   0.609   6.417  0.7343 -2.2158  1.2504
  108MOL0     H14903   2.057   0.713   6.444 -1.0264 -0.7989  3.8770
  108MOL0     H14904   2.061   0.584   6.306  2.1798  0.7941  0.5518
  109MOL0     O14905   3.244   9.373   9.190 -0.0277  0.6045  0.3951
  109MOL0     C14906   3.318   9.297   9.115  0.9592 -1.2040  0.1259
  109MOL0     O14907   3.451   9.306   9.108  0.1881 -0.0917  0.4337
  109MOL0     C14908   3.501   9.434   9.152  0.9159 -0.4190  0.8202
  109MOL0     C14909   3.496   9.553   9.074  0.0494  0.3656  0.4739
  109MOL0     C14910   3.544   9.666   9.130 -0.1894  0.1322 -0.5857
  109MOL0     C14911   3.609   9.678   9.253 -0.5051 -0.9272 -0.2835
  109MOL0     O14912   3.669   9.796   9.302  0.8358 -0.6174  0.0950
  109MOL0     C14913   3.636   9.932   9.254 -0.4096  0.7649 -1.3303
  109MOL0     C14914   3.719  10.021   9.350 -1.2921  0.5103 -0.1014
  109MOL0     C14915   3.871  10.013   9.312  0.6593 -0.6713 -0.5812
  109MOL0     C14916   3.948  10.034   9.437 -1.7814  0.4892 -0.4941
  109MOL0     C14917   4.095  10.009   9.397  0.2851 -0.4974 -0.9387
  109MOL0     C14918   4.172  10.029   9.526 -0.0624 -0.0756 -0.3006
  109MOL0     C14919   4.328  10.000   9.523  0.3993 -0.0480  0.4865
  109MOL0     C14920   4.401  10.066   9.408 -0.1698  0.0648  0.5140
  109MOL0     N14921   4.408  10.213   9.408 -0.4007 -0.2167  0.0386
  109MOL0     C14922   4.304  10.294   9.403 -0.2314  0.2042  0.0969
  109MOL0     C14923   4.369  10.421   9.410  0.7923 -0.2512 -0.6636
  109MOL0     C14924   4.292  10.553   9.408  0.5099  0.0828 -0.1227
  109MOL0     C14925   4.300  10.626   9.552  0.1057  0.8468  1.1072
  109MOL0     C14926   4.435  10.684   9.582 -0.8792 -0.0689 -0.6607
  109MOL0     C14927   4.437  10.774   9.700 -0.3159 -0.6800  0.5120
  109MOL0     O14928   4.358  10.892   9.685  0.0475  0.4069  0.4981
  109MOL0     C14929   4.432  11.010   9.660  0.4649  0.0770  0.7577
  109MOL0     C14930   4.398  11.123   9.727  0.3975  0.3103  0.1450
  109MOL0     C14931   4.467  11.248   9.698 -0.1485  0.2914  0.1692
  109MOL0     C14932   4.454  11.359   9.797  0.5943  0.3298  0.4170
  109MOL0     C14933   4.557  11.254   9.589 -0.7667  0.2417  0.4982
  109MOL0     C14934   4.609  11.381   9.538 -0.4281  0.4125 -0.4947
  109MOL0     O14935   4.729  11.377   9.453 -0.4716 -0.1413  0.0271
  109MOL0     C14936   4.764  11.498   9.411 -0.1395 -1.0868 -0.1427
  109MOL0     C14937   4.794  11.500   9.275  0.6228 -0.0916 -0.0994
  109MOL0     C14938   4.833  11.613   9.204  0.1938  0.1205  0.8912
  109MOL0     C14939   4.857  11.734   9.273 -0.1818  0.6602 -1.0366
  109MOL0     O14940   4.899  11.851   9.220 -0.2287 -0.0597  0.0457
  109MOL0     C14941   4.832  11.891   9.100 -0.0203  0.2544 -0.0939
  109MOL0     C14942   4.925  11.946   8.990 -0.3926  0.1478  0.2102
  109MOL0     C14943   5.028  12.043   9.053 -1.0090 -0.5642 -0.0581
  109MOL0     C14944   4.985  12.175   9.125  0.2492 -0.3793 -0.4614
  109MOL0     C14945   5.099  12.263   9.166 -0.1773  0.3628 -0.0525
  109MOL0     C14946   5.076  12.416   9.148  0.4917  0.2788  0.1264
  109MOL0     C14947   5.152  12.490   9.249 -0.6153  0.7054 -0.0777
  109MOL0     C14948   5.137  12.641   9.233 -0.6042  0.3733 -1.2650
  109MOL0    Cl14949   5.128  12.693   9.057  0.0838  0.2495  0.2798
  109MOL0     C14950   4.856  11.730   9.410  0.0782 -0.2780 -1.2012
  109MOL0     C14951   4.813  11.615   9.478 -0.2577 -0.5383 -0.7257
  109MOL0     O14952   4.546  11.486   9.559 -0.4117 -0.1417  0.0360
  109MOL0     C14953   4.592  11.129   9.524  0.3701 -0.2768  0.3674
  109MOL0     C14954   4.544  11.011   9.569  0.7085 -0.1407 -0.4219
  109MOL0     N14955   4.505  10.404   9.424  0.4105 -0.6654 -0.4709
  109MOL0     N14956   4.528  10.282   9.406  0.1108 -0.0589  0.0336
  109MOL0     C14957   3.618   9.559   9.325 -0.0143 -0.2582  0.2491
  109MOL0     C14958   3.573   9.442   9.269 -1.2051  0.2036 -0.0370
  109MOL0     C14959   3.258   9.183   9.063 -0.9315 -0.2358  0.5990
  109MOL0     C14960   3.205   9.099   9.154  0.5537  0.8816  0.2587
  109MOL0     C14961   3.165   8.968   9.119 -0.3691 -0.1661  0.0494
  109MOL0     C14962   3.180   8.926   8.985 -0.1748 -0.2631  1.0948
  109MOL0     O14963   3.143   8.815   8.931 -0.0763  0.1335 -0.3048
  109MOL0     C14964   3.101   8.706   9.010  0.2972 -0.3996 -0.3328
  109MOL0     C14965   3.074   8.592   8.917 -0.7258  0.4490 -0.3190
  109MOL0     C14966   3.201   8.522   8.865 -0.6997  0.0569  0.1345
  109MOL0     C14967   3.163   8.458   8.728  0.0783 -0.4127 -0.4155
  109MOL0     C14968   3.040   8.373   8.745  0.3398 -0.1938  0.5611
  109MOL0     C14969   2.943   8.315   8.781  0.0906 -0.4663  0.7029
  109MOL0     C14970   3.223   9.017   8.885 -0.1184  0.4047 -0.2350
  109MOL0     C14971   3.262   9.149   8.925  0.8960 -0.1596  0.0697
  109MOL0     C14972   3.308   9.246   8.824  0.2728 -1.5013 -0.4467
  109MOL0     H14973   3.442   9.568   8.982 -0.2583  1.3074  0.7970
  109MOL0     H14974   3.523   9.763   9.086  1.6404  2.4226  2.9948
  109MOL0     H14975   3.532   9.960   9.273 -1.0410 -0.7545 -2.3492
  109MOL0     H14976   3.666   9.962   9.153 -1.8065 -1.3463 -2.4402
  109MOL0     H14977   3.688  10.125   9.343  0.2898  0.9233 -1.3313
  109MOL0     H14978   3.706   9.977   9.450  0.6603 -2.0555 -0.8524
  109MOL0     H14979   3.900   9.912   9.281  3.9082 -0.2075  0.5745
  109MOL0     H14980   3.902  10.080   9.232  1.7181  2.4203  2.1971
  109MOL0     H14981   3.940  10.138   9.469 -0.7648  0.5744 -0.4727
  109MOL0     H14982   3.915   9.971   9.520  0.7053 -0.7552 -0.3368
  109MOL0     H14983   4.120  10.086   9.322  1.4298  1.3974  1.2519
  109MOL0     H14984   4.128   9.910   9.365 -2.1913 -1.9361  0.6954
  109MOL0     H14985   4.160  10.127   9.573 -3.5215 -1.2208  1.5657
  109MOL0     H14986   4.135   9.958   9.600  0.8741 -1.2972 -0.9715
  109MOL0     H14987   4.358   9.898   9.495  0.9482  0.4768 -0.9130
  109MOL0     H14988   4.388  10.024   9.611  2.9052 -2.9061 -0.2542
  109MOL0     H14989   4.502  10.025   9.416  0.5377  1.6288 -0.1027
  109MOL0     H14990   4.357  10.026   9.316  0.6913  2.0939 -0.8274
  109MOL0     H14991   4.201  10.270   9.378  0.1591 -1.7136  0.1773
  109MOL0     H14992   4.185  10.537   9.389  0.8926 -0.5373 -1.9607
  109MOL0     H14993   4.336  10.613   9.328 -0.9472  0.6918 -0.4941
  109MOL0     H14994   4.230  10.710   9.559 -0.5475  0.2743  1.6057
  109MOL0     H14995   4.268  10.552   9.626 -0.1582 -0.8735 -0.6431
  109MOL0     H14996   4.501  10.600   9.603 -2.4206 -1.4343 -1.0537
  109MOL0     H14997   4.463  10.746   9.496 -4.6690  1.2548 -1.1217
  109MOL0     H14998   4.408  10.723   9.792  0.0304 -1.6905  0.0825
  109MOL0     H14999   4.540  10.804   9.717 -0.4089  1.2952 -1.8233
  109MOL0     H15000   4.324  11.126   9.807 -2.0838 -0.3907 -1.9763
  109MOL0     H15001   4.433  11.319   9.897  2.4162 -3.1490 -0.4201
  109MOL0     H15002   4.367  11.419   9.771 -0.6729 -1.5024  0.1901
  109MOL0     H15003   4.544  11.421   9.804  0.6946  0.1740  0.5248
  109MOL0     H15004   4.772  11.415   9.211  0.4404 -0.6080  0.6285
  109MOL0     H15005   4.825  11.620   9.096  1.1790 -1.0167  0.7224
  109MOL0     H15006   4.765  11.812   9.066  0.3779 -1.0767  2.0014
  109MOL0     H15007   4.767  11.977   9.120 -0.2877  0.6862 -2.5117
  109MOL0     H15008   4.965  11.868   8.925 -4.8680 -0.7798 -1.7856
  109MOL0     H15009   4.847  12.005   8.941 -2.9834 -1.5909  1.9979
  109MOL0     H15010   5.104  12.068   8.978 -0.2937 -3.4286 -0.3850
  109MOL0     H15011   5.091  12.003   9.132  0.8755  1.8855 -0.1811
  109MOL0     H15012   4.920  12.165   9.212  1.5907 -0.7325  0.5386
  109MOL0     H15013   4.925  12.234   9.055 -2.8348 -1.0448  1.4179
  109MOL0     H15014   5.137  12.236   9.265 -0.9111  1.3992  0.5334
  109MOL0     H15015   5.182  12.234   9.101 -1.2327  1.7718 -2.1527
  109MOL0     H15016   4.971  12.446   9.154  0.0675 -0.9407 -0.7314
  109MOL0     H15017   5.102  12.440   9.044 -1.2062 -1.6048 -0.8047
  109MOL0     H15018   5.259  12.480   9.232 -0.8096 -0.2712 -0.8894
  109MOL0     H15019   5.120  12.458   9.348 -0.6173  2.0464  0.3666
  109MOL0     H15020   5.214  12.702   9.281 -1.9450  3.3517 -2.6504
  109MOL0     H15021   5.040  12.675   9.268 -0.7717  0.4946 -1.8460
  109MOL0     H15022   4.874  11.807   9.483  0.0227 -2.2941  1.0538
  109MOL0     H15023   4.818  11.623   9.586  2.7018  0.2295 -0.8129
  109MOL0     H15024   4.649  11.131   9.431  0.2929 -0.1385  0.3227
  109MOL0     H15025   4.575  10.918   9.523 -1.2557 -2.5755  2.7415
  109MOL0     H15026   3.674   9.555   9.418 -1.0252 -0.9628  0.8406
  109MOL0     H15027   3.579   9.348   9.323  0.7344  0.7107  0.7041
  109MOL0     H15028   3.200   9.129   9.258 -0.7603  0.8300  0.2265
  109MOL0     H15029   3.132   8.917   9.209  3.3642 -1.8610  0.6325
  109MOL0     H15030   3.173   8.686   9.090  0.6111  0.4434 -0.3904
  109MOL0     H15031   3.008   8.735   9.060  0.6547  1.6670 -0.7755
  109MOL0     H15032   3.013   8.630   8.834  0.1014 -1.7853 -2.0408
  109MOL0     H15033   3.009   8.521   8.968 -2.5516  2.8226  0.8643
  109MOL0     H15034   3.279   8.594   8.841 -1.8321  0.6894 -1.8687
  109MOL0     H15035   3.224   8.450   8.944 -1.4728 -0.5122 -0.1444
  109MOL0     H15036   3.249   8.402   8.691 -0.1324 -0.8847 -0.2029
  109MOL0     H15037   3.141   8.531   8.650  0.7138 -1.3271 -1.4735
  109MOL0     H15038   2.853   8.265   8.811 -0.7327  1.2788  1.3001
  109MOL0     H15039   3.240   8.983   8.783  1.9359 -0.9748  0.4956
  109MOL0     H15040   3.414   9.248   8.796  0.9888 -0.5742  2.0701
  109MOL0     H15041   3.239   9.248   8.738 -0.6550 -1.6228  0.2835
  109MOL0     H15042   3.306   9.350   8.859 -2.7648 -1.6029 -0.0534
  110MOL0     O15043   2.152   2.098   5.079 -0.3140 -0.0868 -0.1055
  110MOL0     C15044   2.205   2.172   4.996 -1.3288 -0.0254  0.6316
  110MOL0     O15045   2.196   2.162   4.853  0.8242 -0.3927 -0.3913
  110MOL0     C15046   2.086   2.094   4.809 -0.1542  0.3402 -0.3109
  110MOL0     C15047   2.095   1.963   4.754 -0.1599  0.0247 -0.0638
  110MOL0     C15048   1.973   1.891   4.741  0.4379 -0.6064 -0.1789
  110MOL0     C15049   1.848   1.944   4.759 -0.0513 -0.0333 -0.5612
  110MOL0     O15050   1.727   1.888   4.730  0.0552  0.3016 -0.1981
  110MOL0     C15051   1.731   1.756   4.667  0.6813 -0.1932  0.0091
  110MOL0     C15052   1.595   1.728   4.602  0.1652  0.1864  0.3144
  110MOL0     C15053   1.544   1.852   4.520 -0.8144  0.3400  0.4530
  110MOL0     C15054   1.643   1.870   4.399  0.0454 -0.0505 -0.6157
  110MOL0     C15055   1.594   1.992   4.322 -0.5819  0.6360 -0.0168
  110MOL0     C15056   1.660   1.995   4.185 -0.5760 -0.4155  0.1169
  110MOL0     C15057   1.567   2.087   4.094  0.3063 -0.7488 -0.5148
  110MOL0     C15058   1.571   2.238   4.135  0.5986 -0.3953 -0.2180
  110MOL0     N15059   1.548   2.332   4.028  0.5051  0.2924  0.0314
  110MOL0     C15060   1.642   2.357   3.931  0.3437 -0.9111  0.0027
  110MOL0     C15061   1.586   2.449   3.850  0.2868  0.0391  0.6579
  110MOL0     C15062   1.664   2.508   3.738  0.2125 -0.1289  0.1156
  110MOL0     C15063   1.565   2.539   3.621 -0.7514  0.4776 -0.8385
  110MOL0     C15064   1.639   2.580   3.493 -0.6463  0.0730 -1.0668
  110MOL0     C15065   1.702   2.720   3.499 -0.2197 -0.6822  0.1981
  110MOL0     O15066   1.793   2.737   3.392 -0.6074  0.3257  0.2915
  110MOL0     C15067   1.761   2.780   3.264  0.3022 -0.7039 -0.4467
  110MOL0     C15068   1.859   2.798   3.175 -0.8520 -0.5831 -0.5543
  110MOL0     C15069   1.827   2.830   3.042 -0.5573 -0.2206 -0.5878
  110MOL0     C15070   1.955   2.852   2.964 -0.3122  0.2407 -0.5508
  110MOL0     C15071   1.700   2.879   3.002  0.1974  0.5308 -1.3512
  110MOL0     C15072   1.658   2.943   2.874 -1.1103 -0.9336 -0.2975
  110MOL0     O15073   1.527   2.973   2.867  0.0334 -0.1805  0.4382
  110MOL0     C15074   1.482   3.054   2.766 -1.3524 -0.6367 -0.1191
  110MOL0     C15075   1.553   3.179   2.730 -0.0660  0.9407  0.0882
  110MOL0     C15076   1.499   3.254   2.620 -0.2530  0.1297 -0.1954
  110MOL0     C15077   1.363   3.229   2.576 -0.9708  0.0527  0.0242
  110MOL0     O15078   1.304   3.316   2.490 -0.0797  0.0048  0.2439
  110MOL0     C15079   1.163   3.294   2.431  0.0252 -1.2632 -0.4721
  110MOL0     C15080   1.081   3.379   2.528  0.0152 -0.6017 -0.0515
  110MOL0     C15081   0.928   3.382   2.489 -0.5902 -0.6412  0.4034
  110MOL0     C15082   0.850   3.269   2.546  0.0427  0.2298 -0.8674
  110MOL0     C15083   0.733   3.215   2.469 -0.2537 -0.5754 -0.0014
  110MOL0     C15084   0.632   3.332   2.439 -0.0328  0.9577  1.1489
  110MOL0     C15085   0.530   3.287   2.337  0.0397  1.0589  0.6668
  110MOL0     C15086   0.432   3.388   2.307  0.3858 -0.2533 -0.5760
  110MOL0    Cl15087   0.336   3.412   2.452  0.4169  0.2915 -0.2368
  110MOL0     C15088   1.301   3.120   2.620 -0.4342  1.1311 -0.6410
  110MOL0     C15089   1.356   3.026   2.711  0.1764  0.3590  0.4414
  110MOL0     O15090   1.740   2.958   2.781 -0.3149 -0.2965  1.0659
  110MOL0     C15091   1.602   2.864   3.098 -0.2216 -0.3267 -0.1532
  110MOL0     C15092   1.626   2.814   3.225 -0.2794 -0.8140 -0.5044
  110MOL0     N15093   1.457   2.482   3.895  1.2977 -0.0667 -0.8637
  110MOL0     N15094   1.442   2.411   4.003 -0.3549  0.2348  0.1342
  110MOL0     C15095   1.850   2.075   4.797  0.6614 -0.3236 -0.7726
  110MOL0     C15096   1.956   2.156   4.837 -0.2897 -0.0629 -0.0141
  110MOL0     C15097   2.314   2.276   5.033 -0.8049  0.3302  0.1726
  110MOL0     C15098   2.333   2.388   4.955 -1.0428 -0.3596  0.0317
  110MOL0     C15099   2.429   2.494   5.000  0.4581  0.5288  0.1208
  110MOL0     C15100   2.490   2.491   5.129  0.6428  0.0299  0.3782
  110MOL0     O15101   2.595   2.576   5.161 -0.3328 -0.2788 -0.7690
  110MOL0     C15102   2.566   2.722   5.137 -0.1558  0.5810 -0.4104
  110MOL0     C15103   2.656   2.767   5.019 -0.0783 -0.4731  0.3397
  110MOL0     C15104   2.809   2.767   5.065  0.2557 -1.5777 -0.1093
  110MOL0     C15105   2.903   2.760   4.943 -0.3784  0.1093  0.4346
  110MOL0     C15106   2.907   2.626   4.880 -1.0904 -1.3398 -0.3034
  110MOL0     C15107   2.894   2.516   4.838  0.5634 -0.3533  0.1356
  110MOL0     C15108   2.481   2.370   5.199 -0.1697  0.2774 -0.2117
  110MOL0     C15109   2.400   2.264   5.150  1.1550  0.0846 -0.6574
  110MOL0     C15110   2.416   2.143   5.232  0.2588  0.5698 -0.2363
  110MOL0     H15111   2.194   1.951   4.712 -0.2085  5.2485 -2.4198
  110MOL0     H15112   1.981   1.798   4.685  0.2724  0.3411 -1.8493
  110MOL0     H15113   1.754   1.672   4.734  0.1616 -0.9475 -0.7390
  110MOL0     H15114   1.805   1.735   4.589  2.3933 -2.8264  2.1394
  110MOL0     H15115   1.612   1.640   4.539 -0.8062 -1.8062  2.6821
  110MOL0     H15116   1.519   1.701   4.676  2.0217  1.4173  2.8194
  110MOL0     H15117   1.441   1.832   4.488 -0.1090 -0.1476 -1.6907
  110MOL0     H15118   1.539   1.945   4.577 -0.4355  0.6914 -0.0772
  110MOL0     H15119   1.743   1.892   4.439 -1.1125 -0.5773  2.9618
  110MOL0     H15120   1.641   1.779   4.340  1.4038  0.4788 -1.5276
  110MOL0     H15121   1.633   2.084   4.367  1.7359  1.0374 -2.5660
  110MOL0     H15122   1.485   1.992   4.319 -0.5625  0.0306 -1.7620
  110MOL0     H15123   1.761   2.036   4.175 -1.2435  0.9131 -1.9198
  110MOL0     H15124   1.659   1.892   4.147  5.0043 -0.6893 -0.0617
  110MOL0     H15125   1.466   2.047   4.099  0.6466 -1.4794  1.9763
  110MOL0     H15126   1.610   2.089   3.994 -1.6522 -1.4228 -1.3999
  110MOL0     H15127   1.503   2.256   4.218 -0.4313 -1.4927 -0.7852
  110MOL0     H15128   1.674   2.253   4.170  2.2233 -2.5734 -3.5223
  110MOL0     H15129   1.744   2.322   3.919  0.7977  0.8667 -1.7739
  110MOL0     H15130   1.736   2.432   3.706 -0.2905 -2.5319  4.0265
  110MOL0     H15131   1.717   2.599   3.767 -1.0725  0.0376  2.1428
  110MOL0     H15132   1.505   2.449   3.604  1.2575 -1.1440  0.3205
  110MOL0     H15133   1.499   2.619   3.657  2.0114  1.4066  2.7100
  110MOL0     H15134   1.725   2.512   3.486 -0.1829  0.2822  1.4551
  110MOL0     H15135   1.565   2.565   3.414 -2.0114 -0.3915  0.2465
  110MOL0     H15136   1.618   2.789   3.488  1.3129  0.9626 -2.1871
  110MOL0     H15137   1.756   2.748   3.590 -0.1070  1.2136 -0.4047
  110MOL0     H15138   1.958   2.778   3.215 -0.7682  0.0037 -0.4593
  110MOL0     H15139   1.963   2.762   2.903 -3.5929 -1.8995  1.7926
  110MOL0     H15140   2.042   2.865   3.029 -0.4768 -0.7005 -0.1315
  110MOL0     H15141   1.958   2.938   2.896  4.5856  0.5173 -0.3213
  110MOL0     H15142   1.647   3.178   2.785  1.3729  0.7636 -2.2139
  110MOL0     H15143   1.558   3.334   2.577  0.7280 -1.4474 -1.8971
  110MOL0     H15144   1.152   3.316   2.324 -1.7734 -0.4269 -0.1611
  110MOL0     H15145   1.126   3.191   2.425  0.1844 -1.2635 -1.8988
  110MOL0     H15146   1.092   3.351   2.633  0.7517  2.3105  0.7315
  110MOL0     H15147   1.119   3.481   2.520  1.3816 -1.2059 -2.7658
  110MOL0     H15148   0.919   3.372   2.381 -0.2251 -1.3507  0.4370
  110MOL0     H15149   0.881   3.480   2.502 -3.0528 -1.5536 -0.9502
  110MOL0     H15150   0.810   3.299   2.643  0.5475  4.2344 -1.7237
  110MOL0     H15151   0.917   3.187   2.572 -0.2853  0.1748 -0.1668
  110MOL0     H15152   0.771   3.182   2.372 -0.7195  0.0296 -0.3969
  110MOL0     H15153   0.695   3.126   2.519  1.9579 -0.5966  1.7979
  110MOL0     H15154   0.679   3.413   2.383 -2.4205  2.9566  1.8779
  110MOL0     H15155   0.588   3.378   2.529 -3.2661  0.6007 -0.1250
  110MOL0     H15156   0.477   3.199   2.374 -1.1455  0.8537 -1.3974
  110MOL0     H15157   0.586   3.248   2.251  3.8721  1.1353  2.9119
  110MOL0     H15158   0.368   3.348   2.227 -1.0651  1.7501 -0.4893
  110MOL0     H15159   0.478   3.482   2.276 -0.4837  0.9555  1.5542
  110MOL0     H15160   1.201   3.102   2.580  0.6354  1.2649 -3.6578
  110MOL0     H15161   1.318   2.930   2.745  2.5532 -0.7899  0.0047
  110MOL0     H15162   1.500   2.890   3.072 -0.4097  0.5569  1.3695
  110MOL0     H15163   1.542   2.816   3.293 -1.4474 -1.4036 -1.8819
  110MOL0     H15164   1.759   2.134   4.793 -0.1903 -1.6295 -1.2842
  110MOL0     H15165   1.937   2.252   4.884  1.5213 -1.3372  3.7197
  110MOL0     H15166   2.259   2.417   4.881 -0.6920  3.8257  1.0909
  110MOL0     H15167   2.439   2.579   4.934 -0.5821  0.4524 -0.1540
  110MOL0     H15168   2.463   2.757   5.129 -0.4518 -0.0074  0.5682
  110MOL0     H15169   2.604   2.762   5.232 -5.3376 -0.0226  2.2712
  110MOL0     H15170   2.633   2.872   5.003  3.4233  0.7269  2.1375
  110MOL0     H15171   2.647   2.712   4.924 -1.2552 -1.5024  1.0220
  110MOL0     H15172   2.825   2.865   5.110 -1.6369 -0.7956 -1.0172
  110MOL0     H15173   2.837   2.699   5.145  0.7396 -0.8654  0.3291
  110MOL0     H15174   3.003   2.793   4.970 -1.2546  0.5871  3.3608
  110MOL0     H15175   2.879   2.839   4.871  0.1113  0.1828  0.3466
  110MOL0     H15176   2.891   2.411   4.821  1.6216 -0.4523  0.4695
  110MOL0     H15177   2.548   2.375   5.284 -1.7671  2.6887  1.0354
  110MOL0     H15178   2.320   2.094   5.251  0.1192 -0.7657 -3.7059
  110MOL0     H15179   2.478   2.075   5.174  1.7754  0.8471  0.9791
  110MOL0     H15180   2.470   2.161   5.326 -1.7951 -2.0103  1.6211
  111MOL0     O15181   7.688   9.371   9.731  0.0686 -0.1560 -0.3723
  111MOL0     C15182   7.608   9.335   9.644 -0.0710  0.8953  0.0057
  111MOL0     O15183   7.536   9.413   9.555  0.2156  0.6751 -0.1634
  111MOL0     C15184   7.537   9.550   9.567 -0.8573 -0.4605 -1.1474
  111MOL0     C15185   7.420   9.619   9.540  0.8810 -0.4740 -0.1307
  111MOL0     C15186   7.422   9.761   9.553  0.1038 -0.7437 -0.4782
  111MOL0     C15187   7.537   9.830   9.599  0.2714 -0.9189 -0.0363
  111MOL0     O15188   7.528   9.971   9.606 -0.1197  0.2197 -0.1739
  111MOL0     C15189   7.642  10.051   9.637 -0.3145 -0.0429 -1.0304
  111MOL0     C15190   7.588  10.175   9.710  0.5093  0.0397 -0.1572
  111MOL0     C15191   7.693  10.283   9.737 -0.3797  0.0568 -0.3522
  111MOL0     C15192   7.650  10.421   9.789  0.9058 -0.0661  0.0512
  111MOL0     C15193   7.778  10.495   9.819  0.6202  1.1901  0.6797
  111MOL0     C15194   7.749  10.635   9.872 -0.0216  0.9211  0.4812
  111MOL0     C15195   7.875  10.721   9.885  0.0007 -0.0858 -0.5084
  111MOL0     C15196   7.872  10.841   9.979  0.4367  0.9267 -0.0684
  111MOL0     N15197   7.991  10.828  10.072 -0.0547 -0.6989  0.2892
  111MOL0     C15198   8.128  10.826  10.031  0.6584 -0.1207 -0.0159
  111MOL0     C15199   8.196  10.751  10.116  0.4812 -0.7100 -0.3370
  111MOL0     C15200   8.350  10.730  10.098  0.5421  0.3942 -0.1666
  111MOL0     C15201   8.384  10.654   9.975 -0.2588 -0.4385  0.1264
  111MOL0     C15202   8.540  10.658   9.969  0.2940  0.3559 -0.9693
  111MOL0     C15203   8.594  10.622   9.828  0.4939  0.4565 -0.5838
  111MOL0     O15204   8.543  10.488   9.802  0.0317  0.2921 -0.0452
  111MOL0     C15205   8.561  10.437   9.671  0.5977 -0.7214  0.3391
  111MOL0     C15206   8.494  10.320   9.637  0.9843 -0.0379  0.1154
  111MOL0     C15207   8.494  10.269   9.506  0.6047 -0.2127 -0.2391
  111MOL0     C15208   8.427  10.132   9.482 -0.3848  0.6318  0.1037
  111MOL0     C15209   8.571  10.336   9.405 -0.7472 -0.8575 -0.0547
  111MOL0     C15210   8.601  10.281   9.269  0.3898 -0.4937  0.4208
  111MOL0     O15211   8.688  10.354   9.191 -0.0068 -0.2421 -0.3669
  111MOL0     C15212   8.716  10.301   9.069  0.2568  0.5378 -0.4151
  111MOL0     C15213   8.848  10.288   9.011  0.6479 -0.0551 -0.0767
  111MOL0     C15214   8.857  10.240   8.879 -0.3527  0.7157 -0.2304
  111MOL0     C15215   8.752  10.202   8.799 -0.1449 -0.1546 -0.7324
  111MOL0     O15216   8.780  10.157   8.674  0.3900  0.3060 -0.9667
  111MOL0     C15217   8.671  10.091   8.607 -0.1061  0.4916 -0.7566
  111MOL0     C15218   8.712  10.075   8.462 -0.0085 -0.6711  0.3839
  111MOL0     C15219   8.842   9.988   8.425  0.5690 -0.6604 -0.6708
  111MOL0     C15220   8.841   9.926   8.286  0.1635 -0.6225  0.4677
  111MOL0     C15221   8.910   9.795   8.279 -0.7427  0.2847 -0.5992
  111MOL0     C15222   8.834   9.685   8.351  0.9743  0.8023 -0.3884
  111MOL0     C15223   8.920   9.552   8.337  1.4151  0.1516 -0.6932
  111MOL0     C15224   8.841   9.432   8.389  0.4011 -0.2170 -0.0444
  111MOL0    Cl15225   8.895   9.396   8.547  0.1482 -0.5150 -0.0675
  111MOL0     C15226   8.626  10.215   8.860 -0.0686  1.2191 -0.5218
  111MOL0     C15227   8.610  10.264   8.988  0.3242  0.3439  0.5391
  111MOL0     O15228   8.537  10.177   9.231 -0.1200 -0.2637  0.2720
  111MOL0     C15229   8.647  10.449   9.440  0.0247 -0.0475 -0.1901
  111MOL0     C15230   8.640  10.502   9.567 -0.3360 -0.0586  0.6264
  111MOL0     N15231   8.112  10.706  10.209  0.2710 -0.0407  0.5126
  111MOL0     N15232   7.993  10.752  10.191  0.8194  0.6288  0.0194
  111MOL0     C15233   7.651   9.752   9.615 -0.3248 -0.8485  0.2132
  111MOL0     C15234   7.661   9.618   9.598  0.4326  0.2102 -0.0504
  111MOL0     C15235   7.570   9.187   9.643 -0.5172  0.1684 -1.1512
  111MOL0     C15236   7.615   9.110   9.754 -0.4096  0.4437 -0.6203
  111MOL0     C15237   7.598   8.967   9.766  0.9073 -0.2280  0.4814
  111MOL0     C15238   7.525   8.903   9.663 -0.4169 -0.8943  0.0172
  111MOL0     O15239   7.511   8.772   9.666  0.1177 -0.6793 -0.9079
  111MOL0     C15240   7.428   8.704   9.562  0.1944 -0.1094 -1.1231
  111MOL0     C15241   7.409   8.562   9.631 -0.4308 -0.0029 -0.0043
  111MOL0     C15242   7.548   8.495   9.651 -0.1899  0.2666 -0.3545
  111MOL0     C15243   7.531   8.374   9.737 -0.7974  0.3452  0.6573
  111MOL0     C15244   7.654   8.321   9.789 -0.3533 -0.1568  0.1415
  111MOL0     C15245   7.767   8.295   9.812  0.0937 -1.0183  0.3992
  111MOL0     C15246   7.485   8.981   9.551 -0.4921 -0.0697  0.0708
  111MOL0     C15247   7.504   9.126   9.536 -0.7984  0.3885 -0.7956
  111MOL0     C15248   7.431   9.184   9.415 -0.1446  0.1070 -0.4096
  111MOL0     H15249   7.331   9.564   9.512 -0.2538  1.0161  0.3992
  111MOL0     H15250   7.335   9.822   9.531 -0.7243 -1.5031  0.6240
  111MOL0     H15251   7.693  10.071   9.543  0.9261  0.1874 -0.3370
  111MOL0     H15252   7.715  10.001   9.702  0.2608  1.6005 -0.3702
  111MOL0     H15253   7.509  10.221   9.650  1.1673  1.8915  0.3289
  111MOL0     H15254   7.539  10.135   9.799  4.3200 -1.8257  1.3409
  111MOL0     H15255   7.749  10.241   9.821 -1.0111  1.0227  0.5859
  111MOL0     H15256   7.758  10.282   9.649  0.3266  3.3160  0.0086
  111MOL0     H15257   7.590  10.481   9.718 -0.0172 -0.7423  0.2391
  111MOL0     H15258   7.588  10.412   9.879  2.1597  1.6710  1.1356
  111MOL0     H15259   7.847  10.492   9.734 -1.4981 -0.2374 -1.1054
  111MOL0     H15260   7.833  10.448   9.901  3.3634  0.4420 -1.4375
  111MOL0     H15261   7.679  10.689   9.808  0.3193  1.2035  0.3374
  111MOL0     H15262   7.694  10.625   9.966 -0.7935 -2.8770 -0.2352
  111MOL0     H15263   7.907  10.755   9.785  0.9652  0.1487 -0.1347
  111MOL0     H15264   7.954  10.657   9.925  2.8142  1.8382 -2.5846
  111MOL0     H15265   7.864  10.939   9.930  0.5094  1.8043  1.6130
  111MOL0     H15266   7.783  10.832  10.042  1.0985 -2.9944  0.5433
  111MOL0     H15267   8.166  10.877   9.944  1.7541 -0.7212  0.0863
  111MOL0     H15268   8.386  10.671  10.182 -0.8745  1.0491  0.9375
  111MOL0     H15269   8.393  10.831  10.103  4.9994 -1.3059  0.3667
  111MOL0     H15270   8.340  10.554   9.983  0.9577 -0.9295  0.9737
  111MOL0     H15271   8.325  10.698   9.895  0.6397 -0.2267 -0.4308
  111MOL0     H15272   8.568  10.759  10.000 -2.5726  1.8095 -2.7840
  111MOL0     H15273   8.582  10.583  10.038  1.2847 -1.0351 -2.9696
  111MOL0     H15274   8.557  10.688   9.749  0.0165 -0.2994 -0.9995
  111MOL0     H15275   8.703  10.617   9.830  0.4719  0.0341 -0.4642
  111MOL0     H15276   8.439  10.268   9.714  0.5478 -0.4898 -0.4972
  111MOL0     H15277   8.363  10.105   9.566  0.6166 -3.0498 -0.1561
  111MOL0     H15278   8.503  10.054   9.471  0.1711  1.0954  0.5494
  111MOL0     H15279   8.364  10.139   9.393 -3.5642 -0.5454  2.1073
  111MOL0     H15280   8.943  10.306   9.059  0.3073  0.7083  0.3356
  111MOL0     H15281   8.957  10.237   8.837 -0.9904  2.5781 -2.0073
  111MOL0     H15282   8.648   9.990   8.640  2.1707  1.0190  3.1039
  111MOL0     H15283   8.579  10.149   8.616 -1.2739 -1.2657 -1.0366
  111MOL0     H15284   8.625  10.040   8.406  1.1610 -0.2877 -1.8087
  111MOL0     H15285   8.733  10.178   8.430 -0.4234 -0.6517  0.1620
  111MOL0     H15286   8.845   9.907   8.499 -0.4064 -0.5991 -0.5442
  111MOL0     H15287   8.928  10.053   8.441  0.7451 -0.8175 -0.9846
  111MOL0     H15288   8.892   9.995   8.217  0.6320  0.8370  2.1990
  111MOL0     H15289   8.745   9.925   8.233  0.6425  1.8306 -0.5893
  111MOL0     H15290   8.934   9.769   8.175  1.1602 -2.4464  0.4179
  111MOL0     H15291   9.002   9.801   8.338 -0.5945 -0.0610 -0.7930
  111MOL0     H15292   8.745   9.678   8.287  2.0772  1.2002 -2.0519
  111MOL0     H15293   8.813   9.706   8.456  1.7317  2.0067 -0.4506
  111MOL0     H15294   9.007   9.564   8.403 -0.8581  1.0553  2.3579
  111MOL0     H15295   8.949   9.534   8.233 -0.9476  0.6496 -1.5125
  111MOL0     H15296   8.872   9.355   8.317  1.6026  1.1545 -1.0639
  111MOL0     H15297   8.733   9.440   8.376  0.5226  0.7068 -0.5634
  111MOL0     H15298   8.531  10.182   8.818 -0.5890  0.8564  0.8871
  111MOL0     H15299   8.504  10.270   9.010  0.3956  0.6346  0.7980
  111MOL0     H15300   8.722  10.493   9.375  2.3824 -0.6601  1.9811
  111MOL0     H15301   8.692  10.594   9.590  0.8180 -0.0663 -1.6650
  111MOL0     H15302   7.739   9.806   9.649 -0.3699 -0.8660  0.3587
  111MOL0     H15303   7.755   9.564   9.603  2.1022  3.0135  2.0015
  111MOL0     H15304   7.668   9.163   9.833 -0.8688  0.3224 -0.2245
  111MOL0     H15305   7.631   8.908   9.850  0.7168  2.0931  2.2839
  111MOL0     H15306   7.329   8.751   9.568  0.3732  0.0791  1.4290
  111MOL0     H15307   7.478   8.704   9.465  4.9225  1.5107  0.9870
  111MOL0     H15308   7.349   8.501   9.562  0.2244 -2.1275  1.1986
  111MOL0     H15309   7.361   8.575   9.729 -0.7540  0.9251 -0.2728
  111MOL0     H15310   7.599   8.471   9.557 -1.0626 -0.8556 -0.5586
  111MOL0     H15311   7.616   8.568   9.697 -2.6753  2.4641  0.1031
  111MOL0     H15312   7.473   8.295   9.689  2.8994 -1.1986 -1.7158
  111MOL0     H15313   7.473   8.388   9.829  1.3036 -0.0564  2.1206
  111MOL0     H15314   7.870   8.270   9.832  0.8939  0.4808 -1.5065
  111MOL0     H15315   7.420   8.938   9.475 -3.5375  5.2035 -0.8035
  111MOL0     H15316   7.378   9.268   9.460 -0.5337 -1.1642  1.6372
  111MOL0     H15317   7.510   9.213   9.344  1.4946 -1.8631  0.5042
  111MOL0     H15318   7.364   9.110   9.370 -1.6184  0.2432  1.4423
  112MOL0     O15319   9.941   7.210   1.122  0.7469 -0.3440  0.5011
  112MOL0     C15320  10.050   7.211   1.066  0.2193  0.1016  0.5240
  112MOL0     O15321  10.172   7.176   1.123  0.1044 -0.6301 -0.3271
  112MOL0     C15322  10.184   7.243   1.248  0.6145  0.4860  0.0011
  112MOL0     C15323  10.196   7.382   1.264 -1.5841 -0.1286  0.6456
  112MOL0     C15324  10.193   7.438   1.389 -0.9422  0.6663  0.4102
  112MOL0     C15325  10.214   7.362   1.508 -0.7283  0.2388  0.4960
  112MOL0     O15326  10.212   7.422   1.628 -0.3593 -0.3092  0.2235
  112MOL0     C15327  10.275   7.347   1.741 -0.8879 -0.1508  0.4017
  112MOL0     C15328  10.172   7.310   1.841 -0.4534 -0.3795 -0.7935
  112MOL0     C15329  10.107   7.432   1.915  0.9718  0.3793  1.0673
  112MOL0     C15330  10.034   7.387   2.042  0.0631  0.1350  0.1596
  112MOL0     C15331  10.117   7.360   2.167 -0.3740  0.4307  0.3148
  112MOL0     C15332  10.034   7.398   2.293 -0.2474  0.6725 -0.4008
  112MOL0     C15333  10.100   7.355   2.425 -1.1646  0.2210 -0.3321
  112MOL0     C15334   9.997   7.376   2.544 -0.4477  0.3093 -0.4150
  112MOL0     N15335   9.934   7.516   2.545  0.1076  0.1379 -0.0331
  112MOL0     C15336  10.000   7.629   2.581  0.6758  0.4191 -1.5858
  112MOL0     C15337   9.918   7.728   2.555 -0.6061  1.6034 -1.0934
  112MOL0     C15338   9.929   7.866   2.613  0.9857 -0.2410 -0.2263
  112MOL0     C15339   9.840   7.901   2.736 -0.2133 -0.1753 -0.4329
  112MOL0     C15340   9.848   8.056   2.759 -0.0930  0.6615 -0.3618
  112MOL0     C15341   9.783   8.101   2.894  0.2139 -0.0286  0.6295
  112MOL0     O15342   9.637   8.113   2.891 -0.0099 -0.0587  0.1314
  112MOL0     C15343   9.582   8.208   2.806  0.0495  0.3037  0.7079
  112MOL0     C15344   9.639   8.317   2.744  0.5796 -0.5977  1.4382
  112MOL0     C15345   9.566   8.402   2.658  0.4549  0.0522 -0.1197
  112MOL0     C15346   9.647   8.509   2.573  0.7176  0.8110 -0.0756
  112MOL0     C15347   9.430   8.379   2.642  0.6621 -0.0393  0.1379
  112MOL0     C15348   9.337   8.481   2.571  0.0641 -0.2860 -0.8823
  112MOL0     O15349   9.372   8.607   2.550 -0.5020  0.1442 -0.4225
  112MOL0     C15350   9.299   8.684   2.474  0.7611 -0.0326  1.0592
  112MOL0     C15351   9.313   8.687   2.338 -0.9630  0.2454 -0.4228
  112MOL0     C15352   9.233   8.774   2.251  0.8975  0.3377  0.5947
  112MOL0     C15353   9.134   8.852   2.316  0.9234  0.0063  0.6946
  112MOL0     O15354   9.058   8.951   2.256  0.3524  0.4742  0.4854
  112MOL0     C15355   9.005   8.937   2.125  0.2072  0.2146  0.0847
  112MOL0     C15356   8.854   8.938   2.126  0.1378  0.1706  0.9533
  112MOL0     C15357   8.796   8.935   1.982 -0.2643 -0.1267 -0.0726
  112MOL0     C15358   8.820   9.073   1.922 -0.3686 -0.3360  0.6467
  112MOL0     C15359   8.724   9.087   1.792  0.4293 -0.0346  0.4445
  112MOL0     C15360   8.744   9.222   1.727 -0.3891 -0.3354  0.9167
  112MOL0     C15361   8.688   9.223   1.587  0.0951  0.5795 -0.4729
  112MOL0     C15362   8.730   9.350   1.513  0.1573 -0.2541  0.4796
  112MOL0    Cl15363   8.768   9.485   1.621  0.4073 -0.4925  0.0334
  112MOL0     C15364   9.124   8.849   2.450 -0.6605 -0.6602 -0.6369
  112MOL0     C15365   9.209   8.774   2.529  0.0861 -0.3905  0.4349
  112MOL0     O15366   9.230   8.433   2.537 -0.3091  0.3363  0.5965
  112MOL0     C15367   9.364   8.271   2.703 -0.2600 -0.0277  0.3534
  112MOL0     C15368   9.449   8.189   2.777  0.6839  0.3326 -0.5419
  112MOL0     N15369   9.806   7.680   2.497  0.2669 -0.0158 -0.5723
  112MOL0     N15370   9.818   7.553   2.491 -0.2504  0.6446  0.4719
  112MOL0     C15371  10.211   7.221   1.490  0.4540 -0.2103 -0.2015
  112MOL0     C15372  10.184   7.167   1.363  0.3114 -0.0038  1.4885
  112MOL0     C15373  10.031   7.224   0.916 -0.9028 -0.0670 -0.3209
  112MOL0     C15374  10.088   7.124   0.845 -0.6278 -0.4337  0.2577
  112MOL0     C15375  10.094   7.138   0.706 -0.1003 -0.3258 -0.4847
  112MOL0     C15376  10.035   7.247   0.637  1.0834  0.5624 -0.2576
  112MOL0     O15377  10.052   7.250   0.502  0.2515  0.0843  0.2589
  112MOL0     C15378   9.937   7.277   0.415 -0.5490  0.1825  0.4644
  112MOL0     C15379   9.964   7.226   0.277  0.1190 -0.1719 -0.3653
  112MOL0     C15380   9.974   7.071   0.265 -0.5974 -0.6354 -0.4985
  112MOL0     C15381  10.121   7.031   0.264 -0.1649  0.6295 -0.3085
  112MOL0     C15382  10.132   6.897   0.210 -0.5860 -0.9875  0.2242
  112MOL0     C15383  10.142   6.784   0.165 -0.1315  0.5718  0.0793
  112MOL0     C15384   9.950   7.334   0.715 -0.3351  0.2009 -0.9664
  112MOL0     C15385   9.944   7.318   0.854 -0.2865 -0.0733  0.3658
  112MOL0     C15386   9.851   7.407   0.928  0.4804 -0.3629 -0.2641
  112MOL0     H15387  10.180   7.440   1.174 -1.0958 -0.4623  0.3397
  112MOL0     H15388  10.171   7.545   1.385 -5.4041 -0.1285 -1.5079
  112MOL0     H15389  10.341   7.412   1.800  1.7104 -3.2853  1.2217
  112MOL0     H15390  10.337   7.263   1.709  1.7458  1.5166  0.7870
  112MOL0     H15391  10.097   7.248   1.792  0.5261  1.2164 -4.6345
  112MOL0     H15392  10.212   7.248   1.922 -2.1413  1.2373  1.3868
  112MOL0     H15393  10.184   7.507   1.933  2.2688 -0.1529 -1.7012
  112MOL0     H15394  10.034   7.470   1.842  0.4869 -2.4340 -0.0439
  112MOL0     H15395   9.966   7.462   2.084  1.0698 -0.3874  2.8820
  112MOL0     H15396   9.980   7.293   2.028  2.9254 -1.5809  0.0022
  112MOL0     H15397  10.206   7.423   2.167  1.3377 -1.5557  4.7157
  112MOL0     H15398  10.153   7.256   2.175  0.6600  0.9148  3.4737
  112MOL0     H15399   9.998   7.501   2.287 -0.6691  0.5454 -0.1570
  112MOL0     H15400   9.949   7.328   2.298  0.7718 -0.5460  0.9975
  112MOL0     H15401  10.192   7.411   2.441 -0.9041  0.2470 -1.7762
  112MOL0     H15402  10.122   7.248   2.420  1.4169  0.6224  0.8258
  112MOL0     H15403   9.922   7.307   2.505 -0.1270 -0.1999 -0.1467
  112MOL0     H15404  10.049   7.343   2.634 -0.0542  3.2333  0.5379
  112MOL0     H15405  10.094   7.626   2.636 -0.4119 -1.4671  0.3335
  112MOL0     H15406   9.891   7.940   2.541 -2.7811 -0.8960  0.8845
  112MOL0     H15407  10.032   7.878   2.647  1.3896 -1.3995 -1.0055
  112MOL0     H15408   9.737   7.875   2.709  1.0901 -2.6564 -3.6622
  112MOL0     H15409   9.889   7.847   2.818  3.2169  2.5684 -0.4158
  112MOL0     H15410   9.954   8.084   2.762 -0.2969  1.3447  2.1724
  112MOL0     H15411   9.800   8.108   2.676  0.3429 -0.9679 -1.6946
  112MOL0     H15412   9.811   8.030   2.973  1.8009 -1.1851 -0.8861
  112MOL0     H15413   9.829   8.197   2.918  2.4569 -0.0988 -2.6613
  112MOL0     H15414   9.748   8.321   2.742  0.5433  1.2430 -0.7317
  112MOL0     H15415   9.753   8.483   2.579  0.4147 -0.1124  2.4731
  112MOL0     H15416   9.655   8.609   2.617  2.4348  1.3367 -1.4947
  112MOL0     H15417   9.596   8.522   2.477 -1.1885 -1.1187  0.5935
  112MOL0     H15418   9.372   8.606   2.296 -0.3933  0.0385  0.7537
  112MOL0     H15419   9.253   8.771   2.145 -3.6894 -0.3287 -0.4803
  112MOL0     H15420   9.046   9.019   2.065 -0.7622  1.7547  1.4567
  112MOL0     H15421   9.036   8.843   2.078 -2.6165 -0.6318 -0.2190
  112MOL0     H15422   8.818   8.855   2.187  3.7046 -0.1860  2.8656
  112MOL0     H15423   8.809   9.022   2.181 -0.1341  0.1201  0.8124
  112MOL0     H15424   8.687   8.934   1.981 -0.2996  0.7524 -2.1072
  112MOL0     H15425   8.829   8.851   1.920 -4.2012 -3.2335  1.6010
  112MOL0     H15426   8.924   9.072   1.888 -0.3502  1.3373  0.6141
  112MOL0     H15427   8.789   9.153   1.990  0.3499  1.7634 -1.3735
  112MOL0     H15428   8.744   9.009   1.718  2.2779  0.9021 -0.0904
  112MOL0     H15429   8.620   9.080   1.827 -1.1286  2.2733 -3.1469
  112MOL0     H15430   8.852   9.236   1.719 -0.3334  2.4809  4.2346
  112MOL0     H15431   8.707   9.302   1.792  3.0611  3.1639 -1.0044
  112MOL0     H15432   8.581   9.228   1.610  0.4913 -2.2617  2.6195
  112MOL0     H15433   8.698   9.128   1.533 -2.3304 -0.3807  0.6153
  112MOL0     H15434   8.648   9.377   1.446 -0.0492 -0.9113  0.4594
  112MOL0     H15435   8.811   9.333   1.441 -1.3847  0.9823 -1.6926
  112MOL0     H15436   9.057   8.920   2.499  2.2155  0.1629  2.4467
  112MOL0     H15437   9.210   8.784   2.637 -1.2843  2.1182  0.2855
  112MOL0     H15438   9.256   8.258   2.709  0.0129 -3.1425 -0.1359
  112MOL0     H15439   9.398   8.108   2.828  2.5347 -0.3346  0.3597
  112MOL0     H15440  10.215   7.141   1.564 -1.5176  1.9804  2.5129
  112MOL0     H15441  10.190   7.062   1.338 -0.5249  0.4420 -0.8662
  112MOL0     H15442  10.143   7.042   0.889  1.1119  0.1833 -0.6700
  112MOL0     H15443  10.140   7.065   0.640 -0.8551 -0.8889 -0.3971
  112MOL0     H15444   9.861   7.217   0.465 -0.4165 -0.0216  0.4243
  112MOL0     H15445   9.915   7.384   0.408  0.5282  0.3317 -0.9956
  112MOL0     H15446  10.038   7.289   0.228 -1.9231  0.6081 -2.6136
  112MOL0     H15447   9.875   7.248   0.218  0.5325  2.7741 -0.0352
  112MOL0     H15448   9.921   7.011   0.340 -1.4151 -0.9797 -1.3280
  112MOL0     H15449   9.937   7.050   0.164 -0.0843  0.0785 -0.8434
  112MOL0     H15450  10.162   7.036   0.366  0.4537 -0.4249 -0.4944
  112MOL0     H15451  10.182   7.089   0.195 -2.2296  0.6368 -2.2406
  112MOL0     H15452  10.157   6.679   0.152  0.4817  0.2424  2.8318
  112MOL0     H15453   9.893   7.414   0.671  0.1830  1.3896  0.4492
  112MOL0     H15454   9.764   7.351   0.962  0.9525 -0.1324  1.4046
  112MOL0     H15455   9.907   7.453   1.010  1.9207  2.0778 -2.4383
  112MOL0     H15456   9.809   7.486   0.864 -1.8662 -0.6013  0.9109
  113MOL0     O15457   9.671   5.896   0.913  0.1584  0.2374 -0.3262
  113MOL0     C15458   9.564   5.911   0.970 -0.2134  0.4111  0.4940
  113MOL0     O15459   9.442   5.939   0.907 -0.3421 -0.0201 -0.7185
  113MOL0     C15460   9.430   5.906   0.775  1.4854 -0.7645  0.1945
  113MOL0     C15461   9.452   6.001   0.670 -0.3366  0.2072 -0.3230
  113MOL0     C15462   9.427   5.966   0.531 -0.5719  0.2414  0.2411
  113MOL0     C15463   9.383   5.837   0.508 -0.2429 -0.0914  0.0516
  113MOL0     O15464   9.357   5.818   0.374  0.4242 -0.1301 -0.3232
  113MOL0     C15465   9.228   5.753   0.341  0.0410 -0.3953  0.5524
  113MOL0     C15466   9.115   5.852   0.351 -0.4846 -0.3924 -0.3083
  113MOL0     C15467   9.118   5.982   0.269  0.5965 -0.8791  0.3575
  113MOL0     C15468   8.989   6.064   0.322 -0.8454  0.1036  0.1247
  113MOL0     C15469   8.957   6.178   0.233 -0.4366  0.2247 -0.8893
  113MOL0     C15470   9.049   6.292   0.273  0.6466 -0.6211  0.9118
  113MOL0     C15471   9.021   6.408   0.181  0.2603 -0.3221  0.0806
  113MOL0     C15472   9.118   6.516   0.211 -0.2456  0.5269  0.0102
  113MOL0     N15473   9.100   6.623   0.117 -0.0990 -0.5701 -0.3413
  113MOL0     C15474   9.020   6.735   0.131  0.2651 -0.4350  1.2581
  113MOL0     C15475   9.042   6.804   0.009  0.5053 -0.0386  0.2047
  113MOL0     C15476   8.973   6.929  -0.032  0.7216  1.0880  0.1831
  113MOL0     C15477   8.824   6.902  -0.072 -0.7965  0.2839 -0.3632
  113MOL0     C15478   8.765   7.034  -0.132 -0.6371  0.6298  0.2161
  113MOL0     C15479   8.624   7.002  -0.181  0.2927  0.0434 -0.4111
  113MOL0     O15480   8.532   6.989  -0.070 -0.1721 -0.2381 -0.9223
  113MOL0     C15481   8.452   7.094  -0.033 -0.5470  1.5186  0.8103
  113MOL0     C15482   8.477   7.230  -0.063  0.6465  0.4448 -0.0015
  113MOL0     C15483   8.400   7.326  -0.002  0.0900 -2.1885  0.7562
  113MOL0     C15484   8.459   7.466  -0.016 -0.3393 -1.0642  0.4730
  113MOL0     C15485   8.286   7.303   0.085 -0.4213  0.0843 -0.6777
  113MOL0     C15486   8.192   7.396   0.135  0.6404  0.8683 -1.3909
  113MOL0     O15487   8.098   7.336   0.217  0.0339 -0.2674  0.7139
  113MOL0     C15488   7.995   7.414   0.258  0.8477 -0.7162 -0.5006
  113MOL0     C15489   7.990   7.468   0.383  1.2102 -0.1311 -0.8921
  113MOL0     C15490   7.875   7.550   0.423 -1.4148 -0.1094 -0.6019
  113MOL0     C15491   7.783   7.582   0.333  0.9337  0.3398 -0.0463
  113MOL0     O15492   7.658   7.649   0.371 -0.3456  0.0907 -0.2785
  113MOL0     C15493   7.673   7.775   0.443  0.0724 -0.2880  1.3069
  113MOL0     C15494   7.617   7.896   0.370 -0.1836 -0.6406  0.2264
  113MOL0     C15495   7.672   7.934   0.231  0.2040 -0.7151  0.4015
  113MOL0     C15496   7.820   7.947   0.255 -0.1930 -0.5621  0.3829
  113MOL0     C15497   7.899   8.030   0.154 -0.0371  0.9377  0.1090
  113MOL0     C15498   8.044   8.008   0.164 -0.6450 -0.2147  0.6364
  113MOL0     C15499   8.121   8.087   0.053 -0.8914 -0.4386  0.0608
  113MOL0     C15500   8.253   8.015   0.014 -0.3582  0.2919  0.2270
  113MOL0    Cl15501   8.242   7.829  -0.010  0.0872  0.4660  0.3756
  113MOL0     C15502   7.795   7.533   0.199 -0.9011  0.3848  0.0325
  113MOL0     C15503   7.900   7.449   0.155 -0.1703 -0.1591 -0.1134
  113MOL0     O15504   8.213   7.517   0.126 -0.1863 -0.4457  0.7698
  113MOL0     C15505   8.264   7.167   0.105  0.3066  0.7856 -0.7324
  113MOL0     C15506   8.343   7.065   0.047  0.1895 -0.3600  0.0909
  113MOL0     N15507   9.135   6.732  -0.065 -0.5535 -0.2338  0.0425
  113MOL0     N15508   9.174   6.630   0.000 -0.1304 -1.2054  0.1360
  113MOL0     C15509   9.363   5.747   0.606  0.9556  0.2021  0.1505
  113MOL0     C15510   9.386   5.782   0.739  0.1173  0.7675  0.6250
  113MOL0     C15511   9.564   5.920   1.124  0.4038  0.6672  0.6067
  113MOL0     C15512   9.512   6.032   1.180  0.2334  0.6857 -0.4614
  113MOL0     C15513   9.517   6.050   1.318 -0.0754  0.3748  0.0766
  113MOL0     C15514   9.576   5.957   1.408 -0.0098  0.2486  1.0812
  113MOL0     O15515   9.593   5.976   1.543  0.4384 -0.5651 -0.7937
  113MOL0     C15516   9.522   6.075   1.627  0.2718  0.1440 -0.4923
  113MOL0     C15517   9.376   6.032   1.646  0.0623  0.1768  1.4389
  113MOL0     C15518   9.366   5.895   1.702  0.1044  0.4192  0.3064
  113MOL0     C15519   9.226   5.858   1.760 -0.4650  0.1007  0.6540
  113MOL0     C15520   9.180   5.922   1.883  0.4704 -0.5413  0.1548
  113MOL0     C15521   9.143   5.982   1.976  0.4216 -0.1321 -0.3258
  113MOL0     C15522   9.636   5.849   1.346  1.3233 -0.0160 -0.1106
  113MOL0     C15523   9.635   5.835   1.206 -0.8043 -0.3239 -0.6432
  113MOL0     C15524   9.708   5.709   1.162  0.3869 -0.3753  0.4711
  113MOL0     H15525   9.490   6.100   0.690  1.0931 -0.9199  3.1817
  113MOL0     H15526   9.453   6.040   0.456  1.4498 -0.0443  0.6011
  113MOL0     H15527   9.198   5.683   0.419 -0.0234 -0.6109  0.3351
  113MOL0     H15528   9.228   5.703   0.243 -0.5497 -1.4787  1.0958
  113MOL0     H15529   9.018   5.803   0.336 -1.8756  1.6722  1.3326
  113MOL0     H15530   9.113   5.889   0.454  2.8702  1.4160 -0.7482
  113MOL0     H15531   9.205   6.046   0.282  0.0897  0.3963 -1.9492
  113MOL0     H15532   9.114   5.964   0.161  0.1430  1.7220 -0.1124
  113MOL0     H15533   8.898   6.003   0.317  0.4982 -2.0748  0.9470
  113MOL0     H15534   9.002   6.087   0.428  0.6189 -2.8902  0.6998
  113MOL0     H15535   8.853   6.207   0.251 -0.7143 -0.2547 -1.6670
  113MOL0     H15536   8.966   6.154   0.126  0.0910 -1.5738 -0.4806
  113MOL0     H15537   9.024   6.313   0.378  0.6278 -1.1415  1.0156
  113MOL0     H15538   9.154   6.263   0.265  1.4683  1.6391  2.3718
  113MOL0     H15539   8.924   6.455   0.203  0.4117 -0.4689  1.1085
  113MOL0     H15540   9.023   6.370   0.079 -1.4637  1.6916 -0.7815
  113MOL0     H15541   9.105   6.560   0.310  1.2489  1.4145 -0.1623
  113MOL0     H15542   9.218   6.477   0.192 -0.8779  0.0777 -2.9340
  113MOL0     H15543   8.960   6.754   0.219 -0.5069 -0.5232  0.7539
  113MOL0     H15544   9.030   6.983  -0.108 -0.0315 -0.9477 -1.9700
  113MOL0     H15545   8.960   6.988   0.058 -0.8880  1.4146 -0.2291
  113MOL0     H15546   8.809   6.818  -0.140 -2.7420  0.0587  0.2805
  113MOL0     H15547   8.772   6.877   0.020  2.6897 -2.1156  1.1552
  113MOL0     H15548   8.754   7.113  -0.057  1.0609  0.1335  1.0412
  113MOL0     H15549   8.829   7.053  -0.219  0.0226 -0.2004  0.5075
  113MOL0     H15550   8.580   7.067  -0.257 -0.0470  0.1550 -0.1260
  113MOL0     H15551   8.624   6.909  -0.238  3.9502 -0.5420  0.2740
  113MOL0     H15552   8.554   7.257  -0.135  0.2559  1.0478 -0.2035
  113MOL0     H15553   8.554   7.469  -0.068 -1.0877  3.0828 -1.0521
  113MOL0     H15554   8.489   7.516   0.077  1.0184 -1.4408  0.2571
  113MOL0     H15555   8.392   7.538  -0.065  1.3680  0.4107  0.2174
  113MOL0     H15556   8.077   7.441   0.442  1.4502  1.0474 -0.6827
  113MOL0     H15557   7.877   7.587   0.525 -0.1367 -0.8884 -0.3203
  113MOL0     H15558   7.607   7.763   0.529  0.0592 -3.8048  0.9665
  113MOL0     H15559   7.775   7.800   0.474 -0.2997  0.4958  1.9262
  113MOL0     H15560   7.508   7.885   0.369 -0.0456 -3.0828 -2.8243
  113MOL0     H15561   7.628   7.974   0.446 -2.9962  0.8753 -0.7540
  113MOL0     H15562   7.602   8.012   0.199 -2.0931 -2.0739  1.8568
  113MOL0     H15563   7.649   7.844   0.172 -1.5841  0.3056 -0.5541
  113MOL0     H15564   7.862   7.846   0.257 -0.9216 -0.8758  0.1655
  113MOL0     H15565   7.843   8.004   0.346 -0.1650 -0.6024  0.4015
  113MOL0     H15566   7.860   7.995   0.058  2.6532 -0.2368 -0.6650
  113MOL0     H15567   7.868   8.133   0.168 -1.5243  0.6630 -0.8828
  113MOL0     H15568   8.056   7.899   0.154  0.4145 -0.0182 -0.5203
  113MOL0     H15569   8.080   8.026   0.266 -0.1055 -1.2715  0.6480
  113MOL0     H15570   8.152   8.186   0.088 -0.6507  0.6667 -2.9516
  113MOL0     H15571   8.056   8.103  -0.034  0.6691  1.6530 -0.8437
  113MOL0     H15572   8.326   8.020   0.095  2.7802 -1.8612 -2.2298
  113MOL0     H15573   8.297   8.060  -0.075 -1.6822  2.0962  0.4212
  113MOL0     H15574   7.714   7.556   0.131 -0.0528  0.2099 -1.0558
  113MOL0     H15575   7.908   7.405   0.056 -3.1583 -1.6482  0.1543
  113MOL0     H15576   8.178   7.131   0.161  0.4772 -0.5621 -1.3029
  113MOL0     H15577   8.318   6.962   0.071  1.0616 -0.9673 -1.4705
  113MOL0     H15578   9.332   5.646   0.579 -0.6552  0.4056  1.1009
  113MOL0     H15579   9.374   5.717   0.824  0.9622 -1.1730 -0.6672
  113MOL0     H15580   9.465   6.100   1.109 -0.8843 -1.0671 -1.4679
  113MOL0     H15581   9.494   6.147   1.362 -0.2395  0.8544 -1.0475
  113MOL0     H15582   9.582   6.068   1.718  2.8466  2.8503 -1.8281
  113MOL0     H15583   9.518   6.175   1.585 -2.9645 -0.1416 -1.0783
  113MOL0     H15584   9.317   6.033   1.553  0.3531 -2.4121  1.1596
  113MOL0     H15585   9.338   6.104   1.719 -4.4513  0.1508 -0.5108
  113MOL0     H15586   9.387   5.824   1.621 -1.3150  1.5039 -1.0853
  113MOL0     H15587   9.437   5.879   1.783 -0.0445 -0.0994  0.3407
  113MOL0     H15588   9.215   5.750   1.759 -1.8385  0.1739 -1.8316
  113MOL0     H15589   9.158   5.884   1.678  1.3520 -1.4435 -1.4430
  113MOL0     H15590   9.097   6.015   2.067  1.3938 -0.5823  0.3530
  113MOL0     H15591   9.686   5.773   1.404  0.7624 -1.3406 -1.2950
  113MOL0     H15592   9.679   5.687   1.059  2.8806  1.6290 -0.7680
  113MOL0     H15593   9.816   5.719   1.168  0.2830  0.2012  1.6922
  113MOL0     H15594   9.684   5.621   1.222  4.6423 -2.0856 -0.0446
  114MOL0     O15595  10.982   5.657   8.815 -0.4620  1.0019  0.4168
  114MOL0     C15596  11.073   5.626   8.747 -1.5459 -0.5281  0.8884
  114MOL0     O15597  11.120   5.494   8.722 -0.4741  0.5008  0.0952
  114MOL0     C15598  11.053   5.391   8.774  1.1239  0.4603  0.1641
  114MOL0     C15599  11.037   5.377   8.910 -0.0526  0.5686 -0.2004
  114MOL0     C15600  10.967   5.273   8.963  0.4537  0.1756 -0.4799
  114MOL0     C15601  10.907   5.172   8.884  0.4007 -0.0064 -0.8079
  114MOL0     O15602  10.838   5.084   8.960 -0.1051  0.1175 -0.5686
  114MOL0     C15603  10.743   4.999   8.898  0.1812 -0.3391  0.1473
  114MOL0     C15604  10.648   4.915   8.985  0.1344 -0.2143  0.1105
  114MOL0     C15605  10.559   4.990   9.084  0.0318 -0.4541  0.4362
  114MOL0     C15606  10.484   4.879   9.150 -0.3417  0.0964  0.1342
  114MOL0     C15607  10.387   4.929   9.267 -0.2985 -0.1391  0.7878
  114MOL0     C15608  10.319   4.800   9.333 -0.3002  0.0723 -0.7066
  114MOL0     C15609  10.270   4.846   9.471 -0.0969  0.5163  0.3683
  114MOL0     C15610  10.289   4.724   9.564 -0.0585  0.9656 -0.0150
  114MOL0     N15611  10.257   4.733   9.704  0.6882  0.5187 -0.0966
  114MOL0     C15612  10.130   4.747   9.768 -0.9363  0.6347  0.3263
  114MOL0     C15613  10.168   4.736   9.904  0.7952 -0.6096  1.0487
  114MOL0     C15614  10.075   4.754  10.021 -0.2742  0.6831  1.0029
  114MOL0     C15615  10.058   4.616  10.096 -0.3825  0.3530  0.4195
  114MOL0     C15616   9.947   4.641  10.201  0.1542 -0.2700  0.0583
  114MOL0     C15617   9.892   4.520  10.276  0.4050 -0.4908 -0.4280
  114MOL0     O15618   9.841   4.409  10.205 -0.1836 -1.0310  0.6695
  114MOL0     C15619   9.784   4.314  10.286  0.4082 -0.7899  0.5348
  114MOL0     C15620   9.816   4.183  10.262  0.8902 -0.5055 -0.2617
  114MOL0     C15621   9.753   4.070  10.323 -1.1564 -0.9410  1.3768
  114MOL0     C15622   9.774   3.940  10.261  0.8575 -0.1536 -0.3628
  114MOL0     C15623   9.674   4.097  10.436  0.6582  0.0986 -0.2743
  114MOL0     C15624   9.630   3.980  10.530 -0.7526 -0.9002 -0.7650
  114MOL0     O15625   9.496   3.982  10.582 -0.6336 -0.1371  0.5480
  114MOL0     C15626   9.453   3.857  10.626 -0.0523  0.1712  0.2960
  114MOL0     C15627   9.485   3.729  10.576  0.0086 -0.1943  0.3728
  114MOL0     C15628   9.414   3.613  10.617  0.1712 -0.7948 -0.0803
  114MOL0     C15629   9.329   3.617  10.728  0.1318  0.2644 -0.9417
  114MOL0     O15630   9.273   3.503  10.794  0.9135 -0.5741  0.3589
  114MOL0     C15631   9.257   3.391  10.709  0.9506 -0.3758 -1.3153
  114MOL0     C15632   9.176   3.280  10.770  0.3846 -1.1665 -0.8278
  114MOL0     C15633   9.051   3.329  10.835 -0.1909 -0.3722  0.0149
  114MOL0     C15634   8.947   3.223  10.868  0.1845  0.2434  0.5724
  114MOL0     C15635   8.824   3.296  10.920 -0.0131 -0.9037  0.5995
  114MOL0     C15636   8.697   3.204  10.964 -0.3648  0.2413  0.4110
  114MOL0     C15637   8.591   3.290  11.041 -0.3008  0.0774 -0.3140
  114MOL0     C15638   8.485   3.352  10.953  0.1619 -0.0546 -0.3487
  114MOL0    Cl15639   8.355   3.424  11.050  0.6325  0.1396  0.2164
  114MOL0     C15640   9.314   3.736  10.789  0.4661  0.3566  0.4718
  114MOL0     C15641   9.366   3.856  10.738  0.1681 -0.0839 -0.9419
  114MOL0     O15642   9.718   3.901  10.564 -0.2007 -0.3786  0.9660
  114MOL0     C15643   9.648   4.229  10.468  0.0326 -0.5271  0.7844
  114MOL0     C15644   9.701   4.331  10.393  0.4050  0.8033  0.1043
  114MOL0     N15645  10.305   4.706   9.923  0.3370 -1.0953 -0.4107
  114MOL0     N15646  10.352   4.706   9.801  0.1006  0.7904 -0.7761
  114MOL0     C15647  10.932   5.176   8.747 -0.8222 -1.0508 -0.6978
  114MOL0     C15648  10.995   5.287   8.692 -0.7523 -0.2099  0.0516
  114MOL0     C15649  11.145   5.741   8.685 -0.5177  0.8815 -0.5043
  114MOL0     C15650  11.280   5.713   8.661  1.3070 -1.1701 -0.0502
  114MOL0     C15651  11.371   5.816   8.631  0.4531 -0.1616 -0.4166
  114MOL0     C15652  11.326   5.942   8.626  0.8602 -0.0912 -0.3451
  114MOL0     O15653  11.417   6.040   8.604 -0.3225 -0.2663  0.1538
  114MOL0     C15654  11.406   6.162   8.683  0.4286  0.3197 -0.0217
  114MOL0     C15655  11.530   6.247   8.667 -0.4794 -0.5247 -0.0155
  114MOL0     C15656  11.556   6.365   8.762  0.6777 -0.2532 -0.6063
  114MOL0     C15657  11.694   6.427   8.755  0.1958  0.1665  1.7122
  114MOL0     C15658  11.709   6.504   8.628  1.2026 -1.5265  0.2880
  114MOL0     C15659  11.734   6.560   8.529 -0.8706  0.3766  0.1621
  114MOL0     C15660  11.190   5.972   8.632 -0.0627  0.6350  0.0414
  114MOL0     C15661  11.099   5.875   8.662  1.1911  0.4155 -1.1619
  114MOL0     C15662  10.951   5.910   8.662 -0.9473  0.8565 -0.5048
  114MOL0     H15663  11.083   5.455   8.970 -0.4055 -0.8076  1.9940
  114MOL0     H15664  10.951   5.258   9.069 -4.0181  1.5775 -0.7388
  114MOL0     H15665  10.810   4.940   8.834  3.4132  3.2999 -0.1992
  114MOL0     H15666  10.682   5.058   8.830 -0.3224 -2.1836 -1.0853
  114MOL0     H15667  10.589   4.850   8.921  1.1957 -3.2200  1.9869
  114MOL0     H15668  10.722   4.858   9.042  0.6254 -0.0690 -0.3711
  114MOL0     H15669  10.616   5.048   9.156  0.7452  1.3984 -1.5028
  114MOL0     H15670  10.501   5.066   9.029  0.4572  0.4271  1.1790
  114MOL0     H15671  10.432   4.816   9.077 -1.6933 -0.5526  1.5895
  114MOL0     H15672  10.549   4.811   9.206 -0.5191  0.4613  0.7997
  114MOL0     H15673  10.311   5.001   9.235 -0.3648  0.1652  1.6104
  114MOL0     H15674  10.441   4.989   9.341  0.3752  2.0134 -1.3058
  114MOL0     H15675  10.230   4.777   9.273 -1.1535  1.9498 -0.2623
  114MOL0     H15676  10.391   4.718   9.341 -1.0481 -0.4794  1.0612
  114MOL0     H15677  10.162   4.854   9.459  0.0817  1.1219 -1.0440
  114MOL0     H15678  10.311   4.939   9.511 -0.2838  1.4485 -1.4957
  114MOL0     H15679  10.242   4.637   9.519  2.4264 -0.6646  0.3584
  114MOL0     H15680  10.396   4.700   9.571 -0.8329 -2.6046  1.8304
  114MOL0     H15681  10.035   4.773   9.722  0.7119  1.9620 -2.6815
  114MOL0     H15682   9.983   4.792   9.977  0.5288  1.7389  0.1778
  114MOL0     H15683  10.120   4.824  10.092  2.0805  0.0746  0.2202
  114MOL0     H15684  10.024   4.546  10.020  0.7360  5.0358 -5.0672
  114MOL0     H15685  10.140   4.575  10.157  0.0038  2.2398  1.2561
  114MOL0     H15686   9.983   4.722  10.265 -0.2923  0.6651 -0.8395
  114MOL0     H15687   9.865   4.681  10.142  0.9458  0.6095 -0.4769
  114MOL0     H15688   9.959   4.496  10.359 -0.9754  0.1592  0.9290
  114MOL0     H15689   9.805   4.563  10.326 -3.0489 -1.5418 -4.8447
  114MOL0     H15690   9.877   4.169  10.174  2.8557 -3.5109  1.3737
  114MOL0     H15691   9.777   3.956  10.153 -5.6247  2.9184 -0.5602
  114MOL0     H15692   9.684   3.879  10.277 -0.3285  1.5043 -0.4473
  114MOL0     H15693   9.865   3.896  10.303  0.4305  0.2909  1.0769
  114MOL0     H15694   9.561   3.721  10.498  2.1642 -0.1674  2.3745
  114MOL0     H15695   9.436   3.519  10.567 -1.0208 -1.0703 -0.1109
  114MOL0     H15696   9.204   3.423  10.618  0.0801  0.4405 -0.5475
  114MOL0     H15697   9.354   3.351  10.678  0.3251 -0.5714 -3.1393
  114MOL0     H15698   9.148   3.212  10.690 -0.6748 -1.5313 -0.1693
  114MOL0     H15699   9.239   3.238  10.850  0.1083  2.6612  1.6816
  114MOL0     H15700   8.988   3.390  10.769 -0.5846  1.9957  2.4019
  114MOL0     H15701   9.077   3.376  10.930  4.4909 -1.8623 -0.2963
  114MOL0     H15702   8.979   3.144  10.937  1.1004 -1.3327 -1.5191
  114MOL0     H15703   8.920   3.158  10.784  1.3897 -0.8121  0.9491
  114MOL0     H15704   8.838   3.354  11.011  1.4341 -1.7508  0.9539
  114MOL0     H15705   8.786   3.349  10.832 -1.1100 -3.3351 -0.5078
  114MOL0     H15706   8.730   3.128  11.035  2.6512  1.0875  0.0628
  114MOL0     H15707   8.651   3.157  10.876 -1.5218  1.8339  0.1119
  114MOL0     H15708   8.643   3.369  11.096  0.2916 -1.8325  2.0505
  114MOL0     H15709   8.532   3.240  11.119 -0.8814  0.3272 -0.5834
  114MOL0     H15710   8.447   3.269  10.892  3.2765 -0.1177 -2.4780
  114MOL0     H15711   8.512   3.414  10.867  0.3210 -0.9151 -0.9413
  114MOL0     H15712   9.260   3.736  10.883  0.8757  0.7065  0.7073
  114MOL0     H15713   9.351   3.950  10.791  2.0406  0.5743 -1.4991
  114MOL0     H15714   9.587   4.246  10.556 -0.0681 -1.3631  0.8861
  114MOL0     H15715   9.679   4.432  10.426  0.6289  0.8742  0.0389
  114MOL0     H15716  10.885   5.106   8.679 -1.9600  0.0131 -1.0434
  114MOL0     H15717  10.992   5.267   8.585 -3.2559 -0.5128  0.1234
  114MOL0     H15718  11.323   5.614   8.671  1.2643 -1.2060 -0.2103
  114MOL0     H15719  11.478   5.799   8.626  0.4985 -0.3195  0.8586
  114MOL0     H15720  11.320   6.226   8.660  0.0773 -0.4702 -1.0168
  114MOL0     H15721  11.393   6.144   8.790 -1.9499  0.6597 -0.2060
  114MOL0     H15722  11.519   6.292   8.568 -2.7187 -1.6304 -0.3538
  114MOL0     H15723  11.622   6.188   8.672  0.8929  1.5466  0.2531
  114MOL0     H15724  11.485   6.443   8.733  2.7653  1.8283 -0.4340
  114MOL0     H15725  11.553   6.326   8.864  1.5905 -0.5282 -0.6781
  114MOL0     H15726  11.772   6.351   8.758 -0.2600 -0.2866  3.5876
  114MOL0     H15727  11.718   6.497   8.836 -0.3157 -0.0373  2.0421
  114MOL0     H15728  11.760   6.602   8.434  0.6093  2.8638  1.5522
  114MOL0     H15729  11.161   6.076   8.618 -1.3142  0.1732 -0.9935
  114MOL0     H15730  10.931   5.987   8.586  3.9034  2.8265 -0.1967
  114MOL0     H15731  10.893   5.819   8.645 -0.3797 -0.6384  4.1953
  114MOL0     H15732  10.939   5.954   8.762  0.7413  1.8442 -0.6945
  115MOL0     O15733   2.430   0.818   0.283 -0.4387  0.3967 -0.5672
  115MOL0     C15734   2.365   0.784   0.189  0.3447 -0.1406 -0.2612
  115MOL0     O15735   2.409   0.767   0.066 -0.0448 -0.6217 -0.0337
  115MOL0     C15736   2.544   0.772   0.036  0.4172  0.2953 -0.4805
  115MOL0     C15737   2.607   0.665  -0.023  0.2193 -0.2515 -0.2547
  115MOL0     C15738   2.747   0.681  -0.044 -0.7267  0.2371  0.2242
  115MOL0     C15739   2.822   0.794  -0.001 -0.2790 -0.7388 -0.7892
  115MOL0     O15740   2.948   0.830  -0.027  0.5261 -0.5448  0.1527
  115MOL0     C15741   3.041   0.759   0.049  0.9624  0.4754 -0.7267
  115MOL0     C15742   3.164   0.726  -0.041  0.2146  0.0022 -1.3562
  115MOL0     C15743   3.250   0.849  -0.073  0.3444 -0.1889 -0.4713
  115MOL0     C15744   3.338   0.894   0.049 -0.7156 -0.1377  0.2526
  115MOL0     C15745   3.425   1.014   0.021  0.2898 -0.6158 -0.4742
  115MOL0     C15746   3.523   1.038   0.132 -0.7180 -1.0457  0.8325
  115MOL0     C15747   3.455   1.099   0.256 -1.1317 -0.7176 -0.4973
  115MOL0     C15748   3.425   1.006   0.375 -0.8342  0.3397  0.1600
  115MOL0     N15749   3.541   0.963   0.449 -0.0661  0.6017 -0.0497
  115MOL0     C15750   3.606   1.038   0.544  0.8367 -0.1503  0.5926
  115MOL0     C15751   3.693   0.966   0.611 -1.2287  0.4131  1.2431
  115MOL0     C15752   3.767   1.003   0.742  0.6982  0.0490  0.2793
  115MOL0     C15753   3.671   1.011   0.863 -0.1948  0.3302 -0.8042
  115MOL0     C15754   3.594   1.138   0.878  1.5825 -0.4979 -0.9697
  115MOL0     C15755   3.563   1.138   1.032  0.5494  0.7192  0.8325
  115MOL0     O15756   3.441   1.214   1.048  1.0441 -0.5801  0.2031
  115MOL0     C15757   3.382   1.217   1.175  0.2663 -0.5802  0.5913
  115MOL0     C15758   3.321   1.325   1.226  0.2474  0.5231 -0.8846
  115MOL0     C15759   3.239   1.325   1.345  0.5007 -0.9355  0.6775
  115MOL0     C15760   3.185   1.466   1.377  0.3319 -0.0391  0.1396
  115MOL0     C15761   3.215   1.199   1.408  0.0815 -0.6329 -0.3732
  115MOL0     C15762   3.133   1.183   1.535 -0.5942  0.0763  0.7958
  115MOL0     O15763   3.059   1.297   1.563 -0.1112 -0.5353 -0.3673
  115MOL0     C15764   2.945   1.279   1.633  0.0885 -0.1830 -0.2342
  115MOL0     C15765   2.938   1.262   1.768 -0.9363 -1.3150  1.0504
  115MOL0     C15766   2.820   1.239   1.835  1.7057  0.0533  1.2532
  115MOL0     C15767   2.704   1.222   1.763 -0.3944  0.7470  0.3310
  115MOL0     O15768   2.582   1.190   1.820  0.1256  0.1252 -0.6518
  115MOL0     C15769   2.540   1.217   1.953 -0.9546  0.5910 -0.5089
  115MOL0     C15770   2.561   1.361   2.002  0.3725 -0.1180 -0.5746
  115MOL0     C15771   2.469   1.464   1.925 -0.4944  0.9699  0.8004
  115MOL0     C15772   2.468   1.610   1.972  0.0038 -0.6570  0.1332
  115MOL0     C15773   2.593   1.694   1.935 -0.1634  0.4982  0.6273
  115MOL0     C15774   2.609   1.826   2.010 -0.7034 -0.0843 -0.7454
  115MOL0     C15775   2.523   1.940   1.964  0.6261 -0.5567 -0.6650
  115MOL0     C15776   2.408   1.979   2.070 -0.7004 -0.6183 -0.4943
  115MOL0    Cl15777   2.459   2.069   2.222  0.4787  0.2820 -0.1155
  115MOL0     C15778   2.699   1.246   1.627  0.1418  0.7616 -0.3957
  115MOL0     C15779   2.822   1.280   1.563  0.3880 -0.2115  0.3476
  115MOL0     O15780   3.161   1.093   1.613  1.0984  0.5278  0.6284
  115MOL0     C15781   3.280   1.090   1.352 -0.8138 -0.5967  0.2891
  115MOL0     C15782   3.374   1.098   1.248  0.8462 -0.4439 -0.0458
  115MOL0     N15783   3.688   0.839   0.556  0.4225 -0.2106 -0.4339
  115MOL0     N15784   3.605   0.838   0.457 -0.6746 -0.2284  0.5601
  115MOL0     C15785   2.749   0.896   0.048  0.0259 -0.5754 -0.1973
  115MOL0     C15786   2.612   0.890   0.067  0.5105 -0.2148 -0.1366
  115MOL0     C15787   2.213   0.755   0.220 -0.6743  0.0589  1.0141
  115MOL0     C15788   2.160   0.780   0.349  0.1597  0.1924  0.2577
  115MOL0     C15789   2.031   0.740   0.378  1.1477  0.0768 -0.3758
  115MOL0     C15790   1.942   0.691   0.280  0.4577  1.0938  0.0255
  115MOL0     O15791   1.832   0.618   0.317 -0.3680 -0.3248 -0.7275
  115MOL0     C15792   1.718   0.637   0.239  1.3920  0.1827  0.6976
  115MOL0     C15793   1.683   0.506   0.173  0.6149  0.0133 -0.1424
  115MOL0     C15794   1.573   0.502   0.068 -0.4117  0.3030  0.4289
  115MOL0     C15795   1.630   0.509  -0.076 -0.4261  0.7317  0.4427
  115MOL0     C15796   1.706   0.384  -0.104  0.8337 -0.0554 -0.9831
  115MOL0     C15797   1.764   0.280  -0.141 -1.3806 -0.2655 -0.2699
  115MOL0     C15798   1.992   0.665   0.151  0.5436 -1.3215  1.4190
  115MOL0     C15799   2.123   0.698   0.118 -0.0867 -0.1379 -1.1157
  115MOL0     C15800   2.164   0.664  -0.018  0.2000 -0.1140 -0.2168
  115MOL0     H15801   2.547   0.576  -0.037 -0.0452 -0.6310  2.7263
  115MOL0     H15802   2.805   0.609  -0.100 -2.0247 -2.1916  1.8383
  115MOL0     H15803   3.002   0.660   0.073  1.7677 -0.1649 -1.9739
  115MOL0     H15804   3.057   0.811   0.144  0.0427 -1.4365  0.5548
  115MOL0     H15805   3.227   0.657   0.016 -0.8872  0.1285  0.0915
  115MOL0     H15806   3.134   0.681  -0.135 -1.9839  1.2083 -1.2890
  115MOL0     H15807   3.315   0.813  -0.152  5.2174  1.3508  2.4015
  115MOL0     H15808   3.178   0.927  -0.100 -0.3211 -0.7226 -0.2752
  115MOL0     H15809   3.268   0.911   0.131 -0.5589 -0.1108  0.3821
  115MOL0     H15810   3.398   0.807   0.079 -0.3496 -0.8818 -2.3698
  115MOL0     H15811   3.354   1.096   0.013 -0.9303 -1.0493  3.6005
  115MOL0     H15812   3.482   0.995  -0.071  0.6667 -0.4173 -0.2843
  115MOL0     H15813   3.589   0.954   0.153  0.1734 -0.6992 -0.4684
  115MOL0     H15814   3.586   1.116   0.088 -1.0085 -0.5616  1.2495
  115MOL0     H15815   3.358   1.145   0.238 -2.0627 -1.5455  1.9770
  115MOL0     H15816   3.523   1.183   0.277  0.1906 -0.8954 -3.6047
  115MOL0     H15817   3.356   1.065   0.436 -2.0326  1.7846 -2.4391
  115MOL0     H15818   3.373   0.920   0.331  0.3370  0.2272 -1.0941
  115MOL0     H15819   3.586   1.143   0.563  5.0260  1.3538 -1.9873
  115MOL0     H15820   3.803   1.107   0.741 -1.5506  0.9759  2.8618
  115MOL0     H15821   3.854   0.936   0.746 -1.4083 -3.1097 -2.2073
  115MOL0     H15822   3.593   0.934   0.853 -3.3683  3.3604 -1.0726
  115MOL0     H15823   3.738   0.988   0.947 -1.0824  0.9704  0.1123
  115MOL0     H15824   3.650   1.229   0.855  1.0083  0.7613  2.0830
  115MOL0     H15825   3.492   1.127   0.840 -1.2248 -0.1830  5.2651
  115MOL0     H15826   3.532   1.035   1.054  0.4448  0.6994  0.5966
  115MOL0     H15827   3.645   1.174   1.094  0.2966  2.4454  0.2106
  115MOL0     H15828   3.344   1.410   1.163  1.2399  0.5622 -0.4897
  115MOL0     H15829   3.088   1.463   1.326 -0.4075  0.5156  1.4711
  115MOL0     H15830   3.245   1.546   1.331 -1.9480  4.6242  4.3599
  115MOL0     H15831   3.179   1.492   1.483 -0.9143  2.4584 -0.4691
  115MOL0     H15832   3.034   1.276   1.817 -1.5175  2.1933  1.4705
  115MOL0     H15833   2.835   1.228   1.942  4.0955  0.9209  1.0657
  115MOL0     H15834   2.449   1.163   1.979  1.4954 -2.8822  1.6781
  115MOL0     H15835   2.606   1.165   2.023 -1.9974 -0.4621 -0.2788
  115MOL0     H15836   2.538   1.380   2.107 -4.0730  0.2872 -1.4279
  115MOL0     H15837   2.666   1.390   1.996  0.4497  0.0364  1.2420
  115MOL0     H15838   2.368   1.420   1.925  0.8092 -2.3502 -0.2194
  115MOL0     H15839   2.496   1.464   1.820  1.0009  6.1099  0.9473
  115MOL0     H15840   2.476   1.609   2.081  3.6589  1.4260  0.0232
  115MOL0     H15841   2.372   1.649   1.936 -0.0410 -2.8278 -2.4866
  115MOL0     H15842   2.673   1.625   1.963  1.2368  2.0938  0.6972
  115MOL0     H15843   2.590   1.716   1.828  2.4629  1.1352  0.6170
  115MOL0     H15844   2.712   1.864   2.008 -0.6491 -0.2373 -0.8600
  115MOL0     H15845   2.593   1.823   2.118  0.9366  0.1127 -0.4732
  115MOL0     H15846   2.473   1.921   1.869  0.7353  1.9132 -1.2761
  115MOL0     H15847   2.587   2.027   1.946  0.0046 -0.0445 -0.4316
  115MOL0     H15848   2.351   1.891   2.101  1.1930 -1.7046  0.0772
  115MOL0     H15849   2.339   2.051   2.026  0.6976  0.9720 -0.1665
  115MOL0     H15850   2.604   1.241   1.574 -3.4290 -0.5957  5.2007
  115MOL0     H15851   2.813   1.307   1.458 -0.2198 -1.7195 -0.0171
  115MOL0     H15852   3.283   0.993   1.402  2.0459 -0.2647  0.9506
  115MOL0     H15853   3.424   1.006   1.217  1.0539 -0.4408  0.2688
  115MOL0     H15854   2.804   0.985   0.076  2.7581 -2.3134  0.3447
  115MOL0     H15855   2.569   0.976   0.118  0.6918  0.4188 -1.0462
  115MOL0     H15856   2.228   0.818   0.424  1.0688 -0.4897 -0.1998
  115MOL0     H15857   1.985   0.737   0.476  2.0566 -0.0562  0.0530
  115MOL0     H15858   1.631   0.687   0.282 -0.3816 -3.1303  1.2726
  115MOL0     H15859   1.741   0.696   0.149  1.7368 -0.6720  0.2141
  115MOL0     H15860   1.649   0.434   0.248  0.3358 -0.0286 -0.3065
  115MOL0     H15861   1.772   0.459   0.131  3.0831  1.2306  3.3191
  115MOL0     H15862   1.524   0.405   0.079  1.5605 -0.6921  0.8242
  115MOL0     H15863   1.492   0.571   0.092  0.5126  1.0762  1.4009
  115MOL0     H15864   1.694   0.596  -0.096 -0.7868  1.0384  0.6029
  115MOL0     H15865   1.545   0.513  -0.145 -0.9862 -0.9449  0.9974
  115MOL0     H15866   1.821   0.193  -0.168  1.3272  1.1248  0.6287
  115MOL0     H15867   1.935   0.618   0.071 -0.8866  1.2614  0.8268
  115MOL0     H15868   2.079   0.629  -0.078  0.4640 -0.8358 -0.1807
  115MOL0     H15869   2.199   0.763  -0.050 -1.1004  1.6665  3.3186
  115MOL0     H15870   2.246   0.594  -0.037 -1.8587 -2.1195 -2.6532
  116MOL0     O15871   6.818  10.244   1.143 -0.3889  0.2853 -0.1837
  116MOL0     C15872   6.932  10.212   1.107  0.7779  0.3803 -1.1396
  116MOL0     O15873   7.009  10.104   1.151 -0.0246  0.5148 -0.8405
  116MOL0     C15874   6.964  10.035   1.265 -0.0299 -0.3774  0.3342
  116MOL0     C15875   6.967   9.896   1.277 -0.0501 -0.5790  0.3989
  116MOL0     C15876   6.926   9.836   1.388 -0.5889  0.3450 -0.8209
  116MOL0     C15877   6.888   9.907   1.501 -0.3629  0.1510 -0.1470
  116MOL0     O15878   6.866   9.823   1.615  0.1115  0.0536  0.4417
  116MOL0     C15879   6.880   9.892   1.742 -0.6194  0.0648  0.3792
  116MOL0     C15880   7.020   9.879   1.796  0.5368 -0.1309 -0.0773
  116MOL0     C15881   7.072   9.731   1.803 -1.2139 -0.0041  0.7672
  116MOL0     C15882   6.973   9.640   1.862  0.2545  0.3188  0.0373
  116MOL0     C15883   7.039   9.494   1.885  0.1360  0.5355  0.6501
  116MOL0     C15884   6.926   9.396   1.907 -0.1731  0.6052 -0.0625
  116MOL0     C15885   6.977   9.265   1.962 -0.4557  0.7536 -0.7386
  116MOL0     C15886   7.040   9.175   1.845 -0.6925  0.9267 -0.8762
  116MOL0     N15887   7.142   9.083   1.911  0.5416  0.4490  0.4307
  116MOL0     C15888   7.272   9.087   1.877  0.2115 -0.8947  0.4067
  116MOL0     C15889   7.326   8.985   1.940 -0.3865  0.3010 -0.5205
  116MOL0     C15890   7.466   8.936   1.918 -0.1870  1.0017 -1.0005
  116MOL0     C15891   7.576   9.000   1.998  0.4585 -0.6855 -0.3111
  116MOL0     C15892   7.609   9.141   1.944  0.8322  0.7170  0.3247
  116MOL0     C15893   7.685   9.211   2.039  0.5140 -0.5093 -0.3348
  116MOL0     O15894   7.809   9.138   2.059 -1.0303  0.8120 -1.5189
  116MOL0     C15895   7.920   9.219   2.079  0.3815  0.3108 -0.0395
  116MOL0     C15896   8.042   9.157   2.032 -0.6760  0.2139  0.0863
  116MOL0     C15897   8.163   9.231   2.021 -1.1071  0.7624 -0.2173
  116MOL0     C15898   8.281   9.173   1.942 -0.0973 -0.4267 -0.2904
  116MOL0     C15899   8.171   9.358   2.087  0.0906  0.1166 -0.1196
  116MOL0     C15900   8.300   9.447   2.100  0.1229  0.9357  0.3513
  116MOL0     O15901   8.416   9.376   2.070  0.2874  0.9009  0.2110
  116MOL0     C15902   8.540   9.441   2.079 -0.5533 -0.1057 -0.6828
  116MOL0     C15903   8.621   9.422   2.185  0.2238 -0.4758  0.3023
  116MOL0     C15904   8.750   9.479   2.185 -0.3009  0.2963  0.0995
  116MOL0     C15905   8.799   9.550   2.078 -0.9732  1.0759 -0.9547
  116MOL0     O15906   8.920   9.614   2.083  0.1820 -0.7258  0.3866
  116MOL0     C15907   9.028   9.531   2.105  0.1508 -0.1069 -0.6372
  116MOL0     C15908   9.157   9.630   2.112  0.2784  0.2146  0.1679
  116MOL0     C15909   9.281   9.532   2.103  0.1145  0.8025  0.6353
  116MOL0     C15910   9.409   9.623   2.103  0.5219 -0.7197 -0.6102
  116MOL0     C15911   9.523   9.548   2.037 -1.0508  0.1736  0.1541
  116MOL0     C15912   9.587   9.438   2.127  1.0429 -0.4990 -0.3725
  116MOL0     C15913   9.693   9.363   2.051  0.9632  0.2630 -0.4210
  116MOL0     C15914   9.823   9.429   2.028  0.2333 -0.7438 -0.4657
  116MOL0    Cl15915   9.943   9.402   2.167  0.1014 -0.0140 -0.1155
  116MOL0     C15916   8.728   9.561   1.965 -0.4552 -0.1037  0.0840
  116MOL0     C15917   8.588   9.516   1.970  0.3674  0.0792  0.3116
  116MOL0     O15918   8.300   9.566   2.122 -0.0597 -0.1804  0.1819
  116MOL0     C15919   8.055   9.415   2.133  0.6488  0.4999  1.1826
  116MOL0     C15920   7.929   9.350   2.132 -0.7023 -0.1674 -0.4383
  116MOL0     N15921   7.236   8.921   2.013  0.0770  0.3610  0.0700
  116MOL0     N15922   7.121   8.972   1.987 -0.3210 -0.0224  0.5629
  116MOL0     C15923   6.898  10.046   1.488  0.8704  0.0651  0.7933
  116MOL0     C15924   6.933  10.112   1.373 -1.0334 -0.0288 -0.0909
  116MOL0     C15925   6.976  10.295   1.002  0.0721  0.4427  0.5850
  116MOL0     C15926   6.995  10.229   0.876  0.3826  0.1808  0.2339
  116MOL0     C15927   7.037  10.310   0.762  0.1249 -0.0032 -0.8659
  116MOL0     C15928   7.053  10.450   0.772 -0.5825  0.3699  0.1664
  116MOL0     O15929   7.083  10.537   0.677 -0.3845 -0.0831  1.3653
  116MOL0     C15930   7.160  10.497   0.559  0.2375 -0.4610 -0.7371
  116MOL0     C15931   7.070  10.466   0.443 -0.9411 -1.0049 -0.5547
  116MOL0     C15932   7.141  10.382   0.334  0.2361 -0.1554 -0.0657
  116MOL0     C15933   7.066  10.351   0.204 -0.1640 -0.0687 -0.5635
  116MOL0     C15934   6.951  10.434   0.181  0.5178 -0.8508 -0.6163
  116MOL0     C15935   6.860  10.508   0.163  0.1875 -1.3893  0.7098
  116MOL0     C15936   7.022  10.507   0.891 -0.1561  0.1728  0.9400
  116MOL0     C15937   6.991  10.436   1.004 -0.9775  0.1059 -0.2178
  116MOL0     C15938   6.972  10.506   1.142  0.9758  0.0136 -0.0579
  116MOL0     H15939   7.001   9.839   1.190  0.6124  0.9710 -0.3970
  116MOL0     H15940   6.931   9.728   1.392 -0.5236  0.3413 -1.0085
  116MOL0     H15941   6.818   9.848   1.820  0.4530  1.1517  1.9014
  116MOL0     H15942   6.857   9.999   1.736  4.1290  1.7095  4.3581
  116MOL0     H15943   7.090   9.939   1.737 -0.1041  1.3862  0.6585
  116MOL0     H15944   7.021   9.917   1.898  2.9182 -1.0703  0.3038
  116MOL0     H15945   7.085   9.687   1.704  0.2066  0.5344  0.6808
  116MOL0     H15946   7.166   9.726   1.859 -1.0000 -0.2193  0.3917
  116MOL0     H15947   6.945   9.686   1.957 -0.8129 -0.8094  0.2837
  116MOL0     H15948   6.884   9.635   1.798  2.5653  3.0941 -3.8824
  116MOL0     H15949   7.106   9.494   1.971 -1.3025 -0.3252  1.8188
  116MOL0     H15950   7.102   9.464   1.801 -1.2584 -0.0801 -0.2197
  116MOL0     H15951   6.877   9.448   1.990  2.9386  1.0058  1.6606
  116MOL0     H15952   6.871   9.399   1.812 -0.6026 -0.7241  0.1173
  116MOL0     H15953   6.899   9.209   2.014  1.6108  0.0267  1.8089
  116MOL0     H15954   7.053   9.293   2.035  0.6313 -0.2890 -1.4497
  116MOL0     H15955   6.963   9.105   1.810 -0.5717  0.7807 -0.8500
  116MOL0     H15956   7.069   9.233   1.757 -2.2507  0.7655 -1.5312
  116MOL0     H15957   7.321   9.153   1.807  0.3102 -0.6892  0.6690
  116MOL0     H15958   7.486   8.953   1.812  3.9616  1.9464 -0.2662
  116MOL0     H15959   7.474   8.831   1.947  0.6577  1.4852  0.7043
  116MOL0     H15960   7.532   9.009   2.098  0.9692 -0.9045 -0.0665
  116MOL0     H15961   7.664   8.936   2.002  0.4676 -0.6638 -0.1530
  116MOL0     H15962   7.661   9.123   1.850  2.5371  0.7199  1.2231
  116MOL0     H15963   7.512   9.186   1.922  0.7632 -0.0626 -1.0615
  116MOL0     H15964   7.699   9.315   2.008  0.7840 -0.1651  0.8609
  116MOL0     H15965   7.635   9.196   2.136  1.3599  2.2497  0.6189
  116MOL0     H15966   8.048   9.056   1.995 -0.5216  0.4516 -0.5404
  116MOL0     H15967   8.329   9.257   1.892  1.0382 -0.5865  0.5077
  116MOL0     H15968   8.231   9.109   1.869 -2.7522  2.2380 -1.0504
  116MOL0     H15969   8.359   9.124   2.001  0.7029 -0.4960 -1.3815
  116MOL0     H15970   8.591   9.359   2.268  1.9617 -3.2391 -0.9704
  116MOL0     H15971   8.815   9.471   2.272 -1.6401 -0.3757  1.0820
  116MOL0     H15972   9.021   9.455   2.184 -1.1568  0.2515 -0.3874
  116MOL0     H15973   9.044   9.479   2.010  1.1773 -0.2559 -0.3959
  116MOL0     H15974   9.171   9.707   2.036  0.9752  0.4428  0.5243
  116MOL0     H15975   9.171   9.681   2.208  3.4708  0.8662 -0.5465
  116MOL0     H15976   9.264   9.479   2.009 -2.6077  1.3949  0.7152
  116MOL0     H15977   9.273   9.456   2.182 -0.9388  1.4622  1.1833
  116MOL0     H15978   9.421   9.649   2.208  0.6485 -3.1778  0.0447
  116MOL0     H15979   9.390   9.715   2.046  0.7491 -0.2268  0.0895
  116MOL0     H15980   9.486   9.503   1.945 -1.1084 -0.9027  0.6837
  116MOL0     H15981   9.614   9.606   2.019  0.4394 -1.6290  1.4769
  116MOL0     H15982   9.508   9.376   2.168 -0.9441  1.0737 -1.6189
  116MOL0     H15983   9.638   9.491   2.209  2.4186 -0.1612 -1.3933
  116MOL0     H15984   9.650   9.325   1.958 -0.1563 -3.0048  1.2714
  116MOL0     H15985   9.710   9.272   2.110 -2.0796  0.1272  0.4451
  116MOL0     H15986   9.809   9.535   2.006 -1.3131 -0.3414  2.0617
  116MOL0     H15987   9.856   9.398   1.928 -1.2476 -0.1911 -1.1667
  116MOL0     H15988   8.763   9.605   1.872 -2.6761  2.9203  0.5316
  116MOL0     H15989   8.520   9.547   1.892  0.3081 -2.4151 -0.7043
  116MOL0     H15990   8.052   9.516   2.173  0.8641  1.0811 -0.1973
  116MOL0     H15991   7.845   9.412   2.163  0.5350  3.0787 -2.9460
  116MOL0     H15992   6.872  10.116   1.567  0.6390  2.3944 -1.2050
  116MOL0     H15993   6.923  10.219   1.365  0.4655  0.2376  1.1342
  116MOL0     H15994   6.978  10.122   0.868  1.4651  0.0245 -0.1209
  116MOL0     H15995   7.047  10.257   0.667  0.6069 -0.0853 -0.7736
  116MOL0     H15996   7.221  10.579   0.521 -0.5679 -0.1260 -1.3174
  116MOL0     H15997   7.221  10.408   0.578 -3.2281 -2.9772 -0.4399
  116MOL0     H15998   7.018  10.552   0.399 -2.0403 -3.1200 -3.7562
  116MOL0     H15999   6.981  10.407   0.466 -4.3143  1.3095 -5.6813
  116MOL0     H16000   7.238  10.427   0.312  1.3451 -0.4101  3.5878
  116MOL0     H16001   7.166  10.287   0.382 -0.6575  0.4436  1.6748
  116MOL0     H16002   7.034  10.247   0.201 -3.3917  0.8253 -2.8472
  116MOL0     H16003   7.124  10.366   0.113  0.4801 -0.3654 -0.2079
  116MOL0     H16004   6.782  10.579   0.144  1.1992  0.0228  1.6262
  116MOL0     H16005   7.024  10.615   0.889  1.2359  0.2043 -2.7465
  116MOL0     H16006   7.067  10.554   1.166  0.3620  0.7587  0.9549
  116MOL0     H16007   6.909  10.595   1.128 -2.0042 -1.5847  1.9843
  116MOL0     H16008   6.926  10.449   1.223 -1.9506  1.1613 -0.7829
  117MOL0     O16009   4.045   4.512   6.116  0.5179  0.9618  0.6332
  117MOL0     C16010   3.995   4.597   6.191  0.0591  0.3195  0.0798
  117MOL0     O16011   4.069   4.680   6.265 -0.2872 -0.4299  0.0629
  117MOL0     C16012   4.206   4.686   6.241 -0.3165 -0.3125 -0.2721
  117MOL0     C16013   4.286   4.582   6.283  0.1946  0.6444  0.5432
  117MOL0     C16014   4.422   4.595   6.252 -0.1962  0.4862 -0.0381
  117MOL0     C16015   4.472   4.702   6.182 -0.2359  0.7156 -0.1177
  117MOL0     O16016   4.608   4.711   6.192 -0.1749  0.2228  0.5904
  117MOL0     C16017   4.651   4.828   6.252 -0.1929 -0.0741  0.4202
  117MOL0     C16018   4.801   4.814   6.293  0.1650  0.1564 -0.2519
  117MOL0     C16019   4.885   4.927   6.243 -0.6754 -0.1842 -0.4782
  117MOL0     C16020   5.028   4.935   6.315  0.0690 -0.8938  1.4954
  117MOL0     C16021   5.119   5.055   6.278 -0.8717  0.0850  0.3087
  117MOL0     C16022   5.256   5.039   6.360 -0.1023  0.5549  0.1724
  117MOL0     C16023   5.242   5.041   6.512  0.8416  0.2076  0.4131
  117MOL0     C16024   5.375   5.040   6.591  0.2088  0.3323  0.2664
  117MOL0     N16025   5.421   4.897   6.586  0.3213 -0.9041 -0.3748
  117MOL0     C16026   5.365   4.785   6.649 -0.7482 -0.6684  0.3422
  117MOL0     C16027   5.428   4.685   6.598 -0.3606  1.0527  0.8401
  117MOL0     C16028   5.401   4.545   6.643  0.1195  0.6899 -0.3733
  117MOL0     C16029   5.522   4.491   6.710  1.0008 -0.4288 -1.2954
  117MOL0     C16030   5.513   4.335   6.696  0.9383 -0.7700  0.3226
  117MOL0     C16031   5.655   4.274   6.729 -0.1496 -0.0615 -1.0806
  117MOL0     O16032   5.682   4.301   6.863  0.7437 -0.4192  0.3113
  117MOL0     C16033   5.811   4.333   6.895  1.1059 -0.2803  0.8062
  117MOL0     C16034   5.865   4.259   6.990 -0.4374  0.2676  0.1814
  117MOL0     C16035   5.999   4.277   7.031  0.4670  0.3617  0.7665
  117MOL0     C16036   6.050   4.201   7.148 -0.0841  0.0630  0.3163
  117MOL0     C16037   6.082   4.372   6.963  0.0223  0.0054 -0.2363
  117MOL0     C16038   6.231   4.397   6.982  0.2318 -1.1033  0.3188
  117MOL0     O16039   6.308   4.297   7.033  0.3966  0.6513  0.8123
  117MOL0     C16040   6.436   4.338   7.064  0.2071  0.3468 -0.6218
  117MOL0     C16041   6.535   4.288   6.978  0.3275  0.3644 -0.2802
  117MOL0     C16042   6.670   4.312   7.018  0.3604 -0.6757  0.1962
  117MOL0     C16043   6.708   4.427   7.096  0.2026 -1.3886 -0.1270
  117MOL0     O16044   6.841   4.463   7.115  0.5234 -0.2884  0.1307
  117MOL0     C16045   6.864   4.600   7.173 -0.4911  0.6008  0.6288
  117MOL0     C16046   7.014   4.608   7.192  0.1046 -0.0266  0.0915
  117MOL0     C16047   7.068   4.490   7.278  0.1065 -0.5996 -0.1070
  117MOL0     C16048   7.011   4.492   7.417 -0.0741 -0.4793  0.2456
  117MOL0     C16049   7.085   4.381   7.499  0.5988  0.2809 -0.2367
  117MOL0     C16050   7.070   4.399   7.645  1.0211  0.8141  0.3715
  117MOL0     C16051   6.919   4.387   7.679  0.3230 -0.3959  0.3827
  117MOL0     C16052   6.891   4.359   7.820  0.2655  0.2104 -1.0742
  117MOL0    Cl16053   6.985   4.458   7.935  0.3428  0.2276  0.5657
  117MOL0     C16054   6.600   4.483   7.169  0.9767  0.0254  0.3556
  117MOL0     C16055   6.470   4.439   7.158  0.4300  0.8742  0.9901
  117MOL0     O16056   6.267   4.507   6.935  0.5916  0.4283  0.5126
  117MOL0     C16057   6.019   4.450   6.870  0.5401 -0.2807  0.5695
  117MOL0     C16058   5.885   4.437   6.835  0.1427  0.0669 -0.2204
  117MOL0     N16059   5.516   4.721   6.495 -0.8118 -0.6247  0.6967
  117MOL0     N16060   5.495   4.847   6.481 -0.2822 -0.2232  0.0873
  117MOL0     C16061   4.387   4.806   6.134 -0.2043  0.1660  0.3154
  117MOL0     C16062   4.252   4.795   6.165  0.4710 -0.1929  0.8391
  117MOL0     C16063   3.841   4.596   6.201 -0.5775 -0.6635  0.6474
  117MOL0     C16064   3.781   4.723   6.207  0.0654  0.7271  0.2555
  117MOL0     C16065   3.638   4.721   6.220 -0.0617 -0.9395 -1.0421
  117MOL0     C16066   3.557   4.608   6.227  0.9456  0.1323  0.0226
  117MOL0     O16067   3.417   4.605   6.226  0.4158  0.4038  0.8832
  117MOL0     C16068   3.350   4.717   6.289 -0.2358  1.2125 -0.1660
  117MOL0     C16069   3.197   4.703   6.310 -0.6441 -0.1155 -0.1292
  117MOL0     C16070   3.131   4.652   6.177  0.9264  0.1922  0.6966
  117MOL0     C16071   2.977   4.668   6.202 -0.4522  0.4824 -0.2789
  117MOL0     C16072   2.901   4.640   6.083 -0.0036 -0.2574  0.3594
  117MOL0     C16073   2.851   4.600   5.976 -0.2591  0.4605 -0.6663
  117MOL0     C16074   3.620   4.482   6.219  0.2262 -0.4602  0.0543
  117MOL0     C16075   3.762   4.473   6.201  0.0477 -1.0091  0.6128
  117MOL0     C16076   3.826   4.338   6.206 -1.0420 -0.6412 -0.0564
  117MOL0     H16077   4.247   4.509   6.353 -0.8819  0.6127 -0.0609
  117MOL0     H16078   4.489   4.535   6.312  2.4722  2.4281 -0.8847
  117MOL0     H16079   4.591   4.852   6.340  0.9284  0.3955  1.0769
  117MOL0     H16080   4.637   4.919   6.193  0.4624 -0.2023  0.0550
  117MOL0     H16081   4.809   4.788   6.399  0.4333  0.7841 -0.1144
  117MOL0     H16082   4.832   4.729   6.232  0.0524 -1.0696  1.3616
  117MOL0     H16083   4.899   4.918   6.135 -1.0095  0.6939 -0.6094
  117MOL0     H16084   4.833   5.022   6.259  1.6137  0.6587  3.0480
  117MOL0     H16085   5.007   4.939   6.422 -1.0030 -0.0179  1.2695
  117MOL0     H16086   5.080   4.842   6.292  0.7622  0.1244 -1.5341
  117MOL0     H16087   5.070   5.143   6.319 -0.9744  0.7257 -1.1160
  117MOL0     H16088   5.145   5.068   6.173  0.4735 -0.8067  0.5043
  117MOL0     H16089   5.307   4.946   6.332  2.7008  1.7698  0.8524
  117MOL0     H16090   5.325   5.122   6.342 -2.1268  2.8546  2.3107
  117MOL0     H16091   5.176   4.963   6.551  0.3467  0.1480 -0.5049
  117MOL0     H16092   5.189   5.134   6.535 -1.7449 -1.4031  1.4273
  117MOL0     H16093   5.447   5.108   6.543 -0.4548  0.0985 -1.1108
  117MOL0     H16094   5.368   5.071   6.695  1.8941 -1.7429  1.0623
  117MOL0     H16095   5.281   4.780   6.717 -0.6185 -0.9965  0.4848
  117MOL0     H16096   5.375   4.479   6.560  0.5503  0.9013 -0.6785
  117MOL0     H16097   5.320   4.534   6.716  2.9870  0.3933  3.0668
  117MOL0     H16098   5.613   4.523   6.660  1.5310  3.3076  1.5869
  117MOL0     H16099   5.528   4.533   6.811 -1.8633 -1.0167 -0.7653
  117MOL0     H16100   5.444   4.290   6.768 -0.8497 -0.4381 -1.1164
  117MOL0     H16101   5.485   4.307   6.594  0.6060 -0.0859  0.2244
  117MOL0     H16102   5.662   4.165   6.719  0.1483 -0.3633  1.6139
  117MOL0     H16103   5.732   4.320   6.666  0.9325 -0.6150 -0.2006
  117MOL0     H16104   5.816   4.181   7.048 -1.1768  0.9310  0.4651
  117MOL0     H16105   6.095   4.271   7.220 -2.4623  3.3655 -1.1466
  117MOL0     H16106   6.125   4.129   7.115 -3.3635 -2.0344 -3.5501
  117MOL0     H16107   5.960   4.151   7.185 -0.2753 -0.5035 -0.8895
  117MOL0     H16108   6.521   4.230   6.888  1.0984 -1.1783  0.5683
  117MOL0     H16109   6.749   4.264   6.961  1.1356  1.5599 -0.7260
  117MOL0     H16110   6.834   4.672   7.096  0.6159 -0.8199 -1.1913
  117MOL0     H16111   6.818   4.643   7.263 -0.9649  1.3729  0.0378
  117MOL0     H16112   7.057   4.595   7.092  1.0945 -0.1612  0.5316
  117MOL0     H16113   7.050   4.693   7.250  0.1672 -0.3744  0.5690
  117MOL0     H16114   7.177   4.488   7.278  0.1684  1.4139  0.0857
  117MOL0     H16115   7.045   4.390   7.239 -0.4161 -0.2482 -0.7246
  117MOL0     H16116   6.903   4.475   7.427 -0.8529  2.3440 -2.0599
  117MOL0     H16117   7.032   4.593   7.454  6.9764 -1.8264  1.3024
  117MOL0     H16118   7.037   4.282   7.499  1.1377 -0.0083  1.1997
  117MOL0     H16119   7.188   4.374   7.462  1.2074 -0.1851  1.4760
  117MOL0     H16120   7.106   4.495   7.685  2.3431  0.0168  1.1514
  117MOL0     H16121   7.123   4.318   7.696  1.0210  1.3749  1.2903
  117MOL0     H16122   6.868   4.316   7.613 -1.3455  2.5142 -1.6725
  117MOL0     H16123   6.875   4.487   7.668  3.1399  1.0587  1.2932
  117MOL0     H16124   6.927   4.256   7.824 -1.5105 -0.4673 -1.8978
  117MOL0     H16125   6.787   4.380   7.843  0.3576  0.5007 -0.9176
  117MOL0     H16126   6.613   4.569   7.234 -0.5790  1.3071 -0.9281
  117MOL0     H16127   6.386   4.477   7.215 -0.9133 -1.1584  0.5032
  117MOL0     H16128   6.076   4.513   6.803  2.7826 -2.5892  0.1764
  117MOL0     H16129   5.852   4.504   6.756  1.2377  1.7810  0.7256
  117MOL0     H16130   4.421   4.904   6.101  3.0986 -0.2654  2.0542
  117MOL0     H16131   4.187   4.870   6.122 -0.6942 -1.6050  0.0442
  117MOL0     H16132   3.832   4.819   6.212 -0.4480  0.9526  1.4716
  117MOL0     H16133   3.606   4.824   6.225 -0.2654 -0.9631 -1.7399
  117MOL0     H16134   3.402   4.738   6.383 -2.2728  1.3504  1.0130
  117MOL0     H16135   3.359   4.800   6.219  1.8434 -0.2651 -1.7669
  117MOL0     H16136   3.146   4.788   6.355 -1.5416 -1.6589  1.9645
  117MOL0     H16137   3.196   4.618   6.380  1.9592 -0.8331 -0.8512
  117MOL0     H16138   3.164   4.716   6.095 -1.4152  0.2059 -0.3124
  117MOL0     H16139   3.164   4.552   6.148 -0.4456  0.7355 -3.3384
  117MOL0     H16140   2.957   4.774   6.221 -3.1600  0.2258 -1.1905
  117MOL0     H16141   2.934   4.603   6.279 -1.9674  1.2979 -0.3946
  117MOL0     H16142   2.802   4.565   5.887 -1.6844  0.9512 -0.1027
  117MOL0     H16143   3.554   4.397   6.225  0.9073 -1.1121 -1.1934
  117MOL0     H16144   3.876   4.300   6.116  1.3639 -0.8014  1.2499
  117MOL0     H16145   3.911   4.340   6.275  0.1819  1.1554 -1.4868
  117MOL0     H16146   3.753   4.259   6.224 -1.5411 -0.0876  0.4134
  118MOL0     O16147   6.929  11.479   0.133 -0.3068  0.3298 -0.3577
  118MOL0     C16148   6.834  11.415   0.083  0.2298 -1.0157  0.7323
  118MOL0     O16149   6.790  11.438  -0.042 -0.6310  0.1724  0.1839
  118MOL0     C16150   6.855  11.536  -0.109 -0.2817  0.0046 -0.2391
  118MOL0     C16151   6.921  11.494  -0.217 -0.2045 -1.5939  0.3882
  118MOL0     C16152   6.994  11.589  -0.292 -0.0734  1.0433 -0.0464
  118MOL0     C16153   6.998  11.722  -0.263 -0.5441 -0.8535  0.4878
  118MOL0     O16154   7.075  11.821  -0.330  0.3752  0.2360  0.5602
  118MOL0     C16155   7.116  11.782  -0.458  0.1200  0.8440 -0.4776
  118MOL0     C16156   7.004  11.786  -0.567 -0.3014 -0.6096  0.6786
  118MOL0     C16157   6.971  11.935  -0.573  0.2537 -0.0540 -0.4745
  118MOL0     C16158   6.847  11.949  -0.667  0.7051  0.6132  0.9243
  118MOL0     C16159   6.828  11.871  -0.801  0.2148 -0.9944  0.0176
  118MOL0     C16160   6.930  11.911  -0.908 -0.3141 -0.3261  0.7739
  118MOL0     C16161   6.923  11.859  -1.052  0.4129 -1.2326 -0.6066
  118MOL0     C16162   6.987  11.720  -1.062  1.1808  0.2288  0.5639
  118MOL0     N16163   6.999  11.672  -1.199  0.2784 -0.9701 -0.3241
  118MOL0     C16164   6.886  11.639  -1.266 -0.4592 -0.1347  0.9802
  118MOL0     C16165   6.924  11.666  -1.399 -0.7212 -0.4289  0.0073
  118MOL0     C16166   6.847  11.672  -1.522  0.5524 -0.3597  0.0578
  118MOL0     C16167   6.805  11.530  -1.568  0.3248 -1.0762 -0.1877
  118MOL0     C16168   6.661  11.537  -1.632  0.6538 -0.0886  0.7128
  118MOL0     C16169   6.657  11.601  -1.774 -0.2227  0.0449 -0.7495
  118MOL0     O16170   6.522  11.606  -1.827  0.2301 -0.3187 -0.3724
  118MOL0     C16171   6.524  11.652  -1.962 -0.5181 -0.4443 -0.2097
  118MOL0     C16172   6.400  11.644  -2.031 -1.2127  0.9374  0.3551
  118MOL0     C16173   6.392  11.682  -2.163 -0.0428  0.2840 -0.1501
  118MOL0     C16174   6.258  11.663  -2.225  0.0865  0.5783 -0.6744
  118MOL0     C16175   6.497  11.752  -2.228  0.4343 -0.3081  1.1001
  118MOL0     C16176   6.478  11.822  -2.358 -0.1082  0.1505  0.8661
  118MOL0     O16177   6.516  11.950  -2.365  0.1396  0.6103  0.5342
  118MOL0     C16178   6.503  12.010  -2.490  0.5118 -0.2899 -0.0927
  118MOL0     C16179   6.614  12.025  -2.577  0.5541  0.7557  0.0188
  118MOL0     C16180   6.594  12.113  -2.693 -0.5109 -0.2904 -0.3341
  118MOL0     C16181   6.466  12.163  -2.726 -0.3536  0.6638  0.8239
  118MOL0     O16182   6.446  12.241  -2.840 -0.9802  1.2835  0.2888
  118MOL0     C16183   6.492  12.175  -2.957 -0.7612 -0.2063  0.1700
  118MOL0     C16184   6.459  12.261  -3.079  0.3670 -0.3736  0.4001
  118MOL0     C16185   6.513  12.200  -3.213 -0.9998 -0.6226 -0.5471
  118MOL0     C16186   6.472  12.304  -3.316  0.4436 -0.2989  0.1198
  118MOL0     C16187   6.535  12.277  -3.458  0.5405  0.9634  0.4791
  118MOL0     C16188   6.685  12.304  -3.460 -0.0019  0.6088  0.3411
  118MOL0     C16189   6.725  12.309  -3.610  0.0821 -0.8151 -0.7161
  118MOL0     C16190   6.780  12.176  -3.670 -1.4763  0.6716  0.1326
  118MOL0    Cl16191   6.945  12.137  -3.599 -0.4295  0.2191  0.0015
  118MOL0     C16192   6.353  12.133  -2.644 -0.5989 -0.5133  0.4569
  118MOL0     C16193   6.376  12.057  -2.526 -0.3845 -1.1146  0.0056
  118MOL0     O16194   6.424  11.761  -2.454 -0.9784  0.7013 -0.6129
  118MOL0     C16195   6.625  11.754  -2.168  1.0953  0.2664  0.4117
  118MOL0     C16196   6.640  11.704  -2.037 -0.0445  1.1319 -1.5178
  118MOL0     N16197   7.057  11.724  -1.399 -0.3807 -0.0188 -0.0376
  118MOL0     N16198   7.099  11.716  -1.281  0.3196  0.1189  0.3938
  118MOL0     C16199   6.942  11.757  -0.150 -0.0735 -0.0081 -0.1283
  118MOL0     C16200   6.855  11.670  -0.078 -1.3768  0.4936  0.1334
  118MOL0     C16201   6.749  11.325   0.177 -0.6280 -0.2428 -0.3923
  118MOL0     C16202   6.621  11.273   0.139  0.4760 -1.1877  0.1633
  118MOL0     C16203   6.535  11.200   0.229  0.2865 -0.0067 -0.2605
  118MOL0     C16204   6.568  11.196   0.366  0.4619  0.1728 -0.2499
  118MOL0     O16205   6.473  11.150   0.455  0.9457 -0.5515  0.0530
  118MOL0     C16206   6.489  11.151   0.599 -0.0279  0.4611 -0.3502
  118MOL0     C16207   6.499  11.281   0.676  0.0806 -0.8394  0.1775
  118MOL0     C16208   6.395  11.376   0.616 -0.4256 -0.5725 -0.8976
  118MOL0     C16209   6.426  11.518   0.665  0.5592 -0.5827 -0.1590
  118MOL0     C16210   6.549  11.568   0.619  0.6026  0.3847 -0.1029
  118MOL0     C16211   6.655  11.617   0.583 -0.0016 -0.8262  0.1867
  118MOL0     C16212   6.703  11.221   0.400  0.0858  0.0323  0.6312
  118MOL0     C16213   6.793  11.286   0.313  1.1628  0.3311  0.0865
  118MOL0     C16214   6.930  11.300   0.368  0.3908  0.1003  0.1249
  118MOL0     H16215   6.922  11.387  -0.231 -2.9677 -2.0618  2.8652
  118MOL0     H16216   7.038  11.546  -0.381  0.9883  2.5445 -0.2835
  118MOL0     H16217   7.164  11.684  -0.449 -2.2067 -0.2396  1.0281
  118MOL0     H16218   7.196  11.852  -0.483  0.6744 -0.2210 -1.7966
  118MOL0     H16219   7.031  11.754  -0.668  3.1979 -0.7721  1.5396
  118MOL0     H16220   6.918  11.728  -0.531 -0.3251 -0.8078  0.3080
  118MOL0     H16221   6.951  11.981  -0.475  0.0873  0.1338 -0.5955
  118MOL0     H16222   7.051  11.996  -0.615 -2.4853  2.4486 -2.4832
  118MOL0     H16223   6.760  11.933  -0.602 -0.8892  1.5103 -0.8959
  118MOL0     H16224   6.848  12.053  -0.698 -1.3811 -0.8609 -5.5778
  118MOL0     H16225   6.734  11.892  -0.852 -1.2127 -0.3712  2.7336
  118MOL0     H16226   6.827  11.765  -0.771  1.5929 -0.7365  1.1204
  118MOL0     H16227   6.924  12.020  -0.899 -3.8215 -0.3464 -0.0198
  118MOL0     H16228   7.030  11.880  -0.874  1.4148  2.4421 -1.3511
  118MOL0     H16229   6.984  11.927  -1.113 -2.3315  0.9100 -1.1798
  118MOL0     H16230   6.822  11.860  -1.095  1.0085 -1.8144 -2.0734
  118MOL0     H16231   7.086  11.721  -1.015  0.8148  4.4528  1.5852
  118MOL0     H16232   6.922  11.644  -1.016  0.0602 -0.5491 -2.0882
  118MOL0     H16233   6.791  11.608  -1.225  0.0178 -2.3791  0.5055
  118MOL0     H16234   6.914  11.707  -1.601  2.1002 -1.6064  0.7442
  118MOL0     H16235   6.768  11.747  -1.515 -1.2962 -2.0838 -1.1854
  118MOL0     H16236   6.875  11.498  -1.646  1.5727 -1.5677  1.0876
  118MOL0     H16237   6.809  11.474  -1.474  0.2014  0.2317  0.6282
  118MOL0     H16238   6.631  11.432  -1.636 -3.6828  1.0066 -1.5167
  118MOL0     H16239   6.606  11.603  -1.564 -0.4781 -0.7635  0.4669
  118MOL0     H16240   6.703  11.700  -1.764  1.6381 -0.7763 -0.6986
  118MOL0     H16241   6.728  11.557  -1.845  1.9363  1.0339  0.6770
  118MOL0     H16242   6.325  11.601  -1.965 -1.9393 -1.5381 -1.9087
  118MOL0     H16243   6.207  11.591  -2.161  0.2070  0.0916 -1.1161
  118MOL0     H16244   6.262  11.610  -2.320  1.6088 -0.1833 -0.2218
  118MOL0     H16245   6.212  11.762  -2.232  1.0132  1.6501  4.3266
  118MOL0     H16246   6.705  11.969  -2.559 -0.1697 -2.4500 -4.5260
  118MOL0     H16247   6.680  12.132  -2.757  2.0898 -3.0085  2.0026
  118MOL0     H16248   6.599  12.152  -2.954 -0.7040  0.1233  0.8461
  118MOL0     H16249   6.432  12.083  -2.956  1.7020 -2.0039 -2.2292
  118MOL0     H16250   6.350  12.275  -3.079  0.6587  2.7339  0.9190
  118MOL0     H16251   6.502  12.361  -3.070  0.7614 -0.4680 -0.3589
  118MOL0     H16252   6.488  12.096  -3.239  1.3095 -0.0357 -6.8879
  118MOL0     H16253   6.622  12.200  -3.204 -1.1717  1.4148  3.7404
  118MOL0     H16254   6.513  12.401  -3.290 -0.0139 -0.6112  2.1994
  118MOL0     H16255   6.363  12.313  -3.324  0.7367  3.1210 -1.7897
  118MOL0     H16256   6.513  12.176  -3.493  0.0758  1.1172  0.3180
  118MOL0     H16257   6.486  12.352  -3.521 -1.0890  0.7804  1.4409
  118MOL0     H16258   6.750  12.221  -3.429  0.0877 -1.4656 -4.4772
  118MOL0     H16259   6.720  12.392  -3.407  0.8174 -0.5945  1.8675
  118MOL0     H16260   6.806  12.382  -3.621  2.2119 -3.0241 -0.5751
  118MOL0     H16261   6.645  12.340  -3.678 -1.9360 -1.0879  1.4169
  118MOL0     H16262   6.773  12.202  -3.776 -3.1370  0.9451  0.2883
  118MOL0     H16263   6.708  12.099  -3.640 -0.7372  0.3890  1.2584
  118MOL0     H16264   6.253  12.165  -2.672  0.1663  1.5111 -0.2397
  118MOL0     H16265   6.291  12.030  -2.465  1.0201 -0.9146  2.1840
  118MOL0     H16266   6.713  11.785  -2.224  0.8455 -1.1583 -0.8436
  118MOL0     H16267   6.733  11.720  -1.982 -0.4200 -3.0882  0.7354
  118MOL0     H16268   6.958  11.862  -0.128  0.6536 -0.0804 -0.2718
  118MOL0     H16269   6.815  11.705   0.016  0.0354  0.4867  0.7575
  118MOL0     H16270   6.590  11.283   0.036  4.6446 -2.0523 -1.3768
  118MOL0     H16271   6.433  11.176   0.201  0.2749  0.5553 -0.7225
  118MOL0     H16272   6.414  11.085   0.643  1.7641  1.2578  4.5263
  118MOL0     H16273   6.583  11.098   0.616 -1.2384 -1.8382 -0.3838
  118MOL0     H16274   6.600  11.318   0.659 -0.2676 -0.5948 -1.5608
  118MOL0     H16275   6.492  11.271   0.785  0.5202  2.0760  0.5429
  118MOL0     H16276   6.396  11.382   0.507  0.8895  0.1844 -0.8611
  118MOL0     H16277   6.299  11.342   0.658 -0.6820 -0.3689 -1.3120
  118MOL0     H16278   6.420  11.524   0.774  0.2614 -0.6745 -0.1690
  118MOL0     H16279   6.361  11.595   0.624  0.2776  0.1265  1.5329
  118MOL0     H16280   6.738  11.672   0.542 -1.8264  1.0207 -1.2365
  118MOL0     H16281   6.743  11.190   0.496  0.1044  1.0348  0.9485
  118MOL0     H16282   6.951  11.241   0.458 -1.1865  1.5627  1.5445
  118MOL0     H16283   6.998  11.264   0.291  1.2061  0.1798  0.7852
  118MOL0     H16284   6.948  11.407   0.385  0.9617  0.0099  0.1075
  119MOL0     O16285  10.282   4.121   5.423  0.1793  0.5497 -0.6345
  119MOL0     C16286  10.397   4.087   5.427 -0.6132 -0.1572  0.1079
  119MOL0     O16287  10.502   4.169   5.405 -0.6617 -0.1473  0.3932
  119MOL0     C16288  10.463   4.298   5.370 -0.0100  0.0308 -0.4463
  119MOL0     C16289  10.441   4.338   5.240  0.7747 -0.6644  0.5352
  119MOL0     C16290  10.391   4.470   5.229  0.0954  1.2275  1.0213
  119MOL0     C16291  10.378   4.556   5.332 -0.5039 -0.1807 -0.3855
  119MOL0     O16292  10.370   4.689   5.314  0.0969 -0.8339  0.3150
  119MOL0     C16293  10.494   4.750   5.264 -0.2903  0.8669 -0.0790
  119MOL0     C16294  10.480   4.899   5.225 -0.9198  0.3067  0.4178
  119MOL0     C16295  10.501   4.992   5.344  0.0801  0.7425  0.2518
  119MOL0     C16296  10.500   5.134   5.282  0.8312  0.0851 -0.0312
  119MOL0     C16297  10.498   5.242   5.396 -0.5438 -0.4658 -0.0145
  119MOL0     C16298  10.358   5.283   5.447  0.2835 -0.2088  0.5719
  119MOL0     C16299  10.345   5.340   5.587 -0.2186 -0.2341  0.1621
  119MOL0     C16300  10.410   5.482   5.603  0.6868 -0.9877  0.9310
  119MOL0     N16301  10.307   5.586   5.568 -1.0023  0.3179 -0.4553
  119MOL0     C16302  10.243   5.673   5.653  1.0794 -0.2084  0.3951
  119MOL0     C16303  10.175   5.756   5.568 -0.7501  0.2310 -0.6048
  119MOL0     C16304  10.100   5.876   5.614 -0.0457 -0.0071 -0.1275
  119MOL0     C16305   9.956   5.879   5.548 -0.3834  0.4081 -0.4954
  119MOL0     C16306   9.937   6.001   5.463  0.5140 -0.0933 -0.5651
  119MOL0     C16307   9.792   5.991   5.406 -0.5482 -0.2369 -0.0502
  119MOL0     O16308   9.699   6.013   5.512 -0.3365 -0.0161 -0.4049
  119MOL0     C16309   9.713   6.131   5.586  0.9047 -0.0268  0.1405
  119MOL0     C16310   9.740   6.129   5.719 -0.0033  0.5850 -0.1138
  119MOL0     C16311   9.728   6.239   5.806 -0.9494  0.3889 -0.2696
  119MOL0     C16312   9.763   6.216   5.947 -0.0746 -0.6039 -0.7800
  119MOL0     C16313   9.692   6.366   5.748 -0.3367  0.2587  0.4859
  119MOL0     C16314   9.687   6.508   5.823  0.3711 -0.0503 -0.1443
  119MOL0     O16315   9.683   6.621   5.749  0.8964  0.9578  0.3815
  119MOL0     C16316   9.610   6.736   5.777  0.3559  0.5687  0.6976
  119MOL0     C16317   9.528   6.755   5.887 -0.2512  0.9583 -0.6394
  119MOL0     C16318   9.437   6.870   5.898 -0.4300 -0.4324 -0.9165
  119MOL0     C16319   9.422   6.960   5.797 -0.0150  0.4854 -0.4679
  119MOL0     O16320   9.341   7.071   5.823  0.0727 -0.2123  0.3812
  119MOL0     C16321   9.246   7.096   5.720 -0.4906  0.0525  0.5471
  119MOL0     C16322   9.147   7.203   5.767  0.2456  0.2443 -0.7121
  119MOL0     C16323   9.051   7.241   5.654 -0.6963 -0.1701  0.5180
  119MOL0     C16324   9.110   7.337   5.551 -0.1348  0.0806  0.8000
  119MOL0     C16325   9.003   7.423   5.486 -0.0814 -0.1796 -0.0788
  119MOL0     C16326   9.054   7.484   5.358 -0.7171 -0.3660 -0.0349
  119MOL0     C16327   8.943   7.554   5.275  1.2225  0.9826  0.7090
  119MOL0     C16328   9.010   7.644   5.170  0.1119  0.5314 -0.6585
  119MOL0    Cl16329   9.074   7.807   5.229 -0.0655 -0.1853 -0.3468
  119MOL0     C16330   9.507   6.946   5.686 -0.1887  0.1574 -0.7647
  119MOL0     C16331   9.595   6.835   5.674 -0.9424 -0.5093  0.3138
  119MOL0     O16332   9.671   6.503   5.947  0.4633 -0.4485  0.5810
  119MOL0     C16333   9.661   6.368   5.618  0.8683  0.4141 -0.8833
  119MOL0     C16334   9.670   6.250   5.536 -0.0800  0.4484 -0.4447
  119MOL0     N16335  10.202   5.716   5.446 -0.3871 -0.5825 -0.5189
  119MOL0     N16336  10.262   5.610   5.448  0.8945  0.2715  0.4336
  119MOL0     C16337  10.382   4.505   5.459 -0.5867  0.2369 -0.5839
  119MOL0     C16338  10.419   4.374   5.481 -0.2832 -0.5252 -0.3250
  119MOL0     C16339  10.435   3.937   5.441 -0.9244  0.5369 -0.1175
  119MOL0     C16340  10.556   3.882   5.405 -0.6483  0.2188  1.2424
  119MOL0     C16341  10.572   3.740   5.384  0.2671 -1.2805  0.1092
  119MOL0     C16342  10.471   3.655   5.430 -1.0653 -0.1300  0.4481
  119MOL0     O16343  10.488   3.518   5.422 -0.5276 -0.3781  0.2795
  119MOL0     C16344  10.516   3.471   5.553  0.3414  0.6778 -0.2718
  119MOL0     C16345  10.526   3.314   5.533  0.4694  0.6603 -0.8698
  119MOL0     C16346  10.641   3.280   5.431  0.6294 -0.0750 -1.0619
  119MOL0     C16347  10.690   3.142   5.433  0.8730  0.3191  1.3369
  119MOL0     C16348  10.777   3.118   5.545  0.3592  0.0670 -0.2005
  119MOL0     C16349  10.854   3.109   5.639  0.8270  0.7657  0.8937
  119MOL0     C16350  10.360   3.713   5.485 -0.0384  0.5207  0.5929
  119MOL0     C16351  10.333   3.853   5.492  0.0252  0.2496  0.7957
  119MOL0     C16352  10.206   3.897   5.566 -0.5630  0.7274 -0.2958
  119MOL0     H16353  10.473   4.276   5.157  0.9303  0.0116  0.0847
  119MOL0     H16354  10.375   4.515   5.131  0.9844  0.0964  0.3448
  119MOL0     H16355  10.531   4.685   5.184 -0.0681  1.2262 -0.2736
  119MOL0     H16356  10.571   4.742   5.341  0.4400  1.9544 -0.6736
  119MOL0     H16357  10.556   4.916   5.148  1.8023  0.7375  3.0449
  119MOL0     H16358  10.385   4.913   5.173 -0.7418 -0.6204 -0.1800
  119MOL0     H16359  10.419   4.984   5.416  1.4901  1.1431  1.9568
  119MOL0     H16360  10.600   4.972   5.386  1.8989  2.5393 -2.7652
  119MOL0     H16361  10.587   5.142   5.216  2.6506 -3.4021  1.6744
  119MOL0     H16362  10.418   5.137   5.209  0.7236 -2.4943 -0.1054
  119MOL0     H16363  10.536   5.338   5.361 -0.1891 -0.4976  0.2693
  119MOL0     H16364  10.562   5.225   5.484  1.1754 -1.6664 -1.4404
  119MOL0     H16365  10.320   5.354   5.373  2.2184  0.6154  0.3137
  119MOL0     H16366  10.287   5.200   5.437  0.3422 -0.0033 -5.0024
  119MOL0     H16367  10.388   5.280   5.668 -2.9816  2.5111  4.0189
  119MOL0     H16368  10.241   5.352   5.621 -0.0234  2.1804  0.1241
  119MOL0     H16369  10.448   5.506   5.703  1.5192  4.2627 -0.3408
  119MOL0     H16370  10.493   5.488   5.532 -2.1899 -0.1555 -2.6506
  119MOL0     H16371  10.242   5.673   5.762 -1.7938  0.6449  0.4591
  119MOL0     H16372  10.156   5.959   5.571 -1.5650 -0.0474 -2.3586
  119MOL0     H16373  10.082   5.885   5.722  0.4562  2.2407 -0.1871
  119MOL0     H16374   9.946   5.786   5.491  1.0929  1.3052 -2.3254
  119MOL0     H16375   9.893   5.856   5.634  1.4878  0.6102  0.9856
  119MOL0     H16376   9.952   6.088   5.528 -1.6738  0.0628 -0.1992
  119MOL0     H16377  10.007   6.007   5.380 -0.7610  2.5031 -1.5387
  119MOL0     H16378   9.789   6.065   5.326  3.7191 -2.0254 -2.1778
  119MOL0     H16379   9.771   5.893   5.362  1.7545 -0.1072 -1.5708
  119MOL0     H16380   9.776   6.035   5.760  2.4453  2.4244  2.3149
  119MOL0     H16381   9.815   6.124   5.974 -1.8700 -1.5222 -0.2590
  119MOL0     H16382   9.672   6.221   6.007  1.0264 -1.5054  1.0657
  119MOL0     H16383   9.837   6.283   5.992 -1.4176 -1.2934  2.7213
  119MOL0     H16384   9.523   6.694   5.976 -3.9795  2.9521  0.7246
  119MOL0     H16385   9.371   6.885   5.982 -1.0625 -0.4557 -1.4016
  119MOL0     H16386   9.287   7.134   5.626  0.3025  0.0039  0.8653
  119MOL0     H16387   9.198   7.004   5.685  0.4152 -0.6412  1.0850
  119MOL0     H16388   9.087   7.175   5.854  1.6916 -0.2977  0.1412
  119MOL0     H16389   9.213   7.282   5.803  2.0902 -1.2290 -0.6815
  119MOL0     H16390   8.974   7.302   5.702 -2.1602 -1.2179 -0.4252
  119MOL0     H16391   8.998   7.159   5.605 -2.7793  0.8162  0.9994
  119MOL0     H16392   9.169   7.282   5.477 -0.4068  1.0678 -0.1720
  119MOL0     H16393   9.172   7.404   5.611  2.7102 -0.8363 -0.8934
  119MOL0     H16394   8.911   7.368   5.465 -1.0982  1.7147 -0.8343
  119MOL0     H16395   8.971   7.498   5.560  3.1129 -2.1941  3.6921
  119MOL0     H16396   9.087   7.397   5.300  0.4142  0.5670 -0.8421
  119MOL0     H16397   9.134   7.553   5.385 -3.7670  2.6971  1.9564
  119MOL0     H16398   8.874   7.619   5.329  2.4974  2.0272  1.1394
  119MOL0     H16399   8.880   7.480   5.225  0.9331  1.7577 -0.0838
  119MOL0     H16400   8.932   7.671   5.098 -0.3373 -0.1647 -0.4538
  119MOL0     H16401   9.096   7.595   5.124  0.0946  0.3581 -0.5070
  119MOL0     H16402   9.511   7.028   5.616  1.2809  3.1901  2.5248
  119MOL0     H16403   9.639   6.806   5.579  0.3752 -1.4229  1.1715
  119MOL0     H16404   9.626   6.460   5.572  0.6091  0.5422 -0.4230
  119MOL0     H16405   9.643   6.265   5.432  1.8176  0.2065 -0.9950
  119MOL0     H16406  10.360   4.577   5.537 -0.4907  0.6208 -0.9121
  119MOL0     H16407  10.441   4.345   5.583 -3.3809 -0.7669  0.3593
  119MOL0     H16408  10.623   3.949   5.352 -0.3131 -0.5347  0.6943
  119MOL0     H16409  10.664   3.698   5.345 -0.5937 -0.8168 -2.6684
  119MOL0     H16410  10.616   3.504   5.581  0.1701 -0.2861  1.6736
  119MOL0     H16411  10.443   3.497   5.631  0.3873 -2.8498  1.1238
  119MOL0     H16412  10.436   3.293   5.475  1.3393 -0.6520 -1.8178
  119MOL0     H16413  10.543   3.265   5.629 -2.3237  3.6981  1.3993
  119MOL0     H16414  10.612   3.311   5.330 -2.7912  1.4248  0.2218
  119MOL0     H16415  10.723   3.348   5.455 -0.3511  0.0266  2.6084
  119MOL0     H16416  10.746   3.129   5.339 -2.2499  0.4215 -0.6844
  119MOL0     H16417  10.615   3.064   5.415  0.0594  1.2653  0.5722
  119MOL0     H16418  10.908   3.085   5.728 -0.8809 -0.9040  1.5659
  119MOL0     H16419  10.286   3.639   5.515  0.4866 -1.4967 -2.5573
  119MOL0     H16420  10.230   3.963   5.650  1.2644  2.0195 -1.7498
  119MOL0     H16421  10.121   3.935   5.510 -1.5032  0.1006  0.6663
  119MOL0     H16422  10.168   3.802   5.603 -0.1347 -0.0999 -1.9033
  120MOL0     O16423   3.164   8.625  10.296 -0.1263  0.5262 -0.1290
  120MOL0     C16424   3.106   8.613  10.190 -0.0380  0.8008 -1.0099
  120MOL0     O16425   2.985   8.649  10.159 -0.0566 -0.6752 -0.0483
  120MOL0     C16426   2.902   8.704  10.252  0.1235  0.7662 -0.2889
  120MOL0     C16427   2.887   8.841  10.243  0.7407  0.4590  0.6750
  120MOL0     C16428   2.796   8.908  10.325  0.1040 -0.2976  0.4944
  120MOL0     C16429   2.744   8.843  10.438 -0.2515  0.5394 -0.8319
  120MOL0     O16430   2.672   8.902  10.547  0.5963  0.6008  0.9928
  120MOL0     C16431   2.749   8.990  10.632 -0.3502  0.6967  0.5364
  120MOL0     C16432   2.644   9.080  10.706  0.8443  0.0929 -0.1788
  120MOL0     C16433   2.586   9.206  10.624 -0.0110  0.8662  0.3891
  120MOL0     C16434   2.508   9.158  10.500 -0.6123 -0.1759 -0.0152
  120MOL0     C16435   2.412   9.264  10.447 -0.1274 -0.8690 -0.4520
  120MOL0     C16436   2.318   9.185  10.361 -0.0769 -0.1708 -0.5587
  120MOL0     C16437   2.209   9.288  10.338  0.1485  0.4445  0.5130
  120MOL0     C16438   2.100   9.245  10.240 -0.3990 -0.0328  0.1587
  120MOL0     N16439   2.048   9.111  10.278  0.1305 -0.0635  0.2952
  120MOL0     C16440   2.069   8.988  10.223  0.1534 -0.1891  0.2625
  120MOL0     C16441   1.993   8.900  10.282 -1.0829  0.0893  0.2375
  120MOL0     C16442   1.963   8.757  10.228  0.0395 -0.3025 -0.2476
  120MOL0     C16443   1.885   8.758  10.098  0.0495 -0.6365  0.1947
  120MOL0     C16444   1.857   8.615  10.032 -0.2671 -0.8413 -0.2990
  120MOL0     C16445   1.857   8.620   9.877 -0.8588 -0.0333 -0.0390
  120MOL0     O16446   1.778   8.513   9.836 -0.3385  0.6553 -0.7225
  120MOL0     C16447   1.845   8.432   9.749 -0.5387  0.7148 -0.1794
  120MOL0     C16448   1.893   8.475   9.624 -0.6119 -0.0035  0.3292
  120MOL0     C16449   1.957   8.381   9.530 -0.0020  0.3814 -0.4689
  120MOL0     C16450   2.016   8.441   9.406 -0.4234  0.5958  0.1263
  120MOL0     C16451   1.965   8.247   9.569 -0.3771  0.7135 -0.0838
  120MOL0     C16452   2.044   8.134   9.493 -0.0901  0.3202 -0.0683
  120MOL0     O16453   2.040   8.012   9.548  0.6053  0.2298 -0.5680
  120MOL0     C16454   2.163   7.966   9.569  0.4072  0.3633 -1.1550
  120MOL0     C16455   2.228   7.985   9.686 -0.6878  0.4126  0.3495
  120MOL0     C16456   2.360   7.927   9.698  0.4718 -0.2276 -0.4219
  120MOL0     C16457   2.412   7.854   9.592 -0.2162  0.1209 -0.0498
  120MOL0     O16458   2.546   7.803   9.604 -0.2391 -0.0805  0.5009
  120MOL0     C16459   2.629   7.904   9.548 -0.2318  0.6554 -0.0703
  120MOL0     C16460   2.773   7.855   9.568  0.0443 -0.3065  0.0065
  120MOL0     C16461   2.835   7.777   9.442 -0.2190  0.2837  0.1626
  120MOL0     C16462   2.761   7.649   9.401  0.4388 -0.2951  0.2778
  120MOL0     C16463   2.862   7.539   9.370 -0.1157  1.4883  0.7488
  120MOL0     C16464   2.782   7.401   9.384 -0.0753 -0.6093  0.4041
  120MOL0     C16465   2.870   7.278   9.356 -0.8260  0.6563  0.2371
  120MOL0     C16466   2.778   7.158   9.357  0.1353 -0.2366  0.8705
  120MOL0    Cl16467   2.845   7.010   9.290  0.0364 -0.1765 -0.0798
  120MOL0     C16468   2.339   7.827   9.477  0.1898  0.9239 -0.8783
  120MOL0     C16469   2.222   7.884   9.469  0.4653 -0.1045 -0.1485
  120MOL0     O16470   2.097   8.162   9.383  0.0350  0.6560  0.1898
  120MOL0     C16471   1.923   8.211   9.701 -0.5172  0.1977 -0.7520
  120MOL0     C16472   1.866   8.304   9.786 -0.4555 -1.1465 -0.2963
  120MOL0     N16473   1.919   8.964  10.372 -0.3018 -0.5791 -0.0237
  120MOL0     N16474   1.945   9.091  10.368  0.1744 -0.0520  0.1005
  120MOL0     C16475   2.767   8.700  10.444  0.0657 -0.5371 -0.9267
  120MOL0     C16476   2.856   8.635  10.365 -0.5136  0.6448  0.2463
  120MOL0     C16477   3.193   8.569  10.079  0.4685 -0.6290  0.8114
  120MOL0     C16478   3.245   8.434  10.089  0.0836  0.1128  0.6724
  120MOL0     C16479   3.325   8.377   9.983 -0.0887  0.0902 -0.1626
  120MOL0     C16480   3.349   8.454   9.877 -0.0956 -0.4111  0.3152
  120MOL0     O16481   3.445   8.401   9.790  1.3383  0.0596 -0.8296
  120MOL0     C16482   3.532   8.499   9.734  0.2674  0.8537 -0.1542
  120MOL0     C16483   3.625   8.418   9.649 -0.5499  0.0897  0.5033
  120MOL0     C16484   3.724   8.327   9.713 -0.4103 -0.4218  0.1943
  120MOL0     C16485   3.802   8.235   9.618 -1.0612 -0.8580  1.4880
  120MOL0     C16486   3.913   8.168   9.681  0.6304  0.1042  0.2038
  120MOL0     C16487   4.000   8.115   9.736  0.5708  0.5488  0.7115
  120MOL0     C16488   3.301   8.589   9.866  0.7078  0.5513  0.3640
  120MOL0     C16489   3.224   8.648   9.962 -0.7599  0.8310 -0.7314
  120MOL0     C16490   3.171   8.794   9.960  0.2489  0.1922 -0.3091
  120MOL0     H16491   2.925   8.895  10.157  1.3347 -2.7807 -1.2920
  120MOL0     H16492   2.774   9.012  10.305 -0.6494  0.0157  2.6726
  120MOL0     H16493   2.821   9.063  10.593  0.4213 -0.6400 -0.6440
  120MOL0     H16494   2.800   8.935  10.712  1.2679  2.9137  1.1571
  120MOL0     H16495   2.567   9.013  10.745  1.4525  1.4442  3.7471
  120MOL0     H16496   2.703   9.110  10.792  1.0701 -0.1456 -0.2491
  120MOL0     H16497   2.535   9.276  10.691 -2.4294  0.3726 -0.8205
  120MOL0     H16498   2.678   9.254  10.589  1.8890 -3.1031 -0.7159
  120MOL0     H16499   2.576   9.124  10.420  2.6564  1.4152  1.8963
  120MOL0     H16500   2.447   9.072  10.529 -0.6452 -0.5306 -1.0856
  120MOL0     H16501   2.468   9.338  10.390  0.6708 -1.9446 -1.0768
  120MOL0     H16502   2.362   9.315  10.531  2.2013  0.6164  0.1257
  120MOL0     H16503   2.368   9.144  10.272 -1.2827  1.3741 -1.9922
  120MOL0     H16504   2.280   9.105  10.426  0.0795  3.0007  3.8454
  120MOL0     H16505   2.244   9.385  10.304 -1.8398  0.4214 -1.8388
  120MOL0     H16506   2.156   9.304  10.432  0.8190  0.4892  0.8877
  120MOL0     H16507   2.020   9.319  10.245  0.9003  1.3779  1.8972
  120MOL0     H16508   2.144   9.242  10.140  0.0295 -0.9306  0.3631
  120MOL0     H16509   2.138   8.960  10.144  0.9454 -1.8587  1.4827
  120MOL0     H16510   1.911   8.695  10.301 -2.6870  1.8632 -0.2006
  120MOL0     H16511   2.058   8.716  10.191 -0.8710 -0.1352 -3.0535
  120MOL0     H16512   1.794   8.814  10.121  1.0325  1.1263  0.0049
  120MOL0     H16513   1.952   8.816  10.034  3.3217 -2.6031  1.6024
  120MOL0     H16514   1.950   8.572  10.069 -0.5409  0.3527  1.9660
  120MOL0     H16515   1.759   8.583  10.070 -0.5261  1.1993  0.8880
  120MOL0     H16516   1.821   8.716   9.839 -0.4909 -0.8833 -2.7853
  120MOL0     H16517   1.955   8.622   9.828 -1.5416 -0.1823 -1.4720
  120MOL0     H16518   1.870   8.578   9.599  1.9854  0.1855 -1.7250
  120MOL0     H16519   2.124   8.438   9.395 -0.4122  3.1588 -1.2240
  120MOL0     H16520   1.999   8.549   9.413 -1.9377  0.3818  0.1691
  120MOL0     H16521   1.967   8.409   9.313  4.3563 -0.1361 -2.4848
  120MOL0     H16522   2.175   8.038   9.765 -0.3844 -1.0800  1.5997
  120MOL0     H16523   2.406   7.944   9.795  0.5312 -0.1668 -0.4600
  120MOL0     H16524   2.613   7.923   9.441  5.0708 -0.8382 -1.4043
  120MOL0     H16525   2.639   7.991   9.614  4.8203  0.2360  0.1153
  120MOL0     H16526   2.836   7.936   9.606 -1.9304  0.3515  2.1206
  120MOL0     H16527   2.764   7.784   9.650 -1.4008  0.8107  0.8761
  120MOL0     H16528   2.935   7.749   9.477 -0.5625  2.6172  3.5640
  120MOL0     H16529   2.853   7.844   9.358  0.5427  0.7224  0.6621
  120MOL0     H16530   2.692   7.685   9.324 -1.7354 -3.2845  0.6880
  120MOL0     H16531   2.698   7.622   9.485 -0.2467  0.0371 -0.1205
  120MOL0     H16532   2.894   7.540   9.266  1.4991 -0.4100  1.1837
  120MOL0     H16533   2.947   7.553   9.436  2.3703  1.3918 -2.2068
  120MOL0     H16534   2.695   7.380   9.322  1.3375 -2.6911 -1.0237
  120MOL0     H16535   2.747   7.397   9.487  0.0493  2.0636  0.6201
  120MOL0     H16536   2.940   7.261   9.439 -0.6761 -1.8892 -0.3267
  120MOL0     H16537   2.930   7.291   9.266 -0.1524 -0.1363  0.5460
  120MOL0     H16538   2.694   7.174   9.289  1.7290 -0.6386 -1.2988
  120MOL0     H16539   2.749   7.130   9.459  0.3462  0.5092  1.1381
  120MOL0     H16540   2.381   7.757   9.406 -0.6496 -2.7750  1.9881
  120MOL0     H16541   2.155   7.880   9.384  0.4149 -0.2454 -0.1007
  120MOL0     H16542   1.947   8.117   9.750 -1.1840 -1.3829 -3.2843
  120MOL0     H16543   1.835   8.264   9.882  1.4429 -1.5273  0.1974
  120MOL0     H16544   2.725   8.659  10.535  1.7024  0.1898  0.1878
  120MOL0     H16545   2.892   8.536  10.390 -0.7408  0.6854  0.7356
  120MOL0     H16546   3.209   8.374  10.172 -0.2071  0.7466  1.0114
  120MOL0     H16547   3.357   8.273   9.979  1.0346  0.4693 -1.9117
  120MOL0     H16548   3.474   8.549   9.656  0.2551 -2.3697 -2.3696
  120MOL0     H16549   3.574   8.569   9.808  1.6401 -1.8041  1.7300
  120MOL0     H16550   3.686   8.491   9.594 -3.2934  2.2945  0.1746
  120MOL0     H16551   3.572   8.356   9.576 -0.1839  0.0515  0.2630
  120MOL0     H16552   3.791   8.385   9.777 -1.2235  1.2977 -0.4665
  120MOL0     H16553   3.679   8.256   9.783  0.1726 -2.3310 -1.2757
  120MOL0     H16554   3.849   8.291   9.536 -1.8093  0.0899  1.6889
  120MOL0     H16555   3.732   8.164   9.574 -2.2186  1.9613 -1.6362
  120MOL0     H16556   4.072   8.063   9.796  0.5394  1.0552  1.1965
  120MOL0     H16557   3.334   8.646   9.780  2.0522  1.3944  1.4086
  120MOL0     H16558   3.069   8.803   9.922  1.0252 -2.3618 -3.4168
  120MOL0     H16559   3.185   8.852  10.052  1.6723  0.3254 -0.5807
  120MOL0     H16560   3.241   8.839   9.889  1.3726 -2.0313 -0.6719
  121MOL0     O16561   0.157   5.340   2.816 -0.7792  0.3442 -0.4346
  121MOL0     C16562   0.203   5.384   2.713 -0.3609 -0.5844  0.0894
  121MOL0     O16563   0.303   5.322   2.634 -0.0661 -0.5401 -0.7529
  121MOL0     C16564   0.401   5.268   2.703  0.3606  0.6111 -0.4511
  121MOL0     C16565   0.443   5.280   2.835  0.7481 -0.4391  0.1173
  121MOL0     C16566   0.556   5.214   2.894 -1.3059  0.4410 -0.4438
  121MOL0     C16567   0.644   5.161   2.797  0.0402 -1.7076 -0.3497
  121MOL0     O16568   0.765   5.111   2.844 -0.0850 -0.0270 -0.3980
  121MOL0     C16569   0.886   5.174   2.790  0.5221 -0.2366 -0.4095
  121MOL0     C16570   0.997   5.082   2.803  0.2031  0.8021 -0.4064
  121MOL0     C16571   1.016   5.023   2.949 -1.4150 -0.2653  0.0232
  121MOL0     C16572   1.006   5.133   3.062 -0.5050  0.3588 -0.3393
  121MOL0     C16573   0.999   5.071   3.207  0.3255 -0.5298  0.7868
  121MOL0     C16574   0.870   4.989   3.240  0.0373 -0.0078  0.2637
  121MOL0     C16575   0.740   5.080   3.237 -0.2299  0.0788 -0.0239
  121MOL0     C16576   0.643   5.057   3.361  0.6307  0.5856  0.3876
  121MOL0     N16577   0.511   5.137   3.347 -0.3823  0.2792 -0.5348
  121MOL0     C16578   0.383   5.088   3.367  0.4982 -0.1993  0.4471
  121MOL0     C16579   0.304   5.196   3.350 -0.4124  0.4712 -0.1097
  121MOL0     C16580   0.160   5.200   3.366  0.2658  0.6732 -0.5045
  121MOL0     C16581   0.075   5.152   3.258  0.1450 -0.3908  0.5490
  121MOL0     C16582   0.067   5.251   3.155  0.2289 -0.4427 -0.0741
  121MOL0     C16583  -0.031   5.223   3.044  1.2500  1.0373 -0.0875
  121MOL0     O16584  -0.109   5.337   3.029  0.5103 -0.6527  0.0749
  121MOL0     C16585  -0.197   5.347   2.921  0.9245 -0.1939  0.2579
  121MOL0     C16586  -0.273   5.465   2.891 -0.6285 -0.0178 -0.9395
  121MOL0     C16587  -0.329   5.496   2.769  0.2805  0.2740 -0.7862
  121MOL0     C16588  -0.394   5.633   2.770  0.2615 -0.0808  0.0763
  121MOL0     C16589  -0.328   5.397   2.665 -0.5364  0.0606 -0.0361
  121MOL0     C16590  -0.386   5.424   2.533 -0.4086  0.0223  0.6708
  121MOL0     O16591  -0.476   5.530   2.516  0.3088  0.4010 -0.9696
  121MOL0     C16592  -0.484   5.575   2.393  1.1084 -0.0195  0.7488
  121MOL0     C16593  -0.441   5.703   2.362  0.3252 -0.3608  0.5017
  121MOL0     C16594  -0.468   5.774   2.242 -0.1180  0.1526  0.2280
  121MOL0     C16595  -0.536   5.712   2.146  0.1987  0.1881  0.0618
  121MOL0     O16596  -0.553   5.779   2.020 -0.5746 -0.8588  0.2821
  121MOL0     C16597  -0.531   5.707   1.891  0.1958 -0.1867  0.5965
  121MOL0     C16598  -0.382   5.676   1.884 -0.3327  0.0031  0.5630
  121MOL0     C16599  -0.312   5.724   1.754  0.4788  0.1738  0.2782
  121MOL0     C16600  -0.161   5.673   1.739  0.3169  0.2259  0.7803
  121MOL0     C16601  -0.070   5.764   1.655 -0.0829  0.0781  0.2363
  121MOL0     C16602  -0.131   5.807   1.521 -0.3780 -0.2372 -1.4151
  121MOL0     C16603  -0.016   5.858   1.429 -0.2256  0.6471 -1.3299
  121MOL0     C16604  -0.060   5.952   1.318 -0.4190  0.0019 -0.1262
  121MOL0    Cl16605  -0.187   5.878   1.234  0.4368  0.1148 -0.1577
  121MOL0     C16606  -0.581   5.580   2.160  0.0702  0.4961 -0.9005
  121MOL0     C16607  -0.553   5.514   2.286 -0.1958 -0.6957 -0.8586
  121MOL0     O16608  -0.358   5.345   2.444 -0.2568 -0.3379 -0.2628
  121MOL0     C16609  -0.263   5.269   2.699  0.0003 -0.2083  1.6455
  121MOL0     C16610  -0.194   5.248   2.818  1.2557 -0.2198  0.0229
  121MOL0     N16611   0.389   5.299   3.303  0.6957  0.3550 -0.1386
  121MOL0     N16612   0.503   5.262   3.296 -0.6041  0.2013 -0.0922
  121MOL0     C16613   0.610   5.153   2.665  0.3221  0.4879 -0.0984
  121MOL0     C16614   0.487   5.202   2.616 -0.9234 -0.4234 -0.6993
  121MOL0     C16615   0.148   5.503   2.656  0.6441  0.2430 -0.0471
  121MOL0     C16616   0.080   5.493   2.531  0.0676 -0.1354  0.3860
  121MOL0     C16617   0.025   5.611   2.484  1.0530 -0.3877 -0.7257
  121MOL0     C16618   0.024   5.732   2.555 -0.2030  1.0402 -0.0574
  121MOL0     O16619  -0.026   5.837   2.483  0.2851 -0.3336 -0.5922
  121MOL0     C16620   0.029   5.966   2.528  0.3521 -0.1926 -0.3320
  121MOL0     C16621  -0.048   6.077   2.465 -0.4316  0.4491 -0.2334
  121MOL0     C16622  -0.024   6.211   2.551  0.4679  0.6773  0.3431
  121MOL0     C16623   0.097   6.285   2.492 -0.1080  1.0750 -0.1767
  121MOL0     C16624   0.118   6.417   2.555  0.6683  0.0079  0.5863
  121MOL0     C16625   0.122   6.520   2.618 -0.4992 -0.6572 -0.2704
  121MOL0     C16626   0.091   5.733   2.675  0.0154 -0.4734 -0.5727
  121MOL0     C16627   0.153   5.625   2.735  0.7328 -0.5501 -0.4334
  121MOL0     C16628   0.231   5.636   2.864 -0.9226  0.2719 -0.0623
  121MOL0     H16629   0.387   5.337   2.908  1.1522  0.0548  0.0508
  121MOL0     H16630   0.590   5.210   2.997  0.7468 -0.7710 -1.1093
  121MOL0     H16631   0.918   5.266   2.841  1.7551  0.8692 -3.0099
  121MOL0     H16632   0.877   5.194   2.683  2.3921 -1.8822 -0.9173
  121MOL0     H16633   0.991   5.004   2.727 -0.2210  0.6815 -0.2539
  121MOL0     H16634   1.087   5.132   2.766  0.8368  0.9167  1.2418
  121MOL0     H16635   0.938   4.949   2.967 -0.1858 -2.2461 -2.2395
  121MOL0     H16636   1.115   4.977   2.958 -0.7997  0.8283 -0.8529
  121MOL0     H16637   1.085   5.208   3.053 -0.8192  0.6765 -0.4552
  121MOL0     H16638   0.912   5.184   3.038  0.2183  1.3713 -1.1244
  121MOL0     H16639   1.009   5.154   3.279  0.6934  0.0554  0.0747
  121MOL0     H16640   1.081   5.001   3.224 -0.4088 -1.2002  1.6544
  121MOL0     H16641   0.860   4.914   3.161 -1.6404  2.7010 -2.3167
  121MOL0     H16642   0.874   4.935   3.335 -1.9231  0.6343  0.7663
  121MOL0     H16643   0.689   5.073   3.141  1.7012  1.6895 -1.2462
  121MOL0     H16644   0.777   5.183   3.245  0.1880 -0.1810  1.8474
  121MOL0     H16645   0.618   4.953   3.382 -0.1726  0.1842 -2.1854
  121MOL0     H16646   0.693   5.096   3.451  2.0889  0.2157 -0.2321
  121MOL0     H16647   0.348   4.987   3.387 -3.7147  0.8287 -0.6413
  121MOL0     H16648   0.138   5.303   3.398 -0.3252  0.7116 -1.0033
  121MOL0     H16649   0.138   5.140   3.455  0.4043  1.0907 -0.1783
  121MOL0     H16650   0.104   5.049   3.234  1.1755 -0.6622  2.6924
  121MOL0     H16651  -0.025   5.144   3.302 -0.2040  1.9453  0.3088
  121MOL0     H16652   0.051   5.341   3.215  1.5264  0.1948 -0.6576
  121MOL0     H16653   0.164   5.256   3.105  0.3085  0.8973  0.1645
  121MOL0     H16654   0.020   5.191   2.953  1.2579 -0.0770  0.2893
  121MOL0     H16655  -0.095   5.137   3.067  0.9818  1.0027 -0.9189
  121MOL0     H16656  -0.272   5.526   2.981  1.2035 -0.9414 -0.2802
  121MOL0     H16657  -0.344   5.693   2.694 -1.1488  1.7692  0.5457
  121MOL0     H16658  -0.382   5.688   2.864 -1.5487  2.9291 -1.2866
  121MOL0     H16659  -0.501   5.628   2.748 -0.0041  0.6286  1.0965
  121MOL0     H16660  -0.376   5.760   2.428  1.6664  0.0377 -1.0707
  121MOL0     H16661  -0.435   5.876   2.222  1.0584 -0.4625 -1.2053
  121MOL0     H16662  -0.586   5.613   1.878 -1.2101  0.8833 -1.9933
  121MOL0     H16663  -0.560   5.772   1.808  0.9831  0.5547  0.8899
  121MOL0     H16664  -0.322   5.711   1.969  0.0119 -0.2519  0.4308
  121MOL0     H16665  -0.373   5.567   1.894  1.5733 -0.4520 -3.7853
  121MOL0     H16666  -0.318   5.833   1.745  1.3148  0.1896 -0.1739
  121MOL0     H16667  -0.365   5.695   1.663  4.0767  0.9059 -2.2648
  121MOL0     H16668  -0.159   5.573   1.694  0.0274 -0.7621  2.8671
  121MOL0     H16669  -0.123   5.659   1.840 -0.1925  0.9892  1.0774
  121MOL0     H16670  -0.046   5.856   1.710 -1.1079  0.7361 -0.3892
  121MOL0     H16671   0.030   5.723   1.637  0.2889  0.1603  1.9257
  121MOL0     H16672  -0.192   5.896   1.535  2.9819  1.9708  0.7375
  121MOL0     H16673  -0.166   5.718   1.468  2.0167 -0.5885 -2.5461
  121MOL0     H16674   0.035   5.767   1.395 -0.0854 -0.5336  1.7922
  121MOL0     H16675   0.067   5.899   1.486  1.1440 -1.9323 -1.2889
  121MOL0     H16676   0.023   5.962   1.247  2.2041  0.6435  2.7989
  121MOL0     H16677  -0.086   6.053   1.350  0.0780  1.2164 -3.2537
  121MOL0     H16678  -0.629   5.527   2.079  1.1306 -1.6227 -0.2029
  121MOL0     H16679  -0.592   5.413   2.297  1.2554 -1.1189  0.8436
  121MOL0     H16680  -0.260   5.189   2.626 -0.7815 -0.5055  1.9274
  121MOL0     H16681  -0.141   5.154   2.819  0.8710 -0.4417 -0.0095
  121MOL0     H16682   0.680   5.091   2.611  1.5989  0.9280  1.0158
  121MOL0     H16683   0.478   5.198   2.508  0.5183 -1.4625 -0.8201
  121MOL0     H16684   0.077   5.395   2.485 -0.4376 -1.0769  2.3205
  121MOL0     H16685  -0.035   5.614   2.394  1.3952 -0.9536 -0.9739
  121MOL0     H16686   0.014   5.972   2.636 -2.4011 -1.7372 -0.5026
  121MOL0     H16687   0.136   5.979   2.510  0.1617 -0.9239 -2.2940
  121MOL0     H16688  -0.155   6.052   2.462 -0.6970  0.9005  2.6442
  121MOL0     H16689  -0.001   6.086   2.367 -0.0002 -0.9806 -0.1832
  121MOL0     H16690  -0.102   6.285   2.529  0.1987  0.8035  1.6264
  121MOL0     H16691  -0.014   6.195   2.659 -1.4396  0.5476  0.5397
  121MOL0     H16692   0.090   6.286   2.382 -0.0139 -1.6815 -0.2785
  121MOL0     H16693   0.188   6.227   2.509 -1.4231 -0.7975  0.7693
  121MOL0     H16694   0.112   6.608   2.677  1.5898 -2.7369  3.6018
  121MOL0     H16695   0.101   5.822   2.736  0.3936  1.0382 -2.7649
  121MOL0     H16696   0.299   5.551   2.877 -1.4943 -0.4373 -1.4413
  121MOL0     H16697   0.280   5.733   2.872  0.0422  0.1213 -2.8828
  121MOL0     H16698   0.164   5.624   2.950 -1.1808 -0.3319 -0.3390
  122MOL0     O16699   3.983  11.433   7.958  0.4164  0.2035  0.1249
  122MOL0     C16700   4.093  11.466   8.004  0.1207 -1.0948  0.4177
  122MOL0     O16701   4.117  11.523   8.120  0.3817  0.3067  0.2144
  122MOL0     C16702   4.007  11.563   8.192 -0.1662 -0.9753 -1.0721
  122MOL0     C16703   3.941  11.686   8.180  1.4611  1.1769  0.5692
  122MOL0     C16704   3.844  11.713   8.265 -0.3834  0.7114  0.0464
  122MOL0     C16705   3.820  11.629   8.372  0.2329 -0.5985  0.8106
  122MOL0     O16706   3.743  11.680   8.469  0.3851 -0.0074  0.1760
  122MOL0     C16707   3.618  11.614   8.488  0.1671  0.0288  0.1245
  122MOL0     C16708   3.513  11.709   8.550 -0.4144  0.5322 -0.1701
  122MOL0     C16709   3.547  11.750   8.693 -0.1039 -0.3798 -0.0834
  122MOL0     C16710   3.441  11.851   8.742 -0.1053  0.8751 -0.3829
  122MOL0     C16711   3.452  11.874   8.899  0.4535 -0.7165 -0.0108
  122MOL0     C16712   3.459  11.748   8.974  0.6542 -0.6122 -0.9615
  122MOL0     C16713   3.415  11.758   9.120 -0.2282 -0.5702  0.0230
  122MOL0     C16714   3.487  11.868   9.203 -0.6151 -0.1310 -0.6373
  122MOL0     N16715   3.471  11.848   9.347 -0.2159 -0.3111 -0.5823
  122MOL0     C16716   3.494  11.731   9.416 -0.1776  1.2807  1.0317
  122MOL0     C16717   3.449  11.741   9.540 -0.1407  0.5375  0.5425
  122MOL0     C16718   3.459  11.653   9.661 -1.0350 -0.0893 -0.0178
  122MOL0     C16719   3.577  11.690   9.757  0.3311  1.1655  0.5070
  122MOL0     C16720   3.518  11.791   9.850  0.1553 -0.0508 -0.2155
  122MOL0     C16721   3.552  11.772   9.999 -0.8240  0.0187  0.8729
  122MOL0     O16722   3.524  11.649  10.045  0.0937  0.4693 -0.5864
  122MOL0     C16723   3.518  11.638  10.187 -0.0420 -0.2977  0.7633
  122MOL0     C16724   3.497  11.517  10.238  0.2745 -0.3771  0.3579
  122MOL0     C16725   3.506  11.490  10.375  0.1869  0.0164 -0.3281
  122MOL0     C16726   3.487  11.344  10.424 -1.4549 -1.1577 -0.1076
  122MOL0     C16727   3.534  11.595  10.462  0.1753  0.1696 -0.0182
  122MOL0     C16728   3.534  11.590  10.610  0.0358 -0.2999 -0.1171
  122MOL0     O16729   3.642  11.646  10.675  0.0525 -0.3058 -0.4976
  122MOL0     C16730   3.672  11.596  10.800 -0.5417 -1.0145  0.5603
  122MOL0     C16731   3.640  11.679  10.907 -0.6827  0.5037 -1.1057
  122MOL0     C16732   3.680  11.640  11.033  0.1374 -1.0669  0.5117
  122MOL0     C16733   3.761  11.527  11.061 -0.4856 -0.6139  0.3175
  122MOL0     O16734   3.813  11.505  11.188 -0.3572  0.0558  0.4136
  122MOL0     C16735   3.737  11.569  11.290  0.2396  0.3494  0.2288
  122MOL0     C16736   3.771  11.534  11.434  0.6031 -0.1901 -0.0930
  122MOL0     C16737   3.756  11.382  11.453 -0.0767  0.1757 -0.8359
  122MOL0     C16738   3.617  11.332  11.424 -1.0734 -1.1444 -0.9470
  122MOL0     C16739   3.601  11.181  11.440  0.9782  0.6267 -0.2459
  122MOL0     C16740   3.459  11.131  11.427 -0.2168 -0.0273 -0.5937
  122MOL0     C16741   3.408  11.130  11.287  0.3665  0.4378  0.0239
  122MOL0     C16742   3.270  11.068  11.277  0.3814  0.6732  0.6186
  122MOL0    Cl16743   3.152  11.117  11.413  0.4714  0.3457  0.3383
  122MOL0     C16744   3.806  11.452  10.955  0.3985  0.6020  0.0333
  122MOL0     C16745   3.748  11.484  10.822 -0.8881 -0.6486 -0.2771
  122MOL0     O16746   3.431  11.556  10.663 -0.2363 -0.9465  0.3163
  122MOL0     C16747   3.564  11.722  10.409  0.3534 -0.6041  0.7264
  122MOL0     C16748   3.546  11.740  10.275  0.8346  0.0929  0.1671
  122MOL0     N16749   3.395  11.872   9.544 -0.0606  0.1230 -0.5911
  122MOL0     N16750   3.418  11.935   9.436 -0.2785 -0.1352  0.0434
  122MOL0     C16751   3.886  11.507   8.384 -0.7439  0.4134 -0.8338
  122MOL0     C16752   3.987  11.466   8.297 -0.2914 -1.1208 -0.5306
  122MOL0     C16753   4.210  11.441   7.921  0.2861 -1.0141 -0.8688
  122MOL0     C16754   4.241  11.531   7.822 -0.1547  0.0880 -0.6815
  122MOL0     C16755   4.355  11.511   7.739  0.6836 -0.6766  0.4409
  122MOL0     C16756   4.438  11.401   7.751 -0.3034 -1.0797  0.1276
  122MOL0     O16757   4.524  11.364   7.650 -0.7641  0.3463 -0.9636
  122MOL0     C16758   4.625  11.463   7.620  0.0658  0.4871  0.6409
  122MOL0     C16759   4.739  11.403   7.526 -0.6279  0.3109 -0.3648
  122MOL0     C16760   4.822  11.286   7.588 -0.5862  0.7308 -0.8552
  122MOL0     C16761   4.950  11.333   7.670 -0.0504 -0.1151 -0.3139
  122MOL0     C16762   4.996  11.230   7.762 -0.3204  0.7387 -0.9404
  122MOL0     C16763   5.055  11.155   7.835  0.2134  0.1408  0.1978
  122MOL0     C16764   4.405  11.310   7.849 -0.2417  0.6587 -1.0702
  122MOL0     C16765   4.291  11.325   7.938 -0.2115  0.3031  0.4633
  122MOL0     C16766   4.270  11.238   8.058  0.2032  0.2952  0.9799
  122MOL0     H16767   3.980  11.755   8.105  2.8137  0.2967  0.4302
  122MOL0     H16768   3.787  11.805   8.259 -1.3383  0.1448  0.2235
  122MOL0     H16769   3.628  11.531   8.559  0.4736  0.6735  0.8642
  122MOL0     H16770   3.586  11.575   8.391 -0.4109  0.4492  0.1443
  122MOL0     H16771   3.515  11.795   8.483  0.9766 -0.8779 -2.0627
  122MOL0     H16772   3.413  11.665   8.556  0.4716 -1.3431  1.9527
  122MOL0     H16773   3.552  11.666   8.762 -2.3402 -1.2218 -0.8526
  122MOL0     H16774   3.648  11.791   8.684  0.7486 -1.5910  2.9324
  122MOL0     H16775   3.458  11.938   8.679  2.0761  0.8911  0.1513
  122MOL0     H16776   3.346  11.800   8.720  0.7706 -0.8317 -0.4220
  122MOL0     H16777   3.382  11.948   8.937  1.8985  2.1153 -2.4196
  122MOL0     H16778   3.546  11.928   8.918  0.1999  0.0463 -0.8389
  122MOL0     H16779   3.389  11.670   8.943 -0.5166 -1.5582  3.3641
  122MOL0     H16780   3.562  11.710   8.967  1.7158  2.2286 -2.1821
  122MOL0     H16781   3.436  11.659   9.159 -0.0886 -1.1948 -1.5705
  122MOL0     H16782   3.306  11.767   9.127 -0.1806  0.1569 -0.0307
  122MOL0     H16783   3.593  11.854   9.180 -0.3546 -2.2357  1.4148
  122MOL0     H16784   3.445  11.965   9.175  0.0532 -0.1012 -1.5778
  122MOL0     H16785   3.548  11.657   9.358 -4.4797 -0.5634 -1.1736
  122MOL0     H16786   3.485  11.553   9.626 -0.0324 -0.3270  1.3487
  122MOL0     H16787   3.359  11.655   9.703 -1.3432  1.2187 -0.7441
  122MOL0     H16788   3.618  11.597   9.798  0.4892  1.0284  0.0394
  122MOL0     H16789   3.659  11.732   9.699  1.6702 -0.0078  1.4598
  122MOL0     H16790   3.555  11.885   9.809  1.1611 -1.1603 -2.0111
  122MOL0     H16791   3.408  11.788   9.845  0.0786  1.8817 -0.2144
  122MOL0     H16792   3.657  11.799  10.011 -0.8891  0.8226 -0.1828
  122MOL0     H16793   3.495  11.855  10.042  0.4754  1.4850 -0.0990
  122MOL0     H16794   3.488  11.435  10.167 -0.5201  0.0287 -0.0246
  122MOL0     H16795   3.575  11.320  10.485 -1.7228  0.2918  0.8907
  122MOL0     H16796   3.475  11.275  10.340 -1.4342 -0.7692 -0.4325
  122MOL0     H16797   3.408  11.345  10.499 -1.1837  7.0312  0.9547
  122MOL0     H16798   3.582  11.770  10.894 -2.5163  0.0290  2.4207
  122MOL0     H16799   3.637  11.698  11.114  0.7852 -1.2059  0.9623
  122MOL0     H16800   3.755  11.676  11.274  2.0972  0.0419  0.0983
  122MOL0     H16801   3.631  11.553  11.266  0.8406 -2.7978 -0.7549
  122MOL0     H16802   3.871  11.571  11.458 -0.1657  2.5159 -0.7330
  122MOL0     H16803   3.712  11.593  11.504  1.7853  0.0951  0.7047
  122MOL0     H16804   3.780  11.360  11.557 -0.8629 -0.6468 -0.8166
  122MOL0     H16805   3.836  11.345  11.389 -0.0047  0.3894 -0.8715
  122MOL0     H16806   3.574  11.373  11.332 -0.5479  2.1744  0.1287
  122MOL0     H16807   3.562  11.376  11.508  3.9175 -1.9561  3.2419
  122MOL0     H16808   3.657  11.137  11.357  1.2932  1.2993 -0.4024
  122MOL0     H16809   3.633  11.154  11.541  3.0656  0.6966 -0.8406
  122MOL0     H16810   3.389  11.194  11.483  2.4194  1.1112  1.6325
  122MOL0     H16811   3.456  11.026  11.457  0.5396  0.5596  1.7087
  122MOL0     H16812   3.472  11.073  11.219  1.5801  0.2530  1.2746
  122MOL0     H16813   3.401  11.231  11.245 -1.3275 -0.0282 -0.9161
  122MOL0     H16814   3.286  10.960  11.276 -0.7577  0.4756  1.5888
  122MOL0     H16815   3.230  11.089  11.177 -0.4369 -2.8337  0.0724
  122MOL0     H16816   3.881  11.375  10.970 -2.6166 -2.6221  0.0394
  122MOL0     H16817   3.771  11.432  10.730  0.6415  1.2228 -1.0002
  122MOL0     H16818   3.576  11.812  10.469  0.4849  0.3683 -0.7124
  122MOL0     H16819   3.560  11.846  10.255  0.7714 -0.2664 -2.0074
  122MOL0     H16820   3.864  11.447   8.471  0.3824  0.8348 -0.2474
  122MOL0     H16821   4.033  11.368   8.301 -1.2583 -1.5405  2.2953
  122MOL0     H16822   4.163  11.603   7.801  0.0389  0.4811 -0.0985
  122MOL0     H16823   4.350  11.575   7.652  2.5212  1.8330  2.0474
  122MOL0     H16824   4.590  11.557   7.576 -1.3687 -0.1931  0.2814
  122MOL0     H16825   4.682  11.492   7.709  1.1427  2.4664 -0.6290
  122MOL0     H16826   4.811  11.481   7.500 -3.6409  4.8401  3.2124
  122MOL0     H16827   4.704  11.370   7.428 -0.2577  1.8776 -1.0525
  122MOL0     H16828   4.752  11.230   7.651  0.4940  1.5931  1.2106
  122MOL0     H16829   4.854  11.234   7.497 -1.5637  1.6798 -1.7716
  122MOL0     H16830   4.929  11.419   7.734  0.3309  0.2802 -0.7173
  122MOL0     H16831   5.026  11.358   7.596 -1.9926  1.2260 -1.9703
  122MOL0     H16832   5.087  11.072   7.895 -0.6121  0.4644  1.1121
  122MOL0     H16833   4.473  11.226   7.839  1.4797  2.0517 -1.7491
  122MOL0     H16834   4.274  11.289   8.154  0.5736 -2.0552  2.3032
  122MOL0     H16835   4.168  11.198   8.048 -0.1058  0.9849  1.3347
  122MOL0     H16836   4.324  11.145   8.041 -3.0527 -1.1212 -3.5077
  123MOL0     O16837   7.073  11.157   0.837  0.0589 -0.0690 -1.1040
  123MOL0     C16838   7.152  11.133   0.746 -0.4472  0.2169 -0.7780
  123MOL0     O16839   7.279  11.182   0.745 -0.8916 -0.6220  0.3056
  123MOL0     C16840   7.324  11.254   0.850 -0.7201 -0.3945 -0.5913
  123MOL0     C16841   7.404  11.370   0.831 -0.9671 -0.2661 -0.9385
  123MOL0     C16842   7.444  11.458   0.935  0.6039 -1.0673 -1.4193
  123MOL0     C16843   7.415  11.424   1.065  0.7194  0.3932 -0.2845
  123MOL0     O16844   7.427  11.512   1.161  0.5227  0.6567 -0.1582
  123MOL0     C16845   7.544  11.594   1.177 -0.4482 -1.1059 -0.0518
  123MOL0     C16846   7.672  11.515   1.172 -0.1629 -1.1266  0.2976
  123MOL0     C16847   7.771  11.578   1.275 -0.7052 -0.3444 -0.3124
  123MOL0     C16848   7.838  11.699   1.203 -0.4921  0.8163  1.0316
  123MOL0     C16849   7.868  11.806   1.298 -0.0192  0.2870  0.0905
  123MOL0     C16850   8.005  11.766   1.367  0.7609  1.0991  0.0318
  123MOL0     C16851   8.086  11.870   1.436 -0.9812 -0.2890 -0.3386
  123MOL0     C16852   8.042  11.935   1.566  0.0767 -0.6661  1.1021
  123MOL0     N16853   8.131  12.051   1.595 -0.1176 -0.5593  0.8819
  123MOL0     C16854   8.190  12.085   1.709 -1.4005 -0.1882  0.0748
  123MOL0     C16855   8.246  12.210   1.687  1.5754  0.4224 -0.2748
  123MOL0     C16856   8.331  12.276   1.792 -0.0044 -0.2059  0.0923
  123MOL0     C16857   8.475  12.224   1.794  0.7090 -0.3829  0.8348
  123MOL0     C16858   8.568  12.295   1.893 -0.3195  0.3656 -0.2146
  123MOL0     C16859   8.718  12.253   1.891  0.9311 -0.5619  0.0420
  123MOL0     O16860   8.759  12.252   1.758 -0.4316  0.1342  0.5808
  123MOL0     C16861   8.806  12.371   1.705  0.0155 -0.5205 -0.2518
  123MOL0     C16862   8.910  12.432   1.755 -0.5783 -0.6598 -0.1333
  123MOL0     C16863   8.951  12.568   1.716 -0.6527 -0.1604  0.2761
  123MOL0     C16864   9.063  12.651   1.793  0.2328 -0.7644  0.1042
  123MOL0     C16865   8.889  12.626   1.604 -0.6641 -1.4309 -0.4258
  123MOL0     C16866   8.918  12.768   1.559  0.8850 -0.2646  1.1366
  123MOL0     O16867   8.974  12.856   1.642  0.7595 -0.8396  0.1386
  123MOL0     C16868   9.034  12.969   1.592 -0.6559  0.2387 -0.3167
  123MOL0     C16869   8.995  13.084   1.656 -0.0641 -0.4490  0.3182
  123MOL0     C16870   9.055  13.207   1.630 -0.2696  0.3244 -0.2011
  123MOL0     C16871   9.145  13.221   1.525  0.7739 -0.5308  0.2571
  123MOL0     O16872   9.193  13.334   1.468 -0.3959  0.1262  0.3220
  123MOL0     C16873   9.131  13.464   1.498  0.8684  0.4051 -0.2005
  123MOL0     C16874   9.218  13.577   1.441 -0.0400 -0.1395  0.3682
  123MOL0     C16875   9.183  13.716   1.495 -0.3653  0.0716 -1.5690
  123MOL0     C16876   9.275  13.820   1.435 -0.4438 -0.5212 -0.8882
  123MOL0     C16877   9.412  13.831   1.508 -0.2230 -0.1345  1.0642
  123MOL0     C16878   9.486  13.950   1.449  0.1292  0.0734 -0.0472
  123MOL0     C16879   9.636  13.940   1.487 -0.4502  0.6804  0.4467
  123MOL0     C16880   9.663  13.928   1.633 -1.3802  0.5687 -0.4391
  123MOL0    Cl16881   9.689  13.756   1.687  0.3306  0.1110 -0.6807
  123MOL0     C16882   9.197  13.109   1.471  0.0917  0.2777 -0.9569
  123MOL0     C16883   9.144  12.983   1.506  0.2741 -0.1548 -0.3562
  123MOL0     O16884   8.909  12.784   1.431  0.5399 -0.2413 -0.1157
  123MOL0     C16885   8.781  12.551   1.544 -0.0643 -0.8684 -0.6409
  123MOL0     C16886   8.745  12.428   1.587 -0.0722 -1.3143 -0.8761
  123MOL0     N16887   8.206  12.248   1.560 -0.6423 -0.4282  0.0400
  123MOL0     N16888   8.142  12.157   1.504  0.7391  0.8217 -0.7495
  123MOL0     C16889   7.351  11.299   1.087 -0.2826 -0.3911 -0.1336
  123MOL0     C16890   7.305  11.219   0.984  0.0485 -0.3047 -0.4130
  123MOL0     C16891   7.115  11.050   0.623  0.4814  1.2436  0.3218
  123MOL0     C16892   7.188  11.053   0.506  0.1560  0.2336 -0.7685
  123MOL0     C16893   7.144  10.992   0.389  0.6919  0.7610 -0.6636
  123MOL0     C16894   7.030  10.915   0.388  0.0687  0.7851 -0.1957
  123MOL0     O16895   6.973  10.851   0.285  0.3432  0.1524  0.3045
  123MOL0     C16896   7.044  10.848   0.161 -0.1312  0.5585  0.4916
  123MOL0     C16897   7.001  10.961   0.071 -0.1475 -0.0222  0.5044
  123MOL0     C16898   7.056  10.935  -0.074 -0.2206 -0.4282  0.0026
  123MOL0     C16899   7.036  11.057  -0.161 -0.1882  0.1209 -0.1348
  123MOL0     C16900   6.893  11.067  -0.190  1.2908 -0.1371 -1.0253
  123MOL0     C16901   6.781  11.079  -0.232  0.1786 -0.5919  1.5334
  123MOL0     C16902   6.961  10.902   0.509 -1.1237 -0.4642  1.6325
  123MOL0     C16903   6.999  10.964   0.625 -0.4807 -0.1912 -0.9045
  123MOL0     C16904   6.916  10.934   0.737  0.3175  0.3761 -0.4883
  123MOL0     H16905   7.426  11.420   0.738  2.0215  1.8778  0.7442
  123MOL0     H16906   7.497  11.548   0.906  1.1297 -0.2144  1.7994
  123MOL0     H16907   7.542  11.647   1.272  1.6221  1.7114 -1.4192
  123MOL0     H16908   7.550  11.667   1.096  0.8410 -2.2007 -1.0080
  123MOL0     H16909   7.645  11.417   1.213 -2.5576 -0.1584  1.2179
  123MOL0     H16910   7.711  11.495   1.072  0.5949  0.1239  0.3269
  123MOL0     H16911   7.726  11.625   1.363  0.3215  4.3554 -2.0099
  123MOL0     H16912   7.850  11.510   1.308 -0.0663  1.2846  1.7485
  123MOL0     H16913   7.921  11.664   1.142 -1.7441 -2.7254  1.1424
  123MOL0     H16914   7.764  11.743   1.135 -0.0651  0.3194  0.2286
  123MOL0     H16915   7.784  11.822   1.366 -1.6296 -0.4174 -1.6739
  123MOL0     H16916   7.880  11.895   1.235 -0.6712  2.4606  2.8413
  123MOL0     H16917   7.973  11.691   1.440  0.7168  1.8660  0.8227
  123MOL0     H16918   8.059  11.712   1.289 -1.1993 -1.2796  0.2029
  123MOL0     H16919   8.125  11.941   1.362 -0.0758  0.7549  1.0864
  123MOL0     H16920   8.173  11.808   1.461 -0.2820  0.2605 -1.3033
  123MOL0     H16921   7.934  11.957   1.567 -0.1551 -1.7609  1.3734
  123MOL0     H16922   8.056  11.866   1.649 -0.2282 -0.7902  1.0520
  123MOL0     H16923   8.198  12.038   1.807 -1.2260 -3.3745 -1.3820
  123MOL0     H16924   8.283  12.254   1.888 -1.5277  2.0339 -0.0927
  123MOL0     H16925   8.344  12.384   1.781  1.6733 -0.2866  0.9687
  123MOL0     H16926   8.473  12.121   1.831 -1.1438 -0.8329 -0.4141
  123MOL0     H16927   8.519  12.226   1.694 -3.0121  1.2269 -0.9470
  123MOL0     H16928   8.565  12.403   1.872 -0.4036  0.0397 -2.0285
  123MOL0     H16929   8.529  12.278   1.993  0.9587  0.5630  0.3333
  123MOL0     H16930   8.788  12.305   1.958 -0.1699  0.6343  0.3043
  123MOL0     H16931   8.724  12.151   1.930  1.6621  0.1176  1.8490
  123MOL0     H16932   8.950  12.392   1.848 -0.8130  1.0784  0.7528
  123MOL0     H16933   9.119  12.588   1.862  1.6652 -0.4620 -0.7467
  123MOL0     H16934   9.029  12.739   1.848  1.0536 -0.8060  0.6984
  123MOL0     H16935   9.129  12.688   1.714 -0.1178 -0.6422 -0.1353
  123MOL0     H16936   8.913  13.091   1.728 -0.2977 -0.5495  0.0658
  123MOL0     H16937   9.016  13.294   1.681 -2.4894  0.4179 -1.8986
  123MOL0     H16938   9.029  13.465   1.459  0.3025 -0.4757  1.2191
  123MOL0     H16939   9.120  13.477   1.606  0.2657  0.4380 -0.2623
  123MOL0     H16940   9.322  13.557   1.465  1.0082  1.4001 -2.3812
  123MOL0     H16941   9.214  13.569   1.332  0.4501  1.4144  0.2160
  123MOL0     H16942   9.207  13.699   1.601  1.9099  2.4153 -1.6123
  123MOL0     H16943   9.079  13.747   1.482 -0.2402  0.8103 -0.9426
  123MOL0     H16944   9.227  13.918   1.430  0.0951 -0.2075 -0.0128
  123MOL0     H16945   9.303  13.785   1.335  3.6531  1.3085 -0.5488
  123MOL0     H16946   9.391  13.856   1.612  0.4817  4.4726  0.3210
  123MOL0     H16947   9.466  13.737   1.494 -0.1254 -0.1792  1.7056
  123MOL0     H16948   9.439  14.045   1.478  1.8033  0.6372  0.9475
  123MOL0     H16949   9.485  13.952   1.340  0.2998  1.8879 -0.0550
  123MOL0     H16950   9.692  14.026   1.449  1.4006 -1.6469 -2.6403
  123MOL0     H16951   9.688  13.855   1.441  0.6033  0.0721  2.6188
  123MOL0     H16952   9.594  13.958   1.713  1.3384  1.3195  1.8128
  123MOL0     H16953   9.749  13.995   1.642 -0.2078 -1.0160  0.8129
  123MOL0     H16954   9.283  13.114   1.405  0.2933 -0.2638 -0.7460
  123MOL0     H16955   9.188  12.892   1.466  1.7283  1.0431 -1.6333
  123MOL0     H16956   8.714  12.597   1.472  1.2622  2.7075  0.1981
  123MOL0     H16957   8.660  12.383   1.536 -0.4102  0.6744 -2.1782
  123MOL0     H16958   7.327  11.268   1.189 -1.0787 -0.7126 -0.4084
  123MOL0     H16959   7.263  11.122   1.008  3.4688 -1.1296  3.3079
  123MOL0     H16960   7.280  11.110   0.512  1.6393 -2.1591  2.7786
  123MOL0     H16961   7.197  10.996   0.295  1.2828  1.6596 -0.3136
  123MOL0     H16962   7.152  10.833   0.156 -0.3708 -1.0100 -3.2102
  123MOL0     H16963   7.019  10.752   0.114  0.6078 -0.6922  2.5522
  123MOL0     H16964   7.040  11.054   0.112 -0.5421  0.1863  0.4139
  123MOL0     H16965   6.892  10.961   0.059 -0.0206 -2.3037 -1.5614
  123MOL0     H16966   7.164  10.919  -0.079  0.1138  1.9007 -2.5274
  123MOL0     H16967   7.000  10.856  -0.123 -0.0624 -2.1989  2.5054
  123MOL0     H16968   7.095  11.051  -0.253 -1.1932 -1.4632 -0.7204
  123MOL0     H16969   7.066  11.147  -0.107 -1.0161  0.4393 -0.1892
  123MOL0     H16970   6.684  11.084  -0.276  0.5860 -0.9878  0.5627
  123MOL0     H16971   6.876  10.837   0.492 -0.2333 -1.1052 -0.8404
  123MOL0     H16972   6.839  11.009   0.754  1.2020  1.8138 -2.4365
  123MOL0     H16973   6.885  10.829   0.737  1.1772  0.0745 -2.3901
  123MOL0     H16974   6.978  10.934   0.827  0.9791 -1.5556 -0.9056
  124MOL0     O16975   9.400   9.057   6.121 -0.9871  0.1701 -0.0629
  124MOL0     C16976   9.408   9.070   6.246  0.1577  0.4272  0.0345
  124MOL0     O16977   9.398   9.186   6.323 -0.3557 -0.5482 -0.0504
  124MOL0     C16978   9.367   9.308   6.266  0.5570 -0.7097  0.0395
  124MOL0     C16979   9.381   9.422   6.351 -0.9399  0.1700 -0.2544
  124MOL0     C16980   9.360   9.551   6.311 -0.3755 -0.7984  1.0876
  124MOL0     C16981   9.323   9.574   6.180 -1.5856  0.7556  0.5636
  124MOL0     O16982   9.291   9.692   6.118 -0.1107 -0.2001 -0.3489
  124MOL0     C16983   9.331   9.818   6.167 -0.1177  0.0224  0.0428
  124MOL0     C16984   9.225   9.927   6.149 -0.0245 -0.1981 -0.5003
  124MOL0     C16985   9.210   9.988   6.010  0.2279  0.3462  0.8203
  124MOL0     C16986   9.177   9.878   5.903 -0.8165 -0.3467 -0.1190
  124MOL0     C16987   9.162   9.939   5.762  0.6879 -0.2463 -0.2074
  124MOL0     C16988   9.048   9.874   5.684 -0.9104 -0.1048  0.3193
  124MOL0     C16989   9.097   9.730   5.663 -0.6913 -0.9661  0.6113
  124MOL0     C16990   8.970   9.638   5.633 -0.0475 -0.3887  0.1119
  124MOL0     N16991   9.018   9.503   5.639 -0.2830  0.6424  0.0616
  124MOL0     C16992   9.040   9.431   5.751  0.0551  0.1739  0.2539
  124MOL0     C16993   9.122   9.320   5.720  0.2704  0.3853  0.7792
  124MOL0     C16994   9.164   9.210   5.812 -0.4544  0.0701 -0.0758
  124MOL0     C16995   9.080   9.087   5.775  0.3828 -0.1216  0.2337
  124MOL0     C16996   9.138   8.951   5.811 -0.2914  0.9665  0.0290
  124MOL0     C16997   9.149   8.927   5.961  0.8686  0.8432 -0.4751
  124MOL0     O16998   9.012   8.942   6.025 -0.9653  0.1697  0.4260
  124MOL0     C16999   9.016   8.886   6.148 -0.6606  0.1637 -0.2171
  124MOL0     C17000   9.028   8.749   6.168  0.1197  0.5428  0.6976
  124MOL0     C17001   9.008   8.694   6.292 -0.2753  0.2313  0.5460
  124MOL0     C17002   9.047   8.551   6.304  0.2365 -0.1426  0.1172
  124MOL0     C17003   8.964   8.773   6.406  1.1483  0.5960 -0.0358
  124MOL0     C17004   8.945   8.723   6.554 -0.7781 -0.2841 -0.6021
  124MOL0     O17005   8.928   8.812   6.649 -0.0358  0.1348 -1.2134
  124MOL0     C17006   8.881   8.779   6.774 -0.2669 -0.2737  0.4462
  124MOL0     C17007   8.952   8.843   6.879  0.7615  0.0291 -0.0878
  124MOL0     C17008   8.909   8.827   7.008 -0.1306 -0.4788 -0.0854
  124MOL0     C17009   8.809   8.738   7.041 -0.5175  0.7723 -0.0577
  124MOL0     O17010   8.770   8.707   7.167 -0.1270 -0.5339  0.5400
  124MOL0     C17011   8.837   8.760   7.274 -0.3556 -0.6397 -0.8706
  124MOL0     C17012   8.761   8.740   7.410 -0.5308  0.2255  0.3722
  124MOL0     C17013   8.800   8.831   7.535  0.0256 -1.0113  0.6586
  124MOL0     C17014   8.777   8.984   7.511 -0.8303  0.2023 -0.4698
  124MOL0     C17015   8.629   9.031   7.500  0.4390 -0.9870  0.3122
  124MOL0     C17016   8.613   9.178   7.465 -0.0666  0.6731  0.3494
  124MOL0     C17017   8.463   9.216   7.480  0.2181 -0.0294 -0.1562
  124MOL0     C17018   8.424   9.297   7.363  0.0978 -0.8458  0.5748
  124MOL0    Cl17019   8.261   9.356   7.405 -0.0282  0.2879  0.4963
  124MOL0     C17020   8.744   8.673   6.940 -0.4116  0.0438  0.9211
  124MOL0     C17021   8.781   8.684   6.798  0.8786 -0.4435 -0.2752
  124MOL0     O17022   8.941   8.596   6.569  0.0190 -0.2395  0.6556
  124MOL0     C17023   8.941   8.908   6.377  0.4405 -0.8066 -0.0745
  124MOL0     C17024   8.972   8.960   6.251 -0.2384 -0.2515  1.0287
  124MOL0     N17025   9.142   9.326   5.578  0.3729 -0.1241 -0.2763
  124MOL0     N17026   9.084   9.441   5.534  0.5422  0.1993  0.4090
  124MOL0     C17027   9.306   9.471   6.093  1.1301  0.9966  0.6135
  124MOL0     C17028   9.321   9.339   6.137 -0.5543 -0.2077  1.0200
  124MOL0     C17029   9.423   8.939   6.322 -0.2114  0.4986 -0.5696
  124MOL0     C17030   9.388   8.939   6.461  0.0199 -0.8030  0.4786
  124MOL0     C17031   9.395   8.824   6.542 -0.1912 -0.8001 -0.8736
  124MOL0     C17032   9.437   8.702   6.484 -0.3536 -0.3008 -0.4800
  124MOL0     O17033   9.425   8.581   6.550 -0.1218 -0.0997 -0.4138
  124MOL0     C17034   9.424   8.452   6.483  0.3038 -0.0033  0.1695
  124MOL0     C17035   9.351   8.351   6.571  0.0819 -0.1293  0.1676
  124MOL0     C17036   9.392   8.347   6.717  0.3817 -0.2648 -0.1229
  124MOL0     C17037   9.537   8.296   6.741 -1.2558 -0.1770 -0.1760
  124MOL0     C17038   9.557   8.259   6.879 -0.4954  0.0937  0.1998
  124MOL0     C17039   9.560   8.207   6.995 -0.2214  0.7131 -0.3069
  124MOL0     C17040   9.474   8.700   6.345 -0.8741 -0.8621 -0.1181
  124MOL0     C17041   9.468   8.814   6.271 -0.3114  0.2577 -0.1748
  124MOL0     C17042   9.517   8.801   6.122  1.3713 -0.1119 -1.0051
  124MOL0     H17043   9.416   9.401   6.451 -2.3132  1.5089  0.5441
  124MOL0     H17044   9.364   9.632   6.383  1.5602  0.0550  0.0925
  124MOL0     H17045   9.415   9.856   6.108 -0.7804 -1.6280 -2.0900
  124MOL0     H17046   9.375   9.806   6.267  2.3736 -1.9709 -1.1543
  124MOL0     H17047   9.126   9.904   6.190  0.1344 -0.2707 -0.1534
  124MOL0     H17048   9.251  10.019   6.200 -2.0409 -2.2439  4.9825
  124MOL0     H17049   9.123  10.054   6.007 -0.6103 -0.6496 -3.9425
  124MOL0     H17050   9.299  10.046   5.982  0.5469 -0.6594 -0.3242
  124MOL0     H17051   9.274   9.828   5.897  0.9642  2.4177  2.5052
  124MOL0     H17052   9.101   9.805   5.933  0.6008 -1.8090  0.0543
  124MOL0     H17053   9.261   9.934   5.714  0.2260  4.3300 -2.1334
  124MOL0     H17054   9.130  10.043   5.765  3.8649  0.8105  1.2789
  124MOL0     H17055   8.955   9.867   5.741 -1.5238 -1.5438 -0.8158
  124MOL0     H17056   9.016   9.922   5.592  1.2619 -1.6944 -1.3791
  124MOL0     H17057   9.146   9.688   5.751 -0.6149 -0.0679  1.0105
  124MOL0     H17058   9.170   9.729   5.582 -0.4566 -0.9647  0.8243
  124MOL0     H17059   8.888   9.643   5.705 -2.0484  2.3225 -2.1228
  124MOL0     H17060   8.927   9.646   5.533 -2.0227  3.3610  1.0791
  124MOL0     H17061   9.005   9.448   5.852 -0.5424 -0.8973  0.2498
  124MOL0     H17062   9.148   9.238   5.916 -3.0800 -2.5501  0.3658
  124MOL0     H17063   9.273   9.202   5.806 -0.2897  0.2019  2.1230
  124MOL0     H17064   8.979   9.101   5.812  0.1388  1.2312 -0.8726
  124MOL0     H17065   9.068   9.069   5.667 -0.3653 -4.0717  0.7986
  124MOL0     H17066   9.087   8.873   5.754  0.9405  2.2543 -3.0356
  124MOL0     H17067   9.240   8.948   5.772 -0.6785 -1.0096 -0.9701
  124MOL0     H17068   9.188   8.828   5.989 -1.4989 -0.0554 -0.0792
  124MOL0     H17069   9.223   9.001   5.993  2.1611 -0.9361  0.8669
  124MOL0     H17070   9.040   8.683   6.083 -1.1674 -3.1725  3.1406
  124MOL0     H17071   9.108   8.541   6.395 -1.4921  0.1977  1.3521
  124MOL0     H17072   9.100   8.504   6.220  5.0074  5.5536 -0.7642
  124MOL0     H17073   8.952   8.501   6.322  2.6455 -5.4435  0.0587
  124MOL0     H17074   9.037   8.905   6.857  0.6920 -0.4553 -1.8568
  124MOL0     H17075   8.965   8.897   7.070 -0.3085  1.1719 -1.6912
  124MOL0     H17076   8.932   8.714   7.302 -1.5663 -0.2110  5.1621
  124MOL0     H17077   8.841   8.869   7.264 -2.1049 -0.1724  2.1949
  124MOL0     H17078   8.659   8.749   7.371  0.9455  2.3500 -3.6371
  124MOL0     H17079   8.783   8.639   7.447 -0.2043  0.6765  1.4322
  124MOL0     H17080   8.903   8.812   7.566 -0.3499 -2.5501  1.0659
  124MOL0     H17081   8.746   8.804   7.626  1.0197 -0.2816  1.4896
  124MOL0     H17082   8.832   9.026   7.426 -1.4610 -1.0230 -1.5392
  124MOL0     H17083   8.832   9.040   7.586  0.6720 -2.1667  0.3032
  124MOL0     H17084   8.583   8.970   7.422  3.9449 -0.5535 -2.2785
  124MOL0     H17085   8.570   9.015   7.591 -1.2087 -1.7062 -0.8181
  124MOL0     H17086   8.636   9.196   7.359 -0.7834 -1.7466 -0.2915
  124MOL0     H17087   8.682   9.234   7.529 -0.4279  1.6490 -0.0947
  124MOL0     H17088   8.453   9.266   7.577  1.3851 -1.3666  0.6853
  124MOL0     H17089   8.396   9.130   7.480 -1.5058  1.2201  1.5614
  124MOL0     H17090   8.439   9.244   7.268  1.1268 -0.9141  0.7606
  124MOL0     H17091   8.486   9.387   7.361 -3.5134  1.8798 -1.4170
  124MOL0     H17092   8.667   8.600   6.963 -0.8247  1.0289  2.9202
  124MOL0     H17093   8.723   8.645   6.714 -1.3719  1.0391  0.4846
  124MOL0     H17094   8.928   8.973   6.462  0.7781 -1.3516  0.4063
  124MOL0     H17095   8.955   9.066   6.244 -2.4548 -0.4546  2.3437
  124MOL0     H17096   9.259   9.499   5.999 -0.6781 -0.2218  1.0925
  124MOL0     H17097   9.300   9.259   6.066  1.8955 -1.2815  1.4083
  124MOL0     H17098   9.343   9.026   6.507 -3.6566 -2.2634  0.0065
  124MOL0     H17099   9.361   8.825   6.645  1.8792  2.4130 -0.0931
  124MOL0     H17100   9.367   8.465   6.391 -0.2023 -3.9276 -0.2190
  124MOL0     H17101   9.527   8.423   6.463  0.9231 -0.1613  3.0491
  124MOL0     H17102   9.369   8.252   6.530  3.6834 -0.0001  1.1359
  124MOL0     H17103   9.242   8.363   6.568  0.1328  0.8944  1.4351
  124MOL0     H17104   9.371   8.440   6.770  3.6881  1.1544 -1.0429
  124MOL0     H17105   9.323   8.273   6.759  0.5602  0.2649  1.1232
  124MOL0     H17106   9.612   8.371   6.718 -1.7122 -0.0995 -1.5362
  124MOL0     H17107   9.565   8.209   6.681  0.3258 -2.0269  3.0029
  124MOL0     H17108   9.543   8.178   7.097 -1.0015  3.7089  0.5082
  124MOL0     H17109   9.524   8.614   6.302 -0.1777  0.1292 -1.3361
  124MOL0     H17110   9.547   8.697   6.105  1.2658 -0.8353  2.5094
  124MOL0     H17111   9.435   8.819   6.052 -1.7974 -0.7380  2.2254
  124MOL0     H17112   9.596   8.871   6.091  0.9270  0.5204 -0.7390
  125MOL0     O17113   5.775   5.968   7.548  0.5132 -0.1770  0.3693
  125MOL0     C17114   5.684   5.952   7.621  0.9127  0.4403 -0.5310
  125MOL0     O17115   5.654   5.840   7.693 -0.1063  0.7243  0.1746
  125MOL0     C17116   5.739   5.733   7.664  0.4311  0.0288  1.0541
  125MOL0     C17117   5.849   5.705   7.748  0.4379 -0.9721 -0.1598
  125MOL0     C17118   5.942   5.606   7.721 -0.0346 -1.1464 -0.2700
  125MOL0     C17119   5.926   5.528   7.611 -0.3106 -0.7732  0.3924
  125MOL0     O17120   6.022   5.433   7.577  0.2860  0.5304  0.3471
  125MOL0     C17121   5.966   5.301   7.584 -0.7247 -0.2166  0.6083
  125MOL0     C17122   6.046   5.197   7.498  0.1745 -0.0055  0.0544
  125MOL0     C17123   5.967   5.065   7.476  0.0624  0.2731 -0.0044
  125MOL0     C17124   5.966   4.979   7.597  0.3603  0.1380 -0.5596
  125MOL0     C17125   5.909   4.832   7.556  0.2762 -1.4163 -0.8258
  125MOL0     C17126   5.764   4.810   7.521 -0.3364 -0.3887 -0.7149
  125MOL0     C17127   5.727   4.656   7.498 -0.4036 -0.2535 -0.6158
  125MOL0     C17128   5.580   4.638   7.457  0.3501  0.5792 -0.4196
  125MOL0     N17129   5.479   4.679   7.561 -0.9931  0.0657  0.4964
  125MOL0     C17130   5.429   4.605   7.668 -0.4743 -0.8758 -0.1660
  125MOL0     C17131   5.333   4.685   7.721 -0.3547  0.7193 -0.1288
  125MOL0     C17132   5.234   4.652   7.832 -0.2465 -0.2932  0.3509
  125MOL0     C17133   5.100   4.611   7.770 -0.8514  0.1487 -0.5255
  125MOL0     C17134   4.988   4.616   7.875 -0.0690  0.7137 -0.1837
  125MOL0     C17135   4.852   4.595   7.809 -0.4088  0.8704  0.8624
  125MOL0     O17136   4.847   4.473   7.732 -0.2211 -0.1233 -0.0190
  125MOL0     C17137   4.720   4.427   7.701  0.8812  0.3851  0.7350
  125MOL0     C17138   4.709   4.354   7.582  0.3115  0.0120 -0.5812
  125MOL0     C17139   4.583   4.327   7.526 -0.3480  1.6152  0.5107
  125MOL0     C17140   4.592   4.235   7.400 -0.6184 -0.9732 -0.5226
  125MOL0     C17141   4.462   4.365   7.583 -0.1426  0.1513  0.8536
  125MOL0     C17142   4.331   4.339   7.524  0.6587  0.1761  0.0707
  125MOL0     O17143   4.311   4.279   7.405 -0.0611 -0.3566  0.0945
  125MOL0     C17144   4.193   4.285   7.331 -0.2049  0.0003 -0.5315
  125MOL0     C17145   4.105   4.399   7.338  0.2858 -0.6921 -0.1233
  125MOL0     C17146   3.970   4.391   7.274  0.5896  0.1747 -0.6701
  125MOL0     C17147   3.943   4.285   7.191  0.7932 -0.5911 -0.4385
  125MOL0     O17148   3.833   4.299   7.123 -0.1643 -0.5047  0.1210
  125MOL0     C17149   3.813   4.216   7.010  0.4531 -0.0117 -0.3102
  125MOL0     C17150   3.701   4.278   6.925  0.3031  0.0845  0.3114
  125MOL0     C17151   3.738   4.421   6.863 -0.0128  0.0458  0.2264
  125MOL0     C17152   3.625   4.493   6.790  0.2486  0.5565 -0.5881
  125MOL0     C17153   3.656   4.628   6.718  0.3497 -0.1063  0.6566
  125MOL0     C17154   3.586   4.733   6.806 -0.4048 -0.1608  1.3324
  125MOL0     C17155   3.641   4.880   6.773  0.4292 -0.4815  0.4360
  125MOL0     C17156   3.552   4.967   6.856 -0.2626  0.4618  0.2845
  125MOL0    Cl17157   3.627   5.123   6.870  0.0788  0.2306 -0.0383
  125MOL0     C17158   4.030   4.181   7.186  0.1062  0.5648 -0.6489
  125MOL0     C17159   4.147   4.171   7.264 -0.3661 -0.8596 -0.7888
  125MOL0     O17160   4.233   4.390   7.590  0.1223  0.1136  0.0462
  125MOL0     C17161   4.476   4.439   7.698  0.1268 -0.5179 -0.1126
  125MOL0     C17162   4.600   4.457   7.761  0.7915 -0.1814 -0.4848
  125MOL0     N17163   5.317   4.797   7.637 -0.1855 -0.6028 -0.1517
  125MOL0     N17164   5.410   4.798   7.552 -0.1110  0.3541  0.5049
  125MOL0     C17165   5.817   5.548   7.528  0.4449 -0.4990 -0.3691
  125MOL0     C17166   5.715   5.640   7.556  0.0504 -0.4077 -0.0020
  125MOL0     C17167   5.579   6.052   7.636 -0.4798 -0.1633 -0.5875
  125MOL0     C17168   5.466   6.018   7.707  0.1991 -0.2580  0.5084
  125MOL0     C17169   5.357   6.095   7.720  0.9379  0.6386  0.9550
  125MOL0     C17170   5.340   6.213   7.655 -0.7914  0.0259 -0.2101
  125MOL0     O17171   5.223   6.290   7.650 -0.8153 -0.2107 -0.7691
  125MOL0     C17172   5.238   6.433   7.643  0.1012  0.0966 -0.3010
  125MOL0     C17173   5.208   6.471   7.495 -0.6442  0.8461  0.3631
  125MOL0     C17174   5.198   6.625   7.466 -1.2552  0.8540 -0.7179
  125MOL0     C17175   5.321   6.661   7.380  0.5683  0.7597  0.1657
  125MOL0     C17176   5.444   6.643   7.460  0.1166 -0.3901  1.2393
  125MOL0     C17177   5.541   6.627   7.531  0.5999  0.7979  0.8240
  125MOL0     C17178   5.461   6.261   7.598 -0.2217 -0.6627  0.0282
  125MOL0     C17179   5.574   6.183   7.580  0.1328  1.0936  0.4483
  125MOL0     C17180   5.677   6.229   7.475 -0.1981  0.5202  0.3585
  125MOL0     H17181   5.869   5.778   7.826 -0.8244 -0.0695 -0.6376
  125MOL0     H17182   6.013   5.588   7.801  0.1479  3.2862  0.8571
  125MOL0     H17183   5.859   5.298   7.558 -0.4442  2.3329 -1.1138
  125MOL0     H17184   5.986   5.255   7.682 -2.5610 -2.0649  0.1940
  125MOL0     H17185   6.081   5.237   7.403  0.6685  4.4113  1.8031
  125MOL0     H17186   6.142   5.167   7.541  1.0172  0.5456 -1.3901
  125MOL0     H17187   5.868   5.086   7.434  1.0983  2.5210 -1.5421
  125MOL0     H17188   6.029   5.023   7.396  2.4801  4.1592 -0.4474
  125MOL0     H17189   6.069   4.958   7.624  0.8177 -0.2345 -2.4340
  125MOL0     H17190   5.908   5.020   7.681  2.1408 -1.8297  1.7793
  125MOL0     H17191   5.938   4.765   7.638  0.7881 -1.9211 -1.4109
  125MOL0     H17192   5.972   4.791   7.476  1.4826 -0.4700 -0.4061
  125MOL0     H17193   5.705   4.845   7.607  0.5626 -1.1096  0.2098
  125MOL0     H17194   5.739   4.858   7.426  0.6285 -3.1134 -2.4487
  125MOL0     H17195   5.745   4.602   7.591 -3.3251 -2.0387 -0.9680
  125MOL0     H17196   5.793   4.605   7.427 -0.5996 -0.0881 -0.9196
  125MOL0     H17197   5.552   4.696   7.369 -0.1918  2.1449  0.7292
  125MOL0     H17198   5.566   4.532   7.436  0.1669  0.1271  1.7054
  125MOL0     H17199   5.451   4.503   7.700  1.3688  0.0007  1.6602
  125MOL0     H17200   5.226   4.746   7.888 -0.8096  0.4047 -0.8638
  125MOL0     H17201   5.281   4.572   7.890  2.8400  0.5673 -0.7897
  125MOL0     H17202   5.080   4.685   7.693  0.4606 -1.1812 -2.2189
  125MOL0     H17203   5.101   4.516   7.716  3.3928  0.0209 -0.6009
  125MOL0     H17204   5.008   4.535   7.945  0.9732  0.4370 -0.7801
  125MOL0     H17205   4.976   4.704   7.938 -3.3015  0.1394  0.1549
  125MOL0     H17206   4.778   4.591   7.890 -1.5643  1.4090 -0.1383
  125MOL0     H17207   4.826   4.679   7.744 -1.5829  0.5440  0.8902
  125MOL0     H17208   4.792   4.320   7.522  1.8582 -0.3353  1.6289
  125MOL0     H17209   4.593   4.296   7.309  0.5603 -2.3577 -1.4867
  125MOL0     H17210   4.510   4.165   7.381 -2.4170  1.2221 -1.3771
  125MOL0     H17211   4.677   4.167   7.408 -1.2062 -1.7503 -0.6334
  125MOL0     H17212   4.116   4.497   7.383  0.8764 -0.5579 -0.5396
  125MOL0     H17213   3.897   4.468   7.295 -1.3657 -0.8470 -3.1743
  125MOL0     H17214   3.905   4.213   6.950  3.4540  2.1479  3.7437
  125MOL0     H17215   3.782   4.121   7.054 -0.4953  1.0495  1.4166
  125MOL0     H17216   3.667   4.207   6.849 -4.8609  1.1577  1.2640
  125MOL0     H17217   3.614   4.291   6.990 -1.0655 -0.8316 -1.2702
  125MOL0     H17218   3.822   4.415   6.792  0.1471  3.4388 -0.0664
  125MOL0     H17219   3.783   4.487   6.938  2.8277 -0.1409 -1.1634
  125MOL0     H17220   3.557   4.504   6.875  1.3758  4.9091 -0.0458
  125MOL0     H17221   3.579   4.414   6.729 -0.0570  0.4913 -0.2824
  125MOL0     H17222   3.763   4.642   6.734  0.6790 -2.2724  0.6053
  125MOL0     H17223   3.622   4.637   6.614 -1.2577  0.7309  1.2126
  125MOL0     H17224   3.613   4.720   6.911  1.2968  4.7247  1.7331
  125MOL0     H17225   3.477   4.729   6.804 -0.3931 -0.2407  0.4778
  125MOL0     H17226   3.643   4.900   6.666 -1.4019 -3.3099 -0.2439
  125MOL0     H17227   3.745   4.889   6.807  0.6757  0.4053 -0.5055
  125MOL0     H17228   3.541   4.927   6.957  1.0668 -2.2300 -0.5421
  125MOL0     H17229   3.456   4.972   6.806  0.3106  1.5893 -0.7466
  125MOL0     H17230   4.002   4.095   7.125 -1.8327 -0.6966  1.8256
  125MOL0     H17231   4.214   4.086   7.255 -0.5578 -0.7625 -5.0478
  125MOL0     H17232   4.387   4.474   7.751  2.4372  1.8800  2.5451
  125MOL0     H17233   4.591   4.504   7.859  0.6862  2.3032 -1.6073
  125MOL0     H17234   5.827   5.489   7.437 -2.2767 -1.0010 -0.4105
  125MOL0     H17235   5.626   5.652   7.495 -1.1892 -2.9398  1.1554
  125MOL0     H17236   5.474   5.933   7.773 -2.8381 -1.4916 -0.5210
  125MOL0     H17237   5.275   6.064   7.784 -0.7113  0.6508 -1.0462
  125MOL0     H17238   5.153   6.460   7.707  0.4956 -0.9795  0.7009
  125MOL0     H17239   5.328   6.484   7.677  0.2058  0.6217 -1.3405
  125MOL0     H17240   5.114   6.426   7.462  0.3710 -0.0200 -1.5481
  125MOL0     H17241   5.287   6.426   7.434 -2.2428 -0.5897 -0.7356
  125MOL0     H17242   5.102   6.650   7.418 -1.0530 -0.3102 -1.7956
  125MOL0     H17243   5.211   6.681   7.559  0.2017  1.2925 -1.1579
  125MOL0     H17244   5.314   6.768   7.357 -2.5417  0.8408  1.0372
  125MOL0     H17245   5.305   6.610   7.285 -4.0407  0.2312  0.9830
  125MOL0     H17246   5.629   6.619   7.593  1.5901 -0.0410 -0.6292
  125MOL0     H17247   5.468   6.354   7.542 -1.6928 -0.9638 -0.7088
  125MOL0     H17248   5.666   6.160   7.391 -1.9072 -0.8754  1.6213
  125MOL0     H17249   5.661   6.333   7.446 -0.1093 -0.2266 -2.7203
  125MOL0     H17250   5.782   6.233   7.505  1.1805  1.8916 -3.9487
  126MOL0     O17251   6.630   0.824   5.545  0.1039 -1.2235  0.5084
  126MOL0     C17252   6.686   0.748   5.623 -0.4493  0.2283 -0.1183
  126MOL0     O17253   6.721   0.781   5.756 -0.3115  0.9379  0.4102
  126MOL0     C17254   6.664   0.895   5.811  0.2702  0.5454 -0.4388
  126MOL0     C17255   6.738   0.976   5.898  0.0416  0.8740 -0.0389
  126MOL0     C17256   6.680   1.085   5.965  0.5238  0.9400  0.0002
  126MOL0     C17257   6.548   1.115   5.936  0.7215  0.0405 -0.1870
  126MOL0     O17258   6.504   1.223   6.003 -0.0454  0.0280 -0.2811
  126MOL0     C17259   6.378   1.280   5.972 -0.2202 -0.4510  0.4517
  126MOL0     C17260   6.365   1.401   6.056  0.0494  0.0379  1.3374
  126MOL0     C17261   6.265   1.491   5.998 -0.3288  0.0667  0.3902
  126MOL0     C17262   6.235   1.608   6.085 -0.0542 -0.6615 -0.7980
  126MOL0     C17263   6.118   1.700   6.023 -0.5935 -0.3938 -0.1577
  126MOL0     C17264   6.102   1.826   6.107 -0.3710  0.9216  0.2821
  126MOL0     C17265   5.955   1.868   6.095 -0.3674  0.1505 -0.5332
  126MOL0     C17266   5.926   1.953   5.965 -0.5924  0.9630  0.3963
  126MOL0     N17267   5.778   1.968   5.949 -0.5609  0.0560  0.4107
  126MOL0     C17268   5.723   2.073   5.890 -0.1174 -0.0833  0.1539
  126MOL0     C17269   5.597   2.083   5.935  0.1481 -0.8850  0.1949
  126MOL0     C17270   5.506   2.189   5.885 -0.1734 -0.4236 -0.5811
  126MOL0     C17271   5.398   2.122   5.805  0.1632 -1.7735 -0.8135
  126MOL0     C17272   5.282   2.209   5.761  0.7979  0.4498  0.1844
  126MOL0     C17273   5.176   2.112   5.690 -0.2573  0.8858  0.2708
  126MOL0     O17274   5.070   2.190   5.633 -0.9268 -0.4645  0.6196
  126MOL0     C17275   5.090   2.240   5.501 -0.6655  0.0899  0.3094
  126MOL0     C17276   4.979   2.310   5.444 -0.1876  1.2318 -0.3782
  126MOL0     C17277   4.981   2.374   5.320 -0.9976 -0.9389  0.9822
  126MOL0     C17278   4.865   2.460   5.277 -0.3209  0.7336  0.1237
  126MOL0     C17279   5.110   2.373   5.252  0.3993  0.5533 -0.3142
  126MOL0     C17280   5.144   2.444   5.125 -0.1245  0.9201  0.0915
  126MOL0     O17281   5.257   2.409   5.071  0.2909 -0.6284 -0.2371
  126MOL0     C17282   5.321   2.495   4.974 -0.1991  0.1769  0.0061
  126MOL0     C17283   5.298   2.632   4.935  1.0068  0.8711  0.8550
  126MOL0     C17284   5.373   2.690   4.838  0.3293  0.0293 -0.4033
  126MOL0     C17285   5.483   2.612   4.791 -0.8087 -0.2282  1.5422
  126MOL0     O17286   5.568   2.667   4.693 -0.7745 -0.1280  0.7167
  126MOL0     C17287   5.703   2.676   4.726 -0.5264 -0.2202 -0.8141
  126MOL0     C17288   5.771   2.620   4.600  0.1127  0.1377  0.0253
  126MOL0     C17289   5.792   2.727   4.487 -0.3763 -0.1134  1.2844
  126MOL0     C17290   5.900   2.681   4.393 -0.1064  0.2830 -0.4877
  126MOL0     C17291   5.925   2.778   4.278  0.2543 -0.4136  0.3499
  126MOL0     C17292   6.030   2.882   4.307  0.6009 -0.8087  1.0721
  126MOL0     C17293   6.039   2.978   4.191  0.3192 -0.5604  1.1547
  126MOL0     C17294   6.097   2.929   4.060 -1.0739 -0.1810  0.2926
  126MOL0    Cl17295   6.253   2.851   4.076 -0.2058  0.1168 -0.0469
  126MOL0     C17296   5.506   2.488   4.829 -0.4069  0.4584  1.2216
  126MOL0     C17297   5.423   2.423   4.922 -0.0032 -0.5680  0.6854
  126MOL0     O17298   5.054   2.515   5.075 -0.7103  0.2897 -0.2098
  126MOL0     C17299   5.214   2.288   5.314 -0.1847 -0.3158 -0.8250
  126MOL0     C17300   5.205   2.215   5.429  0.1785 -0.3614 -0.0155
  126MOL0     N17301   5.573   1.976   6.016 -0.1711  0.3171 -0.1018
  126MOL0     N17302   5.687   1.919   6.032 -0.1706  0.7848 -0.7716
  126MOL0     C17303   6.470   1.033   5.860  0.2139 -0.9712 -0.0626
  126MOL0     C17304   6.531   0.924   5.796  0.2709  0.3359 -0.2368
  126MOL0     C17305   6.712   0.607   5.582  0.2779  0.2052 -0.4126
  126MOL0     C17306   6.742   0.511   5.677  0.1633  1.1827 -0.3019
  126MOL0     C17307   6.781   0.372   5.648  0.7637 -0.8979  0.3024
  126MOL0     C17308   6.784   0.328   5.519 -0.4706  0.6185 -0.2219
  126MOL0     O17309   6.810   0.202   5.501 -0.3104  0.7403  0.2534
  126MOL0     C17310   6.702   0.120   5.456 -0.7243 -0.4706  0.7581
  126MOL0     C17311   6.690  -0.031   5.474 -0.1430  0.1480 -0.4572
  126MOL0     C17312   6.717  -0.057   5.628  0.3082 -0.5854 -0.3025
  126MOL0     C17313   6.638  -0.177   5.675 -1.3361  0.0427 -0.2567
  126MOL0     C17314   6.500  -0.149   5.700 -0.1011  0.8413  0.6847
  126MOL0     C17315   6.382  -0.136   5.726  0.6178  0.3584  0.0704
  126MOL0     C17316   6.735   0.414   5.423  0.7232 -0.4824 -0.1010
  126MOL0     C17317   6.719   0.554   5.448 -0.1854 -0.4989 -0.6544
  126MOL0     C17318   6.691   0.632   5.322  0.8282 -0.8948  0.0714
  126MOL0     H17319   6.844   0.952   5.906 -0.1750 -0.6747 -1.3212
  126MOL0     H17320   6.747   1.144   6.027  0.3589  0.5480  0.5585
  126MOL0     H17321   6.301   1.204   5.992  1.1795 -1.9682  0.3332
  126MOL0     H17322   6.382   1.310   5.867 -1.7355 -3.7977 -0.7072
  126MOL0     H17323   6.343   1.377   6.160 -0.5654 -0.5753  1.0704
  126MOL0     H17324   6.456   1.461   6.059 -0.3139  0.5539  3.3336
  126MOL0     H17325   6.307   1.537   5.908  3.0009  1.1466  2.3183
  126MOL0     H17326   6.172   1.439   5.973  0.0713 -1.1184  1.2599
  126MOL0     H17327   6.203   1.577   6.185  1.7949 -1.0636 -0.2790
  126MOL0     H17328   6.319   1.676   6.101  1.1902 -1.8508 -2.0042
  126MOL0     H17329   6.032   1.633   6.015  0.1270 -1.4464  0.6124
  126MOL0     H17330   6.135   1.725   5.918  0.6128  0.2469  0.1627
  126MOL0     H17331   6.141   1.811   6.208 -1.1246 -0.0691  0.4374
  126MOL0     H17332   6.155   1.898   6.045 -0.2048 -0.1250 -0.8274
  126MOL0     H17333   5.932   1.926   6.185  2.7619  1.2909 -0.3330
  126MOL0     H17334   5.881   1.789   6.103 -0.3801  0.3793  2.7429
  126MOL0     H17335   5.969   2.053   5.976 -0.3367  1.3745 -3.1503
  126MOL0     H17336   5.961   1.899   5.877  0.1586  2.4996 -0.2897
  126MOL0     H17337   5.763   2.124   5.803  0.4729 -0.1499  0.3852
  126MOL0     H17338   5.571   2.250   5.821 -1.3802  0.1732 -1.2735
  126MOL0     H17339   5.463   2.244   5.968 -0.3825 -2.4649  0.7475
  126MOL0     H17340   5.451   2.094   5.714  2.4882  0.8439 -0.3697
  126MOL0     H17341   5.355   2.041   5.865 -1.1730 -0.1792  0.5091
  126MOL0     H17342   5.222   2.265   5.833  0.7881 -0.1637  0.6638
  126MOL0     H17343   5.313   2.282   5.687 -0.4243 -0.6228 -1.4596
  126MOL0     H17344   5.235   2.047   5.625  1.0769  2.5729 -0.2791
  126MOL0     H17345   5.119   2.057   5.765  1.6062  0.1814  1.2383
  126MOL0     H17346   4.892   2.317   5.508 -0.1914 -3.5083  0.4418
  126MOL0     H17347   4.847   2.440   5.171  1.1924  1.5559 -0.3276
  126MOL0     H17348   4.885   2.567   5.289 -3.8083  1.7582 -1.8673
  126MOL0     H17349   4.773   2.434   5.329 -0.8601  1.7249 -0.2954
  126MOL0     H17350   5.219   2.682   4.990 -0.5340 -0.7141  0.1946
  126MOL0     H17351   5.361   2.794   4.809  1.8470  0.6966  1.1744
  126MOL0     H17352   5.730   2.778   4.752 -1.4447 -0.0323 -0.5747
  126MOL0     H17353   5.726   2.618   4.817 -0.6915  0.5770 -0.2509
  126MOL0     H17354   5.864   2.577   4.638 -1.4132 -3.3058  0.2760
  126MOL0     H17355   5.713   2.532   4.571 -1.1703  0.9135  0.1354
  126MOL0     H17356   5.821   2.823   4.531 -0.6215 -1.0118  3.5695
  126MOL0     H17357   5.701   2.742   4.429  0.9402 -1.4042 -1.2994
  126MOL0     H17358   5.875   2.588   4.341 -2.1676  1.3232 -1.4426
  126MOL0     H17359   5.984   2.663   4.462 -1.0335 -0.1141  0.5576
  126MOL0     H17360   5.966   2.716   4.197  2.2866 -0.8685  1.6570
  126MOL0     H17361   5.832   2.828   4.250  0.2954 -0.6877 -0.2986
  126MOL0     H17362   6.130   2.842   4.322  1.8494  1.1776 -1.2371
  126MOL0     H17363   5.985   2.927   4.396 -0.7520  2.4403 -1.0710
  126MOL0     H17364   6.094   3.066   4.225  2.1820 -0.6704 -1.2609
  126MOL0     H17365   5.937   3.006   4.163  0.3165 -0.4974  1.2259
  126MOL0     H17366   6.120   3.019   4.001 -2.9373 -0.1873 -0.5011
  126MOL0     H17367   6.029   2.860   4.010 -1.9619  0.3596  0.7339
  126MOL0     H17368   5.575   2.417   4.785 -1.0445  0.9345 -0.5988
  126MOL0     H17369   5.434   2.319   4.953  5.6917 -0.9359 -1.3110
  126MOL0     H17370   5.312   2.291   5.267  1.1489  0.9491  1.8416
  126MOL0     H17371   5.277   2.143   5.468 -1.6038 -2.9828 -1.2334
  126MOL0     H17372   6.366   1.054   5.838  0.1720 -1.0785  0.0292
  126MOL0     H17373   6.468   0.864   5.732  0.9672 -1.3245  0.5702
  126MOL0     H17374   6.727   0.534   5.782 -0.2829 -1.0244  0.1637
  126MOL0     H17375   6.778   0.298   5.728 -1.3212  2.3112  3.5097
  126MOL0     H17376   6.612   0.160   5.504  0.4304  0.7416  1.9876
  126MOL0     H17377   6.697   0.153   5.352 -1.2852 -0.4681  0.7835
  126MOL0     H17378   6.755  -0.089   5.408  0.9043  0.2178  0.4792
  126MOL0     H17379   6.591  -0.054   5.434  0.0142  1.6766 -1.8071
  126MOL0     H17380   6.826  -0.065   5.642  0.4948  2.6525  0.9714
  126MOL0     H17381   6.696   0.030   5.690 -1.1136  0.4774 -2.1579
  126MOL0     H17382   6.674  -0.235   5.761 -2.4970 -3.7876 -2.1123
  126MOL0     H17383   6.649  -0.249   5.593  0.9775 -2.5556  2.1049
  126MOL0     H17384   6.277  -0.134   5.746  0.9312 -2.6821  2.7999
  126MOL0     H17385   6.704   0.381   5.325  2.1803  0.9728 -1.0974
  126MOL0     H17386   6.583   0.643   5.308  0.0842 -3.5064  2.6934
  126MOL0     H17387   6.737   0.731   5.333 -2.2705  0.4895  1.9950
  126MOL0     H17388   6.734   0.580   5.236  2.8485  0.5945  0.1039
  127MOL0     O17389   5.539   8.698  10.998  0.4526 -0.3771 -0.6680
  127MOL0     C17390   5.524   8.789  11.075  0.2817  0.3253 -0.3624
  127MOL0     O17391   5.475   8.915  11.043  0.1828  0.1447  0.2034
  127MOL0     C17392   5.452   8.945  10.910 -0.2179 -1.4895 -0.5720
  127MOL0     C17393   5.342   9.025  10.878 -0.0842 -0.0056  0.4766
  127MOL0     C17394   5.298   9.041  10.746 -0.1822  0.5275  0.5800
  127MOL0     C17395   5.372   8.988  10.642  0.0651 -1.2705  1.1926
  127MOL0     O17396   5.323   9.001  10.510 -0.8158 -0.5068 -0.0787
  127MOL0     C17397   5.423   9.043  10.418  0.6412 -0.2790  0.0545
  127MOL0     C17398   5.360   9.039  10.280 -0.1745  0.6599 -0.1371
  127MOL0     C17399   5.343   8.897  10.223 -0.2626 -0.3004 -0.3389
  127MOL0     C17400   5.265   8.903  10.091  0.8322  0.1285  0.1749
  127MOL0     C17401   5.260   8.762  10.027  1.0009  0.2259  0.1456
  127MOL0     C17402   5.196   8.756   9.888  0.6445 -0.6228 -0.2871
  127MOL0     C17403   5.295   8.780   9.766 -0.0865 -0.3210 -0.4155
  127MOL0     C17404   5.226   8.779   9.631 -0.3690 -0.1154  0.1123
  127MOL0     N17405   5.317   8.782   9.519 -0.1981 -0.0821 -0.9347
  127MOL0     C17406   5.292   8.717   9.403  0.4751  1.2025  0.3798
  127MOL0     C17407   5.396   8.743   9.319  1.1250 -0.4312 -0.9284
  127MOL0     C17408   5.396   8.728   9.170 -0.3717 -0.6491 -0.2395
  127MOL0     C17409   5.524   8.655   9.126 -0.0081  0.0285 -0.2982
  127MOL0     C17410   5.513   8.614   8.981 -0.1228 -1.0991 -0.2064
  127MOL0     C17411   5.651   8.578   8.925 -0.6179 -0.2735 -0.0050
  127MOL0     O17412   5.642   8.494   8.808  0.7640  0.6486 -0.3056
  127MOL0     C17413   5.762   8.461   8.756  0.2774 -0.6728  0.0542
  127MOL0     C17414   5.888   8.538   8.772  0.7074  0.2892  0.9534
  127MOL0     C17415   5.995   8.469   8.705 -0.8420 -0.1899 -0.9609
  127MOL0     C17416   6.125   8.530   8.718  0.3022  0.3324  0.4611
  127MOL0     C17417   5.986   8.342   8.642 -0.3901  0.1653  1.4141
  127MOL0     C17418   6.094   8.266   8.584 -0.5032 -0.6197  0.5459
  127MOL0     O17419   6.212   8.252   8.658  0.5501  0.0830 -0.6161
  127MOL0     C17420   6.314   8.175   8.611  0.5447 -0.3092 -0.5164
  127MOL0     C17421   6.296   8.040   8.616 -1.0899  1.1042  0.1456
  127MOL0     C17422   6.407   7.958   8.574  1.4568  0.8839 -0.1573
  127MOL0     C17423   6.526   8.016   8.516 -0.1343  0.4092 -0.8421
  127MOL0     O17424   6.618   7.923   8.473 -0.1281  0.5128  0.4601
  127MOL0     C17425   6.722   7.978   8.395  0.3534 -0.6065 -0.2312
  127MOL0     C17426   6.802   7.863   8.336  0.1349  0.0287 -0.5372
  127MOL0     C17427   6.914   7.921   8.237 -0.8371 -0.1752 -0.6853
  127MOL0     C17428   6.996   7.810   8.177  0.0509  0.2721 -0.2602
  127MOL0     C17429   7.124   7.868   8.113 -0.0104  1.0418 -0.4253
  127MOL0     C17430   7.090   7.938   7.979  0.0183 -0.0166 -0.7663
  127MOL0     C17431   7.213   7.940   7.888  0.3624 -0.4562  0.4243
  127MOL0     C17432   7.317   8.044   7.930 -1.1042 -0.3839 -1.1291
  127MOL0    Cl17433   7.456   8.062   7.812  0.5351  0.1333 -0.4463
  127MOL0     C17434   6.533   8.158   8.497  0.2042  0.4092  0.9297
  127MOL0     C17435   6.430   8.235   8.547 -0.2239  0.6203  0.0116
  127MOL0     O17436   6.082   8.218   8.469  0.0094 -0.0011  0.2050
  127MOL0     C17437   5.857   8.277   8.632 -1.0060 -1.0856 -0.0832
  127MOL0     C17438   5.751   8.340   8.690  0.3923 -0.3704 -0.1385
  127MOL0     N17439   5.487   8.814   9.392  0.1223  0.2517 -0.8820
  127MOL0     N17440   5.443   8.837   9.511  0.0316 -0.1235  0.0567
  127MOL0     C17441   5.484   8.917  10.671 -0.8630  0.5125  0.4978
  127MOL0     C17442   5.537   8.914  10.798  0.0573  1.0922 -0.6777
  127MOL0     C17443   5.557   8.758  11.214 -0.2042  0.3540  0.1851
  127MOL0     C17444   5.640   8.640  11.232  0.2393 -0.3629  1.6516
  127MOL0     C17445   5.688   8.591  11.351 -0.3402  0.4984 -0.4834
  127MOL0     C17446   5.657   8.654  11.471  1.0859  0.0276 -0.3054
  127MOL0     O17447   5.705   8.587  11.583 -0.9975 -0.5905 -0.2781
  127MOL0     C17448   5.622   8.579  11.699 -0.5471  0.8236  0.3753
  127MOL0     C17449   5.646   8.453  11.782 -0.1977  0.1359  0.3525
  127MOL0     C17450   5.591   8.317  11.728  0.3401 -0.5447 -0.0304
  127MOL0     C17451   5.558   8.211  11.840  0.5279 -0.8048  0.5084
  127MOL0     C17452   5.549   8.074  11.775  0.5893 -0.4035 -0.1646
  127MOL0     C17453   5.537   7.963  11.733 -0.1173 -0.5815  0.2235
  127MOL0     C17454   5.580   8.773  11.461 -0.3604  0.8170 -0.1985
  127MOL0     C17455   5.520   8.815  11.340  0.0372 -0.1371  0.0185
  127MOL0     C17456   5.441   8.943  11.348 -0.8431 -0.3420 -0.1455
  127MOL0     H17457   5.267   9.047  10.953  2.5035  3.6381  2.3039
  127MOL0     H17458   5.206   9.089  10.713  0.1766 -1.0700 -3.2076
  127MOL0     H17459   5.512   8.980  10.410 -1.3158 -3.4590  1.6585
  127MOL0     H17460   5.454   9.145  10.444 -1.1817  0.4580 -0.4963
  127MOL0     H17461   5.263   9.090  10.280  0.5019  2.0884  1.9479
  127MOL0     H17462   5.441   9.076  10.217  1.9306 -1.8199  0.9377
  127MOL0     H17463   5.444   8.864  10.196  0.9807  4.6985 -3.1658
  127MOL0     H17464   5.296   8.828  10.294 -1.0388  0.0884 -0.4674
  127MOL0     H17465   5.165   8.943  10.109  0.3042 -1.4630  1.0063
  127MOL0     H17466   5.304   8.976  10.020 -1.9629  1.2843 -0.3184
  127MOL0     H17467   5.214   8.692  10.098  0.9285  1.7639  1.6789
  127MOL0     H17468   5.360   8.720  10.011  0.4775 -0.6740 -0.9347
  127MOL0     H17469   5.140   8.662   9.888  1.1959 -0.9800 -1.7413
  127MOL0     H17470   5.114   8.828   9.879 -0.9663 -2.5220 -1.9660
  127MOL0     H17471   5.374   8.705   9.761  3.5821  3.2419 -1.3082
  127MOL0     H17472   5.339   8.879   9.780  0.8168 -0.4763 -1.9035
  127MOL0     H17473   5.177   8.681   9.629  2.0904 -1.4175 -0.0664
  127MOL0     H17474   5.147   8.855   9.633 -0.1507  0.2033 -1.7804
  127MOL0     H17475   5.197   8.668   9.385  0.9080  0.1882  0.7874
  127MOL0     H17476   5.381   8.826   9.123  1.9018 -1.5071 -2.9726
  127MOL0     H17477   5.312   8.666   9.137 -2.4700  2.8090 -2.0568
  127MOL0     H17478   5.609   8.717   9.156 -0.6776 -0.3399  2.7182
  127MOL0     H17479   5.530   8.565   9.188  0.4630 -1.6446 -2.6363
  127MOL0     H17480   5.450   8.526   8.968  1.6341 -2.5920  0.7890
  127MOL0     H17481   5.469   8.699   8.929  0.7283  1.0872  2.3791
  127MOL0     H17482   5.689   8.678   8.899 -2.0451 -0.4231 -3.0854
  127MOL0     H17483   5.722   8.540   8.999 -0.6408  0.0453  0.1849
  127MOL0     H17484   5.892   8.632   8.827  0.1790  1.3078 -0.6764
  127MOL0     H17485   6.108   8.624   8.665 -0.5755  0.0110  0.1510
  127MOL0     H17486   6.204   8.480   8.662  1.1965  1.7074  0.4628
  127MOL0     H17487   6.151   8.529   8.824  3.3592  3.2190 -0.0993
  127MOL0     H17488   6.202   8.004   8.657 -1.0810  1.0232  0.0955
  127MOL0     H17489   6.395   7.850   8.586 -1.8406  1.3511  1.8644
  127MOL0     H17490   6.685   8.046   8.318  1.7145  1.9489  1.2612
  127MOL0     H17491   6.790   8.037   8.457 -1.9093  1.2992  0.5828
  127MOL0     H17492   6.837   7.790   8.409  0.5397  2.6422  2.0448
  127MOL0     H17493   6.727   7.805   8.281  0.1451 -2.6448  2.0500
  127MOL0     H17494   6.984   7.975   8.301 -1.2251  0.1442 -0.5283
  127MOL0     H17495   6.876   7.989   8.161  1.7526 -2.7943 -4.7662
  127MOL0     H17496   6.940   7.745   8.110  1.0100 -0.2206 -0.6110
  127MOL0     H17497   7.032   7.746   8.258 -0.7173 -0.9541 -0.8586
  127MOL0     H17498   7.176   7.938   8.178  0.1751  0.1765  0.3733
  127MOL0     H17499   7.195   7.785   8.103 -2.1077 -1.1981  1.7071
  127MOL0     H17500   7.054   8.040   7.998 -2.8856 -0.9214 -0.8900
  127MOL0     H17501   6.996   7.896   7.941 -2.4463  0.1004  4.3019
  127MOL0     H17502   7.187   7.956   7.783  0.8541 -0.3434  0.3179
  127MOL0     H17503   7.248   7.838   7.871  0.3817 -0.3452 -0.2454
  127MOL0     H17504   7.368   8.003   8.018 -0.0673 -1.0590 -2.0133
  127MOL0     H17505   7.276   8.145   7.939 -0.7272 -0.2419 -1.0079
  127MOL0     H17506   6.613   8.213   8.450 -2.0267  3.5255  0.5000
  127MOL0     H17507   6.450   8.341   8.535 -1.2940  0.7331 -0.9376
  127MOL0     H17508   5.842   8.182   8.582  0.6031 -1.0321 -0.7227
  127MOL0     H17509   5.653   8.296   8.672 -0.4971  0.1098  2.9314
  127MOL0     H17510   5.536   8.876  10.585 -2.0951  4.2571 -2.2940
  127MOL0     H17511   5.625   8.851  10.812 -1.8348 -2.3297 -2.6963
  127MOL0     H17512   5.670   8.586  11.142 -0.0049  1.7996  0.1957
  127MOL0     H17513   5.763   8.513  11.339 -1.7405 -0.8023 -1.0740
  127MOL0     H17514   5.643   8.669  11.758 -0.1768  3.3361 -3.2463
  127MOL0     H17515   5.519   8.586  11.664 -0.2026  1.5858 -0.5283
  127MOL0     H17516   5.590   8.481  11.871 -3.7573  0.9646 -1.9339
  127MOL0     H17517   5.749   8.429  11.809  0.2271 -2.0557 -2.7086
  127MOL0     H17518   5.498   8.344  11.678  0.5281 -2.6147 -1.6173
  127MOL0     H17519   5.662   8.266  11.662  0.1390 -2.9726  1.4928
  127MOL0     H17520   5.470   8.237  11.901 -0.1046  1.2300 -1.1461
  127MOL0     H17521   5.643   8.215  11.908 -0.1092 -1.7319  1.3937
  127MOL0     H17522   5.519   7.863  11.698 -1.3949 -1.0875  2.1854
  127MOL0     H17523   5.552   8.832  11.549 -2.0977  1.8319 -1.3613
  127MOL0     H17524   5.342   8.948  11.395  1.0410 -0.5425  4.2880
  127MOL0     H17525   5.503   9.008  11.410 -0.8954 -1.1373  0.7710
  127MOL0     H17526   5.423   8.983  11.247 -0.2938  1.1115  0.3076
  128MOL0     O17527  11.432   7.365   1.071 -0.1540  0.1399  0.0268
  128MOL0     C17528  11.440   7.263   0.999 -0.5619 -0.5672 -0.3932
  128MOL0     O17529  11.472   7.271   0.862  1.0207 -0.3454 -0.0166
  128MOL0     C17530  11.442   7.390   0.798  0.2469  0.5410  0.0528
  128MOL0     C17531  11.520   7.503   0.812 -0.2638  0.3377 -0.7674
  128MOL0     C17532  11.489   7.615   0.736 -0.6225 -0.0367 -0.3234
  128MOL0     C17533  11.364   7.628   0.676  1.0944  0.7931 -0.9053
  128MOL0     O17534  11.316   7.749   0.615  0.3752 -0.0495  0.6526
  128MOL0     C17535  11.384   7.871   0.622 -0.0203  0.6190 -0.0678
  128MOL0     C17536  11.392   7.917   0.485  0.3724 -0.6048 -0.0595
  128MOL0     C17537  11.512   8.024   0.483 -0.0400  0.4350  0.4644
  128MOL0     C17538  11.557   8.054   0.337 -0.6988  0.1377  0.1420
  128MOL0     C17539  11.627   8.193   0.329 -0.5893  0.4463  0.5857
  128MOL0     C17540  11.543   8.315   0.360 -0.2993  0.2456 -0.8524
  128MOL0     C17541  11.635   8.428   0.357  0.7030  0.4256 -0.3149
  128MOL0     C17542  11.572   8.566   0.355 -0.1155 -0.0681  0.0031
  128MOL0     N17543  11.507   8.605   0.228  0.4934  0.4816  0.4161
  128MOL0     C17544  11.366   8.588   0.201  0.0970 -0.4260 -0.9142
  128MOL0     C17545  11.358   8.607   0.064 -0.3383  0.0577 -1.2923
  128MOL0     C17546  11.231   8.596  -0.023 -0.3097 -0.0978 -0.5953
  128MOL0     C17547  11.152   8.724   0.005  0.7011  0.6410  0.3807
  128MOL0     C17548  11.227   8.853  -0.009 -0.5781 -0.4076  0.2329
  128MOL0     C17549  11.143   8.979  -0.023  0.5034  0.6034  0.1682
  128MOL0     O17550  11.215   9.103  -0.046  0.3927  0.0898  0.5255
  128MOL0     C17551  11.133   9.202  -0.010 -0.5997  0.1965  0.6542
  128MOL0     C17552  11.070   9.274  -0.111  0.2915 -0.4202  0.0699
  128MOL0     C17553  10.995   9.388  -0.084 -0.1119 -0.4285 -0.1475
  128MOL0     C17554  10.927   9.450  -0.197 -0.1743 -0.3307 -0.2357
  128MOL0     C17555  10.977   9.430   0.051  0.2952  0.2857 -0.2782
  128MOL0     C17556  10.914   9.556   0.100 -0.5334  0.8122 -0.7901
  128MOL0     O17557  10.932   9.588   0.244  0.8555  0.7178 -0.3468
  128MOL0     C17558  10.919   9.714   0.295  0.9770 -0.4159  0.2629
  128MOL0     C17559  10.894   9.732   0.436  0.1240  0.0648 -0.1169
  128MOL0     C17560  10.831   9.842   0.496  0.1392 -0.1046 -0.0750
  128MOL0     C17561  10.808   9.955   0.404  0.5156 -0.7953  0.2017
  128MOL0     O17562  10.724  10.057   0.428 -0.3444 -0.2439 -0.1164
  128MOL0     C17563  10.714  10.123   0.557  0.5518 -0.0862  0.3290
  128MOL0     C17564  10.847  10.202   0.589  1.3133 -0.5244  1.5815
  128MOL0     C17565  10.863  10.223   0.736  0.4416  0.3691 -0.1065
  128MOL0     C17566  10.739  10.298   0.805  0.3990 -0.1514 -0.1000
  128MOL0     C17567  10.751  10.294   0.957 -0.4087 -0.2300 -0.0504
  128MOL0     C17568  10.730  10.163   1.035 -0.0828  0.1112  0.2977
  128MOL0     C17569  10.812  10.156   1.162 -0.4568  0.1602  0.0345
  128MOL0     C17570  10.751  10.080   1.277 -0.3891 -0.1566  0.5893
  128MOL0    Cl17571  10.603  10.145   1.334  0.4406  0.1974 -0.0392
  128MOL0     C17572  10.866   9.953   0.268 -1.0528 -0.7340 -0.9051
  128MOL0     C17573  10.912   9.831   0.216 -0.1782 -0.2597  0.0105
  128MOL0     O17574  10.827   9.608   0.028  0.8551 -0.2662 -0.3080
  128MOL0     C17575  11.032   9.348   0.158 -0.0245 -0.6838 -0.0840
  128MOL0     C17576  11.116   9.240   0.128 -0.0054  0.7026 -0.2542
  128MOL0     N17577  11.485   8.632   0.013 -0.7132 -0.5051  0.8317
  128MOL0     N17578  11.571   8.627   0.113  0.1171  0.2412 -0.4814
  128MOL0     C17579  11.274   7.517   0.672  0.1664  0.3968  0.7983
  128MOL0     C17580  11.314   7.397   0.739  0.7248 -0.3698 -0.3390
  128MOL0     C17581  11.431   7.129   1.060  0.3016 -0.5319 -0.0280
  128MOL0     C17582  11.379   7.026   0.977 -0.0937  0.8976  0.9208
  128MOL0     C17583  11.368   6.895   1.025 -0.2088 -0.5564  0.3492
  128MOL0     C17584  11.406   6.857   1.154 -0.3533 -0.2801 -0.4616
  128MOL0     O17585  11.414   6.723   1.194 -0.5502  0.5391  0.5776
  128MOL0     C17586  11.287   6.647   1.192  0.5826  0.2406 -1.0738
  128MOL0     C17587  11.292   6.497   1.184 -1.1683  0.0481  0.0614
  128MOL0     C17588  11.340   6.434   1.320 -0.4111 -0.6267  0.4632
  128MOL0     C17589  11.290   6.292   1.334 -0.1329  1.1172  0.5640
  128MOL0     C17590  11.145   6.290   1.328 -0.6051 -0.0668 -0.2469
  128MOL0     C17591  11.026   6.285   1.313  0.1427  0.2822 -0.1747
  128MOL0     C17592  11.449   6.965   1.232 -0.2523 -0.3264 -0.4180
  128MOL0     C17593  11.464   7.098   1.191 -0.4769  0.3748  0.0801
  128MOL0     C17594  11.528   7.189   1.292  0.1942 -1.1837 -0.4053
  128MOL0     H17595  11.617   7.494   0.859  0.1000 -0.1809 -1.5818
  128MOL0     H17596  11.559   7.698   0.742 -0.9349  0.1035  2.1627
  128MOL0     H17597  11.483   7.858   0.668  0.1561  0.6769 -0.4180
  128MOL0     H17598  11.330   7.950   0.673  1.1446  1.3736  0.0264
  128MOL0     H17599  11.399   7.842   0.406  1.6969 -0.8575  0.2718
  128MOL0     H17600  11.294   7.960   0.463  1.4264  2.7499  1.1786
  128MOL0     H17601  11.471   8.109   0.537 -0.3924  0.0116  0.8668
  128MOL0     H17602  11.607   7.992   0.526  1.2619 -1.4481 -3.3397
  128MOL0     H17603  11.611   7.968   0.296  1.1005  1.7415 -1.0375
  128MOL0     H17604  11.466   8.056   0.277 -0.4836 -0.8085 -0.2329
  128MOL0     H17605  11.659   8.208   0.225  1.1186 -0.2984  0.9691
  128MOL0     H17606  11.709   8.185   0.401  1.6931 -0.0402 -1.9205
  128MOL0     H17607  11.474   8.333   0.277  1.1308  2.6194 -1.6138
  128MOL0     H17608  11.499   8.317   0.460  3.0243  3.1717  0.7530
  128MOL0     H17609  11.703   8.421   0.271 -1.2067  0.5908 -1.9034
  128MOL0     H17610  11.700   8.430   0.445  0.8541 -1.7558 -0.3122
  128MOL0     H17611  11.492   8.577   0.429  0.9820  1.5326  1.0270
  128MOL0     H17612  11.649   8.639   0.385 -0.8553  1.6211 -1.9515
  128MOL0     H17613  11.277   8.575   0.262  0.4459  0.0120 -0.2944
  128MOL0     H17614  11.167   8.512   0.003 -0.7383  0.4523  0.1674
  128MOL0     H17615  11.260   8.585  -0.128  1.8064 -0.3599 -0.0457
  128MOL0     H17616  11.075   8.712  -0.071  1.3377 -2.8329  0.1200
  128MOL0     H17617  11.093   8.716   0.096  0.4538 -4.3544  0.0644
  128MOL0     H17618  11.283   8.856   0.085 -2.8385 -0.1427  1.6301
  128MOL0     H17619  11.301   8.843  -0.090 -0.9606  1.9882 -0.4841
  128MOL0     H17620  11.065   8.965  -0.099  0.4544  1.1844  0.1059
  128MOL0     H17621  11.093   8.997   0.073  0.3923  2.4109 -0.1808
  128MOL0     H17622  11.079   9.235  -0.212 -0.2908  1.3816 -0.7069
  128MOL0     H17623  10.819   9.432  -0.203 -1.0276  3.3803  0.9398
  128MOL0     H17624  10.968   9.416  -0.292 -1.2985 -1.0244 -0.4878
  128MOL0     H17625  10.940   9.558  -0.181 -0.2580 -0.5420  1.4288
  128MOL0     H17626  10.925   9.652   0.502 -2.8305 -3.7444 -2.8528
  128MOL0     H17627  10.810   9.843   0.602 -2.1471 -4.1422 -0.3030
  128MOL0     H17628  10.624  10.186   0.563 -2.1092 -3.5060 -0.3391
  128MOL0     H17629  10.702  10.031   0.614  0.5803  0.2021  0.8015
  128MOL0     H17630  10.927  10.135   0.556  0.6342 -1.6544  2.1620
  128MOL0     H17631  10.849  10.295   0.532  0.5667 -1.8455 -0.7479
  128MOL0     H17632  10.958  10.271   0.760 -0.1669  1.2618  0.6134
  128MOL0     H17633  10.864  10.121   0.777 -3.9991  0.8139  1.6874
  128MOL0     H17634  10.642  10.250   0.787 -1.0679  1.7640  2.0397
  128MOL0     H17635  10.734  10.402   0.771 -3.0061  0.6195  2.1994
  128MOL0     H17636  10.853  10.331   0.969 -0.8600  0.6558  1.1860
  128MOL0     H17637  10.683  10.368   0.999  2.4383  1.2764  2.2694
  128MOL0     H17638  10.745  10.072   0.976  0.9539  0.2565  0.3037
  128MOL0     H17639  10.623  10.161   1.057  0.0988  1.0933  1.3701
  128MOL0     H17640  10.836  10.260   1.187 -1.1010  0.4213 -0.4078
  128MOL0     H17641  10.898  10.094   1.137 -1.9677 -2.6371  1.2746
  128MOL0     H17642  10.826  10.081   1.357 -0.1175  0.2746  0.3388
  128MOL0     H17643  10.739   9.982   1.231  0.2284  0.6322 -1.3687
  128MOL0     H17644  10.857  10.040   0.205  0.1806  1.8105  2.1765
  128MOL0     H17645  10.947   9.825   0.114 -0.4305  0.2130 -0.1070
  128MOL0     H17646  11.025   9.376   0.262  2.7202 -2.1910  0.5954
  128MOL0     H17647  11.156   9.179   0.209 -0.5552  0.8404  0.1269
  128MOL0     H17648  11.180   7.536   0.621  0.0719  3.1360  1.8064
  128MOL0     H17649  11.256   7.306   0.745  0.9686 -0.4303  1.3002
  128MOL0     H17650  11.346   7.028   0.874  3.9490  0.1532 -0.5661
  128MOL0     H17651  11.339   6.828   0.945  2.1998 -1.9703  0.5387
  128MOL0     H17652  11.242   6.657   1.292  1.1722 -0.6746 -0.7039
  128MOL0     H17653  11.220   6.691   1.118  1.5755  3.3998 -0.2287
  128MOL0     H17654  11.373   6.477   1.113 -1.8492 -0.8326 -0.4873
  128MOL0     H17655  11.192   6.465   1.154 -1.0598  0.9431 -1.3282
  128MOL0     H17656  11.448   6.446   1.331 -0.4426  1.0109 -0.7142
  128MOL0     H17657  11.300   6.494   1.402  1.6885 -0.7736  1.6575
  128MOL0     H17658  11.329   6.251   1.428 -1.7514  1.5103  1.4279
  128MOL0     H17659  11.332   6.227   1.257  3.9450  1.7712  1.9770
  128MOL0     H17660  10.919   6.288   1.309  0.0219 -2.4860 -3.1554
  128MOL0     H17661  11.477   6.946   1.335 -2.0500 -0.8719  0.0067
  128MOL0     H17662  11.576   7.278   1.250  0.0897 -0.9391 -0.0157
  128MOL0     H17663  11.454   7.224   1.364  1.6165  3.4591 -0.9285
  128MOL0     H17664  11.608   7.140   1.350  0.7821 -1.9699 -1.8206
  129MOL0     O17665   8.168   7.848   9.820 -0.2997  0.1004  0.1401
  129MOL0     C17666   8.268   7.862   9.885 -1.1513  0.7875  0.7102
  129MOL0     O17667   8.287   7.944   9.986  0.3246 -0.4050  0.3035
  129MOL0     C17668   8.172   7.991  10.048 -0.1254 -0.2608 -0.3308
  129MOL0     C17669   8.128   8.123  10.021 -0.1713 -0.0625 -0.6443
  129MOL0     C17670   8.002   8.155  10.049  0.3751  0.6062  1.6394
  129MOL0     C17671   7.919   8.057  10.111  0.3835 -0.5045 -0.4312
  129MOL0     O17672   7.794   8.106  10.151 -0.2006 -0.4227 -0.2627
  129MOL0     C17673   7.685   8.012  10.169 -0.8014  0.9884 -0.3128
  129MOL0     C17674   7.551   8.076  10.198 -0.1590 -0.3504  0.0566
  129MOL0     C17675   7.556   8.106  10.345  0.4811 -0.4460 -0.1504
  129MOL0     C17676   7.412   8.150  10.384 -0.7365  0.7175 -0.4709
  129MOL0     C17677   7.421   8.185  10.530  0.1214 -0.1066  0.2343
  129MOL0     C17678   7.318   8.284  10.580 -0.0825  0.3194 -1.3944
  129MOL0     C17679   7.165   8.254  10.541 -1.0012  0.5462 -0.5639
  129MOL0     C17680   7.063   8.330  10.630 -0.4932  1.1980  0.0907
  129MOL0     N17681   7.076   8.475  10.610 -1.0816 -0.5557 -0.7722
  129MOL0     C17682   7.105   8.550  10.500 -0.6497  0.0062 -0.5640
  129MOL0     C17683   7.087   8.680  10.539 -0.3898  1.2883  1.2426
  129MOL0     C17684   7.084   8.807  10.448 -1.0563 -0.4817 -0.2022
  129MOL0     C17685   7.234   8.843  10.406 -0.1154  0.2381 -0.4352
  129MOL0     C17686   7.252   8.983  10.347  0.1030  0.5820 -0.0014
  129MOL0     C17687   7.398   8.992  10.295 -0.6786  0.4776  0.3237
  129MOL0     O17688   7.404   9.068  10.171 -0.1555  0.1162 -0.4074
  129MOL0     C17689   7.423   9.200  10.175  0.4509  0.7430  0.0646
  129MOL0     C17690   7.392   9.269  10.058 -0.5489  0.0583 -0.8583
  129MOL0     C17691   7.419   9.410  10.043  0.6108 -0.2038  0.1436
  129MOL0     C17692   7.354   9.473   9.926  0.1010 -0.4170  0.4603
  129MOL0     C17693   7.483   9.479  10.147  0.1600 -0.3661 -0.3766
  129MOL0     C17694   7.526   9.630  10.146  0.0897  0.1636 -0.5297
  129MOL0     O17695   7.548   9.694  10.025  0.1899  0.8959 -0.0170
  129MOL0     C17696   7.571   9.828  10.042 -1.0737 -0.3082 -0.0990
  129MOL0     C17697   7.705   9.861  10.071 -1.2884 -0.2341  0.0171
  129MOL0     C17698   7.736   9.989  10.121 -0.4517  0.4451  0.4144
  129MOL0     C17699   7.636  10.090  10.115  0.0676  0.4261 -0.2982
  129MOL0     O17700   7.646  10.214  10.167 -0.2483  0.2858 -0.2629
  129MOL0     C17701   7.781  10.272  10.177  0.6661  0.5167  0.2073
  129MOL0     C17702   7.762  10.423  10.185  0.6611  0.4888 -0.2035
  129MOL0     C17703   7.727  10.472  10.329  0.1292 -0.0292 -0.2847
  129MOL0     C17704   7.606  10.548  10.319 -0.3922  0.2412 -0.2395
  129MOL0     C17705   7.584  10.629  10.444  1.2251  0.0108 -0.2489
  129MOL0     C17706   7.454  10.703  10.431  0.0398  0.5004 -0.5864
  129MOL0     C17707   7.412  10.777  10.557  0.2238 -0.6066 -0.0344
  129MOL0     C17708   7.334  10.895  10.516  0.7614  0.2563  0.4098
  129MOL0    Cl17709   7.432  11.022  10.442  0.2503  0.2390  0.1319
  129MOL0     C17710   7.508  10.065  10.077 -0.6200 -0.0100  0.0172
  129MOL0     C17711   7.476   9.930  10.037 -0.2205  0.1374  0.3218
  129MOL0     O17712   7.534   9.690  10.254 -0.4455 -0.3118 -0.1231
  129MOL0     C17713   7.503   9.403  10.268  0.2888  1.0823  0.0297
  129MOL0     C17714   7.484   9.267  10.284  0.0353 -0.2345 -1.3888
  129MOL0     N17715   7.053   8.684  10.672 -0.3696  0.0506 -0.7704
  129MOL0     N17716   7.042   8.564  10.712  0.2871 -0.0455  0.1825
  129MOL0     C17717   7.963   7.931  10.127  0.6932  0.0047 -0.8215
  129MOL0     C17718   8.100   7.897  10.101  1.6128  0.7517 -0.4091
  129MOL0     C17719   8.404   7.808   9.825  0.1206  0.3177  0.0331
  129MOL0     C17720   8.516   7.884   9.830  0.6621 -0.9972  0.2280
  129MOL0     C17721   8.641   7.852   9.779 -0.7496 -0.0070 -0.7886
  129MOL0     C17722   8.656   7.736   9.705  0.6102  0.0787 -0.8042
  129MOL0     O17723   8.775   7.690   9.670 -0.1444 -0.0025 -0.0038
  129MOL0     C17724   8.893   7.743   9.725 -1.0544 -0.1337  0.6503
  129MOL0     C17725   9.014   7.658   9.691 -0.3108  0.3092 -1.2883
  129MOL0     C17726   9.008   7.538   9.784  0.2843  0.1814 -0.3126
  129MOL0     C17727   9.147   7.473   9.793 -0.3951  0.4188 -0.6127
  129MOL0     C17728   9.173   7.373   9.688  0.2676  0.4493  0.1252
  129MOL0     C17729   9.205   7.292   9.602 -0.4826 -0.2350  0.3930
  129MOL0     C17730   8.545   7.647   9.688  0.1013 -0.3898 -1.5728
  129MOL0     C17731   8.419   7.690   9.745  0.5582  0.6157  0.3280
  129MOL0     C17732   8.305   7.593   9.718  0.2047  0.3149 -0.4796
  129MOL0     H17733   8.201   8.195   9.986 -0.5748  0.4762 -0.3892
  129MOL0     H17734   7.976   8.261  10.050 -0.8810  0.3586  4.5247
  129MOL0     H17735   7.715   7.940  10.245 -1.8735  0.1843 -0.6406
  129MOL0     H17736   7.666   7.944  10.086 -0.0761  0.0354  0.2820
  129MOL0     H17737   7.538   8.160  10.129  1.7022 -0.0379  0.0179
  129MOL0     H17738   7.466   8.009  10.183 -2.6524  2.3370  1.0934
  129MOL0     H17739   7.575   8.010  10.393  0.3599 -0.4015 -0.0137
  129MOL0     H17740   7.625   8.189  10.363 -0.2585  1.1221 -3.6793
  129MOL0     H17741   7.395   8.235  10.317 -0.1277  0.7539 -0.5830
  129MOL0     H17742   7.344   8.066  10.367  1.2291 -0.5977 -2.4450
  129MOL0     H17743   7.520   8.230  10.542 -0.0793  0.0008  1.6165
  129MOL0     H17744   7.404   8.092  10.586 -1.9436  0.2897  0.3540
  129MOL0     H17745   7.333   8.291  10.688  2.0096  0.0101 -1.6237
  129MOL0     H17746   7.340   8.380  10.534  1.9009 -0.6651 -2.6494
  129MOL0     H17747   7.138   8.152  10.570 -0.3686  0.8086  1.0332
  129MOL0     H17748   7.148   8.272  10.435 -1.9229  2.1579 -0.1848
  129MOL0     H17749   6.961   8.311  10.598 -1.5791  0.6002  3.4984
  129MOL0     H17750   7.065   8.306  10.736 -1.4738  1.5310  0.1878
  129MOL0     H17751   7.116   8.509  10.400 -4.1531 -1.7499 -0.3472
  129MOL0     H17752   7.042   8.884  10.513 -0.3239 -0.8514  0.7396
  129MOL0     H17753   7.023   8.788  10.359  0.2152 -4.0736 -0.4675
  129MOL0     H17754   7.309   8.824  10.484  0.0429  0.2956 -0.5744
  129MOL0     H17755   7.265   8.780  10.323  0.5720  0.6309 -0.4810
  129MOL0     H17756   7.170   8.993  10.276  0.8904 -0.2843 -1.0642
  129MOL0     H17757   7.246   9.059  10.426  1.4017 -0.4043  1.0932
  129MOL0     H17758   7.471   9.020  10.371  0.9986 -0.2280 -0.9776
  129MOL0     H17759   7.436   8.896  10.260 -1.7546 -1.0656  3.0522
  129MOL0     H17760   7.336   9.213   9.983 -3.6185 -0.4563  1.5821
  129MOL0     H17761   7.300   9.563   9.956 -0.1455  0.0791 -1.3799
  129MOL0     H17762   7.293   9.399   9.872 -2.9275  1.0252  1.6566
  129MOL0     H17763   7.437   9.512   9.867 -0.0763 -0.2442  0.3224
  129MOL0     H17764   7.789   9.792  10.066  2.0925  3.4497  1.4138
  129MOL0     H17765   7.831  10.019  10.165  0.0675  0.2646 -0.5512
  129MOL0     H17766   7.849  10.231  10.252  3.2936 -0.4547 -2.4766
  129MOL0     H17767   7.842  10.249  10.089 -1.6997 -0.2307 -1.3316
  129MOL0     H17768   7.856  10.469  10.152  0.4070  2.0144  1.0866
  129MOL0     H17769   7.689  10.450  10.107  0.4423  1.0428  0.1851
  129MOL0     H17770   7.814  10.524  10.369 -0.4935  0.6152  0.2732
  129MOL0     H17771   7.699  10.388  10.394 -0.0937  0.4388  0.2287
  129MOL0     H17772   7.518  10.486  10.300  0.5790 -0.8480 -1.3747
  129MOL0     H17773   7.618  10.616  10.234 -3.2410  0.3128 -0.6799
  129MOL0     H17774   7.589  10.564  10.531  0.2465 -0.2440 -0.3611
  129MOL0     H17775   7.667  10.699  10.455  1.9804 -1.1983  2.3913
  129MOL0     H17776   7.370  10.634  10.419  1.6102 -1.7397  0.5938
  129MOL0     H17777   7.459  10.757  10.336  0.4660 -1.2263 -1.5846
  129MOL0     H17778   7.506  10.797  10.609 -0.4008  1.8584  0.2404
  129MOL0     H17779   7.350  10.706  10.613 -1.9833  0.4195 -1.0269
  129MOL0     H17780   7.290  10.926  10.611 -2.2532 -2.4866  0.0861
  129MOL0     H17781   7.251  10.870  10.449  0.7598  3.8621 -1.1532
  129MOL0     H17782   7.458  10.155  10.042  3.6796  2.6660  0.0720
  129MOL0     H17783   7.386   9.904   9.983 -1.0612  0.0121  1.7269
  129MOL0     H17784   7.552   9.446  10.355 -0.1669 -0.1023  0.9101
  129MOL0     H17785   7.518   9.220  10.375  1.8466  3.4134  0.0009
  129MOL0     H17786   7.895   7.852  10.160  1.6569 -1.6536 -2.5807
  129MOL0     H17787   8.115   7.794  10.129 -1.0679 -0.3356 -2.5201
  129MOL0     H17788   8.535   7.979   9.879 -0.4988 -0.0258 -1.1146
  129MOL0     H17789   8.729   7.911   9.802 -0.5929 -0.8041  0.7521
  129MOL0     H17790   8.909   7.835   9.667  1.4231 -0.2145  1.1133
  129MOL0     H17791   8.883   7.751   9.833  2.1710 -1.8529  1.1693
  129MOL0     H17792   9.097   7.722   9.723  0.6198 -1.3542 -0.2373
  129MOL0     H17793   9.021   7.618   9.589  1.1704 -0.5591 -0.8741
  129MOL0     H17794   8.986   7.573   9.885 -0.2309 -0.4078 -0.2200
  129MOL0     H17795   8.930   7.465   9.762 -0.2929  1.3179 -2.3420
  129MOL0     H17796   9.157   7.417   9.886  1.9239  0.6435 -0.6788
  129MOL0     H17797   9.218   7.556   9.803 -1.9305  1.5529  2.2509
  129MOL0     H17798   9.242   7.234   9.520  1.8415  3.8198 -1.7183
  129MOL0     H17799   8.546   7.551   9.636 -0.7036 -0.8354 -0.7816
  129MOL0     H17800   8.240   7.575   9.804 -2.1155  2.4862 -1.6452
  129MOL0     H17801   8.241   7.633   9.639 -0.2239  1.9067  0.6248
  129MOL0     H17802   8.340   7.493   9.689 -0.4411 -0.6993  1.9331
  130MOL0     O17803   4.125   6.663   9.749  0.2478 -0.3971 -1.0261
  130MOL0     C17804   4.242   6.633   9.788  0.4782  0.5218  0.4316
  130MOL0     O17805   4.322   6.712   9.863 -0.2013 -0.1393  0.6335
  130MOL0     C17806   4.282   6.838   9.882  0.2838  0.5434  0.3914
  130MOL0     C17807   4.236   6.874  10.015 -0.7410  0.4297 -0.5197
  130MOL0     C17808   4.209   7.004  10.042  0.8423 -0.2930  0.1331
  130MOL0     C17809   4.223   7.110   9.939  0.3011  0.0805 -0.4953
  130MOL0     O17810   4.189   7.245   9.960 -0.2917 -0.0342  0.4423
  130MOL0     C17811   4.195   7.305  10.087 -0.1053 -0.8371 -0.1366
  130MOL0     C17812   4.177   7.453  10.065  0.3515 -0.8835 -0.5210
  130MOL0     C17813   4.279   7.529   9.979  0.7525 -0.6426  0.3235
  130MOL0     C17814   4.244   7.682   9.975 -0.2700  0.7746 -0.4194
  130MOL0     C17815   4.348   7.745   9.882 -0.3928 -0.8653 -0.2346
  130MOL0     C17816   4.320   7.895   9.881  0.9744 -0.2800  0.3483
  130MOL0     C17817   4.347   7.980   9.998 -0.2490 -0.9470  0.2526
  130MOL0     C17818   4.495   7.981  10.056 -0.1384  0.3167 -0.0389
  130MOL0     N17819   4.579   8.076  10.000 -0.0341  0.0424 -0.8633
  130MOL0     C17820   4.641   8.162  10.080  0.2421 -0.5663  0.3641
  130MOL0     C17821   4.700   8.250  10.002  1.2092  0.4539  0.5564
  130MOL0     C17822   4.799   8.360  10.035  0.8596  0.0248  0.1432
  130MOL0     C17823   4.715   8.489  10.061 -0.1566 -0.1684 -0.4200
  130MOL0     C17824   4.769   8.568  10.192  0.4451 -0.2517 -0.4490
  130MOL0     C17825   4.908   8.624  10.152 -0.0152 -0.2157 -0.6623
  130MOL0     O17826   4.897   8.770  10.142  0.3748  0.4276 -0.0973
  130MOL0     C17827   4.886   8.825  10.267 -0.5539 -0.2341 -0.6115
  130MOL0     C17828   4.761   8.877  10.307  0.2539  1.3903  0.3420
  130MOL0     C17829   4.743   8.920  10.443 -0.2687  0.1816  0.6567
  130MOL0     C17830   4.607   8.979  10.468  0.6575 -1.0213 -0.2107
  130MOL0     C17831   4.851   8.917  10.532 -0.6158 -0.7760  0.2268
  130MOL0     C17832   4.828   8.978  10.665  0.1690  0.0467 -0.5141
  130MOL0     O17833   4.710   8.953  10.731  0.0471  0.3092  0.5906
  130MOL0     C17834   4.673   9.018  10.851  0.1318  0.9502 -0.0184
  130MOL0     C17835   4.638   9.151  10.866 -0.0810  0.0927  0.0934
  130MOL0     C17836   4.596   9.212  10.990 -0.7946  0.2878  1.1616
  130MOL0     C17837   4.599   9.134  11.106 -0.2338  0.4543  0.7482
  130MOL0     O17838   4.536   9.183  11.221  0.2304 -0.5323  0.5060
  130MOL0     C17839   4.584   9.302  11.278  0.0878 -0.3036 -0.3743
  130MOL0     C17840   4.479   9.409  11.289 -0.7849 -1.1514  0.8836
  130MOL0     C17841   4.542   9.549  11.336  1.0422 -0.0084  0.6035
  130MOL0     C17842   4.624   9.526  11.463  0.1684  0.2009  0.4760
  130MOL0     C17843   4.646   9.644  11.542 -0.1874  1.0336  0.1294
  130MOL0     C17844   4.530   9.703  11.625 -0.4156 -0.2900 -0.1418
  130MOL0     C17845   4.568   9.838  11.679  0.3481  0.2261 -0.4038
  130MOL0     C17846   4.543   9.954  11.586 -0.7769  0.4114 -0.8279
  130MOL0    Cl17847   4.592  10.114  11.648  0.0286  0.1067  0.1427
  130MOL0     C17848   4.638   8.999  11.094 -1.1272 -0.1955  0.1057
  130MOL0     C17849   4.684   8.946  10.969  0.0246 -0.0276  0.4276
  130MOL0     O17850   4.918   9.047  10.712  0.5986 -0.2056  0.3325
  130MOL0     C17851   4.981   8.874  10.491  0.1054 -0.5669 -0.4887
  130MOL0     C17852   4.991   8.818  10.366 -0.6867 -0.1456 -0.5738
  130MOL0     N17853   4.650   8.220   9.875  0.0209  0.0126  0.5781
  130MOL0     N17854   4.583   8.111   9.867 -0.2570  0.2914 -0.2476
  130MOL0     C17855   4.273   7.061   9.819  0.2995  0.5502 -0.2526
  130MOL0     C17856   4.300   6.931   9.784 -0.2182  0.9492 -0.0012
  130MOL0     C17857   4.279   6.500   9.735 -0.5826  0.8107 -0.7563
  130MOL0     C17858   4.233   6.460   9.602 -0.0933  0.4658  0.2623
  130MOL0     C17859   4.271   6.338   9.546  0.4300 -0.4345 -0.2332
  130MOL0     C17860   4.363   6.258   9.619 -0.5772  0.6753  0.4210
  130MOL0     O17861   4.406   6.145   9.556  0.3864  0.6832  0.6162
  130MOL0     C17862   4.412   6.024   9.628 -0.1652  0.6213  0.0335
  130MOL0     C17863   4.279   5.966   9.687 -0.7773  0.6878  0.4618
  130MOL0     C17864   4.290   5.824   9.744 -0.6840  0.1170  0.2221
  130MOL0     C17865   4.154   5.780   9.786 -0.0445  0.4935 -0.0907
  130MOL0     C17866   4.154   5.645   9.829 -0.0021  0.0981  0.1403
  130MOL0     C17867   4.165   5.527   9.844  0.0472  0.7037 -0.2863
  130MOL0     C17868   4.400   6.287   9.756  0.5762  0.2985  0.4892
  130MOL0     C17869   4.358   6.408   9.813  0.3657 -0.0095  0.6710
  130MOL0     C17870   4.405   6.456   9.946 -0.2107  0.8338 -0.4866
  130MOL0     H17871   4.221   6.796  10.089 -1.5315  0.6029 -0.4918
  130MOL0     H17872   4.153   7.028  10.133 -0.7213 -0.1093 -0.8358
  130MOL0     H17873   4.280   7.281  10.153 -0.7820 -0.6040  0.8425
  130MOL0     H17874   4.105   7.264  10.133  0.6446 -1.5069  0.8007
  130MOL0     H17875   4.075   7.464  10.027  0.7943  0.5657 -1.3548
  130MOL0     H17876   4.165   7.493  10.166 -3.4306 -1.6943 -0.5057
  130MOL0     H17877   4.376   7.505  10.024  0.9666 -1.4097 -0.5016
  130MOL0     H17878   4.280   7.488   9.877 -1.9738  1.5454 -0.7006
  130MOL0     H17879   4.146   7.684   9.927 -1.8747 -0.0695  2.5736
  130MOL0     H17880   4.234   7.717  10.079  0.8060 -1.6382  0.5821
  130MOL0     H17881   4.331   7.695   9.786  1.4651  2.1263 -2.3050
  130MOL0     H17882   4.454   7.731   9.907  1.1692  3.3862 -3.4096
  130MOL0     H17883   4.390   7.940   9.810  1.2427 -2.8901 -1.1887
  130MOL0     H17884   4.217   7.918   9.852  1.2795  1.8704  0.8364
  130MOL0     H17885   4.268   7.946  10.066 -1.7208  1.1350 -0.3272
  130MOL0     H17886   4.341   8.086   9.972  0.1384 -1.0819 -0.4251
  130MOL0     H17887   4.499   7.974  10.165  0.3618 -0.0827 -0.0837
  130MOL0     H17888   4.541   7.888  10.023  0.8280  1.9898 -4.0203
  130MOL0     H17889   4.644   8.158  10.189 -2.8303 -1.8407  0.5077
  130MOL0     H17890   4.864   8.381   9.949  1.2764  2.3361  0.9437
  130MOL0     H17891   4.844   8.324  10.127 -1.6768 -1.0456  1.0476
  130MOL0     H17892   4.715   8.556   9.974 -2.1802  1.8164  0.9829
  130MOL0     H17893   4.610   8.466  10.083 -0.2647  0.2218 -0.5122
  130MOL0     H17894   4.694   8.646  10.211  0.7512 -0.1491  0.3546
  130MOL0     H17895   4.784   8.495  10.272 -5.7668 -1.5711  0.0639
  130MOL0     H17896   4.969   8.591  10.237  3.4051  0.7442 -2.5539
  130MOL0     H17897   4.961   8.577  10.069 -0.1815 -1.5186 -0.0571
  130MOL0     H17898   4.669   8.888  10.251 -0.1366  0.2253  0.7298
  130MOL0     H17899   4.562   9.014  10.375  1.1021  0.5146  0.1288
  130MOL0     H17900   4.621   9.066  10.533  2.1561 -2.2803  1.2554
  130MOL0     H17901   4.538   8.914  10.523  1.5638 -0.2373  1.9668
  130MOL0     H17902   4.640   9.202  10.771 -0.5860  1.8119  0.9613
  130MOL0     H17903   4.559   9.313  10.994 -2.4592 -0.2984  1.0293
  130MOL0     H17904   4.594   9.273  11.383 -2.0045 -2.1163 -0.6174
  130MOL0     H17905   4.676   9.338  11.231  0.8510  0.8687  1.8524
  130MOL0     H17906   4.441   9.420  11.188 -2.0065 -3.9401  0.9293
  130MOL0     H17907   4.389   9.369  11.337 -1.1440 -0.3930  0.8489
  130MOL0     H17908   4.454   9.613  11.347 -0.6941 -2.1344 -0.1252
  130MOL0     H17909   4.605   9.600  11.263 -1.3842  1.7022 -0.3987
  130MOL0     H17910   4.717   9.484  11.422  0.5201  0.9723  0.4604
  130MOL0     H17911   4.568   9.453  11.522  0.4357 -1.9145 -1.7333
  130MOL0     H17912   4.736   9.633  11.603  0.5919  2.5261 -0.6858
  130MOL0     H17913   4.669   9.710  11.457  5.7002 -0.7701 -0.1078
  130MOL0     H17914   4.512   9.644  11.715 -2.0509  0.1210 -0.1607
  130MOL0     H17915   4.437   9.686  11.571 -1.3242 -1.0274  1.5768
  130MOL0     H17916   4.669   9.848  11.719  0.2485  1.9466 -0.4977
  130MOL0     H17917   4.509   9.851  11.770  1.1275  1.1581 -0.0129
  130MOL0     H17918   4.438   9.969  11.559  0.3551  3.6947 -4.2784
  130MOL0     H17919   4.597   9.930  11.494 -0.1778 -3.4455  0.3503
  130MOL0     H17920   4.653   8.938  11.182 -2.3401  0.7925  1.0463
  130MOL0     H17921   4.714   8.842  10.964 -1.9266 -0.5822 -0.6167
  130MOL0     H17922   5.059   8.886  10.565  0.1566  0.1278 -0.6423
  130MOL0     H17923   5.087   8.782  10.331 -1.8614  0.0171 -4.3852
  130MOL0     H17924   4.293   7.134   9.742  3.3342 -1.3669 -1.4759
  130MOL0     H17925   4.333   6.909   9.683 -3.3759  2.1753 -1.4383
  130MOL0     H17926   4.164   6.529   9.554 -0.0390  0.9008  0.7880
  130MOL0     H17927   4.261   6.316   9.441  2.4946 -0.8590 -0.3937
  130MOL0     H17928   4.447   5.953   9.553 -2.7752 -2.5214  1.5633
  130MOL0     H17929   4.480   6.033   9.714 -0.2045  1.5651 -0.0235
  130MOL0     H17930   4.203   5.957   9.609 -0.2720 -1.5834  0.1542
  130MOL0     H17931   4.230   6.037   9.755 -4.7887 -1.2097 -0.1460
  130MOL0     H17932   4.334   5.768   9.661  2.1524  2.9728 -0.3682
  130MOL0     H17933   4.367   5.820   9.821  3.3330 -2.5055 -3.4582
  130MOL0     H17934   4.090   5.792   9.698 -2.5274  5.1859  1.9600
  130MOL0     H17935   4.114   5.849   9.861 -0.9485  0.1615 -0.2600
  130MOL0     H17936   4.170   5.422   9.868  2.6852  1.0801  1.1761
  130MOL0     H17937   4.457   6.221   9.820 -2.0833 -0.5868  2.0984
  130MOL0     H17938   4.326   6.504  10.006 -2.0390 -1.7880 -0.6423
  130MOL0     H17939   4.441   6.380  10.015 -5.6839 -2.4996 -0.7580
  130MOL0     H17940   4.473   6.541   9.932  0.2696  0.2268 -1.9833
  131MOL0     O17941   6.738   3.608   5.776  0.1947  0.3215  0.6345
  131MOL0     C17942   6.676   3.627   5.882  0.3011  0.0296 -0.0952
  131MOL0     O17943   6.622   3.527   5.965  0.5370 -0.8687 -1.1956
  131MOL0     C17944   6.661   3.400   5.944  0.8046 -0.4565  0.8227
  131MOL0     C17945   6.750   3.338   6.026 -0.3343  0.4611  0.9480
  131MOL0     C17946   6.793   3.205   5.999 -0.7070 -0.6564 -0.3359
  131MOL0     C17947   6.749   3.134   5.890  0.1253 -0.5513 -0.0733
  131MOL0     O17948   6.767   3.001   5.876  0.3374  0.2783 -0.5257
  131MOL0     C17949   6.907   2.975   5.899 -0.2822 -1.3178  0.0193
  131MOL0     C17950   6.937   2.837   5.838  0.2929  0.0418  0.6393
  131MOL0     C17951   7.084   2.812   5.824 -1.0933 -0.3227 -1.1630
  131MOL0     C17952   7.136   2.890   5.702 -0.1716 -0.0193 -0.9424
  131MOL0     C17953   7.274   2.853   5.660  1.0923  0.5115 -0.5970
  131MOL0     C17954   7.281   2.705   5.605  0.3840 -0.4970  1.0827
  131MOL0     C17955   7.400   2.700   5.517  0.9571  0.4481 -0.2400
  131MOL0     C17956   7.539   2.682   5.585 -0.7456 -0.4604 -0.4065
  131MOL0     N17957   7.630   2.644   5.475 -0.2055  0.3458  0.7528
  131MOL0     C17958   7.723   2.544   5.465 -0.7197  0.1424  0.5792
  131MOL0     C17959   7.789   2.563   5.350 -0.5228  0.5677  0.5033
  131MOL0     C17960   7.906   2.490   5.305 -0.5341 -0.9789 -0.1549
  131MOL0     C17961   7.871   2.339   5.284 -0.5517 -0.1297  0.4551
  131MOL0     C17962   7.917   2.251   5.396 -0.1670 -0.4758  0.4361
  131MOL0     C17963   8.072   2.239   5.403  0.5085  0.5612  0.1777
  131MOL0     O17964   8.142   2.362   5.419  0.9160  0.0177  0.3238
  131MOL0     C17965   8.257   2.369   5.490 -0.4057  0.0194  0.2554
  131MOL0     C17966   8.335   2.258   5.536  0.5291  0.4679  0.2688
  131MOL0     C17967   8.462   2.277   5.596 -0.6806 -0.2666  0.4348
  131MOL0     C17968   8.527   2.148   5.656  0.5272  0.2821 -0.0826
  131MOL0     C17969   8.522   2.412   5.612 -0.6264  0.8635 -0.5728
  131MOL0     C17970   8.651   2.432   5.688 -0.6501 -0.4096  0.1398
  131MOL0     O17971   8.730   2.330   5.725  0.6133  0.5304  0.2530
  131MOL0     C17972   8.859   2.340   5.770 -0.2157  0.5078  1.0755
  131MOL0     C17973   8.885   2.285   5.899  0.0138 -1.2835 -0.7711
  131MOL0     C17974   9.019   2.310   5.956  0.6237 -0.3408 -0.2501
  131MOL0     C17975   9.117   2.379   5.880 -0.3185 -0.2726 -0.7847
  131MOL0     O17976   9.251   2.393   5.934 -0.0959  0.1251 -0.4431
  131MOL0     C17977   9.274   2.435   6.065  0.2573 -0.5415  0.6557
  131MOL0     C17978   9.358   2.565   6.070 -0.1799  0.2168 -0.0787
  131MOL0     C17979   9.492   2.549   5.995 -0.1946 -0.0844 -0.2019
  131MOL0     C17980   9.599   2.657   6.025 -0.3800 -1.1781  0.1575
  131MOL0     C17981   9.726   2.657   5.945 -0.3877  0.1511 -0.3857
  131MOL0     C17982   9.861   2.650   6.033  0.0899 -0.0781  0.2688
  131MOL0     C17983   9.873   2.505   6.096 -0.0640  0.4306 -1.2338
  131MOL0     C17984  10.011   2.477   6.145  0.2633  0.7616 -0.1678
  131MOL0    Cl17985  10.139   2.493   6.020 -0.0035  0.4695 -0.2526
  131MOL0     C17986   9.089   2.421   5.746 -0.2455  0.5665 -0.7699
  131MOL0     C17987   8.964   2.393   5.687 -0.0979 -0.0353  0.8790
  131MOL0     O17988   8.681   2.550   5.725  0.2370  0.0527 -0.2320
  131MOL0     C17989   8.452   2.517   5.551 -0.0484 -0.4920 -0.4295
  131MOL0     C17990   8.322   2.493   5.496  0.8094  0.6299  0.2321
  131MOL0     N17991   7.722   2.666   5.285 -0.3137 -0.1389 -1.3497
  131MOL0     N17992   7.638   2.716   5.358 -0.3604 -0.4020 -0.7897
  131MOL0     C17993   6.652   3.194   5.813  0.8504 -0.0956  0.6548
  131MOL0     C17994   6.610   3.331   5.836 -0.2102  0.2624 -0.2885
  131MOL0     C17995   6.649   3.773   5.921 -0.3254 -0.4745  0.9923
  131MOL0     C17996   6.530   3.795   5.987  0.6521 -0.7476  0.3504
  131MOL0     C17997   6.512   3.927   6.021 -0.2416 -0.3430  0.0911
  131MOL0     C17998   6.594   4.034   6.000  0.0089  0.3542  0.3572
  131MOL0     O17999   6.554   4.155   6.034 -0.1998  0.4389 -0.5324
  131MOL0     C18000   6.452   4.217   5.950 -1.6277  0.0256 -0.2605
  131MOL0     C18001   6.401   4.357   6.009 -0.6804  0.3740 -0.0903
  131MOL0     C18002   6.295   4.331   6.128  0.1544 -0.3354  0.3267
  131MOL0     C18003   6.253   4.454   6.196  0.2508  0.0902 -0.0075
  131MOL0     C18004   6.169   4.415   6.310 -0.1491 -0.3247 -0.0535
  131MOL0     C18005   6.083   4.399   6.399 -0.2314  0.6984  0.4252
  131MOL0     C18006   6.717   4.013   5.943 -0.9827  0.8045  0.0534
  131MOL0     C18007   6.744   3.881   5.895  0.8703 -0.1329 -0.4873
  131MOL0     C18008   6.882   3.861   5.843  0.9813 -0.4861  0.1338
  131MOL0     H18009   6.788   3.387   6.115  1.0236  1.0989  0.0573
  131MOL0     H18010   6.849   3.155   6.077  0.5599 -1.5957 -1.7943
  131MOL0     H18011   6.925   2.968   6.007  0.9666  3.0432  0.2787
  131MOL0     H18012   6.982   3.045   5.862  2.9153 -3.2277  2.2943
  131MOL0     H18013   6.896   2.752   5.893 -2.0932  1.1502  0.6610
  131MOL0     H18014   6.886   2.830   5.742  1.2159 -1.3851  0.2020
  131MOL0     H18015   7.138   2.831   5.918 -0.7683 -0.4172 -1.3282
  131MOL0     H18016   7.103   2.706   5.806  1.2830  0.0486 -1.1356
  131MOL0     H18017   7.075   2.870   5.614  0.2750  3.3718 -2.1381
  131MOL0     H18018   7.136   2.999   5.709  3.7293  0.1380 -1.3127
  131MOL0     H18019   7.344   2.863   5.743  1.7171  1.3983 -1.2085
  131MOL0     H18020   7.309   2.925   5.585 -1.5223  1.1877 -1.2702
  131MOL0     H18021   7.279   2.625   5.681  2.0507  1.1540  3.0016
  131MOL0     H18022   7.194   2.696   5.540  1.9231  0.4505 -1.2395
  131MOL0     H18023   7.404   2.793   5.459  2.3334  0.9397  0.5825
  131MOL0     H18024   7.391   2.613   5.451  0.6728 -2.0437  2.8622
  131MOL0     H18025   7.568   2.782   5.621 -1.2755 -0.4647  0.0578
  131MOL0     H18026   7.545   2.613   5.670  3.3405  0.1838  0.0401
  131MOL0     H18027   7.723   2.474   5.547 -3.7916  3.0213  3.3164
  131MOL0     H18028   7.989   2.514   5.372 -0.6735  4.3184 -1.4889
  131MOL0     H18029   7.939   2.538   5.212 -2.8431  1.7534  0.3185
  131MOL0     H18030   7.768   2.323   5.251 -0.6173  1.0481  0.0169
  131MOL0     H18031   7.919   2.296   5.196 -3.9152 -1.5187 -0.8442
  131MOL0     H18032   7.883   2.301   5.487 -0.6820  1.9019 -0.9902
  131MOL0     H18033   7.862   2.157   5.408  0.4733 -0.7719  1.1213
  131MOL0     H18034   8.090   2.187   5.497  1.2896  0.7057  0.1187
  131MOL0     H18035   8.108   2.191   5.311 -2.2030  1.2587 -1.3643
  131MOL0     H18036   8.298   2.156   5.534  1.0689  0.1099  3.2719
  131MOL0     H18037   8.527   2.152   5.765  0.4697 -1.4500 -0.0021
  131MOL0     H18038   8.631   2.133   5.625  2.0522  2.7371  3.2023
  131MOL0     H18039   8.466   2.058   5.647 -2.1753  1.6745  2.6359
  131MOL0     H18040   8.808   2.228   5.951  0.0344 -2.4096 -1.9073
  131MOL0     H18041   9.043   2.292   6.060  0.5317  0.8144 -0.0181
  131MOL0     H18042   9.186   2.447   6.128  0.7693 -3.8923  2.2483
  131MOL0     H18043   9.328   2.349   6.105  0.5027 -0.0682  1.3502
  131MOL0     H18044   9.306   2.648   6.020  3.3676  0.6578 -3.4346
  131MOL0     H18045   9.374   2.598   6.173 -2.2522  1.8346 -0.1924
  131MOL0     H18046   9.472   2.551   5.887  1.4045 -2.5337 -0.6218
  131MOL0     H18047   9.536   2.450   6.010  1.5567  0.8076  0.8879
  131MOL0     H18048   9.626   2.660   6.131 -2.7379 -0.0408  0.7912
  131MOL0     H18049   9.551   2.751   5.996 -1.8069 -2.7570 -3.1095
  131MOL0     H18050   9.723   2.566   5.885 -0.1050  0.0370 -0.2321
  131MOL0     H18051   9.725   2.741   5.875 -2.7070 -0.8157 -1.6001
  131MOL0     H18052   9.860   2.720   6.117 -0.0021 -0.6574  0.7590
  131MOL0     H18053   9.946   2.669   5.967  0.2505  0.8320  0.7273
  131MOL0     H18054   9.853   2.428   6.022  0.3664  0.5998 -1.5363
  131MOL0     H18055   9.800   2.490   6.176  0.4780  0.2674 -0.7554
  131MOL0     H18056  10.009   2.379   6.194 -0.0363  1.2372  0.8095
  131MOL0     H18057  10.029   2.549   6.226  2.0015 -1.1035  1.2063
  131MOL0     H18058   9.174   2.469   5.698 -0.4589  1.3088 -0.4323
  131MOL0     H18059   8.958   2.430   5.585  1.2609  1.4581  1.2906
  131MOL0     H18060   8.496   2.617   5.552 -0.0476 -0.4932  0.2784
  131MOL0     H18061   8.260   2.575   5.462  1.1929  0.3190 -1.2854
  131MOL0     H18062   6.627   3.136   5.725  0.7455  2.2112 -0.9237
  131MOL0     H18063   6.549   3.381   5.761  0.3768  3.7792  1.3373
  131MOL0     H18064   6.457   3.715   5.983  0.3420 -0.4596  0.1664
  131MOL0     H18065   6.422   3.947   6.079  0.6373 -2.8550  2.5824
  131MOL0     H18066   6.502   4.238   5.855 -4.0067  1.4650 -1.3032
  131MOL0     H18067   6.372   4.145   5.930 -1.3050 -0.4867  0.3047
  131MOL0     H18068   6.350   4.412   5.929  0.1605 -1.0137 -1.6467
  131MOL0     H18069   6.488   4.419   6.031 -1.8626  1.9869  0.2633
  131MOL0     H18070   6.213   4.270   6.089 -1.1165  2.0681 -0.9204
  131MOL0     H18071   6.351   4.267   6.197  0.1685 -1.8866 -1.0506
  131MOL0     H18072   6.192   4.514   6.127  0.6175  0.6110  0.1147
  131MOL0     H18073   6.333   4.521   6.228  0.3134 -0.0711  0.1739
  131MOL0     H18074   6.006   4.377   6.469  2.9809  0.0403  4.0811
  131MOL0     H18075   6.798   4.086   5.940 -0.6552  0.4194 -1.1802
  131MOL0     H18076   6.938   3.946   5.884 -1.6494  0.2931  2.3879
  131MOL0     H18077   6.915   3.771   5.894 -2.4948 -1.3680  1.0542
  131MOL0     H18078   6.884   3.853   5.733  0.1944 -0.7866  0.1392
  132MOL0     O18079   6.730   3.685   0.955  0.3907 -0.0232  0.4086
  132MOL0     C18080   6.698   3.574   0.924 -0.1717  0.1649  0.2979
  132MOL0     O18081   6.613   3.527   0.821 -0.2005  0.5301  0.5164
  132MOL0     C18082   6.563   3.622   0.735  0.7180  0.2085 -0.9881
  132MOL0     C18083   6.596   3.598   0.601 -0.5812  0.8050  0.1677
  132MOL0     C18084   6.551   3.693   0.508 -0.7069 -0.3748 -0.1566
  132MOL0     C18085   6.476   3.808   0.548 -0.0912  0.2272  0.2671
  132MOL0     O18086   6.458   3.895   0.438  0.6197 -0.8649 -0.4996
  132MOL0     C18087   6.378   4.008   0.456 -0.0334 -0.2639  0.4361
  132MOL0     C18088   6.438   4.122   0.542 -0.2745  1.4876 -0.1193
  132MOL0     C18089   6.556   4.194   0.468  0.0108 -0.1301 -0.5447
  132MOL0     C18090   6.585   4.323   0.542  1.3217  0.3573  0.3975
  132MOL0     C18091   6.734   4.353   0.557  0.2019  0.6956 -0.1075
  132MOL0     C18092   6.769   4.478   0.622 -0.8998 -0.9933  0.8392
  132MOL0     C18093   6.921   4.488   0.646 -0.4471 -0.0332  0.3928
  132MOL0     C18094   6.988   4.513   0.512 -0.1086  0.3358  0.4986
  132MOL0     N18095   7.022   4.656   0.486  0.8198  0.6652 -1.4048
  132MOL0     C18096   7.129   4.722   0.522 -0.4539 -0.4320 -0.3321
  132MOL0     C18097   7.131   4.847   0.477  0.6895  1.0098  0.4659
  132MOL0     C18098   7.233   4.956   0.512 -0.6561  1.2440  0.8121
  132MOL0     C18099   7.179   5.062   0.609 -0.1116 -0.3570  0.2403
  132MOL0     C18100   7.247   5.204   0.601 -0.3083  0.3588 -0.3318
  132MOL0     C18101   7.215   5.288   0.730 -0.1822  0.7076 -0.4471
  132MOL0     O18102   7.074   5.332   0.732  0.0927  0.1702  0.0114
  132MOL0     C18103   7.038   5.427   0.832  0.6956 -0.5856 -0.2414
  132MOL0     C18104   7.096   5.436   0.958  0.3365 -0.9783  0.3517
  132MOL0     C18105   7.057   5.530   1.064  0.3918  0.8230  1.0403
  132MOL0     C18106   7.141   5.534   1.187  0.2204  0.6319 -0.5348
  132MOL0     C18107   6.943   5.606   1.046 -0.4527 -0.3435 -0.4156
  132MOL0     C18108   6.885   5.689   1.146  0.2597  0.4581  0.7714
  132MOL0     O18109   6.827   5.802   1.097 -0.3909 -0.3167 -0.0722
  132MOL0     C18110   6.850   5.915   1.175  0.7244  0.3404 -0.6015
  132MOL0     C18111   6.968   5.948   1.244  0.3492  0.0132 -0.5995
  132MOL0     C18112   6.974   6.068   1.324  0.4043  0.4312  0.6127
  132MOL0     C18113   6.857   6.147   1.341 -0.0827 -0.4261  0.1200
  132MOL0     O18114   6.862   6.264   1.411 -0.4155 -0.2832  0.2250
  132MOL0     C18115   6.964   6.347   1.356  0.5586 -0.6158 -0.4306
  132MOL0     C18116   7.089   6.361   1.450 -0.6603 -0.3338  0.1744
  132MOL0     C18117   7.069   6.351   1.596  1.0238  0.0707 -1.8242
  132MOL0     C18118   7.201   6.379   1.674  0.0028 -0.0533 -0.3984
  132MOL0     C18119   7.179   6.393   1.827  0.8120 -0.0814  0.2217
  132MOL0     C18120   7.312   6.399   1.897 -0.6567 -0.4778 -1.5708
  132MOL0     C18121   7.404   6.518   1.859  0.1395  0.6899 -0.2939
  132MOL0     C18122   7.346   6.656   1.900 -0.5024 -0.0932 -0.4430
  132MOL0    Cl18123   7.422   6.770   1.803  0.3678  0.2671 -0.3542
  132MOL0     C18124   6.739   6.115   1.261 -0.2715  0.7085 -0.1314
  132MOL0     C18125   6.739   5.994   1.185  0.7817  0.4042  0.2233
  132MOL0     O18126   6.882   5.652   1.257  0.4267 -0.6140 -0.3561
  132MOL0     C18127   6.882   5.609   0.920 -0.9553 -0.1333  0.7502
  132MOL0     C18128   6.924   5.517   0.819 -0.1008  0.2714  1.2642
  132MOL0     N18129   7.011   4.861   0.412 -0.4187  0.4106 -0.4410
  132MOL0     N18130   6.939   4.741   0.417 -0.3448 -0.2333 -0.0963
  132MOL0     C18131   6.428   3.816   0.680 -0.0901  0.1360  0.4122
  132MOL0     C18132   6.473   3.728   0.779  0.1951  0.1383  0.5860
  132MOL0     C18133   6.715   3.463   1.032 -0.9963 -0.6366  0.5793
  132MOL0     C18134   6.781   3.489   1.152  0.0230 -0.0622  0.9427
  132MOL0     C18135   6.791   3.409   1.260  0.4931 -0.4970 -0.3258
  132MOL0     C18136   6.754   3.283   1.256  0.7977 -0.0211 -0.4113
  132MOL0     O18137   6.759   3.186   1.357 -0.5746 -0.1824  0.8058
  132MOL0     C18138   6.892   3.140   1.366 -0.1271 -0.0159 -0.2238
  132MOL0     C18139   6.886   3.015   1.469 -0.3585  0.0168 -0.3201
  132MOL0     C18140   6.811   2.884   1.434  0.7828 -1.2109  0.3985
  132MOL0     C18141   6.859   2.808   1.310 -0.2262  0.4726  0.0330
  132MOL0     C18142   6.739   2.736   1.270 -1.0650 -0.3402  0.0614
  132MOL0     C18143   6.657   2.656   1.233  1.3114  0.0217  0.8321
  132MOL0     C18144   6.690   3.243   1.134  0.6858 -0.5553  1.0900
  132MOL0     C18145   6.666   3.331   1.019 -0.2851 -0.0505  0.4392
  132MOL0     C18146   6.580   3.265   0.912 -0.1009 -0.2156 -0.1972
  132MOL0     H18147   6.646   3.512   0.558 -2.4693 -0.7126  0.8689
  132MOL0     H18148   6.572   3.681   0.402  0.6432  3.0342 -0.4060
  132MOL0     H18149   6.281   3.977   0.498 -0.5925  0.5561 -0.2071
  132MOL0     H18150   6.355   4.052   0.358 -3.0228  0.8446  1.5086
  132MOL0     H18151   6.358   4.194   0.560 -3.2474 -1.9257  1.5518
  132MOL0     H18152   6.466   4.094   0.644 -1.7226  1.4804  0.2937
  132MOL0     H18153   6.645   4.131   0.469  0.8860  1.0671 -0.9394
  132MOL0     H18154   6.533   4.211   0.362  0.2337 -3.6534 -1.2976
  132MOL0     H18155   6.553   4.410   0.484  1.4615  0.5781  0.6539
  132MOL0     H18156   6.529   4.327   0.636 -0.4454  0.6156 -0.6203
  132MOL0     H18157   6.764   4.357   0.452  2.4610  6.5807  0.3934
  132MOL0     H18158   6.778   4.264   0.603  1.9664  0.5584 -1.9657
  132MOL0     H18159   6.736   4.563   0.560  0.8627  1.2564  2.7843
  132MOL0     H18160   6.719   4.479   0.719  0.8601 -0.4591  1.7724
  132MOL0     H18161   6.954   4.391   0.686 -2.1426 -0.4796  0.8314
  132MOL0     H18162   6.955   4.568   0.712 -1.0545 -1.4273  2.5345
  132MOL0     H18163   7.079   4.455   0.495  1.5201  2.2349  2.1784
  132MOL0     H18164   6.916   4.483   0.436 -0.7600 -1.2988  1.7028
  132MOL0     H18165   7.208   4.676   0.582  0.3162 -2.6607 -2.8940
  132MOL0     H18166   7.267   5.003   0.419 -1.6822  0.6314  0.1008
  132MOL0     H18167   7.324   4.917   0.558  0.3317  2.6245  0.1138
  132MOL0     H18168   7.075   5.085   0.587 -0.0853  1.0016  1.3412
  132MOL0     H18169   7.187   5.022   0.711 -1.0932  1.1306  0.9313
  132MOL0     H18170   7.351   5.198   0.568  0.1302  0.2199  1.0407
  132MOL0     H18171   7.204   5.267   0.523 -0.2841 -0.0636 -0.6890
  132MOL0     H18172   7.250   5.238   0.820 -0.2002  0.3573 -0.6349
  132MOL0     H18173   7.280   5.376   0.731 -1.6920  1.8720 -0.0021
  132MOL0     H18174   7.176   5.367   0.983  1.9453  0.5883 -0.2717
  132MOL0     H18175   7.132   5.629   1.239 -0.2613  0.0791  0.4195
  132MOL0     H18176   7.246   5.523   1.157 -0.8462 -2.3853 -3.9372
  132MOL0     H18177   7.120   5.439   1.238 -0.3551  0.1914 -1.5479
  132MOL0     H18178   7.061   5.893   1.238  0.6062  0.4240 -0.4046
  132MOL0     H18179   7.065   6.080   1.382 -0.0428  0.1529  1.3783
  132MOL0     H18180   6.985   6.322   1.252 -0.3350 -2.2574 -0.2462
  132MOL0     H18181   6.926   6.449   1.348  0.4301 -0.7542 -1.8278
  132MOL0     H18182   7.150   6.274   1.424  1.0861  0.8514  0.1220
  132MOL0     H18183   7.139   6.454   1.423 -2.2469  0.5128 -0.0004
  132MOL0     H18184   7.040   6.250   1.626 -1.5713  0.5935 -2.3424
  132MOL0     H18185   6.989   6.415   1.636  0.4409 -0.3045 -2.3653
  132MOL0     H18186   7.237   6.474   1.634  0.0764 -0.1684 -0.6085
  132MOL0     H18187   7.281   6.310   1.646  1.1379  1.5894 -1.3587
  132MOL0     H18188   7.110   6.478   1.832  1.4684  0.4586  0.2390
  132MOL0     H18189   7.128   6.309   1.876 -1.8369  1.0513 -0.4602
  132MOL0     H18190   7.367   6.310   1.865  0.1156 -0.3887 -0.5436
  132MOL0     H18191   7.293   6.398   2.004 -1.0745 -2.4272 -1.6270
  132MOL0     H18192   7.413   6.516   1.750  1.8687  0.1074 -0.1811
  132MOL0     H18193   7.503   6.500   1.903 -0.6747  2.3835  2.5360
  132MOL0     H18194   7.358   6.673   2.007  4.4100  1.3088 -0.9836
  132MOL0     H18195   7.238   6.655   1.883 -0.6056 -4.8441 -0.9863
  132MOL0     H18196   6.655   6.182   1.249 -0.8175  0.7125  2.9177
  132MOL0     H18197   6.645   5.968   1.137  0.3263  0.4600  1.0648
  132MOL0     H18198   6.797   5.669   0.888  0.5200  0.0516 -3.4279
  132MOL0     H18199   6.877   5.515   0.721  1.5029 -1.7009  0.4797
  132MOL0     H18200   6.366   3.900   0.710  0.4388  0.7062 -0.0624
  132MOL0     H18201   6.444   3.731   0.883 -1.0120 -1.1897  0.3129
  132MOL0     H18202   6.828   3.586   1.159  0.0100 -0.1033  1.6089
  132MOL0     H18203   6.834   3.438   1.356 -0.1032 -3.6881  1.0359
  132MOL0     H18204   6.923   3.107   1.266  0.1678 -0.5456  0.0411
  132MOL0     H18205   6.952   3.224   1.404 -2.3942  1.2086  0.8466
  132MOL0     H18206   6.859   3.055   1.567  1.3442  3.0384 -0.9507
  132MOL0     H18207   6.992   2.991   1.483 -0.0972  0.0382 -2.0410
  132MOL0     H18208   6.802   2.816   1.518  0.0735 -0.7833  0.6751
  132MOL0     H18209   6.710   2.920   1.412  1.9755  1.0772 -1.9828
  132MOL0     H18210   6.947   2.751   1.341  0.1294  1.7280  1.4793
  132MOL0     H18211   6.899   2.871   1.230  2.9936 -1.4570 -0.0551
  132MOL0     H18212   6.575   2.590   1.217  0.6277  1.4188 -2.0525
  132MOL0     H18213   6.665   3.139   1.115  1.3398 -0.3140 -1.4219
  132MOL0     H18214   6.557   3.159   0.926  0.5638 -0.3049  0.2333
  132MOL0     H18215   6.486   3.320   0.899  0.4365  0.6497 -0.4596
  132MOL0     H18216   6.638   3.276   0.820  2.0823 -2.4427  0.8121
  133MOL0     O18217   3.402   9.864   1.531  1.0468 -0.6640 -1.0065
  133MOL0     C18218   3.301   9.913   1.490 -0.5377  1.4465 -0.2091
  133MOL0     O18219   3.191   9.842   1.449  0.3199 -0.0420  0.7319
  133MOL0     C18220   3.158   9.720   1.495 -0.4760  0.8557 -0.2664
  133MOL0     C18221   3.180   9.674   1.624 -0.3631  0.6770  0.5777
  133MOL0     C18222   3.138   9.551   1.666 -0.1334 -0.0268  0.3159
  133MOL0     C18223   3.068   9.473   1.573 -0.1473  0.1763 -0.8033
  133MOL0     O18224   3.008   9.354   1.603  0.0177  0.0363  0.4638
  133MOL0     C18225   3.095   9.248   1.643  0.6223  0.8886 -0.7111
  133MOL0     C18226   3.056   9.111   1.578 -0.8817 -0.1691  0.9437
  133MOL0     C18227   2.909   9.070   1.619  0.1058 -0.8709  0.1639
  133MOL0     C18228   2.878   8.930   1.557  1.3207 -0.4885  0.1819
  133MOL0     C18229   2.726   8.882   1.586  0.1219 -0.7933 -0.4555
  133MOL0     C18230   2.613   8.936   1.500 -0.0024 -0.8486 -0.1993
  133MOL0     C18231   2.473   8.891   1.550 -0.0815 -0.5098  1.0293
  133MOL0     C18232   2.430   8.745   1.522 -0.1593  0.5765 -0.2630
  133MOL0     N18233   2.283   8.748   1.542 -0.7012 -0.4006  0.0308
  133MOL0     C18234   2.197   8.722   1.439 -0.8767 -0.2620  0.2272
  133MOL0     C18235   2.077   8.724   1.498  1.5481 -0.3490  0.6462
  133MOL0     C18236   1.950   8.696   1.423  0.4264  0.2538 -0.8922
  133MOL0     C18237   1.912   8.797   1.320  0.0980  0.2930  0.1989
  133MOL0     C18238   1.855   8.748   1.186 -0.7023  0.4344 -0.7079
  133MOL0     C18239   1.960   8.728   1.082  0.8550 -0.7865 -0.8250
  133MOL0     O18240   1.915   8.628   0.986  0.2972 -0.5547 -0.5022
  133MOL0     C18241   2.006   8.561   0.913 -0.0209 -0.3296  0.2691
  133MOL0     C18242   1.953   8.465   0.827  0.7410  0.0225 -0.2390
  133MOL0     C18243   2.030   8.378   0.749 -0.4726 -0.6792  0.1216
  133MOL0     C18244   1.953   8.280   0.669  0.0167  0.5020  0.0481
  133MOL0     C18245   2.171   8.385   0.757 -0.7930  0.1924 -0.8708
  133MOL0     C18246   2.262   8.292   0.690  0.4113 -0.0542  0.5797
  133MOL0     O18247   2.397   8.303   0.725 -0.9775  0.7779  0.4613
  133MOL0     C18248   2.481   8.195   0.686 -0.0129 -0.0947 -0.3260
  133MOL0     C18249   2.530   8.103   0.782  0.3957  0.6190  0.7765
  133MOL0     C18250   2.635   8.020   0.740 -0.7072  0.2427  0.0027
  133MOL0     C18251   2.695   8.025   0.612  0.3973 -0.4319 -1.0263
  133MOL0     O18252   2.789   7.922   0.584 -0.1134  0.6299  0.1143
  133MOL0     C18253   2.880   7.926   0.475  0.8928 -0.0845 -0.8791
  133MOL0     C18254   2.961   8.068   0.476  0.2195 -0.4176  0.1576
  133MOL0     C18255   3.011   8.100   0.329 -0.2539  0.6090  0.3944
  133MOL0     C18256   3.140   8.168   0.337 -0.6277  0.4883  0.3507
  133MOL0     C18257   3.199   8.178   0.196  0.0522 -0.3065  0.5221
  133MOL0     C18258   3.157   8.315   0.124  0.6264 -0.1119  0.0321
  133MOL0     C18259   3.273   8.376   0.030  1.4363  0.7538  1.0018
  133MOL0     C18260   3.215   8.494  -0.063 -0.9070 -0.2708 -0.2613
  133MOL0    Cl18261   3.134   8.426  -0.205  0.3548 -0.2392  0.0237
  133MOL0     C18262   2.643   8.114   0.518 -0.1552 -0.2934  0.1459
  133MOL0     C18263   2.536   8.195   0.553  0.3077 -0.6085 -0.6304
  133MOL0     O18264   2.213   8.220   0.607  0.2367 -0.1382  0.1014
  133MOL0     C18265   2.229   8.482   0.843  0.6233  0.0042 -0.4006
  133MOL0     C18266   2.150   8.566   0.921 -1.1998 -0.1465 -0.0243
  133MOL0     N18267   2.085   8.728   1.630  0.6522 -0.6279 -0.6385
  133MOL0     N18268   2.211   8.739   1.659 -0.6051 -0.5422  0.1605
  133MOL0     C18269   3.058   9.519   1.446 -0.7695  0.2715 -0.4480
  133MOL0     C18270   3.103   9.638   1.399 -0.0257  0.4595  0.9880
  133MOL0     C18271   3.298  10.069   1.484 -0.7706 -0.2921  0.0142
  133MOL0     C18272   3.422  10.137   1.495 -0.5311 -0.3115 -0.0070
  133MOL0     C18273   3.438  10.274   1.461 -0.5984  0.2884 -0.0363
  133MOL0     C18274   3.325  10.336   1.398 -0.3586  0.1922  0.1399
  133MOL0     O18275   3.316  10.465   1.359 -0.2773  0.1194  0.5701
  133MOL0     C18276   3.421  10.528   1.296 -0.3072 -0.1314  0.6279
  133MOL0     C18277   3.465  10.461   1.173  0.6790  0.4432  0.9285
  133MOL0     C18278   3.363  10.492   1.063  0.5919 -0.0850  0.0965
  133MOL0     C18279   3.431  10.544   0.934 -1.1875 -0.8425 -0.0746
  133MOL0     C18280   3.478  10.681   0.954 -0.1039 -0.6882 -0.4623
  133MOL0     C18281   3.477  10.806   0.961  0.8216  0.7020 -0.7164
  133MOL0     C18282   3.202  10.273   1.393  0.4369  0.5172  0.7489
  133MOL0     C18283   3.185  10.146   1.445 -0.0874  0.4942 -0.3261
  133MOL0     C18284   3.045  10.096   1.435  0.6708 -0.4357 -0.7362
  133MOL0     H18285   3.207   9.742   1.704 -1.2560  0.1629  1.3342
  133MOL0     H18286   3.132   9.524   1.771 -2.3603 -2.3981 -0.3108
  133MOL0     H18287   3.096   9.236   1.752 -0.8799 -0.3771 -0.8165
  133MOL0     H18288   3.195   9.278   1.608 -1.0887  4.1974 -3.4182
  133MOL0     H18289   3.068   9.118   1.469  1.2305 -3.9654  0.7507
  133MOL0     H18290   3.130   9.041   1.615 -0.4151  0.7637  1.8103
  133MOL0     H18291   2.914   9.057   1.727  4.0685 -2.5316 -0.0160
  133MOL0     H18292   2.831   9.140   1.587 -1.2338 -1.3499  2.1856
  133MOL0     H18293   2.897   8.927   1.449 -0.0430 -0.8613 -0.0687
  133MOL0     H18294   2.954   8.864   1.600  1.8891 -0.4376 -0.7056
  133MOL0     H18295   2.702   8.912   1.688 -1.5909  3.0394 -1.7966
  133MOL0     H18296   2.719   8.772   1.589 -1.5302 -0.7181 -0.8960
  133MOL0     H18297   2.612   9.045   1.511  0.7744 -0.9524  1.1620
  133MOL0     H18298   2.631   8.919   1.394  0.6696  0.4923 -0.3179
  133MOL0     H18299   2.400   8.955   1.500 -0.0060 -0.2779  1.2170
  133MOL0     H18300   2.458   8.906   1.657  3.0935  0.8334  1.3985
  133MOL0     H18301   2.463   8.702   1.428  1.4593 -3.3793  1.8740
  133MOL0     H18302   2.471   8.681   1.600  0.8749 -1.8652 -2.6662
  133MOL0     H18303   2.231   8.713   1.336  0.6287  2.6121  0.3530
  133MOL0     H18304   1.868   8.711   1.493  0.7461  1.3933 -0.7501
  133MOL0     H18305   1.952   8.594   1.383 -1.1689 -0.0619 -0.2620
  133MOL0     H18306   1.827   8.858   1.353 -2.7797 -1.0486 -3.8990
  133MOL0     H18307   1.997   8.861   1.299  1.1815 -0.5624  1.7911
  133MOL0     H18308   1.796   8.659   1.210  0.6534  0.0763  1.6124
  133MOL0     H18309   1.785   8.824   1.153 -1.0551  0.5328  0.2291
  133MOL0     H18310   1.970   8.820   1.023 -1.1133  0.6763  0.9740
  133MOL0     H18311   2.060   8.710   1.124  2.5102  1.2474 -3.5427
  133MOL0     H18312   1.846   8.455   0.815  0.5963 -1.5703  1.9007
  133MOL0     H18313   1.950   8.302   0.562  4.1352  3.1026  0.2887
  133MOL0     H18314   1.845   8.290   0.686 -0.4621  0.1437 -2.3704
  133MOL0     H18315   1.992   8.179   0.686  0.3891  0.9002  1.7641
  133MOL0     H18316   2.492   8.104   0.884  1.0582  2.0133  1.0332
  133MOL0     H18317   2.675   7.943   0.805 -1.4416 -0.1316  0.0154
  133MOL0     H18318   2.957   7.848   0.470  1.3608  0.3146 -0.1627
  133MOL0     H18319   2.813   7.912   0.391  0.0130  0.5420 -0.2969
  133MOL0     H18320   2.891   8.146   0.507  0.8534  0.0181  0.4946
  133MOL0     H18321   3.040   8.071   0.552  1.8035  4.6002 -1.3022
  133MOL0     H18322   2.942   8.170   0.280 -0.6529 -1.8216 -2.8246
  133MOL0     H18323   3.016   8.009   0.270 -1.5649  0.1121  1.0021
  133MOL0     H18324   3.211   8.104   0.391 -0.5042  2.2576  2.4440
  133MOL0     H18325   3.143   8.268   0.380 -0.7679  0.4275  0.5037
  133MOL0     H18326   3.306   8.177   0.222 -0.1014  1.5086  1.3281
  133MOL0     H18327   3.180   8.093   0.129  1.3453  0.2758 -0.6153
  133MOL0     H18328   3.123   8.397   0.188  1.8305  0.5437 -0.1383
  133MOL0     H18329   3.067   8.292   0.066  0.9183 -0.2003 -0.3848
  133MOL0     H18330   3.304   8.301  -0.043  1.9305 -0.7813  2.7224
  133MOL0     H18331   3.359   8.416   0.083  0.8830  0.7996  1.8837
  133MOL0     H18332   3.293   8.566  -0.090 -1.9357  0.6964 -0.7152
  133MOL0     H18333   3.136   8.547  -0.010 -2.1904  0.8101 -3.0587
  133MOL0     H18334   2.686   8.132   0.420  0.3255  0.0449  0.4094
  133MOL0     H18335   2.529   8.282   0.488 -1.7081  1.1830  1.7799
  133MOL0     H18336   2.337   8.485   0.849  0.5290  0.3698  2.3023
  133MOL0     H18337   2.209   8.626   0.989  0.1922 -0.4183 -0.9453
  133MOL0     H18338   3.018   9.450   1.372 -1.1058 -0.4482  0.3778
  133MOL0     H18339   3.102   9.664   1.294  0.0710  1.1042  1.1447
  133MOL0     H18340   3.509  10.084   1.531  1.8235  2.0337 -1.8512
  133MOL0     H18341   3.527  10.334   1.471 -0.8901  0.7392 -0.0899
  133MOL0     H18342   3.391  10.629   1.269  1.8900  1.1065  2.5615
  133MOL0     H18343   3.501  10.522   1.370 -2.9143 -2.2645  3.5202
  133MOL0     H18344   3.479  10.355   1.193 -0.5648 -0.3476 -1.9583
  133MOL0     H18345   3.554  10.512   1.135  0.0397  0.3651 -0.7475
  133MOL0     H18346   3.311  10.398   1.045 -1.8370  1.0265  0.8339
  133MOL0     H18347   3.282  10.557   1.098  1.3774  0.5496  0.7588
  133MOL0     H18348   3.357  10.538   0.854  0.0513 -1.1835 -1.2285
  133MOL0     H18349   3.512  10.475   0.907 -3.3450 -3.8851  0.6589
  133MOL0     H18350   3.489  10.912   0.965  0.0451  0.8260  3.3780
  133MOL0     H18351   3.114  10.322   1.353 -1.9675 -4.0247 -0.2729
  133MOL0     H18352   2.985  10.181   1.400  1.5165  0.5011  0.0295
  133MOL0     H18353   3.044  10.018   1.358  1.6946 -3.1076  1.8006
  133MOL0     H18354   3.003  10.060   1.529  3.5881 -3.3924 -0.4060
  134MOL0     O18355  10.614   5.683   6.426  0.1274  0.5318 -0.2253
  134MOL0     C18356  10.724   5.629   6.439 -0.0321  0.1838 -0.1956
  134MOL0     O18357  10.839   5.677   6.377  0.2573  0.6112  0.4486
  134MOL0     C18358  10.828   5.742   6.263 -0.9911  0.7123 -0.3512
  134MOL0     C18359  10.825   5.676   6.143 -1.2196 -0.0990  0.8522
  134MOL0     C18360  10.814   5.744   6.022 -0.0758 -0.5131 -0.0644
  134MOL0     C18361  10.803   5.887   6.017 -0.0959  0.3059  0.8352
  134MOL0     O18362  10.758   5.954   5.903 -0.0960  0.2630 -0.1856
  134MOL0     C18363  10.754   5.882   5.775  0.3796  0.4870 -0.2949
  134MOL0     C18364  10.684   5.970   5.668 -0.5111 -0.2193 -0.1605
  134MOL0     C18365  10.706   5.891   5.544 -0.8286 -0.9881 -0.1069
  134MOL0     C18366  10.621   5.945   5.432 -0.5347  0.1624  0.8410
  134MOL0     C18367  10.582   5.833   5.326 -0.1802  0.5780 -0.0871
  134MOL0     C18368  10.704   5.761   5.267 -0.0887 -0.0724  0.1788
  134MOL0     C18369  10.660   5.680   5.150  0.2220 -0.0520 -0.7046
  134MOL0     C18370  10.774   5.634   5.063  0.0586 -0.6488  0.1694
  134MOL0     N18371  10.824   5.511   5.126 -0.0846 -0.8767  0.2564
  134MOL0     C18372  10.814   5.387   5.063  0.9232 -0.7038  0.9540
  134MOL0     C18373  10.862   5.293   5.146  0.5082  0.6903 -0.5973
  134MOL0     C18374  10.865   5.140   5.121  0.3286  0.7458  0.5104
  134MOL0     C18375  10.997   5.091   5.070  0.1012 -0.4636  0.5856
  134MOL0     C18376  10.999   5.059   4.919 -0.2705 -0.0783 -0.2173
  134MOL0     C18377  11.139   5.044   4.852 -0.3965 -0.9511 -0.9726
  134MOL0     O18378  11.124   5.005   4.720  0.2093  0.9782 -0.3193
  134MOL0     C18379  11.229   4.955   4.651 -0.9242 -0.0452 -0.1682
  134MOL0     C18380  11.361   4.991   4.668 -0.0400  0.9463 -0.2995
  134MOL0     C18381  11.461   4.934   4.588 -1.2240 -0.0034  0.1379
  134MOL0     C18382  11.607   4.966   4.615  0.2695 -0.5651  0.4321
  134MOL0     C18383  11.430   4.845   4.481 -0.0829  0.6034 -0.2783
  134MOL0     C18384  11.526   4.819   4.367 -0.1457  0.1809 -0.4370
  134MOL0     O18385  11.654   4.760   4.383  0.1600 -0.0273 -0.4927
  134MOL0     C18386  11.720   4.729   4.268  0.0861  0.6782  0.1699
  134MOL0     C18387  11.764   4.595   4.258 -0.3053 -0.7439  0.5273
  134MOL0     C18388  11.843   4.556   4.158 -0.0070  0.4404  1.2581
  134MOL0     C18389  11.872   4.634   4.055  0.6593  0.5036  0.8876
  134MOL0     O18390  11.973   4.576   3.974  0.3827 -0.1134  0.5547
  134MOL0     C18391  11.997   4.636   3.850  0.4600  0.1123  0.2201
  134MOL0     C18392  12.121   4.579   3.784 -1.5807  0.0864 -0.2016
  134MOL0     C18393  12.244   4.595   3.877 -0.2637 -0.1346 -0.5299
  134MOL0     C18394  12.364   4.563   3.789 -0.7875  0.6338  0.9675
  134MOL0     C18395  12.470   4.481   3.860  0.0596  1.0257  0.5077
  134MOL0     C18396  12.545   4.560   3.963 -1.1862 -0.2988  0.6133
  134MOL0     C18397  12.648   4.470   4.028 -0.0581  0.6061 -0.3182
  134MOL0     C18398  12.786   4.526   3.997  0.2255  0.2889  0.2551
  134MOL0    Cl18399  12.832   4.523   3.831  1.0928 -0.5547  0.4647
  134MOL0     C18400  11.823   4.769   4.049 -0.2823 -0.2610 -0.6457
  134MOL0     C18401  11.752   4.821   4.169  0.4389  0.6665  0.6704
  134MOL0     O18402  11.476   4.860   4.265  0.1446 -0.1574 -0.2766
  134MOL0     C18403  11.297   4.807   4.462 -0.2993 -0.6281  0.9402
  134MOL0     C18404  11.200   4.863   4.546  0.4176  0.1578  0.9318
  134MOL0     N18405  10.888   5.359   5.268  0.4748  0.6392  0.0509
  134MOL0     N18406  10.876   5.489   5.244 -0.7428  0.2514 -0.7230
  134MOL0     C18407  10.816   5.952   6.137 -0.1819  0.1116 -0.5034
  134MOL0     C18408  10.829   5.877   6.259 -0.5133  1.2833 -0.1145
  134MOL0     C18409  10.733   5.517   6.542 -0.8181  0.2228 -0.8345
  134MOL0     C18410  10.861   5.493   6.601  0.2153  0.5433  0.8543
  134MOL0     C18411  10.882   5.421   6.717  0.3061 -0.9588  0.1001
  134MOL0     C18412  10.770   5.349   6.774 -0.1466 -0.0985 -0.0212
  134MOL0     O18413  10.790   5.276   6.885  0.0748 -0.4394 -0.4245
  134MOL0     C18414  10.688   5.209   6.970 -0.0833  0.2194  0.6716
  134MOL0     C18415  10.717   5.063   6.957  0.2085  1.2404  0.9921
  134MOL0     C18416  10.638   4.988   7.054  0.2722  0.7672  0.3802
  134MOL0     C18417  10.679   4.839   7.051 -0.4155 -0.4322 -0.4230
  134MOL0     C18418  10.626   4.779   7.173  0.2278 -0.6199 -0.1393
  134MOL0     C18419  10.561   4.733   7.267  0.0526  0.3140  0.5031
  134MOL0     C18420  10.646   5.368   6.709 -0.2299  0.3926 -0.6265
  134MOL0     C18421  10.619   5.447   6.599 -0.6520  0.3239 -0.5950
  134MOL0     C18422  10.466   5.452   6.564 -0.6684  0.9786  0.3638
  134MOL0     H18423  10.827   5.568   6.131  1.4142 -0.2645  1.9941
  134MOL0     H18424  10.806   5.682   5.933 -3.0627 -2.3014  1.2718
  134MOL0     H18425  10.685   5.801   5.799  1.5703 -0.4880 -0.0622
  134MOL0     H18426  10.848   5.838   5.743  0.8713  2.8117 -2.3027
  134MOL0     H18427  10.576   5.973   5.685 -0.1254  2.2087  2.7654
  134MOL0     H18428  10.748   6.058   5.657 -1.4870  0.2290 -3.2374
  134MOL0     H18429  10.810   5.906   5.515 -0.7508  2.6458  1.5209
  134MOL0     H18430  10.681   5.787   5.566 -0.5634 -1.3083 -1.2525
  134MOL0     H18431  10.532   5.994   5.473 -0.0059  0.3950  1.7457
  134MOL0     H18432  10.667   6.021   5.368 -2.3550 -2.8115 -4.6541
  134MOL0     H18433  10.518   5.887   5.255 -0.2613  2.3965  1.2733
  134MOL0     H18434  10.524   5.760   5.383  0.9590 -1.0530 -0.9264
  134MOL0     H18435  10.785   5.831   5.242  0.5696 -0.6389  0.6711
  134MOL0     H18436  10.733   5.705   5.356 -1.0794  0.7748  1.0575
  134MOL0     H18437  10.593   5.746   5.093  2.5289  4.0204  0.8777
  134MOL0     H18438  10.598   5.597   5.183  2.2427 -1.0767  0.6766
  134MOL0     H18439  10.736   5.614   4.962  0.5764  0.5238 -0.2680
  134MOL0     H18440  10.849   5.710   5.044  0.8880 -1.5657 -0.3347
  134MOL0     H18441  10.762   5.375   4.969 -2.2864  2.8588  2.0438
  134MOL0     H18442  10.788   5.111   5.048  2.5424 -5.5816  0.0935
  134MOL0     H18443  10.852   5.087   5.216  0.0845 -1.4879 -0.6873
  134MOL0     H18444  11.057   5.181   5.088 -0.2362 -0.5342  2.2355
  134MOL0     H18445  11.038   5.009   5.129 -1.2543 -1.0847  0.6836
  134MOL0     H18446  10.931   4.974   4.904  0.8679 -1.0986  0.2135
  134MOL0     H18447  10.941   5.131   4.861  0.7640  0.4372 -0.6314
  134MOL0     H18448  11.212   5.125   4.860 -0.5417 -0.9577  0.7896
  134MOL0     H18449  11.175   4.970   4.924 -2.8389  1.7049  3.4525
  134MOL0     H18450  11.394   5.055   4.750  1.2328 -0.6369  0.4818
  134MOL0     H18451  11.626   5.016   4.711  2.0806 -2.1589  0.9701
  134MOL0     H18452  11.651   5.033   4.541 -2.0252  0.2638 -0.2786
  134MOL0     H18453  11.654   4.867   4.614  0.8290 -0.3443 -2.2790
  134MOL0     H18454  11.732   4.531   4.339  0.1959 -1.0586  0.4816
  134MOL0     H18455  11.887   4.457   4.163  0.9046  0.6346 -1.1588
  134MOL0     H18456  11.914   4.634   3.779  0.7437  3.5874 -0.3604
  134MOL0     H18457  12.010   4.744   3.861 -3.2037  0.4928  2.3650
  134MOL0     H18458  12.104   4.472   3.766 -2.0569  0.3753 -1.6180
  134MOL0     H18459  12.142   4.639   3.695  0.8774  1.4622  1.2044
  134MOL0     H18460  12.227   4.535   3.967 -0.1423  1.5910  0.6903
  134MOL0     H18461  12.249   4.703   3.889 -0.3695  0.0390 -1.9030
  134MOL0     H18462  12.409   4.648   3.737  0.0930 -0.1956  0.3354
  134MOL0     H18463  12.324   4.497   3.712  2.3141 -0.7534  0.3657
  134MOL0     H18464  12.432   4.388   3.903  0.9358  1.3741  2.0976
  134MOL0     H18465  12.542   4.437   3.789 -2.2128 -3.8378  0.7915
  134MOL0     H18466  12.475   4.587   4.042 -2.9384 -2.2843 -0.1893
  134MOL0     H18467  12.585   4.644   3.905  1.4108 -2.5725 -1.1826
  134MOL0     H18468  12.640   4.366   3.995 -2.9651  0.9671 -1.0217
  134MOL0     H18469  12.638   4.473   4.137 -0.6719  0.9240 -0.3838
  134MOL0     H18470  12.856   4.460   4.050 -0.3570 -1.8921 -1.5224
  134MOL0     H18471  12.801   4.626   4.039  1.2388 -0.5226  1.9334
  134MOL0     H18472  11.851   4.835   3.968  2.8823 -0.1852  0.3743
  134MOL0     H18473  11.723   4.925   4.175  2.5271  1.4732 -1.5041
  134MOL0     H18474  11.259   4.755   4.375 -0.7575 -0.7334  1.1959
  134MOL0     H18475  11.093   4.847   4.539  0.6986 -1.4650 -0.3322
  134MOL0     H18476  10.798   6.058   6.125  1.2173  0.3400 -0.7596
  134MOL0     H18477  10.836   5.934   6.351  0.7438  2.1295 -0.7174
  134MOL0     H18478  10.947   5.543   6.557  1.0183 -1.2616  0.2670
  134MOL0     H18479  10.974   5.412   6.774 -0.4228  4.6573  2.8228
  134MOL0     H18480  10.685   5.237   7.075  1.9639  2.5304  0.2085
  134MOL0     H18481  10.591   5.237   6.927 -0.5616  0.0759  1.6330
  134MOL0     H18482  10.821   5.059   6.991 -0.1523 -3.0672  2.1270
  134MOL0     H18483  10.712   5.017   6.858 -2.7983  2.2413  0.5754
  134MOL0     H18484  10.646   5.026   7.156  0.3550  2.6590 -0.2964
  134MOL0     H18485  10.534   4.993   7.020  0.9153  0.1013 -1.8885
  134MOL0     H18486  10.788   4.829   7.046 -0.3236 -0.2374  0.7481
  134MOL0     H18487  10.629   4.794   6.965 -1.7983 -0.3917  0.3431
  134MOL0     H18488  10.504   4.686   7.345 -1.1593  1.3755  0.3046
  134MOL0     H18489  10.560   5.324   6.759  0.7903 -0.0161  0.8204
  134MOL0     H18490  10.436   5.550   6.602  1.4420  2.3435 -1.2244
  134MOL0     H18491  10.466   5.438   6.455 -1.0162 -4.0689  0.7890
  134MOL0     H18492  10.398   5.378   6.608  0.5766 -0.1775  0.4215
  135MOL0     O18493   4.679   6.557   8.193  0.7198 -0.1594 -0.3036
  135MOL0     C18494   4.742   6.516   8.094 -0.6548  0.2852  0.1995
  135MOL0     O18495   4.778   6.590   7.988 -0.6063 -0.0353  0.0560
  135MOL0     C18496   4.763   6.731   7.988 -0.6981 -0.3419 -0.1622
  135MOL0     C18497   4.712   6.786   7.874 -0.2750 -0.7483 -0.0203
  135MOL0     C18498   4.692   6.927   7.876 -0.5887 -0.1702 -0.7172
  135MOL0     C18499   4.725   7.015   7.978 -0.5617  1.8644 -0.6688
  135MOL0     O18500   4.690   7.144   7.963  1.0443  0.0999  0.5640
  135MOL0     C18501   4.557   7.183   7.941  0.0587 -0.3629  0.4022
  135MOL0     C18502   4.531   7.328   7.986  0.4896  0.3690 -0.9618
  135MOL0     C18503   4.401   7.377   7.930  0.4403  0.6979  0.7180
  135MOL0     C18504   4.281   7.299   7.984  0.4872 -0.4503  0.3864
  135MOL0     C18505   4.143   7.364   7.955 -0.7004 -0.3379 -0.2311
  135MOL0     C18506   4.027   7.289   8.021  0.2694  0.4097 -0.1091
  135MOL0     C18507   3.883   7.335   7.977 -0.1819  0.3789  0.1720
  135MOL0     C18508   3.800   7.248   7.879 -0.5031 -0.0965 -0.6499
  135MOL0     N18509   3.849   7.237   7.740 -0.4227  0.3629 -0.5919
  135MOL0     C18510   3.905   7.120   7.692 -0.2268  0.1388 -0.5600
  135MOL0     C18511   3.975   7.155   7.586 -0.3418 -0.8236  0.4845
  135MOL0     C18512   4.054   7.061   7.491  0.4282 -1.5798 -0.2603
  135MOL0     C18513   4.050   7.105   7.340  0.2080  0.7748 -0.0456
  135MOL0     C18514   4.171   7.187   7.299 -0.2379 -0.5308  0.5495
  135MOL0     C18515   4.165   7.219   7.153 -0.6993  0.3725  0.2001
  135MOL0     O18516   4.062   7.304   7.115  0.2882 -0.3442 -0.2472
  135MOL0     C18517   4.077   7.439   7.127  0.2011 -0.0431 -0.5194
  135MOL0     C18518   4.175   7.519   7.197 -0.0996  0.1033  0.3819
  135MOL0     C18519   4.171   7.657   7.200 -0.0269 -0.2294  0.0724
  135MOL0     C18520   4.285   7.737   7.263 -0.4955  0.1867 -1.2399
  135MOL0     C18521   4.047   7.721   7.135 -1.1617 -0.3685 -0.8717
  135MOL0     C18522   3.998   7.856   7.164 -1.0223  0.0725  0.2769
  135MOL0     O18523   3.872   7.886   7.126 -0.3558 -0.0200 -0.2864
  135MOL0     C18524   3.825   8.011   7.137  0.8024 -0.4585  0.7118
  135MOL0     C18525   3.817   8.075   7.257  0.1298  0.3269 -0.0134
  135MOL0     C18526   3.746   8.197   7.269 -1.1024 -1.0246 -0.0918
  135MOL0     C18527   3.683   8.253   7.162 -0.5056  0.3885  0.4752
  135MOL0     O18528   3.594   8.356   7.180  0.2226 -0.1915 -0.0117
  135MOL0     C18529   3.466   8.314   7.134  0.1781 -0.6785  0.1666
  135MOL0     C18530   3.413   8.395   7.020  0.1068 -0.4478  0.6111
  135MOL0     C18531   3.265   8.381   6.986 -0.1028 -0.2198  0.3853
  135MOL0     C18532   3.176   8.508   6.949  0.4750  1.1721 -0.3361
  135MOL0     C18533   3.038   8.476   6.887  0.0789 -0.9789  0.2842
  135MOL0     C18534   2.972   8.612   6.870  0.3101 -0.0907 -0.6394
  135MOL0     C18535   2.840   8.614   6.786 -0.3124 -0.2871 -0.8537
  135MOL0     C18536   2.771   8.741   6.811 -0.5153  0.2301 -0.5198
  135MOL0    Cl18537   2.604   8.763   6.732 -0.1004 -0.1004  0.3313
  135MOL0     C18538   3.706   8.198   7.038 -1.1719  0.9725  0.1584
  135MOL0     C18539   3.770   8.069   7.025  0.4699 -0.7161  0.1658
  135MOL0     O18540   4.078   7.936   7.215 -0.2375 -0.2953 -0.4036
  135MOL0     C18541   3.959   7.640   7.061  0.5325  0.3094 -0.5715
  135MOL0     C18542   3.977   7.507   7.062  0.5107  0.0541  0.6033
  135MOL0     N18543   3.960   7.290   7.570  0.0149  1.1335  0.2471
  135MOL0     N18544   3.892   7.334   7.660 -0.4462 -0.2078 -0.0699
  135MOL0     C18545   4.789   6.956   8.089  0.0378  0.2908  0.2561
  135MOL0     C18546   4.805   6.816   8.098  0.0864  0.7283  0.1809
  135MOL0     C18547   4.784   6.370   8.073 -0.3533 -0.7587 -0.4494
  135MOL0     C18548   4.869   6.333   7.964 -0.5326  0.3695  0.0971
  135MOL0     C18549   4.901   6.200   7.930  0.0502  0.2451 -0.3759
  135MOL0     C18550   4.848   6.100   8.007  0.1613 -0.5541  0.3752
  135MOL0     O18551   4.884   5.970   7.984  1.0922  0.3162 -0.6722
  135MOL0     C18552   5.021   5.943   7.993  0.3740  0.0273 -0.5050
  135MOL0     C18553   5.055   5.891   8.130 -0.0741  0.5540  0.5564
  135MOL0     C18554   5.000   5.745   8.166 -0.2360  0.3241  0.1188
  135MOL0     C18555   4.857   5.748   8.222 -0.4867  0.3275  0.8750
  135MOL0     C18556   4.820   5.626   8.287  0.3181 -0.1770  1.2479
  135MOL0     C18557   4.793   5.511   8.325  0.0569  0.0848 -0.3926
  135MOL0     C18558   4.769   6.131   8.121 -0.9984  0.0166 -0.4474
  135MOL0     C18559   4.741   6.262   8.163 -0.0820 -0.5964  0.2859
  135MOL0     C18560   4.649   6.275   8.291 -0.0437 -0.4078 -0.1744
  135MOL0     H18561   4.681   6.730   7.786 -4.9197  1.6246 -0.1912
  135MOL0     H18562   4.651   6.977   7.788 -0.0431 -0.8959 -1.4030
  135MOL0     H18563   4.489   7.109   7.986  1.3999 -1.9238 -0.0306
  135MOL0     H18564   4.518   7.176   7.839  4.0707  2.6724 -1.6000
  135MOL0     H18565   4.533   7.343   8.094  0.2756  3.0327 -1.2712
  135MOL0     H18566   4.618   7.380   7.944  1.7071 -0.8581 -0.0581
  135MOL0     H18567   4.389   7.484   7.948 -3.4432  0.7294 -0.9372
  135MOL0     H18568   4.407   7.355   7.823 -1.2547 -0.0727  0.7413
  135MOL0     H18569   4.287   7.198   7.940  0.4369 -0.5214  0.5434
  135MOL0     H18570   4.280   7.293   8.093 -1.3884 -0.0119  0.4267
  135MOL0     H18571   4.138   7.358   7.846  1.1623 -1.1021 -0.3204
  135MOL0     H18572   4.143   7.465   7.995 -2.7628  0.8613 -2.8959
  135MOL0     H18573   4.046   7.183   8.001  0.6013  0.8943 -2.8927
  135MOL0     H18574   4.046   7.310   8.126  1.0271 -0.6649 -0.0200
  135MOL0     H18575   3.881   7.444   7.967  1.8356  0.3251 -1.3042
  135MOL0     H18576   3.824   7.323   8.069  0.2670  1.6685  0.6562
  135MOL0     H18577   3.787   7.143   7.904  3.1288 -0.0839  2.1120
  135MOL0     H18578   3.696   7.282   7.887  0.1006  1.9527 -0.8072
  135MOL0     H18579   3.903   7.018   7.730  0.8644 -1.4681 -4.4030
  135MOL0     H18580   4.021   6.959   7.509  1.2190 -2.2007 -2.0454
  135MOL0     H18581   4.160   7.067   7.518 -0.6918  2.7458  4.8155
  135MOL0     H18582   4.064   7.007   7.293  3.2116  1.0312  0.1118
  135MOL0     H18583   3.952   7.148   7.319  0.9439  2.2902 -0.5176
  135MOL0     H18584   4.170   7.285   7.346  0.1452  0.2873 -1.0710
  135MOL0     H18585   4.268   7.145   7.328  1.9121  2.5708 -1.5394
  135MOL0     H18586   4.265   7.255   7.126  0.3389 -2.9565 -0.9299
  135MOL0     H18587   4.160   7.127   7.093  2.0411  2.8632 -4.4418
  135MOL0     H18588   4.257   7.468   7.248  0.6654 -0.2914 -1.1997
  135MOL0     H18589   4.288   7.705   7.367 -0.3008 -1.3624 -1.6818
  135MOL0     H18590   4.292   7.845   7.249  1.7723  0.1554 -0.7124
  135MOL0     H18591   4.375   7.687   7.224 -1.0153 -2.3808  0.5633
  135MOL0     H18592   3.863   8.031   7.345  1.0014 -2.3836 -1.7297
  135MOL0     H18593   3.738   8.252   7.362 -0.1082  1.7845 -1.5556
  135MOL0     H18594   3.451   8.207   7.119  0.4629 -0.8207  0.8594
  135MOL0     H18595   3.399   8.337   7.217  1.1007 -1.6667  1.2132
  135MOL0     H18596   3.434   8.501   7.033 -1.8987  0.2732 -1.3336
  135MOL0     H18597   3.473   8.367   6.933  1.1360  0.6709  0.9227
  135MOL0     H18598   3.211   8.361   7.079 -2.6680  2.9212 -0.2227
  135MOL0     H18599   3.265   8.296   6.917  2.8622 -0.8924  1.0699
  135MOL0     H18600   3.232   8.558   6.869 -0.2758 -1.2752 -2.5419
  135MOL0     H18601   3.173   8.570   7.039 -0.3353 -0.1419  0.5683
  135MOL0     H18602   3.051   8.424   6.792  1.4079 -0.1037 -0.0497
  135MOL0     H18603   2.983   8.410   6.954  0.7538 -1.3360  0.4901
  135MOL0     H18604   3.045   8.678   6.822  0.0557  1.1405  0.5792
  135MOL0     H18605   2.952   8.649   6.971 -3.1544  1.7801 -1.8630
  135MOL0     H18606   2.792   8.520   6.815  1.3326 -1.2772 -1.1797
  135MOL0     H18607   2.866   8.597   6.681  0.0341  1.8907 -1.1632
  135MOL0     H18608   2.831   8.830   6.787 -1.0060  0.1762 -2.0398
  135MOL0     H18609   2.769   8.752   6.920  0.4882  3.6417 -0.7089
  135MOL0     H18610   3.648   8.245   6.959  0.9949  1.1781 -1.4144
  135MOL0     H18611   3.766   8.009   6.935 -2.3090  0.9058 -0.8920
  135MOL0     H18612   3.874   7.681   7.008  0.1498  0.1252 -0.1068
  135MOL0     H18613   3.908   7.451   7.000 -1.1988  0.4274  2.0955
  135MOL0     H18614   4.806   7.025   8.170  3.8850 -0.7208  0.4974
  135MOL0     H18615   4.842   6.777   8.192  1.0128 -1.5528 -1.0450
  135MOL0     H18616   4.911   6.412   7.903 -1.1420  0.4692 -0.1974
  135MOL0     H18617   4.958   6.173   7.841  0.2753  0.7286 -0.3783
  135MOL0     H18618   5.050   5.868   7.919  0.6614  0.4256 -0.7993
  135MOL0     H18619   5.079   6.032   7.967 -0.8911  1.7655  2.1045
  135MOL0     H18620   5.014   5.966   8.198  0.0466  0.8790  0.2689
  135MOL0     H18621   5.163   5.892   8.150 -0.4652  0.1784  3.1012
  135MOL0     H18622   5.002   5.673   8.084  0.7074 -0.0192  0.4289
  135MOL0     H18623   5.073   5.716   8.242 -2.2326 -0.8032  1.7180
  135MOL0     H18624   4.789   5.764   8.137 -1.3823  4.0697  2.1210
  135MOL0     H18625   4.847   5.835   8.287  3.3432  1.3653  0.3065
  135MOL0     H18626   4.761   5.415   8.359 -0.0526 -0.1638 -1.1688
  135MOL0     H18627   4.739   6.050   8.186 -0.4901 -0.5154 -0.8595
  135MOL0     H18628   4.552   6.229   8.271  0.1132 -0.8261 -0.0025
  135MOL0     H18629   4.683   6.216   8.377 -2.3363  0.3545  1.3457
  135MOL0     H18630   4.622   6.374   8.327 -0.0377 -0.1392 -0.8979
  136MOL0     O18631  10.068  10.605   1.817 -1.1355  0.3208  0.7411
  136MOL0     C18632  10.051  10.578   1.699  0.0481  0.1623  0.2474
  136MOL0     O18633  10.056  10.450   1.653  1.0445  0.3725 -0.4340
  136MOL0     C18634  10.063  10.353   1.747 -0.3182  1.0151  0.3999
  136MOL0     C18635  10.190  10.334   1.807  0.1740 -0.0065  0.4183
  136MOL0     C18636  10.215  10.240   1.906  0.5671  0.4541 -0.0477
  136MOL0     C18637  10.107  10.150   1.938 -0.0867 -0.1359 -0.3374
  136MOL0     O18638  10.117  10.050   2.028 -0.4311 -0.1124 -0.3044
  136MOL0     C18639  10.239  10.051   2.103 -0.1990  0.5546 -0.1300
  136MOL0     C18640  10.214   9.942   2.198 -0.6471  0.5844 -0.2282
  136MOL0     C18641  10.328   9.939   2.295  0.2998  0.3676 -0.2993
  136MOL0     C18642  10.308   9.828   2.386  0.3743 -0.0351 -0.3200
  136MOL0     C18643  10.407   9.833   2.498 -0.8210 -0.3219 -0.1234
  136MOL0     C18644  10.430   9.691   2.543 -0.3707  0.1047 -1.0384
  136MOL0     C18645  10.487   9.667   2.685  0.2850  0.2239  0.0554
  136MOL0     C18646  10.630   9.730   2.705 -0.7329  0.2948 -0.2374
  136MOL0     N18647  10.673   9.737   2.849  0.4784 -0.7935  1.2386
  136MOL0     C18648  10.599   9.789   2.954  0.3852 -0.3670  0.1125
  136MOL0     C18649  10.682   9.757   3.056  0.8616 -0.4661 -0.6350
  136MOL0     C18650  10.653   9.814   3.198 -0.7392 -0.0295  0.0188
  136MOL0     C18651  10.785   9.812   3.271  0.0559 -0.3353 -0.2939
  136MOL0     C18652  10.853   9.946   3.247 -0.3575 -0.2110  0.0753
  136MOL0     C18653  10.890   9.978   3.098 -1.0067 -0.1334  0.2230
  136MOL0     O18654  10.805  10.060   3.021  0.8495 -0.8310 -0.3445
  136MOL0     C18655  10.810  10.061   2.878  0.6607 -0.2122  0.0894
  136MOL0     C18656  10.883   9.971   2.801 -0.5000 -0.0391  0.0085
  136MOL0     C18657  10.889   9.974   2.657 -0.3679  0.0807  0.4083
  136MOL0     C18658  10.989   9.880   2.595  0.0155 -0.2479  1.1598
  136MOL0     C18659  10.814  10.069   2.596  0.2851  0.4904  0.4285
  136MOL0     C18660  10.807  10.099   2.453 -0.0871 -0.1293 -0.1424
  136MOL0     O18661  10.722  10.192   2.406  0.5741 -0.2861 -0.2691
  136MOL0     C18662  10.688  10.186   2.278 -0.4182  0.3500  0.1501
  136MOL0     C18663  10.640  10.071   2.223  0.3953  0.3318 -1.0554
  136MOL0     C18664  10.600  10.064   2.087 -0.6057  0.2882 -0.4934
  136MOL0     C18665  10.636  10.170   1.996 -0.5019 -0.1426 -0.1691
  136MOL0     O18666  10.584  10.170   1.869  0.1593 -0.0381 -0.2587
  136MOL0     C18667  10.580  10.293   1.800 -0.5796 -0.4366  0.7456
  136MOL0     C18668  10.526  10.249   1.659 -0.2041  0.1480 -0.3140
  136MOL0     C18669  10.506  10.374   1.569  0.8881  0.3330 -0.2459
  136MOL0     C18670  10.645  10.424   1.541 -0.5356 -0.8200 -0.2190
  136MOL0     C18671  10.654  10.500   1.409 -0.5473 -0.4368 -0.4447
  136MOL0     C18672  10.799  10.542   1.374 -0.1760 -0.0902  0.4599
  136MOL0     C18673  10.799  10.657   1.270 -1.2414  0.8347  0.2066
  136MOL0     C18674  10.941  10.689   1.209  1.1597 -0.1368  0.3740
  136MOL0    Cl18675  11.076  10.649   1.311 -0.3256  0.1364 -0.5293
  136MOL0     C18676  10.708  10.280   2.051 -0.0883  0.1279  0.1972
  136MOL0     C18677  10.726  10.295   2.195  0.0624  0.8325 -0.8390
  136MOL0     O18678  10.877  10.027   2.378  0.2525 -0.3826 -0.3628
  136MOL0     C18679  10.730  10.140   2.667  0.4040  0.0020 -0.0944
  136MOL0     C18680  10.723  10.141   2.809 -0.0756  0.0604  0.5810
  136MOL0     N18681  10.774   9.667   3.015 -0.0612  0.3173  0.3915
  136MOL0     N18682  10.772   9.666   2.886  0.1846  0.0717 -0.0406
  136MOL0     C18683   9.980  10.162   1.879  0.5122  0.1950  0.7085
  136MOL0     C18684   9.957  10.271   1.787  0.6233 -0.4479 -1.0885
  136MOL0     C18685  10.033  10.688   1.594  0.9109 -0.2073  0.2916
  136MOL0     C18686  10.022  10.649   1.457 -0.5241 -1.2539 -0.4014
  136MOL0     C18687  10.004  10.741   1.345  0.1050 -0.1191 -0.2587
  136MOL0     C18688   9.980  10.879   1.373  0.1932  0.0379  0.0405
  136MOL0     O18689   9.971  10.966   1.274  0.1802  0.3859  0.2232
  136MOL0     C18690  10.092  11.027   1.238  0.4088 -0.2464  0.8131
  136MOL0     C18691  10.100  11.177   1.278 -0.4401 -0.7984  0.5734
  136MOL0     C18692   9.990  11.257   1.214  0.3281  0.4691  0.1434
  136MOL0     C18693  10.017  11.408   1.228  0.2808  0.0479  0.4726
  136MOL0     C18694  10.128  11.465   1.158 -0.4359  0.3975  0.3098
  136MOL0     C18695  10.233  11.521   1.120  0.0932  0.1993  0.5283
  136MOL0     C18696  10.009  10.920   1.507  0.1064 -0.6191 -0.1305
  136MOL0     C18697  10.032  10.826   1.611  0.7598 -0.7715 -0.4595
  136MOL0     C18698  10.045  10.889   1.754  0.3276 -0.7051 -0.7279
  136MOL0     H18699  10.266  10.402   1.770 -0.8396  0.7864 -0.2534
  136MOL0     H18700  10.312  10.229   1.953  1.3533 -1.2171 -1.9518
  136MOL0     H18701  10.264  10.146   2.152 -1.1325  0.1342  1.1916
  136MOL0     H18702  10.318  10.029   2.031  3.1533 -1.1651  3.6961
  136MOL0     H18703  10.121   9.943   2.256 -0.9939 -0.2619 -0.7388
  136MOL0     H18704  10.226   9.846   2.145 -0.1750  0.6609 -0.2643
  136MOL0     H18705  10.421   9.921   2.241  1.4712 -0.7237  1.9141
  136MOL0     H18706  10.341  10.031   2.353 -1.4946  0.8594 -0.6112
  136MOL0     H18707  10.207   9.841   2.426  0.4836  0.1016 -0.0879
  136MOL0     H18708  10.327   9.738   2.325  4.4842  1.0551 -0.9481
  136MOL0     H18709  10.395   9.911   2.574 -0.5462 -1.0127  0.6481
  136MOL0     H18710  10.506   9.855   2.457 -0.8431 -1.6844 -0.9651
  136MOL0     H18711  10.341   9.629   2.532  1.2892 -2.8516  0.7408
  136MOL0     H18712  10.497   9.649   2.467  2.2485  0.3684  0.9842
  136MOL0     H18713  10.500   9.559   2.700  2.3669  0.3435 -0.6026
  136MOL0     H18714  10.414   9.708   2.755 -0.5385 -1.4979  0.2699
  136MOL0     H18715  10.690   9.663   2.643 -1.5149 -0.8875  0.2343
  136MOL0     H18716  10.627   9.835   2.677 -0.5923  0.9588  2.0294
  136MOL0     H18717  10.509   9.849   2.949  0.3422 -0.5171 -1.4553
  136MOL0     H18718  10.578   9.752   3.247  1.0605 -1.9288  0.5208
  136MOL0     H18719  10.623   9.919   3.190  2.9911  1.1318 -0.9922
  136MOL0     H18720  10.762   9.805   3.378 -0.1667 -3.8398 -0.4673
  136MOL0     H18721  10.855   9.733   3.243 -0.2908 -0.9804  0.6006
  136MOL0     H18722  10.790  10.030   3.278  0.4411  1.4044 -2.3866
  136MOL0     H18723  10.951   9.940   3.296  0.1563 -3.6293 -1.0836
  136MOL0     H18724  10.985  10.032   3.097 -2.1606  2.0426  1.2427
  136MOL0     H18725  10.908   9.878   3.057 -2.1414 -1.4377  2.6523
  136MOL0     H18726  10.947   9.899   2.851  1.8390  0.2241 -2.4169
  136MOL0     H18727  11.066   9.840   2.661 -0.4071 -3.2618 -0.0193
  136MOL0     H18728  11.059   9.927   2.524  0.4460  0.3717  1.9717
  136MOL0     H18729  10.940   9.792   2.554  0.5496  0.5689 -1.4397
  136MOL0     H18730  10.609   9.992   2.290  2.2050 -1.0977 -1.8120
  136MOL0     H18731  10.530   9.986   2.056 -1.1168  0.5395  0.0091
  136MOL0     H18732  10.525  10.379   1.839 -0.0983  0.0982  0.2730
  136MOL0     H18733  10.685  10.320   1.781 -1.1881  0.4369 -1.8130
  136MOL0     H18734  10.591  10.177   1.608 -1.5586 -0.2213 -1.5887
  136MOL0     H18735  10.432  10.193   1.668  1.9050 -3.6019  0.7493
  136MOL0     H18736  10.451  10.453   1.620 -1.3453 -0.2045 -1.7035
  136MOL0     H18737  10.460  10.335   1.478  0.4530 -4.1984  1.6275
  136MOL0     H18738  10.726  10.351   1.539 -0.7838 -1.1916  1.6512
  136MOL0     H18739  10.674  10.490   1.622 -1.9168 -0.4939  0.0362
  136MOL0     H18740  10.615  10.440   1.325 -1.1847  2.4889 -2.3906
  136MOL0     H18741  10.597  10.593   1.409  0.2744  0.1080 -2.1686
  136MOL0     H18742  10.841  10.447   1.338 -0.1522  1.0250 -2.7973
  136MOL0     H18743  10.863  10.570   1.459  2.4065 -0.2442 -1.2940
  136MOL0     H18744  10.755  10.743   1.320 -0.1760  1.6648 -0.2575
  136MOL0     H18745  10.726  10.629   1.193 -2.7714  0.0383  1.8896
  136MOL0     H18746  10.942  10.795   1.180 -0.7825  0.4251  2.0847
  136MOL0     H18747  10.953  10.632   1.117 -0.8316 -0.4685  0.2724
  136MOL0     H18748  10.735  10.363   1.986 -0.1503 -0.8051 -1.0585
  136MOL0     H18749  10.764  10.392   2.225 -0.7269  1.6780 -2.4692
  136MOL0     H18750  10.655  10.212   2.634 -0.3804  2.0027  5.1706
  136MOL0     H18751  10.641  10.191   2.860 -1.2193 -1.0516 -0.1166
  136MOL0     H18752   9.893  10.104   1.907  0.0600  1.7191  2.7438
  136MOL0     H18753   9.870  10.290   1.724 -2.3303 -2.5361  1.9898
  136MOL0     H18754  10.026  10.546   1.425 -1.8012 -1.6910  0.7328
  136MOL0     H18755  10.010  10.702   1.244 -0.3486 -3.4552  0.8944
  136MOL0     H18756  10.174  10.972   1.285  0.2213 -2.1956 -1.0186
  136MOL0     H18757  10.105  11.009   1.131  2.5396  0.5817  0.8921
  136MOL0     H18758  10.194  11.221   1.245 -0.8320 -1.1656 -1.1625
  136MOL0     H18759  10.086  11.182   1.386 -1.4071  2.0651  0.4003
  136MOL0     H18760   9.998  11.241   1.106 -0.9939  1.2704 -0.1052
  136MOL0     H18761   9.887  11.240   1.247  0.4709 -1.1956 -0.1883
  136MOL0     H18762  10.036  11.432   1.333 -1.6964 -1.7928  1.3235
  136MOL0     H18763   9.931  11.456   1.182  0.1394  0.5342  1.2341
  136MOL0     H18764  10.333  11.558   1.106  0.6281 -0.8714  1.3142
  136MOL0     H18765  10.007  11.028   1.508 -1.2322 -0.6200 -0.4218
  136MOL0     H18766   9.986  10.831   1.825 -0.7008  0.0820 -0.9157
  136MOL0     H18767  10.150  10.881   1.786 -0.1128  1.5441  1.6554
  136MOL0     H18768  10.022  10.995   1.744 -1.5922 -1.2125 -2.2704
  137MOL0     O18769   6.394   1.761   9.046  0.5000 -0.5519 -0.3941
  137MOL0     C18770   6.447   1.656   9.077  0.5278 -0.1640  0.0342
  137MOL0     O18771   6.525   1.638   9.194  0.3360 -0.3706  0.6433
  137MOL0     C18772   6.554   1.758   9.256 -0.0403 -0.1715  0.1931
  137MOL0     C18773   6.636   1.846   9.182  0.2130  0.0118  0.1724
  137MOL0     C18774   6.677   1.963   9.253 -0.0705 -0.3120 -0.9687
  137MOL0     C18775   6.649   1.989   9.386 -0.3589  0.0358  0.5112
  137MOL0     O18776   6.709   2.103   9.436  0.2751 -1.2234  0.4017
  137MOL0     C18777   6.629   2.200   9.514  0.3154  0.1924  0.5641
  137MOL0     C18778   6.628   2.343   9.470  0.1784 -0.4989 -0.1018
  137MOL0     C18779   6.558   2.368   9.340 -0.5249  0.0996  0.1366
  137MOL0     C18780   6.534   2.509   9.289 -0.0952  0.4198 -0.4005
  137MOL0     C18781   6.440   2.498   9.172 -0.8764  1.3074  0.4846
  137MOL0     C18782   6.434   2.623   9.079 -0.2296  0.0483 -0.1899
  137MOL0     C18783   6.352   2.749   9.140 -1.1922 -0.2344 -0.6373
  137MOL0     C18784   6.218   2.771   9.083 -0.1387  0.3068 -0.3059
  137MOL0     N18785   6.200   2.760   8.935 -0.2818 -0.4745 -0.8906
  137MOL0     C18786   6.279   2.831   8.852 -0.6918  0.2493  0.1544
  137MOL0     C18787   6.231   2.813   8.730 -0.3748 -0.2236  0.2331
  137MOL0     C18788   6.266   2.880   8.599 -0.2752 -0.1799  1.0302
  137MOL0     C18789   6.390   2.815   8.527 -0.2151 -0.7610 -0.8776
  137MOL0     C18790   6.382   2.788   8.378  0.3356 -0.0112  0.0153
  137MOL0     C18791   6.498   2.702   8.329  0.0921  0.0613  0.2266
  137MOL0     O18792   6.613   2.780   8.348 -0.2976 -0.6072 -0.2206
  137MOL0     C18793   6.738   2.736   8.305 -0.5631 -0.4439 -0.6233
  137MOL0     C18794   6.852   2.816   8.320  0.0343 -0.4825  0.0491
  137MOL0     C18795   6.980   2.780   8.277  0.0691 -0.8636  0.9240
  137MOL0     C18796   7.099   2.879   8.299  0.2056 -0.7482  0.9391
  137MOL0     C18797   7.003   2.658   8.208  0.4087  1.1025  0.1886
  137MOL0     C18798   7.137   2.610   8.152 -0.2160 -0.0926  0.9687
  137MOL0     O18799   7.244   2.666   8.218 -0.0868  0.2524  0.8311
  137MOL0     C18800   7.370   2.614   8.196  0.5144  1.0834  0.0866
  137MOL0     C18801   7.408   2.481   8.213  0.7014 -0.8145  0.0590
  137MOL0     C18802   7.539   2.441   8.194 -0.2813 -0.4880 -0.3973
  137MOL0     C18803   7.649   2.531   8.208 -0.2831 -0.5279  0.2948
  137MOL0     O18804   7.776   2.477   8.224 -0.6670 -0.4092  0.0879
  137MOL0     C18805   7.883   2.570   8.219 -0.4133 -0.9246 -0.3850
  137MOL0     C18806   8.025   2.519   8.234 -0.5906  0.9055 -0.1312
  137MOL0     C18807   8.042   2.420   8.357 -0.0742 -0.1280 -0.6136
  137MOL0     C18808   8.153   2.313   8.356  1.2564  0.6006 -0.4226
  137MOL0     C18809   8.113   2.197   8.269  0.1695 -0.6654 -0.1877
  137MOL0     C18810   7.992   2.104   8.317 -0.4757  0.3077  0.3730
  137MOL0     C18811   7.950   1.991   8.223 -0.5039 -0.1724 -0.2746
  137MOL0     C18812   7.904   2.032   8.090 -0.1563  0.1449 -0.5315
  137MOL0    Cl18813   7.745   2.126   8.106 -0.4311 -0.1114 -0.0921
  137MOL0     C18814   7.616   2.667   8.199  0.4541  0.0890  0.6201
  137MOL0     C18815   7.473   2.707   8.186 -0.4915 -0.3431 -0.5842
  137MOL0     O18816   7.134   2.510   8.070 -0.3983  0.3986 -0.1163
  137MOL0     C18817   6.884   2.586   8.183 -0.4401  1.2750 -0.5198
  137MOL0     C18818   6.751   2.617   8.230  0.5403  0.2529  0.1706
  137MOL0     N18819   6.124   2.726   8.744  0.5252  0.3423 -0.1869
  137MOL0     N18820   6.093   2.704   8.867 -0.3369 -1.1958 -0.2759
  137MOL0     C18821   6.578   1.896   9.456  0.3983  0.6785 -0.5556
  137MOL0     C18822   6.515   1.785   9.392 -0.0974 -0.2658  0.5817
  137MOL0     C18823   6.405   1.548   8.985  0.8318 -0.0875 -0.0937
  137MOL0     C18824   6.341   1.574   8.859 -0.4913  0.0338 -0.0757
  137MOL0     C18825   6.300   1.476   8.771 -0.3574  0.4365  0.2343
  137MOL0     C18826   6.336   1.343   8.801  0.0342 -0.2229 -0.3253
  137MOL0     O18827   6.300   1.232   8.726  0.8361  0.1502 -0.1973
  137MOL0     C18828   6.210   1.236   8.618 -0.5405 -0.1951  0.1338
  137MOL0     C18829   6.066   1.217   8.674 -0.3535  0.0467  0.0692
  137MOL0     C18830   5.951   1.238   8.572  0.0476  0.6711 -0.1916
  137MOL0     C18831   5.816   1.207   8.640 -0.1496 -0.1463 -0.2968
  137MOL0     C18832   5.778   1.318   8.729  0.4272  0.3906  0.1375
  137MOL0     C18833   5.756   1.403   8.811  0.1268  0.5700 -0.4520
  137MOL0     C18834   6.392   1.316   8.927  0.5140 -0.6124  0.4596
  137MOL0     C18835   6.424   1.414   9.017  0.0474  0.7426 -0.0557
  137MOL0     C18836   6.475   1.362   9.147  0.5763 -0.0978 -0.4749
  137MOL0     H18837   6.654   1.830   9.076  0.2810  0.0425  0.1800
  137MOL0     H18838   6.740   2.036   9.204  2.0123 -1.6976 -0.4439
  137MOL0     H18839   6.670   2.200   9.616  2.4169 -3.1249 -0.1148
  137MOL0     H18840   6.532   2.151   9.509  2.1146 -3.7010  0.2900
  137MOL0     H18841   6.598   2.420   9.542  3.1214  0.1457  0.5599
  137MOL0     H18842   6.729   2.377   9.446 -0.2905  0.5217 -0.7128
  137MOL0     H18843   6.626   2.319   9.270  0.1270  0.3359  0.5910
  137MOL0     H18844   6.462   2.317   9.348  0.0575 -1.7058 -2.9889
  137MOL0     H18845   6.476   2.564   9.363  0.0239  1.2644 -0.9173
  137MOL0     H18846   6.631   2.557   9.273  0.8820 -0.7814  1.4958
  137MOL0     H18847   6.339   2.483   9.210 -3.0934  0.7332 -4.7733
  137MOL0     H18848   6.467   2.405   9.122  0.8125  1.3537  1.2465
  137MOL0     H18849   6.539   2.654   9.074 -0.7560  2.1143  0.6714
  137MOL0     H18850   6.394   2.593   8.982  1.4738 -0.9203 -0.6411
  137MOL0     H18851   6.417   2.836   9.128  0.8651 -1.2194  2.2389
  137MOL0     H18852   6.349   2.726   9.247  0.4586 -2.1383 -0.9297
  137MOL0     H18853   6.140   2.706   9.125 -0.2232  0.0355 -0.8590
  137MOL0     H18854   6.197   2.874   9.114 -0.5793 -0.2974  1.5122
  137MOL0     H18855   6.371   2.883   8.875 -1.4712  1.4414  0.6917
  137MOL0     H18856   6.292   2.984   8.623 -2.8965  0.3790  1.7701
  137MOL0     H18857   6.185   2.880   8.526  0.9898  1.5584 -0.4730
  137MOL0     H18858   6.470   2.888   8.540  0.3816 -1.8469  2.8681
  137MOL0     H18859   6.419   2.728   8.586  0.7775 -0.2027 -0.5328
  137MOL0     H18860   6.284   2.744   8.361  0.2219 -0.9415  2.5822
  137MOL0     H18861   6.377   2.884   8.325  1.1990  0.6231  1.0278
  137MOL0     H18862   6.501   2.609   8.386 -0.9947 -1.2884 -1.7919
  137MOL0     H18863   6.482   2.669   8.226  2.0375 -2.6581  0.6849
  137MOL0     H18864   6.848   2.910   8.373  2.0964 -1.4866  2.1860
  137MOL0     H18865   7.156   2.904   8.209 -3.3992  2.3282 -0.7609
  137MOL0     H18866   7.172   2.840   8.371  1.0609 -4.8594 -1.8165
  137MOL0     H18867   7.063   2.975   8.338 -0.6358 -0.5587 -0.2569
  137MOL0     H18868   7.334   2.402   8.223  0.5318 -0.8466 -1.3056
  137MOL0     H18869   7.559   2.334   8.196 -5.6359 -1.7514 -0.9829
  137MOL0     H18870   7.883   2.612   8.118  0.3799  0.6917  0.2648
  137MOL0     H18871   7.875   2.641   8.302 -0.0851 -0.3530 -0.8368
  137MOL0     H18872   8.057   2.467   8.143  1.3481  0.9372  0.5036
  137MOL0     H18873   8.100   2.595   8.258 -0.2930  0.9257 -1.0893
  137MOL0     H18874   7.946   2.368   8.363  0.7252 -1.4954  2.3023
  137MOL0     H18875   8.060   2.477   8.448 -0.2231  0.7024 -1.1008
  137MOL0     H18876   8.164   2.272   8.457 -1.0672  0.5756 -0.1153
  137MOL0     H18877   8.249   2.360   8.334  1.4315  0.7534  0.5953
  137MOL0     H18878   8.090   2.217   8.164  2.8015 -0.6935 -0.8438
  137MOL0     H18879   8.209   2.143   8.260 -0.5259 -1.8790 -0.5829
  137MOL0     H18880   7.908   2.174   8.324 -0.3905  0.6433 -1.3957
  137MOL0     H18881   8.019   2.055   8.410  0.7735 -0.4288 -0.3532
  137MOL0     H18882   7.872   1.947   8.285 -0.0235 -1.3766 -0.4926
  137MOL0     H18883   8.036   1.923   8.217  0.2537  0.7902 -0.4996
  137MOL0     H18884   7.876   1.944   8.032  1.1317 -1.1559  0.7142
  137MOL0     H18885   7.979   2.087   8.031 -0.9263 -0.4420 -2.1110
  137MOL0     H18886   7.686   2.750   8.188 -1.2965  1.4731 -0.7422
  137MOL0     H18887   7.455   2.813   8.170 -2.4598 -0.4472  0.6444
  137MOL0     H18888   6.876   2.490   8.133  0.0320  0.2507  1.2946
  137MOL0     H18889   6.665   2.559   8.200 -0.6364  3.3627 -3.2981
  137MOL0     H18890   6.586   1.910   9.563  2.4224  0.5707 -0.6452
  137MOL0     H18891   6.465   1.709   9.451 -0.2610 -0.5602  0.0671
  137MOL0     H18892   6.326   1.678   8.834 -0.0447 -0.3829 -2.2374
  137MOL0     H18893   6.248   1.503   8.680 -2.8318  3.1002  2.2538
  137MOL0     H18894   6.213   1.329   8.561 -2.5295  1.7835  2.9920
  137MOL0     H18895   6.241   1.158   8.548  3.7483  1.8897 -0.5708
  137MOL0     H18896   6.056   1.302   8.743 -0.6530  0.7138 -0.7860
  137MOL0     H18897   6.064   1.120   8.725  1.9674  0.8447  1.8510
  137MOL0     H18898   5.956   1.341   8.538  0.4907  0.5833 -0.3941
  137MOL0     H18899   5.968   1.173   8.485  2.6889  0.5856  0.3314
  137MOL0     H18900   5.835   1.112   8.690 -1.8346 -0.6091 -0.4741
  137MOL0     H18901   5.737   1.193   8.566 -2.0126  0.3962  1.5123
  137MOL0     H18902   5.750   1.473   8.893  2.7048  0.1987  0.1425
  137MOL0     H18903   6.390   1.210   8.951 -0.5459 -0.9756 -1.0428
  137MOL0     H18904   6.484   1.253   9.142  2.5534 -0.2497  3.1582
  137MOL0     H18905   6.581   1.382   9.168  0.8210 -0.5603 -1.2114
  137MOL0     H18906   6.418   1.396   9.233  0.5217  1.8587 -1.2273
  138MOL0     O18907   9.976   6.966   5.203  0.5242 -0.2880  0.2828
  138MOL0     C18908   9.852   6.974   5.179 -0.9693  0.1623 -0.3349
  138MOL0     O18909   9.788   7.072   5.111 -0.4458 -0.8430 -0.0344
  138MOL0     C18910   9.848   7.177   5.051 -0.5574 -0.7081  0.5021
  138MOL0     C18911   9.754   7.256   4.988 -0.5650 -0.2359 -0.1187
  138MOL0     C18912   9.794   7.366   4.905 -1.1135 -0.0174  0.1450
  138MOL0     C18913   9.925   7.402   4.889 -0.5512 -0.2284  0.6453
  138MOL0     O18914   9.980   7.502   4.812  0.2455  0.1147 -0.0441
  138MOL0     C18915   9.892   7.571   4.720 -0.0375 -0.0307 -0.3890
  138MOL0     C18916   9.981   7.681   4.659 -0.3028 -1.4121  0.3015
  138MOL0     C18917  10.059   7.639   4.540 -0.2963 -0.5686 -0.7371
  138MOL0     C18918   9.963   7.602   4.424  0.3404 -0.2638  0.5055
  138MOL0     C18919  10.055   7.563   4.303  0.2143  0.0206 -0.5455
  138MOL0     C18920  10.131   7.439   4.320  0.3652 -0.5505  0.2760
  138MOL0     C18921  10.194   7.388   4.193  0.4985  0.7879  0.1351
  138MOL0     C18922  10.349   7.363   4.194  0.1663  0.4682  0.6424
  138MOL0     N18923  10.392   7.263   4.097 -0.2602 -0.6923 -0.0417
  138MOL0     C18924  10.386   7.130   4.090  1.1631 -0.1004 -0.1549
  138MOL0     C18925  10.436   7.082   3.974  0.0990  0.0924 -0.5073
  138MOL0     C18926  10.468   6.940   3.937 -0.1609  0.7907  0.9182
  138MOL0     C18927  10.523   6.859   4.054  0.1214 -0.1281  0.1042
  138MOL0     C18928  10.675   6.847   4.033 -0.1373  0.1383 -0.0353
  138MOL0     C18929  10.732   6.712   4.058  0.3738 -0.2650  0.4319
  138MOL0     O18930  10.678   6.651   4.180 -0.1072 -0.5769 -0.3074
  138MOL0     C18931  10.681   6.518   4.198  0.4098 -0.1826 -0.3999
  138MOL0     C18932  10.602   6.467   4.296  0.5484 -0.0644 -0.1576
  138MOL0     C18933  10.600   6.335   4.331  0.9088 -0.3807 -0.8142
  138MOL0     C18934  10.495   6.284   4.426 -0.8605 -1.0783  0.3348
  138MOL0     C18935  10.694   6.246   4.274  0.1047 -1.2494  0.8475
  138MOL0     C18936  10.710   6.113   4.326  0.3674 -0.2678 -1.0311
  138MOL0     O18937  10.825   6.098   4.395  0.4177 -0.0796 -0.3312
  138MOL0     C18938  10.838   5.967   4.442  0.0516  0.3371  1.1152
  138MOL0     C18939  10.922   5.880   4.366  0.8538 -0.1876 -0.2032
  138MOL0     C18940  10.927   5.747   4.409 -0.6801 -0.1419 -0.2856
  138MOL0     C18941  10.857   5.694   4.508 -0.1622 -0.1062  0.3348
  138MOL0     O18942  10.866   5.559   4.533 -0.3247 -0.6566 -0.0383
  138MOL0     C18943  10.766   5.497   4.621  0.2289  0.3662 -0.4704
  138MOL0     C18944  10.793   5.346   4.638 -0.6051  0.1765 -0.2088
  138MOL0     C18945  10.748   5.269   4.509  1.2253  0.5336  0.0174
  138MOL0     C18946  10.765   5.113   4.532 -0.5250 -0.6165  0.5599
  138MOL0     C18947  10.692   5.022   4.430 -0.7405 -0.0492  0.1372
  138MOL0     C18948  10.721   4.867   4.436  0.6349 -0.2054 -0.7162
  138MOL0     C18949  10.670   4.807   4.302 -0.0436 -0.6422 -0.1138
  138MOL0     C18950  10.763   4.853   4.191  0.4442 -0.2780 -0.3401
  138MOL0    Cl18951  10.945   4.820   4.216  0.0674 -0.3244 -0.1364
  138MOL0     C18952  10.779   5.775   4.579 -0.3597 -0.7564 -0.8887
  138MOL0     C18953  10.773   5.910   4.544  0.1818  0.0981  0.7233
  138MOL0     O18954  10.623   6.026   4.308 -0.4173 -0.5272 -0.3656
  138MOL0     C18955  10.786   6.306   4.170  0.7136  0.2495  0.0155
  138MOL0     C18956  10.775   6.435   4.130 -0.1070  0.5035 -0.1390
  138MOL0     N18957  10.474   7.191   3.903 -0.4960 -0.1907  0.3134
  138MOL0     N18958  10.450   7.298   3.983 -0.5001  0.4642 -0.0131
  138MOL0     C18959  10.019   7.332   4.964 -0.5749 -0.6131  0.1721
  138MOL0     C18960   9.982   7.217   5.041 -0.0343  0.2402  0.0638
  138MOL0     C18961   9.779   6.851   5.217  0.0723 -0.0948 -0.0899
  138MOL0     C18962   9.681   6.804   5.123  0.4319  0.5729  0.1248
  138MOL0     C18963   9.619   6.678   5.146 -0.1770 -0.2232 -0.2324
  138MOL0     C18964   9.651   6.597   5.258 -0.5719 -0.7928  0.6548
  138MOL0     O18965   9.597   6.476   5.291  0.3253 -0.8365 -0.8216
  138MOL0     C18966   9.481   6.435   5.217 -0.0183 -0.0985 -0.2264
  138MOL0     C18967   9.354   6.516   5.271  0.6574 -0.1818 -0.6727
  138MOL0     C18968   9.231   6.497   5.188  0.4781 -0.4653  1.1314
  138MOL0     C18969   9.107   6.548   5.266 -0.4198  0.5347  0.3782
  138MOL0     C18970   9.121   6.690   5.299 -0.2685 -0.0393  0.3459
  138MOL0     C18971   9.142   6.807   5.307  0.1495  0.9089 -0.1414
  138MOL0     C18972   9.750   6.637   5.342  0.3712  0.1643 -0.2378
  138MOL0     C18973   9.812   6.767   5.336  0.0872  0.9876 -0.3247
  138MOL0     C18974   9.907   6.802   5.454 -0.8215  0.5369 -0.4922
  138MOL0     H18975   9.650   7.224   4.994 -0.1738 -1.2545  3.2511
  138MOL0     H18976   9.723   7.427   4.850  0.0977  1.1680 -0.1720
  138MOL0     H18977   9.820   7.631   4.776 -0.2120  0.5778 -1.2486
  138MOL0     H18978   9.843   7.513   4.641 -1.4489  0.3731  0.1733
  138MOL0     H18979   9.922   7.766   4.623  1.5609  0.5902  1.6922
  138MOL0     H18980  10.059   7.719   4.727 -1.3399  2.3844 -0.4072
  138MOL0     H18981  10.115   7.726   4.505 -0.0701  0.0321  0.9939
  138MOL0     H18982  10.126   7.561   4.575 -1.3655 -0.8923  0.6984
  138MOL0     H18983   9.898   7.517   4.448  2.2438 -1.2638  2.5743
  138MOL0     H18984   9.897   7.683   4.392 -1.2326 -0.6199  2.6533
  138MOL0     H18985  10.125   7.646   4.293 -1.2410  1.2824 -0.7163
  138MOL0     H18986   9.989   7.563   4.216 -3.5337 -1.2976  2.0240
  138MOL0     H18987  10.201   7.452   4.403 -1.1947 -2.2826  1.9989
  138MOL0     H18988  10.062   7.364   4.361  0.9074 -1.0234  0.3433
  138MOL0     H18989  10.164   7.434   4.099  0.8665 -1.0265 -0.9168
  138MOL0     H18990  10.151   7.288   4.185 -1.1877  1.5804 -1.5831
  138MOL0     H18991  10.406   7.455   4.186 -0.4466  0.8093  0.1023
  138MOL0     H18992  10.383   7.320   4.289  2.1726 -1.7972 -0.9738
  138MOL0     H18993  10.339   7.070   4.167 -0.4992  2.5953  1.0762
  138MOL0     H18994  10.526   6.937   3.844 -1.2306  1.2968  0.2055
  138MOL0     H18995  10.373   6.900   3.902  2.1650 -3.3464 -1.3920
  138MOL0     H18996  10.500   6.890   4.156  0.6075  1.5230 -0.2668
  138MOL0     H18997  10.480   6.759   4.041  0.6093 -0.2751 -0.4062
  138MOL0     H18998  10.682   6.861   3.924 -3.3235 -1.4795 -0.5757
  138MOL0     H18999  10.742   6.912   4.090  1.6126 -2.2187  0.7623
  138MOL0     H19000  10.734   6.637   3.978  2.1029 -0.9295  1.0650
  138MOL0     H19001  10.839   6.727   4.076  0.0264 -0.3243  2.8214
  138MOL0     H19002  10.541   6.528   4.362 -0.9281  0.0964 -1.5831
  138MOL0     H19003  10.405   6.343   4.442 -1.1137 -1.1920 -0.6072
  138MOL0     H19004  10.533   6.289   4.529 -1.5250 -1.0271  0.5832
  138MOL0     H19005  10.471   6.181   4.399  1.8127 -1.3484 -1.4085
  138MOL0     H19006  10.973   5.901   4.273 -1.7751 -0.7000 -1.8586
  138MOL0     H19007  10.987   5.679   4.349  1.4209  0.3753  1.1151
  138MOL0     H19008  10.762   5.537   4.723 -1.3108 -3.9351  1.3847
  138MOL0     H19009  10.671   5.518   4.570  1.1165  0.7664 -2.0337
  138MOL0     H19010  10.901   5.343   4.655 -0.5036  1.9322 -0.2782
  138MOL0     H19011  10.755   5.299   4.729  2.7946 -0.5595  1.0166
  138MOL0     H19012  10.807   5.308   4.425  3.1425  3.2971  2.4170
  138MOL0     H19013  10.644   5.293   4.490  1.3838  0.7355 -0.5994
  138MOL0     H19014  10.741   5.094   4.638  0.9291  3.3358  1.7790
  138MOL0     H19015  10.871   5.088   4.524  0.1073  2.3214 -3.1434
  138MOL0     H19016  10.586   5.039   4.408 -0.9227 -0.0827  0.9584
  138MOL0     H19017  10.729   5.068   4.338 -1.3044  3.3824  1.4583
  138MOL0     H19018  10.656   4.836   4.518 -0.9971  2.0919 -1.0409
  138MOL0     H19019  10.826   4.848   4.458  0.0540 -0.9271  1.7512
  138MOL0     H19020  10.566   4.841   4.294 -0.0630 -0.4027  1.0509
  138MOL0     H19021  10.669   4.698   4.292 -1.8920 -0.4542 -4.5363
  138MOL0     H19022  10.753   4.959   4.165 -2.7517  0.1308  2.0189
  138MOL0     H19023  10.733   4.798   4.101 -1.8084  2.6196 -1.5458
  138MOL0     H19024  10.719   5.740   4.663 -0.7240 -2.6036 -1.8508
  138MOL0     H19025  10.718   5.978   4.609  1.3467  0.6666  1.1408
  138MOL0     H19026  10.864   6.237   4.137  0.3138  0.3420 -1.1658
  138MOL0     H19027  10.840   6.472   4.052  0.3767 -0.3805 -0.1672
  138MOL0     H19028  10.123   7.363   4.964 -0.8387  0.7553  3.4328
  138MOL0     H19029  10.058   7.160   5.093 -0.5214  0.2575  0.8261
  138MOL0     H19030   9.648   6.848   5.029  1.1177 -0.2673 -0.5261
  138MOL0     H19031   9.538   6.647   5.080 -2.0449  0.8765  1.4586
  138MOL0     H19032   9.487   6.444   5.108 -2.1739 -1.9323 -0.5625
  138MOL0     H19033   9.466   6.330   5.243  1.9095 -0.2175  0.5909
  138MOL0     H19034   9.371   6.622   5.291 -1.2818  0.1053 -0.3338
  138MOL0     H19035   9.344   6.469   5.369  0.9310 -0.5796 -0.8320
  138MOL0     H19036   9.251   6.565   5.104  1.6895 -0.3171  1.5234
  138MOL0     H19037   9.217   6.397   5.146  1.3780  0.0929 -0.5937
  138MOL0     H19038   9.106   6.495   5.361  0.4864  0.0207  0.1108
  138MOL0     H19039   9.019   6.536   5.201 -0.2838  0.4170  0.2154
  138MOL0     H19040   9.167   6.911   5.313  0.7096  0.7336  0.7472
  138MOL0     H19041   9.775   6.566   5.420  1.7120  0.2468 -0.5566
  138MOL0     H19042   9.951   6.901   5.464  1.0386 -0.2343 -0.6259
  138MOL0     H19043   9.858   6.781   5.549 -1.3300  0.6438 -0.7264
  138MOL0     H19044   9.989   6.729   5.455 -0.6457  0.7377 -0.3805
  139MOL0     O19045   8.340  11.452   0.069 -0.1107 -0.1823 -0.3715
  139MOL0     C19046   8.446  11.460   0.128  0.8754 -0.1050 -0.1191
  139MOL0     O19047   8.465  11.397   0.242  0.4344  1.3368 -0.5440
  139MOL0     C19048   8.406  11.273   0.269 -0.1915 -0.5616  0.3315
  139MOL0     C19049   8.491  11.173   0.326 -0.1546 -0.1885  0.7046
  139MOL0     C19050   8.445  11.043   0.337  0.1135 -0.5334 -0.2699
  139MOL0     C19051   8.303  11.014   0.315 -0.3842  0.7117 -0.2326
  139MOL0     O19052   8.242  10.891   0.329 -0.3369 -0.3002 -0.1530
  139MOL0     C19053   8.307  10.783   0.264 -0.6452 -0.0372  0.6101
  139MOL0     C19054   8.319  10.804   0.108  0.0259  0.3440  0.4692
  139MOL0     C19055   8.360  10.675   0.045 -0.3987  0.0661 -0.0772
  139MOL0     C19056   8.487  10.600   0.099  0.6252 -0.1810  0.7744
  139MOL0     C19057   8.506  10.468   0.033 -0.2318  0.9151 -0.0296
  139MOL0     C19058   8.377  10.371   0.039  0.3015 -0.1241 -0.6956
  139MOL0     C19059   8.413  10.223   0.002  0.7543 -1.0454 -0.5946
  139MOL0     C19060   8.443  10.201  -0.147  0.2541 -0.2545 -1.1776
  139MOL0     N19061   8.476  10.062  -0.172  0.4133 -0.5383 -0.1039
  139MOL0     C19062   8.385   9.960  -0.188 -0.1959  0.1232 -0.5397
  139MOL0     C19063   8.451   9.845  -0.221 -0.1881  0.2321 -0.2261
  139MOL0     C19064   8.387   9.716  -0.275 -0.7958 -0.9216 -0.6435
  139MOL0     C19065   8.387   9.712  -0.435 -0.5410 -0.1134  1.1247
  139MOL0     C19066   8.530   9.726  -0.505 -0.4921 -0.3648 -0.1969
  139MOL0     C19067   8.648   9.632  -0.468  0.6303  0.1888  0.9528
  139MOL0     O19068   8.597   9.497  -0.472 -0.0841 -0.4693  0.6429
  139MOL0     C19069   8.606   9.433  -0.592 -0.5297  0.7406  0.0557
  139MOL0     C19070   8.500   9.352  -0.637  0.6758 -0.1733 -0.5103
  139MOL0     C19071   8.500   9.284  -0.753 -0.1844 -0.3049  0.0608
  139MOL0     C19072   8.388   9.181  -0.771  0.9452  0.5481 -0.2946
  139MOL0     C19073   8.607   9.298  -0.856 -0.0525  0.1959  0.5141
  139MOL0     C19074   8.608   9.217  -0.988 -0.9822 -0.0686  0.2353
  139MOL0     O19075   8.711   9.234  -1.074 -0.0182 -0.1013  0.7930
  139MOL0     C19076   8.707   9.147  -1.170  0.5898 -0.1335  0.5247
  139MOL0     C19077   8.733   9.014  -1.152  0.5106  0.4370 -0.0977
  139MOL0     C19078   8.727   8.930  -1.267  0.3868  0.4041 -0.8367
  139MOL0     C19079   8.710   8.982  -1.399 -0.4663  0.2897  0.3573
  139MOL0     O19080   8.733   8.894  -1.499 -0.2867 -0.2610 -0.6132
  139MOL0     C19081   8.713   8.949  -1.629  0.1534 -0.9964 -0.6681
  139MOL0     C19082   8.764   8.845  -1.720 -0.1626 -0.4220 -0.5362
  139MOL0     C19083   8.908   8.810  -1.695 -0.4583  0.3060  0.4302
  139MOL0     C19084   8.930   8.661  -1.728 -0.0553 -0.2012  0.0959
  139MOL0     C19085   9.081   8.638  -1.730 -1.0208 -0.0643  0.4861
  139MOL0     C19086   9.151   8.690  -1.846 -0.2924 -0.1574 -0.3842
  139MOL0     C19087   9.295   8.681  -1.826  0.1841  0.7698 -0.2019
  139MOL0     C19088   9.393   8.755  -1.922  0.4436  0.9593  0.9581
  139MOL0    Cl19089   9.367   8.923  -1.901  0.1068 -0.1554 -0.2610
  139MOL0     C19090   8.698   9.117  -1.411  0.5182  0.3664 -0.2129
  139MOL0     C19091   8.687   9.202  -1.295  0.0523 -0.3796  0.3976
  139MOL0     O19092   8.514   9.144  -1.007  0.7595 -0.8092 -0.5030
  139MOL0     C19093   8.704   9.393  -0.816 -1.5748  0.3021 -0.4825
  139MOL0     C19094   8.706   9.458  -0.693  0.3789 -0.0335 -0.9728
  139MOL0     N19095   8.585   9.879  -0.207  0.7139 -0.2952  0.2903
  139MOL0     N19096   8.592  10.001  -0.171 -0.4817  0.3644  0.5582
  139MOL0     C19097   8.220  11.117   0.269  0.2988 -0.2192 -1.2669
  139MOL0     C19098   8.265  11.245   0.249 -0.8097  0.0195  0.5019
  139MOL0     C19099   8.541  11.568   0.097  0.2249  1.0734 -0.4323
  139MOL0     C19100   8.647  11.595   0.180  0.0796 -0.6222  0.2432
  139MOL0     C19101   8.733  11.705   0.152 -0.8341 -0.8977  0.5153
  139MOL0     C19102   8.725  11.779   0.029 -0.3057 -0.9238 -0.5149
  139MOL0     O19103   8.818  11.883   0.013 -0.7216  0.3228 -0.0487
  139MOL0     C19104   8.827  11.965  -0.101 -0.0825  0.9939 -0.1115
  139MOL0     C19105   8.913  11.906  -0.216 -0.0429 -0.3040  0.7292
  139MOL0     C19106   9.064  11.888  -0.169 -0.7557  0.0576  0.0307
  139MOL0     C19107   9.149  12.014  -0.194 -0.3745 -0.6749  0.6632
  139MOL0     C19108   9.161  12.050  -0.334 -0.4740 -0.1347 -0.2714
  139MOL0     C19109   9.182  12.069  -0.454  0.5851  0.6933  0.4673
  139MOL0     C19110   8.624  11.744  -0.057 -1.2610  0.3794 -0.0855
  139MOL0     C19111   8.530  11.646  -0.024 -0.1378  0.5602  0.2597
  139MOL0     C19112   8.419  11.631  -0.132  0.4028 -0.4745  1.0635
  139MOL0     H19113   8.596  11.195   0.343 -0.1920  1.0633 -0.5105
  139MOL0     H19114   8.515  10.969   0.375  1.2146  1.1235  1.0775
  139MOL0     H19115   8.253  10.692   0.289  1.3748 -1.7744 -0.9920
  139MOL0     H19116   8.406  10.771   0.309 -0.0821 -2.5507 -1.1523
  139MOL0     H19117   8.229  10.850   0.065  0.0146 -1.1780 -1.2284
  139MOL0     H19118   8.394  10.881   0.086 -0.3507  1.4556  2.6590
  139MOL0     H19119   8.276  10.606   0.053  1.0098 -2.0143 -2.2250
  139MOL0     H19120   8.370  10.682  -0.063  1.1563 -1.2280 -0.0364
  139MOL0     H19121   8.581  10.654   0.082  0.5184 -1.0424 -3.9403
  139MOL0     H19122   8.464  10.580   0.204 -1.4686 -2.6750 -0.0570
  139MOL0     H19123   8.591  10.422   0.085  0.6589 -0.9210 -2.8612
  139MOL0     H19124   8.529  10.492  -0.071  1.1457  0.7433  0.2098
  139MOL0     H19125   8.321  10.376   0.133 -1.7452  0.4271 -1.8783
  139MOL0     H19126   8.309  10.421  -0.030  0.6637  4.3249  1.8141
  139MOL0     H19127   8.337  10.149   0.027  0.4832 -0.5545  0.0658
  139MOL0     H19128   8.501  10.192   0.059  0.1985  0.9484  1.4800
  139MOL0     H19129   8.369  10.233  -0.220  2.2938  2.5482 -2.1994
  139MOL0     H19130   8.530  10.264  -0.169  1.5196 -0.6048  2.2601
  139MOL0     H19131   8.279   9.979  -0.178 -0.7039 -1.2910 -2.6440
  139MOL0     H19132   8.289   9.722  -0.227  0.2449  0.4348  1.4557
  139MOL0     H19133   8.447   9.635  -0.231  0.2416  0.1073 -0.1094
  139MOL0     H19134   8.328   9.624  -0.462 -3.5952  1.1073  3.2441
  139MOL0     H19135   8.330   9.791  -0.485  1.9840 -0.8927 -3.5572
  139MOL0     H19136   8.519   9.717  -0.614 -1.7391 -1.8742  0.0269
  139MOL0     H19137   8.566   9.825  -0.477  2.1900 -1.5188  0.8749
  139MOL0     H19138   8.736   9.653  -0.529 -1.2780  2.1568 -1.3124
  139MOL0     H19139   8.675   9.645  -0.362  0.9333 -1.5696  1.1126
  139MOL0     H19140   8.417   9.370  -0.570  0.5815  1.7242 -1.0688
  139MOL0     H19141   8.420   9.077  -0.773  0.2616  0.3396 -1.2973
  139MOL0     H19142   8.316   9.193  -0.853 -0.0558 -0.7359  0.3623
  139MOL0     H19143   8.315   9.194  -0.690  1.6622  0.3599  0.3898
  139MOL0     H19144   8.752   8.979  -1.051  2.0030  3.0945  0.6339
  139MOL0     H19145   8.735   8.824  -1.246 -0.7140  0.5453  0.3678
  139MOL0     H19146   8.608   8.973  -1.647 -0.3600 -2.3101  0.3975
  139MOL0     H19147   8.773   9.039  -1.647 -1.6399  0.4668  0.3573
  139MOL0     H19148   8.708   8.751  -1.722 -1.2801  0.1497  1.4086
  139MOL0     H19149   8.740   8.891  -1.817 -0.0493  1.2550  0.2012
  139MOL0     H19150   8.929   8.819  -1.588  0.6081  1.6734  0.1258
  139MOL0     H19151   8.966   8.888  -1.746 -1.7695 -0.0450 -1.7696
  139MOL0     H19152   8.881   8.640  -1.823  0.0424 -1.1170  0.2430
  139MOL0     H19153   8.886   8.595  -1.652  0.8044 -0.8794  0.0209
  139MOL0     H19154   9.121   8.697  -1.648 -2.6325  1.4828  0.2106
  139MOL0     H19155   9.115   8.534  -1.724  4.1241  1.2927 -0.6046
  139MOL0     H19156   9.127   8.797  -1.848  0.2474 -0.0207  0.1054
  139MOL0     H19157   9.112   8.647  -1.938 -2.3980  2.0207 -0.6407
  139MOL0     H19158   9.324   8.576  -1.840 -1.0078  0.5303 -0.9546
  139MOL0     H19159   9.313   8.709  -1.721 -1.6787  0.6245  0.1951
  139MOL0     H19160   9.374   8.742  -2.029  0.0145  3.1691  0.7056
  139MOL0     H19161   9.494   8.721  -1.897  0.5547 -0.1858 -0.8645
  139MOL0     H19162   8.672   9.170  -1.503 -0.2826 -0.8455 -0.7054
  139MOL0     H19163   8.669   9.308  -1.307  2.8386  0.1317  0.0507
  139MOL0     H19164   8.782   9.403  -0.892  1.2038 -4.2106  1.3877
  139MOL0     H19165   8.788   9.527  -0.680 -1.0123  1.4114  0.7130
  139MOL0     H19166   8.122  11.083   0.237 -1.2351 -1.6111  3.9223
  139MOL0     H19167   8.198  11.324   0.216  1.2318  1.4859 -0.3893
  139MOL0     H19168   8.669  11.538   0.270 -3.9053 -2.8013  0.0768
  139MOL0     H19169   8.808  11.735   0.224  0.7427  0.0673 -1.4426
  139MOL0     H19170   8.721  11.974  -0.127 -0.9648 -1.3099  2.1604
  139MOL0     H19171   8.874  12.058  -0.068 -1.3428  0.9026  2.1729
  139MOL0     H19172   8.912  11.953  -0.314 -0.2991 -2.3872 -0.3279
  139MOL0     H19173   8.866  11.811  -0.242  0.8715 -0.7529  0.6596
  139MOL0     H19174   9.069  11.861  -0.064  1.0754 -1.9168 -0.4922
  139MOL0     H19175   9.119  11.802  -0.209 -1.2759 -0.6846  0.8904
  139MOL0     H19176   9.244  11.980  -0.152 -0.7445 -1.1491  1.1260
  139MOL0     H19177   9.120  12.099  -0.131 -1.4079 -1.2147  0.9400
  139MOL0     H19178   9.206  12.091  -0.556 -0.6222 -1.8203 -0.4451
  139MOL0     H19179   8.625  11.793  -0.153 -1.5551  1.9117  0.6648
  139MOL0     H19180   8.322  11.649  -0.085  0.4251  4.6611 -0.2526
  139MOL0     H19181   8.425  11.717  -0.199 -4.2531  1.3338  2.5736
  139MOL0     H19182   8.425  11.540  -0.193 -2.0799  0.5518 -0.8827
  140MOL0     O19183   1.673  10.080   8.263 -0.2485 -0.2176 -0.4540
  140MOL0     C19184   1.745   9.998   8.332  0.3523  0.1006  0.0683
  140MOL0     O19185   1.886   9.995   8.329 -0.2670  0.0465  0.0938
  140MOL0     C19186   1.942  10.070   8.233  0.7137 -0.2437 -0.0929
  140MOL0     C19187   1.980  10.209   8.246  0.2550 -0.3195 -0.3525
  140MOL0     C19188   2.047  10.272   8.144  0.4073  0.5254  0.1036
  140MOL0     C19189   2.083  10.204   8.022  0.3332 -0.7090  0.5128
  140MOL0     O19190   2.161  10.264   7.920 -0.6730  0.3296  0.8302
  140MOL0     C19191   2.110  10.379   7.861 -0.8889  0.1874 -0.3180
  140MOL0     C19192   2.207  10.497   7.888  0.1178  0.0563  0.6689
  140MOL0     C19193   2.148  10.609   7.799 -0.1366  0.0242  0.1032
  140MOL0     C19194   2.202  10.621   7.665  0.0167  0.1230 -0.0101
  140MOL0     C19195   2.131  10.723   7.574  0.1515 -0.9673  0.1671
  140MOL0     C19196   2.008  10.655   7.496 -0.7061 -0.7307 -0.2070
  140MOL0     C19197   1.899  10.754   7.441 -0.0048 -0.1363  0.3972
  140MOL0     C19198   1.774  10.692   7.379  0.0563  1.0841 -0.3331
  140MOL0     N19199   1.804  10.655   7.239  0.1206  1.8461 -0.0032
  140MOL0     C19200   1.854  10.525   7.216  0.1542 -0.4318  0.5825
  140MOL0     C19201   1.880  10.533   7.085 -0.4442  0.1076  0.6612
  140MOL0     C19202   1.950  10.428   6.999 -0.6994 -0.5185  0.2266
  140MOL0     C19203   2.081  10.478   6.937  0.3264 -0.4501  0.8750
  140MOL0     C19204   2.186  10.526   7.048 -0.4456 -0.2140 -0.9160
  140MOL0     C19205   2.251  10.416   7.133 -0.2591  1.1714 -0.6291
  140MOL0     O19206   2.391  10.403   7.107  0.0578  0.1745 -0.9376
  140MOL0     C19207   2.471  10.332   7.195  0.3605  0.3791  0.2997
  140MOL0     C19208   2.613  10.352   7.185 -0.3419 -0.3130  0.0053
  140MOL0     C19209   2.702  10.259   7.245 -0.3876 -0.3524 -0.0756
  140MOL0     C19210   2.846  10.292   7.244 -0.2126  0.5265 -0.1757
  140MOL0     C19211   2.651  10.156   7.326 -0.9397  0.8529  0.3126
  140MOL0     C19212   2.744  10.076   7.407 -0.6382 -0.1366 -0.1717
  140MOL0     O19213   2.831  10.130   7.498 -0.4214 -0.7211  0.4718
  140MOL0     C19214   2.906  10.043   7.579  0.4939  1.2404  0.1234
  140MOL0     C19215   2.903  10.042   7.712  0.4531 -0.3854 -0.0571
  140MOL0     C19216   2.988   9.953   7.786  0.4527 -0.4715 -0.3849
  140MOL0     C19217   3.090   9.885   7.720  1.0350  0.3569  0.2140
  140MOL0     O19218   3.192   9.815   7.770  0.3559  0.7858 -0.4886
  140MOL0     C19219   3.184   9.782   7.908 -0.1661  0.2066 -0.5956
  140MOL0     C19220   3.295   9.686   7.935  0.3500 -0.1199 -0.6413
  140MOL0     C19221   3.252   9.538   7.914 -0.3365 -1.1537  0.6591
  140MOL0     C19222   3.359   9.429   7.921 -0.4885  0.1814 -0.1048
  140MOL0     C19223   3.444   9.427   8.055  0.5389  0.8291 -0.0060
  140MOL0     C19224   3.536   9.310   8.065  0.7760 -0.2117  0.1409
  140MOL0     C19225   3.626   9.325   8.185 -0.9475  0.3621 -0.0525
  140MOL0     C19226   3.552   9.347   8.330 -0.0948 -0.3061  0.4764
  140MOL0    Cl19227   3.459   9.200   8.386  0.0110 -0.0317  0.2972
  140MOL0     C19228   3.097   9.899   7.579 -0.5009  0.1871 -0.6818
  140MOL0     C19229   3.000   9.972   7.509  0.0655 -0.4249 -0.5172
  140MOL0     O19230   2.699   9.964   7.419  0.1211 -0.3879 -0.2512
  140MOL0     C19231   2.513  10.136   7.334 -0.4133  0.0707  0.1534
  140MOL0     C19232   2.421  10.222   7.263 -0.0747 -0.0655 -0.7291
  140MOL0     N19233   1.850  10.661   7.039 -0.0729  2.0000 -0.2587
  140MOL0     N19234   1.802  10.732   7.128 -0.1246  0.2892 -1.0976
  140MOL0     C19235   2.031  10.076   8.009  0.3701  0.5925 -0.2290
  140MOL0     C19236   1.969  10.006   8.110  0.3481 -0.1801 -0.2544
  140MOL0     C19237   1.673   9.911   8.435  0.4031  0.8660  0.5305
  140MOL0     C19238   1.755   9.843   8.521 -0.0687 -0.5670 -0.3172
  140MOL0     C19239   1.701   9.769   8.625 -0.0243  0.1710 -0.2006
  140MOL0     C19240   1.559   9.749   8.630 -0.3285 -0.0294 -0.6917
  140MOL0     O19241   1.518   9.653   8.722  0.1381  0.9762  1.0238
  140MOL0     C19242   1.379   9.656   8.757 -0.1044  0.4718 -0.0816
  140MOL0     C19243   1.295   9.566   8.671  0.0472  0.2375 -1.1708
  140MOL0     C19244   1.346   9.426   8.690  0.5795  0.2789 -1.3063
  140MOL0     C19245   1.266   9.332   8.595 -0.4803 -1.3217  0.0817
  140MOL0     C19246   1.336   9.206   8.573  0.1555 -0.6338  0.0293
  140MOL0     C19247   1.384   9.099   8.564 -0.0377 -0.7701  0.4499
  140MOL0     C19248   1.476   9.815   8.540  0.6546  0.4690 -0.1081
  140MOL0     C19249   1.529   9.905   8.446  0.1048  0.4084 -0.3362
  140MOL0     C19250   1.426   9.970   8.352  0.0441 -0.8511  0.1065
  140MOL0     H19251   1.954  10.267   8.334 -2.5117 -0.4118 -1.0226
  140MOL0     H19252   2.081  10.374   8.161 -0.1544  1.2082 -2.5364
  140MOL0     H19253   2.012  10.411   7.899 -0.7861  1.8119 -1.3298
  140MOL0     H19254   2.089  10.351   7.758 -0.7495  0.5304 -0.4396
  140MOL0     H19255   2.211  10.512   7.996 -0.6434 -5.2325  1.6983
  140MOL0     H19256   2.307  10.476   7.851 -0.0105  2.6783 -1.5293
  140MOL0     H19257   2.041  10.595   7.781 -0.0829 -0.5689  0.2312
  140MOL0     H19258   2.163  10.701   7.855 -2.5287 -1.5749  3.6807
  140MOL0     H19259   2.310  10.638   7.668  0.2775 -1.3498 -0.2588
  140MOL0     H19260   2.193  10.523   7.618 -1.2200  1.4457 -2.8114
  140MOL0     H19261   2.210  10.752   7.504 -1.1296  2.6963  0.0029
  140MOL0     H19262   2.104  10.819   7.619  2.2817  0.2983 -1.0806
  140MOL0     H19263   2.048  10.602   7.409  0.2576  1.2388 -0.9981
  140MOL0     H19264   1.957  10.587   7.566 -1.7426  0.9003  0.6777
  140MOL0     H19265   1.951  10.813   7.365  0.3137 -2.0186 -0.9149
  140MOL0     H19266   1.862  10.813   7.526  0.2411 -1.4547  1.4462
  140MOL0     H19267   1.740  10.605   7.437 -2.1124  2.1338  0.0658
  140MOL0     H19268   1.698  10.771   7.381  1.7913  2.8223  1.8196
  140MOL0     H19269   1.867  10.441   7.283 -3.1201 -2.3220 -0.8815
  140MOL0     H19270   1.869  10.409   6.928 -1.1491  2.0596 -0.0628
  140MOL0     H19271   1.975  10.344   7.064  0.2027 -0.2157  0.2822
  140MOL0     H19272   2.127  10.404   6.870 -0.5371  0.7311 -1.0967
  140MOL0     H19273   2.066  10.569   6.879 -0.4681  0.9660  3.1816
  140MOL0     H19274   2.272  10.569   6.996  2.3078 -0.7315  2.7947
  140MOL0     H19275   2.141  10.606   7.108  1.5975  0.0412  0.3494
  140MOL0     H19276   2.222  10.428   7.238 -0.4737  0.3759 -0.5871
  140MOL0     H19277   2.201  10.321   7.113  2.2668 -0.4746  0.2544
  140MOL0     H19278   2.665  10.436   7.139  0.7187 -0.9468  0.0041
  140MOL0     H19279   2.913  10.207   7.258  0.0277  0.9687  1.6589
  140MOL0     H19280   2.873  10.358   7.327 -1.6280 -0.4734  1.1361
  140MOL0     H19281   2.870  10.362   7.164 -4.8349  2.2219 -0.3915
  140MOL0     H19282   2.839  10.106   7.772 -0.0859  1.4145 -2.3994
  140MOL0     H19283   2.963   9.943   7.891  1.8975 -1.0601 -0.0761
  140MOL0     H19284   3.215   9.869   7.968  1.5036  0.7350 -2.1447
  140MOL0     H19285   3.081   9.757   7.934 -1.0114  3.7756  0.0331
  140MOL0     H19286   3.390   9.708   7.887  0.5497  0.3453 -0.0427
  140MOL0     H19287   3.303   9.702   8.043  0.7572 -1.1480 -0.5027
  140MOL0     H19288   3.193   9.530   7.822 -3.3561  0.3271  2.3458
  140MOL0     H19289   3.183   9.519   7.997 -0.1572  0.1869  1.1270
  140MOL0     H19290   3.424   9.456   7.837 -2.3982  3.8073 -0.6002
  140MOL0     H19291   3.317   9.328   7.916 -1.3225  0.4821  0.7102
  140MOL0     H19292   3.510   9.514   8.057  2.4186 -0.4813 -1.0758
  140MOL0     H19293   3.370   9.432   8.136 -3.0566 -1.0231 -2.8757
  140MOL0     H19294   3.590   9.288   7.972  1.9558 -2.1837  1.2201
  140MOL0     H19295   3.457   9.236   8.081 -0.3992  1.4816  2.9114
  140MOL0     H19296   3.703   9.400   8.166  0.6186 -1.1365  0.0841
  140MOL0     H19297   3.683   9.231   8.191 -2.3065 -0.4185  1.3750
  140MOL0     H19298   3.482   9.430   8.338  1.7480  1.7497 -2.6493
  140MOL0     H19299   3.629   9.375   8.402  1.3449  0.7735 -1.3770
  140MOL0     H19300   3.181   9.854   7.527  1.2928 -2.2672  3.7510
  140MOL0     H19301   3.017   9.990   7.404  3.0487 -0.5822 -0.1527
  140MOL0     H19302   2.476  10.061   7.403 -0.0065 -2.2324 -1.9610
  140MOL0     H19303   2.317  10.190   7.259 -1.0717  2.5861  0.9318
  140MOL0     H19304   2.056  10.010   7.927  3.5937 -1.6619  2.2850
  140MOL0     H19305   1.935   9.904   8.096  0.1002 -0.0345 -0.7403
  140MOL0     H19306   1.862   9.858   8.525 -0.3364  1.2368  1.5178
  140MOL0     H19307   1.766   9.728   8.701 -0.9256  0.4145  0.7131
  140MOL0     H19308   1.360   9.623   8.860  1.0814  1.9759  0.6700
  140MOL0     H19309   1.330   9.754   8.761  1.0140  1.0961 -1.1747
  140MOL0     H19310   1.304   9.592   8.565 -1.7182 -0.9750 -1.6662
  140MOL0     H19311   1.193   9.570   8.710  1.4081  1.0763  2.8002
  140MOL0     H19312   1.452   9.413   8.666  0.4519 -1.8903 -0.9061
  140MOL0     H19313   1.339   9.393   8.794 -1.1135  0.0337 -1.4740
  140MOL0     H19314   1.264   9.384   8.499 -2.1830 -1.7054 -0.1345
  140MOL0     H19315   1.163   9.330   8.632 -0.4130 -0.5463  0.3341
  140MOL0     H19316   1.408   8.994   8.562 -0.1917 -1.0125 -5.2445
  140MOL0     H19317   1.370   9.790   8.541  1.2976 -2.7782 -1.2382
  140MOL0     H19318   1.331   9.928   8.386  1.0093  0.4366  5.2731
  140MOL0     H19319   1.423  10.077   8.372  0.2218 -0.6469 -0.8978
  140MOL0     H19320   1.460   9.941   8.252  1.6134 -3.2381  1.2246
  141MOL0     O19321   9.569  10.082   6.243 -0.8691 -0.0704  0.4156
  141MOL0     C19322   9.657  10.003   6.256  0.5776  0.6168  0.2455
  141MOL0     O19323   9.721   9.940   6.153 -0.3373 -0.2904  0.1883
  141MOL0     C19324   9.722   9.975   6.022 -0.2059 -0.2301  0.3782
  141MOL0     C19325   9.621  10.037   5.951  0.4511  0.6687 -0.0793
  141MOL0     C19326   9.620  10.062   5.819  0.6833 -0.2891  1.2956
  141MOL0     C19327   9.729  10.014   5.743  0.5675  0.0313  0.1721
  141MOL0     O19328   9.744  10.006   5.602 -0.1127  0.9084 -0.5546
  141MOL0     C19329   9.677  10.106   5.520 -0.1634  0.2466 -1.1816
  141MOL0     C19330   9.706  10.069   5.378 -0.1618 -0.5307  0.3353
  141MOL0     C19331   9.834  10.123   5.328  0.2794 -0.2119  0.7372
  141MOL0     C19332   9.856  10.057   5.189  0.9089 -0.5712 -0.6456
  141MOL0     C19333   9.963  10.120   5.100 -0.3389  0.0286  0.6427
  141MOL0     C19334   9.937  10.110   4.949 -0.9071 -0.4287 -0.1601
  141MOL0     C19335  10.034  10.197   4.868 -0.0521  0.3450  0.4616
  141MOL0     C19336  10.006  10.203   4.720 -0.6935  0.0095  1.0883
  141MOL0     N19337  10.106  10.271   4.631  0.3849  0.0771 -0.2025
  141MOL0     C19338  10.231  10.232   4.639 -0.3184  0.0093  0.2174
  141MOL0     C19339  10.309  10.340   4.596 -0.8996 -0.6553 -1.5982
  141MOL0     C19340  10.457  10.350   4.613 -1.0327 -0.1897  0.4202
  141MOL0     C19341  10.488  10.460   4.721  0.1976  0.0349  0.6680
  141MOL0     C19342  10.410  10.438   4.847 -0.2986  0.7981 -1.1336
  141MOL0     C19343  10.456  10.535   4.958 -0.4959 -0.4455 -0.1858
  141MOL0     O19344  10.433  10.666   4.913 -0.2460  0.4670 -0.5912
  141MOL0     C19345  10.465  10.783   4.992  0.2420  0.1746  0.0356
  141MOL0     C19346  10.464  10.909   4.937 -0.6795 -0.1586 -0.4839
  141MOL0     C19347  10.456  11.018   5.022 -0.0402  1.1738  0.2768
  141MOL0     C19348  10.420  11.141   4.954 -0.0247 -0.7428  0.3682
  141MOL0     C19349  10.484  11.005   5.166 -0.0103 -0.5832 -0.8898
  141MOL0     C19350  10.493  11.123   5.257 -0.3752  0.1535  0.8847
  141MOL0     O19351  10.432  11.116   5.378 -0.5177 -0.1386  0.4825
  141MOL0     C19352  10.410  11.238   5.444 -0.8248 -0.6716 -0.1227
  141MOL0     C19353  10.373  11.358   5.379 -0.0818  0.2329 -0.3242
  141MOL0     C19354  10.332  11.474   5.446 -0.4281 -0.7981 -0.2093
  141MOL0     C19355  10.351  11.484   5.587  0.2684  0.4239  0.6108
  141MOL0     O19356  10.327  11.605   5.637 -0.3488  0.2188 -0.4822
  141MOL0     C19357  10.304  11.611   5.779  0.5141 -0.0019  0.0925
  141MOL0     C19358  10.165  11.631   5.822  0.6686 -0.5038 -0.0491
  141MOL0     C19359  10.088  11.514   5.797  0.5206 -0.0107 -0.3416
  141MOL0     C19360   9.947  11.510   5.848 -0.6407  0.4025 -0.1651
  141MOL0     C19361   9.884  11.374   5.834 -0.3506  0.4442  0.5862
  141MOL0     C19362   9.733  11.370   5.858  1.1395  0.2991 -0.4504
  141MOL0     C19363   9.669  11.228   5.870 -0.6836  0.3892 -0.0865
  141MOL0     C19364   9.678  11.163   5.735  0.5465  0.0811  0.0089
  141MOL0    Cl19365   9.756  11.008   5.766 -0.2153  0.3780 -0.1026
  141MOL0     C19366  10.388  11.362   5.651  0.4117 -0.3318 -0.4758
  141MOL0     C19367  10.407  11.245   5.584 -0.1909  0.0328  0.0946
  141MOL0     O19368  10.551  11.224   5.203  0.1035  0.1830 -0.7995
  141MOL0     C19369  10.499  10.879   5.216  0.7178 -0.6735  0.4925
  141MOL0     C19370  10.477  10.773   5.132  0.2075  0.0688  1.1532
  141MOL0     N19371  10.221  10.443   4.566 -0.2406  0.3059 -0.4555
  141MOL0     N19372  10.104  10.396   4.584  0.7123  0.1506 -0.3963
  141MOL0     C19373   9.846   9.964   5.812  0.3212  0.7146 -0.3118
  141MOL0     C19374   9.832   9.935   5.952 -0.2270 -0.4759 -0.9741
  141MOL0     C19375   9.695   9.967   6.395 -0.0507  0.0077 -0.2164
  141MOL0     C19376   9.742   9.837   6.403  0.5883  1.4185 -0.5700
  141MOL0     C19377   9.764   9.781   6.524 -0.1806  0.2823 -0.2467
  141MOL0     C19378   9.776   9.861   6.639  1.0742  0.4896  0.1229
  141MOL0     O19379   9.829   9.804   6.746  0.2645  0.0845 -0.4327
  141MOL0     C19380   9.801   9.862   6.874 -0.5317  1.0244 -1.0486
  141MOL0     C19381   9.816   9.764   6.990 -1.0279  0.4126  0.4394
  141MOL0     C19382   9.964   9.751   7.031  0.4658  0.3312 -0.0985
  141MOL0     C19383   9.980   9.655   7.148  0.6808 -0.6883  0.5108
  141MOL0     C19384   9.959   9.516   7.125  0.4403  0.5828 -0.0358
  141MOL0     C19385   9.944   9.395   7.118  1.0046  0.0702 -0.6771
  141MOL0     C19386   9.724   9.998   6.633 -0.3820 -0.3227 -1.1838
  141MOL0     C19387   9.674  10.037   6.516  0.7631 -0.8256  0.3830
  141MOL0     C19388   9.604  10.175   6.514  0.0110 -0.2968  0.0018
  141MOL0     H19389   9.530  10.063   6.004  0.6004  0.7039  0.1622
  141MOL0     H19390   9.525  10.102   5.786  0.7349 -2.4438 -1.9441
  141MOL0     H19391   9.696  10.212   5.536 -1.4044  1.2273 -5.0309
  141MOL0     H19392   9.569  10.100   5.536 -0.3193  1.4945 -1.6161
  141MOL0     H19393   9.723   9.961   5.372  2.2997 -0.2495  1.1815
  141MOL0     H19394   9.615  10.109   5.331  0.4222  1.2094  0.5994
  141MOL0     H19395   9.827  10.231   5.320 -1.8502 -0.4434 -3.0437
  141MOL0     H19396   9.917  10.090   5.392  2.8538  0.6175 -1.9416
  141MOL0     H19397   9.861   9.948   5.196  2.2322 -0.6867 -2.6943
  141MOL0     H19398   9.770  10.085   5.128  0.7171 -1.0380 -0.5969
  141MOL0     H19399  10.069  10.098   5.117 -0.0444  0.5896 -0.4159
  141MOL0     H19400   9.945  10.227   5.117 -1.9482 -0.0899 -0.1725
  141MOL0     H19401   9.932  10.005   4.917 -1.3300 -1.2392  2.3282
  141MOL0     H19402   9.836  10.149   4.930 -1.1810 -1.0830 -0.0872
  141MOL0     H19403  10.135  10.164   4.896 -0.7536 -1.0631  1.4609
  141MOL0     H19404  10.016  10.300   4.900 -0.4782  0.3671  0.1647
  141MOL0     H19405  10.019  10.098   4.691  3.4066  1.2757 -2.8298
  141MOL0     H19406   9.912  10.254   4.700 -0.9659 -0.6256  0.7350
  141MOL0     H19407  10.266  10.138   4.679 -1.4998 -0.7020 -0.3508
  141MOL0     H19408  10.490  10.389   4.517  0.7000 -1.2793  0.5345
  141MOL0     H19409  10.495  10.249   4.630  0.8396  0.2948 -0.5893
  141MOL0     H19410  10.595  10.479   4.735 -0.0212  0.5175  1.8238
  141MOL0     H19411  10.466  10.564   4.697 -1.9634  0.4987  4.0319
  141MOL0     H19412  10.303  10.454   4.834 -0.2899  0.1690 -2.0791
  141MOL0     H19413  10.425  10.330   4.863 -1.7500  0.0729 -3.9990
  141MOL0     H19414  10.399  10.510   5.048 -2.4368 -1.9007 -1.7249
  141MOL0     H19415  10.564  10.528   4.978 -0.3993  1.4501  0.1372
  141MOL0     H19416  10.452  10.902   4.830 -1.5168 -5.4974 -0.3177
  141MOL0     H19417  10.501  11.214   4.960 -0.3705 -0.4609  2.2477
  141MOL0     H19418  10.338  11.199   4.996  3.6191  3.0577  3.1047
  141MOL0     H19419  10.419  11.130   4.845 -3.5408  2.9814 -0.2051
  141MOL0     H19420  10.375  11.350   5.270  0.1799 -0.1495 -0.2940
  141MOL0     H19421  10.309  11.564   5.389 -0.8577  0.9275  2.4799
  141MOL0     H19422  10.349  11.533   5.842  1.8843  2.6737  2.6654
  141MOL0     H19423  10.354  11.703   5.810 -0.7603  0.2555  1.5201
  141MOL0     H19424  10.163  11.653   5.930 -1.2784 -0.0216 -0.1316
  141MOL0     H19425  10.121  11.719   5.774 -0.9493  2.2851  5.5799
  141MOL0     H19426  10.135  11.435   5.857  2.1096  1.3739  0.3307
  141MOL0     H19427  10.072  11.492   5.691 -0.8923 -0.2362 -0.1041
  141MOL0     H19428   9.891  11.589   5.797 -0.6589  1.0308  0.7858
  141MOL0     H19429   9.951  11.531   5.956  0.4017  0.3685 -0.1872
  141MOL0     H19430   9.915  11.349   5.732  0.3685 -1.4854  1.2446
  141MOL0     H19431   9.945  11.305   5.893  1.9111  1.5423 -0.3044
  141MOL0     H19432   9.683  11.446   5.798  2.9870  1.0941 -1.0774
  141MOL0     H19433   9.729  11.411   5.960  0.8328 -0.9010  0.0320
  141MOL0     H19434   9.565  11.248   5.899  0.0117  0.0197  3.0532
  141MOL0     H19435   9.714  11.159   5.942  0.5577 -0.0868 -1.2870
  141MOL0     H19436   9.736  11.229   5.670 -2.2542  0.4638 -2.2858
  141MOL0     H19437   9.576  11.151   5.698  0.2813 -2.1392  1.2780
  141MOL0     H19438  10.396  11.365   5.759  0.8760  0.2609 -0.5212
  141MOL0     H19439  10.433  11.153   5.635 -1.6916 -2.3403 -3.0374
  141MOL0     H19440  10.521  10.870   5.322  4.2890 -0.1442 -0.0913
  141MOL0     H19441  10.483  10.680   5.188  0.9240  0.1228  1.1797
  141MOL0     H19442   9.945   9.946   5.771  1.3868  4.6918  0.0600
  141MOL0     H19443   9.909   9.894   6.017 -1.6702  0.4687  1.5048
  141MOL0     H19444   9.766   9.784   6.312 -0.5678  1.6555 -1.0338
  141MOL0     H19445   9.810   9.686   6.551  0.1876  0.8069  1.0864
  141MOL0     H19446   9.864   9.947   6.903  0.7597 -0.2499  0.0495
  141MOL0     H19447   9.694   9.882   6.875 -1.5719 -3.4847 -0.8244
  141MOL0     H19448   9.780   9.666   6.957  4.8099 -2.1348  0.3529
  141MOL0     H19449   9.764   9.790   7.082 -1.3480  1.0105  0.0988
  141MOL0     H19450  10.020   9.715   6.944 -0.2238 -3.1531  0.7568
  141MOL0     H19451   9.997   9.848   7.068  1.5671 -1.2278  3.3076
  141MOL0     H19452   9.899   9.670   7.221  0.0921 -1.5662  0.0652
  141MOL0     H19453  10.080   9.684   7.180  0.7092 -0.6447  0.3833
  141MOL0     H19454   9.950   9.288   7.112 -1.2470 -0.3051  1.7738
  141MOL0     H19455   9.701  10.053   6.723  2.3819 -1.5560  0.3779
  141MOL0     H19456   9.613  10.226   6.611  0.3088  0.7939 -0.5873
  141MOL0     H19457   9.637  10.248   6.439  0.9095  0.7667  1.3775
  141MOL0     H19458   9.497  10.156   6.502 -0.6925  2.3128  1.3689
  142MOL0     O19459   8.567   6.702   4.661 -0.2269  0.1702  0.0938
  142MOL0     C19460   8.445   6.702   4.649 -0.5005  0.1325  0.0314
  142MOL0     O19461   8.365   6.813   4.665  0.1659 -0.5036 -0.5775
  142MOL0     C19462   8.387   6.925   4.760  0.9985  0.6982  1.0218
  142MOL0     C19463   8.273   7.012   4.769  0.4313 -0.3476 -0.6986
  142MOL0     C19464   8.274   7.125   4.856 -0.9579 -0.3758 -0.2938
  142MOL0     C19465   8.387   7.155   4.934  1.3254  0.8329  0.2091
  142MOL0     O19466   8.392   7.253   5.029  0.6566 -0.0065 -0.5245
  142MOL0     C19467   8.280   7.304   5.109  0.3138  0.4288  0.3755
  142MOL0     C19468   8.329   7.355   5.249 -0.8366 -1.1569 -0.5819
  142MOL0     C19469   8.233   7.439   5.326  0.4596 -0.7704  0.2669
  142MOL0     C19470   8.286   7.491   5.460  0.3742 -0.6376  0.7979
  142MOL0     C19471   8.205   7.598   5.518  0.8572  0.1379  0.0699
  142MOL0     C19472   8.235   7.737   5.456 -0.2853 -0.5182  0.3334
  142MOL0     C19473   8.136   7.847   5.521  0.2250 -0.2415  0.3545
  142MOL0     C19474   8.194   7.990   5.511  0.2068 -0.3549 -1.3673
  142MOL0     N19475   8.217   8.038   5.381  0.6371 -0.3162  1.0008
  142MOL0     C19476   8.122   8.064   5.286  0.8773 -0.0442 -0.5999
  142MOL0     C19477   8.194   8.051   5.168 -0.1314 -0.4954  0.1064
  142MOL0     C19478   8.127   8.035   5.041  0.2363 -0.0527  0.2306
  142MOL0     C19479   8.033   7.919   5.027 -0.4335  0.6132  0.7152
  142MOL0     C19480   8.110   7.781   5.062  0.0632  0.5057 -0.2441
  142MOL0     C19481   8.220   7.736   4.969  0.1508 -0.6029  0.2431
  142MOL0     O19482   8.165   7.719   4.837 -0.2093 -0.3109 -0.7248
  142MOL0     C19483   8.221   7.623   4.747 -0.4726 -0.9717 -0.8458
  142MOL0     C19484   8.329   7.657   4.670 -0.1204 -0.4251  0.1961
  142MOL0     C19485   8.374   7.567   4.570  0.0981 -0.8709  0.8810
  142MOL0     C19486   8.499   7.619   4.491  1.7740  0.2745  0.1200
  142MOL0     C19487   8.314   7.438   4.551  0.1114 -0.3929 -1.3430
  142MOL0     C19488   8.381   7.335   4.474  0.7225  0.2119 -0.5309
  142MOL0     O19489   8.313   7.227   4.468  0.2781  0.2714  0.2136
  142MOL0     C19490   8.372   7.112   4.411 -0.0057 -0.6925  0.9635
  142MOL0     C19491   8.491   7.062   4.457  0.0334  0.6300 -0.2202
  142MOL0     C19492   8.549   6.954   4.397  0.3599  0.0094  0.5004
  142MOL0     C19493   8.504   6.883   4.284  0.5120 -0.0410  0.2832
  142MOL0     O19494   8.568   6.785   4.206  0.3677  0.4265  1.0222
  142MOL0     C19495   8.692   6.737   4.258 -0.3227 -0.6666 -0.4735
  142MOL0     C19496   8.746   6.621   4.178 -0.4154  0.5054 -0.4845
  142MOL0     C19497   8.675   6.500   4.207 -0.0859  0.5542  0.2783
  142MOL0     C19498   8.699   6.373   4.118  0.6927 -0.2330 -0.4294
  142MOL0     C19499   8.618   6.247   4.167 -0.0009 -0.8647  0.2582
  142MOL0     C19500   8.501   6.219   4.075  0.6179  0.1708 -0.0847
  142MOL0     C19501   8.472   6.071   4.062 -0.7012 -0.6568 -0.6013
  142MOL0     C19502   8.443   6.008   4.197  0.5715  0.2918 -0.3742
  142MOL0    Cl19503   8.444   5.825   4.187  0.7011 -0.0788  0.0813
  142MOL0     C19504   8.380   6.935   4.242 -0.9688  0.5250 -0.1343
  142MOL0     C19505   8.313   7.044   4.302 -0.3752  0.0405  1.1145
  142MOL0     O19506   8.484   7.355   4.408  0.4125 -0.2357 -0.5087
  142MOL0     C19507   8.197   7.411   4.633 -0.4643 -0.7800  0.1929
  142MOL0     C19508   8.160   7.501   4.731  0.6793 -0.2821  0.0238
  142MOL0     N19509   8.326   8.081   5.196  0.0562  0.7168 -0.2692
  142MOL0     N19510   8.338   8.073   5.326 -0.2627  0.1750 -0.9571
  142MOL0     C19511   8.497   7.058   4.929 -1.2857  0.7147  0.9064
  142MOL0     C19512   8.501   6.954   4.840  0.7127 -0.1160 -0.3801
  142MOL0     C19513   8.390   6.585   4.581  0.2517 -1.1603  0.6231
  142MOL0     C19514   8.467   6.460   4.602  0.1679 -0.6722  0.0723
  142MOL0     C19515   8.417   6.339   4.544 -0.0242 -0.0175 -0.0424
  142MOL0     C19516   8.307   6.333   4.463 -0.4633  0.1651  0.2689
  142MOL0     O19517   8.272   6.212   4.411  0.2991 -0.4188 -0.2312
  142MOL0     C19518   8.125   6.197   4.402 -0.5433 -0.8992 -1.1889
  142MOL0     C19519   8.085   6.046   4.368 -0.2869 -0.2164 -0.0971
  142MOL0     C19520   7.925   6.030   4.362  0.9055 -0.1430 -0.6811
  142MOL0     C19521   7.899   5.882   4.335 -0.4404 -0.6269  0.1198
  142MOL0     C19522   7.766   5.870   4.280  0.2767  0.5305  0.6018
  142MOL0     C19523   7.659   5.844   4.236 -0.7809  0.1734  0.3367
  142MOL0     C19524   8.245   6.453   4.433  0.8625  0.4896 -0.2694
  142MOL0     C19525   8.282   6.576   4.485  0.6607 -1.1062 -0.5389
  142MOL0     C19526   8.199   6.687   4.442 -0.2933 -0.7528  0.8261
  142MOL0     H19527   8.179   7.012   4.714 -1.3390 -3.2205  1.9681
  142MOL0     H19528   8.191   7.195   4.862  0.9865  1.9650  1.6958
  142MOL0     H19529   8.210   7.221   5.115 -0.0813  0.4047 -2.8896
  142MOL0     H19530   8.227   7.383   5.055 -1.7470  0.1843  1.8879
  142MOL0     H19531   8.364   7.269   5.307  2.2281 -0.3517 -1.0613
  142MOL0     H19532   8.420   7.412   5.227 -0.2452 -1.3747  1.1069
  142MOL0     H19533   8.196   7.524   5.268  2.3738  0.3647  0.6119
  142MOL0     H19534   8.140   7.386   5.344  0.1963  0.3276  2.5178
  142MOL0     H19535   8.310   7.417   5.537 -0.7365  0.5331  2.3196
  142MOL0     H19536   8.389   7.524   5.444  0.4207 -0.6991  0.9773
  142MOL0     H19537   8.224   7.605   5.626  1.7912  0.9473 -0.1325
  142MOL0     H19538   8.101   7.567   5.500  0.7561  1.2185 -1.4166
  142MOL0     H19539   8.333   7.763   5.496 -1.3529 -0.2386  2.9368
  142MOL0     H19540   8.243   7.740   5.347  2.1614 -1.9050  0.4010
  142MOL0     H19541   8.116   7.820   5.625 -0.5583 -2.8683 -0.3963
  142MOL0     H19542   8.040   7.836   5.468 -2.2212  0.0571  4.3272
  142MOL0     H19543   8.132   8.063   5.564  2.0696  0.3906 -0.0870
  142MOL0     H19544   8.283   8.003   5.572 -2.1305  3.0329  1.7319
  142MOL0     H19545   8.016   8.047   5.300  1.8191 -4.7026  4.0227
  142MOL0     H19546   8.213   8.033   4.974 -1.4569  0.9222 -2.0669
  142MOL0     H19547   8.076   8.129   5.018  0.0320 -0.0762  0.5750
  142MOL0     H19548   7.951   7.916   5.100 -1.4081  3.1686 -0.1859
  142MOL0     H19549   7.987   7.908   4.929 -3.0421 -2.9805  2.0866
  142MOL0     H19550   8.151   7.773   5.163  3.1315  1.6291 -1.2751
  142MOL0     H19551   8.032   7.705   5.064 -0.0296  0.6126  1.3254
  142MOL0     H19552   8.301   7.810   4.967 -1.0359  0.7260 -0.8831
  142MOL0     H19553   8.259   7.642   5.010 -0.1534 -0.2319  1.4293
  142MOL0     H19554   8.388   7.746   4.687  4.2153 -2.8776 -0.6727
  142MOL0     H19555   8.583   7.576   4.546  2.8151  0.4452 -1.2572
  142MOL0     H19556   8.522   7.725   4.507  1.0682  0.4713 -0.1353
  142MOL0     H19557   8.491   7.599   4.383 -2.9618 -2.1386  0.6685
  142MOL0     H19558   8.551   7.095   4.541  0.8712 -2.1712  0.3812
  142MOL0     H19559   8.644   6.921   4.439  0.1120 -1.0346  0.2623
  142MOL0     H19560   8.767   6.815   4.242 -0.1620 -0.7158  0.0386
  142MOL0     H19561   8.688   6.719   4.365 -0.1833  1.9302  0.0267
  142MOL0     H19562   8.734   6.630   4.070  1.8050 -1.1489 -0.9254
  142MOL0     H19563   8.853   6.612   4.201 -0.6112 -0.6999  0.0399
  142MOL0     H19564   8.570   6.530   4.203  0.8253  4.0522 -0.8531
  142MOL0     H19565   8.690   6.469   4.311 -0.7640  0.4413  0.3476
  142MOL0     H19566   8.805   6.345   4.124  1.5910  2.9157  0.2685
  142MOL0     H19567   8.682   6.397   4.013 -1.6247  1.5220  0.2716
  142MOL0     H19568   8.695   6.169   4.164  2.1483  1.1464  0.3510
  142MOL0     H19569   8.596   6.250   4.274  1.3005 -3.0373  0.6545
  142MOL0     H19570   8.526   6.250   3.973 -1.4141 -0.6662 -0.8892
  142MOL0     H19571   8.411   6.269   4.110 -0.7469 -1.1107 -1.5926
  142MOL0     H19572   8.559   6.025   4.013 -1.1223  0.2646 -2.2693
  142MOL0     H19573   8.383   6.059   4.001 -0.4973  0.1141 -1.0563
  142MOL0     H19574   8.352   6.048   4.244  0.0055 -1.0228 -0.3040
  142MOL0     H19575   8.534   6.031   4.253  1.7579 -0.3691 -1.9398
  142MOL0     H19576   8.331   6.882   4.161 -1.3622  0.1843  0.3164
  142MOL0     H19577   8.215   7.072   4.264 -0.0534  0.2499  0.4360
  142MOL0     H19578   8.127   7.328   4.625 -0.0209 -1.2940  1.4019
  142MOL0     H19579   8.071   7.486   4.791  0.8387 -0.9336  0.1018
  142MOL0     H19580   8.586   7.077   4.987  0.5176 -0.5135 -1.3102
  142MOL0     H19581   8.591   6.895   4.838  0.2226 -1.0858  2.3591
  142MOL0     H19582   8.550   6.458   4.672  1.8988 -0.7762 -1.8957
  142MOL0     H19583   8.480   6.252   4.560 -0.3333 -0.1658  0.3950
  142MOL0     H19584   8.082   6.229   4.498  0.9618 -1.0259 -0.4344
  142MOL0     H19585   8.071   6.260   4.330 -1.1800  1.3342  1.0603
  142MOL0     H19586   8.132   5.982   4.443  1.4340  1.2699  0.1676
  142MOL0     H19587   8.122   6.007   4.272  0.6158 -2.3667  1.0571
  142MOL0     H19588   7.869   6.064   4.449  3.2456 -0.0040  0.8357
  142MOL0     H19589   7.889   6.092   4.280 -1.8648 -0.2057  0.3763
  142MOL0     H19590   7.908   5.832   4.431  3.0254 -1.8029 -0.6810
  142MOL0     H19591   7.977   5.838   4.272  0.0908 -1.1401  1.1188
  142MOL0     H19592   7.568   5.810   4.192 -1.2226 -0.7977  1.9295
  142MOL0     H19593   8.159   6.449   4.367 -0.8689 -0.4379  1.9377
  142MOL0     H19594   8.102   6.667   4.488  0.4895 -1.8636  2.0728
  142MOL0     H19595   8.245   6.781   4.472 -2.5725 -0.0836  2.5362
  142MOL0     H19596   8.178   6.676   4.335  3.3203 -1.3859  0.0432
  143MOL0     O19597   5.595   0.703   7.015 -0.2152  1.0186 -0.1716
  143MOL0     C19598   5.662   0.808   7.016 -0.3689  0.1077 -0.7483
  143MOL0     O19599   5.635   0.918   6.953  0.0778  0.3558  0.2160
  143MOL0     C19600   5.504   0.911   6.911 -0.2928 -0.3197  0.1041
  143MOL0     C19601   5.480   0.902   6.771 -0.1018 -0.0434 -1.0194
  143MOL0     C19602   5.350   0.916   6.716 -0.1133 -0.4833  0.1768
  143MOL0     C19603   5.251   0.951   6.804 -0.0219 -0.9363 -0.1107
  143MOL0     O19604   5.128   0.965   6.735  0.0486 -0.4923  0.1294
  143MOL0     C19605   5.024   0.877   6.785 -0.2257  0.1251  0.3392
  143MOL0     C19606   4.961   0.815   6.658  0.2292 -0.1063  0.2186
  143MOL0     C19607   4.803   0.810   6.669  0.6145 -0.1067 -0.4380
  143MOL0     C19608   4.760   0.727   6.789 -0.5837 -0.1703  0.9180
  143MOL0     C19609   4.605   0.730   6.800  0.1112  0.2282 -1.2551
  143MOL0     C19610   4.559   0.869   6.847  0.7944  0.3746 -0.6914
  143MOL0     C19611   4.405   0.891   6.815  0.5463 -0.0002  0.3140
  143MOL0     C19612   4.357   1.022   6.876  0.4833 -0.2381 -0.5554
  143MOL0     N19613   4.214   1.043   6.857 -0.6539  0.1344  0.0825
  143MOL0     C19614   4.128   0.989   6.761  0.6163  0.4284  0.1587
  143MOL0     C19615   4.001   0.990   6.821 -0.9489 -0.3596 -0.0787
  143MOL0     C19616   3.878   0.929   6.772  0.3529 -0.2206 -0.0117
  143MOL0     C19617   3.886   0.785   6.735  0.0874  1.1552  1.2601
  143MOL0     C19618   3.777   0.742   6.635  0.5845  0.0234  0.3872
  143MOL0     C19619   3.814   0.636   6.535 -0.0872  1.5188  0.5342
  143MOL0     O19620   3.902   0.690   6.436  0.0862 -0.0353 -0.1307
  143MOL0     C19621   3.928   0.616   6.317 -0.8687  0.4747 -0.2431
  143MOL0     C19622   3.911   0.479   6.310 -0.7906  0.9056  0.4537
  143MOL0     C19623   3.949   0.398   6.205 -0.1369 -0.2975  0.2103
  143MOL0     C19624   3.933   0.249   6.213 -0.6218  0.5299  0.0821
  143MOL0     C19625   3.997   0.462   6.090  0.1952  0.6048  0.5199
  143MOL0     C19626   4.025   0.398   5.967 -0.7020  0.1861  0.0777
  143MOL0     O19627   4.141   0.433   5.904  0.4294 -0.9680 -0.9271
  143MOL0     C19628   4.219   0.331   5.856 -1.2533 -0.5693 -0.6398
  143MOL0     C19629   4.293   0.339   5.734 -0.1446  0.7082  0.3287
  143MOL0     C19630   4.366   0.230   5.689 -0.5821  0.6994  0.0561
  143MOL0     C19631   4.403   0.129   5.777  0.0129  0.7905 -0.5428
  143MOL0     O19632   4.490   0.037   5.719  0.1556 -0.1995 -0.2196
  143MOL0     C19633   4.539  -0.075   5.790 -0.6298  0.0575 -0.2209
  143MOL0     C19634   4.669  -0.120   5.722  0.3588  0.9996 -0.3279
  143MOL0     C19635   4.742  -0.218   5.816 -0.3540  0.1908  0.5623
  143MOL0     C19636   4.660  -0.329   5.863 -0.0611  0.3158 -0.5222
  143MOL0     C19637   4.736  -0.442   5.938 -0.0446  0.2414  0.5636
  143MOL0     C19638   4.653  -0.511   6.044 -0.5961  0.1049 -0.3983
  143MOL0     C19639   4.501  -0.530   6.009  0.9900 -0.5162  0.0221
  143MOL0     C19640   4.484  -0.625   5.895 -0.0757 -0.3310  0.0927
  143MOL0    Cl19641   4.314  -0.704   5.895 -0.4131 -0.2722 -0.2762
  143MOL0     C19642   4.342   0.120   5.905  0.0898  0.3819  0.7234
  143MOL0     C19643   4.257   0.228   5.945 -0.7996 -0.0061  0.1736
  143MOL0     O19644   3.949   0.304   5.931 -0.5558 -0.6132 -0.2344
  143MOL0     C19645   4.027   0.610   6.099 -0.0321  0.1850  0.3636
  143MOL0     C19646   3.991   0.674   6.207  0.1689 -0.5032 -0.6303
  143MOL0     N19647   4.008   1.051   6.942 -0.8367 -0.2376 -0.5825
  143MOL0     N19648   4.136   1.090   6.960  0.8024  1.1932  0.3993
  143MOL0     C19649   5.270   0.958   6.943 -1.0990  0.2553 -0.0208
  143MOL0     C19650   5.394   0.936   6.998 -0.1272  0.0655  0.3441
  143MOL0     C19651   5.795   0.800   7.077 -0.1425 -0.4086  0.4532
  143MOL0     C19652   5.855   0.919   7.120 -0.8599 -0.1873 -0.2311
  143MOL0     C19653   5.969   0.911   7.205  0.1268  0.2845  0.4657
  143MOL0     C19654   6.034   0.791   7.228  0.7594  0.4106 -0.5691
  143MOL0     O19655   6.133   0.775   7.325 -0.2621 -0.5702  1.0260
  143MOL0     C19656   6.266   0.758   7.265  0.4613  0.7198 -0.7710
  143MOL0     C19657   6.372   0.711   7.374 -0.4971 -0.5615  0.8197
  143MOL0     C19658   6.515   0.686   7.312  0.9568  0.1629 -1.0295
  143MOL0     C19659   6.632   0.676   7.421 -0.8334  0.5541  0.0446
  143MOL0     C19660   6.580   0.599   7.536 -0.5115 -0.0018  0.2580
  143MOL0     C19661   6.528   0.538   7.625  1.2433 -0.2258 -0.2729
  143MOL0     C19662   5.986   0.675   7.175  1.4192  0.7090  0.2958
  143MOL0     C19663   5.868   0.678   7.092 -0.6149  1.3770 -0.1699
  143MOL0     C19664   5.844   0.550   7.009  0.0727  0.0918 -0.8428
  143MOL0     H19665   5.562   0.870   6.707  0.4629 -0.1105 -0.2720
  143MOL0     H19666   5.333   0.914   6.609 -2.0936  1.5516  0.3866
  143MOL0     H19667   4.956   0.938   6.845  1.0311  2.0783 -0.1157
  143MOL0     H19668   5.068   0.797   6.844 -1.0588 -1.6905 -1.3746
  143MOL0     H19669   5.001   0.870   6.572 -1.0453  3.1352  1.5296
  143MOL0     H19670   4.997   0.713   6.643  1.4719  0.6022 -2.2869
  143MOL0     H19671   4.761   0.910   6.670 -0.7444 -0.6566 -0.7273
  143MOL0     H19672   4.764   0.777   6.573 -0.7427  1.8726 -0.6009
  143MOL0     H19673   4.795   0.625   6.767 -0.0575  0.0189  0.8619
  143MOL0     H19674   4.797   0.765   6.884  1.2797  0.0287  0.1631
  143MOL0     H19675   4.586   0.652   6.874  0.2005  2.7996  1.7347
  143MOL0     H19676   4.566   0.695   6.704 -0.8791 -2.7398  0.1406
  143MOL0     H19677   4.595   0.887   6.948  0.2791 -0.8478 -0.2697
  143MOL0     H19678   4.617   0.941   6.789  2.4570  0.8559  1.4331
  143MOL0     H19679   4.354   0.807   6.863 -2.3242  1.7360  0.4922
  143MOL0     H19680   4.383   0.899   6.708  1.8268 -0.4550 -0.0040
  143MOL0     H19681   4.374   1.024   6.984 -2.0229 -1.7626 -0.0512
  143MOL0     H19682   4.397   1.112   6.829  0.0345 -0.7829 -2.0485
  143MOL0     H19683   4.163   0.946   6.668 -0.8839 -4.1460  1.4777
  143MOL0     H19684   3.846   0.992   6.689 -0.2487 -0.5620 -0.0461
  143MOL0     H19685   3.796   0.942   6.844  1.5216  0.7788  1.1858
  143MOL0     H19686   3.979   0.767   6.681  0.1657 -0.6766  1.9546
  143MOL0     H19687   3.890   0.719   6.822  3.7571 -2.4274 -1.2583
  143MOL0     H19688   3.702   0.703   6.703  0.8488 -2.3403 -0.5530
  143MOL0     H19689   3.753   0.834   6.582  4.8336  0.9228 -0.3777
  143MOL0     H19690   3.875   0.572   6.600 -0.6681 -1.7036 -1.8314
  143MOL0     H19691   3.725   0.590   6.492 -0.1932  2.7605 -0.6455
  143MOL0     H19692   3.875   0.430   6.400  1.1265 -0.3305  0.6110
  143MOL0     H19693   3.926   0.220   6.318 -0.3460 -2.9541 -0.7421
  143MOL0     H19694   4.023   0.188   6.197  0.7104  1.9189  1.8841
  143MOL0     H19695   3.853   0.204   6.155 -2.0389 -0.0083  2.3215
  143MOL0     H19696   4.263   0.423   5.673  1.5341  1.2173  0.1809
  143MOL0     H19697   4.405   0.229   5.588  1.8196  0.5845  0.9282
  143MOL0     H19698   4.556  -0.045   5.894 -2.5580  0.8655 -0.0877
  143MOL0     H19699   4.470  -0.160   5.785  0.8479 -1.1281 -3.3286
  143MOL0     H19700   4.653  -0.175   5.628  4.2761 -1.5512  0.2817
  143MOL0     H19701   4.727  -0.030   5.702 -1.4925  1.8430 -2.4170
  143MOL0     H19702   4.785  -0.164   5.901  0.0247 -1.4431  1.4568
  143MOL0     H19703   4.824  -0.260   5.756 -0.0504  2.3369 -0.6072
  143MOL0     H19704   4.614  -0.378   5.777  0.5629 -1.5148  0.1318
  143MOL0     H19705   4.576  -0.295   5.925 -0.9619 -2.1772 -0.2662
  143MOL0     H19706   4.766  -0.519   5.866  2.3496 -1.2989  2.9849
  143MOL0     H19707   4.827  -0.398   5.980  0.1949  0.1139  0.1901
  143MOL0     H19708   4.655  -0.447   6.133  0.8873 -2.1291  1.2812
  143MOL0     H19709   4.705  -0.605   6.063  1.5375  0.8875 -2.0056
  143MOL0     H19710   4.446  -0.439   5.985  0.6626 -0.9026 -0.7267
  143MOL0     H19711   4.455  -0.565   6.102  2.7452 -1.9044  0.4315
  143MOL0     H19712   4.555  -0.707   5.912  0.6801  0.5917  1.6569
  143MOL0     H19713   4.508  -0.570   5.804  0.8936 -2.0745 -0.7537
  143MOL0     H19714   4.356   0.042   5.980  0.2796 -0.0359  0.2595
  143MOL0     H19715   4.210   0.227   6.042 -3.1951  3.4625 -0.7695
  143MOL0     H19716   4.081   0.649   6.013  2.8547 -3.2124  0.3764
  143MOL0     H19717   3.999   0.782   6.214 -0.3891 -0.5730  3.2118
  143MOL0     H19718   5.180   0.955   7.005  0.3060 -1.0458  2.1198
  143MOL0     H19719   5.399   0.955   7.104 -2.6032  2.0264  0.2124
  143MOL0     H19720   5.809   1.013   7.092 -0.4424  0.4000  0.9835
  143MOL0     H19721   6.006   1.003   7.248  0.6487 -0.1278  0.9085
  143MOL0     H19722   6.265   0.683   7.185  2.0087 -2.3453  1.8959
  143MOL0     H19723   6.303   0.851   7.219  1.4162  1.3514  1.1710
  143MOL0     H19724   6.330   0.618   7.414 -0.6929 -0.6491  0.4130
  143MOL0     H19725   6.379   0.789   7.451 -1.3958 -0.9726  1.3384
  143MOL0     H19726   6.505   0.599   7.246  1.8145  0.3784 -1.4583
  143MOL0     H19727   6.545   0.767   7.245  2.1230  2.5579  2.1549
  143MOL0     H19728   6.661   0.771   7.468 -0.6751  0.2218  0.6299
  143MOL0     H19729   6.719   0.628   7.377  0.2406  1.6687  0.8825
  143MOL0     H19730   6.485   0.470   7.696  0.0366 -1.0327 -1.7346
  143MOL0     H19731   6.038   0.582   7.198  0.5225  0.8705  3.4972
  143MOL0     H19732   5.786   0.588   6.924  1.1186  1.0527 -1.1620
  143MOL0     H19733   5.937   0.508   6.970  0.2483  1.3335 -1.8336
  143MOL0     H19734   5.804   0.470   7.071  1.7227  0.4852  0.8137
  144MOL0     O19735  11.429   4.110   1.984 -0.4809  0.4117 -0.8155
  144MOL0     C19736  11.478   4.008   2.035  0.0299 -0.2651 -0.2262
  144MOL0     O19737  11.608   3.976   2.046  0.8711 -0.4667 -0.1350
  144MOL0     C19738  11.684   4.036   1.957  0.6864 -1.2458 -0.7991
  144MOL0     C19739  11.720   3.963   1.845  0.2153  0.4853  0.3917
  144MOL0     C19740  11.803   4.020   1.750 -0.1938 -1.0257 -0.2053
  144MOL0     C19741  11.863   4.143   1.770  0.6111 -0.3248  0.1381
  144MOL0     O19742  11.954   4.175   1.680  0.0572 -0.3094 -0.0313
  144MOL0     C19743  12.061   4.268   1.710 -0.2534 -0.4764 -0.3569
  144MOL0     C19744  12.135   4.289   1.580  0.3089  0.0134 -0.4740
  144MOL0     C19745  12.238   4.397   1.595  0.0081  0.3604  0.5365
  144MOL0     C19746  12.297   4.434   1.462  0.4568 -0.8976 -0.6265
  144MOL0     C19747  12.400   4.550   1.461  0.2701  0.5258 -0.3325
  144MOL0     C19748  12.507   4.523   1.567  0.4787 -0.4145  0.3061
  144MOL0     C19749  12.637   4.598   1.533 -0.7218  0.2597 -0.2290
  144MOL0     C19750  12.756   4.558   1.626  1.1021 -1.1114  0.5855
  144MOL0     N19751  12.814   4.428   1.602  0.1163  0.9007 -0.4687
  144MOL0     C19752  12.945   4.397   1.567  0.0660 -0.5835 -0.7499
  144MOL0     C19753  12.954   4.264   1.571  0.7052 -0.5232 -0.2451
  144MOL0     C19754  13.075   4.182   1.525  1.2652 -0.7696 -0.9766
  144MOL0     C19755  13.058   4.163   1.371  0.4303  0.3160  0.2201
  144MOL0     C19756  13.130   4.280   1.301 -0.2836 -0.5725  0.5514
  144MOL0     C19757  13.191   4.233   1.170  0.6353 -0.0560  0.1995
  144MOL0     O19758  13.100   4.139   1.104  0.5827 -0.3025  0.6006
  144MOL0     C19759  13.129   4.120   0.968  0.1243 -0.2648 -1.3908
  144MOL0     C19760  13.245   4.154   0.903  0.7248 -0.7610  0.9561
  144MOL0     C19761  13.252   4.149   0.758 -0.7070  1.2662 -1.0726
  144MOL0     C19762  13.380   4.204   0.683 -0.0290  0.3236  0.1666
  144MOL0     C19763  13.147   4.082   0.684  0.0544 -0.5876  1.0172
  144MOL0     C19764  13.141   4.067   0.539 -0.4734 -0.0187 -0.4186
  144MOL0     O19765  13.065   3.969   0.487 -0.2929 -0.1986 -0.1625
  144MOL0     C19766  13.073   3.948   0.348 -0.2406  0.8575 -0.3020
  144MOL0     C19767  12.970   4.001   0.270 -0.6974  0.7797  0.1606
  144MOL0     C19768  12.982   3.968   0.134  1.0904  0.4709  0.2123
  144MOL0     C19769  13.087   3.893   0.085 -0.0281  0.1901  0.4249
  144MOL0     O19770  13.084   3.877  -0.047 -0.2990  0.0296  0.3100
  144MOL0     C19771  13.200   3.829  -0.123  1.0817 -0.6092 -0.0673
  144MOL0     C19772  13.171   3.871  -0.265 -0.8218  0.5800 -0.4272
  144MOL0     C19773  13.043   3.810  -0.326 -0.8967 -0.0498  0.4242
  144MOL0     C19774  13.015   3.673  -0.297  0.6257  1.0001 -0.4454
  144MOL0     C19775  12.908   3.618  -0.401 -0.8678 -0.5718  0.0012
  144MOL0     C19776  12.916   3.472  -0.444  1.2453 -1.2545  0.0979
  144MOL0     C19777  12.814   3.449  -0.559 -0.0617  0.2997  1.0416
  144MOL0     C19778  12.820   3.297  -0.588 -0.3674  0.1378 -0.0970
  144MOL0    Cl19779  12.982   3.241  -0.646 -0.2808 -0.4484  0.0719
  144MOL0     C19780  13.195   3.855   0.162 -0.1291 -0.5864 -0.5269
  144MOL0     C19781  13.193   3.896   0.295  0.2176 -0.3338  0.0629
  144MOL0     O19782  13.196   4.164   0.479 -0.2640 -0.3175  0.2987
  144MOL0     C19783  13.034   4.046   0.766  0.0975  0.5761 -0.1548
  144MOL0     C19784  13.034   4.055   0.898  0.5533 -0.1621 -0.5671
  144MOL0     N19785  12.833   4.208   1.609  0.0705  0.7059 -0.0324
  144MOL0     N19786  12.752   4.304   1.626 -0.4647 -0.1632  0.5633
  144MOL0     C19787  11.832   4.219   1.890  0.9287 -0.5647  0.9901
  144MOL0     C19788  11.735   4.166   1.978 -0.3872  0.6783  0.4093
  144MOL0     C19789  11.380   3.918   2.100  1.2466 -0.4852 -0.5381
  144MOL0     C19790  11.320   3.960   2.227 -0.6431 -1.4348 -0.1884
  144MOL0     C19791  11.237   3.881   2.293 -0.5879  0.4411  0.4401
  144MOL0     C19792  11.191   3.756   2.244 -0.3421 -0.0467  0.6453
  144MOL0     O19793  11.099   3.673   2.308  0.5129 -0.7781 -0.7569
  144MOL0     C19794  10.976   3.637   2.237 -0.1598 -0.3170 -0.4017
  144MOL0     C19795  10.906   3.768   2.185 -0.3246 -0.2381 -0.0207
  144MOL0     C19796  10.849   3.866   2.299 -0.4015  0.7649 -0.1154
  144MOL0     C19797  10.793   3.992   2.221  0.3597 -1.2646  0.8724
  144MOL0     C19798  10.735   4.092   2.322  1.2287  0.1405  0.0226
  144MOL0     C19799  10.678   4.165   2.396  0.1410 -1.3436 -0.7168
  144MOL0     C19800  11.247   3.715   2.120 -1.2740  0.6930 -0.1728
  144MOL0     C19801  11.346   3.794   2.046  0.3660 -0.1308  0.4907
  144MOL0     C19802  11.397   3.746   1.912  0.6710  0.3397  0.2000
  144MOL0     H19803  11.687   3.861   1.832 -2.1708  1.3879 -1.4215
  144MOL0     H19804  11.832   3.973   1.656  1.9236 -0.7207  0.2470
  144MOL0     H19805  12.118   4.238   1.798 -2.6434  0.3756  1.6238
  144MOL0     H19806  12.008   4.358   1.742  1.2179  1.9997 -4.2062
  144MOL0     H19807  12.191   4.197   1.560 -0.3486 -0.9627  1.8674
  144MOL0     H19808  12.072   4.315   1.494  3.1756  1.9090 -2.1876
  144MOL0     H19809  12.179   4.480   1.637  2.5545  2.0660  0.9732
  144MOL0     H19810  12.320   4.368   1.660  1.1133 -1.3449 -1.4916
  144MOL0     H19811  12.334   4.335   1.433  0.7861 -0.6076 -1.2104
  144MOL0     H19812  12.214   4.460   1.397  0.4924 -1.2195 -0.8023
  144MOL0     H19813  12.354   4.646   1.482 -0.3365  0.4666 -1.2945
  144MOL0     H19814  12.445   4.550   1.361  2.5832 -0.4832  0.6203
  144MOL0     H19815  12.477   4.556   1.667 -2.8575  2.3455 -1.3805
  144MOL0     H19816  12.533   4.418   1.583  0.3063 -0.5361 -0.1955
  144MOL0     H19817  12.632   4.708   1.536 -1.1663  0.2245  2.0628
  144MOL0     H19818  12.665   4.583   1.428  2.4788  3.4424 -0.0143
  144MOL0     H19819  12.839   4.628   1.612 -0.8663  2.6525  4.8300
  144MOL0     H19820  12.726   4.569   1.731 -1.6457 -1.4411 -0.0842
  144MOL0     H19821  13.027   4.459   1.533  1.1820 -2.0739 -0.8909
  144MOL0     H19822  13.091   4.087   1.576  1.4662  0.3456  1.1585
  144MOL0     H19823  13.151   4.251   1.562 -0.3436  0.4541  0.2193
  144MOL0     H19824  13.110   4.070   1.348 -0.0617  0.3407 -1.1045
  144MOL0     H19825  12.952   4.147   1.346 -0.4883  1.7137  2.8526
  144MOL0     H19826  13.044   4.342   1.275 -0.0643 -1.3307 -2.2992
  144MOL0     H19827  13.207   4.331   1.361 -0.2308 -1.5242  1.3234
  144MOL0     H19828  13.207   4.316   1.100  0.1044 -0.0042  0.1362
  144MOL0     H19829  13.289   4.186   1.181  0.5991 -0.1788  0.0047
  144MOL0     H19830  13.328   4.196   0.960  0.4400  4.5861 -1.8699
  144MOL0     H19831  13.467   4.198   0.749  0.9182 -2.5701 -1.2025
  144MOL0     H19832  13.365   4.308   0.651  2.1108  0.5760 -0.1435
  144MOL0     H19833  13.392   4.139   0.597 -0.3628 -0.1782  0.4924
  144MOL0     H19834  12.885   4.040   0.325 -0.4832 -0.6592  1.6039
  144MOL0     H19835  12.901   3.992   0.066  2.4836 -0.7233 -1.9917
  144MOL0     H19836  13.296   3.873  -0.092  2.4777 -3.9524  0.7719
  144MOL0     H19837  13.200   3.721  -0.109 -3.1426 -0.7240  0.2019
  144MOL0     H19838  13.166   3.980  -0.272  4.0278  1.0006 -0.4320
  144MOL0     H19839  13.261   3.844  -0.320 -0.3015 -2.1631  1.5234
  144MOL0     H19840  13.041   3.825  -0.435 -2.6036  1.4396  0.6159
  144MOL0     H19841  12.955   3.864  -0.289 -0.6635  0.5752  0.0916
  144MOL0     H19842  12.970   3.669  -0.198 -2.6583  0.9135 -1.7916
  144MOL0     H19843  13.102   3.608  -0.298  2.3347  3.0509  2.1128
  144MOL0     H19844  12.813   3.658  -0.364  1.5338  1.2711  5.1329
  144MOL0     H19845  12.922   3.667  -0.498 -1.4653  0.3495  0.3592
  144MOL0     H19846  12.888   3.414  -0.355  0.5287 -0.6937  0.2483
  144MOL0     H19847  13.015   3.445  -0.483 -0.4535 -0.9164 -5.1837
  144MOL0     H19848  12.838   3.508  -0.648  0.8719 -1.4542  0.0876
  144MOL0     H19849  12.710   3.465  -0.529 -0.5136  0.1950 -0.4225
  144MOL0     H19850  12.747   3.265  -0.662  0.5184  0.9087 -1.3513
  144MOL0     H19851  12.791   3.252  -0.493  1.7389  0.9312  0.9943
  144MOL0     H19852  13.279   3.796   0.127  1.1705 -0.7978  2.5794
  144MOL0     H19853  13.276   3.868   0.360  0.6954 -3.4246 -1.6644
  144MOL0     H19854  12.947   3.993   0.729  0.7422 -0.2505 -0.5219
  144MOL0     H19855  12.939   4.038   0.947  0.9209  1.7230  0.9386
  144MOL0     H19856  11.883   4.312   1.914  1.7295  0.0387 -2.5565
  144MOL0     H19857  11.724   4.217   2.073 -3.2805  2.7440 -0.8840
  144MOL0     H19858  11.353   4.054   2.269  0.9155 -1.1131 -2.0050
  144MOL0     H19859  11.206   3.917   2.391  0.6933  2.2309  0.2443
  144MOL0     H19860  10.995   3.579   2.147 -0.9326  0.6079 -1.1930
  144MOL0     H19861  10.913   3.583   2.308  3.0465 -0.8688  2.2493
  144MOL0     H19862  10.815   3.732   2.137 -0.3910 -2.3611  1.5384
  144MOL0     H19863  10.973   3.821   2.117 -1.5762  3.3820  1.3345
  144MOL0     H19864  10.767   3.817   2.351 -0.3113  0.2305 -0.4726
  144MOL0     H19865  10.927   3.896   2.370 -1.7658 -1.9896  2.7371
  144MOL0     H19866  10.725   3.970   2.138 -0.7367 -2.0388  1.9531
  144MOL0     H19867  10.888   4.030   2.180 -0.6596 -1.7669 -2.1900
  144MOL0     H19868  10.592   4.212   2.439 -1.2949 -1.9031 -2.8255
  144MOL0     H19869  11.235   3.616   2.078  2.5171 -0.1096  0.2604
  144MOL0     H19870  11.329   3.794   1.842  0.4861  0.7835  0.6770
  144MOL0     H19871  11.503   3.762   1.889  0.8277 -3.3630 -2.7362
  144MOL0     H19872  11.393   3.637   1.897  3.3381  0.5638 -3.4116
  145MOL0     O19873   4.779   8.346   3.590 -0.0558  0.7261  0.1761
  145MOL0     C19874   4.730   8.454   3.609 -0.0192  0.0728  0.7459
  145MOL0     O19875   4.598   8.483   3.642 -0.3452 -0.0305  0.7333
  145MOL0     C19876   4.489   8.397   3.619  0.2116  0.0066 -1.1733
  145MOL0     C19877   4.498   8.275   3.551 -0.6106 -0.5113  0.3106
  145MOL0     C19878   4.385   8.198   3.534 -0.8702 -0.5339  0.1134
  145MOL0     C19879   4.259   8.248   3.559 -1.0420 -0.3945 -0.5546
  145MOL0     O19880   4.155   8.173   3.510 -0.0996  0.4024  0.0115
  145MOL0     C19881   4.038   8.243   3.452  0.5053 -0.1122  0.3129
  145MOL0     C19882   3.945   8.150   3.374  0.0088 -0.3290 -1.3036
  145MOL0     C19883   3.988   8.110   3.239  0.4558  0.4518 -0.5777
  145MOL0     C19884   4.111   8.019   3.242  0.0475 -0.9433  0.0980
  145MOL0     C19885   4.133   7.954   3.108 -0.7062 -0.5051 -0.0902
  145MOL0     C19886   4.265   7.864   3.126  0.4355 -0.3192  0.4017
  145MOL0     C19887   4.300   7.802   2.989 -0.8742  0.4357  1.0401
  145MOL0     C19888   4.442   7.738   3.013  0.8253  0.2152  0.7537
  145MOL0     N19889   4.500   7.667   2.895 -0.6841  0.3426 -0.1824
  145MOL0     C19890   4.475   7.542   2.849  0.6682  0.7459  0.5920
  145MOL0     C19891   4.536   7.534   2.735 -0.7898  0.0584 -0.2514
  145MOL0     C19892   4.553   7.417   2.649 -0.1668  0.3587  0.7718
  145MOL0     C19893   4.618   7.295   2.717  0.5782  0.3434 -0.6669
  145MOL0     C19894   4.761   7.309   2.771 -0.0139  0.1221  0.0992
  145MOL0     C19895   4.860   7.388   2.691 -0.0257  0.1517  0.3230
  145MOL0     O19896   4.979   7.402   2.772 -0.2101  0.5181  0.6063
  145MOL0     C19897   5.072   7.300   2.794 -1.3711 -0.4688 -0.2202
  145MOL0     C19898   5.172   7.316   2.887 -0.9712 -0.2064 -1.1090
  145MOL0     C19899   5.269   7.222   2.916  0.0680  0.2586 -0.4094
  145MOL0     C19900   5.372   7.270   3.015  0.2830 -0.0780  0.1873
  145MOL0     C19901   5.278   7.103   2.851  0.4078  1.0148 -0.1453
  145MOL0     C19902   5.391   7.001   2.861 -1.1898  0.7071  0.3199
  145MOL0     O19903   5.422   6.935   2.749 -0.0581 -0.3997 -0.5508
  145MOL0     C19904   5.538   6.866   2.743  0.4695  0.3177  0.3976
  145MOL0     C19905   5.652   6.897   2.823 -0.4336 -0.2779  0.4344
  145MOL0     C19906   5.777   6.828   2.806 -0.4507 -0.6618 -0.4585
  145MOL0     C19907   5.778   6.719   2.712 -0.1310 -0.2798  0.8326
  145MOL0     O19908   5.874   6.634   2.686 -0.4349 -0.0475 -0.5594
  145MOL0     C19909   5.961   6.611   2.798  0.0224 -0.1054  0.4862
  145MOL0     C19910   6.037   6.487   2.767 -0.3085  0.0078  0.0748
  145MOL0     C19911   6.162   6.476   2.853 -0.6998 -0.2025  0.6080
  145MOL0     C19912   6.135   6.433   3.005  0.1238 -0.2536 -0.0986
  145MOL0     C19913   6.111   6.285   3.020 -0.4777 -0.3127 -1.3672
  145MOL0     C19914   6.073   6.247   3.160  0.6033 -0.9309  0.8237
  145MOL0     C19915   6.093   6.093   3.169  1.1854 -0.7182  0.1769
  145MOL0     C19916   6.226   6.051   3.206 -0.2864  1.4719  0.5679
  145MOL0    Cl19917   6.270   6.108   3.361 -0.0492  0.1681 -0.2261
  145MOL0     C19918   5.669   6.698   2.628 -0.4840  1.0607  0.1342
  145MOL0     C19919   5.553   6.769   2.645 -0.3577  0.2894  0.0840
  145MOL0     O19920   5.421   6.970   2.974 -0.0527  0.2778 -0.7136
  145MOL0     C19921   5.168   7.074   2.753 -1.0096  0.2541  0.1453
  145MOL0     C19922   5.075   7.176   2.727  0.6938 -0.8182  0.0883
  145MOL0     N19923   4.595   7.657   2.701  0.9310  0.2461 -0.7586
  145MOL0     N19924   4.567   7.731   2.796  0.4195 -0.0779 -0.4245
  145MOL0     C19925   4.239   8.367   3.626  0.2147  0.3656 -0.7653
  145MOL0     C19926   4.354   8.441   3.658  0.1291  0.1257 -1.0633
  145MOL0     C19927   4.823   8.566   3.624 -0.0381 -0.5141 -0.2303
  145MOL0     C19928   4.776   8.682   3.683  0.3024  0.6075 -0.5733
  145MOL0     C19929   4.850   8.798   3.684  0.9951  0.7941 -0.5240
  145MOL0     C19930   4.978   8.801   3.645 -0.5484 -0.5588 -0.7245
  145MOL0     O19931   5.046   8.921   3.664  0.8926 -0.2274 -0.4696
  145MOL0     C19932   5.186   8.924   3.637  0.0049  0.0319 -0.4168
  145MOL0     C19933   5.244   9.068   3.648 -0.1312 -0.1534 -0.0865
  145MOL0     C19934   5.298   9.118   3.785 -0.2967 -0.5679 -0.0779
  145MOL0     C19935   5.362   9.256   3.778  0.3764 -0.3437 -0.8590
  145MOL0     C19936   5.354   9.325   3.905  0.5460 -1.0147 -0.0730
  145MOL0     C19937   5.338   9.387   4.009  0.4968 -0.2662 -0.2060
  145MOL0     C19938   5.036   8.683   3.587 -0.5795  0.8088  0.3618
  145MOL0     C19939   4.960   8.566   3.576  0.1855 -1.3583 -0.3764
  145MOL0     C19940   5.007   8.461   3.482  0.4944  0.2187 -0.2676
  145MOL0     H19941   4.584   8.224   3.508 -1.1090 -1.5139  0.4774
  145MOL0     H19942   4.396   8.104   3.482  0.1176 -0.2637 -0.1861
  145MOL0     H19943   4.065   8.330   3.391 -1.0359  0.9944  1.1235
  145MOL0     H19944   3.972   8.265   3.537 -1.9217 -2.8820 -0.7046
  145MOL0     H19945   3.919   8.059   3.429  0.3170 -0.2771 -1.0755
  145MOL0     H19946   3.863   8.217   3.345 -0.8709 -0.4370  0.7305
  145MOL0     H19947   3.907   8.063   3.182  0.6062  0.9640 -1.2350
  145MOL0     H19948   4.026   8.202   3.194  0.0443  0.4738 -0.8889
  145MOL0     H19949   4.193   8.084   3.274  0.8726 -0.6183 -2.4954
  145MOL0     H19950   4.093   7.946   3.322 -2.3187  1.6290  2.1443
  145MOL0     H19951   4.155   8.030   3.033  0.3507  0.1978  0.9003
  145MOL0     H19952   4.048   7.893   3.077 -0.9365 -1.6073  2.4365
  145MOL0     H19953   4.346   7.932   3.154  0.2932  0.7288 -1.5441
  145MOL0     H19954   4.238   7.789   3.201 -3.6362 -0.0481 -0.5573
  145MOL0     H19955   4.310   7.880   2.913 -0.4017  0.2167  0.8724
  145MOL0     H19956   4.233   7.721   2.956  1.1295 -1.8420  2.2447
  145MOL0     H19957   4.498   7.829   3.035 -2.8662  2.4672  1.8129
  145MOL0     H19958   4.432   7.660   3.090  0.4413 -2.6662 -1.9895
  145MOL0     H19959   4.419   7.463   2.899  1.2670  0.1333  0.3069
  145MOL0     H19960   4.620   7.436   2.564 -0.0319  1.4618  1.1035
  145MOL0     H19961   4.452   7.388   2.620 -0.1321  0.4321  0.5758
  145MOL0     H19962   4.556   7.269   2.803 -0.3594  0.9542 -1.1446
  145MOL0     H19963   4.616   7.215   2.642  1.7581  0.8618 -1.2655
  145MOL0     H19964   4.757   7.339   2.876 -3.1063  0.3784 -0.0246
  145MOL0     H19965   4.803   7.208   2.763  1.3378  0.7488 -1.3095
  145MOL0     H19966   4.885   7.334   2.599  0.1348 -4.3255  2.6944
  145MOL0     H19967   4.818   7.484   2.661 -0.3580  0.1786  0.8578
  145MOL0     H19968   5.165   7.403   2.952 -0.1313  0.3185 -1.7114
  145MOL0     H19969   5.319   7.256   3.110  1.7752  1.0967  1.2372
  145MOL0     H19970   5.405   7.374   3.016  3.9532 -1.0986  1.1899
  145MOL0     H19971   5.458   7.203   3.014  2.2974  2.3884 -0.7339
  145MOL0     H19972   5.644   6.981   2.891 -0.5539  0.9348 -1.0208
  145MOL0     H19973   5.846   6.857   2.885 -0.2799  1.1646 -1.2261
  145MOL0     H19974   6.033   6.689   2.826 -0.4379  0.5076  0.0043
  145MOL0     H19975   5.903   6.609   2.891  1.4674  0.7089  1.4503
  145MOL0     H19976   5.983   6.392   2.765  0.6939 -0.7424  2.9280
  145MOL0     H19977   6.069   6.506   2.664  0.1168 -0.7853  0.0569
  145MOL0     H19978   6.216   6.572   2.856 -0.7598 -0.1828  1.2266
  145MOL0     H19979   6.228   6.402   2.807  0.6505  1.7539 -0.7619
  145MOL0     H19980   6.042   6.470   3.050  0.9575  0.4260  1.1290
  145MOL0     H19981   6.221   6.476   3.057  4.2191 -0.1665 -5.9125
  145MOL0     H19982   6.042   6.242   2.947  0.5044 -1.2092 -1.7975
  145MOL0     H19983   6.207   6.244   2.987  0.9847  1.6499  0.1317
  145MOL0     H19984   5.967   6.268   3.177  0.6039  0.0378 -0.2441
  145MOL0     H19985   6.130   6.297   3.240  1.8476  0.6545 -0.9507
  145MOL0     H19986   6.072   6.044   3.074 -0.9038 -2.1044  1.2712
  145MOL0     H19987   6.024   6.058   3.247  0.4933 -1.4505 -0.7496
  145MOL0     H19988   6.297   6.095   3.136  2.7956  1.0272  3.1799
  145MOL0     H19989   6.230   5.941   3.202  0.0215  1.4233  1.8517
  145MOL0     H19990   5.678   6.617   2.557 -1.1459  2.3892 -1.5203
  145MOL0     H19991   5.470   6.757   2.576  0.2301  1.1122 -0.7814
  145MOL0     H19992   5.182   6.981   2.699 -0.5845  1.4780 -1.9746
  145MOL0     H19993   5.009   7.165   2.642  1.7043  1.8098 -1.1439
  145MOL0     H19994   4.135   8.390   3.649  0.4807 -0.4460  1.5702
  145MOL0     H19995   4.348   8.536   3.709 -0.7486 -0.2813 -0.3864
  145MOL0     H19996   4.681   8.702   3.731  1.2651  0.6568  1.3861
  145MOL0     H19997   4.820   8.897   3.715 -0.2194 -0.0003  0.9849
  145MOL0     H19998   5.238   8.861   3.710 -0.2775  0.2818  0.0047
  145MOL0     H19999   5.206   8.886   3.537 -3.3094 -0.4132 -1.0142
  145MOL0     H20000   5.172   9.137   3.603 -0.2547 -0.8028 -0.9209
  145MOL0     H20001   5.326   9.074   3.575  1.1535 -0.1297  1.3034
  145MOL0     H20002   5.214   9.112   3.855 -1.2189 -0.0808 -1.1227
  145MOL0     H20003   5.373   9.044   3.814  2.6778  1.6556 -1.5861
  145MOL0     H20004   5.318   9.319   3.700 -0.4389  0.2420  0.0456
  145MOL0     H20005   5.464   9.231   3.747 -1.2159 -4.4322 -3.7464
  145MOL0     H20006   5.290   9.433   4.093 -1.2571 -4.0079  1.0477
  145MOL0     H20007   5.127   8.684   3.529 -1.0538 -1.8019 -0.5218
  145MOL0     H20008   5.033   8.370   3.538 -1.3331  2.0368  3.9578
  145MOL0     H20009   4.934   8.430   3.406  0.7876 -0.9516 -0.1034
  145MOL0     H20010   5.085   8.488   3.411 -0.2601  1.3263 -0.7001
  146MOL0     O20011   8.509  10.325   8.226  0.9374  0.3896 -0.4035
  146MOL0     C20012   8.565  10.426   8.205 -0.8411  0.0272 -0.2370
  146MOL0     O20013   8.577  10.523   8.302  0.4709 -0.4201  0.8009
  146MOL0     C20014   8.502  10.502   8.410  0.7712 -0.2293 -0.1506
  146MOL0     C20015   8.563  10.480   8.531  0.7111  1.1429 -0.3940
  146MOL0     C20016   8.490  10.484   8.645 -0.0729  0.7685  0.0524
  146MOL0     C20017   8.358  10.518   8.639 -0.4755  0.3534  0.2302
  146MOL0     O20018   8.283  10.519   8.748 -0.0099 -0.0776 -0.6102
  146MOL0     C20019   8.243  10.652   8.785 -0.2297  1.0137  0.4680
  146MOL0     C20020   8.264  10.676   8.932 -0.6241  0.0181 -0.6822
  146MOL0     C20021   8.418  10.692   8.973 -0.1866 -0.6656  0.0460
  146MOL0     C20022   8.428  10.699   9.125 -0.3932  0.4970  0.8194
  146MOL0     C20023   8.576  10.705   9.179 -0.2629  0.3923  0.2766
  146MOL0     C20024   8.659  10.819   9.116 -0.9220 -0.9068  0.5228
  146MOL0     C20025   8.777  10.835   9.209  0.0773 -0.0643  0.2781
  146MOL0     C20026   8.863  10.940   9.148  0.0920 -0.5629 -0.4528
  146MOL0     N20027   8.809  11.079   9.171 -0.3343  0.3655  0.1752
  146MOL0     C20028   8.735  11.153   9.078  0.7162  0.8703 -0.0992
  146MOL0     C20029   8.701  11.272   9.143  0.3845  0.4285  0.3365
  146MOL0     C20030   8.642  11.396   9.084  0.8816  0.7461  0.6774
  146MOL0     C20031   8.489  11.383   9.054 -0.1153  0.4888  0.3661
  146MOL0     C20032   8.406  11.515   9.059  0.0674 -0.8113 -0.1562
  146MOL0     C20033   8.462  11.635   8.976  0.8127  0.2260 -0.3438
  146MOL0     O20034   8.451  11.753   9.053 -0.1692  0.2505 -0.2238
  146MOL0     C20035   8.475  11.879   8.996 -0.1674 -0.6007 -0.6576
  146MOL0     C20036   8.606  11.932   8.997  0.5034 -0.4943  0.3007
  146MOL0     C20037   8.628  12.061   8.944  1.0566  0.6605 -0.1437
  146MOL0     C20038   8.767  12.108   8.934 -0.0955 -0.4792  0.5766
  146MOL0     C20039   8.516  12.134   8.877 -0.5722 -0.0049  0.1035
  146MOL0     C20040   8.525  12.272   8.836 -1.3472  0.3754  0.3054
  146MOL0     O20041   8.628  12.344   8.880  0.0196 -0.7268 -0.9052
  146MOL0     C20042   8.641  12.469   8.837  0.2256 -0.4524  0.2239
  146MOL0     C20043   8.588  12.574   8.908 -0.9023 -0.3519  0.0345
  146MOL0     C20044   8.590  12.700   8.860  0.7039 -0.5505  0.2991
  146MOL0     C20045   8.651  12.733   8.745  0.8739 -0.3673 -0.1394
  146MOL0     O20046   8.674  12.861   8.694 -0.2552  0.7048 -0.9870
  146MOL0     C20047   8.590  12.978   8.733  0.4474  0.6777  0.3041
  146MOL0     C20048   8.585  13.074   8.615  0.2451  0.7345  0.5121
  146MOL0     C20049   8.729  13.114   8.567  0.0509 -0.8101  0.3868
  146MOL0     C20050   8.807  13.181   8.672 -0.0954  0.5142  1.0148
  146MOL0     C20051   8.925  13.250   8.620  0.7221 -0.1808 -0.1771
  146MOL0     C20052   9.018  13.178   8.522  0.5366  0.1078 -0.3203
  146MOL0     C20053   9.154  13.250   8.518 -1.0270 -0.4454 -1.1075
  146MOL0     C20054   9.248  13.218   8.408 -0.5000 -0.3219  0.3701
  146MOL0    Cl20055   9.384  13.345   8.405  0.3057  0.4551  0.0273
  146MOL0     C20056   8.694  12.630   8.667  0.1240  1.4561  0.2162
  146MOL0     C20057   8.700  12.500   8.717 -0.9389 -0.5524  0.3842
  146MOL0     O20058   8.441  12.319   8.752 -0.1146 -0.1060 -0.0773
  146MOL0     C20059   8.385  12.075   8.872 -0.7113  0.8406  0.0760
  146MOL0     C20060   8.362  11.953   8.944 -0.3719  0.2884  0.6496
  146MOL0     N20061   8.740  11.257   9.279  0.5481 -0.8552 -0.1986
  146MOL0     N20062   8.805  11.140   9.288 -0.0568  0.6594 -1.3145
  146MOL0     C20063   8.291  10.550   8.525 -0.1801  0.4268  0.4522
  146MOL0     C20064   8.363  10.540   8.410  0.1483 -0.3638  0.7110
  146MOL0     C20065   8.615  10.449   8.067  0.1190 -0.5609 -0.3027
  146MOL0     C20066   8.598  10.583   8.025  0.0038  0.2969  0.4641
  146MOL0     C20067   8.637  10.610   7.894  0.5710 -0.2198  0.4007
  146MOL0     C20068   8.691  10.513   7.809  0.0222 -0.3260  0.0093
  146MOL0     O20069   8.717  10.539   7.678  0.8951 -0.0954 -0.7250
  146MOL0     C20070   8.625  10.481   7.584  0.0878 -0.4231 -0.8722
  146MOL0     C20071   8.624  10.568   7.457  0.2815 -0.5437 -0.0860
  146MOL0     C20072   8.636  10.714   7.508  0.2678 -0.5652 -0.6984
  146MOL0     C20073   8.599  10.827   7.408 -0.4040 -0.0667  0.2849
  146MOL0     C20074   8.693  10.845   7.295  0.7148 -0.5207  0.6294
  146MOL0     C20075   8.743  10.888   7.196  0.0191 -0.6531 -0.2014
  146MOL0     C20076   8.728  10.387   7.865 -0.8841 -1.3991  0.5174
  146MOL0     C20077   8.683  10.356   7.996  0.5659 -0.0989  0.5428
  146MOL0     C20078   8.717  10.217   8.049 -0.4522 -0.1472  0.2495
  146MOL0     H20079   8.666  10.446   8.529 -0.0965 -1.5553 -1.6550
  146MOL0     H20080   8.545  10.466   8.737  1.4827  1.3690 -0.7197
  146MOL0     H20081   8.135  10.663   8.776 -0.5873 -0.9537  1.8726
  146MOL0     H20082   8.293  10.730   8.727  1.0227  1.1553  1.6773
  146MOL0     H20083   8.211  10.768   8.956 -0.4023  0.1414 -0.6599
  146MOL0     H20084   8.215  10.592   8.983 -2.0535  2.1241  1.6609
  146MOL0     H20085   8.484  10.611   8.939 -0.2450 -0.2765 -1.0314
  146MOL0     H20086   8.460  10.780   8.925 -0.5606  0.9827  2.5760
  146MOL0     H20087   8.368  10.783   9.161 -2.9571 -0.7842 -0.2245
  146MOL0     H20088   8.389  10.602   9.157  2.5891 -1.3803 -0.6980
  146MOL0     H20089   8.614  10.607   9.148 -3.7255 -0.0919 -3.1890
  146MOL0     H20090   8.575  10.713   9.288 -3.6123  0.2472  0.3612
  146MOL0     H20091   8.688  10.792   9.015 -0.1995  2.6136 -0.3396
  146MOL0     H20092   8.599  10.910   9.114 -2.0541 -1.5185  2.7708
  146MOL0     H20093   8.837  10.744   9.209 -1.4879 -1.1338  0.9927
  146MOL0     H20094   8.745  10.864   9.310  2.5264  1.6020  0.6572
  146MOL0     H20095   8.961  10.941   9.197  1.7577 -0.3750 -3.5599
  146MOL0     H20096   8.883  10.917   9.043 -0.3404  1.1585 -0.9492
  146MOL0     H20097   8.710  11.134   8.974 -2.1282  3.5739 -0.0779
  146MOL0     H20098   8.696  11.430   8.996 -0.2168  1.4200  0.2369
  146MOL0     H20099   8.643  11.468   9.167 -0.5173 -0.2762  1.6356
  146MOL0     H20100   8.482  11.326   8.961 -1.8923  2.2282 -0.6583
  146MOL0     H20101   8.446  11.320   9.133  1.1170 -3.5056 -1.8896
  146MOL0     H20102   8.306  11.503   9.017  1.2215 -1.7766 -2.9002
  146MOL0     H20103   8.401  11.537   9.166  1.4712  2.1824 -0.5912
  146MOL0     H20104   8.557  11.622   8.923  0.0219 -1.8223 -1.3691
  146MOL0     H20105   8.395  11.644   8.890  0.6696  2.2070 -0.0722
  146MOL0     H20106   8.677  11.863   9.041 -0.7169 -1.6615  0.4938
  146MOL0     H20107   8.797  12.170   8.849 -1.0497 -0.6444  0.1036
  146MOL0     H20108   8.821  12.014   8.923  0.3839 -0.0053 -1.4150
  146MOL0     H20109   8.810  12.146   9.028  0.2578 -1.8100  0.9791
  146MOL0     H20110   8.539  12.557   9.004 -0.7693  1.1834  0.3899
  146MOL0     H20111   8.562  12.778   8.930 -1.7484 -0.7537 -0.3845
  146MOL0     H20112   8.487  12.947   8.757  0.8125  0.7643  2.1520
  146MOL0     H20113   8.624  13.025   8.826 -0.1377  1.4857  0.1163
  146MOL0     H20114   8.520  13.037   8.536 -0.6272 -0.6069  1.7978
  146MOL0     H20115   8.525  13.158   8.652 -1.0815 -1.6518  4.3773
  146MOL0     H20116   8.717  13.179   8.480 -1.5859 -0.2326  1.0237
  146MOL0     H20117   8.783  13.024   8.535  0.1862 -1.5158  2.4116
  146MOL0     H20118   8.847  13.104   8.738  0.9667  2.4694  2.7776
  146MOL0     H20119   8.760  13.267   8.720  4.0897  2.9390  1.2369
  146MOL0     H20120   8.907  13.355   8.593 -0.6551  0.3103  2.3325
  146MOL0     H20121   8.985  13.250   8.712  0.2219 -3.4203  0.2478
  146MOL0     H20122   8.964  13.187   8.428 -1.4561 -3.5213  0.2937
  146MOL0     H20123   9.030  13.074   8.554  0.2527  0.9530  3.0031
  146MOL0     H20124   9.198  13.230   8.616  0.4538 -1.7581 -1.9976
  146MOL0     H20125   9.131  13.357   8.507 -0.3530 -0.3332 -1.4877
  146MOL0     H20126   9.216  13.216   8.304  0.1364  1.8134  0.0811
  146MOL0     H20127   9.289  13.119   8.430  0.5539  0.3194  1.4446
  146MOL0     H20128   8.744  12.652   8.573  3.0162 -1.3714  0.9193
  146MOL0     H20129   8.747  12.424   8.656 -1.5943 -1.3152  0.8020
  146MOL0     H20130   8.307  12.136   8.827 -0.3438  0.8543 -0.5604
  146MOL0     H20131   8.267  11.903   8.929 -0.9046  1.8543 -1.8209
  146MOL0     H20132   8.188  10.580   8.515  0.1443  0.6980 -3.6140
  146MOL0     H20133   8.324  10.565   8.312  2.0218  1.1485  0.2911
  146MOL0     H20134   8.556  10.656   8.093  1.3552 -2.2110  4.3091
  146MOL0     H20135   8.633  10.708   7.846  3.6262 -0.4556 -0.5577
  146MOL0     H20136   8.663  10.384   7.550  0.5730  0.5694 -3.3980
  146MOL0     H20137   8.526  10.476   7.629 -0.1921  0.8178 -1.3287
  146MOL0     H20138   8.532  10.553   7.400  1.0644 -1.2098 -1.2196
  146MOL0     H20139   8.705  10.542   7.388 -0.4887 -0.3387 -1.0753
  146MOL0     H20140   8.579  10.727   7.600  0.1763  0.9764 -0.9378
  146MOL0     H20141   8.740  10.738   7.528  0.1504  1.3573 -2.1045
  146MOL0     H20142   8.610  10.929   7.446 -0.5016  0.4741 -1.0828
  146MOL0     H20143   8.496  10.812   7.377  0.0803 -2.3629 -0.4401
  146MOL0     H20144   8.783  10.924   7.103 -1.2186  0.5985 -0.2763
  146MOL0     H20145   8.786  10.316   7.807  0.2050 -0.3794  0.3289
  146MOL0     H20146   8.627  10.155   8.040 -0.3529 -0.0001 -2.9082
  146MOL0     H20147   8.794  10.158   7.999 -0.8421 -1.0199  0.6696
  146MOL0     H20148   8.755  10.228   8.151  0.3945 -0.8216  0.0124
  147MOL0     O20149   1.783   8.736  11.456  0.1893 -0.2272  0.5418
  147MOL0     C20150   1.674   8.669  11.451  0.4406 -0.1626  0.3743
  147MOL0     O20151   1.549   8.720  11.482 -0.2043  0.3360  0.6636
  147MOL0     C20152   1.521   8.853  11.489  0.4025 -0.8871 -0.6638
  147MOL0     C20153   1.379   8.879  11.479 -0.5615 -0.1267 -0.2447
  147MOL0     C20154   1.335   9.012  11.468 -0.0126 -0.2300  1.1710
  147MOL0     C20155   1.422   9.120  11.469  0.5093 -0.8889  0.0938
  147MOL0     O20156   1.389   9.254  11.465 -0.5845 -1.1040 -0.5947
  147MOL0     C20157   1.276   9.311  11.399  0.2711 -0.4558  0.0869
  147MOL0     C20158   1.247   9.443  11.474  0.4511  0.4171 -0.1549
  147MOL0     C20159   1.133   9.515  11.402  1.1106 -0.3773  0.6738
  147MOL0     C20160   1.049   9.593  11.505 -0.4600  0.1439 -0.5319
  147MOL0     C20161   0.956   9.499  11.584 -0.1623 -0.5685 -0.9281
  147MOL0     C20162   0.849   9.584  11.661  1.3023  0.0875 -0.0244
  147MOL0     C20163   0.752   9.490  11.736 -0.0142  0.5040 -0.0263
  147MOL0     C20164   0.791   9.446  11.875  0.3955 -0.3209  0.4948
  147MOL0     N20165   0.798   9.551  11.966  0.3230 -0.4066 -0.2487
  147MOL0     C20166   0.696   9.597  12.042 -0.7335 -0.4201 -0.5599
  147MOL0     C20167   0.750   9.703  12.110  0.2681  0.5874 -0.6203
  147MOL0     C20168   0.651   9.765  12.203 -0.0642 -0.2193  0.7729
  147MOL0     C20169   0.695   9.908  12.245  0.6829  0.8032 -0.2157
  147MOL0     C20170   0.629  10.004  12.143 -0.4352 -0.1019  0.1707
  147MOL0     C20171   0.652  10.145  12.171 -1.7017 -0.0789 -0.0602
  147MOL0     O20172   0.797  10.169  12.182  0.0565  1.0103  0.4950
  147MOL0     C20173   0.840  10.297  12.187  0.0247  0.2445 -0.1764
  147MOL0     C20174   0.975  10.313  12.205 -0.3109  0.5717  0.3290
  147MOL0     C20175   1.035  10.436  12.212 -1.3577  0.5653  0.2930
  147MOL0     C20176   1.188  10.433  12.192 -0.6632 -0.5080 -0.3516
  147MOL0     C20177   0.955  10.552  12.206 -0.4349 -0.1291 -0.5407
  147MOL0     C20178   1.016  10.682  12.220 -0.1762 -0.1819 -0.6491
  147MOL0     O20179   1.130  10.693  12.298  0.3538  0.1257  0.5551
  147MOL0     C20180   1.204  10.803  12.318  0.1991 -1.0787  0.8116
  147MOL0     C20181   1.311  10.798  12.406 -0.0584  0.5262 -0.7646
  147MOL0     C20182   1.393  10.912  12.438 -0.3885 -0.7513 -0.2685
  147MOL0     C20183   1.387  11.017  12.356 -0.1553 -0.5879  0.6945
  147MOL0     O20184   1.472  11.123  12.367 -0.2713 -0.6813 -0.1950
  147MOL0     C20185   1.606  11.086  12.353  0.1180 -0.6422 -0.1521
  147MOL0     C20186   1.667  11.213  12.292 -0.4442  0.5197 -0.0475
  147MOL0     C20187   1.812  11.194  12.262 -1.0360 -1.0849 -0.1559
  147MOL0     C20188   1.915  11.177  12.374 -0.4352 -0.4052  0.2907
  147MOL0     C20189   1.949  11.310  12.445 -0.8666 -0.3926 -0.2110
  147MOL0     C20190   2.031  11.282  12.574 -0.3681  0.4988  0.7924
  147MOL0     C20191   2.098  11.411  12.620  0.1638  0.3539 -1.7516
  147MOL0     C20192   2.171  11.404  12.761  0.0750  1.3517 -0.8522
  147MOL0    Cl20193   2.262  11.251  12.787 -0.0345 -0.4426 -0.1098
  147MOL0     C20194   1.284  11.022  12.261 -0.9917 -0.0397 -0.8345
  147MOL0     C20195   1.195  10.923  12.253 -0.3376  0.3204  0.4578
  147MOL0     O20196   0.969  10.771  12.147  0.6722  0.5934  0.0433
  147MOL0     C20197   0.818  10.538  12.197  0.3027 -0.2705  0.2411
  147MOL0     C20198   0.751  10.415  12.188  0.5893  0.6620 -0.4191
  147MOL0     N20199   0.885   9.708  12.091  0.3246 -1.2175  0.2701
  147MOL0     N20200   0.914   9.610  12.002  0.1337  0.7891 -0.1222
  147MOL0     C20201   1.557   9.096  11.477  0.1593  0.3051 -0.2965
  147MOL0     C20202   1.609   8.964  11.496  1.0401 -0.4235 -0.3145
  147MOL0     C20203   1.681   8.517  11.421 -0.1168 -0.6918 -0.8821
  147MOL0     C20204   1.809   8.459  11.427 -0.2830 -0.2914 -0.6025
  147MOL0     C20205   1.829   8.320  11.421 -0.2715  0.6296  0.6886
  147MOL0     C20206   1.726   8.232  11.418 -0.1210 -1.2256  0.6582
  147MOL0     O20207   1.722   8.094  11.415 -0.3090  0.5553  0.7172
  147MOL0     C20208   1.848   8.032  11.446  0.4570  0.1326 -0.9081
  147MOL0     C20209   1.827   7.883  11.448  0.8784  0.8022 -0.4288
  147MOL0     C20210   1.791   7.828  11.315  0.2521 -0.4167  0.1265
  147MOL0     C20211   1.788   7.675  11.304 -0.1485 -0.5032 -0.4317
  147MOL0     C20212   1.672   7.611  11.372 -0.6221 -0.5235 -0.4194
  147MOL0     C20213   1.564   7.576  11.422  0.1575 -0.6683  1.1069
  147MOL0     C20214   1.600   8.294  11.411  0.5556  0.6657 -0.4314
  147MOL0     C20215   1.575   8.431  11.416  0.7195  0.7147  0.0537
  147MOL0     C20216   1.429   8.462  11.382 -0.1276 -0.6600  0.1466
  147MOL0     H20217   1.317   8.791  11.490  0.0337 -0.5057  0.1477
  147MOL0     H20218   1.227   9.023  11.471 -0.1209 -1.0721  5.2678
  147MOL0     H20219   1.185   9.250  11.409  0.9064 -1.6048 -0.9285
  147MOL0     H20220   1.290   9.326  11.292  2.1591 -0.1830  0.3491
  147MOL0     H20221   1.223   9.420  11.578 -1.2548 -2.3258 -1.0616
  147MOL0     H20222   1.335   9.508  11.460  0.5958  0.3016  0.2027
  147MOL0     H20223   1.175   9.586  11.330 -0.9381  2.4056  2.0120
  147MOL0     H20224   1.058   9.454  11.350  2.3234  1.1201 -3.1462
  147MOL0     H20225   1.109   9.660  11.567 -0.8529  0.0002  0.0195
  147MOL0     H20226   0.992   9.666  11.448  0.3429  1.1762 -0.0447
  147MOL0     H20227   1.007   9.422  11.643 -0.7163 -2.0939 -2.3589
  147MOL0     H20228   0.888   9.452  11.514 -4.1233  0.4617  1.8952
  147MOL0     H20229   0.902   9.651  11.729  1.9717 -1.5931  1.1834
  147MOL0     H20230   0.799   9.645  11.586 -0.0970 -0.9800  0.0133
  147MOL0     H20231   0.731   9.393  11.690 -4.1205  1.1653  0.1056
  147MOL0     H20232   0.661   9.550  11.747  0.0311  0.1052  3.4281
  147MOL0     H20233   0.703   9.400  11.922 -0.5030  1.3139  0.4827
  147MOL0     H20234   0.874   9.375  11.873  1.5356  0.9866 -0.5971
  147MOL0     H20235   0.596   9.556  12.046  0.5191 -3.8889 -0.9920
  147MOL0     H20236   0.637   9.695  12.287 -3.3479 -0.0172  0.5365
  147MOL0     H20237   0.550   9.776  12.161 -0.4325 -2.3435  1.0001
  147MOL0     H20238   0.644   9.929  12.339 -0.5083  2.7759 -1.2183
  147MOL0     H20239   0.802   9.926  12.257  0.6306  0.9000  0.1051
  147MOL0     H20240   0.668   9.984  12.042  0.5880  0.2814  0.4826
  147MOL0     H20241   0.520   9.989  12.140 -1.1355  3.9267  0.0809
  147MOL0     H20242   0.613  10.214  12.096  0.6238  1.9035  0.4314
  147MOL0     H20243   0.601  10.178  12.261 -1.2745  0.3898  0.0128
  147MOL0     H20244   1.028  10.220  12.187  0.5109  1.3087 -1.2604
  147MOL0     H20245   1.252  10.466  12.275 -1.4989  2.6571 -0.8284
  147MOL0     H20246   1.202  10.514  12.119  0.3374  3.0634  3.4058
  147MOL0     H20247   1.225  10.334  12.165  1.7037  0.0912  0.4398
  147MOL0     H20248   1.318  10.716  12.477 -2.2978  1.8404  1.1254
  147MOL0     H20249   1.477  10.904  12.506 -0.8371  1.2060  0.6001
  147MOL0     H20250   1.657  11.056  12.445 -1.9134 -0.3886  1.0977
  147MOL0     H20251   1.612  11.017  12.268  0.7834  2.5233 -2.8533
  147MOL0     H20252   1.614  11.227  12.198  1.4664  1.3181 -1.0655
  147MOL0     H20253   1.669  11.294  12.365  1.9485 -0.4866  1.1387
  147MOL0     H20254   1.846  11.286  12.215  0.7220 -3.1177 -3.2803
  147MOL0     H20255   1.823  11.117  12.185  3.5887 -0.9699  0.1070
  147MOL0     H20256   2.011  11.129  12.355 -0.2323 -0.9640  2.4496
  147MOL0     H20257   1.869  11.119  12.455  1.6184 -0.7519  1.2790
  147MOL0     H20258   2.006  11.379  12.382  0.0618 -1.9211 -1.1053
  147MOL0     H20259   1.856  11.355  12.481 -0.0008 -1.6153  4.2159
  147MOL0     H20260   2.114  11.213  12.557  1.1188  2.2177  0.8407
  147MOL0     H20261   1.963  11.250  12.654 -1.0758  0.3143  0.1333
  147MOL0     H20262   2.021  11.488  12.626 -1.7132 -1.5336  1.8630
  147MOL0     H20263   2.176  11.431  12.545  2.3434 -1.5233 -0.1277
  147MOL0     H20264   2.084  11.407  12.826 -0.4937  2.1206 -1.6146
  147MOL0     H20265   2.230  11.493  12.787 -1.8652  2.6191 -0.6177
  147MOL0     H20266   1.283  11.110  12.198  1.4068  1.5794  1.1918
  147MOL0     H20267   1.130  10.936  12.167  2.8688 -0.3018 -2.2517
  147MOL0     H20268   0.755  10.627  12.203 -1.6627 -1.6719  2.1364
  147MOL0     H20269   0.645  10.400  12.172  1.2261 -1.3993 -3.6040
  147MOL0     H20270   1.618   9.186  11.474 -3.6476  3.1718  0.4567
  147MOL0     H20271   1.717   8.961  11.507  1.0172  0.1745  0.1131
  147MOL0     H20272   1.893   8.525  11.444 -1.0306  0.8516 -1.2151
  147MOL0     H20273   1.933   8.296  11.407 -0.4724  1.1826 -2.2386
  147MOL0     H20274   1.918   8.051  11.364 -0.1142  0.0375 -1.4358
  147MOL0     H20275   1.887   8.069  11.541 -0.3121  2.1105 -1.3113
  147MOL0     H20276   1.745   7.871  11.518  0.5628 -0.6300 -1.0051
  147MOL0     H20277   1.915   7.835  11.492 -0.3248  0.2433  1.4376
  147MOL0     H20278   1.689   7.854  11.286 -0.7011 -2.8607  1.0544
  147MOL0     H20279   1.858   7.866  11.238 -0.0071 -0.6172 -0.1997
  147MOL0     H20280   1.873   7.633  11.358  0.2963 -0.9747 -1.4826
  147MOL0     H20281   1.789   7.649  11.198  0.0438 -0.2890 -0.4822
  147MOL0     H20282   1.464   7.548  11.452  0.2473 -1.0492  1.0595
  147MOL0     H20283   1.510   8.234  11.402  0.2870  1.3174 -2.6114
  147MOL0     H20284   1.351   8.387  11.397  0.0358 -0.6928  0.8522
  147MOL0     H20285   1.399   8.557  11.425 -1.5232  1.4579 -4.7971
  147MOL0     H20286   1.430   8.494  11.277 -0.1149  0.4137  0.4669
  148MOL0     O20287   8.148   6.102   4.045  0.3990  0.4282  0.1547
  148MOL0     C20288   8.039   6.123   3.989 -0.0008 -0.0878  0.0758
  148MOL0     O20289   8.006   6.246   3.932 -0.4152  0.1282  0.0437
  148MOL0     C20290   8.109   6.334   3.900  0.6420  0.2544 -0.3139
  148MOL0     C20291   8.150   6.433   3.987 -0.6506 -0.3202 -0.1884
  148MOL0     C20292   8.241   6.539   3.950  0.0016  0.1975  0.1392
  148MOL0     C20293   8.293   6.523   3.824  0.0240  0.2140 -0.6525
  148MOL0     O20294   8.384   6.613   3.777 -0.5540 -0.4333  0.4003
  148MOL0     C20295   8.467   6.695   3.865 -0.0461  0.3350 -0.9637
  148MOL0     C20296   8.564   6.777   3.779 -0.0163  0.4463  0.1698
  148MOL0     C20297   8.491   6.868   3.675  0.4252  0.3292  0.2372
  148MOL0     C20298   8.580   6.935   3.571  1.3095 -0.3175 -0.8189
  148MOL0     C20299   8.670   7.041   3.626 -0.2500 -0.5753  1.1931
  148MOL0     C20300   8.775   7.059   3.519 -0.1746 -0.1208 -0.2625
  148MOL0     C20301   8.857   7.185   3.562 -0.0474 -1.2824  0.8308
  148MOL0     C20302   8.940   7.243   3.443  1.0624 -0.1717 -0.3268
  148MOL0     N20303   8.887   7.376   3.420 -0.6821 -0.8994  0.3752
  148MOL0     C20304   8.753   7.414   3.397 -1.0467  0.4236 -0.2989
  148MOL0     C20305   8.758   7.548   3.400  0.4013  0.1701  0.0862
  148MOL0     C20306   8.631   7.630   3.372  0.1967 -0.6893 -0.1634
  148MOL0     C20307   8.592   7.617   3.222 -0.3998  0.3026  0.3402
  148MOL0     C20308   8.468   7.697   3.199 -0.1627 -0.1811 -0.2836
  148MOL0     C20309   8.456   7.736   3.050  1.2217  0.2663 -0.2613
  148MOL0     O20310   8.351   7.828   3.038  0.3068  0.5183 -0.4910
  148MOL0     C20311   8.299   7.847   2.912 -0.4438 -0.0809 -0.2078
  148MOL0     C20312   8.158   7.877   2.906 -0.8259  0.2663  0.2188
  148MOL0     C20313   8.092   7.905   2.778  0.4651 -0.1494 -1.0569
  148MOL0     C20314   7.936   7.922   2.785 -0.2680 -0.9584  0.1051
  148MOL0     C20315   8.172   7.908   2.658  0.1214  0.0634 -0.1209
  148MOL0     C20316   8.130   7.952   2.530  0.2795 -0.1729 -0.9315
  148MOL0     O20317   8.211   7.922   2.424 -1.1086 -0.2883 -0.0891
  148MOL0     C20318   8.176   7.950   2.293  0.7150  0.7266 -0.0831
  148MOL0     C20319   8.276   8.014   2.214  1.6449 -0.3383 -0.6167
  148MOL0     C20320   8.259   8.019   2.076 -0.4367 -0.5243  0.1229
  148MOL0     C20321   8.132   7.986   2.017 -0.6149  0.6022 -0.0016
  148MOL0     O20322   8.093   7.995   1.887  0.2657  0.2518  0.2623
  148MOL0     C20323   8.183   8.047   1.785  0.0236  0.3654 -0.5711
  148MOL0     C20324   8.188   8.199   1.804 -0.4856 -0.4186 -0.0486
  148MOL0     C20325   8.050   8.280   1.815 -0.3515 -0.0882 -0.4026
  148MOL0     C20326   7.998   8.295   1.666 -0.5507 -0.1703 -0.1002
  148MOL0     C20327   7.858   8.346   1.678 -0.5122 -0.3075  0.0533
  148MOL0     C20328   7.759   8.298   1.574 -0.9867  0.5273 -0.0848
  148MOL0     C20329   7.794   8.342   1.432  0.4652 -0.4036  0.9453
  148MOL0     C20330   7.670   8.313   1.339 -0.1555 -0.1383  0.1266
  148MOL0    Cl20331   7.712   8.316   1.179 -0.3648  0.2596  0.7825
  148MOL0     C20332   8.042   7.928   2.104  0.6199  0.4838  0.3315
  148MOL0     C20333   8.056   7.895   2.236 -0.5089 -0.0806  0.2571
  148MOL0     O20334   8.017   7.991   2.515 -0.2547  0.4401  1.0820
  148MOL0     C20335   8.308   7.876   2.674  0.6334 -0.4677 -1.4870
  148MOL0     C20336   8.367   7.848   2.796  0.8814  0.1635  0.2005
  148MOL0     N20337   8.884   7.588   3.430  0.1107 -0.1393  0.0554
  148MOL0     N20338   8.963   7.494   3.436 -0.3021 -0.4644 -0.1385
  148MOL0     C20339   8.253   6.423   3.737  0.6193 -0.9162  0.0997
  148MOL0     C20340   8.158   6.335   3.769 -0.2521  0.3149  0.4333
  148MOL0     C20341   7.943   6.015   3.964  0.1948 -0.1035  0.8699
  148MOL0     C20342   7.993   5.883   3.974  0.2036 -0.4416 -0.2618
  148MOL0     C20343   7.913   5.771   3.949  0.8774  0.1316 -0.9079
  148MOL0     C20344   7.775   5.797   3.927  0.1278  0.9858 -0.3161
  148MOL0     O20345   7.677   5.698   3.918  0.1666 -0.0749  0.6339
  148MOL0     C20346   7.712   5.578   3.982 -0.6930 -1.0632 -0.3394
  148MOL0     C20347   7.591   5.482   3.964  0.7066 -0.2148 -0.1421
  148MOL0     C20348   7.621   5.339   4.010  1.5424  0.1657 -0.1312
  148MOL0     C20349   7.706   5.262   3.906 -0.3049  0.0946  0.5936
  148MOL0     C20350   7.733   5.125   3.951  0.9173 -1.1992 -0.1920
  148MOL0     C20351   7.752   5.009   3.979  0.0575 -0.3775  0.1219
  148MOL0     C20352   7.729   5.919   3.906  0.1890  0.2837 -0.3037
  148MOL0     C20353   7.808   6.033   3.933  0.2972 -0.6020  0.6094
  148MOL0     C20354   7.741   6.166   3.916 -0.2205 -0.4452  0.7485
  148MOL0     H20355   8.111   6.431   4.088 -1.6215  2.0393 -0.4526
  148MOL0     H20356   8.263   6.616   4.023 -0.5849  0.3159  0.2000
  148MOL0     H20357   8.525   6.629   3.930  0.7541  1.3613 -0.6167
  148MOL0     H20358   8.394   6.754   3.920  0.0925  1.3915 -1.8839
  148MOL0     H20359   8.621   6.842   3.847  1.0691 -0.0457 -0.2406
  148MOL0     H20360   8.632   6.711   3.724 -2.5396 -1.0204 -1.3472
  148MOL0     H20361   8.418   6.799   3.633 -0.1778 -1.1406  3.4214
  148MOL0     H20362   8.432   6.945   3.725 -2.1360 -1.6349  0.4261
  148MOL0     H20363   8.643   6.857   3.526  1.8359 -0.7254  0.5659
  148MOL0     H20364   8.508   6.976   3.500 -0.6540 -2.0744  0.0697
  148MOL0     H20365   8.714   7.003   3.719  2.4895  0.3681  0.3676
  148MOL0     H20366   8.599   7.118   3.656 -1.0180 -0.2677 -1.2215
  148MOL0     H20367   8.837   6.970   3.509  0.4228 -0.0226  2.0667
  148MOL0     H20368   8.721   7.082   3.427 -0.4512  2.8732  0.5498
  148MOL0     H20369   8.925   7.156   3.642  1.7672 -2.4504 -1.0222
  148MOL0     H20370   8.791   7.264   3.599  2.5012  2.0423 -1.1487
  148MOL0     H20371   9.041   7.252   3.482  0.5800  0.1286  0.8956
  148MOL0     H20372   8.929   7.181   3.353  0.4196 -0.9277  0.2605
  148MOL0     H20373   8.668   7.349   3.376 -0.7893  0.0220 -0.1261
  148MOL0     H20374   8.656   7.736   3.383  1.1804 -1.0040  0.8310
  148MOL0     H20375   8.545   7.604   3.435  0.1744  1.0137  0.5596
  148MOL0     H20376   8.674   7.658   3.162  0.8228 -1.5549  0.6640
  148MOL0     H20377   8.576   7.514   3.192 -2.1317  0.9640 -1.1596
  148MOL0     H20378   8.378   7.638   3.221 -0.2575 -0.1998 -0.7150
  148MOL0     H20379   8.459   7.789   3.258 -0.9923 -0.3134 -0.1892
  148MOL0     H20380   8.547   7.786   3.015 -0.7421  4.3299 -0.1855
  148MOL0     H20381   8.444   7.642   2.995 -1.2895  1.0803 -1.2328
  148MOL0     H20382   8.099   7.884   2.997 -0.6600  1.1268  0.2725
  148MOL0     H20383   7.895   7.865   2.700 -0.9733 -0.3329  0.0208
  148MOL0     H20384   7.909   8.026   2.766  0.0035 -0.8631  0.2304
  148MOL0     H20385   7.899   7.902   2.886 -2.3165  0.9308 -0.1927
  148MOL0     H20386   8.364   8.044   2.270 -1.0121  2.6865  2.4474
  148MOL0     H20387   8.336   8.078   2.028 -0.3691  0.1566  1.0286
  148MOL0     H20388   8.280   8.000   1.800 -1.6057 -2.3430  3.0386
  148MOL0     H20389   8.145   8.028   1.684 -1.4819 -0.7461  0.1592
  148MOL0     H20390   8.245   8.230   1.893  0.2482  2.3412 -1.3408
  148MOL0     H20391   8.258   8.232   1.726  0.4706 -2.7125 -0.2485
  148MOL0     H20392   8.049   8.382   1.855  1.7854  0.1250 -0.7738
  148MOL0     H20393   7.978   8.221   1.871  0.8003  0.4872  1.7765
  148MOL0     H20394   7.992   8.200   1.612 -2.4604 -0.6883  0.9170
  148MOL0     H20395   8.062   8.368   1.616 -4.0234  4.1900  1.1706
  148MOL0     H20396   7.820   8.323   1.777  2.1697 -0.9633  1.0283
  148MOL0     H20397   7.868   8.453   1.657 -0.6268 -0.8151 -3.2437
  148MOL0     H20398   7.666   8.350   1.600 -1.5232  0.7363 -2.2467
  148MOL0     H20399   7.738   8.191   1.577 -1.9988  0.7292  1.7016
  148MOL0     H20400   7.877   8.292   1.380  0.2925 -1.3675  1.5890
  148MOL0     H20401   7.829   8.446   1.439 -0.1336  0.0024 -1.2095
  148MOL0     H20402   7.594   8.389   1.355 -0.0895 -0.0819  0.1723
  148MOL0     H20403   7.630   8.215   1.366 -0.3222  0.1835  1.0561
  148MOL0     H20404   7.949   7.896   2.058  0.5794  0.6923  0.2661
  148MOL0     H20405   7.982   7.845   2.297 -1.0082 -0.1532 -0.4022
  148MOL0     H20406   8.379   7.877   2.592 -0.4725  2.2377 -2.5089
  148MOL0     H20407   8.470   7.814   2.788  0.3520 -2.1164  2.0105
  148MOL0     H20408   8.294   6.407   3.638  0.9181 -0.3247  0.1203
  148MOL0     H20409   8.125   6.255   3.704  2.0462 -1.8507  1.7759
  148MOL0     H20410   8.093   5.878   4.016 -0.3178  1.5069  1.3685
  148MOL0     H20411   7.964   5.678   3.969  1.3191  1.2283  5.1395
  148MOL0     H20412   7.799   5.532   3.934 -3.3958 -3.0116 -3.8618
  148MOL0     H20413   7.734   5.607   4.085 -2.6701  0.1692 -0.2062
  148MOL0     H20414   7.561   5.481   3.859  1.3922 -1.8858 -0.3590
  148MOL0     H20415   7.512   5.537   4.016  0.6320 -1.7544  1.4663
  148MOL0     H20416   7.666   5.331   4.109 -1.9142 -1.0342  1.4929
  148MOL0     H20417   7.520   5.298   4.001  1.3842  0.9501 -2.5471
  148MOL0     H20418   7.788   5.329   3.880 -1.5814  0.7373 -2.2022
  148MOL0     H20419   7.644   5.266   3.816 -2.3674  1.5996  1.9930
  148MOL0     H20420   7.774   4.906   3.994  2.6506  0.0782 -0.0605
  148MOL0     H20421   7.622   5.926   3.885  0.3756  1.2304 -1.0156
  148MOL0     H20422   7.634   6.157   3.895 -0.5238 -0.2779  2.1433
  148MOL0     H20423   7.756   6.242   3.992  1.2241  2.5702 -2.2827
  148MOL0     H20424   7.774   6.218   3.825  0.8276  0.4667  1.6361
  149MOL0     O20425   4.038   7.307   0.154  0.2082 -0.4229  0.0905
  149MOL0     C20426   3.930   7.363   0.156  0.5869 -0.0822  0.5486
  149MOL0     O20427   3.909   7.473   0.084  1.0312 -0.3041 -0.5917
  149MOL0     C20428   4.009   7.565   0.052  0.5265 -0.2675  0.5418
  149MOL0     C20429   3.965   7.690   0.017  0.0645 -0.3010  0.3070
  149MOL0     C20430   4.047   7.801  -0.001  0.4262  1.6230  1.2374
  149MOL0     C20431   4.187   7.780  -0.002 -0.1562 -1.2748  0.0020
  149MOL0     O20432   4.254   7.896  -0.044 -0.5994 -0.2854 -0.6809
  149MOL0     C20433   4.393   7.916  -0.021 -0.9956 -0.2324  0.0542
  149MOL0     C20434   4.412   7.942   0.130 -0.5979  0.5133 -0.0805
  149MOL0     C20435   4.379   8.085   0.166  0.3936 -0.0055  0.0087
  149MOL0     C20436   4.390   8.100   0.322  0.1014 -0.6229  1.1707
  149MOL0     C20437   4.359   8.247   0.358  0.4055  0.3975 -1.2346
  149MOL0     C20438   4.388   8.273   0.512  0.2726 -0.4040 -0.3223
  149MOL0     C20439   4.272   8.201   0.593  0.3322 -1.2372 -1.2315
  149MOL0     C20440   4.266   8.244   0.743 -0.3789 -0.0108  0.8129
  149MOL0     N20441   4.178   8.148   0.800  0.3390  0.6831  0.6362
  149MOL0     C20442   4.041   8.145   0.777  0.6355  0.7830  0.4352
  149MOL0     C20443   3.999   8.030   0.838 -0.2057 -0.5285  1.4604
  149MOL0     C20444   3.856   7.978   0.850 -0.5846 -0.4213  0.3395
  149MOL0     C20445   3.788   7.979   0.711  0.3066 -0.1232 -1.2001
  149MOL0     C20446   3.649   7.937   0.722  1.4495  0.3321  0.1994
  149MOL0     C20447   3.567   7.946   0.584 -1.4776  0.4635  0.1656
  149MOL0     O20448   3.573   7.826   0.502 -0.0683 -0.5228 -0.1499
  149MOL0     C20449   3.518   7.719   0.564  0.0426 -0.8407 -0.1216
  149MOL0     C20450   3.596   7.622   0.627 -0.5269 -0.8695 -0.0624
  149MOL0     C20451   3.536   7.502   0.665  0.1362 -1.4408 -0.5308
  149MOL0     C20452   3.639   7.415   0.728  0.9988 -0.1432  0.5469
  149MOL0     C20453   3.395   7.491   0.672 -0.0276 -0.5691  0.6480
  149MOL0     C20454   3.322   7.370   0.712  0.1024  0.1854 -0.7052
  149MOL0     O20455   3.196   7.383   0.773 -0.7657  0.1626  0.0370
  149MOL0     C20456   3.129   7.269   0.759 -0.1899  0.1224  0.0911
  149MOL0     C20457   3.065   7.248   0.639  0.9366  0.3081 -0.5210
  149MOL0     C20458   3.004   7.123   0.622 -0.2210  0.9904  0.2685
  149MOL0     C20459   2.994   7.023   0.730  0.4318 -0.4037 -0.3163
  149MOL0     O20460   2.935   6.905   0.727 -0.5603 -0.2094  0.6192
  149MOL0     C20461   2.920   6.838   0.594  0.4487 -0.3958 -0.2887
  149MOL0     C20462   2.955   6.686   0.617  0.5118 -0.2883 -0.5117
  149MOL0     C20463   2.874   6.627   0.721 -0.0930  0.7757 -0.9673
  149MOL0     C20464   2.899   6.472   0.723  0.6702  0.9115 -0.1263
  149MOL0     C20465   2.819   6.413   0.850  0.3568 -0.2205 -0.0162
  149MOL0     C20466   2.861   6.463   0.999  0.0622  0.8718 -1.0649
  149MOL0     C20467   3.011   6.487   1.010  0.1235  0.1266  0.5691
  149MOL0     C20468   3.052   6.553   1.140 -0.8863  0.2026  1.4625
  149MOL0    Cl20469   3.103   6.427   1.244  0.1195 -0.2397  0.7975
  149MOL0     C20470   3.050   7.051   0.853 -0.6345  0.0886  0.2956
  149MOL0     C20471   3.121   7.172   0.859  0.9994  0.0569 -0.3087
  149MOL0     O20472   3.376   7.266   0.685 -0.0252  1.0410 -0.7584
  149MOL0     C20473   3.322   7.610   0.635 -0.0806 -0.4331  0.7024
  149MOL0     C20474   3.383   7.714   0.572  0.5701 -0.4330 -0.1610
  149MOL0     N20475   4.105   7.964   0.901  0.0601 -1.1514 -0.1693
  149MOL0     N20476   4.214   8.034   0.875  0.6240  0.3942  0.4217
  149MOL0     C20477   4.231   7.658   0.029 -0.3924 -0.9005  1.0126
  149MOL0     C20478   4.148   7.555   0.063  0.4239  0.3020  0.1655
  149MOL0     C20479   3.818   7.285   0.205 -0.6440 -0.2635 -0.1653
  149MOL0     C20480   3.819   7.147   0.197 -0.5447 -0.2097 -0.4173
  149MOL0     C20481   3.709   7.069   0.248 -0.8296  1.3694 -0.0874
  149MOL0     C20482   3.596   7.121   0.307 -0.2244 -0.2094 -0.1096
  149MOL0     O20483   3.488   7.047   0.350 -0.4088 -0.0982  0.4103
  149MOL0     C20484   3.509   6.932   0.436  0.0916  0.0272  0.4376
  149MOL0     C20485   3.408   6.922   0.547  0.5831 -0.1359 -0.1333
  149MOL0     C20486   3.438   6.807   0.646 -0.1338 -0.7375  0.1457
  149MOL0     C20487   3.412   6.667   0.584 -0.1050  0.1399  0.3001
  149MOL0     C20488   3.416   6.554   0.674  0.2606 -0.2125  0.0451
  149MOL0     C20489   3.422   6.455   0.740  0.0302  0.6629  0.1553
  149MOL0     C20490   3.598   7.258   0.327 -0.1440 -0.4062  0.5074
  149MOL0     C20491   3.702   7.335   0.279 -0.3825  0.4549 -0.0822
  149MOL0     C20492   3.707   7.483   0.320 -0.0706 -0.2186 -0.5311
  149MOL0     H20493   3.860   7.715   0.003 -1.1973 -3.3865  2.8894
  149MOL0     H20494   4.007   7.894  -0.040  1.2367  1.3456 -0.3210
  149MOL0     H20495   4.443   7.986  -0.089  0.2340  1.1342  2.2720
  149MOL0     H20496   4.441   7.821  -0.048 -4.5334 -2.2542  0.2459
  149MOL0     H20497   4.351   7.867   0.182  0.9581 -1.4075 -0.8849
  149MOL0     H20498   4.520   7.925   0.139 -0.2693  1.7154 -1.3508
  149MOL0     H20499   4.458   8.146   0.121  0.8924 -0.5135  0.1778
  149MOL0     H20500   4.280   8.111   0.126 -0.1940 -0.5722  1.0557
  149MOL0     H20501   4.318   8.030   0.366 -0.1617 -1.1844 -0.0857
  149MOL0     H20502   4.482   8.064   0.370 -0.6757 -4.1570  0.3164
  149MOL0     H20503   4.252   8.260   0.339 -0.0167 -0.8542  0.0346
  149MOL0     H20504   4.419   8.316   0.300  1.7006  3.2175  2.9815
  149MOL0     H20505   4.482   8.226   0.542 -1.9108 -4.3934  0.9981
  149MOL0     H20506   4.399   8.380   0.536  2.9700 -0.9337  1.2214
  149MOL0     H20507   4.298   8.094   0.586 -1.4448 -1.5768 -6.6108
  149MOL0     H20508   4.173   8.216   0.549 -0.6252 -1.3418  0.7767
  149MOL0     H20509   4.366   8.221   0.780  1.1851  0.7186 -2.5353
  149MOL0     H20510   4.223   8.344   0.756 -1.1002 -0.3897  1.3949
  149MOL0     H20511   3.974   8.207   0.719 -2.2313 -1.6542  0.9024
  149MOL0     H20512   3.804   8.041   0.922  1.8328 -0.3383  2.1444
  149MOL0     H20513   3.861   7.874   0.883 -1.2308 -1.3249 -2.1854
  149MOL0     H20514   3.803   8.077   0.664  0.4225  0.5204  0.1285
  149MOL0     H20515   3.830   7.902   0.645  0.1341 -0.5271 -0.8414
  149MOL0     H20516   3.623   7.841   0.767 -3.7503  2.0286  1.5019
  149MOL0     H20517   3.586   8.011   0.773  1.7415  1.4698 -1.0584
  149MOL0     H20518   3.464   7.972   0.607 -1.4922  0.5508 -0.0022
  149MOL0     H20519   3.609   8.026   0.523 -0.6578 -0.4820 -0.5470
  149MOL0     H20520   3.704   7.626   0.622 -0.4060 -0.3936  2.1119
  149MOL0     H20521   3.720   7.472   0.775 -1.1737  2.4144  1.4679
  149MOL0     H20522   3.670   7.360   0.639 -3.9193 -0.1556 -1.4887
  149MOL0     H20523   3.594   7.341   0.795  1.5979  0.2247  1.3758
  149MOL0     H20524   3.080   7.309   0.550  5.0027 -1.0415 -0.9916
  149MOL0     H20525   2.953   7.097   0.529 -2.5313  1.6293  1.2912
  149MOL0     H20526   2.816   6.833   0.560  0.3764 -5.8669 -0.0683
  149MOL0     H20527   2.985   6.888   0.522  0.2864  1.6890  0.9404
  149MOL0     H20528   2.925   6.644   0.520 -2.8245  1.0664 -0.1987
  149MOL0     H20529   3.062   6.685   0.640  0.3848  1.0581  0.2298
  149MOL0     H20530   2.769   6.655   0.715 -0.1401  0.3573 -2.3551
  149MOL0     H20531   2.908   6.666   0.818  1.0049 -0.4743 -0.8129
  149MOL0     H20532   3.003   6.440   0.731 -0.5692 -3.5452  1.0602
  149MOL0     H20533   2.857   6.427   0.632  0.4695 -2.9651  1.6797
  149MOL0     H20534   2.713   6.436   0.840  0.2569  1.6697  3.6838
  149MOL0     H20535   2.833   6.305   0.847 -3.5121 -0.8106 -1.6526
  149MOL0     H20536   2.831   6.393   1.077  1.8964 -1.1657 -2.0781
  149MOL0     H20537   2.808   6.556   1.023  0.0783  0.8845 -1.0768
  149MOL0     H20538   3.039   6.568   0.941  1.0185 -1.4962 -1.0791
  149MOL0     H20539   3.073   6.401   0.982  2.4659  2.7087 -3.0958
  149MOL0     H20540   2.975   6.617   1.182  0.5480  2.0271  1.4316
  149MOL0     H20541   3.134   6.625   1.130 -2.4703  1.8266 -0.8521
  149MOL0     H20542   3.059   6.996   0.947 -1.3426  0.8286  0.8090
  149MOL0     H20543   3.183   7.207   0.941  2.2361 -0.2989 -1.0649
  149MOL0     H20544   3.215   7.616   0.652 -0.0712 -0.6955  0.8629
  149MOL0     H20545   3.325   7.802   0.547  0.6414 -1.2592 -3.8650
  149MOL0     H20546   4.338   7.644   0.029  0.3676  2.7968  4.4349
  149MOL0     H20547   4.201   7.463   0.088 -0.7255  0.0606  1.8268
  149MOL0     H20548   3.897   7.099   0.139 -1.5811 -3.6236  0.7334
  149MOL0     H20549   3.721   6.962   0.236  2.3105  1.2449  2.8416
  149MOL0     H20550   3.508   6.843   0.373 -1.4433 -1.7336  2.7924
  149MOL0     H20551   3.610   6.935   0.480 -0.5272  1.7834  1.8862
  149MOL0     H20552   3.310   6.897   0.505 -0.6243 -1.4720  3.1341
  149MOL0     H20553   3.409   7.018   0.599  2.5798  0.3067 -0.9135
  149MOL0     H20554   3.544   6.823   0.669 -0.5761  3.8155 -0.1534
  149MOL0     H20555   3.382   6.832   0.736  1.3759 -0.0056  0.9274
  149MOL0     H20556   3.486   6.650   0.505  0.7611  1.5473  0.7747
  149MOL0     H20557   3.319   6.671   0.527 -1.4458  1.4757  2.4466
  149MOL0     H20558   3.446   6.365   0.793  1.3014 -0.5934 -2.3527
  149MOL0     H20559   3.526   7.301   0.396  1.7276  2.2026  1.0086
  149MOL0     H20560   3.694   7.552   0.236 -1.5725 -1.7790 -1.6455
  149MOL0     H20561   3.634   7.490   0.402 -1.2043  1.2572 -1.6143
  149MOL0     H20562   3.804   7.500   0.368 -0.3287  3.7643 -1.0973
  150MOL0     O20563   1.184   5.971   9.961 -0.5098 -0.0598 -1.1723
  150MOL0     C20564   1.303   6.000   9.942 -0.0941  0.4748 -0.2198
  150MOL0     O20565   1.351   6.057   9.826  0.5847  0.1223  1.0783
  150MOL0     C20566   1.265   6.076   9.710  1.1407 -0.6369 -0.6671
  150MOL0     C20567   1.304   6.173   9.623 -0.1216 -0.2066  0.4678
  150MOL0     C20568   1.244   6.204   9.498  0.4750 -0.8901  0.5380
  150MOL0     C20569   1.126   6.137   9.467  0.6716 -0.0782 -1.0290
  150MOL0     O20570   1.058   6.172   9.352 -0.2935 -0.5544 -0.6887
  150MOL0     C20571   1.039   6.072   9.248 -1.4050  0.1048  0.6676
  150MOL0     C20572   1.162   5.998   9.192  0.5064  0.5639 -0.3257
  150MOL0     C20573   1.281   6.074   9.145  0.0430  0.2594  0.6897
  150MOL0     C20574   1.230   6.167   9.037  0.2010 -0.2637  0.3943
  150MOL0     C20575   1.329   6.247   8.959  0.8431  0.6376 -0.6000
  150MOL0     C20576   1.289   6.271   8.813  0.4291  0.2721  0.1142
  150MOL0     C20577   1.407   6.320   8.731  0.0442 -0.0646 -1.9950
  150MOL0     C20578   1.380   6.270   8.595 -0.3130  0.4165  0.4400
  150MOL0     N20579   1.490   6.320   8.504  0.3299  0.6549  0.4090
  150MOL0     C20580   1.509   6.444   8.448 -0.3254 -0.0119  0.1584
  150MOL0     C20581   1.606   6.432   8.355 -0.4610  1.0324 -0.2611
  150MOL0     C20582   1.665   6.543   8.271 -0.0481 -0.2042 -0.6260
  150MOL0     C20583   1.609   6.535   8.129 -0.1749 -0.2554  0.1928
  150MOL0     C20584   1.473   6.614   8.116 -0.3999  0.4649  0.7084
  150MOL0     C20585   1.432   6.638   7.967 -0.1999  1.0959 -1.4959
  150MOL0     O20586   1.477   6.536   7.886  0.3806  0.2779 -0.8299
  150MOL0     C20587   1.452   6.545   7.750  0.1205  0.3829 -0.0866
  150MOL0     C20588   1.380   6.643   7.681  0.0592  0.4119  0.2359
  150MOL0     C20589   1.369   6.648   7.541 -0.6256 -0.3250  1.7528
  150MOL0     C20590   1.280   6.749   7.485  0.5725  0.4726  1.1440
  150MOL0     C20591   1.453   6.563   7.467 -0.3906 -0.4424 -0.8988
  150MOL0     C20592   1.475   6.558   7.323 -1.2614 -0.3990 -0.5606
  150MOL0     O20593   1.413   6.642   7.250  1.0978 -0.5059 -0.5702
  150MOL0     C20594   1.426   6.637   7.116 -0.9532  0.7916 -0.7829
  150MOL0     C20595   1.502   6.742   7.059  0.0254  0.2138 -1.0916
  150MOL0     C20596   1.500   6.762   6.930 -0.1993  0.0415  0.2276
  150MOL0     C20597   1.445   6.673   6.837  0.1441  0.1251 -0.4150
  150MOL0     O20598   1.445   6.712   6.706  0.4757 -0.3391  0.1587
  150MOL0     C20599   1.333   6.683   6.629 -0.7821 -0.0933  0.1002
  150MOL0     C20600   1.346   6.758   6.497  0.1991 -0.0883 -0.1814
  150MOL0     C20601   1.333   6.912   6.513 -0.0057 -0.6657 -0.4677
  150MOL0     C20602   1.378   6.986   6.390 -0.1517  0.0409  0.7544
  150MOL0     C20603   1.349   7.128   6.385  0.4514 -0.4922  0.3706
  150MOL0     C20604   1.440   7.211   6.481  0.4892 -0.5193 -0.3389
  150MOL0     C20605   1.374   7.335   6.537  0.8685  0.4198  0.3598
  150MOL0     C20606   1.278   7.321   6.654 -0.0037  0.0037 -0.8485
  150MOL0    Cl20607   1.358   7.252   6.799  0.3433 -0.0652  0.6485
  150MOL0     C20608   1.393   6.556   6.890  0.5887 -0.4151  0.0113
  150MOL0     C20609   1.380   6.541   7.031 -0.2721 -0.0606  0.2015
  150MOL0     O20610   1.574   6.492   7.280  1.0656 -0.2270  0.6004
  150MOL0     C20611   1.525   6.466   7.539  0.5635  1.1232 -0.3327
  150MOL0     C20612   1.522   6.452   7.678 -0.0360  0.4955  0.2594
  150MOL0     N20613   1.648   6.301   8.355 -0.0542 -0.0844  0.1193
  150MOL0     N20614   1.574   6.232   8.438 -0.2899  0.6906  0.0456
  150MOL0     C20615   1.069   6.043   9.560 -0.5844  0.8064 -0.3532
  150MOL0     C20616   1.140   6.010   9.676  0.2729  0.0047 -0.9200
  150MOL0     C20617   1.383   6.013  10.062  1.3146  0.9491 -0.1884
  150MOL0     C20618   1.481   6.113  10.059 -0.4635 -1.4797  1.0722
  150MOL0     C20619   1.576   6.127  10.154 -0.2091  0.1644 -0.0266
  150MOL0     C20620   1.564   6.066  10.279 -1.2642  1.5364  0.0100
  150MOL0     O20621   1.647   6.106  10.380  0.0463 -0.4132  0.1978
  150MOL0     C20622   1.592   6.110  10.520 -0.2904 -0.3717 -0.6322
  150MOL0     C20623   1.667   6.017  10.616 -0.5409 -0.8051  0.0191
  150MOL0     C20624   1.631   6.022  10.765  0.0492  0.0611 -0.7030
  150MOL0     C20625   1.735   5.935  10.840  0.1899  0.3132  0.0584
  150MOL0     C20626   1.729   5.964  10.983  0.0997 -0.2895  0.5118
  150MOL0     C20627   1.720   5.985  11.104 -0.6066  0.2613 -0.7516
  150MOL0     C20628   1.469   5.962  10.285 -0.3296  0.2910 -0.2971
  150MOL0     C20629   1.384   5.925  10.178 -1.1323  0.4752  0.2285
  150MOL0     C20630   1.321   5.791  10.174 -0.1081 -0.7334 -0.1718
  150MOL0     H20631   1.387   6.231   9.664 -0.0551  0.9290 -1.1929
  150MOL0     H20632   1.265   6.292   9.438 -0.2061 -1.3237 -0.3529
  150MOL0     H20633   0.989   6.120   9.162  1.9395 -0.7977 -2.0138
  150MOL0     H20634   0.965   5.999   9.282 -2.1631  0.2914 -0.4825
  150MOL0     H20635   1.200   5.934   9.272 -0.2351 -1.1117 -1.2629
  150MOL0     H20636   1.114   5.938   9.114 -2.3157 -0.6900  2.2060
  150MOL0     H20637   1.338   6.117   9.227 -2.5024 -1.0392  3.3011
  150MOL0     H20638   1.353   6.010   9.091 -1.2078  1.5931 -2.8627
  150MOL0     H20639   1.169   6.106   8.970 -0.3662  2.8366 -2.1420
  150MOL0     H20640   1.154   6.238   9.072 -1.3225 -0.1808 -2.7554
  150MOL0     H20641   1.426   6.197   8.951  1.5824  1.5060  2.1408
  150MOL0     H20642   1.346   6.343   9.008 -1.3719  0.8826 -0.1980
  150MOL0     H20643   1.238   6.181   8.776  1.5968 -1.3102  2.1583
  150MOL0     H20644   1.209   6.345   8.816  0.2858  0.2131 -1.2496
  150MOL0     H20645   1.506   6.286   8.761 -1.6244 -2.0816  1.9070
  150MOL0     H20646   1.420   6.426   8.706  2.2626 -0.2168 -1.6327
  150MOL0     H20647   1.391   6.161   8.602 -0.1235  0.4251  0.2855
  150MOL0     H20648   1.276   6.299   8.578 -0.7170 -0.1271  1.8249
  150MOL0     H20649   1.460   6.534   8.483 -1.7786  0.2526 -2.2942
  150MOL0     H20650   1.774   6.535   8.277  0.5115  3.8327 -1.9209
  150MOL0     H20651   1.651   6.640   8.320  1.4629 -0.0790 -0.3922
  150MOL0     H20652   1.676   6.576   8.052 -2.6626  0.5495 -1.6582
  150MOL0     H20653   1.604   6.435   8.086  2.3230 -0.2471 -0.3030
  150MOL0     H20654   1.387   6.570   8.167  0.0409 -2.4459 -0.8671
  150MOL0     H20655   1.487   6.710   8.167  1.4278  0.7290 -0.1907
  150MOL0     H20656   1.323   6.648   7.961 -0.0892  3.2470 -0.8960
  150MOL0     H20657   1.477   6.730   7.928 -2.0716  0.8821 -4.4657
  150MOL0     H20658   1.331   6.712   7.749 -2.1234  0.3565 -1.1803
  150MOL0     H20659   1.232   6.817   7.557 -1.2826 -1.3610  1.7204
  150MOL0     H20660   1.195   6.712   7.428  0.1991 -0.2549  2.1498
  150MOL0     H20661   1.349   6.814   7.430  0.8060 -1.7418 -1.3675
  150MOL0     H20662   1.550   6.815   7.124  2.8290  0.1233 -2.9076
  150MOL0     H20663   1.562   6.842   6.889  0.2035 -0.6674 -0.5702
  150MOL0     H20664   1.314   6.575   6.627  1.1093 -0.5868  2.6769
  150MOL0     H20665   1.240   6.728   6.665  1.6028  2.8600  3.2276
  150MOL0     H20666   1.438   6.731   6.443  1.5440 -0.4154  2.1220
  150MOL0     H20667   1.266   6.738   6.426  0.9059  1.0975 -1.3714
  150MOL0     H20668   1.390   6.951   6.598 -1.6481 -3.2484  2.0152
  150MOL0     H20669   1.230   6.933   6.543  1.0198 -0.4648  3.4506
  150MOL0     H20670   1.315   6.958   6.305  0.3572  0.4810  0.2274
  150MOL0     H20671   1.482   6.969   6.361  0.6253  1.8460  2.3017
  150MOL0     H20672   1.371   7.146   6.280 -1.4666  1.3334  0.2105
  150MOL0     H20673   1.243   7.145   6.409  1.2111  1.7555  2.6272
  150MOL0     H20674   1.523   7.241   6.417 -0.6253 -0.7554 -1.9695
  150MOL0     H20675   1.491   7.161   6.563 -2.1259 -0.9179  1.1641
  150MOL0     H20676   1.306   7.374   6.460 -2.1110 -2.3215  1.3483
  150MOL0     H20677   1.453   7.409   6.553  1.1093  0.1751  0.3182
  150MOL0     H20678   1.207   7.239   6.636  1.0890 -1.2421  0.2765
  150MOL0     H20679   1.240   7.417   6.688  0.8957 -0.4348  1.5813
  150MOL0     H20680   1.355   6.481   6.821  0.4355 -0.6605  0.3540
  150MOL0     H20681   1.338   6.457   7.084  1.4082 -0.2614  1.3084
  150MOL0     H20682   1.590   6.399   7.483 -1.5157  2.6295 -5.1411
  150MOL0     H20683   1.571   6.371   7.730  0.0083 -0.7348 -1.5830
  150MOL0     H20684   0.967   6.010   9.541 -0.3107 -2.2219  2.5184
  150MOL0     H20685   1.106   5.937   9.748  1.7285  0.8605  0.7139
  150MOL0     H20686   1.490   6.178   9.972 -0.4273 -0.4325  1.8374
  150MOL0     H20687   1.652   6.203  10.140  1.3185 -1.2023  0.4966
  150MOL0     H20688   1.605   6.216  10.540  0.1786 -0.3646 -0.9572
  150MOL0     H20689   1.484   6.090  10.520 -0.2855 -0.4978 -1.8782
  150MOL0     H20690   1.773   6.042  10.604 -1.0630  0.1568 -4.3170
  150MOL0     H20691   1.630   5.921  10.579 -0.3176 -0.7975 -0.2225
  150MOL0     H20692   1.622   6.124  10.803 -1.8875 -0.8219  1.4844
  150MOL0     H20693   1.531   5.978  10.773 -0.5124  1.6091  3.1354
  150MOL0     H20694   1.840   5.959  10.817  1.1238 -0.4531  3.1116
  150MOL0     H20695   1.704   5.831  10.824 -1.7217  0.2224  3.5589
  150MOL0     H20696   1.720   5.995  11.211  2.6458 -0.6702 -0.5554
  150MOL0     H20697   1.466   5.899  10.373  0.4127  3.4782  2.1748
  150MOL0     H20698   1.349   5.727  10.090  1.6506  0.1188 -0.2850
  150MOL0     H20699   1.352   5.727  10.257  3.7367  0.5186 -0.4310
  150MOL0     H20700   1.213   5.801  10.178 -0.1173 -0.6985 -0.4455
  151MOL0     O20701   8.590  10.061   4.769 -0.2865  0.4462  0.1593
  151MOL0     C20702   8.594  10.153   4.682 -0.6475 -0.7143  0.0485
  151MOL0     O20703   8.707  10.187   4.603 -1.1302  0.0432  0.5144
  151MOL0     C20704   8.811  10.097   4.618  0.2537 -0.4172  0.9762
  151MOL0     C20705   8.913  10.113   4.712  1.0144  0.1414  0.2270
  151MOL0     C20706   9.012  10.025   4.705  0.1907  0.5184 -0.2258
  151MOL0     C20707   9.022   9.922   4.606 -1.3474  0.7600  0.5743
  151MOL0     O20708   9.146   9.864   4.610 -0.0236  0.5278  0.3373
  151MOL0     C20709   9.178   9.779   4.499 -0.6153 -0.8511  0.2203
  151MOL0     C20710   9.201   9.874   4.376  0.5596  0.5988  0.8056
  151MOL0     C20711   9.184   9.797   4.242  0.2381 -0.4092  0.0355
  151MOL0     C20712   9.260   9.867   4.127 -0.1520  1.4522 -0.9303
  151MOL0     C20713   9.175   9.864   3.995 -0.0563  0.5905 -0.2031
  151MOL0     C20714   9.237   9.927   3.866 -0.4217  0.6581 -0.0936
  151MOL0     C20715   9.143   9.943   3.746  0.7423  1.1165 -1.0824
  151MOL0     C20716   9.011  10.027   3.773  0.6643 -1.0258  0.9164
  151MOL0     N20717   9.021  10.164   3.837 -0.6215  0.7637  0.0608
  151MOL0     C20718   8.926  10.257   3.812  0.3660 -0.3566 -0.1577
  151MOL0     C20719   8.979  10.362   3.874  0.8823 -0.0101  0.4728
  151MOL0     C20720   8.913  10.492   3.879  0.1169 -0.1915 -0.3887
  151MOL0     C20721   8.998  10.620   3.837 -0.3079 -0.1083  0.3973
  151MOL0     C20722   9.106  10.681   3.927  0.1113  0.0280 -0.1665
  151MOL0     C20723   9.052  10.708   4.063  1.2372  0.5713  0.2381
  151MOL0     O20724   9.120  10.805   4.137 -0.8152  0.1443  1.0043
  151MOL0     C20725   9.088  10.816   4.272  0.0131  0.3558 -0.3304
  151MOL0     C20726   9.188  10.796   4.372  0.5471 -0.0578  0.5272
  151MOL0     C20727   9.161  10.799   4.507 -0.5509  0.6701  0.9599
  151MOL0     C20728   9.283  10.771   4.597 -0.2528 -0.2864  0.5534
  151MOL0     C20729   9.034  10.835   4.559  0.4634  0.4708  0.6946
  151MOL0     C20730   9.008  10.867   4.697  0.0326  0.2725 -0.3898
  151MOL0     O20731   8.893  10.935   4.717 -0.1254  0.3661 -0.0211
  151MOL0     C20732   8.869  10.981   4.838 -0.3268 -0.4326  0.2387
  151MOL0     C20733   8.947  11.083   4.886 -0.5948 -0.0536 -1.2970
  151MOL0     C20734   8.921  11.153   5.003  0.1628  0.4682  0.1668
  151MOL0     C20735   8.811  11.129   5.079  0.3777 -0.1820  0.0451
  151MOL0     O20736   8.802  11.202   5.192 -0.7121 -0.6708 -0.4204
  151MOL0     C20737   8.674  11.217   5.252 -0.2214 -0.4447 -0.0512
  151MOL0     C20738   8.600  11.319   5.161  2.1244  0.4934  0.0774
  151MOL0     C20739   8.446  11.312   5.195  0.1624  1.0546 -0.3904
  151MOL0     C20740   8.362  11.183   5.164  0.5618  0.6817  0.3735
  151MOL0     C20741   8.304  11.171   5.028  0.5809 -0.4016  0.3702
  151MOL0     C20742   8.282  11.033   4.972 -0.7217  0.3342  0.7586
  151MOL0     C20743   8.192  11.034   4.858  0.2622 -0.4300 -0.3479
  151MOL0     C20744   8.178  10.895   4.775 -0.0783  0.1926  1.0767
  151MOL0    Cl20745   8.335  10.837   4.710  0.2331 -0.1615  0.1136
  151MOL0     C20746   8.720  11.026   5.032  0.1945  0.1146  0.5854
  151MOL0     C20747   8.749  10.956   4.912 -0.2865 -0.2128  0.5140
  151MOL0     O20748   9.090  10.840   4.781 -1.2037 -0.1903  0.4302
  151MOL0     C20749   8.935  10.869   4.457  0.3888  0.3122 -0.4090
  151MOL0     C20750   8.955  10.844   4.324 -0.2169  0.3635  0.1357
  151MOL0     N20751   9.073  10.322   3.959 -0.1053  0.4056 -0.6668
  151MOL0     N20752   9.096  10.195   3.945 -0.2877 -0.1836  0.2826
  151MOL0     C20753   8.906   9.900   4.525  0.3073 -0.0074  0.5949
  151MOL0     C20754   8.797   9.991   4.536  1.3993  1.6692  1.0327
  151MOL0     C20755   8.470  10.221   4.654  0.5799  1.0107  0.9303
  151MOL0     C20756   8.476  10.329   4.565  0.4942  0.3494 -0.6392
  151MOL0     C20757   8.370  10.413   4.531  0.3510  0.0992 -0.4795
  151MOL0     C20758   8.248  10.383   4.595  0.8642 -0.2663  0.0542
  151MOL0     O20759   8.129  10.449   4.576  0.1726 -0.0481 -1.0301
  151MOL0     C20760   8.065  10.450   4.446 -1.5185  0.3076  0.1470
  151MOL0     C20761   8.053  10.306   4.397  0.8334  0.2438  0.4075
  151MOL0     C20762   7.951  10.300   4.275 -0.3851  0.3980 -0.5915
  151MOL0     C20763   7.833  10.218   4.311 -0.1581 -0.3712 -0.8310
  151MOL0     C20764   7.728  10.217   4.215  0.2004 -0.2925  0.4054
  151MOL0     C20765   7.633  10.205   4.136 -0.7735  0.5490  1.2820
  151MOL0     C20766   8.227  10.266   4.683 -0.7719  0.1035 -0.3574
  151MOL0     C20767   8.344  10.191   4.714 -0.4613 -0.2196 -0.4897
  151MOL0     C20768   8.324  10.076   4.816 -0.0063 -0.5839  0.6726
  151MOL0     H20769   8.894  10.200   4.775 -0.4966 -1.1937  1.6929
  151MOL0     H20770   9.098  10.048   4.768  3.4013 -0.0653 -3.9776
  151MOL0     H20771   9.092   9.714   4.484 -3.5048  2.1335  2.3308
  151MOL0     H20772   9.262   9.708   4.507 -0.0869 -0.2129  0.4740
  151MOL0     H20773   9.133   9.960   4.385  0.5231  0.7093 -0.3729
  151MOL0     H20774   9.303   9.912   4.374  0.7115  0.1641 -0.9709
  151MOL0     H20775   9.196   9.689   4.253 -3.6129 -0.7765  2.1940
  151MOL0     H20776   9.080   9.821   4.218  0.6920  3.5930  1.2461
  151MOL0     H20777   9.275   9.969   4.163  1.9221  0.6206  0.7722
  151MOL0     H20778   9.362   9.835   4.107  0.4311  0.9706  2.3109
  151MOL0     H20779   9.075   9.901   4.019 -1.6450 -3.5692  0.4825
  151MOL0     H20780   9.160   9.757   3.975 -3.0879  1.3167 -2.3972
  151MOL0     H20781   9.288  10.020   3.892  1.9304 -1.2774  2.8541
  151MOL0     H20782   9.316   9.859   3.833 -0.7952 -1.1309  2.4692
  151MOL0     H20783   9.104   9.844   3.719 -1.4190  1.2466  1.1686
  151MOL0     H20784   9.185   9.989   3.656  2.3341  0.8295 -0.5120
  151MOL0     H20785   8.952  10.041   3.682 -0.8794 -1.9257  1.7453
  151MOL0     H20786   8.951   9.964   3.839 -0.7128 -0.5932  0.1282
  151MOL0     H20787   8.838  10.258   3.748  1.7953  2.4785 -2.2722
  151MOL0     H20788   8.871  10.501   3.979  1.7674 -1.9568  0.5148
  151MOL0     H20789   8.818  10.477   3.827  0.6048  1.1558 -1.7414
  151MOL0     H20790   9.041  10.586   3.743 -2.7291 -2.5740  0.0700
  151MOL0     H20791   8.935  10.700   3.797  2.8188  2.4492  0.1685
  151MOL0     H20792   9.188  10.613   3.951  0.4131  0.2347 -0.6010
  151MOL0     H20793   9.151  10.771   3.884  0.8341  0.4434  1.3692
  151MOL0     H20794   8.943  10.718   4.057  1.0821 -1.6006 -2.4816
  151MOL0     H20795   9.068  10.614   4.117 -4.1120  0.9876  3.2714
  151MOL0     H20796   9.287  10.782   4.332 -0.1575 -1.7830 -0.7394
  151MOL0     H20797   9.276  10.690   4.670  0.1714  0.0627  0.9854
  151MOL0     H20798   9.314  10.859   4.653  0.5077  0.5573 -1.1021
  151MOL0     H20799   9.365  10.745   4.529  1.0926 -2.0303  2.7080
  151MOL0     H20800   9.038  11.115   4.835 -0.5165  0.9148 -0.5889
  151MOL0     H20801   8.982  11.240   5.025  1.1044 -0.0842 -0.2202
  151MOL0     H20802   8.628  11.123   5.282 -0.7557  0.9360  4.0365
  151MOL0     H20803   8.695  11.269   5.346 -1.0557 -2.4147  1.3020
  151MOL0     H20804   8.645  11.417   5.177  2.1264  0.5292 -0.1423
  151MOL0     H20805   8.610  11.308   5.052  2.4895  2.4399 -0.1239
  151MOL0     H20806   8.402  11.391   5.132  2.7350  1.0589 -2.3454
  151MOL0     H20807   8.434  11.332   5.302  1.5352 -1.4871  0.3135
  151MOL0     H20808   8.278  11.183   5.234 -1.2382 -0.9463 -1.6632
  151MOL0     H20809   8.416  11.089   5.179  2.2885  1.8197  1.7140
  151MOL0     H20810   8.205  11.217   5.026  0.0145 -1.4012 -3.2945
  151MOL0     H20811   8.374  11.222   4.960  1.6004  1.0433  2.3883
  151MOL0     H20812   8.246  10.965   5.049  4.1036  0.1808  3.2979
  151MOL0     H20813   8.379  10.994   4.939 -0.2225  1.4398  0.8584
  151MOL0     H20814   8.221  11.110   4.784 -0.5542 -1.2686 -1.5700
  151MOL0     H20815   8.094  11.057   4.902  1.0535  0.9137  0.8096
  151MOL0     H20816   8.110  10.905   4.689  1.6559  0.4807 -0.3180
  151MOL0     H20817   8.127  10.820   4.836  0.1762 -0.9641 -0.1088
  151MOL0     H20818   8.636  11.007   5.098  1.4579  0.5661  2.3977
  151MOL0     H20819   8.679  10.881   4.876 -0.2301 -0.7778  1.5652
  151MOL0     H20820   8.832  10.891   4.485  0.7027  0.6763  0.5204
  151MOL0     H20821   8.872  10.857   4.254 -0.0045  1.1988  0.0213
  151MOL0     H20822   8.900   9.815   4.458 -1.4231  3.2479 -3.9199
  151MOL0     H20823   8.705   9.975   4.479  1.9313  0.0256  0.5666
  151MOL0     H20824   8.576  10.328   4.524  2.6791 -0.3833  3.9775
  151MOL0     H20825   8.379  10.494   4.460 -3.8251  0.6064 -0.6982
  151MOL0     H20826   7.968  10.500   4.448 -1.9528  0.1419 -4.6180
  151MOL0     H20827   8.135  10.496   4.375 -3.0339 -0.3421 -1.8885
  151MOL0     H20828   8.016  10.239   4.475 -2.3482  0.2670 -0.9282
  151MOL0     H20829   8.153  10.271   4.367 -1.3403 -4.5541 -2.5991
  151MOL0     H20830   7.913  10.400   4.253 -1.1707  0.6544  1.6392
  151MOL0     H20831   7.996  10.267   4.181  2.5317 -0.1713  0.8729
  151MOL0     H20832   7.786  10.262   4.400 -1.8066 -0.3090 -1.6920
  151MOL0     H20833   7.853  10.116   4.345 -3.2781 -0.5340  0.9724
  151MOL0     H20834   7.548  10.203   4.072 -2.8249  2.5508  3.7062
  151MOL0     H20835   8.139  10.237   4.740  1.1630 -2.9810  1.3464
  151MOL0     H20836   8.216  10.069   4.834 -0.1189 -0.6428  0.0145
  151MOL0     H20837   8.371   9.982   4.785 -0.4238 -0.0223 -1.9600
  151MOL0     H20838   8.375  10.116   4.904  0.4724  0.3735 -0.0302
  152MOL0     O20839   6.146   0.962  11.494 -0.4065 -0.1922 -0.3220
  152MOL0     C20840   6.174   1.043  11.581  0.1732  0.5123 -0.2402
  152MOL0     O20841   6.229   1.010  11.701 -0.5357  0.1688  0.1655
  152MOL0     C20842   6.273   0.882  11.734  0.1629  0.3254  0.2915
  152MOL0     C20843   6.396   0.839  11.699 -0.7433 -0.0483  0.1488
  152MOL0     C20844   6.458   0.720  11.726  0.7767 -0.1833 -0.4070
  152MOL0     C20845   6.379   0.625  11.793 -0.6887 -0.4630 -0.1582
  152MOL0     O20846   6.437   0.509  11.836  0.5704  0.1503  0.3264
  152MOL0     C20847   6.485   0.423  11.732  0.6802 -0.1511  0.6859
  152MOL0     C20848   6.532   0.282  11.772 -0.7254  0.3081 -0.2502
  152MOL0     C20849   6.414   0.204  11.832  0.9539  1.2210  0.4522
  152MOL0     C20850   6.425   0.046  11.826  0.2928 -0.1862  0.0803
  152MOL0     C20851   6.285   0.012  11.864 -0.2252  0.2137  0.7756
  152MOL0     C20852   6.266  -0.138  11.845 -0.0799  1.3103 -0.4316
  152MOL0     C20853   6.142  -0.187  11.919 -0.4420 -0.4832 -0.3406
  152MOL0     C20854   6.116  -0.340  11.936 -0.7880 -0.4592 -0.3324
  152MOL0     N20855   5.987  -0.375  11.875  0.2341 -0.0739 -0.5156
  152MOL0     C20856   5.952  -0.400  11.749 -0.3993  0.3978  0.7661
  152MOL0     C20857   5.807  -0.416  11.748 -1.0624 -0.2802  0.2949
  152MOL0     C20858   5.719  -0.457  11.630 -1.8354 -0.7339  0.5855
  152MOL0     C20859   5.584  -0.386  11.641  0.2682  0.7040 -0.1110
  152MOL0     C20860   5.560  -0.248  11.562  0.4323  0.6932  0.1468
  152MOL0     C20861   5.665  -0.155  11.593  0.1678  0.1102 -0.7460
  152MOL0     O20862   5.648  -0.096  11.727 -0.2896  0.8047 -0.2696
  152MOL0     C20863   5.715   0.019  11.761 -0.1166  1.0176 -0.2917
  152MOL0     C20864   5.687   0.057  11.892  0.8762 -0.1796 -0.4591
  152MOL0     C20865   5.740   0.171  11.950 -0.1084 -0.0204  0.5426
  152MOL0     C20866   5.704   0.204  12.093  0.0814 -0.1940 -0.0444
  152MOL0     C20867   5.825   0.255  11.871  0.0489 -0.1255  0.0168
  152MOL0     C20868   5.881   0.394  11.910  0.1207 -0.1296 -0.0709
  152MOL0     O20869   5.817   0.460  12.019 -1.0387  0.6551 -0.7768
  152MOL0     C20870   5.844   0.596  12.042  1.1917  0.5100 -0.0769
  152MOL0     C20871   5.975   0.646  12.070 -0.6208 -0.1108  0.7479
  152MOL0     C20872   6.000   0.774  12.109 -0.0093  0.1693 -0.8512
  152MOL0     C20873   5.888   0.859  12.138 -0.8724 -1.0301  0.6308
  152MOL0     O20874   5.889   0.989  12.181  0.1375  0.0495  0.2936
  152MOL0     C20875   6.021   1.052  12.180  0.5273 -0.1420 -0.3861
  152MOL0     C20876   5.993   1.189  12.231  0.3710  1.0083 -0.0321
  152MOL0     C20877   6.130   1.264  12.211  0.6358  0.1615  0.0051
  152MOL0     C20878   6.109   1.413  12.257  0.2287  0.2714 -0.5041
  152MOL0     C20879   6.241   1.500  12.257  0.1324  0.1430 -1.7487
  152MOL0     C20880   6.300   1.539  12.118 -0.1780 -0.1359 -0.2552
  152MOL0     C20881   6.215   1.648  12.038  0.0917 -0.0791 -0.1141
  152MOL0     C20882   6.279   1.742  11.945 -0.3814  0.0436  0.3165
  152MOL0    Cl20883   6.383   1.671  11.825 -0.1235  0.0854 -0.3207
  152MOL0     C20884   5.761   0.806  12.139  0.5490  0.4482 -0.8357
  152MOL0     C20885   5.739   0.676  12.083  0.3189 -0.1031 -0.6819
  152MOL0     O20886   5.966   0.443  11.832  0.4538 -0.5280  0.0877
  152MOL0     C20887   5.865   0.209  11.744 -0.1250  0.6635 -0.2538
  152MOL0     C20888   5.807   0.087  11.697 -0.0263 -1.5107  0.2746
  152MOL0     N20889   5.773  -0.408  11.879  0.3527 -0.4293 -0.4208
  152MOL0     N20890   5.881  -0.394  11.953  0.1864  0.0583  0.3186
  152MOL0     C20891   6.247   0.658  11.834 -0.4566  0.7914  0.1358
  152MOL0     C20892   6.202   0.787  11.805  0.6499 -0.0847  0.2061
  152MOL0     C20893   6.155   1.192  11.558 -0.0932 -0.1787  0.5896
  152MOL0     C20894   6.075   1.225  11.442  0.2386 -0.6488  0.2493
  152MOL0     C20895   6.043   1.361  11.413  0.2817  0.5837  0.3602
  152MOL0     C20896   6.080   1.462  11.505  0.8587 -0.6881 -0.4195
  152MOL0     O20897   6.048   1.601  11.496 -0.1039  0.1235  0.1032
  152MOL0     C20898   5.967   1.653  11.388 -0.6204  0.0490 -1.3000
  152MOL0     C20899   5.947   1.807  11.380 -0.0638  0.0614  0.1190
  152MOL0     C20900   5.846   1.841  11.493 -0.1956 -0.1279  0.6759
  152MOL0     C20901   5.793   1.995  11.477 -0.5120 -0.1295  0.4088
  152MOL0     C20902   5.715   2.031  11.592  0.2941 -0.2808 -0.4025
  152MOL0     C20903   5.639   2.057  11.681 -0.4091 -0.2361 -0.3257
  152MOL0     C20904   6.142   1.422  11.616 -0.2123  0.6793 -0.7168
  152MOL0     C20905   6.184   1.298  11.652 -0.0975 -0.0103  0.4046
  152MOL0     C20906   6.280   1.284  11.771 -1.3488  1.1507  0.2900
  152MOL0     H20907   6.471   0.898  11.648  1.7782 -0.3627  3.1876
  152MOL0     H20908   6.561   0.700  11.698  1.6455  1.8274  1.1199
  152MOL0     H20909   6.569   0.477  11.688  2.7592 -2.3108  1.7483
  152MOL0     H20910   6.417   0.419  11.647  0.1380 -0.3708  1.1193
  152MOL0     H20911   6.563   0.238  11.677 -0.5060 -1.6454  0.6940
  152MOL0     H20912   6.620   0.274  11.837 -1.4726  1.1332  0.9041
  152MOL0     H20913   6.418   0.227  11.939 -1.8681 -0.6706  1.0827
  152MOL0     H20914   6.320   0.239  11.787 -0.2786 -0.7680  1.3150
  152MOL0     H20915   6.447   0.004  11.727 -0.8913  1.0615 -0.7548
  152MOL0     H20916   6.504   0.009  11.892  0.9886 -0.7902 -1.0596
  152MOL0     H20917   6.208   0.065  11.807  1.8444  2.8658  0.2082
  152MOL0     H20918   6.278   0.036  11.971 -0.9334 -0.5986  0.9186
  152MOL0     H20919   6.256  -0.170  11.741 -1.0349  0.4171 -0.0809
  152MOL0     H20920   6.350  -0.185  11.896 -0.3350 -0.1920 -1.3504
  152MOL0     H20921   6.054  -0.140  11.874  0.4573 -0.2613 -1.9399
  152MOL0     H20922   6.151  -0.162  12.025  2.2024 -1.2702 -0.3087
  152MOL0     H20923   6.189  -0.401  11.884  2.5853  1.2028  2.0492
  152MOL0     H20924   6.114  -0.375  12.040 -2.0158  1.4588  0.3694
  152MOL0     H20925   6.020  -0.428  11.669 -1.4441  0.6902 -0.2665
  152MOL0     H20926   5.713  -0.567  11.627  0.5369 -0.9328  0.7689
  152MOL0     H20927   5.771  -0.425  11.539  0.8377  2.6693  3.0344
  152MOL0     H20928   5.508  -0.450  11.594  1.5595 -1.5596  0.7024
  152MOL0     H20929   5.556  -0.369  11.746 -0.1317  2.7029 -0.5148
  152MOL0     H20930   5.545  -0.263  11.455  2.6695 -1.0628  0.0042
  152MOL0     H20931   5.469  -0.207  11.608  0.2122 -2.4643  2.9338
  152MOL0     H20932   5.765  -0.200  11.591 -0.9131 -2.4880 -1.0582
  152MOL0     H20933   5.660  -0.081  11.513  0.0312 -1.8981 -2.7091
  152MOL0     H20934   5.630  -0.012  11.953  2.7843 -1.6139 -0.2170
  152MOL0     H20935   5.615   0.268  12.089  0.4548  0.3704  0.4627
  152MOL0     H20936   5.779   0.257  12.153 -2.1842  2.8519  0.3154
  152MOL0     H20937   5.682   0.114  12.152  3.2892 -0.6310  0.6513
  152MOL0     H20938   6.060   0.579  12.077  1.4287  2.4204  1.5614
  152MOL0     H20939   6.097   0.797  12.151  0.2784  0.0768 -1.4635
  152MOL0     H20940   6.096   1.008  12.247 -0.5276 -1.0564  0.2329
  152MOL0     H20941   6.054   1.065  12.077  1.3000  1.6245  0.0554
  152MOL0     H20942   5.914   1.242  12.177 -0.4008 -0.8419 -0.7848
  152MOL0     H20943   5.969   1.180  12.338  0.7230 -6.0786 -0.0960
  152MOL0     H20944   6.188   1.256  12.118  2.8447  0.3165  1.3108
  152MOL0     H20945   6.191   1.201  12.276 -3.2336 -0.8099  3.0884
  152MOL0     H20946   6.063   1.417  12.356  0.6759 -0.6083 -0.2486
  152MOL0     H20947   6.039   1.458  12.186 -1.1852  0.2267  0.7986
  152MOL0     H20948   6.222   1.596  12.304 -0.6850 -0.2920 -1.1707
  152MOL0     H20949   6.309   1.444  12.322  2.5492  2.1488 -2.4287
  152MOL0     H20950   6.307   1.444  12.063  0.3234 -0.1930 -0.0983
  152MOL0     H20951   6.398   1.586  12.129 -1.0045  2.3828 -2.5729
  152MOL0     H20952   6.176   1.699  12.126 -0.8573 -2.4424  0.9266
  152MOL0     H20953   6.131   1.594  11.993 -2.0371  1.1149  2.1991
  152MOL0     H20954   6.340   1.808  12.007  0.4617 -1.0935  0.7329
  152MOL0     H20955   6.207   1.808  11.895  1.7287  0.6710 -2.1164
  152MOL0     H20956   5.677   0.862  12.179  2.0152  1.2545  1.3695
  152MOL0     H20957   5.643   0.626  12.085  0.9911 -1.5602 -2.3559
  152MOL0     H20958   5.945   0.261  11.693  2.2064 -2.9290 -0.5240
  152MOL0     H20959   5.841   0.049  11.601  1.5215 -5.1272  2.0502
  152MOL0     H20960   6.178   0.588  11.879 -0.0172  1.0587  1.2400
  152MOL0     H20961   6.102   0.818  11.833  1.1528  1.2152  0.6527
  152MOL0     H20962   6.039   1.163  11.361  0.1752  0.5024 -0.6373
  152MOL0     H20963   5.979   1.379  11.327  0.7916 -1.0525 -0.3948
  152MOL0     H20964   6.017   1.628  11.294 -1.4730  2.6670 -2.5533
  152MOL0     H20965   5.865   1.614  11.400  0.6098 -2.6619  1.5693
  152MOL0     H20966   5.904   1.833  11.283 -0.7378 -0.9315  0.1464
  152MOL0     H20967   6.049   1.842  11.402  0.2773 -2.1045  2.3962
  152MOL0     H20968   5.751   1.788  11.476 -2.3214  3.0926  1.5348
  152MOL0     H20969   5.888   1.824  11.592  1.9013  2.9093  0.4517
  152MOL0     H20970   5.743   2.015  11.382 -1.5882 -0.3199  0.9244
  152MOL0     H20971   5.882   2.058  11.487  0.3227 -1.3673  0.9786
  152MOL0     H20972   5.568   2.079  11.759 -1.1307  0.9665 -1.2936
  152MOL0     H20973   6.176   1.502  11.682 -1.2786  0.1191  0.5617
  152MOL0     H20974   6.334   1.378  11.791  0.6772  0.0366  0.2888
  152MOL0     H20975   6.248   1.247  11.869  0.6705  3.1882  1.8515
  152MOL0     H20976   6.361   1.217  11.739  1.4605  2.6192  3.5961
  153MOL0     O20977   4.170   0.416   5.431  0.6985 -0.4089 -0.0610
  153MOL0     C20978   4.179   0.535   5.420 -0.1954  0.5412 -0.5249
  153MOL0     O20979   4.266   0.598   5.328  0.0462  0.8858  0.6876
  153MOL0     C20980   4.334   0.524   5.237  0.9828 -0.1619  0.2795
  153MOL0     C20981   4.292   0.410   5.165 -0.0133  0.7289  0.5456
  153MOL0     C20982   4.373   0.347   5.068 -0.7186  0.3567 -0.5723
  153MOL0     C20983   4.503   0.401   5.047 -0.6321  0.1825  0.1943
  153MOL0     O20984   4.591   0.337   4.965 -0.0034  0.0442  0.2591
  153MOL0     C20985   4.554   0.340   4.826  0.2579 -0.2585  0.4599
  153MOL0     C20986   4.582   0.482   4.779  0.4858 -1.5579 -0.3680
  153MOL0     C20987   4.573   0.498   4.633  0.4429  0.8029 -0.4588
  153MOL0     C20988   4.630   0.635   4.586  0.0020  0.6457  0.3804
  153MOL0     C20989   4.681   0.614   4.435  0.5944  0.3413  0.2830
  153MOL0     C20990   4.725   0.739   4.355  0.0832 -0.4442  0.1845
  153MOL0     C20991   4.752   0.712   4.208 -0.4324 -0.0072  0.3019
  153MOL0     C20992   4.888   0.652   4.166  0.1106 -0.0882  0.0381
  153MOL0     N20993   4.988   0.743   4.119 -0.0475 -0.8392 -0.0420
  153MOL0     C20994   5.026   0.854   4.188 -0.1567  0.0349 -0.6517
  153MOL0     C20995   5.127   0.909   4.110  0.3153 -0.0331  0.5446
  153MOL0     C20996   5.228   1.028   4.142  0.0338  0.2024 -0.6414
  153MOL0     C20997   5.174   1.136   4.242  0.4801 -0.7469  0.5772
  153MOL0     C20998   5.262   1.262   4.243  1.1393  0.2196  0.4184
  153MOL0     C20999   5.210   1.361   4.340  0.6181  0.6423 -0.8249
  153MOL0     O21000   5.075   1.392   4.330 -0.4272 -0.3805 -0.0646
  153MOL0     C21001   5.040   1.486   4.238  0.4104  0.4792  0.0978
  153MOL0     C21002   4.914   1.480   4.189 -0.2884 -0.6673  0.3338
  153MOL0     C21003   4.869   1.556   4.078 -0.2665 -0.0206  0.5144
  153MOL0     C21004   4.723   1.531   4.043 -0.1796 -0.2246 -0.0066
  153MOL0     C21005   4.961   1.638   3.997 -1.2227 -0.1955 -1.2311
  153MOL0     C21006   4.917   1.724   3.874  0.2358  0.5297  0.1899
  153MOL0     O21007   4.791   1.699   3.828  0.4356 -0.1892 -0.4042
  153MOL0     C21008   4.741   1.717   3.699 -0.0816  0.2288  1.2212
  153MOL0     C21009   4.810   1.722   3.573  0.3909  0.5918 -0.1317
  153MOL0     C21010   4.740   1.737   3.456  0.1803  0.3778 -0.0444
  153MOL0     C21011   4.601   1.745   3.463 -0.2754  0.5121  0.0166
  153MOL0     O21012   4.521   1.764   3.352 -0.2023  0.8594 -0.5733
  153MOL0     C21013   4.573   1.832   3.236  0.2634  0.4418 -0.3744
  153MOL0     C21014   4.452   1.856   3.146 -0.1446 -0.2857 -0.3682
  153MOL0     C21015   4.313   1.888   3.209  0.2072 -0.6766  0.3031
  153MOL0     C21016   4.224   1.975   3.125 -0.0199 -0.4238 -0.1005
  153MOL0     C21017   4.218   1.916   2.982 -0.0411  0.6482 -0.8089
  153MOL0     C21018   4.131   1.985   2.880  0.2416 -0.0118 -0.2882
  153MOL0     C21019   4.101   1.899   2.766 -0.1915  0.6682  0.1499
  153MOL0     C21020   4.026   1.978   2.659  0.3736  0.2196 -0.0199
  153MOL0    Cl21021   4.137   2.086   2.559  0.5992 -0.0427  0.5740
  153MOL0     C21022   4.535   1.740   3.581 -0.6736  0.4156 -0.8403
  153MOL0     C21023   4.605   1.730   3.702  0.3828 -0.3331  0.7296
  153MOL0     O21024   4.999   1.793   3.814 -1.1049  0.0408 -0.0218
  153MOL0     C21025   5.089   1.655   4.062  0.0393  0.3658  0.2382
  153MOL0     C21026   5.131   1.574   4.168  0.2293 -0.1399 -0.1889
  153MOL0     N21027   5.148   0.830   4.005 -0.1396 -0.5169 -0.4435
  153MOL0     N21028   5.057   0.740   3.999  0.2002  0.3937 -0.6450
  153MOL0     C21029   4.544   0.522   5.110 -0.0654  0.7343 -0.3342
  153MOL0     C21030   4.458   0.575   5.197  0.2788 -0.1320 -0.5090
  153MOL0     C21031   4.100   0.617   5.518 -0.0129 -0.5415 -0.7420
  153MOL0     C21032   4.137   0.756   5.523  0.0599 -0.0108  0.3337
  153MOL0     C21033   4.072   0.847   5.597 -1.1467  0.2018  0.2416
  153MOL0     C21034   3.971   0.807   5.683 -0.2261  0.2765  0.1849
  153MOL0     O21035   3.915   0.904   5.762  0.3851  0.0447  0.0690
  153MOL0     C21036   3.808   0.887   5.865 -0.2029 -0.2712  0.5052
  153MOL0     C21037   3.792   1.011   5.957  0.2277 -0.3249 -0.6146
  153MOL0     C21038   3.765   1.005   6.106  0.2238  0.8657  0.4052
  153MOL0     C21039   3.644   0.902   6.133  0.4180  0.6207  0.8583
  153MOL0     C21040   3.520   0.973   6.106 -0.1150  0.5020  0.3549
  153MOL0     C21041   3.411   1.022   6.085  0.6256  0.4644 -0.1725
  153MOL0     C21042   3.931   0.673   5.680  0.8684 -0.6293 -0.1043
  153MOL0     C21043   3.998   0.568   5.603 -0.5836 -1.2671  0.1610
  153MOL0     C21044   3.951   0.423   5.603 -0.3610  0.2383 -0.3559
  153MOL0     H21045   4.191   0.371   5.182  0.7648 -2.3577 -1.0499
  153MOL0     H21046   4.349   0.256   5.014  1.3183 -2.6719  3.1345
  153MOL0     H21047   4.447   0.319   4.819  0.3439 -0.4921 -0.3022
  153MOL0     H21048   4.595   0.260   4.763 -2.2357 -1.4044  0.1842
  153MOL0     H21049   4.507   0.551   4.818  1.7744 -0.5473  0.4087
  153MOL0     H21050   4.675   0.508   4.831 -0.0462 -2.1761  0.9191
  153MOL0     H21051   4.641   0.425   4.587  3.1731  2.7878  0.2177
  153MOL0     H21052   4.468   0.489   4.604 -0.2461  2.1756  1.4383
  153MOL0     H21053   4.551   0.701   4.624 -0.0515 -0.6055  2.6419
  153MOL0     H21054   4.716   0.655   4.651  2.3092  0.0560 -2.3128
  153MOL0     H21055   4.597   0.562   4.387  2.1392 -1.6068 -0.4285
  153MOL0     H21056   4.763   0.542   4.431 -1.0533 -1.7955  1.9258
  153MOL0     H21057   4.646   0.814   4.359  0.3661 -0.1957  1.7557
  153MOL0     H21058   4.809   0.779   4.412 -0.6416 -4.9386  5.2747
  153MOL0     H21059   4.734   0.799   4.144 -0.7609  0.4222  0.9697
  153MOL0     H21060   4.681   0.635   4.174  0.5550 -0.6404 -0.3871
  153MOL0     H21061   4.950   0.594   4.236 -2.6223 -0.9124  1.9397
  153MOL0     H21062   4.862   0.588   4.081  1.1536 -0.0599 -0.3128
  153MOL0     H21063   4.998   0.893   4.286 -0.3688 -1.0645 -0.2580
  153MOL0     H21064   5.247   1.069   4.042 -1.6762  4.4431  0.5451
  153MOL0     H21065   5.321   0.983   4.179  0.0957 -1.7357 -2.9446
  153MOL0     H21066   5.071   1.168   4.221 -0.1020 -0.6315  3.3183
  153MOL0     H21067   5.180   1.092   4.341  2.4645  1.7627  1.6905
  153MOL0     H21068   5.360   1.233   4.281  1.2036  1.9147  1.6638
  153MOL0     H21069   5.268   1.313   4.146  2.8991  2.2664  1.5158
  153MOL0     H21070   5.224   1.315   4.438  2.4952  0.5542 -1.0922
  153MOL0     H21071   5.283   1.442   4.343 -0.4743  1.6583 -0.7754
  153MOL0     H21072   4.836   1.430   4.244 -1.0141  1.5983  1.4684
  153MOL0     H21073   4.675   1.462   4.113  1.5470 -1.0293  0.4283
  153MOL0     H21074   4.711   1.481   3.947 -1.0664  0.3504 -0.2044
  153MOL0     H21075   4.669   1.626   4.049  0.4305  0.0692  1.1841
  153MOL0     H21076   4.915   1.697   3.577  0.0078 -1.1800  0.0674
  153MOL0     H21077   4.795   1.732   3.362 -1.2458 -1.8626 -0.8397
  153MOL0     H21078   4.613   1.930   3.264 -1.1367  1.4825 -1.8373
  153MOL0     H21079   4.657   1.782   3.188  2.1315  2.2765  0.8032
  153MOL0     H21080   4.478   1.948   3.093 -0.0208  0.2343  0.5731
  153MOL0     H21081   4.443   1.770   3.079  1.1198 -2.5191  2.1362
  153MOL0     H21082   4.343   1.943   3.298 -3.8516  2.5068  0.0180
  153MOL0     H21083   4.253   1.799   3.233 -1.4124  0.3591  0.2446
  153MOL0     H21084   4.265   2.077   3.127  0.5660 -0.6166 -1.5288
  153MOL0     H21085   4.125   1.984   3.171 -0.9180 -3.2907 -1.2791
  153MOL0     H21086   4.317   1.924   2.937 -0.6473  2.8756 -1.8477
  153MOL0     H21087   4.194   1.809   2.990 -1.0840  0.8831 -0.6199
  153MOL0     H21088   4.191   2.075   2.865 -0.5173  1.6290  4.6470
  153MOL0     H21089   4.036   2.027   2.914 -0.8416 -1.4244 -1.4562
  153MOL0     H21090   4.034   1.820   2.800  1.6856 -0.3077  1.8212
  153MOL0     H21091   4.190   1.851   2.723 -0.9276 -1.2391  0.6630
  153MOL0     H21092   3.945   2.032   2.708 -0.7054 -2.4909  1.4188
  153MOL0     H21093   3.974   1.918   2.584 -0.4412 -0.1916  0.8449
  153MOL0     H21094   4.429   1.752   3.601 -0.3939 -0.9528  1.9517
  153MOL0     H21095   4.549   1.736   3.795 -1.7213  3.9480 -0.5725
  153MOL0     H21096   5.160   1.727   4.023  2.5441 -2.8453 -1.6640
  153MOL0     H21097   5.230   1.588   4.211 -0.3224  0.5583  0.9176
  153MOL0     H21098   4.637   0.571   5.083 -0.4097  1.4286 -0.2549
  153MOL0     H21099   4.492   0.661   5.253  2.4549 -1.5928  0.5358
  153MOL0     H21100   4.222   0.782   5.462  0.9034  1.4887  2.0622
  153MOL0     H21101   4.098   0.952   5.596 -1.2022  0.3314 -3.9021
  153MOL0     H21102   3.713   0.868   5.813 -0.6374 -0.0616  1.2182
  153MOL0     H21103   3.839   0.793   5.912  3.5129  0.6006  0.0871
  153MOL0     H21104   3.707   1.072   5.926 -1.0603 -1.3862  0.6782
  153MOL0     H21105   3.888   1.062   5.944  0.4857 -0.0642  1.9210
  153MOL0     H21106   3.862   0.990   6.154  0.7679  1.2756 -0.5438
  153MOL0     H21107   3.729   1.103   6.141 -1.6276 -0.6758  3.2377
  153MOL0     H21108   3.645   0.860   6.234 -0.9214 -0.3520  0.4898
  153MOL0     H21109   3.656   0.825   6.057  1.2159  1.2033  0.3771
  153MOL0     H21110   3.316   1.071   6.077  0.6027  0.2218 -1.7556
  153MOL0     H21111   3.853   0.638   5.747 -1.3093  0.9350 -1.6468
  153MOL0     H21112   3.871   0.395   5.673 -2.7211  0.3490 -2.8584
  153MOL0     H21113   3.916   0.403   5.502  2.4834  0.1358 -1.4075
  153MOL0     H21114   4.028   0.349   5.628 -0.0934  1.6075  3.5654
  154MOL0     O21115   4.063   6.219   7.475  0.4778 -0.3268  0.0898
  154MOL0     C21116   4.060   6.320   7.403 -0.6038  1.2820  0.7968
  154MOL0     O21117   4.162   6.341   7.312  0.1314  0.7685  0.0235
  154MOL0     C21118   4.265   6.245   7.303  0.4604  0.5206 -0.2387
  154MOL0     C21119   4.393   6.294   7.300 -0.0026 -0.5028 -0.3273
  154MOL0     C21120   4.501   6.212   7.307  0.5458 -0.6652  0.4534
  154MOL0     C21121   4.487   6.073   7.291  0.4312  0.0276  0.2391
  154MOL0     O21122   4.601   5.997   7.280 -0.5698  0.7844  0.6427
  154MOL0     C21123   4.611   5.909   7.165  0.0453 -2.0323  0.1942
  154MOL0     C21124   4.756   5.868   7.146 -0.5683 -0.0742  0.4598
  154MOL0     C21125   4.814   5.918   7.012 -0.8334  1.0115 -0.3017
  154MOL0     C21126   4.963   5.907   6.996 -0.6342 -0.4472  0.0905
  154MOL0     C21127   5.025   5.978   6.876 -0.0487  0.5665  0.8981
  154MOL0     C21128   5.163   6.016   6.901  1.0332  0.1685  0.5814
  154MOL0     C21129   5.228   6.077   6.778 -0.5868  1.2740  0.2792
  154MOL0     C21130   5.383   6.086   6.785 -0.6088 -0.2482 -0.8773
  154MOL0     N21131   5.434   6.189   6.692  0.2338 -0.1962  0.0573
  154MOL0     C21132   5.427   6.186   6.556 -0.1667  0.2378  0.9091
  154MOL0     C21133   5.461   6.316   6.520  0.1395 -0.0590  0.0872
  154MOL0     C21134   5.478   6.385   6.391 -0.1292 -0.5192 -0.1959
  154MOL0     C21135   5.620   6.382   6.365  0.2160  0.2841 -0.6189
  154MOL0     C21136   5.658   6.466   6.240 -0.1938 -0.6791  0.5213
  154MOL0     C21137   5.807   6.500   6.224 -0.1620  0.3233  0.7116
  154MOL0     O21138   5.869   6.375   6.237 -0.0622 -0.0389 -0.5915
  154MOL0     C21139   5.877   6.279   6.140  1.1857 -1.3266 -0.9599
  154MOL0     C21140   5.911   6.145   6.170 -0.7585 -0.6419 -0.0929
  154MOL0     C21141   5.905   6.039   6.077  0.0368  0.0666  0.6237
  154MOL0     C21142   5.926   5.897   6.121  0.1268  0.3212 -0.2300
  154MOL0     C21143   5.898   6.076   5.935  0.6765  0.7107  0.3450
  154MOL0     C21144   5.919   5.979   5.822 -0.0363 -0.4307  0.2366
  154MOL0     O21145   5.902   5.849   5.837  0.1617  0.5895  0.7464
  154MOL0     C21146   5.978   5.764   5.765 -0.3628 -1.1373 -0.2017
  154MOL0     C21147   5.963   5.750   5.627 -0.6079 -0.7282  0.0733
  154MOL0     C21148   6.060   5.682   5.548  0.3161  0.0730  0.7201
  154MOL0     C21149   6.160   5.609   5.601  0.0732  0.6663 -0.6291
  154MOL0     O21150   6.251   5.534   5.542  0.0072  0.4662  0.4911
  154MOL0     C21151   6.245   5.521   5.398  0.4720 -0.8256  0.7448
  154MOL0     C21152   6.116   5.436   5.353 -0.5778 -1.6957  0.0740
  154MOL0     C21153   6.104   5.294   5.418 -0.2112 -1.0447 -0.9548
  154MOL0     C21154   6.209   5.189   5.393  0.0798 -0.1663 -0.1564
  154MOL0     C21155   6.167   5.056   5.459  0.9424  0.1187 -0.1209
  154MOL0     C21156   6.282   4.956   5.435  0.1740 -0.0896  0.3936
  154MOL0     C21157   6.252   4.818   5.494  0.4569  0.5184  0.3515
  154MOL0     C21158   6.373   4.712   5.502  0.6602  0.0757  1.2167
  154MOL0    Cl21159   6.326   4.595   5.625 -0.0648 -0.2307  0.5716
  154MOL0     C21160   6.165   5.612   5.739 -0.4146  0.6583 -0.6056
  154MOL0     C21161   6.082   5.687   5.824  0.7541  0.4530 -0.3812
  154MOL0     O21162   5.936   6.028   5.709 -0.0026  0.0285  0.7153
  154MOL0     C21163   5.879   6.213   5.901 -0.4183 -1.2611 -0.7219
  154MOL0     C21164   5.845   6.305   6.005 -1.5099 -0.2166  0.5582
  154MOL0     N21165   5.482   6.390   6.638 -0.7483  0.2942 -0.2654
  154MOL0     N21166   5.463   6.313   6.743 -0.2372 -0.0232  1.0622
  154MOL0     C21167   4.354   6.021   7.268  0.5743 -0.8485  0.9492
  154MOL0     C21168   4.240   6.113   7.281 -0.7836  0.4021  0.0599
  154MOL0     C21169   3.947   6.411   7.408  0.3086  0.3004 -0.4970
  154MOL0     C21170   3.813   6.372   7.416 -0.4660 -0.3517  0.1369
  154MOL0     C21171   3.695   6.455   7.421 -0.4917 -0.3247 -0.0961
  154MOL0     C21172   3.721   6.591   7.407  0.4663 -0.2168 -0.2848
  154MOL0     O21173   3.620   6.690   7.404 -0.3325 -0.0363  1.0252
  154MOL0     C21174   3.487   6.646   7.428 -0.1719 -0.2643  0.5621
  154MOL0     C21175   3.395   6.761   7.360 -0.2148  0.0477 -0.1410
  154MOL0     C21176   3.379   6.751   7.211  0.6511  0.1274 -0.0003
  154MOL0     C21177   3.314   6.621   7.156 -0.1283 -1.1386 -0.3939
  154MOL0     C21178   3.180   6.593   7.211  0.0076 -0.0095 -0.6424
  154MOL0     C21179   3.067   6.582   7.257  0.3206  0.4576 -0.2863
  154MOL0     C21180   3.849   6.635   7.385 -0.2001  0.1254 -0.3937
  154MOL0     C21181   3.962   6.546   7.385 -0.5938 -0.0093 -0.5877
  154MOL0     C21182   4.090   6.612   7.349 -0.0658 -0.6641  0.8353
  154MOL0     H21183   4.417   6.399   7.300  3.2544 -1.1293  1.4111
  154MOL0     H21184   4.593   6.266   7.329 -0.9987  1.0628  3.4310
  154MOL0     H21185   4.570   5.959   7.077  1.5486  2.0865  1.5541
  154MOL0     H21186   4.548   5.823   7.186 -2.4072 -0.4929 -0.4118
  154MOL0     H21187   4.819   5.901   7.229  2.0659  0.6599 -1.6606
  154MOL0     H21188   4.764   5.759   7.143 -0.9735 -0.1289  1.2016
  154MOL0     H21189   4.770   5.861   6.930  2.5068 -0.5813 -1.1714
  154MOL0     H21190   4.780   6.020   6.992 -0.1054  1.0862 -1.1818
  154MOL0     H21191   5.009   5.943   7.088 -1.1387 -0.6781  0.4414
  154MOL0     H21192   4.992   5.802   6.987  0.8784 -0.2470  1.9966
  154MOL0     H21193   4.959   6.061   6.849  2.5488  1.6562 -2.9590
  154MOL0     H21194   5.020   5.929   6.778  1.0898  0.8117  0.7065
  154MOL0     H21195   5.174   6.086   6.984 -0.4987  1.6934 -0.4289
  154MOL0     H21196   5.226   5.931   6.929 -0.3846 -1.0063  0.3406
  154MOL0     H21197   5.183   6.174   6.752  1.3687  1.3876 -3.3585
  154MOL0     H21198   5.208   6.009   6.694 -0.8123  0.8442  0.6764
  154MOL0     H21199   5.414   6.116   6.885 -2.0832 -0.0680 -0.4468
  154MOL0     H21200   5.429   5.988   6.770 -0.3866 -1.1670  4.2072
  154MOL0     H21201   5.399   6.100   6.495  0.1470  1.1027 -0.5029
  154MOL0     H21202   5.428   6.481   6.408 -4.1384 -2.6114  1.0925
  154MOL0     H21203   5.427   6.326   6.314 -1.8795  2.3920 -1.4119
  154MOL0     H21204   5.673   6.423   6.451  0.7816  3.5891 -2.3670
  154MOL0     H21205   5.644   6.276   6.356 -3.3380 -0.4908 -3.5531
  154MOL0     H21206   5.619   6.404   6.159  1.7320  0.0430 -1.0400
  154MOL0     H21207   5.606   6.561   6.223  0.1674 -1.0535 -3.9860
  154MOL0     H21208   5.841   6.547   6.131  1.9677  0.1879  1.3618
  154MOL0     H21209   5.833   6.571   6.303 -2.1091  0.3559  1.3740
  154MOL0     H21210   5.922   6.120   6.275 -2.7745 -2.6374 -0.2832
  154MOL0     H21211   6.009   5.856   6.063  0.4261  0.7056 -0.0775
  154MOL0     H21212   5.838   5.833   6.111  1.1538 -1.0164 -0.8860
  154MOL0     H21213   5.957   5.873   6.223  3.5755 -3.2016 -1.8706
  154MOL0     H21214   5.898   5.822   5.579  1.2678  0.5083 -0.7114
  154MOL0     H21215   6.048   5.683   5.440 -0.0756 -2.1056  0.6975
  154MOL0     H21216   6.257   5.614   5.342  2.4316 -0.2016  2.0715
  154MOL0     H21217   6.330   5.465   5.358 -0.0596 -0.1686 -1.4155
  154MOL0     H21218   6.026   5.497   5.368  0.7527  0.6704 -0.9739
  154MOL0     H21219   6.129   5.434   5.244  1.0605  0.6501  0.1428
  154MOL0     H21220   6.015   5.247   5.374 -1.1342  0.7983 -1.1619
  154MOL0     H21221   6.086   5.305   5.525 -1.2638 -0.1459 -1.2038
  154MOL0     H21222   6.308   5.217   5.430  1.8484 -4.9282 -0.5429
  154MOL0     H21223   6.218   5.182   5.285  0.8754  3.8731 -0.5046
  154MOL0     H21224   6.154   5.071   5.567 -0.0510  0.3007 -0.2545
  154MOL0     H21225   6.075   5.023   5.409  1.5095  0.4576 -1.4403
  154MOL0     H21226   6.370   4.983   5.495  2.0690 -3.6184 -0.5041
  154MOL0     H21227   6.294   4.944   5.327  0.0707 -0.7083  0.4456
  154MOL0     H21228   6.163   4.773   5.449 -0.7376  1.0443  2.0620
  154MOL0     H21229   6.217   4.839   5.596  0.8223  0.4889  0.4843
  154MOL0     H21230   6.476   4.736   5.530  2.1346 -1.0155 -2.5813
  154MOL0     H21231   6.360   4.662   5.406 -0.9682  0.4050  1.2316
  154MOL0     H21232   6.228   5.543   5.794 -0.2375 -1.5975 -3.4098
  154MOL0     H21233   6.102   5.683   5.930 -0.4344 -0.7566 -0.1717
  154MOL0     H21234   5.888   6.255   5.801  0.7472  0.1397 -0.0618
  154MOL0     H21235   5.832   6.409   5.976 -0.3976 -0.4377 -0.8162
  154MOL0     H21236   4.334   5.922   7.227  0.8760  0.4118 -2.5222
  154MOL0     H21237   4.142   6.071   7.259 -0.2392  0.3883 -2.7431
  154MOL0     H21238   3.795   6.265   7.422 -0.4937 -0.2652  2.2676
  154MOL0     H21239   3.594   6.415   7.420 -0.3945 -0.5829  0.4986
  154MOL0     H21240   3.451   6.548   7.394 -2.3929  0.5540  0.4060
  154MOL0     H21241   3.467   6.651   7.536  0.1793  1.7452  0.5567
  154MOL0     H21242   3.436   6.861   7.378 -0.1312 -0.2400  1.3978
  154MOL0     H21243   3.293   6.763   7.400  0.1985 -0.7809  1.0281
  154MOL0     H21244   3.312   6.832   7.183 -2.8314 -2.1320  1.1380
  154MOL0     H21245   3.475   6.763   7.161 -1.0816 -0.0226 -3.6457
  154MOL0     H21246   3.380   6.543   7.196  2.4892  0.5113 -1.2568
  154MOL0     H21247   3.323   6.638   7.049  2.5488  0.1609 -0.0442
  154MOL0     H21248   2.969   6.566   7.297  0.3005  1.5764  0.1313
  154MOL0     H21249   3.862   6.742   7.373  1.2988  0.6256  3.9982
  154MOL0     H21250   4.117   6.604   7.243 -1.3610 -1.8920  0.5747
  154MOL0     H21251   4.074   6.716   7.380 -1.9985 -1.0890  1.3845
  154MOL0     H21252   4.184   6.587   7.399  2.3501  0.9006 -2.4920
  155MOL0     O21253  11.151   8.722   6.582 -0.4111  0.0233  0.3851
  155MOL0     C21254  11.143   8.833   6.524 -0.5730  0.4722  0.1793
  155MOL0     O21255  11.060   8.866   6.420 -0.8521  0.5712 -0.0810
  155MOL0     C21256  11.014   8.752   6.355 -0.0072 -0.5760 -0.3090
  155MOL0     C21257  11.092   8.673   6.269 -1.5113 -0.8227  0.9192
  155MOL0     C21258  11.037   8.551   6.239 -0.6393 -0.7211  1.0086
  155MOL0     C21259  10.903   8.521   6.259 -0.3510  0.5458  0.0985
  155MOL0     O21260  10.848   8.404   6.205 -0.5645 -0.1466  0.5408
  155MOL0     C21261  10.767   8.328   6.291 -0.7029 -1.0719 -0.1438
  155MOL0     C21262  10.768   8.173   6.270 -0.9025 -0.2483 -0.7708
  155MOL0     C21263  10.648   8.111   6.351  0.2581  0.0002 -0.1406
  155MOL0     C21264  10.625   7.960   6.328  0.3397 -0.3058  0.6056
  155MOL0     C21265  10.757   7.881   6.338 -0.3151 -0.2123  0.4036
  155MOL0     C21266  10.735   7.735   6.339  0.8265  0.5749 -0.7337
  155MOL0     C21267  10.688   7.665   6.477  1.1900  0.4152  0.2533
  155MOL0     C21268  10.636   7.529   6.459 -0.0756  0.0874 -0.8267
  155MOL0     N21269  10.574   7.473   6.580  0.1143  0.2041  0.4124
  155MOL0     C21270  10.635   7.389   6.668 -0.7087  0.0776 -1.0794
  155MOL0     C21271  10.544   7.369   6.770  0.5698  0.0515  0.7779
  155MOL0     C21272  10.537   7.273   6.886 -0.1639 -0.0872  0.0968
  155MOL0     C21273  10.565   7.335   7.031 -0.3716  0.5243  0.5724
  155MOL0     C21274  10.466   7.452   7.063  0.7588 -0.4387 -0.8054
  155MOL0     C21275  10.324   7.402   7.086 -0.4786  0.2886  0.1712
  155MOL0     O21276  10.246   7.489   7.167  0.5264 -0.2697  0.2195
  155MOL0     C21277  10.218   7.617   7.127  0.4134  0.7959  0.4466
  155MOL0     C21278  10.228   7.661   6.992 -0.1080 -0.5247 -1.0936
  155MOL0     C21279  10.201   7.791   6.952 -0.6432 -0.1820 -0.1699
  155MOL0     C21280  10.217   7.817   6.806  0.4801  0.7915 -0.3983
  155MOL0     C21281  10.168   7.892   7.045  0.0447 -0.2870 -0.1165
  155MOL0     C21282  10.145   8.036   7.013  0.4119  0.5482 -0.1034
  155MOL0     O21283  10.144   8.075   6.882  0.1393  0.7530  0.2534
  155MOL0     C21284  10.147   8.205   6.846 -0.7537 -0.9338 -0.0949
  155MOL0     C21285  10.235   8.246   6.742 -1.1384  0.4749  0.1867
  155MOL0     C21286  10.226   8.378   6.686 -0.9112 -1.1344 -0.0154
  155MOL0     C21287  10.131   8.465   6.738 -0.4313 -0.2936  0.6131
  155MOL0     O21288  10.126   8.593   6.688 -0.3599 -0.8590 -1.0610
  155MOL0     C21289  10.039   8.688   6.755  0.0730  0.0371 -0.1250
  155MOL0     C21290  10.079   8.833   6.714  0.5762  0.8302 -0.3526
  155MOL0     C21291  10.019   8.861   6.571  0.6881  0.5897  0.1525
  155MOL0     C21292  10.095   8.809   6.445 -0.1464  0.3695  0.4441
  155MOL0     C21293  10.018   8.840   6.317 -0.1825  0.2401  0.8677
  155MOL0     C21294   9.869   8.800   6.284 -0.0430 -0.3310  0.4383
  155MOL0     C21295   9.854   8.652   6.251  0.5011 -0.3994  0.5269
  155MOL0     C21296   9.868   8.551   6.357  0.2021 -0.3772 -0.2365
  155MOL0    Cl21297   9.748   8.568   6.480 -0.2123 -0.2625  0.0361
  155MOL0     C21298  10.036   8.421   6.841 -0.8811 -0.1659  0.0697
  155MOL0     C21299  10.041   8.288   6.885 -0.2867  1.0855 -0.9872
  155MOL0     O21300  10.120   8.113   7.111  0.3269 -0.2998  0.4727
  155MOL0     C21301  10.156   7.849   7.183  0.0414  0.1785 -0.3186
  155MOL0     C21302  10.189   7.719   7.218 -0.1027  1.4391 -0.3348
  155MOL0     N21303  10.436   7.437   6.743 -0.0482  0.4771 -0.6333
  155MOL0     N21304  10.449   7.492   6.628  0.5373 -1.0051  0.9366
  155MOL0     C21305  10.833   8.598   6.351  0.3178  0.3993  0.0147
  155MOL0     C21306  10.891   8.707   6.407  0.1097  0.6092  0.1120
  155MOL0     C21307  11.207   8.947   6.583  0.2096  0.0458  0.5865
  155MOL0     C21308  11.330   8.913   6.654 -1.0163  0.5313  0.0270
  155MOL0     C21309  11.423   9.015   6.707  0.0992  0.7376 -0.3451
  155MOL0     C21310  11.402   9.146   6.687  1.3957  1.1761 -0.3425
  155MOL0     O21311  11.496   9.239   6.730 -0.3325 -0.8894  0.5220
  155MOL0     C21312  11.449   9.313   6.842  0.8320 -0.5848 -0.4275
  155MOL0     C21313  11.433   9.224   6.966 -0.9788 -0.0700  0.7653
  155MOL0     C21314  11.566   9.180   7.017 -0.5838  0.7565  0.1497
  155MOL0     C21315  11.541   9.092   7.142  0.1906 -0.0565  0.0210
  155MOL0     C21316  11.673   9.057   7.194 -0.5598  0.3264 -0.1890
  155MOL0     C21317  11.783   9.027   7.243 -0.9126 -0.9534 -0.5485
  155MOL0     C21318  11.282   9.176   6.618 -0.3702 -1.1162  0.5896
  155MOL0     C21319  11.192   9.085   6.563  0.0645  0.3121 -0.7669
  155MOL0     C21320  11.083   9.141   6.480 -0.0708 -0.2608  0.1854
  155MOL0     H21321  11.194   8.704   6.247 -2.3104  0.4504 -1.2796
  155MOL0     H21322  11.106   8.494   6.178  1.1159  3.2024 -1.0686
  155MOL0     H21323  10.666   8.369   6.286  0.2829  1.7259  0.8136
  155MOL0     H21324  10.797   8.347   6.394 -1.0766  0.5729 -0.3133
  155MOL0     H21325  10.755   8.154   6.163 -2.1237  4.3175 -1.6733
  155MOL0     H21326  10.864   8.137   6.305 -1.1365  0.4509  0.6437
  155MOL0     H21327  10.667   8.122   6.458 -1.3894 -3.6869  0.7026
  155MOL0     H21328  10.552   8.161   6.338  1.5439  3.2009  1.6039
  155MOL0     H21329  10.556   7.930   6.408 -3.3798  3.7812 -0.7154
  155MOL0     H21330  10.574   7.944   6.233 -0.2608  4.0023 -0.0037
  155MOL0     H21331  10.805   7.913   6.431  2.7139 -3.1626  0.0634
  155MOL0     H21332  10.828   7.909   6.258  1.2551 -1.6934  1.2133
  155MOL0     H21333  10.668   7.709   6.257 -0.8811  0.4446  0.6430
  155MOL0     H21334  10.828   7.683   6.313  0.3868  0.8164 -2.9965
  155MOL0     H21335  10.592   7.709   6.505 -0.9427 -1.6233 -3.0901
  155MOL0     H21336  10.754   7.677   6.564 -1.8813  1.4170  2.6081
  155MOL0     H21337  10.559   7.519   6.383  0.5994 -0.8155 -1.4129
  155MOL0     H21338  10.719   7.471   6.418 -0.6562 -2.2444  1.0992
  155MOL0     H21339  10.734   7.346   6.662 -1.1931 -1.2996  0.3238
  155MOL0     H21340  10.618   7.201   6.871  0.4957  0.7625 -0.4744
  155MOL0     H21341  10.442   7.219   6.895  0.2074 -0.3399  4.2989
  155MOL0     H21342  10.559   7.261   7.111 -1.7202 -1.8597 -1.5673
  155MOL0     H21343  10.666   7.377   7.024 -1.2173  3.4135  3.3983
  155MOL0     H21344  10.514   7.500   7.149  2.2681 -0.3941 -1.6416
  155MOL0     H21345  10.470   7.537   6.994  0.7497  0.3798  0.1872
  155MOL0     H21346  10.281   7.394   6.986  0.9032 -1.1664 -0.3531
  155MOL0     H21347  10.319   7.309   7.142 -3.7453  1.3911  1.9301
  155MOL0     H21348  10.245   7.583   6.918  1.0475  0.0363 -1.4547
  155MOL0     H21349  10.309   7.875   6.797  2.0052 -0.7788  3.1795
  155MOL0     H21350  10.138   7.879   6.762  1.1335  1.1946 -1.0158
  155MOL0     H21351  10.233   7.727   6.746  1.9360  1.3333 -0.8501
  155MOL0     H21352  10.310   8.170   6.718 -1.8865 -0.2800  0.1967
  155MOL0     H21353  10.292   8.412   6.607 -2.0641 -3.5886 -2.1866
  155MOL0     H21354   9.937   8.651   6.739  0.5016 -0.9281 -0.6807
  155MOL0     H21355  10.056   8.685   6.863  1.2544  1.5810 -0.2309
  155MOL0     H21356  10.043   8.904   6.790 -0.5862  3.1576 -2.8956
  155MOL0     H21357  10.188   8.836   6.710  0.6900  0.2116  1.5546
  155MOL0     H21358  10.012   8.970   6.581  0.6533  0.4710  1.5410
  155MOL0     H21359   9.917   8.821   6.575  1.0652 -0.2864  1.4793
  155MOL0     H21360  10.095   8.700   6.452  0.2567  0.4702  3.1601
  155MOL0     H21361  10.197   8.848   6.439 -0.7675  1.9804  0.0860
  155MOL0     H21362  10.030   8.949   6.309  1.4841  0.3309  3.5333
  155MOL0     H21363  10.064   8.784   6.235 -3.2306 -3.2378  1.2895
  155MOL0     H21364   9.851   8.849   6.188  0.8129 -2.4595 -0.8741
  155MOL0     H21365   9.798   8.848   6.352  1.1350  0.2800  1.2624
  155MOL0     H21366   9.932   8.626   6.180  0.4681 -2.8968  1.3027
  155MOL0     H21367   9.759   8.625   6.203 -0.7285  0.0352  2.5528
  155MOL0     H21368   9.965   8.557   6.408  0.3374  4.8729 -0.5469
  155MOL0     H21369   9.870   8.446   6.325 -2.9293 -0.5585 -0.1718
  155MOL0     H21370   9.959   8.486   6.881  0.1450  0.4834  1.0411
  155MOL0     H21371   9.982   8.258   6.971  3.8474  0.6068  1.9739
  155MOL0     H21372  10.128   7.919   7.261  2.5854  0.2793  0.6069
  155MOL0     H21373  10.181   7.692   7.323 -1.3639  3.8499  0.2508
  155MOL0     H21374  10.731   8.570   6.372  1.0008 -2.5365 -0.1142
  155MOL0     H21375  10.839   8.786   6.459  1.5815  3.8239 -2.9115
  155MOL0     H21376  11.365   8.811   6.664 -0.5648  0.7281  0.4608
  155MOL0     H21377  11.508   8.995   6.773 -0.8078 -2.9672 -0.0834
  155MOL0     H21378  11.531   9.384   6.856  2.0485 -1.9880 -0.2006
  155MOL0     H21379  11.358   9.373   6.832  0.8055 -0.6419 -0.5268
  155MOL0     H21380  11.372   9.138   6.941 -1.5915  1.0303 -1.7377
  155MOL0     H21381  11.386   9.281   7.047  2.6974 -0.5455  3.5706
  155MOL0     H21382  11.623   9.128   6.939 -2.5175 -0.5129 -0.4828
  155MOL0     H21383  11.623   9.268   7.045  0.1234 -0.0687  1.3975
  155MOL0     H21384  11.471   9.015   7.108 -1.4356  1.4414 -0.1946
  155MOL0     H21385  11.478   9.145   7.215 -5.1289 -1.9882 -2.6264
  155MOL0     H21386  11.873   9.004   7.296  0.2046  1.2933 -1.3373
  155MOL0     H21387  11.268   9.283   6.609  2.7498 -0.4175  2.6125
  155MOL0     H21388  10.989   9.097   6.516 -1.7791  0.4023 -3.0388
  155MOL0     H21389  11.068   9.249   6.489 -1.7390 -0.4367 -0.1720
  155MOL0     H21390  11.085   9.119   6.373  0.0232  0.1182  0.1107
  156MOL0     O21391   2.055   5.400   9.992  0.1694  1.3588  0.4532
  156MOL0     C21392   2.029   5.473  10.083  0.2977 -0.4145  0.6153
  156MOL0     O21393   2.120   5.565  10.123  0.2180  0.5769 -0.1008
  156MOL0     C21394   2.245   5.565  10.067  0.2990  0.4581 -0.2217
  156MOL0     C21395   2.321   5.455  10.075  0.9270 -0.0708 -0.6689
  156MOL0     C21396   2.455   5.461  10.034 -0.6058 -0.2317  0.9503
  156MOL0     C21397   2.508   5.571   9.977 -0.2610 -1.2721 -0.7983
  156MOL0     O21398   2.635   5.548   9.933 -0.3803 -0.1182  0.0308
  156MOL0     C21399   2.718   5.667   9.921 -0.0537 -0.2161 -0.2386
  156MOL0     C21400   2.863   5.620   9.919 -0.1588  0.1749  0.0609
  156MOL0     C21401   2.959   5.739   9.888  1.2672 -0.2820 -0.6344
  156MOL0     C21402   2.992   5.744   9.736 -0.0697  0.0421 -1.1084
  156MOL0     C21403   3.014   5.892   9.682  0.3872  0.0512  0.3913
  156MOL0     C21404   2.879   5.959   9.654  0.1179  0.0198 -0.3743
  156MOL0     C21405   2.894   6.095   9.578 -0.4579 -0.4219  0.7253
  156MOL0     C21406   2.764   6.131   9.514 -0.5254 -0.0826  0.2810
  156MOL0     N21407   2.773   6.257   9.432  1.0468  0.0392 -0.6808
  156MOL0     C21408   2.810   6.377   9.485 -0.2133 -0.9207 -0.7556
  156MOL0     C21409   2.797   6.465   9.384 -0.6700 -0.4363 -0.7078
  156MOL0     C21410   2.855   6.600   9.384  0.0816  0.3657 -0.1134
  156MOL0     C21411   2.866   6.651   9.239  0.1525  0.1630 -0.7101
  156MOL0     C21412   2.727   6.683   9.175 -0.5257  0.5559 -0.1759
  156MOL0     C21413   2.742   6.763   9.045  0.0433  0.1956  0.6866
  156MOL0     O21414   2.822   6.692   8.953 -0.3527 -0.0270 -0.8391
  156MOL0     C21415   2.818   6.729   8.823  0.6213  0.2190  1.1290
  156MOL0     C21416   2.822   6.636   8.715  0.8183  0.3453 -0.6038
  156MOL0     C21417   2.838   6.675   8.581  0.2947 -0.1137 -0.4609
  156MOL0     C21418   2.846   6.566   8.477  0.2760  0.6122  0.4753
  156MOL0     C21419   2.852   6.807   8.543 -0.1725 -0.5118 -0.2871
  156MOL0     C21420   2.867   6.865   8.406  0.0826 -0.1490 -0.6507
  156MOL0     O21421   2.811   6.989   8.380  0.0710 -0.3413 -0.8576
  156MOL0     C21422   2.835   7.047   8.266 -0.2466 -0.6791 -0.3228
  156MOL0     C21423   2.795   6.989   8.149  0.1593 -0.3373 -0.4038
  156MOL0     C21424   2.794   7.057   8.028  0.6892  0.1543 -0.0254
  156MOL0     C21425   2.839   7.192   8.023 -1.0624  0.5373 -0.7623
  156MOL0     O21426   2.823   7.257   7.908 -0.3970  0.5661  0.9644
  156MOL0     C21427   2.866   7.389   7.888  0.3193  0.0585 -0.4629
  156MOL0     C21428   2.846   7.401   7.740 -0.7819 -0.6553 -0.2223
  156MOL0     C21429   2.693   7.436   7.704 -0.6955 -0.3220  0.1631
  156MOL0     C21430   2.634   7.331   7.610  0.2055  0.5990 -0.5839
  156MOL0     C21431   2.502   7.381   7.541 -1.1109 -0.4202 -0.7845
  156MOL0     C21432   2.457   7.264   7.439  0.0739  0.8438  0.0298
  156MOL0     C21433   2.318   7.294   7.397  0.3008  0.6279  1.5213
  156MOL0     C21434   2.284   7.233   7.265 -0.0752  0.5179  0.0485
  156MOL0    Cl21435   2.125   7.298   7.208  0.1606 -0.0033 -0.6792
  156MOL0     C21436   2.889   7.252   8.140 -0.9250 -0.5884  0.4347
  156MOL0     C21437   2.888   7.175   8.258  0.5042 -0.5920  0.2813
  156MOL0     O21438   2.953   6.821   8.343 -0.6068  0.2393  0.6210
  156MOL0     C21439   2.848   6.899   8.640 -0.8970 -0.6869 -1.1160
  156MOL0     C21440   2.824   6.866   8.776 -0.2571  0.4508 -0.4553
  156MOL0     N21441   2.754   6.392   9.268  0.6641  0.2540 -0.1262
  156MOL0     N21442   2.729   6.272   9.306  0.1316  0.1630 -0.1074
  156MOL0     C21443   2.423   5.688   9.966 -0.4984 -0.3730  0.2995
  156MOL0     C21444   2.293   5.680  10.004  0.5635 -1.2562  0.4413
  156MOL0     C21445   1.905   5.444  10.158  0.2765 -0.3754 -0.7984
  156MOL0     C21446   1.834   5.562  10.189  0.0222  1.2647 -0.1199
  156MOL0     C21447   1.714   5.552  10.251 -0.0577  0.4408  0.5611
  156MOL0     C21448   1.660   5.424  10.279  0.0331 -0.4635  0.3859
  156MOL0     O21449   1.544   5.419  10.349  0.7268 -0.5215  0.6522
  156MOL0     C21450   1.453   5.308  10.349 -0.2058 -0.7849 -0.1359
  156MOL0     C21451   1.324   5.358  10.424 -0.3547 -0.4306  0.9608
  156MOL0     C21452   1.250   5.238  10.482  0.3589  0.4537 -0.7142
  156MOL0     C21453   1.105   5.254  10.441  0.0175 -0.4877 -0.8427
  156MOL0     C21454   1.021   5.192  10.551  0.1953 -0.9104 -0.7902
  156MOL0     C21455   0.947   5.162  10.638  0.4589 -0.8707  0.1759
  156MOL0     C21456   1.739   5.308  10.256  0.3706  0.5208 -0.2525
  156MOL0     C21457   1.863   5.313  10.199 -0.5075  0.9469 -0.5862
  156MOL0     C21458   1.945   5.182  10.173  0.6124 -0.9559 -0.1986
  156MOL0     H21459   2.286   5.370  10.133  0.3724  1.3565  1.1948
  156MOL0     H21460   2.517   5.372  10.039 -2.8390 -2.2031 -2.3211
  156MOL0     H21461   2.699   5.738  10.002  0.1666  2.3464 -2.2985
  156MOL0     H21462   2.696   5.708   9.822  0.2507 -1.0674 -0.6715
  156MOL0     H21463   2.896   5.584  10.017  3.4279 -1.8432 -1.6445
  156MOL0     H21464   2.872   5.537   9.849 -4.8825 -0.2258 -0.4018
  156MOL0     H21465   2.900   5.821   9.931  0.5775 -0.2724 -1.5771
  156MOL0     H21466   3.047   5.727   9.952  1.4688 -2.1141 -1.1888
  156MOL0     H21467   3.081   5.683   9.716 -0.1874  0.4481 -3.1428
  156MOL0     H21468   2.900   5.704   9.691 -1.7516 -0.3978  2.4149
  156MOL0     H21469   3.071   5.882   9.589 -1.2187 -1.3077 -0.5138
  156MOL0     H21470   3.081   5.945   9.750 -0.0859  0.3911  0.6025
  156MOL0     H21471   2.821   5.888   9.595  0.9486  1.2960 -2.8880
  156MOL0     H21472   2.821   5.983   9.743 -1.4905 -1.8728 -0.8502
  156MOL0     H21473   2.957   6.061   9.495 -0.6602 -1.0636  0.8253
  156MOL0     H21474   2.937   6.174   9.640 -1.8979  1.9590 -1.1802
  156MOL0     H21475   2.731   6.044   9.458  2.0224 -0.6561 -0.4558
  156MOL0     H21476   2.690   6.140   9.594 -0.7549 -0.2492  0.0871
  156MOL0     H21477   2.842   6.400   9.586 -0.4083  0.6839 -1.0213
  156MOL0     H21478   2.953   6.590   9.432 -0.7364 -2.6799  1.2196
  156MOL0     H21479   2.785   6.662   9.442  0.3872 -0.5539  1.3038
  156MOL0     H21480   2.922   6.745   9.242 -2.2183  1.6595  1.6109
  156MOL0     H21481   2.939   6.600   9.176  1.3526 -0.2969  0.9860
  156MOL0     H21482   2.675   6.590   9.153  2.4726 -0.8270 -2.2118
  156MOL0     H21483   2.672   6.754   9.236 -2.8518 -1.6705  0.4807
  156MOL0     H21484   2.648   6.789   8.994 -0.2954  3.1534  2.5105
  156MOL0     H21485   2.791   6.858   9.070  0.2746  0.5174 -0.9163
  156MOL0     H21486   2.821   6.533   8.750 -2.0530 -0.4821 -2.7468
  156MOL0     H21487   2.757   6.563   8.413  1.9016 -1.7306 -1.8904
  156MOL0     H21488   2.847   6.472   8.533 -4.0141  0.7017  1.0040
  156MOL0     H21489   2.930   6.582   8.409  1.3583  1.1223  1.8938
  156MOL0     H21490   2.743   6.894   8.155 -0.7790  0.2293  0.9003
  156MOL0     H21491   2.753   7.009   7.940 -0.9963 -0.3314  0.9703
  156MOL0     H21492   2.802   7.451   7.951  1.4346  1.6405 -0.8216
  156MOL0     H21493   2.967   7.421   7.915  0.1777  2.8549 -2.8140
  156MOL0     H21494   2.912   7.474   7.691 -1.0726 -0.3717 -0.1927
  156MOL0     H21495   2.880   7.313   7.684  0.8756  0.4167 -0.9948
  156MOL0     H21496   2.680   7.531   7.650 -2.1845 -1.4112 -1.5348
  156MOL0     H21497   2.628   7.439   7.792 -0.3139 -4.4391  0.7948
  156MOL0     H21498   2.610   7.241   7.667  2.9593 -1.1936 -2.0416
  156MOL0     H21499   2.709   7.308   7.533  2.3074 -0.7420  1.7408
  156MOL0     H21500   2.416   7.405   7.605  0.0228  3.2059 -0.3896
  156MOL0     H21501   2.531   7.474   7.491  1.1829 -0.1412  0.8999
  156MOL0     H21502   2.442   7.169   7.491 -2.5049  0.7400 -0.7713
  156MOL0     H21503   2.531   7.241   7.362 -0.9701 -3.4000  0.0496
  156MOL0     H21504   2.314   7.400   7.370  0.6499  0.7356  1.8828
  156MOL0     H21505   2.245   7.268   7.473 -0.0940 -1.3831  0.5102
  156MOL0     H21506   2.274   7.124   7.268 -0.5559  0.3819 -3.2693
  156MOL0     H21507   2.357   7.264   7.191 -1.9154  0.3958 -1.9224
  156MOL0     H21508   2.929   7.353   8.148  0.0829 -0.7714 -1.7604
  156MOL0     H21509   2.931   7.215   8.349  2.6811  1.0346 -1.3440
  156MOL0     H21510   2.846   7.003   8.610 -2.0085 -0.4611 -0.3272
  156MOL0     H21511   2.812   6.946   8.848  0.0988 -1.9061  2.4105
  156MOL0     H21512   2.466   5.775   9.918 -1.8410 -1.0785 -2.4190
  156MOL0     H21513   2.225   5.761   9.982  1.2538 -0.2828  1.7866
  156MOL0     H21514   1.860   5.658  10.145  2.0598  1.4158  1.3030
  156MOL0     H21515   1.647   5.633  10.276 -1.3984 -0.3342 -0.4080
  156MOL0     H21516   1.429   5.269  10.249  0.3363 -5.0748  1.1968
  156MOL0     H21517   1.484   5.227  10.416 -2.7857 -0.2763  1.8504
  156MOL0     H21518   1.266   5.424  10.358 -0.5695 -0.3129  1.2652
  156MOL0     H21519   1.343   5.426  10.508  1.5956 -0.6300  0.7218
  156MOL0     H21520   1.271   5.138  10.443 -0.7628 -2.2808  4.6537
  156MOL0     H21521   1.266   5.228  10.590  0.1864 -2.1270 -0.8758
  156MOL0     H21522   1.085   5.185  10.359 -2.3180 -2.2512  1.0187
  156MOL0     H21523   1.074   5.359  10.432 -0.3107 -0.4755  0.2117
  156MOL0     H21524   0.877   5.132  10.714 -1.7547  2.1356 -0.4854
  156MOL0     H21525   1.689   5.216  10.285 -2.6721  2.2106  0.3768
  156MOL0     H21526   1.905   5.146  10.077 -0.0177  4.1907 -2.1538
  156MOL0     H21527   2.048   5.220  10.173 -1.0763  4.3268 -1.2490
  156MOL0     H21528   1.949   5.107  10.253  2.4510 -0.8387 -0.1225
  157MOL0     O21529   0.055   9.040   2.844 -0.3120 -0.3879  0.0522
  157MOL0     C21530   0.119   9.031   2.944 -0.4175 -0.3606 -1.0153
  157MOL0     O21531   0.085   9.096   3.066  0.5836  0.6314  0.3616
  157MOL0     C21532   0.053   9.233   3.070  0.5938  0.1673  0.9727
  157MOL0     C21533   0.089   9.318   2.962 -0.0799 -0.5313  0.3602
  157MOL0     C21534   0.074   9.457   2.980 -0.0727  0.6233 -0.2432
  157MOL0     C21535   0.011   9.511   3.089  0.0775  0.0210  0.6086
  157MOL0     O21536  -0.013   9.643   3.087 -0.5539  0.1186 -0.3643
  157MOL0     C21537  -0.088   9.712   3.183  0.1093  0.1569 -0.7763
  157MOL0     C21538  -0.243   9.681   3.189  0.0364  0.2045  0.6404
  157MOL0     C21539  -0.298   9.723   3.324  0.0488 -0.3864 -0.2668
  157MOL0     C21540  -0.441   9.686   3.347 -0.1060 -0.3864  0.5956
  157MOL0     C21541  -0.487   9.722   3.487 -0.0721 -1.0382 -0.5765
  157MOL0     C21542  -0.422   9.644   3.597 -0.4537 -0.4349  0.2254
  157MOL0     C21543  -0.492   9.655   3.726  0.2880 -0.1799 -0.8539
  157MOL0     C21544  -0.511   9.804   3.785  0.2123 -1.0195 -0.0896
  157MOL0     N21545  -0.490   9.813   3.929  0.1981  0.8846  0.0300
  157MOL0     C21546  -0.378   9.860   3.998  0.0464  0.1848  0.0807
  157MOL0     C21547  -0.415   9.879   4.131 -0.8681 -0.0918  0.3307
  157MOL0     C21548  -0.332   9.943   4.234  0.0029 -0.3591  0.6595
  157MOL0     C21549  -0.254   9.838   4.314 -0.4045  0.5833  0.0514
  157MOL0     C21550  -0.315   9.774   4.446 -0.6020 -0.2066 -0.1261
  157MOL0     C21551  -0.371   9.647   4.400 -0.5327  0.0654  1.2147
  157MOL0     O21552  -0.437   9.582   4.507 -0.3973  0.5998 -0.1752
  157MOL0     C21553  -0.480   9.454   4.507  1.1231  0.0648  0.4694
  157MOL0     C21554  -0.522   9.391   4.389  0.5927  0.0471 -0.2437
  157MOL0     C21555  -0.583   9.271   4.399  0.1254  1.2060 -0.3233
  157MOL0     C21556  -0.615   9.199   4.262  0.1269 -0.1527  0.0959
  157MOL0     C21557  -0.596   9.197   4.528  0.0408 -0.4552  0.5987
  157MOL0     C21558  -0.655   9.064   4.549  0.3645 -0.4504 -0.4709
  157MOL0     O21559  -0.687   8.992   4.438 -0.3429  0.4673  0.1180
  157MOL0     C21560  -0.755   8.867   4.454 -0.3736 -0.3424  0.0282
  157MOL0     C21561  -0.690   8.750   4.478 -0.5255  0.7829  0.0445
  157MOL0     C21562  -0.761   8.634   4.470 -0.0986  0.1745 -0.5587
  157MOL0     C21563  -0.896   8.625   4.451 -0.2869 -0.8322 -0.0646
  157MOL0     O21564  -0.964   8.507   4.443  0.0651 -0.4082  0.5738
  157MOL0     C21565  -1.080   8.505   4.526  1.5479  0.8720 -0.1094
  157MOL0     C21566  -1.111   8.361   4.572 -0.6511 -0.0479 -0.2601
  157MOL0     C21567  -1.181   8.338   4.704  0.2430 -0.6266  0.4610
  157MOL0     C21568  -1.223   8.196   4.727 -0.4044 -0.2207 -0.4133
  157MOL0     C21569  -1.291   8.156   4.860  0.1397 -0.6422  0.3102
  157MOL0     C21570  -1.177   8.149   4.967  0.2146 -0.4139  0.7789
  157MOL0     C21571  -1.229   8.095   5.104  0.2012 -0.7356 -0.4728
  157MOL0     C21572  -1.340   8.180   5.177  0.2516  1.3160  0.1651
  157MOL0    Cl21573  -1.273   8.349   5.179 -0.0223  0.0440  0.1682
  157MOL0     C21574  -0.966   8.747   4.426  0.5747 -0.0264 -0.5146
  157MOL0     C21575  -0.895   8.866   4.426 -0.5105  0.3779  0.4965
  157MOL0     O21576  -0.681   9.023   4.664 -0.6349  0.4248  0.3437
  157MOL0     C21577  -0.544   9.263   4.636 -0.4976 -0.5112  0.6678
  157MOL0     C21578  -0.492   9.390   4.626  0.5090 -0.4347  0.9406
  157MOL0     N21579  -0.551   9.847   4.142  0.2938  0.0175 -0.3494
  157MOL0     N21580  -0.590   9.815   4.020 -0.1741  0.6279  0.1533
  157MOL0     C21581  -0.021   9.424   3.189 -0.2784 -0.1335 -0.3836
  157MOL0     C21582  -0.004   9.285   3.177 -0.0267 -1.2562 -0.0989
  157MOL0     C21583   0.219   8.918   2.959 -0.2557  0.7268  0.0056
  157MOL0     C21584   0.307   8.914   3.071 -1.0932 -0.1952 -0.3568
  157MOL0     C21585   0.402   8.805   3.091 -0.4752 -0.7730  0.1813
  157MOL0     C21586   0.417   8.706   2.990  0.5260  0.1092 -0.5691
  157MOL0     O21587   0.506   8.593   3.005  0.6539 -0.4452 -0.9107
  157MOL0     C21588   0.551   8.561   3.139  0.3023  0.8186 -0.6279
  157MOL0     C21589   0.617   8.434   3.134  0.0908  0.0941  0.2339
  157MOL0     C21590   0.685   8.390   3.260 -0.1543 -0.3107 -0.2287
  157MOL0     C21591   0.741   8.245   3.242 -0.4556  0.4574  0.4589
  157MOL0     C21592   0.862   8.240   3.160  0.0081  0.6508  0.2434
  157MOL0     C21593   0.953   8.223   3.086  0.5404  0.9206  0.4669
  157MOL0     C21594   0.343   8.723   2.874  0.3147  0.4470  0.4494
  157MOL0     C21595   0.239   8.824   2.857 -0.6692  1.1284  0.0936
  157MOL0     C21596   0.144   8.804   2.741  0.0730  0.2235 -0.6872
  157MOL0     H21597   0.132   9.292   2.866 -2.4073  1.3900 -1.3369
  157MOL0     H21598   0.087   9.527   2.897 -3.5075 -0.0830 -1.5331
  157MOL0     H21599  -0.101   9.818   3.158 -0.7607  0.8864  2.2675
  157MOL0     H21600  -0.040   9.705   3.281 -2.4017 -0.7080  0.5007
  157MOL0     H21601  -0.296   9.715   3.099  2.4090 -1.6829 -1.6486
  157MOL0     H21602  -0.251   9.573   3.173 -0.6486  0.4061 -0.5599
  157MOL0     H21603  -0.239   9.680   3.405 -2.7459 -2.1336  0.9688
  157MOL0     H21604  -0.292   9.832   3.322 -0.8883 -0.3406 -2.2597
  157MOL0     H21605  -0.505   9.744   3.281 -2.1020 -0.5777  2.2844
  157MOL0     H21606  -0.471   9.583   3.324  3.1519 -1.0773 -1.3293
  157MOL0     H21607  -0.590   9.689   3.495 -0.5307  0.5964  0.7496
  157MOL0     H21608  -0.478   9.828   3.510 -0.2043 -1.5082  1.8958
  157MOL0     H21609  -0.402   9.538   3.576  1.0736  0.2278 -2.0029
  157MOL0     H21610  -0.323   9.681   3.626 -1.3964  0.1963  2.9400
  157MOL0     H21611  -0.437   9.596   3.799 -0.7024  0.2017  0.2450
  157MOL0     H21612  -0.589   9.608   3.704 -1.4845  2.2348  1.1924
  157MOL0     H21613  -0.435   9.872   3.746 -0.9937 -0.3262 -1.3504
  157MOL0     H21614  -0.608   9.832   3.743 -0.2588 -0.4337  1.3368
  157MOL0     H21615  -0.274   9.870   3.967  0.9470  1.1482  3.0248
  157MOL0     H21616  -0.401  10.005   4.292  1.0791  0.0562  1.5269
  157MOL0     H21617  -0.255   9.997   4.178 -1.0620 -0.9854 -1.5465
  157MOL0     H21618  -0.219   9.762   4.244 -0.1566  0.4752  0.2950
  157MOL0     H21619  -0.165   9.893   4.345 -2.0867  4.5721 -1.3553
  157MOL0     H21620  -0.242   9.736   4.518  1.2894 -0.7143 -2.1817
  157MOL0     H21621  -0.391   9.837   4.492 -0.4148  0.0015 -0.0972
  157MOL0     H21622  -0.443   9.664   4.319  2.5389  0.3612 -1.7192
  157MOL0     H21623  -0.288   9.590   4.358 -0.6456  0.9329 -0.2805
  157MOL0     H21624  -0.509   9.446   4.297  1.6612 -0.1246 -0.2102
  157MOL0     H21625  -0.719   9.175   4.239  0.7196 -0.3690 -2.7558
  157MOL0     H21626  -0.557   9.107   4.251 -1.2067 -1.0478  0.3565
  157MOL0     H21627  -0.590   9.258   4.173  0.8700 -2.8463 -1.5863
  157MOL0     H21628  -0.582   8.735   4.480 -0.7874 -1.2970  1.8994
  157MOL0     H21629  -0.715   8.536   4.462  1.6044  0.8910  0.0066
  157MOL0     H21630  -1.075   8.571   4.613 -1.5584 -1.2578  1.9089
  157MOL0     H21631  -1.171   8.537   4.476 -0.8138  2.2257  4.4318
  157MOL0     H21632  -1.180   8.308   4.505 -2.9243 -2.9687  3.9143
  157MOL0     H21633  -1.018   8.304   4.580 -0.5682  0.0506 -0.5023
  157MOL0     H21634  -1.258   8.416   4.707  0.8227  0.0049 -0.5120
  157MOL0     H21635  -1.107   8.381   4.771  0.6294  3.2203 -2.0853
  157MOL0     H21636  -1.140   8.127   4.709  2.2364  2.6595 -0.0454
  157MOL0     H21637  -1.300   8.172   4.654  2.2351 -0.0272 -3.5002
  157MOL0     H21638  -1.363   8.234   4.887 -1.5727 -2.6905  2.0462
  157MOL0     H21639  -1.340   8.058   4.851  1.9037 -1.8323  2.6773
  157MOL0     H21640  -1.119   8.242   4.965 -0.6942  0.1550  0.1806
  157MOL0     H21641  -1.096   8.079   4.944  0.5589  0.5912 -1.3287
  157MOL0     H21642  -1.145   8.083   5.173 -1.8043  1.2578  2.5385
  157MOL0     H21643  -1.258   7.989   5.101  0.9478 -1.1986  3.1496
  157MOL0     H21644  -1.357   8.131   5.273  0.1365 -1.8941 -1.3885
  157MOL0     H21645  -1.439   8.173   5.131  0.4598  1.4126 -0.3029
  157MOL0     H21646  -1.073   8.757   4.406  0.4028  0.3297  0.5571
  157MOL0     H21647  -0.942   8.961   4.402 -0.4828  0.0710 -0.8278
  157MOL0     H21648  -0.546   9.211   4.731  1.9814  0.5255  1.3521
  157MOL0     H21649  -0.453   9.421   4.723  4.1739 -2.3033  0.2377
  157MOL0     H21650  -0.067   9.464   3.279 -0.3067  0.7076 -0.7582
  157MOL0     H21651  -0.021   9.207   3.251 -3.0527 -0.2793  0.3779
  157MOL0     H21652   0.316   9.003   3.133 -1.5413  0.0646 -0.6609
  157MOL0     H21653   0.472   8.817   3.173  0.8264  3.5855 -1.2661
  157MOL0     H21654   0.609   8.647   3.173  0.3978  2.1550 -3.8811
  157MOL0     H21655   0.462   8.538   3.199  1.0055 -0.3314  0.0225
  157MOL0     H21656   0.695   8.456   3.061  0.0202  1.1913  0.4781
  157MOL0     H21657   0.541   8.360   3.107  0.0800  0.3920 -0.5614
  157MOL0     H21658   0.774   8.448   3.288 -1.0388  0.0927  1.9338
  157MOL0     H21659   0.624   8.388   3.350  2.3280  2.0960  1.6835
  157MOL0     H21660   0.661   8.180   3.207 -0.8178  0.4799  1.2259
  157MOL0     H21661   0.765   8.206   3.342  1.4827  6.1915  2.6483
  157MOL0     H21662   1.037   8.210   3.021  0.5220  1.6400  0.2935
  157MOL0     H21663   0.382   8.660   2.795  0.3421  0.1114  0.7299
  157MOL0     H21664   0.162   8.702   2.707  1.0148  0.2146 -0.1881
  157MOL0     H21665   0.042   8.815   2.780  0.9079 -0.6930  1.9522
  157MOL0     H21666   0.165   8.870   2.656 -0.0569  1.0189 -0.1226
  158MOL0     O21667   1.100   8.585   6.932 -0.8927 -0.4499 -0.4723
  158MOL0     C21668   1.081   8.695   6.881  0.4732 -0.0164 -0.2557
  158MOL0     O21669   1.181   8.781   6.829 -0.3200 -0.2731  0.1675
  158MOL0     C21670   1.305   8.723   6.813 -0.0517  0.2961 -0.1557
  158MOL0     C21671   1.356   8.686   6.690  0.3701  0.1055  0.3752
  158MOL0     C21672   1.481   8.626   6.674 -0.3376  1.2418 -0.1637
  158MOL0     C21673   1.566   8.606   6.778  0.0783  0.2787 -0.3641
  158MOL0     O21674   1.691   8.569   6.742  0.2208 -0.5790 -0.3089
  158MOL0     C21675   1.757   8.474   6.821 -0.2786 -0.4628 -0.7119
  158MOL0     C21676   1.859   8.540   6.922 -0.1452  0.6881 -0.2397
  158MOL0     C21677   1.921   8.443   7.022 -0.8163  0.4827  0.0891
  158MOL0     C21678   1.998   8.323   6.953  0.2910 -0.5002 -0.0493
  158MOL0     C21679   2.040   8.215   7.043 -0.0704  0.0175 -0.6935
  158MOL0     C21680   2.083   8.080   6.981  0.8585 -0.1307 -1.1807
  158MOL0     C21681   2.119   7.981   7.096  0.6481  0.0797 -0.4291
  158MOL0     C21682   2.262   7.925   7.085 -0.7126  0.5694  1.4870
  158MOL0     N21683   2.279   7.848   6.961  0.8068  0.0290  0.6305
  158MOL0     C21684   2.194   7.754   6.901  0.6226 -0.4914  0.2337
  158MOL0     C21685   2.264   7.706   6.797  0.3359 -0.1320 -0.3422
  158MOL0     C21686   2.221   7.615   6.695 -0.7232 -0.7566  1.1591
  158MOL0     C21687   2.243   7.654   6.544 -0.6980  0.1869  0.6135
  158MOL0     C21688   2.381   7.620   6.490  0.1957 -0.0694 -0.2673
  158MOL0     C21689   2.420   7.471   6.492 -1.3434 -0.2807 -0.7444
  158MOL0     O21690   2.524   7.442   6.594 -0.2794  0.0082  0.8464
  158MOL0     C21691   2.653   7.426   6.548  0.1708  0.9705 -0.2694
  158MOL0     C21692   2.710   7.472   6.434  0.9073 -0.5533  1.0767
  158MOL0     C21693   2.852   7.476   6.407  0.4279  0.5620  0.3947
  158MOL0     C21694   2.902   7.528   6.285 -1.5426 -0.7772  0.8644
  158MOL0     C21695   2.941   7.430   6.511 -1.1600  0.9129 -0.4359
  158MOL0     C21696   3.089   7.424   6.519  0.3635  0.6039  0.5243
  158MOL0     O21697   3.164   7.542   6.518 -0.1828  0.6283 -0.4690
  158MOL0     C21698   3.210   7.603   6.636  0.2209 -0.1512  0.1008
  158MOL0     C21699   3.253   7.519   6.749 -0.1227  0.4315  0.8585
  158MOL0     C21700   3.300   7.580   6.867  0.9168  0.2924 -1.1938
  158MOL0     C21701   3.293   7.719   6.880 -0.3193  0.2959 -0.0309
  158MOL0     O21702   3.318   7.787   6.999  0.5028  0.0891 -0.8704
  158MOL0     C21703   3.446   7.761   7.059 -1.1543  0.4943  0.2918
  158MOL0     C21704   3.493   7.874   7.150  0.6224 -0.1997  0.4985
  158MOL0     C21705   3.408   7.888   7.276 -0.1027  0.8342 -0.5894
  158MOL0     C21706   3.444   7.999   7.368  0.4974 -0.2916  0.5433
  158MOL0     C21707   3.333   8.018   7.463  0.4911 -0.1998  0.2052
  158MOL0     C21708   3.380   8.104   7.573  0.1957 -0.9093  0.0304
  158MOL0     C21709   3.271   8.149   7.678  0.0124 -0.5231 -0.3664
  158MOL0     C21710   3.329   8.119   7.821 -0.3735 -0.3147  0.4196
  158MOL0    Cl21711   3.308   7.945   7.874  0.1336  0.5949 -0.2550
  158MOL0     C21712   3.256   7.801   6.771 -1.0277  0.0587  0.0459
  158MOL0     C21713   3.203   7.737   6.655 -0.1407 -1.0173  0.3247
  158MOL0     O21714   3.148   7.321   6.519  0.4207  1.2472  0.1968
  158MOL0     C21715   2.884   7.370   6.616  0.3015  0.5339 -0.1585
  158MOL0     C21716   2.742   7.369   6.637  0.8151  0.5408  0.4379
  158MOL0     N21717   2.385   7.777   6.787  0.7972  0.0567 -0.5411
  158MOL0     N21718   2.391   7.866   6.884 -0.2462 -0.2710 -0.4914
  158MOL0     C21719   1.518   8.631   6.903  0.2834 -0.3643  0.4631
  158MOL0     C21720   1.394   8.691   6.926 -0.7526  0.0306  0.2027
  158MOL0     C21721   0.951   8.759   6.875 -0.2057 -0.2116 -0.1213
  158MOL0     C21722   0.947   8.891   6.863  0.3162 -0.3495 -1.0515
  158MOL0     C21723   0.823   8.963   6.858 -0.3996 -0.3817 -0.3998
  158MOL0     C21724   0.698   8.905   6.855 -0.0193  0.1024 -0.4908
  158MOL0     O21725   0.576   8.970   6.844  0.1262  1.1373  0.2624
  158MOL0     C21726   0.577   9.116   6.830  0.6691  0.4212 -0.8054
  158MOL0     C21727   0.429   9.151   6.797 -0.1580  0.2847  1.1905
  158MOL0     C21728   0.419   9.298   6.771 -0.3981  0.4139  0.3160
  158MOL0     C21729   0.286   9.353   6.821 -0.2748  0.7624 -0.0064
  158MOL0     C21730   0.277   9.502   6.858 -0.1792  0.4790 -0.4287
  158MOL0     C21731   0.281   9.623   6.883 -0.5559 -0.2121  0.2866
  158MOL0     C21732   0.698   8.763   6.878 -0.6084  0.4803  0.0924
  158MOL0     C21733   0.821   8.688   6.881 -0.5281  0.6661 -0.5746
  158MOL0     C21734   0.811   8.536   6.890 -0.0965 -0.2209  0.6266
  158MOL0     H21735   1.292   8.697   6.603 -0.4472 -2.3222  0.5772
  158MOL0     H21736   1.511   8.586   6.577 -1.8608  1.1514 -0.6198
  158MOL0     H21737   1.815   8.410   6.754 -1.0372  1.1949 -3.0483
  158MOL0     H21738   1.685   8.413   6.877  0.8176 -0.2292  1.0275
  158MOL0     H21739   1.931   8.604   6.870  0.7616 -0.1923 -0.0992
  158MOL0     H21740   1.809   8.609   6.991  1.7058  0.4393  1.4511
  158MOL0     H21741   1.986   8.498   7.089  0.0459 -0.6932  0.2529
  158MOL0     H21742   1.838   8.400   7.079 -1.1275 -1.0221 -1.3957
  158MOL0     H21743   1.937   8.278   6.875  1.2029  2.0847 -2.4414
  158MOL0     H21744   2.086   8.361   6.899  2.2600 -2.1520  1.8198
  158MOL0     H21745   1.962   8.186   7.114  2.4576 -2.4722  1.3050
  158MOL0     H21746   2.125   8.258   7.096  1.4292  2.3615 -4.5846
  158MOL0     H21747   1.997   8.035   6.931 -1.4903  1.2423  1.3708
  158MOL0     H21748   2.165   8.102   6.911 -0.9652  1.1893 -3.0321
  158MOL0     H21749   2.050   7.897   7.101 -0.0652  0.6930  3.5783
  158MOL0     H21750   2.104   8.030   7.193 -2.5528 -0.2935 -0.6434
  158MOL0     H21751   2.337   8.005   7.090  0.3072 -0.3251  0.9800
  158MOL0     H21752   2.280   7.848   7.160 -1.9837 -0.3356  0.9040
  158MOL0     H21753   2.089   7.732   6.919  0.4511  0.0320 -0.0969
  158MOL0     H21754   2.112   7.618   6.702 -1.2447  2.9035 -3.3191
  158MOL0     H21755   2.250   7.510   6.702  3.4972 -0.6422 -5.5417
  158MOL0     H21756   2.161   7.615   6.483 -1.3212  0.4006  1.3064
  158MOL0     H21757   2.230   7.763   6.543 -0.5540  0.2089  1.1659
  158MOL0     H21758   2.375   7.638   6.383 -1.7687  1.0563 -0.0063
  158MOL0     H21759   2.461   7.684   6.528  0.8136  1.4273 -3.7705
  158MOL0     H21760   2.332   7.417   6.529 -0.3162  0.3402  2.9928
  158MOL0     H21761   2.454   7.432   6.396  3.4020 -4.0069  2.0023
  158MOL0     H21762   2.636   7.527   6.376 -0.6924 -3.0897  0.5393
  158MOL0     H21763   2.979   7.458   6.250 -0.3411  0.4314  0.9891
  158MOL0     H21764   2.948   7.624   6.307  1.1359 -1.9619  0.9009
  158MOL0     H21765   2.836   7.540   6.198  0.7033 -0.2425 -0.8738
  158MOL0     H21766   3.241   7.411   6.749 -1.5249  0.4943 -1.9728
  158MOL0     H21767   3.317   7.526   6.960  0.7581  2.1361 -0.0197
  158MOL0     H21768   3.460   7.666   7.113  1.9109  0.9620  0.5188
  158MOL0     H21769   3.518   7.763   6.977 -1.2955 -0.8059  0.1165
  158MOL0     H21770   3.597   7.863   7.180 -0.0110 -2.6178  2.1033
  158MOL0     H21771   3.502   7.964   7.089  1.0832  0.8728  2.0814
  158MOL0     H21772   3.429   7.797   7.334 -0.5993  1.0721 -0.0264
  158MOL0     H21773   3.303   7.894   7.246 -0.7535 -1.1570  1.0207
  158MOL0     H21774   3.448   8.088   7.304  1.2081 -0.8591 -0.2278
  158MOL0     H21775   3.544   7.987   7.410  1.3440 -0.1839 -1.3321
  158MOL0     H21776   3.248   8.062   7.408  1.1448  0.8199 -0.0198
  158MOL0     H21777   3.292   7.931   7.515 -2.4659  0.5690 -0.5914
  158MOL0     H21778   3.430   8.198   7.548 -0.4971  0.1486  2.3611
  158MOL0     H21779   3.457   8.043   7.621  1.5674  1.1084  0.5013
  158MOL0     H21780   3.176   8.096   7.668  0.1946 -0.9333  0.0475
  158MOL0     H21781   3.247   8.255   7.673 -1.1324 -0.8246 -1.9607
  158MOL0     H21782   3.273   8.186   7.888  0.2745 -0.3769  1.0426
  158MOL0     H21783   3.436   8.145   7.821 -0.0281 -1.6554  0.2671
  158MOL0     H21784   3.258   7.908   6.787  0.7613  0.2559 -1.1830
  158MOL0     H21785   3.160   7.804   6.581 -1.3073 -0.1400  1.7353
  158MOL0     H21786   2.944   7.326   6.695  0.1131  1.5504  0.5661
  158MOL0     H21787   2.713   7.301   6.716  1.9059 -1.8668 -1.1192
  158MOL0     H21788   1.585   8.618   6.987  0.2992  0.5826  0.6067
  158MOL0     H21789   1.359   8.725   7.023 -0.8561 -0.9048  0.5040
  158MOL0     H21790   1.021   8.969   6.882 -0.1240 -0.7072  3.0641
  158MOL0     H21791   0.831   9.068   6.831  0.2944 -0.7713 -1.8449
  158MOL0     H21792   0.613   9.177   6.913 -0.0025  3.4994 -2.6208
  158MOL0     H21793   0.639   9.144   6.744 -1.6730  0.6230 -2.5256
  158MOL0     H21794   0.371   9.128   6.887 -3.2472 -0.7607 -0.9322
  158MOL0     H21795   0.407   9.090   6.710 -0.3864  1.9977 -0.0122
  158MOL0     H21796   0.510   9.345   6.809 -0.2945  0.1571  0.3950
  158MOL0     H21797   0.431   9.306   6.663  1.7151 -1.1771  0.3573
  158MOL0     H21798   0.266   9.296   6.911  0.7408 -1.1378 -0.9273
  158MOL0     H21799   0.207   9.326   6.750 -1.8550 -0.7964  2.2224
  158MOL0     H21800   0.278   9.722   6.924 -2.1458 -1.4635  3.5385
  158MOL0     H21801   0.612   8.698   6.883 -0.0176 -0.3876 -0.6710
  158MOL0     H21802   0.890   8.485   6.833 -1.9780 -1.9383 -0.6194
  158MOL0     H21803   0.802   8.497   6.992 -1.3400 -3.0185 -0.4481
  158MOL0     H21804   0.723   8.501   6.835 -0.8007  0.7681  1.0984
  159MOL0     O21805   9.033   6.149   0.745 -0.1908 -1.0411 -0.1570
  159MOL0     C21806   8.971   6.185   0.840  1.1073 -1.0636 -0.8718
  159MOL0     O21807   8.839   6.194   0.849  0.2312 -0.7323 -0.1162
  159MOL0     C21808   8.771   6.195   0.723 -1.1928 -0.1082  0.2447
  159MOL0     C21809   8.790   6.296   0.636 -0.2910 -0.8678  1.0817
  159MOL0     C21810   8.727   6.304   0.507 -0.3369 -0.2595  0.2789
  159MOL0     C21811   8.625   6.208   0.481  0.7026 -0.0827 -1.2415
  159MOL0     O21812   8.544   6.216   0.372 -0.2081 -0.4254  0.1372
  159MOL0     C21813   8.549   6.108   0.281 -0.4154  0.3547  0.0745
  159MOL0     C21814   8.450   6.129   0.153 -0.9837  0.9715 -0.3090
  159MOL0     C21815   8.522   6.189   0.034  0.3939  0.9184  0.2060
  159MOL0     C21816   8.420   6.204  -0.092 -0.4419 -0.4642  0.3252
  159MOL0     C21817   8.402   6.075  -0.166 -0.3506 -0.0745  0.1102
  159MOL0     C21818   8.527   6.032  -0.248  0.3858  0.8486 -0.2989
  159MOL0     C21819   8.520   5.882  -0.303  0.1813 -0.0741 -0.1075
  159MOL0     C21820   8.636   5.850  -0.400 -0.0021  0.5889 -0.1677
  159MOL0     N21821   8.755   5.848  -0.315 -1.1251 -0.2750  0.2790
  159MOL0     C21822   8.804   5.747  -0.231 -0.7813 -0.3659  0.3349
  159MOL0     C21823   8.934   5.781  -0.200  0.4914 -0.6370 -0.0348
  159MOL0     C21824   9.028   5.709  -0.104  0.1842 -0.0995 -0.8827
  159MOL0     C21825   9.066   5.570  -0.140 -0.0208  0.8293 -0.5896
  159MOL0     C21826   9.148   5.560  -0.277  0.1782 -0.7496  0.0520
  159MOL0     C21827   9.221   5.426  -0.288  0.7408  0.6577 -0.1826
  159MOL0     O21828   9.150   5.341  -0.375  0.4436  0.8331 -0.3870
  159MOL0     C21829   9.215   5.235  -0.432  0.4488 -0.2212  0.1713
  159MOL0     C21830   9.309   5.164  -0.361  0.4403 -0.7305 -0.0641
  159MOL0     C21831   9.354   5.032  -0.412 -0.7868  0.7357 -0.3404
  159MOL0     C21832   9.454   4.941  -0.335 -0.7392  0.1442 -0.0697
  159MOL0     C21833   9.300   4.976  -0.533  1.2399 -0.8154 -0.1563
  159MOL0     C21834   9.340   4.848  -0.604 -0.1020 -0.2645 -0.3475
  159MOL0     O21835   9.280   4.836  -0.717 -0.7700  0.1729  0.5325
  159MOL0     C21836   9.299   4.709  -0.780 -0.2551 -1.6241  0.3136
  159MOL0     C21837   9.202   4.602  -0.773 -0.6599 -0.1226 -0.1880
  159MOL0     C21838   9.214   4.484  -0.846  0.0621 -1.1641  0.0352
  159MOL0     C21839   9.319   4.474  -0.942 -0.1526  0.2038  0.4623
  159MOL0     O21840   9.338   4.370  -1.033  0.4796  0.1828  0.0268
  159MOL0     C21841   9.275   4.252  -0.980  0.6734  0.1833  0.2852
  159MOL0     C21842   9.143   4.228  -1.065 -0.2607 -0.4847  0.3040
  159MOL0     C21843   9.103   4.081  -1.095  0.6670  1.0413 -0.9433
  159MOL0     C21844   9.010   4.082  -1.206  0.1150  0.1556  0.2478
  159MOL0     C21845   8.987   3.937  -1.258  0.2992  1.2003 -0.3473
  159MOL0     C21846   8.913   3.935  -1.396 -0.5564  0.6341 -0.7550
  159MOL0     C21847   8.924   3.795  -1.457  0.7664  0.0977 -1.2005
  159MOL0     C21848   8.850   3.806  -1.590  0.2523 -0.3404 -0.1483
  159MOL0    Cl21849   8.669   3.828  -1.584  0.0960  0.1359  0.3767
  159MOL0     C21850   9.410   4.576  -0.949 -0.3559 -0.6164 -0.6095
  159MOL0     C21851   9.396   4.694  -0.876 -0.2508  0.1634 -0.1262
  159MOL0     O21852   9.420   4.767  -0.558 -0.1490  0.5195 -0.9795
  159MOL0     C21853   9.196   5.057  -0.601  0.1718  0.6635  0.6495
  159MOL0     C21854   9.168   5.183  -0.544  0.1191  0.5670 -0.2897
  159MOL0     N21855   8.961   5.900  -0.270  0.2630 -0.5380  1.0869
  159MOL0     N21856   8.852   5.943  -0.327 -0.8898 -0.1044  0.2687
  159MOL0     C21857   8.603   6.098   0.571  0.2041  0.0591  0.2545
  159MOL0     C21858   8.679   6.098   0.685  1.4143  0.0741 -0.5134
  159MOL0     C21859   9.057   6.214   0.964  0.4997 -1.0312 -1.0743
  159MOL0     C21860   9.073   6.347   1.016 -0.9173  0.0574  0.2350
  159MOL0     C21861   9.138   6.376   1.130 -0.3469  0.4320 -0.2721
  159MOL0     C21862   9.194   6.273   1.205 -0.0611 -0.4862  0.8208
  159MOL0     O21863   9.268   6.274   1.319  0.0327  0.3345 -0.8049
  159MOL0     C21864   9.237   6.367   1.417  0.3204  0.6592  1.2365
  159MOL0     C21865   9.106   6.331   1.475 -0.1992 -0.4156  0.6010
  159MOL0     C21866   9.093   6.205   1.554 -1.3066  0.0729  0.5450
  159MOL0     C21867   8.956   6.172   1.616  0.0296 -0.0199 -0.1410
  159MOL0     C21868   8.939   6.257   1.735 -0.2451  0.2346 -1.2768
  159MOL0     C21869   8.932   6.321   1.842 -0.8054  1.4390 -1.3777
  159MOL0     C21870   9.185   6.145   1.161 -0.2245  0.7171 -0.1792
  159MOL0     C21871   9.106   6.117   1.050  0.9973 -0.5988  0.1793
  159MOL0     C21872   9.095   5.968   1.006  0.5342  0.5487  0.1356
  159MOL0     H21873   8.864   6.372   0.660 -0.8838 -0.1106  0.5278
  159MOL0     H21874   8.742   6.384   0.436 -0.2390 -0.0358  0.5505
  159MOL0     H21875   8.522   6.017   0.334 -1.7131  2.0072  2.3738
  159MOL0     H21876   8.651   6.090   0.245  0.0077 -1.4885  2.0019
  159MOL0     H21877   8.426   6.028   0.118  0.1074  1.8602 -4.1558
  159MOL0     H21878   8.368   6.193   0.184 -1.2255  0.0260  1.0659
  159MOL0     H21879   8.555   6.293   0.049  0.9675  0.7917 -0.1539
  159MOL0     H21880   8.605   6.123   0.009  0.0454  0.1887  0.9476
  159MOL0     H21881   8.320   6.235  -0.058 -0.2765  0.4014  0.0293
  159MOL0     H21882   8.466   6.284  -0.150  2.1290 -1.8775  0.2576
  159MOL0     H21883   8.318   6.080  -0.235 -1.1971  2.4568  1.1863
  159MOL0     H21884   8.383   5.994  -0.094  3.1152 -2.1853 -1.0876
  159MOL0     H21885   8.540   6.104  -0.329  3.6967 -0.5651 -1.2108
  159MOL0     H21886   8.615   6.043  -0.184  0.2742 -1.2328  0.2780
  159MOL0     H21887   8.423   5.862  -0.350  0.8172  0.2869 -1.6432
  159MOL0     H21888   8.533   5.801  -0.231  1.3849 -1.9713 -2.3299
  159MOL0     H21889   8.633   5.749  -0.441 -0.2457 -0.0430  1.3087
  159MOL0     H21890   8.650   5.924  -0.479  0.2595  1.1913  0.4216
  159MOL0     H21891   8.771   5.652  -0.192 -1.6202 -0.5044 -0.6583
  159MOL0     H21892   8.974   5.715  -0.009  2.1984  0.7190  0.2737
  159MOL0     H21893   9.116   5.771  -0.089  1.7242 -1.6735 -2.8833
  159MOL0     H21894   9.131   5.532  -0.060  0.8715 -0.3088 -1.8128
  159MOL0     H21895   8.980   5.502  -0.146 -1.1507  2.2274 -0.8000
  159MOL0     H21896   9.079   5.570  -0.361 -0.9313 -1.8074  0.8201
  159MOL0     H21897   9.221   5.641  -0.262 -1.5238  1.0455 -0.9009
  159MOL0     H21898   9.320   5.433  -0.332  0.3199  2.9133 -0.9206
  159MOL0     H21899   9.226   5.388  -0.186 -1.1997  3.0122  0.9022
  159MOL0     H21900   9.344   5.189  -0.262 -0.7940 -0.5319  0.3406
  159MOL0     H21901   9.543   4.927  -0.397 -0.5860 -3.6821  0.7612
  159MOL0     H21902   9.412   4.846  -0.301 -2.7089  1.8080  2.5582
  159MOL0     H21903   9.487   4.996  -0.246  0.1750 -3.3072  1.9001
  159MOL0     H21904   9.115   4.620  -0.711 -0.4549  0.0300  0.0575
  159MOL0     H21905   9.138   4.409  -0.827 -0.1975 -0.2008  3.5747
  159MOL0     H21906   9.342   4.170  -1.007  1.0128  0.4246  0.3785
  159MOL0     H21907   9.261   4.238  -0.873 -0.4761  2.4930  0.4976
  159MOL0     H21908   9.066   4.286  -1.013  0.0797 -1.7597  2.3710
  159MOL0     H21909   9.157   4.272  -1.164  2.6028 -3.9357 -1.0468
  159MOL0     H21910   9.063   4.039  -1.002 -0.4560 -0.2462 -1.9799
  159MOL0     H21911   9.192   4.026  -1.128 -0.1426 -0.4617 -0.7019
  159MOL0     H21912   9.059   4.138  -1.286  1.0590 -0.5770  0.2974
  159MOL0     H21913   8.919   4.131  -1.169  0.2486 -0.7880  1.9315
  159MOL0     H21914   9.088   3.893  -1.262  0.8886  1.6174  4.5222
  159MOL0     H21915   8.931   3.881  -1.183  1.0319  0.1608 -0.5421
  159MOL0     H21916   8.960   4.004  -1.466  2.4069 -0.7386 -0.2620
  159MOL0     H21917   8.809   3.964  -1.379 -1.5449 -1.8663 -1.9147
  159MOL0     H21918   8.891   3.715  -1.390  0.4260  1.1045 -0.1291
  159MOL0     H21919   9.031   3.776  -1.468  0.9692 -0.2843  0.9431
  159MOL0     H21920   8.876   3.714  -1.643  1.4217  0.7695 -1.5800
  159MOL0     H21921   8.904   3.880  -1.649  1.2499  0.4878  1.6957
  159MOL0     H21922   9.501   4.566  -1.006 -0.9118 -0.0956 -1.6119
  159MOL0     H21923   9.458   4.778  -0.906 -0.5446  0.5084  0.2145
  159MOL0     H21924   9.146   5.017  -0.689 -0.6955 -0.4291  1.6058
  159MOL0     H21925   9.090   5.244  -0.586  0.0603 -1.2393 -3.0424
  159MOL0     H21926   8.529   6.024   0.541  0.2050  0.1991 -0.0998
  159MOL0     H21927   8.662   6.012   0.750  0.1162  0.1541 -0.7303
  159MOL0     H21928   9.028   6.422   0.951 -0.9638  0.0571  0.2666
  159MOL0     H21929   9.135   6.481   1.156 -3.7345  0.7203 -1.3341
  159MOL0     H21930   9.320   6.365   1.489  0.9452  0.2597  0.5212
  159MOL0     H21931   9.233   6.466   1.370 -0.0409  0.3596  0.6370
  159MOL0     H21932   9.029   6.335   1.397 -1.3863  0.3336  1.7609
  159MOL0     H21933   9.076   6.414   1.540  1.1972  0.5633  0.0555
  159MOL0     H21934   9.108   6.127   1.478  0.1806  1.5940 -0.8111
  159MOL0     H21935   9.168   6.204   1.633  1.2360 -0.7438 -1.7396
  159MOL0     H21936   8.943   6.071   1.656 -1.3593 -0.0082 -0.5163
  159MOL0     H21937   8.874   6.190   1.546  0.4927 -0.0811 -0.7049
  159MOL0     H21938   8.934   6.361   1.941  0.2166  0.0150 -0.7811
  159MOL0     H21939   9.232   6.068   1.221 -2.7110 -2.2777 -1.8292
  159MOL0     H21940   9.167   5.933   0.931 -1.4578 -1.4156 -0.9886
  159MOL0     H21941   9.098   5.906   1.096 -1.8036  0.1632  0.0024
  159MOL0     H21942   8.998   5.948   0.962 -0.6723 -2.0026  3.5559
  160MOL0     O21943   2.954   6.787   4.855  0.3764 -0.0715 -0.2653
  160MOL0     C21944   3.001   6.739   4.756 -0.1280 -0.0238 -0.2267
  160MOL0     O21945   3.123   6.748   4.714 -0.7178 -0.4896  0.4588
  160MOL0     C21946   3.219   6.799   4.796  0.3335 -0.3074  0.3283
  160MOL0     C21947   3.270   6.720   4.909  0.3288  0.0620 -0.3763
  160MOL0     C21948   3.376   6.767   4.988 -0.4647  0.6141  0.5798
  160MOL0     C21949   3.421   6.894   4.965  0.6786  0.1390  0.1838
  160MOL0     O21950   3.533   6.942   5.043  0.7083 -0.0904  0.2634
  160MOL0     C21951   3.598   7.069   5.017  0.1007  0.0157  0.6264
  160MOL0     C21952   3.536   7.183   5.099 -0.9202 -0.0428 -0.2811
  160MOL0     C21953   3.573   7.202   5.251  0.0465  0.2787 -0.1318
  160MOL0     C21954   3.461   7.170   5.342  0.2818 -0.2073 -0.0973
  160MOL0     C21955   3.484   7.201   5.490 -0.0324  0.2084 -0.1351
  160MOL0     C21956   3.363   7.186   5.578  0.4849  0.0926 -0.3291
  160MOL0     C21957   3.307   7.042   5.583 -0.0668  0.1160 -0.0923
  160MOL0     C21958   3.423   6.948   5.600 -0.8420 -1.0382 -0.0257
  160MOL0     N21959   3.366   6.814   5.621 -0.4836 -0.4253 -0.0152
  160MOL0     C21960   3.335   6.744   5.730  0.3528 -0.2653 -0.2358
  160MOL0     C21961   3.243   6.655   5.695  0.3794 -0.3259 -0.4428
  160MOL0     C21962   3.190   6.570   5.811 -0.1568 -0.1979  0.9921
  160MOL0     C21963   3.088   6.460   5.756  0.7849  0.0328 -1.1461
  160MOL0     C21964   3.086   6.332   5.851 -0.4701 -0.0457 -0.0257
  160MOL0     C21965   3.067   6.366   6.000  0.4999  0.1310  0.4439
  160MOL0     O21966   2.941   6.442   6.010 -0.3081 -0.1700  0.2687
  160MOL0     C21967   2.901   6.473   6.132  0.1398 -0.3661 -1.3584
  160MOL0     C21968   2.981   6.530   6.240  0.3172  0.3241  0.2495
  160MOL0     C21969   2.924   6.539   6.370 -1.3669  0.8896 -0.4173
  160MOL0     C21970   3.001   6.608   6.478 -0.0123  0.0023  0.4034
  160MOL0     C21971   2.794   6.490   6.388  0.5365 -0.5267 -0.2798
  160MOL0     C21972   2.713   6.528   6.511 -0.0059 -0.0577  0.1385
  160MOL0     O21973   2.642   6.429   6.573 -0.4211 -0.1879 -0.4805
  160MOL0     C21974   2.593   6.468   6.697 -0.0831 -0.3147 -0.1845
  160MOL0     C21975   2.456   6.483   6.713 -0.1882  0.4941 -0.4100
  160MOL0     C21976   2.402   6.513   6.835  1.4297  0.2780  0.1353
  160MOL0     C21977   2.481   6.539   6.943  0.1976 -0.0421  0.3811
  160MOL0     O21978   2.428   6.577   7.060 -0.2882  0.0866  0.0328
  160MOL0     C21979   2.339   6.485   7.115  0.9619 -0.0385  0.5471
  160MOL0     C21980   2.270   6.536   7.228 -0.6548 -0.3258  0.8317
  160MOL0     C21981   2.202   6.419   7.301  0.7420 -0.0417 -0.4582
  160MOL0     C21982   2.052   6.451   7.324  0.2920 -0.0577  0.4425
  160MOL0     C21983   1.957   6.341   7.398 -0.2762 -0.3799 -0.1881
  160MOL0     C21984   1.991   6.345   7.548 -0.1478 -0.4045  0.3345
  160MOL0     C21985   1.901   6.239   7.615  0.4126 -0.1044 -1.5001
  160MOL0     C21986   1.959   6.106   7.605  0.1251  0.5563  0.3739
  160MOL0    Cl21987   1.847   5.985   7.675  0.3456  0.3533  0.1527
  160MOL0     C21988   2.616   6.530   6.932  0.1930 -1.3353  0.1985
  160MOL0     C21989   2.672   6.482   6.813  0.1939  0.4950  0.3272
  160MOL0     O21990   2.713   6.646   6.539  0.5893 -0.1524 -0.4484
  160MOL0     C21991   2.718   6.432   6.282 -0.1273  0.2291 -0.3201
  160MOL0     C21992   2.770   6.421   6.155  0.1549 -0.1488 -0.1456
  160MOL0     N21993   3.220   6.666   5.565  0.2392  0.8824 -0.4411
  160MOL0     N21994   3.297   6.757   5.522  0.1587 -0.8299  0.6248
  160MOL0     C21995   3.374   6.977   4.858  0.3812 -0.4871 -0.0178
  160MOL0     C21996   3.262   6.937   4.779 -0.0954  0.3566 -0.0730
  160MOL0     C21997   2.901   6.669   4.668 -0.7587 -0.2294 -0.0657
  160MOL0     C21998   2.959   6.602   4.556  0.6396  0.1444 -0.6510
  160MOL0     C21999   2.874   6.534   4.467 -0.5046  0.0418 -0.6047
  160MOL0     C22000   2.745   6.523   4.491  0.1839 -0.4463  0.0154
  160MOL0     O22001   2.667   6.439   4.417 -0.1709  0.2934  0.6936
  160MOL0     C22002   2.735   6.350   4.327 -0.0469  0.5534  0.3160
  160MOL0     C22003   2.631   6.240   4.282 -0.0106 -0.3034 -0.6451
  160MOL0     C22004   2.599   6.151   4.401 -1.3275 -0.6693  0.1488
  160MOL0     C22005   2.459   6.092   4.395  0.5814  0.1668  0.3091
  160MOL0     C22006   2.432   6.007   4.273  0.4125  0.0526 -0.5972
  160MOL0     C22007   2.411   5.930   4.180 -0.8435 -0.9854  0.2700
  160MOL0     C22008   2.684   6.577   4.607 -0.8804  0.7417 -0.3044
  160MOL0     C22009   2.762   6.666   4.690  0.8142  0.0983  1.0508
  160MOL0     C22010   2.681   6.752   4.780 -0.5715 -0.1103  0.0088
  160MOL0     H22011   3.209   6.630   4.917 -0.6305  0.3708 -2.9903
  160MOL0     H22012   3.418   6.713   5.072  2.5699  1.9648  0.0359
  160MOL0     H22013   3.597   7.081   4.909 -1.3962 -2.3112  0.3003
  160MOL0     H22014   3.705   7.079   5.038 -0.0466  0.7753  1.0579
  160MOL0     H22015   3.570   7.263   5.033  1.3054 -1.2118 -0.6515
  160MOL0     H22016   3.427   7.176   5.092 -0.9867  1.1854 -0.6865
  160MOL0     H22017   3.658   7.139   5.279 -0.7830 -0.2470  1.3323
  160MOL0     H22018   3.613   7.302   5.268  0.4824  0.1413 -0.3415
  160MOL0     H22019   3.368   7.223   5.320 -1.6502 -3.0154  0.6461
  160MOL0     H22020   3.438   7.064   5.324 -0.4022  0.3628 -3.0877
  160MOL0     H22021   3.509   7.307   5.499  0.2205  0.1651 -0.3209
  160MOL0     H22022   3.572   7.142   5.518  2.1540  0.5169 -5.2851
  160MOL0     H22023   3.400   7.216   5.676 -1.1764 -0.7815  0.5883
  160MOL0     H22024   3.277   7.251   5.561 -1.4234 -2.1698  0.2074
  160MOL0     H22025   3.264   7.015   5.486 -0.2190 -2.4406  0.5984
  160MOL0     H22026   3.225   7.026   5.654 -2.0146 -0.2663 -2.2730
  160MOL0     H22027   3.498   6.945   5.521 -0.6114  0.2703  0.1143
  160MOL0     H22028   3.484   6.967   5.689 -0.2527 -2.6716 -0.0475
  160MOL0     H22029   3.362   6.770   5.832 -1.1162  1.8867 -0.3330
  160MOL0     H22030   3.143   6.640   5.880  1.2816 -0.3146  2.1311
  160MOL0     H22031   3.270   6.522   5.867  0.2553 -2.5486 -1.3937
  160MOL0     H22032   2.986   6.500   5.753  0.8128  0.0894 -3.7203
  160MOL0     H22033   3.113   6.433   5.653  0.7994  1.2899 -1.4854
  160MOL0     H22034   3.010   6.261   5.818 -0.6793 -0.1544  0.6716
  160MOL0     H22035   3.185   6.289   5.837 -0.4702 -0.4011  0.9950
  160MOL0     H22036   3.052   6.270   6.050  3.7766  0.6481  2.6524
  160MOL0     H22037   3.152   6.425   6.033  0.6189  1.7233 -2.3859
  160MOL0     H22038   3.079   6.574   6.226  1.5526 -1.6043  2.2554
  160MOL0     H22039   2.954   6.706   6.487 -0.1458  0.0729 -0.9254
  160MOL0     H22040   3.110   6.610   6.471  0.2089  3.4275  2.5721
  160MOL0     H22041   2.979   6.559   6.574 -5.0917  1.0936  0.0865
  160MOL0     H22042   2.399   6.461   6.623 -1.0926 -2.1006  0.6784
  160MOL0     H22043   2.294   6.503   6.829  1.3398  1.3577 -0.3362
  160MOL0     H22044   2.263   6.457   7.042 -0.2447  1.9989  0.9576
  160MOL0     H22045   2.398   6.396   7.141 -0.9247 -0.9461  1.9527
  160MOL0     H22046   2.337   6.589   7.297  1.2507 -3.1087  1.2989
  160MOL0     H22047   2.196   6.606   7.189  0.1949  0.6337  0.8892
  160MOL0     H22048   2.249   6.396   7.397 -2.6993 -1.0508  1.1722
  160MOL0     H22049   2.211   6.328   7.242  0.7284  0.8809 -1.9564
  160MOL0     H22050   2.011   6.475   7.225 -0.9583  0.8494  1.1439
  160MOL0     H22051   2.033   6.550   7.366 -2.2506  0.0779 -0.8262
  160MOL0     H22052   1.855   6.363   7.366 -0.5200 -0.3597  0.5789
  160MOL0     H22053   1.985   6.246   7.353 -0.7518 -1.1155  1.0196
  160MOL0     H22054   1.971   6.446   7.586  2.3352 -0.3445  1.6244
  160MOL0     H22055   2.098   6.333   7.565  0.3860  2.0600 -0.8080
  160MOL0     H22056   1.799   6.244   7.577 -0.3965 -0.4829  0.5285
  160MOL0     H22057   1.899   6.247   7.724  1.4099 -4.1852 -1.0038
  160MOL0     H22058   2.054   6.102   7.660  0.0504  0.3896  0.4930
  160MOL0     H22059   1.982   6.080   7.502  1.0534  1.1589  0.4154
  160MOL0     H22060   2.680   6.558   7.016 -2.0558 -1.6907  2.1370
  160MOL0     H22061   2.779   6.465   6.810 -0.3059 -3.6548  0.1331
  160MOL0     H22062   2.616   6.398   6.294 -0.5636  2.1873  2.6722
  160MOL0     H22063   2.712   6.372   6.077  3.0112 -0.8935 -1.9620
  160MOL0     H22064   3.403   7.081   4.845 -0.7418 -0.0571  0.7395
  160MOL0     H22065   3.222   7.002   4.701 -1.7288 -0.3456  0.1340
  160MOL0     H22066   3.063   6.621   4.531 -0.0988  1.8448 -2.6350
  160MOL0     H22067   2.932   6.478   4.395  4.1443 -0.3807  3.0206
  160MOL0     H22068   2.776   6.400   4.239 -0.2122 -2.6261 -1.7168
  160MOL0     H22069   2.815   6.293   4.375 -0.9456  0.6254  2.0027
  160MOL0     H22070   2.673   6.189   4.195  0.8029  0.5433 -0.7672
  160MOL0     H22071   2.537   6.293   4.263  0.1809  0.8817  1.4269
  160MOL0     H22072   2.681   6.079   4.416 -0.0890  0.6796  0.0480
  160MOL0     H22073   2.599   6.209   4.494  0.1139 -0.0876 -0.1881
  160MOL0     H22074   2.383   6.171   4.397  1.7926  1.3833  3.2423
  160MOL0     H22075   2.443   6.024   4.479 -0.7330 -0.0171 -0.0627
  160MOL0     H22076   2.418   5.856   4.103  0.0495 -2.2313  1.4962
  160MOL0     H22077   2.577   6.567   4.615 -0.6764 -0.2352  1.5393
  160MOL0     H22078   2.574   6.734   4.765 -0.3863 -0.2835 -1.1243
  160MOL0     H22079   2.717   6.725   4.880  0.9202 -0.9622 -0.7468
  160MOL0     H22080   2.700   6.857   4.756 -0.9501 -0.1548 -0.5112
  161MOL0     O22081   2.762   5.989   0.010 -0.3560 -0.3707 -0.2241
  161MOL0     C22082   2.703   5.892   0.060  0.2386  0.5050 -0.5178
  161MOL0     O22083   2.750   5.808   0.153  0.3701 -0.1889  0.0728
  161MOL0     C22084   2.873   5.841   0.209  0.4429  0.4198  0.2988
  161MOL0     C22085   2.878   5.867   0.346 -0.2164  0.6569  0.6840
  161MOL0     C22086   2.999   5.894   0.399  0.1606  0.7649  0.0936
  161MOL0     C22087   3.117   5.915   0.316  0.6558  0.1726  0.4779
  161MOL0     O22088   3.247   5.931   0.366  0.4736 -0.1850 -0.1844
  161MOL0     C22089   3.259   6.032   0.462  0.6281 -1.7613 -0.4197
  161MOL0     C22090   3.411   6.040   0.492 -0.4912  0.1721 -0.6033
  161MOL0     C22091   3.484   6.130   0.394  0.6044  0.8177 -0.2230
  161MOL0     C22092   3.626   6.095   0.354 -0.8911  0.5293 -0.4219
  161MOL0     C22093   3.689   6.195   0.247  0.2661  0.6599 -0.4670
  161MOL0     C22094   3.834   6.181   0.215 -0.0906 -0.0582  0.3130
  161MOL0     C22095   3.884   6.300   0.138  0.3012 -0.1786 -0.1135
  161MOL0     C22096   4.029   6.271   0.096 -0.1429  0.6344  0.2181
  161MOL0     N22097   4.073   6.343  -0.025  0.1217  0.7750 -0.3947
  161MOL0     C22098   4.127   6.471  -0.027  0.4131 -0.0838  0.5254
  161MOL0     C22099   4.153   6.499  -0.157  0.6376 -0.7688  0.2274
  161MOL0     C22100   4.198   6.633  -0.214 -1.1021 -0.3254  0.4723
  161MOL0     C22101   4.336   6.678  -0.153  0.1261 -0.6551 -0.2069
  161MOL0     C22102   4.388   6.806  -0.224  0.1991  0.0633 -0.2981
  161MOL0     C22103   4.492   6.889  -0.141  0.4787 -0.2631  0.4042
  161MOL0     O22104   4.582   6.813  -0.056 -0.6576  0.5762 -0.2467
  161MOL0     C22105   4.693   6.894  -0.011 -0.1826 -0.4042  0.3007
  161MOL0     C22106   4.722   7.026  -0.035 -0.8864  1.0463  0.4092
  161MOL0     C22107   4.848   7.083   0.006 -0.8157  0.4363 -0.7850
  161MOL0     C22108   4.887   7.217  -0.051  0.4614  0.1697  1.0280
  161MOL0     C22109   4.939   7.018   0.097 -0.5837 -0.4995 -0.4307
  161MOL0     C22110   5.064   7.067   0.153 -0.0696  0.9634  0.7193
  161MOL0     O22111   5.163   6.973   0.178  0.2554  0.1839  0.6617
  161MOL0     C22112   5.278   7.018   0.236 -0.0809 -0.3789  0.9208
  161MOL0     C22113   5.298   7.026   0.373  0.2058  0.0573  0.5264
  161MOL0     C22114   5.426   7.048   0.421  0.0145 -0.5750 -0.5487
  161MOL0     C22115   5.535   7.080   0.336 -0.0701 -0.5224 -0.3385
  161MOL0     O22116   5.654   7.116   0.402 -0.1259  0.4553 -0.9564
  161MOL0     C22117   5.771   7.045   0.358 -0.2715 -0.1561 -0.2536
  161MOL0     C22118   5.885   7.053   0.462 -0.2824  0.8230 -0.3663
  161MOL0     C22119   5.922   7.194   0.521 -0.1160  0.0489 -0.6305
  161MOL0     C22120   5.908   7.310   0.415 -0.0127 -0.0078 -0.4548
  161MOL0     C22121   5.970   7.438   0.468 -0.3561 -0.4091 -0.4597
  161MOL0     C22122   5.947   7.554   0.374  0.7578  0.2347 -0.0207
  161MOL0     C22123   6.023   7.676   0.421 -0.6358  0.3759  0.5403
  161MOL0     C22124   5.973   7.802   0.347 -0.4790  0.3974 -0.4455
  161MOL0    Cl22125   6.015   7.793   0.171  0.2136  0.0317  0.2329
  161MOL0     C22126   5.520   7.073   0.197  0.3736  0.0984  0.8706
  161MOL0     C22127   5.385   7.046   0.146  0.5134 -0.0265  0.6370
  161MOL0     O22128   5.077   7.189   0.165 -0.4205  0.7060  0.5678
  161MOL0     C22129   4.901   6.891   0.127 -0.0070  0.2404  0.9657
  161MOL0     C22130   4.790   6.824   0.071  1.2700 -0.2468 -0.2538
  161MOL0     N22131   4.118   6.393  -0.237  0.7464  0.2830 -0.0550
  161MOL0     N22132   4.078   6.298  -0.160 -0.6071  0.2911  0.0794
  161MOL0     C22133   3.103   5.891   0.184  0.3814 -0.0185 -0.1106
  161MOL0     C22134   2.984   5.843   0.134  0.1570 -0.1729  0.0775
  161MOL0     C22135   2.568   5.864   0.010  0.4343 -0.0989  0.6576
  161MOL0     C22136   2.471   5.956   0.034  0.3434  0.5201 -1.0104
  161MOL0     C22137   2.338   5.915  -0.003  0.3053 -0.5891 -0.5091
  161MOL0     C22138   2.312   5.796  -0.045 -0.1910  0.2067  0.0579
  161MOL0     O22139   2.185   5.783  -0.098 -0.7761 -0.8581  0.2172
  161MOL0     C22140   2.152   5.647  -0.129 -0.2679  0.3998 -0.8510
  161MOL0     C22141   1.998   5.624  -0.137 -0.0375  0.6377  1.0018
  161MOL0     C22142   1.896   5.712  -0.045 -0.3553 -0.4489  0.0410
  161MOL0     C22143   1.939   5.716   0.109  0.0485  0.8293  1.0246
  161MOL0     C22144   1.859   5.807   0.186 -0.2817  0.5902 -0.1953
  161MOL0     C22145   1.820   5.888   0.270 -0.6724  0.1433 -0.4181
  161MOL0     C22146   2.414   5.700  -0.061  0.2075 -0.9641  0.5738
  161MOL0     C22147   2.546   5.738  -0.053 -0.2625 -0.4591  0.2835
  161MOL0     C22148   2.655   5.653  -0.107  0.2130 -0.1543  0.2723
  161MOL0     H22149   2.788   5.870   0.407 -2.3808 -0.7218 -2.1995
  161MOL0     H22150   3.025   5.919   0.502 -0.7340 -0.3230  0.6097
  161MOL0     H22151   3.216   5.998   0.556  1.5443  1.2231  1.2170
  161MOL0     H22152   3.222   6.132   0.440  1.8315 -0.7042  1.9871
  161MOL0     H22153   3.437   6.083   0.589 -1.2357  2.5509 -1.3795
  161MOL0     H22154   3.454   5.940   0.488 -0.3666  0.2672 -2.9600
  161MOL0     H22155   3.421   6.146   0.305  0.7843 -1.2609 -0.7794
  161MOL0     H22156   3.493   6.227   0.443  0.6043 -0.2731  2.0752
  161MOL0     H22157   3.696   6.081   0.437  0.0837 -2.0694 -1.5761
  161MOL0     H22158   3.618   5.999   0.302  1.5366  0.5377 -0.9491
  161MOL0     H22159   3.688   6.288   0.304  0.0116 -0.2165  1.0134
  161MOL0     H22160   3.627   6.202   0.158 -0.7172  0.9934  0.2215
  161MOL0     H22161   3.893   6.165   0.306 -2.0852  2.2818  2.1436
  161MOL0     H22162   3.851   6.095   0.149 -2.7413 -0.6800  0.3480
  161MOL0     H22163   3.888   6.386   0.205  1.7457  1.5151 -2.2245
  161MOL0     H22164   3.814   6.330   0.059  0.8797  1.6233  0.0065
  161MOL0     H22165   4.097   6.292   0.179  0.2392  2.7445 -0.5462
  161MOL0     H22166   4.034   6.164   0.077 -2.8863  0.3142  0.8442
  161MOL0     H22167   4.152   6.538   0.055 -0.9259 -1.2009  1.9082
  161MOL0     H22168   4.115   6.698  -0.185 -0.7721  0.2139  0.2337
  161MOL0     H22169   4.199   6.621  -0.323 -0.7271 -1.3345  0.5809
  161MOL0     H22170   4.319   6.701  -0.048  3.6414 -0.0020  0.3482
  161MOL0     H22171   4.397   6.587  -0.157  1.8499  0.2871  2.3798
  161MOL0     H22172   4.427   6.794  -0.326 -0.3301  0.1765 -0.5198
  161MOL0     H22173   4.302   6.874  -0.219  1.2620  1.4592 -0.3450
  161MOL0     H22174   4.554   6.947  -0.211 -0.1074  1.5219  1.2985
  161MOL0     H22175   4.442   6.964  -0.079  2.2069  1.9408 -0.6780
  161MOL0     H22176   4.661   7.078  -0.109  0.7398  0.7123 -1.2621
  161MOL0     H22177   4.814   7.255  -0.124 -0.5861 -0.8098  1.5266
  161MOL0     H22178   4.977   7.201  -0.110  1.3445  2.1740  1.7510
  161MOL0     H22179   4.896   7.299   0.020 -2.8042  0.9307  0.7352
  161MOL0     H22180   5.224   7.007   0.450  0.5922  2.4487  1.5735
  161MOL0     H22181   5.446   7.045   0.527  5.7150 -0.7419 -1.3043
  161MOL0     H22182   5.748   6.938   0.351 -2.5430  0.3138 -0.7502
  161MOL0     H22183   5.807   7.085   0.262 -2.8884 -1.4150 -1.9027
  161MOL0     H22184   5.876   6.975   0.538  3.1248  0.4820 -0.1741
  161MOL0     H22185   5.977   7.028   0.407  2.3413  0.9150  3.5789
  161MOL0     H22186   6.029   7.186   0.543  0.0666  1.7043 -0.7878
  161MOL0     H22187   5.874   7.225   0.614 -0.4766 -1.1291 -0.4050
  161MOL0     H22188   5.801   7.324   0.396 -0.1545  1.5893  1.2318
  161MOL0     H22189   5.954   7.292   0.318  2.0393  3.1701 -0.1918
  161MOL0     H22190   5.932   7.467   0.566  3.1938  2.0472  0.3937
  161MOL0     H22191   6.078   7.422   0.459 -0.2536  1.3160 -4.9613
  161MOL0     H22192   5.838   7.563   0.374  0.7687  0.3804 -0.4269
  161MOL0     H22193   5.990   7.525   0.278  1.6114  1.0569  0.1035
  161MOL0     H22194   6.125   7.672   0.381 -1.0083  0.5525 -0.4652
  161MOL0     H22195   6.031   7.687   0.530  1.2394  1.2004  0.3626
  161MOL0     H22196   6.029   7.889   0.383 -0.6767  0.0464  0.7445
  161MOL0     H22197   5.864   7.806   0.345 -0.5731 -1.4890 -0.2181
  161MOL0     H22198   5.609   7.079   0.136  1.9019 -3.7499  2.4012
  161MOL0     H22199   5.367   7.041   0.039 -1.8970 -0.5776  1.0049
  161MOL0     H22200   4.970   6.828   0.182  2.5360 -0.0810 -2.3019
  161MOL0     H22201   4.760   6.723   0.099 -2.0336  0.3646 -1.1720
  161MOL0     H22202   3.199   5.894   0.133  0.4172 -0.1958 -0.0571
  161MOL0     H22203   2.985   5.818   0.028 -0.1559 -0.8053  0.2187
  161MOL0     H22204   2.494   6.048   0.086  4.0128  1.1341 -3.3461
  161MOL0     H22205   2.257   5.988  -0.000 -0.9642 -1.9766  0.8595
  161MOL0     H22206   2.198   5.609  -0.221 -2.4377 -2.0690 -1.0102
  161MOL0     H22207   2.183   5.587  -0.043  2.7554 -1.7555 -3.1820
  161MOL0     H22208   1.974   5.518  -0.127  0.5597  0.3056 -0.7430
  161MOL0     H22209   1.972   5.641  -0.242  3.5244  1.3845  0.1128
  161MOL0     H22210   1.895   5.812  -0.089  0.3085  1.8410  4.6342
  161MOL0     H22211   1.795   5.672  -0.051 -1.9403  3.0799  0.4654
  161MOL0     H22212   2.041   5.752   0.125 -0.2010  3.0312 -1.6485
  161MOL0     H22213   1.930   5.612   0.142 -2.8575  1.4042  2.4102
  161MOL0     H22214   1.774   5.950   0.345  2.2055  1.4094  0.4353
  161MOL0     H22215   2.390   5.607  -0.111 -3.2299 -0.2818  0.7206
  161MOL0     H22216   2.738   5.717  -0.139 -0.1043  0.6283  0.9724
  161MOL0     H22217   2.685   5.587  -0.025 -1.7472 -0.6104  0.6687
  161MOL0     H22218   2.621   5.596  -0.194  2.0960  1.9712 -1.9903
  162MOL0     O22219   5.234   0.818   4.499  0.3428 -0.5279  0.3739
  162MOL0     C22220   5.346   0.849   4.451  1.0574 -0.5641  0.0267
  162MOL0     O22221   5.433   0.754   4.402 -0.7376 -0.3925 -0.1910
  162MOL0     C22222   5.385   0.628   4.382  2.0649 -0.4904 -0.2356
  162MOL0     C22223   5.404   0.524   4.475 -0.3824  0.2677  0.1554
  162MOL0     C22224   5.342   0.404   4.451  0.9934  0.2624 -0.2826
  162MOL0     C22225   5.264   0.372   4.339  0.7313 -0.0060  0.0649
  162MOL0     O22226   5.217   0.242   4.343 -0.5971 -0.1725 -0.0819
  162MOL0     C22227   5.108   0.208   4.261 -0.4484 -0.5200 -0.1839
  162MOL0     C22228   5.159   0.117   4.149 -0.1306 -0.1466 -0.4105
  162MOL0     C22229   5.227   0.189   4.035  1.1341  0.6405  0.6763
  162MOL0     C22230   5.245   0.085   3.927  0.2960 -1.4584 -0.5893
  162MOL0     C22231   5.311   0.141   3.799  0.2364  0.5439  0.2807
  162MOL0     C22232   5.324   0.023   3.698  0.7097  0.2067 -0.0830
  162MOL0     C22233   5.360   0.049   3.552  0.2041 -0.0187 -0.5910
  162MOL0     C22234   5.343  -0.077   3.464  1.1740 -0.2066  0.2389
  162MOL0     N22235   5.415  -0.187   3.525 -1.1285 -0.0047 -0.3014
  162MOL0     C22236   5.367  -0.305   3.582 -1.6084 -0.5913 -0.3485
  162MOL0     C22237   5.486  -0.373   3.600 -0.3568  0.1399  0.5370
  162MOL0     C22238   5.499  -0.512   3.647  0.9103  0.1488 -1.0140
  162MOL0     C22239   5.600  -0.526   3.770  0.1667  0.0328  0.4322
  162MOL0     C22240   5.635  -0.682   3.767  0.0791 -0.6539 -0.3823
  162MOL0     C22241   5.704  -0.724   3.902  0.7116 -0.0465 -0.1723
  162MOL0     O22242   5.607  -0.719   4.012 -0.1063 -0.4871  0.2721
  162MOL0     C22243   5.661  -0.708   4.140  0.5976 -0.4360 -0.5486
  162MOL0     C22244   5.575  -0.680   4.245  0.2043 -0.2790 -0.0506
  162MOL0     C22245   5.620  -0.660   4.376  0.3827 -0.1617 -0.8764
  162MOL0     C22246   5.522  -0.633   4.487  0.3740 -0.5703 -0.3884
  162MOL0     C22247   5.759  -0.649   4.395  0.0073  0.3229 -0.7915
  162MOL0     C22248   5.812  -0.619   4.537  0.7333 -0.8453 -0.0898
  162MOL0     O22249   5.904  -0.526   4.545 -0.5738  0.0423  0.2979
  162MOL0     C22250   5.964  -0.491   4.658 -0.3573 -0.7739 -0.7039
  162MOL0     C22251   5.923  -0.379   4.719 -0.3863 -0.2903 -0.4961
  162MOL0     C22252   5.965  -0.351   4.854 -0.2574 -0.8498 -0.0367
  162MOL0     C22253   6.062  -0.431   4.916  0.2782 -0.5931 -0.5599
  162MOL0     O22254   6.120  -0.404   5.030 -0.9926 -0.3437 -0.3261
  162MOL0     C22255   6.054  -0.472   5.138 -0.8094 -1.1403 -0.6828
  162MOL0     C22256   6.025  -0.362   5.244 -0.5904  0.2361 -0.6679
  162MOL0     C22257   5.947  -0.238   5.198  0.3961  0.2750 -0.9157
  162MOL0     C22258   5.861  -0.173   5.304  0.0470  0.2992  0.1814
  162MOL0     C22259   5.820  -0.028   5.253  0.1863  0.6166  0.6776
  162MOL0     C22260   5.743   0.043   5.372  0.4041 -0.6844  0.1119
  162MOL0     C22261   5.735   0.203   5.372  0.2750 -0.3399  0.3233
  162MOL0     C22262   5.861   0.272   5.409  0.3568 -0.0779  0.4785
  162MOL0    Cl22263   5.911   0.238   5.579 -0.5141  0.2102 -0.1988
  162MOL0     C22264   6.113  -0.540   4.848 -0.0530 -0.7334  0.3978
  162MOL0     C22265   6.063  -0.574   4.717 -0.8169 -0.5356 -0.4925
  162MOL0     O22266   5.785  -0.698   4.629  0.1232  0.2925  0.6592
  162MOL0     C22267   5.848  -0.684   4.291  0.3640  1.0381  0.6864
  162MOL0     C22268   5.792  -0.716   4.165 -0.7542 -0.5600 -0.5163
  162MOL0     N22269   5.602  -0.309   3.544  0.0118 -0.0652  1.0156
  162MOL0     N22270   5.556  -0.192   3.496  0.3165  0.1715  0.1358
  162MOL0     C22271   5.225   0.482   4.259  0.3798 -0.4634 -0.2885
  162MOL0     C22272   5.294   0.604   4.277  1.0420 -0.2537  0.8277
  162MOL0     C22273   5.415   0.979   4.471 -0.1704 -0.5134 -0.2619
  162MOL0     C22274   5.540   0.998   4.406 -0.0913 -0.9784  0.4518
  162MOL0     C22275   5.601   1.124   4.413  0.4536 -0.7037  0.2222
  162MOL0     C22276   5.537   1.234   4.468 -0.1683  0.9652 -0.3118
  162MOL0     O22277   5.594   1.353   4.477  0.8202 -0.2087  0.3363
  162MOL0     C22278   5.668   1.408   4.363 -0.3761 -0.1048  0.4994
  162MOL0     C22279   5.651   1.557   4.366 -1.3256 -0.0474 -0.0669
  162MOL0     C22280   5.735   1.621   4.478  0.0416  0.9977 -0.7830
  162MOL0     C22281   5.660   1.755   4.519 -0.2006 -0.2325 -0.1880
  162MOL0     C22282   5.754   1.840   4.595 -0.4035 -0.5172 -0.0110
  162MOL0     C22283   5.840   1.909   4.654 -0.1168 -0.2304 -0.4670
  162MOL0     C22284   5.428   1.208   4.546 -0.0458 -0.6817 -0.2797
  162MOL0     C22285   5.368   1.089   4.556 -0.8281  0.2602 -0.0001
  162MOL0     C22286   5.253   1.077   4.649  0.4534 -0.0004 -1.2452
  162MOL0     H22287   5.460   0.539   4.566 -0.2822  1.0582 -0.0273
  162MOL0     H22288   5.363   0.321   4.518  2.1530  3.0188  3.0756
  162MOL0     H22289   5.043   0.289   4.227 -1.7008 -1.4897 -0.1898
  162MOL0     H22290   5.048   0.149   4.331 -0.8805  0.4895  0.3123
  162MOL0     H22291   5.230   0.052   4.201  0.1133  1.8237  1.8974
  162MOL0     H22292   5.075   0.059   4.108 -1.3824 -2.9105  5.1345
  162MOL0     H22293   5.161   0.269   4.000  2.8454  1.2205 -1.4082
  162MOL0     H22294   5.322   0.234   4.065  1.3183 -0.8217  2.5164
  162MOL0     H22295   5.310   0.003   3.958 -1.0980 -3.7918 -3.3313
  162MOL0     H22296   5.150   0.037   3.901 -1.8408  0.5433  2.8382
  162MOL0     H22297   5.409   0.186   3.818  2.8285 -4.6580  1.1104
  162MOL0     H22298   5.245   0.216   3.756 -0.6561 -0.6999 -0.6018
  162MOL0     H22299   5.395  -0.040   3.753  1.3016  1.3807  0.5448
  162MOL0     H22300   5.227  -0.028   3.700 -0.5191  2.4198  1.6979
  162MOL0     H22301   5.468   0.067   3.558  0.4494 -1.8826  3.3626
  162MOL0     H22302   5.313   0.137   3.508  1.8654  1.3533  0.2447
  162MOL0     H22303   5.239  -0.109   3.447  1.7804 -1.2907 -1.6453
  162MOL0     H22304   5.385  -0.061   3.364  1.5095 -1.1205  0.2322
  162MOL0     H22305   5.266  -0.341   3.593 -1.6345 -0.5103 -0.3277
  162MOL0     H22306   5.520  -0.581   3.564 -2.0729 -0.1794 -1.6373
  162MOL0     H22307   5.407  -0.562   3.679  1.8282  0.5640  2.6744
  162MOL0     H22308   5.683  -0.457   3.748  0.4735 -0.6800 -0.7616
  162MOL0     H22309   5.549  -0.512   3.866 -2.4797 -1.9776 -0.5635
  162MOL0     H22310   5.551  -0.747   3.742  1.4167 -1.7633 -2.2065
  162MOL0     H22311   5.704  -0.707   3.686  0.0078  0.0100 -0.6598
  162MOL0     H22312   5.742  -0.826   3.899  4.8029  1.1522  2.7223
  162MOL0     H22313   5.773  -0.641   3.924 -2.4983  2.6352  0.6247
  162MOL0     H22314   5.467  -0.673   4.235 -0.1135 -2.9382  0.5293
  162MOL0     H22315   5.417  -0.651   4.464 -0.4308  0.4971  2.1415
  162MOL0     H22316   5.523  -0.528   4.518  1.5362 -0.8602  0.6235
  162MOL0     H22317   5.539  -0.691   4.578  0.2349 -0.7942 -0.5027
  162MOL0     H22318   5.851  -0.319   4.664 -1.8479 -0.7524  0.8604
  162MOL0     H22319   5.942  -0.259   4.905  1.5120  0.1114 -0.8623
  162MOL0     H22320   5.964  -0.526   5.108  0.4135 -3.2175 -0.8061
  162MOL0     H22321   6.131  -0.544   5.169 -0.1697  0.3132  1.3340
  162MOL0     H22322   5.965  -0.420   5.315  0.4402  0.0557  0.0863
  162MOL0     H22323   6.120  -0.344   5.296 -0.1106 -5.5510  1.1684
  162MOL0     H22324   5.873  -0.263   5.121 -1.1735  0.6771  0.4132
  162MOL0     H22325   6.021  -0.170   5.155  1.1271  0.4374  0.5409
  162MOL0     H22326   5.921  -0.173   5.395  1.6262 -3.6686 -0.6396
  162MOL0     H22327   5.768  -0.227   5.326 -1.1983  2.4202  0.4111
  162MOL0     H22328   5.911   0.028   5.228  1.0811  0.6943  3.6774
  162MOL0     H22329   5.752  -0.025   5.168  1.0671 -0.0441 -0.0583
  162MOL0     H22330   5.804   0.020   5.460 -1.0922 -0.9030  1.1327
  162MOL0     H22331   5.642   0.011   5.398  0.1785  1.0835  1.6380
  162MOL0     H22332   5.647   0.228   5.432 -1.8069 -0.7838 -2.3993
  162MOL0     H22333   5.709   0.232   5.270  0.0946  0.8956  0.6977
  162MOL0     H22334   5.845   0.379   5.390  1.7877  0.4249  1.9101
  162MOL0     H22335   5.932   0.237   5.334 -1.2558 -3.4315  0.3695
  162MOL0     H22336   6.174  -0.617   4.896 -0.4547 -2.2467 -1.4035
  162MOL0     H22337   6.092  -0.661   4.659  0.6039 -1.7126  1.8297
  162MOL0     H22338   5.954  -0.674   4.310  0.5864  1.2039 -0.6107
  162MOL0     H22339   5.867  -0.741   4.091  1.1704  0.2421  1.0351
  162MOL0     H22340   5.151   0.485   4.179 -1.2865 -0.6280  1.1967
  162MOL0     H22341   5.271   0.669   4.192 -1.9926 -2.4679 -0.2024
  162MOL0     H22342   5.590   0.925   4.343 -0.2464  2.5986 -4.4070
  162MOL0     H22343   5.692   1.153   4.362 -0.4569 -1.8315 -2.1886
  162MOL0     H22344   5.773   1.378   4.366  0.9020  3.9118  1.6480
  162MOL0     H22345   5.622   1.362   4.275  1.2339  0.7500 -0.8411
  162MOL0     H22346   5.543   1.574   4.373 -1.6973 -1.8496 -0.7953
  162MOL0     H22347   5.684   1.598   4.270 -0.8927  0.2900  0.2244
  162MOL0     H22348   5.736   1.550   4.561 -2.1784  3.9847  2.0499
  162MOL0     H22349   5.839   1.634   4.446  0.9257 -2.7123  0.0685
  162MOL0     H22350   5.576   1.735   4.586 -0.7065 -1.5266 -1.1451
  162MOL0     H22351   5.631   1.817   4.433 -1.1038 -0.1338  0.1774
  162MOL0     H22352   5.907   1.979   4.700 -1.7172  1.5254 -0.6570
  162MOL0     H22353   5.377   1.294   4.590  0.8000 -0.3836  0.1416
  162MOL0     H22354   5.251   1.146   4.734 -0.4127 -0.3556 -0.9587
  162MOL0     H22355   5.167   1.091   4.584 -0.4297 -1.0701 -0.3571
  162MOL0     H22356   5.251   0.981   4.701 -0.5700  0.9522  0.5644
  163MOL0     O22357   7.811   4.205   8.044  0.5881 -0.2995  0.4319
  163MOL0     C22358   7.739   4.249   8.140 -1.3302  0.3027  1.1625
  163MOL0     O22359   7.660   4.366   8.130 -0.6171  0.4567 -0.5021
  163MOL0     C22360   7.608   4.413   8.007  0.0650 -0.0979 -0.6948
  163MOL0     C22361   7.636   4.390   7.878 -1.0307 -0.8074 -0.6449
  163MOL0     C22362   7.580   4.461   7.776 -0.4024 -0.3485  0.4656
  163MOL0     C22363   7.482   4.555   7.792  0.0552  0.7634 -0.1793
  163MOL0     O22364   7.417   4.617   7.695  0.5081 -0.8251  0.4677
  163MOL0     C22365   7.465   4.632   7.560 -0.0788 -0.1457 -0.0948
  163MOL0     C22366   7.382   4.748   7.495 -0.1036  0.0301 -0.3316
  163MOL0     C22367   7.445   4.801   7.363  1.0024 -0.5112 -0.2760
  163MOL0     C22368   7.477   4.682   7.272 -0.6238  0.1033 -0.5541
  163MOL0     C22369   7.480   4.729   7.122 -0.5985  0.3449  0.4301
  163MOL0     C22370   7.603   4.810   7.091 -0.6402 -0.2521  0.4390
  163MOL0     C22371   7.725   4.728   7.036  0.1386  0.2126 -0.9195
  163MOL0     C22372   7.696   4.671   6.905  0.5570 -0.7617  0.3881
  163MOL0     N22373   7.704   4.777   6.802  0.4749  0.1192  0.0920
  163MOL0     C22374   7.816   4.848   6.778  0.0301  0.6278 -0.0858
  163MOL0     C22375   7.771   4.934   6.676  0.0406  1.2733  0.4513
  163MOL0     C22376   7.865   5.029   6.604 -1.0318  0.3392  0.0349
  163MOL0     C22377   7.870   4.985   6.448 -0.2726  0.3429 -0.7002
  163MOL0     C22378   7.990   5.060   6.387  0.0760 -0.2652 -0.4888
  163MOL0     C22379   8.034   4.995   6.257 -0.1842 -1.1164  0.0677
  163MOL0     O22380   8.080   4.857   6.275 -0.1515 -0.3684  0.1119
  163MOL0     C22381   8.091   4.786   6.160 -0.6710  0.4829 -0.0313
  163MOL0     C22382   8.070   4.834   6.034  0.6913  0.7990  0.1060
  163MOL0     C22383   8.069   4.754   5.913 -0.2220  0.2347 -0.0354
  163MOL0     C22384   8.006   4.791   5.782 -0.2382 -0.4165  0.2347
  163MOL0     C22385   8.114   4.620   5.929 -0.1136 -0.8844  0.9122
  163MOL0     C22386   8.120   4.515   5.813  0.2003 -0.1133  0.6109
  163MOL0     O22387   8.224   4.432   5.830  0.2017 -0.4739  0.2018
  163MOL0     C22388   8.233   4.325   5.744 -0.5153 -0.1772 -0.2724
  163MOL0     C22389   8.307   4.331   5.626 -0.1916  0.0159 -0.2907
  163MOL0     C22390   8.312   4.212   5.543  0.9596  0.6707 -0.9930
  163MOL0     C22391   8.217   4.111   5.571  0.1922 -0.1156 -0.8080
  163MOL0     O22392   8.207   4.000   5.489 -0.4841 -0.0648 -0.1854
  163MOL0     C22393   8.323   3.938   5.438 -0.2517 -0.0236  0.4325
  163MOL0     C22394   8.362   3.968   5.285 -0.1346  0.5307 -0.4529
  163MOL0     C22395   8.236   3.959   5.192 -0.1629 -0.3634 -0.3934
  163MOL0     C22396   8.291   4.011   5.054  0.3469  0.8266  0.1524
  163MOL0     C22397   8.181   4.019   4.944  0.3731  0.2464 -0.0298
  163MOL0     C22398   8.113   3.890   4.902  0.2782  0.7545  0.2679
  163MOL0     C22399   8.199   3.765   4.876 -0.4180 -0.4141  0.7045
  163MOL0     C22400   8.145   3.677   4.761 -0.4958  0.6641 -0.3484
  163MOL0    Cl22401   7.979   3.616   4.791  0.1834  0.2249 -0.4038
  163MOL0     C22402   8.135   4.116   5.687 -1.0888  0.8327  0.2825
  163MOL0     C22403   8.145   4.223   5.772  0.3576 -0.4426 -0.0532
  163MOL0     O22404   8.034   4.499   5.722  0.5820  0.7397  0.5023
  163MOL0     C22405   8.142   4.574   6.058 -0.1880  0.1689  0.7554
  163MOL0     C22406   8.126   4.649   6.173  0.3468 -0.4211  0.4066
  163MOL0     N22407   7.635   4.911   6.665 -0.4474 -0.9651 -0.0465
  163MOL0     N22408   7.594   4.814   6.736  0.2788  0.1548  0.7471
  163MOL0     C22409   7.446   4.576   7.928 -0.4916 -0.1082  0.1284
  163MOL0     C22410   7.503   4.504   8.031  0.1868  1.2763  1.0774
  163MOL0     C22411   7.763   4.206   8.278 -0.4671 -0.1543 -0.6723
  163MOL0     C22412   7.715   4.286   8.387  0.6311 -0.0863  0.4733
  163MOL0     C22413   7.750   4.245   8.514  0.2761  0.2486  0.0019
  163MOL0     C22414   7.822   4.121   8.545  0.8501 -0.2909  0.1274
  163MOL0     O22415   7.854   4.106   8.677  0.2928  0.2274 -0.1174
  163MOL0     C22416   7.943   4.006   8.719 -0.8150 -0.5177  0.8047
  163MOL0     C22417   7.976   4.037   8.862 -0.4501  0.4734 -0.8047
  163MOL0     C22418   8.095   3.948   8.908 -0.5462 -0.1162 -0.2034
  163MOL0     C22419   8.212   4.031   8.962  0.4504  0.2897 -0.3228
  163MOL0     C22420   8.334   3.969   8.932  0.1988 -0.0103 -0.4661
  163MOL0     C22421   8.429   3.912   8.892  0.9712 -0.3469 -0.7024
  163MOL0     C22422   7.870   4.042   8.445  0.0438  0.6057 -0.1733
  163MOL0     C22423   7.831   4.080   8.309 -0.7104 -0.3351  0.2030
  163MOL0     C22424   7.878   3.980   8.201 -0.6600 -0.2113  0.6031
  163MOL0     H22425   7.709   4.315   7.848  0.0651  1.4880 -4.5899
  163MOL0     H22426   7.612   4.439   7.675 -0.7880 -2.2531  0.7012
  163MOL0     H22427   7.449   4.546   7.494  1.4848  0.2835 -1.0851
  163MOL0     H22428   7.569   4.668   7.560 -0.5422  1.2549  0.7985
  163MOL0     H22429   7.276   4.727   7.477 -0.0062 -0.9286  0.1483
  163MOL0     H22430   7.391   4.838   7.556  4.8771  0.3178 -1.0744
  163MOL0     H22431   7.371   4.863   7.312 -2.0669 -3.0679  0.7313
  163MOL0     H22432   7.529   4.866   7.389  0.2052 -0.5958  2.9292
  163MOL0     H22433   7.575   4.639   7.296 -0.4088  1.1796  0.5578
  163MOL0     H22434   7.399   4.606   7.284 -1.7764  1.5234  1.6207
  163MOL0     H22435   7.396   4.793   7.096  1.2870  2.3448 -1.0193
  163MOL0     H22436   7.501   4.636   7.068  0.1400  2.1237 -2.5695
  163MOL0     H22437   7.575   4.877   7.009 -0.4082 -1.2175 -0.4524
  163MOL0     H22438   7.631   4.874   7.175 -0.8799  2.0841 -1.1783
  163MOL0     H22439   7.765   4.656   7.109 -0.3037  0.5345 -0.3550
  163MOL0     H22440   7.813   4.790   7.015 -0.7150  1.1564 -1.8323
  163MOL0     H22441   7.773   4.597   6.883 -0.8386 -1.8500 -1.0231
  163MOL0     H22442   7.597   4.627   6.895 -1.1476  2.7965 -0.0588
  163MOL0     H22443   7.914   4.830   6.822 -0.2350 -2.5361 -0.5667
  163MOL0     H22444   7.958   5.026   6.662 -1.2397 -0.8573  0.3292
  163MOL0     H22445   7.809   5.123   6.598  0.1173  0.9462 -1.7793
  163MOL0     H22446   7.892   4.879   6.440 -0.2510  0.1838  1.0452
  163MOL0     H22447   7.775   5.011   6.402 -0.3813 -1.1453 -1.3636
  163MOL0     H22448   7.953   5.161   6.368 -2.4645 -1.2112 -0.9399
  163MOL0     H22449   8.070   5.074   6.461  1.2333  0.8396 -1.8851
  163MOL0     H22450   7.944   5.002   6.195  0.4666 -2.4464 -1.0848
  163MOL0     H22451   8.122   5.044   6.215  0.1243 -0.5180  1.3739
  163MOL0     H22452   8.039   4.937   6.019  1.7845  1.0932 -0.1842
  163MOL0     H22453   7.969   4.893   5.772 -0.4223 -0.3144  1.7693
  163MOL0     H22454   7.908   4.743   5.770 -1.0600  0.9275  1.3502
  163MOL0     H22455   8.073   4.774   5.697  1.9891  2.7236  1.1893
  163MOL0     H22456   8.360   4.424   5.607 -1.3769  0.7647 -0.0262
  163MOL0     H22457   8.380   4.207   5.458  0.8641 -0.2782 -1.0221
  163MOL0     H22458   8.404   3.968   5.505 -0.2262 -0.0083  0.3946
  163MOL0     H22459   8.311   3.829   5.442 -0.0959 -0.3144 -3.3139
  163MOL0     H22460   8.426   4.055   5.269  2.9202 -1.0266  2.0373
  163MOL0     H22461   8.428   3.885   5.255 -0.4355 -0.1609  0.7241
  163MOL0     H22462   8.144   4.014   5.213  1.7156  3.3559 -1.0015
  163MOL0     H22463   8.210   3.855   5.173  0.2865 -0.5646  0.0873
  163MOL0     H22464   8.365   3.935   5.029 -2.1523 -1.6576 -0.2295
  163MOL0     H22465   8.336   4.110   5.069  1.2620  0.0853  2.7098
  163MOL0     H22466   8.102   4.093   4.962 -1.2899 -1.0765 -1.4928
  163MOL0     H22467   8.236   4.060   4.859 -0.2745  0.9566 -0.1110
  163MOL0     H22468   8.049   3.904   4.814  1.9610 -0.9388 -1.3135
  163MOL0     H22469   8.045   3.869   4.986  1.8282 -3.0018  0.8024
  163MOL0     H22470   8.201   3.702   4.965  1.8914 -2.1194 -0.4509
  163MOL0     H22471   8.305   3.790   4.868 -0.7811  1.7185  1.8414
  163MOL0     H22472   8.207   3.589   4.741 -1.7881 -0.2483 -0.4253
  163MOL0     H22473   8.164   3.746   4.678  1.6820 -0.7787 -1.1662
  163MOL0     H22474   8.063   4.043   5.721 -1.5899  0.9698 -0.4438
  163MOL0     H22475   8.078   4.224   5.857  1.2237 -0.1212  0.6349
  163MOL0     H22476   8.179   4.472   6.063  1.4071  0.5859 -1.0213
  163MOL0     H22477   8.109   4.604   6.270 -0.3578  1.7322  1.3412
  163MOL0     H22478   7.362   4.639   7.954  0.7216  1.1502  1.1341
  163MOL0     H22479   7.478   4.507   8.137 -2.8139  1.7069  0.4445
  163MOL0     H22480   7.653   4.374   8.370  0.2606 -0.8723 -2.9660
  163MOL0     H22481   7.729   4.307   8.601 -1.9039  1.7911 -1.5201
  163MOL0     H22482   7.891   3.910   8.718  3.7874 -3.3315 -1.3507
  163MOL0     H22483   8.031   4.010   8.654 -2.4839  1.3463 -1.5546
  163MOL0     H22484   7.887   4.014   8.922  0.2909 -1.0000 -0.2102
  163MOL0     H22485   8.002   4.143   8.870  0.8825  0.0246  2.7814
  163MOL0     H22486   8.065   3.892   8.997  4.8689  0.1934  2.2406
  163MOL0     H22487   8.136   3.873   8.839 -1.7487  0.3106 -1.4175
  163MOL0     H22488   8.210   4.072   9.063  0.7294  1.9737 -0.9659
  163MOL0     H22489   8.214   4.123   8.903 -0.6050 -0.2807 -1.3003
  163MOL0     H22490   8.503   3.860   8.835 -0.3008 -1.3084 -1.5324
  163MOL0     H22491   7.934   3.959   8.472 -0.5981  1.2485  4.0157
  163MOL0     H22492   7.963   4.022   8.146 -1.0533 -0.9983 -0.6715
  163MOL0     H22493   7.918   3.892   8.252 -1.8553  0.1410  2.2258
  163MOL0     H22494   7.806   3.953   8.123 -0.4708 -1.6785  0.9005
  164MOL0     O22495   9.830   9.510   5.885  0.5234 -0.4185 -0.3068
  164MOL0     C22496   9.810   9.521   5.765 -0.4018  0.1055 -0.2316
  164MOL0     O22497   9.882   9.457   5.672 -0.3102 -0.0099 -0.9853
  164MOL0     C22498  10.007   9.399   5.706  0.3210  0.5064  1.0543
  164MOL0     C22499  10.029   9.272   5.659  0.0867 -0.2107 -0.3355
  164MOL0     C22500  10.154   9.217   5.696 -0.2771 -0.2567 -0.6462
  164MOL0     C22501  10.249   9.275   5.775 -0.2367 -0.4542  0.7200
  164MOL0     O22502  10.360   9.198   5.795 -0.8048 -0.1199 -0.5270
  164MOL0     C22503  10.453   9.244   5.896  0.5077 -0.4984 -0.7233
  164MOL0     C22504  10.556   9.135   5.879  0.8827  0.7458  0.3434
  164MOL0     C22505  10.615   9.090   5.736  0.1489  0.4698  1.0026
  164MOL0     C22506  10.763   9.071   5.742  0.1026  0.1612  0.8649
  164MOL0     C22507  10.833   9.011   5.621  0.5501  0.6701  0.3803
  164MOL0     C22508  10.991   9.017   5.632  0.3212 -0.7251 -0.5072
  164MOL0     C22509  11.055   8.914   5.532 -0.7354 -0.1948 -0.4425
  164MOL0     C22510  11.031   8.770   5.565  0.0612  0.7186 -0.0485
  164MOL0     N22511  11.125   8.670   5.499  0.2014 -1.1194 -0.0182
  164MOL0     C22512  11.083   8.592   5.402  0.0421  0.5117  0.0343
  164MOL0     C22513  11.182   8.509   5.381 -0.1795 -0.7379 -0.1792
  164MOL0     C22514  11.184   8.406   5.271  0.8581 -0.3615  0.1761
  164MOL0     C22515  11.288   8.430   5.169 -0.3135 -0.0160  0.3945
  164MOL0     C22516  11.240   8.531   5.066  0.0239 -0.1025 -0.1320
  164MOL0     C22517  11.324   8.556   4.941 -0.1585 -0.1087  0.6085
  164MOL0     O22518  11.374   8.425   4.904  0.0981 -0.3721  0.2029
  164MOL0     C22519  11.511   8.416   4.879  0.0528  0.1176 -0.4956
  164MOL0     C22520  11.569   8.294   4.894  0.2741  1.2246  0.4152
  164MOL0     C22521  11.699   8.255   4.862  0.6264  0.5556  0.6325
  164MOL0     C22522  11.745   8.111   4.885 -0.2032  0.0297  0.3893
  164MOL0     C22523  11.784   8.363   4.840 -0.5730 -0.4885  0.7718
  164MOL0     C22524  11.936   8.356   4.840  0.1143  0.1549  0.5356
  164MOL0     O22525  11.996   8.450   4.755 -0.9841  0.5651 -0.5506
  164MOL0     C22526  12.133   8.433   4.733  0.6102 -0.5918 -0.1751
  164MOL0     C22527  12.180   8.352   4.638 -0.2479 -0.3620 -0.3132
  164MOL0     C22528  12.312   8.353   4.623 -0.1332  0.9318 -0.3662
  164MOL0     C22529  12.402   8.401   4.720  0.7875  0.3089 -0.1053
  164MOL0     O22530  12.536   8.375   4.723  0.8791 -0.1360 -0.8365
  164MOL0     C22531  12.602   8.344   4.600  0.0056  0.0656  0.4156
  164MOL0     C22532  12.629   8.196   4.583  1.1075  1.1616  1.0225
  164MOL0     C22533  12.667   8.178   4.441  0.1143  1.1302  0.5655
  164MOL0     C22534  12.759   8.064   4.416 -0.1275 -0.1404  0.0540
  164MOL0     C22535  12.756   8.011   4.274 -0.3003  0.1621  0.1688
  164MOL0     C22536  12.830   8.118   4.186 -0.1594  0.6828 -0.6604
  164MOL0     C22537  12.835   8.086   4.039  0.1697 -0.1360  0.4597
  164MOL0     C22538  12.871   7.943   4.004 -0.7451  0.6610 -0.0390
  164MOL0    Cl22539  13.028   7.888   4.046  0.2167 -0.1278 -0.2496
  164MOL0     C22540  12.353   8.457   4.834  1.0757  0.1516 -0.8463
  164MOL0     C22541  12.218   8.479   4.836  0.3415 -0.0879  0.2198
  164MOL0     O22542  11.995   8.264   4.885  0.6899  0.3099  0.8957
  164MOL0     C22543  11.729   8.492   4.814 -0.3087  0.1330 -0.1951
  164MOL0     C22544  11.598   8.517   4.833  0.9717 -0.6014  0.5179
  164MOL0     N22545  11.278   8.523   5.478  0.9181 -0.2333 -0.1333
  164MOL0     N22546  11.240   8.619   5.556 -0.8496 -1.0766  0.2464
  164MOL0     C22547  10.227   9.405   5.819  0.2536 -0.4398  0.0811
  164MOL0     C22548  10.104   9.464   5.778  0.3435 -0.4134 -0.3841
  164MOL0     C22549   9.703   9.612   5.708 -0.5628  0.2011  0.6618
  164MOL0     C22550   9.716   9.650   5.568 -0.0219  0.5051 -0.4952
  164MOL0     C22551   9.628   9.734   5.507 -0.1134  0.2772 -0.0962
  164MOL0     C22552   9.510   9.771   5.570 -0.3246 -0.2486  1.4336
  164MOL0     O22553   9.416   9.849   5.519  0.2424  0.3857 -0.2932
  164MOL0     C22554   9.399   9.828   5.378 -0.0261 -0.1833  0.3176
  164MOL0     C22555   9.252   9.831   5.341  0.3058 -0.0703  1.4509
  164MOL0     C22556   9.221   9.906   5.213 -1.1059  0.1142 -0.2079
  164MOL0     C22557   9.096   9.854   5.145 -0.0636  0.8990  0.3681
  164MOL0     C22558   9.094   9.707   5.121 -0.4586  0.2019 -1.3466
  164MOL0     C22559   9.085   9.587   5.098 -0.2020  0.0746 -0.7295
  164MOL0     C22560   9.494   9.733   5.700  0.1377 -0.3762 -0.4913
  164MOL0     C22561   9.590   9.664   5.767  0.7459 -0.0346 -0.1181
  164MOL0     C22562   9.563   9.642   5.916 -0.6122 -0.0211 -0.2552
  164MOL0     H22563   9.955   9.222   5.597 -0.9697  2.5513 -1.4454
  164MOL0     H22564  10.159   9.118   5.652 -1.5422 -0.7614  0.2811
  164MOL0     H22565  10.399   9.248   5.991  0.1213 -0.1381 -0.9503
  164MOL0     H22566  10.491   9.346   5.889  0.4387 -0.5084 -1.2752
  164MOL0     H22567  10.635   9.177   5.942  2.2683  0.0206 -0.8398
  164MOL0     H22568  10.514   9.042   5.919 -2.6072  1.9548 -0.2249
  164MOL0     H22569  10.572   8.998   5.697  0.1071  0.3505  1.3278
  164MOL0     H22570  10.602   9.165   5.657  2.9620 -1.6752 -1.7177
  164MOL0     H22571  10.810   9.170   5.754  0.5794 -0.2327  2.4508
  164MOL0     H22572  10.788   9.009   5.828  2.2303  1.1381  1.0192
  164MOL0     H22573  10.796   9.068   5.536 -0.6060 -2.2195 -1.1715
  164MOL0     H22574  10.797   8.908   5.614  0.8812  0.6646 -2.2309
  164MOL0     H22575  11.016   9.119   5.601 -0.0136 -1.6762 -4.4925
  164MOL0     H22576  11.028   8.999   5.734 -0.9246 -1.4953 -0.1648
  164MOL0     H22577  11.163   8.928   5.516 -0.1627 -2.6629  0.8219
  164MOL0     H22578  11.004   8.923   5.436 -0.6333 -0.3079 -0.5080
  164MOL0     H22579  11.068   8.772   5.668  0.9716 -5.7576  0.1697
  164MOL0     H22580  10.927   8.741   5.550  0.9814 -2.5585 -0.7919
  164MOL0     H22581  10.996   8.591   5.336 -1.6433 -2.0130  2.1180
  164MOL0     H22582  11.090   8.404   5.215  0.3245 -0.0801  1.0446
  164MOL0     H22583  11.192   8.302   5.303  4.8640 -1.0638 -2.4268
  164MOL0     H22584  11.373   8.470   5.223 -1.9233  0.9106  2.3856
  164MOL0     H22585  11.308   8.336   5.117 -1.0073  0.0463 -0.0051
  164MOL0     H22586  11.143   8.493   5.032 -0.2173 -0.4014  0.8606
  164MOL0     H22587  11.212   8.627   5.111 -2.5322 -1.1470  0.6483
  164MOL0     H22588  11.271   8.597   4.854  3.0510  0.8735 -1.0720
  164MOL0     H22589  11.405   8.629   4.953 -0.6372  0.6647 -0.6374
  164MOL0     H22590  11.498   8.217   4.923  0.3324  1.5691  1.5462
  164MOL0     H22591  11.659   8.050   4.914 -0.3339  2.2307  5.8125
  164MOL0     H22592  11.808   8.110   4.974  1.6487 -0.7162 -0.8681
  164MOL0     H22593  11.794   8.067   4.797  0.5279  2.8754 -0.7294
  164MOL0     H22594  12.123   8.304   4.559  3.0501 -1.1001 -2.4201
  164MOL0     H22595  12.361   8.291   4.549 -0.4325 -3.1925  2.5489
  164MOL0     H22596  12.554   8.383   4.509  1.0995  0.4941  0.0070
  164MOL0     H22597  12.702   8.389   4.598 -0.3577  0.9178  0.9036
  164MOL0     H22598  12.714   8.175   4.649  1.3784  1.9303  0.9286
  164MOL0     H22599  12.543   8.131   4.603  2.6011  0.0304  4.5710
  164MOL0     H22600  12.711   8.266   4.393 -1.0971  1.4611  0.0417
  164MOL0     H22601  12.574   8.159   4.388 -0.2325 -1.0488  1.8681
  164MOL0     H22602  12.726   7.976   4.472  2.0719 -0.1893  1.3565
  164MOL0     H22603  12.862   8.090   4.441 -0.8883  4.2502 -0.4853
  164MOL0     H22604  12.812   7.917   4.272  1.9021  1.1758  4.2377
  164MOL0     H22605  12.662   8.003   4.219  0.5322 -5.6227 -1.0257
  164MOL0     H22606  12.932   8.134   4.221  0.1193 -1.6333 -0.2734
  164MOL0     H22607  12.778   8.213   4.204  0.3632  1.1282 -1.4298
  164MOL0     H22608  12.908   8.152   3.991  1.1801 -0.7202  1.1541
  164MOL0     H22609  12.741   8.116   3.992  1.7574  1.2311 -2.0773
  164MOL0     H22610  12.874   7.915   3.898  1.6795 -0.0376  0.1422
  164MOL0     H22611  12.803   7.873   4.053  1.3480  0.3300  2.6347
  164MOL0     H22612  12.399   8.474   4.931 -0.8831 -1.4294  0.4329
  164MOL0     H22613  12.183   8.537   4.921  3.3718  1.6894  0.4134
  164MOL0     H22614  11.803   8.567   4.786  1.6505 -0.2037  3.3841
  164MOL0     H22615  11.565   8.616   4.804 -1.4060 -0.8380  2.1143
  164MOL0     H22616  10.294   9.464   5.879  1.2701 -0.3628 -1.1042
  164MOL0     H22617  10.088   9.567   5.807  1.9997 -0.3617  0.3862
  164MOL0     H22618   9.786   9.609   5.496  1.3798  2.4127 -0.3226
  164MOL0     H22619   9.639   9.766   5.404 -0.1275  3.7390  0.8465
  164MOL0     H22620   9.460   9.897   5.319 -1.1272 -1.3110 -2.2721
  164MOL0     H22621   9.437   9.732   5.342  1.9518  0.3122  0.9662
  164MOL0     H22622   9.195   9.876   5.423  1.3785 -0.5807  2.4969
  164MOL0     H22623   9.226   9.725   5.330 -1.6009  0.4627  0.2848
  164MOL0     H22624   9.203  10.011   5.240 -0.9192  0.4848 -1.4621
  164MOL0     H22625   9.304   9.897   5.142 -1.0327  2.1289 -0.4503
  164MOL0     H22626   9.094   9.903   5.048  4.4187 -1.7024 -1.3519
  164MOL0     H22627   9.003   9.873   5.200 -0.7035 -0.2020 -0.2974
  164MOL0     H22628   9.078   9.488   5.060 -0.8281  0.5022 -1.7447
  164MOL0     H22629   9.405   9.770   5.749 -0.2365 -0.1520 -1.3191
  164MOL0     H22630   9.504   9.724   5.958 -2.0960 -1.8465  1.4554
  164MOL0     H22631   9.506   9.551   5.934  0.5141 -0.6043  0.5036
  164MOL0     H22632   9.651   9.635   5.981 -1.9759  1.4285  1.9252
  165MOL0     O22633   3.669   6.031   1.308 -0.0347 -0.5241 -0.8965
  165MOL0     C22634   3.644   5.973   1.416  0.7368  0.2895  1.0986
  165MOL0     O22635   3.521   5.921   1.452  0.5281 -0.2358  0.3206
  165MOL0     C22636   3.418   5.913   1.352  0.0246  0.5688 -0.0844
  165MOL0     C22637   3.302   5.993   1.337  0.7815 -0.0529 -0.5576
  165MOL0     C22638   3.211   5.975   1.238  0.2276  0.2708  0.1749
  165MOL0     C22639   3.235   5.877   1.145  0.1108  0.1992  0.6606
  165MOL0     O22640   3.155   5.866   1.035 -0.4242 -0.6858  0.9361
  165MOL0     C22641   3.206   5.866   0.910 -0.4275  0.7267 -0.0598
  165MOL0     C22642   3.196   5.733   0.836  0.4361  0.4678  0.2506
  165MOL0     C22643   3.218   5.718   0.686 -0.9411 -0.6991 -1.3358
  165MOL0     C22644   3.213   5.574   0.634  0.0655 -0.0862  0.4723
  165MOL0     C22645   3.220   5.580   0.482  0.0415  0.6950  0.1318
  165MOL0     C22646   3.131   5.472   0.417  0.2328 -0.0388  0.4436
  165MOL0     C22647   3.133   5.507   0.262  0.0644 -0.1660  0.3171
  165MOL0     C22648   3.030   5.426   0.181 -0.2932 -0.8419  0.3084
  165MOL0     N22649   3.039   5.281   0.210  0.5273  0.0435  0.6130
  165MOL0     C22650   2.923   5.202   0.218  0.1351  0.9485  0.1662
  165MOL0     C22651   2.963   5.073   0.212 -0.2261 -0.3871 -0.7101
  165MOL0     C22652   2.872   4.951   0.211 -0.4019 -0.0700 -0.6219
  165MOL0     C22653   2.967   4.826   0.196  0.5768 -0.1545 -0.2952
  165MOL0     C22654   2.886   4.704   0.234  0.1018 -0.0077 -0.0822
  165MOL0     C22655   2.964   4.584   0.204 -0.5246  0.1784 -0.2493
  165MOL0     O22656   3.079   4.585   0.284  0.9036 -0.1947  0.3472
  165MOL0     C22657   3.152   4.473   0.301 -0.4466  0.5065 -0.6683
  165MOL0     C22658   3.228   4.457   0.421 -0.0359 -0.0768 -0.3658
  165MOL0     C22659   3.284   4.331   0.449 -1.1715 -0.3483  0.7531
  165MOL0     C22660   3.391   4.329   0.561  0.7047 -0.6674  0.4957
  165MOL0     C22661   3.267   4.226   0.363 -0.3581 -0.2559  0.4861
  165MOL0     C22662   3.337   4.089   0.375  0.7061 -0.2050  0.3758
  165MOL0     O22663   3.311   3.990   0.285  0.7556 -0.6930 -0.3492
  165MOL0     C22664   3.371   3.871   0.272 -1.1725  0.0694 -0.2350
  165MOL0     C22665   3.467   3.837   0.174 -0.7460 -0.2017 -0.6634
  165MOL0     C22666   3.509   3.701   0.155 -0.0095 -0.8075  0.1129
  165MOL0     C22667   3.456   3.598   0.236  0.4384 -1.0871 -0.3927
  165MOL0     O22668   3.495   3.466   0.235 -0.0118  0.1425 -0.1077
  165MOL0     C22669   3.542   3.410   0.360  0.3184 -1.2820 -0.7003
  165MOL0     C22670   3.646   3.300   0.329 -0.2304 -1.3755  0.1870
  165MOL0     C22671   3.633   3.236   0.187  0.0025  0.5274  0.0293
  165MOL0     C22672   3.499   3.170   0.145  0.3926 -0.7244  0.1174
  165MOL0     C22673   3.523   3.083   0.024 -0.5927  1.0560  0.2690
  165MOL0     C22674   3.386   3.025  -0.026 -0.5063  0.4436 -0.1354
  165MOL0     C22675   3.401   2.903  -0.125 -0.5997 -0.3544  1.4117
  165MOL0     C22676   3.472   2.951  -0.249 -0.1468 -0.9685 -0.0527
  165MOL0    Cl22677   3.551   2.811  -0.327 -0.0409 -0.1794 -0.1041
  165MOL0     C22678   3.361   3.636   0.328 -0.3118 -0.4565  0.3436
  165MOL0     C22679   3.327   3.763   0.353 -0.0586  0.3867 -0.4418
  165MOL0     O22680   3.396   4.058   0.475  0.4753 -0.0663  0.2110
  165MOL0     C22681   3.193   4.242   0.246  0.8177  0.0524 -0.6494
  165MOL0     C22682   3.141   4.362   0.215 -0.2005 -1.0607  0.0374
  165MOL0     N22683   3.101   5.075   0.223  0.1272 -0.0837  0.0768
  165MOL0     N22684   3.148   5.202   0.220  0.5068  0.5358 -0.2369
  165MOL0     C22685   3.344   5.799   1.162 -0.0283 -1.1536 -0.1554
  165MOL0     C22686   3.438   5.810   1.261  0.1792 -0.2316  0.4063
  165MOL0     C22687   3.746   5.944   1.515 -0.3540  0.2730 -0.5294
  165MOL0     C22688   3.742   5.823   1.575  0.7042 -0.8442 -0.1585
  165MOL0     C22689   3.841   5.793   1.670 -0.0354  0.4012 -0.2006
  165MOL0     C22690   3.942   5.888   1.704 -0.2547  1.5392  0.6690
  165MOL0     O22691   4.034   5.857   1.795 -0.5253 -0.5106 -0.6795
  165MOL0     C22692   4.003   5.874   1.934  0.8748 -0.6312 -0.1699
  165MOL0     C22693   4.040   5.738   2.001 -0.7838 -0.1342 -0.3900
  165MOL0     C22694   4.192   5.724   2.022 -0.2638 -0.4524  0.2872
  165MOL0     C22695   4.236   5.583   2.042  0.1562  0.5020  0.9286
  165MOL0     C22696   4.381   5.589   2.050  0.1833  0.6627 -0.0103
  165MOL0     C22697   4.500   5.592   2.061  0.0273 -0.3730  0.2789
  165MOL0     C22698   3.934   6.015   1.650 -0.0003  0.7623  0.8862
  165MOL0     C22699   3.843   6.045   1.549 -0.0913  0.2812  0.6134
  165MOL0     C22700   3.851   6.180   1.482  0.2130  0.8698  0.6603
  165MOL0     H22701   3.284   6.082   1.396  4.6139 -1.4823  3.3373
  165MOL0     H22702   3.127   6.040   1.215  0.6014  0.8955  0.5331
  165MOL0     H22703   3.309   5.903   0.905  0.1979 -0.9653 -3.5164
  165MOL0     H22704   3.142   5.936   0.855 -1.2755  0.8390  1.0485
  165MOL0     H22705   3.266   5.654   0.867  0.5389 -0.9828 -3.2148
  165MOL0     H22706   3.093   5.697   0.834  0.9821 -1.5238 -4.0816
  165MOL0     H22707   3.150   5.784   0.631 -0.7058  0.9461  0.2669
  165MOL0     H22708   3.315   5.765   0.668 -0.4451 -0.6907  1.0389
  165MOL0     H22709   3.302   5.527   0.676  1.3191  0.1003 -1.8216
  165MOL0     H22710   3.123   5.520   0.667 -1.1873  2.0980  0.8741
  165MOL0     H22711   3.326   5.573   0.455 -0.1403 -1.5959 -0.1970
  165MOL0     H22712   3.180   5.674   0.444 -0.5695  0.4823  0.2309
  165MOL0     H22713   3.169   5.370   0.429 -1.1689 -0.2748  4.1220
  165MOL0     H22714   3.027   5.465   0.450 -1.7160 -1.0797 -4.8443
  165MOL0     H22715   3.230   5.473   0.226  0.0350 -3.0610  2.5479
  165MOL0     H22716   3.119   5.614   0.246  1.1866  0.7695  4.3738
  165MOL0     H22717   2.929   5.458   0.209  0.3823 -1.9009  4.8331
  165MOL0     H22718   3.056   5.437   0.076 -0.1941 -2.6315  0.1319
  165MOL0     H22719   2.820   5.235   0.222  0.2063  1.2234 -0.2891
  165MOL0     H22720   2.797   4.958   0.131 -0.7402 -1.1807 -0.4179
  165MOL0     H22721   2.823   4.942   0.308  3.1372  1.4797  1.4893
  165MOL0     H22722   3.004   4.825   0.093  4.3487 -3.1908  0.8841
  165MOL0     H22723   3.046   4.829   0.271  2.7732  0.9410 -2.5402
  165MOL0     H22724   2.844   4.717   0.334 -0.2594  1.7664 -0.4303
  165MOL0     H22725   2.797   4.702   0.169  1.7401  2.3706 -2.6434
  165MOL0     H22726   2.905   4.493   0.221  0.9193 -0.5168  1.2572
  165MOL0     H22727   3.003   4.580   0.102 -1.8489  1.6273 -0.8483
  165MOL0     H22728   3.237   4.542   0.488 -0.4776 -1.0956  1.0268
  165MOL0     H22729   3.351   4.282   0.651 -0.8321 -1.2489 -0.4518
  165MOL0     H22730   3.412   4.432   0.590 -2.3298 -0.4969  2.5134
  165MOL0     H22731   3.477   4.274   0.521 -1.6977 -3.2316 -1.6092
  165MOL0     H22732   3.491   3.914   0.101  2.4652  0.4532  0.9232
  165MOL0     H22733   3.573   3.663   0.076  1.1633 -0.2090  0.7502
  165MOL0     H22734   3.594   3.482   0.422  0.7259 -4.0587  2.4663
  165MOL0     H22735   3.457   3.363   0.410 -1.6157  0.1947 -2.4423
  165MOL0     H22736   3.746   3.342   0.333 -1.0158  0.7049 -0.3890
  165MOL0     H22737   3.635   3.223   0.405 -0.2879 -2.0559 -0.5022
  165MOL0     H22738   3.704   3.153   0.185 -1.6665 -0.9563 -2.0210
  165MOL0     H22739   3.665   3.301   0.105 -1.2314 -0.2349 -1.0886
  165MOL0     H22740   3.421   3.242   0.119  0.5314 -0.8763 -0.7679
  165MOL0     H22741   3.459   3.102   0.220 -1.5106 -0.7922 -0.8907
  165MOL0     H22742   3.582   3.136  -0.052 -0.1024 -0.3234 -0.3527
  165MOL0     H22743   3.573   2.990   0.050  3.1838  3.3524  2.0656
  165MOL0     H22744   3.341   3.115  -0.067  1.3612  1.6260  0.2753
  165MOL0     H22745   3.329   2.998   0.064  1.6957  0.5209  1.3775
  165MOL0     H22746   3.298   2.873  -0.148 -0.1071 -2.2664  1.4768
  165MOL0     H22747   3.451   2.819  -0.075  2.5588 -0.3304 -1.3691
  165MOL0     H22748   3.553   3.022  -0.231  0.9304 -1.5593 -2.1835
  165MOL0     H22749   3.406   3.008  -0.315 -1.8885 -1.5282  1.1290
  165MOL0     H22750   3.321   3.555   0.388  1.1515 -3.4330 -2.4296
  165MOL0     H22751   3.256   3.795   0.428  0.1371  1.6228 -0.7767
  165MOL0     H22752   3.170   4.158   0.181 -2.9174  0.4664 -0.0724
  165MOL0     H22753   3.092   4.374   0.119 -0.9191  1.8099  0.6738
  165MOL0     H22754   3.365   5.731   1.080  1.4587  1.4044 -2.0428
  165MOL0     H22755   3.514   5.733   1.269 -1.2189 -1.5401  1.8019
  165MOL0     H22756   3.669   5.748   1.544 -1.4656  0.4354  1.5434
  165MOL0     H22757   3.840   5.692   1.708  1.4821 -0.0315 -1.1788
  165MOL0     H22758   4.042   5.958   1.993 -1.7706  1.0465 -0.6351
  165MOL0     H22759   3.895   5.890   1.934  0.9323 -0.2542 -0.8754
  165MOL0     H22760   3.990   5.655   1.949  0.8454 -0.6729 -1.1322
  165MOL0     H22761   3.998   5.742   2.102  0.6244 -0.0357  0.2055
  165MOL0     H22762   4.245   5.772   1.939  1.6501  0.9162  2.1942
  165MOL0     H22763   4.220   5.791   2.104  0.6306 -0.4350 -0.0144
  165MOL0     H22764   4.205   5.526   1.955  0.0203 -2.4647  2.7808
  165MOL0     H22765   4.195   5.539   2.134 -0.9467  1.1851  0.7864
  165MOL0     H22766   4.606   5.606   2.057 -0.3008  2.3873 -2.4103
  165MOL0     H22767   3.999   6.098   1.677  1.6131  0.2833 -1.2918
  165MOL0     H22768   3.958   6.195   1.463 -0.1669  2.7722 -0.2357
  165MOL0     H22769   3.816   6.193   1.379  3.6374 -0.8661 -0.8756
  165MOL0     H22770   3.823   6.259   1.553 -3.7650 -0.6434  1.0095
  166MOL0     O22771   0.672   9.938   6.273  0.4352  0.2713  0.3567
  166MOL0     C22772   0.583  10.019   6.286 -0.2582 -0.6162  0.0810
  166MOL0     O22773   0.452  10.005   6.247 -0.4179 -0.5038 -0.2884
  166MOL0     C22774   0.419   9.922   6.141  0.5652  0.8091 -0.1295
  166MOL0     C22775   0.287   9.896   6.134 -0.0340  0.0739 -0.2439
  166MOL0     C22776   0.223   9.815   6.034  0.2770  0.1447  0.6307
  166MOL0     C22777   0.310   9.766   5.934  0.4616 -0.0266  0.9856
  166MOL0     O22778   0.263   9.690   5.824  0.2342  0.4437 -0.0463
  166MOL0     C22779   0.127   9.669   5.777  0.6873  0.9828  0.8189
  166MOL0     C22780   0.123   9.537   5.690 -0.5424 -0.5888 -0.5855
  166MOL0     C22781   0.172   9.555   5.548 -0.2909 -0.7052  0.1742
  166MOL0     C22782   0.318   9.603   5.522 -0.3812  0.3337  0.0343
  166MOL0     C22783   0.352   9.564   5.385 -0.0601  0.7149  0.8054
  166MOL0     C22784   0.496   9.592   5.340  0.3659 -0.9018 -0.0703
  166MOL0     C22785   0.493   9.574   5.186  0.3692  0.1792  0.1204
  166MOL0     C22786   0.637   9.610   5.125  0.5011 -0.6312  0.0625
  166MOL0     N22787   0.640   9.561   4.989  0.2418 -0.1826 -0.0506
  166MOL0     C22788   0.644   9.426   4.956 -0.2268  0.0372  0.0047
  166MOL0     C22789   0.712   9.410   4.847 -0.4263 -0.3494 -0.3705
  166MOL0     C22790   0.734   9.291   4.766  0.7713 -0.0961 -0.2687
  166MOL0     C22791   0.628   9.238   4.668  0.3074 -0.7765  0.4604
  166MOL0     C22792   0.681   9.216   4.525 -0.2825  0.0415  0.3212
  166MOL0     C22793   0.580   9.159   4.428 -0.2670 -0.3562 -0.7920
  166MOL0     O22794   0.476   9.253   4.391  0.0545 -0.3256  0.3646
  166MOL0     C22795   0.388   9.201   4.298  0.5949 -0.0705 -0.4506
  166MOL0     C22796   0.392   9.216   4.164  0.8727  0.7692 -0.3663
  166MOL0     C22797   0.284   9.176   4.080  0.4041 -0.7802 -1.0698
  166MOL0     C22798   0.312   9.205   3.936 -0.1169  0.6825 -1.2525
  166MOL0     C22799   0.172   9.116   4.135 -0.3639  0.1959  0.9859
  166MOL0     C22800   0.049   9.073   4.060 -0.3834 -0.3078  0.2249
  166MOL0     O22801  -0.050   9.027   4.136 -0.6394 -0.3976  0.2273
  166MOL0     C22802  -0.160   8.958   4.089 -1.0346  0.6530  0.1236
  166MOL0     C22803  -0.180   8.907   3.961 -0.9750 -0.7303 -0.5203
  166MOL0     C22804  -0.292   8.832   3.930  0.1069  0.1881  0.0467
  166MOL0     C22805  -0.393   8.809   4.028 -0.8193 -0.3468  0.7242
  166MOL0     O22806  -0.513   8.752   3.992  0.2210 -0.7478 -0.5164
  166MOL0     C22807  -0.608   8.716   4.096 -0.1985 -0.1096  0.5620
  166MOL0     C22808  -0.710   8.620   4.020  1.2323  0.0796 -0.2008
  166MOL0     C22809  -0.813   8.561   4.120  0.1502  0.7117 -0.2429
  166MOL0     C22810  -0.920   8.480   4.049  0.2179 -0.1773 -0.0231
  166MOL0     C22811  -1.026   8.555   3.969  0.6078  0.6058  0.2918
  166MOL0     C22812  -1.110   8.469   3.869  0.3768 -0.3439 -0.3627
  166MOL0     C22813  -1.221   8.554   3.809  0.7881 -0.3002 -0.3383
  166MOL0     C22814  -1.341   8.580   3.904 -0.1641 -0.6967  0.3348
  166MOL0    Cl22815  -1.468   8.454   3.912 -0.2986  0.1329  0.1827
  166MOL0     C22816  -0.369   8.861   4.156  0.4603  0.3025 -0.1836
  166MOL0     C22817  -0.257   8.935   4.182 -0.0810  0.8818  0.1544
  166MOL0     O22818   0.044   9.090   3.940  0.4614 -0.4188  0.9115
  166MOL0     C22819   0.171   9.098   4.273  0.5523 -0.3997  0.0817
  166MOL0     C22820   0.278   9.137   4.357  0.5055  0.6474 -0.5950
  166MOL0     N22821   0.750   9.533   4.809  0.2525 -0.3953  0.1315
  166MOL0     N22822   0.707   9.623   4.890 -0.1884  0.3571  0.8325
  166MOL0     C22823   0.453   9.791   5.937  0.6339 -0.2044 -0.5011
  166MOL0     C22824   0.498   9.878   6.040  0.4362 -0.0072  0.0694
  166MOL0     C22825   0.611  10.154   6.362  0.5248  0.2261 -0.3632
  166MOL0     C22826   0.509  10.247   6.361 -0.3932 -0.3477 -1.1240
  166MOL0     C22827   0.528  10.371   6.421  1.0252 -0.3611  0.1062
  166MOL0     C22828   0.649  10.403   6.491  0.7443  0.2779  0.4490
  166MOL0     O22829   0.684  10.521   6.554 -0.0719  0.9557  0.2523
  166MOL0     C22830   0.592  10.633   6.549 -0.2876  0.0462 -0.2012
  166MOL0     C22831   0.630  10.741   6.654  0.8965 -0.0057  0.0292
  166MOL0     C22832   0.772  10.790   6.650 -0.7074  0.0424 -0.3310
  166MOL0     C22833   0.811  10.853   6.784  0.3086 -0.3360  0.2270
  166MOL0     C22834   0.727  10.979   6.816 -0.0333  0.1559 -0.7194
  166MOL0     C22835   0.653  11.072   6.811  0.0314  1.0732  0.1135
  166MOL0     C22836   0.749  10.304   6.496 -0.2044 -0.7030 -0.4330
  166MOL0     C22837   0.731  10.181   6.430  0.1003 -0.2932  0.0486
  166MOL0     C22838   0.827  10.069   6.474  0.0985  0.2260 -0.2130
  166MOL0     H22839   0.218   9.932   6.209  0.4102 -0.6947  0.5494
  166MOL0     H22840   0.120   9.792   6.057  0.5556  1.9112  4.6831
  166MOL0     H22841   0.083   9.756   5.727  0.2398  0.0283 -0.5218
  166MOL0     H22842   0.066   9.639   5.863  0.2661  1.0124  0.5357
  166MOL0     H22843   0.186   9.456   5.727  0.8550 -0.3548 -2.3097
  166MOL0     H22844   0.017   9.512   5.684 -1.7523  3.7369 -0.8026
  166MOL0     H22845   0.158   9.455   5.505  2.8346 -0.9990 -0.4141
  166MOL0     H22846   0.109   9.620   5.487  0.6052 -0.6735 -0.7527
  166MOL0     H22847   0.319   9.711   5.543  0.6913  0.4357 -0.4858
  166MOL0     H22848   0.388   9.557   5.592  1.0636  3.6233  0.9805
  166MOL0     H22849   0.288   9.613   5.311 -3.6622 -2.6417  1.3700
  166MOL0     H22850   0.344   9.455   5.381 -1.6669  0.8085  0.9967
  166MOL0     H22851   0.521   9.698   5.339 -1.7058 -0.3877 -0.1861
  166MOL0     H22852   0.569   9.523   5.385  2.3187  0.7426 -0.5446
  166MOL0     H22853   0.420   9.646   5.147  1.0991  1.6738  1.4150
  166MOL0     H22854   0.465   9.469   5.168  1.1131  0.1010 -0.6360
  166MOL0     H22855   0.673   9.711   5.146 -0.2235 -0.4075  0.2641
  166MOL0     H22856   0.709   9.553   5.184  0.2368 -0.0151  1.0077
  166MOL0     H22857   0.607   9.342   5.013  3.5423 -0.7999  1.5440
  166MOL0     H22858   0.780   9.215   4.830  1.6289 -1.9703 -2.9352
  166MOL0     H22859   0.824   9.312   4.708  1.7822 -3.5362 -0.1766
  166MOL0     H22860   0.577   9.148   4.705 -0.7581 -0.2956  0.2221
  166MOL0     H22861   0.556   9.321   4.662  0.4605 -0.6014  1.0168
  166MOL0     H22862   0.708   9.316   4.489 -1.4721  0.3732  0.2831
  166MOL0     H22863   0.772   9.158   4.515 -0.0720  0.3486  0.4478
  166MOL0     H22864   0.630   9.134   4.334  1.1255  0.1926 -0.2359
  166MOL0     H22865   0.538   9.066   4.469 -0.3578 -0.7811 -1.8223
  166MOL0     H22866   0.475   9.278   4.132  0.7759  2.3742  2.2197
  166MOL0     H22867   0.225   9.253   3.890 -3.7637 -2.9839  1.1559
  166MOL0     H22868   0.325   9.116   3.873  0.5297 -0.8010  0.8821
  166MOL0     H22869   0.410   9.252   3.927 -0.8136  2.3584 -0.4770
  166MOL0     H22870  -0.105   8.923   3.884  1.5450 -1.6020  1.5799
  166MOL0     H22871  -0.309   8.787   3.833  2.4093 -2.4879  0.7572
  166MOL0     H22872  -0.558   8.667   4.181 -1.0286  0.7214  1.5610
  166MOL0     H22873  -0.644   8.813   4.132  2.4703  1.6512 -1.1065
  166MOL0     H22874  -0.757   8.683   3.945 -0.3692  1.5670  1.9345
  166MOL0     H22875  -0.668   8.537   3.962 -0.4159 -1.1670  0.3247
  166MOL0     H22876  -0.863   8.636   4.182 -1.2218 -1.2076  1.0761
  166MOL0     H22877  -0.756   8.492   4.183  1.5475 -0.2521 -2.4601
  166MOL0     H22878  -0.973   8.418   4.122  0.3552  0.9030  1.0308
  166MOL0     H22879  -0.862   8.408   3.991  3.6856  2.8388 -0.6529
  166MOL0     H22880  -1.095   8.602   4.039 -0.0152 -1.7282  1.3271
  166MOL0     H22881  -0.983   8.635   3.908 -1.3924  2.0010  0.6122
  166MOL0     H22882  -1.149   8.377   3.913  1.2983 -1.7496 -2.3537
  166MOL0     H22883  -1.042   8.447   3.786  2.6346  2.9777  0.3935
  166MOL0     H22884  -1.259   8.508   3.717 -2.7063  1.2698  0.1625
  166MOL0     H22885  -1.182   8.649   3.772 -2.5571  1.3263 -0.0738
  166MOL0     H22886  -1.392   8.662   3.852  2.3574  0.9148  0.2521
  166MOL0     H22887  -1.299   8.617   3.998  1.0637  0.4651 -0.6260
  166MOL0     H22888  -0.442   8.859   4.236  1.3765 -0.6939  0.6416
  166MOL0     H22889  -0.246   8.961   4.286 -1.3967 -4.0482  1.7931
  166MOL0     H22890   0.082   9.052   4.315 -1.9166  1.8648 -2.2701
  166MOL0     H22891   0.277   9.110   4.462 -0.7856  2.2052 -0.1539
  166MOL0     H22892   0.529   9.752   5.870  0.4728  0.8406 -1.3079
  166MOL0     H22893   0.603   9.905   6.036 -0.3347  3.2444 -1.1893
  166MOL0     H22894   0.415  10.230   6.310 -0.6028 -0.7166 -0.6307
  166MOL0     H22895   0.466  10.454   6.390  1.1735 -0.3638 -0.2023
  166MOL0     H22896   0.577  10.673   6.448 -0.7025  0.2931 -0.0435
  166MOL0     H22897   0.490  10.601   6.571 -0.3208 -0.3142 -0.8620
  166MOL0     H22898   0.606  10.705   6.755  5.0710  1.7982  1.9474
  166MOL0     H22899   0.560  10.824   6.637  0.7231 -0.6495 -2.9533
  166MOL0     H22900   0.840  10.709   6.625 -0.9291 -0.3428  0.2990
  166MOL0     H22901   0.785  10.867   6.573 -0.3543 -0.1899 -0.5051
  166MOL0     H22902   0.918  10.872   6.796  0.0476  2.2227 -0.7555
  166MOL0     H22903   0.782  10.774   6.854 -1.7273 -1.1136 -1.3902
  166MOL0     H22904   0.580  11.151   6.812  0.9527  1.9476  1.5706
  166MOL0     H22905   0.842  10.336   6.541  0.1002  1.5635 -2.4625
  166MOL0     H22906   0.765  10.004   6.537  1.8751 -2.9062 -1.5093
  166MOL0     H22907   0.863  10.027   6.380 -4.6793 -0.1461 -2.1787
  166MOL0     H22908   0.911  10.107   6.532  0.5622 -2.1697  0.7896
  167MOL0     O22909   2.501   0.770   5.698 -0.0950 -0.1655  0.0498
  167MOL0     C22910   2.490   0.891   5.714  0.5469  0.8219  0.9370
  167MOL0     O22911   2.393   0.965   5.647 -0.5861 -0.3691  0.2009
  167MOL0     C22912   2.323   0.912   5.544 -0.4796  0.4424  0.1120
  167MOL0     C22913   2.184   0.922   5.531  0.8617  0.3484 -0.3906
  167MOL0     C22914   2.113   0.881   5.411  0.9187 -0.3236 -1.5270
  167MOL0     C22915   2.183   0.808   5.316  0.1255  0.2717  0.3783
  167MOL0     O22916   2.110   0.773   5.202 -0.1922 -0.2475  0.3969
  167MOL0     C22917   2.113   0.628   5.192 -0.0306 -0.3275  0.0130
  167MOL0     C22918   1.968   0.578   5.187 -0.3045  0.5824 -0.5501
  167MOL0     C22919   1.984   0.430   5.158 -0.1116  0.4424 -0.2781
  167MOL0     C22920   1.873   0.352   5.223 -0.3797 -0.3322  0.2424
  167MOL0     C22921   1.853   0.218   5.173  0.0130  0.0007  0.0339
  167MOL0     C22922   1.978   0.136   5.130 -0.0401  0.3777 -0.7020
  167MOL0     C22923   1.962  -0.018   5.147 -0.0290  0.4750 -0.4034
  167MOL0     C22924   2.095  -0.093   5.100 -0.7414 -0.1684  0.7487
  167MOL0     N22925   2.077  -0.236   5.091  0.2236 -0.4059 -0.0198
  167MOL0     C22926   2.044  -0.307   5.203  0.7326  0.2492  0.0816
  167MOL0     C22927   2.006  -0.426   5.143  0.1493  0.3564 -1.0278
  167MOL0     C22928   1.968  -0.541   5.231  0.8177 -0.0996  0.6678
  167MOL0     C22929   1.991  -0.676   5.165  0.3099 -0.6277  0.0086
  167MOL0     C22930   1.877  -0.759   5.106 -0.5366  0.7054  0.1709
  167MOL0     C22931   1.748  -0.741   5.172  0.3467  0.2956  0.6228
  167MOL0     O22932   1.765  -0.774   5.311  0.3876  0.7580  0.8581
  167MOL0     C22933   1.688  -0.713   5.402 -0.0728  1.1514  0.6484
  167MOL0     C22934   1.552  -0.700   5.390  1.3229 -0.4275 -0.7382
  167MOL0     C22935   1.473  -0.645   5.500 -0.4420 -0.4600 -1.4399
  167MOL0     C22936   1.329  -0.647   5.475 -0.0856  0.6971 -0.5714
  167MOL0     C22937   1.536  -0.611   5.624  0.3762  0.0815 -0.5959
  167MOL0     C22938   1.468  -0.568   5.754 -0.1442 -0.4028  0.4616
  167MOL0     O22939   1.542  -0.557   5.863 -0.1125  1.1157  0.5855
  167MOL0     C22940   1.481  -0.575   5.986  0.1874 -0.2918  0.4148
  167MOL0     C22941   1.473  -0.700   6.050  0.0697 -0.1575 -0.7475
  167MOL0     C22942   1.425  -0.696   6.182 -0.2562 -0.4686  1.1010
  167MOL0     C22943   1.366  -0.581   6.241  0.6682  0.5246  0.4285
  167MOL0     O22944   1.312  -0.596   6.364  1.4436  0.6432  0.0385
  167MOL0     C22945   1.215  -0.495   6.405  1.0473  0.6505  0.5958
  167MOL0     C22946   1.127  -0.550   6.518 -0.1128 -0.2373 -0.2901
  167MOL0     C22947   1.038  -0.436   6.566  0.0641  0.0474  0.2187
  167MOL0     C22948   1.118  -0.339   6.654  1.1357  0.8341  0.1302
  167MOL0     C22949   1.029  -0.224   6.695 -0.1231 -0.7371 -0.5677
  167MOL0     C22950   0.954  -0.253   6.827 -0.0123 -0.4218  0.1435
  167MOL0     C22951   0.826  -0.169   6.840  0.5242 -0.3502 -0.3256
  167MOL0     C22952   0.747  -0.205   6.960 -0.5818 -0.2469 -0.4147
  167MOL0    Cl22953   0.598  -0.110   6.956  0.6774 -0.1488 -0.3644
  167MOL0     C22954   1.379  -0.461   6.170 -0.8865  0.2713 -0.4042
  167MOL0     C22955   1.437  -0.454   6.041  0.3366 -0.1624 -0.6810
  167MOL0     O22956   1.346  -0.555   5.754  0.0110 -0.1808  0.6288
  167MOL0     C22957   1.676  -0.622   5.621 -0.7365 -0.2107  1.0823
  167MOL0     C22958   1.756  -0.664   5.515 -0.5373 -0.1123 -0.9345
  167MOL0     N22959   2.023  -0.421   5.003  0.0707 -0.3531  0.3519
  167MOL0     N22960   2.086  -0.312   4.973 -0.7700 -0.5135 -0.2698
  167MOL0     C22961   2.325   0.798   5.318  0.6101  0.4264 -0.0376
  167MOL0     C22962   2.389   0.849   5.426 -0.6719  0.6566 -1.1048
  167MOL0     C22963   2.582   0.987   5.788  0.0966  0.4820  0.3567
  167MOL0     C22964   2.526   1.100   5.854 -0.3037 -0.6129  0.6102
  167MOL0     C22965   2.603   1.190   5.928 -0.0922 -0.9197  0.2292
  167MOL0     C22966   2.740   1.168   5.945 -0.2537 -0.7912 -0.6362
  167MOL0     O22967   2.815   1.265   6.012  0.5333 -0.5034 -0.4860
  167MOL0     C22968   2.862   1.229   6.145  0.8995 -0.1787  0.5397
  167MOL0     C22969   2.809   1.332   6.239  0.7097 -0.1363  0.4133
  167MOL0     C22970   2.898   1.334   6.367 -0.1663 -0.4773 -0.5271
  167MOL0     C22971   2.817   1.384   6.483  0.2579 -0.4127  0.5258
  167MOL0     C22972   2.868   1.353   6.605  0.4371  0.2480 -0.4305
  167MOL0     C22973   2.896   1.289   6.711 -0.3403  0.3671 -0.3549
  167MOL0     C22974   2.797   1.056   5.885  0.5619  0.4364  0.2116
  167MOL0     C22975   2.720   0.969   5.801 -0.1536 -0.7646  0.8066
  167MOL0     C22976   2.791   0.849   5.753  0.1565  0.4431  0.5693
  167MOL0     H22977   2.134   0.981   5.606 -0.2988 -1.7734  0.5858
  167MOL0     H22978   2.007   0.896   5.392  1.2213 -0.5191 -3.6567
  167MOL0     H22979   2.158   0.578   5.278 -0.2351 -3.6977 -1.6464
  167MOL0     H22980   2.173   0.595   5.107  3.4203 -0.4686  2.3079
  167MOL0     H22981   1.930   0.584   5.290  1.0918  0.1052  0.0216
  167MOL0     H22982   1.899   0.632   5.122  0.7317  1.1718 -1.1715
  167MOL0     H22983   1.996   0.408   5.051  2.1894  0.2800 -0.0476
  167MOL0     H22984   2.076   0.388   5.200 -0.0587  0.7645 -0.0625
  167MOL0     H22985   1.887   0.351   5.331 -1.8100  0.9370  0.4758
  167MOL0     H22986   1.778   0.400   5.196 -1.6711 -3.2909 -0.8487
  167MOL0     H22987   1.777   0.215   5.094  0.4543 -5.9923 -0.6797
  167MOL0     H22988   1.811   0.158   5.255  3.7342 -1.0281  1.3978
  167MOL0     H22989   1.993   0.153   5.023  0.2256  0.9292 -0.5803
  167MOL0     H22990   2.070   0.168   5.180 -0.4729 -0.6778  0.8430
  167MOL0     H22991   1.876  -0.058   5.092  1.6476 -4.2339 -0.0382
  167MOL0     H22992   1.945  -0.031   5.255  1.1149  1.9896  0.0026
  167MOL0     H22993   2.106  -0.060   4.996  1.0506  1.5050  1.3992
  167MOL0     H22994   2.183  -0.073   5.162  1.9123 -2.1757 -2.0686
  167MOL0     H22995   2.043  -0.287   5.309 -0.3359 -0.7327  0.2809
  167MOL0     H22996   1.863  -0.529   5.259  0.9824 -0.1901  1.3467
  167MOL0     H22997   2.031  -0.542   5.320 -0.3463 -1.2666  1.5177
  167MOL0     H22998   2.073  -0.658   5.094 -0.8162  1.8821 -0.7708
  167MOL0     H22999   2.030  -0.739   5.245  2.6579 -2.2510 -2.2326
  167MOL0     H23000   1.872  -0.728   5.002  1.1038 -1.5051 -0.6480
  167MOL0     H23001   1.901  -0.866   5.104  0.9186  0.9989  0.7453
  167MOL0     H23002   1.706  -0.641   5.162 -1.3004 -0.4915 -0.8264
  167MOL0     H23003   1.673  -0.807   5.127  1.6596 -1.7619  1.2769
  167MOL0     H23004   1.506  -0.743   5.302  0.4789 -0.2554 -0.3973
  167MOL0     H23005   1.282  -0.693   5.562  1.5049  2.5270  1.3780
  167MOL0     H23006   1.296  -0.701   5.386 -4.1190 -1.1993  1.7699
  167MOL0     H23007   1.290  -0.545   5.467 -0.9565  0.7507  2.8503
  167MOL0     H23008   1.505  -0.794   6.009  0.3050 -1.2101  1.6753
  167MOL0     H23009   1.406  -0.797   6.214 -0.0119 -1.9983 -2.9068
  167MOL0     H23010   1.274  -0.411   6.441  0.4873  0.8966  0.9561
  167MOL0     H23011   1.147  -0.459   6.327 -0.7870 -1.2960  1.1932
  167MOL0     H23012   1.066  -0.634   6.484 -1.0255 -0.5496  1.9325
  167MOL0     H23013   1.191  -0.592   6.596 -0.7730  1.8434  1.4832
  167MOL0     H23014   0.958  -0.475   6.631 -2.6475  3.8236 -0.4699
  167MOL0     H23015   0.978  -0.384   6.491  1.5010  1.4807  0.0026
  167MOL0     H23016   1.203  -0.304   6.594  1.3644 -0.4413 -0.3129
  167MOL0     H23017   1.157  -0.399   6.736  0.8200 -1.9756 -1.6527
  167MOL0     H23018   1.082  -0.130   6.711 -0.6308 -0.4852 -0.3222
  167MOL0     H23019   0.939  -0.217   6.632 -4.0102  2.0619  4.4598
  167MOL0     H23020   1.020  -0.220   6.908 -0.1277 -0.3228  0.1964
  167MOL0     H23021   0.936  -0.360   6.844 -0.6516 -0.2154  0.7823
  167MOL0     H23022   0.768  -0.183   6.748 -0.9548  0.7398  0.4144
  167MOL0     H23023   0.854  -0.065   6.856 -0.4051 -0.5294  3.0689
  167MOL0     H23024   0.808  -0.181   7.048  1.3567 -3.1220 -0.8085
  167MOL0     H23025   0.730  -0.313   6.963 -0.9019 -0.1675  0.9223
  167MOL0     H23026   1.339  -0.373   6.218  1.8399  1.9247 -0.9338
  167MOL0     H23027   1.453  -0.363   5.983  0.7601 -0.6767 -1.3911
  167MOL0     H23028   1.730  -0.591   5.710 -0.2095  1.5959  0.1851
  167MOL0     H23029   1.861  -0.681   5.533 -0.6153 -0.1131 -0.4816
  167MOL0     H23030   2.386   0.749   5.243  1.5337  2.5857 -0.7898
  167MOL0     H23031   2.493   0.821   5.440 -1.3304 -2.2057 -1.1884
  167MOL0     H23032   2.420   1.126   5.851 -0.3980 -0.5574 -4.6615
  167MOL0     H23033   2.545   1.271   5.971 -1.4705  0.3726 -3.6447
  167MOL0     H23034   2.842   1.124   6.169  0.3343  0.1778  1.6745
  167MOL0     H23035   2.970   1.240   6.133  0.6053  0.6176 -2.1033
  167MOL0     H23036   2.703   1.311   6.258 -0.2626  1.7307 -2.2953
  167MOL0     H23037   2.817   1.426   6.184  1.7914  0.4914  1.6009
  167MOL0     H23038   2.953   1.242   6.387  1.5864  0.6976  0.2906
  167MOL0     H23039   2.983   1.400   6.347  0.2212 -0.4852  1.0005
  167MOL0     H23040   2.718   1.338   6.468  1.2411 -1.9116 -2.0279
  167MOL0     H23041   2.797   1.491   6.473 -0.5627 -0.7055 -1.6034
  167MOL0     H23042   2.913   1.230   6.798 -3.4396 -0.2059 -0.0352
  167MOL0     H23043   2.902   1.032   5.903 -0.4056 -1.9837  3.4616
  167MOL0     H23044   2.767   0.824   5.650 -0.9730 -0.6511  1.0761
  167MOL0     H23045   2.898   0.873   5.745  0.3622 -0.8613 -1.0867
  167MOL0     H23046   2.767   0.765   5.819 -1.4570 -0.4514 -1.0787
  168MOL0     O23047   7.342  10.066   9.344 -1.3823  0.3458  1.1057
  168MOL0     C23048   7.250  10.112   9.277 -0.1071 -0.4472 -0.4092
  168MOL0     O23049   7.136  10.042   9.239 -0.9627 -0.3610  0.7131
  168MOL0     C23050   7.086   9.940   9.317 -0.2392  0.1443 -0.5675
  168MOL0     C23051   7.065   9.961   9.452 -0.0535  0.0794 -0.2494
  168MOL0     C23052   7.051   9.858   9.546  0.3419 -1.1067  1.0310
  168MOL0     C23053   7.031   9.728   9.496 -0.0633 -0.3100  0.4642
  168MOL0     O23054   7.027   9.617   9.571  0.1727  0.3425 -0.0142
  168MOL0     C23055   6.983   9.637   9.705  0.5690 -0.3402 -1.0328
  168MOL0     C23056   6.922   9.506   9.758  0.6874  0.7033 -0.3006
  168MOL0     C23057   7.010   9.382   9.773  0.0745  0.7295 -0.4767
  168MOL0     C23058   6.939   9.286   9.864  0.4925  0.3435  0.1640
  168MOL0     C23059   6.962   9.134   9.842 -0.5518  0.1144  0.0082
  168MOL0     C23060   7.102   9.076   9.885 -0.8126  0.3531 -0.1567
  168MOL0     C23061   7.098   8.922   9.883  0.1161 -0.4876 -0.2467
  168MOL0     C23062   7.225   8.878   9.964  0.6178 -0.4840  0.2111
  168MOL0     N23063   7.226   8.740   9.988  0.1522  1.0697  0.1114
  168MOL0     C23064   7.186   8.634   9.903  0.6197  0.4548 -0.1558
  168MOL0     C23065   7.172   8.522   9.986 -0.3357  0.7445 -0.6282
  168MOL0     C23066   7.119   8.381   9.963 -0.5722  0.5577 -0.1151
  168MOL0     C23067   7.211   8.281  10.019  0.2030 -0.3826  1.1850
  168MOL0     C23068   7.167   8.137  10.001  0.1503  0.2852 -0.0748
  168MOL0     C23069   7.219   8.067   9.872 -0.2059  0.4513  1.2106
  168MOL0     O23070   7.360   8.059   9.887 -0.0923 -0.6748  0.7980
  168MOL0     C23071   7.424   7.973   9.803  0.4613  0.2158 -0.1121
  168MOL0     C23072   7.563   7.961   9.793 -0.0090  0.2780  1.1579
  168MOL0     C23073   7.634   7.878   9.710 -0.1904  0.0846  0.4427
  168MOL0     C23074   7.779   7.885   9.702 -0.7374  0.7193 -0.2066
  168MOL0     C23075   7.558   7.794   9.621 -0.0626  0.8851  0.2751
  168MOL0     C23076   7.617   7.698   9.523 -0.4637 -1.2604  0.0524
  168MOL0     O23077   7.733   7.646   9.551  0.1840  0.3281  0.2299
  168MOL0     C23078   7.811   7.562   9.471 -0.7510 -0.1033  0.2861
  168MOL0     C23079   7.792   7.544   9.334 -0.3625  0.2566  0.1757
  168MOL0     C23080   7.870   7.445   9.271  0.5250  0.8105  1.3663
  168MOL0     C23081   7.977   7.380   9.334  0.1547  0.4412  0.9267
  168MOL0     O23082   8.069   7.308   9.260 -0.9236  0.6403 -1.1885
  168MOL0     C23083   8.014   7.220   9.152 -0.1274 -0.0344 -1.2108
  168MOL0     C23084   8.124   7.158   9.069  0.4285 -0.3123  0.1018
  168MOL0     C23085   8.228   7.256   9.025 -0.2080  0.2359 -0.4986
  168MOL0     C23086   8.314   7.196   8.920 -0.0868 -0.5026 -0.4063
  168MOL0     C23087   8.421   7.298   8.866 -0.5562 -0.5093  0.7714
  168MOL0     C23088   8.514   7.241   8.751 -0.6109 -0.0541 -0.2914
  168MOL0     C23089   8.626   7.339   8.713  0.7344 -0.7027  0.7859
  168MOL0     C23090   8.716   7.286   8.611  0.0125 -0.2251 -0.5499
  168MOL0    Cl23091   8.659   7.314   8.447 -0.0023  0.1579 -0.6217
  168MOL0     C23092   8.005   7.418   9.468  0.2607  0.3917 -0.4023
  168MOL0     C23093   7.917   7.495   9.546  1.2211  0.1472 -0.1080
  168MOL0     O23094   7.562   7.700   9.413  0.0031 -0.0230 -0.1077
  168MOL0     C23095   7.421   7.796   9.627 -0.9603 -0.1344  1.3442
  168MOL0     C23096   7.361   7.887   9.708 -0.0020  0.0475 -0.2231
  168MOL0     N23097   7.195   8.566  10.115 -0.8146  0.0731 -0.9309
  168MOL0     N23098   7.221   8.689  10.110 -0.3293  0.1899 -0.8773
  168MOL0     C23099   7.043   9.710   9.356 -0.9277 -0.1262 -0.7750
  168MOL0     C23100   7.069   9.815   9.264  0.0803  0.1194  0.0613
  168MOL0     C23101   7.271  10.256   9.219 -0.7433 -1.2199  0.4960
  168MOL0     C23102   7.186  10.302   9.125 -0.6315  0.1766 -0.1530
  168MOL0     C23103   7.188  10.433   9.064  0.4098  0.2797  0.4422
  168MOL0     C23104   7.287  10.521   9.117  0.2929 -0.7125 -0.9406
  168MOL0     O23105   7.298  10.651   9.085  0.0395 -0.5100 -0.0398
  168MOL0     C23106   7.207  10.707   8.984 -0.2498 -0.7389  0.0627
  168MOL0     C23107   7.213  10.859   8.994 -0.3211 -1.2618 -0.4630
  168MOL0     C23108   7.155  10.919   9.123 -0.2996  0.8011  0.1185
  168MOL0     C23109   7.133  11.076   9.107 -0.5973  0.3514 -0.5686
  168MOL0     C23110   7.249  11.160   9.081 -0.2737 -0.0047  0.9241
  168MOL0     C23111   7.345  11.228   9.054  0.7678 -0.7133  0.5227
  168MOL0     C23112   7.369  10.478   9.225 -0.4622  0.6251 -0.3157
  168MOL0     C23113   7.374  10.343   9.270 -1.4739 -0.4585 -0.2417
  168MOL0     C23114   7.498  10.311   9.368  0.5181  1.0369  0.3522
  168MOL0     H23115   7.081  10.060   9.493 -0.4129  0.0635 -0.0694
  168MOL0     H23116   7.041   9.881   9.652  1.4487 -2.3390  1.4287
  168MOL0     H23117   6.905   9.712   9.712  0.6752 -0.3886  1.6952
  168MOL0     H23118   7.066   9.680   9.762 -1.9162  1.1530  1.7035
  168MOL0     H23119   6.873   9.530   9.853  0.2556  0.4261 -0.4473
  168MOL0     H23120   6.841   9.480   9.688 -1.5944  0.2011  2.3411
  168MOL0     H23121   7.002   9.338   9.674  0.2396 -1.9671  0.6204
  168MOL0     H23122   7.110   9.406   9.811 -0.6766 -0.0787  2.2457
  168MOL0     H23123   6.979   9.293   9.965  2.0045  1.1876 -0.4679
  168MOL0     H23124   6.831   9.308   9.863 -0.4909 -3.6811 -0.6849
  168MOL0     H23125   6.944   9.099   9.740 -0.1320 -2.6737  0.8006
  168MOL0     H23126   6.885   9.089   9.905  1.5962 -0.7972  2.1623
  168MOL0     H23127   7.183   9.111   9.820 -0.9764  1.5079  0.2443
  168MOL0     H23128   7.125   9.110   9.986 -1.5505  0.5376 -0.0514
  168MOL0     H23129   7.103   8.895   9.777 -0.2697  2.5052 -1.1171
  168MOL0     H23130   7.003   8.907   9.935  0.0509 -0.0975 -0.2541
  168MOL0     H23131   7.312   8.928   9.921 -0.5687  0.4122 -1.2686
  168MOL0     H23132   7.222   8.926  10.062 -2.4148  0.5405 -0.2652
  168MOL0     H23133   7.168   8.630   9.796 -1.0451 -3.6376  0.0822
  168MOL0     H23134   7.111   8.363   9.856 -0.8243  0.1220 -0.0255
  168MOL0     H23135   7.024   8.370  10.017 -0.1704  0.8851  0.6866
  168MOL0     H23136   7.312   8.294   9.978 -1.1774  2.2674 -1.7405
  168MOL0     H23137   7.210   8.294  10.128 -2.1084 -2.4458  1.5195
  168MOL0     H23138   7.197   8.076  10.087 -0.9314 -0.0594  0.0715
  168MOL0     H23139   7.059   8.126   9.985  0.3593 -2.2168 -0.1508
  168MOL0     H23140   7.186   7.964   9.860  2.6559 -0.3047 -1.4037
  168MOL0     H23141   7.193   8.115   9.777 -3.2714 -3.5974 -0.2701
  168MOL0     H23142   7.611   8.034   9.858 -0.3958  2.5065 -0.9095
  168MOL0     H23143   7.806   7.914   9.600  1.9292  0.3855  0.3528
  168MOL0     H23144   7.828   7.788   9.712  0.0211  1.1427  0.2302
  168MOL0     H23145   7.826   7.958   9.769  2.2659  0.1550 -1.5708
  168MOL0     H23146   7.717   7.602   9.281 -1.2232  0.2205  1.3127
  168MOL0     H23147   7.859   7.442   9.163 -1.3600  0.9417  1.5255
  168MOL0     H23148   7.959   7.140   9.202  0.6604 -0.5729 -1.1916
  168MOL0     H23149   7.950   7.280   9.087 -0.1688 -0.1577 -1.2841
  168MOL0     H23150   8.165   7.077   9.129  0.3995  1.1530  2.2105
  168MOL0     H23151   8.073   7.114   8.982  0.3447  0.6050 -0.3286
  168MOL0     H23152   8.285   7.284   9.114  2.8906 -0.2918 -2.2083
  168MOL0     H23153   8.181   7.345   8.981 -1.1796  0.8408  1.6025
  168MOL0     H23154   8.255   7.155   8.837 -1.9848 -1.0487  1.1318
  168MOL0     H23155   8.377   7.117   8.963  0.9989  0.9916  0.8788
  168MOL0     H23156   8.366   7.383   8.824  1.0835 -0.6308 -1.8821
  168MOL0     H23157   8.481   7.331   8.952  2.2421  0.7069 -1.4697
  168MOL0     H23158   8.464   7.210   8.659  1.1950 -1.3851 -0.8825
  168MOL0     H23159   8.562   7.152   8.791 -0.7123 -0.4318 -0.9993
  168MOL0     H23160   8.682   7.379   8.798 -0.9737  0.8102  1.2838
  168MOL0     H23161   8.576   7.432   8.683  1.2793 -0.0419  1.8406
  168MOL0     H23162   8.741   7.182   8.634 -1.2885 -0.5648 -0.5495
  168MOL0     H23163   8.807   7.346   8.611  0.7820 -1.3323 -1.8961
  168MOL0     H23164   8.093   7.387   9.523  0.3003  2.0095  0.5032
  168MOL0     H23165   7.943   7.516   9.649 -1.9873 -0.5659  0.9689
  168MOL0     H23166   7.366   7.721   9.571  0.8256 -1.2812  1.0471
  168MOL0     H23167   7.255   7.887   9.685 -0.4839 -2.4646  1.6013
  168MOL0     H23168   7.037   9.606   9.327  1.7775 -1.0263  1.5031
  168MOL0     H23169   7.095   9.798   9.160  0.7011 -0.0286  0.2365
  168MOL0     H23170   7.107  10.239   9.086  0.0543 -0.9702  0.2905
  168MOL0     H23171   7.112  10.460   8.991  1.3131  1.7735  0.0176
  168MOL0     H23172   7.251  10.686   8.887 -1.8429  1.0841 -1.1394
  168MOL0     H23173   7.102  10.676   8.987  0.1274 -1.9863  2.1757
  168MOL0     H23174   7.156  10.907   8.914  0.0894  0.6879  0.3416
  168MOL0     H23175   7.318  10.887   8.981  0.3282  0.5977  5.5193
  168MOL0     H23176   7.056  10.877   9.140  0.4525 -0.2713  2.2887
  168MOL0     H23177   7.229  10.900   9.202  1.3822  0.9883 -1.3450
  168MOL0     H23178   7.074  11.124   9.185 -0.2498  1.2222 -0.8313
  168MOL0     H23179   7.064  11.082   9.022 -1.2315 -1.4726 -0.2314
  168MOL0     H23180   7.424  11.288   9.013  2.2230 -1.9689  1.4006
  168MOL0     H23181   7.460  10.536   9.236 -2.1578  3.4811 -0.2700
  168MOL0     H23182   7.574  10.250   9.318 -0.8874  0.3395 -0.9992
  168MOL0     H23183   7.547  10.395   9.419  0.9100  0.0597  1.6452
  168MOL0     H23184   7.453  10.249   9.446 -0.1481 -0.5556 -1.2457
  169MOL0     O23185   1.687  10.876  10.192 -1.5155 -0.2908 -0.2410
  169MOL0     C23186   1.612  10.834  10.109 -0.4468  0.1120  0.2547
  169MOL0     O23187   1.639  10.722  10.034 -0.2669 -0.2355  0.1094
  169MOL0     C23188   1.716  10.623  10.099  0.5588 -0.2029  0.6636
  169MOL0     C23189   1.668  10.541  10.203  0.5972 -0.0882  0.6142
  169MOL0     C23190   1.756  10.446  10.254  0.3966  0.0018 -0.0744
  169MOL0     C23191   1.877  10.423  10.203  0.1790 -0.0178 -0.1724
  169MOL0     O23192   1.943  10.307  10.256  0.3776 -0.6229  0.1677
  169MOL0     C23193   2.083  10.300  10.263 -0.1247 -0.1008  0.0350
  169MOL0     C23194   2.103  10.229  10.392  0.4578 -0.1288 -0.2380
  169MOL0     C23195   2.058  10.079  10.390 -0.4923 -0.7242  0.5041
  169MOL0     C23196   2.151   9.988  10.313 -0.0837 -0.1420  0.7987
  169MOL0     C23197   2.114   9.846  10.326 -0.6782 -0.3176 -0.0404
  169MOL0     C23198   1.974   9.791  10.282 -0.2382  1.3974 -0.6335
  169MOL0     C23199   1.964   9.633  10.303 -0.3073  0.3110 -0.0947
  169MOL0     C23200   1.829   9.570  10.258 -1.2655  0.6522 -0.7293
  169MOL0     N23201   1.817   9.569  10.106 -0.7862  0.2407 -0.2903
  169MOL0     C23202   1.831   9.680  10.028 -0.1232 -0.0103 -0.0282
  169MOL0     C23203   1.888   9.625   9.916 -0.5136  0.5031 -0.7887
  169MOL0     C23204   1.941   9.708   9.799 -0.1119 -0.6107  1.0469
  169MOL0     C23205   1.846   9.754   9.692 -0.4715 -0.8681 -0.6324
  169MOL0     C23206   1.704   9.823   9.720  0.4702  0.1256 -1.9989
  169MOL0     C23207   1.617   9.875   9.606 -0.1458 -0.6109 -0.8143
  169MOL0     O23208   1.490   9.943   9.646  0.6330  0.1826  0.4451
  169MOL0     C23209   1.448  10.045   9.560  0.5534  0.1150 -0.6878
  169MOL0     C23210   1.320  10.091   9.579 -0.5096 -0.9426  0.5008
  169MOL0     C23211   1.245  10.187   9.507  0.2279 -0.4916 -0.0497
  169MOL0     C23212   1.097  10.219   9.554 -0.5333  0.1883 -0.5389
  169MOL0     C23213   1.315  10.258   9.403 -0.7818 -0.5104  0.1997
  169MOL0     C23214   1.253  10.358   9.317  0.3326 -0.3278 -0.4585
  169MOL0     O23215   1.142  10.432   9.362  0.2549  0.2983  0.0284
  169MOL0     C23216   1.083  10.512   9.271 -0.4473 -0.7532 -0.3346
  169MOL0     C23217   1.146  10.616   9.210  0.3716 -0.6337  0.4602
  169MOL0     C23218   1.078  10.691   9.115 -0.6466 -0.3878  1.3732
  169MOL0     C23219   0.946  10.666   9.086  1.2779  0.1766 -0.3308
  169MOL0     O23220   0.865  10.745   9.006 -0.2803 -0.2515  0.2219
  169MOL0     C23221   0.927  10.849   8.926  0.9580  0.7910  0.5246
  169MOL0     C23222   0.801  10.928   8.895  0.5641  0.7422 -0.4239
  169MOL0     C23223   0.854  11.055   8.812  0.4514  0.4798 -0.5713
  169MOL0     C23224   0.737  11.133   8.752  0.5960 -0.8051  0.5310
  169MOL0     C23225   0.774  11.273   8.688  0.1803  0.2824  0.3168
  169MOL0     C23226   0.815  11.370   8.797  0.0524 -0.7074 -0.8476
  169MOL0     C23227   0.850  11.513   8.748 -0.1210  0.1292  0.3604
  169MOL0     C23228   0.900  11.609   8.861 -0.1755  0.1362  0.3817
  169MOL0    Cl23229   0.918  11.777   8.812 -0.0161 -0.4043  0.0973
  169MOL0     C23230   0.882  10.556   9.142  0.6086  0.8638  0.0846
  169MOL0     C23231   0.951  10.484   9.236  1.1729 -0.0747  0.7766
  169MOL0     O23232   1.297  10.358   9.199 -0.1791 -0.6447 -0.4429
  169MOL0     C23233   1.451  10.214   9.381 -0.4392 -0.1823  0.3340
  169MOL0     C23234   1.515  10.110   9.454  0.4666  0.7238 -0.3408
  169MOL0     N23235   1.905   9.492   9.925  0.6165  0.3912  0.1810
  169MOL0     N23236   1.874   9.463  10.039 -0.1843  0.1505 -1.1987
  169MOL0     C23237   1.932  10.496  10.093  0.6827  0.3285 -0.0768
  169MOL0     C23238   1.845  10.603  10.044  1.0738  0.7312  0.8616
  169MOL0     C23239   1.509  10.919  10.067  0.4153 -0.5057  0.0137
  169MOL0     C23240   1.482  10.929   9.928 -0.4102 -0.6591  0.5570
  169MOL0     C23241   1.381  11.000   9.870 -0.1482 -0.3248 -0.1522
  169MOL0     C23242   1.307  11.072   9.952 -0.5452  0.1821  0.2660
  169MOL0     O23243   1.201  11.148   9.914 -1.0588 -0.2515 -0.4346
  169MOL0     C23244   1.165  11.198   9.785 -0.1634 -0.7099 -0.4873
  169MOL0     C23245   1.227  11.335   9.753 -0.3458  0.6263 -1.2340
  169MOL0     C23246   1.151  11.452   9.814 -0.1039  0.1539  0.4058
  169MOL0     C23247   1.162  11.451   9.967  0.4460 -0.0951  0.1663
  169MOL0     C23248   1.064  11.532  10.030 -0.1447 -0.4999  0.4727
  169MOL0     C23249   0.986  11.606  10.094 -0.0157 -0.2826  0.1473
  169MOL0     C23250   1.330  11.068  10.087 -0.3571  0.1615 -0.0290
  169MOL0     C23251   1.424  10.990  10.150  0.7923 -0.2162  0.7742
  169MOL0     C23252   1.423  10.991  10.296 -0.6208 -0.6065 -0.0168
  169MOL0     H23253   1.567  10.544  10.243  0.1944 -1.4712 -0.2405
  169MOL0     H23254   1.717  10.383  10.333 -1.6365  1.8582  0.4904
  169MOL0     H23255   2.128  10.399  10.271 -0.7313  0.2870 -1.0720
  169MOL0     H23256   2.133  10.242  10.184  2.0427  1.5928  0.0564
  169MOL0     H23257   2.209  10.246  10.414  1.3155 -4.0703 -0.5023
  169MOL0     H23258   2.033  10.268  10.467 -0.7162  1.2310 -1.9550
  169MOL0     H23259   2.038  10.041  10.491  0.6323 -3.3218 -0.1762
  169MOL0     H23260   1.961  10.072  10.342  0.3656  1.9088 -1.8696
  169MOL0     H23261   2.143  10.016  10.208  0.3190 -0.1371  0.7678
  169MOL0     H23262   2.249  10.005  10.360 -1.2104 -0.0461  3.2943
  169MOL0     H23263   2.122   9.823  10.433  4.5484 -2.1487 -0.5279
  169MOL0     H23264   2.200   9.793  10.283 -0.7788 -0.3775 -0.1692
  169MOL0     H23265   1.899   9.840  10.345 -0.1281  1.3781 -0.4882
  169MOL0     H23266   1.951   9.829  10.182 -0.8729  1.2003 -0.5703
  169MOL0     H23267   1.981   9.620  10.410 -1.2984  2.9616  0.4594
  169MOL0     H23268   2.045   9.583  10.249 -0.0704  0.2200  0.3398
  169MOL0     H23269   1.824   9.467  10.294  0.9855  0.6271 -0.3303
  169MOL0     H23270   1.746   9.620  10.309 -0.9529 -0.5284  1.0103
  169MOL0     H23271   1.812   9.786  10.036 -1.4617 -0.3583  2.4010
  169MOL0     H23272   2.026   9.660   9.751  0.1872  0.3767  0.5693
  169MOL0     H23273   1.984   9.797   9.846  1.0743 -1.0812  0.8842
  169MOL0     H23274   1.901   9.818   9.622 -1.0938  0.3921  0.0096
  169MOL0     H23275   1.823   9.665   9.632  1.2226 -1.5693 -0.3208
  169MOL0     H23276   1.642   9.754   9.780  1.4576 -2.1297 -3.4254
  169MOL0     H23277   1.722   9.899   9.796 -0.2813 -0.4312 -1.2421
  169MOL0     H23278   1.679   9.945   9.549 -1.2215  0.8391 -0.2605
  169MOL0     H23279   1.581   9.784   9.557  1.1780 -1.6981  0.1613
  169MOL0     H23280   1.267  10.044   9.661  0.7957 -2.9088  0.2953
  169MOL0     H23281   1.064  10.124   9.595 -0.8614  1.2871  1.9321
  169MOL0     H23282   1.031  10.242   9.470 -2.3827 -3.9535 -0.4190
  169MOL0     H23283   1.094  10.290   9.637  0.4808 -2.1022  1.5871
  169MOL0     H23284   1.244  10.638   9.251 -0.1644  1.0814  0.8731
  169MOL0     H23285   1.122  10.781   9.075 -2.6563  1.4237  2.9779
  169MOL0     H23286   1.004  10.905   8.979  0.1822  0.8378  1.6453
  169MOL0     H23287   0.967  10.804   8.834 -0.0722 -2.5966  1.5891
  169MOL0     H23288   0.730  10.872   8.834 -1.6921  1.9581  0.9792
  169MOL0     H23289   0.748  10.957   8.986  0.2480 -0.6650 -0.1261
  169MOL0     H23290   0.929  11.041   8.733 -1.6806 -0.1715 -2.5724
  169MOL0     H23291   0.913  11.121   8.876 -0.6068  0.7807  0.1017
  169MOL0     H23292   0.653  11.148   8.821  0.0216  3.5238 -0.8542
  169MOL0     H23293   0.702  11.077   8.665 -1.0400 -1.9368  1.8490
  169MOL0     H23294   0.853  11.266   8.612  0.8395  0.9928  0.9213
  169MOL0     H23295   0.686  11.317   8.639  1.2194  0.2258 -1.7444
  169MOL0     H23296   0.888  11.322   8.863  0.2463 -2.5776 -2.3365
  169MOL0     H23297   0.729  11.389   8.862  0.6426 -1.6529  0.2665
  169MOL0     H23298   0.760  11.563   8.711 -0.6967 -0.2916  1.1728
  169MOL0     H23299   0.932  11.509   8.675  0.7948  0.1932  1.3668
  169MOL0     H23300   0.996  11.572   8.898 -0.2918  1.0977  1.7476
  169MOL0     H23301   0.827  11.595   8.942 -1.2206 -1.3381 -0.7622
  169MOL0     H23302   0.787  10.528   9.097  0.6295  2.0141 -0.7287
  169MOL0     H23303   0.903  10.403   9.289 -0.2691 -0.4969 -1.0620
  169MOL0     H23304   1.514  10.261   9.306 -1.3303  0.8279  0.1914
  169MOL0     H23305   1.606  10.063   9.419 -1.6360 -1.6917 -3.1033
  169MOL0     H23306   2.033  10.478  10.057  1.5363  1.3028  1.6853
  169MOL0     H23307   1.874  10.658   9.956  0.0893 -0.7654 -0.4434
  169MOL0     H23308   1.548  10.871   9.865 -0.5327  0.3788 -0.5617
  169MOL0     H23309   1.375  10.995   9.762  7.2271  0.4259 -1.0672
  169MOL0     H23310   1.187  11.121   9.710 -0.3984 -1.1465 -0.1070
  169MOL0     H23311   1.057  11.208   9.795  0.0140  1.4836 -0.1677
  169MOL0     H23312   1.237  11.355   9.645  0.1036  3.1091 -0.8100
  169MOL0     H23313   1.324  11.328   9.802 -1.4921 -0.8387  0.9649
  169MOL0     H23314   1.191  11.546   9.774 -0.8479  1.0767  1.7636
  169MOL0     H23315   1.046  11.448   9.786 -1.1241  1.7457  3.5597
  169MOL0     H23316   1.262  11.469  10.007  1.5578  0.4738 -2.6199
  169MOL0     H23317   1.134  11.350   9.998  0.6160 -0.8080 -1.8539
  169MOL0     H23318   0.905  11.665  10.130 -1.5000 -1.3474 -1.2515
  169MOL0     H23319   1.269  11.134  10.147 -2.7783 -1.6176 -0.3757
  169MOL0     H23320   1.495  11.071  10.319  0.4803 -1.6228  0.1851
  169MOL0     H23321   1.324  11.006  10.340 -2.2114  2.1900 -3.9260
  169MOL0     H23322   1.461  10.897  10.337  1.9901  1.2534  2.1695
  170MOL0     O23323  11.137   7.314   7.571 -0.1042  0.8296  0.3945
  170MOL0     C23324  11.180   7.219   7.513  0.7175 -0.8028  0.2115
  170MOL0     O23325  11.098   7.113   7.470 -0.1159 -0.0790  1.0933
  170MOL0     C23326  10.970   7.119   7.520 -1.2478  0.4344 -1.2459
  170MOL0     C23327  10.937   7.060   7.638  0.4968 -1.0116 -0.2185
  170MOL0     C23328  10.815   7.079   7.696  0.0461  0.7469 -0.2747
  170MOL0     C23329  10.715   7.145   7.623 -0.1725 -0.3916  0.0345
  170MOL0     O23330  10.589   7.161   7.682  0.0185 -0.7809  0.5653
  170MOL0     C23331  10.483   7.113   7.593 -0.2613 -0.1168 -1.0598
  170MOL0     C23332  10.434   6.988   7.681 -0.2754 -0.7394 -0.1626
  170MOL0     C23333  10.304   6.941   7.619 -0.2186  0.2051 -0.2746
  170MOL0     C23334  10.305   6.808   7.543 -0.4974 -0.7360  0.1378
  170MOL0     C23335  10.351   6.827   7.399  0.0571 -0.1021  0.2536
  170MOL0     C23336  10.290   6.738   7.299 -0.6637 -0.3020 -0.3454
  170MOL0     C23337  10.143   6.741   7.280 -0.2295 -0.4161 -0.3597
  170MOL0     C23338  10.093   6.888   7.262  0.6200  0.4942 -0.8924
  170MOL0     N23339  10.142   6.959   7.143  0.9415 -0.1233 -0.8080
  170MOL0     C23340  10.075   6.966   7.022 -0.1152 -0.0705  0.1439
  170MOL0     C23341  10.158   7.056   6.951  0.7205 -0.1046 -0.4077
  170MOL0     C23342  10.147   7.085   6.815  0.3847 -0.1995  1.2333
  170MOL0     C23343  10.254   7.020   6.715 -0.5811  0.5443  0.2444
  170MOL0     C23344  10.183   7.040   6.580 -0.3298 -0.8457  0.4855
  170MOL0     C23345  10.225   7.180   6.525 -0.5241 -0.0799  0.5970
  170MOL0     O23346  10.168   7.196   6.388  1.1924  0.2682  0.2952
  170MOL0     C23347  10.190   7.314   6.321 -0.4508 -0.2913  0.5532
  170MOL0     C23348  10.216   7.439   6.382  0.4181 -0.5281  0.3091
  170MOL0     C23349  10.220   7.554   6.309  0.1847 -0.7006  0.4616
  170MOL0     C23350  10.206   7.681   6.391  0.6263 -0.9316  0.4922
  170MOL0     C23351  10.214   7.557   6.166 -0.0088 -0.4205 -0.6209
  170MOL0     C23352  10.217   7.681   6.078  0.1446 -0.1985 -0.3225
  170MOL0     O23353  10.170   7.668   5.948 -0.4975  0.1911  0.4936
  170MOL0     C23354  10.189   7.782   5.869  0.0329  1.4661 -0.2122
  170MOL0     C23355  10.078   7.864   5.837  0.1764 -0.1763 -0.4668
  170MOL0     C23356  10.102   7.971   5.749 -0.0101 -0.1208 -0.9967
  170MOL0     C23357  10.224   7.988   5.685  0.0063  0.3871 -0.6965
  170MOL0     O23358  10.248   8.103   5.604 -0.0070  0.4107  0.4345
  170MOL0     C23359  10.377   8.161   5.620 -0.2174  0.9785 -0.8439
  170MOL0     C23360  10.385   8.306   5.594 -0.3751 -0.5468  0.0443
  170MOL0     C23361  10.524   8.362   5.638  0.2162  0.3852  0.1003
  170MOL0     C23362  10.559   8.378   5.788  0.1554  0.4807 -0.3298
  170MOL0     C23363  10.476   8.486   5.857  0.0455 -0.1614 -0.2298
  170MOL0     C23364  10.506   8.502   6.010  0.8172 -0.8680  0.0702
  170MOL0     C23365  10.446   8.626   6.065 -0.5795 -0.4632 -0.1236
  170MOL0     C23366  10.429   8.627   6.218 -0.3438  0.5225 -0.0961
  170MOL0    Cl23367  10.311   8.494   6.271  0.0042  0.2883  0.5757
  170MOL0     C23368  10.319   7.894   5.697 -0.1491  0.5718  1.2195
  170MOL0     C23369  10.300   7.795   5.786  0.5193  0.2825 -0.3858
  170MOL0     O23370  10.250   7.788   6.123 -0.6049 -0.0540 -0.5739
  170MOL0     C23371  10.199   7.427   6.106  0.7468  0.0085 -0.3156
  170MOL0     C23372  10.182   7.313   6.185  0.0090  0.5217  1.0591
  170MOL0     N23373  10.261   7.106   7.025  0.2967  0.1797  0.1317
  170MOL0     N23374  10.243   7.055   7.148 -0.0648 -0.6387  0.4716
  170MOL0     C23375  10.749   7.217   7.507 -0.3966  0.8319  0.2035
  170MOL0     C23376  10.876   7.206   7.454  0.1615  0.3129  0.5474
  170MOL0     C23377  11.325   7.210   7.476  0.1614  0.0585  0.2375
  170MOL0     C23378  11.354   7.137   7.364 -1.3392  0.6888  0.6271
  170MOL0     C23379  11.483   7.126   7.311  0.9488 -0.0564 -0.0654
  170MOL0     C23380  11.586   7.195   7.371 -0.7927  0.5827 -1.2647
  170MOL0     O23381  11.718   7.183   7.330  0.2421  0.0098  0.0889
  170MOL0     C23382  11.759   7.210   7.190  0.2116  1.3715  0.3412
  170MOL0     C23383  11.819   7.348   7.191 -0.2092 -1.2011 -0.0277
  170MOL0     C23384  11.940   7.363   7.104 -0.6714  0.5139 -0.0837
  170MOL0     C23385  11.913   7.363   6.951 -1.0996  0.0743  0.1750
  170MOL0     C23386  11.844   7.484   6.906  0.7720 -0.1732 -0.0484
  170MOL0     C23387  11.799   7.593   6.875  0.3189 -0.3654 -0.5527
  170MOL0     C23388  11.561   7.260   7.495  0.2970 -0.9994  0.1065
  170MOL0     C23389  11.441   7.277   7.543  1.1231 -0.7721 -0.1035
  170MOL0     C23390  11.406   7.352   7.683 -1.0443  0.0109  0.9814
  170MOL0     H23391  11.013   7.001   7.688 -1.6025 -3.4654  0.2394
  170MOL0     H23392  10.802   7.046   7.798  2.5212  3.5179  1.1003
  170MOL0     H23393  10.506   7.087   7.489 -2.2595 -1.1056 -1.3021
  170MOL0     H23394  10.407   7.191   7.597 -0.0427  0.0556 -0.1115
  170MOL0     H23395  10.509   6.909   7.678 -1.4852 -2.0194  1.4102
  170MOL0     H23396  10.415   7.028   7.781  1.5467 -0.4980  0.1236
  170MOL0     H23397  10.243   6.924   7.709 -1.0515 -4.0294 -1.4313
  170MOL0     H23398  10.249   7.017   7.563 -3.6237 -0.5536  1.7517
  170MOL0     H23399  10.376   6.738   7.589 -1.0362  0.4861  2.9985
  170MOL0     H23400  10.205   6.766   7.551 -0.4910 -0.4498  2.1219
  170MOL0     H23401  10.459   6.816   7.386 -0.1453 -2.8318  0.2992
  170MOL0     H23402  10.344   6.930   7.362 -0.0642 -0.4269 -0.6473
  170MOL0     H23403  10.324   6.767   7.200 -0.6798  1.9565  0.2435
  170MOL0     H23404  10.321   6.637   7.327 -1.5272  0.2380  3.0726
  170MOL0     H23405  10.081   6.684   7.350  1.5835 -2.2558 -0.1437
  170MOL0     H23406  10.117   6.682   7.191 -1.3836  0.3908 -0.5824
  170MOL0     H23407   9.984   6.884   7.271  0.6501  0.4517 -0.4994
  170MOL0     H23408  10.123   6.948   7.349 -2.3597  2.4544 -1.0799
  170MOL0     H23409   9.986   6.913   6.990 -0.2464  0.4007 -0.2828
  170MOL0     H23410  10.154   7.194   6.805  0.4349 -0.1589  1.6794
  170MOL0     H23411  10.044   7.060   6.788  0.1445 -0.0656  1.9951
  170MOL0     H23412  10.353   7.064   6.724 -1.1010  2.1108 -1.2495
  170MOL0     H23413  10.257   6.912   6.734 -3.3048  0.6191  1.5885
  170MOL0     H23414  10.226   6.968   6.510  1.3710  2.6433 -2.3716
  170MOL0     H23415  10.075   7.022   6.578 -0.0767 -2.5336 -0.2585
  170MOL0     H23416  10.177   7.257   6.586  0.9778  0.1960  1.4520
  170MOL0     H23417  10.332   7.194   6.513 -0.5255 -1.9232 -4.1784
  170MOL0     H23418  10.227   7.443   6.490  0.6141 -1.7651  0.3453
  170MOL0     H23419  10.305   7.726   6.405  1.4570 -1.5935 -2.6403
  170MOL0     H23420  10.162   7.655   6.488  0.1425  0.5579  0.7006
  170MOL0     H23421  10.131   7.749   6.348  1.1970 -0.1840  0.6512
  170MOL0     H23422   9.984   7.860   5.893  0.8973 -3.1786  0.7153
  170MOL0     H23423  10.027   8.047   5.730 -1.6272 -0.9164  1.6374
  170MOL0     H23424  10.405   8.153   5.726 -0.0118 -2.0746 -1.0388
  170MOL0     H23425  10.460   8.109   5.571  2.2101  1.5508  2.2894
  170MOL0     H23426  10.372   8.345   5.493  3.9051  1.4220  0.0335
  170MOL0     H23427  10.302   8.346   5.654 -1.3379 -0.1041 -1.5368
  170MOL0     H23428  10.523   8.463   5.594 -1.6816  1.2079  1.8748
  170MOL0     H23429  10.597   8.292   5.595 -0.9132 -0.8244  0.1160
  170MOL0     H23430  10.665   8.386   5.814 -0.5025  2.7509  2.1605
  170MOL0     H23431  10.523   8.294   5.849  1.7653  1.0832  1.5330
  170MOL0     H23432  10.498   8.580   5.805  2.0304 -1.4810 -1.9352
  170MOL0     H23433  10.372   8.462   5.835  0.7424 -0.1615 -4.3251
  170MOL0     H23434  10.615   8.508   6.014  0.9421 -3.0118  2.4224
  170MOL0     H23435  10.466   8.417   6.066  1.1487 -1.2245 -0.2274
  170MOL0     H23436  10.344   8.646   6.030 -1.0899 -3.0694 -0.2938
  170MOL0     H23437  10.513   8.710   6.042  2.1763 -2.7498 -0.9882
  170MOL0     H23438  10.375   8.721   6.237 -0.0301  0.5871  0.4859
  170MOL0     H23439  10.528   8.620   6.265 -0.6697  1.2847  0.7461
  170MOL0     H23440  10.415   7.898   5.647  2.5747  4.3595  5.9154
  170MOL0     H23441  10.373   7.719   5.810  1.5749  0.9617 -1.3705
  170MOL0     H23442  10.206   7.416   5.998 -0.7483  1.3402 -0.5773
  170MOL0     H23443  10.164   7.226   6.124  2.4360 -1.2959  2.7578
  170MOL0     H23444  10.680   7.287   7.460 -0.7362  0.5644  0.3019
  170MOL0     H23445  10.914   7.267   7.372  1.5258 -0.2469  0.7299
  170MOL0     H23446  11.280   7.078   7.311  2.5883 -4.5067  0.1383
  170MOL0     H23447  11.493   7.083   7.212  0.8679  2.5154 -1.2933
  170MOL0     H23448  11.834   7.139   7.154  1.1079  1.7759  1.3512
  170MOL0     H23449  11.675   7.203   7.120 -1.1491  0.0568  2.0064
  170MOL0     H23450  11.855   7.389   7.285 -0.7160  0.4123 -0.5092
  170MOL0     H23451  11.738   7.414   7.158  0.2285  0.0478  1.2942
  170MOL0     H23452  11.991   7.458   7.124  3.5299 -1.2810 -1.2208
  170MOL0     H23453  12.000   7.279   7.139 -1.6703  0.1522  0.8062
  170MOL0     H23454  11.861   7.271   6.921  2.9283 -2.1849 -0.5784
  170MOL0     H23455  12.012   7.364   6.904 -1.5834  4.7073 -1.2427
  170MOL0     H23456  11.763   7.689   6.846 -1.0629 -0.6685  0.1007
  170MOL0     H23457  11.637   7.294   7.564 -0.1915 -2.1132  1.2178
  170MOL0     H23458  11.493   7.344   7.749 -2.6441  0.0371  3.2365
  170MOL0     H23459  11.400   7.457   7.654 -2.1385 -0.1538  0.5468
  170MOL0     H23460  11.321   7.314   7.740 -2.3060  0.2848 -0.6410
  171MOL0     O23461   1.829  10.165   1.948  0.4416 -0.3365 -0.0681
  171MOL0     C23462   1.884  10.280   1.948  0.1661 -0.3487  0.0469
  171MOL0     O23463   2.002  10.305   2.009  0.1714  0.1369  0.0774
  171MOL0     C23464   2.056  10.213   2.094  0.2612  0.5253  0.1358
  171MOL0     C23465   2.115  10.093   2.043  0.1518 -0.2097  0.3393
  171MOL0     C23466   2.172  10.002   2.129 -0.3691 -0.4055  0.2759
  171MOL0     C23467   2.180  10.025   2.267 -1.1124  0.4384  0.1011
  171MOL0     O23468   2.244   9.938   2.343 -0.4031  0.3262 -0.3014
  171MOL0     C23469   2.388   9.954   2.329  0.6133 -1.3073 -0.7283
  171MOL0     C23470   2.453   9.836   2.403 -0.4399 -0.2700  0.9444
  171MOL0     C23471   2.434   9.691   2.347 -0.1571 -0.0097 -0.5416
  171MOL0     C23472   2.511   9.585   2.434  0.9596 -0.5613 -0.1498
  171MOL0     C23473   2.460   9.437   2.418 -0.0277 -0.2312  0.5250
  171MOL0     C23474   2.522   9.338   2.518  0.8086  0.5035 -0.3827
  171MOL0     C23475   2.440   9.203   2.491 -0.3980  0.2466  0.9591
  171MOL0     C23476   2.475   9.089   2.587  0.3848  0.6683 -0.1361
  171MOL0     N23477   2.410   9.104   2.722 -1.0757 -0.8638 -0.2986
  171MOL0     C23478   2.279   9.112   2.736 -0.8580  0.6529  0.2141
  171MOL0     C23479   2.262   9.152   2.869 -0.1796 -0.1425 -0.8164
  171MOL0     C23480   2.119   9.186   2.912 -0.2430  0.2790  0.6432
  171MOL0     C23481   2.083   9.097   3.032 -0.0560  0.2608  0.4213
  171MOL0     C23482   1.942   9.137   3.090  0.2921  0.1033  0.1532
  171MOL0     C23483   1.901   9.030   3.194  0.0362  0.0866 -0.8007
  171MOL0     O23484   1.995   9.023   3.307  0.8101  0.5122  1.0471
  171MOL0     C23485   2.076   8.909   3.319  0.9045  0.4506  0.1614
  171MOL0     C23486   2.018   8.792   3.336  0.0424  0.0218 -0.6524
  171MOL0     C23487   2.089   8.681   3.366 -0.2946  0.5434 -0.1899
  171MOL0     C23488   2.016   8.554   3.361  0.2462 -0.4900 -0.3016
  171MOL0     C23489   2.227   8.689   3.392  0.3777 -0.8514 -0.4206
  171MOL0     C23490   2.305   8.572   3.447  0.2038  0.0656  0.2634
  171MOL0     O23491   2.442   8.562   3.421  0.5233 -1.1785 -0.3636
  171MOL0     C23492   2.505   8.439   3.423  0.4336 -0.3066 -1.0357
  171MOL0     C23493   2.448   8.307   3.406 -0.4926 -1.6302 -0.3873
  171MOL0     C23494   2.533   8.198   3.406  0.0728 -0.5713 -0.8844
  171MOL0     C23495   2.673   8.211   3.421  0.3368  0.4322  0.5428
  171MOL0     O23496   2.767   8.108   3.437 -0.5441  1.1015  0.1785
  171MOL0     C23497   2.708   7.978   3.476 -0.4135 -1.1156 -0.1606
  171MOL0     C23498   2.825   7.892   3.515 -0.1230 -0.4840 -0.2741
  171MOL0     C23499   2.786   7.743   3.486 -0.7242  0.0248 -0.5517
  171MOL0     C23500   2.667   7.703   3.571 -0.6247  0.2334  0.3198
  171MOL0     C23501   2.648   7.547   3.561  0.1087 -0.8872  0.4132
  171MOL0     C23502   2.732   7.466   3.652  0.1862  0.0872 -0.5343
  171MOL0     C23503   2.674   7.328   3.660 -0.1744 -0.0017 -1.0415
  171MOL0     C23504   2.675   7.232   3.532 -0.1373 -0.1063  0.0241
  171MOL0    Cl23505   2.552   7.109   3.556 -0.5393 -0.1630  0.5584
  171MOL0     C23506   2.724   8.336   3.447 -0.3219  0.0495 -0.4512
  171MOL0     C23507   2.638   8.448   3.449  0.2586  0.0413  0.2926
  171MOL0     O23508   2.247   8.487   3.514  0.5587  0.9518 -0.6040
  171MOL0     C23509   2.290   8.816   3.372  0.0521 -0.2820 -0.8049
  171MOL0     C23510   2.214   8.922   3.335  0.5472  0.6233  0.2570
  171MOL0     N23511   2.387   9.149   2.925 -0.1026  0.8639  0.6506
  171MOL0     N23512   2.477   9.126   2.839 -0.3992 -0.1574  0.2085
  171MOL0     C23513   2.115  10.143   2.315 -0.4132  0.3520 -0.0440
  171MOL0     C23514   2.052  10.230   2.231 -0.0936 -0.4541 -0.4823
  171MOL0     C23515   1.815  10.378   1.859 -0.3854  0.4350  1.0476
  171MOL0     C23516   1.887  10.499   1.813  0.5960  0.2248 -0.0283
  171MOL0     C23517   1.828  10.585   1.722  0.7591 -0.5698 -0.0025
  171MOL0     C23518   1.705  10.559   1.652 -0.2717 -0.5024 -0.4071
  171MOL0     O23519   1.669  10.649   1.564 -0.7076  0.5491  0.3893
  171MOL0     C23520   1.545  10.624   1.488 -0.0316 -0.1177  0.5634
  171MOL0     C23521   1.521  10.744   1.402  0.5411  0.3305 -0.1058
  171MOL0     C23522   1.395  10.726   1.307 -0.7508 -0.2346  0.5254
  171MOL0     C23523   1.364  10.852   1.231 -0.0059 -0.4292  0.3767
  171MOL0     C23524   1.251  10.825   1.145 -0.1935 -0.0211  0.3285
  171MOL0     C23525   1.149  10.821   1.079 -0.0752 -0.4427 -0.4200
  171MOL0     C23526   1.646  10.436   1.684  0.1932 -0.4651  0.8863
  171MOL0     C23527   1.695  10.351   1.783  0.5827  0.0451  0.0424
  171MOL0     C23528   1.602  10.230   1.800 -0.3675 -1.1871  0.7852
  171MOL0     H23529   2.106  10.068   1.938 -4.0240  3.2092 -0.3948
  171MOL0     H23530   2.205   9.914   2.076 -0.1813  0.7953 -1.7194
  171MOL0     H23531   2.435  10.042   2.373  0.2857 -0.8494 -1.2752
  171MOL0     H23532   2.407   9.975   2.223  2.0176  2.7246  0.1404
  171MOL0     H23533   2.558   9.862   2.418 -0.3812 -1.7699  3.8804
  171MOL0     H23534   2.420   9.842   2.507 -0.9538 -0.7908  0.8125
  171MOL0     H23535   2.331   9.656   2.340 -0.2186  0.2326 -0.8452
  171MOL0     H23536   2.469   9.680   2.244 -0.7184 -0.4955 -0.6862
  171MOL0     H23537   2.619   9.588   2.418  0.9318 -0.4283 -0.3180
  171MOL0     H23538   2.509   9.604   2.541  1.2497 -2.1587  0.1644
  171MOL0     H23539   2.481   9.404   2.316 -0.6723  2.5361 -0.6139
  171MOL0     H23540   2.351   9.431   2.425  0.0270  0.0750  1.7200
  171MOL0     H23541   2.630   9.328   2.507  0.8018 -1.2542  0.6539
  171MOL0     H23542   2.489   9.372   2.617 -2.9710 -0.3506 -1.1928
  171MOL0     H23543   2.456   9.168   2.389 -1.7083 -2.3095  1.5371
  171MOL0     H23544   2.333   9.226   2.491 -0.1441  1.5006 -0.2378
  171MOL0     H23545   2.433   8.999   2.541 -2.7378  2.7357 -1.6880
  171MOL0     H23546   2.584   9.084   2.581  0.2745 -1.7425 -1.3401
  171MOL0     H23547   2.193   9.103   2.671 -1.0926 -0.2834  0.6418
  171MOL0     H23548   2.050   9.175   2.828 -1.2482 -0.6610  1.5606
  171MOL0     H23549   2.118   9.290   2.946 -0.4882  0.3133  0.5328
  171MOL0     H23550   2.064   8.991   3.009  1.1061  0.2176 -0.4190
  171MOL0     H23551   2.161   9.095   3.109 -0.3977 -0.3843  0.7685
  171MOL0     H23552   1.961   9.234   3.138  1.5770  1.2074 -2.4047
  171MOL0     H23553   1.862   9.150   3.017 -0.5634  0.0122  1.0474
  171MOL0     H23554   1.805   9.064   3.236  1.7652  1.9905  1.9508
  171MOL0     H23555   1.880   8.930   3.155 -2.6122  0.1784  0.1726
  171MOL0     H23556   1.911   8.802   3.328  0.2123  0.9556 -2.0837
  171MOL0     H23557   1.915   8.558   3.320 -0.2564 -0.4455  0.9019
  171MOL0     H23558   1.992   8.508   3.457 -0.6694  0.9793  0.2101
  171MOL0     H23559   2.074   8.476   3.310  1.0580  0.3612 -0.7128
  171MOL0     H23560   2.341   8.290   3.400 -0.7009 -0.5908  0.0946
  171MOL0     H23561   2.496   8.096   3.393  0.2347 -0.6721 -0.5701
  171MOL0     H23562   2.634   7.986   3.557 -2.7048 -0.8553 -2.1732
  171MOL0     H23563   2.661   7.939   3.385 -1.5092 -0.6461  0.1794
  171MOL0     H23564   2.909   7.911   3.447  0.4630 -0.2650  0.5020
  171MOL0     H23565   2.858   7.903   3.619 -0.9136  0.1759 -0.0880
  171MOL0     H23566   2.871   7.682   3.518  0.7930  2.6464  0.7645
  171MOL0     H23567   2.768   7.719   3.380  0.8952  0.4153 -0.9520
  171MOL0     H23568   2.581   7.759   3.532  1.1519  1.3860 -2.2671
  171MOL0     H23569   2.666   7.734   3.676  1.0827 -0.5210  0.6071
  171MOL0     H23570   2.545   7.522   3.588 -1.0853  2.5552 -0.5509
  171MOL0     H23571   2.680   7.510   3.463  1.5629 -2.5382  1.4365
  171MOL0     H23572   2.739   7.517   3.748 -0.4490  1.4850 -1.1949
  171MOL0     H23573   2.834   7.468   3.611  1.1634 -1.6532  1.6222
  171MOL0     H23574   2.575   7.328   3.707 -0.9913 -1.2751 -2.6475
  171MOL0     H23575   2.734   7.272   3.733 -0.9812  0.6434  0.1466
  171MOL0     H23576   2.779   7.202   3.515  0.1294  2.5553 -4.7211
  171MOL0     H23577   2.645   7.276   3.436 -0.3423  0.0027  0.1386
  171MOL0     H23578   2.829   8.347   3.473 -0.6484 -2.5028  2.4140
  171MOL0     H23579   2.677   8.546   3.476  3.4000 -1.2846  1.0410
  171MOL0     H23580   2.395   8.840   3.385 -1.0065  3.6995  2.5476
  171MOL0     H23581   2.263   9.018   3.324 -1.6336  1.7327 -0.5051
  171MOL0     H23582   2.129  10.161   2.421 -0.6241 -1.3729  0.3082
  171MOL0     H23583   2.002  10.314   2.278 -1.1462 -1.2740 -0.0849
  171MOL0     H23584   1.981  10.533   1.857  1.9016 -3.1557  0.0566
  171MOL0     H23585   1.878  10.678   1.697 -1.6873  0.5101 -1.2351
  171MOL0     H23586   1.521  10.526   1.445 -0.5114 -0.2316  1.0834
  171MOL0     H23587   1.457  10.629   1.553 -1.8544 -1.0972 -1.6752
  171MOL0     H23588   1.608  10.758   1.337  0.2010 -0.7133 -0.8173
  171MOL0     H23589   1.515  10.832   1.467  0.7674 -0.5613  1.1575
  171MOL0     H23590   1.418  10.640   1.244 -1.2802 -0.1350  0.1916
  171MOL0     H23591   1.308  10.695   1.365  0.4567 -2.0840  1.4383
  171MOL0     H23592   1.450  10.878   1.169  0.5037  0.7480  1.5305
  171MOL0     H23593   1.341  10.935   1.299  0.9999 -1.5487  2.1923
  171MOL0     H23594   1.049  10.813   1.042 -0.7471 -1.8175  1.4901
  171MOL0     H23595   1.553  10.402   1.638  0.9531 -0.8561 -0.4134
  171MOL0     H23596   1.519  10.235   1.729  0.8592  1.5963 -0.6132
  171MOL0     H23597   1.663  10.139   1.793  0.4702 -0.5423 -0.7899
  171MOL0     H23598   1.568  10.229   1.904  3.8142 -0.3106  2.3404
  172MOL0     O23599   1.650   8.540   5.508  0.2046 -0.3842 -0.7905
  172MOL0     C23600   1.579   8.442   5.470 -0.4234  0.7629 -0.0427
  172MOL0     O23601   1.536   8.420   5.340  0.3635 -0.2162 -0.0352
  172MOL0     C23602   1.559   8.521   5.247 -1.1894 -0.4003 -0.4224
  172MOL0     C23603   1.573   8.472   5.111  0.3128 -0.2190  0.5523
  172MOL0     C23604   1.605   8.556   5.005  0.2773  0.7433 -0.4082
  172MOL0     C23605   1.628   8.689   5.025 -0.1459 -0.1069  0.1151
  172MOL0     O23606   1.654   8.765   4.917  0.0961 -0.0181 -0.3758
  172MOL0     C23607   1.741   8.877   4.933  0.6357  0.2963  0.2133
  172MOL0     C23608   1.844   8.840   4.832  0.3479  0.1885  0.3811
  172MOL0     C23609   1.909   8.697   4.851 -0.1596 -0.7016 -0.0257
  172MOL0     C23610   2.014   8.679   4.745 -0.6398 -0.1668  0.5638
  172MOL0     C23611   2.099   8.555   4.739  0.8814  0.8307  0.0470
  172MOL0     C23612   2.020   8.419   4.754  0.0737  0.4261  0.6715
  172MOL0     C23613   1.909   8.399   4.642  0.2534  0.4257 -0.6049
  172MOL0     C23614   1.960   8.413   4.488  0.7773  0.1308 -0.6384
  172MOL0     N23615   1.877   8.339   4.394 -0.1388 -0.7297  0.4127
  172MOL0     C23616   1.756   8.384   4.345  0.2807 -0.6287  0.2377
  172MOL0     C23617   1.711   8.277   4.269 -0.1093 -0.1392 -0.1599
  172MOL0     C23618   1.588   8.267   4.188 -0.1177 -0.1539  0.7243
  172MOL0     C23619   1.616   8.356   4.056  0.1562  0.7388 -1.4462
  172MOL0     C23620   1.725   8.304   3.960  0.0406 -0.2714 -0.2991
  172MOL0     C23621   1.748   8.402   3.841  0.4328  1.0673 -0.2794
  172MOL0     O23622   1.620   8.441   3.779 -0.1119 -0.1946  0.5687
  172MOL0     C23623   1.620   8.556   3.708  0.2182 -0.5193 -0.2441
  172MOL0     C23624   1.607   8.547   3.569  0.2308 -0.0436  0.8996
  172MOL0     C23625   1.592   8.657   3.480  0.5864 -0.9918 -0.1141
  172MOL0     C23626   1.532   8.641   3.330 -0.5101  0.4600  0.2790
  172MOL0     C23627   1.618   8.786   3.541  0.1274 -0.7078  0.4148
  172MOL0     C23628   1.631   8.918   3.460 -0.2165  0.0260 -1.6369
  172MOL0     O23629   1.676   9.023   3.540 -0.3359 -0.1373 -0.2919
  172MOL0     C23630   1.688   9.139   3.471 -0.7874  0.1296 -0.3760
  172MOL0     C23631   1.574   9.195   3.407 -1.1058 -0.8099  0.0471
  172MOL0     C23632   1.587   9.300   3.323  0.1623 -0.0888  0.1043
  172MOL0     C23633   1.707   9.363   3.301  0.6697  0.3150  0.1701
  172MOL0     O23634   1.743   9.443   3.192  0.8961  0.6619 -0.6678
  172MOL0     C23635   1.651   9.449   3.085  0.3705  0.4143  0.8110
  172MOL0     C23636   1.730   9.521   2.975 -0.4153 -0.6642  0.6794
  172MOL0     C23637   1.705   9.677   2.995 -0.1467  0.0129 -0.7997
  172MOL0     C23638   1.789   9.769   2.908  0.1972  0.0476 -0.3674
  172MOL0     C23639   1.808   9.904   2.970  1.1696  0.1571  0.1440
  172MOL0     C23640   1.827  10.025   2.882 -0.4636 -0.1364 -0.5073
  172MOL0     C23641   1.972  10.056   2.850 -0.9259  0.1410 -0.7325
  172MOL0     C23642   2.033   9.990   2.729  0.7497  0.8260  0.3265
  172MOL0    Cl23643   2.197  10.039   2.720  0.1113  0.5888 -0.1345
  172MOL0     C23644   1.820   9.319   3.379  0.1052 -0.5035  0.8662
  172MOL0     C23645   1.813   9.207   3.463  0.0876 -0.0706  0.1725
  172MOL0     O23646   1.619   8.924   3.342  0.0250 -0.7752 -0.7285
  172MOL0     C23647   1.641   8.797   3.681 -0.4567  0.7660  0.7999
  172MOL0     C23648   1.641   8.677   3.761  0.3138  0.8469  0.1309
  172MOL0     N23649   1.805   8.172   4.285  0.4392  0.1174  0.7772
  172MOL0     N23650   1.901   8.213   4.356 -0.1272 -0.2361  0.2464
  172MOL0     C23651   1.607   8.736   5.154  0.5343  0.1110  0.3217
  172MOL0     C23652   1.572   8.659   5.265 -0.2040 -0.3762 -0.2777
  172MOL0     C23653   1.525   8.344   5.574 -0.4398 -0.3903  0.4291
  172MOL0     C23654   1.433   8.244   5.529 -0.4182 -0.5909  0.6627
  172MOL0     C23655   1.370   8.160   5.622  0.9875 -1.1663  0.4607
  172MOL0     C23656   1.388   8.184   5.756  0.0086  0.3982  0.3085
  172MOL0     O23657   1.327   8.113   5.848 -0.0581  0.2630 -0.3790
  172MOL0     C23658   1.251   7.995   5.822 -0.2941 -0.8834 -0.2344
  172MOL0     C23659   1.219   7.907   5.941 -0.4075 -0.1668 -0.6251
  172MOL0     C23660   1.151   7.777   5.889 -0.2393  0.2295 -0.7162
  172MOL0     C23661   1.006   7.798   5.847  0.6509  0.4883 -0.0020
  172MOL0     C23662   0.949   7.666   5.837  0.5526  0.0058 -0.6735
  172MOL0     C23663   0.883   7.562   5.823  0.1405 -0.7330  0.3966
  172MOL0     C23664   1.476   8.280   5.793  0.7753 -0.8474  0.6010
  172MOL0     C23665   1.551   8.362   5.706  0.1968  0.7381 -0.5689
  172MOL0     C23666   1.666   8.442   5.772 -0.1714  1.1292  0.0914
  172MOL0     H23667   1.591   8.366   5.098 -0.1342 -0.2553  0.1953
  172MOL0     H23668   1.628   8.509   4.910 -1.7762 -0.7321 -0.2254
  172MOL0     H23669   1.787   8.884   5.032 -2.2437 -0.6662  1.7151
  172MOL0     H23670   1.689   8.971   4.911  0.1341  0.8141  3.1552
  172MOL0     H23671   1.789   8.845   4.737  1.5144 -3.3483 -0.6098
  172MOL0     H23672   1.928   8.909   4.817 -0.9724  1.3509 -2.5762
  172MOL0     H23673   1.978   8.690   4.936 -0.5268 -0.9181  0.2604
  172MOL0     H23674   1.833   8.618   4.851 -3.1395  1.9103 -2.4799
  172MOL0     H23675   1.977   8.692   4.642  0.6010  1.3796  0.2755
  172MOL0     H23676   2.090   8.755   4.765  1.9733 -2.2891 -0.7101
  172MOL0     H23677   2.177   8.552   4.816  1.5847 -1.7430 -0.6948
  172MOL0     H23678   2.156   8.556   4.646 -0.1523 -0.6654 -0.6244
  172MOL0     H23679   2.090   8.336   4.762 -0.6333 -0.2243  0.3060
  172MOL0     H23680   1.970   8.418   4.851  1.2076  0.0172  1.2597
  172MOL0     H23681   1.836   8.480   4.649 -0.3687 -0.2599  2.1147
  172MOL0     H23682   1.848   8.308   4.649 -1.9055  1.8434  0.1498
  172MOL0     H23683   1.974   8.518   4.459 -5.3729  1.3617 -0.4837
  172MOL0     H23684   2.060   8.368   4.479  0.8870  0.4760 -1.2377
  172MOL0     H23685   1.704   8.479   4.358 -1.4236 -1.7865  2.8814
  172MOL0     H23686   1.497   8.309   4.232 -0.9861 -2.3237  1.1053
  172MOL0     H23687   1.565   8.163   4.162 -2.3671  0.6441 -0.7380
  172MOL0     H23688   1.522   8.378   4.004 -1.4622 -0.3470  0.8576
  172MOL0     H23689   1.643   8.456   4.090 -2.0157  0.7550  0.4663
  172MOL0     H23690   1.819   8.298   4.016 -0.3070  1.1532  0.4946
  172MOL0     H23691   1.701   8.208   3.914 -1.6438  0.4353 -0.9467
  172MOL0     H23692   1.791   8.497   3.875 -3.3035  2.7346  0.2111
  172MOL0     H23693   1.819   8.359   3.770 -0.3567 -0.3226 -0.2538
  172MOL0     H23694   1.605   8.445   3.533 -0.9998  0.5893 -1.0419
  172MOL0     H23695   1.440   8.698   3.315  0.5077  2.2069  0.3132
  172MOL0     H23696   1.497   8.539   3.314  0.1437  0.4720 -1.4324
  172MOL0     H23697   1.603   8.663   3.249  0.5685  0.4050  1.1829
  172MOL0     H23698   1.479   9.143   3.417 -1.2305 -0.5336  0.2880
  172MOL0     H23699   1.514   9.338   3.252  0.5203  0.0011 -0.2167
  172MOL0     H23700   1.627   9.351   3.042  1.5464  1.4242 -2.3853
  172MOL0     H23701   1.551   9.492   3.097 -1.0568 -1.9580 -1.5180
  172MOL0     H23702   1.838   9.500   2.979 -0.3624 -0.2762  2.7851
  172MOL0     H23703   1.688   9.483   2.882 -5.6408  1.0760  1.9757
  172MOL0     H23704   1.728   9.695   3.100 -0.1389  0.4595 -0.8723
  172MOL0     H23705   1.598   9.695   2.985 -0.3712 -1.0191 -0.3473
  172MOL0     H23706   1.726   9.777   2.819 -2.4286  0.9992  1.4528
  172MOL0     H23707   1.886   9.724   2.883 -0.1995  0.4546 -2.9603
  172MOL0     H23708   1.719   9.913   3.032  0.2871  0.1892 -1.0898
  172MOL0     H23709   1.902   9.911   3.026  0.8698 -0.8317  0.8103
  172MOL0     H23710   1.780  10.116   2.921  0.3145  0.2503 -0.4559
  172MOL0     H23711   1.774  10.001   2.790 -1.6736  0.4859  0.0029
  172MOL0     H23712   2.039  10.027   2.932 -2.8841 -0.7528  0.6416
  172MOL0     H23713   1.983  10.164   2.835 -0.5929  0.4411  1.3959
  172MOL0     H23714   1.970  10.027   2.648 -3.7002 -2.6863  1.8054
  172MOL0     H23715   2.023   9.881   2.730  1.2012  0.7721 -0.1781
  172MOL0     H23716   1.919   9.363   3.371 -0.6738  1.2014 -0.1404
  172MOL0     H23717   1.897   9.172   3.521 -0.8203 -0.6619  1.1692
  172MOL0     H23718   1.666   8.885   3.738  0.2215 -0.1405  1.9400
  172MOL0     H23719   1.675   8.676   3.864 -0.4269  2.1032  0.4139
  172MOL0     H23720   1.618   8.843   5.168  3.4342 -0.1153  0.3389
  172MOL0     H23721   1.579   8.705   5.363 -1.2517  3.2671 -1.7468
  172MOL0     H23722   1.412   8.228   5.424 -1.4278  1.1408  0.5687
  172MOL0     H23723   1.304   8.085   5.580  0.6037 -1.1310  0.9805
  172MOL0     H23724   1.162   8.032   5.771  0.5549 -0.0360 -1.1554
  172MOL0     H23725   1.301   7.937   5.744  1.8829  0.5718 -0.0418
  172MOL0     H23726   1.159   7.964   6.013 -1.6132 -2.4925  0.3031
  172MOL0     H23727   1.316   7.890   5.988  0.4426  4.8564  0.0488
  172MOL0     H23728   1.211   7.729   5.811 -2.1496 -1.7869 -1.0192
  172MOL0     H23729   1.144   7.704   5.970 -1.9918 -0.5699 -1.5560
  172MOL0     H23730   0.996   7.846   5.749 -0.4659 -3.3291 -1.9417
  172MOL0     H23731   0.956   7.857   5.925 -1.7164  0.1261 -1.1495
  172MOL0     H23732   0.824   7.479   5.791  0.4304 -0.3243 -1.3207
  172MOL0     H23733   1.501   8.277   5.899 -0.1064 -1.2417  0.8079
  172MOL0     H23734   1.712   8.392   5.858  1.4691 -2.2621 -2.5641
  172MOL0     H23735   1.755   8.448   5.708 -0.3646 -0.2566 -0.3348
  172MOL0     H23736   1.643   8.544   5.805  1.9145  1.6125  0.2147
  173MOL0     O23737  10.034   3.562   7.410  0.7751  0.3660 -0.9974
  173MOL0     C23738  10.037   3.648   7.330  0.2853 -0.2260  1.0399
  173MOL0     O23739   9.931   3.737   7.315  0.5015 -0.2840 -0.2638
  173MOL0     C23740   9.843   3.762   7.415  0.3078 -0.5515  0.8907
  173MOL0     C23741   9.708   3.793   7.387  0.6012 -0.3599 -0.1306
  173MOL0     C23742   9.618   3.806   7.496 -0.3861  0.9845  0.8236
  173MOL0     C23743   9.666   3.797   7.629  0.3416 -0.4722  0.4596
  173MOL0     O23744   9.561   3.813   7.718 -0.0168 -1.0311 -0.0241
  173MOL0     C23745   9.595   3.793   7.855 -0.3466  0.2512  0.2782
  173MOL0     C23746   9.575   3.918   7.938 -0.1844  0.2886 -0.2156
  173MOL0     C23747   9.432   3.971   7.928  0.6073  1.2824 -0.1237
  173MOL0     C23748   9.372   4.018   8.066 -0.1499  0.4942  0.3760
  173MOL0     C23749   9.282   4.142   8.039  1.4475  0.4562 -0.5623
  173MOL0     C23750   9.183   4.157   8.161  0.0278  0.1966 -1.0141
  173MOL0     C23751   9.039   4.093   8.150 -0.8590 -0.7416 -0.1880
  173MOL0     C23752   9.047   3.939   8.130 -0.4523 -0.5155 -0.5095
  173MOL0     N23753   8.920   3.868   8.121  0.7249  0.3437  0.1828
  173MOL0     C23754   8.843   3.862   8.002  0.3747  0.5677 -0.5863
  173MOL0     C23755   8.738   3.789   8.034  0.2106 -0.3681  0.3909
  173MOL0     C23756   8.611   3.761   7.944 -0.6376 -1.1163  0.0670
  173MOL0     C23757   8.644   3.696   7.804  0.8106  0.3059  0.8211
  173MOL0     C23758   8.682   3.544   7.826  0.7291 -0.2687 -0.2163
  173MOL0     C23759   8.819   3.524   7.886  0.5416  0.8771 -0.2646
  173MOL0     O23760   8.826   3.381   7.866 -0.3644 -0.7290 -0.7747
  173MOL0     C23761   8.943   3.320   7.908 -0.5189 -0.4636  0.2867
  173MOL0     C23762   8.931   3.186   7.906  1.0222  1.0347  0.4702
  173MOL0     C23763   9.047   3.098   7.938  0.2611  0.7131 -0.4958
  173MOL0     C23764   9.020   2.955   7.930  0.5767 -0.0836 -1.2740
  173MOL0     C23765   9.159   3.159   7.992  0.0576  0.4650 -0.5535
  173MOL0     C23766   9.278   3.088   8.018  0.7569  0.1954  0.2753
  173MOL0     O23767   9.270   2.983   8.097 -1.0129  0.4837 -0.1377
  173MOL0     C23768   9.382   2.935   8.161  0.2406 -0.1336 -0.4043
  173MOL0     C23769   9.444   2.817   8.145 -0.1720  1.0125 -0.3991
  173MOL0     C23770   9.558   2.788   8.220 -0.6379  0.3714  0.4071
  173MOL0     C23771   9.624   2.879   8.312  0.3289 -0.5159  0.5461
  173MOL0     O23772   9.733   2.840   8.391  0.1490  0.2792 -0.0872
  173MOL0     C23773   9.710   2.816   8.532 -0.2385 -0.1422 -0.0493
  173MOL0     C23774   9.613   2.706   8.556 -0.2655  0.4596  0.1179
  173MOL0     C23775   9.662   2.560   8.518 -0.1026  0.2512  0.7742
  173MOL0     C23776   9.628   2.452   8.628  0.2872 -0.0780 -0.4487
  173MOL0     C23777   9.476   2.433   8.654 -1.6028 -0.1039  0.7004
  173MOL0     C23778   9.400   2.376   8.534  0.7804 -0.4781 -0.3605
  173MOL0     C23779   9.454   2.246   8.470 -0.6695  0.4978 -0.7063
  173MOL0     C23780   9.350   2.197   8.373 -0.1850  0.8989  0.4253
  173MOL0    Cl23781   9.414   2.053   8.296  0.2946  0.0158  0.4452
  173MOL0     C23782   9.560   2.994   8.328  0.0904  0.7574 -0.6048
  173MOL0     C23783   9.443   3.028   8.257  0.9254 -0.1981 -1.0671
  173MOL0     O23784   9.385   3.130   7.966 -0.3121  0.7629  0.5337
  173MOL0     C23785   9.165   3.301   8.000 -1.4668  0.1075  0.1912
  173MOL0     C23786   9.053   3.375   7.955  0.1773  1.3256  0.6358
  173MOL0     N23787   8.757   3.743   8.165 -0.4488 -0.7619  0.3640
  173MOL0     N23788   8.863   3.789   8.215  0.1389  0.2266  0.0907
  173MOL0     C23789   9.802   3.777   7.653 -0.9496  0.5336  0.2263
  173MOL0     C23790   9.890   3.760   7.543 -0.6388 -0.3527  0.2308
  173MOL0     C23791  10.153   3.653   7.231 -0.9866 -0.5706  0.3251
  173MOL0     C23792  10.146   3.743   7.121  0.8485  0.0743 -0.0749
  173MOL0     C23793  10.247   3.744   7.015  0.1977  0.4542 -0.8081
  173MOL0     C23794  10.358   3.660   7.029  0.4195  0.4416 -0.8662
  173MOL0     O23795  10.444   3.652   6.925 -1.3117  0.2977  1.0180
  173MOL0     C23796  10.527   3.544   6.907  0.1232 -0.1423  0.2151
  173MOL0     C23797  10.446   3.424   6.851  0.3082  0.1145  0.0919
  173MOL0     C23798  10.348   3.463   6.738  1.0417  0.6414  0.4374
  173MOL0     C23799  10.405   3.526   6.611 -0.8584 -0.9137  0.3618
  173MOL0     C23800  10.447   3.417   6.525  0.7079  0.5779  0.4412
  173MOL0     C23801  10.486   3.339   6.447  1.3771 -0.3005  0.8577
  173MOL0     C23802  10.373   3.580   7.151 -0.5865 -0.6045 -0.7153
  173MOL0     C23803  10.269   3.575   7.248 -0.0247 -1.0241 -0.2245
  173MOL0     C23804  10.300   3.503   7.373 -0.5700 -0.7324  0.2138
  173MOL0     H23805   9.677   3.828   7.289  0.1770 -0.5442 -0.0672
  173MOL0     H23806   9.513   3.819   7.474 -0.3052 -2.7404 -2.9786
  173MOL0     H23807   9.694   3.765   7.890 -0.1242  0.0666 -0.4858
  173MOL0     H23808   9.529   3.712   7.887  2.1624 -1.3199  1.8002
  173MOL0     H23809   9.608   3.901   8.041  2.3862  0.4858 -0.9315
  173MOL0     H23810   9.648   3.992   7.901  3.1766 -1.5136  2.2137
  173MOL0     H23811   9.438   4.056   7.860  3.9711  2.0808  0.9942
  173MOL0     H23812   9.367   3.896   7.881  1.3028  0.4831  0.1498
  173MOL0     H23813   9.313   3.935   8.106  0.4479 -0.6463 -1.0262
  173MOL0     H23814   9.456   4.027   8.136 -2.1610 -1.1336  3.2153
  173MOL0     H23815   9.223   4.139   7.947 -0.3844  0.7180  0.5487
  173MOL0     H23816   9.350   4.225   8.021  3.4959 -0.2795  2.8593
  173MOL0     H23817   9.228   4.116   8.252  0.8246  1.7388 -0.6711
  173MOL0     H23818   9.165   4.259   8.196  3.1732 -0.5443  3.6539
  173MOL0     H23819   8.995   4.145   8.065 -0.2549  0.1310  0.0142
  173MOL0     H23820   8.976   4.117   8.236 -1.0332  2.1325 -1.0147
  173MOL0     H23821   9.114   3.921   8.045  4.5374  2.2073  2.3864
  173MOL0     H23822   9.103   3.909   8.218  1.2511 -0.4408 -1.5373
  173MOL0     H23823   8.852   3.912   7.906 -0.8627 -1.7761 -2.0222
  173MOL0     H23824   8.565   3.859   7.931  0.2109 -0.7379 -0.1817
  173MOL0     H23825   8.546   3.694   8.001  0.8835 -3.2172 -0.5717
  173MOL0     H23826   8.553   3.703   7.743 -0.0968  0.7752  2.1799
  173MOL0     H23827   8.725   3.750   7.756  1.0226  1.3054  2.2427
  173MOL0     H23828   8.611   3.500   7.896 -1.4233  0.1955 -2.0085
  173MOL0     H23829   8.681   3.485   7.734  1.8686 -2.0781  0.8622
  173MOL0     H23830   8.903   3.578   7.843  0.3534 -0.1417 -1.9784
  173MOL0     H23831   8.807   3.556   7.990  1.9437  1.0067 -0.1224
  173MOL0     H23832   8.838   3.139   7.878  0.4786  1.3821  1.6503
  173MOL0     H23833   9.019   2.921   8.034 -0.0812  0.8353 -0.9703
  173MOL0     H23834   9.101   2.898   7.883 -1.7999 -3.2472 -1.8459
  173MOL0     H23835   8.930   2.921   7.879  0.0792  0.7394 -0.9602
  173MOL0     H23836   9.411   2.737   8.079 -1.8127  0.5344  0.9253
  173MOL0     H23837   9.610   2.695   8.203 -0.1694  0.1796  2.6490
  173MOL0     H23838   9.805   2.785   8.574  0.1896 -1.1727 -1.6717
  173MOL0     H23839   9.677   2.906   8.584  4.3956  1.1112  1.1837
  173MOL0     H23840   9.603   2.693   8.664 -0.5815 -0.9763 -0.0696
  173MOL0     H23841   9.519   2.738   8.510  0.3858  3.2597  0.5116
  173MOL0     H23842   9.767   2.576   8.494 -0.3157 -0.8062 -1.0033
  173MOL0     H23843   9.616   2.537   8.422 -3.1671  2.7067  1.4856
  173MOL0     H23844   9.669   2.477   8.726  0.1848 -0.1795 -0.3797
  173MOL0     H23845   9.668   2.357   8.591  0.3300 -0.4374  0.4883
  173MOL0     H23846   9.470   2.369   8.742 -1.9694 -1.7744 -0.4987
  173MOL0     H23847   9.432   2.530   8.681 -0.0845  1.0987 -0.8846
  173MOL0     H23848   9.385   2.456   8.460  0.0784 -1.9498 -1.8681
  173MOL0     H23849   9.298   2.369   8.574  0.0499  0.8658 -1.8629
  173MOL0     H23850   9.483   2.176   8.549  0.2518  1.3031 -0.3205
  173MOL0     H23851   9.550   2.271   8.424  0.0329 -3.1149 -1.5179
  173MOL0     H23852   9.350   2.285   8.307  2.6314 -0.1438 -1.1339
  173MOL0     H23853   9.256   2.172   8.421  0.6338  0.0170  1.6106
  173MOL0     H23854   9.593   3.063   8.406 -0.6423  0.9334 -0.4458
  173MOL0     H23855   9.399   3.122   8.290  2.4148 -0.2821  1.4134
  173MOL0     H23856   9.263   3.329   8.036 -0.5186  1.6024 -3.1038
  173MOL0     H23857   9.062   3.482   7.972 -0.0108  1.4424  0.0186
  173MOL0     H23858   9.838   3.780   7.755 -1.0227  1.7196  0.2376
  173MOL0     H23859   9.994   3.765   7.572  0.4958  2.8355 -3.4426
  173MOL0     H23860  10.058   3.804   7.104  1.4402  0.9597 -0.0368
  173MOL0     H23861  10.248   3.807   6.927  3.8486  1.4739 -0.2244
  173MOL0     H23862  10.616   3.572   6.849  0.7374  0.5935  1.4768
  173MOL0     H23863  10.585   3.506   6.991  3.0773 -2.4718 -2.5983
  173MOL0     H23864  10.388   3.391   6.938  2.3483 -1.9190  0.7730
  173MOL0     H23865  10.507   3.337   6.828 -0.2172 -0.2230 -0.0302
  173MOL0     H23866  10.289   3.378   6.704 -2.0236  3.6372 -2.3906
  173MOL0     H23867  10.284   3.536   6.788  2.5291  1.7175  0.8264
  173MOL0     H23868  10.497   3.585   6.627 -0.3002 -1.8552  0.6802
  173MOL0     H23869  10.331   3.588   6.559  1.3294  0.0969 -1.7531
  173MOL0     H23870  10.530   3.247   6.413 -2.3936 -1.5123 -1.2328
  173MOL0     H23871  10.458   3.517   7.172 -0.1420  0.8200  2.4503
  173MOL0     H23872  10.248   3.407   7.376  0.6114 -1.4569 -1.1929
  173MOL0     H23873  10.405   3.472   7.370 -0.3052  0.1552  0.2121
  173MOL0     H23874  10.280   3.546   7.472 -2.2601 -1.5289  0.2446
  174MOL0     O23875   2.584   3.585   2.461 -0.2263  0.0250 -0.4165
  174MOL0     C23876   2.544   3.500   2.386  0.3033 -0.3598  0.5207
  174MOL0     O23877   2.491   3.380   2.420  0.3819  0.4674 -0.8767
  174MOL0     C23878   2.472   3.359   2.555 -0.3171  0.1789 -0.4468
  174MOL0     C23879   2.348   3.322   2.616  0.3404 -0.0862 -0.0039
  174MOL0     C23880   2.354   3.285   2.750 -0.5517  0.2768  0.4798
  174MOL0     C23881   2.473   3.297   2.829  0.8632 -0.4377  0.2846
  174MOL0     O23882   2.478   3.259   2.966  0.3560 -0.0255  0.7441
  174MOL0     C23883   2.581   3.312   3.048 -0.3251  0.8904  0.1883
  174MOL0     C23884   2.572   3.266   3.196  0.4378  0.2173 -0.2376
  174MOL0     C23885   2.596   3.113   3.197  1.3593 -0.2438  0.5209
  174MOL0     C23886   2.739   3.050   3.184  0.8976  0.2775  1.0093
  174MOL0     C23887   2.723   2.904   3.134  0.1676 -0.3971 -1.0912
  174MOL0     C23888   2.685   2.883   2.990  0.3682  0.2648  0.5138
  174MOL0     C23889   2.661   2.741   2.950 -0.3341  1.2917 -0.3221
  174MOL0     C23890   2.607   2.714   2.810 -1.2335  0.3375 -0.2557
  174MOL0     N23891   2.468   2.772   2.800  0.4166  0.7412 -0.2735
  174MOL0     C23892   2.435   2.886   2.732 -0.5871 -0.0076 -0.4780
  174MOL0     C23893   2.306   2.873   2.691  0.0036  0.4274  0.0999
  174MOL0     C23894   2.222   2.962   2.599  0.0128  0.1629  0.1772
  174MOL0     C23895   2.232   2.912   2.458 -0.3039 -0.3327  0.7145
  174MOL0     C23896   2.352   2.971   2.392  0.1677 -0.2338 -0.5546
  174MOL0     C23897   2.345   2.953   2.238 -0.1643 -0.4126 -0.0717
  174MOL0     O23898   2.219   2.998   2.188  0.1636 -0.1070  0.7738
  174MOL0     C23899   2.219   2.983   2.052  0.2335 -0.1693  0.1022
  174MOL0     C23900   2.182   2.866   1.992  0.3749  0.4686  0.4697
  174MOL0     C23901   2.177   2.858   1.851 -0.7245 -1.2090 -0.1018
  174MOL0     C23902   2.152   2.726   1.800 -0.5483 -0.1727 -0.2315
  174MOL0     C23903   2.199   2.977   1.770  0.5886 -0.3436 -0.4874
  174MOL0     C23904   2.190   2.985   1.621 -1.4135  0.8577 -0.2229
  174MOL0     O23905   2.229   3.106   1.574 -0.0570 -0.6410 -0.3394
  174MOL0     C23906   2.226   3.134   1.439  0.4926  0.0332  0.8344
  174MOL0     C23907   2.302   3.063   1.340 -0.1144 -0.2395 -1.1499
  174MOL0     C23908   2.312   3.101   1.208 -0.0785  0.4475  0.3378
  174MOL0     C23909   2.228   3.204   1.160 -0.1676  0.3251 -0.7696
  174MOL0     O23910   2.227   3.233   1.027 -0.2832  0.4044 -0.5368
  174MOL0     C23911   2.356   3.233   0.958 -0.0669 -0.4300 -0.4349
  174MOL0     C23912   2.401   3.370   0.939  0.1367 -0.9565 -0.8795
  174MOL0     C23913   2.323   3.437   0.822  0.9996  0.0784  0.1207
  174MOL0     C23914   2.415   3.480   0.703 -0.1838  0.2160  0.2327
  174MOL0     C23915   2.338   3.541   0.588  0.8544 -0.2994 -0.1827
  174MOL0     C23916   2.453   3.564   0.481  0.7279 -1.0636  1.2296
  174MOL0     C23917   2.410   3.584   0.334  0.3949 -0.3959 -0.8031
  174MOL0     C23918   2.378   3.728   0.330 -1.0597  0.2466 -0.6991
  174MOL0    Cl23919   2.382   3.797   0.159 -0.1397 -0.3532  0.5480
  174MOL0     C23920   2.144   3.281   1.252  0.5928  0.5928  0.4044
  174MOL0     C23921   2.147   3.236   1.390 -0.3496 -0.7670  0.6763
  174MOL0     O23922   2.120   2.900   1.560  0.2216  0.0727  0.0324
  174MOL0     C23923   2.237   3.094   1.848 -0.4560  0.3347 -0.3869
  174MOL0     C23924   2.245   3.095   1.985  0.0530 -0.2186  0.2880
  174MOL0     N23925   2.261   2.761   2.760  0.2843  0.3464 -0.2186
  174MOL0     N23926   2.361   2.699   2.815 -0.2308  0.3227  0.7217
  174MOL0     C23927   2.589   3.345   2.763 -0.3003 -0.4420 -0.7685
  174MOL0     C23928   2.592   3.347   2.624  0.5022  1.0461  0.0560
  174MOL0     C23929   2.531   3.538   2.245  0.3576 -0.2928 -0.4719
  174MOL0     C23930   2.449   3.454   2.157  0.5927 -0.3903 -0.2633
  174MOL0     C23931   2.442   3.484   2.021 -0.0750  0.6292  0.6989
  174MOL0     C23932   2.505   3.590   1.961  0.3788 -0.8533  0.4309
  174MOL0     O23933   2.479   3.615   1.832 -0.3415 -1.3691 -0.4041
  174MOL0     C23934   2.525   3.730   1.760 -0.1727 -0.4728  0.3707
  174MOL0     C23935   2.443   3.851   1.801  0.2842  0.5107 -0.2193
  174MOL0     C23936   2.432   3.957   1.685 -1.3148  0.1791  0.2948
  174MOL0     C23937   2.307   4.033   1.698 -0.0165  0.3007  0.2928
  174MOL0     C23938   2.289   4.137   1.598  0.2271 -0.1039  0.6997
  174MOL0     C23939   2.253   4.223   1.514  0.0561 -0.4457  0.3797
  174MOL0     C23940   2.572   3.670   2.049 -1.7698 -0.4964 -0.4656
  174MOL0     C23941   2.590   3.648   2.181  0.8519  0.1788  0.9096
  174MOL0     C23942   2.678   3.743   2.255 -0.4622  0.8919  0.4098
  174MOL0     H23943   2.251   3.315   2.567  0.6283  0.5425 -0.6761
  174MOL0     H23944   2.263   3.251   2.798  0.1263 -2.1685  0.1673
  174MOL0     H23945   2.584   3.421   3.051 -0.7693  0.9112  2.9979
  174MOL0     H23946   2.674   3.267   3.010 -1.4381 -3.2267  1.7395
  174MOL0     H23947   2.645   3.310   3.264 -0.9504  2.6806 -0.2223
  174MOL0     H23948   2.472   3.300   3.226  0.7602  1.6095 -0.6972
  174MOL0     H23949   2.575   3.087   3.301 -1.9239  2.5615  0.7468
  174MOL0     H23950   2.520   3.078   3.127  1.4608 -3.1230  1.7182
  174MOL0     H23951   2.802   3.113   3.121  1.1061 -0.5851  0.3331
  174MOL0     H23952   2.784   3.062   3.283 -1.1360  0.6623  1.9550
  174MOL0     H23953   2.652   2.861   3.204  0.9265  0.6577  0.3793
  174MOL0     H23954   2.822   2.860   3.148 -0.2391 -1.5150 -1.5966
  174MOL0     H23955   2.604   2.947   2.955 -1.1563 -1.4889  0.6717
  174MOL0     H23956   2.781   2.906   2.942 -0.2083 -0.5164 -1.0981
  174MOL0     H23957   2.594   2.701   3.027 -1.8138  2.5218 -0.9181
  174MOL0     H23958   2.764   2.703   2.950 -0.5349  0.7245  0.3385
  174MOL0     H23959   2.673   2.768   2.741 -0.5390 -3.0681 -2.5017
  174MOL0     H23960   2.607   2.607   2.788  3.6954  0.0072  0.2280
  174MOL0     H23961   2.499   2.968   2.700 -2.5342  1.1205 -1.6942
  174MOL0     H23962   2.241   3.069   2.613 -0.1831 -0.0123  2.0591
  174MOL0     H23963   2.120   2.947   2.635 -0.8727  3.6011 -0.5315
  174MOL0     H23964   2.244   2.805   2.473  1.9414  0.0865  2.4431
  174MOL0     H23965   2.143   2.940   2.401 -0.5684 -1.3031  0.6330
  174MOL0     H23966   2.355   3.079   2.409 -2.5420  0.0732 -1.5574
  174MOL0     H23967   2.437   2.912   2.428 -2.2360 -1.3194  4.1259
  174MOL0     H23968   2.420   3.014   2.187 -0.5123 -0.9279 -1.2361
  174MOL0     H23969   2.357   2.851   2.202  2.3550 -0.3105  0.2903
  174MOL0     H23970   2.177   2.781   2.060  1.3153 -0.5788 -0.7344
  174MOL0     H23971   2.217   2.701   1.716  1.2612  1.4728  0.6134
  174MOL0     H23972   2.044   2.716   1.782  0.0117 -2.9203 -2.8741
  174MOL0     H23973   2.175   2.643   1.868  1.3315 -1.1667 -1.9716
  174MOL0     H23974   2.367   2.984   1.377  0.1613 -1.2745 -3.6184
  174MOL0     H23975   2.361   3.037   1.136 -1.4599  1.0699 -1.2274
  174MOL0     H23976   2.446   3.189   1.001  1.0235  2.5970  0.6734
  174MOL0     H23977   2.349   3.179   0.863  2.4998 -1.8150  0.0737
  174MOL0     H23978   2.376   3.427   1.029 -0.0990 -0.5130 -1.2177
  174MOL0     H23979   2.508   3.364   0.916  0.0531  0.7255 -1.9041
  174MOL0     H23980   2.263   3.524   0.850 -2.8260 -2.2345 -0.2528
  174MOL0     H23981   2.255   3.366   0.774 -0.1495  1.3747 -0.2292
  174MOL0     H23982   2.481   3.400   0.668 -1.4497  0.2602 -2.5093
  174MOL0     H23983   2.487   3.556   0.735 -0.2792  0.5187 -0.2645
  174MOL0     H23984   2.259   3.476   0.547  0.7708 -1.0143  1.0599
  174MOL0     H23985   2.286   3.626   0.633  0.7532 -1.1210  1.3318
  174MOL0     H23986   2.529   3.485   0.482  3.3206  1.2400 -0.0086
  174MOL0     H23987   2.513   3.647   0.518  0.9925 -0.6927  0.0161
  174MOL0     H23988   2.322   3.529   0.296 -0.2406  0.7239 -0.9843
  174MOL0     H23989   2.500   3.566   0.276  0.3488 -2.7692 -0.2480
  174MOL0     H23990   2.449   3.797   0.377 -0.6802 -2.5900  3.4062
  174MOL0     H23991   2.290   3.753   0.391  1.7036  1.3745  3.2471
  174MOL0     H23992   2.078   3.356   1.210  0.7013 -0.0721 -1.0323
  174MOL0     H23993   2.089   3.298   1.457 -0.1715  0.4417 -0.2425
  174MOL0     H23994   2.261   3.193   1.811  2.3118 -0.5331 -1.1501
  174MOL0     H23995   2.271   3.183   2.042  0.7339 -0.0612 -0.2472
  174MOL0     H23996   2.686   3.337   2.812  0.2464  1.0191 -1.5880
  174MOL0     H23997   2.689   3.362   2.578  1.2875  1.6573  1.7916
  174MOL0     H23998   2.396   3.366   2.194 -3.1012  2.2661  1.4178
  174MOL0     H23999   2.395   3.407   1.960  2.3969  0.3865 -1.0289
  174MOL0     H24000   2.633   3.735   1.780  0.6556 -3.6256 -2.3132
  174MOL0     H24001   2.514   3.714   1.652  0.2524 -1.1006  0.4138
  174MOL0     H24002   2.491   3.884   1.894  1.7792 -0.1232 -0.7403
  174MOL0     H24003   2.345   3.807   1.825  1.1589 -1.3894  0.0128
  174MOL0     H24004   2.526   4.013   1.686 -0.2277 -1.5038 -1.2830
  174MOL0     H24005   2.426   3.895   1.596  0.3822  0.9846 -0.4224
  174MOL0     H24006   2.304   4.079   1.798  1.7073  0.3181  0.3698
  174MOL0     H24007   2.221   3.967   1.684 -2.2521  3.5192 -2.9159
  174MOL0     H24008   2.245   4.305   1.445  3.0469 -0.0382  0.3765
  174MOL0     H24009   2.626   3.758   2.014  0.6394 -3.2757 -4.4655
  174MOL0     H24010   2.615   3.824   2.293 -0.8174  1.1210 -0.6369
  174MOL0     H24011   2.748   3.709   2.332  0.7911 -2.4153 -1.9665
  174MOL0     H24012   2.738   3.796   2.180  0.2321  0.2121  0.4687
  175MOL0     O24013   9.569   3.537   9.033 -0.4967 -0.6968  0.3755
  175MOL0     C24014   9.466   3.556   9.100 -0.1754  0.2653 -0.4013
  175MOL0     O24015   9.331   3.564   9.054 -0.1158 -0.3544  0.8175
  175MOL0     C24016   9.288   3.523   8.929  0.0945  0.1928 -0.3447
  175MOL0     C24017   9.365   3.505   8.812  0.0063 -0.7815  0.2458
  175MOL0     C24018   9.307   3.450   8.694 -0.1806 -0.6401 -0.2188
  175MOL0     C24019   9.180   3.406   8.697  1.4410  0.2970 -0.1257
  175MOL0     O24020   9.124   3.341   8.594  0.2003  0.6051  0.0417
  175MOL0     C24021   9.052   3.427   8.501 -0.2463 -0.5917 -1.0545
  175MOL0     C24022   9.030   3.359   8.355 -1.3497 -0.5187 -0.6811
  175MOL0     C24023   8.911   3.261   8.339  0.5228 -0.1286 -0.7490
  175MOL0     C24024   8.954   3.116   8.350 -0.1110 -0.4126  0.4105
  175MOL0     C24025   8.841   3.021   8.394  1.0119 -0.2086 -0.2176
  175MOL0     C24026   8.786   3.080   8.531  0.3793  0.2194 -0.9001
  175MOL0     C24027   8.705   2.967   8.595 -0.1563  0.1087 -0.1387
  175MOL0     C24028   8.658   3.015   8.731 -1.0506  0.3799  0.1713
  175MOL0     N24029   8.535   3.088   8.721 -1.2698 -0.7939 -0.2294
  175MOL0     C24030   8.404   3.040   8.749 -0.8025  0.4566  0.2757
  175MOL0     C24031   8.317   3.143   8.712  0.0096  0.1488 -0.2444
  175MOL0     C24032   8.156   3.136   8.711  0.3536 -1.2103 -0.1233
  175MOL0     C24033   8.096   3.096   8.849 -0.2974 -1.2193 -0.3245
  175MOL0     C24034   8.089   3.208   8.959 -0.3837  0.5178  0.9745
  175MOL0     C24035   8.226   3.241   9.015 -0.2139 -0.2902  0.3815
  175MOL0     O24036   8.275   3.109   9.068  0.1376 -0.5949  0.1844
  175MOL0     C24037   8.408   3.089   9.091  0.6955  0.0505  1.1454
  175MOL0     C24038   8.473   2.973   9.059  0.5669 -0.6607  0.1560
  175MOL0     C24039   8.606   2.961   9.073 -0.5717 -0.1685  0.2146
  175MOL0     C24040   8.649   2.825   9.060 -0.4121 -0.5414  1.0749
  175MOL0     C24041   8.678   3.081   9.103  0.2648  0.3438 -0.2350
  175MOL0     C24042   8.836   3.082   9.112  0.1799  0.0400  0.9774
  175MOL0     O24043   8.908   3.190   9.167  0.6318  1.1074 -0.2676
  175MOL0     C24044   9.041   3.178   9.209  0.2242 -0.2887  0.1599
  175MOL0     C24045   9.063   3.155   9.351 -0.2186  0.4076  0.7294
  175MOL0     C24046   9.195   3.161   9.385 -0.5315 -0.8477  0.0012
  175MOL0     C24047   9.300   3.163   9.293 -0.7758 -0.2059  0.3233
  175MOL0     O24048   9.428   3.149   9.339  0.1540 -0.6263  0.2073
  175MOL0     C24049   9.525   3.263   9.328  0.9144  0.2487  0.4197
  175MOL0     C24050   9.671   3.224   9.321  0.0650  0.1012  0.5302
  175MOL0     C24051   9.708   3.154   9.457 -0.0687 -0.1406  0.1185
  175MOL0     C24052   9.863   3.178   9.481  0.6771  0.5878  0.5712
  175MOL0     C24053   9.924   3.107   9.609  0.6212  0.4572 -0.0411
  175MOL0     C24054   9.863   3.151   9.738  0.0023  0.0930 -0.5721
  175MOL0     C24055   9.917   3.066   9.859  0.0440 -0.0337 -1.4343
  175MOL0     C24056   9.881   3.112   9.993 -0.5607  0.6517  0.0349
  175MOL0    Cl24057   9.723   3.047  10.024  0.4768  0.2468 -0.5561
  175MOL0     C24058   9.272   3.170   9.162  0.4548  0.7271  0.0802
  175MOL0     C24059   9.148   3.188   9.117 -0.1922 -0.9148  0.0622
  175MOL0     O24060   8.885   2.998   9.037  0.1180 -0.4945  0.0152
  175MOL0     C24061   8.615   3.201   9.124  0.1168  0.5049  0.4801
  175MOL0     C24062   8.482   3.204   9.127  0.7539  0.5103  0.1967
  175MOL0     N24063   8.394   3.246   8.662  0.0326  0.2104 -0.7182
  175MOL0     N24064   8.517   3.211   8.666  0.8008 -0.2253  0.2722
  175MOL0     C24065   9.098   3.422   8.812 -0.4460 -0.2762 -0.4280
  175MOL0     C24066   9.160   3.481   8.928 -0.6210  0.8675  0.1899
  175MOL0     C24067   9.494   3.588   9.238  0.3804  0.9525 -0.5091
  175MOL0     C24068   9.630   3.577   9.281  0.5447 -0.4341  0.0009
  175MOL0     C24069   9.663   3.614   9.407  0.2602 -0.1894 -0.4039
  175MOL0     C24070   9.571   3.652   9.504 -0.6571 -0.2454 -0.0611
  175MOL0     O24071   9.621   3.693   9.626 -0.4858  0.0376  0.8869
  175MOL0     C24072   9.563   3.626   9.734  0.5345 -0.5914 -0.2247
  175MOL0     C24073   9.627   3.483   9.736 -0.3033 -0.1585 -1.0112
  175MOL0     C24074   9.566   3.387   9.848  0.8098  0.3259  0.2253
  175MOL0     C24075   9.452   3.305   9.794 -0.4420 -0.4845  0.0782
  175MOL0     C24076   9.361   3.362   9.706  0.0094 -1.2947  0.9350
  175MOL0     C24077   9.273   3.387   9.623 -0.1050 -0.6622 -0.1959
  175MOL0     C24078   9.434   3.643   9.474  0.0572 -0.6293  0.1086
  175MOL0     C24079   9.396   3.617   9.338  0.9774  1.0522  0.1647
  175MOL0     C24080   9.248   3.626   9.317 -0.3952  0.3525 -0.5699
  175MOL0     H24081   9.472   3.526   8.814 -0.3134  1.2829  3.7548
  175MOL0     H24082   9.362   3.452   8.601 -0.4650  1.0960 -0.3835
  175MOL0     H24083   9.109   3.519   8.483  0.2914 -1.1818 -2.4472
  175MOL0     H24084   8.967   3.458   8.562 -0.0377 -1.9642 -0.0213
  175MOL0     H24085   8.994   3.445   8.299 -0.5003  0.8947  0.8637
  175MOL0     H24086   9.121   3.308   8.321 -2.0286  0.4366 -4.4062
  175MOL0     H24087   8.835   3.294   8.410 -1.6156 -2.6438 -1.6721
  175MOL0     H24088   8.871   3.275   8.238  2.3993 -2.3345 -1.9087
  175MOL0     H24089   8.999   3.083   8.255 -0.5295  1.5205 -0.5296
  175MOL0     H24090   9.030   3.112   8.428 -0.5914 -0.0966  0.9025
  175MOL0     H24091   8.878   2.920   8.409  4.3770  0.4853 -2.5918
  175MOL0     H24092   8.759   3.028   8.321 -0.6826 -2.0164  1.3866
  175MOL0     H24093   8.862   3.100   8.607  0.6200 -0.7477 -0.8728
  175MOL0     H24094   8.731   3.174   8.530  4.2151  2.6538 -0.6872
  175MOL0     H24095   8.756   2.871   8.605 -0.9721 -0.3037  0.1826
  175MOL0     H24096   8.620   2.962   8.527  0.5507  1.7308 -1.2099
  175MOL0     H24097   8.645   2.934   8.804  2.8662  1.3895  2.2641
  175MOL0     H24098   8.734   3.079   8.778  1.2856 -0.9500 -1.5693
  175MOL0     H24099   8.383   2.937   8.779  4.8665 -1.2320 -0.3131
  175MOL0     H24100   8.122   3.078   8.624  2.5354  2.1133 -3.4723
  175MOL0     H24101   8.112   3.233   8.684  0.3036 -1.6339 -1.6821
  175MOL0     H24102   7.993   3.064   8.835 -0.9840  0.1908  1.1619
  175MOL0     H24103   8.156   3.009   8.878  2.2755  0.5931  0.1502
  175MOL0     H24104   8.058   3.304   8.916  2.8144  1.3461  0.2303
  175MOL0     H24105   8.020   3.181   9.039  0.1797 -0.9454  0.9938
  175MOL0     H24106   8.294   3.281   8.939 -1.5039  0.7895 -0.2468
  175MOL0     H24107   8.212   3.318   9.091  0.9275 -2.0913  2.5211
  175MOL0     H24108   8.409   2.892   9.028 -2.9646  0.3026  4.1219
  175MOL0     H24109   8.729   2.809   8.986 -1.5531 -1.7811  0.0467
  175MOL0     H24110   8.567   2.753   9.050  0.4766 -1.4515  0.0794
  175MOL0     H24111   8.688   2.805   9.160 -1.7107 -1.9577  1.3350
  175MOL0     H24112   8.976   3.144   9.415 -1.1148  0.9386 -0.3499
  175MOL0     H24113   9.209   3.157   9.493 -0.5881 -2.3951 -0.0190
  175MOL0     H24114   9.511   3.310   9.230 -0.9655 -1.8834 -0.4234
  175MOL0     H24115   9.504   3.329   9.413  2.2000  3.0896 -1.3316
  175MOL0     H24116   9.682   3.149   9.241 -0.0453  2.6760 -2.0823
  175MOL0     H24117   9.733   3.312   9.299  1.1874 -0.7690  0.0854
  175MOL0     H24118   9.694   3.045   9.452  0.5817 -0.3558  1.9661
  175MOL0     H24119   9.653   3.196   9.542  1.5540  0.9490  0.6684
  175MOL0     H24120   9.893   3.282   9.466 -1.8612  1.4102  0.6974
  175MOL0     H24121   9.912   3.132   9.395  0.6038  0.7787  0.4265
  175MOL0     H24122   9.908   2.998   9.606  2.2772  0.0783  2.1157
  175MOL0     H24123  10.033   3.113   9.600  0.9416 -1.7195  1.3198
  175MOL0     H24124   9.755   3.132   9.738 -0.1180  0.7609 -1.4274
  175MOL0     H24125   9.880   3.259   9.743  1.2866 -0.0344 -1.5883
  175MOL0     H24126  10.026   3.065   9.851  0.0417  1.6680 -2.0745
  175MOL0     H24127   9.873   2.967   9.852 -0.6175  0.2424 -1.2101
  175MOL0     H24128   9.874   3.221  10.003 -3.2599  0.6000 -0.4740
  175MOL0     H24129   9.951   3.075  10.068  0.7255  3.2600  0.2437
  175MOL0     H24130   9.344   3.166   9.081  1.3446 -1.6475  0.8888
  175MOL0     H24131   9.135   3.214   9.012  1.4969 -0.0677  0.0279
  175MOL0     H24132   8.675   3.286   9.156 -0.5442 -0.1601  3.9111
  175MOL0     H24133   8.422   3.292   9.146  2.0628  2.0558 -2.3013
  175MOL0     H24134   9.003   3.373   8.829 -0.4564  0.7429  3.2238
  175MOL0     H24135   9.111   3.501   9.023  2.8302 -0.5196  2.4798
  175MOL0     H24136   9.709   3.540   9.216  2.3395  4.2814 -0.8787
  175MOL0     H24137   9.770   3.615   9.426  0.2547  2.6981 -0.1013
  175MOL0     H24138   9.572   3.693   9.820  2.0842 -1.9704  0.7404
  175MOL0     H24139   9.455   3.619   9.723  0.4476  2.0864 -2.1020
  175MOL0     H24140   9.733   3.498   9.759 -0.5157  0.1366 -0.1720
  175MOL0     H24141   9.605   3.437   9.640 -0.9493  0.5771 -1.2263
  175MOL0     H24142   9.645   3.323   9.889  2.7741  2.6878  0.3698
  175MOL0     H24143   9.531   3.456   9.926  1.0348  3.3677 -2.1955
  175MOL0     H24144   9.403   3.263   9.882 -0.4500  0.1820  0.4010
  175MOL0     H24145   9.498   3.227   9.733 -2.6427 -1.8735  0.0685
  175MOL0     H24146   9.204   3.426   9.552  0.2183 -0.0549 -0.1829
  175MOL0     H24147   9.356   3.666   9.546  1.1689 -0.1925  1.2323
  175MOL0     H24148   9.229   3.521   9.293  2.9865 -0.9408  1.7000
  175MOL0     H24149   9.185   3.651   9.403  1.7013 -1.5130  1.6271
  175MOL0     H24150   9.242   3.704   9.240  2.9538  0.7978 -0.5234
  176MOL0     O24151   4.468   4.702   1.596 -0.1859  0.1162 -0.3070
  176MOL0     C24152   4.544   4.752   1.676 -0.2852 -0.6462 -0.6816
  176MOL0     O24153   4.525   4.867   1.746  0.4233  0.0598  0.7621
  176MOL0     C24154   4.442   4.968   1.702  0.0565 -0.6001 -0.7615
  176MOL0     C24155   4.301   4.949   1.696  0.4486  0.0931 -0.0363
  176MOL0     C24156   4.209   5.048   1.656 -0.4041  0.0979 -1.0464
  176MOL0     C24157   4.270   5.176   1.621  0.7862  0.3251  0.2283
  176MOL0     O24158   4.197   5.279   1.590  0.5880 -0.0587 -1.7579
  176MOL0     C24159   4.061   5.302   1.650 -0.1452  0.5470  0.4666
  176MOL0     C24160   4.003   5.425   1.619  0.2609  0.4765 -0.1085
  176MOL0     C24161   3.998   5.446   1.464 -0.4981  0.0866  0.0866
  176MOL0     C24162   3.900   5.551   1.409  0.8167 -0.3625  0.2935
  176MOL0     C24163   3.902   5.559   1.256  0.2894 -0.0990 -0.7362
  176MOL0     C24164   3.828   5.448   1.190  0.1792  0.5735 -0.0995
  176MOL0     C24165   3.681   5.457   1.209 -0.3376  0.3739 -0.4956
  176MOL0     C24166   3.614   5.355   1.107 -0.1891 -0.2524 -0.2999
  176MOL0     N24167   3.590   5.428   0.985  0.0633 -0.6870 -0.2869
  176MOL0     C24168   3.658   5.406   0.873 -0.0233  0.1607  1.2166
  176MOL0     C24169   3.632   5.507   0.790  0.3169 -0.6715 -0.0050
  176MOL0     C24170   3.689   5.516   0.648  0.1487 -0.4661  0.9245
  176MOL0     C24171   3.585   5.576   0.557  0.1108 -0.3332 -0.5456
  176MOL0     C24172   3.613   5.571   0.408 -0.7688 -1.3517  1.2629
  176MOL0     C24173   3.751   5.623   0.371 -0.2595  0.0318 -0.9437
  176MOL0     O24174   3.767   5.763   0.413 -0.0849 -0.0611  0.0678
  176MOL0     C24175   3.879   5.824   0.371  0.0406  0.4971 -0.9217
  176MOL0     C24176   3.937   5.895   0.466 -0.0671 -0.4190 -0.0685
  176MOL0     C24177   4.059   5.969   0.448  0.0755 -0.1787  0.8702
  176MOL0     C24178   4.120   6.039   0.556  0.4488  0.2947  0.8196
  176MOL0     C24179   4.125   5.957   0.319  0.1903 -0.0831 -0.0991
  176MOL0     C24180   4.256   6.019   0.275 -0.4492  0.7442 -0.1174
  176MOL0     O24181   4.296   5.992   0.148 -0.1036  0.3464  0.0616
  176MOL0     C24182   4.388   6.071   0.094 -0.0648 -0.3625 -0.1658
  176MOL0     C24183   4.528   6.054   0.113  0.2204 -0.4465  0.0332
  176MOL0     C24184   4.620   6.130   0.045 -0.2358  0.3424  1.1890
  176MOL0     C24185   4.574   6.217  -0.059 -0.4797 -0.5408 -0.5025
  176MOL0     O24186   4.667   6.290  -0.123  0.6150  0.2831 -0.1386
  176MOL0     C24187   4.636   6.355  -0.249  1.0213  0.6762  0.1022
  176MOL0     C24188   4.761   6.431  -0.294  0.7945  1.0252  0.8291
  176MOL0     C24189   4.816   6.546  -0.208 -1.0312 -0.4698  0.7419
  176MOL0     C24190   4.945   6.593  -0.270 -0.3666  0.4204  0.0976
  176MOL0     C24191   5.012   6.712  -0.209 -0.4731  0.2054  0.3682
  176MOL0     C24192   5.152   6.726  -0.252  0.0316 -0.4485  0.4144
  176MOL0     C24193   5.205   6.861  -0.211 -0.4929  0.5107  0.0962
  176MOL0     C24194   5.163   6.985  -0.293  0.4617  0.2135  0.4516
  176MOL0    Cl24195   5.253   7.124  -0.241  0.0372 -0.7223 -0.0213
  176MOL0     C24196   4.440   6.221  -0.087  0.1952  0.0610  0.4497
  176MOL0     C24197   4.342   6.143  -0.016  0.9617  0.3558 -0.0745
  176MOL0     O24198   4.319   6.087   0.348  0.4678  0.0209  0.1166
  176MOL0     C24199   4.053   5.879   0.217  0.2118 -0.3662 -0.5963
  176MOL0     C24200   3.930   5.821   0.243 -0.4083  1.0670 -0.1825
  176MOL0     N24201   3.528   5.583   0.841  0.0663 -0.3142 -0.2800
  176MOL0     N24202   3.502   5.533   0.960  0.1748 -0.1563 -0.3906
  176MOL0     C24203   4.411   5.189   1.612  0.5590  0.1999  0.4743
  176MOL0     C24204   4.491   5.089   1.666  0.6587 -0.7965 -0.1643
  176MOL0     C24205   4.671   4.671   1.715 -0.2588 -1.5439  0.0153
  176MOL0     C24206   4.709   4.569   1.632 -0.4988  0.0363 -0.6923
  176MOL0     C24207   4.833   4.492   1.646 -0.6457  0.0051 -0.9356
  176MOL0     C24208   4.923   4.535   1.753  1.0610 -0.1566 -0.5003
  176MOL0     O24209   5.027   4.463   1.772  0.2880  0.7242  0.0106
  176MOL0     C24210   5.125   4.502   1.859 -1.4481 -0.4101 -0.0520
  176MOL0     C24211   5.241   4.400   1.839  0.0134 -0.1184 -0.2950
  176MOL0     C24212   5.213   4.261   1.884  0.4102  0.4658 -0.6062
  176MOL0     C24213   5.152   4.248   2.026  0.3062  0.0767  0.4497
  176MOL0     C24214   5.230   4.298   2.144  0.0552 -0.5435  0.3206
  176MOL0     C24215   5.268   4.337   2.252 -0.3337  0.3732  0.0519
  176MOL0     C24216   4.883   4.640   1.840  0.8373  0.6170  0.5803
  176MOL0     C24217   4.757   4.707   1.826  0.7492 -0.8547  0.7538
  176MOL0     C24218   4.726   4.811   1.925  0.5105 -0.5020 -0.1907
  176MOL0     H24219   4.271   4.845   1.705 -3.1083  0.6697 -2.8449
  176MOL0     H24220   4.102   5.033   1.651 -0.1182 -2.0079 -3.8643
  176MOL0     H24221   4.059   5.294   1.759  1.6449 -1.2984  0.4223
  176MOL0     H24222   3.991   5.228   1.609  1.1666  0.5210 -1.8970
  176MOL0     H24223   3.899   5.420   1.652  0.2525  0.8288 -0.0725
  176MOL0     H24224   4.047   5.510   1.672 -0.1030 -0.2469  1.4057
  176MOL0     H24225   4.098   5.477   1.433 -1.7036  3.2810 -1.0303
  176MOL0     H24226   3.986   5.352   1.409  1.2742  0.3933 -0.9027
  176MOL0     H24227   3.800   5.530   1.446  0.1124  1.7763 -0.2536
  176MOL0     H24228   3.921   5.652   1.448  0.8920 -0.6713  1.0625
  176MOL0     H24229   4.008   5.547   1.233 -0.3528 -0.8851 -3.7819
  176MOL0     H24230   3.868   5.658   1.222  0.7766  1.3004  2.4033
  176MOL0     H24231   3.851   5.449   1.083 -1.4223  1.3419 -0.4704
  176MOL0     H24232   3.849   5.346   1.224 -0.4557  0.7220  0.7789
  176MOL0     H24233   3.648   5.560   1.190  0.6376  0.5272 -1.5424
  176MOL0     H24234   3.655   5.412   1.305  1.0009 -1.8227 -1.1034
  176MOL0     H24235   3.668   5.261   1.091  4.3924  2.3505 -2.2505
  176MOL0     H24236   3.513   5.329   1.141 -1.9352  4.7632 -0.7913
  176MOL0     H24237   3.728   5.327   0.847 -2.0351 -0.3433 -3.7730
  176MOL0     H24238   3.708   5.415   0.611 -2.3015 -0.4017 -0.7049
  176MOL0     H24239   3.779   5.578   0.656  0.1405 -0.4706  1.0527
  176MOL0     H24240   3.500   5.509   0.570  1.2441 -1.4309  1.8610
  176MOL0     H24241   3.559   5.678   0.589 -2.5308 -1.1677  0.2037
  176MOL0     H24242   3.604   5.468   0.373 -1.4500 -0.7143 -0.5544
  176MOL0     H24243   3.536   5.620   0.348  0.9024 -2.6688 -2.2560
  176MOL0     H24244   3.829   5.567   0.423 -1.0960 -0.2297  0.0531
  176MOL0     H24245   3.776   5.611   0.265 -0.1302  0.3635 -0.9537
  176MOL0     H24246   3.886   5.902   0.561  0.0627 -3.8008  0.3894
  176MOL0     H24247   4.059   6.019   0.645  0.2344  0.2198  0.6578
  176MOL0     H24248   4.128   6.145   0.531  0.7144 -0.1022 -0.8758
  176MOL0     H24249   4.214   5.994   0.588 -0.7373 -2.5892  0.5987
  176MOL0     H24250   4.574   5.990   0.189  1.7087  1.8797  1.2076
  176MOL0     H24251   4.728   6.132   0.060 -0.1027  0.4277  0.2991
  176MOL0     H24252   4.616   6.281  -0.328  1.2381 -0.2952  0.9298
  176MOL0     H24253   4.550   6.422  -0.237  0.4333  0.1346 -0.9385
  176MOL0     H24254   4.827   6.344  -0.297 -3.7820 -2.8519 -1.6760
  176MOL0     H24255   4.739   6.465  -0.396 -1.5519  3.7891  2.0781
  176MOL0     H24256   4.832   6.514  -0.105 -0.9173 -2.5561  0.1257
  176MOL0     H24257   4.749   6.631  -0.191  0.7418  1.6048 -1.6968
  176MOL0     H24258   4.936   6.609  -0.378 -2.8110  0.6101  0.2757
  176MOL0     H24259   5.019   6.513  -0.255 -1.7307 -1.4320 -2.3415
  176MOL0     H24260   4.955   6.805  -0.223  0.0576  0.4187 -0.4272
  176MOL0     H24261   5.018   6.693  -0.101  0.5517  0.0057  0.2856
  176MOL0     H24262   5.165   6.704  -0.359  0.8573 -0.8620  0.5908
  176MOL0     H24263   5.211   6.652  -0.197  3.2173  2.6689  1.5719
  176MOL0     H24264   5.311   6.843  -0.235 -0.6249 -0.9590  0.5031
  176MOL0     H24265   5.192   6.869  -0.103 -2.5792  0.3458 -0.1100
  176MOL0     H24266   5.055   6.997  -0.281  0.6100  4.2570 -0.7012
  176MOL0     H24267   5.192   6.960  -0.396  0.1358  1.1667  0.1194
  176MOL0     H24268   4.387   6.279  -0.161 -0.4237 -0.5307  0.4199
  176MOL0     H24269   4.240   6.136  -0.053  0.9817  1.1624 -0.2880
  176MOL0     H24270   4.098   5.867   0.119 -1.0155  2.2036 -1.5902
  176MOL0     H24271   3.879   5.768   0.164 -0.7363  0.5248  0.3799
  176MOL0     H24272   4.457   5.281   1.578  1.2340  0.3421  1.7090
  176MOL0     H24273   4.599   5.097   1.669  0.5627  1.2727 -0.8828
  176MOL0     H24274   4.644   4.539   1.550 -2.3562  2.5287 -0.2157
  176MOL0     H24275   4.860   4.410   1.581 -0.2137 -0.8432  0.2774
  176MOL0     H24276   5.161   4.602   1.834 -0.9977 -0.9698 -1.8051
  176MOL0     H24277   5.102   4.491   1.965  1.8381 -0.6564  0.7580
  176MOL0     H24278   5.326   4.441   1.895  0.5462  1.6256 -2.2393
  176MOL0     H24279   5.275   4.394   1.735  2.7257 -0.5021  0.5434
  176MOL0     H24280   5.139   4.216   1.817 -4.0579  2.6693  2.3568
  176MOL0     H24281   5.307   4.207   1.878  0.5737  0.8232 -1.5366
  176MOL0     H24282   5.121   4.147   2.055 -0.7510  0.7633  1.7723
  176MOL0     H24283   5.055   4.297   2.013  0.2573 -0.4120 -1.3789
  176MOL0     H24284   5.318   4.362   2.343  0.7590  0.5738 -0.5851
  176MOL0     H24285   4.935   4.665   1.932  0.3621 -1.8802  1.6127
  176MOL0     H24286   4.624   4.802   1.963  1.1877  0.7120  2.1035
  176MOL0     H24287   4.787   4.827   2.015 -0.3039  1.6466  0.0345
  176MOL0     H24288   4.744   4.912   1.887  2.1932  2.0158  6.0089
  177MOL0     O24289   2.109   7.778   7.456  0.0315  0.2527 -0.0933
  177MOL0     C24290   2.209   7.741   7.529  0.5616 -0.8110  0.7941
  177MOL0     O24291   2.329   7.814   7.542  0.7921  0.1750 -0.3040
  177MOL0     C24292   2.342   7.923   7.463  0.5697 -0.7034  0.3473
  177MOL0     C24293   2.276   8.041   7.484 -0.3316 -0.4004  0.3979
  177MOL0     C24294   2.322   8.155   7.419 -0.3025  0.4256  0.1570
  177MOL0     C24295   2.434   8.158   7.338  0.1333  0.6802  0.0451
  177MOL0     O24296   2.469   8.263   7.264 -0.1569  0.1615 -0.6902
  177MOL0     C24297   2.385   8.383   7.274 -0.7868  0.0239  0.1391
  177MOL0     C24298   2.453   8.496   7.192  0.2488 -0.3229  0.6285
  177MOL0     C24299   2.488   8.458   7.042 -0.2240  0.0214 -0.2127
  177MOL0     C24300   2.365   8.424   6.953  0.0051  0.5244  0.2354
  177MOL0     C24301   2.396   8.399   6.812  0.4454 -0.3267  0.6644
  177MOL0     C24302   2.482   8.269   6.779  0.3030 -1.6928  1.0693
  177MOL0     C24303   2.476   8.212   6.643 -0.3241  0.2550  0.2610
  177MOL0     C24304   2.352   8.124   6.616 -0.5926 -0.1619 -0.9538
  177MOL0     N24305   2.232   8.197   6.595  1.2509 -0.5043 -0.5301
  177MOL0     C24306   2.214   8.298   6.505  0.1559  0.0437  0.0964
  177MOL0     C24307   2.103   8.373   6.542  0.1121 -0.8018  0.5462
  177MOL0     C24308   2.057   8.504   6.491  0.7309  0.3402 -0.2921
  177MOL0     C24309   1.957   8.482   6.383  0.1313 -0.5042  0.5834
  177MOL0     C24310   1.811   8.456   6.429  0.4654  0.6357 -0.0333
  177MOL0     C24311   1.702   8.439   6.330 -0.2893 -0.3204  0.0088
  177MOL0     O24312   1.671   8.549   6.250 -0.0664 -0.3234 -0.1108
  177MOL0     C24313   1.754   8.581   6.148  0.5845 -0.0190  0.0991
  177MOL0     C24314   1.858   8.506   6.090 -0.4166  0.0316  0.6666
  177MOL0     C24315   1.936   8.549   5.980  0.6580  1.2285 -1.2476
  177MOL0     C24316   2.025   8.439   5.936  0.0734 -0.4109 -0.2825
  177MOL0     C24317   1.897   8.674   5.925 -0.2352  1.0264  1.0655
  177MOL0     C24318   1.957   8.716   5.795  0.0044 -0.3246 -0.0949
  177MOL0     O24319   1.973   8.624   5.691 -0.3529 -0.0124  0.3698
  177MOL0     C24320   2.034   8.660   5.570 -0.4202 -0.1787 -0.6261
  177MOL0     C24321   2.125   8.765   5.540 -0.2036 -0.3282 -0.1141
  177MOL0     C24322   2.176   8.790   5.415  0.0720 -0.0310  0.1082
  177MOL0     C24323   2.130   8.714   5.309  0.7660 -0.1627 -0.3624
  177MOL0     O24324   2.185   8.723   5.186  0.1420 -0.2818 -0.2822
  177MOL0     C24325   2.331   8.737   5.161 -0.1313 -0.2144  0.1521
  177MOL0     C24326   2.395   8.874   5.133  0.6244  0.6711  0.3138
  177MOL0     C24327   2.307   8.965   5.047 -0.6357  0.2344  0.0238
  177MOL0     C24328   2.334   8.936   4.894  0.6661 -0.0626  0.7808
  177MOL0     C24329   2.279   9.036   4.809  0.5779  0.2694  0.1988
  177MOL0     C24330   2.304   9.020   4.667 -0.6999 -1.1135 -0.1092
  177MOL0     C24331   2.256   9.136   4.579  0.1384  0.4730  0.2951
  177MOL0     C24332   2.095   9.154   4.555 -0.0406 -0.7644 -0.0016
  177MOL0    Cl24333   2.037   8.984   4.517  0.1027  0.6364 -0.1411
  177MOL0     C24334   2.029   8.628   5.331 -0.4384 -0.5163  0.4764
  177MOL0     C24335   1.983   8.599   5.460  0.4448  0.4604  0.7159
  177MOL0     O24336   1.990   8.834   5.783 -0.4652 -0.4089 -0.2701
  177MOL0     C24337   1.797   8.751   5.974 -0.1533 -0.1276 -0.1062
  177MOL0     C24338   1.724   8.705   6.089 -0.7676 -0.2523  1.0436
  177MOL0     N24339   2.050   8.305   6.647  0.6396 -0.3804 -0.2192
  177MOL0     N24340   2.116   8.195   6.670  0.5167 -0.2597 -0.4914
  177MOL0     C24341   2.494   8.040   7.315 -0.2476  1.3314  0.0415
  177MOL0     C24342   2.457   7.925   7.376  0.1922 -0.0650  0.5274
  177MOL0     C24343   2.186   7.624   7.607  0.3485  0.1385 -0.0759
  177MOL0     C24344   2.261   7.604   7.723  0.3984  0.2900  1.4824
  177MOL0     C24345   2.245   7.493   7.806  0.1942 -0.6624  0.5386
  177MOL0     C24346   2.147   7.395   7.785  0.3968 -0.1051  0.6583
  177MOL0     O24347   2.137   7.280   7.860  0.6491  0.1433 -0.1531
  177MOL0     C24348   2.241   7.231   7.931  0.3784 -0.3926 -0.0504
  177MOL0     C24349   2.371   7.203   7.858  0.3389  0.3364 -0.7170
  177MOL0     C24350   2.431   7.066   7.889 -0.0304  1.0664 -0.3910
  177MOL0     C24351   2.350   6.932   7.886 -0.2850 -0.4955 -0.4747
  177MOL0     C24352   2.258   6.929   7.773  0.2399 -0.3880 -0.4178
  177MOL0     C24353   2.183   6.932   7.673  0.5227 -0.2220 -0.1905
  177MOL0     C24354   2.064   7.418   7.670 -0.0055  0.0374 -0.2259
  177MOL0     C24355   2.081   7.527   7.580  0.4278 -0.6014  1.0949
  177MOL0     C24356   1.974   7.542   7.481  0.2421 -0.4626  0.2384
  177MOL0     H24357   2.200   8.042   7.561 -1.3609 -3.2922 -0.4310
  177MOL0     H24358   2.277   8.251   7.446  1.1474  1.2302 -0.1609
  177MOL0     H24359   2.378   8.413   7.379  1.2203  0.2286  0.2354
  177MOL0     H24360   2.284   8.359   7.237 -0.4803 -1.2644  0.1173
  177MOL0     H24361   2.373   8.570   7.195 -0.0651 -0.6186  4.5597
  177MOL0     H24362   2.538   8.545   7.241  0.5543  0.9706 -1.1163
  177MOL0     H24363   2.527   8.545   6.990 -0.3745  1.2516  1.6305
  177MOL0     H24364   2.573   8.389   7.039 -1.8054 -2.0236 -2.4392
  177MOL0     H24365   2.320   8.336   7.001  2.6142 -2.3916 -2.1456
  177MOL0     H24366   2.278   8.490   6.958  0.1615  0.6513  1.7226
  177MOL0     H24367   2.447   8.485   6.769 -0.6870  0.9134  1.7129
  177MOL0     H24368   2.297   8.382   6.769  0.4455  1.8031 -0.2777
  177MOL0     H24369   2.586   8.304   6.786  1.2265 -3.0850 -3.0036
  177MOL0     H24370   2.456   8.185   6.843  0.4046 -2.6417 -0.0996
  177MOL0     H24371   2.567   8.155   6.624 -0.6209 -0.8442  1.8608
  177MOL0     H24372   2.474   8.294   6.571 -3.0407  0.8206  0.8452
  177MOL0     H24373   2.368   8.064   6.526 -3.8486 -0.3440 -1.5261
  177MOL0     H24374   2.335   8.050   6.696  0.6979  2.2270  1.7318
  177MOL0     H24375   2.286   8.341   6.437 -0.1943  2.2465  1.0346
  177MOL0     H24376   2.139   8.561   6.447  2.1377  0.1906  1.9835
  177MOL0     H24377   2.015   8.557   6.577 -0.3914 -0.3480 -0.3800
  177MOL0     H24378   1.952   8.583   6.340 -0.6345 -0.9884 -0.5350
  177MOL0     H24379   1.989   8.405   6.311 -1.0705 -2.1620  1.7418
  177MOL0     H24380   1.809   8.365   6.491  1.6691 -0.7544 -1.9020
  177MOL0     H24381   1.790   8.537   6.498 -1.8075  0.0581  0.0433
  177MOL0     H24382   1.717   8.350   6.268  2.8185 -0.6729  1.0944
  177MOL0     H24383   1.613   8.413   6.389  2.3750 -4.0426  2.8346
  177MOL0     H24384   1.869   8.412   6.144 -2.4621 -0.5294  0.1803
  177MOL0     H24385   1.984   8.400   5.843  0.7187 -1.4432 -0.1499
  177MOL0     H24386   2.042   8.366   6.016 -1.5966  1.1107  1.5503
  177MOL0     H24387   2.121   8.482   5.906 -0.3302  0.9060  0.2579
  177MOL0     H24388   2.161   8.832   5.618  0.7919  1.5942 -2.1156
  177MOL0     H24389   2.261   8.858   5.404 -0.9564  1.1992 -0.5276
  177MOL0     H24390   2.386   8.701   5.248 -1.3467 -2.1623  0.1708
  177MOL0     H24391   2.338   8.662   5.083  1.8416 -2.2336  2.1286
  177MOL0     H24392   2.403   8.925   5.229 -3.2511 -0.2983  1.2977
  177MOL0     H24393   2.497   8.858   5.095  1.2445  3.5870  0.4863
  177MOL0     H24394   2.338   9.069   5.064  1.2992  0.3988 -3.6566
  177MOL0     H24395   2.202   8.952   5.075 -0.6342 -2.1454 -0.8870
  177MOL0     H24396   2.287   8.843   4.862 -2.8037  0.3722  3.8799
  177MOL0     H24397   2.439   8.919   4.869 -0.1078 -3.2372 -0.7845
  177MOL0     H24398   2.172   9.031   4.832  0.6732  3.2080  1.8464
  177MOL0     H24399   2.319   9.134   4.837  2.1128 -0.3324  0.2003
  177MOL0     H24400   2.251   8.928   4.640 -2.9432 -0.4491  1.7740
  177MOL0     H24401   2.405   8.985   4.644 -1.3619 -3.4851  0.3173
  177MOL0     H24402   2.300   9.113   4.482  0.1660 -3.4808  1.0579
  177MOL0     H24403   2.291   9.233   4.614 -2.1988  0.8133  1.9605
  177MOL0     H24404   2.080   9.217   4.467  0.9170 -2.4396 -1.4106
  177MOL0     H24405   2.046   9.200   4.642  1.3810 -1.8439  1.4184
  177MOL0     H24406   2.002   8.577   5.239  4.2307 -2.1728 -0.2466
  177MOL0     H24407   1.907   8.521   5.464  0.6976  0.0067 -1.7444
  177MOL0     H24408   1.787   8.853   5.937  1.9243  0.5971  1.1676
  177MOL0     H24409   1.647   8.771   6.128 -0.4067  1.1842 -0.5239
  177MOL0     H24410   2.577   8.026   7.245 -0.7763 -0.3260 -0.2974
  177MOL0     H24411   2.516   7.839   7.348  3.1044  2.6772 -2.7320
  177MOL0     H24412   2.325   7.686   7.754  1.8362  0.5845 -1.7939
  177MOL0     H24413   2.283   7.496   7.907  0.9331  1.5487  0.2311
  177MOL0     H24414   2.282   7.287   8.016  2.8257 -2.0990 -0.0133
  177MOL0     H24415   2.191   7.139   7.964  0.8365 -0.1110  1.5505
  177MOL0     H24416   2.448   7.267   7.903  0.7747  0.1900 -1.2529
  177MOL0     H24417   2.366   7.219   7.750 -1.5236  0.3613 -0.6608
  177MOL0     H24418   2.512   7.058   7.817 -1.8113 -0.6807 -2.3388
  177MOL0     H24419   2.475   7.076   7.989 -0.3799  1.6881 -0.2932
  177MOL0     H24420   2.283   6.936   7.972  1.2339  6.0765  0.9324
  177MOL0     H24421   2.421   6.849   7.895  3.3244  2.4585  0.9906
  177MOL0     H24422   2.129   6.936   7.580  0.5375  1.3197 -0.1692
  177MOL0     H24423   1.994   7.339   7.643  2.1891 -1.7442 -1.0866
  177MOL0     H24424   2.017   7.560   7.382  0.1763  0.9917  0.4575
  177MOL0     H24425   1.905   7.457   7.478  0.7647 -0.9759  1.7926
  177MOL0     H24426   1.908   7.621   7.518  1.4441 -0.0909  1.6473
  178MOL0     O24427  11.183   2.666  11.221 -0.3533  0.4259 -0.1854
  178MOL0     C24428  11.284   2.734  11.209 -0.3555  0.5188  0.2129
  178MOL0     O24429  11.285   2.873  11.198  0.5237 -0.9866  0.4165
  178MOL0     C24430  11.171   2.930  11.238  0.2267 -0.0132 -0.0627
  178MOL0     C24431  11.169   2.948  11.373  0.3206  0.1353 -0.8011
  178MOL0     C24432  11.053   3.006  11.420  0.1147 -0.0718 -0.1682
  178MOL0     C24433  10.939   3.038  11.347 -0.6269 -0.1611 -0.2877
  178MOL0     O24434  10.830   3.107  11.402  0.6783  0.2165  0.6848
  178MOL0     C24435  10.806   3.237  11.343  1.0176  0.0776 -0.0670
  178MOL0     C24436  10.658   3.260  11.325 -0.4974  1.0259  0.2465
  178MOL0     C24437  10.587   3.155  11.226 -0.4759 -1.4163  0.4825
  178MOL0     C24438  10.521   3.049  11.305  1.0230 -0.8661 -0.5153
  178MOL0     C24439  10.427   2.962  11.222 -0.1793  0.2565  0.5415
  178MOL0     C24440  10.506   2.853  11.142 -0.4082 -0.9385 -0.4458
  178MOL0     C24441  10.442   2.771  11.028  0.2275  0.8136 -1.4314
  178MOL0     C24442  10.374   2.633  11.072 -0.1130 -0.0310  0.0173
  178MOL0     N24443  10.323   2.549  10.959  0.5703 -0.4904  0.4320
  178MOL0     C24444  10.398   2.485  10.867 -1.0878  0.1352  0.0213
  178MOL0     C24445  10.317   2.458  10.768 -0.6168 -1.2681  0.2171
  178MOL0     C24446  10.370   2.408  10.642  0.0050  0.0654  0.1442
  178MOL0     C24447  10.325   2.275  10.600 -0.3530 -0.1329 -0.1668
  178MOL0     C24448  10.388   2.239  10.457  0.2911 -1.5229 -0.3776
  178MOL0     C24449  10.373   2.089  10.425  0.3343  0.1144  0.3421
  178MOL0     O24450  10.244   2.044  10.465 -0.1347 -0.0143 -0.4141
  178MOL0     C24451  10.230   1.913  10.468  1.1818  0.1580 -0.6481
  178MOL0     C24452  10.101   1.873  10.507  0.0249 -0.6660 -0.1633
  178MOL0     C24453  10.060   1.739  10.532 -0.7259 -0.2347 -0.5561
  178MOL0     C24454   9.928   1.704  10.606  0.0983  0.3928  0.6340
  178MOL0     C24455  10.166   1.641  10.512  0.5548  0.9443  0.5068
  178MOL0     C24456  10.133   1.504  10.537 -1.1030 -1.2065 -0.3508
  178MOL0     O24457  10.017   1.445  10.492 -0.2429  0.0302 -0.0970
  178MOL0     C24458  10.003   1.310  10.510  0.4350  0.7907  0.4027
  178MOL0     C24459  10.014   1.261  10.643 -0.3561 -0.1021 -0.3963
  178MOL0     C24460   9.987   1.129  10.681 -0.1262 -0.5154  0.2170
  178MOL0     C24461   9.943   1.036  10.583 -0.7974  0.5371 -0.7032
  178MOL0     O24462   9.926   0.908  10.632  0.1745  0.2835  0.2272
  178MOL0     C24463  10.036   0.819  10.632  0.6754 -0.0920 -0.0524
  178MOL0     C24464   9.991   0.673  10.596  0.2665 -0.3664  0.2865
  178MOL0     C24465   9.880   0.606  10.685 -0.1567  0.0148 -0.2806
  178MOL0     C24466   9.944   0.555  10.819  0.0866 -1.0532  0.3148
  178MOL0     C24467   9.843   0.551  10.926  0.7070 -0.1285  0.0864
  178MOL0     C24468   9.730   0.441  10.892 -0.5669  0.3965 -1.2354
  178MOL0     C24469   9.631   0.447  11.009 -0.4908 -0.0204 -1.4231
  178MOL0     C24470   9.544   0.574  11.031 -0.8028  0.5826 -0.0996
  178MOL0    Cl24471   9.423   0.592  10.892  0.7332  0.4069  0.0673
  178MOL0     C24472   9.920   1.077  10.450  0.0756 -1.1066 -0.6195
  178MOL0     C24473   9.952   1.215  10.414 -0.3377  0.9393  1.4655
  178MOL0     O24474  10.227   1.447  10.589 -0.1885  0.0931  0.7085
  178MOL0     C24475  10.299   1.678  10.475 -0.1508 -0.5540 -1.0524
  178MOL0     C24476  10.330   1.813  10.458  0.1588 -0.2502  0.0106
  178MOL0     N24477  10.191   2.490  10.804 -0.3350 -0.1076  0.4889
  178MOL0     N24478  10.189   2.545  10.917 -0.5455  0.6008 -0.0463
  178MOL0     C24479  10.945   3.001  11.209 -0.6574 -0.5849 -0.0876
  178MOL0     C24480  11.066   2.955  11.156  0.4149 -0.5069  0.2269
  178MOL0     C24481  11.413   2.669  11.209 -0.4735 -0.5468 -0.6588
  178MOL0     C24482  11.431   2.561  11.302 -0.0950 -0.7638  0.0925
  178MOL0     C24483  11.550   2.491  11.312  0.2358 -0.7683 -0.0306
  178MOL0     C24484  11.652   2.527  11.240  0.4705  0.2486  0.0657
  178MOL0     O24485  11.762   2.452  11.257  1.0505  0.1061 -0.4553
  178MOL0     C24486  11.802   2.391  11.140  0.1424  0.1087 -0.5793
  178MOL0     C24487  11.945   2.465  11.121 -0.2323 -0.6299 -0.5317
  178MOL0     C24488  11.987   2.429  10.981  0.1263  0.6364 -1.0458
  178MOL0     C24489  12.132   2.401  10.953  0.6104  0.6912 -0.9500
  178MOL0     C24490  12.229   2.504  11.011 -0.0246 -0.2123  0.1796
  178MOL0     C24491  12.304   2.582  11.066 -0.6452  0.0845 -0.2548
  178MOL0     C24492  11.637   2.632  11.151 -0.6811  0.5677 -0.0830
  178MOL0     C24493  11.527   2.709  11.130  0.6373 -0.3493 -0.0451
  178MOL0     C24494  11.524   2.831  11.038 -0.2247  0.4056  0.4848
  178MOL0     H24495  11.259   2.919  11.425  0.0603  2.1093  0.8790
  178MOL0     H24496  11.041   3.026  11.526  0.8201  1.1539 -0.2963
  178MOL0     H24497  10.857   3.254  11.248  1.5649  2.1728  0.5230
  178MOL0     H24498  10.838   3.307  11.421  1.9056  0.5004 -0.7906
  178MOL0     H24499  10.617   3.257  11.426 -0.2329 -2.2257  0.3607
  178MOL0     H24500  10.640   3.358  11.280 -0.5618  1.2438  0.7366
  178MOL0     H24501  10.528   3.209  11.151  1.3110  2.0042  1.3150
  178MOL0     H24502  10.663   3.103  11.167  1.4173  0.1969  1.3833
  178MOL0     H24503  10.591   2.990  11.365  1.7145 -0.5736 -1.0277
  178MOL0     H24504  10.454   3.093  11.380  0.6766 -2.1588 -0.0492
  178MOL0     H24505  10.368   3.030  11.160 -0.9888 -0.9768 -0.0833
  178MOL0     H24506  10.361   2.915  11.296 -0.7631  2.2171  1.3440
  178MOL0     H24507  10.604   2.896  11.117 -1.0907  3.1534  2.8208
  178MOL0     H24508  10.530   2.778  11.218 -0.4978 -0.9588 -0.4385
  178MOL0     H24509  10.528   2.739  10.969  3.4979 -0.6189  3.5109
  178MOL0     H24510  10.370   2.835  10.977  1.1845  5.1712  2.0138
  178MOL0     H24511  10.442   2.570  11.131  0.6495  1.4838  0.8309
  178MOL0     H24512  10.294   2.658  11.141 -0.7753 -0.5529 -0.5493
  178MOL0     H24513  10.506   2.477  10.861 -1.1640 -2.7794  1.2088
  178MOL0     H24514  10.479   2.410  10.643  0.0825  2.1522  3.7144
  178MOL0     H24515  10.332   2.475  10.563 -1.1048  0.7923  1.2616
  178MOL0     H24516  10.365   2.207  10.675  0.3820  1.1079  0.6050
  178MOL0     H24517  10.217   2.258  10.596 -0.3381 -1.7180  2.9122
  178MOL0     H24518  10.328   2.287  10.379  0.9330 -0.2423 -0.1115
  178MOL0     H24519  10.492   2.271  10.450  1.1406 -4.4026 -3.9193
  178MOL0     H24520  10.394   2.064  10.321  1.7232 -1.8250  1.0354
  178MOL0     H24521  10.453   2.041  10.483  0.9158  2.5619  1.7191
  178MOL0     H24522  10.025   1.949  10.525 -2.0939 -2.2611 -1.8616
  178MOL0     H24523   9.880   1.797  10.640 -0.7817  0.1596  0.0626
  178MOL0     H24524   9.952   1.630  10.684  3.8347  1.2955  0.5449
  178MOL0     H24525   9.861   1.645  10.543  0.6548 -3.8621  3.5593
  178MOL0     H24526  10.050   1.318  10.727  1.0629  1.6561 -2.0976
  178MOL0     H24527   9.979   1.101  10.786  0.8054  3.3183  1.4819
  178MOL0     H24528  10.115   0.859  10.568  1.4032 -1.8153 -0.2687
  178MOL0     H24529  10.076   0.809  10.733  0.8828 -0.7427 -0.1961
  178MOL0     H24530   9.950   0.684  10.496  0.1099 -0.6755  0.3153
  178MOL0     H24531  10.088   0.622  10.606  0.6461 -0.1606 -2.0215
  178MOL0     H24532   9.829   0.527  10.629  0.3093  0.5804 -1.5427
  178MOL0     H24533   9.804   0.681  10.711 -1.0842 -1.9648  3.3696
  178MOL0     H24534  10.018   0.629  10.851  1.0381 -0.7998 -2.2085
  178MOL0     H24535   9.989   0.458  10.799 -1.0242 -1.6705  0.7143
  178MOL0     H24536   9.901   0.539  11.018  0.0787 -0.6849  0.4162
  178MOL0     H24537   9.793   0.648  10.939  1.3758  0.1156  0.9191
  178MOL0     H24538   9.771   0.340  10.885  0.3215  0.8389 -3.1976
  178MOL0     H24539   9.664   0.454  10.806 -1.0423 -0.8618 -1.0741
  178MOL0     H24540   9.698   0.444  11.096 -2.9686 -2.0437  0.5839
  178MOL0     H24541   9.563   0.363  11.028  1.5174 -0.7951  4.5591
  178MOL0     H24542   9.596   0.670  11.043 -0.9604  0.6307  0.2116
  178MOL0     H24543   9.486   0.575  11.124  0.3532 -1.1008  0.6868
  178MOL0     H24544   9.880   1.001  10.383 -0.4885 -2.6630  1.3794
  178MOL0     H24545   9.934   1.256  10.316  2.7903  0.7272  0.6927
  178MOL0     H24546  10.387   1.615  10.467 -1.3080 -2.8146  2.0984
  178MOL0     H24547  10.433   1.838  10.436 -0.7191  2.0971 -1.8953
  178MOL0     H24548  10.866   3.019  11.136  0.4375  0.4378 -1.0614
  178MOL0     H24549  11.086   2.942  11.050  0.5080 -0.5616  0.2507
  178MOL0     H24550  11.352   2.531  11.370  0.3306  0.0365  0.9554
  178MOL0     H24551  11.557   2.404  11.377  2.7035 -0.1921  0.5718
  178MOL0     H24552  11.834   2.287  11.158  1.6014  1.0678  3.5953
  178MOL0     H24553  11.728   2.396  11.060 -1.4310 -0.2723  0.7834
  178MOL0     H24554  12.027   2.429  11.184  0.3247  2.5602  0.7678
  178MOL0     H24555  11.948   2.573  11.132  2.0932 -0.7366  0.2914
  178MOL0     H24556  11.942   2.331  10.964 -1.0003 -0.0423  4.1979
  178MOL0     H24557  11.945   2.504  10.914 -2.5945  0.1970  0.0488
  178MOL0     H24558  12.137   2.417  10.845  1.5613  2.9087 -0.6321
  178MOL0     H24559  12.168   2.297  10.960 -3.7993 -1.5025 -5.3436
  178MOL0     H24560  12.383   2.639  11.109  1.0743 -2.6123  0.4264
  178MOL0     H24561  11.728   2.654  11.095 -0.6363 -2.3319 -1.3164
  178MOL0     H24562  11.608   2.827  10.968 -1.3334  1.2773 -0.9342
  178MOL0     H24563  11.431   2.833  10.982  0.3481  0.0699 -0.4992
  178MOL0     H24564  11.547   2.919  11.100  1.5860  0.5641 -0.3393
  179MOL0     O24565   6.757   1.920   5.934  0.1923  0.1284  0.1198
  179MOL0     C24566   6.652   1.861   5.917  0.7042  0.3946 -0.3610
  179MOL0     O24567   6.641   1.733   5.890  0.1490  0.1302 -0.0639
  179MOL0     C24568   6.742   1.644   5.931  0.0942  0.2850 -0.9079
  179MOL0     C24569   6.711   1.568   6.046  0.0449  0.4016 -0.5988
  179MOL0     C24570   6.796   1.465   6.090  0.6764  0.3848 -0.0903
  179MOL0     C24571   6.903   1.434   6.013 -0.7773  1.4683 -0.1752
  179MOL0     O24572   6.977   1.325   6.045  0.5083 -0.0719 -0.4830
  179MOL0     C24573   7.105   1.302   5.994  0.4866 -0.2228 -0.7064
  179MOL0     C24574   7.175   1.206   6.090 -0.9872 -0.0818  0.0662
  179MOL0     C24575   7.125   1.064   6.107  0.5411 -0.1282 -0.2441
  179MOL0     C24576   7.197   0.993   6.231 -0.9254  0.3912  0.5155
  179MOL0     C24577   7.163   0.845   6.232 -0.0821  0.2345  0.1631
  179MOL0     C24578   7.236   0.777   6.348  0.2087 -0.2353 -0.5874
  179MOL0     C24579   7.195   0.628   6.341  0.2352  0.3310  0.3392
  179MOL0     C24580   7.275   0.520   6.428 -0.3033 -0.4583 -0.9272
  179MOL0     N24581   7.267   0.548   6.568 -0.9925 -0.5463  0.5614
  179MOL0     C24582   7.170   0.498   6.654  0.4279 -1.0068  0.8856
  179MOL0     C24583   7.201   0.560   6.771  0.4577  0.6776 -0.4549
  179MOL0     C24584   7.127   0.546   6.899 -0.0651  0.2891 -0.6120
  179MOL0     C24585   7.163   0.414   6.968  0.0584 -0.6430 -0.0169
  179MOL0     C24586   7.193   0.426   7.122 -0.7800  0.5759 -0.6610
  179MOL0     C24587   7.246   0.291   7.188  0.8475  0.1203  0.0879
  179MOL0     O24588   7.131   0.200   7.213 -0.2750 -0.8570 -0.0392
  179MOL0     C24589   7.058   0.201   7.334  0.6122  0.0653  0.5063
  179MOL0     C24590   7.086   0.092   7.422 -0.4870 -0.6871  1.7339
  179MOL0     C24591   7.000   0.065   7.532  0.6740 -0.0908 -0.2209
  179MOL0     C24592   7.030  -0.069   7.604 -0.3907 -1.1906 -0.0509
  179MOL0     C24593   6.890   0.155   7.562 -1.5773 -0.3062 -0.2988
  179MOL0     C24594   6.810   0.145   7.684  0.6176  0.3164  0.2078
  179MOL0     O24595   6.849   0.059   7.787  0.3483 -0.5118 -0.2676
  179MOL0     C24596   6.782   0.065   7.905 -0.4641 -0.6948  0.4661
  179MOL0     C24597   6.785   0.187   7.976 -0.0016 -0.2754  0.0041
  179MOL0     C24598   6.714   0.204   8.088  0.6706 -0.4686 -0.6632
  179MOL0     C24599   6.638   0.102   8.151  0.1061  0.1819  0.4140
  179MOL0     O24600   6.565   0.125   8.266  0.8186  0.2665  0.4150
  179MOL0     C24601   6.469   0.030   8.334  0.3634 -0.3218  0.3027
  179MOL0     C24602   6.420   0.090   8.464  0.4073 -0.4000 -0.3401
  179MOL0     C24603   6.383  -0.028   8.555  0.8809 -0.0637 -0.8495
  179MOL0     C24604   6.354   0.030   8.697 -0.6653  0.2113  0.1136
  179MOL0     C24605   6.301  -0.083   8.799 -0.1685  0.3998  0.2921
  179MOL0     C24606   6.259  -0.021   8.931 -0.2914 -0.4282 -0.9229
  179MOL0     C24607   6.129   0.068   8.913  0.0575 -0.0525  0.1713
  179MOL0     C24608   6.078   0.095   9.056  0.0869 -0.0324  0.0557
  179MOL0    Cl24609   6.029  -0.039   9.130 -0.1586  0.2167 -0.1931
  179MOL0     C24610   6.656  -0.029   8.082  1.0281 -0.0136  0.0592
  179MOL0     C24611   6.728  -0.041   7.964 -0.5660  0.5405  0.3262
  179MOL0     O24612   6.704   0.212   7.682  0.2497  0.1827  0.5825
  179MOL0     C24613   6.870   0.259   7.474  0.1851  0.7460  0.1772
  179MOL0     C24614   6.948   0.285   7.361  0.4783  0.7170  0.2120
  179MOL0     N24615   7.309   0.649   6.752 -0.1291  0.2640  0.5160
  179MOL0     N24616   7.351   0.629   6.629 -0.6229  0.2891  0.5858
  179MOL0     C24617   6.934   1.504   5.893  1.0845 -0.4727  0.3402
  179MOL0     C24618   6.858   1.621   5.856  0.2460 -0.2256 -0.7082
  179MOL0     C24619   6.534   1.958   5.899 -0.3681 -0.3215  0.1298
  179MOL0     C24620   6.431   1.906   5.827  1.0834 -0.0585  0.0391
  179MOL0     C24621   6.324   1.978   5.798 -0.8027 -0.4113 -0.9004
  179MOL0     C24622   6.305   2.111   5.838 -0.2497  0.0679 -0.2038
  179MOL0     O24623   6.189   2.170   5.790  0.8943  0.1560 -0.0202
  179MOL0     C24624   6.113   2.250   5.886 -0.3280  0.5080 -0.6499
  179MOL0     C24625   6.143   2.403   5.868  0.0625 -0.6487 -0.0994
  179MOL0     C24626   6.127   2.440   5.719 -0.1018  0.6504 -0.6321
  179MOL0     C24627   5.976   2.433   5.685 -0.3447  0.4618 -0.0732
  179MOL0     C24628   5.935   2.480   5.556 -0.6597 -0.0477  0.3990
  179MOL0     C24629   5.897   2.522   5.450 -0.1695 -0.4078  0.0984
  179MOL0     C24630   6.407   2.164   5.911 -0.2835 -1.5484 -0.3108
  179MOL0     C24631   6.529   2.099   5.942  0.3024  0.3740 -0.0051
  179MOL0     C24632   6.641   2.166   6.018 -0.3198  0.3116  0.7133
  179MOL0     H24633   6.633   1.595   6.116  2.0511  5.9496 -0.0260
  179MOL0     H24634   6.765   1.404   6.174 -0.7612 -0.8079 -1.4385
  179MOL0     H24635   7.162   1.395   5.988  0.7540 -0.4087 -1.1437
  179MOL0     H24636   7.097   1.245   5.901 -0.9058 -1.9327  0.3941
  179MOL0     H24637   7.279   1.204   6.055 -1.0644  1.1070 -0.2730
  179MOL0     H24638   7.179   1.257   6.186  1.9484 -0.5819  0.3102
  179MOL0     H24639   7.020   1.072   6.135  0.9377 -0.5751  1.4303
  179MOL0     H24640   7.139   1.002   6.018  1.2254 -2.3464  1.3233
  179MOL0     H24641   7.305   1.001   6.220 -0.4863  0.0386  3.6154
  179MOL0     H24642   7.175   1.029   6.332  0.3263 -1.4683  1.5223
  179MOL0     H24643   7.199   0.809   6.135  2.1888  0.3295  0.9132
  179MOL0     H24644   7.055   0.829   6.231 -0.3243  1.6193  1.5942
  179MOL0     H24645   7.342   0.781   6.324  0.1727 -0.4345 -0.7821
  179MOL0     H24646   7.206   0.811   6.447  2.4914  0.1610  0.0245
  179MOL0     H24647   7.217   0.586   6.242 -0.2650 -2.5924  1.3433
  179MOL0     H24648   7.091   0.607   6.369  0.2418 -0.5129 -0.2241
  179MOL0     H24649   7.228   0.425   6.402 -0.1890  0.5455 -5.8247
  179MOL0     H24650   7.381   0.520   6.398 -0.1865  0.7727 -0.5575
  179MOL0     H24651   7.079   0.449   6.621 -0.2368  0.0010  1.1717
  179MOL0     H24652   7.022   0.560   6.874  0.1643  3.2725 -0.2685
  179MOL0     H24653   7.158   0.630   6.962 -2.3605  1.6318 -1.1652
  179MOL0     H24654   7.078   0.346   6.954 -2.5586  1.1795  4.7226
  179MOL0     H24655   7.252   0.375   6.917 -0.8964 -0.2285 -2.0986
  179MOL0     H24656   7.271   0.502   7.134 -1.7066  1.5258 -0.4868
  179MOL0     H24657   7.108   0.462   7.179 -1.4426  0.4339 -1.5381
  179MOL0     H24658   7.314   0.243   7.118 -1.4964 -1.8493 -0.9693
  179MOL0     H24659   7.293   0.305   7.286  0.3533 -1.5473  0.5959
  179MOL0     H24660   7.171   0.032   7.390  0.6923  0.6025  2.3442
  179MOL0     H24661   7.112  -0.115   7.548  1.5031  1.3312  0.4855
  179MOL0     H24662   6.938  -0.129   7.600 -1.8447  1.0142 -2.7637
  179MOL0     H24663   7.059  -0.063   7.710 -0.0867  0.5229 -0.2132
  179MOL0     H24664   6.843   0.271   7.939  1.2849 -1.4039 -0.6610
  179MOL0     H24665   6.709   0.305   8.130  0.8260 -1.2864  1.4398
  179MOL0     H24666   6.383   0.003   8.272 -0.5391 -1.3359  1.9066
  179MOL0     H24667   6.519  -0.066   8.349 -1.0684 -1.3676 -1.3525
  179MOL0     H24668   6.496   0.145   8.520 -1.7678  2.6611 -0.1117
  179MOL0     H24669   6.341   0.159   8.434  1.0614  1.1360  1.3000
  179MOL0     H24670   6.463  -0.101   8.567  3.0500  2.2131 -0.6506
  179MOL0     H24671   6.286  -0.073   8.534 -0.2332 -0.2367  3.5841
  179MOL0     H24672   6.287   0.116   8.681 -0.2646  0.3282 -0.9728
  179MOL0     H24673   6.447   0.072   8.736 -1.6662  1.2062  1.5639
  179MOL0     H24674   6.217  -0.142   8.760 -2.6366  2.0642  2.7142
  179MOL0     H24675   6.389  -0.142   8.826 -0.1542  0.9079  1.4215
  179MOL0     H24676   6.347   0.021   8.981  1.0535 -1.0886 -2.6271
  179MOL0     H24677   6.245  -0.106   8.998 -1.1612  1.5514  1.5234
  179MOL0     H24678   6.065   0.009   8.846  2.2344  0.5938 -2.6900
  179MOL0     H24679   6.148   0.166   8.869  2.1494 -0.5202 -0.0857
  179MOL0     H24680   5.990   0.160   9.048 -0.0829 -0.1677  0.7417
  179MOL0     H24681   6.160   0.142   9.112  1.2739  1.5463 -2.7873
  179MOL0     H24682   6.620  -0.120   8.128  3.0642  0.7223  3.4231
  179MOL0     H24683   6.732  -0.135   7.910 -2.7284 -0.1292  1.1994
  179MOL0     H24684   6.798   0.338   7.493  0.5150  1.1081 -0.0494
  179MOL0     H24685   6.923   0.372   7.301  1.3348  0.9567  0.1976
  179MOL0     H24686   7.020   1.479   5.831  0.6647 -2.9993  0.6588
  179MOL0     H24687   6.875   1.690   5.774  1.4503 -2.8909 -2.8637
  179MOL0     H24688   6.425   1.804   5.789 -0.8152  0.0462 -0.0258
  179MOL0     H24689   6.240   1.942   5.740  0.1170  2.5435 -4.4980
  179MOL0     H24690   6.009   2.223   5.866  0.4586 -2.5814 -1.0029
  179MOL0     H24691   6.134   2.214   5.987 -0.6256 -0.0942 -0.7992
  179MOL0     H24692   6.246   2.414   5.903 -0.8810 -0.3658  2.9263
  179MOL0     H24693   6.079   2.472   5.925  3.9572  1.9913  1.4949
  179MOL0     H24694   6.160   2.544   5.718  2.7727  0.0257 -5.6843
  179MOL0     H24695   6.198   2.381   5.660 -1.7204 -1.3752 -0.6680
  179MOL0     H24696   5.908   2.470   5.762  1.1244 -0.8289  1.9453
  179MOL0     H24697   5.958   2.325   5.675 -1.0794  0.6377 -0.7430
  179MOL0     H24698   5.870   2.557   5.352 -0.2531  1.4047  0.7299
  179MOL0     H24699   6.409   2.268   5.942 -0.6706 -0.6674 -3.0109
  179MOL0     H24700   6.717   2.188   5.942 -2.9885  1.5259 -1.7609
  179MOL0     H24701   6.620   2.268   6.051  2.9867  1.4420 -0.2347
  179MOL0     H24702   6.679   2.102   6.099  1.8249 -0.7785 -1.0441
  180MOL0     O24703   0.954   6.914  11.538 -0.0573 -0.1776 -0.6714
  180MOL0     C24704   0.897   6.926  11.648 -0.1363  0.7728 -0.8702
  180MOL0     O24705   0.955   6.975  11.767 -0.0095  0.2500  0.5083
  180MOL0     C24706   1.080   7.034  11.768  0.6573  0.5034 -0.6082
  180MOL0     C24707   1.192   6.998  11.689  0.3500 -0.4950 -0.6248
  180MOL0     C24708   1.312   7.076  11.693 -0.4632  0.5998 -0.6529
  180MOL0     C24709   1.330   7.174  11.785 -1.9618 -0.6361  0.7123
  180MOL0     O24710   1.436   7.260  11.767 -0.7871 -0.9315 -0.2476
  180MOL0     C24711   1.482   7.340  11.876  0.4262 -0.1593 -0.2510
  180MOL0     C24712   1.608   7.428  11.841 -0.3772 -0.1398 -0.6440
  180MOL0     C24713   1.706   7.362  11.738  0.1903 -0.1159  0.1198
  180MOL0     C24714   1.817   7.462  11.730 -0.5852 -0.6536 -0.2301
  180MOL0     C24715   1.934   7.433  11.635  0.3098  0.5509  0.0313
  180MOL0     C24716   2.056   7.512  11.672 -0.4336 -0.7511 -0.1970
  180MOL0     C24717   2.052   7.661  11.651 -0.2325 -0.5030 -0.4412
  180MOL0     C24718   2.146   7.733  11.751 -0.3549  0.4956 -0.6085
  180MOL0     N24719   2.178   7.869  11.717 -0.3895  0.1927 -0.4061
  180MOL0     C24720   2.222   7.971  11.801  0.1710  0.8724  1.1336
  180MOL0     C24721   2.238   8.082  11.726  0.0395  1.0646  0.7823
  180MOL0     C24722   2.273   8.212  11.784  0.4705 -1.1293 -0.3618
  180MOL0     C24723   2.159   8.314  11.771 -1.2178 -0.4409 -0.1201
  180MOL0     C24724   2.040   8.286  11.857  0.2866 -0.0226  0.1149
  180MOL0     C24725   1.918   8.382  11.843  0.6302  0.1361  0.1474
  180MOL0     O24726   1.804   8.353  11.928  0.5322 -0.2006  0.5051
  180MOL0     C24727   1.723   8.466  11.950 -0.2360 -0.1846 -0.0886
  180MOL0     C24728   1.670   8.480  12.078  0.1485  0.6645  0.4613
  180MOL0     C24729   1.597   8.600  12.111 -0.6259  0.4594  0.0920
  180MOL0     C24730   1.552   8.632  12.253 -0.5464 -0.0839 -0.1849
  180MOL0     C24731   1.565   8.698  12.016 -0.3042  0.4430 -0.5366
  180MOL0     C24732   1.483   8.821  12.037 -0.0449  0.1275 -0.4000
  180MOL0     O24733   1.549   8.929  11.991 -0.1375 -0.7477 -0.5324
  180MOL0     C24734   1.475   9.047  11.969  1.2182  0.2197  0.3386
  180MOL0     C24735   1.441   9.135  12.073 -0.8737  0.4262  0.2053
  180MOL0     C24736   1.359   9.247  12.049  0.0340 -0.0883  0.0710
  180MOL0     C24737   1.300   9.270  11.926  0.3845  0.0835  0.3082
  180MOL0     O24738   1.217   9.376  11.902  1.1644 -0.3834  0.2594
  180MOL0     C24739   1.266   9.502  11.957  0.6227 -0.3059  0.0742
  180MOL0     C24740   1.312   9.578  11.826 -1.3046  1.2814 -0.4427
  180MOL0     C24741   1.396   9.704  11.848  0.0045 -0.5861  0.2391
  180MOL0     C24742   1.436   9.762  11.711  0.2946 -0.1294  0.2123
  180MOL0     C24743   1.337   9.851  11.634 -0.9660  0.0269 -0.3578
  180MOL0     C24744   1.394   9.911  11.503 -0.2136  0.1185  0.7560
  180MOL0     C24745   1.293  10.003  11.435 -1.8376 -0.0807 -0.1742
  180MOL0     C24746   1.339  10.030  11.291 -0.6941 -1.2356  0.0504
  180MOL0    Cl24747   1.476  10.156  11.294  0.1378  0.3875  0.2148
  180MOL0     C24748   1.326   9.178  11.820 -0.0760  0.7864 -0.5400
  180MOL0     C24749   1.413   9.070  11.846  0.9395  0.6449  1.0614
  180MOL0     O24750   1.372   8.818  12.097 -0.7214  0.0793 -0.0715
  180MOL0     C24751   1.602   8.671  11.876 -0.4699  0.2606 -0.6174
  180MOL0     C24752   1.695   8.567  11.850  0.0314 -0.1730 -0.3176
  180MOL0     N24753   2.226   8.035  11.598  0.5764  0.3778  0.1638
  180MOL0     N24754   2.175   7.917  11.592 -0.3160  0.7561 -0.7529
  180MOL0     C24755   1.230   7.193  11.873 -0.3437 -0.2961 -1.4555
  180MOL0     C24756   1.117   7.120  11.878 -0.0696  0.5870  0.6506
  180MOL0     C24757   0.756   6.926  11.645  0.0199  0.5236  0.1842
  180MOL0     C24758   0.677   6.807  11.673 -0.5913 -0.2256 -0.6575
  180MOL0     C24759   0.544   6.806  11.647 -0.5275 -0.2812  0.7166
  180MOL0     C24760   0.479   6.920  11.608 -1.2234  0.7649  0.8341
  180MOL0     O24761   0.351   6.909  11.586 -0.5066  0.8701  0.5089
  180MOL0     C24762   0.289   7.016  11.526  0.2649  0.9405 -0.3414
  180MOL0     C24763   0.161   6.957  11.483  0.0628  0.2165  0.0356
  180MOL0     C24764   0.069   7.078  11.444 -0.4032  0.4418  0.0189
  180MOL0     C24765  -0.050   7.106  11.533  0.4982 -0.1092 -1.1984
  180MOL0     C24766  -0.132   7.208  11.472  0.3166 -0.2741  0.7829
  180MOL0     C24767  -0.184   7.314  11.413 -0.8541  0.0319  0.7114
  180MOL0     C24768   0.555   7.031  11.576  0.3336  0.8609  1.0040
  180MOL0     C24769   0.693   7.041  11.602  0.3594 -0.7731 -0.3127
  180MOL0     C24770   0.768   7.175  11.583  1.0595  0.1089  0.0870
  180MOL0     H24771   1.184   6.923  11.612 -3.5971  0.2607 -1.1293
  180MOL0     H24772   1.382   7.059  11.612  1.6554  3.3172  0.4095
  180MOL0     H24773   1.513   7.274  11.957 -2.8976 -0.2139  1.1437
  180MOL0     H24774   1.404   7.409  11.909 -1.8973 -1.2198 -3.1477
  180MOL0     H24775   1.568   7.523  11.806 -0.9829 -0.4465 -0.8045
  180MOL0     H24776   1.667   7.447  11.931 -2.0272  3.6230 -0.1654
  180MOL0     H24777   1.741   7.262  11.767 -2.9333 -1.5802 -0.6690
  180MOL0     H24778   1.661   7.348  11.639  0.3992  0.2839 -0.0291
  180MOL0     H24779   1.784   7.563  11.702  2.1743 -0.2434 -2.4566
  180MOL0     H24780   1.864   7.471  11.828  0.1036  1.6084 -0.6990
  180MOL0     H24781   1.905   7.449  11.530 -1.4942 -2.1000  0.0322
  180MOL0     H24782   1.954   7.326  11.638 -1.6255  0.1701  1.5026
  180MOL0     H24783   2.070   7.498  11.780 -0.4759 -1.6638 -0.3031
  180MOL0     H24784   2.140   7.472  11.615  1.3981  0.2311  1.6847
  180MOL0     H24785   1.947   7.693  11.656 -0.5301 -1.0959 -2.0772
  180MOL0     H24786   2.078   7.679  11.546  1.7738 -0.3344  0.0530
  180MOL0     H24787   2.093   7.726  11.846  2.7815  0.5458  1.2752
  180MOL0     H24788   2.235   7.672  11.769 -1.1251 -0.7690 -0.9324
  180MOL0     H24789   2.225   7.956  11.909 -0.1751  2.2790  1.3513
  180MOL0     H24790   2.368   8.241  11.738 -1.2564  2.8682 -1.8296
  180MOL0     H24791   2.278   8.208  11.893 -1.4196  1.4749 -0.0772
  180MOL0     H24792   2.188   8.418  11.788  0.0376 -0.5493 -1.4072
  180MOL0     H24793   2.130   8.300  11.667 -2.8779 -0.5761  0.3323
  180MOL0     H24794   2.004   8.184  11.843  2.7511 -0.6392 -3.1183
  180MOL0     H24795   2.065   8.286  11.963  0.6470  2.0154  0.0734
  180MOL0     H24796   1.959   8.483  11.854  0.1825  0.3338 -0.0116
  180MOL0     H24797   1.880   8.372  11.741  1.8485  2.5417 -0.6080
  180MOL0     H24798   1.702   8.399  12.142  2.5442  0.9811 -0.2129
  180MOL0     H24799   1.577   8.738  12.265  1.6403 -0.4666 -0.8486
  180MOL0     H24800   1.600   8.572  12.331  0.1771 -0.2569 -0.7498
  180MOL0     H24801   1.443   8.623  12.253 -0.5616  0.0466  0.4517
  180MOL0     H24802   1.482   9.099  12.167  0.3509  0.6237 -0.2248
  180MOL0     H24803   1.334   9.309  12.135 -0.7336  1.7113 -1.3695
  180MOL0     H24804   1.179   9.560  11.987 -0.9700 -2.5366 -0.0575
  180MOL0     H24805   1.343   9.498  12.035 -2.4768  1.4564  3.4969
  180MOL0     H24806   1.361   9.508  11.757 -2.9216  2.0429 -2.4529
  180MOL0     H24807   1.214   9.601  11.785 -1.1289 -1.2888 -2.5916
  180MOL0     H24808   1.486   9.669  11.900  1.5387  3.1951  0.4861
  180MOL0     H24809   1.347   9.775  11.915 -0.8767  1.7279 -2.6623
  180MOL0     H24810   1.475   9.688  11.641 -2.6666 -0.8172 -0.8780
  180MOL0     H24811   1.521   9.822  11.743 -1.1067  1.8148  0.4772
  180MOL0     H24812   1.246   9.797  11.608  0.4910 -1.3948 -2.9751
  180MOL0     H24813   1.314   9.925  11.712  3.1693  2.1768 -0.8815
  180MOL0     H24814   1.403   9.827  11.433  0.1251  1.4651 -0.8740
  180MOL0     H24815   1.478   9.979  11.516 -0.4093  0.9116 -1.6110
  180MOL0     H24816   1.289  10.097  11.490  2.4629 -0.4955  1.1718
  180MOL0     H24817   1.199   9.947  11.440 -1.0614 -1.3269  1.2050
  180MOL0     H24818   1.254  10.083  11.247  0.4643  0.4725 -0.2254
  180MOL0     H24819   1.371   9.945  11.229  2.7005 -1.2575  1.6214
  180MOL0     H24820   1.285   9.180  11.720 -0.3587  0.1194 -0.4403
  180MOL0     H24821   1.436   9.000  11.765 -1.4747  0.3917  0.5426
  180MOL0     H24822   1.576   8.736  11.793  1.6921 -0.1328 -1.6632
  180MOL0     H24823   1.721   8.556  11.746 -0.0172 -1.9400 -0.1581
  180MOL0     H24824   1.245   7.270  11.948  1.8192 -0.4289 -1.6968
  180MOL0     H24825   1.040   7.160  11.944  0.1764  1.4726  0.4192
  180MOL0     H24826   0.738   6.719  11.688 -0.0397 -0.1679 -2.3973
  180MOL0     H24827   0.502   6.706  11.650  1.5097 -1.7182 -4.8204
  180MOL0     H24828   0.280   7.093  11.603 -2.1460 -1.0654  1.5305
  180MOL0     H24829   0.345   7.052  11.439  2.4856  0.9840  1.0066
  180MOL0     H24830   0.115   6.902  11.566 -0.8169 -0.4810 -0.8972
  180MOL0     H24831   0.182   6.896  11.396  1.5444 -2.4539  2.1075
  180MOL0     H24832   0.132   7.166  11.426  0.8272 -0.4587 -0.2270
  180MOL0     H24833   0.034   7.044  11.347  1.0272 -0.3155 -0.2572
  180MOL0     H24834  -0.022   7.130  11.636 -2.2213 -0.3126 -0.3570
  180MOL0     H24835  -0.115   7.019  11.540  3.5554 -2.5437 -0.4497
  180MOL0     H24836  -0.223   7.401  11.364 -1.2633 -1.3760 -1.5896
  180MOL0     H24837   0.511   7.123  11.540  3.6736  3.2543  2.5660
  180MOL0     H24838   0.695   7.245  11.542  0.6952 -0.5793 -0.4646
  180MOL0     H24839   0.802   7.215  11.679  0.0833 -0.5182  0.7118
  180MOL0     H24840   0.856   7.153  11.523  1.0665 -0.1854  0.2034
  181MOL0     O24841   4.478   0.984   8.783 -0.8742  0.2891  0.6992
  181MOL0     C24842   4.536   1.087   8.760  0.6886  0.0178 -0.0281
  181MOL0     O24843   4.497   1.179   8.664  0.0184  1.7126  0.3908
  181MOL0     C24844   4.417   1.125   8.564 -0.0813  0.0801  0.0688
  181MOL0     C24845   4.475   1.050   8.465 -0.2811  0.7412  1.0801
  181MOL0     C24846   4.401   0.995   8.367 -0.1476  0.5491 -0.5174
  181MOL0     C24847   4.263   1.023   8.352 -0.2226 -0.3293  0.6286
  181MOL0     O24848   4.197   0.965   8.245 -0.2360 -0.8894 -0.0374
  181MOL0     C24849   4.061   0.978   8.248 -0.3083 -0.4054 -0.7755
  181MOL0     C24850   3.987   0.895   8.352 -0.5806  0.2708 -0.1586
  181MOL0     C24851   4.044   0.761   8.368 -0.8920  0.6189 -0.0584
  181MOL0     C24852   3.946   0.659   8.427  0.6908  0.9302 -0.9401
  181MOL0     C24853   3.846   0.597   8.328 -0.2529 -0.8122  0.1327
  181MOL0     C24854   3.754   0.492   8.385  0.4412 -0.9005 -0.3396
  181MOL0     C24855   3.639   0.527   8.471  0.0087 -0.6974 -0.7537
  181MOL0     C24856   3.521   0.607   8.403  0.5612 -0.3167  0.1889
  181MOL0     N24857   3.390   0.609   8.483 -1.3530  0.3267  0.1474
  181MOL0     C24858   3.361   0.679   8.594  0.9372  0.4773 -0.6885
  181MOL0     C24859   3.249   0.606   8.633 -0.7650 -0.5474 -0.6433
  181MOL0     C24860   3.182   0.648   8.757 -0.3024  1.1102 -0.2866
  181MOL0     C24861   3.257   0.617   8.881 -0.0281  0.1731  0.0183
  181MOL0     C24862   3.172   0.644   9.002 -1.1329 -0.1668 -0.2472
  181MOL0     C24863   3.213   0.549   9.115  0.0040  0.0504 -0.4676
  181MOL0     O24864   3.180   0.406   9.098 -0.3153 -0.6070  0.2947
  181MOL0     C24865   3.049   0.376   9.081  0.0752 -0.9081 -0.3753
  181MOL0     C24866   3.016   0.302   8.978  0.0842  0.5467  0.5794
  181MOL0     C24867   2.886   0.285   8.925 -0.9523 -0.6981 -0.8885
  181MOL0     C24868   2.865   0.211   8.790  0.8070 -0.2027  0.5704
  181MOL0     C24869   2.780   0.348   8.995  0.1079 -0.4838  0.3809
  181MOL0     C24870   2.630   0.327   8.964  0.1589 -0.0571 -0.3052
  181MOL0     O24871   2.537   0.345   9.062  0.4886 -0.3992 -0.1278
  181MOL0     C24872   2.397   0.350   9.038  0.3503  0.0872 -0.2918
  181MOL0     C24873   2.326   0.358   9.161 -1.0325 -0.2653 -0.3724
  181MOL0     C24874   2.184   0.349   9.163 -0.3441  0.6317  0.2733
  181MOL0     C24875   2.104   0.363   9.043  0.0139 -1.3699  0.5152
  181MOL0     O24876   1.968   0.389   9.052 -0.0297 -0.4030  0.7673
  181MOL0     C24877   1.887   0.366   8.934 -0.5289 -0.6166  0.2947
  181MOL0     C24878   1.763   0.321   9.003  0.4218  0.5660  0.5948
  181MOL0     C24879   1.668   0.235   8.919  0.0393 -0.4806 -0.0888
  181MOL0     C24880   1.601   0.323   8.822  0.1202 -0.7469 -0.4624
  181MOL0     C24881   1.546   0.247   8.705  0.2996  0.3307 -0.4891
  181MOL0     C24882   1.487   0.335   8.600 -0.1515  0.5023  1.8806
  181MOL0     C24883   1.420   0.255   8.491  1.0542  0.1397  2.0084
  181MOL0     C24884   1.504   0.147   8.426  0.0492  0.0476 -0.4904
  181MOL0    Cl24885   1.666   0.203   8.353 -0.2038 -0.1240 -0.0955
  181MOL0     C24886   2.181   0.377   8.925  1.4400 -0.2996 -0.7262
  181MOL0     C24887   2.324   0.359   8.922  0.0252 -0.6693  0.4226
  181MOL0     O24888   2.596   0.303   8.847  0.4771 -0.4115  0.0996
  181MOL0     C24889   2.814   0.427   9.111  0.6898  0.3744 -0.2807
  181MOL0     C24890   2.942   0.441   9.149  0.2421  0.5713 -0.1240
  181MOL0     N24891   3.216   0.504   8.549  0.3710  0.1006 -0.5269
  181MOL0     N24892   3.313   0.497   8.465  0.2742 -0.1620 -0.0969
  181MOL0     C24893   4.202   1.110   8.449 -0.3583  1.4033 -0.0452
  181MOL0     C24894   4.280   1.157   8.557 -0.4052  0.9306 -0.1083
  181MOL0     C24895   4.635   1.140   8.855  0.1288 -0.5280  0.5275
  181MOL0     C24896   4.644   1.282   8.854 -0.2272  0.5766 -0.1570
  181MOL0     C24897   4.731   1.345   8.942 -0.5663 -0.0415 -0.2193
  181MOL0     C24898   4.802   1.266   9.034 -0.2251 -0.0084  0.1183
  181MOL0     O24899   4.883   1.312   9.138 -0.2301  1.1452  0.8161
  181MOL0     C24900   4.883   1.447   9.183  0.1980  0.4150  0.5846
  181MOL0     C24901   4.748   1.492   9.249 -0.0350  0.4799  0.3004
  181MOL0     C24902   4.703   1.402   9.359 -0.4506  0.1614 -0.2091
  181MOL0     C24903   4.625   1.278   9.315  0.2861 -0.1481 -0.9919
  181MOL0     C24904   4.563   1.222   9.444 -0.4365  0.1028 -0.3096
  181MOL0     C24905   4.519   1.170   9.542 -0.4858 -0.5131 -0.4972
  181MOL0     C24906   4.785   1.124   9.029 -0.3292  0.1330 -0.3857
  181MOL0     C24907   4.712   1.054   8.934  0.0519 -0.6445  0.7321
  181MOL0     C24908   4.723   0.901   8.923  0.0533 -0.0289  0.5424
  181MOL0     H24909   4.575   1.010   8.478  0.1363  1.2544 -0.4199
  181MOL0     H24910   4.452   0.921   8.306 -1.2081 -0.0888 -0.6731
  181MOL0     H24911   4.036   0.938   8.149  3.2274 -2.5921 -0.9386
  181MOL0     H24912   4.037   1.084   8.238  1.8616  0.0156 -2.2401
  181MOL0     H24913   3.988   0.951   8.447  1.9965  0.4061 -0.1785
  181MOL0     H24914   3.885   0.867   8.329 -1.3598  0.1881  2.8797
  181MOL0     H24915   4.067   0.718   8.270 -0.6988  2.2697 -0.7813
  181MOL0     H24916   4.134   0.781   8.427 -1.8080  1.8530  0.9824
  181MOL0     H24917   4.003   0.569   8.452  0.3684  1.3252  1.3412
  181MOL0     H24918   3.891   0.692   8.516 -3.4940 -3.7159 -1.3866
  181MOL0     H24919   3.915   0.551   8.258 -1.1769 -0.8108 -0.8074
  181MOL0     H24920   3.790   0.670   8.269  1.7895  0.8691  0.1746
  181MOL0     H24921   3.726   0.427   8.302  0.9686  0.5579 -1.6936
  181MOL0     H24922   3.818   0.427   8.446  0.4056  0.3902  1.1360
  181MOL0     H24923   3.671   0.590   8.555 -1.7633 -2.4466  1.3753
  181MOL0     H24924   3.597   0.438   8.518  1.0665 -2.3777 -2.8418
  181MOL0     H24925   3.553   0.709   8.380  0.0002 -0.6459 -2.4129
  181MOL0     H24926   3.499   0.560   8.306 -0.4397  0.8690 -0.1924
  181MOL0     H24927   3.414   0.757   8.647  0.7741 -0.2910  0.6470
  181MOL0     H24928   3.080   0.612   8.765 -0.5569  2.1409  1.7878
  181MOL0     H24929   3.178   0.757   8.746  0.8910  1.3547  1.3323
  181MOL0     H24930   3.272   0.508   8.885 -1.4723 -0.0368  0.4416
  181MOL0     H24931   3.361   0.650   8.886  1.3206 -3.6189  1.0532
  181MOL0     H24932   3.195   0.745   9.037  1.6927 -0.4383 -1.0755
  181MOL0     H24933   3.065   0.623   8.988 -0.9400 -1.2923 -0.1024
  181MOL0     H24934   3.322   0.549   9.122 -0.0706  0.2669  0.9759
  181MOL0     H24935   3.178   0.596   9.207 -0.0417  1.5186 -1.1999
  181MOL0     H24936   3.099   0.256   8.925  1.1980 -0.2548  2.9305
  181MOL0     H24937   2.790   0.262   8.727  0.7974 -1.1008 -0.1625
  181MOL0     H24938   2.828   0.111   8.815 -1.6448 -0.5622 -3.5921
  181MOL0     H24939   2.960   0.204   8.737  0.1629  0.5658 -0.7570
  181MOL0     H24940   2.377   0.327   9.251 -1.3437  1.7188  0.5366
  181MOL0     H24941   2.126   0.354   9.254  1.2539 -0.7156  1.4277
  181MOL0     H24942   1.873   0.457   8.875 -2.1499  0.0537  1.6319
  181MOL0     H24943   1.931   0.294   8.865 -1.1175 -0.4700 -0.2505
  181MOL0     H24944   1.798   0.246   9.075 -3.1036 -4.2359 -2.0756
  181MOL0     H24945   1.721   0.401   9.066  3.6017  0.6828  2.7895
  181MOL0     H24946   1.589   0.196   8.984  0.4755 -1.9695 -0.4280
  181MOL0     H24947   1.721   0.147   8.883 -0.8696 -0.6374 -1.0818
  181MOL0     H24948   1.657   0.410   8.786  0.1926 -0.5090  0.2043
  181MOL0     H24949   1.518   0.359   8.883  0.3280 -0.7540 -0.1671
  181MOL0     H24950   1.633   0.192   8.669  1.1757 -0.3560  2.4085
  181MOL0     H24951   1.469   0.171   8.722  0.2339  0.6450  0.6779
  181MOL0     H24952   1.563   0.404   8.560 -0.4521 -0.7845 -1.1480
  181MOL0     H24953   1.408   0.391   8.649  0.5640  1.3979  2.0453
  181MOL0     H24954   1.401   0.321   8.407 -2.9274 -2.4537  0.5972
  181MOL0     H24955   1.319   0.220   8.514 -0.2372  1.8897 -0.5636
  181MOL0     H24956   1.459   0.098   8.339  3.1083 -3.9321 -0.1091
  181MOL0     H24957   1.516   0.065   8.497  0.5382 -0.2669 -0.9201
  181MOL0     H24958   2.114   0.380   8.840 -0.5707  0.9483  0.8051
  181MOL0     H24959   2.369   0.361   8.824 -0.8172  0.4405  0.0393
  181MOL0     H24960   2.731   0.482   9.155 -0.7381  1.0155 -3.5131
  181MOL0     H24961   2.972   0.506   9.230  4.4911 -1.1514 -0.0764
  181MOL0     H24962   4.095   1.112   8.431 -0.2854 -3.5390 -2.9996
  181MOL0     H24963   4.233   1.216   8.635 -1.9425 -1.5600  0.9610
  181MOL0     H24964   4.591   1.339   8.779 -1.3744 -3.9691 -3.2065
  181MOL0     H24965   4.747   1.450   8.966  1.9522 -0.3510 -0.2363
  181MOL0     H24966   4.955   1.445   9.265 -1.2289 -1.9565  1.9183
  181MOL0     H24967   4.915   1.518   9.107 -3.6662  0.5560 -1.1571
  181MOL0     H24968   4.668   1.502   9.175  0.0172 -2.2585 -0.2430
  181MOL0     H24969   4.757   1.595   9.283  0.1428 -0.4521  3.3800
  181MOL0     H24970   4.797   1.362   9.400 -0.6734 -1.0531 -0.8700
  181MOL0     H24971   4.651   1.465   9.432  2.0896  2.9761 -0.6188
  181MOL0     H24972   4.698   1.203   9.280 -0.7188 -2.6592  1.7938
  181MOL0     H24973   4.546   1.304   9.245 -0.9986  1.2164  0.8686
  181MOL0     H24974   4.475   1.134   9.633  0.3635  0.0553  0.1540
  181MOL0     H24975   4.842   1.063   9.098 -3.1206 -1.4521  0.6759
  181MOL0     H24976   4.824   0.870   8.951  1.8918  3.8277 -1.1224
  181MOL0     H24977   4.645   0.852   8.983  0.9905 -0.7845  1.1585
  181MOL0     H24978   4.699   0.881   8.818  0.8423  0.9402  0.1592
  182MOL0     O24979   1.317   4.071   6.624  0.0583 -0.5053 -0.1451
  182MOL0     C24980   1.307   4.049   6.742 -0.1457  0.9441  0.8396
  182MOL0     O24981   1.197   4.065   6.816 -0.5011  0.1321 -1.0128
  182MOL0     C24982   1.079   4.090   6.753  0.3209  0.5693  0.6911
  182MOL0     C24983   1.032   4.004   6.647  1.1520 -0.3203 -0.5580
  182MOL0     C24984   0.912   4.023   6.586 -0.0608  0.2778  0.2751
  182MOL0     C24985   0.825   4.125   6.622 -0.1362 -1.1194 -0.1474
  182MOL0     O24986   0.712   4.138   6.549  0.2894 -0.1112  0.6762
  182MOL0     C24987   0.611   4.241   6.569 -0.3809 -0.3432  0.3315
  182MOL0     C24988   0.658   4.380   6.525 -0.7194  0.0198 -0.5072
  182MOL0     C24989   0.734   4.381   6.385  0.3924  0.3578 -0.0526
  182MOL0     C24990   0.660   4.311   6.262  0.8944 -0.4549  0.1270
  182MOL0     C24991   0.734   4.272   6.133 -0.3383 -0.3687 -0.6562
  182MOL0     C24992   0.641   4.244   6.012 -0.1102  0.1060 -0.3203
  182MOL0     C24993   0.583   4.376   5.971 -0.1511  0.3808  0.0127
  182MOL0     C24994   0.682   4.466   5.904  0.2401  0.1265 -0.1493
  182MOL0     N24995   0.723   4.584   5.988  0.4362 -0.2017  0.3358
  182MOL0     C24996   0.634   4.667   6.060 -0.4458 -0.4012  0.9285
  182MOL0     C24997   0.729   4.753   6.111  0.3702 -0.2603 -0.4610
  182MOL0     C24998   0.710   4.877   6.201 -0.1670 -0.1511  0.2345
  182MOL0     C24999   0.705   5.009   6.130 -0.1741 -0.4373  0.5377
  182MOL0     C25000   0.609   5.025   6.010 -0.7877 -0.9233  1.0343
  182MOL0     C25001   0.467   5.055   6.051  0.6110 -0.5224 -0.2076
  182MOL0     O25002   0.373   5.024   5.948 -0.2789  0.5958  0.4505
  182MOL0     C25003   0.370   5.104   5.838  0.1549 -1.2460  0.3072
  182MOL0     C25004   0.424   5.237   5.818  0.3033  0.9658  0.1477
  182MOL0     C25005   0.424   5.300   5.692 -0.1903  0.8329  0.5458
  182MOL0     C25006   0.498   5.422   5.686  0.2431 -1.2163  0.5099
  182MOL0     C25007   0.348   5.240   5.583  0.2893  0.1419 -0.8590
  182MOL0     C25008   0.330   5.309   5.454 -0.7215 -0.3758 -0.7612
  182MOL0     O25009   0.369   5.240   5.339 -0.4191 -0.2082  0.6657
  182MOL0     C25010   0.367   5.279   5.206 -0.3126  0.1817  0.5637
  182MOL0     C25011   0.374   5.167   5.114 -0.6335 -0.2854 -0.0646
  182MOL0     C25012   0.369   5.185   4.977 -0.0664  1.1304  0.7601
  182MOL0     C25013   0.372   5.312   4.919  0.0453  0.3803  1.4384
  182MOL0     O25014   0.387   5.306   4.778  0.8307 -0.2380  0.3199
  182MOL0     C25015   0.341   5.424   4.707 -0.0092 -0.1826  0.4547
  182MOL0     C25016   0.331   5.371   4.563 -0.3810 -0.1837 -0.1618
  182MOL0     C25017   0.198   5.292   4.544 -0.7651  0.1031  0.9059
  182MOL0     C25018   0.075   5.376   4.503 -0.1719  0.2344  0.4476
  182MOL0     C25019  -0.050   5.296   4.474 -0.2155 -0.3367 -0.0675
  182MOL0     C25020  -0.162   5.391   4.447  1.0068 -0.3786  0.3293
  182MOL0     C25021  -0.296   5.305   4.436  0.2534  0.0300  0.5852
  182MOL0     C25022  -0.420   5.398   4.423 -1.1116  0.3387 -0.7214
  182MOL0    Cl25023  -0.411   5.488   4.271  0.3496 -0.4251 -0.4632
  182MOL0     C25024   0.393   5.415   5.009  0.5553 -0.7142  0.3532
  182MOL0     C25025   0.377   5.402   5.153  0.2953  0.4167  0.8640
  182MOL0     O25026   0.290   5.428   5.462  0.1717 -0.5525  0.1853
  182MOL0     C25027   0.290   5.110   5.608 -1.0932  0.0100 -0.7177
  182MOL0     C25028   0.305   5.050   5.728 -0.2233 -0.2649 -0.0425
  182MOL0     N25029   0.857   4.713   6.088 -0.1637 -0.2641  0.1896
  182MOL0     N25030   0.856   4.607   6.015 -0.5323  0.2894 -1.0016
  182MOL0     C25031   0.863   4.206   6.734 -0.0168 -0.2118  0.8753
  182MOL0     C25032   0.985   4.181   6.799  0.3463  0.0146  0.1537
  182MOL0     C25033   1.431   3.983   6.801  0.4230 -0.3627  0.1707
  182MOL0     C25034   1.539   3.953   6.714 -0.0957  0.5868 -0.0907
  182MOL0     C25035   1.653   3.883   6.763 -0.7125  0.6087  0.7148
  182MOL0     C25036   1.660   3.830   6.891 -0.6257 -1.2281 -0.5871
  182MOL0     O25037   1.756   3.752   6.947  0.0468 -0.0858  1.2182
  182MOL0     C25038   1.878   3.746   6.887 -0.0125 -0.1734 -0.5272
  182MOL0     C25039   1.968   3.648   6.969 -1.1864  0.0447  0.0369
  182MOL0     C25040   2.115   3.697   6.933  0.9021  0.8524  0.4530
  182MOL0     C25041   2.218   3.621   7.012 -0.1939  0.3897 -0.6779
  182MOL0     C25042   2.200   3.620   7.165  0.0774 -0.9124 -0.0173
  182MOL0     C25043   2.206   3.650   7.283 -0.0152  0.1335  1.1027
  182MOL0     C25044   1.553   3.848   6.968 -0.6110 -0.9325  0.4010
  182MOL0     C25045   1.438   3.916   6.929  0.4094 -0.4834  0.5366
  182MOL0     C25046   1.328   3.910   7.029 -0.4845  0.0744  0.4320
  182MOL0     H25047   1.094   3.920   6.617 -0.0371 -1.5419  0.2460
  182MOL0     H25048   0.883   3.965   6.499  0.1271  1.0609 -0.3250
  182MOL0     H25049   0.592   4.245   6.676  0.9412 -2.0394  0.6731
  182MOL0     H25050   0.516   4.219   6.519 -0.1797  0.1168 -0.2706
  182MOL0     H25051   0.583   4.460   6.524 -1.8577 -1.0130 -0.5389
  182MOL0     H25052   0.724   4.419   6.603 -0.9007  0.2786 -0.4796
  182MOL0     H25053   0.774   4.482   6.372 -0.8223  0.7626 -0.8165
  182MOL0     H25054   0.816   4.312   6.407 -0.2134  0.1999  1.8165
  182MOL0     H25055   0.614   4.215   6.287  1.2657 -0.6830 -0.0636
  182MOL0     H25056   0.574   4.374   6.237 -1.3094 -3.8153 -1.4768
  182MOL0     H25057   0.784   4.177   6.154 -1.6966 -1.1488 -0.7775
  182MOL0     H25058   0.814   4.343   6.111 -0.2867 -1.5380 -5.3602
  182MOL0     H25059   0.686   4.191   5.928 -5.1784 -0.5685 -3.0215
  182MOL0     H25060   0.555   4.179   6.028  0.4856 -0.3733  1.0574
  182MOL0     H25061   0.523   4.419   6.052 -2.0029 -2.5464  0.3701
  182MOL0     H25062   0.507   4.358   5.895  1.1790 -2.0461 -0.8700
  182MOL0     H25063   0.768   4.402   5.880  0.2102 -0.4885  1.3140
  182MOL0     H25064   0.625   4.510   5.822  1.5720  1.5105 -0.3873
  182MOL0     H25065   0.526   4.676   6.066 -0.8738 -1.8829 -2.3024
  182MOL0     H25066   0.778   4.871   6.287 -0.0302  1.6965  0.3114
  182MOL0     H25067   0.618   4.872   6.259  0.1848  0.5211  0.8650
  182MOL0     H25068   0.684   5.091   6.199  1.8262 -0.7592  1.6207
  182MOL0     H25069   0.805   5.030   6.092 -0.4531 -5.1274 -3.8251
  182MOL0     H25070   0.651   5.101   5.943 -0.2432  0.2674  2.6796
  182MOL0     H25071   0.607   4.928   5.960 -3.4213 -2.4216  3.7274
  182MOL0     H25072   0.449   4.996   6.142  1.2662 -0.8742 -0.2972
  182MOL0     H25073   0.459   5.156   6.092  2.4624  0.0351 -1.1197
  182MOL0     H25074   0.470   5.278   5.908  0.4297 -2.6073  1.8970
  182MOL0     H25075   0.476   5.467   5.588 -1.1541 -3.4930 -0.3044
  182MOL0     H25076   0.606   5.410   5.688  0.4830  0.4525 -0.3242
  182MOL0     H25077   0.473   5.493   5.766 -1.6039 -1.3400  0.0928
  182MOL0     H25078   0.381   5.066   5.153 -3.7222 -0.3877  0.4719
  182MOL0     H25079   0.358   5.100   4.910  0.2615 -0.2085  2.3417
  182MOL0     H25080   0.248   5.468   4.743 -0.4842 -0.3661 -0.5069
  182MOL0     H25081   0.415   5.505   4.709  2.4137 -2.1702 -1.7387
  182MOL0     H25082   0.330   5.459   4.498  2.7043 -0.6380 -0.9848
  182MOL0     H25083   0.427   5.325   4.538  0.6957  2.6401 -1.7186
  182MOL0     H25084   0.174   5.242   4.639 -1.9198 -0.8805  0.1357
  182MOL0     H25085   0.224   5.216   4.469  0.0215  1.7206 -0.5164
  182MOL0     H25086   0.104   5.430   4.412  2.5048 -3.1893 -0.9297
  182MOL0     H25087   0.046   5.445   4.583 -1.2337  0.7238 -0.3330
  182MOL0     H25088  -0.033   5.224   4.393 -0.2269 -1.3748  0.8263
  182MOL0     H25089  -0.072   5.231   4.559  5.1769 -0.3416  1.7087
  182MOL0     H25090  -0.145   5.438   4.350 -0.2404 -0.0227  0.2639
  182MOL0     H25091  -0.173   5.467   4.526  0.3339  1.0918 -1.0992
  182MOL0     H25092  -0.310   5.246   4.527  1.3551  1.4468  1.7206
  182MOL0     H25093  -0.283   5.261   4.337  2.4890  2.5790 -0.3781
  182MOL0     H25094  -0.419   5.456   4.516  0.9926 -1.7381  0.6596
  182MOL0     H25095  -0.502   5.326   4.430  0.7330 -1.7576  0.8472
  182MOL0     H25096   0.402   5.519   4.977 -0.7372 -1.2529 -2.0660
  182MOL0     H25097   0.390   5.491   5.214 -1.0103 -0.4645  2.5176
  182MOL0     H25098   0.221   5.066   5.537  0.1678 -1.6671 -0.9610
  182MOL0     H25099   0.254   4.956   5.748 -1.8918  0.1882 -1.8392
  182MOL0     H25100   0.795   4.283   6.768 -1.3861  1.2282 -4.1666
  182MOL0     H25101   1.012   4.242   6.884 -3.2393 -1.0647  2.2992
  182MOL0     H25102   1.526   3.978   6.609 -2.1537  0.3708  0.0648
  182MOL0     H25103   1.729   3.876   6.686 -1.5234  2.1397 -0.2909
  182MOL0     H25104   1.874   3.710   6.783 -0.1705 -1.0841 -0.2187
  182MOL0     H25105   1.921   3.847   6.890  2.0838 -1.0143  0.1305
  182MOL0     H25106   1.938   3.552   6.928  0.2767  1.0729 -3.9633
  182MOL0     H25107   1.958   3.657   7.078  0.6723 -1.9228  0.4304
  182MOL0     H25108   2.120   3.687   6.824 -3.0096  1.6259  0.0465
  182MOL0     H25109   2.121   3.804   6.956  0.1335  0.9658  0.1675
  182MOL0     H25110   2.320   3.658   6.997 -0.4521  1.1712 -0.5420
  182MOL0     H25111   2.207   3.516   6.983 -1.3968 -0.3239  2.0353
  182MOL0     H25112   2.202   3.686   7.383  2.5436  1.6629  0.7627
  182MOL0     H25113   1.558   3.804   7.067  4.0540  1.7173  1.6010
  182MOL0     H25114   1.249   3.846   6.989 -1.2636  1.2607  0.0091
  182MOL0     H25115   1.359   3.866   7.124  0.8325  3.2059  1.5895
  182MOL0     H25116   1.283   4.006   7.057  2.0051  1.8399 -1.2358
  183MOL0     O25117   7.796   0.456  10.352  0.2797 -0.1770  0.6974
  183MOL0     C25118   7.676   0.439  10.351  0.1020 -0.5749 -0.8782
  183MOL0     O25119   7.587   0.510  10.431 -0.5744 -0.2403 -0.5229
  183MOL0     C25120   7.626   0.630  10.483  0.0156 -0.4685 -0.2886
  183MOL0     C25121   7.632   0.751  10.409 -0.2186  0.7062  0.1619
  183MOL0     C25122   7.657   0.875  10.466 -0.0200 -0.4053 -0.4658
  183MOL0     C25123   7.686   0.892  10.603  0.6191  0.8919  0.7527
  183MOL0     O25124   7.711   1.005  10.675 -0.2186 -0.0053  0.5202
  183MOL0     C25125   7.735   1.123  10.601 -0.0760  0.4250 -0.7344
  183MOL0     C25126   7.618   1.223  10.605 -0.8575 -0.0100 -0.6422
  183MOL0     C25127   7.585   1.254  10.749  0.2540 -0.4793 -0.4234
  183MOL0     C25128   7.481   1.364  10.735 -0.7387  0.1811  0.3766
  183MOL0     C25129   7.433   1.436  10.868  0.8810  0.3967 -0.2448
  183MOL0     C25130   7.327   1.534  10.837  0.5913  0.4699  0.1319
  183MOL0     C25131   7.362   1.653  10.740  0.2533 -0.7736 -0.4050
  183MOL0     C25132   7.257   1.763  10.730  0.2906  0.4897  0.5345
  183MOL0     N25133   7.286   1.850  10.609  0.2188 -0.6296 -1.0446
  183MOL0     C25134   7.205   1.941  10.551 -0.0430  0.0743 -0.2697
  183MOL0     C25135   7.273   1.990  10.444  0.2819  0.6846 -0.8319
  183MOL0     C25136   7.231   2.102  10.343 -0.2009  1.0432 -0.5766
  183MOL0     C25137   7.101   2.063  10.272  0.3107  0.2269  0.0941
  183MOL0     C25138   7.082   2.153  10.153 -0.4463  0.2621 -0.2428
  183MOL0     C25139   7.076   2.304  10.191  0.4326 -0.0084 -0.8479
  183MOL0     O25140   7.071   2.385  10.075 -0.0215  0.0756  0.5889
  183MOL0     C25141   7.045   2.514  10.102  0.4804  0.2616  0.8836
  183MOL0     C25142   7.062   2.590  10.220  0.6587  0.7417 -0.3272
  183MOL0     C25143   7.033   2.722  10.232 -0.8112  0.1467  1.1836
  183MOL0     C25144   7.038   2.779  10.373 -0.3360 -0.2845  0.0548
  183MOL0     C25145   6.976   2.799  10.116  1.1466  0.9355  0.0638
  183MOL0     C25146   6.944   2.945  10.117 -0.4720 -0.8108 -0.1580
  183MOL0     O25147   6.883   2.996  10.005  0.1650  0.5849  0.1746
  183MOL0     C25148   6.947   3.114   9.953  0.0119 -0.4698  0.3988
  183MOL0     C25149   7.038   3.122   9.845  0.6231 -0.0702  0.7330
  183MOL0     C25150   7.098   3.244   9.810  0.6792  0.4716  0.3631
  183MOL0     C25151   7.058   3.367   9.874  0.1284  0.0411 -0.2036
  183MOL0     O25152   7.121   3.472   9.821  0.1435  0.1828 -0.5292
  183MOL0     C25153   7.033   3.583   9.779 -0.2921  0.5371 -0.4691
  183MOL0     C25154   7.111   3.672   9.677  0.7657  0.7726  0.2494
  183MOL0     C25155   7.214   3.756   9.749  0.4304  0.6163  0.0572
  183MOL0     C25156   7.270   3.853   9.643  0.4442  0.4528 -0.4553
  183MOL0     C25157   7.400   3.914   9.694  0.1444 -0.9348  0.0828
  183MOL0     C25158   7.437   4.032   9.598  0.0136  0.3487 -0.4060
  183MOL0     C25159   7.558   4.116   9.648 -1.0786 -0.1344  0.1310
  183MOL0     C25160   7.580   4.234   9.542 -0.4514 -0.2361  0.5053
  183MOL0    Cl25161   7.689   4.360   9.603  0.5141 -0.3921  0.1354
  183MOL0     C25162   6.977   3.366   9.986  0.7726  0.5656 -0.2769
  183MOL0     C25163   6.921   3.245  10.019  0.1882  0.3432  0.4844
  183MOL0     O25164   6.992   3.017  10.204 -0.5746  0.4594 -0.1900
  183MOL0     C25165   6.962   2.722  10.000 -0.2989 -0.1351 -0.5496
  183MOL0     C25166   6.985   2.579   9.996  1.0942  0.0370  0.5824
  183MOL0     N25167   7.395   1.932  10.450  0.2873 -0.1824  0.5906
  183MOL0     N25168   7.402   1.841  10.543 -0.5108  0.0810  0.2099
  183MOL0     C25169   7.688   0.763  10.673 -0.1735 -1.4163  0.5732
  183MOL0     C25170   7.671   0.637  10.619 -0.1288  0.8920 -0.6900
  183MOL0     C25171   7.605   0.321  10.290 -0.2494 -0.4381  0.5920
  183MOL0     C25172   7.684   0.235  10.220 -0.3823  0.4908  0.4760
  183MOL0     C25173   7.646   0.135  10.138 -0.1634 -0.2279  1.1791
  183MOL0     C25174   7.510   0.107  10.121  0.6469  0.2179  0.3228
  183MOL0     O25175   7.487  -0.005  10.039 -0.1318 -0.0427 -0.1478
  183MOL0     C25176   7.356  -0.049  10.030 -0.0686 -0.4812  0.0995
  183MOL0     C25177   7.316  -0.147   9.923 -1.1671  0.0471  0.5225
  183MOL0     C25178   7.366  -0.285   9.949  0.3822  0.2172  0.8360
  183MOL0     C25179   7.463  -0.338   9.844 -0.8657 -0.6594  0.3194
  183MOL0     C25180   7.516  -0.471   9.885 -0.3806 -0.4306  0.3500
  183MOL0     C25181   7.554  -0.579   9.914  0.8846  0.3421  0.4662
  183MOL0     C25182   7.420   0.185  10.208 -0.4211  0.6385  0.1772
  183MOL0     C25183   7.464   0.301  10.272  0.7103 -0.0012 -0.7571
  183MOL0     C25184   7.354   0.386  10.336 -0.3805  0.0517 -0.5116
  183MOL0     H25185   7.617   0.744  10.301  1.0670  0.0663  0.0067
  183MOL0     H25186   7.666   0.963  10.403  1.5919 -2.0590 -2.7261
  183MOL0     H25187   7.773   1.105  10.500  1.9049 -0.8394  0.1624
  183MOL0     H25188   7.824   1.168  10.647 -0.6769 -1.7219  2.9639
  183MOL0     H25189   7.649   1.319  10.562 -1.5011  1.5022  2.0377
  183MOL0     H25190   7.529   1.189  10.551 -1.2115  0.6252 -0.4761
  183MOL0     H25191   7.551   1.170  10.810  1.4495 -0.2149  0.6395
  183MOL0     H25192   7.673   1.289  10.803  1.6010 -0.8027 -2.3309
  183MOL0     H25193   7.526   1.435  10.665 -0.4016 -0.0967  0.3047
  183MOL0     H25194   7.394   1.324  10.682 -1.0277 -2.4836  2.6282
  183MOL0     H25195   7.519   1.462  10.930  0.4378 -1.3106  1.1867
  183MOL0     H25196   7.382   1.371  10.941 -3.4771  3.0935 -0.5633
  183MOL0     H25197   7.241   1.480  10.796  1.0499 -1.2705  1.3403
  183MOL0     H25198   7.304   1.592  10.927  4.0625  5.4307 -1.7127
  183MOL0     H25199   7.378   1.604  10.644 -0.8821  0.8922 -1.4989
  183MOL0     H25200   7.459   1.699  10.765 -2.0542  4.0774  0.9069
  183MOL0     H25201   7.156   1.728  10.703 -0.2830 -0.1465  3.2630
  183MOL0     H25202   7.266   1.823  10.821  1.2124  0.3105  0.5627
  183MOL0     H25203   7.107   1.976  10.581  0.1834 -0.8337  1.6839
  183MOL0     H25204   7.314   2.108  10.273  1.4964 -3.3077  0.7609
  183MOL0     H25205   7.227   2.191  10.407 -0.9602 -1.4264  3.1584
  183MOL0     H25206   7.109   1.965  10.222  0.5020  2.5343 -5.0230
  183MOL0     H25207   7.017   2.082  10.340  0.5980 -1.3152  0.9269
  183MOL0     H25208   7.155   2.146  10.071 -1.5454  1.8467 -1.4118
  183MOL0     H25209   6.985   2.131  10.108 -0.9958 -0.6955  1.3114
  183MOL0     H25210   6.989   2.309  10.257 -0.5975 -4.2132 -1.6052
  183MOL0     H25211   7.167   2.340  10.239 -0.5265 -0.6328  1.6026
  183MOL0     H25212   7.094   2.540  10.311 -3.1713 -4.0225 -1.2196
  183MOL0     H25213   7.030   2.703  10.452 -3.2234  0.1985  0.3302
  183MOL0     H25214   6.954   2.849  10.378 -0.3278  0.0267 -2.6111
  183MOL0     H25215   7.128   2.836  10.398 -1.5035 -0.1557  5.0902
  183MOL0     H25216   7.050   3.032   9.787  0.6111 -1.0528  2.2041
  183MOL0     H25217   7.163   3.254   9.724  1.5654 -0.6880  0.8731
  183MOL0     H25218   6.942   3.544   9.733  1.0864 -2.1760 -1.1046
  183MOL0     H25219   7.011   3.649   9.864 -1.2162  0.5315 -0.6855
  183MOL0     H25220   7.163   3.616   9.599 -0.7570  2.3860 -2.0819
  183MOL0     H25221   7.035   3.737   9.633 -1.7018 -0.6815  2.1461
  183MOL0     H25222   7.300   3.703   9.791 -0.0518 -0.2669 -0.0517
  183MOL0     H25223   7.166   3.807   9.834  0.4376  0.3344  0.2352
  183MOL0     H25224   7.195   3.924   9.606 -0.0787 -0.8335 -1.9717
  183MOL0     H25225   7.299   3.795   9.555  0.2397 -0.6482  0.1966
  183MOL0     H25226   7.397   3.964   9.791  1.2148 -1.6204  0.4817
  183MOL0     H25227   7.488   3.849   9.693  2.8587  2.4463  0.6289
  183MOL0     H25228   7.345   4.092   9.591 -1.1799 -1.3094  0.4017
  183MOL0     H25229   7.451   3.974   9.507 -4.4144 -2.6417  0.4644
  183MOL0     H25230   7.645   4.050   9.656 -0.6308  0.1919 -1.6373
  183MOL0     H25231   7.544   4.154   9.750 -2.4678  1.1005 -0.4830
  183MOL0     H25232   7.496   4.303   9.528  0.4532  0.9236  0.6568
  183MOL0     H25233   7.614   4.192   9.447 -0.6652  1.4360 -0.3471
  183MOL0     H25234   6.950   3.447  10.052 -0.7115 -1.2526  1.4715
  183MOL0     H25235   6.847   3.252  10.098  1.0954  3.1997  1.1743
  183MOL0     H25236   6.924   2.773   9.912 -0.6413  3.0049  1.2684
  183MOL0     H25237   6.975   2.526   9.902  0.5554 -0.5113  0.9355
  183MOL0     H25238   7.720   0.773  10.777 -3.1375 -0.0061  1.4478
  183MOL0     H25239   7.669   0.547  10.679 -1.0336 -0.4642 -2.6251
  183MOL0     H25240   7.790   0.227  10.240 -0.7592 -1.3921  2.0478
  183MOL0     H25241   7.718   0.070  10.089 -1.2890  0.3486 -1.4071
  183MOL0     H25242   7.334  -0.090  10.129 -1.0178  2.1254  1.0615
  183MOL0     H25243   7.298   0.045  10.035 -1.5018 -1.2295 -1.3233
  183MOL0     H25244   7.348  -0.109   9.825  2.4869  2.9636  2.5790
  183MOL0     H25245   7.207  -0.155   9.927 -1.2703  0.9621 -0.0342
  183MOL0     H25246   7.422  -0.278  10.043  3.7292 -0.0071 -1.0133
  183MOL0     H25247   7.284  -0.358   9.954  0.5916 -0.0510  0.3526
  183MOL0     H25248   7.542  -0.263   9.832 -2.6360  1.4665  1.2327
  183MOL0     H25249   7.412  -0.358   9.749 -0.2689  0.3685 -0.2485
  183MOL0     H25250   7.589  -0.680   9.912 -0.5429 -0.1961 -1.8189
  183MOL0     H25251   7.316   0.161  10.193 -0.1505  1.0477 -3.2317
  183MOL0     H25252   7.347   0.485  10.288 -1.6076 -1.0735 -2.7919
  183MOL0     H25253   7.265   0.338  10.295 -1.0838  0.9277 -0.0501
  183MOL0     H25254   7.369   0.389  10.445  2.4171  0.5185 -0.8312
  184MOL0     O25255   0.473   1.819   9.849  0.1684  0.5492  0.4929
  184MOL0     C25256   0.421   1.853   9.953  0.1865  0.1140 -0.6983
  184MOL0     O25257   0.406   1.776  10.070  0.1341 -0.8668 -0.0103
  184MOL0     C25258   0.470   1.661  10.091  0.3935  0.4754 -0.3546
  184MOL0     C25259   0.510   1.638  10.222 -0.3784 -0.5004 -0.1450
  184MOL0     C25260   0.587   1.525  10.253  0.5056 -0.3673 -0.9871
  184MOL0     C25261   0.630   1.444  10.157  0.3553 -0.2815 -0.5492
  184MOL0     O25262   0.703   1.332  10.183  0.2657 -0.7081 -0.1812
  184MOL0     C25263   0.768   1.321  10.314  0.2265 -0.2680  0.0873
  184MOL0     C25264   0.903   1.248  10.286 -0.6393  0.3059 -0.1977
  184MOL0     C25265   1.001   1.284  10.391  0.9709  1.2082  0.5514
  184MOL0     C25266   1.143   1.243  10.354 -0.1843 -0.6575  0.5040
  184MOL0     C25267   1.243   1.279  10.473  0.0758  1.5917  0.8014
  184MOL0     C25268   1.288   1.423  10.471 -0.0071 -0.2266 -1.3095
  184MOL0     C25269   1.370   1.478  10.348  0.9735  0.2545 -0.5694
  184MOL0     C25270   1.320   1.605  10.292  0.0672 -0.6619  0.3529
  184MOL0     N25271   1.430   1.643  10.198 -0.3024 -0.2561  0.4900
  184MOL0     C25272   1.409   1.692  10.069  0.0430  0.2574 -0.5142
  184MOL0     C25273   1.514   1.774  10.044 -0.1622  0.1293  0.2834
  184MOL0     C25274   1.540   1.830   9.898  0.2030  0.4717  0.2363
  184MOL0     C25275   1.573   1.719   9.794 -1.0844 -0.3697  1.0406
  184MOL0     C25276   1.604   1.775   9.660 -0.5476  0.3238 -0.3470
  184MOL0     C25277   1.653   1.675   9.552 -0.8011 -0.0390  0.5630
  184MOL0     O25278   1.716   1.735   9.439 -0.6772 -0.5977  0.4105
  184MOL0     C25279   1.757   1.650   9.334  0.4517 -0.3809 -0.9582
  184MOL0     C25280   1.721   1.672   9.209 -0.3362  0.1452 -0.2277
  184MOL0     C25281   1.784   1.616   9.097 -0.0090 -0.7186 -0.0978
  184MOL0     C25282   1.716   1.659   8.965 -0.0989 -0.2203  0.3713
  184MOL0     C25283   1.887   1.516   9.120  0.0583 -0.5006 -0.1403
  184MOL0     C25284   1.955   1.443   9.009  0.3794 -0.0390  0.9554
  184MOL0     O25285   2.086   1.401   9.033 -0.4558 -0.4792 -0.2148
  184MOL0     C25286   2.164   1.377   8.927 -0.4290 -0.3561  0.1246
  184MOL0     C25287   2.166   1.249   8.878 -0.1050  1.0025 -0.7467
  184MOL0     C25288   2.254   1.210   8.775  0.4746 -0.0814  0.1030
  184MOL0     C25289   2.346   1.310   8.717 -0.9905 -0.1744 -0.5768
  184MOL0     O25290   2.432   1.275   8.611 -0.2666 -0.0649  0.2520
  184MOL0     C25291   2.507   1.170   8.643 -0.1828  1.1025 -0.3730
  184MOL0     C25292   2.599   1.150   8.528  1.2332  0.0084 -0.1623
  184MOL0     C25293   2.682   1.282   8.507 -0.4271 -0.6742  0.2194
  184MOL0     C25294   2.750   1.300   8.374  0.5282 -0.1468  0.1295
  184MOL0     C25295   2.884   1.219   8.382  0.7817  0.0826 -0.4148
  184MOL0     C25296   2.954   1.211   8.246  1.0515  0.6130 -0.3976
  184MOL0     C25297   2.895   1.099   8.160 -0.0249 -0.2425  0.4323
  184MOL0     C25298   3.007   1.042   8.070 -0.5934  0.3632 -0.1737
  184MOL0    Cl25299   2.919   0.927   7.965  0.1174  0.1862  0.3605
  184MOL0     C25300   2.339   1.439   8.768  0.0690  0.4095 -0.1594
  184MOL0     C25301   2.243   1.478   8.867 -0.3625  0.3556  0.5638
  184MOL0     O25302   1.902   1.437   8.904  0.2986 -0.3332  0.9134
  184MOL0     C25303   1.927   1.482   9.253 -0.1849  0.1573 -0.8760
  184MOL0     C25304   1.852   1.546   9.356 -1.1193 -0.8872 -0.7765
  184MOL0     N25305   1.595   1.788  10.158 -0.0042  0.1258  0.3307
  184MOL0     N25306   1.539   1.708  10.239  0.0628  0.8362 -0.0644
  184MOL0     C25307   0.594   1.463  10.026  0.6514 -0.9078  0.0702
  184MOL0     C25308   0.509   1.568   9.991  0.1874 -0.3283 -0.7431
  184MOL0     C25309   0.362   1.995   9.946  0.1417 -0.1708 -1.1000
  184MOL0     C25310   0.325   2.049   9.820 -1.0493  0.2228 -0.2105
  184MOL0     C25311   0.282   2.176   9.808 -0.3579  0.1641  1.0543
  184MOL0     C25312   0.265   2.253   9.923 -0.7522 -0.1259  0.2913
  184MOL0     O25313   0.214   2.378   9.929 -0.6422 -0.6983 -0.5281
  184MOL0     C25314   0.208   2.456   9.809 -0.3610  1.9994  0.1819
  184MOL0     C25315   0.109   2.568   9.841 -0.9471  0.3643  0.1045
  184MOL0     C25316   0.105   2.660   9.723  0.4007  0.1748  0.0495
  184MOL0     C25317  -0.010   2.758   9.738  1.0759  0.2262  0.1572
  184MOL0     C25318  -0.004   2.878   9.664 -0.4176 -1.0293  0.4245
  184MOL0     C25319  -0.014   2.987   9.603 -0.6237 -1.0406 -0.1627
  184MOL0     C25320   0.290   2.197  10.046  0.2506  0.1085 -0.0851
  184MOL0     C25321   0.349   2.075  10.061  0.4605 -0.1172 -0.0622
  184MOL0     C25322   0.424   2.057  10.192  0.3619 -0.1195 -0.1612
  184MOL0     H25323   0.486   1.704  10.306 -0.3797 -1.5590  0.6993
  184MOL0     H25324   0.613   1.528  10.358  2.3830  0.5537 -1.4381
  184MOL0     H25325   0.716   1.250  10.380 -1.4736 -1.5394 -2.4496
  184MOL0     H25326   0.791   1.417  10.362  0.0968  2.0024 -3.9919
  184MOL0     H25327   0.898   1.139  10.293  1.4830  0.0774 -1.5183
  184MOL0     H25328   0.951   1.265  10.189 -0.1735  0.8128  0.1134
  184MOL0     H25329   1.010   1.393  10.396  0.1512  1.2844  0.3776
  184MOL0     H25330   0.963   1.234  10.481 -1.8704  0.6951 -0.8439
  184MOL0     H25331   1.140   1.138  10.322 -0.3379  0.3463 -3.2814
  184MOL0     H25332   1.183   1.300  10.269 -1.8141  1.5799  1.1482
  184MOL0     H25333   1.334   1.220  10.464 -1.3960 -0.5074 -2.8362
  184MOL0     H25334   1.189   1.250  10.563  0.2024 -0.2923  0.2968
  184MOL0     H25335   1.199   1.484  10.493  0.7313  0.3787  0.1486
  184MOL0     H25336   1.353   1.435  10.558 -0.3808  0.0929 -1.0695
  184MOL0     H25337   1.368   1.403  10.269 -1.6768 -2.0023  1.4381
  184MOL0     H25338   1.478   1.489  10.365  0.9173 -0.1921  0.1660
  184MOL0     H25339   1.229   1.589  10.234  1.3543 -1.4312 -1.5494
  184MOL0     H25340   1.300   1.683  10.366  0.6919 -0.0926 -0.0733
  184MOL0     H25341   1.330   1.675   9.996  0.1575 -0.2566 -0.5241
  184MOL0     H25342   1.632   1.888   9.907  0.2651  0.5819 -0.9667
  184MOL0     H25343   1.465   1.900   9.862  1.2299  0.9211 -1.0819
  184MOL0     H25344   1.660   1.667   9.835  2.1217  3.6339 -0.0589
  184MOL0     H25345   1.487   1.652   9.792 -0.0966 -1.6831 -0.8947
  184MOL0     H25346   1.508   1.820   9.632 -2.7664 -3.7794 -0.0788
  184MOL0     H25347   1.675   1.856   9.679  1.6505 -1.5213 -0.3374
  184MOL0     H25348   1.713   1.593   9.592 -3.5855 -3.3311 -1.4243
  184MOL0     H25349   1.563   1.623   9.516 -1.1710 -0.1614  1.6431
  184MOL0     H25350   1.647   1.749   9.192  0.1428  0.3628 -1.3937
  184MOL0     H25351   1.678   1.761   8.960  0.1074 -0.1869 -0.7713
  184MOL0     H25352   1.646   1.583   8.927  2.2987 -1.0439 -2.8632
  184MOL0     H25353   1.795   1.660   8.890  1.1575  1.6858  1.6606
  184MOL0     H25354   2.105   1.170   8.919  2.7174 -0.8377  0.1274
  184MOL0     H25355   2.258   1.112   8.729 -0.2348 -1.6014  3.0372
  184MOL0     H25356   2.571   1.197   8.727  1.9365 -0.1615 -1.4907
  184MOL0     H25357   2.455   1.076   8.663  2.2534 -0.0406  0.9473
  184MOL0     H25358   2.665   1.064   8.543 -0.4740 -1.3248 -0.0742
  184MOL0     H25359   2.545   1.118   8.439  1.3621 -2.7492  0.6779
  184MOL0     H25360   2.751   1.290   8.591 -0.3980 -0.7344  0.2009
  184MOL0     H25361   2.616   1.369   8.509 -1.5807 -1.4832 -1.0996
  184MOL0     H25362   2.782   1.404   8.358 -0.8038  0.2460 -0.0873
  184MOL0     H25363   2.678   1.280   8.294 -0.4891 -1.3144  1.2949
  184MOL0     H25364   2.956   1.276   8.442  0.6253 -1.3096  1.1680
  184MOL0     H25365   2.865   1.123   8.430 -1.2975  0.4673 -0.3536
  184MOL0     H25366   3.056   1.178   8.266  0.7786 -0.1669 -0.2292
  184MOL0     H25367   2.953   1.305   8.191 -0.5233 -0.3009 -2.0780
  184MOL0     H25368   2.829   1.152   8.090  1.5541 -1.2139 -1.8756
  184MOL0     H25369   2.863   1.013   8.220  0.0331 -0.6745 -0.1532
  184MOL0     H25370   3.082   0.993   8.133  0.3251 -1.8159 -2.7603
  184MOL0     H25371   3.057   1.108   7.999  2.4153 -1.0050  0.4956
  184MOL0     H25372   2.395   1.509   8.706  0.5515  1.6771  1.6117
  184MOL0     H25373   2.233   1.580   8.903  1.8308  0.4342  1.1089
  184MOL0     H25374   1.996   1.402   9.278  2.6531  2.1181 -1.8430
  184MOL0     H25375   1.863   1.521   9.461 -4.4988 -0.6398 -0.2548
  184MOL0     H25376   0.635   1.400   9.948 -1.4478 -1.7553 -0.4248
  184MOL0     H25377   0.461   1.582   9.895 -1.1979  0.0872 -0.0142
  184MOL0     H25378   0.339   1.974   9.742 -1.7485 -1.3593  1.1174
  184MOL0     H25379   0.276   2.210   9.705  0.1841 -1.2198  0.5488
  184MOL0     H25380   0.297   2.515   9.786 -0.7481  1.6911 -2.3295
  184MOL0     H25381   0.183   2.394   9.722 -1.5775  0.1913  1.7393
  184MOL0     H25382   0.146   2.613   9.933  1.5328  0.3112 -0.7785
  184MOL0     H25383   0.010   2.525   9.860 -0.5651 -0.8396 -0.4889
  184MOL0     H25384   0.199   2.716   9.717  0.7876 -0.6214 -2.4786
  184MOL0     H25385   0.092   2.609   9.628 -2.5275  2.4849 -0.9553
  184MOL0     H25386  -0.022   2.778   9.845 -2.5483  1.8357 -0.4218
  184MOL0     H25387  -0.099   2.708   9.700  0.3365  0.4679  1.5129
  184MOL0     H25388  -0.023   3.078   9.547  0.9924 -1.0096 -0.4084
  184MOL0     H25389   0.285   2.254  10.138 -1.2560 -0.4883  0.2338
  184MOL0     H25390   0.424   2.140  10.264  2.2224  1.7628 -2.1879
  184MOL0     H25391   0.401   1.970  10.255 -2.1109  1.5127  1.3521
  184MOL0     H25392   0.530   2.054  10.164  0.5412  0.1491  0.4518
  185MOL0     O25393   6.086   4.722   8.616 -0.1723 -0.0335  0.3818
  185MOL0     C25394   6.151   4.780   8.706 -0.8515 -0.4712  0.1567
  185MOL0     O25395   6.107   4.905   8.756 -0.9386 -0.2187 -0.0849
  185MOL0     C25396   6.028   4.988   8.683  0.1977  0.1237 -0.5676
  185MOL0     C25397   6.034   4.993   8.542  0.7815 -0.9126  0.6980
  185MOL0     C25398   5.950   5.080   8.469 -1.0317 -0.2040  0.0865
  185MOL0     C25399   5.854   5.158   8.541  0.5303 -0.0224 -0.6618
  185MOL0     O25400   5.754   5.237   8.488  0.5089 -0.2613  0.0792
  185MOL0     C25401   5.621   5.186   8.474 -0.2641  0.1260  0.4707
  185MOL0     C25402   5.606   5.101   8.346 -0.8536 -0.7041 -0.3671
  185MOL0     C25403   5.647   5.170   8.215 -0.4280 -0.6694 -1.2559
  185MOL0     C25404   5.750   5.089   8.136 -0.1513  0.3335  0.5594
  185MOL0     C25405   5.662   4.989   8.058 -0.3679  0.4597 -0.1986
  185MOL0     C25406   5.736   4.889   7.968  0.0143  0.4866  0.2200
  185MOL0     C25407   5.654   4.763   7.939 -0.3264  1.1184  1.4211
  185MOL0     C25408   5.668   4.644   8.026  0.3289 -0.3989  0.3917
  185MOL0     N25409   5.625   4.688   8.160 -0.4313 -0.7734  0.0484
  185MOL0     C25410   5.707   4.705   8.269 -0.1760 -0.0050 -0.3600
  185MOL0     C25411   5.624   4.763   8.366 -0.3538  0.8134  0.3746
  185MOL0     C25412   5.681   4.807   8.498  0.4893  0.6674  0.1496
  185MOL0     C25413   5.701   4.694   8.601 -0.5439  0.2200 -0.9683
  185MOL0     C25414   5.563   4.659   8.662 -0.5167 -0.4734  0.2495
  185MOL0     C25415   5.512   4.759   8.759  0.5485 -1.4554  0.6752
  185MOL0     O25416   5.610   4.803   8.853  0.3286  0.3462 -0.6150
  185MOL0     C25417   5.649   4.737   8.962  0.0227 -0.1214 -0.1848
  185MOL0     C25418   5.762   4.794   9.037  0.4125 -0.2237  0.0143
  185MOL0     C25419   5.796   4.745   9.162 -0.5913  0.3163 -0.3292
  185MOL0     C25420   5.901   4.834   9.234  1.2034  0.4450 -0.2837
  185MOL0     C25421   5.730   4.631   9.219  0.5938 -0.5595  0.2219
  185MOL0     C25422   5.762   4.576   9.354 -0.0238  0.1685  0.9770
  185MOL0     O25423   5.736   4.443   9.374  0.6713  0.2975  0.4002
  185MOL0     C25424   5.749   4.395   9.503 -1.1592 -0.4312  0.2050
  185MOL0     C25425   5.632   4.399   9.578  0.4370 -0.5059  0.7724
  185MOL0     C25426   5.628   4.364   9.711 -0.2786 -0.1562 -0.4608
  185MOL0     C25427   5.744   4.334   9.784  0.3268 -0.2710  0.9728
  185MOL0     O25428   5.744   4.308   9.917 -0.5767  0.4600 -0.5336
  185MOL0     C25429   5.865   4.309   9.989 -0.6778  0.9012  0.3635
  185MOL0     C25430   5.831   4.317  10.138  0.1055  0.6007  0.8446
  185MOL0     C25431   5.724   4.418  10.186  0.1125  0.6568  0.5767
  185MOL0     C25432   5.581   4.357  10.212  0.3131 -0.6621  0.3731
  185MOL0     C25433   5.485   4.449  10.291 -1.0613 -0.5411 -0.6671
  185MOL0     C25434   5.528   4.467  10.440 -0.1531 -0.5742  0.1774
  185MOL0     C25435   5.573   4.330  10.496  0.8051 -0.0610  0.1953
  185MOL0     C25436   5.586   4.345  10.647  0.8739  0.4890  0.4100
  185MOL0    Cl25437   5.697   4.478  10.668 -0.3792  0.2611  0.2789
  185MOL0     C25438   5.862   4.338   9.703  1.2866  0.2219  0.3376
  185MOL0     C25439   5.870   4.367   9.567  0.8277 -0.4507 -0.3426
  185MOL0     O25440   5.819   4.652   9.425 -1.0670 -0.0369 -0.5844
  185MOL0     C25441   5.628   4.577   9.142  0.0181 -0.6391 -0.6665
  185MOL0     C25442   5.584   4.625   9.019  0.2951  0.5173 -1.2381
  185MOL0     N25443   5.495   4.757   8.315  0.1435  0.5677 -0.2050
  185MOL0     N25444   5.491   4.710   8.197 -0.3580 -0.3221 -0.0198
  185MOL0     C25445   5.869   5.160   8.687  0.0158  0.3250  0.6263
  185MOL0     C25446   5.951   5.073   8.754 -0.1740  0.0947  0.1421
  185MOL0     C25447   6.264   4.716   8.787  0.2114 -0.1053 -0.1118
  185MOL0     C25448   6.308   4.777   8.907  0.0439 -0.2076 -0.2818
  185MOL0     C25449   6.404   4.720   8.982 -1.2566  0.8014 -0.3209
  185MOL0     C25450   6.477   4.605   8.936 -0.1519  0.4540 -0.3712
  185MOL0     O25451   6.580   4.537   8.999  0.4078  0.4116 -0.2644
  185MOL0     C25452   6.674   4.606   9.073 -1.4893 -0.5465 -0.4513
  185MOL0     C25453   6.800   4.626   8.979  0.2536  0.7244 -0.2800
  185MOL0     C25454   6.900   4.710   9.053 -0.6069  0.4237 -0.0119
  185MOL0     C25455   7.041   4.679   9.005 -0.9309  0.1200 -0.4808
  185MOL0     C25456   7.106   4.793   8.950  0.1592 -0.1183  0.0072
  185MOL0     C25457   7.142   4.908   8.933 -0.0952  0.3389 -0.3588
  185MOL0     C25458   6.434   4.549   8.819  0.0267  0.1497  0.5028
  185MOL0     C25459   6.327   4.598   8.744 -0.3487  0.9758 -0.3474
  185MOL0     C25460   6.289   4.516   8.615 -0.2952  0.2715 -0.6380
  185MOL0     H25461   6.099   4.925   8.487  0.2908 -2.0815  1.5167
  185MOL0     H25462   5.953   5.081   8.360  0.0729  0.6363  0.1105
  185MOL0     H25463   5.564   5.280   8.479 -1.4407 -0.5242 -0.2422
  185MOL0     H25464   5.591   5.132   8.564 -0.2968 -2.1541 -0.8418
  185MOL0     H25465   5.677   5.018   8.351 -1.4216 -1.1889 -0.1706
  185MOL0     H25466   5.508   5.052   8.343  0.8882 -4.5000 -0.5915
  185MOL0     H25467   5.567   5.188   8.143 -0.5265  2.3335 -0.4959
  185MOL0     H25468   5.689   5.267   8.242 -1.8858 -0.3490  0.0456
  185MOL0     H25469   5.809   5.157   8.075 -1.7110  1.6487  0.4647
  185MOL0     H25470   5.826   5.030   8.189  1.2226 -1.6995 -3.2311
  185MOL0     H25471   5.595   5.043   7.991 -1.8585  0.7926  1.4480
  185MOL0     H25472   5.597   4.936   8.129  0.2882  1.0174  0.8454
  185MOL0     H25473   5.772   4.948   7.883 -2.0151 -0.7187 -1.5563
  185MOL0     H25474   5.822   4.854   8.026 -0.6403  0.8318  1.4387
  185MOL0     H25475   5.700   4.730   7.846  2.3668 -2.0408  3.6351
  185MOL0     H25476   5.548   4.790   7.931 -0.4158  0.3695 -0.2319
  185MOL0     H25477   5.619   4.555   7.985  0.4657  0.6492 -2.2171
  185MOL0     H25478   5.775   4.621   8.031  1.3644  3.8241  1.4444
  185MOL0     H25479   5.816   4.706   8.276  0.0855  0.3768 -3.3753
  185MOL0     H25480   5.629   4.899   8.529 -0.9820 -0.2244  0.4547
  185MOL0     H25481   5.779   4.837   8.461 -0.4978  0.6453 -2.7731
  185MOL0     H25482   5.744   4.605   8.553  1.0776  1.2342 -1.4673
  185MOL0     H25483   5.769   4.713   8.685 -3.0850 -0.3292  1.3827
  185MOL0     H25484   5.492   4.635   8.582  0.4136 -2.9881  0.0959
  185MOL0     H25485   5.588   4.571   8.722  0.9921 -0.6556 -0.5969
  185MOL0     H25486   5.486   4.850   8.704 -1.5558 -0.2099  3.4762
  185MOL0     H25487   5.424   4.732   8.818 -0.0902  1.0756  0.9862
  185MOL0     H25488   5.815   4.882   8.999 -0.5439 -0.7266 -2.7393
  185MOL0     H25489   5.984   4.778   9.279  1.9870  3.3036  2.1421
  185MOL0     H25490   5.849   4.887   9.314  0.3976  1.2194 -1.2889
  185MOL0     H25491   5.954   4.912   9.179  0.8431  1.7642  1.1705
  185MOL0     H25492   5.537   4.412   9.527  0.9424 -2.3968 -0.7651
  185MOL0     H25493   5.533   4.352   9.763  1.1378 -1.9048  1.9108
  185MOL0     H25494   5.923   4.220   9.963 -1.6362  0.4719 -0.3598
  185MOL0     H25495   5.934   4.392   9.968  0.5415  0.9476  3.9429
  185MOL0     H25496   5.821   4.217  10.179 -0.5619 -0.6327 -2.0493
  185MOL0     H25497   5.924   4.350  10.185  0.0297  1.7611  0.2168
  185MOL0     H25498   5.721   4.498  10.111  5.0387 -0.8014 -1.5659
  185MOL0     H25499   5.754   4.456  10.284  2.1753 -2.8910  1.4751
  185MOL0     H25500   5.583   4.258  10.258 -1.2142  1.0033  4.4675
  185MOL0     H25501   5.535   4.340  10.114  0.6001  2.1662 -0.3406
  185MOL0     H25502   5.496   4.550  10.252 -0.6710 -0.2972  0.0753
  185MOL0     H25503   5.382   4.412  10.288 -0.9319 -1.0518  0.6783
  185MOL0     H25504   5.442   4.499  10.499  0.6049  0.2440  0.8791
  185MOL0     H25505   5.596   4.551  10.457 -2.4616  1.4742 -0.1502
  185MOL0     H25506   5.673   4.293  10.471  1.0771 -1.6318  3.1175
  185MOL0     H25507   5.504   4.251  10.468  1.4496 -0.2344 -0.9500
  185MOL0     H25508   5.613   4.243  10.677 -1.1938 -0.1775  0.1676
  185MOL0     H25509   5.483   4.363  10.679  0.7910  1.7472 -0.4908
  185MOL0     H25510   5.955   4.300   9.744  1.8629  0.3830 -0.7624
  185MOL0     H25511   5.962   4.368   9.510  1.8873  0.7367  1.3070
  185MOL0     H25512   5.591   4.481   9.178 -0.4396 -2.0134 -4.3671
  185MOL0     H25513   5.487   4.601   8.976  0.4460 -0.2867 -1.1512
  185MOL0     H25514   5.804   5.228   8.742  0.9592  1.8774 -0.0900
  185MOL0     H25515   5.977   5.093   8.857 -0.2955  1.9699 -0.1582
  185MOL0     H25516   6.253   4.859   8.952  0.6864 -0.5945  1.2674
  185MOL0     H25517   6.438   4.764   9.075  0.1754  0.6648 -0.7597
  185MOL0     H25518   6.648   4.709   9.101  0.8726  0.8468 -2.9173
  185MOL0     H25519   6.706   4.547   9.159 -1.1840 -0.0053 -0.1916
  185MOL0     H25520   6.767   4.667   8.883  0.8228  0.4268 -0.6060
  185MOL0     H25521   6.839   4.527   8.954  0.7383  0.4394  1.4956
  185MOL0     H25522   6.873   4.815   9.038 -0.4654  0.3385 -0.8936
  185MOL0     H25523   6.901   4.679   9.158  3.8261 -0.2725 -0.0569
  185MOL0     H25524   7.046   4.620   8.912  2.2490  1.7447 -1.4852
  185MOL0     H25525   7.106   4.624   9.074  0.8618  0.5020 -1.7626
  185MOL0     H25526   7.177   5.008   8.947  2.8061 -0.7996  1.3032
  185MOL0     H25527   6.491   4.462   8.789  0.4651  0.5376  0.2001
  185MOL0     H25528   6.360   4.436   8.593 -3.7129 -3.0714 -0.5219
  185MOL0     H25529   6.196   4.461   8.626 -0.0992  0.1192  0.3214
  185MOL0     H25530   6.283   4.587   8.532  1.1974 -0.1351 -1.1252
  186MOL0     O25531   0.330  10.415   9.960  0.7551 -0.8504  0.6056
  186MOL0     C25532   0.323  10.525  10.011 -0.6888  0.1968 -0.9496
  186MOL0     O25533   0.290  10.543  10.144 -0.1659  0.0509  0.4709
  186MOL0     C25534   0.290  10.430  10.223  0.1124 -0.5642 -0.3265
  186MOL0     C25535   0.179  10.385  10.289  0.5907  0.5641 -0.0613
  186MOL0     C25536   0.179  10.266  10.371 -0.1197  0.0174  0.0034
  186MOL0     C25537   0.295  10.195  10.395  1.0797 -0.0004 -0.0610
  186MOL0     O25538   0.302  10.073  10.458  0.3662 -0.2425  0.5132
  186MOL0     C25539   0.195  10.015  10.537  0.4356  0.2849  0.5781
  186MOL0     C25540   0.243   9.872  10.586 -0.1158  0.0929 -0.0818
  186MOL0     C25541   0.173   9.802  10.695  0.9033 -0.3528 -0.6382
  186MOL0     C25542   0.238   9.657  10.710 -0.0946  0.7472 -0.2412
  186MOL0     C25543   0.155   9.590  10.827 -1.4978  0.0301  0.6334
  186MOL0     C25544   0.245   9.470  10.878  0.4860  0.2286  0.0250
  186MOL0     C25545   0.175   9.352  10.955  0.9398 -0.8746  0.3048
  186MOL0     C25546   0.074   9.273  10.866  1.0047  0.8597  0.1350
  186MOL0     N25547  -0.064   9.290  10.920 -0.5231 -0.0430 -0.1936
  186MOL0     C25548  -0.101   9.241  11.042 -0.3646 -0.3240 -0.1483
  186MOL0     C25549  -0.208   9.314  11.093  0.1735  0.1151  0.7514
  186MOL0     C25550  -0.293   9.290  11.214  0.1140  0.2762 -0.5928
  186MOL0     C25551  -0.232   9.382  11.337 -0.6178 -0.5133  0.3804
  186MOL0     C25552  -0.090   9.358  11.393 -0.7958  0.9103  0.9922
  186MOL0     C25553  -0.084   9.232  11.482  0.3953  0.4419 -0.5685
  186MOL0     O25554  -0.141   9.267  11.611 -0.0977  0.3339 -0.2117
  186MOL0     C25555  -0.146   9.186  11.718 -0.1541  0.3778  0.1273
  186MOL0     C25556  -0.158   9.259  11.835 -1.0363  0.3019 -0.5576
  186MOL0     C25557  -0.157   9.190  11.959  0.7432  0.3325 -1.3499
  186MOL0     C25558  -0.212   9.270  12.083  0.4098 -0.1827  0.7128
  186MOL0     C25559  -0.125   9.051  11.969  0.4464  0.0816  0.2692
  186MOL0     C25560  -0.105   8.977  12.095 -0.9881  0.1454  0.2091
  186MOL0     O25561  -0.135   9.027  12.210 -0.0267 -0.0800 -0.1365
  186MOL0     C25562  -0.096   8.957  12.324  0.1892 -0.1498  0.4374
  186MOL0     C25563  -0.192   8.868  12.384 -0.9181  0.0178  0.3148
  186MOL0     C25564  -0.152   8.788  12.496 -0.3616 -0.9882 -0.1818
  186MOL0     C25565  -0.033   8.810  12.558  0.5654 -0.1117  0.5748
  186MOL0     O25566  -0.009   8.740  12.677  0.1303  0.0835 -0.1044
  186MOL0     C25567   0.110   8.667  12.699 -0.3758  0.6612  0.6702
  186MOL0     C25568   0.095   8.576  12.822 -0.1766 -0.9696  0.3178
  186MOL0     C25569  -0.005   8.460  12.797 -0.3316 -0.4812  0.4092
  186MOL0     C25570   0.040   8.367  12.693  0.5517 -0.4365 -0.2280
  186MOL0     C25571  -0.047   8.235  12.702  0.1636  0.1882  1.1739
  186MOL0     C25572  -0.194   8.241  12.638  0.0403 -0.2354 -0.5914
  186MOL0     C25573  -0.211   8.310  12.505 -0.0665  0.4453 -0.2614
  186MOL0     C25574  -0.246   8.208  12.391  0.6286  0.4924  0.5237
  186MOL0    Cl25575  -0.333   8.294  12.259  0.2621 -0.2384  0.1704
  186MOL0     C25576   0.059   8.896  12.495  0.1361  0.6873 -0.0269
  186MOL0     C25577   0.027   8.967  12.381  1.0851 -0.1614  0.1847
  186MOL0     O25578  -0.054   8.866  12.082 -0.5948  0.1475 -0.2439
  186MOL0     C25579  -0.119   8.978  11.847 -0.1260  0.7760  0.5695
  186MOL0     C25580  -0.120   9.045  11.720 -1.2273  1.5066 -0.3460
  186MOL0     N25581  -0.213   9.422  11.007 -0.3179 -0.5947 -0.4394
  186MOL0     N25582  -0.141   9.401  10.900 -0.2964  0.7158  0.3553
  186MOL0     C25583   0.405  10.238  10.316 -0.9511 -0.0887 -0.3114
  186MOL0     C25584   0.406  10.358  10.240 -0.0513 -0.8383 -0.8112
  186MOL0     C25585   0.343  10.639   9.912  0.5499  0.5548 -0.5906
  186MOL0     C25586   0.381  10.759   9.965 -0.1928  0.0636 -1.0202
  186MOL0     C25587   0.393  10.880   9.888 -0.3578 -0.7198 -0.0022
  186MOL0     C25588   0.354  10.887   9.752 -0.2685  0.1581 -0.0002
  186MOL0     O25589   0.344  11.001   9.678  0.9871  0.0512 -1.4617
  186MOL0     C25590   0.217  11.055   9.665  0.1806 -0.3840 -0.9034
  186MOL0     C25591   0.219  11.204   9.675 -0.5808 -0.2946  0.0882
  186MOL0     C25592   0.329  11.263   9.579  0.0779  0.4802  0.4424
  186MOL0     C25593   0.317  11.421   9.578  0.4759  0.6496 -0.3431
  186MOL0     C25594   0.370  11.470   9.706  0.4547  1.5089 -0.5214
  186MOL0     C25595   0.401  11.528   9.810 -0.9097  0.8346 -0.3181
  186MOL0     C25596   0.325  10.764   9.694  0.1105  1.0961 -0.0672
  186MOL0     C25597   0.316  10.644   9.768  0.6751  0.6741  0.3439
  186MOL0     C25598   0.283  10.510   9.695  1.2192  0.2835  0.5059
  186MOL0     H25599   0.085  10.427  10.253  0.2240  2.5659  2.8078
  186MOL0     H25600   0.087  10.228  10.413 -1.2914  2.3453 -0.2784
  186MOL0     H25601   0.111  10.008  10.467 -2.4645  1.2692  3.7097
  186MOL0     H25602   0.165  10.076  10.622  1.1592  2.1575 -0.4384
  186MOL0     H25603   0.241   9.800  10.503  4.0696  2.1860 -2.3575
  186MOL0     H25604   0.344   9.883  10.627 -0.0446 -0.2913 -0.1448
  186MOL0     H25605   0.171   9.849  10.794  0.4694 -0.9017 -0.3855
  186MOL0     H25606   0.072   9.779  10.662  0.0290 -1.1452  2.2918
  186MOL0     H25607   0.214   9.594  10.623 -1.5424 -0.5551  1.0316
  186MOL0     H25608   0.345   9.669  10.730 -0.7450  4.7966  1.7790
  186MOL0     H25609   0.059   9.547  10.798 -1.6832 -0.8599  2.4529
  186MOL0     H25610   0.139   9.651  10.916 -0.8493 -0.6537  1.2352
  186MOL0     H25611   0.285   9.426  10.786  1.9383  0.1903  0.6614
  186MOL0     H25612   0.317   9.510  10.949 -1.7062  3.0676  0.8509
  186MOL0     H25613   0.130   9.394  11.046  3.1948 -1.2407  1.6639
  186MOL0     H25614   0.251   9.291  11.004  0.5147 -0.1882  1.9058
  186MOL0     H25615   0.074   9.290  10.758 -1.0021 -1.5999 -0.3615
  186MOL0     H25616   0.101   9.167  10.863 -0.5462  0.4601 -0.5871
  186MOL0     H25617  -0.046   9.169  11.102 -1.0042  0.1732  1.0860
  186MOL0     H25618  -0.297   9.190  11.257 -0.4097  0.7020  0.3756
  186MOL0     H25619  -0.390   9.330  11.184 -0.8375  1.7110  3.7055
  186MOL0     H25620  -0.221   9.482  11.292 -0.8195 -0.6770 -0.0390
  186MOL0     H25621  -0.304   9.385  11.419  1.6327  2.1764  2.4592
  186MOL0     H25622  -0.019   9.338  11.312 -1.0651  0.1763  0.9233
  186MOL0     H25623  -0.058   9.450  11.442 -1.1341  1.2150  0.6512
  186MOL0     H25624  -0.134   9.143  11.442 -0.0595 -0.5898  2.0718
  186MOL0     H25625   0.019   9.203  11.508 -0.5499 -2.7356  0.0513
  186MOL0     H25626  -0.167   9.367  11.829 -4.3276  0.0759 -1.7557
  186MOL0     H25627  -0.289   9.217  12.141 -0.4758  0.4418  0.1251
  186MOL0     H25628  -0.264   9.362  12.054 -2.9020 -2.5102 -1.5629
  186MOL0     H25629  -0.133   9.285  12.157 -1.7320  1.3176  2.8681
  186MOL0     H25630  -0.282   8.862  12.323  0.2390 -0.1893 -1.4415
  186MOL0     H25631  -0.225   8.732  12.553 -1.1589 -0.5614 -0.7681
  186MOL0     H25632   0.138   8.607  12.613  2.7426  0.6719  1.5435
  186MOL0     H25633   0.194   8.736  12.715 -0.4952  1.0875 -0.4730
  186MOL0     H25634   0.197   8.544  12.841  2.2068  4.8486 -0.6112
  186MOL0     H25635   0.066   8.636  12.908  2.3431  0.0364  0.5413
  186MOL0     H25636  -0.108   8.497  12.793 -1.0873 -2.2454  2.1972
  186MOL0     H25637  -0.008   8.394  12.884 -2.5708 -0.2474  0.5740
  186MOL0     H25638   0.141   8.347  12.729  0.3219 -2.9955 -0.8674
  186MOL0     H25639   0.055   8.399  12.589  1.8430 -2.0922 -0.5789
  186MOL0     H25640   0.004   8.153  12.651 -0.7047 -0.4651  1.3306
  186MOL0     H25641  -0.062   8.210  12.808 -1.2131 -0.4358  0.8549
  186MOL0     H25642  -0.257   8.308  12.698 -1.1817 -1.9538  0.1083
  186MOL0     H25643  -0.234   8.140  12.635 -0.2178 -0.2370  1.3881
  186MOL0     H25644  -0.115   8.350  12.472 -0.8197  1.7126 -0.9924
  186MOL0     H25645  -0.288   8.387  12.516 -0.9563 -0.4590 -0.0286
  186MOL0     H25646  -0.300   8.123  12.435 -1.0914  0.7495 -0.9667
  186MOL0     H25647  -0.157   8.152  12.359  0.0714  0.3685 -0.8802
  186MOL0     H25648   0.157   8.905  12.540  0.4269 -1.7570 -0.0513
  186MOL0     H25649   0.098   9.039  12.342  0.8968  0.6494  1.2835
  186MOL0     H25650  -0.094   8.873  11.855  1.6679  0.8241 -2.7681
  186MOL0     H25651  -0.116   8.993  11.625 -0.8095 -0.7809  0.8507
  186MOL0     H25652   0.496  10.180  10.318 -0.5430  0.4954 -1.2273
  186MOL0     H25653   0.491  10.373  10.174  3.4160 -2.3370  2.9054
  186MOL0     H25654   0.410  10.766  10.070  1.1217 -1.4069 -1.2429
  186MOL0     H25655   0.421  10.978   9.925  0.8543  1.0532 -4.7740
  186MOL0     H25656   0.174  11.012   9.574  0.9925  1.8849 -2.4430
  186MOL0     H25657   0.157  11.020   9.750  1.0512 -0.4631 -0.3088
  186MOL0     H25658   0.238  11.236   9.778  0.3019  0.1455 -0.1998
  186MOL0     H25659   0.124  11.247   9.642  0.0790 -1.7615 -4.4071
  186MOL0     H25660   0.427  11.226   9.612 -0.8818 -3.1940 -0.4405
  186MOL0     H25661   0.315  11.231   9.475  1.3221  1.8419 -0.1863
  186MOL0     H25662   0.220  11.462   9.547 -0.1986 -1.0307 -0.5449
  186MOL0     H25663   0.380  11.473   9.505  1.7347  0.7711  0.7941
  186MOL0     H25664   0.439  11.584   9.893 -2.4015  1.2758  0.1039
  186MOL0     H25665   0.319  10.777   9.587  1.7014  0.5609 -0.2533
  186MOL0     H25666   0.357  10.434   9.721  0.3907 -0.0827  1.9241
  186MOL0     H25667   0.184  10.474   9.725  0.6454 -0.6120 -2.1836
  186MOL0     H25668   0.289  10.532   9.588  1.3436 -1.2397  0.1710
  187MOL0     O25669   8.101   3.207  10.129 -0.3872  0.3459 -0.1499
  187MOL0     C25670   7.999   3.215  10.061  0.8403  0.1297  0.6101
  187MOL0     O25671   7.882   3.287  10.092 -0.0038  0.0206  0.0924
  187MOL0     C25672   7.905   3.368  10.205  0.8986 -0.7034  0.9079
  187MOL0     C25673   7.883   3.309  10.328  0.4899  0.2306  0.7070
  187MOL0     C25674   7.904   3.378  10.449 -0.2882  0.1284 -0.4676
  187MOL0     C25675   7.952   3.510  10.443 -0.2709  0.5420 -0.3346
  187MOL0     O25676   7.953   3.577  10.563 -0.1663 -0.0922  0.3382
  187MOL0     C25677   7.995   3.716  10.552 -1.0448  0.1440 -0.6963
  187MOL0     C25678   8.002   3.765  10.692 -0.3653 -0.3862 -0.8136
  187MOL0     C25679   8.034   3.912  10.703 -0.2111 -0.2766  0.4038
  187MOL0     C25680   7.916   4.000  10.664 -0.3256  0.1273 -0.0372
  187MOL0     C25681   7.978   4.146  10.662  0.1507  0.1591 -0.2746
  187MOL0     C25682   7.880   4.253  10.633  0.8653 -0.1850  0.5126
  187MOL0     C25683   7.945   4.383  10.635 -0.0781 -0.6740 -0.6130
  187MOL0     C25684   7.967   4.439  10.781  0.3351  0.1155  0.3745
  187MOL0     N25685   7.977   4.591  10.771  0.2240  0.4875 -0.8386
  187MOL0     C25686   7.901   4.672  10.691 -0.0048  0.7992 -0.2014
  187MOL0     C25687   7.963   4.793  10.686  0.4089 -0.4981  0.9166
  187MOL0     C25688   7.902   4.923  10.645 -0.2661  1.5422 -0.3276
  187MOL0     C25689   7.789   4.952  10.746  0.6131  0.6085  0.7123
  187MOL0     C25690   7.713   5.084  10.705  0.0479  0.2908 -1.3332
  187MOL0     C25691   7.620   5.134  10.820  0.3884 -0.1510  0.1979
  187MOL0     O25692   7.562   5.263  10.789 -0.4517 -0.1229  0.5528
  187MOL0     C25693   7.544   5.347  10.890 -0.3485  0.3162  0.1747
  187MOL0     C25694   7.547   5.312  11.031 -0.7488 -0.2621 -0.1112
  187MOL0     C25695   7.519   5.413  11.129  0.4379 -0.3820  0.7679
  187MOL0     C25696   7.547   5.368  11.266 -0.1883 -0.4125  0.3935
  187MOL0     C25697   7.483   5.540  11.085  0.7068  0.7644 -0.0322
  187MOL0     C25698   7.466   5.653  11.176  1.0985  0.1084 -0.0388
  187MOL0     O25699   7.370   5.741  11.144  0.4843  0.3380 -0.4159
  187MOL0     C25700   7.373   5.873  11.188 -0.4681 -0.5928  0.0233
  187MOL0     C25701   7.435   5.971  11.105  0.3259 -0.2326 -0.3182
  187MOL0     C25702   7.448   6.101  11.157  0.0139  0.0050  0.6463
  187MOL0     C25703   7.393   6.136  11.274  0.0784  0.4057 -0.4663
  187MOL0     O25704   7.418   6.265  11.307  0.5169  0.2683  0.0494
  187MOL0     C25705   7.442   6.292  11.445 -0.5984 -0.0627  0.8745
  187MOL0     C25706   7.517   6.426  11.456 -0.0244  0.6121 -0.1812
  187MOL0     C25707   7.536   6.450  11.598 -0.1380 -0.8494 -1.2448
  187MOL0     C25708   7.603   6.593  11.606 -0.3193  1.0239 -0.7104
  187MOL0     C25709   7.641   6.630  11.755 -0.0402  0.4879  0.1579
  187MOL0     C25710   7.740   6.754  11.760  0.1330 -0.2305  0.3335
  187MOL0     C25711   7.846   6.735  11.869  0.6047 -0.2863 -0.5001
  187MOL0     C25712   7.934   6.854  11.883  0.2918  0.1717  0.3403
  187MOL0    Cl25713   8.025   6.870  11.729  0.6589 -0.2799 -0.0187
  187MOL0     C25714   7.315   6.051  11.346  0.1130 -0.6842 -0.0589
  187MOL0     C25715   7.309   5.919  11.306 -0.5697  0.6750  0.3610
  187MOL0     O25716   7.548   5.666  11.259 -0.6286 -0.5416  0.0599
  187MOL0     C25717   7.452   5.566  10.947 -0.4537  0.7145 -0.0186
  187MOL0     C25718   7.484   5.469  10.857 -0.8881  1.0140 -0.0472
  187MOL0     N25719   8.083   4.787  10.760 -0.3508  0.3654 -0.4500
  187MOL0     N25720   8.090   4.667  10.810  0.0919 -0.2327  1.0666
  187MOL0     C25721   7.965   3.573  10.314  0.0997  0.9949 -0.1985
  187MOL0     C25722   7.935   3.503  10.197 -0.3459 -0.1624  0.4203
  187MOL0     C25723   8.007   3.149   9.930 -0.2908  0.3577 -0.7880
  187MOL0     C25724   8.067   3.019   9.917 -0.2354 -0.2359 -0.1674
  187MOL0     C25725   8.057   2.954   9.793 -0.0317 -0.5760 -0.2923
  187MOL0     C25726   7.993   3.005   9.677  0.0923  0.0674  0.3854
  187MOL0     O25727   7.986   2.939   9.559 -0.4791  0.1131 -0.7827
  187MOL0     C25728   7.860   2.898   9.538 -0.2812  0.0846 -0.1425
  187MOL0     C25729   7.847   2.812   9.418  0.2444 -0.4627  0.0340
  187MOL0     C25730   7.919   2.679   9.433  0.5124 -0.5298 -0.9701
  187MOL0     C25731   7.881   2.605   9.308 -0.0621  0.5703 -0.5238
  187MOL0     C25732   7.919   2.672   9.182  0.4441  0.4572  0.0684
  187MOL0     C25733   7.964   2.734   9.080  0.5609  0.3470  0.3986
  187MOL0     C25734   7.939   3.130   9.695 -0.2173 -0.5181  0.3261
  187MOL0     C25735   7.944   3.205   9.818 -0.0730 -0.6267  0.3777
  187MOL0     C25736   7.889   3.346   9.818 -0.3265 -0.1045 -0.7310
  187MOL0     H25737   7.851   3.205  10.325 -0.9742  0.5810 -3.7171
  187MOL0     H25738   7.878   3.324  10.539 -1.9047 -0.2188 -1.1018
  187MOL0     H25739   7.922   3.780  10.501  0.9109  4.7890  1.6829
  187MOL0     H25740   8.096   3.734  10.513 -1.3459  2.2252 -0.6414
  187MOL0     H25741   7.902   3.743  10.730 -1.1100  0.0558 -2.4459
  187MOL0     H25742   8.065   3.707  10.760 -0.2834 -1.1977 -1.5568
  187MOL0     H25743   8.067   3.921  10.807  0.6284 -1.4718  0.2640
  187MOL0     H25744   8.130   3.936  10.656 -0.3247  0.7993  0.6851
  187MOL0     H25745   7.869   3.964  10.571  0.2184  1.5309 -0.8904
  187MOL0     H25746   7.833   4.001  10.735 -0.5926 -1.8995 -0.2631
  187MOL0     H25747   8.048   4.144  10.578 -0.7632 -0.7270 -1.0390
  187MOL0     H25748   8.027   4.152  10.760  0.8215  0.8398 -0.6385
  187MOL0     H25749   7.832   4.233  10.537 -3.2201  1.9187  1.8690
  187MOL0     H25750   7.795   4.247  10.701  1.8104  0.7796  1.8407
  187MOL0     H25751   7.875   4.445  10.578  0.5407  1.8809  1.2356
  187MOL0     H25752   8.042   4.386  10.583 -0.3035 -0.6250 -1.0320
  187MOL0     H25753   7.893   4.414  10.858  0.1338  1.4341  0.6435
  187MOL0     H25754   8.062   4.399  10.817 -0.5298 -0.1274  2.6043
  187MOL0     H25755   7.808   4.642  10.644 -0.7360  3.5332 -0.6738
  187MOL0     H25756   7.883   4.936  10.538 -1.9093  1.8328 -0.0199
  187MOL0     H25757   7.980   4.997  10.666  2.2058  0.2165 -3.8884
  187MOL0     H25758   7.730   4.862  10.728  3.4867 -0.9967 -1.6215
  187MOL0     H25759   7.834   4.959  10.845  1.7795  0.8831  0.1809
  187MOL0     H25760   7.781   5.168  10.685  0.9240  0.0850  0.5095
  187MOL0     H25761   7.675   5.074  10.603 -0.2668  4.7590 -1.8665
  187MOL0     H25762   7.535   5.066  10.830 -3.4492  4.1112  0.0097
  187MOL0     H25763   7.684   5.141  10.909  1.3297  3.9297 -0.6060
  187MOL0     H25764   7.573   5.215  11.074 -2.6294  0.2244  2.3378
  187MOL0     H25765   7.627   5.427  11.312  2.5753 -3.2740 -0.3391
  187MOL0     H25766   7.588   5.267  11.274 -2.0183 -1.2158  0.1283
  187MOL0     H25767   7.454   5.355  11.322  0.4066 -3.4903  0.8318
  187MOL0     H25768   7.487   5.949  11.013  1.6752  2.1544 -0.2316
  187MOL0     H25769   7.484   6.184  11.097 -3.2681 -0.3326 -2.0418
  187MOL0     H25770   7.353   6.289  11.508  0.8084  2.5762  3.2043
  187MOL0     H25771   7.507   6.210  11.477  1.4730  2.0156  2.3527
  187MOL0     H25772   7.608   6.434  11.394  1.6696  4.5671  2.3627
  187MOL0     H25773   7.456   6.506  11.413 -2.1297 -0.7244  0.2204
  187MOL0     H25774   7.596   6.367  11.637  1.4430  1.8186  2.6335
  187MOL0     H25775   7.447   6.446  11.661  0.7624  0.5771  0.1943
  187MOL0     H25776   7.530   6.664  11.568 -2.3158 -0.5866 -0.0708
  187MOL0     H25777   7.694   6.593  11.546 -1.3696 -1.3510 -2.4461
  187MOL0     H25778   7.547   6.663  11.799 -1.6506  1.6316 -3.7098
  187MOL0     H25779   7.670   6.535  11.801  0.7987 -0.4975 -2.2345
  187MOL0     H25780   7.682   6.840  11.794 -0.9804 -1.8015  2.6619
  187MOL0     H25781   7.791   6.775  11.665  2.3464  1.0540  1.7297
  187MOL0     H25782   7.895   6.643  11.837  1.7116  0.3836 -0.7941
  187MOL0     H25783   7.793   6.708  11.961 -2.0052 -0.3749 -1.9325
  187MOL0     H25784   8.013   6.825  11.953  1.8645 -0.1069 -1.4421
  187MOL0     H25785   7.874   6.941  11.913 -0.2258  0.1650 -0.6428
  187MOL0     H25786   7.256   6.087  11.430 -1.1520 -1.0245 -0.7622
  187MOL0     H25787   7.242   5.857  11.364  0.9405  0.3338  1.8459
  187MOL0     H25788   7.409   5.657  10.907  2.4304  3.3153  2.3287
  187MOL0     H25789   7.443   5.475  10.757 -1.2664  3.9169  0.1755
  187MOL0     H25790   8.003   3.673  10.298  0.7325  0.4379 -2.6928
  187MOL0     H25791   7.947   3.563  10.107 -2.8735  0.9922  0.7731
  187MOL0     H25792   8.128   2.971   9.992  2.6437  0.5054 -1.8801
  187MOL0     H25793   8.100   2.854   9.785 -0.4787 -0.7869 -0.0903
  187MOL0     H25794   7.828   2.833   9.620  0.2650 -0.9354 -0.7154
  187MOL0     H25795   7.794   2.985   9.536  1.1645  1.2596  0.8166
  187MOL0     H25796   7.891   2.860   9.331 -1.6718 -0.4258 -0.9638
  187MOL0     H25797   7.744   2.795   9.385  0.3114 -0.0555 -0.3902
  187MOL0     H25798   8.027   2.689   9.449  0.5500 -2.6770  0.4693
  187MOL0     H25799   7.885   2.627   9.523  0.0144 -0.4694 -1.1177
  187MOL0     H25800   7.773   2.590   9.299  0.0654 -0.9312  0.1989
  187MOL0     H25801   7.918   2.503   9.312  0.0457  0.6308  0.4281
  187MOL0     H25802   7.995   2.803   9.003 -2.0682 -0.3298 -1.4246
  187MOL0     H25803   7.897   3.165   9.602  0.1320 -0.8981  0.0216
  187MOL0     H25804   7.792   3.351   9.869 -1.0730 -0.0730 -2.1305
  187MOL0     H25805   7.950   3.417   9.874 -1.6739  0.1092  0.5448
  187MOL0     H25806   7.872   3.377   9.715 -3.6036 -2.3064 -1.0061
  188MOL0     O25807   2.657   7.118   1.476 -0.4798  0.2905 -0.7673
  188MOL0     C25808   2.560   7.122   1.405  0.4661  0.9418  0.1672
  188MOL0     O25809   2.432   7.119   1.447 -0.2610  0.8448  0.5126
  188MOL0     C25810   2.414   7.191   1.561  0.3735  0.4711  1.0744
  188MOL0     C25811   2.377   7.328   1.551 -0.1978  0.1920  0.0886
  188MOL0     C25812   2.351   7.398   1.662  0.0001 -0.3792  0.5107
  188MOL0     C25813   2.350   7.338   1.788  0.7741 -0.2442 -0.2136
  188MOL0     O25814   2.282   7.419   1.880 -0.1521  0.9290  0.5803
  188MOL0     C25815   2.359   7.462   2.002  1.1148 -0.0684  0.4418
  188MOL0     C25816   2.276   7.561   2.079  0.6520  0.6550  0.7361
  188MOL0     C25817   2.249   7.686   1.986 -0.2474  0.7113 -0.2090
  188MOL0     C25818   2.142   7.768   2.064 -0.3562  0.1379  0.0991
  188MOL0     C25819   2.139   7.911   2.026 -0.3734  0.1714 -0.5728
  188MOL0     C25820   2.115   7.949   1.877 -0.5125  0.2766 -0.8743
  188MOL0     C25821   2.042   8.090   1.884 -0.4170  0.0092  0.0889
  188MOL0     C25822   2.000   8.146   1.747  0.4393 -0.3548  0.0045
  188MOL0     N25823   2.100   8.211   1.662  0.6115 -0.1615 -0.0947
  188MOL0     C25824   2.139   8.171   1.534  0.8592 -0.0383 -0.9877
  188MOL0     C25825   2.231   8.258   1.489  0.0145 -0.0124 -0.2611
  188MOL0     C25826   2.320   8.257   1.368 -0.1183  0.2909  0.2805
  188MOL0     C25827   2.237   8.245   1.238 -1.0180  0.2300 -0.1214
  188MOL0     C25828   2.330   8.221   1.114 -0.2830  0.7698  0.1628
  188MOL0     C25829   2.433   8.319   1.084  0.0538 -0.4688  0.2772
  188MOL0     O25830   2.399   8.456   1.109 -0.2382 -0.2139 -0.0892
  188MOL0     C25831   2.489   8.553   1.125  0.8761 -0.0312 -1.3753
  188MOL0     C25832   2.620   8.541   1.103 -0.5651  0.4115 -0.6296
  188MOL0     C25833   2.711   8.650   1.111 -0.1526 -0.0586 -0.1286
  188MOL0     C25834   2.859   8.623   1.112 -0.0096 -0.9302 -0.4399
  188MOL0     C25835   2.663   8.785   1.124  0.1834 -1.0551 -0.2920
  188MOL0     C25836   2.735   8.918   1.123  0.3644 -0.2322  0.6770
  188MOL0     O25837   2.653   9.032   1.117 -0.0854  0.2513  0.7663
  188MOL0     C25838   2.711   9.149   1.080 -0.3772  0.2147  0.2021
  188MOL0     C25839   2.805   9.196   1.178  0.2988 -0.1280 -0.5085
  188MOL0     C25840   2.901   9.301   1.138 -0.3290  0.1714 -0.1265
  188MOL0     C25841   2.884   9.367   1.025 -0.5216  0.1222 -0.9637
  188MOL0     O25842   2.961   9.480   1.017  0.4346 -0.8553  0.9311
  188MOL0     C25843   2.889   9.589   0.955 -0.3298 -0.3562  1.1352
  188MOL0     C25844   2.952   9.612   0.814  0.0995 -0.3691 -0.8906
  188MOL0     C25845   3.099   9.669   0.819  0.3728 -0.1195  0.2047
  188MOL0     C25846   3.107   9.823   0.818  0.1863 -0.1336 -0.4403
  188MOL0     C25847   3.234   9.867   0.905  0.8018 -0.4232 -0.3828
  188MOL0     C25848   3.373   9.824   0.854 -0.6402 -0.4460 -0.0609
  188MOL0     C25849   3.412   9.905   0.732 -1.0626  0.1640  0.6683
  188MOL0     C25850   3.524  10.010   0.765 -1.2968  0.0429 -0.3974
  188MOL0    Cl25851   3.568  10.104   0.618  0.0948  0.0520  0.4081
  188MOL0     C25852   2.797   9.315   0.925  0.3391 -0.3387 -0.7249
  188MOL0     C25853   2.713   9.207   0.955  0.0293 -0.3040  0.1333
  188MOL0     O25854   2.855   8.914   1.086  0.5289  0.4327 -0.3632
  188MOL0     C25855   2.518   8.800   1.143  0.1828  0.5308  1.1690
  188MOL0     C25856   2.434   8.683   1.145 -0.0341 -0.3432 -0.1414
  188MOL0     N25857   2.242   8.350   1.589  0.9442 -1.2517 -0.6730
  188MOL0     N25858   2.171   8.313   1.697 -0.4938  0.7234 -0.0066
  188MOL0     C25859   2.390   7.204   1.803 -1.1978  0.5633  0.0496
  188MOL0     C25860   2.422   7.130   1.687  1.1699 -0.1085  0.6804
  188MOL0     C25861   2.586   7.145   1.263 -0.5014 -0.0303 -0.0265
  188MOL0     C25862   2.506   7.238   1.204  0.0547 -0.1570 -0.0976
  188MOL0     C25863   2.515   7.278   1.072 -0.7568  0.0345 -0.3703
  188MOL0     C25864   2.594   7.202   0.988  0.4673 -0.1723  0.8495
  188MOL0     O25865   2.615   7.208   0.854  0.6003  0.3472  0.2149
  188MOL0     C25866   2.563   7.323   0.791 -0.4340 -0.4593  0.8223
  188MOL0     C25867   2.669   7.416   0.751 -0.3570 -0.1182  0.8337
  188MOL0     C25868   2.615   7.523   0.670  0.0202  0.0433  0.6473
  188MOL0     C25869   2.728   7.609   0.615 -0.2175  0.0819 -0.6476
  188MOL0     C25870   2.798   7.534   0.517  0.3529 -0.1228  0.1457
  188MOL0     C25871   2.843   7.447   0.446  0.7330  0.2330 -0.4823
  188MOL0     C25872   2.668   7.106   1.040  0.0231  0.6216 -0.0410
  188MOL0     C25873   2.675   7.070   1.184  1.1895 -0.2071 -0.7718
  188MOL0     C25874   2.775   6.972   1.245 -1.2569 -0.7909 -0.4525
  188MOL0     H25875   2.391   7.375   1.455  0.1222  0.5328  0.3012
  188MOL0     H25876   2.316   7.500   1.657 -1.6116 -0.8724  1.0426
  188MOL0     H25877   2.454   7.509   1.972  0.9610  1.0926  1.6663
  188MOL0     H25878   2.382   7.379   2.069  1.2593  0.8836  1.6180
  188MOL0     H25879   2.183   7.514   2.112  0.0190  0.2895 -1.3965
  188MOL0     H25880   2.322   7.606   2.167 -0.8221  2.7679  0.5012
  188MOL0     H25881   2.346   7.736   1.995  1.4671 -2.3042 -0.5343
  188MOL0     H25882   2.239   7.663   1.879  0.0745  3.6983 -0.9616
  188MOL0     H25883   2.043   7.725   2.044  0.9392 -1.9131 -2.6548
  188MOL0     H25884   2.168   7.755   2.170  1.1274  1.3966 -0.0733
  188MOL0     H25885   2.236   7.951   2.057  1.2084 -1.7126 -2.7947
  188MOL0     H25886   2.069   7.964   2.092  1.5095  1.4906  0.4635
  188MOL0     H25887   2.199   7.956   1.809  0.5369  4.8589  0.5692
  188MOL0     H25888   2.052   7.869   1.835 -1.4823 -0.2348  1.3975
  188MOL0     H25889   2.116   8.154   1.933  0.8765  0.1429 -1.9175
  188MOL0     H25890   1.952   8.067   1.942 -1.4900 -1.2479 -1.9581
  188MOL0     H25891   1.953   8.059   1.700  1.0013  0.1286 -1.5122
  188MOL0     H25892   1.921   8.216   1.778  0.7533 -0.2785  0.6559
  188MOL0     H25893   2.112   8.083   1.477 -2.1236  0.7480 -0.9594
  188MOL0     H25894   2.403   8.187   1.380 -0.3337 -0.2050 -1.0051
  188MOL0     H25895   2.370   8.354   1.362 -1.0167  0.7376 -0.1036
  188MOL0     H25896   2.157   8.170   1.244 -2.0540  1.3281  0.1970
  188MOL0     H25897   2.184   8.340   1.226 -1.4211 -0.2177 -2.2064
  188MOL0     H25898   2.371   8.119   1.121 -1.0083  0.5269  0.9324
  188MOL0     H25899   2.256   8.224   1.033 -1.8510  1.0097  1.5758
  188MOL0     H25900   2.520   8.294   1.145 -0.6563 -1.0540  1.0738
  188MOL0     H25901   2.459   8.302   0.979 -0.9575 -3.8480  0.4400
  188MOL0     H25902   2.661   8.441   1.106 -1.2214  0.1685  2.1057
  188MOL0     H25903   2.879   8.523   1.150  0.6114 -0.7887 -0.3776
  188MOL0     H25904   2.905   8.691   1.184  0.1524 -2.6000  1.0842
  188MOL0     H25905   2.872   8.637   1.004 -3.3747  0.6766 -0.7680
  188MOL0     H25906   2.808   9.158   1.280  1.3701 -0.4552 -0.6542
  188MOL0     H25907   2.980   9.347   1.197  1.5805 -2.3478 -0.5526
  188MOL0     H25908   2.780   9.593   0.945 -0.2402 -0.7193 -0.2223
  188MOL0     H25909   2.905   9.670   1.027 -0.5071 -0.9210  1.8171
  188MOL0     H25910   2.951   9.513   0.768 -1.5924 -1.8982  2.1113
  188MOL0     H25911   2.904   9.694   0.759 -1.8355 -1.0269 -0.2641
  188MOL0     H25912   3.158   9.642   0.731 -1.0826  0.4128 -0.9549
  188MOL0     H25913   3.152   9.628   0.907 -1.9623 -2.4889  0.6329
  188MOL0     H25914   3.015   9.878   0.842 -0.7548  0.1244 -4.0253
  188MOL0     H25915   3.112   9.847   0.711 -1.7830 -1.6258 -0.9324
  188MOL0     H25916   3.225   9.976   0.917  0.7044 -0.3346 -1.2253
  188MOL0     H25917   3.213   9.826   1.004  2.3736  0.6975  0.4713
  188MOL0     H25918   3.389   9.716   0.846 -1.0203 -0.4540 -0.8705
  188MOL0     H25919   3.439   9.867   0.930 -1.0975  0.8320 -0.3690
  188MOL0     H25920   3.322   9.943   0.682 -1.3501 -0.1310  0.9547
  188MOL0     H25921   3.459   9.837   0.660 -3.8012 -1.9402  0.6760
  188MOL0     H25922   3.616   9.956   0.787 -0.4097  1.2820 -0.9487
  188MOL0     H25923   3.506  10.080   0.846  3.0660 -1.0610  1.8592
  188MOL0     H25924   2.797   9.359   0.826  5.2050  1.2432 -0.3030
  188MOL0     H25925   2.644   9.184   0.874 -0.8637  2.2484  0.0983
  188MOL0     H25926   2.473   8.899   1.144 -0.1344  0.4588  4.3192
  188MOL0     H25927   2.326   8.689   1.156  0.0526 -1.0423  1.4687
  188MOL0     H25928   2.388   7.147   1.896  2.7782  1.8913  1.1682
  188MOL0     H25929   2.448   7.027   1.705 -0.9313 -1.2486 -2.0307
  188MOL0     H25930   2.429   7.287   1.262 -0.1601  0.6589 -1.0359
  188MOL0     H25931   2.449   7.358   1.041 -1.1205 -0.0555  0.1623
  188MOL0     H25932   2.511   7.296   0.698 -0.0180  2.9660 -0.5233
  188MOL0     H25933   2.482   7.370   0.848  1.3313  0.8362  2.3626
  188MOL0     H25934   2.744   7.359   0.695 -2.1541  0.1196 -2.0405
  188MOL0     H25935   2.736   7.448   0.831  2.7899 -2.8958 -0.4423
  188MOL0     H25936   2.566   7.482   0.582  1.3436 -1.2639  0.4573
  188MOL0     H25937   2.542   7.581   0.726 -0.8944 -0.3987 -0.0554
  188MOL0     H25938   2.802   7.642   0.688 -2.1309  1.6890  0.6797
  188MOL0     H25939   2.679   7.699   0.575  0.2587 -0.1257 -1.7207
  188MOL0     H25940   2.865   7.372   0.373 -2.1501 -1.3375  0.1213
  188MOL0     H25941   2.733   7.064   0.964 -0.0428  2.8983 -1.4465
  188MOL0     H25942   2.854   7.023   1.301 -0.9530 -1.9976  0.2595
  188MOL0     H25943   2.736   6.899   1.316  2.3097  0.2022  2.8563
  188MOL0     H25944   2.818   6.906   1.168 -3.1957 -1.2553 -1.1849
  189MOL0     O25945   7.984   4.588  11.421 -0.5514 -0.3372  0.2920
  189MOL0     C25946   7.953   4.476  11.373  0.0337 -0.4120 -0.4474
  189MOL0     O25947   7.854   4.390  11.414  0.5700  0.2475  0.9203
  189MOL0     C25948   7.771   4.454  11.501 -0.6192 -0.7622 -0.1393
  189MOL0     C25949   7.782   4.442  11.641  0.5812  0.6829  1.0653
  189MOL0     C25950   7.692   4.510  11.722  0.1116 -1.1220  0.3356
  189MOL0     C25951   7.583   4.588  11.675  0.6542  0.0617 -0.1923
  189MOL0     O25952   7.488   4.643  11.759 -0.0087 -0.1264  0.9847
  189MOL0     C25953   7.343   4.617  11.724 -0.7104 -0.3551  0.1798
  189MOL0     C25954   7.267   4.756  11.722 -0.5326 -0.3558 -0.5027
  189MOL0     C25955   7.147   4.748  11.623 -0.0308 -0.0751 -0.1389
  189MOL0     C25956   7.080   4.882  11.614  0.2978 -0.8002 -0.4334
  189MOL0     C25957   6.952   4.874  11.528 -0.7263 -0.9698 -0.6791
  189MOL0     C25958   6.921   5.013  11.472 -0.8057 -1.1301 -0.4455
  189MOL0     C25959   6.798   5.014  11.372 -0.6292 -0.2908 -0.5247
  189MOL0     C25960   6.845   4.960  11.236  0.0153 -0.2647  0.0755
  189MOL0     N25961   6.800   5.052  11.121 -0.2103  0.3842 -0.3404
  189MOL0     C25962   6.821   5.195  11.115 -0.0398  0.5275  0.2037
  189MOL0     C25963   6.742   5.227  11.015  0.2340 -0.3632 -0.0503
  189MOL0     C25964   6.730   5.361  10.961  0.2408 -0.2181  0.0325
  189MOL0     C25965   6.596   5.377  10.880  1.2803 -0.9522  0.1003
  189MOL0     C25966   6.473   5.356  10.971  0.4701 -0.7918  0.0459
  189MOL0     C25967   6.343   5.386  10.895 -0.4858  0.0138  0.6932
  189MOL0     O25968   6.366   5.499  10.801 -0.3540  0.6081 -0.0626
  189MOL0     C25969   6.286   5.516  10.694 -0.9473 -0.4443 -0.1820
  189MOL0     C25970   6.164   5.465  10.690  0.2447  0.1998  0.3875
  189MOL0     C25971   6.092   5.489  10.572 -0.6494 -0.0779 -0.1325
  189MOL0     C25972   5.955   5.418  10.589  0.0849  0.1903  0.2197
  189MOL0     C25973   6.148   5.574  10.463  0.0543  1.1980 -1.4483
  189MOL0     C25974   6.073   5.613  10.351 -0.5641  0.2774  1.2395
  189MOL0     O25975   6.108   5.731  10.284 -0.7137  0.0076 -0.6165
  189MOL0     C25976   6.065   5.754  10.155 -0.3053 -0.4349  0.3327
  189MOL0     C25977   6.158   5.824  10.076 -0.0291  0.5556 -0.6488
  189MOL0     C25978   6.119   5.858   9.942 -0.3813 -0.6793  0.4399
  189MOL0     C25979   6.005   5.811   9.884 -0.6624  0.0957 -0.2063
  189MOL0     O25980   5.986   5.844   9.748 -0.3387 -0.1612 -0.0131
  189MOL0     C25981   5.847   5.870   9.707  0.5573 -0.1363  1.2922
  189MOL0     C25982   5.849   5.953   9.578  0.1656  0.4029  0.4546
  189MOL0     C25983   5.926   6.078   9.593  0.3701  1.1329  1.0886
  189MOL0     C25984   5.913   6.154   9.462 -0.1171  0.2663 -0.4685
  189MOL0     C25985   5.986   6.294   9.462  0.1548 -0.0444  0.3523
  189MOL0     C25986   5.927   6.383   9.348  0.3455  0.6752  0.2958
  189MOL0     C25987   5.976   6.526   9.343 -0.4260  0.7267 -0.3854
  189MOL0     C25988   5.901   6.622   9.439  0.0642 -0.8288  0.1310
  189MOL0    Cl25989   5.986   6.776   9.441 -0.0001  0.2783 -0.1245
  189MOL0     C25990   5.922   5.747   9.965  0.4572 -0.1517  0.2525
  189MOL0     C25991   5.950   5.716  10.092  1.0920 -0.2052  0.7548
  189MOL0     O25992   5.997   5.525  10.308 -1.0323 -0.3309  0.0459
  189MOL0     C25993   6.269   5.636  10.488 -0.1810  0.7104  0.6794
  189MOL0     C25994   6.344   5.585  10.598 -0.1073 -0.4851 -0.2656
  189MOL0     N25995   6.686   5.110  10.959  0.5638 -0.1399 -0.1100
  189MOL0     N25996   6.723   5.006  11.023  0.0969  1.0302 -0.9109
  189MOL0     C25997   7.573   4.600  11.531  0.2863  0.2293 -0.3533
  189MOL0     C25998   7.666   4.540  11.457 -0.3870 -0.3941  0.0147
  189MOL0     C25999   8.051   4.433  11.268  0.8402  0.4800  0.2374
  189MOL0     C26000   8.043   4.298  11.226  0.1350 -0.0741 -0.5606
  189MOL0     C26001   8.132   4.248  11.126  0.6410 -0.6216 -0.6019
  189MOL0     C26002   8.226   4.335  11.065  0.3804  0.3542  0.3341
  189MOL0     O26003   8.320   4.290  10.980 -0.0861  0.5966 -0.1554
  189MOL0     C26004   8.448   4.313  11.043  0.1498 -0.3030 -0.2176
  189MOL0     C26005   8.525   4.199  10.977  0.4958  0.5834  0.6925
  189MOL0     C26006   8.462   4.060  11.008 -1.0677  0.2262 -0.0648
  189MOL0     C26007   8.432   4.035  11.158 -0.6004 -0.1620  1.1863
  189MOL0     C26008   8.418   3.895  11.191  0.9720  1.4800 -0.2377
  189MOL0     C26009   8.430   3.779  11.230  0.1182 -0.4089  0.6633
  189MOL0     C26010   8.216   4.468  11.087 -0.3229 -0.9796 -0.1675
  189MOL0     C26011   8.129   4.526  11.189  1.1140  0.4597 -0.0716
  189MOL0     C26012   8.131   4.678  11.194 -0.9182  0.0604  0.4319
  189MOL0     H26013   7.871   4.391  11.677  1.0118 -1.1462 -2.1224
  189MOL0     H26014   7.704   4.488  11.828 -2.0380 -0.1801  0.8269
  189MOL0     H26015   7.308   4.552  11.804 -3.4914 -0.6391 -1.1558
  189MOL0     H26016   7.346   4.560  11.631  1.0870 -1.2618  0.7633
  189MOL0     H26017   7.237   4.782  11.823  0.1869  1.8339 -0.7997
  189MOL0     H26018   7.334   4.841  11.705 -1.1677  0.5033  1.1153
  189MOL0     H26019   7.182   4.711  11.526 -1.3200 -0.6711 -0.3925
  189MOL0     H26020   7.077   4.670  11.654 -1.0482  1.0255  0.4111
  189MOL0     H26021   7.056   4.912  11.717 -1.5764 -0.0355 -1.0448
  189MOL0     H26022   7.145   4.962  11.576  0.2896  2.1871  4.8276
  189MOL0     H26023   6.860   4.849  11.581 -3.0851  4.9752 -1.3010
  189MOL0     H26024   6.968   4.800  11.448  0.6716 -2.4998  0.9111
  189MOL0     H26025   6.892   5.080  11.553  1.5091  0.6229 -0.9595
  189MOL0     H26026   7.000   5.057  11.411  0.0104  1.5027  2.2604
  189MOL0     H26027   6.769   5.118  11.354  0.9500 -0.3507 -4.2617
  189MOL0     H26028   6.717   4.958  11.422  0.0104 -2.2571 -1.5687
  189MOL0     H26029   6.954   4.950  11.232  0.2629  0.0646  3.2058
  189MOL0     H26030   6.820   4.856  11.218 -0.5717 -0.0885 -0.1367
  189MOL0     H26031   6.899   5.246  11.170  0.1855 -0.7508  1.1301
  189MOL0     H26032   6.811   5.391  10.894 -2.7049  2.9110 -2.5664
  189MOL0     H26033   6.728   5.431  11.044  3.2089  1.2807 -1.0365
  189MOL0     H26034   6.596   5.486  10.869  2.9236 -0.8477  0.8738
  189MOL0     H26035   6.588   5.317  10.790 -1.4289 -5.0514  2.7222
  189MOL0     H26036   6.467   5.256  11.015 -0.0709 -1.8598 -2.2727
  189MOL0     H26037   6.480   5.424  11.056 -0.3764  0.7126 -1.0366
  189MOL0     H26038   6.306   5.302  10.835  1.6057  0.4505 -1.3392
  189MOL0     H26039   6.266   5.416  10.967 -1.3347  2.4093 -1.0847
  189MOL0     H26040   6.140   5.400  10.773  2.3327 -1.2021 -0.0262
  189MOL0     H26041   5.936   5.368  10.493  0.7876  4.7789 -2.5933
  189MOL0     H26042   5.877   5.493  10.609 -0.1757 -0.4314  1.6527
  189MOL0     H26043   5.951   5.341  10.667  4.6299 -0.5854 -0.0380
  189MOL0     H26044   6.255   5.853  10.115  0.0244  1.4579 -1.4156
  189MOL0     H26045   6.187   5.922   9.886  0.7472 -1.8364  0.4225
  189MOL0     H26046   5.798   5.777   9.677 -2.7927  1.1504  2.3704
  189MOL0     H26047   5.777   5.913   9.779  0.4334  0.8174  0.6268
  189MOL0     H26048   5.879   5.891   9.493 -0.9895  2.2837 -1.4147
  189MOL0     H26049   5.745   5.975   9.550 -0.6040 -1.7090  1.4427
  189MOL0     H26050   6.032   6.068   9.619  0.8220  2.4801 -0.0617
  189MOL0     H26051   5.880   6.136   9.674 -0.9292  1.4569  0.1531
  189MOL0     H26052   5.810   6.178   9.437  0.7296  2.8343 -1.9414
  189MOL0     H26053   5.958   6.086   9.389  1.8755 -2.8445  3.2862
  189MOL0     H26054   5.962   6.341   9.557  1.7764  0.8952  0.3505
  189MOL0     H26055   6.090   6.272   9.435  0.0896  1.6023 -1.4678
  189MOL0     H26056   5.818   6.382   9.363  0.4586  2.6543  1.6030
  189MOL0     H26057   5.957   6.337   9.253 -1.4705 -0.6829  0.3188
  189MOL0     H26058   5.966   6.565   9.241  1.3362  2.7012  0.1029
  189MOL0     H26059   6.085   6.520   9.357 -0.5832 -1.5050  0.1140
  189MOL0     H26060   5.908   6.576   9.538 -0.8872 -2.2508 -0.4367
  189MOL0     H26061   5.797   6.617   9.407 -0.3043 -4.5406  1.3762
  189MOL0     H26062   5.831   5.714   9.915  0.4167  1.1420 -0.5844
  189MOL0     H26063   5.874   5.660  10.146 -0.3974  0.5536 -0.4560
  189MOL0     H26064   6.320   5.701  10.418 -0.1949  1.8669  1.7042
  189MOL0     H26065   6.447   5.618  10.595 -0.1125 -0.5501 -2.0924
  189MOL0     H26066   7.481   4.638  11.488 -0.9323  1.9981  3.3417
  189MOL0     H26067   7.666   4.566  11.351  0.7245  0.8638  0.3008
  189MOL0     H26068   7.986   4.230  11.288 -0.2655 -1.5774 -2.4662
  189MOL0     H26069   8.135   4.146  11.088 -0.8066 -0.6984 -0.5699
  189MOL0     H26070   8.487   4.411  11.013 -1.3954  0.2355 -0.5593
  189MOL0     H26071   8.442   4.306  11.152 -1.2921 -2.8736 -0.3757
  189MOL0     H26072   8.623   4.207  11.025  0.4989  1.4299  0.5497
  189MOL0     H26073   8.525   4.197  10.867 -1.9786 -1.2358  0.6403
  189MOL0     H26074   8.375   4.036  10.947  2.0879 -2.7863 -3.9210
  189MOL0     H26075   8.532   3.983  10.975 -1.0528  0.3628 -0.3597
  189MOL0     H26076   8.334   4.078  11.181 -2.5469 -2.1455 -2.4484
  189MOL0     H26077   8.510   4.081  11.220 -1.7981  2.4332  0.9268
  189MOL0     H26078   8.433   3.688  11.286  1.1821 -0.3000  0.7926
  189MOL0     H26079   8.279   4.532  11.026  3.6051 -3.4816  0.9147
  189MOL0     H26080   8.198   4.711  11.114 -2.5773 -2.7719 -2.3235
  189MOL0     H26081   8.035   4.729  11.178 -1.1793 -1.0333 -1.8627
  189MOL0     H26082   8.164   4.721  11.289  0.3762  1.8017 -0.7540
  190MOL0     O26083   8.427   7.583   6.031  0.2360 -0.5906 -0.4126
  190MOL0     C26084   8.327   7.541   5.981  1.1604  0.5993 -0.5845
  190MOL0     O26085   8.307   7.411   5.960  0.1450 -0.1243 -0.0431
  190MOL0     C26086   8.426   7.334   5.944  0.8660  0.2643 -0.3939
  190MOL0     C26087   8.538   7.373   5.863  0.3570 -0.7483  0.3357
  190MOL0     C26088   8.652   7.297   5.849  0.3166  0.6314  0.5823
  190MOL0     C26089   8.669   7.173   5.912 -0.4663 -0.0679 -0.1013
  190MOL0     O26090   8.788   7.106   5.895  0.0219  0.3532 -0.6717
  190MOL0     C26091   8.838   7.021   5.998  0.0388  0.6304 -0.2919
  190MOL0     C26092   8.852   7.072   6.145  0.2244 -0.7142 -0.7337
  190MOL0     C26093   8.967   7.173   6.150  0.1431 -0.2186 -0.9319
  190MOL0     C26094   8.922   7.315   6.104 -0.0792 -0.6623  0.1589
  190MOL0     C26095   8.968   7.430   6.203  0.4566  0.6652 -0.3498
  190MOL0     C26096   9.120   7.459   6.211  0.1760 -0.2030  0.1857
  190MOL0     C26097   9.184   7.440   6.075  0.4340  0.1882  0.2377
  190MOL0     C26098   9.325   7.473   6.074  0.1614 -0.4451 -0.8884
  190MOL0     N26099   9.374   7.611   6.070  0.5796 -0.1451 -0.0825
  190MOL0     C26100   9.484   7.657   6.145  0.3237 -0.3267 -0.3376
  190MOL0     C26101   9.493   7.785   6.143 -0.9860  0.9831  0.2463
  190MOL0     C26102   9.601   7.891   6.201 -0.1154  0.7647  0.0074
  190MOL0     C26103   9.688   7.955   6.088  0.3451  0.4158 -0.5740
  190MOL0     C26104   9.635   8.080   6.035  0.2854 -0.4889  0.5182
  190MOL0     C26105   9.622   8.192   6.136 -0.5241 -0.2252 -1.2846
  190MOL0     O26106   9.644   8.313   6.072 -0.0308  0.0544 -0.5895
  190MOL0     C26107   9.532   8.364   6.015  0.4329  0.1764  0.6528
  190MOL0     C26108   9.539   8.366   5.874 -0.8779 -0.7080 -1.0364
  190MOL0     C26109   9.430   8.413   5.799 -0.0742 -0.1923  0.4573
  190MOL0     C26110   9.457   8.430   5.648 -0.9782 -1.0818 -0.5338
  190MOL0     C26111   9.317   8.477   5.863  0.0996 -0.2452  0.0158
  190MOL0     C26112   9.204   8.531   5.795  0.0683 -0.2675  0.4002
  190MOL0     O26113   9.194   8.514   5.663  0.1732  0.8983  0.3161
  190MOL0     C26114   9.095   8.574   5.601 -1.0053  0.3190 -0.3808
  190MOL0     C26115   8.962   8.540   5.601 -0.0563 -0.1141 -0.0879
  190MOL0     C26116   8.866   8.613   5.541 -1.0274  1.1008 -1.0291
  190MOL0     C26117   8.898   8.735   5.476  0.7583 -0.0584 -0.1570
  190MOL0     O26118   8.817   8.826   5.407 -0.6366  0.2222 -0.4201
  190MOL0     C26119   8.720   8.782   5.318  0.8802 -0.5885 -0.3851
  190MOL0     C26120   8.769   8.686   5.205  0.1565 -0.0629 -0.8621
  190MOL0     C26121   8.882   8.751   5.122  0.0818  0.2841  0.4459
  190MOL0     C26122   8.920   8.665   5.004  0.1159  0.4209 -0.2320
  190MOL0     C26123   8.999   8.729   4.890 -0.6281  0.4673 -1.2152
  190MOL0     C26124   8.918   8.837   4.810 -0.2369 -0.2523 -0.3505
  190MOL0     C26125   8.798   8.780   4.732 -0.0834  1.0626 -0.1641
  190MOL0     C26126   8.785   8.838   4.585  0.6764 -0.1741  0.0333
  190MOL0    Cl26127   8.931   8.861   4.476  0.1079  0.0119  0.1345
  190MOL0     C26128   9.035   8.768   5.466 -1.6132 -0.0697 -0.6355
  190MOL0     C26129   9.129   8.690   5.533 -0.2895  0.1468  0.7476
  190MOL0     O26130   9.118   8.582   5.861  0.2905 -0.3751 -0.1774
  190MOL0     C26131   9.322   8.460   6.006 -0.0360  0.5957  0.7039
  190MOL0     C26132   9.426   8.408   6.082  0.1270 -0.4560 -0.0044
  190MOL0     N26133   9.385   7.825   6.070 -0.3920 -1.3138 -0.1131
  190MOL0     N26134   9.311   7.720   6.019 -0.6511 -0.5703 -0.3861
  190MOL0     C26135   8.563   7.124   5.990  0.5497 -0.4908 -0.6117
  190MOL0     C26136   8.440   7.204   6.004 -0.0694 -0.4723  0.3639
  190MOL0     C26137   8.204   7.620   5.951 -0.1833 -0.1885  0.3296
  190MOL0     C26138   8.077   7.557   5.933  0.2557  0.4117  0.6523
  190MOL0     C26139   7.962   7.622   5.916 -0.1251 -0.6676  0.5632
  190MOL0     C26140   7.960   7.763   5.916  0.2962 -0.5877 -0.7221
  190MOL0     O26141   7.833   7.821   5.888 -0.3084  0.2815  0.4020
  190MOL0     C26142   7.751   7.854   6.005 -0.4353  0.1709  0.8226
  190MOL0     C26143   7.792   7.981   6.080  0.5126 -0.4741  0.4906
  190MOL0     C26144   7.715   8.109   6.023 -0.7706 -0.3893  0.5126
  190MOL0     C26145   7.781   8.158   5.891 -0.1273 -0.4035  0.7385
  190MOL0     C26146   7.729   8.082   5.775 -0.4858 -0.2148  1.0164
  190MOL0     C26147   7.701   8.023   5.671  1.2029  0.2523 -0.9655
  190MOL0     C26148   8.081   7.833   5.910  0.1586 -0.4995 -0.2611
  190MOL0     C26149   8.200   7.758   5.933  0.2508 -0.2768 -0.1316
  190MOL0     C26150   8.329   7.835   5.922  0.8242  0.1809  0.0448
  190MOL0     H26151   8.523   7.469   5.815  4.8618  1.2494  2.3308
  190MOL0     H26152   8.733   7.330   5.785  1.4427 -1.3751  0.8882
  190MOL0     H26153   8.940   6.994   5.970  0.5065  1.3674  0.6267
  190MOL0     H26154   8.766   6.939   6.007 -0.0842  0.7957  0.2918
  190MOL0     H26155   8.762   7.100   6.201 -0.4063 -2.7079 -0.6427
  190MOL0     H26156   8.884   6.991   6.212  0.8451  0.3993  0.3456
  190MOL0     H26157   8.989   7.177   6.257 -1.0520  0.6248 -0.6975
  190MOL0     H26158   9.060   7.147   6.098 -0.7236 -1.2374 -2.0226
  190MOL0     H26159   8.949   7.344   6.002 -1.4566  4.1099  0.8876
  190MOL0     H26160   8.813   7.323   6.104  0.0296  1.4152 -0.6400
  190MOL0     H26161   8.926   7.409   6.302 -0.1671 -0.7612 -0.8817
  190MOL0     H26162   8.922   7.518   6.158 -2.3348 -1.8370 -2.8048
  190MOL0     H26163   9.134   7.559   6.253  5.5226 -1.0685  1.1679
  190MOL0     H26164   9.157   7.391   6.288 -1.4989 -0.7375  0.5610
  190MOL0     H26165   9.144   7.515   6.006 -2.4001 -1.0675  0.3533
  190MOL0     H26166   9.164   7.346   6.022 -0.4959  0.1975  0.5521
  190MOL0     H26167   9.372   7.432   6.164  1.7763  2.8401 -0.0796
  190MOL0     H26168   9.361   7.407   5.994  0.6079 -0.5080 -0.6415
  190MOL0     H26169   9.551   7.593   6.202  1.0303 -1.2686 -2.1487
  190MOL0     H26170   9.669   7.851   6.277 -1.1052  0.5736  0.8037
  190MOL0     H26171   9.550   7.960   6.268 -0.0173 -0.4046  1.3236
  190MOL0     H26172   9.791   7.954   6.123 -0.0670 -0.5438  0.6700
  190MOL0     H26173   9.686   7.884   6.004  0.0321  0.5453 -0.6776
  190MOL0     H26174   9.702   8.118   5.957  0.3476 -1.3616  0.1335
  190MOL0     H26175   9.535   8.057   5.994 -0.6507  0.3939  2.2075
  190MOL0     H26176   9.533   8.183   6.199  0.3762 -1.7807 -0.1614
  190MOL0     H26177   9.703   8.182   6.209 -1.0586  0.8733 -0.5220
  190MOL0     H26178   9.634   8.337   5.831  0.9098 -1.3841  2.9264
  190MOL0     H26179   9.380   8.384   5.585  0.9492 -2.2824 -2.1476
  190MOL0     H26180   9.553   8.378   5.638  0.0834 -0.4580  4.1689
  190MOL0     H26181   9.471   8.533   5.615  0.0013 -1.2974 -0.8363
  190MOL0     H26182   8.936   8.457   5.666  0.2014  0.1287  0.3366
  190MOL0     H26183   8.759   8.592   5.538 -0.5790 -1.3845 -1.9543
  190MOL0     H26184   8.632   8.746   5.373 -1.2977 -2.6271 -4.6768
  190MOL0     H26185   8.691   8.868   5.258  1.5206  0.0797  0.2526
  190MOL0     H26186   8.801   8.604   5.270 -2.2047  0.0908  0.5857
  190MOL0     H26187   8.680   8.647   5.155  1.3442 -1.3106 -2.0835
  190MOL0     H26188   8.971   8.774   5.182 -0.6707  1.5995  1.0837
  190MOL0     H26189   8.837   8.843   5.084 -0.7098 -0.2539  0.0489
  190MOL0     H26190   8.825   8.628   4.964 -0.9678  0.8191  1.8086
  190MOL0     H26191   8.971   8.574   5.036 -0.0632 -0.0718 -1.3047
  190MOL0     H26192   9.081   8.786   4.933 -1.4154  0.9169 -0.2822
  190MOL0     H26193   9.038   8.654   4.820 -0.5240 -0.2901 -0.3576
  190MOL0     H26194   8.985   8.881   4.736 -0.4577 -2.1286 -1.7236
  190MOL0     H26195   8.877   8.909   4.882 -1.4426  0.3283 -1.5659
  190MOL0     H26196   8.705   8.807   4.781 -0.9896  0.7844 -1.6567
  190MOL0     H26197   8.804   8.671   4.724  2.0923  1.0386  0.9655
  190MOL0     H26198   8.749   8.941   4.597  1.0164 -0.1829  1.3026
  190MOL0     H26199   8.718   8.786   4.516  2.2923 -0.9954 -0.9634
  190MOL0     H26200   9.060   8.858   5.412  1.0479  1.1457  2.3458
  190MOL0     H26201   9.233   8.719   5.545 -0.6817  1.4003  1.3559
  190MOL0     H26202   9.227   8.498   6.043 -0.9803 -1.2635  0.3506
  190MOL0     H26203   9.414   8.419   6.190 -1.2636  4.0349 -0.3871
  190MOL0     H26204   8.557   7.021   6.023  0.3939  0.2914  2.0460
  190MOL0     H26205   8.356   7.164   6.059  0.2831 -0.8642  0.6240
  190MOL0     H26206   8.074   7.450   5.915  3.2091  0.3592 -0.2014
  190MOL0     H26207   7.868   7.569   5.906 -0.4351 -0.2140  1.0262
  190MOL0     H26208   7.650   7.868   5.964  0.2780  0.2005 -1.0144
  190MOL0     H26209   7.750   7.764   6.066 -3.2505 -3.1250 -3.4696
  190MOL0     H26210   7.899   8.000   6.068  0.0620  2.5923  0.3900
  190MOL0     H26211   7.763   7.972   6.185  0.2775 -1.1610  0.3693
  190MOL0     H26212   7.614   8.072   6.000 -1.1801  0.6633  0.5792
  190MOL0     H26213   7.700   8.172   6.111 -0.3215 -3.3474  2.8706
  190MOL0     H26214   7.887   8.140   5.914 -0.0794  0.4184  1.1754
  190MOL0     H26215   7.767   8.263   5.865  1.1358 -0.9150 -2.3754
  190MOL0     H26216   7.657   7.978   5.584 -3.3415  0.7077  0.8265
  190MOL0     H26217   8.067   7.941   5.906  0.5996 -0.2270  2.7856
  190MOL0     H26218   8.396   7.782   5.854  1.3905  0.4314  0.4026
  190MOL0     H26219   8.305   7.939   5.896 -3.8971 -1.0532 -1.6022
  190MOL0     H26220   8.365   7.827   6.025  0.4204  0.0097  0.1739
  191MOL0     O26221   7.986   3.482   3.721 -1.0932 -0.1562 -0.0092
  191MOL0     C26222   8.069   3.453   3.628 -0.5410 -0.3830  0.1980
  191MOL0     O26223   8.068   3.344   3.548  0.4275  0.4052 -0.2824
  191MOL0     C26224   7.953   3.277   3.533  0.1388 -0.6900 -0.7428
  191MOL0     C26225   7.833   3.337   3.497 -0.7619 -0.0408 -0.3732
  191MOL0     C26226   7.719   3.264   3.468  0.5268 -0.1579 -0.8661
  191MOL0     C26227   7.734   3.124   3.457 -0.6212 -0.7404 -0.6518
  191MOL0     O26228   7.635   3.032   3.431  0.2077 -0.8797  0.0101
  191MOL0     C26229   7.525   3.072   3.349 -0.2632  0.0286  0.1156
  191MOL0     C26230   7.420   2.987   3.403 -0.1659 -0.1510 -0.8038
  191MOL0     C26231   7.368   3.017   3.542  1.1425 -0.6940  0.5159
  191MOL0     C26232   7.242   3.095   3.544 -0.1327 -1.1504  0.0544
  191MOL0     C26233   7.184   3.111   3.681  1.3300  1.0327 -1.0977
  191MOL0     C26234   7.070   3.218   3.693 -0.1034  0.2978 -0.1931
  191MOL0     C26235   7.005   3.221   3.830 -0.4356  0.0701  0.0221
  191MOL0     C26236   6.895   3.319   3.822  0.7238 -1.0942  0.3222
  191MOL0     N26237   6.951   3.459   3.801 -0.9457  0.0811  0.1463
  191MOL0     C26238   7.046   3.520   3.889 -0.1057 -0.6252 -0.5036
  191MOL0     C26239   7.073   3.637   3.827  0.3913 -0.3376  0.4332
  191MOL0     C26240   7.142   3.751   3.902  0.4905  0.0521  0.4760
  191MOL0     C26241   7.220   3.852   3.807  0.3149  0.8329 -0.1068
  191MOL0     C26242   7.300   3.789   3.699  0.8002 -0.0338  0.3724
  191MOL0     C26243   7.396   3.682   3.743  0.0651  0.4328 -0.5641
  191MOL0     O26244   7.468   3.720   3.863  0.4227  0.2410 -0.2433
  191MOL0     C26245   7.587   3.781   3.862  0.4607 -0.1225  0.7449
  191MOL0     C26246   7.665   3.821   3.753 -0.3715  0.3831  0.0039
  191MOL0     C26247   7.792   3.878   3.771  0.2309  0.6055 -0.1507
  191MOL0     C26248   7.865   3.899   3.641 -0.5617  0.2134  0.5515
  191MOL0     C26249   7.846   3.898   3.899 -0.4095  0.0482 -0.4272
  191MOL0     C26250   7.986   3.940   3.923 -0.0185  0.8632  0.2818
  191MOL0     O26251   8.023   3.971   4.052  0.3716  1.0534 -0.6642
  191MOL0     C26252   8.158   3.993   4.073 -0.1778  0.7664 -0.0671
  191MOL0     C26253   8.205   4.117   4.103 -0.8478  0.4034  0.2937
  191MOL0     C26254   8.334   4.129   4.118  0.2155 -0.5525  0.4074
  191MOL0     C26255   8.432   4.033   4.106 -0.3746 -0.9417 -0.0791
  191MOL0     O26256   8.558   4.074   4.108 -0.0097 -0.9814  0.4967
  191MOL0     C26257   8.655   4.015   4.195  0.3662  0.1913  0.3144
  191MOL0     C26258   8.761   4.110   4.243 -0.0172 -0.0788  0.1919
  191MOL0     C26259   8.857   4.147   4.138  0.9633 -0.2958  0.1189
  191MOL0     C26260   8.946   4.248   4.192  0.5687 -0.4516  0.1659
  191MOL0     C26261   9.049   4.296   4.088 -1.1355 -0.7112 -0.8411
  191MOL0     C26262   9.179   4.368   4.147 -1.3137 -0.0803  0.1873
  191MOL0     C26263   9.153   4.510   4.179 -0.5415  0.1363 -0.4767
  191MOL0     C26264   9.118   4.600   4.068  0.4440 -0.1406 -0.2666
  191MOL0    Cl26265   9.108   4.760   4.130 -0.5820  0.2495  0.0635
  191MOL0     C26266   8.391   3.905   4.069  0.2055  0.4001 -0.1674
  191MOL0     C26267   8.246   3.882   4.062  0.9590  0.6571 -0.1311
  191MOL0     O26268   8.067   3.954   3.826 -0.4996  0.1341  0.2074
  191MOL0     C26269   7.769   3.861   4.011 -1.2902 -0.1011  0.7989
  191MOL0     C26270   7.644   3.814   3.989 -0.3447  1.2528  0.5064
  191MOL0     N26271   7.010   3.654   3.710 -0.7684  0.7863 -0.2367
  191MOL0     N26272   6.938   3.545   3.692 -0.0742 -1.7437 -0.2980
  191MOL0     C26273   7.860   3.064   3.489 -0.3365  0.6130  0.1724
  191MOL0     C26274   7.972   3.144   3.518  0.0321 -0.3793  0.2641
  191MOL0     C26275   8.204   3.530   3.633  0.1723  0.3405 -0.5125
  191MOL0     C26276   8.201   3.654   3.697 -0.2902  0.2590  0.1498
  191MOL0     C26277   8.317   3.727   3.715 -0.8548 -0.0235  0.9581
  191MOL0     C26278   8.442   3.670   3.678  0.5424 -0.4800 -0.2713
  191MOL0     O26279   8.560   3.740   3.695 -0.5865 -0.1824 -0.6818
  191MOL0     C26280   8.636   3.714   3.813 -0.2260 -0.0389 -0.0403
  191MOL0     C26281   8.747   3.817   3.814  0.4682  0.5980  0.6583
  191MOL0     C26282   8.815   3.814   3.957  0.3629  0.4722  0.5551
  191MOL0     C26283   8.948   3.739   3.950  0.3145  0.7333 -0.2367
  191MOL0     C26284   8.941   3.592   3.920 -0.0487 -0.0164  0.0052
  191MOL0     C26285   8.912   3.482   3.874 -0.4971 -0.2155 -0.5946
  191MOL0     C26286   8.448   3.533   3.630  0.1604 -0.7279  0.3322
  191MOL0     C26287   8.326   3.471   3.594  0.2085  0.5291 -0.7934
  191MOL0     C26288   8.350   3.338   3.515 -0.3470 -0.4805 -0.6146
  191MOL0     H26289   7.825   3.446   3.497  1.5358  0.5159  5.4374
  191MOL0     H26290   7.634   3.330   3.456 -0.1733 -1.0977 -1.2738
  191MOL0     H26291   7.546   3.036   3.247 -2.1958  0.1036 -0.3362
  191MOL0     H26292   7.508   3.180   3.345  2.7027  0.6324  1.3179
  191MOL0     H26293   7.336   2.981   3.334  2.3126  0.3309 -4.1564
  191MOL0     H26294   7.461   2.885   3.409 -2.5065 -1.1347 -0.6477
  191MOL0     H26295   7.347   2.918   3.583  2.1534 -0.6623  1.1425
  191MOL0     H26296   7.440   3.070   3.606  0.8383 -0.1625  0.4283
  191MOL0     H26297   7.269   3.191   3.499 -1.3656 -0.6284  0.3825
  191MOL0     H26298   7.169   3.052   3.474  0.0553 -3.5085  1.2224
  191MOL0     H26299   7.259   3.133   3.757  2.5197 -4.9122 -0.0783
  191MOL0     H26300   7.128   3.025   3.718  1.0289  1.6531 -0.0546
  191MOL0     H26301   7.104   3.320   3.670 -2.2166  1.0741 -0.1189
  191MOL0     H26302   6.991   3.199   3.620 -0.3268 -0.6853  0.2872
  191MOL0     H26303   7.070   3.248   3.914 -0.6980  1.6797 -0.2627
  191MOL0     H26304   6.969   3.119   3.842  1.1377 -0.7133 -1.4999
  191MOL0     H26305   6.839   3.295   3.732 -2.5332 -1.7478  2.3399
  191MOL0     H26306   6.847   3.312   3.920  3.6218  1.5046  2.1173
  191MOL0     H26307   7.082   3.490   3.987 -1.4666  3.4333  1.4254
  191MOL0     H26308   7.211   3.711   3.977  0.3810 -0.3095  0.3893
  191MOL0     H26309   7.066   3.800   3.964  0.2704 -1.5992  1.5742
  191MOL0     H26310   7.155   3.922   3.753 -1.7907 -0.1134  1.0629
  191MOL0     H26311   7.285   3.915   3.868  2.4575  1.3868 -2.7674
  191MOL0     H26312   7.229   3.742   3.630 -0.2605  1.4395  0.4178
  191MOL0     H26313   7.362   3.865   3.650 -0.7368  2.6507  2.2833
  191MOL0     H26314   7.326   3.599   3.759 -2.1021  2.3208  0.4393
  191MOL0     H26315   7.453   3.658   3.653 -2.2071  0.8472 -2.2094
  191MOL0     H26316   7.640   3.797   3.650  1.3654 -2.0973  0.0706
  191MOL0     H26317   7.940   3.820   3.629  2.8854  3.1213  0.9586
  191MOL0     H26318   7.914   3.996   3.623  1.7278 -1.1318 -0.9644
  191MOL0     H26319   7.794   3.891   3.559 -3.1609 -0.7810  2.7627
  191MOL0     H26320   8.152   4.210   4.120  1.9039  2.0563  0.4552
  191MOL0     H26321   8.363   4.229   4.150 -3.4914  0.9196 -0.2933
  191MOL0     H26322   8.605   3.989   4.289 -0.6012  0.4119 -0.1367
  191MOL0     H26323   8.686   3.918   4.154 -2.5343 -0.8058  0.3087
  191MOL0     H26324   8.715   4.203   4.278 -4.4871 -1.5449 -1.1428
  191MOL0     H26325   8.812   4.054   4.323 -0.0136 -0.5560 -0.1461
  191MOL0     H26326   8.801   4.168   4.046  0.0520 -3.8419 -0.2957
  191MOL0     H26327   8.934   4.072   4.117  0.6507 -0.9201  1.1227
  191MOL0     H26328   9.003   4.217   4.281  3.0341  3.1474  0.0478
  191MOL0     H26329   8.883   4.335   4.212  1.7743  0.1247  1.7129
  191MOL0     H26330   9.087   4.204   4.043 -1.1790 -1.8567  1.3413
  191MOL0     H26331   9.010   4.361   4.009  0.3675 -1.2061 -2.0482
  191MOL0     H26332   9.262   4.373   4.077  0.6337  3.8883  2.4413
  191MOL0     H26333   9.214   4.316   4.236 -3.3221 -5.9249 -1.9906
  191MOL0     H26334   9.243   4.550   4.229  1.1693 -3.2250 -0.5741
  191MOL0     H26335   9.072   4.527   4.251 -0.0352  0.2066  0.0935
  191MOL0     H26336   9.014   4.573   4.043  0.5094  1.1464 -2.1603
  191MOL0     H26337   9.186   4.602   3.983 -1.7836  1.5810 -2.1512
  191MOL0     H26338   8.458   3.820   4.057 -1.1410 -0.7038 -0.0899
  191MOL0     H26339   8.193   3.788   4.048  1.6067 -0.0153  1.6348
  191MOL0     H26340   7.796   3.863   4.116 -3.2826  1.5124  1.3472
  191MOL0     H26341   7.592   3.780   4.078  1.4150  0.4839  1.2782
  191MOL0     H26342   7.866   2.956   3.491  2.1617  0.7044  0.3380
  191MOL0     H26343   8.069   3.101   3.539  0.3189  0.1225 -0.0242
  191MOL0     H26344   8.100   3.685   3.722 -1.2891 -1.9716 -0.9116
  191MOL0     H26345   8.310   3.829   3.753 -1.8263  1.3169 -2.4871
  191MOL0     H26346   8.572   3.719   3.902  0.6470  2.3150  0.5223
  191MOL0     H26347   8.666   3.610   3.803  0.0315 -0.2055  1.9687
  191MOL0     H26348   8.713   3.920   3.803  0.8508  0.6186 -0.4514
  191MOL0     H26349   8.817   3.802   3.731  2.9610  0.7967  2.5871
  191MOL0     H26350   8.823   3.917   3.991  0.6494  1.7779 -3.0480
  191MOL0     H26351   8.760   3.763   4.037  1.2593 -2.2214 -0.4298
  191MOL0     H26352   8.997   3.752   4.047 -2.2756  1.8205  1.0265
  191MOL0     H26353   9.000   3.793   3.870  1.7154 -0.6385 -0.2818
  191MOL0     H26354   8.880   3.390   3.829 -0.5400 -0.1131 -0.7746
  191MOL0     H26355   8.538   3.480   3.600 -1.8456 -3.5957 -1.0408
  191MOL0     H26356   8.453   3.350   3.481  0.1948  1.6375  1.5077
  191MOL0     H26357   8.342   3.250   3.580  1.9529 -1.7326 -1.9096
  191MOL0     H26358   8.282   3.333   3.430  2.6207 -0.2820 -3.1734
  192MOL0     O26359  10.511  10.010  10.708  0.6183 -0.3941  0.1745
  192MOL0     C26360  10.512   9.895  10.757 -0.2097 -0.9646  0.2078
  192MOL0     O26361  10.606   9.795  10.719 -0.3634 -0.7354  0.2046
  192MOL0     C26362  10.676   9.816  10.602  0.0096  0.6092  0.2223
  192MOL0     C26363  10.629   9.751  10.489  0.2744  0.2362 -0.7980
  192MOL0     C26364  10.687   9.771  10.367 -0.0181  0.2053  0.7146
  192MOL0     C26365  10.799   9.844  10.362 -0.9422 -0.1692 -0.4208
  192MOL0     O26366  10.841   9.872  10.236 -0.5993  0.3068  0.6829
  192MOL0     C26367  10.965   9.940  10.199  0.8491 -0.3682 -0.4456
  192MOL0     C26368  10.991   9.957  10.051 -1.0982 -0.2085  0.9745
  192MOL0     C26369  10.998   9.833   9.974  0.4740  0.1174  0.0217
  192MOL0     C26370  11.033   9.870   9.829  0.5216  0.2213 -0.0899
  192MOL0     C26371  11.073   9.740   9.755 -0.1431 -0.2004  0.5009
  192MOL0     C26372  10.960   9.671   9.686  0.0931 -0.2113 -0.4359
  192MOL0     C26373  11.006   9.545   9.626  0.1348 -0.6083 -0.1128
  192MOL0     C26374  10.989   9.429   9.728  0.1324  1.0242  0.7304
  192MOL0     N26375  11.020   9.288   9.684  0.2425  0.5300 -0.2330
  192MOL0     C26376  10.977   9.215   9.582  0.7350  0.5295  0.6260
  192MOL0     C26377  11.031   9.089   9.583 -0.4334 -0.2156 -0.3207
  192MOL0     C26378  11.021   8.974   9.485  0.0292 -0.3565 -0.4640
  192MOL0     C26379  11.108   8.852   9.513 -0.4744 -0.2522  0.0183
  192MOL0     C26380  11.085   8.743   9.406 -0.4709 -1.0746 -0.6667
  192MOL0     C26381  11.003   8.630   9.464 -0.5461  0.6242 -0.9833
  192MOL0     O26382  11.078   8.558   9.564 -0.2169  0.8477 -0.5755
  192MOL0     C26383  11.175   8.476   9.536 -0.1501  0.6021  0.7907
  192MOL0     C26384  11.234   8.405   9.648 -0.2034 -0.4235 -0.9116
  192MOL0     C26385  11.331   8.306   9.645 -0.4456  0.0811  1.0549
  192MOL0     C26386  11.366   8.220   9.771 -0.1841 -0.1906 -0.4808
  192MOL0     C26387  11.386   8.280   9.512  1.3049  0.2865 -0.4889
  192MOL0     C26388  11.493   8.176   9.492 -0.1740 -0.0545 -0.1039
  192MOL0     O26389  11.569   8.130   9.595 -0.1619  0.2414  0.9236
  192MOL0     C26390  11.656   8.024   9.575  0.4963  0.1763  0.1996
  192MOL0     C26391  11.617   7.895   9.590 -0.5584  0.5124  0.3483
  192MOL0     C26392  11.712   7.790   9.613  0.0837  0.2614  0.4547
  192MOL0     C26393  11.843   7.813   9.628  0.0327 -0.3036  0.1140
  192MOL0     O26394  11.923   7.707   9.665 -0.1751 -0.8298  0.0766
  192MOL0     C26395  12.064   7.714   9.635  0.9050 -0.4512 -0.1108
  192MOL0     C26396  12.139   7.592   9.698  0.3109 -1.4957  0.0601
  192MOL0     C26397  12.158   7.487   9.591 -0.4836 -0.3696 -0.4841
  192MOL0     C26398  12.291   7.495   9.520  0.6403  1.0028  0.3645
  192MOL0     C26399  12.308   7.394   9.408 -0.0072 -0.0573 -0.3283
  192MOL0     C26400  12.399   7.281   9.434 -0.0059  0.5233 -0.1320
  192MOL0     C26401  12.329   7.171   9.521 -0.0342  0.4131  0.3520
  192MOL0     C26402  12.407   7.037   9.508  0.3656  0.4279  0.5946
  192MOL0    Cl26403  12.565   7.046   9.590 -0.2014 -0.0640  0.0339
  192MOL0     C26404  11.881   7.946   9.612 -0.0488 -0.3344  0.6228
  192MOL0     C26405  11.791   8.056   9.593  0.4468  0.3180  0.0971
  192MOL0     O26406  11.506   8.137   9.375 -0.5787 -0.5858 -0.3658
  192MOL0     C26407  11.322   8.334   9.399  0.8856 -0.4580  0.1089
  192MOL0     C26408  11.224   8.437   9.408  0.5306 -0.6219 -0.2529
  192MOL0     N26409  11.112   9.087   9.694  0.3339 -0.8893  0.3868
  192MOL0     N26410  11.104   9.198   9.752  1.0971  0.4146  0.0749
  192MOL0     C26411  10.857   9.900  10.471  0.0239 -0.3271  0.0725
  192MOL0     C26412  10.793   9.890  10.604  0.0151 -0.6307 -0.0549
  192MOL0     C26413  10.433   9.882  10.887 -0.0103 -0.5697 -0.3850
  192MOL0     C26414  10.396  10.001  10.957 -0.5919 -0.3541  0.2260
  192MOL0     C26415  10.309   9.990  11.064 -0.2905 -0.4719 -0.9830
  192MOL0     C26416  10.258   9.872  11.110  0.9321 -0.3032  1.0359
  192MOL0     O26417  10.167   9.876  11.211  0.8014 -0.7009  0.4936
  192MOL0     C26418  10.085   9.757  11.232 -0.3904 -0.5863 -0.0864
  192MOL0     C26419   9.960   9.801  11.300 -0.3138 -0.4633 -0.4567
  192MOL0     C26420   9.996   9.879  11.424  0.1373  0.9124 -0.5791
  192MOL0     C26421  10.074   9.803  11.530  0.8963 -0.0345 -0.1224
  192MOL0     C26422  10.012   9.669  11.537 -0.3112 -0.0079 -0.5285
  192MOL0     C26423   9.967   9.555  11.544  0.0213  0.3538 -0.4973
  192MOL0     C26424  10.303   9.752  11.052 -0.1430 -0.1773 -0.2343
  192MOL0     C26425  10.385   9.760  10.938  0.6467  0.1550 -0.0540
  192MOL0     C26426  10.419   9.621  10.886 -0.3427  0.7329  0.3226
  192MOL0     H26427  10.546   9.681  10.489  3.4360 -4.0076  2.2061
  192MOL0     H26428  10.649   9.727  10.276 -0.4389 -0.2349  1.0992
  192MOL0     H26429  11.050   9.874  10.220  2.1326  1.1690 -0.6373
  192MOL0     H26430  10.970  10.034  10.254 -0.7299 -1.0418  0.9130
  192MOL0     H26431  10.917  10.021  10.002  0.2319  0.2927 -0.4392
  192MOL0     H26432  11.091  10.000  10.042  0.0077 -2.8358 -0.3035
  192MOL0     H26433  11.065   9.757  10.016  1.1445 -0.6654 -2.3090
  192MOL0     H26434  10.899   9.787   9.968 -0.5727  2.2841 -0.0367
  192MOL0     H26435  10.951   9.934   9.796  0.4115  1.9013  3.0050
  192MOL0     H26436  11.126   9.927   9.828  0.8028 -0.0577  2.5690
  192MOL0     H26437  11.122   9.674   9.826  3.5321 -0.7472 -2.2110
  192MOL0     H26438  11.151   9.780   9.689 -1.2555 -0.9188 -1.3172
  192MOL0     H26439  10.873   9.655   9.751 -0.7123  0.3660 -1.3288
  192MOL0     H26440  10.921   9.733   9.604  1.5302  3.3017  1.3049
  192MOL0     H26441  11.112   9.555   9.598  0.1793  0.2023  0.3254
  192MOL0     H26442  10.956   9.518   9.533  0.1321  0.8363 -0.5508
  192MOL0     H26443  11.029   9.450   9.828 -3.6321 -1.0713  2.9248
  192MOL0     H26444  10.883   9.426   9.755  1.0962  1.5398  5.4934
  192MOL0     H26445  10.908   9.244   9.503 -3.4638 -1.0440  3.3272
  192MOL0     H26446  11.044   9.018   9.388  2.1856  1.9890  1.0077
  192MOL0     H26447  10.914   8.949   9.494 -0.0001 -0.9248 -2.1151
  192MOL0     H26448  11.210   8.893   9.512 -1.2608  1.8496 -1.3685
  192MOL0     H26449  11.094   8.814   9.614  0.4790  2.4367  1.2511
  192MOL0     H26450  11.041   8.796   9.320  0.0107  2.7479  1.2262
  192MOL0     H26451  11.176   8.700   9.363 -1.6329 -1.7982 -2.5447
  192MOL0     H26452  10.907   8.664   9.504 -2.5178 -0.4285 -4.3679
  192MOL0     H26453  10.984   8.556   9.385  1.0736 -1.4128  0.4279
  192MOL0     H26454  11.188   8.427   9.744 -1.1698 -0.8296 -1.2762
  192MOL0     H26455  11.327   8.118   9.759 -0.4333 -0.1254 -0.2213
  192MOL0     H26456  11.309   8.263   9.854 -1.2196 -2.5012  0.1116
  192MOL0     H26457  11.473   8.208   9.794 -0.4837 -1.8625  0.1895
  192MOL0     H26458  11.512   7.866   9.584  0.0784 -1.6443 -1.7066
  192MOL0     H26459  11.674   7.689   9.620 -0.6609  0.6241  1.8569
  192MOL0     H26460  12.077   7.734   9.528  2.0635 -0.1588  0.0702
  192MOL0     H26461  12.100   7.807   9.680  1.0015  0.4039 -1.8587
  192MOL0     H26462  12.235   7.624   9.740 -0.8235  3.0586 -0.2322
  192MOL0     H26463  12.070   7.559   9.776  2.3335  3.6415  4.7340
  192MOL0     H26464  12.070   7.481   9.527 -0.0742 -1.0873 -0.9958
  192MOL0     H26465  12.157   7.390   9.641 -0.7423  1.6564  3.9064
  192MOL0     H26466  12.370   7.480   9.593 -1.3517 -0.0424  2.4313
  192MOL0     H26467  12.276   7.598   9.486 -3.3861  1.1746  2.0496
  192MOL0     H26468  12.208   7.362   9.375 -1.5077  3.9520 -0.2547
  192MOL0     H26469  12.348   7.438   9.316  0.1724 -0.7866 -0.6036
  192MOL0     H26470  12.492   7.316   9.479  0.6046  0.7303 -1.4889
  192MOL0     H26471  12.423   7.234   9.337 -1.1529  2.5357 -1.4667
  192MOL0     H26472  12.226   7.164   9.484  0.2681 -0.2331 -0.3895
  192MOL0     H26473  12.336   7.197   9.627 -2.4258  3.4419 -0.0913
  192MOL0     H26474  12.421   7.017   9.401 -0.9877 -1.6348  0.7436
  192MOL0     H26475  12.350   6.957   9.555  2.2363 -1.7709 -0.6298
  192MOL0     H26476  11.985   7.978   9.611  0.1202 -0.8558 -0.9109
  192MOL0     H26477  11.812   8.162   9.593 -1.8931  0.8644  1.4254
  192MOL0     H26478  11.354   8.309   9.298 -0.0516 -0.0762 -0.2982
  192MOL0     H26479  11.186   8.471   9.312 -0.5950 -1.4620 -0.1198
  192MOL0     H26480  10.952   9.950  10.457  0.5458 -0.7117  1.9282
  192MOL0     H26481  10.843   9.937  10.687  1.4366 -1.5649 -0.3477
  192MOL0     H26482  10.443  10.095  10.929  1.0272 -0.5305  2.0935
  192MOL0     H26483  10.289  10.082  11.118  2.1884  1.2938 -2.8266
  192MOL0     H26484  10.059   9.709  11.138  1.5166 -0.0562 -0.9297
  192MOL0     H26485  10.140   9.678  11.285  0.5099  1.1010  1.5921
  192MOL0     H26486   9.889   9.720  11.318 -2.8645  2.4060  4.4348
  192MOL0     H26487   9.908   9.870  11.232 -2.0190  2.4436  3.3818
  192MOL0     H26488  10.037   9.977  11.398  0.6806  0.1857 -2.6200
  192MOL0     H26489   9.902   9.903  11.473  0.3095  1.9798 -0.7616
  192MOL0     H26490  10.053   9.853  11.625  0.8630  3.1499 -1.6882
  192MOL0     H26491  10.182   9.804  11.513  1.0971  1.4408  1.0524
  192MOL0     H26492   9.917   9.461  11.547 -0.5628  0.5512  4.6252
  192MOL0     H26493  10.267   9.657  11.088 -0.3461  0.4587  1.3182
  192MOL0     H26494  10.504   9.579  10.941 -1.9882 -0.0543  2.3648
  192MOL0     H26495  10.332   9.556  10.886 -0.4006  0.5363 -3.8990
  192MOL0     H26496  10.458   9.624  10.784  2.1185 -0.8887  1.1145
  193MOL0     O26497   7.554   4.369  10.572  0.0591  0.5007 -0.2383
  193MOL0     C26498   7.440   4.372  10.533 -0.2236  0.0977 -0.6170
  193MOL0     O26499   7.394   4.305  10.419 -0.3235  0.0480 -0.6339
  193MOL0     C26500   7.488   4.253  10.334  0.6447 -1.0832  0.1445
  193MOL0     C26501   7.459   4.255  10.195 -0.4520  0.0286  0.1043
  193MOL0     C26502   7.555   4.201  10.096 -0.0092 -0.9859  0.1404
  193MOL0     C26503   7.667   4.128  10.146 -0.0383 -0.6693 -0.4427
  193MOL0     O26504   7.769   4.071  10.070  0.4530  0.7127 -0.5422
  193MOL0     C26505   7.821   4.142   9.959 -1.2042 -0.4290  0.8419
  193MOL0     C26506   7.913   4.052   9.873  1.1159  0.0077 -0.0683
  193MOL0     C26507   7.946   4.112   9.741  0.2744  0.7018  0.8676
  193MOL0     C26508   8.020   4.253   9.763  0.7214 -0.0771  0.3268
  193MOL0     C26509   8.102   4.290   9.643 -0.4922 -0.6104 -0.2874
  193MOL0     C26510   8.199   4.405   9.694  0.6390 -1.6248 -0.1122
  193MOL0     C26511   8.272   4.447   9.571 -0.3406  0.3958  0.9299
  193MOL0     C26512   8.357   4.571   9.594  0.2273  0.1439 -0.1010
  193MOL0     N26513   8.455   4.574   9.704  0.8599 -0.2349  0.5511
  193MOL0     C26514   8.447   4.646   9.823  0.7481 -0.4465  0.5853
  193MOL0     C26515   8.540   4.589   9.897 -0.0855 -0.1403  0.1687
  193MOL0     C26516   8.556   4.609  10.047  0.9673 -0.0767 -0.6766
  193MOL0     C26517   8.666   4.705  10.101  0.4806 -0.6794  0.1944
  193MOL0     C26518   8.808   4.684  10.046 -0.1925  0.3075  0.6977
  193MOL0     C26519   8.927   4.761  10.118  0.9017 -0.2814  0.5749
  193MOL0     O26520   8.923   4.901  10.107 -0.0206 -1.1471  0.0618
  193MOL0     C26521   9.002   4.958  10.210  0.6753  0.0110  0.2942
  193MOL0     C26522   9.076   4.894  10.314 -0.6354  0.6781 -0.3029
  193MOL0     C26523   9.147   4.961  10.417  0.4316 -0.0986 -0.6123
  193MOL0     C26524   9.209   4.877  10.523  0.0318 -0.4284  0.6292
  193MOL0     C26525   9.131   5.097  10.419 -0.7981  0.2873  0.7736
  193MOL0     C26526   9.191   5.185  10.513  0.7645  0.1617  0.2158
  193MOL0     O26527   9.326   5.175  10.550  0.5724  0.2128  0.0587
  193MOL0     C26528   9.379   5.245  10.653  0.3155  0.0318 -0.8052
  193MOL0     C26529   9.425   5.180  10.765  0.6312 -0.6246  1.3297
  193MOL0     C26530   9.476   5.246  10.875  0.5081  0.7516 -0.6013
  193MOL0     C26531   9.477   5.387  10.888  0.7001  0.8900  1.0087
  193MOL0     O26532   9.503   5.444  11.010  0.2488 -0.3363  0.0607
  193MOL0     C26533   9.566   5.577  11.016 -0.4042 -0.8011 -0.1591
  193MOL0     C26534   9.547   5.653  11.141  0.3471  0.0104  0.5737
  193MOL0     C26535   9.628   5.790  11.138 -0.0020 -0.0532  0.6572
  193MOL0     C26536   9.774   5.760  11.131 -0.4939  0.9856 -0.4506
  193MOL0     C26537   9.857   5.864  11.211  0.2415  0.3998  0.6530
  193MOL0     C26538  10.003   5.831  11.204 -0.2960  0.0284 -0.3398
  193MOL0     C26539  10.069   5.912  11.316 -0.2958 -0.4427 -0.5079
  193MOL0     C26540  10.225   5.928  11.297  0.1245 -0.0110  0.1357
  193MOL0    Cl26541  10.325   5.783  11.346 -0.6305  0.3671  0.5489
  193MOL0     C26542   9.431   5.457  10.776 -0.0843  0.0107  0.1564
  193MOL0     C26543   9.395   5.388  10.663  0.2169 -0.2282 -0.0590
  193MOL0     O26544   9.111   5.280  10.542 -0.7195  0.2061  0.1123
  193MOL0     C26545   9.058   5.160  10.310  0.0321  0.0377 -0.0934
  193MOL0     C26546   8.994   5.098  10.204 -0.0112  0.0941 -0.5603
  193MOL0     N26547   8.611   4.492   9.831  0.2218 -0.0057  0.2134
  193MOL0     N26548   8.559   4.484   9.711 -0.5952 -0.3313  0.0857
  193MOL0     C26549   7.671   4.098  10.282  0.9352 -0.3830 -1.1029
  193MOL0     C26550   7.583   4.162  10.373 -1.5560 -0.6323 -0.5084
  193MOL0     C26551   7.343   4.439  10.619  0.1639  0.3353 -0.0965
  193MOL0     C26552   7.203   4.396  10.608 -0.3199  0.3198 -0.0476
  193MOL0     C26553   7.099   4.459  10.681 -0.7012  1.2229 -0.6292
  193MOL0     C26554   7.130   4.564  10.764  0.7044 -0.5919 -0.3388
  193MOL0     O26555   7.031   4.632  10.835  0.0347 -0.0832 -0.1113
  193MOL0     C26556   6.960   4.559  10.935 -0.1041  0.1385 -0.5438
  193MOL0     C26557   7.034   4.571  11.064 -1.1613 -0.2525  0.1201
  193MOL0     C26558   7.097   4.704  11.109  0.1717 -0.6524  0.5457
  193MOL0     C26559   7.187   4.704  11.234  0.5145  0.1194  0.9375
  193MOL0     C26560   7.311   4.657  11.190 -0.6429  0.3456 -0.0513
  193MOL0     C26561   7.423   4.633  11.161  0.4056 -1.3101 -0.0159
  193MOL0     C26562   7.269   4.614  10.769  0.0478 -0.2787  0.2327
  193MOL0     C26563   7.372   4.553  10.699  0.8622 -0.0746  0.1076
  193MOL0     C26564   7.511   4.621  10.713  1.0065 -0.2907  0.4726
  193MOL0     H26565   7.366   4.302  10.164  0.6327  2.1808 -0.1354
  193MOL0     H26566   7.546   4.214   9.989  0.6108  1.3802  0.3138
  193MOL0     H26567   7.881   4.230   9.987 -1.1246 -1.0801  2.8812
  193MOL0     H26568   7.747   4.178   9.887  1.3718  1.1374 -1.2458
  193MOL0     H26569   8.005   4.029   9.926  0.4158  0.8400  1.5756
  193MOL0     H26570   7.858   3.959   9.853  2.9348 -1.1329 -0.0311
  193MOL0     H26571   8.000   4.033   9.689  0.2867  0.6556  0.9488
  193MOL0     H26572   7.857   4.124   9.678  2.3915  1.4067 -2.2134
  193MOL0     H26573   7.948   4.333   9.783  1.2865 -0.2486  3.6097
  193MOL0     H26574   8.093   4.261   9.845  1.3513  1.1587 -0.3097
  193MOL0     H26575   8.022   4.312   9.571  0.3861 -0.5652 -1.2590
  193MOL0     H26576   8.163   4.213   9.596 -0.9676 -3.1314  2.9352
  193MOL0     H26577   8.132   4.481   9.735  0.6172 -1.2329 -0.8648
  193MOL0     H26578   8.270   4.362   9.765 -0.1332 -0.6780  1.2904
  193MOL0     H26579   8.189   4.471   9.504  0.5274 -0.2974 -0.4154
  193MOL0     H26580   8.340   4.371   9.531 -0.0102  0.3131  1.6245
  193MOL0     H26581   8.409   4.592   9.500 -0.4000  1.9989 -0.0821
  193MOL0     H26582   8.290   4.658   9.595  2.5415  2.0617 -1.9601
  193MOL0     H26583   8.380   4.723   9.858 -0.7612 -0.9380 -1.0730
  193MOL0     H26584   8.583   4.510  10.086  1.9909  0.3784 -0.1820
  193MOL0     H26585   8.465   4.634  10.102  2.3976  1.4914  1.1296
  193MOL0     H26586   8.637   4.808  10.079  1.1788 -0.9392 -2.2621
  193MOL0     H26587   8.660   4.703  10.210 -0.9038 -1.2018  0.1311
  193MOL0     H26588   8.822   4.576  10.047 -2.9031 -0.0985  1.9440
  193MOL0     H26589   8.809   4.712   9.940  3.9565 -2.3169 -0.2082
  193MOL0     H26590   8.938   4.718  10.218  2.5839  2.1103  1.5100
  193MOL0     H26591   9.022   4.723  10.080 -0.7911 -4.4528 -0.0745
  193MOL0     H26592   9.086   4.787  10.320  2.9941  1.0011  2.0341
  193MOL0     H26593   9.306   4.833  10.496  0.4962 -0.9484  2.9383
  193MOL0     H26594   9.138   4.801  10.556  0.7014 -0.8020  1.2239
  193MOL0     H26595   9.212   4.941  10.612 -0.4967 -0.4376  0.6556
  193MOL0     H26596   9.437   5.073  10.753 -2.3185 -0.8285 -0.8207
  193MOL0     H26597   9.516   5.184  10.955  3.3261  0.6155 -2.0079
  193MOL0     H26598   9.672   5.554  11.000 -0.2445 -1.8970  2.0792
  193MOL0     H26599   9.518   5.654  10.954 -2.0248  0.5877  2.6103
  193MOL0     H26600   9.441   5.660  11.165  0.4698 -1.7527  1.7814
  193MOL0     H26601   9.594   5.593  11.220  1.4830 -0.9976 -0.8223
  193MOL0     H26602   9.604   5.849  11.227 -0.2724 -0.1248  0.6324
  193MOL0     H26603   9.596   5.853  11.055 -3.3110 -0.8121  1.2228
  193MOL0     H26604   9.822   5.753  11.034  1.4672 -3.9018  0.5937
  193MOL0     H26605   9.800   5.665  11.178  2.4869  2.5698  1.4115
  193MOL0     H26606   9.845   5.957  11.155  1.0403  0.4678  0.5827
  193MOL0     H26607   9.810   5.866  11.310 -1.4914  1.2863 -0.1398
  193MOL0     H26608  10.028   5.852  11.100  0.1548 -1.2077 -0.4938
  193MOL0     H26609  10.021   5.725  11.226  1.7104  0.1370 -1.2170
  193MOL0     H26610  10.050   5.883  11.419  2.0188 -2.1197 -0.4835
  193MOL0     H26611  10.038   6.017  11.306  2.2664  0.2926 -1.6356
  193MOL0     H26612  10.265   6.014  11.351 -1.5512  0.5664  0.4831
  193MOL0     H26613  10.228   5.927  11.188 -0.2372  1.4444  0.0941
  193MOL0     H26614   9.431   5.565  10.767  2.6157 -0.1026 -3.5161
  193MOL0     H26615   9.353   5.434  10.574 -1.8588 -2.5220 -0.4026
  193MOL0     H26616   9.049   5.268  10.301 -0.5467 -0.0257 -0.3525
  193MOL0     H26617   8.950   5.162  10.128  0.3357  1.4875  0.3719
  193MOL0     H26618   7.752   4.037  10.320  1.4299  1.9040  1.8469
  193MOL0     H26619   7.593   4.137  10.479  2.2225  2.2381  0.0246
  193MOL0     H26620   7.172   4.321  10.535 -1.4757  1.4552 -0.7682
  193MOL0     H26621   7.000   4.416  10.670  0.1896 -0.9540 -0.7241
  193MOL0     H26622   6.857   4.595  10.945 -1.0544 -2.1093 -1.5244
  193MOL0     H26623   6.951   4.454  10.906  1.6847 -0.6180  1.3943
  193MOL0     H26624   7.122   4.508  11.051  0.2611  1.0556  2.5060
  193MOL0     H26625   6.981   4.531  11.151  1.8044 -1.7518  1.3969
  193MOL0     H26626   7.152   4.751  11.028  0.0587  0.1176  0.9079
  193MOL0     H26627   7.012   4.771  11.122  1.2172  2.2040 -4.7398
  193MOL0     H26628   7.142   4.642  11.312 -1.0826  2.3025  1.8234
  193MOL0     H26629   7.185   4.805  11.276  1.1684 -1.3796  4.9803
  193MOL0     H26630   7.524   4.646  11.128 -0.2049 -0.1602 -1.5747
  193MOL0     H26631   7.301   4.694  10.835  2.8398  0.4213 -1.7974
  193MOL0     H26632   7.492   4.718  10.759 -0.6973  1.8411 -4.1713
  193MOL0     H26633   7.566   4.561  10.786  0.6059 -1.7078 -0.3330
  193MOL0     H26634   7.561   4.636  10.617  0.6867  0.9890  0.4923
  194MOL0     O26635   9.444  10.381   6.618  0.2096 -0.1862 -0.0062
  194MOL0     C26636   9.320  10.377   6.627 -0.1405 -0.3856  0.2078
  194MOL0     O26637   9.235  10.482   6.586 -0.1990 -0.6485 -0.1588
  194MOL0     C26638   9.287  10.584   6.511  0.1321  0.1106  0.4146
  194MOL0     C26639   9.305  10.712   6.555 -1.0536 -0.5026 -0.5034
  194MOL0     C26640   9.379  10.809   6.484 -0.0900  0.0892  0.2371
  194MOL0     C26641   9.407  10.774   6.346 -0.8988 -0.7819  0.1907
  194MOL0     O26642   9.488  10.866   6.278 -1.1102  0.0391 -0.5152
  194MOL0     C26643   9.498  10.854   6.144 -0.4724 -0.6714 -0.4888
  194MOL0     C26644   9.625  10.780   6.099  0.2597  0.5627  1.0560
  194MOL0     C26645   9.752  10.848   6.141 -0.1510  0.5259 -0.3898
  194MOL0     C26646   9.857  10.792   6.049 -0.7839 -0.4214  0.5246
  194MOL0     C26647   9.996  10.851   6.073  1.7773  1.4177  0.7682
  194MOL0     C26648  10.043  10.838   6.223  0.5571  0.0461 -0.3525
  194MOL0     C26649  10.188  10.878   6.241  0.3665  0.1004  0.0405
  194MOL0     C26650  10.247  10.818   6.371 -0.7032  0.2818  0.2674
  194MOL0     N26651  10.173  10.846   6.487 -0.1859 -0.3653  0.0520
  194MOL0     C26652  10.136  10.757   6.578  0.4510  0.7249 -0.0615
  194MOL0     C26653  10.130  10.833   6.686  0.6937  0.8242 -0.6707
  194MOL0     C26654  10.083  10.794   6.828 -1.0030  0.0685 -0.2459
  194MOL0     C26655   9.989  10.890   6.901 -0.8769 -0.1269 -0.3631
  194MOL0     C26656  10.005  10.900   7.049 -0.4868 -0.3102  0.1077
  194MOL0     C26657   9.893  10.976   7.126  0.3683 -0.5947 -0.2768
  194MOL0     O26658   9.902  11.117   7.118  0.2723  0.2093 -0.1636
  194MOL0     C26659   9.802  11.191   7.174 -0.2600 -0.4307  0.0337
  194MOL0     C26660   9.791  11.175   7.312  0.1170 -0.1134  0.0169
  194MOL0     C26661   9.704  11.258   7.383  0.6648  0.3843 -0.3462
  194MOL0     C26662   9.713  11.236   7.533 -0.0100  0.1792  0.1241
  194MOL0     C26663   9.600  11.330   7.309 -0.8366  0.1101 -0.7097
  194MOL0     C26664   9.491  11.405   7.377 -0.7237 -0.9091 -0.7793
  194MOL0     O26665   9.457  11.523   7.307  0.8711  0.7245 -0.0307
  194MOL0     C26666   9.330  11.576   7.307  0.3634  0.7634  0.6623
  194MOL0     C26667   9.211  11.517   7.352  0.4779 -0.1599  0.0569
  194MOL0     C26668   9.080  11.574   7.358 -0.3297  0.2101  0.1327
  194MOL0     C26669   9.077  11.707   7.306  0.1634 -0.0589  1.0221
  194MOL0     O26670   8.958  11.766   7.318 -0.7387  0.3705  0.9320
  194MOL0     C26671   8.926  11.879   7.242 -0.1376 -0.1751  0.7773
  194MOL0     C26672   8.779  11.894   7.261  0.0440 -0.1909 -0.2285
  194MOL0     C26673   8.696  11.774   7.202 -0.6200 -0.7452  0.1840
  194MOL0     C26674   8.663  11.800   7.055  1.0170 -0.8990 -0.0185
  194MOL0     C26675   8.564  11.704   6.993  1.0372  0.9281 -0.8583
  194MOL0     C26676   8.576  11.712   6.846  0.2754 -0.0948  0.3902
  194MOL0     C26677   8.553  11.849   6.777 -0.0465 -0.1130  0.3597
  194MOL0     C26678   8.552  11.851   6.618 -0.4908 -0.3713 -0.5139
  194MOL0    Cl26679   8.411  11.747   6.560  0.3790  0.4208  0.2559
  194MOL0     C26680   9.191  11.767   7.257 -0.3728 -0.0124  0.1030
  194MOL0     C26681   9.316  11.710   7.259  1.1500  0.3331  0.5030
  194MOL0     O26682   9.439  11.359   7.479 -0.1678 -0.4190  0.4398
  194MOL0     C26683   9.627  11.339   7.175 -0.0511  0.5311  0.6853
  194MOL0     C26684   9.726  11.277   7.109  0.8783 -0.2640 -0.2241
  194MOL0     N26685  10.152  10.964   6.665 -0.0714  0.3909 -0.2048
  194MOL0     N26686  10.165  10.968   6.537 -0.5605  0.3304  0.4727
  194MOL0     C26687   9.393  10.641   6.309  0.6846 -0.5724  0.0308
  194MOL0     C26688   9.338  10.544   6.390  0.8785  0.4462  0.3189
  194MOL0     C26689   9.265  10.255   6.705  0.8230 -0.6900 -0.0786
  194MOL0     C26690   9.348  10.178   6.788 -0.0497  0.9835  1.2470
  194MOL0     C26691   9.301  10.074   6.870  1.0588 -0.9880 -0.1376
  194MOL0     C26692   9.163  10.049   6.879  1.0189  0.5314 -0.1275
  194MOL0     O26693   9.126   9.961   6.978 -0.2841  0.6416 -0.7571
  194MOL0     C26694   8.983   9.950   7.000 -0.8801 -0.0592 -0.8215
  194MOL0     C26695   8.957   9.853   7.123  0.1068 -0.2075 -0.6367
  194MOL0     C26696   9.000   9.710   7.098 -0.4250  0.1427  0.9483
  194MOL0     C26697   8.940   9.655   6.964  0.0834  0.2644  0.1890
  194MOL0     C26698   8.988   9.524   6.944 -0.4612 -0.6794  0.0505
  194MOL0     C26699   9.029   9.418   6.913 -0.9917  0.5617 -0.2753
  194MOL0     C26700   9.076  10.145   6.815  0.1166  0.4259 -0.2481
  194MOL0     C26701   9.129  10.234   6.728  0.3948 -0.2142  0.4658
  194MOL0     C26702   9.027  10.312   6.655  0.6791  0.5604 -0.6301
  194MOL0     H26703   9.268  10.730   6.656  0.2356  0.7434 -0.2192
  194MOL0     H26704   9.410  10.904   6.525  2.1883  0.7647 -2.7240
  194MOL0     H26705   9.531  10.947   6.096  0.9126 -1.2819 -0.7651
  194MOL0     H26706   9.405  10.819   6.100 -0.3813 -0.8792 -0.5160
  194MOL0     H26707   9.623  10.681   6.144 -2.4905  0.1568  0.2291
  194MOL0     H26708   9.626  10.776   5.990 -0.0668 -1.1055  1.0939
  194MOL0     H26709   9.728  10.954   6.133 -0.1158  0.5836  0.2020
  194MOL0     H26710   9.779  10.827   6.245 -1.0020  1.5384  0.0466
  194MOL0     H26711   9.871  10.688   6.079 -2.7067 -0.1441  2.6596
  194MOL0     H26712   9.829  10.800   5.944  0.2538  0.4125  0.2973
  194MOL0     H26713   9.994  10.954   6.035  3.3221  1.5667  1.0014
  194MOL0     H26714  10.070  10.792   6.020  0.0692 -2.8048  2.6574
  194MOL0     H26715   9.977  10.905   6.279 -0.8690 -1.4986 -0.0777
  194MOL0     H26716  10.036  10.734   6.257 -2.4688  0.1966 -0.2902
  194MOL0     H26717  10.203  10.986   6.254  0.3377 -0.1503  2.7027
  194MOL0     H26718  10.235  10.847   6.147 -0.3854 -0.1662 -0.2594
  194MOL0     H26719  10.264  10.711   6.353  0.7877  0.8171 -1.9307
  194MOL0     H26720  10.346  10.854   6.402 -0.4313  0.8960 -1.2467
  194MOL0     H26721  10.133  10.649   6.576 -1.6170  0.6791  1.9523
  194MOL0     H26722  10.170  10.794   6.895 -0.9696 -2.9617 -0.1511
  194MOL0     H26723  10.047  10.692   6.814 -2.8309  0.9317 -2.6227
  194MOL0     H26724  10.004  10.995   6.873  2.6431  0.5587  3.2116
  194MOL0     H26725   9.889  10.851   6.879 -1.5831 -0.0197  2.3171
  194MOL0     H26726  10.008  10.796   7.083  2.7365 -1.3075 -2.6792
  194MOL0     H26727  10.096  10.957   7.066  1.2482 -1.9366 -2.8274
  194MOL0     H26728   9.793  10.943   7.095 -0.3209  1.4530 -0.3842
  194MOL0     H26729   9.909  10.933   7.225 -1.7801 -4.3308 -1.3350
  194MOL0     H26730   9.868  11.112   7.356  2.8075  1.3514 -2.3047
  194MOL0     H26731   9.707  11.329   7.590  1.3313 -1.0007  2.3248
  194MOL0     H26732   9.804  11.180   7.558 -0.2361  0.4587  1.6178
  194MOL0     H26733   9.633  11.168   7.563 -1.0803 -0.3465 -3.4494
  194MOL0     H26734   9.210  11.416   7.392 -1.3088 -0.6801 -1.1551
  194MOL0     H26735   8.995  11.516   7.392  3.9002 -5.9584  1.7674
  194MOL0     H26736   8.974  11.970   7.280 -3.6225  2.0834  0.1892
  194MOL0     H26737   8.959  11.866   7.139  3.2542  0.9818  1.5635
  194MOL0     H26738   8.760  11.906   7.368 -1.9524  0.0272 -0.5723
  194MOL0     H26739   8.739  11.990   7.227  1.7672  0.9438  0.8084
  194MOL0     H26740   8.602  11.767   7.258 -0.5831 -1.8270  0.1396
  194MOL0     H26741   8.760  11.685   7.214 -0.3160 -0.2882  2.4436
  194MOL0     H26742   8.758  11.798   7.001 -0.1965 -0.6453 -2.3066
  194MOL0     H26743   8.626  11.903   7.057  2.2165 -0.4524  1.6759
  194MOL0     H26744   8.589  11.601   7.021 -1.0699  0.2128 -1.4502
  194MOL0     H26745   8.469  11.737   7.037  0.4206 -1.1559 -0.5379
  194MOL0     H26746   8.494  11.647   6.813 -0.1205  1.0792 -1.0556
  194MOL0     H26747   8.671  11.674   6.806 -0.6625 -0.6239 -1.4509
  194MOL0     H26748   8.629  11.921   6.808  0.8122 -1.4384  1.4426
  194MOL0     H26749   8.455  11.888   6.805 -0.0120  1.5005 -1.4946
  194MOL0     H26750   8.645  11.823   6.567  0.6271  1.4175  0.4358
  194MOL0     H26751   8.522  11.948   6.577 -1.3393  0.6281  2.2747
  194MOL0     H26752   9.176  11.861   7.206 -4.3395 -0.4547  0.1688
  194MOL0     H26753   9.402  11.765   7.221 -0.9841  2.2098 -2.0737
  194MOL0     H26754   9.554  11.400   7.124  0.2828 -1.0848 -1.8912
  194MOL0     H26755   9.717  11.301   7.003  1.1048 -0.9021 -0.3965
  194MOL0     H26756   9.415  10.600   6.211  2.2517 -0.1763  0.1904
  194MOL0     H26757   9.320  10.449   6.341  1.8342  0.9182 -1.0214
  194MOL0     H26758   9.450  10.213   6.778  0.7460 -1.7403 -4.8206
  194MOL0     H26759   9.367  10.019   6.936  0.1170  0.4298  2.1041
  194MOL0     H26760   8.947  10.051   7.021  0.8275 -0.2973  4.8403
  194MOL0     H26761   8.927   9.922   6.910 -0.9859 -0.7778 -0.5373
  194MOL0     H26762   8.849   9.849   7.141  0.0873 -2.9327 -0.8930
  194MOL0     H26763   9.013   9.887   7.210  1.8246 -0.6926 -1.5149
  194MOL0     H26764   9.109   9.712   7.090 -0.4231  3.6011  0.1257
  194MOL0     H26765   8.965   9.659   7.188 -1.5104 -0.2514  0.3206
  194MOL0     H26766   8.996   9.707   6.886 -1.8669  5.0439  1.5773
  194MOL0     H26767   8.832   9.668   6.953  0.3943  0.6735 -4.5886
  194MOL0     H26768   9.057   9.319   6.884 -0.3056  0.4965  0.5568
  194MOL0     H26769   8.968  10.152   6.820  0.0163  0.8893 -2.2583
  194MOL0     H26770   8.929  10.263   6.652  0.3742  1.0606  0.5024
  194MOL0     H26771   9.019  10.409   6.703 -1.2405  0.5014 -0.7465
  194MOL0     H26772   9.061  10.320   6.551  1.2676 -0.7760 -0.5663
  195MOL0     O26773   0.168   1.045  11.195 -0.3623 -0.1115  0.3237
  195MOL0     C26774   0.205   1.118  11.100  1.4759  0.3681 -0.8581
  195MOL0     O26775   0.183   1.252  11.084  0.8733  0.5730 -1.0463
  195MOL0     C26776   0.137   1.337  11.186  0.2725  0.6169  0.2021
  195MOL0     C26777   0.084   1.461  11.138  0.7921 -0.0186 -0.3058
  195MOL0     C26778   0.038   1.552  11.239  0.3632  0.1290  0.0016
  195MOL0     C26779   0.042   1.516  11.374  0.9047  0.0433  0.9164
  195MOL0     O26780  -0.020   1.597  11.466 -0.4842  0.5618  0.3431
  195MOL0     C26781  -0.066   1.732  11.434 -0.3972 -0.0541 -0.3842
  195MOL0     C26782  -0.136   1.772  11.559  0.2095 -0.4542  0.1702
  195MOL0     C26783  -0.043   1.792  11.679  0.0299  0.5078 -0.4654
  195MOL0     C26784   0.047   1.921  11.678  0.0749  0.2776  0.7857
  195MOL0     C26785  -0.031   2.045  11.700  0.1107  0.2732 -1.4277
  195MOL0     C26786  -0.056   2.138  11.585  0.2765 -0.1629  0.1340
  195MOL0     C26787  -0.142   2.256  11.628 -0.4357  0.6015 -0.6001
  195MOL0     C26788  -0.065   2.365  11.704 -0.0118  0.1697 -0.1376
  195MOL0     N26789  -0.158   2.479  11.726 -0.1467  0.2502  0.5138
  195MOL0     C26790  -0.237   2.501  11.829  0.0827  0.7385 -0.3863
  195MOL0     C26791  -0.309   2.620  11.806 -0.1865  0.1660 -0.5333
  195MOL0     C26792  -0.412   2.679  11.891 -0.5433  0.7693 -0.6863
  195MOL0     C26793  -0.462   2.575  12.004 -0.2710 -1.1766  0.7527
  195MOL0     C26794  -0.538   2.641  12.123  0.6508 -0.0711 -0.5086
  195MOL0     C26795  -0.678   2.680  12.082 -0.1881  0.8519  0.6519
  195MOL0     O26796  -0.732   2.775  12.174  0.6231 -0.0686 -0.0381
  195MOL0     C26797  -0.857   2.827  12.156 -0.3190  0.7722 -0.0788
  195MOL0     C26798  -0.953   2.759  12.077  0.1321 -0.0855  0.9092
  195MOL0     C26799  -1.076   2.822  12.053 -0.7248  0.6224 -0.2842
  195MOL0     C26800  -1.161   2.754  11.955  0.1535 -0.5098  0.4707
  195MOL0     C26801  -1.099   2.952  12.099 -0.6265  0.1014  0.1128
  195MOL0     C26802  -1.225   3.035  12.081 -1.2583 -0.1955  0.7908
  195MOL0     O26803  -1.342   2.969  12.082  0.6171  0.3346 -1.3118
  195MOL0     C26804  -1.457   3.037  12.036  0.0843  0.5910 -0.9526
  195MOL0     C26805  -1.535   2.987  11.932 -0.6344 -1.0842  1.1283
  195MOL0     C26806  -1.643   3.067  11.888 -0.3820 -0.4774 -0.3753
  195MOL0     C26807  -1.699   3.182  11.956  0.6066  0.7503  0.1202
  195MOL0     O26808  -1.793   3.266  11.900  0.1524 -0.7203 -0.1760
  195MOL0     C26809  -1.905   3.211  11.821  0.8797 -0.0528  0.3931
  195MOL0     C26810  -1.887   3.263  11.674  0.8674 -0.0621 -0.7930
  195MOL0     C26811  -1.949   3.404  11.663  0.0327  0.3293  0.3265
  195MOL0     C26812  -1.978   3.435  11.518  0.5876  0.4900  0.3287
  195MOL0     C26813  -2.068   3.555  11.503  0.4174  0.4130  0.2569
  195MOL0     C26814  -1.991   3.686  11.555 -0.6796  0.0001 -0.1903
  195MOL0     C26815  -2.040   3.822  11.516 -0.0632 -0.3546  0.6039
  195MOL0     C26816  -2.191   3.848  11.544 -0.6144  0.7366  0.0951
  195MOL0    Cl26817  -2.270   3.998  11.476 -0.2122 -0.1229  0.3724
  195MOL0     C26818  -1.617   3.218  12.059 -0.8382 -0.1165 -0.8985
  195MOL0     C26819  -1.495   3.158  12.091  0.3001  0.5813 -0.0530
  195MOL0     O26820  -1.210   3.158  12.076 -0.8470 -0.8995  0.7579
  195MOL0     C26821  -0.984   3.020  12.163  0.0277 -0.4823 -0.1384
  195MOL0     C26822  -0.868   2.959  12.197 -0.0965 -0.2751 -0.0178
  195MOL0     N26823  -0.257   2.672  11.688 -0.8474  0.1269 -0.4270
  195MOL0     N26824  -0.166   2.586  11.651 -0.4506  0.0868 -0.0979
  195MOL0     C26825   0.110   1.406  11.422  0.3021  0.2792 -0.8003
  195MOL0     C26826   0.163   1.325  11.326  0.2336  0.6783  0.0260
  195MOL0     C26827   0.247   1.042  10.981 -1.0802 -0.6126  0.8290
  195MOL0     C26828   0.262   0.899  10.991  0.1667  0.8290 -0.2811
  195MOL0     C26829   0.302   0.817  10.881 -0.2619 -0.0299  0.0784
  195MOL0     C26830   0.323   0.884  10.750  0.7106  0.6180  0.6812
  195MOL0     O26831   0.351   0.795  10.653 -0.0106 -0.0545 -0.3324
  195MOL0     C26832   0.468   0.713  10.661 -0.7137  0.5567  0.3564
  195MOL0     C26833   0.510   0.690  10.510  0.5304  0.4596  0.3376
  195MOL0     C26834   0.652   0.628  10.477  0.1716 -0.8289 -0.3164
  195MOL0     C26835   0.769   0.696  10.556  0.0801  0.4236 -0.4875
  195MOL0     C26836   0.760   0.843  10.533 -0.6111 -0.0070  0.2107
  195MOL0     C26837   0.766   0.963  10.535 -0.2633  0.5043 -0.6422
  195MOL0     C26838   0.307   1.018  10.740 -0.0642  0.3219 -0.9765
  195MOL0     C26839   0.277   1.097  10.850  0.1120 -0.7730  0.6924
  195MOL0     C26840   0.250   1.249  10.817  0.4431 -0.5901  0.0866
  195MOL0     H26841   0.106   1.495  11.037  1.4494 -0.2571 -0.2462
  195MOL0     H26842   0.001   1.648  11.207 -0.5637 -0.1556  0.1969
  195MOL0     H26843  -0.142   1.727  11.356 -3.3500 -2.2970  2.3613
  195MOL0     H26844   0.022   1.794  11.414 -1.1068  0.9835 -0.3350
  195MOL0     H26845  -0.196   1.859  11.534 -1.0892 -1.2432  0.4590
  195MOL0     H26846  -0.215   1.699  11.580 -4.3275  4.0630  0.8158
  195MOL0     H26847  -0.094   1.791  11.776  0.1767  1.1361 -0.3747
  195MOL0     H26848   0.025   1.707  11.674  1.5392  1.6451  0.1867
  195MOL0     H26849   0.124   1.923  11.756 -0.7864 -0.7239  1.6976
  195MOL0     H26850   0.091   1.934  11.578 -0.5649  0.1904  0.4893
  195MOL0     H26851   0.023   2.105  11.773 -2.5785  0.9337  0.1540
  195MOL0     H26852  -0.132   2.027  11.737  0.9214  1.4408  1.6877
  195MOL0     H26853   0.041   2.173  11.549  0.1838 -1.3545 -1.3750
  195MOL0     H26854  -0.107   2.078  11.508  1.0720 -1.8758  0.8979
  195MOL0     H26855  -0.222   2.212  11.688  1.3429 -2.1104 -0.0586
  195MOL0     H26856  -0.190   2.301  11.541 -0.7181  0.3969 -0.5526
  195MOL0     H26857  -0.032   2.313  11.794  0.3392  0.7954  0.1026
  195MOL0     H26858   0.020   2.392  11.641 -1.3932  0.9287 -1.7516
  195MOL0     H26859  -0.255   2.434  11.912 -0.8760  0.1542 -1.0457
  195MOL0     H26860  -0.496   2.704  11.825 -0.0479 -0.1553 -1.6901
  195MOL0     H26861  -0.386   2.774  11.939 -0.5094  0.0707  0.7553
  195MOL0     H26862  -0.531   2.500  11.963 -1.0273  0.3706 -0.9349
  195MOL0     H26863  -0.373   2.527  12.047 -0.4432 -0.4248  1.9896
  195MOL0     H26864  -0.542   2.564  12.201  0.8460  3.2036  3.0107
  195MOL0     H26865  -0.488   2.721  12.178  3.7384 -0.8422 -1.9647
  195MOL0     H26866  -0.689   2.720  11.980 -0.5427  1.4448  0.9214
  195MOL0     H26867  -0.744   2.593  12.085 -2.1697  1.8519 -4.0616
  195MOL0     H26868  -0.949   2.658  12.038 -1.7270 -0.1935  0.8831
  195MOL0     H26869  -1.109   2.750  11.859 -1.3151  1.5898 -0.4968
  195MOL0     H26870  -1.252   2.811  11.932 -1.4571 -2.4706  1.6107
  195MOL0     H26871  -1.201   2.655  11.979 -1.2875  0.3045  1.6158
  195MOL0     H26872  -1.502   2.903  11.872  2.5276  0.2325  0.8612
  195MOL0     H26873  -1.706   3.041  11.803  0.2118 -2.3739 -0.2892
  195MOL0     H26874  -1.910   3.102  11.824  1.3961 -0.0563  1.5348
  195MOL0     H26875  -2.006   3.242  11.852  1.0327 -2.1040  3.3544
  195MOL0     H26876  -1.781   3.259  11.649  1.4890 -2.3492  1.7080
  195MOL0     H26877  -1.943   3.195  11.608 -0.2334  0.7372 -0.7204
  195MOL0     H26878  -1.873   3.472  11.701 -0.4215  1.1165 -0.1596
  195MOL0     H26879  -2.043   3.404  11.718 -0.9959 -0.8849 -1.3346
  195MOL0     H26880  -2.022   3.357  11.455 -0.5004  0.8549  0.6243
  195MOL0     H26881  -1.879   3.460  11.478  0.5963 -1.4023 -1.0047
  195MOL0     H26882  -2.087   3.553  11.395  0.6948 -1.9027  0.1835
  195MOL0     H26883  -2.167   3.557  11.549 -0.0975 -0.3143 -0.7704
  195MOL0     H26884  -1.885   3.675  11.532 -0.2823 -1.7767  2.1383
  195MOL0     H26885  -1.987   3.695  11.664  2.9497  2.6288 -0.3810
  195MOL0     H26886  -2.020   3.849  11.411 -0.5780 -3.4478 -0.4098
  195MOL0     H26887  -1.979   3.884  11.582  0.7645 -1.3090  0.7553
  195MOL0     H26888  -2.191   3.846  11.653  1.4597 -1.3130  0.1478
  195MOL0     H26889  -2.261   3.771  11.511 -1.0359  0.2293  2.0660
  195MOL0     H26890  -1.640   3.309  12.115  0.3854  0.8019 -1.8247
  195MOL0     H26891  -1.425   3.212  12.154  1.8150  1.5325 -2.4511
  195MOL0     H26892  -1.008   3.116  12.209  2.5377  1.3825 -2.4440
  195MOL0     H26893  -0.799   3.028  12.245  0.3976  0.9099 -2.2601
  195MOL0     H26894   0.112   1.383  11.528 -2.8954  0.5729 -0.5795
  195MOL0     H26895   0.205   1.231  11.359 -2.3548  0.0204  1.7418
  195MOL0     H26896   0.240   0.850  11.086  0.0803  2.8131  0.7704
  195MOL0     H26897   0.322   0.714  10.909  0.6989 -0.1149 -0.8265
  195MOL0     H26898   0.546   0.761  10.721  0.6968 -1.5946  0.3568
  195MOL0     H26899   0.442   0.620  10.713  0.2968 -1.2526 -2.1932
  195MOL0     H26900   0.501   0.788  10.462  3.3853  0.3388 -0.6365
  195MOL0     H26901   0.424   0.630  10.475  1.2555  0.2798 -1.2300
  195MOL0     H26902   0.660   0.521  10.493 -0.0790 -0.5569  2.0024
  195MOL0     H26903   0.678   0.631  10.371  0.4450 -2.8359 -0.3350
  195MOL0     H26904   0.858   0.640  10.526  0.3508 -0.8766  2.3658
  195MOL0     H26905   0.742   0.674  10.660 -0.7092 -0.5070 -0.8755
  195MOL0     H26906   0.775   1.070  10.529 -3.1801  0.8608 -0.1322
  195MOL0     H26907   0.323   1.063  10.643  3.2247  3.0884  0.6276
  195MOL0     H26908   0.293   1.321  10.888 -1.6705 -0.1645  1.0206
  195MOL0     H26909   0.291   1.266  10.717  3.4120 -3.5026  0.6408
  195MOL0     H26910   0.145   1.277  10.823  0.0064 -2.0046 -0.6473
  196MOL0     O26911   3.447   3.421   7.595 -0.1457  0.5926  0.6687
  196MOL0     C26912   3.409   3.493   7.685 -0.7838  0.3828 -0.0442
  196MOL0     O26913   3.293   3.561   7.694  0.4360 -0.3691 -0.1128
  196MOL0     C26914   3.217   3.571   7.587 -0.1305  0.6474  0.2318
  196MOL0     C26915   3.158   3.458   7.530  0.5093  1.2682 -0.4795
  196MOL0     C26916   3.082   3.479   7.411 -0.4631 -0.2740 -1.3572
  196MOL0     C26917   3.076   3.610   7.351 -0.3802 -0.1312  0.0968
  196MOL0     O26918   3.017   3.621   7.229  0.0346  0.1444  0.1912
  196MOL0     C26919   2.893   3.689   7.224  0.7348 -0.0857  0.7624
  196MOL0     C26920   2.876   3.801   7.118  0.0674  0.2400 -0.2749
  196MOL0     C26921   2.738   3.850   7.100 -0.1501  0.3088 -0.1420
  196MOL0     C26922   2.674   3.928   7.206 -0.5792 -0.7009 -0.3261
  196MOL0     C26923   2.522   3.948   7.180 -0.8173 -1.3112  1.3303
  196MOL0     C26924   2.505   4.052   7.052  0.4021  0.6534 -1.0838
  196MOL0     C26925   2.361   4.052   7.012  0.1742 -0.3252  0.3781
  196MOL0     C26926   2.328   4.137   6.886 -0.0360  0.0717  0.6729
  196MOL0     N26927   2.185   4.166   6.876 -0.2078 -0.2381 -0.2205
  196MOL0     C26928   2.114   4.284   6.883  0.2277  0.5343  0.3769
  196MOL0     C26929   1.986   4.254   6.865  0.5721  0.6906 -0.0531
  196MOL0     C26930   1.881   4.359   6.864  0.3523 -0.4824 -0.5765
  196MOL0     C26931   1.825   4.373   7.007  0.1033  0.4020 -0.3654
  196MOL0     C26932   1.767   4.232   7.042 -0.3087 -0.0819  0.3514
  196MOL0     C26933   1.694   4.241   7.168  0.9038 -0.1791 -0.3070
  196MOL0     O26934   1.613   4.130   7.198 -0.1340 -0.9505  0.3235
  196MOL0     C26935   1.664   4.015   7.246 -0.7594 -0.8759  0.4266
  196MOL0     C26936   1.573   3.930   7.295  0.6198 -0.6270  0.2779
  196MOL0     C26937   1.614   3.813   7.344  0.1430  1.0028  0.0619
  196MOL0     C26938   1.510   3.730   7.415  0.2263  0.3979  0.2952
  196MOL0     C26939   1.750   3.773   7.350  0.5655  1.7569  0.7509
  196MOL0     C26940   1.803   3.647   7.420  0.1327  0.5121 -0.3374
  196MOL0     O26941   1.922   3.664   7.477  0.4873 -0.5369 -0.3260
  196MOL0     C26942   1.992   3.562   7.536  0.3276 -0.4911  0.4244
  196MOL0     C26943   2.032   3.445   7.465  0.7597  0.3454 -0.2996
  196MOL0     C26944   2.124   3.359   7.517 -0.5301  0.3962  0.2003
  196MOL0     C26945   2.167   3.397   7.647 -0.0492  0.2435 -1.2489
  196MOL0     O26946   2.265   3.325   7.720  0.5470  0.4069 -0.5847
  196MOL0     C26947   2.273   3.180   7.705 -0.9513 -0.3481  0.9935
  196MOL0     C26948   2.289   3.122   7.847 -0.7637 -1.5495  0.1421
  196MOL0     C26949   2.401   3.170   7.935  0.4034  0.3903  0.0329
  196MOL0     C26950   2.461   3.054   8.018  0.1834 -0.5053  1.0075
  196MOL0     C26951   2.364   2.996   8.122  0.5837  0.4017 -0.7698
  196MOL0     C26952   2.309   3.102   8.214 -0.8694  0.5370  0.2229
  196MOL0     C26953   2.224   3.040   8.317  0.9469 -0.3574 -0.8418
  196MOL0     C26954   2.119   3.141   8.371  1.1598  0.1207 -0.2095
  196MOL0    Cl26955   2.221   3.253   8.468 -0.2289  0.1457  0.4912
  196MOL0     C26956   2.121   3.507   7.716  0.1481  0.6110  0.4391
  196MOL0     C26957   2.031   3.590   7.665  0.0757 -0.1071  1.0331
  196MOL0     O26958   1.734   3.543   7.426  0.0930  0.3792  0.0449
  196MOL0     C26959   1.847   3.852   7.289  0.5553  0.7299 -0.3873
  196MOL0     C26960   1.800   3.971   7.249  0.2395 -0.0878  0.1780
  196MOL0     N26961   1.974   4.126   6.831  0.2489  0.3816 -0.5504
  196MOL0     N26962   2.088   4.064   6.855 -0.7817  0.8232  0.7294
  196MOL0     C26963   3.118   3.722   7.419 -0.5573 -0.4456 -0.1320
  196MOL0     C26964   3.200   3.699   7.537  0.4306 -0.1395 -0.9312
  196MOL0     C26965   3.506   3.507   7.802  0.2970 -0.7081  1.1516
  196MOL0     C26966   3.612   3.412   7.800  0.0456 -0.7619  0.2671
  196MOL0     C26967   3.697   3.404   7.912  0.0692  0.0124 -0.7489
  196MOL0     C26968   3.683   3.491   8.025 -0.5351 -0.1660  0.5902
  196MOL0     O26969   3.760   3.474   8.139 -0.0439 -0.3977 -0.3041
  196MOL0     C26970   3.876   3.386   8.138  0.6878  0.5694  0.4576
  196MOL0     C26971   3.956   3.413   8.270 -0.2826 -0.9081 -0.0985
  196MOL0     C26972   3.991   3.559   8.291 -0.2908 -0.5174  0.5312
  196MOL0     C26973   4.085   3.566   8.402 -0.5085 -0.2195 -0.6305
  196MOL0     C26974   4.076   3.699   8.459  0.0057  0.1827  0.3505
  196MOL0     C26975   4.069   3.810   8.497  0.1810 -1.1960  0.0905
  196MOL0     C26976   3.577   3.592   8.015  0.9380 -0.0453 -0.4916
  196MOL0     C26977   3.485   3.599   7.913 -0.3668 -0.3158  0.6815
  196MOL0     C26978   3.383   3.714   7.918 -0.6086  0.3383  0.6820
  196MOL0     H26979   3.170   3.358   7.570 -2.2734  1.8812  2.2978
  196MOL0     H26980   3.032   3.396   7.361 -3.3602  0.6428 -0.2058
  196MOL0     H26981   2.874   3.746   7.315  2.1452  1.4612  0.1374
  196MOL0     H26982   2.806   3.624   7.208  1.7974 -1.1080 -1.1878
  196MOL0     H26983   2.949   3.881   7.135 -0.8165  0.9463  0.2371
  196MOL0     H26984   2.907   3.771   7.017 -1.8802  0.3721 -0.9395
  196MOL0     H26985   2.752   3.907   7.007  0.4644 -2.0663 -1.6112
  196MOL0     H26986   2.679   3.769   7.057 -0.0662  1.3014 -2.2657
  196MOL0     H26987   2.684   3.872   7.299  1.0280  1.2146  0.7405
  196MOL0     H26988   2.726   4.022   7.227  0.2699 -1.0496 -0.7989
  196MOL0     H26989   2.480   3.994   7.269 -0.1134  0.0287  0.9860
  196MOL0     H26990   2.473   3.852   7.159 -1.4401 -1.2873  2.6110
  196MOL0     H26991   2.535   4.151   7.086 -0.6315  0.4596  0.5190
  196MOL0     H26992   2.556   4.022   6.960  2.8552  1.3502 -0.0345
  196MOL0     H26993   2.305   4.093   7.097  1.1815  3.2411 -0.4985
  196MOL0     H26994   2.324   3.949   7.010 -2.2466  0.4720 -1.5893
  196MOL0     H26995   2.394   4.224   6.888  1.4534 -1.0108  0.4763
  196MOL0     H26996   2.359   4.102   6.787  2.0752  3.9359 -0.2614
  196MOL0     H26997   2.155   4.382   6.909 -2.5845  2.2487 -1.1784
  196MOL0     H26998   1.802   4.315   6.802  0.3321  0.9271 -1.6002
  196MOL0     H26999   1.913   4.452   6.816  1.2069 -1.7795 -2.6930
  196MOL0     H27000   1.908   4.404   7.072 -0.8168 -0.8622  1.4998
  196MOL0     H27001   1.745   4.447   7.009  0.0727  0.3602  0.0720
  196MOL0     H27002   1.702   4.200   6.960 -0.2101  0.0446  0.2236
  196MOL0     H27003   1.844   4.156   7.060  2.3245  1.7263 -2.3027
  196MOL0     H27004   1.777   4.259   7.237  1.4708 -1.6643 -0.5628
  196MOL0     H27005   1.624   4.325   7.165  2.1088  0.8797  0.3398
  196MOL0     H27006   1.469   3.960   7.300 -0.4036 -3.7380 -0.0190
  196MOL0     H27007   1.462   3.656   7.351  2.4362 -1.5726  0.7886
  196MOL0     H27008   1.432   3.795   7.456  1.2150  1.1266  1.1139
  196MOL0     H27009   1.545   3.685   7.508  0.4278 -5.2609 -2.1500
  196MOL0     H27010   1.973   3.431   7.375 -1.1506 -2.4279  1.2518
  196MOL0     H27011   2.147   3.276   7.451 -0.2358  1.1921 -0.7219
  196MOL0     H27012   2.184   3.132   7.664 -0.5810 -0.8460  0.7532
  196MOL0     H27013   2.359   3.161   7.640 -2.2221 -3.3592  0.0118
  196MOL0     H27014   2.195   3.137   7.902 -0.2827  3.6901  0.0700
  196MOL0     H27015   2.290   3.017   7.817 -2.0640 -0.8355 -2.6841
  196MOL0     H27016   2.370   3.255   7.997  0.1479 -0.4460  1.0784
  196MOL0     H27017   2.486   3.204   7.876 -0.7082  2.2242 -0.6217
  196MOL0     H27018   2.553   3.090   8.065  1.9733 -1.3712 -1.5862
  196MOL0     H27019   2.486   2.985   7.937 -2.3247  0.9951 -1.1980
  196MOL0     H27020   2.274   2.951   8.078  0.6429  0.5731 -1.0706
  196MOL0     H27021   2.416   2.917   8.177  2.0196 -0.2033 -2.9022
  196MOL0     H27022   2.262   3.185   8.161  0.7515  0.3750 -1.5875
  196MOL0     H27023   2.403   3.144   8.253 -0.3457  3.0434 -3.3102
  196MOL0     H27024   2.280   2.992   8.398  1.1812 -0.7537 -1.2277
  196MOL0     H27025   2.151   2.968   8.279 -0.0152 -0.3250  0.8730
  196MOL0     H27026   2.056   3.098   8.450 -0.1569 -3.2320 -2.8211
  196MOL0     H27027   2.057   3.177   8.288 -0.5684 -0.1761  0.8866
  196MOL0     H27028   2.166   3.527   7.813  3.2922 -2.0395 -0.2946
  196MOL0     H27029   1.982   3.678   7.705 -1.2804 -0.4258  0.1357
  196MOL0     H27030   1.955   3.839   7.280  0.6862  1.4381  0.0310
  196MOL0     H27031   1.886   4.026   7.211 -0.6903 -0.2703 -2.3498
  196MOL0     H27032   3.100   3.824   7.385 -1.5581  0.5666  3.0920
  196MOL0     H27033   3.240   3.787   7.586 -0.0120  1.3196 -3.0516
  196MOL0     H27034   3.618   3.336   7.723  0.5311 -0.5609  0.1022
  196MOL0     H27035   3.770   3.325   7.902 -0.7628 -0.7210 -1.1536
  196MOL0     H27036   3.849   3.281   8.127  0.9656  0.2738  2.2040
  196MOL0     H27037   3.933   3.409   8.048 -1.6997  2.7100 -0.6185
  196MOL0     H27038   4.049   3.356   8.266  0.2835 -0.2312  2.0442
  196MOL0     H27039   3.892   3.374   8.349 -0.1719 -0.4131  0.2411
  196MOL0     H27040   4.049   3.590   8.204  0.7328  0.1670  1.4260
  196MOL0     H27041   3.902   3.622   8.296  1.0431  1.6440 -1.2548
  196MOL0     H27042   4.186   3.551   8.363  0.3807 -0.5790  1.6937
  196MOL0     H27043   4.053   3.496   8.479 -2.6435  0.8750 -0.4463
  196MOL0     H27044   4.083   3.909   8.535  0.4044 -0.2778 -2.2056
  196MOL0     H27045   3.566   3.662   8.097  1.5637  0.0165 -0.4560
  196MOL0     H27046   3.392   3.778   8.006 -0.1002  0.0209  0.8590
  196MOL0     H27047   3.396   3.761   7.820 -0.6869 -0.7979  0.1089
  196MOL0     H27048   3.280   3.676   7.914 -0.7108  0.7082 -1.6239
  197MOL0     O27049   4.502   1.265  11.197  0.2642 -0.0383  0.7223
  197MOL0     C27050   4.451   1.343  11.280  0.0093  0.4806  0.1425
  197MOL0     O27051   4.454   1.332  11.416  1.2993  0.0922  0.1746
  197MOL0     C27052   4.497   1.219  11.480  0.0402 -0.5498  0.4898
  197MOL0     C27053   4.443   1.214  11.607 -0.0856 -0.1239 -0.1303
  197MOL0     C27054   4.472   1.095  11.678 -0.3329  0.2979  0.0849
  197MOL0     C27055   4.558   0.994  11.628  0.5947 -0.0571 -0.5043
  197MOL0     O27056   4.596   0.881  11.689 -0.3719  0.4810  1.1073
  197MOL0     C27057   4.545   0.846  11.813  0.5168  0.4215  1.0431
  197MOL0     C27058   4.424   0.750  11.805  0.4005  0.0755  0.1289
  197MOL0     C27059   4.460   0.615  11.769  0.1494  0.6297  0.2275
  197MOL0     C27060   4.335   0.525  11.730 -0.2498 -0.0533 -0.0287
  197MOL0     C27061   4.385   0.391  11.686 -0.6982  0.3986  0.3215
  197MOL0     C27062   4.424   0.395  11.535  0.8177  0.5167 -0.8144
  197MOL0     C27063   4.531   0.291  11.495 -1.0183 -0.1245 -0.1964
  197MOL0     C27064   4.505   0.248  11.352 -0.7147  0.6244  0.3085
  197MOL0     N27065   4.502   0.336  11.237 -1.0426  0.0535 -0.1625
  197MOL0     C27066   4.453   0.465  11.232  0.9987  0.0906 -0.3709
  197MOL0     C27067   4.454   0.489  11.096 -1.7743  0.1140 -0.5526
  197MOL0     C27068   4.422   0.611  11.012  0.0237  0.9628  1.5222
  197MOL0     C27069   4.272   0.619  10.974 -0.3161 -0.7525 -0.0417
  197MOL0     C27070   4.169   0.653  11.073 -0.5408  0.3774 -0.7363
  197MOL0     C27071   4.181   0.794  11.139 -0.8098 -0.0932  0.1370
  197MOL0     O27072   4.053   0.831  11.192  0.7482  0.6799  0.4760
  197MOL0     C27073   4.056   0.912  11.300  0.1099  0.9781 -0.2051
  197MOL0     C27074   3.941   0.905  11.381 -0.7671  0.2172 -0.4494
  197MOL0     C27075   3.934   0.997  11.486  0.9826  0.1777 -0.5009
  197MOL0     C27076   3.806   1.007  11.571 -0.7340 -0.0083  0.0051
  197MOL0     C27077   4.035   1.091  11.517 -0.7436 -0.3879  0.1558
  197MOL0     C27078   4.026   1.214  11.593  0.9352  0.5975  0.5494
  197MOL0     O27079   3.917   1.231  11.676  0.6536  0.0100  0.7805
  197MOL0     C27080   3.887   1.346  11.733 -0.2911 -0.1546  0.5555
  197MOL0     C27081   3.971   1.395  11.838 -0.0432  0.5155  0.0686
  197MOL0     C27082   3.949   1.519  11.893 -0.8338  0.2938  0.8403
  197MOL0     C27083   3.835   1.594  11.852 -0.4619  0.2095 -0.0011
  197MOL0     O27084   3.805   1.711  11.917  0.2917 -0.0421  0.2870
  197MOL0     C27085   3.742   1.819  11.847 -0.6343  0.0470 -0.9971
  197MOL0     C27086   3.756   1.951  11.912 -0.7359  0.1395  0.5758
  197MOL0     C27087   3.656   1.977  12.031 -0.4504  0.9882 -0.3757
  197MOL0     C27088   3.663   2.121  12.085  0.6628 -0.3173  0.1364
  197MOL0     C27089   3.533   2.157  12.157 -0.4763  0.0793  0.1194
  197MOL0     C27090   3.527   2.300  12.172 -0.1772 -1.2573 -0.3052
  197MOL0     C27091   3.651   2.353  12.250  1.3431  0.9483 -0.5407
  197MOL0     C27092   3.649   2.496  12.306  0.6841  0.7136 -0.4561
  197MOL0    Cl27093   3.524   2.481  12.437 -0.4707  0.2109 -0.9867
  197MOL0     C27094   3.759   1.550  11.748  0.6170 -0.1727 -0.7180
  197MOL0     C27095   3.780   1.426  11.681  0.1378  0.0438 -1.2658
  197MOL0     O27096   4.096   1.313  11.562 -0.5465  0.2976  0.6640
  197MOL0     C27097   4.155   1.084  11.443 -0.5963  0.5632  0.3354
  197MOL0     C27098   4.160   0.990  11.336  0.1531 -0.8478 -0.4485
  197MOL0     N27099   4.511   0.382  11.030 -0.5671 -0.0990 -0.3109
  197MOL0     N27100   4.541   0.288  11.121  0.1107 -0.4755 -0.4246
  197MOL0     C27101   4.618   1.009  11.508  0.8793 -0.7792  0.8075
  197MOL0     C27102   4.588   1.122  11.433 -1.1826 -0.0530  0.6993
  197MOL0     C27103   4.381   1.457  11.217 -0.4831 -0.5230 -0.9173
  197MOL0     C27104   4.268   1.514  11.293  0.2083 -0.5902  0.7569
  197MOL0     C27105   4.187   1.612  11.239 -0.1927  0.6775 -0.1205
  197MOL0     C27106   4.219   1.662  11.115 -0.1010 -0.2657 -1.1072
  197MOL0     O27107   4.140   1.760  11.064  0.4119 -0.6003  0.7244
  197MOL0     C27108   4.058   1.721  10.947 -0.2870  0.4787 -0.0302
  197MOL0     C27109   4.101   1.815  10.831  0.0185  0.3032 -0.8921
  197MOL0     C27110   4.034   1.795  10.693  0.2823 -0.3559 -0.1076
  197MOL0     C27111   4.036   1.637  10.653  0.3593 -0.5146 -0.0264
  197MOL0     C27112   4.177   1.584  10.660  0.6846  0.6299 -0.9403
  197MOL0     C27113   4.285   1.535  10.694  0.0462 -0.2133  1.1621
  197MOL0     C27114   4.327   1.615  11.041  0.0304 -0.5008 -0.1934
  197MOL0     C27115   4.410   1.501  11.081  0.8323 -0.0680 -0.5354
  197MOL0     C27116   4.521   1.451  10.990  0.3806 -0.6895 -0.5107
  197MOL0     H27117   4.378   1.292  11.646 -0.9236 -1.2970  0.8770
  197MOL0     H27118   4.444   1.087  11.782  1.3939 -0.6151  0.5348
  197MOL0     H27119   4.523   0.931  11.878  0.4498  0.8779  0.4318
  197MOL0     H27120   4.627   0.797  11.866  0.5197  0.1204  0.7647
  197MOL0     H27121   4.377   0.747  11.904 -0.6490 -1.2414 -0.3813
  197MOL0     H27122   4.352   0.791  11.734 -0.0367 -1.3334 -0.2650
  197MOL0     H27123   4.517   0.628  11.676  1.4596  1.4184  1.1128
  197MOL0     H27124   4.521   0.566  11.845 -3.3113  1.3638  3.8121
  197MOL0     H27125   4.263   0.521  11.812 -0.6744  0.9962 -0.3319
  197MOL0     H27126   4.272   0.566  11.651 -5.6473 -2.2312  2.6411
  197MOL0     H27127   4.305   0.319  11.707 -0.8240  0.2881 -0.5042
  197MOL0     H27128   4.467   0.367  11.754 -0.1743 -0.6538 -0.6510
  197MOL0     H27129   4.334   0.395  11.472  1.8366 -0.7150 -2.3445
  197MOL0     H27130   4.471   0.491  11.515  2.4400 -0.0037  0.2921
  197MOL0     H27131   4.520   0.202  11.558 -2.5156 -1.0477 -1.6920
  197MOL0     H27132   4.633   0.331  11.497 -1.1611  0.2744 -0.7691
  197MOL0     H27133   4.564   0.158  11.330 -0.8230  0.7941 -0.7611
  197MOL0     H27134   4.402   0.211  11.354 -0.6816  0.4619 -0.5021
  197MOL0     H27135   4.398   0.525  11.304 -1.4346 -1.8985 -0.4328
  197MOL0     H27136   4.474   0.600  10.917 -4.1401  3.5879 -1.3712
  197MOL0     H27137   4.472   0.697  11.059  2.0139 -0.6253  2.4597
  197MOL0     H27138   4.263   0.702  10.903  4.0631  0.7012  0.7179
  197MOL0     H27139   4.252   0.525  10.922  1.7136 -2.6160  2.2599
  197MOL0     H27140   4.071   0.637  11.027 -1.1794  0.8322  0.4394
  197MOL0     H27141   4.176   0.578  11.153  0.8648 -0.3594 -1.5113
  197MOL0     H27142   4.254   0.788  11.220  0.3332  2.1010 -0.6611
  197MOL0     H27143   4.204   0.873  11.067 -1.9736  1.1102  1.0312
  197MOL0     H27144   3.862   0.832  11.364  1.1367 -2.1355  0.2656
  197MOL0     H27145   3.820   0.998  11.679 -0.0777 -1.5425 -0.1786
  197MOL0     H27146   3.743   0.918  11.562  1.2933 -1.9076  2.8429
  197MOL0     H27147   3.745   1.092  11.539  0.8318  0.5959 -1.5571
  197MOL0     H27148   4.059   1.337  11.863 -2.2145 -1.3604  4.2397
  197MOL0     H27149   4.018   1.566  11.964 -1.6077  0.2147  1.6607
  197MOL0     H27150   3.785   1.833  11.747 -1.6521  1.3788 -1.2626
  197MOL0     H27151   3.640   1.781  11.846 -0.1449 -1.4187  0.2119
  197MOL0     H27152   3.858   1.973  11.945 -0.9198  0.5971  0.8495
  197MOL0     H27153   3.746   2.028  11.835  2.5999 -0.7547 -0.9726
  197MOL0     H27154   3.668   1.908  12.116  2.9239  1.2475 -0.5405
  197MOL0     H27155   3.554   1.959  11.995 -0.2115  1.6520 -1.4272
  197MOL0     H27156   3.675   2.200  12.010 -1.2150 -0.3392 -0.2399
  197MOL0     H27157   3.738   2.129  12.165  1.7308 -0.8763 -0.7794
  197MOL0     H27158   3.445   2.133  12.096 -0.3819 -1.5414  0.5512
  197MOL0     H27159   3.530   2.095  12.248  1.6901 -0.4038 -0.0893
  197MOL0     H27160   3.437   2.335  12.224  0.5767  1.9891 -0.9380
  197MOL0     H27161   3.531   2.343  12.071  2.4622 -2.2150 -0.6815
  197MOL0     H27162   3.747   2.329  12.203  1.0440  0.3108 -0.8421
  197MOL0     H27163   3.643   2.295  12.342 -3.5207 -1.8952 -2.3807
  197MOL0     H27164   3.621   2.573  12.233  2.4591  3.2828  1.4280
  197MOL0     H27165   3.743   2.529  12.349 -0.1512  1.1755  1.0888
  197MOL0     H27166   3.681   1.616  11.711  0.3870  0.9601  1.5836
  197MOL0     H27167   3.728   1.388  11.594  2.2440 -3.4427 -1.2189
  197MOL0     H27168   4.232   1.155  11.469  2.6341 -3.4084  2.8862
  197MOL0     H27169   4.256   0.992  11.287  0.7889 -1.5692  0.7195
  197MOL0     H27170   4.688   0.928  11.487  1.3527 -0.1017 -0.2981
  197MOL0     H27171   4.636   1.127  11.336  1.7543 -0.5374  2.0073
  197MOL0     H27172   4.230   1.469  11.384 -3.2941 -1.5657 -1.0311
  197MOL0     H27173   4.094   1.640  11.288 -1.0501 -1.4164 -0.4360
  197MOL0     H27174   4.065   1.612  10.936 -1.1457 -0.2425  4.6459
  197MOL0     H27175   3.957   1.751  10.975  0.1540  2.3735 -0.3573
  197MOL0     H27176   4.208   1.830  10.816 -0.0209  1.9914  0.1835
  197MOL0     H27177   4.077   1.919  10.858  0.3530  0.6301 -1.8481
  197MOL0     H27178   3.931   1.820  10.718 -0.3281 -2.1003 -0.7329
  197MOL0     H27179   4.061   1.850  10.603 -0.6474 -2.3737 -1.6887
  197MOL0     H27180   3.988   1.618  10.556  0.0353  1.8647 -0.4120
  197MOL0     H27181   3.976   1.576  10.720 -1.7262  0.9271 -0.4619
  197MOL0     H27182   4.380   1.489  10.711  0.3447 -0.1013 -0.1342
  197MOL0     H27183   4.352   1.683  10.961 -0.6279  0.0838  0.0923
  197MOL0     H27184   4.613   1.454  11.050  0.3539 -2.5893 -0.3170
  197MOL0     H27185   4.485   1.354  10.954  2.9150 -1.6553 -0.6880
  197MOL0     H27186   4.535   1.526  10.912 -0.4652  1.2998  1.1420
  198MOL0     O27187   0.487   5.308  10.313  0.5555 -0.0787  0.3053
  198MOL0     C27188   0.402   5.304  10.405  0.0013  0.1215  0.0525
  198MOL0     O27189   0.307   5.208  10.420 -1.3056  0.4174  0.1955
  198MOL0     C27190   0.256   5.143  10.314 -0.3701  0.7258  0.3111
  198MOL0     C27191   0.240   5.200  10.188 -0.5175 -0.3206  0.1628
  198MOL0     C27192   0.191   5.134  10.079  0.5266  0.3278 -0.0558
  198MOL0     C27193   0.163   4.998  10.090 -0.2989  0.1524 -0.2341
  198MOL0     O27194   0.117   4.927   9.982 -0.9586  0.4705 -0.2530
  198MOL0     C27195   0.224   4.897   9.889 -0.1667  0.5681  0.6001
  198MOL0     C27196   0.165   4.795   9.798  0.5172 -0.7469 -1.3256
  198MOL0     C27197   0.271   4.764   9.693 -0.1638  0.2044  0.6623
  198MOL0     C27198   0.394   4.680   9.735  0.5965  0.7837 -1.5802
  198MOL0     C27199   0.475   4.635   9.613 -0.3234 -0.9500  0.0330
  198MOL0     C27200   0.599   4.727   9.611  0.6846 -1.1299 -0.5201
  198MOL0     C27201   0.681   4.697   9.485  0.5116 -0.3146 -0.4536
  198MOL0     C27202   0.612   4.696   9.356  0.5694  0.0193 -0.7914
  198MOL0     N27203   0.525   4.806   9.334 -0.3889 -0.7981 -0.8588
  198MOL0     C27204   0.388   4.821   9.312 -0.8166 -0.7866  0.3258
  198MOL0     C27205   0.360   4.952   9.309 -0.4521  0.3473  1.0997
  198MOL0     C27206   0.225   5.013   9.261  0.3079 -0.2317 -0.4054
  198MOL0     C27207   0.188   4.970   9.125  0.3082  0.7697  0.4072
  198MOL0     C27208   0.067   5.023   9.052 -0.3515  0.0720 -0.3848
  198MOL0     C27209   0.108   5.071   8.907 -0.0288  0.6248  0.1952
  198MOL0     O27210   0.219   5.160   8.923 -0.2808  0.4697 -0.2420
  198MOL0     C27211   0.271   5.232   8.819 -0.5306  0.1455  0.3460
  198MOL0     C27212   0.279   5.183   8.683  0.0881 -0.4081 -0.1737
  198MOL0     C27213   0.348   5.250   8.582  0.1484  0.2410  0.4497
  198MOL0     C27214   0.335   5.191   8.441 -0.2112  0.0654  0.3442
  198MOL0     C27215   0.400   5.376   8.603  0.5187  0.6129 -0.2474
  198MOL0     C27216   0.473   5.455   8.495 -0.5134 -0.1691 -1.0137
  198MOL0     O27217   0.514   5.580   8.541 -0.2993  0.0469 -0.1881
  198MOL0     C27218   0.578   5.668   8.454  0.2180  0.1488 -0.0334
  198MOL0     C27219   0.519   5.713   8.336  0.3628  1.2077 -0.1123
  198MOL0     C27220   0.592   5.805   8.257 -0.5093 -0.6538  0.2643
  198MOL0     C27221   0.731   5.845   8.291 -0.4155 -0.1609  0.1164
  198MOL0     O27222   0.813   5.918   8.210  0.8246  0.9867  0.0972
  198MOL0     C27223   0.771   5.989   8.092  0.1334  1.3168  0.1665
  198MOL0     C27224   0.902   6.017   8.006  0.3189  0.1046  0.0015
  198MOL0     C27225   0.925   5.896   7.910  1.0043 -0.1108 -0.7394
  198MOL0     C27226   1.014   5.940   7.795  0.6410 -0.1823 -0.5948
  198MOL0     C27227   1.061   5.841   7.693 -0.3110  0.2321  0.1962
  198MOL0     C27228   0.952   5.802   7.592 -0.1882 -0.4141  0.9972
  198MOL0     C27229   1.006   5.703   7.493 -0.1355  0.3213 -0.1391
  198MOL0     C27230   0.893   5.604   7.460  0.7196 -1.5545 -0.0969
  198MOL0    Cl27231   0.918   5.509   7.312 -0.7513 -0.6216  0.1957
  198MOL0     C27232   0.785   5.792   8.405  0.4115 -0.3473  0.0643
  198MOL0     C27233   0.705   5.716   8.498 -0.4342 -0.2624  0.3071
  198MOL0     O27234   0.496   5.409   8.381  0.2105  0.1354  0.4465
  198MOL0     C27235   0.383   5.433   8.735 -0.2824  1.2428 -0.9266
  198MOL0     C27236   0.326   5.356   8.835 -1.1879 -0.2812  0.4566
  198MOL0     N27237   0.477   5.022   9.340 -0.3724  0.2065  0.2606
  198MOL0     N27238   0.577   4.940   9.341  0.7677  0.9335 -1.5402
  198MOL0     C27239   0.165   4.944  10.213  0.2958  0.2599 -0.7431
  198MOL0     C27240   0.205   5.012  10.332 -0.8070  0.5135  0.2430
  198MOL0     C27241   0.435   5.400  10.523  0.8043 -0.0952 -1.0704
  198MOL0     C27242   0.334   5.397  10.630  0.1673 -0.7511  0.3049
  198MOL0     C27243   0.343   5.472  10.742 -1.0520 -0.6852 -0.1155
  198MOL0     C27244   0.450   5.564  10.758  0.8928 -0.1814  0.4742
  198MOL0     O27245   0.470   5.639  10.864 -0.2265  0.3792 -0.2718
  198MOL0     C27246   0.362   5.651  10.965  0.8760  0.1264  0.5831
  198MOL0     C27247   0.398   5.764  11.064  0.3246 -0.2084 -0.4375
  198MOL0     C27248   0.353   5.904  11.013 -1.4739 -0.3695 -0.3145
  198MOL0     C27249   0.419   6.036  11.064 -0.4750  0.1690  0.5309
  198MOL0     C27250   0.342   6.144  11.006 -0.3402  0.3169 -0.3121
  198MOL0     C27251   0.273   6.235  10.973  0.0180 -0.1220  0.7257
  198MOL0     C27252   0.552   5.562  10.662 -0.8777  0.2371 -0.0365
  198MOL0     C27253   0.537   5.493  10.541 -0.1588  1.3239 -0.5518
  198MOL0     C27254   0.641   5.511  10.438 -0.2218  0.1126  0.9675
  198MOL0     H27255   0.277   5.302  10.177  2.0863 -1.2350 -0.5062
  198MOL0     H27256   0.186   5.177   9.980  0.9677 -3.7394 -2.0775
  198MOL0     H27257   0.313   4.859   9.941  1.1344  1.5554 -0.8165
  198MOL0     H27258   0.260   4.979   9.826 -2.8940  1.4525  0.0789
  198MOL0     H27259   0.151   4.706   9.861  4.1620  0.0621  0.9022
  198MOL0     H27260   0.072   4.838   9.761  1.1303  2.0233  0.0731
  198MOL0     H27261   0.212   4.716   9.615  0.9760  0.4050 -0.3517
  198MOL0     H27262   0.309   4.849   9.636 -3.0237  1.1440 -0.0207
  198MOL0     H27263   0.457   4.732   9.808 -2.9999 -1.0086  3.3213
  198MOL0     H27264   0.352   4.599   9.794 -1.3655  1.0071 -2.5937
  198MOL0     H27265   0.414   4.640   9.523  0.4940  0.8702 -0.4666
  198MOL0     H27266   0.502   4.530   9.630 -0.3710 -1.8133 -4.1991
  198MOL0     H27267   0.568   4.832   9.614  1.8291 -0.7371 -1.6055
  198MOL0     H27268   0.652   4.708   9.704 -0.1866  1.8375  0.7115
  198MOL0     H27269   0.720   4.596   9.500  0.0012 -0.2371  1.6735
  198MOL0     H27270   0.764   4.766   9.470 -1.0307  1.6556 -0.4201
  198MOL0     H27271   0.695   4.687   9.285  3.0919 -6.1154  2.2274
  198MOL0     H27272   0.547   4.609   9.347 -2.0272  1.7797 -0.1146
  198MOL0     H27273   0.322   4.738   9.291 -1.8850 -0.5696  2.4902
  198MOL0     H27274   0.226   5.123   9.263 -2.2085 -0.1739  0.1145
  198MOL0     H27275   0.142   4.997   9.330  0.8943 -0.7811  0.1928
  198MOL0     H27276   0.282   4.982   9.071  1.1909 -0.8586  1.4901
  198MOL0     H27277   0.174   4.862   9.121 -1.8386  0.9109  2.1517
  198MOL0     H27278  -0.018   4.954   9.050 -2.2312  1.9158  4.0905
  198MOL0     H27279   0.038   5.115   9.103  0.4465 -0.0444  0.3040
  198MOL0     H27280   0.145   4.980   8.857  0.8007 -0.1199  2.0733
  198MOL0     H27281   0.032   5.122   8.847  1.5787  1.6484 -1.0537
  198MOL0     H27282   0.220   5.097   8.654 -2.4271  1.7233 -1.7035
  198MOL0     H27283   0.310   5.278   8.380  2.8338 -0.2334 -1.5555
  198MOL0     H27284   0.252   5.120   8.433 -0.0061 -0.3100  1.3892
  198MOL0     H27285   0.434   5.157   8.408 -1.3499 -0.5078 -2.8295
  198MOL0     H27286   0.414   5.690   8.321 -0.1123  2.3318  1.2312
  198MOL0     H27287   0.545   5.836   8.164  0.7873 -0.3695 -0.3136
  198MOL0     H27288   0.699   5.929   8.037  0.4317  1.8773 -0.8500
  198MOL0     H27289   0.725   6.083   8.123 -1.6189  1.2447 -1.9956
  198MOL0     H27290   0.881   6.102   7.942  0.5594 -1.2310 -1.9274
  198MOL0     H27291   0.985   6.046   8.071 -0.0930  1.3394 -0.0025
  198MOL0     H27292   0.825   5.868   7.875 -0.2694  4.1279 -1.0304
  198MOL0     H27293   0.968   5.807   7.958  1.0351  0.8026  0.9955
  198MOL0     H27294   1.103   5.981   7.844  1.4459 -2.3683 -0.1181
  198MOL0     H27295   0.973   6.026   7.740 -1.0427 -1.4753 -1.4526
  198MOL0     H27296   1.148   5.888   7.646  0.1560  2.0362  2.6634
  198MOL0     H27297   1.093   5.752   7.748  0.9406 -0.9151 -2.2466
  198MOL0     H27298   0.903   5.889   7.548 -1.6577  0.0092  3.3243
  198MOL0     H27299   0.878   5.751   7.655 -0.5736 -0.8219  0.2273
  198MOL0     H27300   1.089   5.651   7.543  1.7712  1.2837 -2.0875
  198MOL0     H27301   1.050   5.747   7.402  1.4981 -0.2400  0.3367
  198MOL0     H27302   0.796   5.653   7.456  0.4794 -2.0773 -2.0306
  198MOL0     H27303   0.884   5.541   7.549  0.6250 -2.4443 -0.7213
  198MOL0     H27304   0.883   5.830   8.428  1.4632  0.6809 -4.8735
  198MOL0     H27305   0.753   5.676   8.587  0.3899  1.6722  0.7744
  198MOL0     H27306   0.416   5.534   8.759  0.9026  1.0508 -1.6953
  198MOL0     H27307   0.318   5.394   8.936  1.3893 -0.9989  1.0059
  198MOL0     H27308   0.151   4.836  10.211 -4.1240  0.6396  0.2931
  198MOL0     H27309   0.245   4.956  10.416  3.4192  1.5265 -0.8660
  198MOL0     H27310   0.246   5.334  10.630 -1.6592  1.6326  2.1730
  198MOL0     H27311   0.267   5.462  10.819 -0.7876  1.1025  0.4318
  198MOL0     H27312   0.264   5.666  10.918  1.4380  2.8593  0.0883
  198MOL0     H27313   0.364   5.549  11.003  0.1948 -1.0164 -2.1997
  198MOL0     H27314   0.506   5.753  11.081  0.5662  0.0140 -1.7637
  198MOL0     H27315   0.350   5.745  11.161  1.0466 -0.3491 -0.0979
  198MOL0     H27316   0.358   5.903  10.903 -2.2605 -2.3323 -0.3827
  198MOL0     H27317   0.244   5.911  11.019 -1.8340 -2.4471 -2.5765
  198MOL0     H27318   0.523   6.032  11.028 -0.9742 -2.1392 -0.8367
  198MOL0     H27319   0.414   6.043  11.173  1.5858 -1.0559  0.7699
  198MOL0     H27320   0.207   6.312  10.939 -0.6191 -1.1376 -0.4195
  198MOL0     H27321   0.650   5.608  10.670 -0.2071 -0.9134 -1.2941
  198MOL0     H27322   0.599   5.532  10.339  0.6335  0.1232  0.6009
  198MOL0     H27323   0.725   5.577  10.460  0.4662 -0.8272  1.1720
  198MOL0     H27324   0.692   5.416  10.422  1.5703  1.0788  0.7738
  199MOL0     O27325   6.644   8.311   0.186 -0.2958  0.1681  0.0388
  199MOL0     C27326   6.723   8.331   0.094  0.1423 -0.5297 -0.9877
  199MOL0     O27327   6.694   8.320  -0.045 -0.0358 -0.2200 -0.2788
  199MOL0     C27328   6.581   8.265  -0.093  0.2822 -0.0651 -0.6171
  199MOL0     C27329   6.529   8.145  -0.049 -0.4326 -0.7812  0.5011
  199MOL0     C27330   6.422   8.084  -0.104 -0.5311  0.0732  0.7867
  199MOL0     C27331   6.368   8.138  -0.219  1.0063  0.1687 -0.0305
  199MOL0     O27332   6.260   8.084  -0.286  0.5243  0.5466  0.6710
  199MOL0     C27333   6.187   7.972  -0.220  0.4556 -0.0602  0.9937
  199MOL0     C27334   6.043   7.954  -0.289  0.7301 -0.0062  0.4290
  199MOL0     C27335   5.932   7.902  -0.193  1.3241 -0.0920  0.4278
  199MOL0     C27336   5.809   7.852  -0.272 -0.1961  0.4291  0.6232
  199MOL0     C27337   5.784   7.711  -0.225 -0.0573  0.3418 -0.2379
  199MOL0     C27338   5.646   7.672  -0.293 -0.0050  0.0259 -0.8349
  199MOL0     C27339   5.640   7.626  -0.433  0.6517 -0.6093 -0.3594
  199MOL0     C27340   5.500   7.601  -0.479 -0.0251 -0.2696  0.1275
  199MOL0     N27341   5.418   7.712  -0.461  0.2964  0.2343  0.3999
  199MOL0     C27342   5.443   7.843  -0.497 -0.0170 -0.5249  0.5161
  199MOL0     C27343   5.347   7.914  -0.435  0.3278  1.0032  0.0471
  199MOL0     C27344   5.348   8.067  -0.444  0.2734 -0.5017 -0.0069
  199MOL0     C27345   5.381   8.150  -0.320  0.8390  0.3943  0.4314
  199MOL0     C27346   5.315   8.103  -0.193  0.0920  0.0883 -0.1984
  199MOL0     C27347   5.168   8.127  -0.185 -0.3316 -0.0230  1.0438
  199MOL0     O27348   5.133   8.271  -0.185  0.5177  0.5894  0.4455
  199MOL0     C27349   5.177   8.354  -0.091  0.9474 -0.4857  0.1471
  199MOL0     C27350   5.191   8.492  -0.129  0.5895 -0.4256  0.5362
  199MOL0     C27351   5.207   8.596  -0.032  0.4951 -0.5483 -0.1108
  199MOL0     C27352   5.230   8.738  -0.080 -0.2974 -0.0530  0.3398
  199MOL0     C27353   5.208   8.557   0.097 -0.6200  0.3899 -0.9475
  199MOL0     C27354   5.243   8.636   0.207  0.1944  0.0880 -0.3129
  199MOL0     O27355   5.329   8.588   0.295 -0.6179 -1.0531 -0.3428
  199MOL0     C27356   5.348   8.672   0.406  0.2446  0.3294 -0.2757
  199MOL0     C27357   5.412   8.799   0.399  0.0449  0.1042 -0.3270
  199MOL0     C27358   5.439   8.872   0.519 -0.1583 -0.0467 -0.6660
  199MOL0     C27359   5.405   8.823   0.650  0.5390 -0.3962 -0.0219
  199MOL0     O27360   5.421   8.907   0.751 -0.3224  0.0845 -0.6361
  199MOL0     C27361   5.364   8.853   0.874  0.2382 -0.6728 -0.1911
  199MOL0     C27362   5.420   8.934   0.998  0.1339 -0.2423 -0.8592
  199MOL0     C27363   5.574   8.927   1.014 -0.2124 -0.1651 -0.1673
  199MOL0     C27364   5.625   8.780   1.032 -0.1531 -0.1243  0.4791
  199MOL0     C27365   5.715   8.746   0.915  0.0220  0.1785 -0.7305
  199MOL0     C27366   5.850   8.813   0.933 -0.5301 -0.2602 -0.2296
  199MOL0     C27367   5.954   8.747   0.837 -0.3558 -0.6744  0.0751
  199MOL0     C27368   5.935   8.778   0.685  0.0639 -0.3367 -0.8994
  199MOL0    Cl27369   5.936   8.959   0.635  0.3656 -0.0066 -0.4738
  199MOL0     C27370   5.357   8.688   0.642  0.4744  0.7703  0.5322
  199MOL0     C27371   5.335   8.615   0.525 -0.5744  0.7125 -0.9578
  199MOL0     O27372   5.185   8.744   0.224 -0.5670 -0.5606 -0.1927
  199MOL0     C27373   5.198   8.422   0.142  0.0297 -0.5033  0.5912
  199MOL0     C27374   5.187   8.322   0.045 -0.7835 -0.3093  0.1067
  199MOL0     N27375   5.254   7.832  -0.371 -0.0085  0.0446 -0.6887
  199MOL0     N27376   5.304   7.716  -0.389 -0.5806  0.1432 -0.3821
  199MOL0     C27377   6.420   8.255  -0.271 -0.8600  0.8286 -0.0870
  199MOL0     C27378   6.528   8.315  -0.210 -0.2429  0.3992 -0.2168
  199MOL0     C27379   6.857   8.377   0.143 -0.1711 -0.3411  0.1725
  199MOL0     C27380   6.940   8.446   0.054  0.4618 -0.0115  0.7808
  199MOL0     C27381   7.037   8.530   0.116  0.3780 -0.3215  0.0585
  199MOL0     C27382   7.081   8.512   0.245 -0.1249 -0.4207  0.0200
  199MOL0     O27383   7.188   8.573   0.304 -0.7629 -0.3764  1.2964
  199MOL0     C27384   7.318   8.528   0.246  0.4042 -0.3905 -0.2117
  199MOL0     C27385   7.431   8.541   0.352 -0.4771  0.1905 -0.6679
  199MOL0     C27386   7.564   8.503   0.280  1.2418 -1.7364  0.3164
  199MOL0     C27387   7.574   8.362   0.243  0.4489 -0.8491  0.5825
  199MOL0     C27388   7.558   8.273   0.357  0.5603 -0.4241  0.7815
  199MOL0     C27389   7.533   8.207   0.451 -0.2196 -0.9559 -0.3734
  199MOL0     C27390   7.025   8.409   0.318  0.4765  0.0264 -0.4679
  199MOL0     C27391   6.912   8.344   0.269  0.8543  0.1658 -0.9035
  199MOL0     C27392   6.859   8.230   0.356  0.0134 -0.0464 -0.1576
  199MOL0     H27393   6.575   8.096   0.037  2.9496  1.3406  0.0817
  199MOL0     H27394   6.387   7.991  -0.061  0.5062 -0.3994  0.6472
  199MOL0     H27395   6.173   7.978  -0.112  1.7581 -0.2100  1.1776
  199MOL0     H27396   6.240   7.877  -0.230 -0.0736 -0.3883  1.2038
  199MOL0     H27397   6.016   8.057  -0.316  2.2735  1.0555  2.6863
  199MOL0     H27398   6.059   7.901  -0.384 -4.2932 -1.5360  0.1373
  199MOL0     H27399   5.976   7.827  -0.127 -0.3355 -1.7305 -0.2548
  199MOL0     H27400   5.890   7.981  -0.130 -3.4129  0.8572 -3.2991
  199MOL0     H27401   5.726   7.920  -0.251 -0.9924 -0.4284  0.3292
  199MOL0     H27402   5.833   7.839  -0.378 -1.0089  0.5333  0.4215
  199MOL0     H27403   5.778   7.708  -0.116  2.9297  0.5521 -0.0077
  199MOL0     H27404   5.869   7.644  -0.239  1.2883  1.6401  1.2963
  199MOL0     H27405   5.622   7.581  -0.237  1.0105 -0.5781 -1.3502
  199MOL0     H27406   5.569   7.744  -0.263 -0.7548 -1.2960  0.5346
  199MOL0     H27407   5.701   7.540  -0.462  0.4150 -0.7706 -0.3753
  199MOL0     H27408   5.672   7.717  -0.484  0.6332 -1.0142 -1.1102
  199MOL0     H27409   5.495   7.570  -0.584  0.2124  0.2760 -0.0515
  199MOL0     H27410   5.450   7.521  -0.425 -1.0250  0.1623 -0.1245
  199MOL0     H27411   5.526   7.881  -0.555  1.6835 -1.3130  2.3351
  199MOL0     H27412   5.248   8.097  -0.476 -0.7563  3.2888  5.4417
  199MOL0     H27413   5.424   8.096  -0.517  0.9717 -0.6537  0.6553
  199MOL0     H27414   5.484   8.127  -0.295  0.0777 -4.0423  0.1607
  199MOL0     H27415   5.363   8.256  -0.343 -0.8520  0.0652  0.0529
  199MOL0     H27416   5.346   8.003  -0.162 -1.9544 -0.8352 -0.9893
  199MOL0     H27417   5.355   8.166  -0.113 -0.6720 -2.4287  2.3452
  199MOL0     H27418   5.121   8.087  -0.276 -1.8983  1.0579  1.3413
  199MOL0     H27419   5.120   8.075  -0.102 -2.0673  1.0447  0.7669
  199MOL0     H27420   5.180   8.514  -0.235  2.0913  3.0172  0.9658
  199MOL0     H27421   5.152   8.798  -0.032 -1.0012 -2.5358  2.5781
  199MOL0     H27422   5.238   8.735  -0.189 -0.6499  0.7311  0.2846
  199MOL0     H27423   5.324   8.777  -0.041 -0.4410  2.1001 -1.3037
  199MOL0     H27424   5.438   8.856   0.310  1.0091  1.5772  0.8580
  199MOL0     H27425   5.491   8.968   0.517  0.8861 -0.5140  1.4016
  199MOL0     H27426   5.256   8.866   0.863  0.2633  0.0991  0.3251
  199MOL0     H27427   5.380   8.747   0.897 -1.4078 -0.9050  0.0707
  199MOL0     H27428   5.404   9.042   0.993  2.6117  0.1823 -0.9850
  199MOL0     H27429   5.365   8.894   1.083  0.1360 -1.9499 -1.6325
  199MOL0     H27430   5.602   8.981   1.106  0.1068 -5.0229  2.9489
  199MOL0     H27431   5.611   8.981   0.927 -2.3986 -0.7204 -1.5253
  199MOL0     H27432   5.552   8.701   1.049 -0.0560 -1.0932 -2.8470
  199MOL0     H27433   5.676   8.774   1.129 -1.8772 -0.8811  1.3750
  199MOL0     H27434   5.727   8.638   0.907 -0.4898  0.1793 -1.5922
  199MOL0     H27435   5.662   8.765   0.821 -1.5392 -0.7977 -0.0987
  199MOL0     H27436   5.884   8.811   1.037  1.9873 -1.8137 -0.9841
  199MOL0     H27437   5.843   8.920   0.911  0.2404  0.0707  1.0293
  199MOL0     H27438   5.938   8.639   0.849 -0.1107 -0.9433 -1.7876
  199MOL0     H27439   6.057   8.765   0.867 -0.7015  1.9231 -0.0393
  199MOL0     H27440   5.851   8.715   0.653 -0.3447 -2.2955  3.3430
  199MOL0     H27441   6.016   8.732   0.628  1.1552  2.8706 -2.1668
  199MOL0     H27442   5.346   8.635   0.736 -1.6157  0.7359  0.3318
  199MOL0     H27443   5.304   8.512   0.540 -1.9067  1.4102  1.8834
  199MOL0     H27444   5.202   8.390   0.245  1.1787 -0.6023  0.5293
  199MOL0     H27445   5.196   8.218   0.074  2.3397 -0.3236 -0.5283
  199MOL0     H27446   6.391   8.293  -0.368  1.3074  2.9771  0.0086
  199MOL0     H27447   6.580   8.398  -0.257  0.4557  1.4291  2.2211
  199MOL0     H27448   6.916   8.444  -0.052 -3.4045 -1.0484  1.5277
  199MOL0     H27449   7.104   8.601   0.068  2.3644 -0.3481  2.5873
  199MOL0     H27450   7.312   8.422   0.220  3.9019 -0.3991 -1.5399
  199MOL0     H27451   7.343   8.567   0.147 -1.2017 -0.6812 -0.7598
  199MOL0     H27452   7.430   8.483   0.445  2.1375  0.6258 -0.2728
  199MOL0     H27453   7.439   8.648   0.374 -2.9185  0.3618 -0.3682
  199MOL0     H27454   7.558   8.562   0.188  1.5998 -0.6409  0.9828
  199MOL0     H27455   7.651   8.529   0.341  2.5540 -3.5480 -0.6603
  199MOL0     H27456   7.673   8.350   0.199  0.2659 -0.3671  0.0361
  199MOL0     H27457   7.508   8.332   0.161 -1.1218  2.1130  0.6235
  199MOL0     H27458   7.509   8.146   0.536 -0.5762 -0.2642  0.0307
  199MOL0     H27459   7.061   8.389   0.418  0.3926  0.2446 -0.3925
  199MOL0     H27460   6.933   8.196   0.429 -0.8549  1.2129  1.3791
  199MOL0     H27461   6.772   8.270   0.410  0.2379 -1.9402  1.7490
  199MOL0     H27462   6.812   8.150   0.297 -1.3619  0.6067  0.0123
  200MOL0     O27463   7.317   2.686   0.561  0.7932 -0.7042 -0.3606
  200MOL0     C27464   7.295   2.664   0.447  0.8482  0.9883  0.3930
  200MOL0     O27465   7.384   2.612   0.353 -0.4549 -0.0971 -0.2509
  200MOL0     C27466   7.485   2.526   0.396  0.1520 -0.2139  0.1160
  200MOL0     C27467   7.518   2.485   0.522  0.0076  0.3753 -0.5438
  200MOL0     C27468   7.632   2.411   0.554 -0.9512 -0.4881  1.2217
  200MOL0     C27469   7.723   2.386   0.449 -1.2586  0.3310  0.1432
  200MOL0     O27470   7.839   2.297   0.460 -0.1869 -0.4465 -0.1025
  200MOL0     C27471   7.909   2.317   0.586  0.6297 -0.6039  0.6117
  200MOL0     C27472   8.057   2.305   0.565 -0.6752 -0.4002 -0.1015
  200MOL0     C27473   8.139   2.293   0.701  0.1365  0.7434 -0.9193
  200MOL0     C27474   8.264   2.205   0.689  0.0218 -1.2823  0.4393
  200MOL0     C27475   8.383   2.271   0.638  0.0153 -0.4105 -0.7107
  200MOL0     C27476   8.371   2.349   0.507  0.1857  0.2298  0.8550
  200MOL0     C27477   8.362   2.246   0.395 -0.2398  1.0892  0.2281
  200MOL0     C27478   8.271   2.280   0.279  0.4700 -0.3826 -0.1425
  200MOL0     N27479   8.291   2.421   0.225 -0.3315 -0.3504  0.1610
  200MOL0     C27480   8.337   2.446   0.103  0.3474 -0.0913  1.0296
  200MOL0     C27481   8.302   2.567   0.079  0.6794 -0.2178  0.0534
  200MOL0     C27482   8.294   2.637  -0.046  0.1503  0.0138  0.0412
  200MOL0     C27483   8.145   2.631  -0.090 -0.8305 -0.3228  0.5466
  200MOL0     C27484   8.110   2.684  -0.231 -0.6560 -0.5428  0.1202
  200MOL0     C27485   8.081   2.841  -0.225 -0.1308 -0.7052  0.5139
  200MOL0     O27486   8.089   2.899  -0.359  0.1119 -0.0465  0.5418
  200MOL0     C27487   8.029   3.023  -0.359  0.6407 -0.7593  0.4472
  200MOL0     C27488   7.891   3.038  -0.374 -0.0631 -0.6425 -0.6901
  200MOL0     C27489   7.832   3.167  -0.378 -0.3715  0.0652 -0.9271
  200MOL0     C27490   7.679   3.172  -0.393 -0.4433  0.6221  0.6419
  200MOL0     C27491   7.908   3.288  -0.379 -0.5717 -0.2425  0.5980
  200MOL0     C27492   7.864   3.423  -0.372 -0.6719  0.0731  0.3582
  200MOL0     O27493   7.945   3.526  -0.427 -0.5282  0.6527  0.9044
  200MOL0     C27494   7.902   3.661  -0.427  0.5810  0.9114 -0.0930
  200MOL0     C27495   7.800   3.706  -0.509  0.0777  0.0821 -0.2102
  200MOL0     C27496   7.769   3.843  -0.517  0.3449  1.1845 -0.0736
  200MOL0     C27497   7.844   3.941  -0.443 -0.1944  0.2090 -0.2079
  200MOL0     O27498   7.813   4.077  -0.436  0.4573  0.1135  0.0853
  200MOL0     C27499   7.748   4.156  -0.535  0.5476  0.4742  0.4335
  200MOL0     C27500   7.597   4.158  -0.518  0.2322 -0.1438  0.3210
  200MOL0     C27501   7.565   4.219  -0.373  0.9140  0.3096  0.3457
  200MOL0     C27502   7.420   4.221  -0.356  0.8779 -0.6082 -0.0895
  200MOL0     C27503   7.364   4.304  -0.240 -0.4727 -0.0922 -0.1195
  200MOL0     C27504   7.222   4.281  -0.191 -0.2088  0.1415 -0.1590
  200MOL0     C27505   7.224   4.168  -0.085 -0.2149 -0.5130  1.5891
  200MOL0     C27506   7.254   4.208   0.057 -0.3622  0.3122  0.3286
  200MOL0    Cl27507   7.277   4.083   0.172  0.3440  0.0432  0.1916
  200MOL0     C27508   7.941   3.894  -0.353  0.1742 -0.3752  0.0239
  200MOL0     C27509   7.973   3.754  -0.352  0.3876 -0.6983  0.3779
  200MOL0     O27510   7.767   3.452  -0.309  0.4111  0.4636 -0.4752
  200MOL0     C27511   8.052   3.268  -0.377  0.1365  0.7540  0.4021
  200MOL0     C27512   8.102   3.139  -0.371 -0.3567 -0.0011  0.3128
  200MOL0     N27513   8.229   2.621   0.190 -0.3430 -0.9123  0.2729
  200MOL0     N27514   8.228   2.528   0.281  0.6101 -1.1908 -0.6299
  200MOL0     C27515   7.680   2.416   0.317 -0.3784 -0.0072 -0.6295
  200MOL0     C27516   7.563   2.488   0.296  0.4878  0.7481  0.4462
  200MOL0     C27517   7.163   2.705   0.381  0.2612 -0.6656  0.2176
  200MOL0     C27518   7.156   2.698   0.240  0.4110  0.5906  0.6862
  200MOL0     C27519   7.033   2.732   0.166 -1.5272 -0.2893  0.2063
  200MOL0     C27520   6.925   2.768   0.236 -0.1220 -0.1825  0.5792
  200MOL0     O27521   6.803   2.810   0.186 -0.1877 -1.0016 -0.9965
  200MOL0     C27522   6.807   2.901   0.069 -0.9084  0.1033 -0.1851
  200MOL0     C27523   6.674   2.976   0.049 -0.2678 -0.5807 -0.3389
  200MOL0     C27524   6.575   2.905  -0.055 -0.5627  0.6075 -0.7704
  200MOL0     C27525   6.507   2.775   0.006 -0.3576 -0.7217 -0.6618
  200MOL0     C27526   6.455   2.693  -0.107  0.2061 -0.2669 -0.2224
  200MOL0     C27527   6.419   2.633  -0.208  0.3601  0.2769  0.1140
  200MOL0     C27528   6.920   2.772   0.376 -0.5641  0.4576  0.5539
  200MOL0     C27529   7.042   2.738   0.447  0.9836 -0.2415  0.9867
  200MOL0     C27530   7.021   2.741   0.600 -0.3112 -0.0010  0.3349
  200MOL0     H27531   7.458   2.499   0.611 -1.1133  0.2038 -1.2556
  200MOL0     H27532   7.664   2.384   0.654  0.4461  0.1206  0.9576
  200MOL0     H27533   7.877   2.233   0.649  2.4900 -3.1598 -1.5913
  200MOL0     H27534   7.880   2.414   0.626  1.9854  0.3163 -0.5733
  200MOL0     H27535   8.068   2.213   0.506  1.0554 -2.0699  2.6083
  200MOL0     H27536   8.089   2.385   0.496 -2.9725 -1.2937 -2.3452
  200MOL0     H27537   8.175   2.388   0.742  0.5465  0.6494 -1.0598
  200MOL0     H27538   8.082   2.237   0.776  0.1320  0.8636 -0.8331
  200MOL0     H27539   8.297   2.182   0.791 -0.2064  2.8295  1.6230
  200MOL0     H27540   8.234   2.116   0.633  1.2116 -1.0977 -0.5315
  200MOL0     H27541   8.477   2.214   0.640  0.4874  0.2651 -2.2239
  200MOL0     H27542   8.391   2.354   0.710 -4.2100  0.6647 -1.2195
  200MOL0     H27543   8.283   2.411   0.520  0.1327  0.0116  1.5619
  200MOL0     H27544   8.448   2.421   0.478  1.0092 -1.7102 -2.3393
  200MOL0     H27545   8.347   2.141   0.424 -0.1605 -1.3042 -6.5842
  200MOL0     H27546   8.454   2.256   0.337  0.4777 -1.8862  0.6879
  200MOL0     H27547   8.295   2.218   0.193 -0.2703 -0.1241 -0.5449
  200MOL0     H27548   8.166   2.264   0.305 -0.1063 -0.0383 -2.1037
  200MOL0     H27549   8.379   2.377   0.030  2.0319 -2.7602  4.2184
  200MOL0     H27550   8.366   2.596  -0.118  1.1557  3.1548 -0.8684
  200MOL0     H27551   8.327   2.739  -0.026 -1.5459  0.3583  1.2847
  200MOL0     H27552   8.095   2.534  -0.092 -0.4925 -0.4808 -0.4981
  200MOL0     H27553   8.099   2.708  -0.027  0.8869 -1.0562  2.8176
  200MOL0     H27554   8.182   2.654  -0.308 -0.7077  1.4547 -0.7574
  200MOL0     H27555   8.016   2.639  -0.264 -0.4056  0.1963 -1.6738
  200MOL0     H27556   7.982   2.851  -0.182 -0.0892 -1.9797  0.9433
  200MOL0     H27557   8.146   2.894  -0.155  2.3315 -1.3787 -1.0860
  200MOL0     H27558   7.824   2.953  -0.364 -0.0227 -0.5474  0.4835
  200MOL0     H27559   7.635   3.078  -0.426  0.6592  0.5305 -0.6796
  200MOL0     H27560   7.646   3.247  -0.465  0.0786 -2.2350 -2.8685
  200MOL0     H27561   7.628   3.202  -0.301  0.5945 -1.0311  1.8224
  200MOL0     H27562   7.742   3.644  -0.577  0.1786  0.6768 -0.8571
  200MOL0     H27563   7.685   3.854  -0.585  1.1300  2.2421 -0.9109
  200MOL0     H27564   7.788   4.258  -0.537 -0.3287  0.8915  2.2564
  200MOL0     H27565   7.781   4.109  -0.628  1.9453  0.3958  0.9338
  200MOL0     H27566   7.569   4.224  -0.601  1.4131  0.7561  0.6211
  200MOL0     H27567   7.548   4.060  -0.527 -2.8017  1.0319  2.3538
  200MOL0     H27568   7.588   4.326  -0.370 -1.8208  0.9471  1.0246
  200MOL0     H27569   7.616   4.158  -0.297  0.9202 -0.6275 -0.3908
  200MOL0     H27570   7.382   4.119  -0.348 -1.2910  0.3007  3.6618
  200MOL0     H27571   7.379   4.272  -0.444  2.4659  1.5416  0.3155
  200MOL0     H27572   7.437   4.297  -0.159  0.0932  1.8505 -0.3942
  200MOL0     H27573   7.372   4.406  -0.281 -3.7978  0.2059 -0.3130
  200MOL0     H27574   7.164   4.258  -0.281  0.6978  1.8136 -1.2179
  200MOL0     H27575   7.189   4.370  -0.136  0.0400  0.2642 -0.2072
  200MOL0     H27576   7.290   4.088  -0.121  0.2751  1.1497 -1.4831
  200MOL0     H27577   7.121   4.131  -0.086 -0.8866  1.1858 -1.2639
  200MOL0     H27578   7.168   4.270   0.085 -1.8969 -0.8550 -1.5528
  200MOL0     H27579   7.337   4.279   0.061 -0.2650  0.1541  1.5746
  200MOL0     H27580   8.006   3.962  -0.299  3.2695 -4.1363  1.5778
  200MOL0     H27581   8.063   3.725  -0.298  2.1935  1.1379 -1.4832
  200MOL0     H27582   8.125   3.348  -0.374  0.7098  0.2300  0.8144
  200MOL0     H27583   8.210   3.138  -0.370 -0.2521  2.7508  1.2779
  200MOL0     H27584   7.735   2.370   0.235  0.0505 -0.3580 -0.1517
  200MOL0     H27585   7.541   2.520   0.195  1.6609 -0.9022 -0.3784
  200MOL0     H27586   7.232   2.659   0.174 -0.0020  0.9195  0.0086
  200MOL0     H27587   7.030   2.727   0.058 -3.4241  0.8309  0.1635
  200MOL0     H27588   6.889   2.972   0.088  0.5133 -1.1211 -1.5430
  200MOL0     H27589   6.837   2.855  -0.025 -0.3266  1.4742 -0.6982
  200MOL0     H27590   6.697   3.076   0.011 -2.0394  0.1520  0.4383
  200MOL0     H27591   6.632   2.992   0.149 -2.2434  0.1335 -1.2381
  200MOL0     H27592   6.494   2.976  -0.073 -1.8265 -1.2205 -2.7719
  200MOL0     H27593   6.631   2.891  -0.148 -1.0732  0.7601 -1.1006
  200MOL0     H27594   6.431   2.797   0.081  1.7526  1.8278  0.9520
  200MOL0     H27595   6.584   2.722   0.064 -0.7798  2.1229  2.8741
  200MOL0     H27596   6.387   2.583  -0.297  0.3599 -1.8536  1.2518
  200MOL0     H27597   6.824   2.794   0.422 -1.0047  2.0764 -1.0125
  200MOL0     H27598   6.930   2.700   0.645  0.2082 -0.8245  0.6637
  200MOL0     H27599   7.103   2.688   0.650  1.0900  2.0044  0.2699
  200MOL0     H27600   7.016   2.845   0.633  1.5842  0.0225  0.6561
  201MOL0     O27601   9.169   5.512   0.721  0.4026  0.5278  0.2108
  201MOL0     C27602   9.152   5.530   0.841  0.8818  0.0937  0.5463
  201MOL0     O27603   9.033   5.577   0.889  0.1220  0.4083 -0.5783
  201MOL0     C27604   8.935   5.624   0.803  1.0462 -0.9120  0.2729
  201MOL0     C27605   8.970   5.719   0.698 -0.2743 -0.6172 -0.1459
  201MOL0     C27606   8.870   5.770   0.608  0.1757 -0.3189  0.5015
  201MOL0     C27607   8.730   5.736   0.631 -0.3178  0.1894 -0.1376
  201MOL0     O27608   8.641   5.798   0.539 -0.2379 -0.6272  0.1321
  201MOL0     C27609   8.537   5.706   0.500  0.4587 -0.0710  0.4668
  201MOL0     C27610   8.404   5.758   0.567 -0.1209  0.2620  0.9140
  201MOL0     C27611   8.283   5.663   0.529  0.7379 -0.8670  0.0213
  201MOL0     C27612   8.194   5.669   0.647 -0.0513 -0.5082 -0.2316
  201MOL0     C27613   8.052   5.626   0.629 -0.0208  0.0343  0.2956
  201MOL0     C27614   7.978   5.631   0.762 -0.0382  0.2819 -0.7049
  201MOL0     C27615   7.837   5.592   0.771  0.8187  0.2526  0.6184
  201MOL0     C27616   7.743   5.659   0.662 -0.6269  0.6203 -1.8477
  201MOL0     N27617   7.734   5.804   0.674  0.1938 -0.3098 -0.2445
  201MOL0     C27618   7.642   5.888   0.750 -0.8894  0.2789  0.2650
  201MOL0     C27619   7.681   6.019   0.736  0.1666  0.1502 -0.1096
  201MOL0     C27620   7.629   6.132   0.811  0.2426  0.8415 -0.6352
  201MOL0     C27621   7.536   6.215   0.727  0.2175  0.3931  0.0401
  201MOL0     C27622   7.624   6.301   0.637 -0.3545 -0.7775  0.3551
  201MOL0     C27623   7.572   6.389   0.519  0.9153  0.5203 -0.5593
  201MOL0     O27624   7.473   6.461   0.582  0.3933 -0.3070 -0.2935
  201MOL0     C27625   7.402   6.541   0.498  0.1091  0.3737  0.9879
  201MOL0     C27626   7.280   6.507   0.453  0.0835  0.1752  0.4950
  201MOL0     C27627   7.195   6.595   0.380 -0.1157 -0.4996  0.9985
  201MOL0     C27628   7.066   6.541   0.344  0.3118 -0.0464  0.3790
  201MOL0     C27629   7.246   6.719   0.339 -0.3781 -0.3129  0.8072
  201MOL0     C27630   7.167   6.817   0.258 -0.0077 -0.5101  0.3758
  201MOL0     O27631   7.058   6.849   0.325 -0.5072  0.2872  0.2806
  201MOL0     C27632   6.996   6.968   0.302 -0.2144 -1.4461  0.3635
  201MOL0     C27633   7.043   7.091   0.243  0.1300  0.4629 -0.1165
  201MOL0     C27634   6.961   7.211   0.220 -0.1221  0.6392 -0.5414
  201MOL0     C27635   6.840   7.223   0.277 -0.4040 -0.0715  0.2128
  201MOL0     O27636   6.768   7.340   0.256 -0.0560 -0.2774 -0.3966
  201MOL0     C27637   6.771   7.407   0.390  0.2727  0.5922  0.6329
  201MOL0     C27638   6.744   7.558   0.361  0.3564 -0.8928  0.0274
  201MOL0     C27639   6.860   7.625   0.284 -0.3511 -0.3571  1.0668
  201MOL0     C27640   6.808   7.730   0.176  1.0897 -0.4911 -0.2849
  201MOL0     C27641   6.906   7.739   0.064  0.0322 -0.1658  0.3287
  201MOL0     C27642   6.904   7.880  -0.008 -0.0933  0.1061 -0.2331
  201MOL0     C27643   6.786   7.906  -0.096 -0.1729  0.2425 -0.2107
  201MOL0     C27644   6.779   7.820  -0.218 -0.0538  0.1656  0.3006
  201MOL0    Cl27645   6.928   7.846  -0.310 -0.2622 -0.1224 -0.1783
  201MOL0     C27646   6.786   7.102   0.341 -0.7206  0.6265 -0.2908
  201MOL0     C27647   6.866   6.983   0.356 -0.0640 -1.1300 -0.9034
  201MOL0     O27648   7.191   6.841   0.144  0.4391 -0.3586  0.5114
  201MOL0     C27649   7.370   6.759   0.391  0.5306  1.0783  0.1838
  201MOL0     C27650   7.449   6.671   0.462 -0.0564 -0.1541 -1.2277
  201MOL0     N27651   7.801   6.010   0.671 -0.0213 -0.3775  0.6646
  201MOL0     N27652   7.831   5.887   0.626  0.3534 -0.2372  0.6547
  201MOL0     C27653   8.700   5.652   0.732  0.3943 -0.4965 -0.2261
  201MOL0     C27654   8.800   5.593   0.813  0.2619 -0.4368 -0.2290
  201MOL0     C27655   9.250   5.475   0.934  0.1805  0.1515  0.2462
  201MOL0     C27656   9.258   5.540   1.060 -0.6357 -0.0361 -0.3648
  201MOL0     C27657   9.353   5.501   1.154  0.0581 -0.0839 -0.8123
  201MOL0     C27658   9.450   5.403   1.124 -0.7731  0.3845  0.1387
  201MOL0     O27659   9.557   5.394   1.212 -0.1200  0.4746 -0.7844
  201MOL0     C27660   9.615   5.259   1.224  0.7215  0.0075  0.5376
  201MOL0     C27661   9.737   5.252   1.317  0.5566  0.5352  0.1209
  201MOL0     C27662   9.857   5.319   1.241 -0.1682  0.4543  0.1940
  201MOL0     C27663   9.984   5.301   1.331 -0.6510 -0.8211 -0.1023
  201MOL0     C27664   9.968   5.394   1.449 -0.6819 -0.3686  0.2561
  201MOL0     C27665   9.955   5.476   1.541 -0.7327  0.7232 -0.0161
  201MOL0     C27666   9.455   5.339   0.996 -0.1175 -0.4494 -0.5049
  201MOL0     C27667   9.354   5.372   0.904  0.4113  0.3739  0.0543
  201MOL0     C27668   9.358   5.288   0.772 -0.3976  0.4170  0.5534
  201MOL0     H27669   9.069   5.763   0.697  0.7814 -2.7934  1.5004
  201MOL0     H27670   8.887   5.841   0.527 -1.5156 -0.5649 -0.1293
  201MOL0     H27671   8.556   5.603   0.530 -0.0239  0.1803  1.7063
  201MOL0     H27672   8.525   5.709   0.391  2.4890  1.7592  0.2359
  201MOL0     H27673   8.432   5.768   0.672  5.2914  0.9484 -0.3038
  201MOL0     H27674   8.372   5.856   0.529  2.0672  1.1278  1.1286
  201MOL0     H27675   8.231   5.698   0.439 -0.6666  0.9558  1.4447
  201MOL0     H27676   8.314   5.561   0.506 -3.9472 -2.5755  0.2181
  201MOL0     H27677   8.235   5.610   0.729  0.0925  1.4224  1.1557
  201MOL0     H27678   8.180   5.774   0.672  0.3230 -0.3543 -0.6555
  201MOL0     H27679   8.038   5.538   0.566  1.8363  0.6541 -1.0669
  201MOL0     H27680   8.015   5.707   0.566  1.3556  0.1694 -0.3805
  201MOL0     H27681   8.031   5.571   0.836 -0.5713  0.7771  0.0932
  201MOL0     H27682   7.991   5.733   0.801  1.9198 -0.3934  0.5168
  201MOL0     H27683   7.815   5.623   0.874  1.7216  1.1858  0.5390
  201MOL0     H27684   7.810   5.486   0.774 -1.4490  0.7472  0.0061
  201MOL0     H27685   7.783   5.633   0.563 -0.8746 -2.8728 -1.1324
  201MOL0     H27686   7.649   5.610   0.689  0.8785 -1.8238 -0.7685
  201MOL0     H27687   7.550   5.851   0.795  0.0639 -1.9591  0.5246
  201MOL0     H27688   7.706   6.198   0.853  0.1553 -0.2958  1.4349
  201MOL0     H27689   7.575   6.105   0.903  1.9059 -0.2231  0.0754
  201MOL0     H27690   7.474   6.150   0.664  0.8477  0.0732 -0.2607
  201MOL0     H27691   7.456   6.264   0.782  0.4024  0.4623  0.2481
  201MOL0     H27692   7.682   6.364   0.706  0.5447 -0.5252 -0.6142
  201MOL0     H27693   7.695   6.231   0.591  3.7386  2.6837  0.7754
  201MOL0     H27694   7.650   6.457   0.482 -0.3078  1.2408 -1.9180
  201MOL0     H27695   7.528   6.322   0.444  0.5764 -0.2087  0.2776
  201MOL0     H27696   7.240   6.410   0.479 -3.1599  0.6430 -2.1321
  201MOL0     H27697   6.982   6.591   0.394  0.4282  1.5060 -0.8675
  201MOL0     H27698   7.059   6.435   0.370 -0.1001 -1.1485 -3.6662
  201MOL0     H27699   7.040   6.534   0.238  2.3114 -3.0594 -0.0153
  201MOL0     H27700   7.147   7.099   0.215 -0.5821  2.2556 -2.5638
  201MOL0     H27701   7.012   7.296   0.176  1.7130 -0.6469 -0.9971
  201MOL0     H27702   6.690   7.369   0.453  0.9003 -0.3662  0.8857
  201MOL0     H27703   6.862   7.388   0.447  2.6959 -0.7049 -3.3040
  201MOL0     H27704   6.661   7.560   0.290 -1.6816  0.2900  2.3162
  201MOL0     H27705   6.728   7.604   0.459  1.8302 -1.4083  0.5421
  201MOL0     H27706   6.909   7.544   0.229 -1.4779 -0.6149  0.4131
  201MOL0     H27707   6.939   7.672   0.344  0.0008  1.1894 -0.5117
  201MOL0     H27708   6.803   7.822   0.234 -0.7107 -1.5414  1.3287
  201MOL0     H27709   6.709   7.714   0.133  1.0054  0.3291 -0.4151
  201MOL0     H27710   7.003   7.730   0.113 -0.6847 -1.2943  1.6047
  201MOL0     H27711   6.892   7.654  -0.004 -1.3935 -0.2460  0.6879
  201MOL0     H27712   6.995   7.888  -0.069 -0.7734 -1.8387 -1.6184
  201MOL0     H27713   6.895   7.958   0.068 -0.8812 -0.8606  0.6909
  201MOL0     H27714   6.784   8.013  -0.116  4.2092  0.3468 -0.9388
  201MOL0     H27715   6.704   7.885  -0.026  0.1416  1.5174  0.5763
  201MOL0     H27716   6.696   7.843  -0.286  1.9866  1.0429 -2.0126
  201MOL0     H27717   6.765   7.717  -0.181 -4.5141  0.5836  0.4155
  201MOL0     H27718   6.701   7.114   0.406  0.6673 -0.2805  1.7792
  201MOL0     H27719   6.844   6.902   0.426  1.5392 -0.8026  0.0268
  201MOL0     H27720   7.407   6.859   0.370 -1.7200  1.9097 -0.0971
  201MOL0     H27721   7.542   6.706   0.505 -1.7990  2.1655  0.9284
  201MOL0     H27722   8.594   5.645   0.754  0.1917 -1.1383 -1.3291
  201MOL0     H27723   8.781   5.522   0.893 -0.7529 -1.6972 -1.5223
  201MOL0     H27724   9.187   5.617   1.086 -2.5856 -1.2653 -1.7838
  201MOL0     H27725   9.352   5.529   1.258 -0.5700 -4.0918  0.4128
  201MOL0     H27726   9.532   5.200   1.264  0.6701  0.6925  1.4840
  201MOL0     H27727   9.660   5.232   1.128  0.8549 -2.5059  1.2432
  201MOL0     H27728   9.733   5.148   1.350 -1.3962  1.6649  3.9659
  201MOL0     H27729   9.711   5.311   1.405  1.7730  1.9765 -0.4411
  201MOL0     H27730   9.882   5.271   1.146  0.5886  0.2890  0.4675
  201MOL0     H27731   9.827   5.420   1.215  2.2133  0.3609 -3.8532
  201MOL0     H27732  10.075   5.304   1.271 -1.9375 -2.3496 -2.2708
  201MOL0     H27733   9.984   5.198   1.365  0.1123 -0.3222  1.4932
  201MOL0     H27734   9.946   5.545   1.623  4.1549  0.1592  1.3243
  201MOL0     H27735   9.527   5.267   0.958  2.4546  1.3365  0.7079
  201MOL0     H27736   9.435   5.210   0.777 -0.2656  0.3287 -1.6415
  201MOL0     H27737   9.258   5.253   0.743 -0.5073  0.5169  0.8164
  201MOL0     H27738   9.401   5.351   0.693  0.0040 -0.7094 -0.1528
  202MOL0     O27739   0.458   1.927   4.787  0.1089  0.7508  0.3648
  202MOL0     C27740   0.407   2.027   4.739 -1.2377  0.2693  0.5280
  202MOL0     O27741   0.468   2.112   4.656  0.1077  0.1012 -0.2248
  202MOL0     C27742   0.546   2.069   4.563 -0.9433  0.5485  1.5960
  202MOL0     C27743   0.620   2.163   4.492 -0.7878  0.3855 -0.0199
  202MOL0     C27744   0.710   2.133   4.395 -0.7310  0.5392  0.8108
  202MOL0     C27745   0.732   1.999   4.352 -0.1547  0.5756  0.1747
  202MOL0     O27746   0.819   1.958   4.250 -0.3815 -0.0955  0.4532
  202MOL0     C27747   0.947   1.912   4.292 -0.1815  0.1785  0.5657
  202MOL0     C27748   1.041   2.019   4.338  0.3282  0.1784 -0.5552
  202MOL0     C27749   1.096   2.098   4.219 -0.2998  0.7232 -0.5586
  202MOL0     C27750   0.990   2.201   4.166  0.3337  0.0148 -0.3817
  202MOL0     C27751   1.051   2.294   4.059 -0.2827  0.1964  0.1728
  202MOL0     C27752   0.963   2.392   3.985  0.0770  0.7446  0.7568
  202MOL0     C27753   0.912   2.340   3.847  0.7929 -0.8249 -0.3075
  202MOL0     C27754   0.826   2.437   3.760 -0.1644 -0.7113 -0.3871
  202MOL0     N27755   0.741   2.363   3.665 -0.2087  0.7845  0.3859
  202MOL0     C27756   0.772   2.267   3.570 -0.6849 -1.4854  0.2370
  202MOL0     C27757   0.648   2.233   3.518 -0.5888 -0.5610  0.1628
  202MOL0     C27758   0.631   2.126   3.409  0.6548 -0.2029  0.9610
  202MOL0     C27759   0.512   2.167   3.308  0.1371 -0.1685  0.4294
  202MOL0     C27760   0.538   2.308   3.229  0.0901 -0.4755  0.5592
  202MOL0     C27761   0.432   2.322   3.123  0.3106  0.2446  0.7689
  202MOL0     O27762   0.304   2.306   3.185  0.1488 -0.1294 -0.0806
  202MOL0     C27763   0.196   2.389   3.138 -0.0472 -0.2728  0.2665
  202MOL0     C27764   0.126   2.465   3.222 -0.0581 -0.0787 -0.6231
  202MOL0     C27765   0.019   2.551   3.189 -0.1114  0.0239  0.4811
  202MOL0     C27766  -0.054   2.635   3.294  1.0680  0.0203 -0.8225
  202MOL0     C27767   0.002   2.566   3.037 -0.2222 -1.3629 -1.2768
  202MOL0     C27768  -0.084   2.678   2.975  0.6587  1.0968  0.1580
  202MOL0     O27769  -0.069   2.680   2.841  0.1427 -0.3837  0.2388
  202MOL0     C27770  -0.132   2.779   2.772  0.0421 -0.1238  0.1291
  202MOL0     C27771  -0.263   2.762   2.731 -0.4550  0.2601 -0.4734
  202MOL0     C27772  -0.319   2.858   2.649 -0.7646  0.3388  0.2844
  202MOL0     C27773  -0.246   2.971   2.605 -0.5541 -0.4725 -0.2219
  202MOL0     O27774  -0.294   3.062   2.520  0.8894 -0.0400 -0.0436
  202MOL0     C27775  -0.432   3.109   2.542 -0.3172  0.6169 -0.9809
  202MOL0     C27776  -0.444   3.223   2.447  0.2519 -0.4310  0.1274
  202MOL0     C27777  -0.365   3.346   2.497 -0.5607 -0.6485  0.4747
  202MOL0     C27778  -0.289   3.408   2.366 -0.4526  0.5367 -0.1383
  202MOL0     C27779  -0.206   3.517   2.416 -0.9636 -0.1020 -0.4607
  202MOL0     C27780  -0.115   3.575   2.295  0.5009  0.9590 -0.3847
  202MOL0     C27781   0.022   3.513   2.315  0.7797  0.0481  0.0833
  202MOL0     C27782   0.108   3.554   2.201  0.0373 -0.8260 -0.0902
  202MOL0    Cl27783   0.042   3.474   2.043  0.1303 -0.2364  0.1236
  202MOL0     C27784  -0.114   2.984   2.645  0.8557 -0.4178 -0.2158
  202MOL0     C27785  -0.064   2.893   2.728  0.2042  0.8906 -0.8651
  202MOL0     O27786  -0.147   2.762   3.042 -0.1789  0.1587  0.0501
  202MOL0     C27787   0.065   2.473   2.951  0.3829 -0.9479 -0.3032
  202MOL0     C27788   0.162   2.381   3.003  0.5806 -0.2993 -0.4256
  202MOL0     N27789   0.551   2.310   3.578 -0.2219  0.3684 -0.9382
  202MOL0     N27790   0.611   2.401   3.660  0.3437 -1.0933  0.4894
  202MOL0     C27791   0.658   1.897   4.415 -0.2828  0.0006 -0.4892
  202MOL0     C27792   0.571   1.927   4.526 -0.1327  0.2187  0.3155
  202MOL0     C27793   0.256   2.032   4.759 -0.2759  1.1466 -0.0410
  202MOL0     C27794   0.214   2.011   4.893 -0.2415 -0.5785 -1.2441
  202MOL0     C27795   0.071   2.016   4.926 -0.3849  0.6834 -0.1281
  202MOL0     C27796  -0.026   2.027   4.826  0.7343  0.4096 -0.0303
  202MOL0     O27797  -0.155   2.001   4.865 -0.0675  0.7035  0.1878
  202MOL0     C27798  -0.253   1.960   4.765  0.1408  0.2819  0.9685
  202MOL0     C27799  -0.255   1.798   4.747 -0.0232 -0.8243 -0.1570
  202MOL0     C27800  -0.349   1.732   4.857  0.7855 -0.4015 -0.2846
  202MOL0     C27801  -0.327   1.746   5.008  0.1204 -0.7681  0.5784
  202MOL0     C27802  -0.188   1.701   5.058 -0.0021  0.6054 -0.1735
  202MOL0     C27803  -0.068   1.675   5.089  0.1241 -0.5194 -0.1377
  202MOL0     C27804   0.020   2.046   4.693 -0.3694  0.1528 -0.8945
  202MOL0     C27805   0.158   2.048   4.657 -0.4132  0.8214 -0.8935
  202MOL0     C27806   0.185   2.068   4.517 -0.5652  0.3910  1.0380
  202MOL0     H27807   0.622   2.269   4.515 -0.8066  0.2873  0.4638
  202MOL0     H27808   0.771   2.206   4.343 -2.1508 -0.4782 -2.5704
  202MOL0     H27809   1.001   1.856   4.215  1.1343 -1.3949  2.5091
  202MOL0     H27810   0.933   1.848   4.379 -3.2284 -2.0119 -1.3528
  202MOL0     H27811   1.016   2.091   4.416  1.2405 -1.1575  1.0442
  202MOL0     H27812   1.124   1.961   4.381  0.8364 -1.6659 -3.7016
  202MOL0     H27813   1.186   2.156   4.243  1.3860 -1.3376 -1.5351
  202MOL0     H27814   1.134   2.034   4.139 -1.6256 -0.9968  0.1270
  202MOL0     H27815   0.905   2.142   4.131  0.6780 -1.8547  1.7797
  202MOL0     H27816   0.969   2.266   4.251 -0.0438  0.1017 -0.5376
  202MOL0     H27817   1.111   2.227   3.997  0.6219 -1.2964  2.5458
  202MOL0     H27818   1.126   2.356   4.109 -0.9358  0.3409  1.0040
  202MOL0     H27819   0.882   2.423   4.052  0.3449  0.7697  1.0755
  202MOL0     H27820   1.026   2.480   3.968  1.8483  0.0510  3.2472
  202MOL0     H27821   0.857   2.250   3.878  2.3962 -0.5837  3.8038
  202MOL0     H27822   0.999   2.318   3.784 -1.0744  0.7551 -3.7372
  202MOL0     H27823   0.764   2.489   3.833  3.0714  1.3341  1.1375
  202MOL0     H27824   0.900   2.500   3.710 -0.8030 -0.6573 -1.2832
  202MOL0     H27825   0.871   2.227   3.552  1.8566  4.2940 -0.8460
  202MOL0     H27826   0.604   2.029   3.452  1.8054 -0.9899 -0.0225
  202MOL0     H27827   0.727   2.093   3.369 -1.1101 -1.3407 -2.7365
  202MOL0     H27828   0.495   2.085   3.237 -2.6835  1.0174 -0.4400
  202MOL0     H27829   0.428   2.168   3.378  1.3705 -4.9651  2.3863
  202MOL0     H27830   0.535   2.382   3.310 -1.9822 -1.6303  1.5987
  202MOL0     H27831   0.635   2.309   3.177 -0.4517 -0.6855 -0.4827
  202MOL0     H27832   0.440   2.420   3.074  0.0505  0.7382  1.7053
  202MOL0     H27833   0.450   2.249   3.043  2.5943  1.3577  0.1799
  202MOL0     H27834   0.143   2.466   3.330  0.0908 -0.7097 -0.6332
  202MOL0     H27835  -0.024   2.737   3.318 -0.7643  0.2836  0.5145
  202MOL0     H27836  -0.067   2.589   3.392 -0.3740  2.5090  0.2597
  202MOL0     H27837  -0.159   2.654   3.268  1.4576  1.3044 -1.5339
  202MOL0     H27838  -0.313   2.671   2.762  0.6049  0.3624  1.7163
  202MOL0     H27839  -0.421   2.846   2.615 -0.6756  1.9343 -0.6352
  202MOL0     H27840  -0.508   3.035   2.515 -0.1305 -0.0332  0.1967
  202MOL0     H27841  -0.452   3.136   2.647  0.3432  0.7948 -0.8966
  202MOL0     H27842  -0.400   3.184   2.355 -1.6114  0.9081 -1.4242
  202MOL0     H27843  -0.541   3.263   2.418  0.6896  0.5009 -0.1051
  202MOL0     H27844  -0.278   3.326   2.561  0.5145 -0.6124 -0.9258
  202MOL0     H27845  -0.424   3.431   2.531  1.7434  1.1380  0.2418
  202MOL0     H27846  -0.364   3.446   2.297 -0.1328  0.4798 -0.5211
  202MOL0     H27847  -0.236   3.337   2.301  0.8020  1.6024 -0.3200
  202MOL0     H27848  -0.263   3.592   2.471  0.9972 -1.4526  3.8478
  202MOL0     H27849  -0.128   3.475   2.480 -1.8533 -2.9816 -1.0792
  202MOL0     H27850  -0.096   3.682   2.311  4.1734  0.1658  1.6403
  202MOL0     H27851  -0.148   3.556   2.193  1.2217  0.0623 -0.4635
  202MOL0     H27852   0.012   3.404   2.312 -1.3903  0.1937  0.3231
  202MOL0     H27853   0.068   3.534   2.411 -1.4308 -0.2365  1.2615
  202MOL0     H27854   0.210   3.517   2.214 -0.2003 -0.9621  1.6002
  202MOL0     H27855   0.112   3.662   2.183  2.3465 -1.2888 -3.0623
  202MOL0     H27856  -0.045   3.061   2.614  0.2646 -0.5858 -2.0366
  202MOL0     H27857   0.032   2.899   2.777 -0.7039  0.4744  1.0712
  202MOL0     H27858   0.043   2.463   2.845 -2.6006 -1.0495  0.2354
  202MOL0     H27859   0.209   2.310   2.935 -0.8292 -1.9027  0.2305
  202MOL0     H27860   0.663   1.799   4.368 -3.4283  0.5971 -2.4210
  202MOL0     H27861   0.520   1.847   4.578  0.1230  0.8114  1.5268
  202MOL0     H27862   0.285   1.985   4.971 -2.3284  0.0333  1.0074
  202MOL0     H27863   0.048   1.993   5.029 -1.3218  1.8488 -0.0496
  202MOL0     H27864  -0.350   1.997   4.799  1.5162  1.8991  3.4635
  202MOL0     H27865  -0.230   2.018   4.676  2.0815 -0.7325  0.7372
  202MOL0     H27866  -0.158   1.749   4.741 -0.8943 -2.5644 -0.8384
  202MOL0     H27867  -0.293   1.775   4.647  2.2444 -0.5800 -1.1351
  202MOL0     H27868  -0.450   1.768   4.836  1.8771  2.9305 -0.3349
  202MOL0     H27869  -0.338   1.625   4.838 -0.0501 -0.3422 -1.1770
  202MOL0     H27870  -0.402   1.681   5.054 -0.9449 -0.1277 -0.2150
  202MOL0     H27871  -0.362   1.843   5.042 -4.9706 -1.2939 -2.1789
  202MOL0     H27872   0.034   1.655   5.116  0.5534  1.3129 -0.2476
  202MOL0     H27873  -0.040   2.080   4.609  2.2597  0.5266 -2.7540
  202MOL0     H27874   0.233   2.166   4.505 -2.6359  1.3577  0.2538
  202MOL0     H27875   0.266   1.995   4.505 -0.4664  0.1702  2.8113
  202MOL0     H27876   0.117   2.042   4.435  0.1788 -0.7161  0.7464
  203MOL0     O27877   1.128   1.148   2.704 -0.0749 -0.0946 -0.3018
  203MOL0     C27878   1.157   1.072   2.794  0.4881 -0.6814  0.6844
  203MOL0     O27879   1.085   1.049   2.904  0.3866  0.4488 -0.4951
  203MOL0     C27880   0.974   1.135   2.915  1.3348  0.1240 -0.2307
  203MOL0     C27881   0.844   1.084   2.897 -0.5861  0.4840  0.6476
  203MOL0     C27882   0.738   1.171   2.895 -0.2089 -0.9457 -0.0491
  203MOL0     C27883   0.752   1.309   2.920 -0.2290  0.5132 -0.0963
  203MOL0     O27884   0.632   1.378   2.916 -0.2734  0.7991  0.3591
  203MOL0     C27885   0.623   1.481   3.015  0.3005 -0.2619 -0.4179
  203MOL0     C27886   0.478   1.546   3.045  0.4481 -0.0596  0.3083
  203MOL0     C27887   0.379   1.445   3.093 -1.1353  0.6456  0.6463
  203MOL0     C27888   0.235   1.489   3.046 -0.9470  0.5833  0.2877
  203MOL0     C27889   0.179   1.621   3.105 -0.0138 -0.3346 -0.0167
  203MOL0     C27890   0.169   1.614   3.258 -0.2159 -0.3298 -0.9496
  203MOL0     C27891   0.118   1.753   3.307  0.5638  0.3395  0.5181
  203MOL0     C27892   0.221   1.864   3.320  0.3449 -0.3609 -0.6990
  203MOL0     N27893   0.312   1.836   3.441  0.6821 -0.0182  0.1153
  203MOL0     C27894   0.273   1.858   3.570 -1.0740 -0.1165 -0.3552
  203MOL0     C27895   0.381   1.810   3.638 -0.1627  0.7339  0.8757
  203MOL0     C27896   0.376   1.818   3.792  0.3674  0.5964 -0.7184
  203MOL0     C27897   0.454   1.940   3.848  0.6172  0.0476 -0.2070
  203MOL0     C27898   0.400   2.085   3.821 -0.9879  0.4928 -0.3950
  203MOL0     C27899   0.491   2.189   3.891 -0.0320 -0.7939 -0.0313
  203MOL0     O27900   0.468   2.170   4.032 -0.8680 -0.5538 -0.2021
  203MOL0     C27901   0.502   2.279   4.112  0.5523 -0.3465 -0.7149
  203MOL0     C27902   0.409   2.322   4.203 -0.5065  1.3940  0.8503
  203MOL0     C27903   0.442   2.415   4.305 -0.2158 -0.8865  0.0009
  203MOL0     C27904   0.330   2.473   4.389 -0.7651 -0.3606  0.1718
  203MOL0     C27905   0.572   2.477   4.308 -0.5183 -0.5896 -0.2638
  203MOL0     C27906   0.621   2.577   4.406  0.2686  0.0026 -0.3785
  203MOL0     O27907   0.548   2.588   4.526 -0.5877  0.1246  0.5964
  203MOL0     C27908   0.589   2.682   4.621  0.3658 -0.0207  0.2570
  203MOL0     C27909   0.654   2.662   4.741  0.2579 -0.0449 -0.0472
  203MOL0     C27910   0.691   2.755   4.834  0.1607 -0.8383  0.4576
  203MOL0     C27911   0.642   2.888   4.813 -0.6365 -0.2722  0.0330
  203MOL0     O27912   0.650   2.995   4.887  0.8487 -0.4463 -0.1707
  203MOL0     C27913   0.739   2.979   5.009 -0.1392  0.0055  0.3223
  203MOL0     C27914   0.698   3.078   5.109 -0.1542  0.0046  0.0967
  203MOL0     C27915   0.715   3.222   5.040  0.5052  1.2684 -0.3553
  203MOL0     C27916   0.716   3.342   5.135 -0.1397 -0.3166 -0.4335
  203MOL0     C27917   0.568   3.360   5.177  0.2161  0.2767  0.5786
  203MOL0     C27918   0.562   3.493   5.251  1.5289  0.5159 -0.4057
  203MOL0     C27919   0.515   3.471   5.402  0.3859 -0.5054  0.6011
  203MOL0     C27920   0.487   3.603   5.464  0.7255 -0.8790 -0.4903
  203MOL0    Cl27921   0.334   3.681   5.406  0.3288  0.1295 -0.0773
  203MOL0     C27922   0.572   2.909   4.690  0.6152  0.0732 -1.6855
  203MOL0     C27923   0.535   2.806   4.600 -0.5685  0.1999 -0.1642
  203MOL0     O27924   0.714   2.655   4.372  0.4123  0.1173 -0.7869
  203MOL0     C27925   0.666   2.420   4.217 -0.2014  0.5245  0.7605
  203MOL0     C27926   0.625   2.321   4.130  0.4295 -0.5671  0.3993
  203MOL0     N27927   0.479   1.766   3.540  0.2859 -0.9603  0.0742
  203MOL0     N27928   0.432   1.782   3.421 -0.2290 -0.5868 -0.5584
  203MOL0     C27929   0.875   1.364   2.951 -0.8748  0.8707 -0.5193
  203MOL0     C27930   0.988   1.276   2.943  0.1696  0.1978 -0.5450
  203MOL0     C27931   1.285   0.992   2.783  0.0336  0.6230 -0.4531
  203MOL0     C27932   1.339   0.943   2.906  0.9708  0.4809  0.1509
  203MOL0     C27933   1.461   0.872   2.912 -0.1648 -0.3011 -0.3573
  203MOL0     C27934   1.519   0.845   2.787 -0.4383 -1.3239  0.1463
  203MOL0     O27935   1.634   0.768   2.778 -0.9955 -0.5627  0.9677
  203MOL0     C27936   1.750   0.805   2.864  0.8147  0.1293 -0.5453
  203MOL0     C27937   1.869   0.715   2.836 -0.3190  0.1555  0.5817
  203MOL0     C27938   1.990   0.777   2.895 -0.3628  0.2780  0.4066
  203MOL0     C27939   2.124   0.695   2.863  0.5952  0.9210 -0.0910
  203MOL0     C27940   2.131   0.659   2.717 -0.6518 -0.4564  0.7596
  203MOL0     C27941   2.121   0.618   2.596  0.9993  0.4198  0.3295
  203MOL0     C27942   1.465   0.897   2.668  0.1808  0.3653  0.4430
  203MOL0     C27943   1.348   0.965   2.660  0.2377  0.4815 -0.6149
  203MOL0     C27944   1.302   0.994   2.517 -0.0277  0.1161  0.1035
  203MOL0     H27945   0.830   0.977   2.891  0.8644 -0.0357  4.0369
  203MOL0     H27946   0.631   1.155   2.892 -0.6741  1.7271 -0.0571
  203MOL0     H27947   0.691   1.562   2.987 -0.5095  0.1952 -1.1329
  203MOL0     H27948   0.661   1.448   3.112  0.0588 -0.3066 -0.3384
  203MOL0     H27949   0.472   1.633   3.110 -1.0641  0.6783 -0.7486
  203MOL0     H27950   0.441   1.592   2.953  1.4822  2.1232  0.9119
  203MOL0     H27951   0.409   1.348   3.053 -0.0849  0.9275  0.7012
  203MOL0     H27952   0.373   1.439   3.202 -0.6485  0.2681  0.6541
  203MOL0     H27953   0.222   1.482   2.938 -0.2102  0.5002  0.1996
  203MOL0     H27954   0.166   1.412   3.080  0.3836 -0.8939 -0.2408
  203MOL0     H27955   0.087   1.636   3.047  0.2697 -0.1449 -0.4267
  203MOL0     H27956   0.252   1.698   3.076  3.4210 -2.4280  2.3803
  203MOL0     H27957   0.095   1.540   3.290 -0.6806  0.9152  1.0914
  203MOL0     H27958   0.266   1.591   3.304 -1.1216 -1.8731  0.3023
  203MOL0     H27959   0.061   1.737   3.398 -2.3685  0.4501 -1.1736
  203MOL0     H27960   0.039   1.790   3.241  0.4629 -0.8198 -0.0336
  203MOL0     H27961   0.274   1.873   3.224  0.1681 -2.1189 -1.0089
  203MOL0     H27962   0.163   1.956   3.334 -0.4167 -1.1494  1.8437
  203MOL0     H27963   0.197   1.932   3.596  0.5790  1.9238 -1.0395
  203MOL0     H27964   0.423   1.725   3.825  3.0909  1.7375 -1.1424
  203MOL0     H27965   0.269   1.814   3.815  0.2600 -1.2868 -1.4210
  203MOL0     H27966   0.450   1.934   3.957 -1.0324  3.9702  0.1355
  203MOL0     H27967   0.556   1.932   3.811  1.2179  2.2805  0.7958
  203MOL0     H27968   0.371   2.097   3.716 -2.0806  0.5174 -0.1116
  203MOL0     H27969   0.297   2.089   3.858 -1.7198 -1.2715 -2.0780
  203MOL0     H27970   0.594   2.172   3.858  0.0006  2.8158 -2.3923
  203MOL0     H27971   0.453   2.288   3.863  2.8266  0.1193 -1.0690
  203MOL0     H27972   0.323   2.257   4.197  0.9075 -0.4971 -0.2436
  203MOL0     H27973   0.236   2.437   4.346  1.2259 -2.4727 -2.8703
  203MOL0     H27974   0.326   2.582   4.395 -1.9203 -0.2506 -1.6503
  203MOL0     H27975   0.340   2.434   4.491 -2.1208  0.9625  0.8337
  203MOL0     H27976   0.686   2.560   4.760 -0.9237 -0.8158 -1.9303
  203MOL0     H27977   0.735   2.722   4.928 -1.4678 -0.9806  1.2048
  203MOL0     H27978   0.747   2.882   5.060 -0.1734 -0.8454 -1.2446
  203MOL0     H27979   0.841   3.008   4.983 -0.9256  2.1658 -0.5640
  203MOL0     H27980   0.602   3.068   5.160 -1.3457  3.4588 -1.1927
  203MOL0     H27981   0.770   3.063   5.191  0.3036  1.5941  0.0140
  203MOL0     H27982   0.635   3.235   4.967 -1.5517  1.4852  1.7793
  203MOL0     H27983   0.812   3.211   4.991 -0.1864 -1.3240 -1.3210
  203MOL0     H27984   0.747   3.427   5.074 -1.2595 -2.1656 -3.8228
  203MOL0     H27985   0.782   3.323   5.221 -0.0039 -2.9653 -1.0175
  203MOL0     H27986   0.508   3.379   5.087  1.1767 -0.9151 -0.3423
  203MOL0     H27987   0.522   3.276   5.229 -1.8562 -2.8737 -5.4095
  203MOL0     H27988   0.478   3.540   5.200 -0.0909 -1.1662  0.5754
  203MOL0     H27989   0.649   3.557   5.236  1.7129  0.0448 -1.4253
  203MOL0     H27990   0.588   3.413   5.457 -0.9153 -2.9219 -0.0956
  203MOL0     H27991   0.422   3.414   5.405  0.6373 -1.0350 -0.7638
  203MOL0     H27992   0.568   3.677   5.457  0.1134 -0.2292 -0.8671
  203MOL0     H27993   0.463   3.573   5.566 -0.8397 -0.4114 -0.6896
  203MOL0     H27994   0.531   3.009   4.680  0.4065  0.7028  3.1428
  203MOL0     H27995   0.460   2.808   4.521 -0.0936 -3.8926 -0.9349
  203MOL0     H27996   0.770   2.444   4.236  0.1862  2.2422 -2.7462
  203MOL0     H27997   0.706   2.272   4.078  0.2628 -0.6577  0.2216
  203MOL0     H27998   0.906   1.463   2.984 -0.0912 -0.2646  2.4197
  203MOL0     H27999   1.087   1.321   2.947  0.7713 -1.1367  0.3721
  203MOL0     H28000   1.289   0.975   2.997  1.7802  0.7745  0.5009
  203MOL0     H28001   1.506   0.853   3.008  2.4242  0.5833 -1.3197
  203MOL0     H28002   1.774   0.910   2.844 -0.3344  0.2667 -1.2611
  203MOL0     H28003   1.707   0.795   2.965 -0.9639 -0.1932 -1.2936
  203MOL0     H28004   1.874   0.693   2.729  2.1371 -0.2629  0.7168
  203MOL0     H28005   1.845   0.625   2.894 -0.0975  0.2557  0.8323
  203MOL0     H28006   2.000   0.882   2.864 -0.0129  0.2958  0.5829
  203MOL0     H28007   1.978   0.777   3.004  1.2381  0.4055  0.6058
  203MOL0     H28008   2.130   0.601   2.917  1.9272  1.4521  0.7313
  203MOL0     H28009   2.215   0.749   2.891  1.2636  0.3823 -1.1363
  203MOL0     H28010   2.083   0.589   2.501 -0.7610 -0.5184  1.2742
  203MOL0     H28011   1.512   0.867   2.575 -0.5094  1.4012 -0.2628
  203MOL0     H28012   1.201   0.953   2.510 -0.3817  1.2304 -2.9497
  203MOL0     H28013   1.307   1.101   2.493 -1.5669  0.0466 -0.6733
  203MOL0     H28014   1.357   0.935   2.443 -0.9463 -2.8180  1.6304
  204MOL0     O28015   6.685   8.647   5.013 -0.5233 -0.4142  0.3033
  204MOL0     C28016   6.747   8.751   4.989 -0.8438 -0.4342  0.4857
  204MOL0     O28017   6.885   8.772   5.011  0.5407 -0.5195 -0.5262
  204MOL0     C28018   6.979   8.676   5.053  1.3272 -0.1505 -0.3123
  204MOL0     C28019   7.091   8.726   5.111  0.0874  0.4756  0.2654
  204MOL0     C28020   7.198   8.648   5.155  0.0333  0.3266  0.8895
  204MOL0     C28021   7.185   8.507   5.145  1.1251 -0.0391  0.4513
  204MOL0     O28022   7.286   8.430   5.194  0.6436 -0.0816 -0.1359
  204MOL0     C28023   7.253   8.338   5.298 -0.1181 -0.2408  0.8129
  204MOL0     C28024   7.361   8.334   5.401  0.1076 -0.2891  0.5866
  204MOL0     C28025   7.420   8.462   5.446 -0.1242  0.5115 -0.3046
  204MOL0     C28026   7.318   8.554   5.526  0.0453 -0.0823  0.7200
  204MOL0     C28027   7.400   8.640   5.637  0.1151  0.6202  0.4816
  204MOL0     C28028   7.475   8.754   5.575 -0.1967 -1.5196  0.2718
  204MOL0     C28029   7.374   8.850   5.493 -0.1364  0.2066 -0.2115
  204MOL0     C28030   7.425   8.993   5.472 -0.1045  0.1151 -0.0732
  204MOL0     N28031   7.330   9.076   5.401 -0.6725  0.6276 -0.0038
  204MOL0     C28032   7.289   9.068   5.264  0.3062  1.1009 -0.2834
  204MOL0     C28033   7.192   9.157   5.259 -0.0681  0.6000 -0.0838
  204MOL0     C28034   7.114   9.184   5.130 -0.5838 -0.1442  0.2853
  204MOL0     C28035   7.085   9.342   5.111 -0.7418  0.1690 -0.9863
  204MOL0     C28036   7.005   9.370   4.970 -0.2090 -0.7296 -0.9899
  204MOL0     C28037   6.945   9.508   4.985  0.8792  0.3202  0.0473
  204MOL0     O28038   7.034   9.594   5.055  0.0650  0.2039  0.3160
  204MOL0     C28039   7.012   9.726   5.028  0.1436  0.2895  0.0050
  204MOL0     C28040   6.882   9.788   4.996  0.3405 -0.2496  0.5617
  204MOL0     C28041   6.882   9.923   4.947  0.1717 -0.3422 -0.2205
  204MOL0     C28042   6.738   9.975   4.914 -0.0918  0.6989 -0.3927
  204MOL0     C28043   7.001  10.001   4.952  0.5466  0.1190 -0.2010
  204MOL0     C28044   7.011  10.134   4.880 -0.5712 -0.6069 -0.1670
  204MOL0     O28045   7.131  10.194   4.889  0.2596 -0.3360 -0.1825
  204MOL0     C28046   7.156  10.299   4.813 -0.1515 -0.4626  0.2789
  204MOL0     C28047   7.134  10.428   4.868 -0.3444 -0.0591 -0.2236
  204MOL0     C28048   7.159  10.534   4.784  0.5689  0.2631  0.3358
  204MOL0     C28049   7.215  10.526   4.655  0.1190  0.3154 -0.2951
  204MOL0     O28050   7.228  10.631   4.560  0.0547 -0.5145  0.1871
  204MOL0     C28051   7.160  10.753   4.585  0.1580 -0.7793 -0.5465
  204MOL0     C28052   7.190  10.851   4.471 -0.5610 -0.2366 -0.1451
  204MOL0     C28053   7.342  10.901   4.494  1.3120  0.1189 -0.1532
  204MOL0     C28054   7.386  10.990   4.371  0.0712  0.2813  0.5871
  204MOL0     C28055   7.293  11.106   4.334 -0.1623 -0.2997 -0.0767
  204MOL0     C28056   7.252  11.199   4.445 -1.0977  0.3034 -0.4418
  204MOL0     C28057   7.370  11.237   4.535 -0.2088 -0.2550 -0.7046
  204MOL0     C28058   7.430  11.368   4.484 -0.0794 -1.1772  1.5948
  204MOL0    Cl28059   7.480  11.377   4.311  0.1971 -0.0655 -0.3355
  204MOL0     C28060   7.243  10.396   4.609  0.9901 -0.4629  0.0283
  204MOL0     C28061   7.202  10.286   4.683 -0.6032 -0.7985  0.4521
  204MOL0     O28062   6.923  10.164   4.802 -0.4077 -0.1006  0.4835
  204MOL0     C28063   7.120   9.943   4.997 -0.4491  0.2823  0.0196
  204MOL0     C28064   7.134   9.808   5.023  0.0768  0.4194  0.4582
  204MOL0     N28065   7.185   9.233   5.376  0.2524 -0.7808  0.0106
  204MOL0     N28066   7.277   9.192   5.458  1.0315  0.6732  0.2640
  204MOL0     C28067   7.058   8.453   5.096 -0.1525  0.0560 -1.0197
  204MOL0     C28068   6.961   8.541   5.053  0.6866 -0.3065 -0.4844
  204MOL0     C28069   6.654   8.867   4.966 -0.0018 -0.4638  0.5328
  204MOL0     C28070   6.684   8.994   5.016 -0.5417  1.0648  0.6684
  204MOL0     C28071   6.603   9.105   5.011  0.7464  1.2609 -0.8356
  204MOL0     C28072   6.485   9.091   4.937  0.1242  0.0248  0.7550
  204MOL0     O28073   6.387   9.190   4.917 -0.3365  0.4136  0.4242
  204MOL0     C28074   6.380   9.294   5.016  0.2724  0.0938  0.5873
  204MOL0     C28075   6.407   9.423   4.932  1.3606 -0.6133 -0.1085
  204MOL0     C28076   6.555   9.463   4.905 -0.0111  0.4433  0.1967
  204MOL0     C28077   6.574   9.565   4.797  0.1088  0.8391  0.6177
  204MOL0     C28078   6.490   9.688   4.797 -0.3517  0.5165  0.2172
  204MOL0     C28079   6.430   9.791   4.783  0.4573 -0.0418 -0.7059
  204MOL0     C28080   6.451   8.972   4.874  0.7707 -0.1689  0.8459
  204MOL0     C28081   6.530   8.862   4.883  0.0811  0.0685 -0.2496
  204MOL0     C28082   6.483   8.737   4.826  0.0823 -0.4300  0.1399
  204MOL0     H28083   7.098   8.834   5.111 -4.0017  0.8753 -0.5475
  204MOL0     H28084   7.282   8.698   5.202 -0.6858 -0.4564  3.1471
  204MOL0     H28085   7.237   8.238   5.258  0.2243 -0.3237  0.8755
  204MOL0     H28086   7.160   8.365   5.349 -0.4252 -1.9496  1.2247
  204MOL0     H28087   7.328   8.287   5.494  0.4273  0.0095  0.8502
  204MOL0     H28088   7.451   8.277   5.377 -1.0512 -3.3827  2.8642
  204MOL0     H28089   7.512   8.447   5.503  2.0523  1.5452 -3.3034
  204MOL0     H28090   7.453   8.519   5.358  2.1022 -1.6062 -0.9681
  204MOL0     H28091   7.259   8.615   5.457  0.7636 -1.0131 -0.7721
  204MOL0     H28092   7.253   8.482   5.576 -0.3085  0.0622  0.4725
  204MOL0     H28093   7.467   8.570   5.687  1.7516 -1.4100 -4.0470
  204MOL0     H28094   7.325   8.678   5.707 -0.7800  0.4595 -0.3661
  204MOL0     H28095   7.526   8.806   5.656  0.3644 -0.3391 -0.7979
  204MOL0     H28096   7.554   8.713   5.511 -1.0439 -2.1297 -0.4240
  204MOL0     H28097   7.272   8.857   5.532 -1.4211 -0.2261 -3.2024
  204MOL0     H28098   7.364   8.793   5.399 -0.2572 -4.1677  2.1739
  204MOL0     H28099   7.473   9.037   5.560 -0.0556  2.6515 -1.2654
  204MOL0     H28100   7.508   8.988   5.401  0.0898  1.0041  0.0832
  204MOL0     H28101   7.315   8.995   5.188 -1.6699  0.1242 -0.0896
  204MOL0     H28102   7.018   9.132   5.139  0.3590 -2.4233 -1.5609
  204MOL0     H28103   7.166   9.141   5.043  0.9575 -2.5814  2.2445
  204MOL0     H28104   7.027   9.380   5.195  0.3486 -2.1308  0.9301
  204MOL0     H28105   7.176   9.403   5.115 -1.0044  0.4968  0.3363
  204MOL0     H28106   7.070   9.362   4.883  2.0405 -2.6876  0.7359
  204MOL0     H28107   6.923   9.298   4.976  0.5881 -1.5568  3.3617
  204MOL0     H28108   6.908   9.532   4.885 -0.3736 -1.4618  0.0431
  204MOL0     H28109   6.862   9.510   5.055 -0.6962 -0.1379 -1.7247
  204MOL0     H28110   6.792   9.728   4.991  0.1105  0.1590 -0.4619
  204MOL0     H28111   6.725   9.987   4.807  2.8011  3.1770 -0.5954
  204MOL0     H28112   6.723  10.073   4.960 -3.9481  0.4630 -0.7854
  204MOL0     H28113   6.667   9.896   4.943  0.7839 -0.5610 -1.5548
  204MOL0     H28114   7.086  10.454   4.961  2.0992 -1.0578  1.4204
  204MOL0     H28115   7.134  10.631   4.826  0.7079  1.8646 -2.9351
  204MOL0     H28116   7.055  10.725   4.593  0.9407 -4.5010 -1.4194
  204MOL0     H28117   7.192  10.795   4.681 -2.4206 -1.9105  0.9070
  204MOL0     H28118   7.187  10.799   4.375  1.1383 -1.2819  0.3166
  204MOL0     H28119   7.124  10.938   4.480  0.5042  0.5116  0.8901
  204MOL0     H28120   7.408  10.817   4.520  0.2704 -0.2244  1.5915
  204MOL0     H28121   7.341  10.974   4.575  1.4706  0.9364 -0.8782
  204MOL0     H28122   7.379  10.932   4.279 -0.1890  0.9921  0.1519
  204MOL0     H28123   7.490  11.019   4.386  1.8079 -2.5493 -4.0553
  204MOL0     H28124   7.346  11.176   4.268  2.2284 -1.7131  0.2395
  204MOL0     H28125   7.208  11.052   4.290 -1.7508  1.3422  0.8237
  204MOL0     H28126   7.171  11.152   4.503 -0.3508 -0.2278  0.1880
  204MOL0     H28127   7.209  11.292   4.407  1.1574  1.5228 -0.1443
  204MOL0     H28128   7.450  11.162   4.535 -0.7026 -1.0115  3.4446
  204MOL0     H28129   7.332  11.252   4.636 -0.1468 -3.2339 -0.1696
  204MOL0     H28130   7.524  11.396   4.533  1.8861 -0.3143 -2.2241
  204MOL0     H28131   7.359  11.444   4.518 -1.0533  0.2670 -2.9508
  204MOL0     H28132   7.261  10.405   4.502 -0.6386  1.7131 -0.1347
  204MOL0     H28133   7.222  10.191   4.635  2.4236  0.2776 -0.6150
  204MOL0     H28134   7.215   9.994   5.008 -0.3052  0.5418 -1.9570
  204MOL0     H28135   7.227   9.755   5.046  0.1860  0.4955  0.1976
  204MOL0     H28136   7.044   8.345   5.095 -0.0769  0.0461 -1.2693
  204MOL0     H28137   6.863   8.505   5.020  1.1922 -0.3748 -1.9978
  204MOL0     H28138   6.766   8.998   5.087 -0.1879  1.6161  0.2327
  204MOL0     H28139   6.628   9.195   5.067 -1.0133 -0.1038  2.4860
  204MOL0     H28140   6.276   9.290   5.051 -0.8687  0.7055 -2.3556
  204MOL0     H28141   6.445   9.287   5.103 -3.0819 -0.4883  3.2931
  204MOL0     H28142   6.359   9.512   4.974  1.7061 -0.3400 -0.2891
  204MOL0     H28143   6.343   9.410   4.844  0.7362  0.2512  0.2129
  204MOL0     H28144   6.608   9.488   4.997  0.5043 -2.1619  0.6809
  204MOL0     H28145   6.605   9.372   4.870 -0.3636  0.3716 -0.1316
  204MOL0     H28146   6.546   9.509   4.707 -2.7111 -1.9839  3.0128
  204MOL0     H28147   6.679   9.592   4.778 -1.0095  4.0177 -2.1761
  204MOL0     H28148   6.376   9.884   4.779  0.1756  0.2850  4.1395
  204MOL0     H28149   6.361   8.958   4.814 -0.1820 -1.6031  2.5420
  204MOL0     H28150   6.573   8.689   4.787  0.3670  0.8716 -0.8940
  204MOL0     H28151   6.415   8.681   4.891  2.1248 -1.8087  1.1997
  204MOL0     H28152   6.428   8.750   4.733  3.4426 -0.3595 -2.0350
  205MOL0     O28153   7.263   7.451   2.774  0.0008 -0.0281  0.2593
  205MOL0     C28154   7.331   7.482   2.675 -0.2930 -0.2189 -0.0679
  205MOL0     O28155   7.461   7.535   2.675 -0.1862 -0.1426  0.1514
  205MOL0     C28156   7.518   7.572   2.799 -0.3889 -0.5512 -0.2656
  205MOL0     C28157   7.506   7.492   2.917 -0.4041  0.9044 -0.0245
  205MOL0     C28158   7.580   7.540   3.029 -0.2952 -0.2122 -0.5353
  205MOL0     C28159   7.659   7.653   3.026  0.0123 -0.4849 -0.0673
  205MOL0     O28160   7.718   7.692   3.144 -0.3034  0.2010 -0.0711
  205MOL0     C28161   7.684   7.827   3.184 -0.2885 -0.2870 -0.1646
  205MOL0     C28162   7.764   7.849   3.311  0.5028  0.5712 -0.8901
  205MOL0     C28163   7.697   7.965   3.398  0.9523 -0.7881  0.5110
  205MOL0     C28164   7.791   8.018   3.509  0.0100  0.0566  0.1480
  205MOL0     C28165   7.743   8.141   3.583  0.0553 -1.9332  0.5575
  205MOL0     C28166   7.724   8.266   3.492  0.0207 -0.4907 -0.6388
  205MOL0     C28167   7.717   8.401   3.569 -0.2949 -0.4894 -0.4608
  205MOL0     C28168   7.567   8.447   3.597  1.3452 -0.9509 -1.1283
  205MOL0     N28169   7.549   8.564   3.682  0.0838 -0.1419 -0.7203
  205MOL0     C28170   7.450   8.564   3.775  0.6807 -1.1389  0.0808
  205MOL0     C28171   7.465   8.686   3.838 -0.5187 -0.4297 -0.2766
  205MOL0     C28172   7.387   8.740   3.955  0.3807  0.5519  0.4823
  205MOL0     C28173   7.276   8.840   3.904  0.1304 -0.4846  0.3566
  205MOL0     C28174   7.157   8.763   3.836 -1.2396  0.0727 -0.8329
  205MOL0     C28175   7.028   8.839   3.844  0.9570 -0.7277 -0.1781
  205MOL0     O28176   6.926   8.753   3.779 -0.1765  0.2790 -0.3048
  205MOL0     C28177   6.823   8.757   3.859  0.7684  0.2007 -0.0290
  205MOL0     C28178   6.749   8.866   3.868  0.7810 -0.1848 -1.7472
  205MOL0     C28179   6.654   8.868   3.966 -0.6355  0.2299 -1.3834
  205MOL0     C28180   6.572   8.999   3.976 -0.7487  0.2538 -0.0241
  205MOL0     C28181   6.629   8.752   4.047 -0.3465  1.5883  0.3935
  205MOL0     C28182   6.519   8.748   4.136  0.0074 -0.2512  0.2261
  205MOL0     O28183   6.526   8.836   4.244 -0.0379 -0.2511  0.9996
  205MOL0     C28184   6.422   8.851   4.331 -0.2350 -0.9252  0.2361
  205MOL0     C28185   6.357   8.744   4.389  0.0532 -1.2165 -0.8828
  205MOL0     C28186   6.274   8.773   4.500  0.0877  0.8112 -0.0182
  205MOL0     C28187   6.236   8.906   4.537 -0.8272  0.1989 -0.4334
  205MOL0     O28188   6.160   8.920   4.650 -0.5839  0.8377 -0.1407
  205MOL0     C28189   6.077   9.041   4.685 -0.8253  0.3052  0.6371
  205MOL0     C28190   5.955   9.002   4.605  0.5015  0.3821 -0.2329
  205MOL0     C28191   5.882   8.876   4.681  0.5600 -0.0596  0.6962
  205MOL0     C28192   5.733   8.869   4.639  0.1187 -0.4511 -0.1097
  205MOL0     C28193   5.644   8.774   4.721  0.8563 -0.0000  0.8167
  205MOL0     C28194   5.677   8.631   4.697 -0.1717  1.1945  0.2530
  205MOL0     C28195   5.563   8.549   4.758  0.7809  0.7316 -0.9670
  205MOL0     C28196   5.603   8.411   4.754 -0.4532  0.5741  0.2522
  205MOL0    Cl28197   5.770   8.362   4.768  0.7287  0.1694  0.8310
  205MOL0     C28198   6.294   9.012   4.464  0.7467 -0.7003 -0.1517
  205MOL0     C28199   6.397   8.983   4.373  0.6342  0.3326 -0.6297
  205MOL0     O28200   6.424   8.675   4.102 -0.3444 -0.1910 -0.1056
  205MOL0     C28201   6.713   8.640   4.034 -1.1918 -0.0623  0.7000
  205MOL0     C28202   6.812   8.645   3.932  0.2578  0.8027 -1.6269
  205MOL0     N28203   7.576   8.748   3.783  0.0555 -0.2535 -0.1769
  205MOL0     N28204   7.630   8.672   3.693  0.1061  0.2748  0.9393
  205MOL0     C28205   7.664   7.730   2.906  0.8518 -0.1687  0.5116
  205MOL0     C28206   7.600   7.682   2.797 -1.0052  0.5919 -0.2844
  205MOL0     C28207   7.262   7.469   2.548  0.1083 -0.1947  0.7195
  205MOL0     C28208   7.329   7.404   2.442 -0.5161  1.3827  0.6939
  205MOL0     C28209   7.272   7.390   2.315  0.2177  0.5231  0.0197
  205MOL0     C28210   7.152   7.440   2.284  0.0816 -0.5915 -0.3837
  205MOL0     O28211   7.090   7.455   2.169  0.3381 -0.3984  0.0003
  205MOL0     C28212   7.149   7.424   2.043 -0.9200 -0.3883  0.3886
  205MOL0     C28213   7.137   7.274   2.010 -0.0633  0.4424 -0.5557
  205MOL0     C28214   7.005   7.246   1.943 -0.0642  0.2908  0.3821
  205MOL0     C28215   7.010   7.149   1.828  0.3614  0.0877 -0.4296
  205MOL0     C28216   6.875   7.128   1.775 -0.6113  0.2230 -0.4871
  205MOL0     C28217   6.772   7.126   1.711 -0.6151  0.2555 -0.5734
  205MOL0     C28218   7.073   7.484   2.397 -0.4076 -0.8332  0.2491
  205MOL0     C28219   7.122   7.484   2.528  0.2492 -0.2236 -0.0107
  205MOL0     C28220   7.019   7.529   2.629  0.0192 -0.1372 -0.3080
  205MOL0     H28221   7.433   7.411   2.923 -2.3195  2.4660 -1.0744
  205MOL0     H28222   7.559   7.488   3.122  3.6099  0.5838  1.0076
  205MOL0     H28223   7.577   7.839   3.201 -0.3331  0.3878 -0.8900
  205MOL0     H28224   7.706   7.897   3.103  1.0221 -1.8740 -1.2572
  205MOL0     H28225   7.763   7.757   3.370  0.8948 -1.2550 -3.5835
  205MOL0     H28226   7.871   7.866   3.296  0.7474 -0.7600 -0.7659
  205MOL0     H28227   7.669   8.050   3.336  0.0488 -0.2375  1.6336
  205MOL0     H28228   7.600   7.935   3.437 -1.2413 -0.4916 -4.0529
  205MOL0     H28229   7.808   7.935   3.578  2.9461 -0.8362 -1.4747
  205MOL0     H28230   7.886   8.046   3.464  0.2851 -0.1652  0.5805
  205MOL0     H28231   7.813   8.175   3.660 -0.6742  3.2465 -0.6893
  205MOL0     H28232   7.646   8.124   3.629 -0.0035 -1.4749  0.6098
  205MOL0     H28233   7.813   8.274   3.429 -0.4199  0.2914 -1.1819
  205MOL0     H28234   7.634   8.255   3.430 -0.8004 -2.1759  0.7649
  205MOL0     H28235   7.781   8.472   3.516 -1.4431  1.8187  1.0752
  205MOL0     H28236   7.760   8.406   3.669  0.0507 -3.0151 -0.4307
  205MOL0     H28237   7.517   8.445   3.500  2.0187  0.9525 -1.5585
  205MOL0     H28238   7.535   8.363   3.659  0.7165  0.9673  1.2822
  205MOL0     H28239   7.371   8.493   3.797 -0.4227  0.0284 -0.0534
  205MOL0     H28240   7.453   8.785   4.030  0.1501  1.2350  0.2801
  205MOL0     H28241   7.339   8.657   4.007  2.2337 -0.2410  1.0140
  205MOL0     H28242   7.230   8.902   3.981  2.4190  0.4364  1.0714
  205MOL0     H28243   7.321   8.900   3.824  1.2264 -1.8940 -0.1143
  205MOL0     H28244   7.178   8.726   3.735 -0.0984 -3.3845  0.5221
  205MOL0     H28245   7.130   8.677   3.897  1.8070 -0.1690  0.3688
  205MOL0     H28246   7.010   8.864   3.949  0.1729 -1.9860  0.0163
  205MOL0     H28247   7.035   8.933   3.788 -1.1197 -0.6107 -0.3390
  205MOL0     H28248   6.770   8.951   3.803 -2.5905  2.7286  0.5393
  205MOL0     H28249   6.585   9.044   3.877 -2.5475  0.1464 -0.3484
  205MOL0     H28250   6.618   9.059   4.055  1.9593 -1.6437 -0.0575
  205MOL0     H28251   6.467   8.973   3.994 -0.9790  0.4275 -1.0517
  205MOL0     H28252   6.401   8.645   4.374  2.0482 -1.0018  2.4973
  205MOL0     H28253   6.229   8.688   4.550 -0.1651  1.7583  1.4274
  205MOL0     H28254   6.062   9.050   4.793 -1.4770 -1.7365  0.7655
  205MOL0     H28255   6.134   9.125   4.643  0.2219 -0.0012  1.4350
  205MOL0     H28256   5.889   9.087   4.589  2.0312  1.6064 -0.2115
  205MOL0     H28257   5.986   8.991   4.501 -1.5262  1.6261 -1.0449
  205MOL0     H28258   5.879   8.900   4.787 -1.2752  5.2178 -0.2763
  205MOL0     H28259   5.936   8.782   4.666  1.5835  0.6619 -0.3907
  205MOL0     H28260   5.721   8.837   4.535  3.9385  1.1670 -1.2152
  205MOL0     H28261   5.688   8.966   4.663  2.5719  0.3079  1.7875
  205MOL0     H28262   5.653   8.787   4.830  0.7631  0.2407  0.7976
  205MOL0     H28263   5.538   8.785   4.696  0.6217 -3.0278  0.1359
  205MOL0     H28264   5.769   8.623   4.755  0.7128  1.7277 -1.0253
  205MOL0     H28265   5.698   8.594   4.596  3.3548 -0.7430  1.5314
  205MOL0     H28266   5.470   8.575   4.706 -0.0478 -2.0390 -1.0585
  205MOL0     H28267   5.550   8.582   4.861  0.9205 -0.5415 -0.5191
  205MOL0     H28268   5.583   8.385   4.650  3.4343  2.3628 -1.1076
  205MOL0     H28269   5.537   8.346   4.812 -0.4435  0.1069 -0.2462
  205MOL0     H28270   6.268   9.116   4.484 -1.1272 -0.9238 -1.1621
  205MOL0     H28271   6.441   9.077   4.342  1.5840  1.2200  2.9029
  205MOL0     H28272   6.698   8.552   4.094 -1.1791 -0.4028  0.2101
  205MOL0     H28273   6.883   8.563   3.930 -0.8660 -0.3019  0.4521
  205MOL0     H28274   7.721   7.823   2.909  1.7448 -0.6985  0.2192
  205MOL0     H28275   7.628   7.750   2.717 -1.5939  2.4607  1.0128
  205MOL0     H28276   7.435   7.386   2.460  0.0548  2.1461 -1.6104
  205MOL0     H28277   7.337   7.357   2.234  2.2261 -2.3195  2.5571
  205MOL0     H28278   7.094   7.488   1.974 -0.3624  2.1357  2.1370
  205MOL0     H28279   7.247   7.473   2.051 -2.3785  2.4169  4.6447
  205MOL0     H28280   7.146   7.228   2.109  1.5207  2.6614  0.4154
  205MOL0     H28281   7.213   7.237   1.941 -1.9834  1.1980 -3.2215
  205MOL0     H28282   6.941   7.203   2.021 -2.5263  3.6863  0.4771
  205MOL0     H28283   6.955   7.335   1.903 -1.0235 -1.8922 -3.8418
  205MOL0     H28284   7.046   7.049   1.858 -1.3881  0.2858  2.7624
  205MOL0     H28285   7.077   7.189   1.752 -0.1329  1.5507 -0.1107
  205MOL0     H28286   6.681   7.123   1.653 -0.0490  0.6031 -1.4987
  205MOL0     H28287   6.975   7.526   2.376 -0.7112  0.8503  4.2289
  205MOL0     H28288   7.001   7.444   2.696  1.4290 -1.1256 -1.1254
  205MOL0     H28289   7.044   7.609   2.700 -1.5003 -3.6274  4.8012
  205MOL0     H28290   6.922   7.556   2.586  1.8048 -0.3136 -5.0245
  206MOL0     O28291   8.871  11.164   2.585  0.2001 -0.2349 -0.6475
  206MOL0     C28292   8.928  11.145   2.476 -0.4934 -0.2219 -0.2076
  206MOL0     O28293   8.971  11.022   2.431 -0.5357  0.1115  0.0590
  206MOL0     C28294   8.968  10.901   2.506  0.3603  0.2636 -0.5982
  206MOL0     C28295   9.060  10.794   2.480  0.6734 -0.4496 -0.6781
  206MOL0     C28296   9.045  10.670   2.542 -0.0177 -0.2279 -0.7010
  206MOL0     C28297   8.927  10.643   2.620  0.1447  0.1810 -0.3259
  206MOL0     O28298   8.899  10.530   2.687 -0.2947  0.0717 -0.1475
  206MOL0     C28299   8.979  10.402   2.692  0.3388  0.0327  0.1448
  206MOL0     C28300   9.102  10.407   2.796  0.4944  0.2572 -0.0615
  206MOL0     C28301   9.054  10.456   2.938  0.6452  0.5015  0.8424
  206MOL0     C28302   9.166  10.519   3.016 -1.1243  0.3171  0.8111
  206MOL0     C28303   9.107  10.601   3.131  0.4581  0.3262  0.9987
  206MOL0     C28304   9.219  10.642   3.219  0.3786 -0.0480 -0.2107
  206MOL0     C28305   9.284  10.530   3.306  0.0925  0.2830 -0.1166
  206MOL0     C28306   9.422  10.573   3.373  0.7660  0.2443  0.5885
  206MOL0     N28307   9.423  10.702   3.443 -0.6851  0.5551  0.1332
  206MOL0     C28308   9.335  10.735   3.544 -0.2684  0.5415  0.1349
  206MOL0     C28309   9.382  10.852   3.586 -0.1749 -0.3479  0.7044
  206MOL0     C28310   9.318  10.956   3.667  1.1720  0.0675 -0.1188
  206MOL0     C28311   9.384  10.971   3.809  0.7265  0.3385  0.5644
  206MOL0     C28312   9.364  11.115   3.860 -0.1431  0.7465 -0.2122
  206MOL0     C28313   9.217  11.146   3.907 -0.3813  0.6821 -0.4774
  206MOL0     O28314   9.204  11.269   3.976  0.0954  0.0863 -0.1926
  206MOL0     C28315   9.262  11.293   4.097  0.7024 -0.6100  0.5647
  206MOL0     C28316   9.290  11.193   4.193  0.1035 -0.7109  1.1274
  206MOL0     C28317   9.304  11.248   4.328 -0.4247  0.3959  0.5285
  206MOL0     C28318   9.332  11.145   4.435 -0.1208  0.4596  0.0106
  206MOL0     C28319   9.294  11.388   4.358  0.3723  0.0089 -0.0116
  206MOL0     C28320   9.313  11.438   4.496  0.7493 -0.1789 -0.1550
  206MOL0     O28321   9.201  11.488   4.563 -0.1786 -0.5659 -0.7264
  206MOL0     C28322   9.225  11.518   4.696 -0.3179 -2.0704  0.0085
  206MOL0     C28323   9.273  11.425   4.784  0.3928 -0.2572  0.7346
  206MOL0     C28324   9.312  11.462   4.914  0.7939 -1.1557  0.3431
  206MOL0     C28325   9.296  11.593   4.966 -0.8520 -0.9441  1.8235
  206MOL0     O28326   9.341  11.634   5.092  0.0721 -1.0117 -0.0701
  206MOL0     C28327   9.337  11.537   5.197 -0.4311 -0.0215  0.1889
  206MOL0     C28328   9.414  11.579   5.318 -0.6438 -0.3421 -0.2213
  206MOL0     C28329   9.388  11.723   5.356 -0.4349  0.5348 -1.2066
  206MOL0     C28330   9.451  11.746   5.494  0.3861 -0.4225 -0.1121
  206MOL0     C28331   9.417  11.880   5.541  0.4565  0.1700  0.1640
  206MOL0     C28332   9.491  11.997   5.469 -0.0162  0.9841  0.2442
  206MOL0     C28333   9.469  12.135   5.522 -0.2091 -0.1926  0.4576
  206MOL0     C28334   9.475  12.147   5.677  0.4593 -0.1969  0.3220
  206MOL0    Cl28335   9.461  12.318   5.698 -0.0123  0.1535  0.0538
  206MOL0     C28336   9.241  11.690   4.869  0.8684  0.2258 -0.1289
  206MOL0     C28337   9.200  11.649   4.739 -0.5241  0.6225  0.5252
  206MOL0     O28338   9.427  11.429   4.540 -0.1124  0.0484  0.4303
  206MOL0     C28339   9.265  11.477   4.258  0.2090  0.7851  0.3246
  206MOL0     C28340   9.245  11.425   4.133  0.0951  0.0538 -0.7721
  206MOL0     N28341   9.502  10.878   3.519  0.1013 -0.3657 -0.7151
  206MOL0     N28342   9.530  10.789   3.437 -0.4102 -0.0689 -0.0645
  206MOL0     C28343   8.836  10.748   2.645  0.6959  0.2140 -0.1628
  206MOL0     C28344   8.861  10.869   2.592  0.8001 -0.1133 -0.0541
  206MOL0     C28345   8.960  11.265   2.395 -0.1032  0.4119  0.8107
  206MOL0     C28346   9.038  11.234   2.274  0.2266 -0.8020  0.8639
  206MOL0     C28347   9.082  11.340   2.200 -0.7019 -0.7502  0.8559
  206MOL0     C28348   9.056  11.472   2.226  0.2356  0.0057  0.9153
  206MOL0     O28349   9.106  11.562   2.136 -0.0041  0.7276 -0.8166
  206MOL0     C28350   9.026  11.677   2.119 -0.3864  0.2290 -0.0566
  206MOL0     C28351   9.004  11.686   1.962  0.4656  0.5250  0.6937
  206MOL0     C28352   9.128  11.702   1.891 -0.1023  0.0959  0.9851
  206MOL0     C28353   9.114  11.697   1.735 -0.2219 -1.1520  0.8430
  206MOL0     C28354   9.029  11.804   1.674 -1.0487  0.7657  1.1571
  206MOL0     C28355   8.956  11.888   1.636  0.2659  0.2859  0.7838
  206MOL0     C28356   8.989  11.500   2.345  0.1693 -0.4150 -0.3276
  206MOL0     C28357   8.932  11.397   2.421  0.1867 -0.9819  0.6347
  206MOL0     C28358   8.831  11.444   2.525 -0.1429 -1.0174  0.2313
  206MOL0     H28359   9.154  10.806   2.427  1.7291  0.8547  1.3972
  206MOL0     H28360   9.116  10.589   2.537  1.5953  1.0361  0.6160
  206MOL0     H28361   9.016  10.381   2.592 -0.9442 -2.0321  0.0461
  206MOL0     H28362   8.905  10.327   2.723  1.0419 -0.4911  0.5648
  206MOL0     H28363   9.158  10.314   2.797 -0.3394 -0.3153  2.9265
  206MOL0     H28364   9.169  10.486   2.762  1.4300 -0.3414  0.3721
  206MOL0     H28365   8.980  10.535   2.931 -0.3707 -0.3803  1.2988
  206MOL0     H28366   9.008  10.372   2.991 -0.5359  0.9156  0.5046
  206MOL0     H28367   9.236  10.439   3.041 -0.5307  0.6316  0.1475
  206MOL0     H28368   9.218  10.596   2.959  2.1573 -0.8468  1.9751
  206MOL0     H28369   9.040  10.536   3.187  0.8973  0.2751  1.4760
  206MOL0     H28370   9.053  10.687   3.091  1.1726  0.8514  1.1436
  206MOL0     H28371   9.293  10.704   3.166  1.9539  2.1083  4.0377
  206MOL0     H28372   9.178  10.721   3.282  1.8119  1.9062 -1.5719
  206MOL0     H28373   9.306  10.442   3.246  2.2845  0.4872  0.2701
  206MOL0     H28374   9.209  10.505   3.381  0.8570 -2.0043 -0.0541
  206MOL0     H28375   9.461  10.500   3.445  1.4423  0.3230  0.3117
  206MOL0     H28376   9.495  10.569   3.292  1.4188  0.0775  1.1655
  206MOL0     H28377   9.239  10.687   3.559  0.8450 -1.4857  1.1763
  206MOL0     H28378   9.211  10.934   3.669  1.0410  0.5910 -0.7717
  206MOL0     H28379   9.330  11.053   3.618 -1.5782  0.0923 -0.9585
  206MOL0     H28380   9.332  10.898   3.873  0.1143 -0.1498 -0.4594
  206MOL0     H28381   9.492  10.958   3.820  0.5883 -0.2699  1.3402
  206MOL0     H28382   9.429  11.139   3.945 -1.5783 -0.5395  1.3282
  206MOL0     H28383   9.390  11.186   3.781  2.0991 -0.4956 -0.6739
  206MOL0     H28384   9.152  11.147   3.819  2.0336  1.0169 -2.3771
  206MOL0     H28385   9.176  11.065   3.969 -0.1426  1.1124  0.2559
  206MOL0     H28386   9.292  11.085   4.183 -1.8192 -0.7151  0.4399
  206MOL0     H28387   9.394  11.173   4.520 -0.8432  2.0594  0.0515
  206MOL0     H28388   9.378  11.054   4.396  1.7346  2.2105 -2.1822
  206MOL0     H28389   9.236  11.109   4.474  1.3568 -0.2164  3.2847
  206MOL0     H28390   9.296  11.321   4.766 -0.5686 -0.7253  2.0626
  206MOL0     H28391   9.370  11.387   4.968  2.7801 -1.4805 -2.0337
  206MOL0     H28392   9.234  11.536   5.235 -0.2578 -1.7118  0.6674
  206MOL0     H28393   9.361  11.434   5.170 -0.8454  0.4952 -2.3917
  206MOL0     H28394   9.391  11.510   5.400  0.9078 -0.8092 -0.1406
  206MOL0     H28395   9.521  11.566   5.297 -0.9142 -2.2354 -0.5474
  206MOL0     H28396   9.285  11.757   5.359 -1.2481 -1.7421  2.5947
  206MOL0     H28397   9.453  11.782   5.289 -0.1201 -0.1198 -1.4899
  206MOL0     H28398   9.559  11.728   5.504  0.5457  0.4269 -0.2551
  206MOL0     H28399   9.399  11.667   5.550 -1.3305 -1.8878 -3.4594
  206MOL0     H28400   9.309  11.894   5.535  0.6358  1.2954 -0.9499
  206MOL0     H28401   9.448  11.871   5.646  1.5630  0.7634 -0.0965
  206MOL0     H28402   9.465  12.004   5.363 -0.3018  2.0513  0.3754
  206MOL0     H28403   9.598  11.975   5.472 -0.3311 -1.1815 -1.4089
  206MOL0     H28404   9.373  12.177   5.491 -0.8345 -0.3838  2.0743
  206MOL0     H28405   9.553  12.187   5.476  1.1152 -2.4984  0.1097
  206MOL0     H28406   9.568  12.117   5.725 -0.7427  1.4880  4.0803
  206MOL0     H28407   9.400  12.082   5.721  1.5559 -2.6600 -1.2273
  206MOL0     H28408   9.221  11.793   4.896  2.5435 -0.4344  4.6492
  206MOL0     H28409   9.141  11.716   4.677 -2.4455 -1.6408 -0.2499
  206MOL0     H28410   9.262  11.583   4.279 -0.4302  1.8418 -4.0288
  206MOL0     H28411   9.207  11.493   4.057  1.9254  0.0299 -1.7633
  206MOL0     H28412   8.747  10.720   2.700  0.4342  1.6772  0.2023
  206MOL0     H28413   8.783  10.942   2.610 -0.3718 -1.2183 -0.4629
  206MOL0     H28414   9.065  11.136   2.236  0.6249 -0.1715 -0.5493
  206MOL0     H28415   9.118  11.318   2.100 -1.1614 -1.4677  0.8417
  206MOL0     H28416   8.927  11.668   2.164  0.1391 -1.4984  0.8295
  206MOL0     H28417   9.081  11.766   2.152  1.0673 -0.6370 -0.0498
  206MOL0     H28418   8.931  11.766   1.946  0.7042  0.3420 -1.4969
  206MOL0     H28419   8.975  11.587   1.927  0.0075 -0.9010  4.6057
  206MOL0     H28420   9.185  11.791   1.920 -0.3710  0.2526  1.0286
  206MOL0     H28421   9.200  11.625   1.920 -0.2943 -0.1388  0.8475
  206MOL0     H28422   9.078  11.600   1.701  1.6112 -2.2722  1.9340
  206MOL0     H28423   9.211  11.718   1.689 -1.0429  0.0491 -0.4144
  206MOL0     H28424   8.891  11.967   1.604 -1.4996 -1.3514  0.1207
  206MOL0     H28425   8.961  11.603   2.362 -0.9618 -0.4327 -1.8766
  206MOL0     H28426   8.850  11.414   2.628 -1.0079 -1.8077  0.1745
  206MOL0     H28427   8.843  11.553   2.531 -1.3227 -0.9061  1.0066
  206MOL0     H28428   8.726  11.429   2.497 -1.0147  3.8764 -0.0332
  207MOL0     O28429  11.246   8.931   7.346 -0.2081 -0.2592 -0.1065
  207MOL0     C28430  11.276   8.850   7.255 -0.4707 -0.2850 -0.6822
  207MOL0     O28431  11.234   8.850   7.128  0.7630 -0.6060  0.5331
  207MOL0     C28432  11.134   8.926   7.063  0.0253  0.8757 -0.8779
  207MOL0     C28433  11.079   8.878   6.940 -0.1011  0.6029  0.3445
  207MOL0     C28434  10.974   8.949   6.879 -0.1509 -0.0691  0.2727
  207MOL0     C28435  10.923   9.074   6.931  0.0482  0.3651 -0.2919
  207MOL0     O28436  10.826   9.151   6.869  0.4533  0.8561 -0.1579
  207MOL0     C28437  10.792   9.288   6.910  0.1986 -0.1301 -0.0602
  207MOL0     C28438  10.712   9.356   6.794 -0.0173 -0.6828  0.1848
  207MOL0     C28439  10.793   9.440   6.694  0.3089 -0.0205  1.2349
  207MOL0     C28440  10.698   9.500   6.591 -0.0595  0.0779 -0.0271
  207MOL0     C28441  10.768   9.556   6.472  0.0389 -1.3654 -0.0734
  207MOL0     C28442  10.791   9.460   6.352 -0.1820 -0.7726 -0.2805
  207MOL0     C28443  10.849   9.524   6.227 -0.3630 -0.6023  0.1002
  207MOL0     C28444  10.999   9.530   6.237 -0.3299 -1.2076 -0.6028
  207MOL0     N28445  11.059   9.552   6.105  0.1062 -0.3025 -0.5290
  207MOL0     C28446  11.050   9.470   5.998  1.1179 -0.0124  0.6163
  207MOL0     C28447  11.123   9.537   5.894  0.7178 -0.1149  0.2156
  207MOL0     C28448  11.138   9.483   5.752 -0.6062 -0.0626 -0.2964
  207MOL0     C28449  11.057   9.558   5.655  0.2957  0.5204 -0.3551
  207MOL0     C28450  11.111   9.710   5.646  0.6557  0.8092  0.2484
  207MOL0     C28451  11.041   9.799   5.543 -0.1223  0.9952 -0.7923
  207MOL0     O28452  10.899   9.803   5.574 -0.3407 -0.1575 -1.1622
  207MOL0     C28453  10.851   9.909   5.640 -0.3329  0.0940 -0.1631
  207MOL0     C28454  10.719   9.944   5.622 -0.4016  0.2720  0.7475
  207MOL0     C28455  10.667  10.064   5.669  0.1553  0.3239  0.5842
  207MOL0     C28456  10.524  10.096   5.623 -0.0614  0.6563 -0.4500
  207MOL0     C28457  10.741  10.144   5.759  0.2377 -0.7278  0.9214
  207MOL0     C28458  10.687  10.262   5.837 -0.0558  0.0698  0.2682
  207MOL0     O28459  10.783  10.344   5.902  1.2875  0.1233  0.0479
  207MOL0     C28460  10.743  10.450   5.977  0.0353  0.8311 -0.1219
  207MOL0     C28461  10.774  10.441   6.113  0.2907 -0.5465 -0.7298
  207MOL0     C28462  10.723  10.543   6.195 -0.6915 -0.3002  1.1405
  207MOL0     C28463  10.662  10.663   6.151  0.7019 -0.9817  1.0955
  207MOL0     O28464  10.619  10.760   6.240 -0.3162 -0.3242  0.1141
  207MOL0     C28465  10.726  10.843   6.293 -0.0230  0.1415 -0.0445
  207MOL0     C28466  10.689  10.950   6.394  0.9963 -0.0113 -0.3173
  207MOL0     C28467  10.582  11.047   6.343 -0.1336  0.9659  0.4348
  207MOL0     C28468  10.520  11.135   6.460 -0.1499 -0.3710 -1.1507
  207MOL0     C28469  10.422  11.234   6.411 -0.0814  0.1179 -0.1342
  207MOL0     C28470  10.373  11.337   6.510  0.7450  0.4810  0.8169
  207MOL0     C28471  10.237  11.393   6.471  1.0068 -0.1883  0.9361
  207MOL0     C28472  10.258  11.490   6.355 -0.1101 -0.9119 -0.5337
  207MOL0    Cl28473  10.284  11.426   6.192 -0.3056  0.0455 -0.0687
  207MOL0     C28474  10.628  10.663   6.009 -0.2788 -0.3388  0.1846
  207MOL0     C28475  10.659  10.551   5.926 -0.7596 -0.1635  0.1739
  207MOL0     O28476  10.566  10.262   5.858  0.5787  0.0416 -0.1528
  207MOL0     C28477  10.877  10.109   5.774 -0.9682 -0.5481 -0.6008
  207MOL0     C28478  10.934   9.994   5.712 -0.0100 -0.1436 -0.5477
  207MOL0     N28479  11.180   9.651   5.948 -0.1020 -0.1871 -0.0457
  207MOL0     N28480  11.140   9.657   6.071  0.5011  0.1266  0.5117
  207MOL0     C28481  10.985   9.122   7.046 -0.3743 -0.3925 -0.3568
  207MOL0     C28482  11.092   9.052   7.112 -0.6339 -0.3971 -0.3440
  207MOL0     C28483  11.351   8.727   7.307 -0.1908 -0.3335  0.3508
  207MOL0     C28484  11.339   8.688   7.445  1.0190  0.3322 -0.0566
  207MOL0     C28485  11.389   8.566   7.490  0.7898  0.0568  0.1180
  207MOL0     C28486  11.454   8.474   7.401  0.9624 -0.1681  0.1799
  207MOL0     O28487  11.492   8.349   7.446  0.8340 -0.4119 -0.5338
  207MOL0     C28488  11.408   8.238   7.397 -0.3439 -0.2923 -1.1955
  207MOL0     C28489  11.290   8.226   7.490  0.8196 -0.3764 -0.3468
  207MOL0     C28490  11.195   8.109   7.479 -0.3390 -0.3208  0.2632
  207MOL0     C28491  11.276   7.975   7.487 -0.3892  0.0616 -0.2516
  207MOL0     C28492  11.190   7.855   7.512 -0.2069 -0.2233  0.6607
  207MOL0     C28493  11.116   7.765   7.527  0.5260  1.2269  0.2089
  207MOL0     C28494  11.482   8.524   7.269  0.5542  0.8791 -0.5932
  207MOL0     C28495  11.440   8.652   7.227 -0.8136 -0.0847  0.1567
  207MOL0     C28496  11.484   8.696   7.085  0.0624  0.0749 -0.1678
  207MOL0     H28497  11.106   8.784   6.893  3.3008  1.9735 -0.7818
  207MOL0     H28498  10.919   8.908   6.795  0.5565  1.1095 -0.7992
  207MOL0     H28499  10.891   9.334   6.924 -1.1669  2.3848  2.2148
  207MOL0     H28500  10.726   9.291   6.997 -1.7387 -0.8496 -1.4335
  207MOL0     H28501  10.665   9.282   6.728  2.0694 -1.1880 -0.8357
  207MOL0     H28502  10.630   9.411   6.840  2.6062  1.8242  2.2119
  207MOL0     H28503  10.845   9.522   6.744  3.5352  0.4474 -2.3781
  207MOL0     H28504  10.870   9.379   6.644  0.7373 -0.2601  2.1675
  207MOL0     H28505  10.623   9.427   6.561  0.4233 -0.3692 -0.1800
  207MOL0     H28506  10.642   9.578   6.645  0.5547  2.1283 -2.1803
  207MOL0     H28507  10.863   9.596   6.508 -0.9409  1.4117 -0.3415
  207MOL0     H28508  10.705   9.640   6.441  0.3285 -1.3602 -0.6719
  207MOL0     H28509  10.850   9.371   6.377  0.6549 -0.6012 -1.5975
  207MOL0     H28510  10.690   9.425   6.328 -0.0067 -1.3316 -0.2165
  207MOL0     H28511  10.795   9.619   6.214  2.1087  1.1300  1.5162
  207MOL0     H28512  10.827   9.466   6.137  1.5471  1.5069 -1.8311
  207MOL0     H28513  11.040   9.610   6.300  3.3481 -2.0392 -1.6812
  207MOL0     H28514  11.035   9.438   6.285 -1.2362 -0.7320  1.0770
  207MOL0     H28515  11.009   9.370   6.002  0.1983  0.3901  1.8534
  207MOL0     H28516  11.105   9.380   5.765  2.6072 -1.3106 -1.1752
  207MOL0     H28517  11.246   9.482   5.735 -0.5109  1.2192  0.0857
  207MOL0     H28518  11.068   9.499   5.563  1.9084 -2.6022  1.6820
  207MOL0     H28519  10.952   9.552   5.687  1.2026 -2.5410  2.6455
  207MOL0     H28520  11.106   9.760   5.743  3.0390  0.2254  0.7424
  207MOL0     H28521  11.219   9.697   5.630  0.0873 -3.0153 -1.6385
  207MOL0     H28522  11.085   9.898   5.530  2.5085  0.1170  0.7426
  207MOL0     H28523  11.045   9.736   5.454  1.0068 -1.2536  0.7557
  207MOL0     H28524  10.658   9.864   5.582 -2.0443  1.2669  1.1814
  207MOL0     H28525  10.509  10.038   5.532 -1.3135 -0.8398  0.6387
  207MOL0     H28526  10.527  10.203   5.598 -2.8465  0.7467 -0.7696
  207MOL0     H28527  10.440  10.073   5.690 -1.5157 -0.4207 -2.5158
  207MOL0     H28528  10.855  10.373   6.138  2.4511  1.6260 -1.4812
  207MOL0     H28529  10.741  10.535   6.302 -0.0115  1.8278  1.2309
  207MOL0     H28530  10.794  10.788   6.359  0.8309  0.5880 -0.5352
  207MOL0     H28531  10.781  10.892   6.212  0.1165  0.9754  0.5461
  207MOL0     H28532  10.642  10.908   6.484  2.2242  2.4128  1.5855
  207MOL0     H28533  10.782  11.001   6.421 -0.4518  3.2316 -1.0276
  207MOL0     H28534  10.505  11.003   6.281 -0.0419 -0.0905  1.0528
  207MOL0     H28535  10.630  11.126   6.285  1.9376 -0.4028  0.1832
  207MOL0     H28536  10.604  11.184   6.510  0.4116 -1.2732 -1.1956
  207MOL0     H28537  10.456  11.072   6.523 -2.7606  1.6791 -1.5912
  207MOL0     H28538  10.460  11.273   6.316 -2.9169 -2.7779 -2.7102
  207MOL0     H28539  10.336  11.173   6.380 -0.8622  0.5222  1.1403
  207MOL0     H28540  10.434  11.428   6.518 -0.3957  1.3964 -0.4314
  207MOL0     H28541  10.357  11.297   6.611 -1.5202  1.2345  0.8286
  207MOL0     H28542  10.191  11.441   6.559  3.1444 -0.0411  2.0281
  207MOL0     H28543  10.171  11.308   6.450 -1.9388  1.4178  2.9320
  207MOL0     H28544  10.327  11.572   6.375 -2.8624  1.1466  1.3642
  207MOL0     H28545  10.158  11.533   6.342  0.6553  0.3394 -2.7326
  207MOL0     H28546  10.569  10.752   5.994  2.8266  2.4898  3.0070
  207MOL0     H28547  10.635  10.545   5.821  0.5582 -7.3630 -0.2285
  207MOL0     H28548  10.947  10.161   5.838 -1.5783 -2.7811  2.0679
  207MOL0     H28549  11.041   9.976   5.722  0.2142 -1.1582 -3.7186
  207MOL0     H28550  10.966   9.222   7.083 -3.3133 -1.2694  0.7751
  207MOL0     H28551  11.154   9.095   7.190 -1.0418  0.9652 -0.7430
  207MOL0     H28552  11.284   8.754   7.510 -2.2470 -0.8226 -1.4368
  207MOL0     H28553  11.374   8.537   7.593 -2.2762 -1.3833 -0.6109
  207MOL0     H28554  11.366   8.264   7.299  2.9952  3.4988 -1.9413
  207MOL0     H28555  11.466   8.145   7.391  1.4688  0.0631  4.7029
  207MOL0     H28556  11.227   8.315   7.488  2.0125  0.8422  4.1604
  207MOL0     H28557  11.322   8.238   7.594 -1.4207 -0.1876  0.3783
  207MOL0     H28558  11.121   8.112   7.560 -0.9784  1.6594 -0.3569
  207MOL0     H28559  11.143   8.116   7.383  0.3589  1.7002 -0.0046
  207MOL0     H28560  11.355   7.982   7.562 -0.0484  0.6838 -0.6632
  207MOL0     H28561  11.325   7.962   7.390 -1.9701 -2.1330 -0.8575
  207MOL0     H28562  11.031   7.701   7.539  0.1691  2.1076  3.0611
  207MOL0     H28563  11.539   8.451   7.212  1.7605 -2.0517  3.8913
  207MOL0     H28564  11.534   8.608   7.043  1.2616  0.0680  1.1899
  207MOL0     H28565  11.396   8.727   7.028  0.3840  4.1595  1.2270
  207MOL0     H28566  11.542   8.787   7.102 -3.5193  2.1363  2.4339
  208MOL0     O28567   6.140   6.988   6.910  0.1561  0.0333 -0.1219
  208MOL0     C28568   6.264   6.981   6.898  0.0025 -0.1496 -0.5965
  208MOL0     O28569   6.333   6.869   6.893  0.4519  0.5960  0.1880
  208MOL0     C28570   6.263   6.751   6.919 -0.4804 -1.0632  0.7253
  208MOL0     C28571   6.188   6.722   7.037 -0.2152 -0.9242  0.5425
  208MOL0     C28572   6.113   6.603   7.044  0.1261  0.8981 -0.3688
  208MOL0     C28573   6.118   6.526   6.933  0.3139 -0.7982 -0.3367
  208MOL0     O28574   6.041   6.413   6.942 -0.0299 -0.3746  0.1433
  208MOL0     C28575   5.978   6.369   6.823 -0.1925  0.4615  0.5489
  208MOL0     C28576   5.903   6.241   6.845 -0.6284 -0.1032 -0.9394
  208MOL0     C28577   5.894   6.176   6.715 -0.2030 -0.5937  0.5103
  208MOL0     C28578   5.798   6.058   6.718  0.6538 -0.7697  0.2407
  208MOL0     C28579   5.803   5.964   6.601 -0.7381  0.7758 -0.0960
  208MOL0     C28580   5.692   5.854   6.599 -0.8050  0.4596  0.2326
  208MOL0     C28581   5.701   5.755   6.723  0.2861  0.0743 -1.2497
  208MOL0     C28582   5.610   5.624   6.712 -0.0912 -0.8164 -0.0728
  208MOL0     N28583   5.642   5.509   6.804  0.3654  0.3585  0.1557
  208MOL0     C28584   5.663   5.527   6.936  0.1138 -1.2908 -0.0656
  208MOL0     C28585   5.684   5.406   6.981  0.1178  0.0766  0.2622
  208MOL0     C28586   5.735   5.357   7.116 -0.5856 -0.5640 -0.3647
  208MOL0     C28587   5.626   5.272   7.202  0.0613 -0.2664  0.4079
  208MOL0     C28588   5.510   5.359   7.250 -0.3427  0.2432  0.0890
  208MOL0     C28589   5.430   5.285   7.367 -0.0269  0.1634  0.8340
  208MOL0     O28590   5.500   5.322   7.480 -0.6452 -0.0226  0.2146
  208MOL0     C28591   5.442   5.287   7.599  0.6007  0.6977 -0.1523
  208MOL0     C28592   5.401   5.385   7.694 -1.0733 -0.5135 -0.5545
  208MOL0     C28593   5.358   5.355   7.828 -0.8014  0.5984 -0.6793
  208MOL0     C28594   5.316   5.472   7.912  0.3262 -0.6855 -0.5251
  208MOL0     C28595   5.338   5.211   7.862 -0.4148 -0.3438  1.6723
  208MOL0     C28596   5.277   5.159   7.981  0.2040 -0.6367  0.4953
  208MOL0     O28597   5.259   5.028   7.977  0.5721  0.2132  0.6806
  208MOL0     C28598   5.178   4.974   8.078 -0.1765  0.5932  0.2094
  208MOL0     C28599   5.241   4.917   8.187 -0.9027  0.6896 -0.5599
  208MOL0     C28600   5.169   4.857   8.289 -0.1394 -0.7203 -0.1076
  208MOL0     C28601   5.030   4.843   8.285 -0.4336  0.1624  0.7371
  208MOL0     O28602   4.960   4.782   8.394 -0.3905  0.4996 -0.6403
  208MOL0     C28603   4.871   4.671   8.368 -0.3258 -0.2539 -0.6774
  208MOL0     C28604   4.912   4.549   8.461 -0.1800  0.1024 -0.3374
  208MOL0     C28605   5.055   4.489   8.461  0.1274  0.0403  0.3915
  208MOL0     C28606   5.080   4.441   8.315  0.1783 -0.0164  0.3957
  208MOL0     C28607   5.201   4.341   8.308  0.6872  0.4661 -0.8631
  208MOL0     C28608   5.344   4.395   8.320 -0.2737 -0.3531  0.0593
  208MOL0     C28609   5.457   4.293   8.328 -0.2343  0.2446 -0.3604
  208MOL0     C28610   5.585   4.350   8.399  0.2137  0.1406 -0.2374
  208MOL0    Cl28611   5.561   4.334   8.582  0.0775 -0.9822 -0.3989
  208MOL0     C28612   4.965   4.895   8.172 -0.6685 -0.9335  0.4824
  208MOL0     C28613   5.033   4.955   8.071 -0.4068 -0.3375 -0.7368
  208MOL0     O28614   5.239   5.240   8.063  0.7286 -0.2854 -0.5048
  208MOL0     C28615   5.384   5.116   7.757 -0.3627 -0.0684  0.0152
  208MOL0     C28616   5.447   5.152   7.639 -0.3761 -0.1305  0.1231
  208MOL0     N28617   5.672   5.318   6.869  0.2577 -0.2781 -0.3688
  208MOL0     N28618   5.650   5.381   6.764  0.3203 -0.7083 -0.7483
  208MOL0     C28619   6.201   6.555   6.823 -0.5005  1.3716 -0.0335
  208MOL0     C28620   6.273   6.662   6.817 -0.1702 -0.0878 -0.6733
  208MOL0     C28621   6.341   7.103   6.903 -0.1716 -0.1876  0.4672
  208MOL0     C28622   6.279   7.233   6.894 -0.3645  0.1714  0.6753
  208MOL0     C28623   6.348   7.348   6.901  0.7375 -1.0302 -1.0293
  208MOL0     C28624   6.481   7.346   6.908  0.4802 -1.1293 -0.0400
  208MOL0     O28625   6.555   7.465   6.911 -0.7481 -0.3785  0.1416
  208MOL0     C28626   6.562   7.522   6.779 -1.1748 -0.4026  0.3629
  208MOL0     C28627   6.692   7.609   6.772 -0.3689 -1.1074 -0.2333
  208MOL0     C28628   6.813   7.525   6.786  1.0072  0.4009 -0.6369
  208MOL0     C28629   6.946   7.593   6.759  0.3829  0.3480 -0.3862
  208MOL0     C28630   6.969   7.623   6.612 -1.3873 -0.0539 -0.6285
  208MOL0     C28631   6.957   7.664   6.501  0.4095 -0.0244  0.6617
  208MOL0     C28632   6.549   7.228   6.908 -0.4080  0.0001 -0.1786
  208MOL0     C28633   6.489   7.103   6.895  0.3229  0.3326 -0.9684
  208MOL0     C28634   6.578   6.983   6.916 -0.5197 -0.2968 -0.4917
  208MOL0     H28635   6.172   6.804   7.106 -0.2219  1.6062 -2.2534
  208MOL0     H28636   6.045   6.572   7.123  0.2349 -0.1010 -0.6634
  208MOL0     H28637   6.051   6.346   6.744 -0.8349  1.1389 -0.2692
  208MOL0     H28638   5.923   6.456   6.785  2.1770  0.6362 -3.0163
  208MOL0     H28639   5.954   6.187   6.926  0.3610 -1.4145 -2.3978
  208MOL0     H28640   5.801   6.256   6.883  0.7351  1.3919  2.5352
  208MOL0     H28641   5.869   6.245   6.634  0.6253 -1.4035 -0.4621
  208MOL0     H28642   5.992   6.137   6.686  0.7134  2.1136 -0.3178
  208MOL0     H28643   5.821   6.005   6.811 -2.5599  0.5509  1.9584
  208MOL0     H28644   5.699   6.098   6.740  0.6357 -1.8455  2.4394
  208MOL0     H28645   5.905   5.926   6.598 -0.1640  2.3418 -1.1901
  208MOL0     H28646   5.773   6.017   6.511 -2.3827 -1.7079 -1.1219
  208MOL0     H28647   5.591   5.895   6.588 -1.6342 -1.3815  0.6949
  208MOL0     H28648   5.703   5.795   6.508  0.9428  1.1556 -0.0356
  208MOL0     H28649   5.681   5.815   6.812 -2.2796  1.4201 -2.6035
  208MOL0     H28650   5.805   5.723   6.730  1.3968  3.0400 -2.3816
  208MOL0     H28651   5.513   5.668   6.737  0.6885  0.5571  0.6788
  208MOL0     H28652   5.596   5.580   6.613 -0.4150  0.8348 -0.7967
  208MOL0     H28653   5.657   5.624   6.984 -0.8571 -1.5892  0.4248
  208MOL0     H28654   5.767   5.444   7.173 -1.1805 -0.0803 -0.7568
  208MOL0     H28655   5.821   5.293   7.095  2.2885  2.9368 -0.1448
  208MOL0     H28656   5.579   5.191   7.146 -1.5839  1.2253 -0.4777
  208MOL0     H28657   5.675   5.214   7.281  0.8904 -1.0694 -0.6717
  208MOL0     H28658   5.540   5.460   7.278  1.2802  0.6483 -2.7661
  208MOL0     H28659   5.434   5.361   7.172 -0.1137  0.4132 -0.1286
  208MOL0     H28660   5.329   5.327   7.372 -0.0135  0.1009  1.8800
  208MOL0     H28661   5.419   5.178   7.347 -1.2028  0.1352  1.5359
  208MOL0     H28662   5.433   5.487   7.675 -1.0941 -0.2940  0.5481
  208MOL0     H28663   5.323   5.570   7.862  0.7411 -0.9089 -0.9164
  208MOL0     H28664   5.379   5.484   8.000  0.2204 -1.6879 -0.3001
  208MOL0     H28665   5.211   5.455   7.940 -0.7839  1.7343 -2.6990
  208MOL0     H28666   5.349   4.930   8.194 -0.7610 -0.3689 -0.6106
  208MOL0     H28667   5.230   4.821   8.372  0.0983 -1.0729 -0.4293
  208MOL0     H28668   4.770   4.710   8.383 -1.7430 -3.3843 -1.2947
  208MOL0     H28669   4.867   4.637   8.265 -2.9622  0.1317 -0.7810
  208MOL0     H28670   4.899   4.591   8.561  0.2435 -2.5460  0.8975
  208MOL0     H28671   4.832   4.475   8.452 -0.3695 -0.5867  4.6051
  208MOL0     H28672   5.065   4.403   8.528 -0.4769 -0.5411 -0.2396
  208MOL0     H28673   5.118   4.574   8.489  0.2349  0.7128 -1.6859
  208MOL0     H28674   5.107   4.527   8.252  0.5750 -0.2884  0.1852
  208MOL0     H28675   4.991   4.391   8.277  2.0805 -0.7687 -3.7039
  208MOL0     H28676   5.185   4.274   8.393  0.9965 -0.4847 -1.5306
  208MOL0     H28677   5.179   4.283   8.218 -2.0265 -0.5074  0.3385
  208MOL0     H28678   5.346   4.470   8.400 -2.8788 -0.1237 -0.0032
  208MOL0     H28679   5.363   4.462   8.235  3.1942  0.8983  1.6140
  208MOL0     H28680   5.477   4.268   8.223  1.2353  2.9805 -0.8204
  208MOL0     H28681   5.406   4.205   8.368 -3.5861  1.5625 -1.3657
  208MOL0     H28682   5.597   4.455   8.371  0.7197  0.3440  0.7077
  208MOL0     H28683   5.673   4.298   8.362 -0.9365 -0.0040 -3.0112
  208MOL0     H28684   4.862   4.867   8.150 -0.2043 -0.4769 -2.8654
  208MOL0     H28685   4.970   4.990   7.991 -0.6750  2.6359  0.6282
  208MOL0     H28686   5.392   5.011   7.782  1.1422 -0.1619 -0.7610
  208MOL0     H28687   5.486   5.086   7.563  1.3178  1.3934 -0.4148
  208MOL0     H28688   6.210   6.484   6.742  3.9609  1.1944  0.3934
  208MOL0     H28689   6.333   6.679   6.728  2.6576  0.9648  1.2866
  208MOL0     H28690   6.171   7.239   6.882 -0.0772  2.7690 -1.7643
  208MOL0     H28691   6.304   7.447   6.905 -1.1652 -1.8601  0.0074
  208MOL0     H28692   6.571   7.449   6.698  1.9100 -1.0212  1.1133
  208MOL0     H28693   6.474   7.577   6.745  0.4380  3.0031  1.2449
  208MOL0     H28694   6.696   7.679   6.856 -2.0454 -3.5284  2.0474
  208MOL0     H28695   6.680   7.657   6.675 -2.5517  0.2760  0.6609
  208MOL0     H28696   6.809   7.497   6.892 -2.7096  0.5170 -0.6249
  208MOL0     H28697   6.791   7.433   6.731  0.8939 -0.4511  0.7748
  208MOL0     H28698   7.029   7.533   6.797 -0.0807 -0.0940 -0.0441
  208MOL0     H28699   6.938   7.683   6.821 -0.2614 -0.5791  0.9470
  208MOL0     H28700   6.945   7.694   6.399  0.8398  2.1473  1.1990
  208MOL0     H28701   6.656   7.238   6.921 -0.2165 -0.1858 -1.4856
  208MOL0     H28702   6.565   6.919   6.829 -1.7052 -0.5202 -0.1656
  208MOL0     H28703   6.681   7.020   6.928 -0.3162 -1.2440  1.0534
  208MOL0     H28704   6.552   6.925   7.005 -3.6619  0.8692 -0.5480
  209MOL0     O28705   3.315   5.493  10.849 -0.3530 -0.2897 -0.3581
  209MOL0     C28706   3.262   5.393  10.796  0.2392 -0.1135 -0.5607
  209MOL0     O28707   3.314   5.307  10.702  0.0015 -0.6461  0.4817
  209MOL0     C28708   3.442   5.329  10.678  0.9453 -0.2608  0.1700
  209MOL0     C28709   3.540   5.266  10.756 -0.3417  0.0970  0.6151
  209MOL0     C28710   3.677   5.287  10.726  0.0645 -0.5505 -0.3227
  209MOL0     C28711   3.712   5.368  10.622  0.7930  0.2415  0.0303
  209MOL0     O28712   3.846   5.365  10.592  0.3680 -0.1113  0.5588
  209MOL0     C28713   3.921   5.472  10.657 -0.3182 -1.5255  0.6618
  209MOL0     C28714   4.065   5.440  10.636 -0.8649 -0.4356 -0.5957
  209MOL0     C28715   4.152   5.518  10.731  0.8830  0.0126  1.1309
  209MOL0     C28716   4.138   5.479  10.870  0.2280  0.3067 -0.8343
  209MOL0     C28717   4.221   5.545  10.982  0.9157  0.0747  0.3470
  209MOL0     C28718   4.363   5.572  10.929  0.0273  0.1762  0.8246
  209MOL0     C28719   4.451   5.644  11.040 -0.7975 -0.0679  1.1013
  209MOL0     C28720   4.584   5.691  10.975  0.9364  0.3702  0.4915
  209MOL0     N28721   4.654   5.786  11.063  0.3313 -0.4957  0.4722
  209MOL0     C28722   4.685   5.914  11.035  0.0906  0.3325 -0.1371
  209MOL0     C28723   4.781   5.943  11.124  0.9625 -0.0330 -0.3830
  209MOL0     C28724   4.829   6.080  11.144  0.3375  0.0965  0.3020
  209MOL0     C28725   4.972   6.115  11.082 -0.8978 -0.4637  0.5810
  209MOL0     C28726   4.954   6.157  10.937  1.3808  0.1658  0.4224
  209MOL0     C28727   5.096   6.160  10.875 -0.0299  0.0950 -0.0763
  209MOL0     O28728   5.171   6.267  10.926 -0.3187 -0.1548 -0.6931
  209MOL0     C28729   5.163   6.391  10.867  0.0857  0.7945  0.1202
  209MOL0     C28730   5.069   6.451  10.771  0.1385  0.5113 -0.4210
  209MOL0     C28731   5.070   6.587  10.731  1.0191  0.3791  0.5526
  209MOL0     C28732   4.961   6.636  10.639  0.6975  0.2579 -0.6336
  209MOL0     C28733   5.178   6.670  10.784  0.8760  0.2827 -0.0983
  209MOL0     C28734   5.201   6.812  10.743 -0.3368  0.4673 -0.8610
  209MOL0     O28735   5.306   6.880  10.810 -0.2773 -0.2443 -0.9569
  209MOL0     C28736   5.331   7.013  10.773  0.6700  0.2118 -0.2774
  209MOL0     C28737   5.356   7.048  10.643 -1.2262  0.3185 -0.4855
  209MOL0     C28738   5.398   7.186  10.611  0.4933  0.3857  0.2711
  209MOL0     C28739   5.417   7.281  10.715 -0.4475  0.1213 -0.2664
  209MOL0     O28740   5.462   7.411  10.706  0.2287 -0.1281  0.9156
  209MOL0     C28741   5.543   7.453  10.597 -0.8098 -1.2214  0.1860
  209MOL0     C28742   5.547   7.597  10.631 -0.5855 -0.7300  1.1824
  209MOL0     C28743   5.639   7.682  10.539  0.1943 -0.2727 -0.4679
  209MOL0     C28744   5.641   7.827  10.577  0.5689 -0.1890 -0.6583
  209MOL0     C28745   5.656   7.853  10.723 -0.8404  0.3641  0.5169
  209MOL0     C28746   5.791   7.811  10.774 -0.2951  0.3584  0.9772
  209MOL0     C28747   5.910   7.901  10.742 -0.1181  0.6714  0.0125
  209MOL0     C28748   6.013   7.900  10.854 -0.2550 -0.5756 -1.3502
  209MOL0    Cl28749   6.034   7.746  10.942 -0.4970 -0.2702  0.1268
  209MOL0     C28750   5.401   7.237  10.851  0.0085 -0.4429 -0.1112
  209MOL0     C28751   5.353   7.105  10.877  0.4965 -0.4314  0.3026
  209MOL0     O28752   5.137   6.858  10.650  0.0357 -0.2423 -0.6136
  209MOL0     C28753   5.266   6.613  10.876  0.1366 -0.5292 -0.0278
  209MOL0     C28754   5.257   6.478  10.915 -1.1170  0.1828  0.5948
  209MOL0     N28755   4.812   5.834  11.202  1.3669  0.0033 -0.0378
  209MOL0     N28756   4.740   5.740  11.159  1.1157 -0.6178  0.4765
  209MOL0     C28757   3.619   5.431  10.535 -0.1452 -0.0202  0.1139
  209MOL0     C28758   3.486   5.408  10.564  0.8156  1.4086 -0.4735
  209MOL0     C28759   3.125   5.363  10.851 -0.5152 -0.0851 -0.0469
  209MOL0     C28760   3.096   5.229  10.853  0.4500  0.5858 -0.1970
  209MOL0     C28761   2.967   5.182  10.872  0.5316 -0.5699 -0.5277
  209MOL0     C28762   2.877   5.263  10.930  0.3190 -1.0558 -0.5573
  209MOL0     O28763   2.757   5.207  10.972  0.8902 -1.0441  0.0191
  209MOL0     C28764   2.708   5.278  11.089  0.1262 -0.1022 -0.8152
  209MOL0     C28765   2.622   5.189  11.167 -0.0661  0.1584 -0.3009
  209MOL0     C28766   2.516   5.259  11.245 -0.2499 -0.3984 -0.5088
  209MOL0     C28767   2.443   5.161  11.335 -0.3538 -0.0238  0.2748
  209MOL0     C28768   2.317   5.207  11.393 -0.3070 -1.1978  0.1263
  209MOL0     C28769   2.211   5.255  11.427  0.1050 -0.1846  0.2163
  209MOL0     C28770   2.911   5.403  10.931 -0.1334  0.7121  0.6484
  209MOL0     C28771   3.027   5.455  10.886 -0.0281 -0.3347 -0.3192
  209MOL0     C28772   3.032   5.602  10.886 -0.6677  0.2027 -0.2563
  209MOL0     H28773   3.505   5.192  10.827  0.5745  0.2347  1.2250
  209MOL0     H28774   3.755   5.239  10.784 -1.5889  0.0223  2.5781
  209MOL0     H28775   3.877   5.467  10.757 -1.8753  2.9074  0.4232
  209MOL0     H28776   3.892   5.569  10.617  0.8512 -0.6770  1.7906
  209MOL0     H28777   4.095   5.336  10.654  3.2444  0.8012  0.8419
  209MOL0     H28778   4.106   5.470  10.539  0.8939  0.3730  0.3472
  209MOL0     H28779   4.256   5.499  10.702  0.6559  0.0834  0.2336
  209MOL0     H28780   4.148   5.626  10.716  0.7722 -0.2217 -0.7894
  209MOL0     H28781   4.036   5.497  10.904  0.8628 -1.1442  2.1749
  209MOL0     H28782   4.140   5.370  10.873  0.0816  0.3233  0.8461
  209MOL0     H28783   4.223   5.464  11.056 -1.5801 -2.6643 -2.3284
  209MOL0     H28784   4.177   5.634  11.028  0.1172 -0.2793  0.2840
  209MOL0     H28785   4.399   5.473  10.898  1.2230  1.2666 -1.5272
  209MOL0     H28786   4.354   5.629  10.836 -1.4736 -1.4310 -0.0742
  209MOL0     H28787   4.472   5.578  11.124 -0.6981  0.7617  1.7401
  209MOL0     H28788   4.394   5.732  11.073 -1.2017  1.2102 -2.5234
  209MOL0     H28789   4.644   5.605  10.945  2.0127  1.5482 -0.8614
  209MOL0     H28790   4.566   5.735  10.876  3.1627  0.9042  0.2800
  209MOL0     H28791   4.646   5.973  10.953  0.8103  0.6084 -0.2810
  209MOL0     H28792   4.819   6.094  11.252  0.3817  1.1392  0.1715
  209MOL0     H28793   4.755   6.151  11.107  0.4803  0.1799  0.1778
  209MOL0     H28794   5.027   6.194  11.133  1.0557 -0.8013 -0.8968
  209MOL0     H28795   5.037   6.027  11.089 -0.8431 -0.5702 -0.8762
  209MOL0     H28796   4.884   6.085  10.892 -0.8707  1.9301  0.9277
  209MOL0     H28797   4.910   6.257  10.941  1.3837  0.1376  2.9743
  209MOL0     H28798   5.143   6.061  10.887 -2.9712 -1.7453 -2.2767
  209MOL0     H28799   5.112   6.177  10.768  3.1084  1.5974  0.5205
  209MOL0     H28800   4.996   6.388  10.721 -0.9836  2.4273 -1.3003
  209MOL0     H28801   4.996   6.667  10.540 -1.5454  2.1815 -0.9385
  209MOL0     H28802   4.932   6.729  10.688  5.4964  1.1345  1.0683
  209MOL0     H28803   4.871   6.575  10.626  0.0629  1.4010 -1.9126
  209MOL0     H28804   5.349   6.974  10.564 -0.4888 -0.6651  0.3360
  209MOL0     H28805   5.418   7.226  10.512 -1.4274 -0.8109 -0.6689
  209MOL0     H28806   5.643   7.407  10.603  0.3750  1.2973  1.1838
  209MOL0     H28807   5.499   7.420  10.503  2.3104  0.7200 -2.1314
  209MOL0     H28808   5.440   7.621  10.632 -0.1164  1.5720  0.6896
  209MOL0     H28809   5.574   7.595  10.737 -0.0009 -1.2028  1.0265
  209MOL0     H28810   5.598   7.675  10.438  0.2139  2.6526 -0.7658
  209MOL0     H28811   5.740   7.639  10.542 -1.0409 -3.4888  1.8994
  209MOL0     H28812   5.543   7.864  10.548  0.6921 -0.3550 -1.2988
  209MOL0     H28813   5.712   7.879  10.512  0.2490  0.0194 -0.8431
  209MOL0     H28814   5.637   7.960  10.733 -0.4858  0.4372  0.4467
  209MOL0     H28815   5.579   7.803  10.782 -3.0315  1.1381 -1.5386
  209MOL0     H28816   5.820   7.714  10.734  0.1381  0.1025  1.8888
  209MOL0     H28817   5.784   7.802  10.883 -2.3436 -0.9124  0.7855
  209MOL0     H28818   5.888   8.008  10.731 -0.0803  0.6843  0.0546
  209MOL0     H28819   5.959   7.872  10.648 -0.7606  0.7676 -0.3541
  209MOL0     H28820   5.983   7.988  10.911 -1.3919 -0.5792 -1.9205
  209MOL0     H28821   6.109   7.938  10.820  0.3776  0.1158  1.0147
  209MOL0     H28822   5.404   7.300  10.940 -2.6471 -0.5069  0.1176
  209MOL0     H28823   5.351   7.063  10.978  2.2133 -0.4617  0.3507
  209MOL0     H28824   5.345   6.679  10.912  0.1821  1.9030 -4.0352
  209MOL0     H28825   5.321   6.432  10.990  0.6350  0.0558 -0.9128
  209MOL0     H28826   3.650   5.482  10.445  1.5695 -0.3431  0.4790
  209MOL0     H28827   3.418   5.423  10.481 -0.0634  0.2386  0.0157
  209MOL0     H28828   3.158   5.151  10.810  0.4694 -0.1393  1.0885
  209MOL0     H28829   2.934   5.079  10.860 -0.2445 -0.3468 -0.3285
  209MOL0     H28830   2.797   5.319  11.139 -1.0340  0.9930  0.4208
  209MOL0     H28831   2.651   5.367  11.063 -0.2299 -0.4979 -1.4235
  209MOL0     H28832   2.680   5.123  11.232 -0.0556 -0.2439 -0.7114
  209MOL0     H28833   2.565   5.127  11.097 -1.7088  1.4172 -0.1370
  209MOL0     H28834   2.553   5.347  11.299 -0.9039 -0.7537  0.5429
  209MOL0     H28835   2.438   5.292  11.176 -0.2942  3.6405  1.1883
  209MOL0     H28836   2.509   5.117  11.410 -1.9775 -2.0092  0.6208
  209MOL0     H28837   2.406   5.072  11.283 -1.7633 -1.0499  2.8139
  209MOL0     H28838   2.125   5.314  11.451 -0.2536 -0.6366  0.0527
  209MOL0     H28839   2.819   5.460  10.945 -1.5574 -0.5432 -2.5568
  209MOL0     H28840   3.046   5.636  10.783  2.0133  0.0234 -0.0209
  209MOL0     H28841   2.952   5.658  10.934 -1.1460 -1.4732  0.9954
  209MOL0     H28842   3.119   5.619  10.949 -0.7213 -1.7025  0.4215
  210MOL0     O28843   5.143   7.939   8.283  1.3455  1.2336  0.2878
  210MOL0     C28844   5.059   8.028   8.258 -0.0109  0.9408  0.1208
  210MOL0     O28845   4.934   8.037   8.299 -0.1412  0.3054 -0.6451
  210MOL0     C28846   4.882   7.948   8.402  0.1264 -0.6065 -0.4981
  210MOL0     C28847   4.956   7.880   8.503  0.0026 -0.7672 -0.5969
  210MOL0     C28848   4.884   7.813   8.595  0.6794 -0.6486  0.2876
  210MOL0     C28849   4.740   7.810   8.593  0.3723 -0.4692  0.3636
  210MOL0     O28850   4.671   7.735   8.672  0.1506  0.2448  0.3225
  210MOL0     C28851   4.700   7.679   8.793 -0.4859  0.2749 -0.0070
  210MOL0     C28852   4.577   7.629   8.859 -0.0685 -0.0838  0.6603
  210MOL0     C28853   4.624   7.568   8.993 -0.6002  0.3809 -0.3161
  210MOL0     C28854   4.640   7.670   9.108  0.2764  0.0113  0.3806
  210MOL0     C28855   4.663   7.605   9.231  0.0055 -0.4084 -0.0330
  210MOL0     C28856   4.690   7.687   9.357  0.3415 -0.2332 -0.6411
  210MOL0     C28857   4.692   7.627   9.495  0.4402 -0.5979  0.4536
  210MOL0     C28858   4.555   7.633   9.566  0.4400  0.2726  0.3404
  210MOL0     N28859   4.445   7.554   9.508 -0.1770  0.2108 -0.3429
  210MOL0     C28860   4.437   7.410   9.511  0.8323 -0.1986  1.2136
  210MOL0     C28861   4.339   7.378   9.418  1.0444  0.1927  0.0585
  210MOL0     C28862   4.297   7.238   9.372  0.6530  0.0483  0.1169
  210MOL0     C28863   4.217   7.212   9.236 -0.4772  0.6025  0.0713
  210MOL0     C28864   4.304   7.257   9.119  0.4811  0.4086 -0.2308
  210MOL0     C28865   4.268   7.193   8.977  0.4142 -0.2308  0.1165
  210MOL0     O28866   4.366   7.228   8.887 -0.6126 -0.3972 -0.4429
  210MOL0     C28867   4.385   7.173   8.771 -0.2034  0.0861 -0.2955
  210MOL0     C28868   4.485   7.222   8.691  0.5059  0.2151 -0.5722
  210MOL0     C28869   4.507   7.183   8.559  0.4125 -0.0095 -0.7080
  210MOL0     C28870   4.607   7.263   8.481 -0.3451 -0.7881  0.2162
  210MOL0     C28871   4.413   7.092   8.498  0.2195  0.0125  0.4928
  210MOL0     C28872   4.404   7.056   8.355 -0.2400 -0.3178  0.0963
  210MOL0     O28873   4.368   6.923   8.327  0.5053 -0.1341  0.3714
  210MOL0     C28874   4.334   6.904   8.196 -0.7076 -0.0459  0.3550
  210MOL0     C28875   4.225   6.964   8.134 -0.7067 -0.1052  1.5688
  210MOL0     C28876   4.194   6.925   7.995  0.1184 -0.7466  0.0969
  210MOL0     C28877   4.274   6.840   7.925 -0.5499  1.3453  0.4565
  210MOL0     O28878   4.269   6.836   7.793  0.8218 -0.4557 -0.5088
  210MOL0     C28879   4.156   6.756   7.744  0.7757  0.9733 -0.1725
  210MOL0     C28880   4.189   6.604   7.762 -0.6669  0.2629 -0.0571
  210MOL0     C28881   4.322   6.559   7.693  0.1682  0.2661 -0.1397
  210MOL0     C28882   4.391   6.449   7.766 -0.1239 -0.7207  0.5626
  210MOL0     C28883   4.480   6.360   7.675 -0.0380  0.6395  0.0981
  210MOL0     C28884   4.552   6.243   7.743 -0.0252 -0.0821 -0.0469
  210MOL0     C28885   4.475   6.163   7.855  0.9474  0.3214  0.6438
  210MOL0     C28886   4.514   6.014   7.865  0.2890 -0.8740  1.0400
  210MOL0    Cl28887   4.450   5.943   8.023 -0.4333  0.2778  0.1290
  210MOL0     C28888   4.369   6.775   7.994 -0.3962  0.0652 -0.3279
  210MOL0     C28889   4.403   6.800   8.124  0.4527 -0.5121 -0.9037
  210MOL0     O28890   4.429   7.135   8.270 -1.1759  0.3839 -0.3111
  210MOL0     C28891   4.316   7.043   8.584  0.1083 -0.4206 -0.2944
  210MOL0     C28892   4.303   7.073   8.722 -0.2836  0.3427  0.1349
  210MOL0     N28893   4.289   7.494   9.362  0.4462 -0.7786 -0.1034
  210MOL0     N28894   4.362   7.589   9.406  0.3125  0.2335 -0.1257
  210MOL0     C28895   4.663   7.871   8.496 -0.1161 -0.6473  0.8719
  210MOL0     C28896   4.737   7.943   8.393  0.4708  0.1842 -1.0586
  210MOL0     C28897   5.105   8.145   8.172 -0.7859 -0.5866 -0.5839
  210MOL0     C28898   5.004   8.240   8.143 -0.2865 -0.5634 -0.1008
  210MOL0     C28899   5.038   8.354   8.059 -1.1487 -0.5473 -0.8228
  210MOL0     C28900   5.169   8.366   8.011  0.5033 -0.7659  0.4345
  210MOL0     O28901   5.181   8.469   7.919 -0.0188  0.2563  0.4873
  210MOL0     C28902   5.298   8.469   7.829  0.7779  0.1027 -1.2474
  210MOL0     C28903   5.300   8.601   7.751  0.6289  0.3787  0.1819
  210MOL0     C28904   5.401   8.597   7.640  0.3838  0.0189 -0.6413
  210MOL0     C28905   5.358   8.502   7.525 -1.3852  0.3771 -0.1483
  210MOL0     C28906   5.257   8.557   7.439  0.3509 -1.4806  0.7749
  210MOL0     C28907   5.161   8.592   7.366  0.5153 -0.4462  0.5342
  210MOL0     C28908   5.267   8.270   8.034 -0.3360  0.0224 -0.7802
  210MOL0     C28909   5.232   8.158   8.120 -0.6686 -0.0239 -0.6962
  210MOL0     C28910   5.341   8.052   8.128  0.3489  0.7542  0.3099
  210MOL0     H28911   5.064   7.891   8.509 -0.0917  2.4878 -2.4813
  210MOL0     H28912   4.944   7.771   8.676  2.8960  2.0067  0.1572
  210MOL0     H28913   4.752   7.751   8.857 -0.5400  0.5203 -0.2378
  210MOL0     H28914   4.775   7.602   8.768  1.3863  1.5901  1.2671
  210MOL0     H28915   4.504   7.710   8.872 -0.6998 -0.6252  0.5485
  210MOL0     H28916   4.532   7.560   8.787 -0.9861  0.1346  1.0049
  210MOL0     H28917   4.555   7.486   9.017  0.3115  0.4566  3.2545
  210MOL0     H28918   4.713   7.505   8.980 -1.5098 -0.8377 -0.8560
  210MOL0     H28919   4.719   7.742   9.080 -1.0287  1.2799 -0.1853
  210MOL0     H28920   4.549   7.731   9.107 -1.3295 -2.2278 -1.5751
  210MOL0     H28921   4.746   7.535   9.226  1.1048  0.9362 -1.8798
  210MOL0     H28922   4.582   7.541   9.266  0.6550 -0.0880  2.2199
  210MOL0     H28923   4.788   7.733   9.344  0.5255 -0.0619  1.1316
  210MOL0     H28924   4.623   7.774   9.356  0.4251 -0.1421  0.5270
  210MOL0     H28925   4.756   7.679   9.566 -0.8456 -1.7616  2.5803
  210MOL0     H28926   4.741   7.530   9.487  1.0741 -0.1652 -1.4499
  210MOL0     H28927   4.572   7.606   9.670 -0.2102  4.2106  1.6509
  210MOL0     H28928   4.516   7.735   9.555 -3.1143 -0.9937 -0.0794
  210MOL0     H28929   4.503   7.345   9.569  2.6327  0.7922  0.3580
  210MOL0     H28930   4.223   7.196   9.441 -0.4423  0.8556 -0.5490
  210MOL0     H28931   4.378   7.165   9.382 -2.1604 -3.8345 -2.3422
  210MOL0     H28932   4.193   7.106   9.226 -0.6313  0.6472 -0.0323
  210MOL0     H28933   4.128   7.275   9.244 -1.2221 -0.6551  3.5952
  210MOL0     H28934   4.308   7.366   9.115  2.1805  0.3976  0.2907
  210MOL0     H28935   4.407   7.225   9.136  0.9990  0.1344 -3.2393
  210MOL0     H28936   4.254   7.085   8.987  2.8168 -0.5924  0.1771
  210MOL0     H28937   4.176   7.233   8.933  0.3647 -0.8487 -0.3489
  210MOL0     H28938   4.539   7.300   8.744  0.3649  0.1391 -0.3140
  210MOL0     H28939   4.683   7.305   8.547  1.1216 -0.6726 -1.4746
  210MOL0     H28940   4.571   7.350   8.423  6.1290  1.0476 -1.8692
  210MOL0     H28941   4.668   7.207   8.410  1.2622 -0.2295  1.1206
  210MOL0     H28942   4.179   7.036   8.202  3.2118  1.6395  2.6878
  210MOL0     H28943   4.114   6.973   7.939 -0.1294 -1.7923 -0.4528
  210MOL0     H28944   4.058   6.778   7.788  0.6711  0.1920  0.0188
  210MOL0     H28945   4.144   6.785   7.640  2.4505  0.4067 -0.5613
  210MOL0     H28946   4.209   6.588   7.869 -0.5220  1.4491  0.1029
  210MOL0     H28947   4.100   6.542   7.746  1.6888 -3.9109  1.3638
  210MOL0     H28948   4.379   6.649   7.669 -1.7830  1.8279  0.7232
  210MOL0     H28949   4.283   6.529   7.596 -3.3344  1.4914  0.7223
  210MOL0     H28950   4.317   6.388   7.819 -1.8621  1.5210  0.8307
  210MOL0     H28951   4.450   6.497   7.844 -0.3385 -0.5016  0.5901
  210MOL0     H28952   4.417   6.326   7.592 -0.8187  0.4936  0.7330
  210MOL0     H28953   4.558   6.419   7.625 -0.6197  0.4213 -1.0985
  210MOL0     H28954   4.641   6.290   7.786  0.8821 -1.9817  0.2393
  210MOL0     H28955   4.582   6.178   7.661  2.0756 -1.3626  1.6220
  210MOL0     H28956   4.368   6.167   7.834  1.5096 -0.1932 -3.1443
  210MOL0     H28957   4.497   6.203   7.954  2.0548  2.5219 -0.4304
  210MOL0     H28958   4.624   6.013   7.865  0.3386 -1.2802 -1.3189
  210MOL0     H28959   4.485   5.956   7.777  1.8800  0.6038 -0.5208
  210MOL0     H28960   4.421   6.693   7.947  0.6033  0.5207 -0.0383
  210MOL0     H28961   4.489   6.748   8.164 -1.3044 -2.3713  0.7071
  210MOL0     H28962   4.239   6.979   8.542 -0.8827  1.5379 -1.6186
  210MOL0     H28963   4.215   7.038   8.776 -1.1450 -0.5547 -1.7595
  210MOL0     H28964   4.555   7.873   8.503  0.0015 -0.0697  3.3944
  210MOL0     H28965   4.689   8.010   8.322  0.7016  3.3350  1.5280
  210MOL0     H28966   4.906   8.245   8.189  0.8244  0.6431  2.3006
  210MOL0     H28967   4.971   8.436   8.037  1.0492  1.2292 -1.3544
  210MOL0     H28968   5.391   8.453   7.885 -1.0445 -1.8950  1.4661
  210MOL0     H28969   5.283   8.384   7.761 -0.1552 -0.3524 -0.4824
  210MOL0     H28970   5.324   8.685   7.818 -0.6888  0.8601  0.0825
  210MOL0     H28971   5.200   8.632   7.719 -0.1651  0.5149  2.5769
  210MOL0     H28972   5.432   8.693   7.597  3.6943 -1.5977 -2.2510
  210MOL0     H28973   5.496   8.564   7.682 -0.7455 -1.2232  1.0949
  210MOL0     H28974   5.318   8.410   7.568 -0.8210 -0.2200 -0.8687
  210MOL0     H28975   5.445   8.486   7.460 -2.1643 -0.6174 -0.9780
  210MOL0     H28976   5.075   8.614   7.306 -0.0228  4.2414  2.6226
  210MOL0     H28977   5.358   8.283   7.976  1.1840  2.0390  1.8143
  210MOL0     H28978   5.426   8.099   8.077 -0.1689  2.9332  1.3352
  210MOL0     H28979   5.372   8.019   8.228  3.4604 -0.3406 -0.8734
  210MOL0     H28980   5.308   7.962   8.077  1.1875 -0.0534  1.1419
  211MOL0     O28981   9.174   4.593   6.837  0.5882  0.2261  0.0640
  211MOL0     C28982   9.119   4.638   6.934  0.2586 -0.2344 -0.3971
  211MOL0     O28983   8.995   4.696   6.934 -0.2728  0.6165  0.6379
  211MOL0     C28984   8.911   4.648   6.835 -0.2630 -0.2256 -0.4224
  211MOL0     C28985   8.861   4.524   6.830  0.4153  0.1826 -0.7083
  211MOL0     C28986   8.767   4.495   6.731  0.0078 -0.0144  0.8375
  211MOL0     C28987   8.718   4.587   6.641 -0.1860 -0.2133  0.1507
  211MOL0     O28988   8.621   4.548   6.548 -0.2764 -0.0778 -0.7466
  211MOL0     C28989   8.582   4.639   6.447 -0.8651  0.3385 -0.3215
  211MOL0     C28990   8.509   4.585   6.334  0.3925 -0.3097 -0.0035
  211MOL0     C28991   8.579   4.471   6.274 -0.0874  0.6058  0.4243
  211MOL0     C28992   8.483   4.383   6.196 -0.1013  0.6825 -0.1540
  211MOL0     C28993   8.557   4.258   6.141 -0.6348  0.6215 -0.1641
  211MOL0     C28994   8.477   4.201   6.015  0.0819 -0.3839 -0.4398
  211MOL0     C28995   8.550   4.066   5.981  0.3349 -0.0006  0.1211
  211MOL0     C28996   8.472   3.988   5.869 -0.1022  0.2900 -0.0444
  211MOL0     N28997   8.533   3.854   5.842 -0.2244  0.1222 -0.4569
  211MOL0     C28998   8.602   3.772   5.926  0.0374  0.1993 -0.3900
  211MOL0     C28999   8.665   3.676   5.850  0.2470 -0.0374  0.9435
  211MOL0     C29000   8.760   3.571   5.877 -0.7648  0.9083 -0.6727
  211MOL0     C29001   8.695   3.493   5.993  0.1373  0.4696  0.0292
  211MOL0     C29002   8.758   3.357   6.009 -0.6743  0.5726  0.2646
  211MOL0     C29003   8.750   3.304   6.154  1.0519 -1.0272 -0.2290
  211MOL0     O29004   8.829   3.370   6.249  0.0745 -0.0531 -0.1349
  211MOL0     C29005   8.962   3.335   6.245  0.9095 -1.3251  0.4324
  211MOL0     C29006   9.014   3.220   6.306 -0.2915 -0.6557  0.4313
  211MOL0     C29007   9.151   3.214   6.328 -0.2287  1.0307 -0.4503
  211MOL0     C29008   9.205   3.087   6.403  0.5101  0.5477  0.0401
  211MOL0     C29009   9.238   3.297   6.256  0.7791 -0.1493  0.4099
  211MOL0     C29010   9.376   3.294   6.273 -0.5398  0.2668 -0.5031
  211MOL0     O29011   9.459   3.340   6.179 -0.7885 -0.0924  0.1598
  211MOL0     C29012   9.600   3.334   6.208  1.3785 -0.1980  0.1390
  211MOL0     C29013   9.665   3.215   6.163  0.3098 -0.0453 -0.2840
  211MOL0     C29014   9.798   3.205   6.198 -0.6330  0.1608  1.4900
  211MOL0     C29015   9.867   3.315   6.254 -0.1834 -0.1116  0.3952
  211MOL0     O29016  10.007   3.304   6.250 -0.3626 -0.5575 -0.2512
  211MOL0     C29017  10.079   3.421   6.218  1.1872  0.0529 -0.0965
  211MOL0     C29018  10.228   3.382   6.195 -0.7414  0.4890 -0.8246
  211MOL0     C29019  10.298   3.478   6.102 -0.2140  0.5948  0.2927
  211MOL0     C29020  10.441   3.453   6.081 -0.1817 -0.3912 -0.5936
  211MOL0     C29021  10.486   3.541   5.963  0.1483 -0.7930 -0.3460
  211MOL0     C29022  10.495   3.698   5.993 -0.2583  0.1527 -0.0915
  211MOL0     C29023  10.604   3.760   5.907  0.3829 -0.1239 -0.1863
  211MOL0     C29024  10.613   3.912   5.890  0.3901  0.1773  0.2395
  211MOL0    Cl29025  10.713   3.938   5.745  0.0313 -0.1852 -0.0687
  211MOL0     C29026   9.794   3.432   6.282  0.2212  1.2943 -0.8189
  211MOL0     C29027   9.658   3.443   6.264 -0.2791  0.2572 -0.0464
  211MOL0     O29028   9.418   3.260   6.384  0.0345 -0.5632 -0.5700
  211MOL0     C29029   9.187   3.405   6.192 -0.1144  0.3552 -0.5892
  211MOL0     C29030   9.051   3.433   6.189 -0.8414 -0.4852  0.1673
  211MOL0     N29031   8.628   3.713   5.722  0.2401 -0.3125  0.4034
  211MOL0     N29032   8.556   3.817   5.716  0.4761 -0.0865 -0.6587
  211MOL0     C29033   8.781   4.713   6.651 -0.1944 -0.8737 -0.9782
  211MOL0     C29034   8.879   4.742   6.748 -0.2578  0.4978  0.1471
  211MOL0     C29035   9.187   4.634   7.070 -0.0561  1.3688 -0.9158
  211MOL0     C29036   9.172   4.747   7.159  0.6977  0.0227 -0.2278
  211MOL0     C29037   9.247   4.756   7.272 -0.5602 -0.4330 -0.2697
  211MOL0     C29038   9.307   4.640   7.318 -0.4170 -0.4895  1.1382
  211MOL0     O29039   9.379   4.646   7.425  0.5362 -0.2486  0.0807
  211MOL0     C29040   9.517   4.655   7.400 -0.5712  0.1038  1.1951
  211MOL0     C29041   9.562   4.805   7.402 -0.9758 -0.4665  0.6796
  211MOL0     C29042   9.518   4.879   7.531  1.2704 -0.3951  0.2759
  211MOL0     C29043   9.622   4.997   7.562  0.7678  0.3435 -0.3185
  211MOL0     C29044   9.750   4.948   7.605 -1.2669  0.1556 -0.7900
  211MOL0     C29045   9.862   4.912   7.644 -0.2548 -1.1832 -0.1153
  211MOL0     C29046   9.312   4.525   7.237  0.0943  0.3317  0.2679
  211MOL0     C29047   9.263   4.521   7.107 -0.0707  0.6794 -0.0151
  211MOL0     C29048   9.287   4.395   7.017 -0.3349  0.1229  0.1395
  211MOL0     H29049   8.891   4.444   6.897  0.1132  1.0478  0.4871
  211MOL0     H29050   8.718   4.398   6.725 -0.3373  0.1597  0.7992
  211MOL0     H29051   8.675   4.682   6.409 -0.6980 -0.5847 -0.9937
  211MOL0     H29052   8.532   4.726   6.490  3.9749  3.6905 -0.5578
  211MOL0     H29053   8.410   4.558   6.372 -0.0586  1.8386  0.5220
  211MOL0     H29054   8.490   4.664   6.260 -1.8281  1.4022  2.1953
  211MOL0     H29055   8.662   4.511   6.216  0.3227 -0.6718  0.1058
  211MOL0     H29056   8.624   4.419   6.358  0.1076 -1.6310 -0.9909
  211MOL0     H29057   8.385   4.371   6.243 -2.6608  2.6577 -4.3800
  211MOL0     H29058   8.447   4.442   6.110 -1.1709  3.8226  2.2539
  211MOL0     H29059   8.564   4.180   6.218  1.8791  0.9088 -0.0283
  211MOL0     H29060   8.653   4.286   6.097 -1.7564  3.0095 -1.2758
  211MOL0     H29061   8.376   4.189   6.055 -0.6396  5.6481  0.5017
  211MOL0     H29062   8.466   4.268   5.929 -3.0391  1.2579  1.0621
  211MOL0     H29063   8.541   4.010   6.074 -0.9094 -0.6734 -0.3844
  211MOL0     H29064   8.656   4.074   5.956  0.7006 -0.1811  1.5335
  211MOL0     H29065   8.365   3.981   5.887 -0.3573 -0.6653 -1.6683
  211MOL0     H29066   8.470   4.040   5.772  1.1124 -0.0541 -0.2707
  211MOL0     H29067   8.612   3.793   6.032 -1.5332  1.0420 -0.3815
  211MOL0     H29068   8.863   3.602   5.896 -0.0282 -0.1774 -2.6253
  211MOL0     H29069   8.766   3.502   5.793 -0.6090 -2.1788  1.6956
  211MOL0     H29070   8.704   3.556   6.082 -0.8306 -0.4804  0.8357
  211MOL0     H29071   8.586   3.490   5.986  0.0882  1.5299  0.2088
  211MOL0     H29072   8.716   3.292   5.931  0.8056  2.1707 -1.9981
  211MOL0     H29073   8.865   3.374   5.993 -0.4462  4.4889  4.0701
  211MOL0     H29074   8.647   3.309   6.189  1.1697  3.3017 -0.0379
  211MOL0     H29075   8.766   3.196   6.149 -0.2132 -1.1918 -4.1600
  211MOL0     H29076   8.956   3.150   6.365  3.6694 -2.0736  3.0885
  211MOL0     H29077   9.287   3.035   6.353 -2.2339 -3.1936 -0.9677
  211MOL0     H29078   9.126   3.012   6.414 -1.4193  2.4751 -0.0430
  211MOL0     H29079   9.238   3.116   6.503  2.4961  0.3346 -0.5227
  211MOL0     H29080   9.614   3.132   6.116 -2.1270 -0.1725  2.3509
  211MOL0     H29081   9.861   3.119   6.180 -0.6051  0.5876 -0.7231
  211MOL0     H29082  10.047   3.485   6.136  0.5090  1.7349  1.4072
  211MOL0     H29083  10.076   3.488   6.305  0.9547 -0.2096  0.0992
  211MOL0     H29084  10.267   3.392   6.297 -0.6959 -3.3614 -0.3113
  211MOL0     H29085  10.238   3.279   6.160 -1.4087  0.3234 -0.5446
  211MOL0     H29086  10.298   3.583   6.133  3.8004  1.5204 -2.0638
  211MOL0     H29087  10.240   3.466   6.010  1.5172 -2.1593 -0.5513
  211MOL0     H29088  10.448   3.348   6.051 -1.4788 -0.7411  0.2279
  211MOL0     H29089  10.504   3.466   6.170 -1.1522 -2.4854  0.4780
  211MOL0     H29090  10.580   3.500   5.926  0.0528 -1.0264 -0.3308
  211MOL0     H29091  10.412   3.538   5.882 -1.7252 -4.1068  1.2628
  211MOL0     H29092  10.532   3.708   6.096  3.2766 -3.1873 -0.8068
  211MOL0     H29093  10.407   3.759   5.972 -1.6692 -2.0134 -0.7099
  211MOL0     H29094  10.601   3.712   5.808  1.0487  0.5297 -0.5323
  211MOL0     H29095  10.693   3.729   5.963  0.4379  0.3115 -0.0320
  211MOL0     H29096  10.665   3.952   5.977  0.3857  0.7485 -0.0192
  211MOL0     H29097  10.511   3.950   5.876 -1.7169 -4.3919  1.3945
  211MOL0     H29098   9.843   3.523   6.314  0.1578  0.8207  0.7133
  211MOL0     H29099   9.585   3.522   6.279  2.4054  2.4994  2.5359
  211MOL0     H29100   9.257   3.476   6.149 -3.3425  2.6789 -2.4417
  211MOL0     H29101   9.013   3.527   6.152  0.3631 -0.7460 -1.8658
  211MOL0     H29102   8.743   4.798   6.596 -1.8718 -0.8052  0.1987
  211MOL0     H29103   8.909   4.845   6.763  2.1904 -0.0060 -0.8046
  211MOL0     H29104   9.111   4.829   7.122 -1.2515 -1.8632 -1.4119
  211MOL0     H29105   9.248   4.848   7.330  1.0712 -1.7898  2.0133
  211MOL0     H29106   9.571   4.611   7.485 -2.2376 -1.0082  1.7153
  211MOL0     H29107   9.548   4.605   7.308  0.4357  4.8736 -1.4094
  211MOL0     H29108   9.520   4.844   7.309  2.2754 -1.2160 -1.2198
  211MOL0     H29109   9.671   4.801   7.396 -0.6691  3.7756  0.5349
  211MOL0     H29110   9.419   4.926   7.524  1.5695  0.1006 -0.9886
  211MOL0     H29111   9.512   4.809   7.615  2.6360  1.1369  1.7411
  211MOL0     H29112   9.589   5.052   7.651  3.5391 -2.2062  2.5514
  211MOL0     H29113   9.618   5.067   7.478 -0.3219  1.0707  0.3177
  211MOL0     H29114   9.964   4.900   7.678  0.5132  5.3042  1.0905
  211MOL0     H29115   9.362   4.441   7.283 -3.2055 -0.0183  3.6887
  211MOL0     H29116   9.348   4.415   6.928 -1.8693 -0.7730 -1.1630
  211MOL0     H29117   9.357   4.329   7.068 -0.6008 -0.8423 -0.7151
  211MOL0     H29118   9.195   4.348   6.983  1.5428 -1.8465 -2.7066
  212MOL0     O29119   0.722   7.503  10.155 -0.1138 -0.5778  0.3508
  212MOL0     C29120   0.616   7.471  10.096  0.4332 -0.2550 -0.4782
  212MOL0     O29121   0.595   7.342  10.039  0.1881 -0.1403 -0.3128
  212MOL0     C29122   0.686   7.238  10.067 -0.8462  0.6283 -0.4261
  212MOL0     C29123   0.683   7.176  10.200  0.4717  0.1726  0.8147
  212MOL0     C29124   0.789   7.094  10.236 -0.0568 -0.5168 -0.4370
  212MOL0     C29125   0.880   7.048  10.139  0.0272  0.0975  0.1173
  212MOL0     O29126   0.987   6.977  10.180  0.3582  0.4415 -0.2851
  212MOL0     C29127   0.972   6.857  10.267  0.7991 -0.6300  0.6833
  212MOL0     C29128   0.896   6.752  10.181  0.1425  0.0552  0.8111
  212MOL0     C29129   0.970   6.688  10.065  1.6057 -0.1165 -0.0857
  212MOL0     C29130   0.902   6.551  10.044  0.8323  0.2833 -0.6958
  212MOL0     C29131   0.956   6.485   9.922 -1.2315  0.0417  0.5647
  212MOL0     C29132   0.858   6.371   9.888  0.2302  0.1135 -0.5946
  212MOL0     C29133   0.895   6.284   9.760 -0.8580 -0.7379 -0.0906
  212MOL0     C29134   0.793   6.297   9.651  0.6596 -0.7683  0.5324
  212MOL0     N29135   0.780   6.433   9.581 -0.2739  0.1004  0.5121
  212MOL0     C29136   0.836   6.464   9.453  0.6712  0.0480  0.2713
  212MOL0     C29137   0.810   6.595   9.443 -0.7765 -0.3946 -0.1958
  212MOL0     C29138   0.865   6.686   9.332  0.7202 -0.5493  0.4713
  212MOL0     C29139   0.785   6.663   9.204 -0.3032  0.2555 -0.6108
  212MOL0     C29140   0.840   6.736   9.078  0.2138 -0.2132  0.1550
  212MOL0     C29141   0.732   6.715   8.959 -0.0902 -0.3599 -0.3420
  212MOL0     O29142   0.757   6.818   8.867  0.4983  0.3603  0.7616
  212MOL0     C29143   0.849   6.818   8.771 -0.2955 -0.5559  0.9435
  212MOL0     C29144   0.953   6.725   8.757  0.0064  0.2002 -0.6995
  212MOL0     C29145   1.044   6.722   8.659 -0.4905 -0.2809  0.4391
  212MOL0     C29146   1.153   6.612   8.649  0.2943  0.6297 -0.8456
  212MOL0     C29147   1.033   6.823   8.560 -0.3621  0.5371  0.1897
  212MOL0     C29148   1.112   6.809   8.434  0.3354 -0.1705  0.3879
  212MOL0     O29149   1.037   6.849   8.322 -0.4285  0.6731  0.8979
  212MOL0     C29150   1.109   6.866   8.209  0.5438 -0.0000 -0.3534
  212MOL0     C29151   1.071   6.790   8.094  0.3840  0.3272  0.3382
  212MOL0     C29152   1.130   6.820   7.971  0.9932  0.1356 -0.0028
  212MOL0     C29153   1.210   6.930   7.960 -1.6250 -1.1260 -0.0828
  212MOL0     O29154   1.269   6.956   7.841  0.3621 -0.0331  0.5955
  212MOL0     C29155   1.382   7.038   7.814  0.6123 -0.3570 -0.0844
  212MOL0     C29156   1.393   7.050   7.669 -0.5347  0.1188  0.4760
  212MOL0     C29157   1.526   7.116   7.619  0.8063  0.0070  0.2446
  212MOL0     C29158   1.505   7.141   7.467 -0.9244  0.0906  1.0350
  212MOL0     C29159   1.630   7.191   7.405  0.6789 -0.1819 -0.1008
  212MOL0     C29160   1.627   7.181   7.250 -0.8648 -0.5478  0.0978
  212MOL0     C29161   1.750   7.241   7.173  0.7482  0.3932 -0.1915
  212MOL0     C29162   1.735   7.236   7.013 -1.1612  0.7212 -0.3792
  212MOL0    Cl29163   1.723   7.068   6.968  0.2846  0.1979 -0.0026
  212MOL0     C29164   1.253   7.006   8.072 -0.2427 -0.0087 -0.5530
  212MOL0     C29165   1.198   6.972   8.196  0.6767 -0.6139  0.5535
  212MOL0     O29166   1.226   6.763   8.430  0.3500  0.3777  1.1500
  212MOL0     C29167   0.931   6.931   8.568 -0.4340  0.2701 -0.7802
  212MOL0     C29168   0.838   6.922   8.670 -0.0487 -0.5329 -0.3012
  212MOL0     N29169   0.728   6.640   9.546  1.1927 -0.0531  0.4666
  212MOL0     N29170   0.709   6.543   9.623  0.1712  0.2027  0.2468
  212MOL0     C29171   0.885   7.109  10.017 -0.1528  0.3188  0.3369
  212MOL0     C29172   0.798   7.203   9.982 -0.3653 -0.8444 -0.1267
  212MOL0     C29173   0.519   7.576  10.092  0.5729  0.9669 -0.8760
  212MOL0     C29174   0.552   7.713  10.088  0.0447 -0.2125 -1.1495
  212MOL0     C29175   0.469   7.824  10.079  0.4314  0.4616  0.4718
  212MOL0     C29176   0.329   7.790  10.080  0.8752  0.2814 -0.1850
  212MOL0     O29177   0.233   7.882  10.073 -0.5750 -0.4363 -0.0015
  212MOL0     C29178   0.226   7.974   9.963  0.7856 -0.6772 -0.4432
  212MOL0     C29179   0.256   8.115  10.016  0.6159  0.4418  1.0106
  212MOL0     C29180   0.146   8.175  10.117  0.4633 -0.2834  0.3219
  212MOL0     C29181   0.140   8.325  10.137  0.6007  0.3486 -0.8691
  212MOL0     C29182   0.109   8.373  10.003 -0.2366  0.1160 -0.1194
  212MOL0     C29183   0.095   8.432   9.896 -0.4318 -0.0989 -0.4884
  212MOL0     C29184   0.289   7.664  10.063  0.0551  0.3041 -0.3101
  212MOL0     C29185   0.380   7.554  10.078  0.3939 -0.2689 -0.2300
  212MOL0     C29186   0.308   7.426  10.089 -0.0168  0.8106  0.0100
  212MOL0     H29187   0.610   7.214  10.272  1.0300 -0.2092  1.5964
  212MOL0     H29188   0.802   7.065  10.340 -1.2110  2.8011  0.7728
  212MOL0     H29189   0.915   6.886  10.356  0.0246 -0.4751  0.1469
  212MOL0     H29190   1.077   6.834  10.288  2.4407  4.7002 -0.1139
  212MOL0     H29191   0.845   6.677  10.242 -1.8553 -1.6939 -2.7038
  212MOL0     H29192   0.811   6.799  10.130 -0.1262 -1.6097 -0.3293
  212MOL0     H29193   0.954   6.752   9.977 -0.6045 -1.8496 -1.0069
  212MOL0     H29194   1.078   6.675  10.079  1.2996 -3.0940  0.0381
  212MOL0     H29195   0.908   6.501  10.142  1.0219 -0.5446 -1.1226
  212MOL0     H29196   0.798   6.578  10.019  0.4841 -2.0179 -1.9932
  212MOL0     H29197   1.052   6.445   9.954  0.0716  1.2225 -1.5912
  212MOL0     H29198   0.962   6.560   9.842 -0.9621 -2.8263 -2.3460
  212MOL0     H29199   0.866   6.307   9.977 -2.7418  0.9909  0.4375
  212MOL0     H29200   0.754   6.405   9.887 -0.8104 -2.2309  3.5319
  212MOL0     H29201   0.903   6.182   9.799  0.2929  0.5310  3.4687
  212MOL0     H29202   0.997   6.300   9.724 -0.5741 -1.6314  0.2832
  212MOL0     H29203   0.830   6.227   9.575 -0.7951 -0.2279 -0.7311
  212MOL0     H29204   0.688   6.278   9.674 -1.4568  5.0208 -2.2612
  212MOL0     H29205   0.893   6.400   9.387 -2.5795 -1.8916 -0.8850
  212MOL0     H29206   0.968   6.677   9.297 -0.1501  3.4991 -4.2203
  212MOL0     H29207   0.864   6.791   9.364  0.9212  0.7781 -3.3908
  212MOL0     H29208   0.787   6.558   9.171  1.4622 -0.3217  1.1651
  212MOL0     H29209   0.680   6.688   9.223 -0.0418  1.7180 -0.9810
  212MOL0     H29210   0.846   6.843   9.102  1.4994 -0.2673  0.1542
  212MOL0     H29211   0.940   6.698   9.055 -0.4757 -2.0894  0.0694
  212MOL0     H29212   0.755   6.617   8.915  1.1418 -0.4671  0.4997
  212MOL0     H29213   0.631   6.717   8.999  0.0296 -0.6057 -0.0312
  212MOL0     H29214   0.967   6.646   8.831 -0.7064 -0.7571 -1.5670
  212MOL0     H29215   1.157   6.565   8.550  1.0999 -3.0531  0.7564
  212MOL0     H29216   1.136   6.531   8.721 -1.2080  2.1399  0.5981
  212MOL0     H29217   1.249   6.657   8.674 -0.9379  3.8476 -1.3572
  212MOL0     H29218   1.004   6.705   8.101  2.2358 -1.2799 -0.3405
  212MOL0     H29219   1.110   6.752   7.889  1.7783 -1.0000  0.7144
  212MOL0     H29220   1.361   7.135   7.860  0.6781 -0.2627 -0.2517
  212MOL0     H29221   1.473   6.996   7.860  3.4539  3.5144 -1.5929
  212MOL0     H29222   1.396   6.949   7.627 -2.4786 -0.0547  0.6637
  212MOL0     H29223   1.308   7.094   7.615 -0.2036  0.0560 -0.1114
  212MOL0     H29224   1.614   7.062   7.655  1.6413  1.7153  0.9038
  212MOL0     H29225   1.521   7.214   7.668 -1.4537  1.1822 -2.0944
  212MOL0     H29226   1.423   7.205   7.433  2.0109  1.8798 -3.5601
  212MOL0     H29227   1.481   7.047   7.416  1.5164 -0.1613  0.2564
  212MOL0     H29228   1.651   7.294   7.434 -1.7548  0.0085  1.3122
  212MOL0     H29229   1.712   7.125   7.434  0.3614 -0.4060  0.2967
  212MOL0     H29230   1.540   7.237   7.214 -0.4180  0.5419  0.6708
  212MOL0     H29231   1.604   7.078   7.220 -3.9455  0.0587  0.0161
  212MOL0     H29232   1.840   7.185   7.202  1.7852  1.8893 -0.4023
  212MOL0     H29233   1.763   7.348   7.193  0.7263  0.8822 -2.5262
  212MOL0     H29234   1.826   7.284   6.979  0.0576 -1.4926 -0.4163
  212MOL0     H29235   1.644   7.292   6.988 -0.9294  1.8593  1.1524
  212MOL0     H29236   1.327   7.086   8.074 -0.6254  0.5228 -3.6151
  212MOL0     H29237   1.239   7.021   8.283 -1.0015  2.8338 -0.4344
  212MOL0     H29238   0.922   7.027   8.517  1.1401  1.4412  0.9928
  212MOL0     H29239   0.750   6.983   8.679 -0.2382 -0.6323 -1.3798
  212MOL0     H29240   0.962   7.066   9.954 -2.1904 -0.1215 -2.0032
  212MOL0     H29241   0.790   7.263   9.892 -1.9289 -3.5030 -1.9068
  212MOL0     H29242   0.659   7.727  10.100 -0.2507 -0.4652  2.8748
  212MOL0     H29243   0.503   7.927  10.078 -2.4410  1.5227 -0.8389
  212MOL0     H29244   0.276   7.953   9.868 -2.4762  1.6329 -2.8932
  212MOL0     H29245   0.120   7.978   9.938  0.0058  2.9899  2.5186
  212MOL0     H29246   0.262   8.168   9.920  0.3386  0.2240  0.8712
  212MOL0     H29247   0.357   8.123  10.056 -0.1839  0.8258  3.1151
  212MOL0     H29248   0.046   8.141  10.090  0.6241 -1.1324  0.7587
  212MOL0     H29249   0.172   8.138  10.217 -4.6867 -1.2433  1.6018
  212MOL0     H29250   0.223   8.376  10.187  0.9102 -1.4109  0.4953
  212MOL0     H29251   0.059   8.339  10.209  1.7397 -1.9621  0.9773
  212MOL0     H29252   0.084   8.491   9.808  0.6831  0.5422 -0.2226
  212MOL0     H29253   0.182   7.645  10.055 -0.2077  1.4984  0.1023
  212MOL0     H29254   0.353   7.362  10.166  0.3873  0.0980 -0.7982
  212MOL0     H29255   0.204   7.433  10.123 -0.4690 -2.6066 -0.3710
  212MOL0     H29256   0.318   7.377   9.992 -1.1223  0.4843  0.0511
  213MOL0     O29257   9.106   9.365   8.031  0.2108 -0.2666 -0.9104
  213MOL0     C29258   9.073   9.351   7.914 -0.0341 -0.2076 -0.5508
  213MOL0     O29259   8.949   9.304   7.864  0.0359  0.7478 -0.0685
  213MOL0     C29260   8.858   9.234   7.937 -0.0175  0.9468  1.3565
  213MOL0     C29261   8.761   9.172   7.855  0.3015  0.0470 -0.1238
  213MOL0     C29262   8.664   9.088   7.921  0.1836 -0.2787 -0.0639
  213MOL0     C29263   8.648   9.077   8.057  0.6392 -0.4898 -0.0721
  213MOL0     O29264   8.541   9.011   8.113  0.0702 -0.1107 -0.3902
  213MOL0     C29265   8.574   8.916   8.217 -0.0899 -0.0997  0.3558
  213MOL0     C29266   8.575   8.770   8.142  1.1769 -0.8537 -0.0605
  213MOL0     C29267   8.430   8.748   8.088  0.4181  0.4792  0.1023
  213MOL0     C29268   8.393   8.603   8.072  0.0219 -0.1191 -0.4551
  213MOL0     C29269   8.246   8.560   8.057 -0.3489 -0.0841  0.9350
  213MOL0     C29270   8.176   8.626   7.937  0.1067  0.7756  0.4755
  213MOL0     C29271   8.225   8.567   7.799 -0.7566 -0.7946  0.5152
  213MOL0     C29272   8.327   8.659   7.719 -0.0220  0.2641 -0.2967
  213MOL0     N29273   8.369   8.600   7.594  0.6924  0.5739  0.2801
  213MOL0     C29274   8.278   8.565   7.507 -0.0312  0.5768  0.5233
  213MOL0     C29275   8.348   8.518   7.405 -0.4991 -1.4563  0.2223
  213MOL0     C29276   8.276   8.463   7.288 -0.4669 -0.7991  0.2431
  213MOL0     C29277   8.371   8.448   7.161  0.7376  0.4613 -0.0256
  213MOL0     C29278   8.451   8.317   7.175 -0.0487  0.5203  0.5596
  213MOL0     C29279   8.564   8.326   7.077 -0.0201  0.1163  0.7933
  213MOL0     O29280   8.666   8.233   7.098 -0.0791  0.1177 -1.0000
  213MOL0     C29281   8.757   8.250   7.199 -0.2575 -0.8067  0.7504
  213MOL0     C29282   8.804   8.136   7.267 -0.0720 -0.9884  0.3218
  213MOL0     C29283   8.888   8.139   7.377 -0.0445  0.1648  0.9744
  213MOL0     C29284   8.939   8.009   7.427 -0.7750 -0.9082  0.4087
  213MOL0     C29285   8.925   8.264   7.435 -0.7330  0.1551  0.1075
  213MOL0     C29286   9.001   8.269   7.570 -0.0717  1.5185  0.6667
  213MOL0     O29287   8.969   8.163   7.665 -0.4407 -0.3631  0.8056
  213MOL0     C29288   9.044   8.150   7.782  0.6301  0.7417 -0.0864
  213MOL0     C29289   9.180   8.142   7.785  0.5904  0.0585 -0.6697
  213MOL0     C29290   9.251   8.145   7.906 -0.4661  1.2176 -0.3461
  213MOL0     C29291   9.178   8.120   8.026 -0.0442 -0.3861  0.3777
  213MOL0     O29292   9.236   8.098   8.154 -0.2254 -0.0676 -0.2071
  213MOL0     C29293   9.352   8.011   8.142  0.0467  0.0882  0.3359
  213MOL0     C29294   9.322   7.866   8.122  0.6895  0.1329  0.1336
  213MOL0     C29295   9.298   7.796   8.260 -0.1703 -1.1740  0.4104
  213MOL0     C29296   9.303   7.638   8.229 -1.2909 -0.5108  0.3122
  213MOL0     C29297   9.245   7.551   8.346 -0.3628  0.2782  0.5147
  213MOL0     C29298   9.090   7.521   8.346 -0.3794  0.9679  1.2665
  213MOL0     C29299   9.021   7.481   8.212 -0.4893  0.2446  0.4244
  213MOL0     C29300   9.041   7.337   8.159 -0.2249 -0.1454 -0.7770
  213MOL0    Cl29301   8.953   7.318   8.003 -0.1754  0.1663 -0.1773
  213MOL0     C29302   9.033   8.122   8.017 -0.0260 -0.7014 -0.6279
  213MOL0     C29303   8.965   8.148   7.901  0.1423 -0.8748 -0.3290
  213MOL0     O29304   9.088   8.354   7.582  0.8138  0.2230 -0.5013
  213MOL0     C29305   8.886   8.380   7.368  0.2345 -0.2232 -0.6430
  213MOL0     C29306   8.803   8.375   7.258 -0.5463  0.5977  0.4330
  213MOL0     N29307   8.485   8.520   7.430  0.4194 -0.3119  0.4048
  213MOL0     N29308   8.496   8.567   7.544 -0.4125  0.4876 -0.1923
  213MOL0     C29309   8.743   9.154   8.130 -0.2761 -0.2476 -1.0837
  213MOL0     C29310   8.850   9.219   8.073  0.7379  0.6230 -0.2888
  213MOL0     C29311   9.179   9.378   7.820  0.0408  0.2364  0.2776
  213MOL0     C29312   9.237   9.264   7.759 -0.6832  0.0003  1.7729
  213MOL0     C29313   9.333   9.286   7.659  0.3478  1.4897 -1.2021
  213MOL0     C29314   9.382   9.412   7.630  0.7355  0.7820 -0.8985
  213MOL0     O29315   9.488   9.427   7.548  0.4121 -0.2752  1.1488
  213MOL0     C29316   9.503   9.351   7.426 -0.5314 -0.1926 -0.0526
  213MOL0     C29317   9.599   9.406   7.320  0.0428  0.3521  0.0162
  213MOL0     C29318   9.583   9.559   7.297  0.3833 -0.1746 -0.4971
  213MOL0     C29319   9.511   9.583   7.162  0.1237  0.3335 -2.2470
  213MOL0     C29320   9.455   9.717   7.163 -0.1571 -0.3659  0.3853
  213MOL0     C29321   9.383   9.816   7.172 -0.5054  0.0436 -0.0589
  213MOL0     C29322   9.318   9.520   7.685  0.0767 -0.5707 -0.7539
  213MOL0     C29323   9.213   9.509   7.780 -0.1816 -0.3803 -0.1910
  213MOL0     C29324   9.137   9.639   7.826 -0.0635  0.8248 -0.0548
  213MOL0     H29325   8.774   9.175   7.747  1.3099  1.9132 -0.0031
  213MOL0     H29326   8.586   9.028   7.876 -0.7873 -0.2923  1.5768
  213MOL0     H29327   8.496   8.927   8.293 -0.6373  2.1648 -0.4400
  213MOL0     H29328   8.676   8.940   8.246  0.4019  1.0035 -2.0305
  213MOL0     H29329   8.637   8.779   8.053 -0.5013  0.1074 -1.1939
  213MOL0     H29330   8.600   8.684   8.205  0.2690 -1.4246 -0.4425
  213MOL0     H29331   8.351   8.801   8.142 -0.0095  0.1850 -0.2214
  213MOL0     H29332   8.429   8.793   7.988  3.4957  2.0308  0.6485
  213MOL0     H29333   8.462   8.566   7.996 -0.3156  1.6992 -1.7314
  213MOL0     H29334   8.412   8.559   8.170  0.9594  0.2488 -0.4603
  213MOL0     H29335   8.192   8.569   8.151  0.0336 -2.3137  1.4300
  213MOL0     H29336   8.248   8.454   8.029  1.3374  0.5594 -1.8052
  213MOL0     H29337   8.075   8.586   7.948  0.3039 -0.2518 -1.0605
  213MOL0     H29338   8.160   8.733   7.923 -2.1995  0.2325 -1.6260
  213MOL0     H29339   8.135   8.557   7.738  0.3300  1.2372 -1.5709
  213MOL0     H29340   8.273   8.469   7.805 -2.0845 -1.7662 -2.7571
  213MOL0     H29341   8.272   8.752   7.705  0.5450  0.3792 -1.8808
  213MOL0     H29342   8.412   8.678   7.786 -1.0921  2.1410  0.6201
  213MOL0     H29343   8.170   8.565   7.514 -0.0637 -0.5850  0.1355
  213MOL0     H29344   8.206   8.544   7.262  0.8118  0.7849  1.4947
  213MOL0     H29345   8.217   8.374   7.311 -3.0788  0.4281 -1.2605
  213MOL0     H29346   8.308   8.453   7.072 -2.0115  2.5620  1.8505
  213MOL0     H29347   8.446   8.528   7.153  0.4766  0.5167 -4.3793
  213MOL0     H29348   8.489   8.310   7.277  2.7008  2.5843 -0.1904
  213MOL0     H29349   8.394   8.226   7.153 -1.9430  1.7199  0.2677
  213MOL0     H29350   8.524   8.314   6.976 -1.6521  1.5640  1.2240
  213MOL0     H29351   8.601   8.428   7.089 -0.0984  0.2234  0.1625
  213MOL0     H29352   8.778   8.033   7.246  1.9322 -1.7351  1.2833
  213MOL0     H29353   8.898   7.974   7.522 -0.9453 -0.1574  0.6182
  213MOL0     H29354   9.047   8.017   7.440 -0.3851 -4.3175  0.2523
  213MOL0     H29355   8.922   7.928   7.354  4.2126  1.2935 -3.8076
  213MOL0     H29356   9.226   8.157   7.688  0.4581  1.9824 -0.4729
  213MOL0     H29357   9.358   8.165   7.911 -0.6080  2.7017 -2.1195
  213MOL0     H29358   9.423   8.044   8.065  2.8758 -1.5032  2.1316
  213MOL0     H29359   9.408   8.013   8.235  1.3035  0.3206 -0.4030
  213MOL0     H29360   9.235   7.850   8.057 -0.4071  1.4918  1.2028
  213MOL0     H29361   9.406   7.825   8.066  0.1325  0.0096 -0.6385
  213MOL0     H29362   9.208   7.827   8.313  1.4929  1.1838  2.0898
  213MOL0     H29363   9.382   7.832   8.321 -0.2636  1.0733 -0.6909
  213MOL0     H29364   9.409   7.610   8.219 -1.4838 -2.0000  1.9019
  213MOL0     H29365   9.271   7.614   8.127  2.2538  0.1257 -1.1118
  213MOL0     H29366   9.301   7.457   8.339 -1.5205 -0.4001  0.0196
  213MOL0     H29367   9.265   7.592   8.445 -1.9269 -0.0400  0.9955
  213MOL0     H29368   9.052   7.614   8.387  0.2138  0.8415  2.1345
  213MOL0     H29369   9.067   7.444   8.420 -3.6803  0.6525  0.0901
  213MOL0     H29370   9.032   7.556   8.133  0.9608 -0.3669  0.0092
  213MOL0     H29371   8.916   7.488   8.243  0.0585  3.0908  1.9429
  213MOL0     H29372   8.999   7.266   8.232 -2.0045  1.6998  0.1018
  213MOL0     H29373   9.149   7.327   8.148  0.0293  2.0448 -0.7037
  213MOL0     H29374   8.978   8.116   8.111  2.7468  1.2734  1.3056
  213MOL0     H29375   8.857   8.147   7.904  0.1554  0.0215  0.9936
  213MOL0     H29376   8.912   8.478   7.408 -1.2572  0.8289 -2.1358
  213MOL0     H29377   8.784   8.454   7.186 -2.3607 -1.8493 -2.0029
  213MOL0     H29378   8.727   9.165   8.237  1.5211  0.5629 -0.8500
  213MOL0     H29379   8.915   9.255   8.152 -0.5019 -2.0204  2.1237
  213MOL0     H29380   9.207   9.164   7.787 -1.6966 -1.0762 -2.3667
  213MOL0     H29381   9.370   9.196   7.612 -1.5568 -0.7529  1.2433
  213MOL0     H29382   9.514   9.242   7.437 -0.3354 -0.0421  1.6012
  213MOL0     H29383   9.404   9.357   7.381  0.7458  1.5577 -2.9006
  213MOL0     H29384   9.578   9.352   7.227  2.9418 -1.3118  0.2137
  213MOL0     H29385   9.701   9.380   7.350  0.8320  0.1006 -2.5809
  213MOL0     H29386   9.514   9.600   7.372  2.6042  1.0131  0.9969
  213MOL0     H29387   9.679   9.610   7.293 -0.0968  0.7621 -0.4249
  213MOL0     H29388   9.435   9.504   7.162  1.8065 -1.3695 -1.3261
  213MOL0     H29389   9.586   9.556   7.087  0.6006 -2.3335 -0.9345
  213MOL0     H29390   9.319   9.900   7.190  1.6056  1.2321  2.8257
  213MOL0     H29391   9.351   9.618   7.651 -0.7405  0.2031  0.5916
  213MOL0     H29392   9.128   9.701   7.736  3.7704 -0.2756 -1.4087
  213MOL0     H29393   9.048   9.617   7.885 -0.1572  0.7157 -0.2363
  213MOL0     H29394   9.210   9.694   7.888  0.1306 -1.0151  1.4278
  214MOL0     O29395   8.756   1.397   4.750  0.4138 -0.0798  0.1826
  214MOL0     C29396   8.860   1.430   4.800  0.2944 -0.1573  0.2666
  214MOL0     O29397   8.876   1.456   4.923  0.4315  0.3393 -0.7191
  214MOL0     C29398   8.773   1.437   5.012  0.1893 -0.2513  0.0575
  214MOL0     C29399   8.679   1.534   5.048  0.1228 -0.6677  0.4674
  214MOL0     C29400   8.582   1.514   5.148  0.5357 -0.3195 -0.0932
  214MOL0     C29401   8.574   1.388   5.210  0.0434 -0.8203 -0.2400
  214MOL0     O29402   8.480   1.376   5.309 -0.9070  0.4861 -0.2400
  214MOL0     C29403   8.540   1.323   5.429 -0.0397  0.2996  0.2502
  214MOL0     C29404   8.468   1.399   5.535  1.0614 -0.0809  0.5707
  214MOL0     C29405   8.343   1.314   5.589 -0.0972  0.6200  0.0418
  214MOL0     C29406   8.252   1.413   5.661  0.0060 -0.3741  0.6548
  214MOL0     C29407   8.148   1.348   5.747  0.1969  0.6213  0.1794
  214MOL0     C29408   8.050   1.454   5.801 -0.7816 -0.7135  0.3338
  214MOL0     C29409   8.119   1.521   5.926 -0.4323 -0.1751  0.0429
  214MOL0     C29410   8.003   1.618   5.981  0.3537  0.4876  0.4069
  214MOL0     N29411   8.029   1.752   5.934  0.2523 -0.3941  1.0281
  214MOL0     C29412   8.130   1.836   5.956 -0.0313 -0.1094 -0.4844
  214MOL0     C29413   8.097   1.940   5.874 -0.7066 -0.4337  0.5305
  214MOL0     C29414   8.183   2.064   5.858  0.3761  0.3912 -0.2443
  214MOL0     C29415   8.149   2.180   5.957 -0.7911  0.7172  0.6207
  214MOL0     C29416   8.255   2.302   5.931  0.4477 -1.1661 -0.7919
  214MOL0     C29417   8.234   2.421   6.025 -0.3480 -0.2097  0.3988
  214MOL0     O29418   8.271   2.390   6.160 -0.1588  0.1659 -0.7108
  214MOL0     C29419   8.399   2.413   6.206  0.1109  1.2072  0.7315
  214MOL0     C29420   8.425   2.537   6.265  1.0576 -0.8438 -0.0866
  214MOL0     C29421   8.549   2.561   6.318 -0.4174  0.1766 -0.0975
  214MOL0     C29422   8.559   2.679   6.411  0.6034  0.1523  0.1606
  214MOL0     C29423   8.653   2.452   6.311 -0.1080  0.0742 -0.8218
  214MOL0     C29424   8.781   2.462   6.384  0.2112 -0.6641 -0.4807
  214MOL0     O29425   8.869   2.381   6.330  0.3403 -0.3776  1.0219
  214MOL0     C29426   8.994   2.366   6.383 -0.9499 -0.3521  0.3920
  214MOL0     C29427   9.060   2.246   6.367  0.2016 -0.0720 -0.4018
  214MOL0     C29428   9.186   2.230   6.404  0.1432  0.4177  0.5362
  214MOL0     C29429   9.262   2.338   6.455 -0.9091  1.1509 -0.2792
  214MOL0     O29430   9.403   2.328   6.472  0.3792 -0.2777 -0.6368
  214MOL0     C29431   9.485   2.222   6.411  0.1463 -0.6230 -0.4613
  214MOL0     C29432   9.632   2.266   6.404  0.8667 -1.0762 -0.0665
  214MOL0     C29433   9.709   2.147   6.359 -0.2770 -1.7089  0.5302
  214MOL0     C29434   9.751   2.174   6.211  0.5213 -0.6178 -0.0726
  214MOL0     C29435   9.853   2.071   6.164  0.2289  0.0905 -0.3669
  214MOL0     C29436   9.927   2.121   6.027  0.0050 -0.3512  0.5819
  214MOL0     C29437   9.939   1.995   5.934  0.3173 -0.5190  0.3796
  214MOL0     C29438  10.023   1.891   5.987 -0.0013 -0.7886 -0.6378
  214MOL0    Cl29439  10.188   1.966   5.997  0.7321  0.2343 -0.1185
  214MOL0     C29440   9.199   2.463   6.470  0.9498 -0.3385 -0.2867
  214MOL0     C29441   9.068   2.478   6.431 -0.1402  0.2262 -0.2761
  214MOL0     O29442   8.798   2.518   6.490  0.6430  0.0316  0.0254
  214MOL0     C29443   8.620   2.336   6.239  0.2777 -1.1575  1.3056
  214MOL0     C29444   8.494   2.312   6.187 -0.5608 -1.2745 -0.2026
  214MOL0     N29445   7.976   1.914   5.807  0.5073  0.2803 -0.3022
  214MOL0     N29446   7.939   1.799   5.843 -0.3242 -0.4211 -0.1966
  214MOL0     C29447   8.675   1.284   5.174  0.7263 -0.7130 -0.0634
  214MOL0     C29448   8.771   1.314   5.075 -0.5569  0.3778  0.6744
  214MOL0     C29449   8.985   1.440   4.719 -0.0088  0.3622  0.0759
  214MOL0     C29450   9.111   1.476   4.783  0.1317 -1.1605 -0.2628
  214MOL0     C29451   9.233   1.475   4.720 -0.0378  0.3917  0.1887
  214MOL0     C29452   9.239   1.425   4.585 -1.0958  0.3417  0.1497
  214MOL0     O29453   9.363   1.423   4.517  0.7356 -0.0963  0.2128
  214MOL0     C29454   9.432   1.299   4.527 -0.1346  0.5530  0.0931
  214MOL0     C29455   9.518   1.271   4.398  0.3473 -0.5608  0.6751
  214MOL0     C29456   9.626   1.375   4.364 -0.6198  0.0903  0.1396
  214MOL0     C29457   9.669   1.350   4.217 -0.2658 -0.2237  0.1030
  214MOL0     C29458   9.766   1.452   4.177 -0.8532  0.0902 -0.1573
  214MOL0     C29459   9.848   1.536   4.158  0.6971 -0.7368  0.0222
  214MOL0     C29460   9.122   1.393   4.520 -0.2500  0.6870  0.4763
  214MOL0     C29461   8.996   1.405   4.581  0.6943  0.8206 -0.5797
  214MOL0     C29462   8.870   1.388   4.491  0.6624  0.5136 -0.0547
  214MOL0     H29463   8.667   1.623   4.986 -1.7829 -2.4712 -1.9938
  214MOL0     H29464   8.504   1.588   5.164  0.0933 -0.0554 -2.9621
  214MOL0     H29465   8.644   1.358   5.438 -0.2899  1.2808 -0.4450
  214MOL0     H29466   8.521   1.218   5.450  1.4389  0.2398  1.4991
  214MOL0     H29467   8.538   1.423   5.616  0.8056  3.2438 -0.0299
  214MOL0     H29468   8.439   1.494   5.490  3.5240  0.3263 -0.2960
  214MOL0     H29469   8.290   1.264   5.507  2.0099 -4.4499  1.4068
  214MOL0     H29470   8.373   1.237   5.660  2.8841 -0.1194 -1.8296
  214MOL0     H29471   8.315   1.480   5.719 -0.9622  1.9501 -0.8679
  214MOL0     H29472   8.198   1.470   5.586  1.3808 -0.4642 -0.4240
  214MOL0     H29473   8.180   1.276   5.823 -0.9706 -0.6430 -0.4835
  214MOL0     H29474   8.102   1.279   5.677 -0.2595  0.1825  0.9046
  214MOL0     H29475   8.025   1.533   5.729  0.3378  1.2725  1.9941
  214MOL0     H29476   7.953   1.407   5.820 -3.3162  3.8228 -0.0029
  214MOL0     H29477   8.221   1.559   5.918 -0.2033  0.0870  3.0181
  214MOL0     H29478   8.128   1.445   6.005 -6.1532 -2.0185 -0.6226
  214MOL0     H29479   7.901   1.596   5.949  0.4964 -1.2393  1.0085
  214MOL0     H29480   8.013   1.613   6.089 -2.1069 -1.5337  0.6448
  214MOL0     H29481   8.218   1.845   6.020 -0.1407  2.0044 -0.5489
  214MOL0     H29482   8.162   2.107   5.760 -2.7891  0.2098  0.2497
  214MOL0     H29483   8.284   2.025   5.873  0.0829 -1.7257 -3.0217
  214MOL0     H29484   8.044   2.201   5.935 -0.8111  0.1993  0.1993
  214MOL0     H29485   8.163   2.143   6.058  1.3937 -1.5084 -0.3820
  214MOL0     H29486   8.361   2.278   5.920  2.0319  3.4681  1.4044
  214MOL0     H29487   8.236   2.345   5.832  1.1256 -1.4670 -1.0614
  214MOL0     H29488   8.292   2.507   5.989 -0.1645 -0.1991  0.7161
  214MOL0     H29489   8.133   2.461   6.016  0.4953  1.6760 -1.6973
  214MOL0     H29490   8.342   2.602   6.291  2.9377  2.2056 -1.1133
  214MOL0     H29491   8.522   2.644   6.508 -0.0940 -1.5863 -0.7001
  214MOL0     H29492   8.492   2.754   6.367  2.0297  1.4949  0.1776
  214MOL0     H29493   8.663   2.710   6.415  1.1800 -1.7425  1.2874
  214MOL0     H29494   9.017   2.158   6.321  0.5646 -2.4207  3.3638
  214MOL0     H29495   9.230   2.134   6.381 -0.1672  0.2345  0.6892
  214MOL0     H29496   9.467   2.126   6.460 -1.4975 -2.8485 -4.9332
  214MOL0     H29497   9.449   2.213   6.309  3.0519  0.1905 -1.6601
  214MOL0     H29498   9.635   2.351   6.335  4.3554 -0.9161  0.1137
  214MOL0     H29499   9.661   2.303   6.503 -1.1539 -0.4943  0.3676
  214MOL0     H29500   9.647   2.058   6.352 -0.7464 -1.3109 -0.6686
  214MOL0     H29501   9.793   2.133   6.428 -0.7078 -0.3390  1.3583
  214MOL0     H29502   9.804   2.270   6.212 -2.0624  0.9442 -1.6984
  214MOL0     H29503   9.667   2.195   6.145  1.0778 -1.1547 -0.9758
  214MOL0     H29504   9.928   2.062   6.242 -1.2020  0.2788  1.0837
  214MOL0     H29505   9.804   1.974   6.154  0.9549 -0.4815  1.3709
  214MOL0     H29506  10.025   2.157   6.061  1.6998 -2.9580 -1.1043
  214MOL0     H29507   9.861   2.196   5.983 -0.1660  0.4264  2.1116
  214MOL0     H29508   9.971   2.022   5.833 -2.5895 -0.4965 -0.6351
  214MOL0     H29509   9.843   1.946   5.919  0.2376  0.3970 -2.6485
  214MOL0     H29510  10.030   1.801   5.925 -1.4875 -2.5534  1.6131
  214MOL0     H29511   9.987   1.868   6.087  0.2101  0.3290 -0.2915
  214MOL0     H29512   9.257   2.545   6.511  1.7710 -1.5120  1.0234
  214MOL0     H29513   9.027   2.579   6.423  0.8753  0.6101 -0.8726
  214MOL0     H29514   8.701   2.264   6.232 -0.3406 -1.6862 -1.5239
  214MOL0     H29515   8.463   2.220   6.138  0.1235 -2.4536  1.4893
  214MOL0     H29516   8.654   1.194   5.232  3.2997  0.4364  2.9230
  214MOL0     H29517   8.844   1.240   5.043 -0.8779 -0.1748  1.2064
  214MOL0     H29518   9.100   1.507   4.886 -0.8525  1.6688 -1.1159
  214MOL0     H29519   9.327   1.514   4.760  1.2639 -1.8856 -0.4927
  214MOL0     H29520   9.499   1.292   4.613 -0.9946 -1.8250  0.6428
  214MOL0     H29521   9.352   1.225   4.528  0.2945  0.0941  0.2616
  214MOL0     H29522   9.456   1.270   4.308  1.3439 -0.6486 -0.0143
  214MOL0     H29523   9.556   1.169   4.409  1.5136 -0.2589 -0.3702
  214MOL0     H29524   9.581   1.474   4.377 -1.7555 -0.0096 -2.4921
  214MOL0     H29525   9.707   1.359   4.436  0.4576  0.6699 -0.9183
  214MOL0     H29526   9.591   1.354   4.140  1.2903  0.0843 -1.5453
  214MOL0     H29527   9.717   1.253   4.202  1.0932  0.1134  1.9637
  214MOL0     H29528   9.923   1.611   4.141  0.8182 -0.0815  2.9450
  214MOL0     H29529   9.125   1.339   4.426 -3.1383  0.8952  0.1684
  214MOL0     H29530   8.875   1.406   4.383  2.7612 -1.7542 -0.4336
  214MOL0     H29531   8.814   1.294   4.492 -2.8827  2.4552 -0.0534
  214MOL0     H29532   8.794   1.459   4.526  0.0203 -1.5872  3.2756
  215MOL0     O29533   5.859   3.876   2.070 -0.2238  0.3196 -0.0195
  215MOL0     C29534   5.979   3.897   2.036 -0.1450 -0.2726  0.1953
  215MOL0     O29535   6.020   3.881   1.905 -0.6537 -0.0429  0.2850
  215MOL0     C29536   5.945   3.848   1.795  0.1095 -0.4591  0.2006
  215MOL0     C29537   5.809   3.894   1.776  0.6180  0.3956 -1.5478
  215MOL0     C29538   5.749   3.856   1.652  0.0741  0.1093  0.4994
  215MOL0     C29539   5.821   3.790   1.551 -0.5841  1.2470 -0.1147
  215MOL0     O29540   5.755   3.746   1.435 -0.4402  0.2481 -0.5501
  215MOL0     C29541   5.828   3.680   1.332  0.1143  0.7444 -0.2629
  215MOL0     C29542   5.709   3.617   1.259  0.4176 -0.7716 -0.1457
  215MOL0     C29543   5.674   3.476   1.300 -0.2505 -0.6807  0.3582
  215MOL0     C29544   5.581   3.433   1.186  0.4359 -0.0237  0.1837
  215MOL0     C29545   5.553   3.294   1.202 -0.4464  0.1426 -0.3279
  215MOL0     C29546   5.520   3.238   1.064 -0.9851  0.2399  0.4434
  215MOL0     C29547   5.650   3.176   1.016 -0.3575  0.4452  0.3732
  215MOL0     C29548   5.630   3.083   0.902 -0.3121  0.2817  0.1699
  215MOL0     N29549   5.761   3.065   0.844  0.2947 -0.2039  0.4187
  215MOL0     C29550   5.783   3.144   0.742  0.2079  0.2547 -0.1049
  215MOL0     C29551   5.910   3.103   0.707  0.0358 -0.3496  0.3562
  215MOL0     C29552   5.969   3.169   0.578  0.4578  0.0198 -0.9834
  215MOL0     C29553   5.954   3.070   0.453 -0.0739 -0.2551 -0.5629
  215MOL0     C29554   5.988   3.148   0.329 -0.1049  0.2898  0.4432
  215MOL0     C29555   5.953   3.065   0.210 -0.3018  0.4599  0.3460
  215MOL0     O29556   6.029   2.944   0.222  0.6539  0.3267 -0.0815
  215MOL0     C29557   6.049   2.854   0.120  1.0960  0.1379  0.1086
  215MOL0     C29558   5.983   2.870  -0.004 -0.2185  0.0655 -0.9099
  215MOL0     C29559   5.987   2.761  -0.100 -0.7338  0.5005 -0.0821
  215MOL0     C29560   5.915   2.777  -0.234  0.2994 -0.2506  0.1578
  215MOL0     C29561   6.065   2.652  -0.062  0.3017  0.0865 -0.5400
  215MOL0     C29562   6.092   2.538  -0.148  0.9650 -0.0178  0.9260
  215MOL0     O29563   6.083   2.405  -0.089  0.4179 -0.2490 -0.4396
  215MOL0     C29564   6.102   2.307  -0.178 -0.0177 -0.1866 -0.2573
  215MOL0     C29565   6.232   2.257  -0.202  0.2624 -0.5512 -0.2770
  215MOL0     C29566   6.268   2.158  -0.288 -0.1399 -0.1630  0.5651
  215MOL0     C29567   6.170   2.102  -0.365 -0.0250  0.1494 -0.4901
  215MOL0     O29568   6.211   1.996  -0.437  0.6817  1.0255  0.8204
  215MOL0     C29569   6.157   1.986  -0.573 -0.1042 -0.1851 -0.4540
  215MOL0     C29570   6.237   1.877  -0.635  0.2550  0.0752 -1.0687
  215MOL0     C29571   6.165   1.737  -0.616  0.0516  0.6930  0.3583
  215MOL0     C29572   6.274   1.637  -0.645 -0.1954 -0.1219  0.2433
  215MOL0     C29573   6.383   1.618  -0.533  0.5917  1.1837  0.3477
  215MOL0     C29574   6.465   1.491  -0.551 -0.0861  0.9434  0.0193
  215MOL0     C29575   6.389   1.362  -0.519  0.6738  0.2091  0.7863
  215MOL0     C29576   6.457   1.241  -0.577  0.7980  0.0596  0.3833
  215MOL0    Cl29577   6.471   1.261  -0.747  0.1758  0.2787 -0.1068
  215MOL0     C29578   6.033   2.139  -0.347 -0.1444  0.2367 -0.0426
  215MOL0     C29579   6.000   2.250  -0.264 -0.3042  0.4762  0.1963
  215MOL0     O29580   6.102   2.563  -0.268 -0.7920 -0.6771 -0.5079
  215MOL0     C29581   6.123   2.637   0.058 -0.5232 -0.9697  0.1287
  215MOL0     C29582   6.110   2.738   0.153 -0.8289  0.0760 -0.2832
  215MOL0     N29583   5.952   2.999   0.793  0.5085 -0.5732  0.5978
  215MOL0     N29584   5.860   2.984   0.883  0.2662 -1.0218  0.3245
  215MOL0     C29585   5.958   3.764   1.564  0.0381 -0.7308 -1.1831
  215MOL0     C29586   6.015   3.803   1.682  0.0540 -0.3774  0.4492
  215MOL0     C29587   6.083   3.945   2.142  0.5562  0.1448  0.3713
  215MOL0     C29588   6.168   4.050   2.095 -0.0924  0.8130  0.1841
  215MOL0     C29589   6.280   4.082   2.176 -0.8742  0.0050 -0.3154
  215MOL0     C29590   6.308   4.025   2.299  0.6097  1.0561  0.3194
  215MOL0     O29591   6.430   4.059   2.375  0.2521  0.5348  0.7062
  215MOL0     C29592   6.496   3.967   2.469  0.4883  0.3668  0.1972
  215MOL0     C29593   6.629   4.033   2.503  0.4307 -0.3380 -0.5729
  215MOL0     C29594   6.712   4.102   2.394 -0.6845 -0.5802 -0.1076
  215MOL0     C29595   6.854   4.139   2.449  0.7875  1.1755  0.6411
  215MOL0     C29596   6.874   4.238   2.552 -0.5387 -0.0293  0.6644
  215MOL0     C29597   6.886   4.315   2.645 -0.0500 -0.3010 -0.2335
  215MOL0     C29598   6.211   3.926   2.342 -1.2818 -0.1144 -0.3923
  215MOL0     C29599   6.102   3.887   2.262  0.5442  0.3853  0.1369
  215MOL0     C29600   6.014   3.780   2.324  0.5382  0.1937 -0.1786
  215MOL0     H29601   5.750   3.930   1.860  0.0882  3.4176 -3.0502
  215MOL0     H29602   5.643   3.880   1.647 -0.9668 -3.6455  1.2303
  215MOL0     H29603   5.896   3.597   1.352  0.8800  1.0076 -1.6216
  215MOL0     H29604   5.881   3.762   1.281  1.8268  1.3993  2.3862
  215MOL0     H29605   5.624   3.685   1.267  2.1233  1.2892  1.6386
  215MOL0     H29606   5.756   3.604   1.161  2.6728 -4.3255  1.2200
  215MOL0     H29607   5.765   3.416   1.291 -1.6327 -2.7656 -0.8963
  215MOL0     H29608   5.631   3.456   1.399 -0.9574 -1.2274 -0.0410
  215MOL0     H29609   5.486   3.487   1.195  0.3924 -0.2883  1.6480
  215MOL0     H29610   5.623   3.461   1.089  1.9775  4.7997  1.9584
  215MOL0     H29611   5.465   3.294   1.267  1.3691 -3.3802  2.4330
  215MOL0     H29612   5.638   3.241   1.246  0.0060 -0.0415 -1.3708
  215MOL0     H29613   5.442   3.163   1.075 -1.1856  0.1852 -1.1636
  215MOL0     H29614   5.482   3.313   0.995  0.6929  0.9826  0.2715
  215MOL0     H29615   5.692   3.119   1.100 -3.1621  0.8115  2.1504
  215MOL0     H29616   5.721   3.252   0.983 -1.3035  2.2424  2.2372
  215MOL0     H29617   5.587   2.989   0.937  0.8903 -1.1944 -2.1125
  215MOL0     H29618   5.567   3.125   0.823 -1.2130 -1.2847  0.0174
  215MOL0     H29619   5.734   3.224   0.687  0.6823  1.3441  1.0042
  215MOL0     H29620   6.074   3.199   0.587  0.5158 -0.4781  0.1516
  215MOL0     H29621   5.916   3.263   0.563  1.2273  0.6702  0.1988
  215MOL0     H29622   6.011   2.976   0.455 -1.4938 -1.1707 -1.2526
  215MOL0     H29623   5.851   3.034   0.455  0.0259 -0.9752 -3.4078
  215MOL0     H29624   5.936   3.244   0.334 -1.1331 -0.2871  1.4608
  215MOL0     H29625   6.095   3.168   0.319 -0.3131  1.0732 -0.3474
  215MOL0     H29626   5.844   3.050   0.213 -0.5737  0.4945 -3.9087
  215MOL0     H29627   5.980   3.116   0.118 -1.8744 -0.2721 -0.5650
  215MOL0     H29628   5.927   2.957  -0.034 -0.4352 -0.2623 -1.4640
  215MOL0     H29629   5.978   2.818  -0.313  0.9119 -1.8067 -0.2028
  215MOL0     H29630   5.827   2.838  -0.215  0.3259 -0.4968  1.1417
  215MOL0     H29631   5.886   2.678  -0.271  3.0445 -0.5599 -1.4487
  215MOL0     H29632   6.304   2.300  -0.133 -1.4797  0.2554  1.0914
  215MOL0     H29633   6.375   2.140  -0.285 -0.3587 -2.1679 -1.2308
  215MOL0     H29634   6.048   1.976  -0.578 -0.4585  2.6003 -0.1890
  215MOL0     H29635   6.182   2.074  -0.633 -2.0454 -0.1902 -1.3241
  215MOL0     H29636   6.246   1.899  -0.742 -1.0552  0.7568 -1.0540
  215MOL0     H29637   6.336   1.880  -0.590  0.0837 -3.9711 -0.1029
  215MOL0     H29638   6.081   1.731  -0.686 -1.2026  4.5414  1.2541
  215MOL0     H29639   6.128   1.713  -0.516 -2.7460  1.3278 -0.4487
  215MOL0     H29640   6.327   1.666  -0.736 -2.7117  1.6534 -0.7397
  215MOL0     H29641   6.216   1.545  -0.661 -1.0567  0.5351 -0.5159
  215MOL0     H29642   6.457   1.698  -0.530  0.9543  0.9176  4.6773
  215MOL0     H29643   6.330   1.635  -0.438 -2.5114  4.5647 -1.7329
  215MOL0     H29644   6.540   1.502  -0.473  0.1899  1.6782 -0.3334
  215MOL0     H29645   6.526   1.498  -0.642  0.7446 -5.3731 -0.3670
  215MOL0     H29646   6.285   1.376  -0.551  1.4725  1.8979 -1.3574
  215MOL0     H29647   6.387   1.358  -0.410  0.0228  1.8543  0.8673
  215MOL0     H29648   6.401   1.152  -0.550 -0.3585  0.6210 -0.0935
  215MOL0     H29649   6.559   1.238  -0.537  0.7434 -1.6675  0.4369
  215MOL0     H29650   5.957   2.081  -0.399  0.1755 -0.2573  0.0282
  215MOL0     H29651   5.895   2.277  -0.257 -1.1787 -2.0954 -1.5061
  215MOL0     H29652   6.179   2.548   0.084  0.9981 -1.6393 -4.4011
  215MOL0     H29653   6.149   2.715   0.251  1.0832  1.2661 -0.6985
  215MOL0     H29654   6.027   3.728   1.489  1.7847  1.7465 -0.8848
  215MOL0     H29655   6.116   3.771   1.704  0.2323  0.1288  0.3669
  215MOL0     H29656   6.153   4.081   1.992  0.5375 -1.2633 -0.5730
  215MOL0     H29657   6.355   4.154   2.143  0.8777 -1.5209  0.1450
  215MOL0     H29658   6.430   3.949   2.555  0.1108 -1.6906 -0.4588
  215MOL0     H29659   6.525   3.868   2.434 -0.6969 -0.8319  2.3741
  215MOL0     H29660   6.688   3.956   2.555 -1.1419 -0.3094  1.3818
  215MOL0     H29661   6.600   4.113   2.572 -0.1176  0.9975 -2.3049
  215MOL0     H29662   6.713   4.036   2.307 -2.0899 -0.2831 -0.3802
  215MOL0     H29663   6.663   4.198   2.376 -2.6338 -1.2753  1.2210
  215MOL0     H29664   6.902   4.174   2.357 -2.6781  1.9174 -1.0719
  215MOL0     H29665   6.906   4.045   2.469  0.7373  0.4475 -2.2430
  215MOL0     H29666   6.893   4.400   2.710 -0.5168 -0.4977  0.0839
  215MOL0     H29667   6.208   3.887   2.443  0.3811  1.0404  0.1447
  215MOL0     H29668   5.969   3.703   2.261 -3.3202  2.8539 -1.0107
  215MOL0     H29669   6.080   3.716   2.383 -1.3396 -1.3239  0.3699
  215MOL0     H29670   5.937   3.813   2.394  1.1176  0.9988  0.1007
  216MOL0     O29671   0.509   3.670   2.804  0.7456 -1.0075  0.8689
  216MOL0     C29672   0.563   3.670   2.696  0.3482 -0.9789 -0.0546
  216MOL0     O29673   0.694   3.644   2.673  0.0719  0.1972  0.3030
  216MOL0     C29674   0.768   3.590   2.766  0.4137  1.5858 -0.9361
  216MOL0     C29675   0.733   3.533   2.889  0.6675  0.8022  0.8259
  216MOL0     C29676   0.833   3.480   2.977 -0.3113  0.8564 -0.4914
  216MOL0     C29677   0.970   3.493   2.944  0.5223 -0.4786  0.3070
  216MOL0     O29678   1.056   3.418   3.018 -0.4541 -0.2703  1.0523
  216MOL0     C29679   1.197   3.440   2.991 -0.4884  0.1462 -0.0982
  216MOL0     C29680   1.266   3.350   3.088 -0.2144  0.6163 -0.8972
  216MOL0     C29681   1.424   3.356   3.087  0.4615  0.2475 -0.0413
  216MOL0     C29682   1.505   3.228   3.141 -0.5513 -0.0528 -0.4881
  216MOL0     C29683   1.472   3.185   3.287  0.2341 -1.1097 -0.0900
  216MOL0     C29684   1.463   3.305   3.388 -0.5086  0.2346  0.0509
  216MOL0     C29685   1.443   3.255   3.532  0.2191  1.2225  0.3135
  216MOL0     C29686   1.301   3.207   3.568  0.2831  1.1286  0.6175
  216MOL0     N29687   1.290   3.143   3.698 -0.4366  0.2474 -0.7414
  216MOL0     C29688   1.308   3.004   3.730  0.0530  0.2571 -0.1066
  216MOL0     C29689   1.317   3.000   3.871 -0.2481  0.7781  0.0597
  216MOL0     C29690   1.338   2.866   3.945  0.3495  0.0323  0.1275
  216MOL0     C29691   1.208   2.811   3.987  1.1258  0.0015  0.3219
  216MOL0     C29692   1.176   2.859   4.130  0.5080  0.8701 -0.9446
  216MOL0     C29693   1.056   2.778   4.183 -0.6946 -0.9734  0.3539
  216MOL0     O29694   1.061   2.636   4.160 -0.4532  0.2983 -0.4847
  216MOL0     C29695   1.114   2.568   4.266  0.2968  0.4685  1.7311
  216MOL0     C29696   1.031   2.524   4.360  0.5825 -0.3038  0.3372
  216MOL0     C29697   1.062   2.434   4.458 -0.5027  0.6875 -0.1878
  216MOL0     C29698   0.952   2.404   4.564  0.7517  0.1319  0.6452
  216MOL0     C29699   1.191   2.374   4.463 -0.1950 -0.1844 -0.1543
  216MOL0     C29700   1.231   2.257   4.552 -0.9785  0.8302  0.9198
  216MOL0     O29701   1.140   2.207   4.637 -0.3356  0.8952  0.1880
  216MOL0     C29702   1.174   2.102   4.725  0.7907  0.3333  0.7679
  216MOL0     C29703   1.152   2.114   4.860 -0.1288  0.1278 -0.2834
  216MOL0     C29704   1.186   2.014   4.955 -0.2750 -0.9170  0.0656
  216MOL0     C29705   1.246   1.905   4.919 -0.6845 -0.6563  0.4260
  216MOL0     O29706   1.288   1.812   5.012 -0.0214 -0.3266  0.3891
  216MOL0     C29707   1.180   1.735   5.072  0.3734 -0.1678  0.3045
  216MOL0     C29708   1.239   1.617   5.150  0.2341 -0.0113  0.1146
  216MOL0     C29709   1.125   1.531   5.209  0.0231 -1.2194  0.3415
  216MOL0     C29710   1.170   1.393   5.252 -0.0663  0.5093 -0.0307
  216MOL0     C29711   1.054   1.283   5.255  0.0043  0.0323 -0.6802
  216MOL0     C29712   0.931   1.328   5.330 -0.4660 -0.4093 -0.4264
  216MOL0     C29713   0.816   1.232   5.379 -0.2242  0.1414 -0.3674
  216MOL0     C29714   0.697   1.311   5.414  0.1889 -0.3361  0.5177
  216MOL0    Cl29715   0.726   1.386   5.576 -0.2352  0.1414 -0.1359
  216MOL0     C29716   1.282   1.884   4.786  0.5649  0.5090 -0.5772
  216MOL0     C29717   1.231   1.979   4.691  0.5933 -1.4094  1.1431
  216MOL0     O29718   1.332   2.192   4.520 -0.5918  0.7322 -0.0903
  216MOL0     C29719   1.281   2.424   4.360 -0.5648 -0.6153  0.6616
  216MOL0     C29720   1.247   2.522   4.267 -0.0496 -0.3032  0.1497
  216MOL0     N29721   1.314   3.128   3.911 -0.5115  0.2219  0.0099
  216MOL0     N29722   1.296   3.215   3.817  0.2375  0.9971  0.0185
  216MOL0     C29723   1.008   3.556   2.829  0.1016 -0.0632  0.4510
  216MOL0     C29724   0.906   3.602   2.743  0.4082 -0.4600  0.4443
  216MOL0     C29725   0.491   3.708   2.567 -1.2023 -0.3776 -0.5686
  216MOL0     C29726   0.564   3.710   2.450  0.3948 -0.0283  0.5074
  216MOL0     C29727   0.507   3.757   2.333 -0.3658 -0.2109  0.4720
  216MOL0     C29728   0.375   3.798   2.325 -0.9277  0.7951  0.3414
  216MOL0     O29729   0.311   3.842   2.213  0.0830 -0.2494 -1.0465
  216MOL0     C29730   0.365   3.840   2.082  0.2600 -0.1855  0.6911
  216MOL0     C29731   0.317   3.712   1.990 -1.2077 -0.3407 -0.7425
  216MOL0     C29732   0.388   3.732   1.862  1.1862  0.9557  0.5584
  216MOL0     C29733   0.309   3.661   1.756 -0.5542 -0.2021  0.6490
  216MOL0     C29734   0.399   3.657   1.630 -0.0674  0.2031 -0.0134
  216MOL0     C29735   0.458   3.634   1.529  0.3981  0.4500 -0.0567
  216MOL0     C29736   0.300   3.798   2.439 -0.5753 -0.5146  0.3350
  216MOL0     C29737   0.348   3.738   2.554 -0.2152  0.3989 -0.0725
  216MOL0     C29738   0.253   3.724   2.675  0.9954 -0.3067  0.0105
  216MOL0     H29739   0.635   3.503   2.922 -0.4230  1.0503 -1.8932
  216MOL0     H29740   0.796   3.424   3.063  2.3991 -3.1743 -1.6475
  216MOL0     H29741   1.220   3.545   3.008 -1.4976  0.4388 -0.4576
  216MOL0     H29742   1.237   3.406   2.895  1.5017  0.7150  0.4873
  216MOL0     H29743   1.225   3.364   3.188  4.1188  0.1156  1.1638
  216MOL0     H29744   1.246   3.245   3.063  1.8794  0.5819 -2.7529
  216MOL0     H29745   1.468   3.373   2.988  0.3600  3.1765  0.3344
  216MOL0     H29746   1.454   3.444   3.144 -1.9248  0.1792  1.4491
  216MOL0     H29747   1.485   3.146   3.072  1.4057  0.4743 -1.7944
  216MOL0     H29748   1.610   3.259   3.133 -0.9256  0.8275 -3.0489
  216MOL0     H29749   1.545   3.115   3.330  0.2318  1.2053  4.1649
  216MOL0     H29750   1.375   3.134   3.283  0.0918 -0.9538  1.1878
  216MOL0     H29751   1.568   3.332   3.391  0.0592 -1.8021 -0.0186
  216MOL0     H29752   1.401   3.387   3.349  2.0865  0.6999 -3.6091
  216MOL0     H29753   1.468   3.344   3.591  0.9672  2.0790 -1.2215
  216MOL0     H29754   1.508   3.170   3.556 -1.6539 -1.1432 -2.4152
  216MOL0     H29755   1.241   3.298   3.572  0.9700  1.5560  1.8829
  216MOL0     H29756   1.271   3.142   3.485 -1.1289 -0.8588  2.5517
  216MOL0     H29757   1.336   2.925   3.661  3.2689  0.2672  0.9791
  216MOL0     H29758   1.405   2.875   4.031 -1.0717 -0.8837  1.3664
  216MOL0     H29759   1.378   2.787   3.880  0.7848 -0.7275  1.2889
  216MOL0     H29760   1.122   2.825   3.921  1.5314 -3.0187 -1.0005
  216MOL0     H29761   1.212   2.702   3.982  3.9894  0.0814 -2.1116
  216MOL0     H29762   1.259   2.831   4.195  0.0750 -0.0944 -0.7954
  216MOL0     H29763   1.159   2.966   4.141 -0.3172  0.4559  4.1472
  216MOL0     H29764   1.038   2.806   4.287 -2.2843 -0.4624 -0.0313
  216MOL0     H29765   0.974   2.818   4.122 -3.0176  1.4303  4.5172
  216MOL0     H29766   0.925   2.549   4.358  0.2931 -1.4739 -0.6436
  216MOL0     H29767   0.903   2.307   4.559  0.3269  0.1624  3.0629
  216MOL0     H29768   0.870   2.476   4.562 -0.8225 -1.4865  2.4834
  216MOL0     H29769   0.978   2.400   4.670 -1.8052 -0.1486  1.3275
  216MOL0     H29770   1.091   2.196   4.897 -3.2603 -2.3506  0.6086
  216MOL0     H29771   1.156   2.030   5.059  0.0357 -0.5664  0.1003
  216MOL0     H29772   1.122   1.798   5.140  2.3360  3.2471 -0.9181
  216MOL0     H29773   1.113   1.689   4.998 -1.8820  2.7157  0.3843
  216MOL0     H29774   1.301   1.572   5.073  0.1294  3.8095 -2.4600
  216MOL0     H29775   1.298   1.660   5.232 -0.4801 -0.6302  0.9763
  216MOL0     H29776   1.052   1.518   5.128 -1.5547  3.0422  0.8330
  216MOL0     H29777   1.075   1.585   5.290  1.5916 -1.6443  1.6438
  216MOL0     H29778   1.211   1.393   5.354  1.5561  0.1644 -0.6436
  216MOL0     H29779   1.248   1.354   5.185  1.5683  1.2486  1.3677
  216MOL0     H29780   1.025   1.250   5.155  0.2704 -1.5764 -0.2614
  216MOL0     H29781   1.094   1.197   5.309 -0.0237 -1.2386 -2.5768
  216MOL0     H29782   0.896   1.408   5.264  2.0915  1.4467  0.3073
  216MOL0     H29783   0.954   1.388   5.419 -2.6222 -0.6142  0.3395
  216MOL0     H29784   0.839   1.162   5.460  1.0960  0.7988 -0.1353
  216MOL0     H29785   0.781   1.177   5.292  0.0876  1.1769 -1.1732
  216MOL0     H29786   0.607   1.248   5.418 -0.0797 -0.0172 -0.3006
  216MOL0     H29787   0.659   1.391   5.350  0.1975  0.5238  1.5599
  216MOL0     H29788   1.351   1.800   4.778  1.6949  1.1629  1.6054
  216MOL0     H29789   1.248   1.964   4.585  1.3188  1.0879  0.8372
  216MOL0     H29790   1.380   2.381   4.366 -0.6363 -0.9758 -0.4694
  216MOL0     H29791   1.316   2.548   4.188  2.5229 -0.4871  2.1990
  216MOL0     H29792   1.113   3.576   2.807  0.3785 -1.2299  0.6002
  216MOL0     H29793   0.940   3.666   2.663  1.9952  2.9462  3.5617
  216MOL0     H29794   0.671   3.698   2.439  0.8060  3.9888 -1.8006
  216MOL0     H29795   0.575   3.753   2.248  1.0208 -0.3853  1.5559
  216MOL0     H29796   0.337   3.937   2.040  0.9484 -0.1016  0.4169
  216MOL0     H29797   0.473   3.850   2.088  0.3797  0.6508 -1.7903
  216MOL0     H29798   0.208   3.700   1.995 -1.5977  2.2919 -1.1610
  216MOL0     H29799   0.352   3.620   2.037 -0.1167 -1.6133 -3.7973
  216MOL0     H29800   0.399   3.837   1.834  3.0262  1.8942  4.2277
  216MOL0     H29801   0.492   3.698   1.871  1.9357  2.1867 -2.2411
  216MOL0     H29802   0.220   3.724   1.746  1.6100  3.1747  0.9608
  216MOL0     H29803   0.288   3.557   1.780  0.7534 -0.6271  0.0361
  216MOL0     H29804   0.522   3.617   1.445  0.8976  3.7063 -0.4760
  216MOL0     H29805   0.195   3.825   2.447 -0.9285 -1.7691  0.0997
  216MOL0     H29806   0.154   3.748   2.636  1.8567 -2.7726 -4.3830
  216MOL0     H29807   0.266   3.620   2.707  1.3304 -0.3516 -0.2583
  216MOL0     H29808   0.280   3.788   2.759 -1.3325  1.1608 -0.2925
  217MOL0     O29809  10.382  10.087   0.982 -0.3609  0.3773  0.7652
  217MOL0     C29810  10.279  10.057   1.045  0.4746 -0.4385 -0.1272
  217MOL0     O29811  10.174  10.143   1.069 -0.1628  0.2512  0.3312
  217MOL0     C29812  10.193  10.282   1.058 -1.0338  0.0483 -0.5783
  217MOL0     C29813  10.087  10.356   1.003 -0.1176 -0.2247  0.0007
  217MOL0     C29814  10.086  10.497   0.996 -0.8010  0.1017 -0.2173
  217MOL0     C29815  10.190  10.574   1.055 -0.1887  0.2915  0.0762
  217MOL0     O29816  10.203  10.716   1.067  0.5257  0.2499 -0.0097
  217MOL0     C29817  10.301  10.771   0.982  0.0153 -0.0660 -0.3304
  217MOL0     C29818  10.225  10.869   0.893 -0.7196 -0.3182  0.0279
  217MOL0     C29819  10.287  10.836   0.757  0.1507  0.7006  0.9394
  217MOL0     C29820  10.208  10.916   0.656 -0.2971 -0.3399 -0.8072
  217MOL0     C29821  10.235  10.875   0.510  0.2820 -0.1929  0.1948
  217MOL0     C29822  10.130  10.914   0.404  0.7262  0.2806 -0.0842
  217MOL0     C29823  10.174  10.852   0.271  0.6635 -0.2898  2.0438
  217MOL0     C29824  10.180  10.695   0.262  0.5084  0.2461  0.0605
  217MOL0     N29825  10.044  10.634   0.236  0.5485  0.3207 -0.5996
  217MOL0     C29826   9.946  10.591   0.329 -0.0826  0.9356 -0.2250
  217MOL0     C29827   9.857  10.521   0.242 -0.8572 -2.2534 -0.0325
  217MOL0     C29828   9.734  10.441   0.274  0.6895  0.2466 -0.3710
  217MOL0     C29829   9.755  10.291   0.258 -0.5207 -0.0060  1.1252
  217MOL0     C29830   9.710  10.240   0.119 -0.5524  0.2495 -0.1663
  217MOL0     C29831   9.810  10.126   0.080 -0.5000 -0.2606 -0.0871
  217MOL0     O29832   9.961  10.133   0.096  0.3180  0.0602  0.3311
  217MOL0     C29833  10.042  10.211   0.014  0.0994 -0.1549  0.2187
  217MOL0     C29834  10.177  10.180   0.016 -0.0858 -0.5020  0.4520
  217MOL0     C29835  10.266  10.248  -0.066  0.4591 -0.7539  0.6211
  217MOL0     C29836  10.403  10.196  -0.085  0.3546 -0.8047  0.1858
  217MOL0     C29837  10.214  10.359  -0.145  0.0907 -0.3085 -0.1516
  217MOL0     C29838  10.298  10.458  -0.215  0.3126  0.0656  0.2444
  217MOL0     O29839  10.233  10.525  -0.311  0.9586  0.2208  0.4062
  217MOL0     C29840  10.278  10.647  -0.344 -0.2991  0.5006 -0.5084
  217MOL0     C29841  10.258  10.685  -0.476 -0.6234  0.3859 -0.6191
  217MOL0     C29842  10.308  10.811  -0.520  0.4328  0.1956 -0.2463
  217MOL0     C29843  10.359  10.910  -0.425  0.1825 -0.8765  0.1604
  217MOL0     O29844  10.383  11.042  -0.460 -0.6406 -0.1127 -0.0438
  217MOL0     C29845  10.340  11.079  -0.591  0.8391 -0.1911 -0.1550
  217MOL0     C29846  10.364  11.219  -0.612 -0.6662 -0.9995  0.2393
  217MOL0     C29847  10.354  11.317  -0.491  0.3777  1.1906 -0.2165
  217MOL0     C29848  10.335  11.465  -0.536  0.9476  0.5489 -0.7792
  217MOL0     C29849  10.437  11.523  -0.639  0.3521  0.0933 -0.2841
  217MOL0     C29850  10.571  11.545  -0.565  0.7215  1.1129  0.0836
  217MOL0     C29851  10.670  11.604  -0.649 -0.1279  0.0771  0.8815
  217MOL0     C29852  10.810  11.597  -0.591 -0.1215 -0.3033 -0.1001
  217MOL0    Cl29853  10.826  11.697  -0.441 -0.4654  0.2274  0.1133
  217MOL0     C29854  10.362  10.873  -0.295  0.8509 -0.3328 -0.0719
  217MOL0     C29855  10.331  10.742  -0.252 -0.3493 -0.7924 -0.1999
  217MOL0     O29856  10.412  10.469  -0.193 -0.6417 -0.4794 -1.0635
  217MOL0     C29857  10.082  10.387  -0.141  0.0304 -0.8836 -0.6055
  217MOL0     C29858   9.989  10.319  -0.071 -0.2754 -0.1153  0.0388
  217MOL0     N29859   9.892  10.549   0.110 -0.5803  0.0879  0.0749
  217MOL0     N29860  10.003  10.609   0.104 -0.5151 -0.5184  0.6189
  217MOL0     C29861  10.290  10.489   1.122 -0.0142  0.2437 -0.2542
  217MOL0     C29862  10.296  10.350   1.125 -0.0217  0.6992  0.2949
  217MOL0     C29863  10.268   9.922   1.104  0.8343  0.6195  0.0579
  217MOL0     C29864  10.143   9.884   1.157 -0.1585 -0.0519  0.5218
  217MOL0     C29865  10.124   9.754   1.222 -0.3421 -0.9221  0.6925
  217MOL0     C29866  10.223   9.665   1.216  0.3004 -0.0112 -0.1473
  217MOL0     O29867  10.198   9.540   1.279 -0.8953  0.2278  0.4460
  217MOL0     C29868  10.293   9.439   1.241  0.1045  0.1523 -0.4705
  217MOL0     C29869  10.240   9.308   1.300 -1.3067  0.0914 -0.3513
  217MOL0     C29870  10.122   9.235   1.241  0.7522 -0.3915 -0.5214
  217MOL0     C29871   9.993   9.246   1.323  1.8632 -0.2069  0.1484
  217MOL0     C29872   9.924   9.376   1.323 -0.1148  1.1778  0.5271
  217MOL0     C29873   9.870   9.486   1.328  0.2058  0.4765  0.3693
  217MOL0     C29874  10.350   9.699   1.165  0.0998  0.7177 -0.3379
  217MOL0     C29875  10.368   9.825   1.113 -0.3494  0.9351 -0.3332
  217MOL0     C29876  10.507   9.851   1.062 -0.4230 -0.3786 -0.0585
  217MOL0     H29877  10.014  10.306   0.939  3.2148 -1.8945 -2.8473
  217MOL0     H29878  10.006  10.534   0.934  0.3910  0.1858 -1.7587
  217MOL0     H29879  10.338  10.689   0.920 -1.7091 -0.0221 -1.4897
  217MOL0     H29880  10.378  10.810   1.049 -1.6124 -0.8562  2.1559
  217MOL0     H29881  10.118  10.846   0.899 -0.6186 -0.4759  1.6305
  217MOL0     H29882  10.238  10.974   0.920  0.7317  0.0197 -1.8076
  217MOL0     H29883  10.395  10.849   0.755  0.1342  0.7764 -0.7104
  217MOL0     H29884  10.265  10.734   0.722 -0.5165  1.8598 -2.4096
  217MOL0     H29885  10.100  10.912   0.672 -0.2141 -0.1814 -0.1607
  217MOL0     H29886  10.243  11.020   0.659 -0.3536 -0.1209 -4.3200
  217MOL0     H29887  10.246  10.767   0.508 -1.8264 -0.4438 -0.0657
  217MOL0     H29888  10.328  10.925   0.480  0.1321 -0.0308 -0.0053
  217MOL0     H29889  10.032  10.874   0.434  2.2574 -2.7638  1.3145
  217MOL0     H29890  10.123  11.023   0.414  0.4583  0.0827  2.6389
  217MOL0     H29891  10.277  10.880   0.248 -0.2643  1.5741 -0.3338
  217MOL0     H29892  10.117  10.894   0.187  2.3196 -1.6886  0.1048
  217MOL0     H29893  10.250  10.668   0.183  1.8849 -0.3275  1.4344
  217MOL0     H29894  10.220  10.655   0.356 -1.7472 -1.5489  0.3540
  217MOL0     H29895   9.936  10.577   0.436 -0.7523  0.0438 -0.3815
  217MOL0     H29896   9.645  10.465   0.214 -0.7128 -1.9371  0.7066
  217MOL0     H29897   9.711  10.461   0.380  5.0831 -1.6957  1.1664
  217MOL0     H29898   9.858  10.257   0.275 -1.3912 -3.0278  0.9070
  217MOL0     H29899   9.692  10.241   0.332 -0.4253  0.6710  1.6649
  217MOL0     H29900   9.607  10.204   0.127  0.1773 -1.4692  2.7725
  217MOL0     H29901   9.730  10.313   0.040  1.4554 -0.6712 -0.5619
  217MOL0     H29902   9.761  10.043   0.131 -3.7052  1.7594  0.3852
  217MOL0     H29903   9.788  10.106  -0.025  2.0367  1.1091 -0.9661
  217MOL0     H29904  10.207  10.103   0.086  0.5829 -1.4286 -0.8191
  217MOL0     H29905  10.463  10.233  -0.001 -1.4547 -1.0074  1.6134
  217MOL0     H29906  10.464  10.231  -0.169  2.1429  1.2469  2.1945
  217MOL0     H29907  10.407  10.087  -0.089 -0.0999 -0.8111 -0.2299
  217MOL0     H29908  10.223  10.622  -0.557 -1.4375 -1.7385  1.2724
  217MOL0     H29909  10.299  10.830  -0.626 -1.9087 -0.7099 -0.2446
  217MOL0     H29910  10.389  11.024  -0.672  2.4246  2.2819 -0.9993
  217MOL0     H29911  10.232  11.069  -0.602  0.7723  0.4046 -0.0601
  217MOL0     H29912  10.466  11.220  -0.651 -0.0464 -0.7215  1.7754
  217MOL0     H29913  10.299  11.261  -0.689 -0.7881 -1.2896  0.1829
  217MOL0     H29914  10.444  11.304  -0.429  1.9545  1.4805 -2.3267
  217MOL0     H29915  10.272  11.281  -0.428 -0.3394 -0.4608 -2.0186
  217MOL0     H29916  10.331  11.529  -0.448 -0.6416  1.9536 -1.8097
  217MOL0     H29917  10.232  11.470  -0.573  0.4048 -2.4732  0.0299
  217MOL0     H29918  10.449  11.447  -0.717  0.0535 -0.1475 -0.0960
  217MOL0     H29919  10.400  11.612  -0.692 -0.1472  0.5818  0.8510
  217MOL0     H29920  10.610  11.451  -0.525  1.4627 -0.3258 -3.6542
  217MOL0     H29921  10.557  11.608  -0.476  0.8234 -1.5262  2.0866
  217MOL0     H29922  10.649  11.710  -0.668  0.3666 -0.0688 -0.5602
  217MOL0     H29923  10.680  11.553  -0.745 -0.1542 -0.6951  1.2805
  217MOL0     H29924  10.892  11.629  -0.656  1.2165  0.3603  1.7991
  217MOL0     H29925  10.849  11.498  -0.564 -0.4053  0.5172  4.0998
  217MOL0     H29926  10.385  10.960  -0.235  0.6966  0.2845 -0.8925
  217MOL0     H29927  10.351  10.715  -0.149 -1.6081  1.7857  0.8092
  217MOL0     H29928  10.036  10.468  -0.196  0.3722  1.1878  1.9480
  217MOL0     H29929   9.885  10.345  -0.081 -0.6587 -0.7258  1.9821
  217MOL0     H29930  10.363  10.546   1.179  1.8239 -0.1829 -2.0505
  217MOL0     H29931  10.378  10.295   1.169 -1.7812 -1.8278  0.6581
  217MOL0     H29932  10.062   9.955   1.153 -0.5052 -0.4889 -1.1109
  217MOL0     H29933  10.033   9.743   1.280 -0.8969  1.2421  0.3161
  217MOL0     H29934  10.309   9.432   1.133  0.3915  0.5966 -0.4592
  217MOL0     H29935  10.387   9.459   1.294 -1.3264  2.1266  1.5030
  217MOL0     H29936  10.217   9.324   1.406  1.3207 -1.8338  0.6046
  217MOL0     H29937  10.326   9.241   1.296 -1.9028 -0.7382  0.4234
  217MOL0     H29938  10.109   9.291   1.148  2.3135  0.9635  0.0283
  217MOL0     H29939  10.147   9.128   1.238  0.0283 -0.5434 -1.6337
  217MOL0     H29940  10.014   9.221   1.427 -1.9743  1.2983  1.4641
  217MOL0     H29941   9.920   9.174   1.283  0.7597  1.8809 -1.8056
  217MOL0     H29942   9.814   9.576   1.317  0.8242  0.5451 -4.1492
  217MOL0     H29943  10.439   9.637   1.168 -1.0613 -0.9917  1.2310
  217MOL0     H29944  10.551   9.946   1.094  3.4995 -1.3835 -1.9269
  217MOL0     H29945  10.578   9.774   1.092 -2.5241 -1.4065  2.7419
  217MOL0     H29946  10.499   9.865   0.954 -2.1267  0.3392  0.1315
  218MOL0     O29947   6.367   0.317   6.500  0.4027 -0.5771 -0.4613
  218MOL0     C29948   6.253   0.324   6.448 -0.0895 -0.1257 -0.3684
  218MOL0     O29949   6.143   0.263   6.504  0.2376  0.4659 -0.3520
  218MOL0     C29950   6.164   0.188   6.616  0.0117 -0.3926 -0.4271
  218MOL0     C29951   6.230   0.065   6.625 -0.1716  0.0202 -0.0846
  218MOL0     C29952   6.229  -0.015   6.741  0.2038 -0.0952  0.9427
  218MOL0     C29953   6.140   0.013   6.848 -0.1244  0.1047 -0.2701
  218MOL0     O29954   6.121  -0.064   6.963 -0.3428 -0.3996  0.1140
  218MOL0     C29955   6.149  -0.202   6.941  0.4644 -0.7659  0.9550
  218MOL0     C29956   6.261  -0.211   7.043 -0.6464 -0.3081 -0.3411
  218MOL0     C29957   6.318  -0.347   7.062  0.1979  0.5655  0.7595
  218MOL0     C29958   6.436  -0.373   6.959 -0.0038  0.1473  0.4306
  218MOL0     C29959   6.501  -0.511   6.981  0.1483  0.1506  0.9686
  218MOL0     C29960   6.553  -0.543   7.120  0.1623 -0.1635 -0.7584
  218MOL0     C29961   6.602  -0.690   7.140 -0.0558  0.0516  0.0863
  218MOL0     C29962   6.723  -0.722   7.219 -0.3915  0.6619 -0.1535
  218MOL0     N29963   6.856  -0.664   7.176  0.0421  0.4164 -0.3670
  218MOL0     C29964   6.917  -0.564   7.241 -0.8232  0.0237  0.4360
  218MOL0     C29965   7.025  -0.523   7.162  0.3991  0.6147 -0.9032
  218MOL0     C29966   7.129  -0.411   7.197 -0.8533  0.0331  0.7750
  218MOL0     C29967   7.160  -0.384   7.344 -1.3645 -0.4026 -0.1725
  218MOL0     C29968   7.286  -0.444   7.400  0.4721  0.2549  0.8491
  218MOL0     C29969   7.328  -0.375   7.527  0.7387 -1.0790 -0.0179
  218MOL0     O29970   7.469  -0.368   7.536 -0.4669 -0.1765 -0.0833
  218MOL0     C29971   7.524  -0.308   7.651  1.0854 -0.0900 -0.1475
  218MOL0     C29972   7.664  -0.309   7.663  0.2033  0.5869 -0.2928
  218MOL0     C29973   7.740  -0.245   7.768 -0.2950  0.0659 -0.1980
  218MOL0     C29974   7.890  -0.261   7.768 -0.6397  0.0897 -0.2059
  218MOL0     C29975   7.672  -0.170   7.874  0.9827  0.7901  0.6752
  218MOL0     C29976   7.737  -0.101   7.982  0.0315  0.6616 -1.6839
  218MOL0     O29977   7.657  -0.021   8.055  0.0710  0.3833  0.0431
  218MOL0     C29978   7.700   0.032   8.176 -1.2770 -0.6267  0.0781
  218MOL0     C29979   7.742  -0.046   8.284 -0.0936 -0.1388 -0.5727
  218MOL0     C29980   7.793   0.008   8.404  0.4813  0.7140 -0.3671
  218MOL0     C29981   7.796   0.152   8.420  0.4430  0.1087  0.7532
  218MOL0     O29982   7.851   0.210   8.537 -0.0845  0.0157  0.2130
  218MOL0     C29983   7.873   0.354   8.536  0.0397 -0.1016 -0.3823
  218MOL0     C29984   7.938   0.399   8.666  0.1091 -1.1246  0.2360
  218MOL0     C29985   7.839   0.421   8.783 -0.6106  0.4430  0.1587
  218MOL0     C29986   7.914   0.462   8.911  0.0320 -0.2345  1.0516
  218MOL0     C29987   7.813   0.455   9.021 -0.3949 -0.3393  0.3899
  218MOL0     C29988   7.875   0.469   9.164  0.8974 -0.1409 -0.2586
  218MOL0     C29989   7.780   0.543   9.259 -0.2468  0.2123 -0.7765
  218MOL0     C29990   7.855   0.581   9.383  0.0652  0.1663 -0.3469
  218MOL0    Cl29991   7.909   0.432   9.465 -0.0175  0.4769  0.7289
  218MOL0     C29992   7.740   0.229   8.313 -0.1517  0.0874 -0.7177
  218MOL0     C29993   7.696   0.170   8.201  0.6208 -0.2823  0.9075
  218MOL0     O29994   7.847  -0.140   8.020 -0.5100 -0.4983 -0.5202
  218MOL0     C29995   7.526  -0.153   7.857  0.3015 -0.1804  0.1769
  218MOL0     C29996   7.464  -0.226   7.755 -0.0449  0.7723  0.7898
  218MOL0     N29997   7.012  -0.598   7.039  0.3737 -0.3746  0.2650
  218MOL0     N29998   6.909  -0.675   7.056  0.7555 -0.6072 -0.3360
  218MOL0     C29999   6.075   0.135   6.836  0.1424 -0.5459 -0.6584
  218MOL0     C30000   6.083   0.223   6.725  0.4994 -0.2012 -0.5656
  218MOL0     C30001   6.234   0.400   6.321  0.4034  0.5054 -0.0279
  218MOL0     C30002   6.139   0.346   6.235 -2.1144  1.4600 -0.5769
  218MOL0     C30003   6.116   0.399   6.106 -0.6886  0.5046 -0.9044
  218MOL0     C30004   6.172   0.521   6.068 -0.5826  0.7235  0.6381
  218MOL0     O30005   6.149   0.595   5.951  0.5418  0.1103 -0.4455
  218MOL0     C30006   6.027   0.556   5.884 -0.0462  0.3459  0.3066
  218MOL0     C30007   5.972   0.693   5.834  0.3456 -0.9881 -0.9417
  218MOL0     C30008   5.845   0.652   5.765  0.5810 -0.4259  0.9950
  218MOL0     C30009   5.769   0.768   5.691 -0.2496  0.2885  0.0055
  218MOL0     C30010   5.688   0.846   5.778 -0.2960 -0.3529 -0.4512
  218MOL0     C30011   5.646   0.938   5.844 -0.2764 -0.8355 -0.2914
  218MOL0     C30012   6.259   0.580   6.162  0.0484  0.1245  0.9592
  218MOL0     C30013   6.301   0.517   6.280  0.4251  0.1065  0.0039
  218MOL0     C30014   6.398   0.586   6.371  0.4669 -0.3475 -0.4064
  218MOL0     H30015   6.283   0.034   6.536 -1.1366  1.6272 -1.2645
  218MOL0     H30016   6.294  -0.101   6.740 -0.2278 -0.5449 -2.5266
  218MOL0     H30017   6.178  -0.235   6.841 -0.5218  1.5068 -0.1608
  218MOL0     H30018   6.064  -0.266   6.966 -0.0954 -1.0993 -1.5210
  218MOL0     H30019   6.341  -0.141   7.021 -0.9559  0.4270  0.7768
  218MOL0     H30020   6.211  -0.182   7.136 -0.8470  0.3967 -0.6602
  218MOL0     H30021   6.360  -0.361   7.162 -1.6422 -1.8325  1.2940
  218MOL0     H30022   6.246  -0.429   7.055  1.1009 -0.5704  3.4935
  218MOL0     H30023   6.407  -0.377   6.854  3.3455 -0.8152 -0.5902
  218MOL0     H30024   6.514  -0.297   6.967  3.0438 -2.5497 -0.9457
  218MOL0     H30025   6.582  -0.511   6.907 -1.2740  0.8737 -0.6566
  218MOL0     H30026   6.436  -0.589   6.940  1.6162  0.3303 -1.9557
  218MOL0     H30027   6.637  -0.475   7.138 -1.5689  2.1817 -1.0133
  218MOL0     H30028   6.490  -0.517   7.205  1.9074  1.0934  0.2182
  218MOL0     H30029   6.637  -0.719   7.041  2.4736 -2.1172  1.4811
  218MOL0     H30030   6.511  -0.747   7.159 -3.3113  3.1591 -4.1705
  218MOL0     H30031   6.711  -0.710   7.327 -1.3812  0.0400 -0.1877
  218MOL0     H30032   6.735  -0.831   7.210  1.8091  0.8706 -0.3323
  218MOL0     H30033   6.885  -0.518   7.334 -1.1634  0.4911  0.0905
  218MOL0     H30034   7.079  -0.319   7.164  1.1338  1.0532  0.4696
  218MOL0     H30035   7.220  -0.423   7.138  0.5313  0.2966  2.7747
  218MOL0     H30036   7.168  -0.276   7.358  0.5610 -0.7114  1.4508
  218MOL0     H30037   7.068  -0.413   7.396 -1.9647 -1.8455 -1.9196
  218MOL0     H30038   7.283  -0.553   7.408 -1.3544  0.1395 -0.7321
  218MOL0     H30039   7.368  -0.419   7.332  0.7500 -0.2213  1.0071
  218MOL0     H30040   7.285  -0.275   7.536  2.2971 -0.5020  1.4691
  218MOL0     H30041   7.286  -0.435   7.608  1.1547 -1.2846  0.0476
  218MOL0     H30042   7.708  -0.366   7.582 -1.5451 -0.0734 -0.8362
  218MOL0     H30043   7.939  -0.164   7.779  0.4667  0.0168 -3.4401
  218MOL0     H30044   7.921  -0.291   7.668 -0.4716  2.5942 -0.9750
  218MOL0     H30045   7.927  -0.338   7.836 -1.6434 -0.8578 -0.7051
  218MOL0     H30046   7.750  -0.154   8.272 -1.9990 -0.4296  0.4386
  218MOL0     H30047   7.816  -0.038   8.499  1.6806 -0.3055 -1.1194
  218MOL0     H30048   7.951   0.367   8.461  1.5976 -3.5920  0.4238
  218MOL0     H30049   7.785   0.412   8.508  1.0351  1.3441 -0.6109
  218MOL0     H30050   8.025   0.343   8.701  3.6941  1.3999 -3.5352
  218MOL0     H30051   7.980   0.495   8.636 -2.3280  0.1255  0.5895
  218MOL0     H30052   7.795   0.324   8.807 -0.6003 -0.0272 -1.5772
  218MOL0     H30053   7.765   0.499   8.759 -1.2973  0.2016  1.4559
  218MOL0     H30054   7.947   0.565   8.897 -2.1133  0.5777  1.5968
  218MOL0     H30055   7.994   0.391   8.932  1.5196  0.7681 -0.8742
  218MOL0     H30056   7.735   0.528   9.000 -0.9029 -0.7536  0.8142
  218MOL0     H30057   7.770   0.355   9.015  0.9166 -0.9579  0.7839
  218MOL0     H30058   7.971   0.521   9.156  0.1720  1.3057  0.0711
  218MOL0     H30059   7.909   0.368   9.190  2.2617 -0.4386 -2.8864
  218MOL0     H30060   7.689   0.489   9.286 -1.0717  1.4307 -1.0262
  218MOL0     H30061   7.743   0.632   9.207  1.9537  0.6072 -1.7930
  218MOL0     H30062   7.791   0.633   9.453  0.4978 -0.7867  0.7967
  218MOL0     H30063   7.937   0.645   9.348  0.7006  0.8530  2.1769
  218MOL0     H30064   7.739   0.338   8.320  2.0580  0.1982 -1.1618
  218MOL0     H30065   7.663   0.226   8.114  4.6579 -3.7689 -3.3690
  218MOL0     H30066   7.463  -0.098   7.927 -0.3588 -2.9694  1.9290
  218MOL0     H30067   7.356  -0.214   7.752 -0.0050  0.9711 -0.3049
  218MOL0     H30068   6.009   0.160   6.918  0.2741 -0.7646 -0.4830
  218MOL0     H30069   6.002   0.295   6.715 -1.6682 -2.5809 -1.5069
  218MOL0     H30070   6.099   0.256   6.280  1.6845  0.5170  1.2898
  218MOL0     H30071   6.050   0.351   6.035 -1.1643  3.1944 -2.4351
  218MOL0     H30072   6.034   0.486   5.801 -2.4189  1.7993 -1.2497
  218MOL0     H30073   5.948   0.521   5.951  0.7466  0.4142  1.3036
  218MOL0     H30074   6.044   0.750   5.774 -0.6344  1.0861 -0.2627
  218MOL0     H30075   5.934   0.743   5.924 -1.6681 -2.3715 -0.9638
  218MOL0     H30076   5.876   0.585   5.684  0.4616 -0.8068  1.2630
  218MOL0     H30077   5.769   0.599   5.822  2.0492 -1.1159  2.3968
  218MOL0     H30078   5.699   0.723   5.620 -3.0116  0.8078  2.2130
  218MOL0     H30079   5.843   0.828   5.638  0.2537 -1.6574 -1.6358
  218MOL0     H30080   5.611   1.014   5.911 -2.7730  1.2433 -3.6158
  218MOL0     H30081   6.308   0.673   6.136 -0.7787 -0.0677 -1.6432
  218MOL0     H30082   6.407   0.690   6.341  1.4062 -0.8562 -2.0459
  218MOL0     H30083   6.364   0.592   6.475  1.9707  2.2324  0.0276
  218MOL0     H30084   6.494   0.534   6.364  1.2836  1.0452 -0.0039
  219MOL0     O30085   7.158   9.305   0.572  0.0988 -0.4115  0.4760
  219MOL0     C30086   7.224   9.231   0.656 -0.0655 -0.2828 -0.2969
  219MOL0     O30087   7.249   9.099   0.637 -0.6357  0.0352  0.3690
  219MOL0     C30088   7.202   9.037   0.518 -0.5950 -0.4863 -0.3226
  219MOL0     C30089   7.081   8.976   0.535 -0.5755 -0.0583  0.1897
  219MOL0     C30090   7.020   8.923   0.430  0.8831 -0.2492  0.4113
  219MOL0     C30091   7.083   8.921   0.297 -0.7469  0.7917 -1.0702
  219MOL0     O30092   7.024   8.874   0.189 -0.1586  0.0665  0.9328
  219MOL0     C30093   6.885   8.912   0.166 -0.4273 -0.2048 -0.0163
  219MOL0     C30094   6.867   9.059   0.108 -0.2900 -0.0584 -0.5628
  219MOL0     C30095   6.743   9.142   0.161 -0.4112  0.0559  0.1204
  219MOL0     C30096   6.766   9.184   0.303 -0.4474  0.8503 -0.2838
  219MOL0     C30097   6.644   9.265   0.355 -0.6354  1.0785  0.8717
  219MOL0     C30098   6.646   9.277   0.513  0.4047  0.0872  0.5778
  219MOL0     C30099   6.763   9.361   0.560 -1.0639 -0.7010  0.1984
  219MOL0     C30100   6.771   9.503   0.493  0.1804 -0.2716 -0.8726
  219MOL0     N30101   6.641   9.577   0.519 -0.9065 -0.0209  0.4648
  219MOL0     C30102   6.593   9.672   0.437  1.1016 -0.8851  0.1849
  219MOL0     C30103   6.470   9.700   0.487  0.1275  0.1845 -0.6350
  219MOL0     C30104   6.375   9.791   0.423  0.6767 -0.4176  0.8116
  219MOL0     C30105   6.287   9.882   0.518 -1.0438 -0.3034  0.2303
  219MOL0     C30106   6.204   9.990   0.450  0.5343 -0.4644 -0.8084
  219MOL0     C30107   6.203  10.131   0.514  0.2131  0.2197 -0.5216
  219MOL0     O30108   6.112  10.138   0.633 -0.3201  0.0401 -0.9968
  219MOL0     C30109   5.982  10.140   0.591  0.7844  0.0830 -1.1034
  219MOL0     C30110   5.919  10.256   0.554  0.5093 -0.5923 -0.3468
  219MOL0     C30111   5.784  10.275   0.534  0.1988  0.2917 -0.0144
  219MOL0     C30112   5.738  10.413   0.514  0.0668  0.7146  0.0004
  219MOL0     C30113   5.692  10.163   0.547 -0.6623 -0.1318 -0.3609
  219MOL0     C30114   5.549  10.169   0.510 -0.6454 -0.0560  0.8478
  219MOL0     O30115   5.501  10.265   0.432  0.6024 -0.5227 -0.6368
  219MOL0     C30116   5.366  10.287   0.421  0.0896 -0.4112  0.1188
  219MOL0     C30117   5.281  10.187   0.373  0.7864  0.5180  0.2737
  219MOL0     C30118   5.145  10.215   0.336 -0.3421 -0.5016 -0.6007
  219MOL0     C30119   5.100  10.343   0.364  0.0940 -0.0100  0.7722
  219MOL0     O30120   4.969  10.369   0.333  1.0290  0.7176 -0.5866
  219MOL0     C30121   4.892  10.485   0.360  0.4548 -0.1452  0.6726
  219MOL0     C30122   4.760  10.451   0.425  0.4902  0.1207 -0.6574
  219MOL0     C30123   4.758  10.417   0.577  0.2712 -0.3075  0.4939
  219MOL0     C30124   4.621  10.427   0.638 -0.3147 -0.6597  0.3037
  219MOL0     C30125   4.639  10.427   0.788  1.0734  0.4567  0.4870
  219MOL0     C30126   4.511  10.354   0.842  0.6921  0.7038 -0.3622
  219MOL0     C30127   4.520  10.357   0.996  0.3322  0.2920 -0.1959
  219MOL0     C30128   4.423  10.257   1.064 -0.0756 -0.1803 -0.5660
  219MOL0    Cl30129   4.253  10.301   1.011  0.2866  0.0122  0.0214
  219MOL0     C30130   5.182  10.436   0.428  0.1113  0.7341 -0.8701
  219MOL0     C30131   5.319  10.413   0.433 -0.2431  0.5349  0.0059
  219MOL0     O30132   5.489  10.077   0.562  1.0473  0.0046  0.1079
  219MOL0     C30133   5.753  10.043   0.607 -0.7231 -0.3700  0.7078
  219MOL0     C30134   5.889  10.037   0.616 -0.0651 -0.1658  0.4996
  219MOL0     N30135   6.450   9.630   0.608  0.6690  0.2495  1.0654
  219MOL0     N30136   6.554   9.558   0.627 -1.1767 -0.5267  0.0954
  219MOL0     C30137   7.217   8.955   0.295  0.5472  0.3348  0.1254
  219MOL0     C30138   7.275   9.015   0.406  0.1424  0.0960 -1.2159
  219MOL0     C30139   7.271   9.305   0.775  0.2655  0.5343 -0.8050
  219MOL0     C30140   7.194   9.408   0.831 -0.3384  0.1912  0.0790
  219MOL0     C30141   7.243   9.490   0.930 -0.1577 -0.1780  0.7764
  219MOL0     C30142   7.373   9.481   0.984  0.0155  0.5777  0.1066
  219MOL0     O30143   7.433   9.563   1.079  0.6229 -0.8865 -0.0391
  219MOL0     C30144   7.421   9.703   1.084  0.8043  0.3704 -0.0943
  219MOL0     C30145   7.525   9.763   1.182  0.3997  0.0678  0.2935
  219MOL0     C30146   7.522   9.917   1.176 -0.5571  1.0339 -0.3524
  219MOL0     C30147   7.622   9.950   1.287 -0.1902 -0.0877 -0.9951
  219MOL0     C30148   7.555   9.939   1.423 -0.4755 -0.6171 -0.5639
  219MOL0     C30149   7.492   9.945   1.530  0.2688  0.6200 -0.0815
  219MOL0     C30150   7.440   9.372   0.934  0.8445  0.3396 -0.9179
  219MOL0     C30151   7.395   9.289   0.836  0.2017 -0.0495 -0.5808
  219MOL0     C30152   7.496   9.182   0.798 -0.3246 -1.3024 -1.2265
  219MOL0     H30153   7.033   8.965   0.631  0.1784  4.1521  1.2598
  219MOL0     H30154   6.917   8.890   0.443  0.5766  0.7973  0.7628
  219MOL0     H30155   6.823   8.909   0.256 -1.4208  2.5607 -0.5135
  219MOL0     H30156   6.841   8.852   0.086 -1.0377  2.2371 -1.6261
  219MOL0     H30157   6.963   9.109   0.122  1.8609 -3.4705 -1.8774
  219MOL0     H30158   6.851   9.056   0.000 -0.0878  1.5304 -0.6615
  219MOL0     H30159   6.731   9.233   0.101 -1.2983  1.0075  1.6761
  219MOL0     H30160   6.649   9.087   0.163  0.5081 -1.6027 -0.6346
  219MOL0     H30161   6.780   9.097   0.368  1.4931  0.9808 -0.4461
  219MOL0     H30162   6.859   9.243   0.300 -0.3453  0.8786  1.8239
  219MOL0     H30163   6.553   9.208   0.335 -1.0776  1.7765  0.8417
  219MOL0     H30164   6.636   9.357   0.296 -0.7637 -1.3068 -3.1922
  219MOL0     H30165   6.552   9.326   0.540  0.0364  0.0529 -0.6037
  219MOL0     H30166   6.648   9.172   0.544  0.2910  0.2287  1.0761
  219MOL0     H30167   6.854   9.307   0.531 -1.3387 -0.3496 -1.4436
  219MOL0     H30168   6.764   9.372   0.669  1.7832 -0.2305  0.2037
  219MOL0     H30169   6.858   9.556   0.532 -0.7913 -0.8672  2.4648
  219MOL0     H30170   6.786   9.502   0.385  0.9672  0.0049 -0.7665
  219MOL0     H30171   6.638   9.720   0.351  0.4282  0.2011  0.4042
  219MOL0     H30172   6.306   9.740   0.355 -0.4296 -0.8193  2.1936
  219MOL0     H30173   6.431   9.858   0.357  4.5027 -1.9374  2.1944
  219MOL0     H30174   6.224   9.817   0.579 -0.7023 -0.1285  0.7812
  219MOL0     H30175   6.351   9.927   0.595 -1.2515 -1.6382  1.2132
  219MOL0     H30176   6.231   9.980   0.344  1.7079 -1.9691 -0.4027
  219MOL0     H30177   6.103   9.948   0.442 -1.0598  2.8954  0.0556
  219MOL0     H30178   6.295  10.188   0.532  0.8175 -1.3956  2.0690
  219MOL0     H30179   6.170  10.206   0.441  0.1979  1.1875  0.4511
  219MOL0     H30180   5.983  10.342   0.538  0.2854 -0.2149  0.7071
  219MOL0     H30181   5.637  10.424   0.554 -1.9217 -1.2623 -3.9092
  219MOL0     H30182   5.754  10.441   0.409 -1.1074 -0.6796 -0.5770
  219MOL0     H30183   5.799  10.473   0.583 -0.0759 -1.0959  1.7903
  219MOL0     H30184   5.312  10.083   0.369  1.2537  0.6148  1.1594
  219MOL0     H30185   5.079  10.138   0.296  0.2132 -0.0640 -2.4478
  219MOL0     H30186   4.943  10.555   0.427 -1.6536  2.5241 -0.2992
  219MOL0     H30187   4.873  10.536   0.265  1.3120  0.3423  0.7573
  219MOL0     H30188   4.691  10.532   0.401  2.4756  1.7863 -1.0714
  219MOL0     H30189   4.725  10.364   0.368  1.5389 -0.3102 -0.6677
  219MOL0     H30190   4.817  10.490   0.633  1.1912  0.1551 -1.0001
  219MOL0     H30191   4.800  10.323   0.611 -2.3338 -1.6324  0.2996
  219MOL0     H30192   4.547  10.353   0.608 -4.3350  1.0968  4.5337
  219MOL0     H30193   4.566  10.515   0.602  0.7444 -0.9646 -2.2461
  219MOL0     H30194   4.718  10.355   0.815 -0.1577 -0.9631  0.4534
  219MOL0     H30195   4.646  10.520   0.845  2.6513  1.0581 -0.6033
  219MOL0     H30196   4.509  10.252   0.804 -1.1359 -0.2695  2.1010
  219MOL0     H30197   4.425  10.413   0.808 -1.9296 -1.0326  2.7283
  219MOL0     H30198   4.475  10.453   1.022  0.0508  0.0456  0.2309
  219MOL0     H30199   4.626  10.352   1.021  0.7414  0.3402 -1.7953
  219MOL0     H30200   4.433  10.267   1.172 -0.6972 -1.9736 -0.3053
  219MOL0     H30201   4.446  10.155   1.032  1.3119  0.0062 -0.2069
  219MOL0     H30202   5.144  10.537   0.428 -1.9167  0.0051 -0.1540
  219MOL0     H30203   5.390  10.484   0.475  0.8429  0.4601 -1.6279
  219MOL0     H30204   5.700   9.953   0.637  0.0221 -1.4930 -1.1777
  219MOL0     H30205   5.927   9.948   0.665  1.2626  0.6276  0.9604
  219MOL0     H30206   7.276   8.922   0.211  1.0250  0.1522  0.5307
  219MOL0     H30207   7.376   9.056   0.408 -0.1452  0.8048  0.8950
  219MOL0     H30208   7.088   9.424   0.820  0.0574  2.5477 -0.9113
  219MOL0     H30209   7.182   9.559   0.988  1.0559 -0.5841  2.5786
  219MOL0     H30210   7.439   9.750   0.987 -0.3182  0.5646 -0.2193
  219MOL0     H30211   7.322   9.724   1.125 -0.4496 -1.3817 -1.9898
  219MOL0     H30212   7.627   9.726   1.166  0.4914  1.1531 -2.0800
  219MOL0     H30213   7.494   9.728   1.280 -0.4271  0.9829  0.3772
  219MOL0     H30214   7.561   9.958   1.082  3.9575 -0.1448  0.7783
  219MOL0     H30215   7.420   9.946   1.202 -0.0185  1.9847  0.7904
  219MOL0     H30216   7.667  10.049   1.280  1.6353 -0.8610 -0.8332
  219MOL0     H30217   7.707   9.880   1.287 -0.2406 -0.1491 -1.3580
  219MOL0     H30218   7.448   9.954   1.627  1.2666  1.7106  0.2884
  219MOL0     H30219   7.534   9.358   0.986 -1.4802 -4.2966  2.8272
  219MOL0     H30220   7.595   9.228   0.804 -0.9345 -0.1088  0.8328
  219MOL0     H30221   7.503   9.104   0.875  0.6515 -1.2135 -1.2115
  219MOL0     H30222   7.488   9.131   0.702 -1.3996 -2.6238 -0.4940
  220MOL0     O30223   0.784   0.737   0.831 -0.2083 -0.4190 -0.1778
  220MOL0     C30224   0.792   0.675   0.723  0.4566  0.3993 -0.6164
  220MOL0     O30225   0.772   0.728   0.600  0.1279  0.0497 -0.0850
  220MOL0     C30226   0.759   0.865   0.579  0.1642  0.4125  0.5332
  220MOL0     C30227   0.658   0.930   0.655 -0.9144 -0.3908 -0.9875
  220MOL0     C30228   0.651   1.069   0.629  0.5051  0.7466 -0.1705
  220MOL0     C30229   0.734   1.133   0.535  0.0355 -0.6615  0.2335
  220MOL0     O30230   0.705   1.261   0.482  0.7606  0.1679  0.2591
  220MOL0     C30231   0.599   1.343   0.535  0.1500 -0.7666  0.5191
  220MOL0     C30232   0.552   1.459   0.444 -0.4929 -0.5232 -0.8457
  220MOL0     C30233   0.669   1.560   0.409 -0.0919  0.0291 -0.4221
  220MOL0     C30234   0.748   1.517   0.279  1.0925  0.3691 -0.6671
  220MOL0     C30235   0.880   1.587   0.288 -0.4749 -0.7677 -0.1414
  220MOL0     C30236   0.981   1.534   0.391  0.1922 -1.0993 -0.4763
  220MOL0     C30237   1.033   1.386   0.388  0.4938 -0.6498 -0.1226
  220MOL0     C30238   1.094   1.370   0.246 -0.4036 -0.4969 -0.4055
  220MOL0     N30239   1.187   1.261   0.235 -0.4230  0.5319 -0.1621
  220MOL0     C30240   1.326   1.262   0.229 -0.0473  0.1221  0.0029
  220MOL0     C30241   1.358   1.137   0.196  0.1593 -0.2033  0.4403
  220MOL0     C30242   1.498   1.087   0.175 -0.6965 -0.8080 -1.4830
  220MOL0     C30243   1.517   1.007   0.048 -0.0198 -0.6830 -1.0530
  220MOL0     C30244   1.652   0.975   0.029 -0.6714 -0.1356 -0.0529
  220MOL0     C30245   1.676   0.898  -0.109 -0.1043 -0.4227 -0.4367
  220MOL0     O30246   1.805   0.834  -0.095  0.3463 -0.0243  0.1701
  220MOL0     C30247   1.909   0.912  -0.124 -0.6134  0.4744 -0.5164
  220MOL0     C30248   1.973   0.991  -0.021  0.4612  0.2459  0.4424
  220MOL0     C30249   2.105   1.047  -0.046  1.2118  0.4013  0.2903
  220MOL0     C30250   2.163   1.125   0.066 -0.7008 -0.3419 -0.1597
  220MOL0     C30251   2.163   1.031  -0.170  0.6578  0.0462  0.2366
  220MOL0     C30252   2.293   1.104  -0.221 -0.5193  0.2609  0.8552
  220MOL0     O30253   2.377   1.045  -0.319 -0.0261  0.6969  0.1128
  220MOL0     C30254   2.470   1.119  -0.381  0.7543 -0.4513 -1.0465
  220MOL0     C30255   2.606   1.117  -0.326  0.5319  0.6002  1.7001
  220MOL0     C30256   2.701   1.198  -0.371  0.1232 -0.1225  0.4380
  220MOL0     C30257   2.668   1.286  -0.478 -0.2569 -0.4257  0.8655
  220MOL0     O30258   2.745   1.372  -0.553  0.7063  0.1484 -0.0675
  220MOL0     C30259   2.880   1.383  -0.536  0.5299 -0.0451  0.0266
  220MOL0     C30260   2.929   1.442  -0.661 -0.3547 -0.0107  0.2045
  220MOL0     C30261   3.081   1.461  -0.671 -0.5483  0.4775 -0.7644
  220MOL0     C30262   3.144   1.551  -0.562  0.8360  0.8790  0.0251
  220MOL0     C30263   3.290   1.590  -0.605 -1.0767 -0.3722  0.0516
  220MOL0     C30264   3.368   1.664  -0.496 -0.0487 -0.8539  0.0939
  220MOL0     C30265   3.398   1.808  -0.543  0.2788 -0.6696 -0.2124
  220MOL0     C30266   3.495   1.897  -0.467  0.0314 -1.2478  0.3942
  220MOL0    Cl30267   3.651   1.807  -0.500  0.0132 -0.1165 -0.1682
  220MOL0     C30268   2.537   1.297  -0.524  0.5317  0.3359  0.1515
  220MOL0     C30269   2.434   1.210  -0.477 -0.2206 -0.3930  0.8864
  220MOL0     O30270   2.305   1.222  -0.186  0.5037  0.0770  0.2494
  220MOL0     C30271   2.101   0.954  -0.267  0.2294 -0.7010 -0.1885
  220MOL0     C30272   1.972   0.897  -0.244 -0.5374 -0.5455  0.3428
  220MOL0     N30273   1.243   1.060   0.184 -0.7644  1.1872  0.2033
  220MOL0     N30274   1.147   1.136   0.214  0.6637 -0.0184  0.7483
  220MOL0     C30275   0.815   1.058   0.453 -0.6522  0.0070 -0.2564
  220MOL0     C30276   0.842   0.919   0.479  0.0288 -0.3975  0.8776
  220MOL0     C30277   0.794   0.523   0.713 -0.2304 -0.4678  0.5240
  220MOL0     C30278   0.729   0.465   0.609  0.4988 -0.0954  0.7482
  220MOL0     C30279   0.735   0.324   0.580  0.2761  0.3785 -0.6076
  220MOL0     C30280   0.810   0.241   0.666 -0.0670  0.0525 -0.3394
  220MOL0     O30281   0.839   0.111   0.650  0.8526  0.0768  0.2445
  220MOL0     C30282   0.791   0.034   0.536  0.0888 -0.5079 -0.4282
  220MOL0     C30283   0.863   0.058   0.407  1.3518  0.4101  0.4893
  220MOL0     C30284   1.013   0.041   0.431 -0.8498 -0.1386 -0.0066
  220MOL0     C30285   1.081  -0.073   0.356 -0.0724  0.2677  0.8284
  220MOL0     C30286   1.017  -0.197   0.398 -0.3155 -1.0277  0.3812
  220MOL0     C30287   0.950  -0.285   0.441  0.1512  0.1641 -1.7373
  220MOL0     C30288   0.873   0.302   0.777  0.6152  0.0734  0.5165
  220MOL0     C30289   0.858   0.440   0.807  1.2271  0.0857  0.0154
  220MOL0     C30290   0.911   0.497   0.935  0.9546  0.0731  0.1488
  220MOL0     H30291   0.590   0.900   0.734  0.1000  0.0864  0.1009
  220MOL0     H30292   0.569   1.121   0.678 -0.1094  0.8138 -1.2417
  220MOL0     H30293   0.627   1.384   0.633  0.6834 -0.9478  0.4451
  220MOL0     H30294   0.506   1.289   0.557  0.1089 -0.7851  0.2986
  220MOL0     H30295   0.505   1.416   0.355  0.0122  1.5635 -2.1829
  220MOL0     H30296   0.481   1.521   0.499  2.6454  3.1027 -0.5135
  220MOL0     H30297   0.631   1.658   0.378  0.2019  0.2980  0.0538
  220MOL0     H30298   0.728   1.574   0.500 -0.6822 -1.3882  0.2010
  220MOL0     H30299   0.755   1.408   0.269 -0.5292 -0.0956  2.1872
  220MOL0     H30300   0.695   1.546   0.188  2.3633 -1.6635 -2.1410
  220MOL0     H30301   0.854   1.692   0.306  2.9371  0.4843 -1.6718
  220MOL0     H30302   0.931   1.591   0.191  0.4963  1.9501  0.3890
  220MOL0     H30303   1.067   1.600   0.373 -2.5204  2.0939 -3.0187
  220MOL0     H30304   0.933   1.561   0.486  1.0525  0.6358 -0.4906
  220MOL0     H30305   0.955   1.312   0.409  1.0387 -1.2633 -0.2328
  220MOL0     H30306   1.108   1.370   0.466 -1.4188  1.4520  2.3479
  220MOL0     H30307   1.001   1.349   0.192 -2.4185 -1.1089  2.9878
  220MOL0     H30308   1.134   1.466   0.214  0.9892 -0.5015  1.2136
  220MOL0     H30309   1.392   1.347   0.234 -0.4348  0.7497 -3.0749
  220MOL0     H30310   1.529   1.033   0.265  0.0700  1.5545 -0.2442
  220MOL0     H30311   1.574   1.166   0.178  1.2017 -2.5708  0.4674
  220MOL0     H30312   1.469   0.910   0.064 -0.6942 -0.5747 -2.3106
  220MOL0     H30313   1.469   1.054  -0.038  0.7902 -1.0081 -1.6949
  220MOL0     H30314   1.692   1.077   0.035  0.6176 -0.7286  3.4428
  220MOL0     H30315   1.698   0.921   0.112 -0.3306  1.1065  0.5893
  220MOL0     H30316   1.610   0.812  -0.121 -0.4610  0.0610 -2.1641
  220MOL0     H30317   1.653   0.955  -0.199 -0.0571 -2.6142 -1.9077
  220MOL0     H30318   1.933   1.019   0.076  2.9520  0.6947  1.4183
  220MOL0     H30319   2.137   1.231   0.066  0.6718  0.1657 -4.4147
  220MOL0     H30320   2.270   1.104   0.055  0.3072  2.5894  2.5969
  220MOL0     H30321   2.144   1.073   0.161 -1.6286  1.7070  0.8331
  220MOL0     H30322   2.630   1.031  -0.264  3.0303 -0.0670 -0.0240
  220MOL0     H30323   2.803   1.200  -0.335  1.4798 -0.1077 -3.0126
  220MOL0     H30324   2.910   1.450  -0.454 -1.0798  1.2606 -0.3890
  220MOL0     H30325   2.923   1.283  -0.527  2.3773  0.7581  0.7366
  220MOL0     H30326   2.889   1.382  -0.744 -1.6798  1.1889 -0.0853
  220MOL0     H30327   2.884   1.540  -0.684 -0.4404  0.0344  0.5654
  220MOL0     H30328   3.116   1.495  -0.769 -1.3171  2.0452 -0.5195
  220MOL0     H30329   3.136   1.368  -0.652 -2.3984 -0.8542 -1.7448
  220MOL0     H30330   3.138   1.506  -0.462  0.1360  0.0130 -0.3964
  220MOL0     H30331   3.083   1.642  -0.564  0.0578  0.4995  2.5689
  220MOL0     H30332   3.346   1.499  -0.627 -0.4969  0.3127 -1.3999
  220MOL0     H30333   3.275   1.630  -0.706  0.1907 -0.3522 -0.1364
  220MOL0     H30334   3.465   1.619  -0.475  0.5150 -0.4498 -1.4378
  220MOL0     H30335   3.315   1.656  -0.401  0.1712 -2.3162  0.1080
  220MOL0     H30336   3.303   1.862  -0.533  1.6400  1.7557  0.5177
  220MOL0     H30337   3.417   1.818  -0.650 -1.0695  1.3239 -0.3371
  220MOL0     H30338   3.453   1.908  -0.366 -2.6548  1.9018 -0.8531
  220MOL0     H30339   3.495   1.995  -0.515  1.4830 -2.7562 -2.9856
  220MOL0     H30340   2.531   1.372  -0.602  1.7772  0.2426 -0.0545
  220MOL0     H30341   2.330   1.221  -0.507  0.2814  2.0777 -0.2327
  220MOL0     H30342   2.136   0.951  -0.369 -3.9126 -1.7242 -1.8107
  220MOL0     H30343   1.927   0.837  -0.323 -3.3463  2.3820 -0.4554
  220MOL0     H30344   0.859   1.101   0.363 -1.1443 -0.7844 -0.8851
  220MOL0     H30345   0.923   0.880   0.419  0.4984 -0.8658  1.7997
  220MOL0     H30346   0.675   0.529   0.541  2.2491 -0.7753 -1.3817
  220MOL0     H30347   0.677   0.277   0.502 -1.7997 -1.9625  2.1117
  220MOL0     H30348   0.800  -0.071   0.565 -0.4527 -0.4647 -0.0989
  220MOL0     H30349   0.682   0.042   0.533 -0.0381 -0.1248  2.5883
  220MOL0     H30350   0.837   0.155   0.364  1.7418  0.0493 -0.5911
  220MOL0     H30351   0.825  -0.007   0.329  1.4686  1.1163 -0.1665
  220MOL0     H30352   1.060   0.135   0.398 -4.2555  2.4058  1.7342
  220MOL0     H30353   1.046   0.023   0.534  2.0073 -0.9003 -0.9627
  220MOL0     H30354   1.190  -0.076   0.365  0.3499  2.3390 -2.1971
  220MOL0     H30355   1.063  -0.069   0.248  0.3082 -0.6681  0.7221
  220MOL0     H30356   0.890  -0.349   0.503  0.5342 -0.4346 -1.9859
  220MOL0     H30357   0.920   0.234   0.847 -2.7749 -2.2419  0.7804
  220MOL0     H30358   0.979   0.582   0.925  0.1590  0.6409 -0.6184
  220MOL0     H30359   0.813   0.530   0.970  0.4462 -0.0832 -1.0789
  220MOL0     H30360   0.967   0.432   1.003  0.7184 -1.8289 -1.3914
  221MOL0     O30361   2.280   5.415   0.413  0.1325  0.2082  0.2617
  221MOL0     C30362   2.175   5.450   0.363 -0.4672 -0.5351  0.1368
  221MOL0     O30363   2.134   5.583   0.346 -0.5464  1.0505  0.3720
  221MOL0     C30364   2.225   5.680   0.372  1.0511  0.2454  0.2974
  221MOL0     C30365   2.366   5.679   0.345 -1.0525  0.4738  0.6438
  221MOL0     C30366   2.433   5.803   0.349 -0.0791  0.1101 -0.5971
  221MOL0     C30367   2.378   5.919   0.410 -0.4317  0.1284 -0.5511
  221MOL0     O30368   2.466   6.026   0.430  0.5826 -0.1507  0.9103
  221MOL0     C30369   2.447   6.117   0.537  0.1668 -0.3635 -0.2434
  221MOL0     C30370   2.392   6.263   0.501  0.7816  0.0887 -0.4523
  221MOL0     C30371   2.457   6.327   0.383 -0.9105  0.0952 -0.0850
  221MOL0     C30372   2.603   6.373   0.413  0.3165 -0.1404  0.0607
  221MOL0     C30373   2.704   6.345   0.305  0.2620  0.5041 -0.4092
  221MOL0     C30374   2.844   6.378   0.333 -0.4677 -0.1215 -0.6288
  221MOL0     C30375   2.951   6.326   0.225  0.6961  0.1427  0.5215
  221MOL0     C30376   2.949   6.385   0.086  0.8868 -0.6513 -0.1156
  221MOL0     N30377   3.056   6.324   0.009 -0.5996  0.2734  1.2729
  221MOL0     C30378   3.189   6.359   0.023  0.0857 -0.5834  0.0452
  221MOL0     C30379   3.256   6.253  -0.023  0.5793 -0.2133  0.1487
  221MOL0     C30380   3.410   6.248  -0.033 -0.1561 -0.7617  0.1026
  221MOL0     C30381   3.469   6.284  -0.168 -0.1164  0.3797 -0.4689
  221MOL0     C30382   3.421   6.207  -0.289  0.1699 -0.2714 -1.1618
  221MOL0     C30383   3.507   6.191  -0.417 -1.0225 -0.2292 -1.2342
  221MOL0     O30384   3.649   6.223  -0.412 -0.2440  0.9560 -0.0438
  221MOL0     C30385   3.689   6.351  -0.436 -0.2217  0.1705  0.6405
  221MOL0     C30386   3.627   6.436  -0.527  0.6367 -0.1337 -0.3736
  221MOL0     C30387   3.679   6.559  -0.556 -0.7860  1.2252 -1.3776
  221MOL0     C30388   3.602   6.635  -0.648 -0.1850 -0.3329  0.7110
  221MOL0     C30389   3.801   6.598  -0.500 -0.1575  0.0562  0.3200
  221MOL0     C30390   3.874   6.714  -0.541 -0.0244  0.6218 -0.0487
  221MOL0     O30391   3.971   6.763  -0.463 -0.1443  0.0876 -0.2658
  221MOL0     C30392   4.025   6.888  -0.503  0.3036  1.0397  0.5868
  221MOL0     C30393   4.158   6.898  -0.526  0.4252 -0.9968  0.0148
  221MOL0     C30394   4.220   7.016  -0.572  0.7235 -0.4593  0.3010
  221MOL0     C30395   4.143   7.127  -0.611  0.4971  0.6430  0.2903
  221MOL0     O30396   4.197   7.242  -0.675  1.1277  0.8079  0.0176
  221MOL0     C30397   4.114   7.348  -0.707  0.0471  0.1186  0.4220
  221MOL0     C30398   4.216   7.457  -0.747  0.4644 -0.3282  0.3098
  221MOL0     C30399   4.146   7.584  -0.774 -0.0168 -0.4417  0.5164
  221MOL0     C30400   4.233   7.711  -0.764  0.0451  0.4527  0.1789
  221MOL0     C30401   4.150   7.839  -0.761  0.1683  0.0866 -0.1713
  221MOL0     C30402   4.240   7.962  -0.735 -0.1265 -0.7874  1.1174
  221MOL0     C30403   4.170   8.095  -0.738  0.3239 -0.1213 -0.3244
  221MOL0     C30404   4.254   8.214  -0.692 -0.9206 -0.5117 -0.6828
  221MOL0    Cl30405   4.385   8.243  -0.817 -0.3871  0.7720  0.2434
  221MOL0     C30406   4.004   7.118  -0.588 -0.2460  0.5307 -0.2556
  221MOL0     C30407   3.945   6.994  -0.538 -1.2911 -0.0869 -0.4736
  221MOL0     O30408   3.854   6.756  -0.662  0.5865 -0.1088  0.0405
  221MOL0     C30409   3.857   6.512  -0.408  1.2617  0.2326 -0.1790
  221MOL0     C30410   3.806   6.386  -0.384  0.0995  0.3440 -0.0237
  221MOL0     N30411   3.164   6.168  -0.081 -0.6304 -0.5284  0.1851
  221MOL0     N30412   3.045   6.204  -0.051 -0.5708 -0.7799  0.5463
  221MOL0     C30413   2.236   5.913   0.428 -0.1301 -0.7675  0.0975
  221MOL0     C30414   2.161   5.795   0.407  0.3940  0.7583 -0.4765
  221MOL0     C30415   2.087   5.349   0.313 -0.0256  0.5344  0.2337
  221MOL0     C30416   1.949   5.361   0.337  0.4951  0.2891 -1.3494
  221MOL0     C30417   1.857   5.275   0.290 -0.8655  0.0965 -0.9654
  221MOL0     C30418   1.900   5.158   0.230  0.4650  0.0268 -0.4764
  221MOL0     O30419   1.821   5.044   0.215 -0.4037 -0.0583 -0.0611
  221MOL0     C30420   1.687   5.036   0.279  0.5023  0.4606  0.1377
  221MOL0     C30421   1.580   5.059   0.169 -0.0303  0.1546  0.2764
  221MOL0     C30422   1.587   4.956   0.055  0.9926 -1.2866  1.1944
  221MOL0     C30423   1.507   5.002  -0.069 -0.0825 -0.3862 -0.7430
  221MOL0     C30424   1.500   4.902  -0.170  0.0910  0.5933 -0.1496
  221MOL0     C30425   1.490   4.829  -0.269  0.4181 -1.0006  0.0906
  221MOL0     C30426   2.032   5.138   0.205  0.6664 -0.2573  0.3406
  221MOL0     C30427   2.125   5.233   0.241 -0.4992  0.8032  0.2849
  221MOL0     C30428   2.276   5.202   0.197 -0.2578  0.3367 -0.0873
  221MOL0     H30429   2.418   5.587   0.320 -0.7476  1.2221 -1.8308
  221MOL0     H30430   2.534   5.811   0.312 -1.4730  2.6347 -4.4583
  221MOL0     H30431   2.548   6.131   0.576 -0.5422 -0.4170  1.7349
  221MOL0     H30432   2.383   6.075   0.616  1.8821  0.9403  1.9590
  221MOL0     H30433   2.284   6.245   0.493 -0.7577  2.4070  6.9110
  221MOL0     H30434   2.387   6.333   0.585 -3.1356 -3.0575  2.3156
  221MOL0     H30435   2.457   6.256   0.300  0.5847 -1.0087  0.8108
  221MOL0     H30436   2.402   6.417   0.354 -0.0078  0.5830 -0.2993
  221MOL0     H30437   2.607   6.478   0.443 -0.3712  0.1755 -0.8924
  221MOL0     H30438   2.642   6.321   0.500 -0.2262 -0.8873 -0.1269
  221MOL0     H30439   2.665   6.398   0.217 -0.1127  2.6481  0.9597
  221MOL0     H30440   2.701   6.237   0.287 -3.0299  0.7072 -1.9803
  221MOL0     H30441   2.862   6.484   0.352 -1.2347 -0.2278  0.8149
  221MOL0     H30442   2.872   6.331   0.428 -2.4800  0.1213  0.1399
  221MOL0     H30443   2.927   6.220   0.211  1.0791  0.0781  0.3575
  221MOL0     H30444   3.053   6.332   0.262  1.1131 -0.4308 -0.4872
  221MOL0     H30445   2.853   6.366   0.038  0.4228 -2.5279  1.4600
  221MOL0     H30446   2.962   6.494   0.082 -0.7760 -0.4034  0.4326
  221MOL0     H30447   3.233   6.446   0.069  0.5324 -0.7323 -0.0961
  221MOL0     H30448   3.434   6.144  -0.012 -0.5747 -0.7424  0.7004
  221MOL0     H30449   3.457   6.321   0.032  0.6943 -1.2271  0.0157
  221MOL0     H30450   3.456   6.392  -0.184 -0.6018 -0.0797 -4.1986
  221MOL0     H30451   3.575   6.260  -0.158  0.4850  3.4181  2.0985
  221MOL0     H30452   3.388   6.110  -0.251 -1.5517  0.7417  0.0380
  221MOL0     H30453   3.332   6.264  -0.316  0.8639  1.6690  0.4074
  221MOL0     H30454   3.505   6.087  -0.449  1.6526  0.5142 -4.2862
  221MOL0     H30455   3.454   6.243  -0.497 -1.8414 -0.2939 -0.7476
  221MOL0     H30456   3.527   6.407  -0.560  0.7419 -0.6729 -0.2296
  221MOL0     H30457   3.498   6.602  -0.655 -0.3787  0.6114 -2.2874
  221MOL0     H30458   3.650   6.629  -0.746  0.3035  0.4136  0.8960
  221MOL0     H30459   3.606   6.737  -0.608  3.2360 -0.2297  0.3797
  221MOL0     H30460   4.220   6.811  -0.504 -0.6379 -1.7011  0.3142
  221MOL0     H30461   4.324   7.021  -0.601  0.1977  1.5645 -1.4507
  221MOL0     H30462   4.043   7.335  -0.790  2.4583  2.5489 -2.2325
  221MOL0     H30463   4.056   7.382  -0.620  2.0224 -2.2193  2.8321
  221MOL0     H30464   4.289   7.469  -0.666 -0.2654  2.0912  0.6830
  221MOL0     H30465   4.268   7.415  -0.834 -0.4294 -1.3590  0.2499
  221MOL0     H30466   4.062   7.596  -0.705  0.6068  3.2435  0.8456
  221MOL0     H30467   4.095   7.582  -0.871 -0.6773  2.9229  0.6787
  221MOL0     H30468   4.300   7.709  -0.850 -0.4191  0.7316 -0.1926
  221MOL0     H30469   4.286   7.707  -0.669 -1.3562 -0.3752  0.9579
  221MOL0     H30470   4.104   7.851  -0.859  1.9457 -0.2133 -1.0882
  221MOL0     H30471   4.072   7.850  -0.685 -0.2966  1.2905 -0.7884
  221MOL0     H30472   4.305   7.968  -0.822 -2.8084  4.0150 -0.9746
  221MOL0     H30473   4.300   7.970  -0.644 -0.2321  1.0339  1.0562
  221MOL0     H30474   4.092   8.091  -0.662  0.3443  3.3502  0.0496
  221MOL0     H30475   4.124   8.112  -0.836  2.1315  0.9344 -1.0497
  221MOL0     H30476   4.305   8.190  -0.598 -2.3401 -0.4370  0.1491
  221MOL0     H30477   4.194   8.303  -0.671 -1.1568 -0.2666 -2.3241
  221MOL0     H30478   3.939   7.204  -0.596 -1.4819 -0.4480 -1.0902
  221MOL0     H30479   3.839   7.005  -0.520 -0.7841 -0.3094  3.7132
  221MOL0     H30480   3.957   6.528  -0.370  1.9434 -2.7488 -0.5231
  221MOL0     H30481   3.862   6.324  -0.315 -1.4009  0.0764  1.0165
  221MOL0     H30482   2.188   6.007   0.451 -1.6657 -2.2811  3.8201
  221MOL0     H30483   2.053   5.800   0.413  0.2929  2.1970 -2.4862
  221MOL0     H30484   1.916   5.443   0.400 -0.8830 -4.8328  5.9107
  221MOL0     H30485   1.756   5.298   0.324 -0.1626 -1.2959  2.5378
  221MOL0     H30486   1.677   4.930   0.306  2.8388 -0.0681 -0.7993
  221MOL0     H30487   1.661   5.102   0.362 -3.8269  0.5895 -1.1067
  221MOL0     H30488   1.596   5.161   0.131 -1.4478  0.5441  0.6574
  221MOL0     H30489   1.478   5.064   0.209 -0.2792 -4.0237  0.5566
  221MOL0     H30490   1.687   4.926   0.022  1.3540  1.1705 -0.1477
  221MOL0     H30491   1.543   4.864   0.094  1.1121 -1.4611  0.9226
  221MOL0     H30492   1.540   5.102  -0.098  3.9851 -0.5728  2.3118
  221MOL0     H30493   1.407   5.010  -0.026  0.8165 -0.6230  1.5385
  221MOL0     H30494   1.481   4.784  -0.365  5.2511 -3.2193  0.4160
  221MOL0     H30495   2.069   5.043   0.169 -0.8645  0.1112 -2.4736
  221MOL0     H30496   2.278   5.203   0.087  1.5514  1.5300 -0.0878
  221MOL0     H30497   2.358   5.265   0.234  1.4812 -0.5596 -2.1427
  221MOL0     H30498   2.304   5.108   0.246 -1.5412  0.4201  0.8525
  222MOL0     O30499   0.866   1.814   6.780  0.4116 -0.3675 -0.0577
  222MOL0     C30500   0.852   1.709   6.716 -0.0793 -0.1270 -0.5481
  222MOL0     O30501   0.755   1.613   6.744 -0.0995 -0.6281  0.3373
  222MOL0     C30502   0.674   1.637   6.855 -0.0238 -0.1544  0.0891
  222MOL0     C30503   0.530   1.645   6.831  1.0845 -0.0303  0.6125
  222MOL0     C30504   0.432   1.670   6.933  0.4752 -0.0472  0.4970
  222MOL0     C30505   0.484   1.669   7.064 -0.3519 -0.4175 -0.0862
  222MOL0     O30506   0.403   1.645   7.177  0.6844 -0.0047 -0.2600
  222MOL0     C30507   0.416   1.728   7.296 -0.7137  0.5571  0.9274
  222MOL0     C30508   0.299   1.727   7.378 -0.3550 -0.3180 -0.5491
  222MOL0     C30509   0.172   1.759   7.307 -0.1026  0.3620  0.4711
  222MOL0     C30510   0.059   1.783   7.418 -0.1883 -0.4379  0.4418
  222MOL0     C30511  -0.081   1.758   7.364 -0.2415 -0.4997  0.5099
  222MOL0     C30512  -0.186   1.776   7.472  0.2439  0.2097  0.5245
  222MOL0     C30513  -0.165   1.686   7.592  0.0481 -0.3182 -1.0120
  222MOL0     C30514  -0.288   1.683   7.691 -0.9661 -0.6825  0.3780
  222MOL0     N30515  -0.353   1.813   7.725 -0.4340  1.5668  0.2704
  222MOL0     C30516  -0.422   1.896   7.648  0.3384 -0.0243 -0.0510
  222MOL0     C30517  -0.449   2.000   7.731 -0.4358  0.3086  0.7599
  222MOL0     C30518  -0.511   2.136   7.691  0.0022  0.6582  0.3474
  222MOL0     C30519  -0.414   2.234   7.643  0.2443  0.1047  0.3485
  222MOL0     C30520  -0.463   2.361   7.589 -0.8368 -0.2565  0.3250
  222MOL0     C30521  -0.584   2.424   7.652 -0.3780  0.7348  0.6197
  222MOL0     O30522  -0.612   2.548   7.595  0.3696  0.2058  0.1926
  222MOL0     C30523  -0.690   2.550   7.480  0.3665  0.0677 -1.1124
  222MOL0     C30524  -0.642   2.592   7.364 -0.8516  0.1630  0.1887
  222MOL0     C30525  -0.715   2.612   7.250 -1.0515 -0.1445 -0.4888
  222MOL0     C30526  -0.638   2.633   7.125  0.8844  0.9822  0.4739
  222MOL0     C30527  -0.858   2.595   7.252  0.8590  0.3657 -0.1657
  222MOL0     C30528  -0.950   2.604   7.132  0.2077 -0.0151  0.2289
  222MOL0     O30529  -0.893   2.644   7.015 -0.1112 -0.5048 -0.2425
  222MOL0     C30530  -0.958   2.659   6.901  0.4303  0.2422  0.3184
  222MOL0     C30531  -0.894   2.732   6.795 -0.6870 -0.1552 -1.5421
  222MOL0     C30532  -0.946   2.754   6.668  0.2333  0.0072  0.0614
  222MOL0     C30533  -1.074   2.715   6.633  0.3650  0.5461  0.8673
  222MOL0     O30534  -1.141   2.737   6.516  0.5668  0.0147  0.6060
  222MOL0     C30535  -1.067   2.752   6.389  0.7088  0.2876 -0.1663
  222MOL0     C30536  -1.013   2.895   6.382 -0.5800 -0.1708 -0.4568
  222MOL0     C30537  -0.927   2.916   6.269  0.3926  0.3635  0.2166
  222MOL0     C30538  -0.923   3.064   6.231 -0.5019 -0.0948 -0.6974
  222MOL0     C30539  -0.830   3.099   6.115  0.2500 -0.0466 -0.3654
  222MOL0     C30540  -0.794   3.248   6.118 -1.1979  0.6158  0.1828
  222MOL0     C30541  -0.703   3.275   6.000 -0.3177  0.0025 -0.2526
  222MOL0     C30542  -0.691   3.435   5.978 -0.1401  0.5072  0.8446
  222MOL0    Cl30543  -0.695   3.483   5.804  0.2027 -0.1733  0.1199
  222MOL0     C30544  -1.143   2.657   6.744  0.5096 -0.4362  0.5315
  222MOL0     C30545  -1.093   2.633   6.868 -0.3647  0.0357 -0.9995
  222MOL0     O30546  -1.067   2.572   7.152 -0.1280 -0.3369 -0.4153
  222MOL0     C30547  -0.914   2.545   7.377  0.2967  0.2875 -0.3766
  222MOL0     C30548  -0.827   2.520   7.491  0.2305 -0.3621  0.6079
  222MOL0     N30549  -0.400   1.972   7.861 -0.2590 -0.0213  0.0440
  222MOL0     N30550  -0.347   1.856   7.855  0.3436 -0.8156  0.2928
  222MOL0     C30551   0.620   1.659   7.086 -1.2060 -0.0593 -0.0908
  222MOL0     C30552   0.711   1.648   6.988 -1.0837 -0.4183 -0.2865
  222MOL0     C30553   0.935   1.698   6.593 -0.8174  0.0330 -0.4097
  222MOL0     C30554   0.953   1.809   6.506  0.8576 -0.8953 -0.4353
  222MOL0     C30555   1.031   1.811   6.391 -0.0130 -0.0929 -0.2891
  222MOL0     C30556   1.087   1.688   6.350  0.2137 -0.4976 -0.2571
  222MOL0     O30557   1.164   1.666   6.241 -0.2981  0.1545  0.1845
  222MOL0     C30558   1.175   1.779   6.157  0.2653  1.5160  0.5896
  222MOL0     C30559   1.278   1.878   6.198  0.8698 -0.5738 -0.5033
  222MOL0     C30560   1.424   1.843   6.178  1.0731 -0.5451 -0.0050
  222MOL0     C30561   1.512   1.960   6.229 -0.6420 -1.1195 -0.4573
  222MOL0     C30562   1.578   2.045   6.130 -0.2669  0.5857 -0.8154
  222MOL0     C30563   1.629   2.124   6.053 -0.3452 -0.5637 -0.6996
  222MOL0     C30564   1.071   1.575   6.433  0.8004  0.0225 -0.3470
  222MOL0     C30565   1.000   1.581   6.558  0.0517 -0.9469 -0.1729
  222MOL0     C30566   1.009   1.454   6.636 -0.1133  0.6845 -1.2602
  222MOL0     H30567   0.499   1.642   6.727 -0.7563 -0.0573  1.1216
  222MOL0     H30568   0.326   1.678   6.910  0.5071 -2.4703 -0.8828
  222MOL0     H30569   0.447   1.830   7.269 -0.9625  0.3524 -0.1807
  222MOL0     H30570   0.501   1.679   7.344  0.0906 -0.0500 -1.0130
  222MOL0     H30571   0.295   1.626   7.420 -1.5225 -0.3559 -0.7156
  222MOL0     H30572   0.318   1.798   7.459  0.7293 -2.0317  0.7777
  222MOL0     H30573   0.178   1.843   7.236 -1.6414 -0.6105 -0.8743
  222MOL0     H30574   0.140   1.676   7.244  0.4452  0.7288 -0.3121
  222MOL0     H30575   0.067   1.698   7.486 -0.7424 -0.8231  0.0259
  222MOL0     H30576   0.078   1.876   7.474 -1.6285  1.0110 -1.3355
  222MOL0     H30577  -0.096   1.658   7.322 -0.7570 -0.0914 -0.3097
  222MOL0     H30578  -0.105   1.835   7.290  2.5336  1.2145  1.2217
  222MOL0     H30579  -0.182   1.880   7.507 -1.2788  0.6164 -0.3575
  222MOL0     H30580  -0.286   1.757   7.431 -0.3725  0.6438  1.7929
  222MOL0     H30581  -0.088   1.728   7.657 -2.2531  2.6058  0.0305
  222MOL0     H30582  -0.152   1.584   7.553 -1.3018  0.1987 -3.0031
  222MOL0     H30583  -0.361   1.609   7.654  0.3708 -1.5117 -0.6925
  222MOL0     H30584  -0.255   1.642   7.787 -0.9656 -2.6827 -0.4215
  222MOL0     H30585  -0.419   1.895   7.539 -0.0529 -1.2101 -0.0704
  222MOL0     H30586  -0.552   2.172   7.786 -3.3021 -2.3487  0.3064
  222MOL0     H30587  -0.593   2.123   7.620  1.8427 -3.2865 -1.3499
  222MOL0     H30588  -0.341   2.247   7.725 -1.3827 -3.2529  2.5674
  222MOL0     H30589  -0.356   2.188   7.563  0.7429  2.4582 -0.7071
  222MOL0     H30590  -0.381   2.431   7.571 -2.5147  1.6423 -0.3568
  222MOL0     H30591  -0.502   2.332   7.491 -1.9199 -0.3686  0.7778
  222MOL0     H30592  -0.660   2.348   7.632  1.8615 -1.6265  0.6298
  222MOL0     H30593  -0.567   2.439   7.759  0.9962  0.2652  0.4857
  222MOL0     H30594  -0.535   2.612   7.356 -1.1016  1.6048  0.2280
  222MOL0     H30595  -0.685   2.729   7.100 -1.0801 -0.3172 -1.0564
  222MOL0     H30596  -0.648   2.555   7.049  4.1386 -1.9180  2.7046
  222MOL0     H30597  -0.530   2.647   7.136  1.0528 -0.0371  0.1908
  222MOL0     H30598  -0.793   2.762   6.819 -0.6530 -0.2667 -1.5450
  222MOL0     H30599  -0.873   2.797   6.600  3.0469 -1.2502  2.0806
  222MOL0     H30600  -0.994   2.673   6.370  0.2716  0.3768 -2.6191
  222MOL0     H30601  -1.143   2.739   6.312 -1.2873  2.1047  1.3798
  222MOL0     H30602  -1.096   2.966   6.380  1.7383  2.7243 -3.1331
  222MOL0     H30603  -0.944   2.918   6.465 -0.6696  0.5332 -0.5722
  222MOL0     H30604  -0.969   2.866   6.181  3.4945 -0.1710 -1.0762
  222MOL0     H30605  -0.828   2.877   6.294 -0.4593 -2.4211 -0.3503
  222MOL0     H30606  -0.900   3.133   6.314  0.6643  1.1960 -2.0343
  222MOL0     H30607  -1.025   3.076   6.194 -1.9131 -1.0967  2.5309
  222MOL0     H30608  -0.743   3.034   6.111 -0.5183 -1.4403  2.5004
  222MOL0     H30609  -0.880   3.077   6.020  1.7948 -0.8518 -1.0307
  222MOL0     H30610  -0.748   3.279   6.212  0.5747  0.6109 -0.6356
  222MOL0     H30611  -0.879   3.314   6.096 -0.4346  2.1644  1.6106
  222MOL0     H30612  -0.760   3.231   5.918  0.7218  1.4525 -1.8369
  222MOL0     H30613  -0.600   3.237   6.001  0.3502  1.6489 -1.5995
  222MOL0     H30614  -0.600   3.483   6.014 -1.1541  3.0780  0.2127
  222MOL0     H30615  -0.771   3.487   6.031  0.9795 -0.2911  3.4509
  222MOL0     H30616  -1.249   2.638   6.739  0.6468 -1.2187  0.3923
  222MOL0     H30617  -1.150   2.581   6.944 -0.4682  1.8477  0.2341
  222MOL0     H30618  -1.022   2.539   7.385  0.2473  1.3244 -0.1325
  222MOL0     H30619  -0.874   2.492   7.585 -5.8208  2.1069 -1.1795
  222MOL0     H30620   0.660   1.661   7.187 -2.6941  0.8719  0.5210
  222MOL0     H30621   0.815   1.649   7.019 -1.5578 -1.8780  1.5179
  222MOL0     H30622   0.898   1.899   6.530 -3.2806 -2.3961 -3.1441
  222MOL0     H30623   1.023   1.901   6.331  0.6343 -0.5509 -1.0856
  222MOL0     H30624   1.205   1.747   6.056  0.9341 -1.4279  1.6236
  222MOL0     H30625   1.076   1.820   6.135 -2.2893 -3.8592  0.4821
  222MOL0     H30626   1.258   1.901   6.303  1.6325 -2.6818  0.1550
  222MOL0     H30627   1.257   1.959   6.127  1.5913  0.7528  0.7236
  222MOL0     H30628   1.430   1.747   6.230 -3.4706  0.6735  3.3861
  222MOL0     H30629   1.447   1.825   6.072  0.6123 -1.6961  0.0778
  222MOL0     H30630   1.588   1.915   6.293 -2.0817 -0.0669  2.1724
  222MOL0     H30631   1.449   2.007   6.305  2.0740 -1.7032  2.3227
  222MOL0     H30632   1.663   2.196   5.982 -1.3996  1.6118  0.8966
  222MOL0     H30633   1.111   1.481   6.396  2.4721  0.1688  0.9610
  222MOL0     H30634   1.115   1.435   6.653 -0.1406  0.8379 -0.9043
  222MOL0     H30635   0.955   1.452   6.731  1.5647 -2.0979 -0.2404
  222MOL0     H30636   0.973   1.373   6.572  2.5012 -0.8217 -0.9618
  223MOL0     O30637   4.161  11.170  10.207 -0.2247  0.2110 -0.4192
  223MOL0     C30638   4.050  11.195  10.155  0.0361 -0.3619  0.1348
  223MOL0     O30639   3.967  11.288  10.202 -0.7929  0.4519 -0.5082
  223MOL0     C30640   4.010  11.395  10.282 -0.4413  0.0981  0.0569
  223MOL0     C30641   4.145  11.446  10.296  1.4763 -0.0615 -0.7953
  223MOL0     C30642   4.178  11.533  10.403  0.4641  0.3932  0.3009
  223MOL0     C30643   4.077  11.591  10.482  0.3816 -0.2595  0.6048
  223MOL0     O30644   4.115  11.648  10.602 -0.2617  0.2999  0.5939
  223MOL0     C30645   4.120  11.553  10.700 -1.3775 -0.2069 -1.3679
  223MOL0     C30646   4.228  11.569  10.799  0.1167  0.6242  0.2256
  223MOL0     C30647   4.210  11.471  10.911  0.6255 -0.1318 -0.6104
  223MOL0     C30648   4.297  11.508  11.017  0.5321 -0.5696 -1.1103
  223MOL0     C30649   4.270  11.436  11.152 -0.3555 -0.1815 -0.1408
  223MOL0     C30650   4.345  11.486  11.276 -0.8024  0.1407 -0.9749
  223MOL0     C30651   4.324  11.393  11.396 -0.9115 -0.0821 -0.8902
  223MOL0     C30652   4.191  11.406  11.451  0.0345 -0.1466 -0.3519
  223MOL0     N30653   4.120  11.275  11.471 -0.4768  0.8133 -0.3158
  223MOL0     C30654   4.086  11.176  11.387  0.1559 -1.1575 -0.1112
  223MOL0     C30655   4.000  11.092  11.452  0.5205 -0.2161 -0.5631
  223MOL0     C30656   3.940  10.967  11.406 -0.3204 -0.3718  0.7197
  223MOL0     C30657   3.992  10.922  11.266  0.0445 -1.6158 -0.9469
  223MOL0     C30658   3.890  10.826  11.206 -0.1285 -0.5459  0.0203
  223MOL0     C30659   3.943  10.775  11.072 -0.3596 -0.9508  0.2356
  223MOL0     O30660   3.852  10.682  11.023 -0.4192  0.5535  0.6562
  223MOL0     C30661   3.836  10.676  10.883  0.5399 -0.3842  0.3392
  223MOL0     C30662   3.942  10.693  10.792  0.4837 -0.2606  0.5139
  223MOL0     C30663   3.922  10.683  10.658  0.7868 -0.1815  0.0651
  223MOL0     C30664   4.040  10.715  10.571  0.6459  0.2861  0.2610
  223MOL0     C30665   3.793  10.669  10.601  0.8995 -0.5038 -1.3742
  223MOL0     C30666   3.759  10.679  10.454 -0.4509  0.3447  0.0689
  223MOL0     O30667   3.631  10.712  10.420  0.2176  0.7371 -0.2207
  223MOL0     C30668   3.589  10.755  10.304 -0.2979  0.1248 -0.3923
  223MOL0     C30669   3.464  10.719  10.247 -0.5982  0.4741  0.2940
  223MOL0     C30670   3.418  10.758  10.123  0.0539 -0.1505  0.4127
  223MOL0     C30671   3.504  10.827  10.039  0.5065 -0.3061 -0.1651
  223MOL0     O30672   3.487  10.840   9.904 -0.0639 -0.0686 -0.7366
  223MOL0     C30673   3.354  10.894   9.864  0.1086 -0.0264 -0.5114
  223MOL0     C30674   3.346  10.964   9.730  0.0554  0.2347  0.1173
  223MOL0     C30675   3.463  11.061   9.705 -0.5792  0.0116  0.6725
  223MOL0     C30676   3.454  11.105   9.563  0.9909  0.3219 -0.7216
  223MOL0     C30677   3.596  11.161   9.519 -1.0143  0.6117  0.7159
  223MOL0     C30678   3.585  11.214   9.374  0.0178 -0.1386 -0.1552
  223MOL0     C30679   3.511  11.340   9.364 -0.4510 -0.4822  0.6315
  223MOL0     C30680   3.409  11.342   9.257  0.9244  0.1029  0.0672
  223MOL0    Cl30681   3.459  11.285   9.096  0.7174 -0.0459  0.2195
  223MOL0     C30682   3.626  10.874  10.088 -0.7806 -0.2631 -0.0908
  223MOL0     C30683   3.666  10.835  10.211 -0.2685  0.0847 -0.2938
  223MOL0     O30684   3.840  10.632  10.376 -0.6561  0.1205 -0.6811
  223MOL0     C30685   3.682  10.660  10.692  0.5759  0.3899  1.0658
  223MOL0     C30686   3.710  10.660  10.830  0.7633 -1.0744 -0.0561
  223MOL0     N30687   3.986  11.148  11.576 -0.8167 -0.4338 -0.3286
  223MOL0     N30688   4.064  11.243  11.593 -0.8760 -0.4048  0.5261
  223MOL0     C30689   3.938  11.556  10.461 -1.0903 -0.3697  0.1845
  223MOL0     C30690   3.913  11.456  10.365 -0.1473  0.4106  0.0216
  223MOL0     C30691   4.016  11.111  10.028 -0.3123  0.2998  0.3661
  223MOL0     C30692   4.112  11.014   9.981 -0.3619 -0.1377  0.8809
  223MOL0     C30693   4.092  10.952   9.858 -0.0155  0.2351  1.0153
  223MOL0     C30694   3.974  10.980   9.782 -0.3224 -0.2089 -0.7022
  223MOL0     O30695   3.943  10.907   9.673  0.5755  0.0055 -0.0979
  223MOL0     C30696   3.913  10.780   9.704  0.2620 -0.0586 -0.0820
  223MOL0     C30697   3.800  10.729   9.624  0.5019  0.1204  0.3994
  223MOL0     C30698   3.792  10.584   9.637  1.2825  0.1203  0.8809
  223MOL0     C30699   3.713  10.529   9.522 -0.0612  0.4787 -0.1960
  223MOL0     C30700   3.669  10.398   9.560  0.1570  0.1706 -0.3566
  223MOL0     C30701   3.629  10.289   9.599 -0.1995  0.4230  0.7297
  223MOL0     C30702   3.877  11.065   9.832 -0.0508  0.0548  0.3580
  223MOL0     C30703   3.896  11.129   9.958  0.2566 -0.1742 -0.6548
  223MOL0     C30704   3.783  11.201  10.024  0.8503  0.1555  0.2319
  223MOL0     H30705   4.219  11.405  10.228  0.3834  2.3101 -3.6481
  223MOL0     H30706   4.281  11.562  10.422  0.8986  2.5492 -4.1375
  223MOL0     H30707   4.103  11.447  10.679  1.4871 -1.0823  0.1906
  223MOL0     H30708   4.024  11.570  10.750 -0.3862  1.1519  0.2102
  223MOL0     H30709   4.324  11.557  10.749 -1.4520 -1.5433 -2.5482
  223MOL0     H30710   4.230  11.671  10.840  2.9164  0.4251  0.7475
  223MOL0     H30711   4.106  11.473  10.942  1.2409  1.4555  1.6043
  223MOL0     H30712   4.239  11.372  10.873 -2.4318 -2.5145  2.6480
  223MOL0     H30713   4.397  11.494  10.976 -0.1509  1.2029 -3.5695
  223MOL0     H30714   4.291  11.615  11.038  2.9004 -0.9544  2.3971
  223MOL0     H30715   4.298  11.333  11.128 -3.3977 -1.1480  0.0355
  223MOL0     H30716   4.165  11.426  11.180 -0.3618 -2.4474 -0.7676
  223MOL0     H30717   4.452  11.491  11.253 -0.5900 -3.8903 -1.5924
  223MOL0     H30718   4.313  11.586  11.304  2.1878  1.0032 -0.2937
  223MOL0     H30719   4.406  11.402  11.467  1.9619  0.7525 -4.0132
  223MOL0     H30720   4.346  11.291  11.364 -3.4532 -0.3226 -2.1810
  223MOL0     H30721   4.211  11.464  11.541  1.0382  0.0597 -0.6980
  223MOL0     H30722   4.128  11.475  11.393 -0.7682 -0.9545 -0.4612
  223MOL0     H30723   4.116  11.167  11.283 -1.9186 -3.6386 -0.6074
  223MOL0     H30724   3.832  10.985  11.409  0.0018  3.0478 -1.7284
  223MOL0     H30725   3.978  10.880  11.461  3.4564 -1.5886 -3.2030
  223MOL0     H30726   4.014  11.003  11.196  1.6680 -0.1115  1.1974
  223MOL0     H30727   4.082  10.863  11.286 -1.7329 -4.6172 -1.0458
  223MOL0     H30728   3.884  10.740  11.272 -1.6597 -0.3602  0.1444
  223MOL0     H30729   3.787  10.861  11.200 -0.9202 -0.9891  5.6727
  223MOL0     H30730   3.950  10.860  11.004  2.6610 -2.8006 -2.0651
  223MOL0     H30731   4.045  10.735  11.080 -0.4224 -1.0913  0.3469
  223MOL0     H30732   4.044  10.707  10.826  0.8223 -0.4672 -0.4041
  223MOL0     H30733   4.022  10.786  10.489 -1.7453  1.1877  1.4580
  223MOL0     H30734   4.090  10.623  10.540  0.6747 -0.1804  1.6369
  223MOL0     H30735   4.109  10.766  10.639 -1.2346  0.1160  2.4072
  223MOL0     H30736   3.393  10.656  10.299 -1.6251  0.3713 -1.1869
  223MOL0     H30737   3.336  10.715  10.065 -1.1347 -1.3453  2.8449
  223MOL0     H30738   3.276  10.818   9.858  1.0137 -1.4027  2.7816
  223MOL0     H30739   3.319  10.968   9.937  3.3712  0.7853  0.3876
  223MOL0     H30740   3.322  10.892   9.652 -2.7153  2.3336 -1.1351
  223MOL0     H30741   3.256  11.025   9.718  1.8343  2.5017 -3.6166
  223MOL0     H30742   3.549  10.996   9.725 -0.3901 -0.6285 -1.9301
  223MOL0     H30743   3.455  11.146   9.773 -2.0946  1.0369 -0.7352
  223MOL0     H30744   3.379  11.184   9.565 -1.3266 -1.7389 -1.4334
  223MOL0     H30745   3.425  11.023   9.497 -1.3181 -0.7109  1.4100
  223MOL0     H30746   3.630  11.241   9.585 -0.3206  0.8680  0.0703
  223MOL0     H30747   3.669  11.081   9.508 -0.9215  0.7590  0.2382
  223MOL0     H30748   3.530  11.140   9.315  0.0390 -0.3476  0.0872
  223MOL0     H30749   3.690  11.226   9.346  1.6327 -1.1285  4.5033
  223MOL0     H30750   3.583  11.422   9.350 -1.5819  0.1556 -2.0087
  223MOL0     H30751   3.472  11.364   9.464  1.9552 -0.8469  1.7601
  223MOL0     H30752   3.369  11.442   9.240  0.7761  0.1735  0.8096
  223MOL0     H30753   3.326  11.280   9.292 -0.2239  1.2697 -0.5076
  223MOL0     H30754   3.696  10.927  10.024 -0.6843 -0.2521  0.0241
  223MOL0     H30755   3.768  10.857  10.239 -0.1737  0.4666 -0.9293
  223MOL0     H30756   3.585  10.646  10.646  1.1213  3.7710 -1.5659
  223MOL0     H30757   3.630  10.654  10.903  0.7178 -1.6266 -0.1418
  223MOL0     H30758   3.863  11.600  10.525 -0.0505  3.1314 -0.7606
  223MOL0     H30759   3.812  11.432  10.335  0.1476  0.0541 -0.7325
  223MOL0     H30760   4.203  10.980  10.028 -0.5483 -1.6607  0.2087
  223MOL0     H30761   4.159  10.875   9.821  2.4877  2.3184  0.9323
  223MOL0     H30762   4.000  10.716   9.684 -0.2328 -0.2840 -1.6402
  223MOL0     H30763   3.886  10.761   9.808 -3.0377  0.2454 -0.7855
  223MOL0     H30764   3.781  10.756   9.520  0.4642 -2.6624 -0.3961
  223MOL0     H30765   3.714  10.777   9.672 -2.5366 -3.6380 -0.7400
  223MOL0     H30766   3.892  10.544   9.657  1.2364  0.4413  1.7658
  223MOL0     H30767   3.731  10.559   9.724  1.7335 -1.4617  0.7859
  223MOL0     H30768   3.785  10.528   9.440  2.3827 -2.9457  1.7292
  223MOL0     H30769   3.620  10.585   9.504  0.5915  2.0355  1.0132
  223MOL0     H30770   3.600  10.197   9.647 -1.8612 -0.2874 -1.4710
  223MOL0     H30771   3.784  11.067   9.776  1.4443 -3.3188 -2.6622
  223MOL0     H30772   3.695  11.168   9.967  0.9464 -0.1061  0.2315
  223MOL0     H30773   3.751  11.179  10.126  0.4714 -0.7840 -0.0704
  223MOL0     H30774   3.802  11.308  10.011  1.4481 -0.0116 -0.3494
  224MOL0     O30775   9.567   1.507   9.316 -0.0176 -0.2455 -0.1185
  224MOL0     C30776   9.586   1.628   9.300 -0.4984 -0.8982  0.4589
  224MOL0     O30777   9.686   1.681   9.220 -0.6386 -0.0810  0.0015
  224MOL0     C30778   9.798   1.601   9.199 -0.2305 -0.0398  0.2237
  224MOL0     C30779   9.842   1.613   9.070 -0.5055  0.3253  0.4161
  224MOL0     C30780   9.959   1.536   9.030  0.0022  0.6276 -0.2739
  224MOL0     C30781  10.008   1.441   9.111  0.7413 -0.1020  0.3584
  224MOL0     O30782  10.130   1.379   9.082 -0.7016 -0.8897  0.9421
  224MOL0     C30783  10.163   1.248   9.127  0.8748 -1.9148 -0.0634
  224MOL0     C30784  10.222   1.161   9.016 -0.0373  0.5155  0.0007
  224MOL0     C30785  10.113   1.114   8.922 -0.6664 -0.9077  0.1068
  224MOL0     C30786  10.136   0.978   8.838 -0.2475 -0.5684 -0.0318
  224MOL0     C30787  10.269   0.973   8.759 -1.1683 -0.7883  0.0968
  224MOL0     C30788  10.312   0.832   8.712  0.5492  0.1051 -1.0666
  224MOL0     C30789  10.463   0.825   8.678  0.0492 -0.7996  0.0617
  224MOL0     C30790  10.506   0.680   8.661  0.1567 -0.3939  1.4433
  224MOL0     N30791  10.484   0.623   8.529 -0.3402  0.3718  0.6041
  224MOL0     C30792  10.443   0.679   8.409 -0.3175 -0.0416  0.6308
  224MOL0     C30793  10.474   0.595   8.308 -0.7072  0.7549  0.6142
  224MOL0     C30794  10.446   0.623   8.163 -0.1104  0.5167 -0.3307
  224MOL0     C30795  10.550   0.688   8.067 -0.2203 -0.2575  0.4818
  224MOL0     C30796  10.686   0.617   8.065  0.5793 -0.5951 -1.4961
  224MOL0     C30797  10.798   0.693   7.990 -0.0435  0.1239  0.1824
  224MOL0     O30798  10.923   0.612   7.992  0.4223 -0.5081 -0.6968
  224MOL0     C30799  10.916   0.486   7.938 -0.1378  1.1480  0.1492
  224MOL0     C30800  10.835   0.455   7.830 -0.4839  0.1983 -0.0105
  224MOL0     C30801  10.836   0.321   7.785 -0.5810  0.2479  0.9442
  224MOL0     C30802  10.745   0.276   7.659  0.2970 -0.7606 -0.0908
  224MOL0     C30803  10.927   0.223   7.845 -0.6746 -0.8309  0.2087
  224MOL0     C30804  10.917   0.075   7.812  0.1852 -0.1965  0.0956
  224MOL0     O30805  10.825   0.032   7.726 -0.9365 -0.4422  0.5877
  224MOL0     C30806  10.801  -0.096   7.702 -0.0097 -0.7437  0.2889
  224MOL0     C30807  10.817  -0.207   7.792  0.1932 -0.2964 -0.5251
  224MOL0     C30808  10.773  -0.336   7.744 -0.3997 -0.4483 -0.5333
  224MOL0     C30809  10.722  -0.348   7.615  0.4401  0.1647  0.7988
  224MOL0     O30810  10.677  -0.471   7.566  0.0885  0.0230  0.4370
  224MOL0     C30811  10.641  -0.591   7.643  0.1233 -0.0134  0.2220
  224MOL0     C30812  10.636  -0.718   7.549  1.5790 -0.9932 -0.3080
  224MOL0     C30813  10.779  -0.768   7.520  0.1365  0.5813  0.3855
  224MOL0     C30814  10.761  -0.859   7.396 -0.2879 -0.4035 -0.7849
  224MOL0     C30815  10.885  -0.936   7.348  0.2037  0.5932 -0.0699
  224MOL0     C30816  10.993  -0.837   7.317 -0.2953 -0.1442  0.8960
  224MOL0     C30817  11.119  -0.900   7.250 -0.0443  0.1025 -0.3324
  224MOL0     C30818  11.089  -0.964   7.112  0.5169  0.2709  0.2714
  224MOL0    Cl30819  11.029  -0.839   6.999 -0.2049  0.0149  0.0188
  224MOL0     C30820  10.710  -0.240   7.527 -1.0436  0.0021 -0.6851
  224MOL0     C30821  10.746  -0.111   7.575  0.0331  0.7169  0.0408
  224MOL0     O30822  11.001   0.002   7.870 -0.9103  0.3379  0.4189
  224MOL0     C30823  11.016   0.270   7.939  0.6938 -0.4111 -0.6756
  224MOL0     C30824  11.005   0.401   7.999  0.3154  0.0755 -0.0525
  224MOL0     N30825  10.520   0.479   8.371  0.7249 -0.5509  0.4739
  224MOL0     N30826  10.530   0.506   8.494 -0.5932  0.4749  0.2311
  224MOL0     C30827   9.944   1.416   9.236 -0.2657 -0.0529 -0.7250
  224MOL0     C30828   9.834   1.491   9.277 -0.3967  0.1973 -0.1960
  224MOL0     C30829   9.492   1.729   9.362  0.1203 -0.5327  0.8981
  224MOL0     C30830   9.504   1.862   9.314 -0.8668 -0.2157  0.1592
  224MOL0     C30831   9.420   1.966   9.360 -0.2476 -0.2368  0.2050
  224MOL0     C30832   9.318   1.934   9.452 -0.1341 -0.0225 -0.5621
  224MOL0     O30833   9.253   2.040   9.491  0.2416 -1.1065  0.7141
  224MOL0     C30834   9.135   2.016   9.572 -1.4018  0.9266  0.9403
  224MOL0     C30835   9.086   2.146   9.644  0.1439 -0.1104 -0.4523
  224MOL0     C30836   9.081   2.272   9.557  0.3424 -0.2985  0.1109
  224MOL0     C30837   9.023   2.254   9.414 -0.4816 -0.1097  0.2182
  224MOL0     C30838   8.882   2.217   9.424 -0.2046  1.2112  0.2111
  224MOL0     C30839   8.769   2.178   9.431  0.2482 -0.0092 -1.3360
  224MOL0     C30840   9.304   1.802   9.497  1.0070 -0.1216 -0.5241
  224MOL0     C30841   9.395   1.700   9.461  0.0808 -0.3906  0.0628
  224MOL0     C30842   9.356   1.567   9.522  0.0517  0.4421 -0.2442
  224MOL0     H30843   9.807   1.690   9.002  0.1560 -0.1640 -0.5005
  224MOL0     H30844  10.002   1.561   8.935 -0.0386  1.1185 -0.1651
  224MOL0     H30845  10.081   1.187   9.167  0.8178 -1.6873  0.1679
  224MOL0     H30846  10.238   1.262   9.206 -0.5678  0.7946  0.9179
  224MOL0     H30847  10.305   1.220   8.977 -0.5054  1.1255 -0.0957
  224MOL0     H30848  10.278   1.072   9.048  2.4061  1.7915 -0.5310
  224MOL0     H30849  10.022   1.087   8.976 -1.2243 -0.8360 -0.7788
  224MOL0     H30850  10.100   1.189   8.844 -0.6166 -0.4174  0.5680
  224MOL0     H30851  10.138   0.889   8.902 -1.7243 -2.9969 -3.0613
  224MOL0     H30852  10.059   0.974   8.760  0.6720 -1.1097 -0.9380
  224MOL0     H30853  10.356   1.011   8.814 -2.2845  0.4026  1.1196
  224MOL0     H30854  10.260   1.035   8.669  1.2719  0.1744  0.4315
  224MOL0     H30855  10.284   0.767   8.796 -2.3557  0.0912 -1.9580
  224MOL0     H30856  10.246   0.800   8.631  0.5737 -2.6744 -0.1095
  224MOL0     H30857  10.515   0.865   8.766 -0.4347 -1.2055  0.5356
  224MOL0     H30858  10.481   0.893   8.594 -1.3509  0.4860  0.7450
  224MOL0     H30859  10.612   0.671   8.690  1.0408 -2.9689 -2.0049
  224MOL0     H30860  10.441   0.629   8.732 -0.6570 -2.5131 -0.7356
  224MOL0     H30861  10.403   0.778   8.389  4.4462  1.8330 -0.9760
  224MOL0     H30862  10.359   0.688   8.155 -1.3440 -0.9754  0.4754
  224MOL0     H30863  10.420   0.525   8.123 -0.8573  1.3166 -1.8828
  224MOL0     H30864  10.508   0.683   7.966  0.5609 -1.2416  0.1880
  224MOL0     H30865  10.564   0.795   8.086 -0.0642 -0.1224 -0.3597
  224MOL0     H30866  10.713   0.584   8.166  3.0405 -0.8930 -2.1944
  224MOL0     H30867  10.659   0.522   8.018  0.8771 -1.3345 -0.2281
  224MOL0     H30868  10.773   0.714   7.886  1.1066 -0.8204 -0.3152
  224MOL0     H30869  10.817   0.785   8.045  2.6878 -0.7984  0.9764
  224MOL0     H30870  10.764   0.526   7.786  0.0000 -0.0046 -1.1497
  224MOL0     H30871  10.795   0.217   7.581 -0.4852  0.5800 -1.6737
  224MOL0     H30872  10.713   0.372   7.617  1.4433 -1.4548 -2.7717
  224MOL0     H30873  10.656   0.219   7.687 -0.0152  0.0706  0.6415
  224MOL0     H30874  10.875  -0.192   7.882 -0.7202  1.8932 -0.2433
  224MOL0     H30875  10.789  -0.425   7.805  1.8137  0.9405  1.0438
  224MOL0     H30876  10.719  -0.613   7.716 -0.5004 -0.1572  0.8580
  224MOL0     H30877  10.545  -0.571   7.692  0.2089 -1.2699  0.9334
  224MOL0     H30878  10.559  -0.790   7.578  0.3544  0.3253 -0.1760
  224MOL0     H30879  10.598  -0.682   7.453 -1.9040 -0.3045  1.1494
  224MOL0     H30880  10.814  -0.832   7.601  0.3128 -2.1635 -1.6731
  224MOL0     H30881  10.841  -0.682   7.494  0.6401  0.1706  0.2137
  224MOL0     H30882  10.724  -0.785   7.324  1.8849  4.0821  2.2319
  224MOL0     H30883  10.686  -0.936   7.415 -0.8366  0.2175 -0.3956
  224MOL0     H30884  10.911  -0.998   7.435 -0.6171 -3.0493 -2.2345
  224MOL0     H30885  10.869  -0.995   7.258 -1.1711  1.1909 -0.2413
  224MOL0     H30886  11.033  -0.776   7.399  1.3698  1.2934 -0.9088
  224MOL0     H30887  10.961  -0.760   7.247  0.6341 -0.3458  0.2223
  224MOL0     H30888  11.182  -0.965   7.312 -0.5629 -0.7012 -0.6458
  224MOL0     H30889  11.190  -0.825   7.212  1.6918 -0.5482  1.4268
  224MOL0     H30890  11.015  -1.043   7.122  0.7392  0.1688  1.1485
  224MOL0     H30891  11.172  -1.017   7.065 -1.0745 -1.1824 -1.0260
  224MOL0     H30892  10.672  -0.243   7.426  1.3813 -0.3979 -1.6638
  224MOL0     H30893  10.751  -0.029   7.504  1.6178 -0.2534 -1.0494
  224MOL0     H30894  11.089   0.201   7.981 -1.4295 -1.6961  1.1355
  224MOL0     H30895  11.075   0.431   8.077 -0.2767 -0.9165  0.8771
  224MOL0     H30896   9.982   1.338   9.301  0.3677  1.3610  0.6447
  224MOL0     H30897   9.800   1.477   9.379 -0.0955  0.6745 -0.0281
  224MOL0     H30898   9.560   1.892   9.227 -1.7027  3.7225  0.7742
  224MOL0     H30899   9.423   2.070   9.327 -1.4424  0.4621  2.1351
  224MOL0     H30900   9.061   1.970   9.506  1.5432  2.0459 -3.6332
  224MOL0     H30901   9.162   1.948   9.653 -0.3725  0.6200  0.3637
  224MOL0     H30902   9.160   2.165   9.722 -1.4924  0.0026  1.1610
  224MOL0     H30903   8.989   2.139   9.695 -0.0994  2.1444 -0.4949
  224MOL0     H30904   9.029   2.352   9.610 -0.2768 -1.2686  1.0183
  224MOL0     H30905   9.184   2.307   9.543  1.1828 -0.9329  3.7781
  224MOL0     H30906   9.073   2.178   9.354 -2.1018 -0.3685 -0.8607
  224MOL0     H30907   9.024   2.352   9.364 -1.5486 -0.6324 -0.8847
  224MOL0     H30908   8.678   2.122   9.440  1.6507 -2.2509 -0.1439
  224MOL0     H30909   9.233   1.778   9.576 -0.1326  0.0832 -1.4519
  224MOL0     H30910   9.423   1.487   9.487 -0.6024  0.1885 -0.9337
  224MOL0     H30911   9.366   1.578   9.630 -2.8373 -1.9722  0.4029
  224MOL0     H30912   9.256   1.537   9.489 -0.4060  1.8806 -0.2075
  225MOL0     O30913   1.651   0.755  11.082 -0.4105 -0.8385  0.4506
  225MOL0     C30914   1.651   0.870  11.040 -0.5981  0.2522 -0.4455
  225MOL0     O30915   1.554   0.956  11.051  0.8159 -0.2600  0.5607
  225MOL0     C30916   1.444   0.923  11.114  0.4768  0.2156 -0.6255
  225MOL0     C30917   1.351   0.820  11.086  0.7121  0.8077 -0.8106
  225MOL0     C30918   1.244   0.799  11.175  0.8066  0.0799 -0.6752
  225MOL0     C30919   1.234   0.871  11.292 -0.0207 -0.6479 -0.4855
  225MOL0     O30920   1.136   0.844  11.385 -0.4450 -0.5578  0.6284
  225MOL0     C30921   1.177   0.865  11.514 -0.2182  0.5611 -0.9414
  225MOL0     C30922   1.092   0.783  11.620 -1.0763 -0.4853  0.0923
  225MOL0     C30923   0.958   0.840  11.652  0.1535 -0.4898  0.4385
  225MOL0     C30924   0.884   0.869  11.527 -0.8104 -0.5980 -0.1285
  225MOL0     C30925   0.735   0.880  11.567  0.5489 -0.8529  0.0830
  225MOL0     C30926   0.671   0.739  11.569  1.5817 -0.4980 -0.1939
  225MOL0     C30927   0.533   0.726  11.638 -0.1190 -1.1687 -0.3740
  225MOL0     C30928   0.427   0.807  11.561  0.6687 -0.5529 -0.6620
  225MOL0     N30929   0.414   0.747  11.419  0.3547  1.3276 -0.6639
  225MOL0     C30930   0.388   0.610  11.395 -0.0381  0.1564  0.0219
  225MOL0     C30931   0.392   0.602  11.259 -0.1791 -0.8444  0.1848
  225MOL0     C30932   0.374   0.486  11.173  0.1833 -0.8488 -0.7561
  225MOL0     C30933   0.239   0.466  11.101  0.5610 -0.1173  0.3887
  225MOL0     C30934   0.123   0.469  11.210  0.0590  0.5608  0.6713
  225MOL0     C30935  -0.006   0.435  11.130  0.1260 -0.4121  0.4016
  225MOL0     O30936  -0.019   0.534  11.018  0.0558  0.0951 -0.1886
  225MOL0     C30937  -0.049   0.673  11.029 -0.3739  0.0666  0.2313
  225MOL0     C30938  -0.074   0.743  10.910 -0.6137 -0.3042  0.1699
  225MOL0     C30939  -0.107   0.878  10.906  0.5140  0.7878  0.5224
  225MOL0     C30940  -0.127   0.946  10.775 -0.0306  1.0302  0.9965
  225MOL0     C30941  -0.122   0.941  11.031  0.3686  0.1253  0.3630
  225MOL0     C30942  -0.160   1.084  11.052  0.2745  0.1253  1.4357
  225MOL0     O30943  -0.149   1.150  11.175 -0.3665  0.1410 -0.5399
  225MOL0     C30944  -0.199   1.276  11.198  0.2660 -0.1827 -0.3613
  225MOL0     C30945  -0.234   1.380  11.114 -0.3830 -0.3555  0.4262
  225MOL0     C30946  -0.304   1.485  11.168 -0.1345 -0.4205  0.4824
  225MOL0     C30947  -0.330   1.501  11.300  0.0201  0.1710  0.3498
  225MOL0     O30948  -0.399   1.604  11.355  0.0906 -0.3355  0.0621
  225MOL0     C30949  -0.468   1.693  11.270 -0.0944 -0.3491  0.3802
  225MOL0     C30950  -0.541   1.802  11.341  0.5972  0.2953  0.7847
  225MOL0     C30951  -0.650   1.736  11.428  0.3362  0.2286 -0.3859
  225MOL0     C30952  -0.705   1.844  11.525  0.0086  0.0293  0.8909
  225MOL0     C30953  -0.808   1.790  11.624 -0.9853  0.7156 -1.0755
  225MOL0     C30954  -0.845   1.881  11.739 -0.4516 -0.5044  0.4317
  225MOL0     C30955  -0.900   2.012  11.685  0.5873  0.1970 -0.2223
  225MOL0     C30956  -0.990   2.088  11.786  0.0114 -0.0294  0.5430
  225MOL0    Cl30957  -1.108   1.997  11.886  0.2447  0.0513  0.3490
  225MOL0     C30958  -0.270   1.414  11.384 -0.1727  1.2547  0.6154
  225MOL0     C30959  -0.213   1.294  11.330 -0.6357 -0.5246  0.0013
  225MOL0     O30960  -0.185   1.141  10.952  0.4350  0.3530 -0.5633
  225MOL0     C30961  -0.098   0.874  11.152  1.0239 -0.3478 -0.4580
  225MOL0     C30962  -0.054   0.743  11.150  1.0007  0.0151  0.1685
  225MOL0     N30963   0.434   0.720  11.208  0.5169  1.0959  0.3244
  225MOL0     N30964   0.449   0.802  11.301  0.9098  0.1314 -0.2580
  225MOL0     C30965   1.322   0.976  11.320  0.3117  0.3014  0.4494
  225MOL0     C30966   1.427   1.001  11.235 -0.2854  0.2299  0.9054
  225MOL0     C30967   1.784   0.904  10.983  0.0381  0.4833  0.9792
  225MOL0     C30968   1.847   0.793  10.907 -0.0928  0.4737 -0.8906
  225MOL0     C30969   1.980   0.816  10.863  0.2885 -0.9264  0.2703
  225MOL0     C30970   2.047   0.934  10.893  0.4148  0.7911 -0.8595
  225MOL0     O30971   2.174   0.964  10.842 -0.0548 -0.5208 -1.0290
  225MOL0     C30972   2.271   0.857  10.835  0.0090 -0.2338  0.3156
  225MOL0     C30973   2.399   0.922  10.866  0.0457  0.8711 -0.4324
  225MOL0     C30974   2.531   0.838  10.850  0.1676 -0.4013 -0.6582
  225MOL0     C30975   2.644   0.903  10.930  0.3196  0.2786  0.3284
  225MOL0     C30976   2.679   1.030  10.865 -1.4303  0.7892 -0.4119
  225MOL0     C30977   2.691   1.122  10.793  0.2820 -0.3202  0.1945
  225MOL0     C30978   1.985   1.041  10.957 -0.1203  0.2307  0.3651
  225MOL0     C30979   1.849   1.028  10.999  0.1500 -0.1198 -0.5561
  225MOL0     C30980   1.796   1.143  11.082  0.5647  0.4165  0.3549
  225MOL0     H30981   1.356   0.766  10.991 -3.1917 -2.6800  0.6552
  225MOL0     H30982   1.185   0.708  11.162  0.6946 -0.2695  1.7745
  225MOL0     H30983   1.180   0.973  11.533  0.3979  1.3533 -4.6927
  225MOL0     H30984   1.281   0.833  11.523  0.7884  3.3655 -1.5278
  225MOL0     H30985   1.090   0.690  11.562 -0.3194 -0.6433  0.3067
  225MOL0     H30986   1.147   0.762  11.713 -1.0568  1.9082  0.6912
  225MOL0     H30987   0.901   0.769  11.713 -1.5408 -1.9387 -2.6150
  225MOL0     H30988   0.960   0.936  11.705  2.3537 -1.2650  1.9101
  225MOL0     H30989   0.924   0.954  11.471 -2.2710 -0.3079 -0.7850
  225MOL0     H30990   0.889   0.784  11.458  0.2488  0.9387 -2.0140
  225MOL0     H30991   0.683   0.943  11.495  4.0514  2.5248  0.1494
  225MOL0     H30992   0.739   0.938  11.660 -2.0580  2.5338 -1.7252
  225MOL0     H30993   0.662   0.702  11.466  0.9167 -3.4184  0.8197
  225MOL0     H30994   0.734   0.659  11.608  1.2661  0.2246  1.9495
  225MOL0     H30995   0.537   0.767  11.739  0.3207  0.1036 -0.8892
  225MOL0     H30996   0.501   0.622  11.648 -0.9907 -1.0832 -1.9171
  225MOL0     H30997   0.329   0.802  11.609  0.7182 -3.4175 -0.6770
  225MOL0     H30998   0.455   0.911  11.547 -2.6619  0.5803  0.1642
  225MOL0     H30999   0.376   0.534  11.471  3.1726 -3.6698 -2.8784
  225MOL0     H31000   0.399   0.402  11.239  0.2092 -0.1746  0.0999
  225MOL0     H31001   0.457   0.481  11.102  0.7053 -0.4756 -0.1810
  225MOL0     H31002   0.217   0.548  11.032 -1.3089  0.1525  1.2315
  225MOL0     H31003   0.239   0.373  11.043 -0.5474 -0.3835  0.7788
  225MOL0     H31004   0.138   0.397  11.291 -0.3049 -0.1405  0.1262
  225MOL0     H31005   0.116   0.568  11.254  2.3288  1.4384 -0.7727
  225MOL0     H31006  -0.006   0.330  11.098 -0.2893 -0.4395  0.4875
  225MOL0     H31007  -0.095   0.439  11.193 -0.1540  1.1395 -0.0426
  225MOL0     H31008  -0.055   0.690  10.816 -1.4712 -1.6528  0.7240
  225MOL0     H31009  -0.232   0.964  10.755  0.2062  0.5461 -0.8448
  225MOL0     H31010  -0.076   0.899  10.690  1.7156  2.5657  1.1002
  225MOL0     H31011  -0.071   1.040  10.763  1.5716 -0.1532 -1.6119
  225MOL0     H31012  -0.231   1.380  11.006 -2.3051 -0.8494  0.3377
  225MOL0     H31013  -0.337   1.556  11.093 -4.0974 -1.4232  1.0580
  225MOL0     H31014  -0.394   1.745  11.208 -0.0808  4.2800  3.7025
  225MOL0     H31015  -0.533   1.644  11.198  0.8241  1.5634 -1.8844
  225MOL0     H31016  -0.463   1.854  11.396  1.3242 -0.3910  0.4272
  225MOL0     H31017  -0.589   1.860  11.261 -1.8261 -2.2216  0.2545
  225MOL0     H31018  -0.619   1.648  11.485 -2.8283 -1.5136 -1.1583
  225MOL0     H31019  -0.733   1.699  11.367 -0.4756 -1.5150  1.6461
  225MOL0     H31020  -0.751   1.915  11.456  0.9780 -0.3524 -0.1805
  225MOL0     H31021  -0.618   1.883  11.579  2.1931 -1.5693 -1.2763
  225MOL0     H31022  -0.898   1.742  11.584 -1.6662  0.9652  0.1137
  225MOL0     H31023  -0.760   1.704  11.672 -1.3845 -0.6937 -3.0371
  225MOL0     H31024  -0.755   1.903  11.798 -1.4941 -1.7080  2.6320
  225MOL0     H31025  -0.911   1.823  11.805 -0.9422  2.3750  2.6559
  225MOL0     H31026  -0.958   2.001  11.593  1.7461  2.2354 -1.2743
  225MOL0     H31027  -0.822   2.081  11.653 -0.5852  0.9316 -1.6115
  225MOL0     H31028  -1.049   2.166  11.737  0.1841  1.4858  2.5896
  225MOL0     H31029  -0.923   2.138  11.856  2.3239 -2.0386 -0.0960
  225MOL0     H31030  -0.272   1.425  11.492  3.7442 -0.4091  1.0147
  225MOL0     H31031  -0.187   1.207  11.389  0.8306 -0.2940 -0.2743
  225MOL0     H31032  -0.113   0.927  11.246  1.6123 -2.1207  0.6771
  225MOL0     H31033  -0.040   0.693  11.245 -0.1394  0.9575  0.8673
  225MOL0     H31034   1.310   1.040  11.407 -3.4543 -2.5493  2.3534
  225MOL0     H31035   1.498   1.077  11.263 -0.4385 -0.0106  2.0096
  225MOL0     H31036   1.806   0.693  10.903 -1.2967  0.8876  0.5385
  225MOL0     H31037   2.036   0.743  10.805 -1.1078 -0.9345 -1.1473
  225MOL0     H31038   2.262   0.780  10.912  0.3777 -1.9850 -1.3162
  225MOL0     H31039   2.275   0.801  10.741  1.8990 -2.2815  1.5145
  225MOL0     H31040   2.392   0.950  10.971  1.9715  0.5268 -0.1786
  225MOL0     H31041   2.411   1.017  10.813  0.3272  2.8123  2.8724
  225MOL0     H31042   2.502   0.737  10.880 -0.4306 -1.1244 -3.4044
  225MOL0     H31043   2.555   0.828  10.744  1.1459 -3.4418 -0.2519
  225MOL0     H31044   2.719   0.824  10.928 -1.0386 -1.0423 -0.0851
  225MOL0     H31045   2.604   0.916  11.031 -2.8226 -1.4566 -0.5505
  225MOL0     H31046   2.725   1.199  10.726  0.5109 -1.4653 -1.0358
  225MOL0     H31047   2.041   1.133  10.953 -2.1823  1.5025 -0.7732
  225MOL0     H31048   1.710   1.193  11.038  0.1862  0.6542  1.3322
  225MOL0     H31049   1.761   1.119  11.183 -1.6195  1.4918 -0.0813
  225MOL0     H31050   1.874   1.219  11.081 -0.2714  1.3182  1.3640
  226MOL0     O31051   1.373   5.130  10.092 -0.4448  0.2621 -0.1435
  226MOL0     C31052   1.465   5.076  10.031 -0.9667 -0.2065 -0.3196
  226MOL0     O31053   1.552   5.146   9.966  1.1343 -0.1925  1.3557
  226MOL0     C31054   1.565   5.278   9.939 -0.7932 -0.3173 -0.0282
  226MOL0     C31055   1.474   5.381   9.963  0.2033 -1.1886  0.1955
  226MOL0     C31056   1.514   5.514   9.929 -0.5608  0.3425 -0.4162
  226MOL0     C31057   1.637   5.554   9.883 -0.0620  0.4743 -0.7466
  226MOL0     O31058   1.650   5.691   9.872  0.3727  0.2078  0.0649
  226MOL0     C31059   1.729   5.751   9.774 -0.8271 -0.2688  0.3701
  226MOL0     C31060   1.866   5.817   9.816  0.3141  0.4216  0.4105
  226MOL0     C31061   1.852   5.920   9.927 -0.0902  0.3514 -0.2809
  226MOL0     C31062   1.990   5.940   9.986  0.4953  0.3922 -0.1048
  226MOL0     C31063   1.991   6.060  10.081  0.8168 -0.4097 -0.5634
  226MOL0     C31064   1.935   6.041  10.227 -0.0474 -0.1234  0.0653
  226MOL0     C31065   2.004   5.923  10.298  0.4332 -0.0991  0.0026
  226MOL0     C31066   1.990   5.933  10.453 -0.4281  0.1107  0.3810
  226MOL0     N31067   2.063   5.831  10.514  1.0792 -0.1398 -0.2558
  226MOL0     C31068   2.020   5.704  10.499 -0.0589 -0.4171 -0.4323
  226MOL0     C31069   2.125   5.624  10.518 -0.9796 -0.6586 -0.2400
  226MOL0     C31070   2.121   5.468  10.533 -1.2462  0.1777  0.0231
  226MOL0     C31071   2.190   5.392  10.423  0.5987 -0.9905  0.3252
  226MOL0     C31072   2.180   5.238  10.462  0.0813 -0.4873 -0.6579
  226MOL0     C31073   2.278   5.161  10.369 -0.3300 -0.2082 -0.6225
  226MOL0     O31074   2.414   5.208  10.366 -0.6644 -0.0599  0.9554
  226MOL0     C31075   2.516   5.156  10.290 -0.3774 -1.3105 -0.1466
  226MOL0     C31076   2.521   5.027  10.248  0.4552  0.0125 -0.2390
  226MOL0     C31077   2.638   4.980  10.186  0.5999 -1.3760  0.0415
  226MOL0     C31078   2.641   4.843  10.129 -0.0894 -0.6020  0.5234
  226MOL0     C31079   2.744   5.071  10.162  0.4833  0.6228  0.6732
  226MOL0     C31080   2.872   5.018  10.088 -1.2380 -0.7522 -0.3141
  226MOL0     O31081   2.984   5.074  10.155  0.0038  0.2645  0.4035
  226MOL0     C31082   3.098   5.013  10.126  0.4162  0.5939  0.1317
  226MOL0     C31083   3.140   4.891  10.186 -0.0334 -0.1705 -1.2357
  226MOL0     C31084   3.274   4.847  10.181 -0.4819  1.2146  0.3916
  226MOL0     C31085   3.367   4.912  10.108 -0.6361 -0.7603  0.1254
  226MOL0     O31086   3.490   4.863  10.100 -0.6085  0.0751 -0.1859
  226MOL0     C31087   3.531   4.750  10.182  0.6701 -0.6169  0.0730
  226MOL0     C31088   3.687   4.733  10.175  1.1237 -0.5403  0.2582
  226MOL0     C31089   3.730   4.636  10.280  0.1833  1.0124 -0.0877
  226MOL0     C31090   3.881   4.617  10.273 -0.6105 -0.5272  0.3435
  226MOL0     C31091   3.944   4.488  10.335  0.1822  0.1613 -0.0624
  226MOL0     C31092   3.904   4.461  10.484 -0.1359 -0.1396  0.1043
  226MOL0     C31093   3.929   4.578  10.587 -0.2788  1.0539  0.6654
  226MOL0     C31094   3.934   4.534  10.736  0.1163  0.3995  0.3153
  226MOL0    Cl31095   3.770   4.452  10.765 -0.5433  0.0537  0.2226
  226MOL0     C31096   3.319   5.019  10.028  0.5103  0.2793  0.4878
  226MOL0     C31097   3.192   5.075  10.046  0.6339  0.4140 -0.1795
  226MOL0     O31098   2.880   4.927  10.008  0.9721 -0.0242  0.3381
  226MOL0     C31099   2.745   5.202  10.208  0.3989 -1.2037  1.0954
  226MOL0     C31100   2.630   5.247  10.274  0.4879  0.0972 -0.3991
  226MOL0     N31101   2.234   5.708  10.554 -0.1333 -0.6690 -0.1158
  226MOL0     N31102   2.195   5.834  10.544  0.2251  0.6010  0.2093
  226MOL0     C31103   1.739   5.450   9.861  0.8038 -0.7636  0.2717
  226MOL0     C31104   1.696   5.318   9.881  0.4711  0.3251  0.2691
  226MOL0     C31105   1.479   4.927  10.046 -0.1813  0.0921 -0.4520
  226MOL0     C31106   1.590   4.875   9.968  0.6427 -0.0500  1.1107
  226MOL0     C31107   1.622   4.739   9.982 -0.3887 -0.2395 -0.6404
  226MOL0     C31108   1.538   4.662  10.063  0.1512  0.1486  0.4102
  226MOL0     O31109   1.583   4.532  10.065  0.3678  0.4191  0.2622
  226MOL0     C31110   1.532   4.439  10.158  0.3039 -0.1209  0.4034
  226MOL0     C31111   1.571   4.295  10.101  0.0063  0.3483 -0.1079
  226MOL0     C31112   1.457   4.200  10.132 -0.5356 -0.1927 -0.1989
  226MOL0     C31113   1.326   4.238  10.050  0.8951  0.4183 -0.0410
  226MOL0     C31114   1.352   4.257   9.906 -0.5872  0.2272  0.6138
  226MOL0     C31115   1.366   4.275   9.786  1.4337  0.5629  0.4211
  226MOL0     C31116   1.425   4.710  10.127  1.1018  0.1217 -0.6523
  226MOL0     C31117   1.391   4.845  10.125 -0.7685 -0.9491 -0.3348
  226MOL0     C31118   1.268   4.894  10.189 -0.1679 -0.0081  0.5534
  226MOL0     H31119   1.373   5.356   9.995 -0.7851  0.6636 -1.3032
  226MOL0     H31120   1.431   5.579   9.956 -3.5726 -3.2780 -0.1544
  226MOL0     H31121   1.669   5.839   9.747 -0.2599  0.0259  0.0223
  226MOL0     H31122   1.739   5.693   9.682  0.5896 -0.5533  0.6784
  226MOL0     H31123   1.943   5.740   9.828  1.2829  1.0229 -1.5053
  226MOL0     H31124   1.908   5.868   9.729  3.7620  1.1272  2.2867
  226MOL0     H31125   1.817   6.012   9.881 -3.5497 -0.7283 -0.0629
  226MOL0     H31126   1.771   5.902   9.997  0.5791  0.1217  0.4515
  226MOL0     H31127   2.030   5.850  10.033 -2.7304 -1.0150  0.2169
  226MOL0     H31128   2.059   5.968   9.906  0.1542  2.6701  0.3084
  226MOL0     H31129   1.938   6.135  10.022  1.0772  1.3162  1.2818
  226MOL0     H31130   2.094   6.097  10.094  0.1384  0.7796  2.3263
  226MOL0     H31131   1.962   6.136  10.274  0.2733 -0.3451  0.3341
  226MOL0     H31132   1.826   6.032  10.220  0.0426 -0.9790 -0.3367
  226MOL0     H31133   2.106   5.917  10.260  0.6882  1.6964  0.3211
  226MOL0     H31134   1.955   5.836  10.253  2.6192 -0.3801 -2.0879
  226MOL0     H31135   2.038   6.021  10.497 -1.6803 -0.4623  3.0673
  226MOL0     H31136   1.883   5.925  10.472 -0.3663 -1.6378  0.1737
  226MOL0     H31137   1.921   5.682  10.462  0.6278  0.4027 -2.9206
  226MOL0     H31138   2.013   5.452  10.525 -1.3228  0.3156  0.7188
  226MOL0     H31139   2.151   5.430  10.631  1.8363 -0.3720 -1.0377
  226MOL0     H31140   2.133   5.407  10.331  1.6607 -0.6846 -0.2952
  226MOL0     H31141   2.290   5.431  10.402 -0.6692  0.0569 -5.8131
  226MOL0     H31142   2.209   5.227  10.567 -1.1378  0.4265 -0.2018
  226MOL0     H31143   2.073   5.215  10.454 -0.1206 -0.3317  1.2421
  226MOL0     H31144   2.268   5.059  10.406 -1.3946  0.2943  0.6030
  226MOL0     H31145   2.243   5.169  10.266  0.5878  0.3561 -0.8979
  226MOL0     H31146   2.434   4.963  10.258  1.4109 -1.3512 -0.2968
  226MOL0     H31147   2.615   4.849  10.023 -1.5146 -0.3265  0.8738
  226MOL0     H31148   2.558   4.787  10.174 -0.0008 -0.8786  0.3407
  226MOL0     H31149   2.737   4.795  10.152  2.4081  2.4545 -2.4240
  226MOL0     H31150   3.080   4.833  10.256 -0.5723 -0.2333 -1.7471
  226MOL0     H31151   3.290   4.755  10.236  1.7791  0.5333 -1.2487
  226MOL0     H31152   3.505   4.774  10.286 -1.4167  1.1150 -0.7712
  226MOL0     H31153   3.477   4.660  10.152 -0.9146  0.1648  0.4420
  226MOL0     H31154   3.725   4.700  10.078  4.4555 -2.6365  2.1156
  226MOL0     H31155   3.737   4.825  10.206  0.7765  0.2117 -1.2816
  226MOL0     H31156   3.686   4.539  10.255 -2.5444  1.7151  1.6224
  226MOL0     H31157   3.717   4.673  10.382 -2.0070 -1.4083  0.5967
  226MOL0     H31158   3.922   4.702  10.329 -0.6513  1.2989 -2.2523
  226MOL0     H31159   3.928   4.633  10.176  3.2181 -1.3785  1.8501
  226MOL0     H31160   3.914   4.399  10.279  1.4214 -0.4755  0.2584
  226MOL0     H31161   4.051   4.491  10.317 -0.0396 -0.6494 -1.6880
  226MOL0     H31162   3.947   4.371  10.529  2.0564 -0.6273 -2.7197
  226MOL0     H31163   3.798   4.433  10.489  0.5128 -2.7989  0.3656
  226MOL0     H31164   3.855   4.655  10.563  0.3874  0.5681 -3.9370
  226MOL0     H31165   4.026   4.617  10.552 -0.0827 -0.5085 -0.6415
  226MOL0     H31166   3.953   4.625  10.792 -2.1693  0.4472  1.0857
  226MOL0     H31167   4.017   4.463  10.747  2.1638  2.1112 -2.6942
  226MOL0     H31168   3.398   5.058   9.965  1.7479 -3.5990 -0.6518
  226MOL0     H31169   3.157   5.162   9.991 -1.1658  0.5640  1.1166
  226MOL0     H31170   2.836   5.260  10.197 -1.1058  0.9302 -1.2221
  226MOL0     H31171   2.631   5.346  10.319  2.3566  1.8979 -3.9291
  226MOL0     H31172   1.842   5.467   9.833  0.6527 -2.2792 -1.4240
  226MOL0     H31173   1.768   5.239   9.860  0.9160 -0.0666  2.8681
  226MOL0     H31174   1.658   4.940   9.915  2.1143 -2.0437  0.4260
  226MOL0     H31175   1.713   4.694   9.944  0.0860  0.5275 -0.4494
  226MOL0     H31176   1.587   4.444  10.252  0.4805 -2.7656  0.5081
  226MOL0     H31177   1.427   4.453  10.186  0.6775  0.3259  1.6522
  226MOL0     H31178   1.662   4.253  10.146  1.7910 -1.1395 -4.5387
  226MOL0     H31179   1.592   4.299   9.993  1.5886  1.2670  0.1962
  226MOL0     H31180   1.482   4.098  10.103 -1.4557 -0.0690 -1.5114
  226MOL0     H31181   1.426   4.197  10.237 -4.0508  1.1713 -1.0507
  226MOL0     H31182   1.266   4.323  10.084 -1.6638 -1.7999  1.4629
  226MOL0     H31183   1.265   4.148  10.059 -1.0419  1.3519 -2.6543
  226MOL0     H31184   1.366   4.296   9.681 -1.8346 -2.5744 -0.4181
  226MOL0     H31185   1.364   4.633  10.175  1.7759 -0.7105 -1.1112
  226MOL0     H31186   1.207   4.954  10.121 -1.6395  2.3936  3.7200
  226MOL0     H31187   1.208   4.805  10.211  2.0672 -1.3372  1.6762
  226MOL0     H31188   1.300   4.949  10.278  1.9341  0.1088 -0.2365
  227MOL0     O31189   6.963  10.514   7.743  0.3603 -0.4335 -0.4962
  227MOL0     C31190   7.018  10.578   7.828  0.6099 -1.1728 -0.8244
  227MOL0     O31191   7.057  10.527   7.953 -0.4263 -0.8235 -0.6661
  227MOL0     C31192   7.031  10.396   7.975  0.0032 -0.1213  0.4556
  227MOL0     C31193   7.147  10.318   7.953  0.7535 -0.0930  0.4113
  227MOL0     C31194   7.136  10.175   7.972 -0.5795  0.5787  0.9576
  227MOL0     C31195   7.013  10.111   7.998 -1.0364 -0.5078 -0.1704
  227MOL0     O31196   7.023   9.971   8.015  0.2339  0.2602 -0.3541
  227MOL0     C31197   6.935   9.906   8.106  0.1212 -0.0922 -0.0067
  227MOL0     C31198   6.949   9.755   8.104  0.3985  0.6984  0.8954
  227MOL0     C31199   6.910   9.706   7.967  0.2765 -0.0484 -0.1317
  227MOL0     C31200   6.855   9.554   7.965  0.0886 -0.6604 -0.7849
  227MOL0     C31201   6.863   9.480   7.834  1.1348  0.6802  0.6685
  227MOL0     C31202   6.758   9.534   7.729 -0.0863 -0.3352 -0.4892
  227MOL0     C31203   6.797   9.483   7.607  0.1037 -0.8081  0.0459
  227MOL0     C31204   6.699   9.502   7.491  0.0484 -0.1617  0.2075
  227MOL0     N31205   6.767   9.477   7.362  0.5766 -0.4513  0.1670
  227MOL0     C31206   6.811   9.357   7.324 -0.0236  0.3991  0.0392
  227MOL0     C31207   6.859   9.373   7.203  0.1503  1.0852  1.2400
  227MOL0     C31208   6.923   9.275   7.108 -0.2066 -0.4613 -0.1175
  227MOL0     C31209   7.029   9.332   7.007 -0.7784  1.0978  0.4476
  227MOL0     C31210   7.087   9.228   6.916 -0.2878  0.1498 -0.2311
  227MOL0     C31211   7.222   9.276   6.849  0.7207 -0.1669 -0.3651
  227MOL0     O31212   7.267   9.179   6.747 -0.5423 -0.6868 -0.2770
  227MOL0     C31213   7.388   9.116   6.771  0.1694 -0.7737  0.9002
  227MOL0     C31214   7.509   9.183   6.757  0.3274  0.0054 -0.2620
  227MOL0     C31215   7.624   9.116   6.800  0.4534  0.9667 -0.0040
  227MOL0     C31216   7.756   9.180   6.764 -0.3783  0.7639 -0.4114
  227MOL0     C31217   7.623   8.994   6.859  0.8115  0.2100 -0.3608
  227MOL0     C31218   7.732   8.908   6.907 -1.3204 -0.2579 -1.3215
  227MOL0     O31219   7.847   8.931   6.839  0.9037  0.0117 -0.0067
  227MOL0     C31220   7.938   8.833   6.819 -0.0376 -0.0346  0.6966
  227MOL0     C31221   7.905   8.709   6.764  0.0756 -0.1480 -0.0175
  227MOL0     C31222   8.015   8.633   6.719  0.4662 -0.0310 -0.2294
  227MOL0     C31223   8.152   8.675   6.715 -0.5917 -0.0022 -0.0574
  227MOL0     O31224   8.248   8.610   6.642  0.9781  0.6708 -0.0602
  227MOL0     C31225   8.381   8.635   6.670 -1.7358 -0.0783  0.5292
  227MOL0     C31226   8.448   8.738   6.576 -0.1459  0.9691 -0.0832
  227MOL0     C31227   8.509   8.683   6.450 -0.4537 -0.1000 -0.4047
  227MOL0     C31228   8.562   8.799   6.360  0.2509  0.2550 -0.7842
  227MOL0     C31229   8.549   8.773   6.214 -0.1847 -0.1337 -0.7927
  227MOL0     C31230   8.626   8.646   6.180 -0.6679  0.8092  0.4104
  227MOL0     C31231   8.618   8.621   6.035  0.1875  0.1382  0.2125
  227MOL0     C31232   8.720   8.706   5.960 -0.2442 -0.3372 -0.1975
  227MOL0    Cl31233   8.676   8.739   5.791  0.0676  0.3086 -0.0395
  227MOL0     C31234   8.181   8.801   6.773  0.0311 -0.3962  0.0988
  227MOL0     C31235   8.072   8.873   6.827 -1.0052  0.9007  0.2622
  227MOL0     O31236   7.722   8.818   6.988  0.1253 -0.1694 -0.0194
  227MOL0     C31237   7.501   8.941   6.888 -0.7746  0.1412  1.0849
  227MOL0     C31238   7.383   8.993   6.830  0.3751 -0.6820  0.7561
  227MOL0     N31239   6.834   9.504   7.160  0.1869 -0.1557 -0.6680
  227MOL0     N31240   6.788   9.570   7.263  1.7050 -0.3093 -0.3662
  227MOL0     C31241   6.896  10.196   8.008  0.4204  0.1535 -0.7179
  227MOL0     C31242   6.905  10.333   8.000  0.3718  0.6579 -0.3642
  227MOL0     C31243   7.029  10.728   7.825  0.7830 -0.5391 -1.2349
  227MOL0     C31244   7.069  10.793   7.943 -0.0660  1.3667 -0.4145
  227MOL0     C31245   7.066  10.924   7.965 -0.3192 -0.3949  0.1105
  227MOL0     C31246   7.038  11.004   7.861  0.6148  0.4210  0.7189
  227MOL0     O31247   7.050  11.138   7.884  0.2318 -0.1295 -0.3284
  227MOL0     C31248   6.975  11.193   7.996  0.2800 -0.1917 -0.0474
  227MOL0     C31249   7.065  11.297   8.069 -0.1388  0.5788 -0.4803
  227MOL0     C31250   7.178  11.228   8.150 -0.4804 -0.2839 -0.3652
  227MOL0     C31251   7.284  11.331   8.210 -0.4308  0.1030 -0.6071
  227MOL0     C31252   7.425  11.274   8.222  0.2102 -0.3197 -1.0707
  227MOL0     C31253   7.553  11.263   8.236 -0.5328  0.8150 -0.2053
  227MOL0     C31254   7.008  10.950   7.733 -0.2511  0.6450 -0.0171
  227MOL0     C31255   6.989  10.820   7.717  0.1151  0.9266 -0.0735
  227MOL0     C31256   6.954  10.774   7.581  0.9632  0.9676  0.5775
  227MOL0     H31257   7.244  10.363   7.935  0.9915 -0.6542  0.2771
  227MOL0     H31258   7.219  10.105   7.966 -1.1621 -0.3437  2.8470
  227MOL0     H31259   6.835   9.932   8.071  0.2367 -2.0687 -2.0094
  227MOL0     H31260   6.948   9.933   8.211  2.5299 -0.3691 -0.1865
  227MOL0     H31261   7.051   9.720   8.118  0.0298 -1.9589 -1.9378
  227MOL0     H31262   6.884   9.718   8.184 -0.7543  0.7679  0.0273
  227MOL0     H31263   6.828   9.757   7.915 -0.3018  0.0784  0.8797
  227MOL0     H31264   6.999   9.705   7.902  1.6468 -4.8411  1.4486
  227MOL0     H31265   6.896   9.495   8.047 -0.0192 -1.5434 -1.3483
  227MOL0     H31266   6.749   9.554   7.994 -0.0554 -1.3957 -1.2632
  227MOL0     H31267   6.847   9.375   7.861  4.2800 -0.1717 -0.4153
  227MOL0     H31268   6.967   9.486   7.801  1.3222 -0.2737  1.0545
  227MOL0     H31269   6.656   9.509   7.757 -0.5551  0.1916 -1.6574
  227MOL0     H31270   6.764   9.643   7.720 -0.3791 -0.3931 -1.5396
  227MOL0     H31271   6.802   9.376   7.628  2.4971 -0.4762  1.6327
  227MOL0     H31272   6.893   9.530   7.585 -1.7608  3.5159  0.1946
  227MOL0     H31273   6.607   9.443   7.502  1.2497 -2.2210 -0.3806
  227MOL0     H31274   6.684   9.611   7.493  1.6207  0.0693  0.9526
  227MOL0     H31275   6.810   9.265   7.382 -1.4241  0.4740  0.1632
  227MOL0     H31276   6.840   9.225   7.058 -1.5175  3.1909 -1.9025
  227MOL0     H31277   6.986   9.210   7.170  3.6997  2.0810 -1.0686
  227MOL0     H31278   6.995   9.408   6.935  2.8436  1.1271 -1.4758
  227MOL0     H31279   7.102   9.378   7.073  1.0790 -1.7600  0.5850
  227MOL0     H31280   7.113   9.155   6.993 -0.5775  1.1058  0.8239
  227MOL0     H31281   7.007   9.198   6.848 -1.5277 -2.0902  2.0312
  227MOL0     H31282   7.207   9.370   6.797  0.2315 -0.8212 -1.4419
  227MOL0     H31283   7.302   9.294   6.922  1.8500 -1.1872 -1.2925
  227MOL0     H31284   7.511   9.285   6.720 -1.8499 -1.0801 -3.8855
  227MOL0     H31285   7.727   9.283   6.744 -0.1147  0.4727 -2.4753
  227MOL0     H31286   7.811   9.136   6.681  1.7638  1.2859  0.6392
  227MOL0     H31287   7.831   9.186   6.844 -0.9372  1.2668  0.0818
  227MOL0     H31288   7.800   8.684   6.755 -0.2127 -0.2198  2.7040
  227MOL0     H31289   7.985   8.541   6.670  1.3895 -1.7122  2.1281
  227MOL0     H31290   8.396   8.656   6.776 -0.1521 -2.9742  1.0103
  227MOL0     H31291   8.430   8.538   6.658 -2.7896 -0.3033 -3.1851
  227MOL0     H31292   8.374   8.816   6.560 -1.4053 -0.2825 -0.5703
  227MOL0     H31293   8.535   8.778   6.629 -1.4488  3.4134  0.3569
  227MOL0     H31294   8.433   8.622   6.400 -2.0561  0.6094  1.0456
  227MOL0     H31295   8.597   8.623   6.475  1.9796  2.8584 -1.1743
  227MOL0     H31296   8.662   8.835   6.385  0.4688 -0.6288 -0.3292
  227MOL0     H31297   8.488   8.877   6.380 -0.3002 -1.0207  3.0150
  227MOL0     H31298   8.444   8.751   6.192 -0.7228  0.6794  0.8370
  227MOL0     H31299   8.581   8.863   6.160  0.4630 -0.0202 -0.2303
  227MOL0     H31300   8.585   8.554   6.224 -2.6478  2.5374  2.3622
  227MOL0     H31301   8.731   8.667   6.202 -1.1975  3.3587  0.7873
  227MOL0     H31302   8.521   8.662   6.006  0.6442  0.9303 -0.2182
  227MOL0     H31303   8.638   8.517   6.007 -0.4209  0.7002 -2.6356
  227MOL0     H31304   8.822   8.665   5.968  0.5393  1.6427  0.5882
  227MOL0     H31305   8.727   8.803   6.011 -0.4792 -1.5393  2.2835
  227MOL0     H31306   8.279   8.844   6.791 -0.6641  0.2072  2.9777
  227MOL0     H31307   8.106   8.967   6.869  3.5270 -0.3316 -0.0965
  227MOL0     H31308   7.480   8.846   6.936  0.8267  0.2639  2.1059
  227MOL0     H31309   7.286   8.949   6.850  0.3027 -0.3650  1.0951
  227MOL0     H31310   6.809  10.133   8.020  1.7003 -1.6964 -0.7254
  227MOL0     H31311   6.816  10.394   8.009  1.1743  1.6592  1.5023
  227MOL0     H31312   7.097  10.736   8.030  1.0644  3.6161  0.7965
  227MOL0     H31313   7.101  10.980   8.051 -1.5565  0.7537 -0.1116
  227MOL0     H31314   6.891  11.238   7.942  1.6112  2.4462 -0.0847
  227MOL0     H31315   6.926  11.114   8.053 -0.6423 -1.6474 -2.7019
  227MOL0     H31316   7.000  11.356   8.135 -0.7742 -0.7225  0.0948
  227MOL0     H31317   7.109  11.365   7.996  2.3311  1.0742  1.3253
  227MOL0     H31318   7.129  11.160   8.221 -1.7926  0.7926 -0.2142
  227MOL0     H31319   7.242  11.167   8.085 -2.4118 -1.4672 -1.2606
  227MOL0     H31320   7.259  11.368   8.310  4.1680 -0.2465  0.9333
  227MOL0     H31321   7.293  11.425   8.155  2.1812  0.2795  0.0037
  227MOL0     H31322   7.660  11.256   8.235 -0.5412 -1.5316  2.3830
  227MOL0     H31323   6.984  11.018   7.651  3.5739  0.9173 -1.0957
  227MOL0     H31324   6.850  10.746   7.558  2.0900 -2.6963 -0.8103
  227MOL0     H31325   6.992  10.844   7.506  2.1573  0.7421  0.9583
  227MOL0     H31326   7.001  10.680   7.550 -1.6869  0.6223 -3.2369
  228MOL0     O31327   8.015   6.620   6.777 -0.2449 -0.5224 -0.3508
  228MOL0     C31328   8.056   6.606   6.664  0.0633  0.2042  0.4445
  228MOL0     O31329   8.025   6.503   6.575  0.0061  0.1083 -0.0429
  228MOL0     C31330   7.919   6.418   6.614 -0.2912 -0.9227  1.0424
  228MOL0     C31331   7.947   6.300   6.676 -0.6876 -1.0056  0.1771
  228MOL0     C31332   7.847   6.211   6.722  0.5676 -0.4932 -0.5344
  228MOL0     C31333   7.712   6.236   6.708 -1.1572  0.4194 -0.5247
  228MOL0     O31334   7.602   6.152   6.731  0.0009  0.4786 -0.0309
  228MOL0     C31335   7.623   6.024   6.806 -0.0863  0.3535  0.2087
  228MOL0     C31336   7.504   5.929   6.777  0.6686  0.0207 -0.1791
  228MOL0     C31337   7.467   5.923   6.628 -0.2460  0.8375  0.7887
  228MOL0     C31338   7.546   5.805   6.553 -1.9540  0.3167  0.2046
  228MOL0     C31339   7.537   5.795   6.406 -0.2225 -0.3065  0.3169
  228MOL0     C31340   7.575   5.921   6.333 -0.3444 -0.3009 -0.4778
  228MOL0     C31341   7.548   5.907   6.199  0.1150 -0.1589  0.0622
  228MOL0     C31342   7.584   6.035   6.114  0.2743  0.7958  0.1513
  228MOL0     N31343   7.490   6.143   6.150  0.4070  0.5369 -1.0279
  228MOL0     C31344   7.524   6.253   6.219  0.0288  0.1984 -0.5844
  228MOL0     C31345   7.409   6.322   6.239 -0.6746  0.8592 -0.0016
  228MOL0     C31346   7.418   6.449   6.329  0.0304 -0.0069  0.1275
  228MOL0     C31347   7.324   6.431   6.453  0.7401  0.4304 -0.4240
  228MOL0     C31348   7.325   6.557   6.539 -0.3154  0.1140 -0.2722
  228MOL0     C31349   7.192   6.574   6.620  1.4533  0.1170 -0.2526
  228MOL0     O31350   7.174   6.463   6.711  0.2084  0.7170  0.5108
  228MOL0     C31351   7.105   6.486   6.826 -0.2194  0.1998  0.6180
  228MOL0     C31352   7.152   6.423   6.938  0.0401  0.5418  0.3701
  228MOL0     C31353   7.088   6.434   7.057  0.1109  0.5134  0.0802
  228MOL0     C31354   7.139   6.362   7.180 -0.2597  0.9660  0.9306
  228MOL0     C31355   6.966   6.513   7.057  0.0402 -0.7240 -2.1479
  228MOL0     C31356   6.866   6.509   7.175 -0.4804  0.4199 -0.7047
  228MOL0     O31357   6.909   6.466   7.296 -0.2674 -0.1909  0.1959
  228MOL0     C31358   6.828   6.465   7.401  0.8051  0.7186  0.4496
  228MOL0     C31359   6.770   6.585   7.444 -0.2995 -0.4681  0.2831
  228MOL0     C31360   6.692   6.587   7.556  0.4291 -0.1200  0.6226
  228MOL0     C31361   6.676   6.468   7.637  0.2351 -0.0029  0.1699
  228MOL0     O31362   6.600   6.473   7.757 -0.4794 -1.3117  0.5050
  228MOL0     C31363   6.674   6.450   7.875 -0.6555 -0.5991 -0.4655
  228MOL0     C31364   6.656   6.556   7.982 -0.9335 -0.1345 -0.2251
  228MOL0     C31365   6.589   6.496   8.109 -0.5894 -0.7911  0.4084
  228MOL0     C31366   6.539   6.610   8.211 -0.4145 -0.4948 -0.1929
  228MOL0     C31367   6.500   6.558   8.351 -1.0863 -0.6116 -0.4301
  228MOL0     C31368   6.421   6.430   8.341 -0.1572  0.1679 -0.2139
  228MOL0     C31369   6.347   6.403   8.468 -0.5254  0.0290 -0.9023
  228MOL0     C31370   6.264   6.270   8.445 -0.5193 -0.7456  0.0243
  228MOL0    Cl31371   6.165   6.273   8.292 -0.1047  0.8792  0.2560
  228MOL0     C31372   6.738   6.354   7.599  0.4799 -0.2092 -0.1965
  228MOL0     C31373   6.816   6.354   7.483 -0.1481 -0.4025 -0.6758
  228MOL0     O31374   6.755   6.545   7.160 -0.3526  0.5825 -0.0654
  228MOL0     C31375   6.918   6.570   6.946  1.9165  0.4106  0.2040
  228MOL0     C31376   6.989   6.558   6.828 -0.5486 -0.0803 -0.0889
  228MOL0     N31377   7.308   6.251   6.195  0.1693  0.2391 -0.3573
  228MOL0     N31378   7.356   6.148   6.130 -0.8756 -0.9357 -0.0824
  228MOL0     C31379   7.684   6.352   6.625 -1.0054 -0.7874 -0.5010
  228MOL0     C31380   7.783   6.447   6.593 -0.7660 -0.8670  0.4157
  228MOL0     C31381   8.158   6.696   6.606 -1.3435 -0.2885  0.1859
  228MOL0     C31382   8.285   6.642   6.576 -0.8580  0.5983  0.2096
  228MOL0     C31383   8.399   6.724   6.533  1.1239  0.2538 -0.5506
  228MOL0     C31384   8.388   6.860   6.528 -0.2877  0.1767  0.4868
  228MOL0     O31385   8.498   6.934   6.489  0.6858 -0.0444 -0.6848
  228MOL0     C31386   8.497   7.085   6.489  0.3466  0.5065  0.2648
  228MOL0     C31387   8.606   7.146   6.570 -0.8913 -0.1646  0.5095
  228MOL0     C31388   8.744   7.093   6.533  0.2774  0.2354 -0.0164
  228MOL0     C31389   8.850   7.125   6.640  0.3899  0.3290 -0.2922
  228MOL0     C31390   8.844   7.258   6.689 -0.0235 -0.0365 -0.4038
  228MOL0     C31391   8.816   7.369   6.739 -0.0917 -0.9774  0.5544
  228MOL0     C31392   8.257   6.913   6.536  0.4567  0.2545  0.2718
  228MOL0     C31393   8.145   6.837   6.582  0.1206 -0.5845  0.3936
  228MOL0     C31394   8.014   6.914   6.611 -0.2216 -0.4139  0.2799
  228MOL0     H31395   8.046   6.277   6.713 -0.4734  2.2985  2.0365
  228MOL0     H31396   7.870   6.117   6.769 -1.8612 -2.7152 -3.3392
  228MOL0     H31397   7.632   6.033   6.915 -0.9214  1.6078  0.1876
  228MOL0     H31398   7.708   5.967   6.768  0.2309  3.5928 -4.8818
  228MOL0     H31399   7.532   5.833   6.820 -1.9518  0.6687  3.4632
  228MOL0     H31400   7.425   5.963   6.845  1.8591 -0.6970  1.6578
  228MOL0     H31401   7.359   5.909   6.617 -0.0110  0.0809 -0.7939
  228MOL0     H31402   7.490   6.021   6.584  2.4659  0.3768  1.0051
  228MOL0     H31403   7.648   5.800   6.592 -2.7973 -1.5002  2.4437
  228MOL0     H31404   7.515   5.708   6.593 -2.9153 -0.1197 -1.5176
  228MOL0     H31405   7.430   5.775   6.391  0.1600 -1.2586 -1.4407
  228MOL0     H31406   7.577   5.698   6.375 -0.9669 -1.7175  3.3575
  228MOL0     H31407   7.527   6.010   6.374  2.5573 -0.7195  4.6256
  228MOL0     H31408   7.682   5.929   6.354 -0.1419 -0.8091 -1.2453
  228MOL0     H31409   7.439   5.891   6.199  0.0820  0.0526 -0.3003
  228MOL0     H31410   7.586   5.816   6.151  0.9937 -0.2255  0.8552
  228MOL0     H31411   7.682   6.073   6.145 -0.2750  1.5707  0.9613
  228MOL0     H31412   7.581   6.015   6.007  0.9812  1.6785 -0.0475
  228MOL0     H31413   7.621   6.284   6.257 -0.2245 -2.3630  2.5138
  228MOL0     H31414   7.379   6.535   6.273  1.2004  2.2586  2.5888
  228MOL0     H31415   7.519   6.468   6.366  0.8476 -0.9604 -1.4921
  228MOL0     H31416   7.223   6.422   6.412  0.4946  1.5502 -0.0990
  228MOL0     H31417   7.344   6.342   6.513 -1.1620 -2.0848 -3.2275
  228MOL0     H31418   7.414   6.572   6.602 -0.7470  1.0104  0.1448
  228MOL0     H31419   7.321   6.637   6.465 -2.3327 -0.7809 -1.2026
  228MOL0     H31420   7.203   6.664   6.681  1.3207 -0.5769  0.8277
  228MOL0     H31421   7.100   6.583   6.561  1.4619 -1.0535 -0.4700
  228MOL0     H31422   7.240   6.360   6.930 -0.9410 -0.6486 -1.7976
  228MOL0     H31423   7.149   6.428   7.267 -1.2014  0.0779  1.7370
  228MOL0     H31424   7.236   6.320   7.153  0.0782  3.2449 -1.8646
  228MOL0     H31425   7.059   6.291   7.203 -0.3416  0.0349 -1.8679
  228MOL0     H31426   6.778   6.680   7.392 -2.7125  0.3304  1.2094
  228MOL0     H31427   6.640   6.677   7.589  1.6030  1.8235 -2.3348
  228MOL0     H31428   6.660   6.347   7.910 -0.7358  0.5782  3.5117
  228MOL0     H31429   6.782   6.451   7.864 -0.5588 -0.5453  0.4192
  228MOL0     H31430   6.754   6.603   7.996  0.0352 -1.0892 -3.1543
  228MOL0     H31431   6.600   6.640   7.940  0.0348 -0.0892 -1.4869
  228MOL0     H31432   6.664   6.442   8.167  1.6196  3.0050  1.4694
  228MOL0     H31433   6.511   6.436   8.061 -0.5995  0.4005 -1.1486
  228MOL0     H31434   6.455   6.669   8.172  0.6095  1.2071  0.0886
  228MOL0     H31435   6.626   6.675   8.223 -0.5924  0.4247 -3.0581
  228MOL0     H31436   6.589   6.535   8.410 -1.2172 -1.0350 -0.3969
  228MOL0     H31437   6.444   6.630   8.412  1.1418  0.2399  0.6957
  228MOL0     H31438   6.488   6.345   8.326 -1.0169 -0.5480 -0.0965
  228MOL0     H31439   6.346   6.448   8.263 -2.1747  2.3255  2.0427
  228MOL0     H31440   6.285   6.490   8.491 -0.2470 -0.2462  1.0803
  228MOL0     H31441   6.410   6.389   8.557 -1.4257 -1.3981 -0.4428
  228MOL0     H31442   6.196   6.238   8.526  0.0690  0.8575  1.2127
  228MOL0     H31443   6.342   6.194   8.454  2.4924  2.3742  3.2820
  228MOL0     H31444   6.726   6.265   7.660  2.4782  0.3297  1.0914
  228MOL0     H31445   6.849   6.255   7.452 -0.1004 -1.2266  1.8008
  228MOL0     H31446   6.818   6.613   6.937  1.4434 -0.9145 -1.4236
  228MOL0     H31447   6.945   6.589   6.734  1.3950  1.6427 -0.5022
  228MOL0     H31448   7.584   6.379   6.596 -1.6726 -1.8963  0.6450
  228MOL0     H31449   7.743   6.534   6.540  2.0372 -0.6085 -1.5250
  228MOL0     H31450   8.299   6.534   6.579  0.4472  0.6816 -1.4074
  228MOL0     H31451   8.498   6.683   6.519 -0.5807 -3.5210 -3.4700
  228MOL0     H31452   8.514   7.113   6.385  0.2340 -2.0294 -0.5134
  228MOL0     H31453   8.408   7.133   6.531  0.2362 -0.6033  1.3721
  228MOL0     H31454   8.595   7.114   6.674  4.8016  0.4539  1.6242
  228MOL0     H31455   8.601   7.255   6.579 -2.3038 -0.2880  1.5391
  228MOL0     H31456   8.742   6.986   6.513 -0.5244 -0.7826  4.4284
  228MOL0     H31457   8.768   7.144   6.439 -1.5730  0.7209 -0.2664
  228MOL0     H31458   8.949   7.096   6.606  1.7658 -0.8090  4.0206
  228MOL0     H31459   8.844   7.061   6.729  4.0926 -1.5009 -1.1689
  228MOL0     H31460   8.785   7.466   6.773  1.7456  0.2522 -1.0764
  228MOL0     H31461   8.239   7.019   6.522 -0.7307 -0.0083 -0.2370
  228MOL0     H31462   7.917   6.863   6.607 -0.9757  1.0398 -0.6041
  228MOL0     H31463   8.018   6.962   6.709  0.3899  1.2848 -0.5312
  228MOL0     H31464   8.013   6.996   6.539  3.1010 -1.6213 -1.3536
  229MOL0     O31465   0.078   0.860   2.677 -0.0196 -0.2112  0.0977
  229MOL0     C31466   0.067   0.753   2.620  0.1661  0.6414 -0.0725
  229MOL0     O31467  -0.045   0.679   2.612  0.4686  0.8547 -0.1668
  229MOL0     C31468  -0.165   0.734   2.576 -0.5931 -0.3806  0.3928
  229MOL0     C31469  -0.192   0.852   2.507  0.0569 -0.8269  0.2749
  229MOL0     C31470  -0.324   0.899   2.477 -0.1650  0.3141  0.1240
  229MOL0     C31471  -0.428   0.810   2.497  0.4951 -0.0417  0.9142
  229MOL0     O31472  -0.551   0.825   2.440 -0.8065  0.0185  0.2732
  229MOL0     C31473  -0.575   0.945   2.370  0.1963 -0.3957 -0.1407
  229MOL0     C31474  -0.720   0.951   2.314 -0.0726  0.4556 -0.3203
  229MOL0     C31475  -0.755   1.087   2.255 -0.2339  0.0785 -1.0552
  229MOL0     C31476  -0.902   1.073   2.215  0.0347 -0.1204 -0.5169
  229MOL0     C31477  -0.964   1.203   2.174  0.5924  1.0721  0.7317
  229MOL0     C31478  -0.926   1.262   2.038  0.8673 -0.0263  0.4182
  229MOL0     C31479  -0.882   1.164   1.922 -0.5681  1.5462 -1.2428
  229MOL0     C31480  -0.977   1.043   1.888  0.1690 -0.1000  0.5319
  229MOL0     N31481  -1.107   1.106   1.846 -0.5989 -0.6694 -0.4635
  229MOL0     C31482  -1.215   1.114   1.926 -0.4697  0.6265  0.2218
  229MOL0     C31483  -1.306   1.188   1.852 -1.3435  0.1403  0.8851
  229MOL0     C31484  -1.441   1.219   1.893 -0.3499 -1.3888 -0.3259
  229MOL0     C31485  -1.440   1.354   1.971 -0.4447 -0.4207  0.6407
  229MOL0     C31486  -1.561   1.422   2.006 -0.0577 -0.5372 -0.9209
  229MOL0     C31487  -1.647   1.461   1.878 -0.2714  0.8204  0.6486
  229MOL0     O31488  -1.757   1.552   1.907 -0.4286 -0.0514  0.3455
  229MOL0     C31489  -1.873   1.514   1.956  0.0012 -0.4260 -0.6174
  229MOL0     C31490  -1.933   1.395   1.923  0.2790  0.2336 -0.5882
  229MOL0     C31491  -2.065   1.355   1.967  0.3402 -0.0929  0.0250
  229MOL0     C31492  -2.123   1.230   1.907 -1.2552  0.4747  1.2811
  229MOL0     C31493  -2.126   1.444   2.070  0.2987 -0.1076  0.4343
  229MOL0     C31494  -2.259   1.422   2.139  0.4925 -0.0179  0.5330
  229MOL0     O31495  -2.305   1.515   2.228  0.2720 -0.4080  0.0354
  229MOL0     C31496  -2.429   1.498   2.297  0.2024  0.4972  0.0815
  229MOL0     C31497  -2.517   1.601   2.314 -0.0270 -0.0547 -0.6158
  229MOL0     C31498  -2.633   1.595   2.397  0.4070 -0.4575  0.0920
  229MOL0     C31499  -2.664   1.477   2.457  0.5076  0.5783 -0.1694
  229MOL0     O31500  -2.779   1.442   2.523  0.0182 -0.4696 -0.1020
  229MOL0     C31501  -2.894   1.397   2.443  0.1023  0.3874  0.1103
  229MOL0     C31502  -2.891   1.244   2.452 -0.6454  0.3344 -0.2647
  229MOL0     C31503  -3.022   1.189   2.389  0.1898 -0.2229  0.1395
  229MOL0     C31504  -3.011   1.044   2.376 -0.2746 -0.2370  0.2294
  229MOL0     C31505  -3.122   0.983   2.298  1.1305  0.5268  0.6070
  229MOL0     C31506  -3.094   0.834   2.269 -0.7870  0.4004 -1.4267
  229MOL0     C31507  -3.097   0.738   2.394  1.0510 -0.6034 -0.8372
  229MOL0     C31508  -3.023   0.608   2.367  0.2053  0.7031 -0.2013
  229MOL0    Cl31509  -3.118   0.479   2.289  0.0592 -0.0811 -0.2400
  229MOL0     C31510  -2.567   1.372   2.447  0.1649 -0.5379  0.7215
  229MOL0     C31511  -2.446   1.385   2.371  0.6670 -0.2468 -0.4281
  229MOL0     O31512  -2.313   1.312   2.120  0.1656  0.0416 -0.4800
  229MOL0     C31513  -2.055   1.564   2.103  0.8334  0.6088  0.5453
  229MOL0     C31514  -1.931   1.597   2.044  0.2734  0.6549  1.2494
  229MOL0     N31515  -1.238   1.235   1.736  0.1581 -0.4309 -0.9732
  229MOL0     N31516  -1.117   1.182   1.735 -0.2314 -0.1211  0.0169
  229MOL0     C31517  -0.402   0.692   2.556  0.2472 -0.1178 -1.1295
  229MOL0     C31518  -0.277   0.655   2.609 -0.0556 -0.2459 -0.5639
  229MOL0     C31519   0.192   0.685   2.589  0.3689 -0.5224 -0.2316
  229MOL0     C31520   0.258   0.612   2.690  0.2337 -0.5516  0.4155
  229MOL0     C31521   0.373   0.531   2.664 -0.3752  0.8231 -0.1592
  229MOL0     C31522   0.433   0.532   2.536 -1.0293 -0.2078 -0.0034
  229MOL0     O31523   0.558   0.484   2.507  0.9177  0.4533 -0.2601
  229MOL0     C31524   0.646   0.439   2.616 -0.7163  0.2422 -0.1392
  229MOL0     C31525   0.654   0.287   2.617 -0.0715 -0.5440  0.9917
  229MOL0     C31526   0.521   0.202   2.633 -0.0414  0.4530 -0.5038
  229MOL0     C31527   0.555   0.057   2.652  0.2815  0.6937 -0.6374
  229MOL0     C31528   0.441  -0.028   2.646 -0.5629 -0.3391 -0.5713
  229MOL0     C31529   0.345  -0.102   2.661 -0.3643  0.4353 -0.8880
  229MOL0     C31530   0.367   0.608   2.439 -0.1311  1.0186  0.1243
  229MOL0     C31531   0.251   0.678   2.461  0.3589 -0.5156  0.2769
  229MOL0     C31532   0.184   0.742   2.343 -0.4150  0.7692  0.1601
  229MOL0     H31533  -0.109   0.920   2.492 -0.2032 -0.2999  1.1775
  229MOL0     H31534  -0.327   0.988   2.414  0.2048 -1.0230 -1.8657
  229MOL0     H31535  -0.500   0.955   2.291  1.5139 -3.5478  0.5256
  229MOL0     H31536  -0.559   1.023   2.444  1.7263 -0.3197 -0.5009
  229MOL0     H31537  -0.745   0.873   2.241 -2.5288 -0.2336  1.1048
  229MOL0     H31538  -0.786   0.925   2.398 -0.1341  1.1546 -0.1486
  229MOL0     H31539  -0.731   1.155   2.338  1.5092 -1.7410  0.0208
  229MOL0     H31540  -0.695   1.102   2.165  0.8917 -1.3088 -0.5651
  229MOL0     H31541  -0.910   0.991   2.144 -0.1520 -0.0085 -0.6238
  229MOL0     H31542  -0.965   1.048   2.302 -1.6545  2.9346 -0.7313
  229MOL0     H31543  -0.947   1.287   2.242  0.6429  2.7015 -1.1876
  229MOL0     H31544  -1.069   1.183   2.153  0.9172 -0.2701  0.3283
  229MOL0     H31545  -1.009   1.322   2.000  2.4006  0.5106 -2.3619
  229MOL0     H31546  -0.836   1.324   2.050  1.3104 -0.1167 -2.0338
  229MOL0     H31547  -0.781   1.132   1.948 -0.7173  0.1717 -2.2110
  229MOL0     H31548  -0.862   1.222   1.832  0.5241  0.5885 -1.6404
  229MOL0     H31549  -0.922   0.975   1.822 -1.6475 -0.8858 -0.2651
  229MOL0     H31550  -1.008   0.992   1.980 -2.0526 -2.3958 -1.3125
  229MOL0     H31551  -1.233   1.078   2.027 -0.8453 -1.3049 -0.4980
  229MOL0     H31552  -1.487   1.139   1.952 -3.1266 -1.6935 -2.6547
  229MOL0     H31553  -1.512   1.231   1.810 -2.0980 -1.8770  1.0324
  229MOL0     H31554  -1.378   1.345   2.061 -0.7448  0.3314  0.9275
  229MOL0     H31555  -1.389   1.423   1.903  0.1250 -0.2189  1.2580
  229MOL0     H31556  -1.618   1.358   2.074 -0.3616 -5.0035 -4.8016
  229MOL0     H31557  -1.527   1.518   2.045 -1.8659  1.5845 -4.0815
  229MOL0     H31558  -1.582   1.521   1.812 -0.8472  2.2690  1.3665
  229MOL0     H31559  -1.685   1.372   1.827 -3.4294  1.6457  1.3920
  229MOL0     H31560  -1.889   1.341   1.840 -1.5644 -1.5965 -0.4790
  229MOL0     H31561  -2.045   1.191   1.841 -0.7782 -2.2076  3.2360
  229MOL0     H31562  -2.205   1.269   1.846 -1.0189  1.6942  1.7188
  229MOL0     H31563  -2.158   1.154   1.977 -3.0400 -1.8678 -1.9040
  229MOL0     H31564  -2.481   1.697   2.279  1.8567  0.9373  3.4169
  229MOL0     H31565  -2.695   1.684   2.404  0.4500 -0.0542 -3.0528
  229MOL0     H31566  -2.988   1.433   2.487  0.0090 -0.0780  0.3028
  229MOL0     H31567  -2.880   1.439   2.343 -3.5869  4.2861  0.9121
  229MOL0     H31568  -2.800   1.207   2.406 -0.3806  2.6438 -1.7406
  229MOL0     H31569  -2.896   1.219   2.559  2.2134  0.6170  0.0040
  229MOL0     H31570  -3.038   1.231   2.289 -0.2801 -1.5829 -0.3758
  229MOL0     H31571  -3.114   1.222   2.439 -0.4205 -0.9029 -0.5111
  229MOL0     H31572  -2.983   0.999   2.472  1.9651  3.4425  1.5374
  229MOL0     H31573  -2.921   1.035   2.315  0.5553 -1.0606  1.5205
  229MOL0     H31574  -3.219   0.998   2.347  0.2370 -1.5967 -0.4000
  229MOL0     H31575  -3.139   1.035   2.203 -4.8119  2.0813  2.0616
  229MOL0     H31576  -2.999   0.838   2.216  0.4021  2.7705  0.6788
  229MOL0     H31577  -3.163   0.799   2.191  0.3764 -1.6974 -1.5988
  229MOL0     H31578  -3.199   0.729   2.432  0.9801 -1.4218 -1.1966
  229MOL0     H31579  -3.036   0.791   2.468 -2.3813  0.2180  1.6613
  229MOL0     H31580  -2.983   0.564   2.459  1.1168 -1.4302 -1.5544
  229MOL0     H31581  -2.935   0.627   2.304  1.5864 -0.7429  1.1987
  229MOL0     H31582  -2.595   1.281   2.499 -0.6464  0.0358  1.3058
  229MOL0     H31583  -2.382   1.297   2.369  1.0732  0.0444 -0.5036
  229MOL0     H31584  -2.103   1.632   2.173 -1.2588 -0.0008 -0.2246
  229MOL0     H31585  -1.887   1.695   2.056  1.6658  0.3497 -0.6743
  229MOL0     H31586  -0.479   0.618   2.573  0.3875 -0.7180 -2.8964
  229MOL0     H31587  -0.264   0.564   2.666 -2.7711 -0.2588  0.1954
  229MOL0     H31588   0.216   0.608   2.790 -0.0879 -0.2837  0.2944
  229MOL0     H31589   0.422   0.470   2.738  0.9272 -1.7150 -2.9255
  229MOL0     H31590   0.748   0.478   2.612  0.0283 -1.6810 -0.9411
  229MOL0     H31591   0.621   0.477   2.715  1.8368  2.1124 -0.1022
  229MOL0     H31592   0.721   0.262   2.699  0.2091 -1.2516  0.5547
  229MOL0     H31593   0.706   0.266   2.523  1.9327 -1.2423  2.2252
  229MOL0     H31594   0.459   0.221   2.720  1.2692 -3.5215  1.5157
  229MOL0     H31595   0.454   0.205   2.547 -2.8893 -0.5977  1.5535
  229MOL0     H31596   0.605   0.040   2.748  1.0917 -0.1860 -1.1965
  229MOL0     H31597   0.625   0.028   2.574 -0.4268 -0.6486 -0.8105
  229MOL0     H31598   0.253  -0.158   2.663  0.1738 -0.4817 -1.0684
  229MOL0     H31599   0.416   0.609   2.343  2.4497 -1.7510  1.2658
  229MOL0     H31600   0.223   0.842   2.320  3.0168 -0.8911 -2.1776
  229MOL0     H31601   0.196   0.680   2.253  3.3058 -0.2413  1.1562
  229MOL0     H31602   0.076   0.747   2.357 -0.2544  0.9912  1.3839
  230MOL0     O31603  10.400   0.859   3.300 -0.2811  0.3237  0.4614
  230MOL0     C31604  10.302   0.915   3.240  0.0468  0.1585  0.1189
  230MOL0     O31605  10.203   0.847   3.174 -1.0404 -0.0832 -0.4733
  230MOL0     C31606  10.195   0.712   3.169  0.4288 -1.0658  0.3903
  230MOL0     C31607  10.078   0.642   3.203  0.7142 -0.3087  0.3645
  230MOL0     C31608  10.075   0.507   3.180 -0.4837 -0.4586  0.1937
  230MOL0     C31609  10.183   0.427   3.114 -0.3666  0.3938 -1.0590
  230MOL0     O31610  10.197   0.283   3.123 -0.4373 -1.3035 -0.0593
  230MOL0     C31611  10.256   0.202   3.022 -0.5857  0.3390 -0.3567
  230MOL0     C31612  10.207   0.062   3.032  0.0200  0.0051 -0.6708
  230MOL0     C31613  10.273  -0.022   3.145 -0.5921 -0.4240  0.9481
  230MOL0     C31614  10.287  -0.176   3.106  0.4308  0.2653  0.0394
  230MOL0     C31615  10.369  -0.257   3.208  0.2846 -0.4400  0.0935
  230MOL0     C31616  10.293  -0.296   3.328 -0.7217 -0.5573 -0.4586
  230MOL0     C31617  10.192  -0.404   3.300 -1.1989  0.5214  0.2363
  230MOL0     C31618  10.238  -0.550   3.340  0.1989 -0.7711 -0.0754
  230MOL0     N31619  10.363  -0.574   3.264  0.0155 -0.3080  0.0586
  230MOL0     C31620  10.485  -0.553   3.319 -0.4700 -0.2335 -1.0374
  230MOL0     C31621  10.577  -0.610   3.240 -0.0431 -0.0351  0.7545
  230MOL0     C31622  10.724  -0.642   3.274  0.6831  0.4297 -0.5883
  230MOL0     C31623  10.759  -0.786   3.227  0.3807  0.2431  0.6159
  230MOL0     C31624  10.902  -0.826   3.264 -0.6071  0.2180  0.1227
  230MOL0     C31625  11.011  -0.743   3.182  0.3185  0.5521  0.0565
  230MOL0     O31626  10.993  -0.783   3.046  0.4779 -0.2775  0.1185
  230MOL0     C31627  10.992  -0.668   2.962 -0.4241 -0.0914  0.0004
  230MOL0     C31628  10.879  -0.592   2.924  0.6945  0.4396  0.5881
  230MOL0     C31629  10.886  -0.475   2.861  0.3071  0.7665 -0.4297
  230MOL0     C31630  10.752  -0.404   2.844 -0.5219  0.9674  0.6618
  230MOL0     C31631  11.008  -0.430   2.810  0.6152 -0.9637 -0.7402
  230MOL0     C31632  11.029  -0.309   2.721  0.7293  0.5537  0.1040
  230MOL0     O31633  11.156  -0.279   2.688 -0.9873 -0.6047 -0.0146
  230MOL0     C31634  11.170  -0.210   2.572 -0.9744  0.4520 -0.0881
  230MOL0     C31635  11.262  -0.101   2.571 -0.1199  0.3205  0.6638
  230MOL0     C31636  11.301  -0.049   2.446  0.5915  0.3894  0.2307
  230MOL0     C31637  11.244  -0.094   2.326  0.0973  0.6459 -0.6418
  230MOL0     O31638  11.277  -0.046   2.206 -0.0153 -0.8755  0.2457
  230MOL0     C31639  11.344   0.089   2.195 -0.4248  0.3215 -0.5924
  230MOL0     C31640  11.326   0.145   2.059 -0.6351 -0.1542  1.4538
  230MOL0     C31641  11.170   0.159   2.028  0.1026 -0.0189 -0.8680
  230MOL0     C31642  11.150   0.254   1.907  0.0380  0.0410  0.4578
  230MOL0     C31643  11.003   0.282   1.869 -0.9728 -0.4475  0.0471
  230MOL0     C31644  10.908   0.353   1.966 -0.4020  0.3995  0.4182
  230MOL0     C31645  10.791   0.421   1.894 -0.8881  0.9350  0.0090
  230MOL0     C31646  10.659   0.338   1.886  0.4554 -0.2019 -0.5373
  230MOL0    Cl31647  10.696   0.194   1.796  0.0967  0.1523  0.1610
  230MOL0     C31648  11.136  -0.182   2.331 -0.1896 -0.7244 -0.5330
  230MOL0     C31649  11.098  -0.237   2.450  0.1343  0.2682  0.2134
  230MOL0     O31650  10.927  -0.239   2.683 -0.1240  0.2651  0.0571
  230MOL0     C31651  11.120  -0.502   2.844 -0.0341  0.7499  0.0633
  230MOL0     C31652  11.117  -0.610   2.927  1.5364 -0.0771 -1.1170
  230MOL0     N31653  10.503  -0.646   3.128  0.1627  0.4175  0.8614
  230MOL0     N31654  10.374  -0.636   3.143  0.1109  1.0305  0.3093
  230MOL0     C31655  10.294   0.503   3.084  0.3952 -0.6185 -0.4997
  230MOL0     C31656  10.300   0.639   3.111 -0.0857  0.1785 -0.6204
  230MOL0     C31657  10.301   1.063   3.229 -0.2466  0.5728 -0.2165
  230MOL0     C31658  10.227   1.130   3.133 -0.1470  0.0890  0.7715
  230MOL0     C31659  10.231   1.272   3.109 -0.3994  0.2841  0.8078
  230MOL0     C31660  10.317   1.344   3.192 -0.8666 -1.0459 -0.2028
  230MOL0     O31661  10.329   1.477   3.186  0.0474 -0.7640 -0.4718
  230MOL0     C31662  10.297   1.559   3.074 -0.3016 -0.1807  0.6597
  230MOL0     C31663  10.309   1.707   3.102  0.2405 -0.2125 -1.2659
  230MOL0     C31664  10.223   1.795   3.009 -0.8687  0.0609 -0.0104
  230MOL0     C31665  10.184   1.917   3.089  0.8669 -0.4594  0.3063
  230MOL0     C31666  10.096   1.995   3.005 -0.1451 -0.2006  0.6702
  230MOL0     C31667  10.012   2.072   2.957 -0.3562 -0.7010 -0.9017
  230MOL0     C31668  10.385   1.278   3.297  0.0071  0.1963  0.3994
  230MOL0     C31669  10.366   1.146   3.325 -0.4627  0.1483  0.5124
  230MOL0     C31670  10.416   1.109   3.461 -0.5877  0.0057  0.4053
  230MOL0     H31671   9.994   0.701   3.240  2.8032  2.2873  1.3157
  230MOL0     H31672   9.988   0.449   3.211 -0.1536 -1.2029 -0.2332
  230MOL0     H31673  10.365   0.203   3.033 -0.8337  0.8325  3.2365
  230MOL0     H31674  10.224   0.243   2.926  1.6426 -0.6348 -1.5907
  230MOL0     H31675  10.099   0.060   3.046  0.0803 -1.7494 -0.2180
  230MOL0     H31676  10.232   0.011   2.939  1.6508 -0.1789 -0.1648
  230MOL0     H31677  10.374   0.013   3.166 -0.5388  1.7997 -2.3728
  230MOL0     H31678  10.211  -0.006   3.234  0.6341  4.7246  1.1876
  230MOL0     H31679  10.189  -0.221   3.092  0.6329  0.4446 -2.4334
  230MOL0     H31680  10.332  -0.187   3.006  1.3068  2.4673  0.1281
  230MOL0     H31681  10.446  -0.188   3.242 -0.9195  1.9598 -1.7301
  230MOL0     H31682  10.420  -0.338   3.155  1.5980  0.6113 -0.2852
  230MOL0     H31683  10.361  -0.324   3.410 -1.6730  0.8767  0.8767
  230MOL0     H31684  10.252  -0.206   3.375  0.8883 -1.0672  2.1885
  230MOL0     H31685  10.171  -0.418   3.194  1.1713 -0.5508 -0.1636
  230MOL0     H31686  10.099  -0.389   3.356  0.0469  2.4694  1.9468
  230MOL0     H31687  10.249  -0.567   3.447  0.8184 -1.8576 -0.2930
  230MOL0     H31688  10.168  -0.626   3.303  0.0466 -0.4645 -0.4333
  230MOL0     H31689  10.522  -0.507   3.410  0.0838  2.6640 -2.6010
  230MOL0     H31690  10.750  -0.618   3.377 -2.5531 -1.4234  0.8500
  230MOL0     H31691  10.786  -0.582   3.206 -1.5699  2.5254 -0.9592
  230MOL0     H31692  10.697  -0.868   3.263 -0.7713 -2.3549 -5.8271
  230MOL0     H31693  10.746  -0.784   3.118 -2.0638  1.3670  0.8786
  230MOL0     H31694  10.931  -0.822   3.369  3.0431  0.2349 -0.7711
  230MOL0     H31695  10.917  -0.932   3.240 -3.4861 -0.3785  0.5790
  230MOL0     H31696  10.999  -0.636   3.198  1.4401  0.7202 -0.1599
  230MOL0     H31697  11.115  -0.765   3.208 -0.1596  3.2613  5.5019
  230MOL0     H31698  10.788  -0.643   2.952  0.4129  1.1601  1.0250
  230MOL0     H31699  10.680  -0.450   2.913  1.6713 -0.1364  2.3603
  230MOL0     H31700  10.719  -0.411   2.740 -1.7018  3.0130  0.8443
  230MOL0     H31701  10.769  -0.301   2.877 -0.4492 -0.0740  4.3413
  230MOL0     H31702  11.312  -0.067   2.660  1.5387  0.6270 -0.3461
  230MOL0     H31703  11.381   0.024   2.439  1.7605 -0.9407 -0.8395
  230MOL0     H31704  11.296   0.166   2.256 -3.0035 -0.3718 -1.5935
  230MOL0     H31705  11.450   0.084   2.222 -0.0019  0.2294 -2.1346
  230MOL0     H31706  11.383   0.237   2.051  2.2256 -2.0153 -2.5282
  230MOL0     H31707  11.365   0.077   1.983  0.7335  2.8515 -0.7299
  230MOL0     H31708  11.136   0.203   2.122  5.6368 -0.6212  1.8551
  230MOL0     H31709  11.120   0.063   2.017  1.2882 -0.8490  0.6510
  230MOL0     H31710  11.198   0.217   1.815  1.2811  2.3552  0.1085
  230MOL0     H31711  11.191   0.354   1.923  0.7431 -0.1504 -0.1010
  230MOL0     H31712  11.012   0.344   1.779  0.0315 -1.9049 -0.9010
  230MOL0     H31713  10.955   0.195   1.822  0.9675 -0.3812 -2.2780
  230MOL0     H31714  10.964   0.430   2.018  0.0362  0.5073 -0.2035
  230MOL0     H31715  10.853   0.283   2.030 -1.6885 -1.0549 -2.0995
  230MOL0     H31716  10.823   0.447   1.792  0.1375  0.4742  0.2013
  230MOL0     H31717  10.772   0.524   1.926  0.6827  1.7038 -1.3533
  230MOL0     H31718  10.577   0.393   1.840  0.5039  1.8988  1.6493
  230MOL0     H31719  10.642   0.313   1.991  0.2206  1.0768 -0.2482
  230MOL0     H31720  11.075  -0.206   2.244  0.2566 -0.6645 -0.8630
  230MOL0     H31721  11.013  -0.304   2.436  0.3854  0.1488 -0.8194
  230MOL0     H31722  11.221  -0.476   2.812  0.0438  0.1138 -0.2214
  230MOL0     H31723  11.213  -0.655   2.951  0.4975 -0.9211  1.9400
  230MOL0     H31724  10.372   0.463   3.020 -0.3298 -0.3012 -1.5951
  230MOL0     H31725  10.390   0.681   3.067  1.9222 -2.7400  0.4507
  230MOL0     H31726  10.155   1.076   3.072 -0.2745 -1.3482  2.1609
  230MOL0     H31727  10.165   1.313   3.034  1.4134  2.3784  0.2393
  230MOL0     H31728  10.359   1.539   2.986 -0.8494  3.5481 -0.7575
  230MOL0     H31729  10.199   1.528   3.038 -0.3360  2.1210 -1.4683
  230MOL0     H31730  10.412   1.735   3.076  0.8135 -1.6137 -0.5633
  230MOL0     H31731  10.282   1.724   3.207 -1.0452  0.0450 -1.6203
  230MOL0     H31732  10.281   1.817   2.919  1.6861  0.5172  1.6427
  230MOL0     H31733  10.138   1.736   2.974  3.0038 -4.4729 -3.1174
  230MOL0     H31734  10.261   1.989   3.116  0.1253  1.0167 -1.3809
  230MOL0     H31735  10.126   1.884   3.176 -1.5170 -0.6332 -1.2699
  230MOL0     H31736   9.949   2.146   2.912  0.0206  1.2130  1.5162
  230MOL0     H31737  10.434   1.346   3.366 -2.2358  1.1800  1.1045
  230MOL0     H31738  10.365   1.022   3.502 -0.8723  1.4566  3.4312
  230MOL0     H31739  10.522   1.086   3.444 -1.2149 -2.3041 -0.8259
  230MOL0     H31740  10.389   1.196   3.523 -1.2980  1.3095 -1.6242
  231MOL0     O31741   0.971   1.066   4.851  0.1377  0.6136  1.3462
  231MOL0     C31742   0.859   1.055   4.897  1.2492  0.3816 -0.5231
  231MOL0     O31743   0.737   1.078   4.825  0.1345 -0.2788 -0.2975
  231MOL0     C31744   0.733   1.144   4.705 -0.6214  0.6913 -0.1774
  231MOL0     C31745   0.624   1.232   4.691 -0.5925  0.0346  0.8559
  231MOL0     C31746   0.596   1.315   4.582 -0.8232  0.1687  0.9932
  231MOL0     C31747   0.689   1.294   4.474  1.0141 -0.4619 -0.1314
  231MOL0     O31748   0.682   1.357   4.354  0.7466  0.4354 -0.4922
  231MOL0     C31749   0.617   1.486   4.345  0.3265  0.0725 -0.6127
  231MOL0     C31750   0.624   1.541   4.204 -0.1245  0.3386  0.0147
  231MOL0     C31751   0.528   1.465   4.113 -0.4245 -0.9330 -0.0041
  231MOL0     C31752   0.540   1.500   3.971  0.1492  0.0229  0.3367
  231MOL0     C31753   0.452   1.398   3.901 -0.7540 -0.1232  1.0302
  231MOL0     C31754   0.467   1.424   3.753 -1.0251  1.0882  0.3196
  231MOL0     C31755   0.366   1.343   3.657  0.0288  0.3634  0.6664
  231MOL0     C31756   0.231   1.414   3.658  0.8836  0.3469 -0.4715
  231MOL0     N31757   0.138   1.352   3.568  0.9460  0.1748 -0.3698
  231MOL0     C31758   0.128   1.324   3.432  0.1847  0.4154 -0.5760
  231MOL0     C31759   0.007   1.267   3.417  0.0764 -0.6098  0.5462
  231MOL0     C31760  -0.043   1.200   3.291  0.0737 -0.8759 -0.5201
  231MOL0     C31761   0.058   1.116   3.213 -0.2654  0.3503  0.4046
  231MOL0     C31762   0.001   1.063   3.081  0.1079 -0.3050  0.3220
  231MOL0     C31763   0.093   1.070   2.972  0.0139 -0.5712  0.6431
  231MOL0     O31764   0.203   0.987   3.008  0.5350 -0.0055 -0.3278
  231MOL0     C31765   0.303   0.966   2.917  0.1476 -0.7018  0.5767
  231MOL0     C31766   0.402   0.872   2.947  0.9493 -0.5908 -0.1515
  231MOL0     C31767   0.511   0.841   2.866  0.2537 -0.9022 -0.1277
  231MOL0     C31768   0.623   0.759   2.935 -0.2063 -1.1459  0.3525
  231MOL0     C31769   0.509   0.904   2.739 -0.1779 -0.8044 -0.8993
  231MOL0     C31770   0.628   0.882   2.645 -1.1904 -0.6520 -0.8951
  231MOL0     O31771   0.646   0.978   2.555 -0.4190 -0.1433 -0.0567
  231MOL0     C31772   0.748   0.967   2.473 -1.4907  0.9519 -0.7107
  231MOL0     C31773   0.854   1.054   2.482 -0.0613  0.6259 -0.4539
  231MOL0     C31774   0.965   1.040   2.396  0.2719  0.1629 -0.7888
  231MOL0     C31775   0.974   0.945   2.303  0.5208 -0.0851  0.1727
  231MOL0     O31776   1.086   0.932   2.234  0.2864 -0.6201  0.5631
  231MOL0     C31777   1.070   0.894   2.094 -1.2367  0.2281  0.1608
  231MOL0     C31778   1.107   1.018   2.016  0.6316 -0.7013  0.2518
  231MOL0     C31779   1.003   1.146   2.020 -0.1546  0.3562 -0.2275
  231MOL0     C31780   1.058   1.266   1.928 -0.3387  0.5021  0.0552
  231MOL0     C31781   0.968   1.390   1.933 -0.1302  1.4728 -0.1662
  231MOL0     C31782   1.006   1.473   1.817  0.2236  0.4028 -0.1389
  231MOL0     C31783   0.939   1.617   1.808  0.0201 -0.4661 -0.4902
  231MOL0     C31784   0.791   1.619   1.782 -0.3397 -0.5693  0.2628
  231MOL0    Cl31785   0.737   1.786   1.782  0.0997  0.4627 -0.0964
  231MOL0     C31786   0.868   0.849   2.297 -1.0655  0.3470  0.7108
  231MOL0     C31787   0.754   0.856   2.383  0.4542 -1.2109  0.1825
  231MOL0     O31788   0.702   0.791   2.667 -1.2034  0.4485  0.5698
  231MOL0     C31789   0.417   0.994   2.700  1.1103 -0.0899  0.1240
  231MOL0     C31790   0.312   1.021   2.794  0.4195  0.8265  0.2361
  231MOL0     N31791  -0.060   1.266   3.533 -0.0120  0.5566 -0.1461
  231MOL0     N31792   0.020   1.314   3.619 -0.5810  0.0709  0.6333
  231MOL0     C31793   0.803   1.211   4.489  0.2137  0.4168  0.7507
  231MOL0     C31794   0.825   1.126   4.596 -0.0357 -1.0120  0.3976
  231MOL0     C31795   0.833   0.978   5.033 -0.6821 -0.5648 -0.2666
  231MOL0     C31796   0.695   0.947   5.060 -0.1499 -0.1591  0.3693
  231MOL0     C31797   0.655   0.891   5.174 -1.5086  1.0198 -0.9990
  231MOL0     C31798   0.756   0.857   5.266  0.2882  0.5168 -0.0477
  231MOL0     O31799   0.712   0.821   5.389 -0.7598  0.9628 -0.8665
  231MOL0     C31800   0.678   0.923   5.486  0.4719 -0.5107 -0.1990
  231MOL0     C31801   0.535   0.921   5.535 -0.2410  0.1297 -0.2886
  231MOL0     C31802   0.506   0.808   5.633 -0.2041 -0.7478 -0.8992
  231MOL0     C31803   0.584   0.828   5.768  0.3339 -0.4222  0.4361
  231MOL0     C31804   0.581   0.953   5.849 -0.5831 -0.0413  1.1010
  231MOL0     C31805   0.568   1.063   5.887 -0.1136 -0.1272 -0.3849
  231MOL0     C31806   0.889   0.884   5.247 -0.1155 -0.4870  0.9500
  231MOL0     C31807   0.935   0.946   5.128 -0.5305  1.1534  0.6302
  231MOL0     C31808   1.080   0.963   5.096  0.5906 -0.0816 -0.3493
  231MOL0     H31809   0.552   1.229   4.772 -3.5195 -1.6771 -1.6207
  231MOL0     H31810   0.517   1.390   4.585 -2.9587 -1.7733 -1.6917
  231MOL0     H31811   0.670   1.557   4.409  0.4455  0.0368 -0.6707
  231MOL0     H31812   0.511   1.477   4.371 -0.3574  0.7243 -2.8598
  231MOL0     H31813   0.591   1.646   4.205  1.0261  0.7151 -0.1071
  231MOL0     H31814   0.730   1.542   4.176  0.5434 -1.1482  2.1834
  231MOL0     H31815   0.554   1.362   4.139 -1.0050 -0.7875  1.2227
  231MOL0     H31816   0.424   1.477   4.144  0.1116 -3.1268  3.0656
  231MOL0     H31817   0.504   1.603   3.957 -1.3512 -0.5330 -0.0879
  231MOL0     H31818   0.642   1.491   3.932 -0.8940 -1.2228 -2.3512
  231MOL0     H31819   0.345   1.404   3.924 -1.0627  0.9216 -0.5195
  231MOL0     H31820   0.487   1.295   3.916  0.7948 -0.0106 -1.3129
  231MOL0     H31821   0.448   1.532   3.749  3.0690  1.9448  0.2025
  231MOL0     H31822   0.571   1.414   3.722 -2.2491 -2.3729 -3.6234
  231MOL0     H31823   0.355   1.238   3.685 -4.3574  0.4116 -0.1126
  231MOL0     H31824   0.392   1.350   3.551 -0.7828 -2.4530  0.2032
  231MOL0     H31825   0.202   1.428   3.763  3.8387  0.8242  0.3601
  231MOL0     H31826   0.250   1.514   3.618  0.1068  0.7289  0.0833
  231MOL0     H31827   0.209   1.352   3.366  1.3203  1.9902  1.3572
  231MOL0     H31828  -0.095   1.270   3.225  0.0317  0.6593  1.0520
  231MOL0     H31829  -0.123   1.132   3.322  1.7995 -2.1097  1.4687
  231MOL0     H31830   0.149   1.169   3.185  0.2654 -1.7824 -2.4582
  231MOL0     H31831   0.090   1.029   3.273 -0.8152 -1.2320 -1.4861
  231MOL0     H31832  -0.028   0.958   3.097 -2.3107  0.1252 -0.7378
  231MOL0     H31833  -0.087   1.118   3.047  1.5066  0.0130 -3.2805
  231MOL0     H31834   0.034   1.025   2.891 -1.7425  1.0053  0.9766
  231MOL0     H31835   0.117   1.175   2.952 -4.2349  0.6112  0.7853
  231MOL0     H31836   0.387   0.797   3.023 -3.6025 -2.1419 -2.2077
  231MOL0     H31837   0.720   0.788   2.895 -0.3264 -0.4024  0.5831
  231MOL0     H31838   0.602   0.652   2.935  3.7826 -2.0730  0.4736
  231MOL0     H31839   0.625   0.797   3.038 -0.0445  1.5801 -0.5686
  231MOL0     H31840   0.851   1.139   2.549 -2.3970 -0.8965  1.5278
  231MOL0     H31841   1.046   1.111   2.406  0.4336 -0.0155 -0.8404
  231MOL0     H31842   1.129   0.802   2.089  1.0969  1.6269  0.2836
  231MOL0     H31843   0.968   0.861   2.077 -0.3340 -2.6790 -0.1633
  231MOL0     H31844   1.205   1.043   2.060 -0.4693  1.3811  1.6751
  231MOL0     H31845   1.127   0.989   1.913  0.8797 -3.0400  0.9089
  231MOL0     H31846   0.973   1.178   2.120 -0.1392 -0.4107  0.0296
  231MOL0     H31847   0.915   1.105   1.970  1.1964 -0.7288 -1.8589
  231MOL0     H31848   1.053   1.229   1.825 -1.2728 -1.6779  0.8131
  231MOL0     H31849   1.158   1.297   1.961 -0.7145  0.8197  0.9281
  231MOL0     H31850   0.863   1.367   1.915 -0.0562  0.5282  0.5166
  231MOL0     H31851   0.971   1.429   2.036  1.3619  6.6612 -1.8737
  231MOL0     H31852   1.000   1.418   1.722  3.1798  3.4505 -2.3021
  231MOL0     H31853   1.115   1.472   1.820  0.2594 -1.9057 -0.0920
  231MOL0     H31854   0.990   1.676   1.731 -0.0929  2.0956  1.2798
  231MOL0     H31855   0.958   1.668   1.903 -0.1875 -2.2026  0.5288
  231MOL0     H31856   0.729   1.570   1.858 -1.2153 -1.2735 -0.8625
  231MOL0     H31857   0.770   1.584   1.681 -0.8534  0.3851  0.0298
  231MOL0     H31858   0.871   0.763   2.231 -3.3018  1.6800 -1.2748
  231MOL0     H31859   0.684   0.773   2.381 -1.1973  0.1359 -0.1730
  231MOL0     H31860   0.421   1.049   2.607 -1.0344 -0.9685 -0.5469
  231MOL0     H31861   0.228   1.079   2.758 -0.7180 -0.5919  0.4940
  231MOL0     H31862   0.873   1.201   4.407  2.1842  1.9360  2.1538
  231MOL0     H31863   0.915   1.067   4.604  0.3939 -0.4199  0.0382
  231MOL0     H31864   0.613   0.975   4.995 -2.1035 -1.5460  2.0961
  231MOL0     H31865   0.550   0.879   5.196 -1.4137  0.6027 -0.7680
  231MOL0     H31866   0.750   0.913   5.568  1.1204  1.8214 -0.3994
  231MOL0     H31867   0.703   1.023   5.449  0.1221  0.4134  1.9363
  231MOL0     H31868   0.469   0.909   5.448 -0.5421 -1.1419  0.0892
  231MOL0     H31869   0.514   1.017   5.582 -0.3342  2.1026 -4.0137
  231MOL0     H31870   0.398   0.824   5.643 -0.2871 -1.7663  0.0099
  231MOL0     H31871   0.519   0.710   5.586 -0.1545  0.8714 -4.5969
  231MOL0     H31872   0.689   0.821   5.740  0.3640  1.7023 -0.1346
  231MOL0     H31873   0.563   0.750   5.842  2.1354  2.7286  4.6723
  231MOL0     H31874   0.545   1.162   5.920 -4.9241 -0.7497 -1.1166
  231MOL0     H31875   0.965   0.874   5.325  0.8280 -0.6273  0.0410
  231MOL0     H31876   1.112   0.888   5.023  0.0377 -2.7418  1.9437
  231MOL0     H31877   1.101   1.064   5.061  0.5587  0.0447 -0.0079
  231MOL0     H31878   1.151   0.931   5.172  3.8682  2.4539 -2.0726
  232MOL0     O31879   8.908   7.570   8.745  0.4855 -0.4682  0.2840
  232MOL0     C31880   8.975   7.670   8.729 -0.9385  0.4373 -0.4832
  232MOL0     O31881   8.932   7.787   8.686  0.2125  0.3598 -0.4777
  232MOL0     C31882   8.793   7.782   8.661 -0.0044  0.5947  0.1489
  232MOL0     C31883   8.715   7.829   8.762 -0.2609  0.1161  0.4291
  232MOL0     C31884   8.578   7.829   8.756  0.7043  1.3398 -0.2932
  232MOL0     C31885   8.508   7.783   8.647 -0.7246 -0.3341  0.3503
  232MOL0     O31886   8.382   7.800   8.624  0.0802 -0.5552 -0.1435
  232MOL0     C31887   8.291   7.845   8.715 -0.4087 -0.0116  0.1528
  232MOL0     C31888   8.156   7.833   8.642 -0.4827  0.0717  0.5399
  232MOL0     C31889   8.167   7.882   8.492 -0.3251 -0.5445 -0.5231
  232MOL0     C31890   8.043   7.951   8.451  1.0008  0.2960 -1.0809
  232MOL0     C31891   8.048   8.000   8.309 -0.1040 -0.3563 -0.4880
  232MOL0     C31892   7.904   8.054   8.280 -0.2752 -0.4047  0.1295
  232MOL0     C31893   7.887   8.090   8.131 -0.5656 -0.1928  0.0012
  232MOL0     C31894   7.750   8.162   8.114  0.6437 -0.0692 -0.0697
  232MOL0     N31895   7.632   8.075   8.144  0.1886  0.1361  0.6928
  232MOL0     C31896   7.629   7.937   8.121  0.4701  0.4913 -0.1997
  232MOL0     C31897   7.527   7.898   8.182  0.1123  0.8240 -0.0829
  232MOL0     C31898   7.485   7.750   8.204 -0.6677  1.0247  0.3281
  232MOL0     C31899   7.488   7.645   8.086 -0.2166  0.0937 -0.2887
  232MOL0     C31900   7.387   7.535   8.117  0.0784 -1.4525  0.1360
  232MOL0     C31901   7.401   7.401   8.051  0.3511 -0.3407  0.6529
  232MOL0     O31902   7.278   7.354   7.971 -0.9203  0.1357  0.5381
  232MOL0     C31903   7.248   7.429   7.864  0.1500  0.4962  0.5596
  232MOL0     C31904   7.117   7.459   7.847  0.1464  0.1968 -0.3062
  232MOL0     C31905   7.069   7.543   7.748 -0.5231 -0.3481  0.1033
  232MOL0     C31906   6.925   7.580   7.757 -0.3039  0.5512  0.1160
  232MOL0     C31907   7.167   7.584   7.649  0.0232  0.2053 -0.0063
  232MOL0     C31908   7.144   7.675   7.540  0.4940 -0.3004 -0.0930
  232MOL0     O31909   7.214   7.649   7.421  0.0709  0.8740 -0.1731
  232MOL0     C31910   7.192   7.728   7.311 -0.3443 -0.3913 -0.1928
  232MOL0     C31911   7.235   7.860   7.324  0.2004  1.1039 -0.3907
  232MOL0     C31912   7.236   7.945   7.222  0.2732 -0.9350  0.2400
  232MOL0     C31913   7.186   7.906   7.092 -0.6210  0.6304  0.2042
  232MOL0     O31914   7.208   7.972   6.969 -0.3661 -0.3959  0.2064
  232MOL0     C31915   7.273   8.105   6.970 -1.3751  0.1209  0.6240
  232MOL0     C31916   7.425   8.104   6.946 -0.7174  0.6359 -0.0556
  232MOL0     C31917   7.462   8.038   6.813  0.2652  0.4438 -0.5217
  232MOL0     C31918   7.620   7.993   6.825  0.1253  0.2027  0.2285
  232MOL0     C31919   7.632   7.849   6.856 -1.5253 -0.0625  0.1191
  232MOL0     C31920   7.784   7.812   6.862 -0.0702 -0.7422  0.5791
  232MOL0     C31921   7.805   7.662   6.878 -0.1540 -1.0906  0.6966
  232MOL0     C31922   7.931   7.628   6.951  1.0422 -0.4509  0.5751
  232MOL0    Cl31923   8.074   7.689   6.863  0.0577 -0.2905  0.2185
  232MOL0     C31924   7.145   7.772   7.081  0.3710  0.5356 -0.4427
  232MOL0     C31925   7.150   7.681   7.191 -1.0090  0.2166  0.2323
  232MOL0     O31926   7.069   7.774   7.547 -1.1171  0.0262 -0.0913
  232MOL0     C31927   7.297   7.530   7.658 -0.3204 -1.4061  0.0822
  232MOL0     C31928   7.350   7.466   7.765  0.1444 -0.1790  0.4520
  232MOL0     N31929   7.464   7.999   8.254 -0.3788 -0.0937  0.3541
  232MOL0     N31930   7.523   8.116   8.222  0.5375  0.7313 -0.0979
  232MOL0     C31931   8.588   7.727   8.543 -0.0072  1.1505 -0.4500
  232MOL0     C31932   8.733   7.729   8.545  0.3254  0.6233 -0.0976
  232MOL0     C31933   9.125   7.640   8.723  0.3613  0.1689 -0.0746
  232MOL0     C31934   9.170   7.508   8.764  0.5956 -0.3677  0.6686
  232MOL0     C31935   9.312   7.471   8.756 -0.4951 -0.7181  1.2938
  232MOL0     C31936   9.400   7.580   8.716  0.1492  0.6203 -0.3762
  232MOL0     O31937   9.535   7.549   8.710  0.1699  0.9602 -0.3481
  232MOL0     C31938   9.602   7.595   8.595 -0.5056 -0.6596  0.5816
  232MOL0     C31939   9.684   7.484   8.533 -0.2400  0.1418 -0.4706
  232MOL0     C31940   9.761   7.520   8.402 -0.9350  0.2667  0.9770
  232MOL0     C31941   9.680   7.587   8.295  1.1462  0.6345 -0.2597
  232MOL0     C31942   9.748   7.593   8.166  0.1436  0.4929 -0.4373
  232MOL0     C31943   9.788   7.605   8.056 -0.9257  0.1201  0.3843
  232MOL0     C31944   9.353   7.707   8.695 -1.1369  0.5896  0.2024
  232MOL0     C31945   9.213   7.740   8.695 -0.0559 -0.5822 -0.5462
  232MOL0     C31946   9.184   7.885   8.657  0.1164  1.0679 -0.6331
  232MOL0     H31947   8.772   7.861   8.848  3.3713  1.0167 -2.1202
  232MOL0     H31948   8.517   7.857   8.841  0.6105 -3.3703  1.5133
  232MOL0     H31949   8.321   7.946   8.745 -3.1942  1.1022 -0.4229
  232MOL0     H31950   8.270   7.770   8.792 -2.3527 -2.7328 -2.7586
  232MOL0     H31951   8.132   7.727   8.628 -2.6719  0.6994 -0.8888
  232MOL0     H31952   8.083   7.882   8.707 -0.4302 -0.2422  0.8360
  232MOL0     H31953   8.248   7.955   8.485  0.9945 -2.1061 -2.2512
  232MOL0     H31954   8.196   7.793   8.436  2.2572  0.1146 -0.3306
  232MOL0     H31955   7.963   7.878   8.460 -0.8260  2.0546 -2.1907
  232MOL0     H31956   8.015   8.036   8.514  2.4913  0.6998 -0.9061
  232MOL0     H31957   8.068   7.911   8.248 -2.7623  0.5578 -2.8919
  232MOL0     H31958   8.126   8.075   8.293 -0.2853  0.1594  0.9370
  232MOL0     H31959   7.828   7.976   8.295 -4.7045  3.3935 -0.2573
  232MOL0     H31960   7.876   8.141   8.340  1.9452  1.8906 -1.9262
  232MOL0     H31961   7.888   7.996   8.074 -1.4737 -0.2211  0.0188
  232MOL0     H31962   7.964   8.161   8.101 -0.5999 -0.9544 -2.0733
  232MOL0     H31963   7.740   8.241   8.188  0.7671 -0.1182 -0.0002
  232MOL0     H31964   7.756   8.194   8.009  1.9002 -1.1512 -0.3682
  232MOL0     H31965   7.697   7.879   8.059  1.0058 -0.5048  1.2758
  232MOL0     H31966   7.383   7.757   8.243 -0.6797  2.4419  0.1077
  232MOL0     H31967   7.537   7.704   8.288 -4.5860 -2.8527  0.9716
  232MOL0     H31968   7.461   7.696   7.994 -1.6575 -2.6290 -1.4873
  232MOL0     H31969   7.589   7.604   8.074 -0.0828  0.1922  0.4317
  232MOL0     H31970   7.397   7.524   8.226  1.7165  0.0902  0.1714
  232MOL0     H31971   7.288   7.580   8.106 -0.0744 -1.4323  1.3661
  232MOL0     H31972   7.493   7.411   7.993 -0.0291  0.3838  0.1567
  232MOL0     H31973   7.424   7.331   8.131 -0.5447  0.6438  1.8068
  232MOL0     H31974   7.051   7.413   7.920 -0.3073 -2.2065 -2.0847
  232MOL0     H31975   6.908   7.671   7.815 -1.1831  2.5709 -3.0749
  232MOL0     H31976   6.869   7.498   7.803  1.8768 -1.7051 -1.0017
  232MOL0     H31977   6.887   7.595   7.656  2.1742 -0.4503 -1.0496
  232MOL0     H31978   7.270   7.891   7.422 -0.3984  0.6785 -0.0396
  232MOL0     H31979   7.286   8.040   7.240  0.3541 -0.7564 -0.8819
  232MOL0     H31980   7.226   8.172   6.897 -3.4940  0.6911  2.4070
  232MOL0     H31981   7.246   8.157   7.063  0.4359 -0.7702  1.6994
  232MOL0     H31982   7.473   8.202   6.952  0.1896  0.2493 -0.6562
  232MOL0     H31983   7.465   8.038   7.024 -0.7448  0.7992  0.0974
  232MOL0     H31984   7.448   8.111   6.732 -0.1847  3.0207  1.7546
  232MOL0     H31985   7.395   7.953   6.793  0.1331  0.0343  1.4502
  232MOL0     H31986   7.668   8.044   6.909  0.6363  0.4729 -0.2153
  232MOL0     H31987   7.674   8.016   6.732 -0.6474 -0.0399 -0.2887
  232MOL0     H31988   7.578   7.811   6.944  1.0928  1.8643  2.7721
  232MOL0     H31989   7.594   7.793   6.770  1.6837  0.6407 -1.9327
  232MOL0     H31990   7.832   7.868   6.943  0.0094  2.8659 -1.7630
  232MOL0     H31991   7.840   7.852   6.777  1.5716  0.2332  2.0304
  232MOL0     H31992   7.807   7.617   6.778  0.0019 -0.5385  0.4527
  232MOL0     H31993   7.729   7.603   6.932 -2.2499 -1.0247 -1.9690
  232MOL0     H31994   7.935   7.519   6.955  2.3548 -0.4791 -0.5157
  232MOL0     H31995   7.938   7.677   7.049  1.5307 -0.6699  0.6544
  232MOL0     H31996   7.129   7.722   6.986 -0.4380  0.4069 -0.2432
  232MOL0     H31997   7.097   7.589   7.172 -1.5481  0.1807  1.7605
  232MOL0     H31998   7.366   7.550   7.577  0.2330 -1.0552  0.6267
  232MOL0     H31999   7.451   7.428   7.779 -0.2167 -0.7806  1.5502
  232MOL0     H32000   8.525   7.701   8.458 -1.4503  0.9689  0.6290
  232MOL0     H32001   8.791   7.690   8.463 -0.8531  0.1121 -0.7078
  232MOL0     H32002   9.100   7.430   8.791  0.5086 -0.2224  0.8596
  232MOL0     H32003   9.335   7.366   8.769 -2.3528 -1.8438 -2.9022
  232MOL0     H32004   9.538   7.629   8.513  1.0075  3.6495  0.9294
  232MOL0     H32005   9.669   7.676   8.624 -1.4176 -0.3697  1.9754
  232MOL0     H32006   9.613   7.401   8.524  0.0319 -0.3467  1.4323
  232MOL0     H32007   9.749   7.444   8.612 -2.6868 -0.2587  1.4605
  232MOL0     H32008   9.844   7.588   8.424  2.0378 -2.5885 -0.4626
  232MOL0     H32009   9.805   7.429   8.358 -0.3233  1.3937 -0.8543
  232MOL0     H32010   9.640   7.683   8.331  1.6740  0.6021  0.4329
  232MOL0     H32011   9.583   7.537   8.286  1.1082  0.5408  0.5510
  232MOL0     H32012   9.827   7.609   7.956 -0.8840 -2.4663  0.2475
  232MOL0     H32013   9.426   7.785   8.674  0.8207 -1.4122 -0.9227
  232MOL0     H32014   9.140   7.935   8.744  1.2599 -0.8689  1.1724
  232MOL0     H32015   9.279   7.933   8.632 -0.4522  2.9079  0.5105
  232MOL0     H32016   9.123   7.881   8.567 -2.6253  1.7883  1.0520
  233MOL0     O32017   9.264   0.237   4.324 -0.3517  0.0250  0.2154
  233MOL0     C32018   9.239   0.340   4.269 -0.0211  0.0032 -0.2910
  233MOL0     O32019   9.110   0.380   4.242  0.3604 -0.3669 -0.2650
  233MOL0     C32020   9.011   0.300   4.282  0.3461  0.6163  0.9032
  233MOL0     C32021   8.923   0.333   4.390 -0.4693 -0.2823 -0.0448
  233MOL0     C32022   8.819   0.240   4.419  0.2512  0.3184 -0.1738
  233MOL0     C32023   8.805   0.124   4.337 -0.3893 -0.0268 -0.5175
  233MOL0     O32024   8.699   0.040   4.333  0.4335 -0.4898 -0.1623
  233MOL0     C32025   8.630   0.006   4.454 -0.6663 -0.1904  0.0141
  233MOL0     C32026   8.514  -0.077   4.410  0.3765 -0.7399 -0.6155
  233MOL0     C32027   8.381   0.005   4.376 -0.3748  0.1072 -0.1656
  233MOL0     C32028   8.283  -0.107   4.359 -0.6255  0.4291  0.8785
  233MOL0     C32029   8.149  -0.043   4.316 -0.2598 -0.0304  0.5867
  233MOL0     C32030   8.022  -0.132   4.326  0.1781  0.1817 -0.1782
  233MOL0     C32031   8.017  -0.229   4.211  0.1145  0.2749  0.8500
  233MOL0     C32032   7.880  -0.309   4.199 -0.3054  0.3335  0.6812
  233MOL0     N32033   7.877  -0.415   4.304  0.7084  0.4571 -0.3606
  233MOL0     C32034   7.836  -0.548   4.287  0.6703  0.5192 -1.1638
  233MOL0     C32035   7.805  -0.588   4.413 -0.0580  0.7469  0.3212
  233MOL0     C32036   7.756  -0.727   4.459 -0.5929  0.4247  0.9410
  233MOL0     C32037   7.733  -0.823   4.343  0.1195  0.3659  1.3681
  233MOL0     C32038   7.690  -0.968   4.382  0.3596 -1.7910  0.7486
  233MOL0     C32039   7.645  -1.049   4.266  0.9264 -0.8461  0.0123
  233MOL0     O32040   7.546  -0.987   4.183  0.2513 -0.6816 -0.3388
  233MOL0     C32041   7.477  -1.074   4.101 -0.4586 -0.6626 -0.3857
  233MOL0     C32042   7.501  -1.069   3.968  0.4202  0.2778 -0.2750
  233MOL0     C32043   7.460  -1.160   3.872  0.7301 -0.5758 -0.9245
  233MOL0     C32044   7.507  -1.144   3.737  1.0227 -0.5198 -0.7614
  233MOL0     C32045   7.353  -1.245   3.921 -0.0722  0.4588 -0.5091
  233MOL0     C32046   7.266  -1.344   3.841 -0.1244 -0.7084  0.2044
  233MOL0     O32047   7.176  -1.422   3.915 -0.6083 -0.2065 -0.4135
  233MOL0     C32048   7.115  -1.534   3.847  0.6014 -0.2253  0.1197
  233MOL0     C32049   7.191  -1.622   3.763  0.4096  0.2798 -0.1273
  233MOL0     C32050   7.127  -1.709   3.687 -0.5835 -0.0714  0.4354
  233MOL0     C32051   6.989  -1.729   3.683 -0.1325  0.0322 -0.3624
  233MOL0     O32052   6.934  -1.819   3.593  0.1980 -0.2296 -0.1257
  233MOL0     C32053   6.792  -1.816   3.566  0.1521  0.1401  0.8575
  233MOL0     C32054   6.754  -1.897   3.444  0.7839 -0.6327 -0.3794
  233MOL0     C32055   6.775  -2.045   3.485  0.0463 -0.0268 -0.2273
  233MOL0     C32056   6.921  -2.101   3.504  0.2335 -0.2738 -0.0877
  233MOL0     C32057   6.942  -2.231   3.434  0.0768 -0.6184 -0.1533
  233MOL0     C32058   7.083  -2.272   3.428 -0.7410 -0.3660  0.1874
  233MOL0     C32059   7.096  -2.421   3.387  0.7028 -0.9102 -0.1480
  233MOL0     C32060   7.075  -2.514   3.496 -0.6090 -0.2781  0.4047
  233MOL0    Cl32061   7.155  -2.667   3.478  0.5277 -0.1968 -0.1817
  233MOL0     C32062   6.921  -1.657   3.783 -0.1431 -0.0577  0.3725
  233MOL0     C32063   6.979  -1.561   3.866  0.4007 -0.0635  0.4785
  233MOL0     O32064   7.287  -1.366   3.717 -0.6866 -0.6392  0.4497
  233MOL0     C32065   7.333  -1.250   4.065 -0.5024  0.5359  0.4828
  233MOL0     C32066   7.401  -1.173   4.149  0.2378 -1.1594 -0.6743
  233MOL0     N32067   7.837  -0.479   4.500  0.1936 -0.0612  0.1628
  233MOL0     N32068   7.873  -0.376   4.430  0.3274 -0.3731 -0.4397
  233MOL0     C32069   8.900   0.098   4.236  0.0505  0.1205 -0.2811
  233MOL0     C32070   9.003   0.183   4.206  0.7940  0.0132  0.7120
  233MOL0     C32071   9.346   0.424   4.228 -0.0393 -0.2691 -1.1701
  233MOL0     C32072   9.309   0.535   4.153 -0.1404  0.3622 -0.0941
  233MOL0     C32073   9.408   0.613   4.088 -0.3657  0.1245 -0.2576
  233MOL0     C32074   9.539   0.610   4.130 -0.1901 -0.6026 -0.1474
  233MOL0     O32075   9.630   0.713   4.108 -0.4494 -0.4148 -0.2286
  233MOL0     C32076   9.635   0.751   3.968  0.2961  0.5133  0.0263
  233MOL0     C32077   9.776   0.821   3.964 -0.0414  0.4955 -0.5619
  233MOL0     C32078   9.812   0.918   4.077  0.0552 -0.5065  0.6163
  233MOL0     C32079   9.932   1.008   4.046 -0.1797  0.0364 -0.6385
  233MOL0     C32080   9.958   1.104   4.151  0.9742 -0.6242  1.6054
  233MOL0     C32081   9.977   1.203   4.219  0.7306  0.0564 -0.2973
  233MOL0     C32082   9.571   0.505   4.205 -1.0316  0.5933 -0.0827
  233MOL0     C32083   9.482   0.401   4.250  1.1110 -0.7917 -0.3020
  233MOL0     C32084   9.538   0.280   4.325 -0.5878  0.7423  0.1956
  233MOL0     H32085   8.936   0.418   4.456 -1.3147 -1.8667  2.3206
  233MOL0     H32086   8.747   0.258   4.498 -0.4504  0.1009 -0.7570
  233MOL0     H32087   8.594   0.079   4.528 -2.2666 -0.6777 -0.2418
  233MOL0     H32088   8.698  -0.056   4.513  1.9830  1.7329 -0.8469
  233MOL0     H32089   8.536  -0.139   4.323  1.3128  2.3358 -2.7404
  233MOL0     H32090   8.493  -0.136   4.500  2.6069  2.1479  1.9970
  233MOL0     H32091   8.356   0.071   4.460 -2.1345 -0.6787 -0.0364
  233MOL0     H32092   8.392   0.057   4.281  2.1294 -0.9998 -0.5596
  233MOL0     H32093   8.322  -0.177   4.285 -0.2351  1.6102 -0.0680
  233MOL0     H32094   8.287  -0.171   4.448 -2.0064  0.3171  0.8915
  233MOL0     H32095   8.151   0.010   4.220  0.1931  0.1623  0.6970
  233MOL0     H32096   8.125   0.038   4.386  1.8911 -0.1585  1.5788
  233MOL0     H32097   8.027  -0.182   4.423 -0.0341  1.1371  0.3297
  233MOL0     H32098   7.947  -0.052   4.323  1.7939  2.1968  4.3706
  233MOL0     H32099   8.095  -0.303   4.231 -2.2998 -2.1323  1.7864
  233MOL0     H32100   8.038  -0.162   4.127 -1.5681  0.2633  0.3851
  233MOL0     H32101   7.798  -0.237   4.201 -1.0399 -0.4916  2.1997
  233MOL0     H32102   7.868  -0.357   4.101  3.7968  0.4765 -0.0824
  233MOL0     H32103   7.824  -0.606   4.196 -2.0587 -1.5979  0.4067
  233MOL0     H32104   7.658  -0.714   4.507 -0.3186  1.1835  1.3215
  233MOL0     H32105   7.836  -0.756   4.527 -0.3150 -1.0502  0.0058
  233MOL0     H32106   7.663  -0.765   4.283 -0.3100 -0.7821  0.7294
  233MOL0     H32107   7.828  -0.829   4.288  0.7666  1.1954  2.3424
  233MOL0     H32108   7.764  -1.026   4.439  0.7003 -0.8802  1.2607
  233MOL0     H32109   7.600  -0.945   4.440 -1.8098  0.5773 -3.1584
  233MOL0     H32110   7.722  -1.079   4.194  0.2113 -2.5029 -0.1006
  233MOL0     H32111   7.607  -1.140   4.313  1.4108 -1.0556  0.0104
  233MOL0     H32112   7.568  -0.994   3.927 -0.7882 -0.7229 -4.5276
  233MOL0     H32113   7.423  -1.161   3.669 -0.7937 -0.0048  1.2520
  233MOL0     H32114   7.587  -1.212   3.706  2.5485  2.2106 -3.3311
  233MOL0     H32115   7.558  -1.049   3.722  1.6884 -0.7368  0.0383
  233MOL0     H32116   7.298  -1.615   3.748  0.3517  0.9602 -0.2764
  233MOL0     H32117   7.194  -1.765   3.622 -1.5771 -1.6523  0.7125
  233MOL0     H32118   6.737  -1.855   3.652  0.5256 -1.4882  0.3947
  233MOL0     H32119   6.764  -1.712   3.547 -1.9843 -0.4099  0.7145
  233MOL0     H32120   6.654  -1.891   3.402 -0.7611 -1.7738  2.8259
  233MOL0     H32121   6.828  -1.876   3.366  2.1360 -1.4724  0.6102
  233MOL0     H32122   6.726  -2.113   3.415  1.5055 -1.8409  0.4306
  233MOL0     H32123   6.727  -2.069   3.581  1.6467  0.6501  0.8001
  233MOL0     H32124   6.945  -2.106   3.610  2.7563  0.6279 -0.5277
  233MOL0     H32125   6.983  -2.022   3.460  0.4906  0.3438  1.3560
  233MOL0     H32126   6.885  -2.311   3.482 -0.3658 -1.3615 -1.8507
  233MOL0     H32127   6.892  -2.233   3.337 -3.1533 -2.1962  1.3581
  233MOL0     H32128   7.131  -2.262   3.526 -0.1668  2.9475 -0.2964
  233MOL0     H32129   7.135  -2.202   3.361 -2.7227  0.1301 -0.8978
  233MOL0     H32130   7.201  -2.442   3.362  0.0300 -3.6319 -1.0584
  233MOL0     H32131   7.026  -2.456   3.310 -0.4530 -0.1515  0.5359
  233MOL0     H32132   6.972  -2.536   3.526 -0.7672  1.1942  1.0527
  233MOL0     H32133   7.118  -2.468   3.586 -3.6578  4.1458 -0.0708
  233MOL0     H32134   6.813  -1.667   3.786 -0.2186  0.8147  0.7943
  233MOL0     H32135   6.914  -1.502   3.929  0.1032  2.1436 -1.7229
  233MOL0     H32136   7.251  -1.307   4.106 -0.7957  1.0039  0.5610
  233MOL0     H32137   7.393  -1.165   4.257 -0.6985  2.1432 -0.8665
  233MOL0     H32138   8.883   0.004   4.184  0.3614 -0.6826  1.0248
  233MOL0     H32139   9.074   0.159   4.127 -1.0938  1.3874 -1.5134
  233MOL0     H32140   9.211   0.554   4.111  0.5722  1.0777 -1.5266
  233MOL0     H32141   9.369   0.697   4.031  0.0230  0.2401 -0.3604
  233MOL0     H32142   9.627   0.669   3.895  1.6051 -0.1131  0.5469
  233MOL0     H32143   9.551   0.819   3.952 -0.5343 -0.8551 -1.8308
  233MOL0     H32144   9.787   0.869   3.866 -0.3002  0.2606 -0.7072
  233MOL0     H32145   9.848   0.739   3.961 -1.4246 -0.8050  0.2521
  233MOL0     H32146   9.726   0.982   4.097  1.1976  1.6016 -0.7691
  233MOL0     H32147   9.838   0.854   4.161  1.8452 -0.4297  0.1681
  233MOL0     H32148   9.912   1.052   3.948 -0.9281 -0.2856 -0.6417
  233MOL0     H32149  10.024   0.948   4.050 -0.1336 -0.0053 -1.9664
  233MOL0     H32150  10.005   1.279   4.289 -0.4716  0.0066  0.2609
  233MOL0     H32151   9.677   0.498   4.225 -0.9221  0.4250 -0.7165
  233MOL0     H32152   9.527   0.191   4.261  2.7026  1.7757 -2.1010
  233MOL0     H32153   9.644   0.308   4.336 -0.8669  2.3405 -0.8113
  233MOL0     H32154   9.495   0.264   4.424  5.4735  0.9123  3.3559
  234MOL0     O32155   0.675   2.935   6.979 -0.1497  0.1085  0.6851
  234MOL0     C32156   0.693   3.033   7.052 -0.6432  0.1968 -0.0670
  234MOL0     O32157   0.616   3.151   7.062 -0.5652 -0.4338 -0.6863
  234MOL0     C32158   0.496   3.148   6.997  0.2963  0.0677  0.1142
  234MOL0     C32159   0.500   3.177   6.862  0.4368  0.3177  0.3730
  234MOL0     C32160   0.380   3.200   6.788  0.0190 -0.3755 -0.3144
  234MOL0     C32161   0.258   3.179   6.851  0.9362  0.8464  0.8738
  234MOL0     O32162   0.147   3.211   6.766 -1.0346 -0.5646 -0.2214
  234MOL0     C32163   0.015   3.222   6.828 -0.3869 -0.0708 -0.0143
  234MOL0     C32164  -0.076   3.247   6.705  0.4479 -0.0332 -0.7092
  234MOL0     C32165  -0.080   3.126   6.608 -0.1105 -0.0709 -0.2359
  234MOL0     C32166  -0.170   3.154   6.488  0.1361  0.4097  0.2325
  234MOL0     C32167  -0.177   3.021   6.400 -0.3090 -0.1053 -0.1277
  234MOL0     C32168  -0.292   3.018   6.293  0.0658 -0.5306 -1.0280
  234MOL0     C32169  -0.331   2.875   6.247  0.1783 -0.1883  0.0069
  234MOL0     C32170  -0.452   2.866   6.152 -0.1953 -0.1981  0.1763
  234MOL0     N32171  -0.457   2.744   6.066 -0.2903 -0.8003  0.5037
  234MOL0     C32172  -0.389   2.727   5.955  0.0540  0.0106 -0.2681
  234MOL0     C32173  -0.437   2.606   5.910  0.6281 -0.2947  0.1824
  234MOL0     C32174  -0.405   2.544   5.777 -0.9517 -0.0340  0.2537
  234MOL0     C32175  -0.397   2.636   5.660 -0.0391 -0.3191 -0.6083
  234MOL0     C32176  -0.508   2.743   5.665 -0.1182  0.8287 -0.4143
  234MOL0     C32177  -0.520   2.806   5.523 -0.2876 -0.5916  0.1413
  234MOL0     O32178  -0.392   2.872   5.509 -0.6332  0.7819 -0.1934
  234MOL0     C32179  -0.371   2.962   5.406 -0.0611  0.0600 -0.2053
  234MOL0     C32180  -0.463   2.993   5.308 -0.5671  0.1247 -0.0666
  234MOL0     C32181  -0.435   3.080   5.200  0.5120  0.7262  0.7784
  234MOL0     C32182  -0.534   3.085   5.089  0.2857 -0.4631 -0.8755
  234MOL0     C32183  -0.311   3.152   5.204  1.0144 -0.7038 -0.7067
  234MOL0     C32184  -0.277   3.264   5.118  0.6705  0.2402 -0.4174
  234MOL0     O32185  -0.380   3.311   5.045  0.1967 -0.6105  0.5913
  234MOL0     C32186  -0.359   3.386   4.931  0.2026 -0.7188  0.5891
  234MOL0     C32187  -0.471   3.415   4.859  0.0728 -1.1902 -0.6029
  234MOL0     C32188  -0.470   3.504   4.756 -0.3862 -0.7045  0.4280
  234MOL0     C32189  -0.353   3.564   4.705  0.1135  0.5351 -0.5468
  234MOL0     O32190  -0.364   3.645   4.592  0.6303  0.2761 -0.3081
  234MOL0     C32191  -0.248   3.714   4.544  0.0074 -1.0599  0.1608
  234MOL0     C32192  -0.291   3.825   4.451 -0.3994  0.8216  0.6459
  234MOL0     C32193  -0.395   3.783   4.349  0.0338  0.2035 -0.1866
  234MOL0     C32194  -0.406   3.890   4.239  0.6637 -0.8163  0.3588
  234MOL0     C32195  -0.504   3.841   4.124 -0.2766 -1.1733  0.3369
  234MOL0     C32196  -0.477   3.937   3.996  1.1589  0.4035  0.4042
  234MOL0     C32197  -0.568   4.072   4.021 -0.1594  0.1046  0.5389
  234MOL0     C32198  -0.582   4.153   3.885  0.1274 -0.8580 -0.2075
  234MOL0    Cl32199  -0.427   4.184   3.792 -0.1347 -0.2345 -0.0958
  234MOL0     C32200  -0.236   3.534   4.772 -0.2277 -0.7653 -0.1066
  234MOL0     C32201  -0.238   3.455   4.891  0.1324  0.7603  0.0110
  234MOL0     O32202  -0.156   3.286   5.101  0.2478  0.2765 -0.3664
  234MOL0     C32203  -0.217   3.109   5.299 -0.3111 -0.3114  0.7624
  234MOL0     C32204  -0.242   3.019   5.397 -0.3121  0.3774  0.9185
  234MOL0     N32205  -0.530   2.557   6.000 -0.5710  0.3951  0.5298
  234MOL0     N32206  -0.541   2.643   6.091 -0.2134  0.3421  0.9632
  234MOL0     C32207   0.251   3.150   6.987  0.2061 -0.0402 -0.4785
  234MOL0     C32208   0.367   3.139   7.053 -0.1666  0.1991 -1.3639
  234MOL0     C32209   0.813   3.037   7.137  0.3951  0.2503 -0.4279
  234MOL0     C32210   0.857   3.152   7.210  1.3929 -1.1398  0.7493
  234MOL0     C32211   0.983   3.169   7.265  0.4202  0.1140 -1.3204
  234MOL0     C32212   1.057   3.060   7.284  0.1678 -0.5107 -0.0572
  234MOL0     O32213   1.181   3.061   7.347  2.1544 -0.5871 -0.4895
  234MOL0     C32214   1.223   3.180   7.418  0.8509  1.2119  0.8800
  234MOL0     C32215   1.351   3.141   7.481  0.2805 -0.1470 -0.7018
  234MOL0     C32216   1.320   3.043   7.596  0.2064  0.0614 -0.0430
  234MOL0     C32217   1.442   2.994   7.671 -0.0395  0.0249  0.7927
  234MOL0     C32218   1.405   2.878   7.756 -0.0485  0.2293  0.1611
  234MOL0     C32219   1.373   2.784   7.832 -0.7470 -0.1080 -1.4406
  234MOL0     C32220   1.022   2.940   7.222 -0.3769  0.3235  0.5859
  234MOL0     C32221   0.902   2.930   7.141 -0.5194  0.0209  0.2583
  234MOL0     C32222   0.884   2.794   7.075 -0.3634  0.1053  0.0637
  234MOL0     H32223   0.597   3.192   6.816 -0.4899  1.7343 -1.2541
  234MOL0     H32224   0.377   3.234   6.685  1.2272 -0.1828 -0.3058
  234MOL0     H32225   0.019   3.311   6.892 -0.2724  0.1635 -0.3428
  234MOL0     H32226  -0.017   3.129   6.874 -2.4641  0.5614 -0.0771
  234MOL0     H32227  -0.172   3.250   6.758  1.9037  1.6059  2.0153
  234MOL0     H32228  -0.072   3.350   6.668  0.6215  0.6394  1.1107
  234MOL0     H32229   0.025   3.103   6.584 -0.3005 -0.8565 -0.3439
  234MOL0     H32230  -0.130   3.048   6.666 -1.1963  1.1434  0.5082
  234MOL0     H32231  -0.270   3.164   6.531  0.0150 -0.8202  0.2647
  234MOL0     H32232  -0.151   3.252   6.443 -0.2554  0.3827  0.0046
  234MOL0     H32233  -0.195   2.934   6.464 -0.0777 -2.6201 -3.2447
  234MOL0     H32234  -0.083   2.999   6.349  0.3097  0.3253  0.7856
  234MOL0     H32235  -0.382   3.072   6.324  1.4215  3.0601 -2.7599
  234MOL0     H32236  -0.259   3.083   6.211  0.1389  1.8632  0.7549
  234MOL0     H32237  -0.370   2.822   6.334 -1.7060  2.3280  0.8199
  234MOL0     H32238  -0.238   2.828   6.215  1.8581  0.3699  3.6702
  234MOL0     H32239  -0.541   2.875   6.215 -1.3160  0.7576 -1.4588
  234MOL0     H32240  -0.441   2.960   6.096 -0.1887  1.8652  3.3867
  234MOL0     H32241  -0.320   2.795   5.906 -0.0141  0.3498  0.1030
  234MOL0     H32242  -0.486   2.473   5.759  0.5539 -1.3398 -1.8444
  234MOL0     H32243  -0.305   2.499   5.766  0.1440  2.6481 -1.8329
  234MOL0     H32244  -0.302   2.689   5.653 -0.5446  0.9263  1.1444
  234MOL0     H32245  -0.412   2.578   5.569  0.7401 -1.4661 -0.0175
  234MOL0     H32246  -0.604   2.698   5.689 -0.7478  2.4707  0.2676
  234MOL0     H32247  -0.489   2.831   5.727  2.5071  0.8831 -1.1467
  234MOL0     H32248  -0.532   2.728   5.447  2.0245 -1.3337  0.4825
  234MOL0     H32249  -0.611   2.866   5.514 -0.0474 -0.0359  1.2242
  234MOL0     H32250  -0.555   2.938   5.294  0.6092 -1.3242 -2.7809
  234MOL0     H32251  -0.609   3.165   5.096  0.7221 -0.1277  0.0507
  234MOL0     H32252  -0.582   2.989   5.064 -2.9604  0.9655 -0.6422
  234MOL0     H32253  -0.481   3.104   4.995 -1.0438  1.8692 -1.2176
  234MOL0     H32254  -0.570   3.387   4.893 -1.1093  3.4725  0.4962
  234MOL0     H32255  -0.556   3.526   4.693  1.9825  0.2599 -2.7887
  234MOL0     H32256  -0.182   3.771   4.610  2.6953 -2.8892 -0.7737
  234MOL0     H32257  -0.181   3.646   4.492  0.4442 -0.4569 -0.0711
  234MOL0     H32258  -0.340   3.892   4.522  0.6571 -0.5088  2.7159
  234MOL0     H32259  -0.204   3.861   4.394 -0.1760  1.0171  1.1034
  234MOL0     H32260  -0.486   3.759   4.403 -0.3306 -2.0494 -1.6953
  234MOL0     H32261  -0.351   3.688   4.317  0.8956 -0.4401  2.6210
  234MOL0     H32262  -0.305   3.911   4.201  0.9677 -4.0597 -0.8969
  234MOL0     H32263  -0.454   3.981   4.278 -1.6581  0.0670 -3.9291
  234MOL0     H32264  -0.473   3.739   4.099  2.0941 -0.8225  1.4684
  234MOL0     H32265  -0.609   3.846   4.153 -0.0460  3.2403  1.1408
  234MOL0     H32266  -0.525   3.879   3.917 -1.9345  0.0350  2.3410
  234MOL0     H32267  -0.376   3.972   3.974  0.8537  1.4822  0.6453
  234MOL0     H32268  -0.533   4.131   4.106  0.2157 -1.5690  1.5918
  234MOL0     H32269  -0.672   4.038   4.032 -0.6874  0.1579 -2.9629
  234MOL0     H32270  -0.635   4.248   3.901 -1.5023 -1.7716  0.0608
  234MOL0     H32271  -0.643   4.092   3.818  3.7410 -4.0582 -0.9137
  234MOL0     H32272  -0.148   3.595   4.755  0.8399 -2.4904 -1.0360
  234MOL0     H32273  -0.137   3.458   4.930  0.0689  1.8741  0.1340
  234MOL0     H32274  -0.126   3.166   5.313 -1.3402  2.2853 -2.0186
  234MOL0     H32275  -0.160   3.000   5.466  2.5929  2.2692 -1.7679
  234MOL0     H32276   0.164   3.148   7.051 -0.7238 -2.8278 -1.6882
  234MOL0     H32277   0.366   3.138   7.161  0.8776  1.3793 -1.3313
  234MOL0     H32278   0.798   3.242   7.205  0.5906 -1.7170 -2.7964
  234MOL0     H32279   1.020   3.266   7.298  0.6394  0.1265 -1.6005
  234MOL0     H32280   1.235   3.250   7.335 -0.6048 -2.5913 -2.9214
  234MOL0     H32281   1.146   3.215   7.487  0.5032  1.4069  0.3974
  234MOL0     H32282   1.393   3.227   7.534 -0.5555 -0.3967  0.4004
  234MOL0     H32283   1.419   3.109   7.402  1.0587  1.6065 -0.7999
  234MOL0     H32284   1.246   3.090   7.662 -2.5339 -1.7038 -1.6737
  234MOL0     H32285   1.263   2.965   7.545 -1.6937  1.0289  0.5181
  234MOL0     H32286   1.495   3.076   7.721  0.4833  0.9982 -1.2487
  234MOL0     H32287   1.507   2.967   7.587 -2.1393 -1.8779 -0.3186
  234MOL0     H32288   1.355   2.704   7.901  0.8386 -0.0235 -0.8878
  234MOL0     H32289   1.092   2.869   7.264 -1.6750  0.1989  2.7341
  234MOL0     H32290   0.779   2.768   7.092 -0.5547  1.3615  0.9320
  234MOL0     H32291   0.897   2.800   6.966  1.2202 -3.6029 -0.1035
  234MOL0     H32292   0.942   2.715   7.124 -2.0355 -1.2113  0.0398
  235MOL0     O32293   1.779   6.687   5.707 -0.1531  0.2292  0.3851
  235MOL0     C32294   1.859   6.614   5.649  0.8451  0.8060 -0.5782
  235MOL0     O32295   1.855   6.573   5.516 -0.0264 -0.3922 -0.8014
  235MOL0     C32296   1.749   6.617   5.440  0.4135 -1.1261  0.6682
  235MOL0     C32297   1.778   6.722   5.344 -0.2471  0.5933 -0.5115
  235MOL0     C32298   1.677   6.781   5.267  1.0413  0.3977 -0.0670
  235MOL0     C32299   1.543   6.747   5.284 -0.3562 -1.4773  0.7428
  235MOL0     O32300   1.423   6.809   5.242  0.1278  0.6039 -1.2334
  235MOL0     C32301   1.436   6.927   5.154  0.6655  0.0629 -0.7683
  235MOL0     C32302   1.312   7.016   5.198  0.4464 -0.2279  0.5291
  235MOL0     C32303   1.267   7.105   5.081 -0.2827 -0.2928 -0.9789
  235MOL0     C32304   1.127   7.083   5.022 -0.2700 -1.0924 -0.1585
  235MOL0     C32305   1.012   7.121   5.114 -0.3445 -0.3889  0.9081
  235MOL0     C32306   0.883   7.060   5.063 -0.1902  0.2912 -0.4782
  235MOL0     C32307   0.770   7.135   5.121  1.0354 -0.1713  0.2784
  235MOL0     C32308   0.648   7.081   5.054  1.1089 -0.4517 -0.1791
  235MOL0     N32309   0.530   7.161   5.095 -0.6829  0.7832  0.5525
  235MOL0     C32310   0.525   7.231   5.218 -0.1814 -0.4799  0.2507
  235MOL0     C32311   0.386   7.254   5.226 -0.8690  0.0423  1.8650
  235MOL0     C32312   0.323   7.319   5.345 -0.1915 -0.0566 -0.5247
  235MOL0     C32313   0.249   7.213   5.414  0.0409  0.7228 -0.8371
  235MOL0     C32314   0.204   7.241   5.557 -0.2136 -0.5288 -0.4676
  235MOL0     C32315   0.149   7.120   5.637  0.3360 -0.4660  0.0813
  235MOL0     O32316   0.105   7.172   5.757  0.2109  0.3691 -0.1867
  235MOL0     C32317   0.056   7.082   5.844 -0.3697  0.9421 -0.3013
  235MOL0     C32318   0.095   6.955   5.868  0.5295 -0.9078  0.5398
  235MOL0     C32319   0.055   6.883   5.985 -0.4254 -0.2344  0.0906
  235MOL0     C32320   0.102   6.739   6.007 -0.7266 -1.2456  0.1645
  235MOL0     C32321  -0.047   6.937   6.073  0.7624 -0.6264 -0.1567
  235MOL0     C32322  -0.104   6.865   6.188 -0.1633  0.4209  0.9807
  235MOL0     O32323  -0.021   6.849   6.301 -0.3119 -0.3270 -0.3751
  235MOL0     C32324  -0.068   6.771   6.395 -0.4564 -0.1859  0.0735
  235MOL0     C32325  -0.069   6.634   6.375  0.3848 -0.5103 -0.5008
  235MOL0     C32326  -0.113   6.550   6.472  0.9991 -0.8733 -0.0760
  235MOL0     C32327  -0.152   6.600   6.601 -0.1342  0.9134 -0.5783
  235MOL0     O32328  -0.197   6.526   6.706  1.3729  0.6153  0.3582
  235MOL0     C32329  -0.252   6.389   6.704  0.5038 -0.2783  0.4685
  235MOL0     C32330  -0.160   6.290   6.781  0.0616 -1.1944 -0.3523
  235MOL0     C32331  -0.017   6.287   6.716 -0.8941  0.1386 -0.7553
  235MOL0     C32332   0.050   6.162   6.771 -0.9785 -0.3388  0.9373
  235MOL0     C32333   0.206   6.165   6.746  0.5693 -0.3053  0.5916
  235MOL0     C32334   0.278   6.032   6.780 -0.3741 -0.1910  0.2094
  235MOL0     C32335   0.420   6.053   6.734 -0.9839 -0.1617  0.0146
  235MOL0     C32336   0.448   6.040   6.586  0.1654  0.8646 -0.1728
  235MOL0    Cl32337   0.396   5.889   6.518 -0.1467  0.0797  0.3316
  235MOL0     C32338  -0.127   6.731   6.623  1.3047 -0.3656 -0.3524
  235MOL0     C32339  -0.094   6.826   6.523 -1.2738  0.1749  0.4566
  235MOL0     O32340  -0.211   6.808   6.175  0.1944 -0.0656 -0.2459
  235MOL0     C32341  -0.094   7.070   6.037 -0.4550  0.1259  0.0652
  235MOL0     C32342  -0.045   7.141   5.922  0.4521 -0.3771 -0.1551
  235MOL0     N32343   0.320   7.220   5.118 -0.2254  0.2549 -0.1286
  235MOL0     N32344   0.400   7.161   5.035  0.2126 -0.9575  0.1855
  235MOL0     C32345   1.517   6.640   5.370 -0.6807 -0.9982  0.3993
  235MOL0     C32346   1.609   6.585   5.448  0.4163  0.3074  1.0567
  235MOL0     C32347   1.975   6.546   5.725  0.5209 -1.0154  0.4098
  235MOL0     C32348   2.019   6.417   5.677 -0.4144  0.4645  0.9084
  235MOL0     C32349   2.133   6.355   5.729  1.0803  1.0967  1.3356
  235MOL0     C32350   2.210   6.412   5.825  0.4241  0.1561 -0.7259
  235MOL0     O32351   2.327   6.348   5.857 -0.2374 -0.0790  0.1107
  235MOL0     C32352   2.406   6.407   5.957 -1.1553  1.1852  0.0054
  235MOL0     C32353   2.357   6.370   6.093  0.1555  0.0284 -0.4593
  235MOL0     C32354   2.374   6.216   6.104  0.0196 -0.3415  0.2475
  235MOL0     C32355   2.320   6.152   6.232 -0.2234 -0.0536 -0.3535
  235MOL0     C32356   2.409   6.175   6.352 -0.4979  0.0493  0.1140
  235MOL0     C32357   2.479   6.186   6.450  0.2337 -0.6314 -0.5730
  235MOL0     C32358   2.166   6.539   5.876 -0.3745  0.1921  0.2383
  235MOL0     C32359   2.043   6.606   5.827 -0.3683 -0.6196 -0.9464
  235MOL0     C32360   2.020   6.746   5.885  0.1202  0.0834  0.1423
  235MOL0     H32361   1.881   6.755   5.344 -0.3199  0.8451 -1.1856
  235MOL0     H32362   1.714   6.866   5.210  1.9210  1.1838  1.6039
  235MOL0     H32363   1.427   6.891   5.051 -4.1992  2.5162 -1.5186
  235MOL0     H32364   1.523   6.991   5.168 -2.1282  3.7675  1.8942
  235MOL0     H32365   1.227   6.955   5.230  1.9916 -1.4437  2.5799
  235MOL0     H32366   1.344   7.072   5.286  0.7697 -0.2641  0.4344
  235MOL0     H32367   1.284   7.210   5.101  1.6033 -1.0268  1.7440
  235MOL0     H32368   1.332   7.073   4.999  0.4771 -0.4259 -0.3313
  235MOL0     H32369   1.127   7.137   4.927  1.7094 -2.1244 -0.8017
  235MOL0     H32370   1.119   6.977   4.998 -0.2918 -1.4469  1.3235
  235MOL0     H32371   1.008   7.228   5.138 -1.6810 -0.7272  2.3749
  235MOL0     H32372   1.047   7.066   5.202 -1.0720  0.7295  1.9364
  235MOL0     H32373   0.879   7.068   4.954  0.4174 -0.9368 -0.6129
  235MOL0     H32374   0.889   6.953   5.082  0.9949  0.2866 -0.7856
  235MOL0     H32375   0.771   7.244   5.114 -1.3157 -0.1032  0.0684
  235MOL0     H32376   0.771   7.112   5.228 -1.8583 -2.7641 -0.1015
  235MOL0     H32377   0.652   7.084   4.945 -0.4474  1.6768 -0.2308
  235MOL0     H32378   0.635   6.980   5.094  2.4186  0.3409  2.4917
  235MOL0     H32379   0.608   7.257   5.282 -0.8274  1.0133  0.5278
  235MOL0     H32380   0.252   7.395   5.312 -1.1800 -0.2437  1.0722
  235MOL0     H32381   0.400   7.360   5.411  1.4008  0.2218 -2.4633
  235MOL0     H32382   0.155   7.201   5.360  0.5275  0.0001 -1.5399
  235MOL0     H32383   0.297   7.115   5.419  0.6930  1.0812  1.5889
  235MOL0     H32384   0.290   7.269   5.620  0.7531  0.0160 -1.9837
  235MOL0     H32385   0.132   7.323   5.554  3.0807  2.7726  1.6709
  235MOL0     H32386   0.063   7.076   5.586  0.1550  0.2297 -0.2181
  235MOL0     H32387   0.235   7.051   5.646  1.8125  0.8156 -2.7986
  235MOL0     H32388   0.158   6.908   5.793  0.6361 -0.0959  0.1089
  235MOL0     H32389   0.021   6.665   6.017 -1.1042 -1.1160 -1.6424
  235MOL0     H32390   0.160   6.727   6.100 -0.8231 -1.2657  0.2224
  235MOL0     H32391   0.159   6.717   5.917 -4.1561 -1.8855 -2.0206
  235MOL0     H32392  -0.037   6.598   6.278 -0.0276  0.2461 -0.9239
  235MOL0     H32393  -0.111   6.443   6.451  2.7456 -0.1705 -4.6775
  235MOL0     H32394  -0.346   6.373   6.758 -0.5806 -0.1107 -1.2775
  235MOL0     H32395  -0.268   6.360   6.600  0.3211  0.0893  0.3908
  235MOL0     H32396  -0.165   6.315   6.888 -2.4520 -1.5695 -0.3108
  235MOL0     H32397  -0.210   6.196   6.755  2.0971 -1.6950 -2.9167
  235MOL0     H32398   0.046   6.372   6.744  2.3691 -2.5181  0.6535
  235MOL0     H32399  -0.011   6.293   6.607 -1.6621  2.1682 -0.7431
  235MOL0     H32400   0.014   6.081   6.707  1.5880 -2.5656  2.1044
  235MOL0     H32401   0.022   6.130   6.872 -2.9528 -0.6387  0.3370
  235MOL0     H32402   0.216   6.178   6.637 -0.0350  0.9324  0.6597
  235MOL0     H32403   0.249   6.250   6.800  4.1825 -1.3743 -0.2873
  235MOL0     H32404   0.226   5.948   6.733 -0.8095 -0.7288  1.6090
  235MOL0     H32405   0.273   6.015   6.888  0.9271  1.5268  0.5844
  235MOL0     H32406   0.483   5.979   6.784 -0.7551  0.5832  0.8508
  235MOL0     H32407   0.458   6.146   6.776  2.8729 -0.4761 -2.2761
  235MOL0     H32408   0.557   6.044   6.575  0.2959 -0.6439  0.3974
  235MOL0     H32409   0.396   6.126   6.542 -2.0532  0.0164  0.6513
  235MOL0     H32410  -0.145   6.769   6.723  0.1182 -0.8827 -0.3447
  235MOL0     H32411  -0.086   6.928   6.557  1.5679  0.0281  0.4601
  235MOL0     H32412  -0.182   7.099   6.093 -2.7452 -4.0558 -0.9185
  235MOL0     H32413  -0.077   7.242   5.898  0.4339  0.9216  4.3204
  235MOL0     H32414   1.413   6.609   5.371  0.1074 -4.0333  2.6173
  235MOL0     H32415   1.585   6.499   5.511 -1.6604 -0.8389 -1.1636
  235MOL0     H32416   1.980   6.364   5.590  5.3346 -0.0229 -1.7880
  235MOL0     H32417   2.166   6.270   5.670 -1.1000  0.1656  1.3391
  235MOL0     H32418   2.503   6.357   5.947 -1.3056  0.8588  0.1842
  235MOL0     H32419   2.433   6.513   5.962 -0.7317  1.0048  2.5158
  235MOL0     H32420   2.255   6.403   6.115  1.1519  2.7139  0.5748
  235MOL0     H32421   2.400   6.420   6.179 -0.2365  0.6597 -0.6219
  235MOL0     H32422   2.317   6.173   6.021  1.7737 -1.6388 -0.3392
  235MOL0     H32423   2.477   6.183   6.092  0.0101 -0.1279 -0.4229
  235MOL0     H32424   2.302   6.044   6.232 -2.2648  0.2520 -0.7887
  235MOL0     H32425   2.227   6.205   6.254  0.1496  1.1278 -1.5182
  235MOL0     H32426   2.557   6.207   6.521 -0.9581  2.7560 -0.1230
  235MOL0     H32427   2.239   6.582   5.944 -0.2562 -1.3209  1.1071
  235MOL0     H32428   1.982   6.828   5.823  1.5822  1.0182  0.4258
  235MOL0     H32429   1.955   6.751   5.973 -3.2820  0.2303 -2.1963
  235MOL0     H32430   2.119   6.785   5.912  1.9056 -0.6187 -4.4537
  236MOL0     O32431   1.185  11.341   8.096  0.5450  0.7111 -0.6187
  236MOL0     C32432   1.216  11.459   8.104  0.7704  0.6429 -0.3165
  236MOL0     O32433   1.324  11.506   8.168  0.1385  0.2422  0.0693
  236MOL0     C32434   1.335  11.465   8.295  0.3719 -0.7660  0.7570
  236MOL0     C32435   1.426  11.380   8.336 -0.0621  0.4406 -1.3706
  236MOL0     C32436   1.434  11.346   8.473  1.6853 -0.5379  0.1493
  236MOL0     C32437   1.352  11.405   8.574  0.4454 -0.8797 -0.0611
  236MOL0     O32438   1.372  11.367   8.699  0.1665  1.0071 -0.3239
  236MOL0     C32439   1.255  11.353   8.782  0.2793  0.0704  0.3950
  236MOL0     C32440   1.255  11.218   8.862 -0.0550 -0.0278  0.8903
  236MOL0     C32441   1.309  11.100   8.779  0.1962 -0.0147  0.0389
  236MOL0     C32442   1.312  10.965   8.859  0.0202 -1.0379  0.8011
  236MOL0     C32443   1.426  10.866   8.807 -0.2692 -1.0673  0.0046
  236MOL0     C32444   1.394  10.723   8.855  0.0307 -0.2183 -0.4734
  236MOL0     C32445   1.517  10.631   8.897 -0.3244 -0.5855 -0.0059
  236MOL0     C32446   1.585  10.685   9.029 -0.6183  0.3137  0.0909
  236MOL0     N32447   1.709  10.604   9.061  0.0463 -0.2228 -0.2095
  236MOL0     C32448   1.770  10.507   8.993  1.1932 -0.3099  1.1579
  236MOL0     C32449   1.883  10.488   9.056  0.7624  1.3753  0.4466
  236MOL0     C32450   1.978  10.382   9.003  0.0343  0.0588 -0.5618
  236MOL0     C32451   2.016  10.295   9.115  1.2735 -1.2384 -0.5272
  236MOL0     C32452   1.906  10.196   9.146 -0.3586  0.2599 -0.3435
  236MOL0     C32453   1.946  10.113   9.267 -0.5885 -0.1916  0.0409
  236MOL0     O32454   1.934  10.190   9.389  0.0586 -0.1506  0.4883
  236MOL0     C32455   1.991  10.148   9.503  0.7680  0.0082  0.7487
  236MOL0     C32456   2.002  10.227   9.617 -0.5948  0.3659 -0.7454
  236MOL0     C32457   2.050  10.186   9.740 -0.5606  0.5060 -0.4070
  236MOL0     C32458   2.049  10.277   9.859 -0.2419 -0.1851 -0.2598
  236MOL0     C32459   2.112  10.053   9.742 -0.7984  0.1582  0.3860
  236MOL0     C32460   2.198  10.003   9.850  0.6663  0.4217 -1.8000
  236MOL0     O32461   2.254   9.879   9.827 -0.0205 -0.0715  0.9272
  236MOL0     C32462   2.351   9.815   9.906 -0.2780 -1.1714 -0.5812
  236MOL0     C32463   2.460   9.890   9.976 -0.2472  0.2062 -0.2105
  236MOL0     C32464   2.544   9.816  10.065  0.8584 -0.5770 -0.5767
  236MOL0     C32465   2.525   9.679  10.078 -0.4708  0.3671 -0.8150
  236MOL0     O32466   2.589   9.599  10.171  0.6903  0.2193  0.5125
  236MOL0     C32467   2.648   9.671  10.281 -0.5012  1.0437 -0.1503
  236MOL0     C32468   2.713   9.565  10.377 -0.3525  0.9592  0.7118
  236MOL0     C32469   2.849   9.507  10.317 -0.3427 -0.1226  0.5040
  236MOL0     C32470   2.831   9.382  10.227 -0.0943 -0.6440  0.0919
  236MOL0     C32471   2.942   9.281  10.223  0.5109 -0.0180 -0.2318
  236MOL0     C32472   3.081   9.332  10.188 -0.6738 -0.7511  0.3586
  236MOL0     C32473   3.098   9.366  10.038  0.6635 -0.2141 -0.3938
  236MOL0     C32474   3.089   9.246   9.944  0.1398  0.6452  1.1275
  236MOL0    Cl32475   3.119   9.268   9.781 -0.3747  0.2050 -0.1179
  236MOL0     C32476   2.430   9.615  10.000 -0.9215  0.6949 -0.2186
  236MOL0     C32477   2.347   9.679   9.920  0.2871 -0.4519 -0.5154
  236MOL0     O32478   2.234  10.075   9.951  0.4340  0.3610  0.8307
  236MOL0     C32479   2.096   9.971   9.631  0.2260  0.7998 -0.2296
  236MOL0     C32480   2.041  10.020   9.511  0.5022  0.8926 -0.5415
  236MOL0     N32481   1.904  10.585   9.155  0.9043 -0.4529  1.1953
  236MOL0     N32482   1.790  10.639   9.160 -0.2852 -1.6025  0.0436
  236MOL0     C32483   1.260  11.507   8.531 -0.2004 -0.1424  0.4156
  236MOL0     C32484   1.250  11.532   8.390  0.4536  0.1483 -0.4453
  236MOL0     C32485   1.167  11.548   7.999 -0.1440 -0.7431  0.3656
  236MOL0     C32486   1.265  11.630   7.933 -0.1834  0.6151 -0.0158
  236MOL0     C32487   1.222  11.702   7.822 -0.1032 -0.3258  0.1582
  236MOL0     C32488   1.086  11.700   7.773 -1.0153 -0.3514  0.8488
  236MOL0     O32489   1.061  11.784   7.662 -0.2369  0.4956  0.5005
  236MOL0     C32490   0.936  11.756   7.598  0.7619 -0.0561  0.5010
  236MOL0     C32491   0.916  11.612   7.525 -0.0718 -0.1254  0.1686
  236MOL0     C32492   1.014  11.620   7.413  0.0046 -0.7806 -0.1715
  236MOL0     C32493   0.972  11.523   7.295  0.6914 -0.9211  0.7418
  236MOL0     C32494   1.066  11.543   7.180 -0.7366 -0.2118  0.3539
  236MOL0     C32495   1.156  11.564   7.100 -1.2331  0.2754  0.6683
  236MOL0     C32496   0.989  11.640   7.852  0.6577  0.0895 -0.9422
  236MOL0     C32497   1.026  11.563   7.958 -0.5377 -0.1239  0.0740
  236MOL0     C32498   0.916  11.495   8.029 -0.8518 -0.2656 -0.2530
  236MOL0     H32499   1.476  11.305   8.275  2.0267 -0.3197  1.0693
  236MOL0     H32500   1.506  11.271   8.502  0.8981 -1.2848  0.2309
  236MOL0     H32501   1.166  11.361   8.720 -0.7086 -1.5762  1.5143
  236MOL0     H32502   1.256  11.429   8.860  3.6544 -1.1647  1.7728
  236MOL0     H32503   1.324  11.232   8.945  0.7118 -0.6103  0.3622
  236MOL0     H32504   1.159  11.185   8.904  0.6689 -2.4297  0.7725
  236MOL0     H32505   1.247  11.069   8.695  1.3948 -0.6930 -0.6121
  236MOL0     H32506   1.408  11.122   8.737 -0.5687  1.0095 -1.2717
  236MOL0     H32507   1.333  10.993   8.962 -1.1634 -0.2255  0.8395
  236MOL0     H32508   1.208  10.933   8.844  0.2419 -0.9224 -1.2298
  236MOL0     H32509   1.529  10.893   8.833  0.5659 -0.8934 -3.1028
  236MOL0     H32510   1.416  10.868   8.698 -1.5624  1.0421  0.1201
  236MOL0     H32511   1.327  10.731   8.941 -1.1578 -2.8015 -1.0807
  236MOL0     H32512   1.342  10.669   8.775 -2.2293 -2.8372  2.5028
  236MOL0     H32513   1.593  10.633   8.818 -2.8078 -1.9171 -2.6116
  236MOL0     H32514   1.500  10.523   8.906  0.2560 -0.7894 -1.1643
  236MOL0     H32515   1.609  10.791   9.022 -0.7844  0.3546  0.1286
  236MOL0     H32516   1.513  10.674   9.110  0.4578 -3.6233  0.7247
  236MOL0     H32517   1.739  10.450   8.907  2.4208  3.0703 -1.7840
  236MOL0     H32518   2.059  10.441   8.959  0.2758  0.2615  0.1480
  236MOL0     H32519   1.933  10.311   8.932 -1.7719 -2.3581  2.7423
  236MOL0     H32520   2.115  10.248   9.109  2.8155  1.6283  0.3234
  236MOL0     H32521   2.023  10.366   9.198  0.6724  0.4084 -1.8184
  236MOL0     H32522   1.813  10.250   9.166 -2.1765 -1.9129 -2.3896
  236MOL0     H32523   1.906  10.123   9.066  1.2786 -3.1027  2.4608
  236MOL0     H32524   1.878  10.028   9.268  0.4224 -1.0748  2.5487
  236MOL0     H32525   2.049  10.079   9.261 -0.0124  1.4171  0.1446
  236MOL0     H32526   1.973  10.326   9.582 -0.2625 -0.0474 -2.2641
  236MOL0     H32527   2.151  10.316   9.867 -0.4660  0.4513 -0.4796
  236MOL0     H32528   2.013  10.228   9.950  1.0013  3.7219  2.6155
  236MOL0     H32529   1.983  10.363   9.851  1.5030  1.7904  3.6805
  236MOL0     H32530   2.478   9.996   9.966  1.1277  0.0893  0.7689
  236MOL0     H32531   2.630   9.858  10.116  0.6234 -2.9634  2.0195
  236MOL0     H32532   2.729   9.735  10.246  2.2966 -2.9681 -1.7969
  236MOL0     H32533   2.567   9.723  10.333 -3.2251 -2.5998 -0.3355
  236MOL0     H32534   2.743   9.620  10.467 -0.0623  1.5925  0.2387
  236MOL0     H32535   2.640   9.486  10.399  0.1642 -0.6683 -2.6508
  236MOL0     H32536   2.917   9.481  10.398  0.6203  0.7350 -0.0007
  236MOL0     H32537   2.903   9.586  10.264  1.1690 -0.6526  1.1850
  236MOL0     H32538   2.809   9.420  10.127 -3.1760 -0.1298  0.8615
  236MOL0     H32539   2.735   9.339  10.257 -0.0555  0.4367  1.9219
  236MOL0     H32540   2.946   9.236  10.322 -0.6276 -1.2695 -0.7328
  236MOL0     H32541   2.918   9.201  10.153 -1.7724  1.7149 -1.5722
  236MOL0     H32542   3.167   9.275  10.222  2.1486  3.6908  1.5703
  236MOL0     H32543   3.097   9.424  10.245 -1.3632 -0.8265  0.6809
  236MOL0     H32544   3.190   9.423  10.022  1.0316 -1.2716 -2.4223
  236MOL0     H32545   3.013   9.429  10.008  1.9883  1.3306 -1.0243
  236MOL0     H32546   2.991   9.199   9.960 -1.2616  2.4242 -1.4168
  236MOL0     H32547   3.175   9.187   9.977  0.5309  0.1385 -0.6961
  236MOL0     H32548   2.424   9.507  10.004  1.2804  0.5477  0.3183
  236MOL0     H32549   2.258   9.631   9.880 -0.2376 -0.2397  0.3669
  236MOL0     H32550   2.127   9.867   9.640 -1.6048  0.3136  0.9833
  236MOL0     H32551   2.038   9.958   9.422 -5.4439  0.1400 -0.1916
  236MOL0     H32552   1.200  11.559   8.605  1.1193  1.3546  0.4878
  236MOL0     H32553   1.164  11.588   8.354 -0.8624 -1.2088  0.4717
  236MOL0     H32554   1.364  11.642   7.977 -0.1017 -0.0484 -0.0097
  236MOL0     H32555   1.295  11.771   7.779 -1.7658  1.9465  0.7748
  236MOL0     H32556   0.848  11.766   7.662  1.1207  0.9294  0.8526
  236MOL0     H32557   0.926  11.829   7.516 -1.0108 -2.8847 -2.0155
  236MOL0     H32558   0.815  11.591   7.490  0.4024  0.0277 -1.3667
  236MOL0     H32559   0.935  11.528   7.592  2.9822  0.6987  0.4854
  236MOL0     H32560   1.027  11.723   7.377  0.1097 -0.0961  1.7074
  236MOL0     H32561   1.112  11.600   7.457  0.0719 -0.2863 -0.0911
  236MOL0     H32562   0.874  11.552   7.255  0.4978 -1.9169  0.4792
  236MOL0     H32563   0.966  11.419   7.326 -4.9821 -0.5470  1.8944
  236MOL0     H32564   1.249  11.570   7.046 -1.0435  0.1091  0.9701
  236MOL0     H32565   0.883  11.650   7.834  0.1627 -0.9300  1.1531
  236MOL0     H32566   0.935  11.389   8.047 -2.8388 -0.5304  0.5197
  236MOL0     H32567   0.919  11.541   8.128  0.6841 -0.0593 -0.3655
  236MOL0     H32568   0.822  11.507   7.974 -0.7859 -1.5350 -0.6666
  237MOL0     O32569   4.504   5.621   6.831 -0.2175 -0.6086 -0.2679
  237MOL0     C32570   4.435   5.549   6.895 -0.2659  0.6354  0.1249
  237MOL0     O32571   4.303   5.562   6.917 -1.2694  0.4115 -0.1435
  237MOL0     C32572   4.242   5.681   6.891 -0.3106  0.3462 -0.9929
  237MOL0     C32573   4.191   5.715   6.768  0.5987  0.1669  0.1390
  237MOL0     C32574   4.106   5.823   6.765 -0.1419  0.2883  0.8676
  237MOL0     C32575   4.091   5.916   6.860 -0.2832 -0.3500 -0.0273
  237MOL0     O32576   4.028   6.034   6.857 -0.0863  0.4324 -0.1114
  237MOL0     C32577   4.020   6.098   6.727  0.8430 -0.6447 -0.4200
  237MOL0     C32578   3.986   6.245   6.764 -0.3844 -0.5656 -0.7551
  237MOL0     C32579   3.927   6.326   6.654 -0.0936  0.6682 -0.2696
  237MOL0     C32580   3.779   6.318   6.638 -0.0548  0.9862  0.9352
  237MOL0     C32581   3.726   6.397   6.517 -0.7751 -0.0794 -0.6140
  237MOL0     C32582   3.575   6.408   6.537  0.6831 -0.5131  0.3104
  237MOL0     C32583   3.518   6.528   6.452 -0.0124 -0.0718 -0.1549
  237MOL0     C32584   3.375   6.501   6.415  0.4126  0.7926  0.0714
  237MOL0     N32585   3.342   6.612   6.315  0.5862 -0.0462  0.5337
  237MOL0     C32586   3.289   6.734   6.345 -0.9977  1.0123  0.2261
  237MOL0     C32587   3.258   6.791   6.226  0.5168  0.2081  1.0176
  237MOL0     C32588   3.177   6.910   6.196 -0.0015 -0.2508  0.2213
  237MOL0     C32589   3.253   7.038   6.204  0.0150 -0.1947  0.5865
  237MOL0     C32590   3.223   7.157   6.107 -0.3960  0.4492  0.5372
  237MOL0     C32591   3.326   7.190   6.013  1.1522 -0.7698 -0.3629
  237MOL0     O32592   3.294   7.319   5.959 -0.0556  0.4340 -0.4943
  237MOL0     C32593   3.191   7.342   5.877  0.5820 -0.9277  0.2171
  237MOL0     C32594   3.136   7.478   5.861 -0.2733  0.4080 -0.4768
  237MOL0     C32595   3.023   7.509   5.798 -0.0562 -0.0823  0.0563
  237MOL0     C32596   2.985   7.654   5.783  0.7446 -0.0144  0.7840
  237MOL0     C32597   2.951   7.409   5.745 -0.3995  1.7667 -0.5639
  237MOL0     C32598   2.838   7.425   5.658 -0.7670 -0.1132  0.8614
  237MOL0     O32599   2.722   7.457   5.717  0.8606 -0.5380 -0.1300
  237MOL0     C32600   2.607   7.473   5.644 -0.7331  0.4231 -0.5310
  237MOL0     C32601   2.516   7.573   5.673 -0.0335  0.4458  0.3550
  237MOL0     C32602   2.402   7.588   5.600 -0.3626 -0.1219  0.6901
  237MOL0     C32603   2.362   7.495   5.502 -0.2292  0.8099  0.7448
  237MOL0     O32604   2.229   7.515   5.461 -1.2281  0.1509  0.4090
  237MOL0     C32605   2.180   7.436   5.345  0.3037 -0.5247 -1.2730
  237MOL0     C32606   2.052   7.505   5.294 -0.4816  0.8345 -0.4189
  237MOL0     C32607   1.979   7.419   5.187 -1.2985 -0.8848 -0.3061
  237MOL0     C32608   1.917   7.288   5.236 -0.6134  0.7457 -0.3777
  237MOL0     C32609   1.836   7.222   5.123 -0.2860 -0.8133  0.1917
  237MOL0     C32610   1.707   7.295   5.106  1.2186 -0.1983  0.0565
  237MOL0     C32611   1.598   7.235   5.186  0.0089  0.6547 -0.6306
  237MOL0     C32612   1.525   7.344   5.261 -0.0205 -0.1667  0.4390
  237MOL0    Cl32613   1.447   7.453   5.141  0.1285  0.0207  0.1943
  237MOL0     C32614   2.450   7.387   5.472 -0.6455 -0.0286 -0.2784
  237MOL0     C32615   2.571   7.379   5.547 -0.8089  0.3233  0.1240
  237MOL0     O32616   2.864   7.437   5.538 -0.6136 -0.0811 -0.8129
  237MOL0     C32617   2.992   7.277   5.770 -0.1814  0.2527 -0.2297
  237MOL0     C32618   3.112   7.241   5.828  0.6000 -0.3982 -0.3591
  237MOL0     N32619   3.307   6.708   6.123 -0.1689 -0.1860 -0.0753
  237MOL0     N32620   3.343   6.595   6.180  0.0873  0.4342  0.4764
  237MOL0     C32621   4.158   5.889   6.980  0.7046  0.6778  0.4324
  237MOL0     C32622   4.218   5.766   6.998 -0.2947 -0.1448 -0.6457
  237MOL0     C32623   4.511   5.431   6.956  0.2263 -0.4004 -1.1911
  237MOL0     C32624   4.424   5.342   7.016 -0.1364 -1.0681  0.8959
  237MOL0     C32625   4.471   5.224   7.068 -0.5631 -1.2032  0.1506
  237MOL0     C32626   4.610   5.193   7.071  0.1988  0.7690  0.0228
  237MOL0     O32627   4.645   5.088   7.152 -0.2343 -0.0411 -0.2107
  237MOL0     C32628   4.770   5.018   7.128  0.6549  0.6380 -0.7037
  237MOL0     C32629   4.784   4.934   7.258 -0.2840 -0.1242  0.8237
  237MOL0     C32630   4.914   4.853   7.266 -0.2407  0.8443 -0.3455
  237MOL0     C32631   4.882   4.708   7.295  0.1203  0.0977  0.7104
  237MOL0     C32632   5.005   4.647   7.358  0.4583 -0.5234 -0.9867
  237MOL0     C32633   5.104   4.596   7.396 -0.1390 -0.1438 -0.3904
  237MOL0     C32634   4.695   5.294   7.019  0.0739 -0.1508 -0.8200
  237MOL0     C32635   4.655   5.413   6.968  0.3326 -0.1347  0.4403
  237MOL0     C32636   4.764   5.507   6.918 -0.2620  0.1785  0.2972
  237MOL0     H32637   4.221   5.654   6.684  2.2096  1.9402 -0.6451
  237MOL0     H32638   4.061   5.839   6.667  1.3958  0.2449  0.1196
  237MOL0     H32639   3.939   6.052   6.669 -0.8981 -0.6154  1.8499
  237MOL0     H32640   4.112   6.087   6.669  0.8850 -1.3922 -0.2188
  237MOL0     H32641   3.919   6.246   6.850  1.2959 -0.9423  0.6029
  237MOL0     H32642   4.082   6.294   6.783  0.6446 -2.5189 -0.5926
  237MOL0     H32643   3.963   6.429   6.658  3.6483 -0.3834 -1.8595
  237MOL0     H32644   3.967   6.279   6.563 -1.1522 -2.7128  0.8354
  237MOL0     H32645   3.754   6.213   6.622 -1.7257  1.1532  2.1706
  237MOL0     H32646   3.730   6.348   6.731 -3.9467 -0.7903 -0.3635
  237MOL0     H32647   3.754   6.349   6.423 -1.4062  0.6782 -1.2057
  237MOL0     H32648   3.772   6.496   6.509  0.2948 -0.2453  2.2918
  237MOL0     H32649   3.535   6.311   6.507  2.5861 -1.2267 -0.0463
  237MOL0     H32650   3.549   6.432   6.640  1.6814  0.1252  0.4281
  237MOL0     H32651   3.575   6.541   6.359  0.6919 -2.3283 -0.0966
  237MOL0     H32652   3.530   6.623   6.503  0.8929  0.0696 -0.6129
  237MOL0     H32653   3.368   6.397   6.385  0.1476  0.8116  0.0581
  237MOL0     H32654   3.315   6.490   6.506 -2.2830 -0.9521 -1.7668
  237MOL0     H32655   3.267   6.775   6.443 -0.2546  0.0851  0.7891
  237MOL0     H32656   3.093   6.913   6.266  1.1445  0.9464  1.5922
  237MOL0     H32657   3.123   6.894   6.102 -1.2378  1.8382  0.5198
  237MOL0     H32658   3.225   7.077   6.303 -3.2773 -2.9694  0.9363
  237MOL0     H32659   3.360   7.022   6.213  0.5826  2.3712 -0.6561
  237MOL0     H32660   3.133   7.133   6.049 -0.3774  2.2233 -0.3076
  237MOL0     H32661   3.190   7.244   6.165 -1.3144  1.7580 -1.7688
  237MOL0     H32662   3.419   7.210   6.068  0.1010 -1.3291  1.7234
  237MOL0     H32663   3.333   7.113   5.937  0.1667  2.1032 -3.6177
  237MOL0     H32664   3.188   7.560   5.910  0.8344 -1.4066  1.5460
  237MOL0     H32665   3.077   7.714   5.788  0.2383  0.7045  4.0623
  237MOL0     H32666   2.921   7.679   5.868  3.1071 -0.9426  2.9777
  237MOL0     H32667   2.931   7.675   5.690  0.0062  1.2736  1.4754
  237MOL0     H32668   2.543   7.647   5.748 -1.5181  1.4165 -0.0331
  237MOL0     H32669   2.336   7.674   5.609  1.1415  1.1642 -0.0191
  237MOL0     H32670   2.256   7.441   5.266  1.6733  1.7819  0.0520
  237MOL0     H32671   2.160   7.332   5.370  0.9885 -0.9110 -2.2593
  237MOL0     H32672   1.993   7.514   5.386 -0.3623  3.2040 -0.5258
  237MOL0     H32673   2.079   7.597   5.243 -1.2673  1.6141  0.5201
  237MOL0     H32674   2.058   7.401   5.114 -0.2002  0.3696  0.5316
  237MOL0     H32675   1.906   7.488   5.145  0.5250  0.2126 -1.8139
  237MOL0     H32676   1.848   7.297   5.321 -2.8907 -2.1891 -1.7135
  237MOL0     H32677   1.990   7.219   5.278 -0.6321  2.1821  2.2205
  237MOL0     H32678   1.893   7.245   5.032 -0.0566  0.8363  0.7151
  237MOL0     H32679   1.835   7.113   5.118  0.1907 -0.7923 -0.4236
  237MOL0     H32680   1.660   7.288   5.007  1.8751 -2.0584 -0.1688
  237MOL0     H32681   1.729   7.401   5.121  1.5385 -0.1867 -0.4736
  237MOL0     H32682   1.630   7.169   5.267 -5.3045  1.0660  2.3388
  237MOL0     H32683   1.531   7.176   5.123  3.0390 -3.3901 -0.3939
  237MOL0     H32684   1.602   7.390   5.324 -0.9152 -0.2238  1.6003
  237MOL0     H32685   1.454   7.305   5.335 -0.2916  0.4481  0.5092
  237MOL0     H32686   2.420   7.306   5.407 -2.1350  0.0679  0.2298
  237MOL0     H32687   2.647   7.310   5.512  0.1961  0.2289  2.3593
  237MOL0     H32688   2.914   7.207   5.742 -1.4396  1.6301 -0.3134
  237MOL0     H32689   3.132   7.135   5.836 -0.9031 -0.6415  0.6442
  237MOL0     H32690   4.145   5.955   7.065 -3.9746 -0.0626  0.6012
  237MOL0     H32691   4.259   5.751   7.097 -5.0257 -0.9942  1.4503
  237MOL0     H32692   4.316   5.351   7.018 -0.2249 -2.1062  1.5489
  237MOL0     H32693   4.403   5.150   7.110  0.8117 -2.0615  0.9132
  237MOL0     H32694   4.780   4.952   7.041  1.0947  0.6864 -0.6914
  237MOL0     H32695   4.852   5.090   7.129 -0.0775  1.7045  3.8286
  237MOL0     H32696   4.697   4.867   7.265  0.2787 -1.0798 -0.8216
  237MOL0     H32697   4.776   5.003   7.342 -2.6012  1.0972 -0.2891
  237MOL0     H32698   4.966   4.845   7.170 -1.3729  0.4836 -0.9516
  237MOL0     H32699   4.976   4.898   7.344 -1.2511  1.4637  0.1290
  237MOL0     H32700   4.834   4.645   7.219 -1.7619  0.5558  1.4586
  237MOL0     H32701   4.795   4.702   7.362 -0.1796  1.7751  0.5080
  237MOL0     H32702   5.183   4.531   7.428 -1.5302 -0.4609  2.7733
  237MOL0     H32703   4.797   5.259   7.024 -0.3695 -1.2869  2.1984
  237MOL0     H32704   4.863   5.495   6.963  0.9039  1.4162 -1.8070
  237MOL0     H32705   4.770   5.504   6.809  0.1029  0.1090  0.3186
  237MOL0     H32706   4.726   5.607   6.939 -0.9868 -0.1703  0.7038
  238MOL0     O32707   2.456  10.866   4.463  0.1945  0.0485  0.2483
  238MOL0     C32708   2.357  10.913   4.398 -0.8302 -0.0994 -0.8545
  238MOL0     O32709   2.227  10.907   4.432  0.2808  0.0336  0.2702
  238MOL0     C32710   2.186  10.831   4.539  0.9392 -0.6304 -0.3522
  238MOL0     C32711   2.217  10.698   4.557  0.1101  0.8010 -0.4668
  238MOL0     C32712   2.162  10.635   4.667  0.4784 -0.9255 -0.0358
  238MOL0     C32713   2.081  10.712   4.759 -0.0413 -0.4125  0.2493
  238MOL0     O32714   2.027  10.655   4.871  0.3060 -0.5342  0.5911
  238MOL0     C32715   2.012  10.519   4.876 -0.9702  1.0583  0.1716
  238MOL0     C32716   1.877  10.479   4.944  0.0367  0.1044 -0.6642
  238MOL0     C32717   1.836  10.336   4.940 -0.5104  0.3231  0.0295
  238MOL0     C32718   1.955  10.235   4.961  0.8698  0.2776  0.5350
  238MOL0     C32719   1.909  10.087   4.950 -0.0167 -0.6891 -0.3773
  238MOL0     C32720   2.020   9.983   4.945 -0.3197 -0.9633 -0.5622
  238MOL0     C32721   1.963   9.846   4.912 -0.6635  0.1377 -0.3192
  238MOL0     C32722   1.837   9.786   4.972  0.8790  0.1381 -1.1596
  238MOL0     N32723   1.815   9.642   4.960  0.4153  0.6052 -0.6848
  238MOL0     C32724   1.777   9.557   5.070  0.0124  0.2168 -0.6646
  238MOL0     C32725   1.785   9.433   5.018 -0.2664 -0.2827 -0.5135
  238MOL0     C32726   1.760   9.306   5.100 -0.5903 -1.1470 -0.0904
  238MOL0     C32727   1.884   9.252   5.166  0.7332 -0.6146 -1.1347
  238MOL0     C32728   1.846   9.150   5.284 -0.1051  0.0967  0.0690
  238MOL0     C32729   1.983   9.098   5.330 -0.1890  0.1752 -0.3676
  238MOL0     O32730   2.090   9.189   5.363 -0.3266 -0.6673 -0.2518
  238MOL0     C32731   2.172   9.154   5.463 -0.8873 -0.0234  0.4018
  238MOL0     C32732   2.312   9.163   5.440  0.7000  0.1118  1.0603
  238MOL0     C32733   2.406   9.120   5.535 -0.2170 -0.6836  0.7419
  238MOL0     C32734   2.547   9.103   5.483 -0.1782  0.0287 -0.0178
  238MOL0     C32735   2.365   9.082   5.661 -1.0534 -0.0763  0.3551
  238MOL0     C32736   2.460   9.060   5.780 -0.0829 -1.2525  0.3640
  238MOL0     O32737   2.577   9.130   5.794 -0.5174  0.4026  0.0289
  238MOL0     C32738   2.676   9.107   5.879 -0.1470 -0.4338 -0.6201
  238MOL0     C32739   2.788   9.183   5.862  0.4762 -0.5106 -0.1580
  238MOL0     C32740   2.896   9.169   5.939  0.0447 -0.6732 -0.2661
  238MOL0     C32741   2.907   9.069   6.043 -0.2167 -1.5292 -0.7505
  238MOL0     O32742   2.999   9.062   6.139  0.7286  0.1858  0.2605
  238MOL0     C32743   2.956   9.121   6.264  0.5449 -0.0104 -0.4063
  238MOL0     C32744   3.065   9.121   6.365 -1.0678 -0.0354 -0.0646
  238MOL0     C32745   3.208   9.173   6.318  0.0665  0.9080  0.3024
  238MOL0     C32746   3.197   9.311   6.245  0.2400  0.4772 -0.1077
  238MOL0     C32747   3.316   9.361   6.163 -0.0130 -0.0299 -0.1646
  238MOL0     C32748   3.296   9.327   6.016 -0.6920 -0.1186  0.2861
  238MOL0     C32749   3.418   9.379   5.944 -0.1172  0.0585 -0.4661
  238MOL0     C32750   3.415   9.308   5.811 -0.6740 -0.9987  1.0093
  238MOL0    Cl32751   3.272   9.358   5.712  0.1066 -0.1126 -0.1133
  238MOL0     C32752   2.794   8.989   6.060  0.1194 -0.1444 -0.1769
  238MOL0     C32753   2.682   9.003   5.979  0.3648  0.6680  0.7356
  238MOL0     O32754   2.412   8.987   5.864  0.1415 -0.0841 -0.1062
  238MOL0     C32755   2.226   9.080   5.689  0.6095  0.3799  1.3433
  238MOL0     C32756   2.126   9.119   5.589  0.2687  0.3459 -0.3700
  238MOL0     N32757   1.819   9.446   4.884 -0.0026 -0.0798  0.1712
  238MOL0     N32758   1.832   9.571   4.851  0.3492 -0.1850  0.5044
  238MOL0     C32759   2.054  10.839   4.742 -0.2008 -0.8136 -0.0192
  238MOL0     C32760   2.104  10.900   4.630  0.4083  0.6200 -0.5567
  238MOL0     C32761   2.379  10.975   4.260  0.9268  0.1819 -0.7719
  238MOL0     C32762   2.268  11.033   4.203  1.5876  0.2584  0.5831
  238MOL0     C32763   2.290  11.113   4.093  0.2732  0.2146  1.1419
  238MOL0     C32764   2.411  11.112   4.014 -0.3928  0.3286  0.8386
  238MOL0     O32765   2.401  11.171   3.890  0.5567  1.1635  0.2258
  238MOL0     C32766   2.525  11.182   3.823 -0.5752 -0.5000 -0.5591
  238MOL0     C32767   2.503  11.269   3.710  0.0244 -1.1128  0.4621
  238MOL0     C32768   2.621  11.270   3.612  1.0104  1.1017 -0.6145
  238MOL0     C32769   2.578  11.220   3.474  0.0764 -0.1035 -0.3256
  238MOL0     C32770   2.669  11.258   3.367  0.6302  0.1749 -1.3327
  238MOL0     C32771   2.755  11.261   3.281 -0.0927  1.4266 -1.2753
  238MOL0     C32772   2.521  11.038   4.065  0.0296 -0.7120  0.1335
  238MOL0     C32773   2.506  10.968   4.187  0.5352 -0.4167  0.0526
  238MOL0     C32774   2.625  10.896   4.241  0.0028 -0.0579  0.4966
  238MOL0     H32775   2.275  10.650   4.479  0.1268 -2.6422  1.4971
  238MOL0     H32776   2.198  10.536   4.694  0.9120 -0.8740 -0.4069
  238MOL0     H32777   2.093  10.471   4.932 -1.0252 -2.7096 -2.6386
  238MOL0     H32778   2.010  10.470   4.779  1.3323  0.2778  0.4787
  238MOL0     H32779   1.890  10.498   5.051 -1.6510  0.6587 -0.5167
  238MOL0     H32780   1.801  10.541   4.896  0.1694  1.7338  1.1121
  238MOL0     H32781   1.768  10.320   5.024 -3.2491 -1.0566 -2.2663
  238MOL0     H32782   1.789  10.304   4.846 -0.3391  2.2237 -0.7452
  238MOL0     H32783   2.036  10.253   4.888  0.9511 -1.9919  0.0047
  238MOL0     H32784   1.986  10.246   5.065 -0.6792 -0.5795  1.1115
  238MOL0     H32785   1.853  10.076   4.857  0.8388 -0.4310 -0.9295
  238MOL0     H32786   1.837  10.062   5.029 -1.1730  1.2513 -0.7209
  238MOL0     H32787   2.092  10.008   4.867 -0.2657 -1.4930 -0.6808
  238MOL0     H32788   2.072   9.968   5.040  0.0660 -1.7111 -0.8889
  238MOL0     H32789   2.040   9.769   4.926  0.1807  1.0007 -0.1664
  238MOL0     H32790   1.948   9.859   4.805 -0.6540 -1.7199 -0.5779
  238MOL0     H32791   1.818   9.821   5.074 -1.8254 -2.4646 -0.6064
  238MOL0     H32792   1.773   9.844   4.905  1.8370  0.7509 -1.5506
  238MOL0     H32793   1.743   9.595   5.166 -2.4396 -1.0510 -0.9560
  238MOL0     H32794   1.723   9.226   5.035 -0.1972 -1.4653  0.0699
  238MOL0     H32795   1.683   9.335   5.172  1.2851  3.5863  0.3132
  238MOL0     H32796   1.944   9.207   5.086  3.0506  1.7530 -0.8757
  238MOL0     H32797   1.941   9.335   5.210 -2.8630  1.1401  0.6763
  238MOL0     H32798   1.806   9.210   5.367 -0.5175  1.0749 -0.8079
  238MOL0     H32799   1.773   9.074   5.255  0.8537 -0.2994 -1.4457
  238MOL0     H32800   1.963   9.028   5.412 -1.7514  1.7176  0.6278
  238MOL0     H32801   2.015   9.036   5.245  1.7854  2.0621 -1.0900
  238MOL0     H32802   2.333   9.190   5.337  0.1951  0.7337  1.1107
  238MOL0     H32803   2.586   9.014   5.535  1.9622  0.8170 -0.1560
  238MOL0     H32804   2.608   9.193   5.488 -2.5194  1.7217 -0.4715
  238MOL0     H32805   2.536   9.080   5.377 -1.5229 -1.4380  0.3957
  238MOL0     H32806   2.785   9.257   5.783  2.6317 -2.4023 -2.1812
  238MOL0     H32807   2.971   9.246   5.929 -0.5201 -0.2479 -1.4693
  238MOL0     H32808   2.929   9.222   6.233  0.9895 -0.3139 -1.8313
  238MOL0     H32809   2.863   9.077   6.302 -0.5461  2.4159 -0.1088
  238MOL0     H32810   3.042   9.193   6.444  1.8647  2.1800 -1.0523
  238MOL0     H32811   3.076   9.018   6.402 -3.4400  0.2100  1.6139
  238MOL0     H32812   3.253   9.103   6.246 -0.4966  1.3181 -0.4706
  238MOL0     H32813   3.271   9.180   6.407 -0.2422  0.3682  0.5724
  238MOL0     H32814   3.192   9.379   6.331  2.3234  0.5412  0.0162
  238MOL0     H32815   3.106   9.319   6.186 -0.4780 -1.4874  0.6349
  238MOL0     H32816   3.314   9.470   6.174 -1.8220 -0.2285  2.0624
  238MOL0     H32817   3.411   9.322   6.202  0.1521  0.5775  0.0531
  238MOL0     H32818   3.209   9.374   5.969  1.0584  3.7502  0.6018
  238MOL0     H32819   3.266   9.222   6.009 -0.5104 -0.1160 -0.5405
  238MOL0     H32820   3.512   9.340   5.985  0.6821  2.2222 -0.1260
  238MOL0     H32821   3.429   9.488   5.949 -1.6334  0.2376 -0.5332
  238MOL0     H32822   3.418   9.199   5.820  4.8075 -1.0981  1.3364
  238MOL0     H32823   3.497   9.339   5.746 -1.7776  0.4968  0.2734
  238MOL0     H32824   2.799   8.901   6.123 -1.3599 -1.2206 -1.4730
  238MOL0     H32825   2.603   8.932   6.000  2.7710 -3.5476 -2.7064
  238MOL0     H32826   2.189   9.041   5.783  0.5385 -1.0231  0.7534
  238MOL0     H32827   2.021   9.098   5.608  0.7302 -2.7450 -0.6348
  238MOL0     H32828   2.022  10.907   4.820  1.3544  1.7729 -1.4871
  238MOL0     H32829   2.074  11.004   4.625 -1.6670  0.1009  0.2220
  238MOL0     H32830   2.170  11.037   4.250  2.0561  1.9732  1.5221
  238MOL0     H32831   2.206  11.160   4.044 -0.7596 -2.5897  0.0629
  238MOL0     H32832   2.595  11.223   3.896 -0.1632 -0.8335 -0.7652
  238MOL0     H32833   2.557  11.083   3.789 -1.6653 -0.5922 -1.3871
  238MOL0     H32834   2.480  11.370   3.744 -0.2445 -0.2958 -1.9537
  238MOL0     H32835   2.416  11.230   3.657 -1.7816  1.7263  1.1880
  238MOL0     H32836   2.647  11.376   3.605  0.7974  1.1038 -1.4211
  238MOL0     H32837   2.711  11.219   3.648 -0.9145 -0.3880  2.6134
  238MOL0     H32838   2.492  11.282   3.445 -1.4919 -0.4071  3.1267
  238MOL0     H32839   2.544  11.117   3.461  1.3168 -0.4626 -0.8651
  238MOL0     H32840   2.837  11.268   3.212  1.8997 -2.0966  0.4414
  238MOL0     H32841   2.607  11.013   4.005 -1.0206 -0.3817 -1.5889
  238MOL0     H32842   2.601  10.799   4.284 -0.1563 -0.1184  0.2714
  238MOL0     H32843   2.700  10.871   4.166  0.5170  0.6461  0.7691
  238MOL0     H32844   2.669  10.964   4.314  1.5934 -0.1543 -0.3315
  239MOL0     O32845   3.178   4.876   2.471 -0.3136 -1.0471  0.0301
  239MOL0     C32846   3.290   4.851   2.424 -0.2634  0.3160 -0.7212
  239MOL0     O32847   3.364   4.734   2.445 -0.7506  0.6248  0.4591
  239MOL0     C32848   3.296   4.626   2.506 -0.1674 -1.3309  0.6906
  239MOL0     C32849   3.175   4.585   2.449 -0.5150 -0.5500 -0.0434
  239MOL0     C32850   3.118   4.471   2.490  0.0012 -0.9130 -0.7871
  239MOL0     C32851   3.174   4.400   2.602  0.8291  0.2598  1.0080
  239MOL0     O32852   3.094   4.305   2.670  0.2112  0.6167 -0.0799
  239MOL0     C32853   3.077   4.327   2.813  0.5792 -1.1243  0.9251
  239MOL0     C32854   3.032   4.199   2.865  0.7746  0.1353  0.2856
  239MOL0     C32855   3.004   4.206   3.005  0.2163  0.4761  0.4616
  239MOL0     C32856   2.952   4.072   3.053  0.1079 -0.5399 -0.0677
  239MOL0     C32857   2.877   4.081   3.185  0.4515 -0.5763 -0.8642
  239MOL0     C32858   2.724   4.084   3.169 -0.8171  0.1472 -0.1929
  239MOL0     C32859   2.654   4.098   3.297 -0.4606 -0.5171 -0.9565
  239MOL0     C32860   2.518   4.024   3.299  0.6775 -0.1707 -0.6214
  239MOL0     N32861   2.418   4.118   3.233 -0.1021  0.0547 -0.3661
  239MOL0     C32862   2.321   4.189   3.297 -0.6579 -0.0294 -0.8563
  239MOL0     C32863   2.236   4.232   3.201  0.5718 -0.8457  0.7325
  239MOL0     C32864   2.115   4.324   3.223  0.6637  0.9159  0.7187
  239MOL0     C32865   2.137   4.468   3.153  0.4306 -0.5826  0.2257
  239MOL0     C32866   2.281   4.534   3.182  0.0378  0.0152 -0.2505
  239MOL0     C32867   2.284   4.684   3.178 -0.0019  0.3465 -0.2951
  239MOL0     O32868   2.228   4.732   3.297 -0.4088  0.2234  0.6319
  239MOL0     C32869   2.232   4.870   3.315 -0.5092  0.5700 -0.0848
  239MOL0     C32870   2.268   4.966   3.215 -0.1272  0.1102  0.5383
  239MOL0     C32871   2.281   5.104   3.240  0.4238 -0.4866  0.6775
  239MOL0     C32872   2.325   5.185   3.121  0.2332 -0.2041  0.5943
  239MOL0     C32873   2.260   5.150   3.372  0.5034  0.2414  1.2213
  239MOL0     C32874   2.277   5.290   3.417 -0.1696 -0.0747  0.4453
  239MOL0     O32875   2.222   5.330   3.533  0.6690  0.3866  0.5515
  239MOL0     C32876   2.223   5.457   3.579  0.1657  0.3239 -0.4505
  239MOL0     C32877   2.226   5.474   3.717 -0.2397 -0.9631  0.1937
  239MOL0     C32878   2.225   5.605   3.781  0.5651  0.5536 -0.2261
  239MOL0     C32879   2.224   5.719   3.701 -0.1895 -0.0539 -0.0684
  239MOL0     O32880   2.189   5.845   3.752 -0.4750  0.7648 -0.2765
  239MOL0     C32881   2.180   5.868   3.894  0.3888  0.9695 -0.1603
  239MOL0     C32882   2.055   5.821   3.965 -1.2257 -0.2959  0.5592
  239MOL0     C32883   2.057   5.844   4.110 -0.3463  0.0419  0.8130
  239MOL0     C32884   2.059   5.986   4.165 -0.5363  0.6742  0.1771
  239MOL0     C32885   1.915   6.029   4.210 -0.5498 -0.4244 -0.4964
  239MOL0     C32886   1.927   6.174   4.270  0.2431 -0.5788  0.0991
  239MOL0     C32887   1.788   6.230   4.317 -1.0266 -0.0943 -0.5939
  239MOL0     C32888   1.705   6.153   4.422  0.0196  0.0703  0.4194
  239MOL0    Cl32889   1.581   6.072   4.328 -0.1341  0.4015  0.5209
  239MOL0     C32890   2.215   5.697   3.561  0.5297 -0.5735  0.0164
  239MOL0     C32891   2.203   5.570   3.508  0.6742  0.2908  0.1922
  239MOL0     O32892   2.330   5.367   3.331  0.1757 -0.6609 -0.2064
  239MOL0     C32893   2.222   5.054   3.468  0.6356 -0.1307  0.1514
  239MOL0     C32894   2.218   4.916   3.443  0.2118  0.8176  0.3104
  239MOL0     N32895   2.287   4.201   3.075  0.8603 -0.0721  0.1846
  239MOL0     N32896   2.390   4.126   3.097 -0.4010 -0.4894 -0.0178
  239MOL0     C32897   3.299   4.443   2.651  0.5812 -0.9184 -0.1268
  239MOL0     C32898   3.364   4.554   2.601 -0.1604  0.9926  0.6110
  239MOL0     C32899   3.343   4.944   2.323  0.2808  0.3306 -0.0548
  239MOL0     C32900   3.272   5.067   2.310 -0.2291  0.3867  0.3818
  239MOL0     C32901   3.322   5.170   2.236 -0.6448 -0.1146 -0.4714
  239MOL0     C32902   3.426   5.155   2.143  0.5016 -0.2847  0.6035
  239MOL0     O32903   3.463   5.258   2.062 -0.1727 -0.4334  0.9556
  239MOL0     C32904   3.599   5.261   2.006 -0.6027  0.1843 -0.2786
  239MOL0     C32905   3.697   5.274   2.127  1.4255  0.8042 -0.1503
  239MOL0     C32906   3.837   5.230   2.079  0.2810  0.1030  0.1380
  239MOL0     C32907   3.944   5.265   2.179 -0.0596  1.2852 -0.2066
  239MOL0     C32908   4.073   5.224   2.131  0.7655  0.1197 -0.4566
  239MOL0     C32909   4.188   5.187   2.117 -0.2113  0.3501 -0.1071
  239MOL0     C32910   3.485   5.031   2.140 -0.1123  0.7247  0.5636
  239MOL0     C32911   3.448   4.925   2.229  0.5354  0.0539  0.1834
  239MOL0     C32912   3.513   4.796   2.205 -0.6182 -0.4932  0.5203
  239MOL0     H32913   3.111   4.637   2.377 -0.8301  0.1952  0.7566
  239MOL0     H32914   3.037   4.415   2.445  0.6708 -1.2839 -1.5732
  239MOL0     H32915   3.001   4.404   2.830  2.5511  1.2699 -0.3613
  239MOL0     H32916   3.173   4.360   2.854  0.7331 -1.7575  1.0903
  239MOL0     H32917   2.944   4.165   2.810  1.7788  0.8597 -1.8717
  239MOL0     H32918   3.112   4.127   2.842  0.2346 -0.0887 -0.9462
  239MOL0     H32919   3.103   4.219   3.049  1.6994 -4.0804 -0.9044
  239MOL0     H32920   2.926   4.281   3.021  2.4096  2.8954  0.3896
  239MOL0     H32921   2.884   4.037   2.975  0.1881  4.5024 -2.8296
  239MOL0     H32922   3.033   4.000   3.067  1.8871  1.1255 -1.1901
  239MOL0     H32923   2.903   4.173   3.237 -0.1218 -0.9703  0.1600
  239MOL0     H32924   2.922   4.009   3.255  3.6525  1.1382 -0.9717
  239MOL0     H32925   2.694   4.168   3.106 -3.5244  0.6329  1.5416
  239MOL0     H32926   2.687   3.998   3.112  0.0802 -0.3390 -0.0564
  239MOL0     H32927   2.656   4.204   3.325  1.7636 -0.6885 -0.3420
  239MOL0     H32928   2.722   4.053   3.370  0.0861 -0.1571 -1.2407
  239MOL0     H32929   2.527   3.926   3.250 -2.0087  0.1907 -2.0192
  239MOL0     H32930   2.480   4.013   3.400 -1.6682 -2.6726 -1.6486
  239MOL0     H32931   2.326   4.219   3.401  0.3104  0.6248 -1.0688
  239MOL0     H32932   2.080   4.326   3.326 -1.1172 -1.3867  0.2457
  239MOL0     H32933   2.020   4.286   3.183  0.0064 -0.1050  3.0718
  239MOL0     H32934   2.109   4.464   3.048  1.8417 -0.6781 -0.1686
  239MOL0     H32935   2.060   4.536   3.191 -3.6158 -2.5687 -3.4699
  239MOL0     H32936   2.320   4.505   3.280  3.4033  0.2093 -1.3690
  239MOL0     H32937   2.355   4.485   3.117 -1.9359  0.4832 -3.0308
  239MOL0     H32938   2.386   4.715   3.152 -0.8788  1.2999 -2.9081
  239MOL0     H32939   2.222   4.719   3.095  0.4184  0.3773 -0.6012
  239MOL0     H32940   2.296   4.923   3.119 -1.3484  3.1057 -1.3247
  239MOL0     H32941   2.433   5.193   3.128  0.1964 -0.1631  1.2478
  239MOL0     H32942   2.276   5.284   3.124 -1.2182 -0.6393 -3.1091
  239MOL0     H32943   2.287   5.134   3.032 -0.3431 -1.0219  1.2923
  239MOL0     H32944   2.242   5.382   3.774  0.5035 -0.2211  1.2175
  239MOL0     H32945   2.224   5.627   3.887  0.8190 -0.3682 -0.0209
  239MOL0     H32946   2.270   5.832   3.943 -1.4167 -1.7225  1.4429
  239MOL0     H32947   2.188   5.977   3.896  0.1806  0.9973  2.2315
  239MOL0     H32948   1.975   5.877   3.915 -2.6906 -2.9455 -0.2329
  239MOL0     H32949   2.037   5.715   3.948 -0.8197 -0.1837 -0.6512
  239MOL0     H32950   2.152   5.800   4.142 -0.2563 -2.3118 -2.2489
  239MOL0     H32951   1.967   5.794   4.148 -0.6918 -0.4622 -0.6045
  239MOL0     H32952   2.105   6.056   4.094  2.7194  0.2967  1.7436
  239MOL0     H32953   2.118   5.972   4.256  2.0108 -1.1149 -1.6197
  239MOL0     H32954   1.849   6.024   4.122 -1.3522 -0.8441  0.1145
  239MOL0     H32955   1.875   5.956   4.281  1.0035  0.6409  1.5771
  239MOL0     H32956   1.964   6.237   4.190  0.3886 -1.4176 -0.5017
  239MOL0     H32957   1.992   6.176   4.359  0.5653  1.3207 -0.1447
  239MOL0     H32958   1.732   6.257   4.227  0.1626  1.7439 -0.8320
  239MOL0     H32959   1.801   6.331   4.355  0.4787 -0.2573 -0.6130
  239MOL0     H32960   1.643   6.220   4.483 -1.7336 -3.2341  2.5306
  239MOL0     H32961   1.766   6.083   4.479 -3.5257 -3.9342 -0.2449
  239MOL0     H32962   2.194   5.773   3.486  0.7938 -1.6189 -1.1533
  239MOL0     H32963   2.187   5.572   3.401 -3.2198 -0.3215  0.5976
  239MOL0     H32964   2.207   5.084   3.571 -0.2848  2.2062 -0.5916
  239MOL0     H32965   2.198   4.844   3.522  1.2926  0.2507  0.0876
  239MOL0     H32966   3.346   4.388   2.731 -0.0412  0.7743  1.4554
  239MOL0     H32967   3.461   4.587   2.638 -0.0695 -0.6186  1.9488
  239MOL0     H32968   3.191   5.095   2.376 -0.0207 -1.6428  1.6113
  239MOL0     H32969   3.276   5.267   2.223 -0.6823 -0.1734 -0.7855
  239MOL0     H32970   3.611   5.171   1.945 -0.7760  0.5723 -0.8887
  239MOL0     H32971   3.611   5.345   1.937  1.7005  0.9220  0.9374
  239MOL0     H32972   3.672   5.211   2.213  0.7617 -0.2478 -1.0951
  239MOL0     H32973   3.705   5.380   2.155  2.1535  0.6587  0.2183
  239MOL0     H32974   3.831   5.122   2.061  0.0846  0.3586 -1.5073
  239MOL0     H32975   3.862   5.286   1.987  0.2928 -1.1034 -0.6135
  239MOL0     H32976   3.918   5.208   2.269 -0.3066 -1.5194 -1.9324
  239MOL0     H32977   3.950   5.369   2.211  1.0253 -0.2655  5.8837
  239MOL0     H32978   4.293   5.167   2.104 -0.0533 -0.7869  2.3226
  239MOL0     H32979   3.557   5.017   2.060  1.6705 -1.9132  2.4403
  239MOL0     H32980   3.441   4.714   2.197 -0.6514 -0.2910 -2.0169
  239MOL0     H32981   3.573   4.791   2.114  0.7299  1.1751  1.2521
  239MOL0     H32982   3.581   4.782   2.289  0.1133  1.4338  0.3107
  240MOL0     O32983   5.417   0.960   5.554  0.1029  0.3953 -0.0182
  240MOL0     C32984   5.399   1.075   5.598 -0.3207 -0.4602 -0.1919
  240MOL0     O32985   5.314   1.120   5.696  0.4158  0.8635 -0.7871
  240MOL0     C32986   5.217   1.042   5.755 -0.1144 -0.1930 -0.2894
  240MOL0     C32987   5.235   0.909   5.787 -0.6709  0.7922  1.0370
  240MOL0     C32988   5.137   0.837   5.850  0.4785  0.6079 -0.1172
  240MOL0     C32989   5.013   0.892   5.868  0.3213  0.3826 -0.3365
  240MOL0     O32990   4.905   0.816   5.911 -0.1438 -0.4839 -0.3972
  240MOL0     C32991   4.848   0.857   6.040 -0.7122 -0.7639  1.2687
  240MOL0     C32992   4.901   0.763   6.146  0.7406 -0.0320 -0.1404
  240MOL0     C32993   4.874   0.816   6.290  0.3443 -0.0658 -0.3223
  240MOL0     C32994   4.730   0.862   6.318  0.1777  0.8221  0.0292
  240MOL0     C32995   4.630   0.744   6.329 -0.5308  0.3091 -0.2058
  240MOL0     C32996   4.493   0.794   6.392 -0.4520  0.3988  0.1589
  240MOL0     C32997   4.406   0.670   6.405  0.3571 -0.0121  0.0176
  240MOL0     C32998   4.284   0.705   6.484  0.3702  0.3393  0.3947
  240MOL0     N32999   4.233   0.590   6.557 -0.0650  0.2657 -0.0958
  240MOL0     C33000   4.208   0.463   6.515  0.7515  0.6964  0.5181
  240MOL0     C33001   4.175   0.390   6.619 -0.0060 -0.1531 -0.7855
  240MOL0     C33002   4.125   0.247   6.636  0.5911 -0.5229  0.4441
  240MOL0     C33003   3.979   0.259   6.687  0.9847 -0.5502 -0.9836
  240MOL0     C33004   3.910   0.123   6.708 -0.3453 -0.6307 -0.3178
  240MOL0     C33005   3.760   0.125   6.689  0.9238 -0.6269  0.0220
  240MOL0     O33006   3.709   0.207   6.785 -0.7448 -0.5438 -0.7252
  240MOL0     C33007   3.577   0.221   6.812 -0.2932  0.2536 -0.6018
  240MOL0     C33008   3.473   0.194   6.731  0.2958  0.0142 -0.6553
  240MOL0     C33009   3.335   0.208   6.773  0.5364  0.4903 -0.3425
  240MOL0     C33010   3.227   0.187   6.669 -0.7402 -1.0409 -0.3473
  240MOL0     C33011   3.312   0.236   6.910 -0.0547 -0.2446  0.1209
  240MOL0     C33012   3.177   0.230   6.982 -0.8785 -0.4956  0.0375
  240MOL0     O33013   3.181   0.277   7.116 -0.5581  0.5964 -0.3735
  240MOL0     C33014   3.103   0.205   7.205  0.1563 -0.4464 -0.3122
  240MOL0     C33015   2.998   0.265   7.281  0.2102  0.2308  0.9607
  240MOL0     C33016   2.919   0.201   7.375  0.1073  0.0109  0.3650
  240MOL0     C33017   2.957   0.071   7.407  0.0125  0.9010  0.5691
  240MOL0     O33018   2.919   0.007   7.525 -0.2423 -0.2821 -0.4582
  240MOL0     C33019   2.772   0.005   7.527 -0.8914 -1.0282  0.5963
  240MOL0     C33020   2.715  -0.117   7.584  0.3412  0.2875 -0.0085
  240MOL0     C33021   2.727  -0.125   7.736 -0.4159  0.7202  0.5912
  240MOL0     C33022   2.684  -0.272   7.777  0.0677 -0.0847  0.0762
  240MOL0     C33023   2.534  -0.301   7.766  0.2773  1.3023 -0.3348
  240MOL0     C33024   2.493  -0.426   7.853  0.8310 -0.2487 -0.5600
  240MOL0     C33025   2.545  -0.555   7.801  1.1717 -0.6139  0.3435
  240MOL0     C33026   2.563  -0.671   7.895 -1.0384  0.3110  1.3347
  240MOL0    Cl33027   2.645  -0.610   8.050 -0.7035 -0.3493 -0.4845
  240MOL0     C33028   3.059   0.001   7.330  0.6916 -0.2384 -0.0604
  240MOL0     C33029   3.131   0.067   7.230  0.0127 -0.9576  0.5348
  240MOL0     O33030   3.075   0.179   6.937 -0.5527  0.1115 -0.0489
  240MOL0     C33031   3.429   0.266   6.989  0.4642 -0.2803 -0.1877
  240MOL0     C33032   3.556   0.257   6.941 -0.2508 -0.3295  0.3675
  240MOL0     N33033   4.171   0.475   6.732 -0.6412 -0.0082  0.4869
  240MOL0     N33034   4.208   0.587   6.689  0.0541 -0.6558  0.3494
  240MOL0     C33035   4.991   1.029   5.841  0.4009  0.3720  0.6459
  240MOL0     C33036   5.099   1.103   5.791  0.2713 -0.0465  0.2639
  240MOL0     C33037   5.469   1.181   5.531  0.2803 -0.8119  0.3606
  240MOL0     C33038   5.612   1.164   5.517  0.5083  1.1577 -0.6066
  240MOL0     C33039   5.689   1.261   5.460  1.1760  0.2330  0.4415
  240MOL0     C33040   5.629   1.372   5.398  0.6057 -0.1255 -0.2336
  240MOL0     O33041   5.691   1.467   5.312  0.4062 -0.5899  0.6164
  240MOL0     C33042   5.826   1.492   5.319 -0.4050 -0.0255 -0.8793
  240MOL0     C33043   5.915   1.411   5.224  0.0999 -0.8067  0.0812
  240MOL0     C33044   6.056   1.421   5.278 -1.1277  0.5334  0.5464
  240MOL0     C33045   6.165   1.349   5.195  0.3419  0.0419 -0.5322
  240MOL0     C33046   6.138   1.201   5.193 -0.4333  0.0236  0.2751
  240MOL0     C33047   6.123   1.080   5.171  0.9307  0.0405 -0.5193
  240MOL0     C33048   5.491   1.385   5.413 -0.0248 -0.0763  0.0364
  240MOL0     C33049   5.407   1.298   5.476 -0.0100  0.0083  0.4937
  240MOL0     C33050   5.261   1.318   5.510  0.7593  0.2588 -0.2874
  240MOL0     H33051   5.332   0.864   5.769 -1.1740  0.7382 -2.2010
  240MOL0     H33052   5.140   0.732   5.876 -1.2206  0.4213 -0.5501
  240MOL0     H33053   4.739   0.859   6.041 -0.7412  0.0207 -0.4409
  240MOL0     H33054   4.885   0.958   6.058 -0.4315 -0.7671  0.7426
  240MOL0     H33055   4.853   0.666   6.133 -1.3875  1.2378 -2.6579
  240MOL0     H33056   5.008   0.756   6.123  1.0108  0.6635  0.8483
  240MOL0     H33057   4.906   0.744   6.367 -0.3799  0.4231  0.4498
  240MOL0     H33058   4.939   0.904   6.294  0.1672  0.0280  1.2621
  240MOL0     H33059   4.744   0.914   6.413 -1.1694  2.5770 -0.6849
  240MOL0     H33060   4.683   0.936   6.252 -1.7606  1.1187  1.6419
  240MOL0     H33061   4.674   0.661   6.384  1.2188  1.3719  0.0820
  240MOL0     H33062   4.604   0.710   6.228 -1.4982 -0.4128  0.2664
  240MOL0     H33063   4.511   0.838   6.491 -1.1230  3.7356 -1.0717
  240MOL0     H33064   4.450   0.869   6.325  0.7705  0.2880 -0.7932
  240MOL0     H33065   4.469   0.591   6.446  2.6135  2.5917  1.8816
  240MOL0     H33066   4.372   0.629   6.309  1.5231 -0.8136 -0.0746
  240MOL0     H33067   4.296   0.783   6.560  0.2778  2.0986 -1.3203
  240MOL0     H33068   4.209   0.744   6.415  0.3622 -0.7529 -0.2359
  240MOL0     H33069   4.210   0.439   6.409  0.2462 -2.5338  1.1529
  240MOL0     H33070   4.188   0.192   6.706  1.4553  1.8797  1.6683
  240MOL0     H33071   4.127   0.193   6.541  0.1151 -2.6153  1.5559
  240MOL0     H33072   3.969   0.311   6.783 -1.3969 -2.8473  0.1647
  240MOL0     H33073   3.930   0.315   6.608 -0.5421  0.6964  0.7512
  240MOL0     H33074   3.941   0.066   6.621 -2.0428  0.3584 -1.6460
  240MOL0     H33075   3.916   0.062   6.799 -0.3572  3.3652  2.6583
  240MOL0     H33076   3.742   0.158   6.586  6.0141 -0.0441 -0.9466
  240MOL0     H33077   3.715   0.027   6.704 -0.8430 -0.1099 -1.5850
  240MOL0     H33078   3.485   0.156   6.630 -2.0609  0.5133 -1.1701
  240MOL0     H33079   3.246   0.253   6.584 -2.2710  1.7800  1.3334
  240MOL0     H33080   3.137   0.224   6.720  0.7985 -1.1171  2.6599
  240MOL0     H33081   3.219   0.081   6.645  2.4091 -1.4512 -0.0473
  240MOL0     H33082   2.979   0.371   7.278 -0.1912  0.1766  1.3843
  240MOL0     H33083   2.847   0.254   7.438  0.0526  0.7899 -0.3318
  240MOL0     H33084   2.746   0.090   7.591 -0.8447 -0.3979 -0.2033
  240MOL0     H33085   2.717   0.020   7.434  0.0551 -2.3213 -0.2014
  240MOL0     H33086   2.606  -0.118   7.569  0.4968 -1.4342 -1.3824
  240MOL0     H33087   2.759  -0.203   7.533  1.7124  0.5875  0.6486
  240MOL0     H33088   2.667  -0.048   7.785 -0.4664  1.2388 -0.2619
  240MOL0     H33089   2.833  -0.107   7.755  0.1431 -1.7666  0.1841
  240MOL0     H33090   2.715  -0.273   7.882  1.5509  0.3096 -0.3341
  240MOL0     H33091   2.733  -0.347   7.715 -2.6661 -0.2682 -2.0672
  240MOL0     H33092   2.478  -0.217   7.808 -1.1210  0.5238 -0.5810
  240MOL0     H33093   2.497  -0.316   7.664 -1.6395  0.5947  0.4167
  240MOL0     H33094   2.385  -0.429   7.864  0.7161  1.3715 -0.9388
  240MOL0     H33095   2.538  -0.415   7.952 -0.7191 -1.4609  0.3266
  240MOL0     H33096   2.646  -0.548   7.760  0.8502 -1.8125 -0.7392
  240MOL0     H33097   2.485  -0.590   7.716 -3.4341  1.5350  2.3370
  240MOL0     H33098   2.621  -0.736   7.829 -2.6963  1.9777 -2.0231
  240MOL0     H33099   2.476  -0.732   7.920  0.2941 -3.1791 -1.6457
  240MOL0     H33100   3.096  -0.087   7.381  1.7875  2.1639  3.7666
  240MOL0     H33101   3.221   0.028   7.183 -0.2581  0.7113 -1.5360
  240MOL0     H33102   3.415   0.286   7.095  1.7061  1.2630 -0.2894
  240MOL0     H33103   3.637   0.283   7.008 -0.6821  2.7063 -0.1414
  240MOL0     H33104   4.888   1.062   5.834  0.0696 -0.8619 -1.0772
  240MOL0     H33105   5.072   1.208   5.780 -0.3162  0.5476  5.1483
  240MOL0     H33106   5.651   1.068   5.549 -0.3622 -0.5475 -4.1398
  240MOL0     H33107   5.797   1.257   5.447  1.0169 -1.1004 -0.6797
  240MOL0     H33108   5.844   1.600   5.316  1.8268 -0.1741  2.2094
  240MOL0     H33109   5.867   1.465   5.418  0.1800  2.2357 -0.4400
  240MOL0     H33110   5.907   1.460   5.127 -2.0028 -1.2727 -0.0373
  240MOL0     H33111   5.864   1.314   5.230 -0.6332 -0.4792 -0.6369
  240MOL0     H33112   6.098   1.521   5.261  0.7551 -0.2870  0.0950
  240MOL0     H33113   6.055   1.386   5.381  0.2911  1.4447  0.9110
  240MOL0     H33114   6.265   1.364   5.236  0.7624  2.6495 -2.2903
  240MOL0     H33115   6.152   1.392   5.095 -0.9103  0.7572 -0.0840
  240MOL0     H33116   6.112   0.980   5.134  1.6360 -0.9956  1.8717
  240MOL0     H33117   5.442   1.468   5.363 -0.3069  0.7714  1.6678
  240MOL0     H33118   5.250   1.380   5.599  1.0094 -0.4830  0.2678
  240MOL0     H33119   5.212   1.376   5.431  0.8493  1.2135  0.3381
  240MOL0     H33120   5.207   1.223   5.505  1.3234 -0.1766  1.2580
  241MOL0     O33121   7.257   3.083   9.089  0.0725 -0.7441  1.3183
  241MOL0     C33122   7.348   3.140   9.033 -0.6666 -0.2005  0.0771
  241MOL0     O33123   7.350   3.200   8.904  0.2328  0.8417 -0.6901
  241MOL0     C33124   7.246   3.146   8.827 -0.6628  0.3116  0.3310
  241MOL0     C33125   7.126   3.212   8.813 -0.1652 -0.3844 -0.2635
  241MOL0     C33126   7.018   3.165   8.739  0.4073  0.8767  0.2212
  241MOL0     C33127   7.027   3.048   8.674  0.0617 -0.2014  0.0697
  241MOL0     O33128   6.924   3.001   8.601 -1.0496  0.7111  0.2563
  241MOL0     C33129   6.828   2.921   8.677 -0.3279 -0.6357  0.3556
  241MOL0     C33130   6.881   2.774   8.669 -0.1649 -0.0965 -0.2693
  241MOL0     C33131   6.808   2.691   8.786 -0.1961 -0.9763 -0.1043
  241MOL0     C33132   6.830   2.542   8.776 -0.5687  0.6033 -0.5333
  241MOL0     C33133   6.778   2.457   8.902  0.5593  0.4547 -0.0372
  241MOL0     C33134   6.839   2.324   8.929  0.0993  0.3858 -0.7602
  241MOL0     C33135   6.990   2.326   8.969  0.3441 -1.3083  0.5953
  241MOL0     C33136   7.024   2.191   9.038 -0.4143 -0.8286 -0.2776
  241MOL0     N33137   7.004   2.075   8.951  0.1055 -0.0500 -0.6545
  241MOL0     C33138   7.030   2.040   8.820 -0.2677 -0.3511 -0.1878
  241MOL0     C33139   6.967   1.917   8.804 -0.2814  0.4950  0.4625
  241MOL0     C33140   6.993   1.810   8.700  0.4544  0.4381  0.2925
  241MOL0     C33141   6.900   1.846   8.582 -0.4026  0.8212 -0.8563
  241MOL0     C33142   6.904   1.735   8.473  0.0914  0.6587  0.8542
  241MOL0     C33143   7.036   1.748   8.396  0.4030 -0.1701 -0.2915
  241MOL0     O33144   7.059   1.693   8.261 -0.3409 -0.0366 -0.0285
  241MOL0     C33145   6.998   1.731   8.149  0.4554 -0.4579 -0.1272
  241MOL0     C33146   6.913   1.840   8.146 -0.3208 -0.9439  0.6438
  241MOL0     C33147   6.844   1.874   8.028 -0.1972 -0.4780 -0.6173
  241MOL0     C33148   6.741   1.990   8.028  1.0197 -0.1606 -0.9471
  241MOL0     C33149   6.877   1.810   7.906  0.2824  0.6362  0.6243
  241MOL0     C33150   6.801   1.814   7.777  0.0671 -0.4256 -0.0180
  241MOL0     O33151   6.666   1.802   7.796  0.2359  0.3306  0.6201
  241MOL0     C33152   6.580   1.802   7.691  0.6714 -0.6284  0.4233
  241MOL0     C33153   6.594   1.707   7.582  0.3886 -0.5699 -0.2687
  241MOL0     C33154   6.490   1.700   7.487  0.3393  0.2616 -0.4395
  241MOL0     C33155   6.373   1.784   7.499 -0.8396  0.9868  0.4748
  241MOL0     O33156   6.263   1.789   7.421  0.5602 -0.3281 -0.0393
  241MOL0     C33157   6.264   1.740   7.298 -1.2840  0.8266 -0.3042
  241MOL0     C33158   6.132   1.773   7.222  0.7284  0.2699  0.2417
  241MOL0     C33159   6.161   1.872   7.117 -0.6170 -0.6785 -0.5543
  241MOL0     C33160   6.018   1.896   7.044 -0.2963  0.1412  0.5065
  241MOL0     C33161   6.003   2.023   6.969 -0.3218  0.0736  1.1635
  241MOL0     C33162   5.859   2.082   6.951  0.2192  0.0520  0.4951
  241MOL0     C33163   5.858   2.193   6.845  0.0980  0.0028 -0.0962
  241MOL0     C33164   5.721   2.259   6.834  0.3579 -0.2967 -0.4759
  241MOL0    Cl33165   5.663   2.347   6.982  0.0338 -0.1259  0.2862
  241MOL0     C33166   6.372   1.885   7.598 -0.7337 -0.7526  0.6547
  241MOL0     C33167   6.474   1.899   7.695 -0.4997 -0.7516  0.1982
  241MOL0     O33168   6.861   1.847   7.677  0.3276  0.0789  0.0025
  241MOL0     C33169   6.972   1.708   7.910 -0.1000  1.1000 -0.3156
  241MOL0     C33170   7.022   1.656   8.031  0.9290  0.3190  0.0316
  241MOL0     N33171   6.913   1.870   8.921  0.4497 -0.3225  0.2659
  241MOL0     N33172   6.935   1.965   9.008  0.6837 -0.8240 -0.2349
  241MOL0     C33173   7.153   2.988   8.665 -0.3747  0.1683 -0.7929
  241MOL0     C33174   7.257   3.020   8.759 -0.5215  1.2849  0.4427
  241MOL0     C33175   7.480   3.149   9.106  0.1411 -0.3383 -1.0120
  241MOL0     C33176   7.561   3.259   9.071  0.8651  0.7190  0.6073
  241MOL0     C33177   7.683   3.280   9.127 -0.5835 -0.1996 -0.3510
  241MOL0     C33178   7.738   3.195   9.218 -0.6322 -0.4775 -0.2953
  241MOL0     O33179   7.870   3.223   9.271 -0.2651 -0.2640  0.5062
  241MOL0     C33180   7.914   3.360   9.268 -0.1043 -0.5349  0.7567
  241MOL0     C33181   8.060   3.368   9.310 -1.3380  0.3980 -0.3588
  241MOL0     C33182   8.072   3.455   9.437  0.1047  0.0798 -0.9619
  241MOL0     C33183   8.208   3.443   9.498 -0.5344  0.0622 -0.4723
  241MOL0     C33184   8.323   3.484   9.416 -0.5359 -0.8736 -0.6478
  241MOL0     C33185   8.415   3.531   9.348  0.8179  0.3372 -0.6398
  241MOL0     C33186   7.656   3.085   9.261 -0.1735 -0.4527  0.1191
  241MOL0     C33187   7.530   3.066   9.208 -0.2544 -0.0655 -0.5270
  241MOL0     C33188   7.473   2.936   9.268  0.2303  0.2580 -0.5696
  241MOL0     H33189   7.109   3.301   8.874 -0.3099  0.4123 -1.4254
  241MOL0     H33190   6.924   3.220   8.747 -1.8829 -2.9004  2.6169
  241MOL0     H33191   6.731   2.915   8.626 -0.7592  1.4011  0.8569
  241MOL0     H33192   6.801   2.944   8.781 -2.9893 -1.4635 -0.0551
  241MOL0     H33193   6.867   2.723   8.574  1.9195 -0.3609 -0.4925
  241MOL0     H33194   6.987   2.773   8.697  0.0213  1.9093 -0.7665
  241MOL0     H33195   6.825   2.737   8.884  1.5858  0.0585 -0.8566
  241MOL0     H33196   6.703   2.714   8.765  0.0065 -2.2040 -2.8163
  241MOL0     H33197   6.781   2.509   8.683  2.8537  0.2148 -2.3420
  241MOL0     H33198   6.936   2.519   8.761 -0.7944  1.1781 -3.7280
  241MOL0     H33199   6.669   2.454   8.891  0.5597 -0.4688  0.0859
  241MOL0     H33200   6.794   2.525   8.986  2.4333 -0.0887  0.0962
  241MOL0     H33201   6.776   2.286   9.011  1.0381 -0.9359 -0.6140
  241MOL0     H33202   6.833   2.254   8.845  0.2965 -1.0221  0.3489
  241MOL0     H33203   7.003   2.398   9.051 -0.8695 -1.1626  0.6803
  241MOL0     H33204   7.053   2.357   8.886 -0.0251  1.4837  1.2421
  241MOL0     H33205   7.120   2.183   9.090 -0.0503 -1.0000 -0.9626
  241MOL0     H33206   6.952   2.187   9.120  1.6695  2.0153  1.8689
  241MOL0     H33207   7.106   2.083   8.756  1.4564  4.2785  4.3148
  241MOL0     H33208   6.987   1.707   8.737 -3.8292 -0.1438 -1.5289
  241MOL0     H33209   7.099   1.818   8.674  0.9308 -0.9411  1.6262
  241MOL0     H33210   6.800   1.838   8.626  0.3709 -1.0284  0.7109
  241MOL0     H33211   6.925   1.944   8.540  2.0997 -0.7596 -3.3429
  241MOL0     H33212   6.887   1.642   8.527  0.0035  0.7429  0.9706
  241MOL0     H33213   6.820   1.754   8.406 -2.1315 -0.7186  3.0609
  241MOL0     H33214   7.068   1.853   8.394 -0.5363  0.1239 -2.4013
  241MOL0     H33215   7.116   1.700   8.453 -1.0065 -2.6463 -0.2606
  241MOL0     H33216   6.895   1.908   8.229 -3.7333  1.7785 -2.0005
  241MOL0     H33217   6.636   1.961   8.031  1.2312 -0.8995 -0.2977
  241MOL0     H33218   6.759   2.062   7.948 -1.9388  2.6963  0.7121
  241MOL0     H33219   6.761   2.043   8.122 -3.1623  0.4623 -0.2416
  241MOL0     H33220   6.686   1.650   7.583  1.3375  0.9116  0.1078
  241MOL0     H33221   6.476   1.622   7.412 -3.3246  1.2084 -0.9585
  241MOL0     H33222   6.349   1.788   7.248 -0.0206 -0.0018  0.9388
  241MOL0     H33223   6.290   1.634   7.308 -1.4712  0.9276  1.4738
  241MOL0     H33224   6.087   1.688   7.169 -0.1499 -0.9959  2.8194
  241MOL0     H33225   6.048   1.808   7.282 -0.2411  1.4948 -1.7245
  241MOL0     H33226   6.236   1.848   7.042  1.4731  2.0040  0.5240
  241MOL0     H33227   6.202   1.957   7.172 -0.3831 -1.9717  1.3729
  241MOL0     H33228   5.931   1.890   7.110 -2.5368 -1.3379 -2.3431
  241MOL0     H33229   5.999   1.817   6.970  0.2989  2.4438 -2.3266
  241MOL0     H33230   6.067   2.105   7.001 -0.2590 -0.1405  1.5982
  241MOL0     H33231   6.033   2.006   6.865 -0.6793  1.1498  0.8800
  241MOL0     H33232   5.819   2.124   7.044 -1.1421 -1.9888  0.9145
  241MOL0     H33233   5.790   2.005   6.914  0.4105  0.2572 -0.2973
  241MOL0     H33234   5.899   2.155   6.751  0.4481 -0.5285  0.2683
  241MOL0     H33235   5.934   2.267   6.874  1.9879 -0.8877 -2.4439
  241MOL0     H33236   5.645   2.183   6.813 -1.3943  0.0869  3.4873
  241MOL0     H33237   5.718   2.321   6.744  0.3097 -0.1837 -0.3971
  241MOL0     H33238   6.283   1.946   7.601 -0.7085 -0.7152  0.6197
  241MOL0     H33239   6.463   1.975   7.771  3.1641 -1.1884  1.3393
  241MOL0     H33240   6.999   1.656   7.820 -0.4001 -0.0808  0.2580
  241MOL0     H33241   7.089   1.571   8.042  3.0528  1.8057 -0.6746
  241MOL0     H33242   7.170   2.897   8.608  1.0390 -1.4413  1.9760
  241MOL0     H33243   7.347   2.960   8.756  0.3090  2.5226 -1.4735
  241MOL0     H33244   7.523   3.333   9.002  1.6175 -2.0295 -3.0598
  241MOL0     H33245   7.738   3.370   9.102 -0.1856 -0.9330 -2.2781
  241MOL0     H33246   7.924   3.389   9.163 -0.2113 -1.5166  0.4659
  241MOL0     H33247   7.839   3.428   9.311 -1.2268  0.2107 -2.1781
  241MOL0     H33248   8.127   3.410   9.235 -0.4758  0.6872  0.5602
  241MOL0     H33249   8.095   3.265   9.327  1.8592  1.3491 -0.6979
  241MOL0     H33250   8.046   3.558   9.413  0.8550  0.6070  0.3723
  241MOL0     H33251   8.001   3.417   9.511  0.2287 -0.2211 -0.9932
  241MOL0     H33252   8.213   3.341   9.537  0.3168 -0.8241 -2.7528
  241MOL0     H33253   8.216   3.498   9.593 -0.2741  1.8974 -1.4995
  241MOL0     H33254   8.505   3.566   9.301  0.9850  1.4160  0.4349
  241MOL0     H33255   7.692   3.020   9.340  0.3809 -0.1771  0.1045
  241MOL0     H33256   7.367   2.928   9.243 -0.7162  1.4265  2.5295
  241MOL0     H33257   7.528   2.852   9.225  2.2101  1.4738 -0.5611
  241MOL0     H33258   7.490   2.946   9.376  0.0959  3.0052 -0.7411
  242MOL0     O33259   5.657   9.004   8.507 -0.7142  0.2599  0.3594
  242MOL0     C33260   5.626   8.887   8.527 -0.4402 -0.9220 -0.7091
  242MOL0     O33261   5.710   8.778   8.526  0.0721 -0.1907  0.6687
  242MOL0     C33262   5.833   8.773   8.464 -0.2851 -0.5338 -0.2303
  242MOL0     C33263   5.923   8.882   8.455 -0.1665  0.0534 -0.1024
  242MOL0     C33264   6.056   8.863   8.401  0.0804  0.6717 -0.2932
  242MOL0     C33265   6.095   8.743   8.348  0.6713  0.4149 -0.3439
  242MOL0     O33266   6.223   8.741   8.292 -0.5384 -0.8078 -1.2415
  242MOL0     C33267   6.251   8.642   8.195  0.1184 -0.5957  0.8875
  242MOL0     C33268   6.337   8.520   8.239  0.2546 -0.7464  0.8896
  242MOL0     C33269   6.344   8.405   8.137  0.6019 -0.0563 -0.4097
  242MOL0     C33270   6.406   8.273   8.188 -0.4598 -0.0536  0.4541
  242MOL0     C33271   6.393   8.161   8.085 -0.4920  0.5582  0.3025
  242MOL0     C33272   6.242   8.130   8.041 -0.0588  0.3436  0.3756
  242MOL0     C33273   6.146   8.104   8.160 -0.0949 -0.4949 -0.3175
  242MOL0     C33274   6.190   8.011   8.268 -0.8483  0.1924  0.5559
  242MOL0     N33275   6.204   7.878   8.204  0.3782  0.3225 -0.2106
  242MOL0     C33276   6.306   7.824   8.138  0.5152  0.4543  0.5712
  242MOL0     C33277   6.266   7.693   8.118  0.0640  0.4423 -0.0665
  242MOL0     C33278   6.350   7.586   8.068 -0.2038  1.0223  0.0882
  242MOL0     C33279   6.469   7.630   7.986  0.4228  0.3300  0.4434
  242MOL0     C33280   6.444   7.717   7.855 -0.1459  0.2556 -0.9351
  242MOL0     C33281   6.529   7.843   7.836  0.4227 -0.5522 -0.6227
  242MOL0     O33282   6.667   7.815   7.817  0.4070 -0.2882  0.5963
  242MOL0     C33283   6.741   7.933   7.801  0.3729 -0.0985  0.2453
  242MOL0     C33284   6.761   8.034   7.900  0.5424 -0.4459  0.4024
  242MOL0     C33285   6.843   8.145   7.870 -0.6345  0.8131 -0.5635
  242MOL0     C33286   6.852   8.249   7.982  0.0149 -0.8642 -0.0787
  242MOL0     C33287   6.912   8.158   7.747 -0.2592  0.5343  0.6091
  242MOL0     C33288   6.988   8.281   7.700  0.2633 -0.1560  0.4016
  242MOL0     O33289   7.057   8.350   7.797  0.3633  0.3754  0.8741
  242MOL0     C33290   7.125   8.458   7.759 -0.1883  0.1892  0.4307
  242MOL0     C33291   7.103   8.580   7.815  0.7608 -0.3912  0.4243
  242MOL0     C33292   7.194   8.691   7.791 -0.2632 -0.2734  0.9398
  242MOL0     C33293   7.319   8.664   7.719 -0.3533 -1.1287  0.0813
  242MOL0     O33294   7.412   8.758   7.707  0.1810  0.1305 -0.8607
  242MOL0     C33295   7.354   8.878   7.649 -0.1961  0.6982 -0.4348
  242MOL0     C33296   7.473   8.973   7.615  0.3122  0.3912 -0.0588
  242MOL0     C33297   7.540   8.965   7.479  0.3677  0.0667 -0.9511
  242MOL0     C33298   7.663   9.057   7.478 -0.0775  0.4620 -0.0124
  242MOL0     C33299   7.711   9.051   7.333 -0.9634  0.4145  0.6067
  242MOL0     C33300   7.832   9.147   7.320 -0.1504  0.6702 -0.1310
  242MOL0     C33301   7.867   9.178   7.173 -0.6298  0.0757  0.4906
  242MOL0     C33302   7.989   9.279   7.164  0.0535 -0.4384 -0.1573
  242MOL0    Cl33303   8.037   9.314   6.990 -0.1895 -0.0269  0.2767
  242MOL0     C33304   7.349   8.537   7.683 -0.6095  0.3362 -0.5429
  242MOL0     C33305   7.246   8.438   7.690  0.4838  0.2262 -0.4543
  242MOL0     O33306   6.983   8.310   7.576 -0.4297  0.1266  0.3980
  242MOL0     C33307   6.880   8.060   7.650 -0.6035 -0.2046 -0.1900
  242MOL0     C33308   6.791   7.954   7.676 -0.2008 -0.3409 -1.1504
  242MOL0     N33309   6.134   7.678   8.166  0.1085  0.0564  0.5436
  242MOL0     N33310   6.099   7.789   8.216  0.4602 -0.1592 -0.1712
  242MOL0     C33311   6.007   8.634   8.358  0.0132  0.0256 -0.1137
  242MOL0     C33312   5.882   8.651   8.413  0.6858  0.4346 -0.4601
  242MOL0     C33313   5.480   8.863   8.571 -0.0146  0.2378 -0.4238
  242MOL0     C33314   5.462   8.754   8.660  0.2651  0.1500  1.1319
  242MOL0     C33315   5.328   8.719   8.699  0.2936 -0.6494  0.9778
  242MOL0     C33316   5.219   8.797   8.676  0.2123 -1.1032 -0.2794
  242MOL0     O33317   5.092   8.783   8.736  0.1148  0.7894 -0.5149
  242MOL0     C33318   5.069   8.652   8.803  0.2992 -1.0623  0.4553
  242MOL0     C33319   5.081   8.673   8.951 -0.1774  0.4166  0.2705
  242MOL0     C33320   5.094   8.546   9.042 -0.1416 -0.2782  0.5130
  242MOL0     C33321   5.015   8.421   9.007 -0.7194  1.0551  0.0721
  242MOL0     C33322   4.879   8.450   9.037 -0.1642 -0.4822  0.5408
  242MOL0     C33323   4.766   8.461   9.064  0.1629 -0.7653  0.4682
  242MOL0     C33324   5.238   8.913   8.590 -0.9739 -0.1937 -0.9908
  242MOL0     C33325   5.365   8.945   8.536 -1.2469 -0.4783  0.3787
  242MOL0     C33326   5.369   9.067   8.459  1.3871  0.6059  0.2715
  242MOL0     H33327   5.889   8.983   8.478 -1.3411  0.2738 -2.4220
  242MOL0     H33328   6.127   8.945   8.398 -0.1477  0.8435 -1.9558
  242MOL0     H33329   6.317   8.705   8.135  3.3179 -2.0008  2.6753
  242MOL0     H33330   6.171   8.614   8.125  0.3377  1.2865 -0.2002
  242MOL0     H33331   6.441   8.554   8.250  0.3048 -0.9374  1.0054
  242MOL0     H33332   6.300   8.493   8.338 -0.0731  0.9532  1.2620
  242MOL0     H33333   6.249   8.386   8.087  0.4383  0.0862 -0.1563
  242MOL0     H33334   6.400   8.441   8.051 -2.4452  1.2692 -1.9803
  242MOL0     H33335   6.509   8.291   8.219 -0.4414  0.7459 -0.0411
  242MOL0     H33336   6.360   8.244   8.283  1.0210  2.9726  2.2693
  242MOL0     H33337   6.439   8.072   8.130  0.9015  0.5636 -1.0205
  242MOL0     H33338   6.442   8.180   7.989  0.0953  2.4077  0.9449
  242MOL0     H33339   6.190   8.212   7.990  0.6980  0.6530  0.0873
  242MOL0     H33340   6.231   8.044   7.974 -2.8632 -0.6299  1.9048
  242MOL0     H33341   6.042   8.088   8.131 -1.5590  1.7200  3.0522
  242MOL0     H33342   6.139   8.198   8.215  1.7474 -0.3773 -0.2449
  242MOL0     H33343   6.280   8.032   8.328 -1.1750 -1.9573  1.9335
  242MOL0     H33344   6.118   7.993   8.348 -0.1662 -3.9366  0.4995
  242MOL0     H33345   6.398   7.876   8.112  0.6411  0.7564  1.5855
  242MOL0     H33346   6.299   7.513   8.005  1.0505  0.7824 -0.6800
  242MOL0     H33347   6.394   7.540   8.157  1.7723  0.7918 -0.9499
  242MOL0     H33348   6.542   7.685   8.046  1.9266 -0.1939 -0.8340
  242MOL0     H33349   6.530   7.546   7.951 -1.4008 -0.1399 -1.8297
  242MOL0     H33350   6.456   7.652   7.768  0.2223  1.8086 -2.0832
  242MOL0     H33351   6.338   7.743   7.859  0.1079  1.1971  0.4167
  242MOL0     H33352   6.502   7.902   7.748 -0.0807 -0.8375 -0.6602
  242MOL0     H33353   6.508   7.899   7.928  1.1569 -1.9554  0.4365
  242MOL0     H33354   6.710   8.028   7.995  0.1716  0.0468  0.2390
  242MOL0     H33355   6.781   8.226   8.062 -0.4423 -4.0682 -1.2844
  242MOL0     H33356   6.834   8.352   7.950 -3.6652 -1.2822  0.2341
  242MOL0     H33357   6.948   8.249   8.034 -1.2180  2.1463  2.5895
  242MOL0     H33358   7.018   8.589   7.883  0.8378  0.2047  0.4472
  242MOL0     H33359   7.162   8.784   7.836  2.6335  0.7238  1.1381
  242MOL0     H33360   7.299   8.863   7.555 -2.1167  2.5645  0.3274
  242MOL0     H33361   7.281   8.925   7.715  1.2692  0.9891  1.0464
  242MOL0     H33362   7.430   9.074   7.622 -3.5135 -0.9248 -1.7448
  242MOL0     H33363   7.546   8.973   7.696 -1.2150 -1.2847  1.4166
  242MOL0     H33364   7.460   8.989   7.408  1.8237  0.0147 -2.6923
  242MOL0     H33365   7.565   8.862   7.453 -0.0420  0.1963 -1.9095
  242MOL0     H33366   7.731   9.019   7.555 -1.2954  1.8497  1.8344
  242MOL0     H33367   7.633   9.162   7.489 -1.1305 -0.0033  2.0754
  242MOL0     H33368   7.743   8.950   7.308 -1.1820  1.1928 -3.3867
  242MOL0     H33369   7.632   9.078   7.262 -1.8007  3.3418  2.4508
  242MOL0     H33370   7.919   9.098   7.364 -0.4986 -0.6644 -0.8758
  242MOL0     H33371   7.822   9.232   7.388 -3.9589  0.1576  0.1768
  242MOL0     H33372   7.786   9.223   7.116 -1.9410 -0.4564  1.8606
  242MOL0     H33373   7.904   9.095   7.114  3.0180  0.8594  1.4070
  242MOL0     H33374   8.075   9.228   7.208 -0.2230 -0.7605  0.0231
  242MOL0     H33375   7.963   9.363   7.229 -0.1886 -2.4464  2.5497
  242MOL0     H33376   7.442   8.517   7.631  0.7795  0.4935  1.7313
  242MOL0     H33377   7.270   8.342   7.646  1.1266  0.1958 -0.0518
  242MOL0     H33378   6.913   8.062   7.546 -0.8755 -2.3527 -0.3668
  242MOL0     H33379   6.757   7.901   7.587 -0.1019  2.4242 -2.9545
  242MOL0     H33380   6.017   8.541   8.304  1.6968 -0.2936  0.6585
  242MOL0     H33381   5.816   8.566   8.419  3.4301 -1.7275  2.1146
  242MOL0     H33382   5.553   8.698   8.682  1.6160  2.7230  2.6885
  242MOL0     H33383   5.316   8.620   8.742 -2.0588 -0.1047  1.6963
  242MOL0     H33384   4.973   8.618   8.763 -0.1246  1.6328 -1.0843
  242MOL0     H33385   5.125   8.566   8.765  0.5424 -1.2414  1.2203
  242MOL0     H33386   4.985   8.722   8.968 -1.7890 -3.6675  5.8452
  242MOL0     H33387   5.165   8.739   8.971 -0.2893  0.3438  1.0073
  242MOL0     H33388   5.199   8.520   9.024 -0.2315  1.1309 -2.6420
  242MOL0     H33389   5.079   8.573   9.147  2.5783 -1.1934  1.2174
  242MOL0     H33390   5.050   8.344   9.077 -1.6193  2.0280  1.6320
  242MOL0     H33391   5.030   8.380   8.906 -1.0885  0.4526  0.2544
  242MOL0     H33392   4.661   8.466   9.081 -0.0374  2.4115 -1.1660
  242MOL0     H33393   5.151   8.978   8.580 -1.1213  0.1851  1.8932
  242MOL0     H33394   5.453   9.069   8.389  2.3274 -5.1756  0.7768
  242MOL0     H33395   5.273   9.083   8.409  1.1323  2.6150  1.2946
  242MOL0     H33396   5.379   9.148   8.532 -2.5491  2.4117 -0.9157
  243MOL0     O33397   5.686   1.685   0.887  0.4792  0.4152  0.1792
  243MOL0     C33398   5.727   1.581   0.854  0.2773  0.9128  0.0129
  243MOL0     O33399   5.857   1.544   0.839  0.4390  0.4171 -0.2012
  243MOL0     C33400   5.935   1.638   0.891 -0.5755  0.2333  0.0300
  243MOL0     C33401   5.965   1.625   1.023  0.4771 -0.6096 -0.2876
  243MOL0     C33402   6.052   1.713   1.091  1.1586  0.3586 -0.8381
  243MOL0     C33403   6.113   1.807   1.008  0.2574  0.3260  0.1353
  243MOL0     O33404   6.197   1.892   1.064 -0.1048  1.0659  0.1849
  243MOL0     C33405   6.329   1.874   1.019  0.0828  0.2480 -0.1625
  243MOL0     C33406   6.417   1.971   1.093  0.1714 -0.0943  0.1943
  243MOL0     C33407   6.412   1.988   1.253  0.6148 -0.2250  0.3002
  243MOL0     C33408   6.383   1.861   1.326 -0.9396  0.1804 -0.2540
  243MOL0     C33409   6.344   1.885   1.468 -0.5005 -0.5921  1.3339
  243MOL0     C33410   6.361   1.762   1.551  0.1772  0.1509  0.2886
  243MOL0     C33411   6.315   1.800   1.695  0.6125  0.1519 -0.1011
  243MOL0     C33412   6.351   1.699   1.803  1.0626 -0.4336  0.2325
  243MOL0     N33413   6.265   1.578   1.806 -0.3041  0.0250  0.1968
  243MOL0     C33414   6.130   1.577   1.828 -0.0220 -0.3799  0.9045
  243MOL0     C33415   6.087   1.445   1.823 -0.2741  0.0580  0.2039
  243MOL0     C33416   5.938   1.410   1.844  0.2117  0.1852 -0.5605
  243MOL0     C33417   5.903   1.293   1.754  0.8099 -0.5813  0.2290
  243MOL0     C33418   5.767   1.263   1.808  0.7390 -0.1907 -0.5632
  243MOL0     C33419   5.714   1.129   1.768  0.2842  0.0844 -0.4036
  243MOL0     O33420   5.581   1.105   1.814  0.8707 -0.1246  0.5158
  243MOL0     C33421   5.510   1.003   1.750  0.5033  0.6085 -0.4165
  243MOL0     C33422   5.564   0.882   1.712  0.2422  0.3056  0.0123
  243MOL0     C33423   5.486   0.778   1.646  0.4898 -0.2263  0.1598
  243MOL0     C33424   5.560   0.645   1.614 -0.3727 -0.3471  0.8603
  243MOL0     C33425   5.346   0.809   1.619  0.4530 -0.9633  0.1104
  243MOL0     C33426   5.251   0.714   1.554 -0.1226  0.3569 -0.2726
  243MOL0     O33427   5.124   0.731   1.573 -0.7322  0.3119 -0.7430
  243MOL0     C33428   5.041   0.645   1.509  0.3687  0.1005  0.3487
  243MOL0     C33429   4.933   0.591   1.581 -0.3255 -1.0455  0.1291
  243MOL0     C33430   4.833   0.513   1.520  0.7230  0.5467 -0.2858
  243MOL0     C33431   4.828   0.483   1.379  0.1776  0.4597 -0.7592
  243MOL0     O33432   4.733   0.410   1.316 -0.2355 -0.2875 -0.3195
  243MOL0     C33433   4.602   0.381   1.379  0.4239 -0.2057  0.1633
  243MOL0     C33434   4.584   0.228   1.388 -0.1648  0.2686  0.6558
  243MOL0     C33435   4.696   0.150   1.473 -0.1203 -1.3284  0.8916
  243MOL0     C33436   4.666   0.001   1.472 -0.0479  0.4541 -0.0177
  243MOL0     C33437   4.766  -0.099   1.534 -0.7594 -0.2577 -0.6141
  243MOL0     C33438   4.899  -0.088   1.454  0.1424  0.2388  0.2210
  243MOL0     C33439   4.995  -0.204   1.495 -0.6404 -0.7060  0.4341
  243MOL0     C33440   5.137  -0.177   1.464  0.1940  0.4972 -0.2415
  243MOL0    Cl33441   5.163  -0.135   1.304  0.1094 -0.0330  0.3205
  243MOL0     C33442   4.931   0.545   1.308 -0.2020  0.1920 -0.0401
  243MOL0     C33443   5.035   0.620   1.372 -0.6553  0.3095 -0.2162
  243MOL0     O33444   5.300   0.625   1.480 -0.2963 -0.2583 -0.6061
  243MOL0     C33445   5.294   0.938   1.661  0.4294  0.1917  0.6113
  243MOL0     C33446   5.375   1.027   1.735 -0.1951 -0.2897 -0.5347
  243MOL0     N33447   6.201   1.365   1.800 -0.2935 -0.7510  0.4968
  243MOL0     N33448   6.304   1.449   1.784  0.0167  0.2891  0.2108
  243MOL0     C33449   6.093   1.824   0.864  0.7568 -0.0566 -0.4580
  243MOL0     C33450   6.008   1.727   0.808  0.2905  0.2036 -0.0424
  243MOL0     C33451   5.634   1.479   0.816  0.7349 -0.9905 -0.1227
  243MOL0     C33452   5.689   1.348   0.794 -0.1031 -0.1312  0.6562
  243MOL0     C33453   5.603   1.245   0.737  1.3477  0.0698  0.8696
  243MOL0     C33454   5.466   1.259   0.715 -0.4296 -0.2060 -0.3399
  243MOL0     O33455   5.379   1.169   0.666 -0.4468 -0.3610 -1.1186
  243MOL0     C33456   5.435   1.039   0.635 -0.3945 -0.2645  0.3671
  243MOL0     C33457   5.322   0.938   0.578 -0.1494 -0.1842 -0.1072
  243MOL0     C33458   5.388   0.801   0.537 -0.6446 -0.3027 -0.7781
  243MOL0     C33459   5.277   0.707   0.471 -0.6569  0.7974  0.6116
  243MOL0     C33460   5.332   0.581   0.426 -0.1960  1.0806  0.8844
  243MOL0     C33461   5.354   0.471   0.380 -0.5509 -0.0343 -0.1038
  243MOL0     C33462   5.419   1.392   0.742  0.0074 -0.2502  0.5006
  243MOL0     C33463   5.494   1.498   0.788  0.4061 -0.4289 -0.6103
  243MOL0     C33464   5.430   1.635   0.788 -0.3910 -0.2438 -0.2483
  243MOL0     H33465   5.918   1.537   1.067  1.5467 -0.6273  0.8485
  243MOL0     H33466   6.078   1.698   1.195 -1.7163 -2.0994 -0.3356
  243MOL0     H33467   6.336   1.896   0.912 -1.0290  0.4114 -0.2058
  243MOL0     H33468   6.364   1.770   1.025 -0.5971 -0.1613 -2.3367
  243MOL0     H33469   6.522   1.947   1.075  0.0316  0.6541 -1.8442
  243MOL0     H33470   6.400   2.073   1.057 -0.9376 -0.2065  0.3453
  243MOL0     H33471   6.506   2.016   1.301  1.0028 -0.7904 -0.1042
  243MOL0     H33472   6.326   2.054   1.270  0.2403  0.2278 -2.6968
  243MOL0     H33473   6.296   1.821   1.273 -0.7690 -0.3088 -0.1685
  243MOL0     H33474   6.474   1.801   1.330  0.5893  2.3860 -0.1703
  243MOL0     H33475   6.239   1.914   1.457 -0.1168  0.1146 -1.1115
  243MOL0     H33476   6.408   1.967   1.504  1.2259  0.0029 -2.5372
  243MOL0     H33477   6.294   1.686   1.510 -0.9635 -0.0252  2.3234
  243MOL0     H33478   6.463   1.725   1.566 -0.1836 -0.7309  0.6282
  243MOL0     H33479   6.206   1.808   1.690  0.4999 -1.4397 -1.2260
  243MOL0     H33480   6.352   1.898   1.724 -1.2208  1.3818 -1.6556
  243MOL0     H33481   6.454   1.663   1.793  1.0141 -0.8791  1.2580
  243MOL0     H33482   6.343   1.747   1.901  0.5677  0.2133 -0.1154
  243MOL0     H33483   6.086   1.673   1.849  0.1562  0.0394 -0.5734
  243MOL0     H33484   5.868   1.492   1.826 -1.7610 -1.1876  0.4596
  243MOL0     H33485   5.926   1.379   1.948  1.9789  0.4934 -0.2329
  243MOL0     H33486   5.914   1.313   1.647  1.0919 -0.2511  0.3189
  243MOL0     H33487   5.964   1.205   1.776  1.4244  0.5680  3.7815
  243MOL0     H33488   5.767   1.268   1.918  4.2800  1.5371 -0.4806
  243MOL0     H33489   5.701   1.337   1.763  1.3140  1.2644  0.8807
  243MOL0     H33490   5.729   1.118   1.660  4.0370 -2.0191  0.1804
  243MOL0     H33491   5.784   1.054   1.804  2.9113  2.0883 -1.0478
  243MOL0     H33492   5.668   0.864   1.733  0.2256 -0.5351 -0.6033
  243MOL0     H33493   5.653   0.633   1.670  0.5707 -0.2433 -0.6247
  243MOL0     H33494   5.580   0.638   1.506 -1.1972 -1.2444  0.7532
  243MOL0     H33495   5.501   0.560   1.650  2.0216 -1.0450  3.4093
  243MOL0     H33496   4.923   0.624   1.684 -0.4419  1.2383 -0.5514
  243MOL0     H33497   4.757   0.477   1.589  2.5242  2.9163  3.2738
  243MOL0     H33498   4.579   0.433   1.472 -1.3776  0.2680 -0.5044
  243MOL0     H33499   4.521   0.416   1.315  1.3754  0.2007 -0.8684
  243MOL0     H33500   4.486   0.203   1.429 -1.2786 -3.4875 -3.4908
  243MOL0     H33501   4.579   0.185   1.287 -0.7818 -1.1895  1.2788
  243MOL0     H33502   4.685   0.189   1.575 -0.9357  5.6293 -1.2772
  243MOL0     H33503   4.799   0.175   1.445  0.1126 -3.8646 -0.8627
  243MOL0     H33504   4.651  -0.017   1.365 -1.8781  0.0046  0.2858
  243MOL0     H33505   4.574  -0.004   1.530  0.3697  0.1580  0.6294
  243MOL0     H33506   4.773  -0.067   1.639 -2.0434 -2.6202  0.2537
  243MOL0     H33507   4.737  -0.204   1.521 -1.2770 -0.1501 -0.3554
  243MOL0     H33508   4.944   0.008   1.478  0.3220  0.3766 -0.6440
  243MOL0     H33509   4.891  -0.089   1.345 -0.3777  0.9569  0.2455
  243MOL0     H33510   4.968  -0.301   1.450 -0.3640  1.2150 -4.5513
  243MOL0     H33511   4.996  -0.221   1.603 -2.8712  3.1329  1.2277
  243MOL0     H33512   5.197  -0.263   1.495 -4.0593 -1.9084  2.4503
  243MOL0     H33513   5.167  -0.095   1.530 -1.0970  0.2226  0.7311
  243MOL0     H33514   4.917   0.541   1.201 -0.2932 -1.0936 -0.0049
  243MOL0     H33515   5.110   0.670   1.311 -1.3416 -0.7881 -2.0658
  243MOL0     H33516   5.187   0.956   1.659 -0.3123 -2.2841  5.0869
  243MOL0     H33517   5.328   1.116   1.776  0.5371 -0.3629  0.5018
  243MOL0     H33518   6.143   1.900   0.806  1.8437 -0.3109  0.1076
  243MOL0     H33519   5.985   1.736   0.703  4.6656  0.3633 -1.1906
  243MOL0     H33520   5.794   1.326   0.808  0.0153 -2.6899 -2.9551
  243MOL0     H33521   5.640   1.143   0.727  0.0761 -0.3946  0.6795
  243MOL0     H33522   5.516   1.051   0.563 -1.7008 -3.3253 -1.8370
  243MOL0     H33523   5.468   0.989   0.726  1.1839  0.2070  0.0672
  243MOL0     H33524   5.265   0.989   0.501 -2.3087 -0.2810  1.3443
  243MOL0     H33525   5.258   0.903   0.660  3.1550  1.6374  3.5751
  243MOL0     H33526   5.474   0.822   0.472  1.0388  0.0972  1.4624
  243MOL0     H33527   5.439   0.757   0.624 -1.5226  2.8313  1.4838
  243MOL0     H33528   5.246   0.758   0.379 -1.2314 -0.5237  0.0487
  243MOL0     H33529   5.181   0.684   0.519  0.5097 -3.5391  1.2841
  243MOL0     H33530   5.376   0.378   0.333 -0.2257  1.4062 -2.9912
  243MOL0     H33531   5.312   1.406   0.732  0.4562  2.3184 -1.8619
  243MOL0     H33532   5.498   1.686   0.719 -0.0235 -0.7615 -0.2775
  243MOL0     H33533   5.331   1.640   0.742 -0.8571 -0.5468  0.7115
  243MOL0     H33534   5.426   1.674   0.890  6.3083  0.0400  0.3548
  244MOL0     O33535   5.131   8.153   6.377 -0.1284  0.2332 -0.1650
  244MOL0     C33536   5.180   8.131   6.487  0.1075  0.7492 -1.3287
  244MOL0     O33537   5.219   8.221   6.589 -0.1443  0.3626  0.1143
  244MOL0     C33538   5.177   8.348   6.574  1.1798  0.0400  0.2627
  244MOL0     C33539   5.268   8.452   6.590  0.0227 -0.1611  0.9960
  244MOL0     C33540   5.241   8.588   6.600  0.3732  0.2188 -0.6702
  244MOL0     C33541   5.107   8.626   6.584 -0.4608 -1.4410 -0.3835
  244MOL0     O33542   5.069   8.760   6.604  0.5843  0.2385  0.0197
  244MOL0     C33543   4.944   8.793   6.537 -0.5046  0.3158  0.4600
  244MOL0     C33544   4.905   8.942   6.557  0.0277 -1.1733 -0.4051
  244MOL0     C33545   4.874   8.982   6.703 -0.1157  0.7715  0.0482
  244MOL0     C33546   4.823   9.134   6.694 -0.3958  0.5368  0.2532
  244MOL0     C33547   4.800   9.193   6.824 -0.0188 -0.1313  0.6766
  244MOL0     C33548   4.684   9.153   6.899  1.0588 -0.1774 -0.6186
  244MOL0     C33549   4.686   9.214   7.036 -0.1456  0.3612 -0.2590
  244MOL0     C33550   4.576   9.165   7.141  0.3474 -1.4526  0.0440
  244MOL0     N33551   4.456   9.248   7.145  0.8253  0.7222 -0.0823
  244MOL0     C33552   4.452   9.358   7.217  0.4315  0.2818  0.1333
  244MOL0     C33553   4.311   9.378   7.235 -0.4080  0.3778 -0.7640
  244MOL0     C33554   4.261   9.485   7.321  1.0168 -0.0788 -0.4317
  244MOL0     C33555   4.129   9.542   7.265  0.3943  0.5104  0.3009
  244MOL0     C33556   4.105   9.681   7.325 -0.3244  0.8148  0.1051
  244MOL0     C33557   3.997   9.752   7.245 -0.4826  0.5896  0.0140
  244MOL0     O33558   3.986   9.890   7.287 -0.0810 -0.5042 -0.7284
  244MOL0     C33559   3.916   9.930   7.402  0.9187  0.3566 -0.2967
  244MOL0     C33560   3.821   9.850   7.475 -1.1424 -0.0123 -0.2126
  244MOL0     C33561   3.753   9.892   7.587  0.7072  0.3211 -0.7672
  244MOL0     C33562   3.620   9.815   7.638 -1.2185 -0.9067  0.0228
  244MOL0     C33563   3.783  10.019   7.639 -0.9169  1.1963 -0.2415
  244MOL0     C33564   3.714  10.084   7.752  0.2668 -0.4869 -0.2348
  244MOL0     O33565   3.684  10.004   7.855  0.0941  1.5988  0.7851
  244MOL0     C33566   3.646  10.057   7.980  1.5605  0.9380 -0.6196
  244MOL0     C33567   3.507  10.051   8.021 -0.7545 -0.5502  0.6658
  244MOL0     C33568   3.472  10.090   8.148  0.4096 -0.3661  0.4264
  244MOL0     C33569   3.563  10.145   8.240 -0.3653 -0.2963 -0.1303
  244MOL0     O33570   3.521  10.164   8.368 -0.2647 -0.3496  0.4936
  244MOL0     C33571   3.534  10.295   8.420 -0.1497 -0.2802  0.2141
  244MOL0     C33572   3.408  10.371   8.455  0.1667 -0.1878 -0.3125
  244MOL0     C33573   3.335  10.280   8.547  0.3073 -0.5859  0.1296
  244MOL0     C33574   3.199  10.332   8.593 -0.0207  0.2481  0.4907
  244MOL0     C33575   3.210  10.457   8.682 -0.2220  0.3449  0.3145
  244MOL0     C33576   3.064  10.497   8.725 -0.4057  0.3317  0.4371
  244MOL0     C33577   3.063  10.614   8.820 -0.2350 -0.3606 -0.7253
  244MOL0     C33578   2.926  10.669   8.847 -0.8131 -0.6197 -0.0008
  244MOL0    Cl33579   2.942  10.714   9.019  0.6244  0.3080 -0.0261
  244MOL0     C33580   3.697  10.152   8.201  1.2227  0.4480  0.9689
  244MOL0     C33581   3.736  10.125   8.068  0.2177  0.0300 -0.3078
  244MOL0     O33582   3.699  10.204   7.754  0.3521  0.3366  0.2870
  244MOL0     C33583   3.876  10.101   7.573  0.4228 -0.6695  0.2768
  244MOL0     C33584   3.933  10.057   7.452 -0.9648 -0.3815  0.6762
  244MOL0     N33585   4.238   9.285   7.167 -0.1048 -0.1866 -0.3366
  244MOL0     N33586   4.329   9.205   7.119 -0.6203 -0.8243 -0.1474
  244MOL0     C33587   5.006   8.520   6.579  0.1262 -0.7000  0.1176
  244MOL0     C33588   5.039   8.385   6.563 -0.2891 -0.0074  0.1933
  244MOL0     C33589   5.201   7.986   6.523 -0.2597 -0.4621 -0.5124
  244MOL0     C33590   5.083   7.908   6.530  0.1663  0.4051  0.6864
  244MOL0     C33591   5.095   7.776   6.559  0.4936 -0.3694 -0.3269
  244MOL0     C33592   5.211   7.714   6.590 -0.6930  0.2637 -0.0872
  244MOL0     O33593   5.213   7.586   6.629 -0.0451 -0.8062  1.1456
  244MOL0     C33594   5.132   7.492   6.557  0.4235 -0.9475 -0.0724
  244MOL0     C33595   5.208   7.362   6.551 -0.5628 -0.3366 -0.8833
  244MOL0     C33596   5.320   7.355   6.443  0.6265 -0.2067  0.9633
  244MOL0     C33597   5.430   7.461   6.451  0.2170 -0.6901 -0.8793
  244MOL0     C33598   5.526   7.454   6.341  0.8155 -0.8486  0.5381
  244MOL0     C33599   5.612   7.460   6.252  0.7837 -0.2271  0.2367
  244MOL0     C33600   5.327   7.788   6.591  0.0801 -0.2830  0.6840
  244MOL0     C33601   5.325   7.926   6.561  0.1936  0.4216 -0.0170
  244MOL0     C33602   5.451   8.010   6.558 -0.0460  1.1886 -0.1490
  244MOL0     H33603   5.371   8.418   6.601  0.4570  0.4347 -0.9063
  244MOL0     H33604   5.318   8.657   6.633  0.9755 -1.8348  2.6058
  244MOL0     H33605   4.862   8.735   6.579 -1.1355 -0.4763 -1.7256
  244MOL0     H33606   4.942   8.756   6.434 -2.0267 -2.4134  1.3520
  244MOL0     H33607   4.984   9.012   6.525 -0.4453  0.3986  1.6356
  244MOL0     H33608   4.818   8.972   6.499  2.0332  2.1596 -2.0371
  244MOL0     H33609   4.796   8.919   6.747  0.6540  0.6513  1.2905
  244MOL0     H33610   4.963   8.962   6.764 -0.6844 -1.1155  0.3163
  244MOL0     H33611   4.902   9.198   6.655  0.7254  0.1724  1.8216
  244MOL0     H33612   4.738   9.140   6.625  0.0057  2.2798 -0.1306
  244MOL0     H33613   4.793   9.301   6.805  0.2234 -0.1814  0.2790
  244MOL0     H33614   4.887   9.174   6.887  1.3855  2.1232 -0.4440
  244MOL0     H33615   4.600   9.186   6.838  0.0497 -1.7615 -0.1283
  244MOL0     H33616   4.689   9.044   6.898 -0.8758 -0.3245 -3.1301
  244MOL0     H33617   4.667   9.322   7.032  1.6499  0.7833  1.1699
  244MOL0     H33618   4.789   9.206   7.071 -0.5966 -1.6774  0.7202
  244MOL0     H33619   4.545   9.061   7.122 -2.0313 -1.0840  1.4562
  244MOL0     H33620   4.619   9.167   7.242  1.6291 -1.5958 -0.4909
  244MOL0     H33621   4.540   9.414   7.247  0.2206  1.2747 -1.0261
  244MOL0     H33622   4.336   9.564   7.323 -0.6535  1.5542  1.0168
  244MOL0     H33623   4.253   9.430   7.415  4.2150  0.1444  0.0700
  244MOL0     H33624   4.142   9.568   7.160 -1.1636 -2.3444 -0.7243
  244MOL0     H33625   4.043   9.475   7.272 -1.3914  2.6724 -0.0662
  244MOL0     H33626   4.081   9.688   7.432  0.1651 -2.2623  0.5172
  244MOL0     H33627   4.198   9.737   7.311  0.4232 -0.5161 -0.5564
  244MOL0     H33628   4.029   9.762   7.141 -1.6392 -2.3148 -0.7091
  244MOL0     H33629   3.905   9.694   7.248  1.5350 -2.8106  1.0371
  244MOL0     H33630   3.809   9.750   7.434  3.3517 -2.1421  2.9151
  244MOL0     H33631   3.560   9.772   7.557  0.0443  0.6647 -1.8463
  244MOL0     H33632   3.552   9.887   7.685  2.2418  1.2195  2.2439
  244MOL0     H33633   3.649   9.749   7.720  2.8640  1.0209  0.4056
  244MOL0     H33634   3.433   9.998   7.962  1.8266 -3.8334  0.0683
  244MOL0     H33635   3.368  10.078   8.179 -0.1734  1.3538 -0.6845
  244MOL0     H33636   3.606  10.279   8.501  4.0762 -0.0230 -3.1099
  244MOL0     H33637   3.591  10.361   8.354  1.8542 -1.2221  0.9081
  244MOL0     H33638   3.426  10.467   8.504  0.3380 -0.7055  0.6572
  244MOL0     H33639   3.352  10.397   8.365 -1.6074  0.6474  0.9719
  244MOL0     H33640   3.399  10.258   8.633  0.3151 -1.6481 -0.1373
  244MOL0     H33641   3.303  10.186   8.501 -0.6011 -0.9916  1.5288
  244MOL0     H33642   3.157  10.242   8.639  4.0650 -3.4601 -2.1877
  244MOL0     H33643   3.154  10.363   8.498  1.9722 -0.0166 -0.6061
  244MOL0     H33644   3.271  10.438   8.771  0.1068 -0.2145 -0.0318
  244MOL0     H33645   3.258  10.539   8.628  0.3578  0.5711  1.1592
  244MOL0     H33646   3.018  10.408   8.769 -2.5412  0.1151 -1.9587
  244MOL0     H33647   3.010  10.530   8.635  1.3284 -1.3626 -1.3151
  244MOL0     H33648   3.124  10.702   8.800  0.8441 -0.8677  0.2044
  244MOL0     H33649   3.116  10.582   8.910  1.1350  1.2360 -0.9223
  244MOL0     H33650   2.849  10.592   8.837 -1.2323 -0.3703  1.2332
  244MOL0     H33651   2.911  10.762   8.792  0.7227  0.7907  1.8327
  244MOL0     H33652   3.777  10.173   8.271 -2.4584  3.3665  4.8307
  244MOL0     H33653   3.836  10.133   8.026  1.4277  1.7420  2.5971
  244MOL0     H33654   3.893  10.205   7.596  4.0218 -0.6726 -1.6385
  244MOL0     H33655   3.985  10.131   7.392 -3.8936  0.3750 -1.1537
  244MOL0     H33656   4.900   8.535   6.598 -0.0846 -3.1540  1.2899
  244MOL0     H33657   4.964   8.307   6.567  0.8614 -1.1711 -0.0090
  244MOL0     H33658   4.987   7.947   6.498  1.9753  5.0849  0.1753
  244MOL0     H33659   5.009   7.715   6.533  1.6580 -1.0388 -2.9172
  244MOL0     H33660   5.035   7.491   6.608 -1.3157  0.0717 -3.1345
  244MOL0     H33661   5.109   7.523   6.455 -1.7754 -4.1160 -0.6854
  244MOL0     H33662   5.138   7.280   6.533 -1.4715  0.6149 -1.8957
  244MOL0     H33663   5.252   7.354   6.651  0.0851 -1.5124 -1.2485
  244MOL0     H33664   5.378   7.262   6.437  0.7686 -0.1834  1.8008
  244MOL0     H33665   5.270   7.352   6.346  3.1679  1.0387 -0.4883
  244MOL0     H33666   5.471   7.443   6.551 -0.8099 -0.4751 -0.4114
  244MOL0     H33667   5.386   7.559   6.431 -0.8852 -1.4965 -2.6571
  244MOL0     H33668   5.678   7.485   6.172 -1.9161  2.7931 -1.3070
  244MOL0     H33669   5.420   7.737   6.615 -0.1657 -1.0429  0.0759
  244MOL0     H33670   5.536   7.948   6.590 -2.2436 -1.9694  0.0966
  244MOL0     H33671   5.467   8.029   6.452 -4.2760 -2.0156 -1.6539
  244MOL0     H33672   5.433   8.092   6.627  2.4589  0.0012  2.1122
  245MOL0     O33673   2.862   4.889  11.384 -0.3705 -0.9248 -0.7308
  245MOL0     C33674   2.983   4.884  11.370  0.9180  1.0175 -0.9743
  245MOL0     O33675   3.059   4.992  11.347  0.2346  0.7900 -0.1438
  245MOL0     C33676   3.009   5.119  11.354 -0.5114  0.5673 -0.1225
  245MOL0     C33677   2.923   5.172  11.454 -0.4477 -0.5560  0.8899
  245MOL0     C33678   2.897   5.308  11.461  0.3830 -0.9739 -0.3985
  245MOL0     C33679   2.946   5.385  11.354  0.1129  0.6062  0.3531
  245MOL0     O33680   2.897   5.509  11.362 -0.0507  0.3174  0.3799
  245MOL0     C33681   2.935   5.620  11.268 -0.5988  0.0731  0.2221
  245MOL0     C33682   3.057   5.679  11.328  0.1558 -0.3843 -0.6916
  245MOL0     C33683   3.118   5.796  11.241  0.1010  0.6729 -0.6390
  245MOL0     C33684   3.267   5.808  11.274  1.8140  0.0911  0.1312
  245MOL0     C33685   3.378   5.704  11.221 -0.1682  0.5454  0.2519
  245MOL0     C33686   3.419   5.725  11.078 -1.0271 -0.0165  0.6399
  245MOL0     C33687   3.560   5.666  11.055  0.4425 -0.4049 -0.1017
  245MOL0     C33688   3.634   5.727  10.937  0.4245 -0.6728 -0.7052
  245MOL0     N33689   3.776   5.764  10.960  0.1393 -0.4110  0.7538
  245MOL0     C33690   3.818   5.855  11.059  0.0304  0.6925  0.3093
  245MOL0     C33691   3.949   5.878  11.017 -0.2639  0.2089  0.4024
  245MOL0     C33692   4.030   5.991  11.074 -0.1721  0.0659  0.3826
  245MOL0     C33693   4.166   5.960  11.102  0.1335  0.4130  0.2716
  245MOL0     C33694   4.238   6.069  11.170 -0.5941  0.7429 -0.3683
  245MOL0     C33695   4.391   6.052  11.167  0.2724  0.5302 -0.1062
  245MOL0     O33696   4.453   6.101  11.041 -0.7893  0.6495  0.7374
  245MOL0     C33697   4.487   6.228  11.021  0.0741  0.1498 -0.1001
  245MOL0     C33698   4.585   6.269  10.930  0.3116 -1.1271  0.3062
  245MOL0     C33699   4.627   6.405  10.920 -0.1281 -0.1956  0.1711
  245MOL0     C33700   4.730   6.451  10.823  0.3652 -0.2188  0.0053
  245MOL0     C33701   4.564   6.497  11.003 -0.0621  0.5274 -0.4025
  245MOL0     C33702   4.609   6.639  11.015 -0.2030  0.2408 -0.3097
  245MOL0     O33703   4.726   6.680  10.965  0.0050  0.0097  0.5025
  245MOL0     C33704   4.774   6.808  11.016 -0.2702  0.2184  0.6998
  245MOL0     C33705   4.735   6.865  11.136 -0.1456 -0.0724 -0.5038
  245MOL0     C33706   4.789   6.989  11.175 -0.1556 -0.9946 -0.4377
  245MOL0     C33707   4.874   7.069  11.094  0.5202  0.0593  0.4728
  245MOL0     O33708   4.915   7.189  11.146 -0.0948  0.2427  0.8198
  245MOL0     C33709   5.003   7.269  11.066  0.8560 -0.0906 -0.7306
  245MOL0     C33710   5.002   7.412  11.123 -0.1698  0.1827 -0.5780
  245MOL0     C33711   5.116   7.498  11.060 -0.6022  0.7801 -0.1465
  245MOL0     C33712   5.114   7.494  10.912  0.4247 -0.6224  0.2154
  245MOL0     C33713   5.201   7.601  10.834 -0.0543  0.1114  0.2324
  245MOL0     C33714   5.175   7.746  10.857 -0.2768  0.5955  0.4355
  245MOL0     C33715   5.258   7.820  10.764  0.0744  0.5860  0.3332
  245MOL0     C33716   5.243   7.969  10.790 -0.4501  0.2734 -0.0624
  245MOL0    Cl33717   5.380   8.053  10.722  0.7047 -0.5042  0.2210
  245MOL0     C33718   4.914   7.014  10.973 -0.8010 -1.1357  0.4734
  245MOL0     C33719   4.874   6.884  10.939 -0.7005 -0.0883 -0.6048
  245MOL0     O33720   4.520   6.715  11.045 -0.1790 -0.0939  0.1732
  245MOL0     C33721   4.454   6.454  11.088  0.1533 -0.2243 -0.2590
  245MOL0     C33722   4.422   6.331  11.093 -0.2774  0.7537  0.5374
  245MOL0     N33723   3.985   5.781  10.919  0.0705 -0.4139  0.3543
  245MOL0     N33724   3.877   5.722  10.884  0.2455 -0.0314  0.0599
  245MOL0     C33725   3.035   5.333  11.259  0.7749 -0.1334 -0.1779
  245MOL0     C33726   3.070   5.198  11.260  0.0177 -0.8619  0.3610
  245MOL0     C33727   3.052   4.753  11.400  0.6575 -0.6840  0.4953
  245MOL0     C33728   3.184   4.762  11.445  0.0671 -0.1266  0.4692
  245MOL0     C33729   3.261   4.655  11.465  0.1622  0.4500  0.0608
  245MOL0     C33730   3.205   4.522  11.459  0.0245  0.0668 -0.2063
  245MOL0     O33731   3.293   4.419  11.493  0.3572 -0.5426 -0.2830
  245MOL0     C33732   3.256   4.285  11.477  0.6155 -0.5710 -0.0625
  245MOL0     C33733   3.375   4.178  11.491 -0.0991  0.3800 -0.6033
  245MOL0     C33734   3.464   4.170  11.370 -0.1239  0.1031 -0.3313
  245MOL0     C33735   3.611   4.131  11.387 -0.0476 -0.1331  0.2155
  245MOL0     C33736   3.635   3.986  11.397 -0.1707  0.3306 -0.7481
  245MOL0     C33737   3.657   3.866  11.416 -0.2359  0.7153 -0.5005
  245MOL0     C33738   3.069   4.513  11.423  1.0240 -0.5865 -0.2233
  245MOL0     C33739   2.992   4.620  11.396  0.1382  0.1307 -0.3183
  245MOL0     C33740   2.847   4.603  11.358 -0.2165 -0.4368  0.2801
  245MOL0     H33741   2.884   5.098  11.522 -1.2717  1.5171  2.8000
  245MOL0     H33742   2.825   5.360  11.523  0.0001  1.6903 -2.8359
  245MOL0     H33743   2.857   5.697  11.274 -1.2896 -0.3244 -2.4532
  245MOL0     H33744   2.939   5.598  11.161  2.4041  1.3115 -0.0306
  245MOL0     H33745   3.034   5.726  11.423  2.0436  0.8078 -0.7657
  245MOL0     H33746   3.136   5.605  11.347  4.5072  3.6579 -1.3316
  245MOL0     H33747   3.101   5.770  11.136 -1.2303 -0.2688 -0.2172
  245MOL0     H33748   3.069   5.890  11.268 -4.5351 -1.4861 -0.5591
  245MOL0     H33749   3.288   5.901  11.220 -0.1976  0.3177 -0.3467
  245MOL0     H33750   3.284   5.832  11.380  2.6934 -0.3784  0.1047
  245MOL0     H33751   3.339   5.602  11.224  0.4760  0.1431 -2.6500
  245MOL0     H33752   3.458   5.730  11.291 -1.2324  3.7446  0.4376
  245MOL0     H33753   3.339   5.689  11.012 -0.9311  1.5255 -0.3844
  245MOL0     H33754   3.427   5.834  11.073  2.4989 -0.2359 -0.4744
  245MOL0     H33755   3.549   5.561  11.026 -0.6640 -0.1454 -0.6537
  245MOL0     H33756   3.616   5.661  11.149  0.5298 -2.7453 -0.2217
  245MOL0     H33757   3.637   5.653  10.856  1.8198  0.1941 -1.4893
  245MOL0     H33758   3.580   5.807  10.886  0.4697 -0.4668 -0.4297
  245MOL0     H33759   3.758   5.902  11.136  1.0254 -0.9690  2.2005
  245MOL0     H33760   3.974   6.033  11.158  1.1616  2.0131  0.3515
  245MOL0     H33761   4.034   6.074  11.003 -1.5040 -0.1085  0.0812
  245MOL0     H33762   4.170   5.875  11.170  0.8561  0.9506  0.9250
  245MOL0     H33763   4.211   5.928  11.007  0.9590  1.3219  0.3373
  245MOL0     H33764   4.208   6.169  11.138  0.1629  0.7335 -1.1466
  245MOL0     H33765   4.214   6.060  11.277  1.5872 -2.2934 -0.0173
  245MOL0     H33766   4.433   6.106  11.253 -1.7882  3.1188 -0.5954
  245MOL0     H33767   4.422   5.947  11.175 -0.6726  0.3499  1.5788
  245MOL0     H33768   4.624   6.190  10.866 -1.1503 -0.9415 -0.8739
  245MOL0     H33769   4.692   6.531  10.758 -2.1182 -1.1845  0.1390
  245MOL0     H33770   4.761   6.366  10.761  1.0918 -0.8951  1.2584
  245MOL0     H33771   4.813   6.496  10.877  0.7979 -0.4141 -0.4930
  245MOL0     H33772   4.669   6.812  11.204  1.3780 -0.7806  0.4754
  245MOL0     H33773   4.757   7.030  11.271  2.1548 -1.1139  0.4277
  245MOL0     H33774   5.105   7.231  11.079  0.1792 -1.9789 -0.6812
  245MOL0     H33775   4.961   7.271  10.965 -0.0982  0.5160 -0.3338
  245MOL0     H33776   4.909   7.467  11.109 -0.1526  0.2226 -0.5398
  245MOL0     H33777   5.031   7.406  11.229  2.7022  1.3181 -1.2012
  245MOL0     H33778   5.213   7.470  11.102 -1.3309 -2.2214 -0.2822
  245MOL0     H33779   5.089   7.602  11.080  2.5943  1.9449 -1.2354
  245MOL0     H33780   5.010   7.505  10.881  0.5963 -1.8256 -0.8339
  245MOL0     H33781   5.147   7.395  10.881  0.7907  0.4847 -3.4847
  245MOL0     H33782   5.305   7.586  10.868 -0.5907 -0.3894  1.7540
  245MOL0     H33783   5.193   7.579  10.727 -0.7357 -1.1304  0.5214
  245MOL0     H33784   5.213   7.768  10.957  1.1013  4.0869 -0.6941
  245MOL0     H33785   5.075   7.786  10.840 -0.3515  0.0785 -0.3823
  245MOL0     H33786   5.223   7.800  10.662 -1.9006 -1.3701  1.3296
  245MOL0     H33787   5.359   7.782  10.781 -0.5090  0.5345  5.0588
  245MOL0     H33788   5.249   7.985  10.898  0.4472 -1.5331  0.1903
  245MOL0     H33789   5.147   8.000  10.748  0.1262  1.1599 -0.7545
  245MOL0     H33790   4.988   7.058  10.907  2.2188 -2.7574  2.5246
  245MOL0     H33791   4.907   6.844  10.844  2.6069 -0.9060  0.7708
  245MOL0     H33792   4.396   6.522  11.150 -2.5391 -3.0083  0.4967
  245MOL0     H33793   4.346   6.306  11.165  0.4335  1.3124  1.5075
  245MOL0     H33794   3.062   5.396  11.174  0.1184  0.2323 -0.1250
  245MOL0     H33795   3.138   5.156  11.186 -0.5507  1.5995 -1.6994
  245MOL0     H33796   3.240   4.853  11.458  1.8212 -1.3606  2.0765
  245MOL0     H33797   3.368   4.663  11.482 -0.1502 -0.7186  3.4769
  245MOL0     H33798   3.184   4.253  11.553  2.9707  0.5385  2.8080
  245MOL0     H33799   3.204   4.276  11.381 -0.2103 -1.4912  0.4478
  245MOL0     H33800   3.328   4.079  11.496  0.3049  0.1835 -0.7331
  245MOL0     H33801   3.429   4.197  11.584  2.0051 -1.5972 -1.3428
  245MOL0     H33802   3.419   4.094  11.306  0.4217  0.3831 -1.0601
  245MOL0     H33803   3.461   4.272  11.332 -0.9729 -0.0252 -0.6238
  245MOL0     H33804   3.664   4.189  11.464  0.1525  1.8899 -1.3638
  245MOL0     H33805   3.651   4.173  11.295 -0.0841 -1.1813 -0.2889
  245MOL0     H33806   3.669   3.762  11.438 -1.0106  0.7159 -0.0426
  245MOL0     H33807   3.020   4.419  11.402  0.6625 -0.0486 -1.9495
  245MOL0     H33808   2.837   4.495  11.353 -0.7283 -0.3314 -1.9626
  245MOL0     H33809   2.763   4.641  11.418  0.0121 -0.0468  0.3565
  245MOL0     H33810   2.830   4.626  11.252 -1.3099  0.9883  0.7174
  246MOL0     O33811   9.531   2.221   0.138 -0.4585 -0.2154 -0.2284
  246MOL0     C33812   9.520   2.111   0.201 -1.1076 -1.4511  0.3768
  246MOL0     O33813   9.573   1.995   0.162  0.1062 -0.2623 -0.3067
  246MOL0     C33814   9.652   1.994   0.046 -0.1467 -0.0990  0.4044
  246MOL0     C33815   9.593   1.939  -0.066 -0.0107  1.0059 -0.1899
  246MOL0     C33816   9.666   1.919  -0.185 -0.2347 -0.6415 -0.2168
  246MOL0     C33817   9.803   1.943  -0.183  0.4538 -0.8490  0.6412
  246MOL0     O33818   9.861   1.904  -0.299  0.0404 -0.3351 -0.3233
  246MOL0     C33819   9.998   1.864  -0.286  0.4521 -0.3084 -0.0882
  246MOL0     C33820  10.086   1.939  -0.384  0.6864 -0.1998 -0.6372
  246MOL0     C33821  10.023   1.930  -0.531  0.1760  0.7681  1.1985
  246MOL0     C33822  10.037   2.077  -0.597 -0.2123  0.8587 -0.1458
  246MOL0     C33823   9.986   2.055  -0.742 -0.1143  0.9791  0.7233
  246MOL0     C33824  10.002   2.178  -0.834 -0.0453  0.0789 -0.2052
  246MOL0     C33825   9.906   2.287  -0.780 -0.5236 -0.3988 -0.0773
  246MOL0     C33826   9.870   2.383  -0.899 -0.3283  0.4934  0.5153
  246MOL0     N33827   9.795   2.489  -0.834 -0.2254  0.1097  1.1841
  246MOL0     C33828   9.852   2.596  -0.778  0.3770 -0.5866 -0.1111
  246MOL0     C33829   9.744   2.681  -0.748  0.7612  0.3372 -0.7404
  246MOL0     C33830   9.750   2.814  -0.683  0.4364  0.7395  0.8777
  246MOL0     C33831   9.626   2.901  -0.685  1.0051  0.7765  0.2317
  246MOL0     C33832   9.589   2.947  -0.549  0.1431 -0.4655 -0.6964
  246MOL0     C33833   9.528   2.834  -0.474 -1.0282 -0.8365 -0.6843
  246MOL0     O33834   9.600   2.805  -0.349  0.0800  0.2227 -0.1662
  246MOL0     C33835   9.537   2.844  -0.230  0.2907  0.3504  0.0437
  246MOL0     C33836   9.455   2.748  -0.182 -0.2572 -0.0037 -0.8358
  246MOL0     C33837   9.374   2.779  -0.066  0.2468 -0.9125  0.2024
  246MOL0     C33838   9.282   2.669  -0.010 -0.5826  0.3405  0.3961
  246MOL0     C33839   9.372   2.906  -0.011  0.4171 -0.4905  0.2494
  246MOL0     C33840   9.286   2.955   0.093 -0.5771  0.3599 -1.0373
  246MOL0     O33841   9.220   3.076   0.080 -0.6117  0.5501 -0.1007
  246MOL0     C33842   9.161   3.129   0.190  0.1685  0.1604 -0.1068
  246MOL0     C33843   9.244   3.178   0.294  0.2392  0.5122 -0.0480
  246MOL0     C33844   9.195   3.232   0.405 -0.5393  0.9045  0.3652
  246MOL0     C33845   9.054   3.227   0.417 -0.0728 -0.8583  0.5299
  246MOL0     O33846   8.978   3.271   0.531  0.0740  0.4424 -0.0395
  246MOL0     C33847   9.033   3.397   0.586  0.0766  0.6872 -0.4336
  246MOL0     C33848   8.939   3.511   0.601 -0.0367 -1.4602 -0.4169
  246MOL0     C33849   8.814   3.471   0.675 -0.3523 -0.3370 -0.2618
  246MOL0     C33850   8.729   3.595   0.705  0.3117  0.2925 -0.2423
  246MOL0     C33851   8.795   3.688   0.810  0.3694 -0.0179  0.5977
  246MOL0     C33852   8.723   3.820   0.822 -0.0514  0.0328  0.0044
  246MOL0     C33853   8.721   3.877   0.963  0.3715  0.7249  0.1098
  246MOL0     C33854   8.639   4.010   0.975  0.1473 -1.0161  0.4850
  246MOL0    Cl33855   8.477   3.989   0.911  0.0215 -0.4085  0.2560
  246MOL0     C33856   8.962   3.180   0.314  0.3175  0.8100 -0.4262
  246MOL0     C33857   9.022   3.132   0.206 -0.4396  1.0571  0.0352
  246MOL0     O33858   9.284   2.884   0.190  0.3197 -0.0910  0.1898
  246MOL0     C33859   9.450   3.002  -0.068 -0.7008 -0.3665 -0.7130
  246MOL0     C33860   9.545   2.972  -0.173 -0.3503 -1.0641 -0.3833
  246MOL0     N33861   9.627   2.624  -0.793 -0.2770 -0.0237 -0.9528
  246MOL0     N33862   9.658   2.512  -0.851  0.3356  0.2809  0.7859
  246MOL0     C33863   9.860   2.009  -0.077 -0.8470 -0.4159 -0.1205
  246MOL0     C33864   9.786   2.023   0.049 -0.6333 -0.4576  0.6313
  246MOL0     C33865   9.444   2.110   0.331  1.3949  0.7161  0.0639
  246MOL0     C33866   9.436   1.984   0.395 -0.0769 -0.1733 -0.5168
  246MOL0     C33867   9.387   1.973   0.516  0.7160 -0.6280 -0.8767
  246MOL0     C33868   9.330   2.074   0.591 -0.5489 -0.0161 -0.1641
  246MOL0     O33869   9.267   2.023   0.703 -0.3715  0.3947 -0.2823
  246MOL0     C33870   9.245   2.115   0.816 -0.2827  0.5316  0.1775
  246MOL0     C33871   9.370   2.170   0.883  1.0313  0.1626  0.0794
  246MOL0     C33872   9.395   2.094   1.013  0.3061  0.0066  0.7804
  246MOL0     C33873   9.528   2.114   1.089  0.8908 -0.0227  0.5043
  246MOL0     C33874   9.525   2.024   1.207 -0.6577 -0.6001 -0.5758
  246MOL0     C33875   9.511   1.940   1.281 -0.9816  1.4198 -0.3029
  246MOL0     C33876   9.328   2.202   0.530  0.0100  1.0622 -0.7259
  246MOL0     C33877   9.374   2.216   0.400  0.8824  0.4997 -0.8669
  246MOL0     C33878   9.356   2.353   0.348 -0.4832  0.2598 -0.0293
  246MOL0     H33879   9.491   1.902  -0.059  0.8543 -1.6370 -0.4497
  246MOL0     H33880   9.611   1.885  -0.273  0.4227  1.0981 -1.3567
  246MOL0     H33881   9.999   1.758  -0.312  0.3462 -1.0040  2.5170
  246MOL0     H33882  10.035   1.878  -0.184 -1.2953  4.2557  0.1564
  246MOL0     H33883  10.089   2.044  -0.354  0.9522 -0.5264  0.5413
  246MOL0     H33884  10.188   1.899  -0.378  1.2954  1.4412  0.5022
  246MOL0     H33885  10.072   1.848  -0.585 -2.3010 -0.9369  1.4177
  246MOL0     H33886   9.916   1.910  -0.538  0.1493  1.3936 -1.1107
  246MOL0     H33887   9.982   2.156  -0.545 -0.2101  1.1775 -0.6223
  246MOL0     H33888  10.143   2.104  -0.598  0.4610 -1.5607 -1.5197
  246MOL0     H33889   9.880   2.029  -0.735 -0.0878 -0.0826 -1.9762
  246MOL0     H33890  10.040   1.977  -0.796  0.9295  0.8169  1.9528
  246MOL0     H33891  10.100   2.227  -0.828 -1.7211  3.5253  1.5938
  246MOL0     H33892   9.988   2.148  -0.938  1.7617 -1.3307 -0.1044
  246MOL0     H33893   9.945   2.342  -0.694 -0.5791 -1.0841  0.3998
  246MOL0     H33894   9.811   2.237  -0.755 -0.6964 -2.2677 -3.7105
  246MOL0     H33895   9.956   2.423  -0.954 -0.8370 -0.6581 -1.1858
  246MOL0     H33896   9.797   2.343  -0.971  0.9242  1.7808 -1.5638
  246MOL0     H33897   9.959   2.602  -0.765  0.4868  0.5513 -1.2243
  246MOL0     H33898   9.839   2.860  -0.727  1.0627  0.7356  2.0835
  246MOL0     H33899   9.774   2.785  -0.580 -0.8745  2.6418  1.7597
  246MOL0     H33900   9.651   2.987  -0.748 -0.0641 -1.3481 -3.3800
  246MOL0     H33901   9.535   2.857  -0.728  0.2607  1.2439  1.2582
  246MOL0     H33902   9.679   2.975  -0.495  0.8243 -1.3122 -1.3689
  246MOL0     H33903   9.518   3.030  -0.547 -4.3338 -3.8796  1.4520
  246MOL0     H33904   9.424   2.850  -0.443 -0.2215  1.6529  0.9905
  246MOL0     H33905   9.536   2.744  -0.536  4.6262  0.2989 -2.0976
  246MOL0     H33906   9.430   2.659  -0.238 -0.6861  0.9817 -2.2965
  246MOL0     H33907   9.303   2.634   0.091 -2.9556 -5.4996 -0.7037
  246MOL0     H33908   9.305   2.584  -0.075 -1.2076  0.5691 -0.1469
  246MOL0     H33909   9.176   2.693  -0.026  0.0820  2.8951 -0.7590
  246MOL0     H33910   9.350   3.177   0.272 -0.1374  2.6887 -2.4538
  246MOL0     H33911   9.267   3.259   0.481  2.4367 -0.7028 -1.6895
  246MOL0     H33912   9.082   3.372   0.680  1.4752 -3.4911 -2.0399
  246MOL0     H33913   9.122   3.444   0.542  1.3135 -1.5254 -0.4457
  246MOL0     H33914   8.990   3.593   0.652 -3.3109 -0.9858  2.4646
  246MOL0     H33915   8.924   3.540   0.497  0.2746  1.5476  0.2981
  246MOL0     H33916   8.841   3.424   0.769  3.5564 -1.9437 -1.9721
  246MOL0     H33917   8.750   3.401   0.620 -1.2689  0.0714  0.2530
  246MOL0     H33918   8.630   3.572   0.745  1.0039  1.7778  2.6292
  246MOL0     H33919   8.702   3.655   0.618  0.8624  2.0564  0.7481
  246MOL0     H33920   8.803   3.637   0.906  3.5219  1.1043  1.0400
  246MOL0     H33921   8.899   3.711   0.787  0.1947  0.5465  0.3608
  246MOL0     H33922   8.623   3.805   0.780  0.9823 -0.9677 -2.2832
  246MOL0     H33923   8.762   3.898   0.755  2.0053  0.8843  2.0702
  246MOL0     H33924   8.821   3.909   0.997  0.2380  1.0325  0.2174
  246MOL0     H33925   8.678   3.805   1.032  0.1948  1.0261  0.3187
  246MOL0     H33926   8.697   4.070   0.905  0.6246 -2.9832 -0.8742
  246MOL0     H33927   8.633   4.049   1.077 -0.6284  0.5496 -0.1289
  246MOL0     H33928   8.855   3.180   0.330 -0.4079  1.2223 -4.1634
  246MOL0     H33929   8.956   3.081   0.137 -0.6029  0.6088  0.5187
  246MOL0     H33930   9.449   3.098  -0.018 -2.4683 -1.2104  1.0152
  246MOL0     H33931   9.625   3.035  -0.210 -0.8781 -0.1945 -0.0453
  246MOL0     H33932   9.963   2.041  -0.078 -1.3210  1.2526  0.9563
  246MOL0     H33933   9.835   2.066   0.135  1.1439  0.4179 -0.7637
  246MOL0     H33934   9.488   1.894   0.365  0.9204  0.4327 -0.6414
  246MOL0     H33935   9.396   1.885   0.579 -1.3241  1.1489  2.1488
  246MOL0     H33936   9.191   2.200   0.773  0.3230  0.4060 -0.8649
  246MOL0     H33937   9.177   2.070   0.889  0.6185  1.4626  1.6252
  246MOL0     H33938   9.347   2.274   0.905 -3.0329 -0.9405  2.1175
  246MOL0     H33939   9.461   2.164   0.823  2.9396 -0.5040  2.8318
  246MOL0     H33940   9.311   2.118   1.079 -0.0091  0.8127  0.1172
  246MOL0     H33941   9.391   1.991   0.977  3.0054  0.9186 -2.7019
  246MOL0     H33942   9.526   2.218   1.122 -2.2880  1.3091 -3.1180
  246MOL0     H33943   9.611   2.090   1.022  0.5583  0.7813 -0.2144
  246MOL0     H33944   9.489   1.863   1.351 -1.2838  2.6101  0.9436
  246MOL0     H33945   9.280   2.291   0.569 -0.8438 -0.2566  1.4120
  246MOL0     H33946   9.425   2.424   0.394  3.3772 -2.1774 -1.5855
  246MOL0     H33947   9.373   2.364   0.240 -1.8750  1.2298 -0.1826
  246MOL0     H33948   9.250   2.379   0.357 -0.9233 -0.6110 -2.1370
  247MOL0     O33949   1.198  11.417   2.151  0.0101  0.1859 -0.0572
  247MOL0     C33950   1.248  11.432   2.034  0.6665  0.2523  0.5944
  247MOL0     O33951   1.238  11.352   1.927 -0.2922  0.2995 -0.3662
  247MOL0     C33952   1.193  11.226   1.961 -0.7058  0.2679  0.4339
  247MOL0     C33953   1.062  11.188   1.932 -0.4232 -0.2315  0.5040
  247MOL0     C33954   1.004  11.059   1.948 -0.3283 -0.8887 -0.4489
  247MOL0     C33955   1.100  10.962   1.988 -0.0133 -0.6336 -0.1383
  247MOL0     O33956   1.039  10.838   2.015 -0.6804 -0.6568 -0.5507
  247MOL0     C33957   1.104  10.718   2.042 -0.4232  0.4580  1.4980
  247MOL0     C33958   1.006  10.600   2.000 -0.0264  0.1407  0.8984
  247MOL0     C33959   0.890  10.580   2.101  0.2088 -0.5861 -0.5556
  247MOL0     C33960   0.760  10.516   2.047 -0.1716  0.2557  0.3583
  247MOL0     C33961   0.662  10.497   2.175  0.2084  0.2603 -0.3667
  247MOL0     C33962   0.525  10.439   2.146 -0.1140  0.3428 -0.3746
  247MOL0     C33963   0.451  10.506   2.032 -0.1652  0.6519 -0.1669
  247MOL0     C33964   0.403  10.656   2.054 -0.2322  0.1438 -0.0656
  247MOL0     N33965   0.281  10.686   1.978  0.4320 -0.6053 -0.0502
  247MOL0     C33966   0.207  10.614   1.884  0.1311  0.1803 -0.0848
  247MOL0     C33967   0.112  10.702   1.841  0.8582  0.0066 -0.9751
  247MOL0     C33968   0.001  10.670   1.752 -0.2376  0.4938 -1.0848
  247MOL0     C33969  -0.121  10.609   1.828  0.3849  0.6972 -1.0305
  247MOL0     C33970  -0.247  10.614   1.745  0.3293  0.3078 -0.3326
  247MOL0     C33971  -0.307  10.757   1.717 -0.3279 -0.2491  0.2617
  247MOL0     O33972  -0.436  10.768   1.657 -0.6292 -0.1910 -0.4201
  247MOL0     C33973  -0.548  10.772   1.738  0.1855  0.5612  0.0235
  247MOL0     C33974  -0.557  10.728   1.878  0.7008  0.3535  0.3629
  247MOL0     C33975  -0.685  10.731   1.942  1.1733  0.1285  0.6216
  247MOL0     C33976  -0.681  10.696   2.085 -0.0817 -0.4005 -0.8035
  247MOL0     C33977  -0.804  10.778   1.867  0.6382 -0.2229 -0.1818
  247MOL0     C33978  -0.936  10.788   1.929  0.2379 -0.4602 -0.3841
  247MOL0     O33979  -0.957  10.713   2.044  0.4221  0.3317 -0.0350
  247MOL0     C33980  -1.090  10.718   2.099 -0.8453 -0.2916 -1.0743
  247MOL0     C33981  -1.183  10.617   2.087 -0.4470 -0.0331 -0.8139
  247MOL0     C33982  -1.314  10.623   2.130 -0.4783 -0.3918  0.0839
  247MOL0     C33983  -1.359  10.750   2.179 -0.8160 -0.0621  0.4505
  247MOL0     O33984  -1.479  10.759   2.229 -0.3203  0.3995  0.5882
  247MOL0     C33985  -1.560  10.880   2.214  0.2117 -0.0273 -0.0427
  247MOL0     C33986  -1.572  10.965   2.346  0.4478  0.2838  0.3959
  247MOL0     C33987  -1.591  10.878   2.469  0.5003  0.0127 -0.6159
  247MOL0     C33988  -1.724  10.792   2.479 -0.3517  0.3568  1.2024
  247MOL0     C33989  -1.722  10.687   2.590 -0.7455  0.0878  0.2556
  247MOL0     C33990  -1.857  10.619   2.622  0.0921 -0.3924 -0.2969
  247MOL0     C33991  -1.840  10.513   2.734  0.1588 -0.4314  0.5660
  247MOL0     C33992  -1.965  10.450   2.793  0.5404 -0.1069  0.0421
  247MOL0    Cl33993  -1.924  10.401   2.958 -0.1223 -0.0910  0.2733
  247MOL0     C33994  -1.265  10.845   2.200  0.5983 -0.4246 -0.1977
  247MOL0     C33995  -1.128  10.835   2.160 -0.3428  0.0138 -0.1195
  247MOL0     O33996  -1.018  10.854   1.870 -0.2030  0.5018 -0.8782
  247MOL0     C33997  -0.790  10.808   1.733  0.9090 -0.3797 -0.5638
  247MOL0     C33998  -0.670  10.792   1.670  0.3984 -1.0561 -0.1924
  247MOL0     N33999   0.121  10.816   1.904  0.1390 -0.7859 -0.1294
  247MOL0     N34000   0.206  10.805   1.993 -0.5719 -0.1567 -0.2147
  247MOL0     C34001   1.238  10.992   2.012 -0.2644  0.0666 -0.2182
  247MOL0     C34002   1.288  11.127   1.991  0.5747  0.1505 -0.5055
  247MOL0     C34003   1.353  11.541   2.034 -0.6227 -0.7749 -1.1692
  247MOL0     C34004   1.453  11.523   1.941 -0.2873 -1.3825  0.0880
  247MOL0     C34005   1.553  11.613   1.911 -0.3257  0.0695  0.6610
  247MOL0     C34006   1.555  11.738   1.974 -0.6228  0.6291 -0.2389
  247MOL0     O34007   1.650  11.840   1.960  0.1757 -0.3307  0.1489
  247MOL0     C34008   1.737  11.821   1.851  0.3222 -0.0332 -1.0876
  247MOL0     C34009   1.818  11.952   1.833  0.1059  0.5533 -0.5888
  247MOL0     C34010   1.723  12.063   1.779  1.0892  0.4449  0.2355
  247MOL0     C34011   1.787  12.207   1.765 -0.6874 -0.3268 -0.3891
  247MOL0     C34012   1.841  12.261   1.886 -0.1445  0.3490 -0.3609
  247MOL0     C34013   1.867  12.304   1.996 -0.0267  0.3164 -0.3375
  247MOL0     C34014   1.454  11.759   2.072  0.1978 -0.2747  0.0123
  247MOL0     C34015   1.358  11.668   2.112 -0.1137 -0.0225  0.2567
  247MOL0     C34016   1.258  11.686   2.225  0.2794  0.5569  0.0068
  247MOL0     H34017   0.992  11.266   1.901 -1.1730 -1.8572 -2.2242
  247MOL0     H34018   0.901  11.025   1.947 -0.8298  0.4936 -2.2664
  247MOL0     H34019   1.123  10.698   2.148  0.3417 -0.6146  1.1742
  247MOL0     H34020   1.193  10.699   1.982 -0.3470 -0.8420  1.9909
  247MOL0     H34021   0.964  10.616   1.901  0.5612  1.2824  0.8110
  247MOL0     H34022   1.068  10.510   1.992  0.4739  0.2667  2.7017
  247MOL0     H34023   0.933  10.516   2.178 -1.9780 -2.7250 -1.0137
  247MOL0     H34024   0.875  10.673   2.156  2.4157 -2.0070  2.7389
  247MOL0     H34025   0.726  10.592   1.975  1.3922  2.3927  1.7757
  247MOL0     H34026   0.783  10.423   1.994  2.1828  1.9971 -1.9370
  247MOL0     H34027   0.650  10.596   2.220  3.2937  0.1894  0.8815
  247MOL0     H34028   0.706  10.430   2.248 -0.7294 -0.8093 -0.7597
  247MOL0     H34029   0.535  10.333   2.118  1.3534  0.9829 -2.5630
  247MOL0     H34030   0.451  10.460   2.223 -2.0053 -3.3307 -0.9765
  247MOL0     H34031   0.359  10.449   2.017 -3.2264  4.7385  1.1074
  247MOL0     H34032   0.506  10.490   1.938 -3.2325 -2.7310 -1.6270
  247MOL0     H34033   0.379  10.673   2.159 -2.3705  1.8844 -0.7794
  247MOL0     H34034   0.480  10.727   2.023 -0.2552  0.2585  0.1407
  247MOL0     H34035   0.215  10.508   1.861  2.6210  0.4039 -0.5807
  247MOL0     H34036   0.039  10.603   1.674 -2.0856 -0.6349 -1.0817
  247MOL0     H34037  -0.035  10.757   1.697 -1.6054  0.4685 -0.2754
  247MOL0     H34038  -0.095  10.507   1.857 -0.8920 -0.0600 -2.4271
  247MOL0     H34039  -0.137  10.661   1.923  0.8755  0.0194 -0.5725
  247MOL0     H34040  -0.216  10.573   1.648  1.9663  0.9932 -0.1354
  247MOL0     H34041  -0.336  10.557   1.775 -0.2235  2.5500  2.7588
  247MOL0     H34042  -0.308  10.824   1.803 -2.8958  2.4622 -1.6514
  247MOL0     H34043  -0.253  10.811   1.638 -2.0801 -0.5008 -1.1802
  247MOL0     H34044  -0.468  10.724   1.940  0.2832 -1.0942  0.9032
  247MOL0     H34045  -0.734  10.772   2.143  3.5271  1.3685  0.4520
  247MOL0     H34046  -0.580  10.694   2.126 -0.9104  1.8134  1.6240
  247MOL0     H34047  -0.729  10.599   2.100 -3.1202  1.0808 -0.1058
  247MOL0     H34048  -1.145  10.523   2.047  2.6379  0.7759 -0.0829
  247MOL0     H34049  -1.386  10.543   2.116 -0.3321 -0.6190  0.6161
  247MOL0     H34050  -1.519  10.940   2.132  1.1460 -1.8079 -0.9422
  247MOL0     H34051  -1.658  10.859   2.170  0.1557  1.5507 -0.7473
  247MOL0     H34052  -1.479  11.020   2.365  1.3015 -0.4371 -1.4926
  247MOL0     H34053  -1.664  11.025   2.340 -1.8211 -3.0056 -0.0771
  247MOL0     H34054  -1.586  10.932   2.564 -2.2844 -1.2135  0.3216
  247MOL0     H34055  -1.513  10.801   2.468 -0.4251 -0.9778 -2.3702
  247MOL0     H34056  -1.749  10.731   2.392 -3.8074 -0.5170  2.6380
  247MOL0     H34057  -1.814  10.851   2.499 -2.4778 -0.6747 -3.8552
  247MOL0     H34058  -1.669  10.596   2.560  0.6525  0.6372  0.9507
  247MOL0     H34059  -1.687  10.733   2.683 -1.5608 -1.1812  1.2436
  247MOL0     H34060  -1.905  10.569   2.537 -0.3264  0.0110 -0.3062
  247MOL0     H34061  -1.921  10.706   2.642 -0.0926 -0.4748 -0.5179
  247MOL0     H34062  -1.777  10.563   2.809  2.9818  1.1396 -2.6088
  247MOL0     H34063  -1.779  10.431   2.695 -0.9467 -2.1363  2.1946
  247MOL0     H34064  -2.003  10.368   2.730  2.6850  0.0990 -1.6169
  247MOL0     H34065  -2.035  10.534   2.792  0.5848  0.2074  4.3364
  247MOL0     H34066  -1.298  10.923   2.268  1.1316 -0.2892 -0.0850
  247MOL0     H34067  -1.053  10.912   2.177 -0.4089 -0.1500  1.0210
  247MOL0     H34068  -0.880  10.842   1.683  1.4638  1.5314 -0.3340
  247MOL0     H34069  -0.661  10.808   1.563 -1.7138  0.4204 -0.2185
  247MOL0     H34070   1.302  10.911   2.045  2.6786  1.5550 -1.9208
  247MOL0     H34071   1.390  11.155   2.014 -0.7750  3.4117  2.5171
  247MOL0     H34072   1.460  11.433   1.880 -1.0295 -0.3341 -1.6271
  247MOL0     H34073   1.635  11.578   1.849  2.0508  2.9181  1.9423
  247MOL0     H34074   1.804  11.735   1.863 -3.5343 -3.6056 -2.5926
  247MOL0     H34075   1.677  11.805   1.761 -1.2272  1.9736 -0.4871
  247MOL0     H34076   1.890  11.927   1.754  2.6334 -2.0231  2.2863
  247MOL0     H34077   1.866  11.975   1.928  1.1586 -1.1998 -0.6668
  247MOL0     H34078   1.698  12.035   1.677 -3.0537  5.0896 -0.3685
  247MOL0     H34079   1.629  12.062   1.835 -0.5999  1.5513 -2.4313
  247MOL0     H34080   1.722  12.283   1.720  1.7183  1.5259 -0.9481
  247MOL0     H34081   1.873  12.203   1.698  1.8944  0.5407  2.6624
  247MOL0     H34082   1.881  12.367   2.081 -0.7549  1.1854 -0.8358
  247MOL0     H34083   1.453  11.856   2.122 -2.4897 -0.7500  1.0766
  247MOL0     H34084   1.238  11.787   2.262 -0.9849 -0.0668  1.0921
  247MOL0     H34085   1.164  11.638   2.195  1.2523 -1.1632 -0.4112
  247MOL0     H34086   1.292  11.632   2.313  0.8019  1.2855  0.2635
  248MOL0     O34087   2.853   9.680   5.453 -0.5916 -0.5171  0.5746
  248MOL0     C34088   2.861   9.805   5.477  0.2863 -0.6476 -0.5844
  248MOL0     O34089   2.801   9.897   5.397  0.1936 -0.6711  0.6909
  248MOL0     C34090   2.716   9.883   5.288 -0.3871  1.0717  0.7845
  248MOL0     C34091   2.717   9.767   5.205 -0.5329  0.0609 -0.1672
  248MOL0     C34092   2.623   9.745   5.092 -0.0512 -0.7207  0.1780
  248MOL0     C34093   2.527   9.848   5.081 -0.2115 -0.6546  0.5400
  248MOL0     O34094   2.408   9.838   5.010 -0.1370 -0.4641  0.6180
  248MOL0     C34095   2.421   9.765   4.883 -0.6608 -0.2200 -0.0254
  248MOL0     C34096   2.323   9.821   4.779 -0.1517 -0.3537 -0.4957
  248MOL0     C34097   2.288   9.719   4.667 -0.4281  0.6012 -0.6253
  248MOL0     C34098   2.183   9.790   4.576 -0.5235 -0.0361  0.5179
  248MOL0     C34099   2.163   9.712   4.448 -0.4222  0.2473 -1.1315
  248MOL0     C34100   2.027   9.721   4.393 -0.4633  0.4997  0.9252
  248MOL0     C34101   2.003   9.660   4.257 -0.0240  0.0622 -0.6308
  248MOL0     C34102   1.994   9.765   4.150 -0.1626 -0.2392  0.0690
  248MOL0     N34103   1.869   9.835   4.143  0.6796  0.3258 -0.6799
  248MOL0     C34104   1.773   9.804   4.053  0.1985  0.0840  0.2660
  248MOL0     C34105   1.690   9.909   4.059  0.2402  1.5111 -0.1964
  248MOL0     C34106   1.559   9.917   3.984 -0.5601 -0.7806  0.4016
  248MOL0     C34107   1.591   9.959   3.841  0.5554 -0.5244  0.4324
  248MOL0     C34108   1.619  10.101   3.823  0.7259 -0.3746  0.3722
  248MOL0     C34109   1.723  10.125   3.710  1.0484 -0.2996 -0.7079
  248MOL0     O34110   1.660  10.072   3.592 -0.0829 -0.0450  0.3050
  248MOL0     C34111   1.719  10.117   3.474  1.1212 -0.4715 -0.2916
  248MOL0     C34112   1.843  10.076   3.425  0.0015  0.3853  0.4754
  248MOL0     C34113   1.905  10.148   3.327  0.4590  0.1787  0.7803
  248MOL0     C34114   2.047  10.111   3.293 -0.3880 -0.0124 -0.2098
  248MOL0     C34115   1.832  10.248   3.243 -1.0732  0.3662  0.5289
  248MOL0     C34116   1.889  10.318   3.126  0.6225  0.4656 -0.0463
  248MOL0     O34117   2.019  10.274   3.080  0.6332  0.9042  0.2222
  248MOL0     C34118   2.095  10.369   3.018  0.3125 -0.3099  0.0821
  248MOL0     C34119   2.085  10.510   3.043 -0.1488 -0.1861 -0.2426
  248MOL0     C34120   2.176  10.602   2.990  0.1623  0.4004 -1.3629
  248MOL0     C34121   2.284  10.555   2.924 -0.7837  0.1351  0.5729
  248MOL0     O34122   2.367  10.649   2.878 -0.1595 -1.3084 -0.0460
  248MOL0     C34123   2.501  10.623   2.900  0.0713 -0.3822  0.0065
  248MOL0     C34124   2.544  10.603   3.047 -0.1992  0.1425  0.2963
  248MOL0     C34125   2.694  10.621   3.080 -0.3076  0.4727 -0.3576
  248MOL0     C34126   2.729  10.573   3.231  0.3781  0.2461 -0.1774
  248MOL0     C34127   2.745  10.413   3.225  0.0676 -0.2326 -0.5393
  248MOL0     C34128   2.793  10.341   3.353  0.1279 -0.3133 -0.0781
  248MOL0     C34129   2.691  10.351   3.457  0.4877 -0.1839  0.6566
  248MOL0     C34130   2.727  10.274   3.582  0.1040 -0.6209 -0.2569
  248MOL0    Cl34131   2.607  10.316   3.718  0.2774  0.2137 -0.3983
  248MOL0     C34132   2.300  10.413   2.891  0.4734  0.2903  0.5730
  248MOL0     C34133   2.205  10.324   2.939  0.2950  0.0812  0.0114
  248MOL0     O34134   1.819  10.406   3.063  0.5045  0.3684 -0.4505
  248MOL0     C34135   1.707  10.291   3.286  0.0917  0.5256  0.0051
  248MOL0     C34136   1.667  10.226   3.403 -0.3283  0.4994 -0.2088
  248MOL0     N34137   1.729  10.008   4.149  0.2039 -0.0105 -0.1902
  248MOL0     N34138   1.840   9.955   4.194  0.1165  0.3969 -0.4084
  248MOL0     C34139   2.523   9.959   5.178  0.0887  0.7431  0.1777
  248MOL0     C34140   2.615   9.973   5.276  0.1288  0.0968 -0.2868
  248MOL0     C34141   2.944   9.865   5.593 -0.4881  0.2792 -0.8332
  248MOL0     C34142   2.991  10.001   5.576  0.9554  1.1246 -0.4436
  248MOL0     C34143   3.059  10.064   5.690 -0.3511 -0.3404 -0.4538
  248MOL0     C34144   3.103   9.993   5.801 -0.3083  0.2870  1.2129
  248MOL0     O34145   3.183  10.058   5.894  0.2402  0.7985  1.2589
  248MOL0     C34146   3.115  10.159   5.972 -0.5902  0.2797 -0.2920
  248MOL0     C34147   3.124  10.118   6.114 -0.3554  0.1252 -0.4549
  248MOL0     C34148   3.056  10.216   6.213  0.1460  0.3670  0.0537
  248MOL0     C34149   3.147  10.333   6.236 -0.7563 -0.7265  0.1907
  248MOL0     C34150   3.105  10.407   6.356 -1.3565  0.8438  0.7173
  248MOL0     C34151   3.065  10.473   6.448 -0.1945 -0.0667  1.7648
  248MOL0     C34152   3.063   9.858   5.813 -0.8585 -0.8718 -0.3237
  248MOL0     C34153   2.983   9.800   5.714  0.2495  0.2547 -0.0548
  248MOL0     C34154   2.964   9.652   5.717  0.6479  0.1388 -0.4078
  248MOL0     H34155   2.789   9.688   5.225 -0.7161 -0.9172 -2.9737
  248MOL0     H34156   2.616   9.655   5.033 -0.3889 -0.9942  0.6242
  248MOL0     H34157   2.401   9.660   4.905 -0.5033 -0.7391 -2.1630
  248MOL0     H34158   2.525   9.776   4.851  0.5166 -4.0879  1.8048
  248MOL0     H34159   2.226   9.844   4.822  0.4003  0.9840  0.1019
  248MOL0     H34160   2.363   9.914   4.738  2.3784 -0.0083  2.3779
  248MOL0     H34161   2.373   9.711   4.600  0.2694  1.0357  0.1809
  248MOL0     H34162   2.240   9.624   4.694  1.8878 -0.0484  1.6589
  248MOL0     H34163   2.084   9.793   4.622 -1.4055 -1.2971 -1.2262
  248MOL0     H34164   2.210   9.888   4.536  0.1974 -1.1709 -1.9335
  248MOL0     H34165   2.198   9.609   4.455 -0.7519  0.1054 -1.5667
  248MOL0     H34166   2.237   9.767   4.389  2.0491 -1.0215  0.6132
  248MOL0     H34167   1.952   9.677   4.459  0.9726 -0.5357  1.9598
  248MOL0     H34168   1.998   9.826   4.384  2.0476  1.1879 -0.1907
  248MOL0     H34169   1.906   9.609   4.261 -0.2610  0.5494 -0.1348
  248MOL0     H34170   2.082   9.586   4.240  0.0729 -0.0384  0.2219
  248MOL0     H34171   2.065   9.845   4.173 -0.6066 -0.0121  0.6824
  248MOL0     H34172   2.013   9.715   4.054 -2.6816 -0.5626 -0.3296
  248MOL0     H34173   1.782   9.713   3.995 -2.2468 -0.9710  1.4134
  248MOL0     H34174   1.491   9.992   4.025 -0.1136  0.0259 -0.2948
  248MOL0     H34175   1.504   9.823   3.989  0.8810 -1.6322  1.0380
  248MOL0     H34176   1.678   9.898   3.813 -0.3836 -0.8649 -1.9822
  248MOL0     H34177   1.511   9.926   3.774  0.0473 -0.4157  0.9791
  248MOL0     H34178   1.524  10.153   3.805  1.3974  0.1830 -1.9402
  248MOL0     H34179   1.674  10.152   3.902  1.6376  1.5057 -1.3673
  248MOL0     H34180   1.749  10.230   3.693  2.6543 -0.4789  0.3733
  248MOL0     H34181   1.819  10.083   3.740  0.5539  0.0350  1.5256
  248MOL0     H34182   1.892   9.992   3.473  0.0274  1.2966  2.1405
  248MOL0     H34183   2.102  10.206   3.289 -2.0729  0.9993 -0.3926
  248MOL0     H34184   2.052  10.063   3.195 -1.7614 -0.0254 -0.2930
  248MOL0     H34185   2.100  10.044   3.362  1.5455  1.0870 -0.5500
  248MOL0     H34186   2.001  10.547   3.101 -1.0136  0.7759 -2.0269
  248MOL0     H34187   2.160  10.706   3.015  0.5253 -0.0437  0.8978
  248MOL0     H34188   2.523  10.538   2.834  0.6976 -0.1821 -0.0454
  248MOL0     H34189   2.559  10.709   2.867 -1.1416  0.9819  1.3033
  248MOL0     H34190   2.492  10.679   3.106 -2.1560 -1.3324  0.5682
  248MOL0     H34191   2.519  10.500   3.073  1.9466  0.5935  5.1421
  248MOL0     H34192   2.729  10.725   3.079 -0.7091  0.8251  3.9234
  248MOL0     H34193   2.755  10.559   3.014 -2.4413 -0.7917 -1.2569
  248MOL0     H34194   2.643  10.595   3.294 -1.0757 -2.0109 -1.2357
  248MOL0     H34195   2.821  10.619   3.268 -1.2504  2.5725  1.2038
  248MOL0     H34196   2.655  10.359   3.192 -1.2289  0.1905  2.0231
  248MOL0     H34197   2.813  10.388   3.144 -0.2230  1.5206 -1.3818
  248MOL0     H34198   2.896  10.370   3.377  0.6749 -0.8979 -1.5583
  248MOL0     H34199   2.820  10.240   3.321  0.7952 -0.5005  1.0223
  248MOL0     H34200   2.597  10.307   3.423 -1.0506  3.9609 -0.9652
  248MOL0     H34201   2.665  10.453   3.484 -3.1268 -0.4468 -1.2449
  248MOL0     H34202   2.827  10.297   3.620 -0.4173 -0.8270  1.2984
  248MOL0     H34203   2.726  10.169   3.553 -0.1471  0.1453 -3.4480
  248MOL0     H34204   2.385  10.386   2.829 -0.3114  0.5579 -0.6540
  248MOL0     H34205   2.206  10.222   2.902 -1.5799 -0.5454  1.5613
  248MOL0     H34206   1.656  10.379   3.248  3.2696  3.2525  1.5010
  248MOL0     H34207   1.573  10.266   3.440 -0.1580  0.5678  0.1580
  248MOL0     H34208   2.441  10.030   5.178 -1.7998 -1.3420 -0.1878
  248MOL0     H34209   2.608  10.062   5.337 -0.0558  1.8403 -2.7233
  248MOL0     H34210   2.961  10.040   5.479  0.1666 -1.7533 -1.4525
  248MOL0     H34211   3.098  10.165   5.681 -0.0152 -0.1229  2.5657
  248MOL0     H34212   3.171  10.249   5.946  1.7514 -1.4846 -1.7594
  248MOL0     H34213   3.011  10.165   5.939 -0.8875 -1.7712  0.1208
  248MOL0     H34214   3.230  10.105   6.134 -0.6198  1.6297  2.4228
  248MOL0     H34215   3.074  10.022   6.132 -2.4432  1.3008  0.4171
  248MOL0     H34216   2.961  10.260   6.179  1.2443  3.4941  0.7015
  248MOL0     H34217   3.022  10.155   6.297 -3.6976  0.5349 -1.1756
  248MOL0     H34218   3.147  10.403   6.151 -1.0581  1.5944  1.9808
  248MOL0     H34219   3.250  10.301   6.250 -0.1554  0.9705 -0.0288
  248MOL0     H34220   3.040  10.540   6.529 -3.0688  1.2237 -0.0289
  248MOL0     H34221   3.091   9.805   5.903  1.7597  0.7928 -0.0358
  248MOL0     H34222   2.859   9.625   5.712  1.2584 -3.8554  3.0821
  248MOL0     H34223   3.029   9.594   5.651  0.5376 -3.8108  2.6177
  248MOL0     H34224   2.980   9.636   5.824 -2.6287  1.8611  0.4633
  249MOL0     O34225   5.790   3.216  10.545  0.7998 -0.0270 -0.1538
  249MOL0     C34226   5.824   3.156  10.452  0.0536  0.2314  0.7059
  249MOL0     O34227   5.754   3.062  10.380 -0.2055 -0.1211  1.0374
  249MOL0     C34228   5.616   3.043  10.385  0.9259  0.5219  0.3943
  249MOL0     C34229   5.524   3.133  10.350 -0.3542 -0.3788  0.6646
  249MOL0     C34230   5.388   3.092  10.349  0.2820 -0.9096 -0.3978
  249MOL0     C34231   5.349   2.972  10.397 -0.5698  1.2541  0.6186
  249MOL0     O34232   5.219   2.937  10.394  1.1555 -0.3574 -0.6934
  249MOL0     C34233   5.165   2.929  10.267  0.4705 -0.2933 -0.2344
  249MOL0     C34234   5.015   2.910  10.285 -0.0954  1.2403  0.0329
  249MOL0     C34235   4.965   2.758  10.321 -0.7305  0.0655  0.2688
  249MOL0     C34236   5.018   2.659  10.212  0.4593  0.6360  0.3420
  249MOL0     C34237   4.906   2.555  10.164 -0.0059 -0.5907 -0.2709
  249MOL0     C34238   4.795   2.637  10.084  1.1885  0.6524 -0.0602
  249MOL0     C34239   4.679   2.544  10.030 -0.8578 -1.2573  0.2426
  249MOL0     C34240   4.575   2.520  10.138  0.3091  0.5503 -0.1840
  249MOL0     N34241   4.531   2.640  10.207  0.2969 -0.5609 -0.2437
  249MOL0     C34242   4.440   2.734  10.145 -0.9970  0.4553 -0.8179
  249MOL0     C34243   4.379   2.792  10.251 -0.3303 -0.5669 -1.2880
  249MOL0     C34244   4.268   2.891  10.258 -0.1049 -1.3382  0.7253
  249MOL0     C34245   4.320   3.022  10.332 -0.0819 -0.1475  0.2653
  249MOL0     C34246   4.204   3.119  10.374 -0.7549  0.9792 -0.0599
  249MOL0     C34247   4.239   3.214  10.482  0.0775  0.5486 -0.7061
  249MOL0     O34248   4.377   3.250  10.474 -0.8433 -1.0150 -0.3552
  249MOL0     C34249   4.386   3.386  10.446  0.3484  0.7977  0.3518
  249MOL0     C34250   4.366   3.478  10.549  0.2114 -0.0185 -0.4063
  249MOL0     C34251   4.370   3.620  10.520 -0.3374  0.0388  1.0736
  249MOL0     C34252   4.346   3.713  10.628  0.3705  0.0799 -0.5143
  249MOL0     C34253   4.384   3.661  10.383 -0.7863  0.1060  0.2827
  249MOL0     C34254   4.384   3.801  10.334 -0.0396  0.2763  0.3527
  249MOL0     O34255   4.445   3.887  10.420 -0.5392 -0.1164 -0.1704
  249MOL0     C34256   4.405   4.015  10.420 -0.7952 -0.6764  0.9817
  249MOL0     C34257   4.456   4.105  10.328 -0.7551 -0.3722  0.0200
  249MOL0     C34258   4.426   4.237  10.322 -0.9917 -0.0587 -0.3043
  249MOL0     C34259   4.349   4.290  10.427  0.0724 -0.6798 -0.0978
  249MOL0     O34260   4.329   4.427  10.454  0.3367  0.6309 -0.4298
  249MOL0     C34261   4.346   4.525  10.356  0.1757  0.4556  0.0210
  249MOL0     C34262   4.351   4.665  10.406  0.1254 -0.2020 -0.3715
  249MOL0     C34263   4.382   4.773  10.303 -0.0735 -0.4086  0.1285
  249MOL0     C34264   4.329   4.902  10.351  0.3378 -0.2546 -1.1017
  249MOL0     C34265   4.319   5.004  10.233  0.0334 -0.7399  0.0131
  249MOL0     C34266   4.192   4.987  10.137 -0.1724  0.9179 -0.5612
  249MOL0     C34267   4.170   5.093  10.033  0.1645  0.0313  0.0838
  249MOL0     C34268   4.108   5.031   9.905 -0.5221 -1.2096  0.2444
  249MOL0    Cl34269   3.953   4.969   9.933  0.0046 -0.2510  0.2436
  249MOL0     C34270   4.300   4.209  10.525 -0.3706  0.8886 -0.3071
  249MOL0     C34271   4.321   4.073  10.517 -1.2064  0.6226  0.1538
  249MOL0     O34272   4.314   3.833  10.236 -0.0997  0.1045  0.5316
  249MOL0     C34273   4.397   3.561  10.285 -0.1825 -0.3387  0.1005
  249MOL0     C34274   4.412   3.424  10.317  1.4817  0.1970  0.1416
  249MOL0     N34275   4.434   2.734  10.368 -0.2182 -0.3615  0.2378
  249MOL0     N34276   4.524   2.640  10.341 -0.4858  1.1516  0.3569
  249MOL0     C34277   5.448   2.882  10.435  0.3374  0.5907  0.4733
  249MOL0     C34278   5.581   2.910  10.429  0.4527 -0.5534 -0.7688
  249MOL0     C34279   5.951   3.193  10.397 -0.3836  0.6820 -0.4475
  249MOL0     C34280   5.965   3.322  10.365  0.4837  0.4546  0.7749
  249MOL0     C34281   6.083   3.362  10.302 -0.0534 -0.5017  0.4120
  249MOL0     C34282   6.191   3.280  10.278  0.1061  0.2965 -0.2997
  249MOL0     O34283   6.302   3.348  10.237  0.2464  0.1526  0.1090
  249MOL0     C34284   6.422   3.267  10.221  0.4062  0.4618 -0.1989
  249MOL0     C34285   6.409   3.210  10.073  0.1554 -0.0882  0.5057
  249MOL0     C34286   6.407   3.312   9.954 -0.9612  0.0945 -0.3970
  249MOL0     C34287   6.548   3.376   9.940  0.0228 -0.1044  0.1342
  249MOL0     C34288   6.575   3.466   9.821 -0.1033 -0.7538  0.8059
  249MOL0     C34289   6.580   3.534   9.722 -0.4111 -0.0413  0.2113
  249MOL0     C34290   6.175   3.136  10.301  0.1381 -0.9476  0.1023
  249MOL0     C34291   6.050   3.092  10.348 -0.0287 -0.8027 -0.2616
  249MOL0     C34292   6.035   2.956  10.393 -0.1297 -0.5987 -0.4275
  249MOL0     H34293   5.544   3.225  10.296  1.0937 -1.8180 -1.4436
  249MOL0     H34294   5.314   3.163  10.315  0.0543  0.0447  1.8983
  249MOL0     H34295   5.218   2.854  10.208  0.4261  0.2651 -1.0033
  249MOL0     H34296   5.180   3.017  10.204  0.5343 -0.3505 -0.2998
  249MOL0     H34297   4.975   2.979  10.359 -3.1684  1.2870 -1.4989
  249MOL0     H34298   4.972   2.936  10.187 -2.5981 -2.6627 -0.1639
  249MOL0     H34299   5.007   2.731  10.419 -1.9289  0.6314  0.9608
  249MOL0     H34300   4.856   2.762  10.334 -0.5954  0.1591  1.5805
  249MOL0     H34301   5.072   2.708  10.130  2.1960 -3.1365 -1.0264
  249MOL0     H34302   5.087   2.594  10.267 -0.8297 -1.4683 -0.4344
  249MOL0     H34303   4.852   2.500  10.242 -2.7856 -3.3621 -3.8052
  249MOL0     H34304   4.954   2.486  10.095  1.4603  0.0658  0.0538
  249MOL0     H34305   4.752   2.720  10.143 -0.2068  0.1035 -0.2607
  249MOL0     H34306   4.834   2.703  10.006  0.3845 -0.9808 -1.9292
  249MOL0     H34307   4.715   2.447   9.993 -0.4985 -0.1800 -2.4670
  249MOL0     H34308   4.628   2.592   9.946  0.7903 -0.8376 -0.5569
  249MOL0     H34309   4.481   2.480  10.101 -0.8160  0.0725  2.9634
  249MOL0     H34310   4.619   2.453  10.212 -1.7846  0.6550  1.2304
  249MOL0     H34311   4.416   2.748  10.040 -1.6269  1.0052 -0.6078
  249MOL0     H34312   4.178   2.857  10.309 -1.9984  0.6510 -1.0678
  249MOL0     H34313   4.234   2.911  10.156  1.3990  0.6958  0.5562
  249MOL0     H34314   4.372   3.000  10.426  0.1226  2.2884  0.7800
  249MOL0     H34315   4.376   3.085  10.264 -3.5895  4.6936  1.3138
  249MOL0     H34316   4.186   3.184  10.287 -1.3349  2.4822  1.1400
  249MOL0     H34317   4.115   3.064  10.404  0.1048 -0.0502  0.6731
  249MOL0     H34318   4.171   3.298  10.466  0.3439  0.8669 -0.1935
  249MOL0     H34319   4.222   3.171  10.581 -0.0711 -0.3970 -1.1352
  249MOL0     H34320   4.349   3.443  10.650  0.2964 -0.2155 -0.4595
  249MOL0     H34321   4.250   3.762  10.607  0.1045 -0.0199  0.4508
  249MOL0     H34322   4.431   3.781  10.639  0.7201 -0.0650 -2.0454
  249MOL0     H34323   4.337   3.655  10.720 -0.1386 -2.0180 -1.7899
  249MOL0     H34324   4.515   4.056  10.251 -0.3292 -1.4662  1.0034
  249MOL0     H34325   4.447   4.305  10.240  0.8330 -0.0337  0.1415
  249MOL0     H34326   4.431   4.507  10.289  0.3763 -0.4915  0.5163
  249MOL0     H34327   4.261   4.507  10.290  0.4510  1.4997 -0.6432
  249MOL0     H34328   4.268   4.693  10.471  0.2091 -1.0152  0.1034
  249MOL0     H34329   4.430   4.675  10.481 -0.6099  4.2885  0.0764
  249MOL0     H34330   4.333   4.752  10.208  0.4648 -0.3305 -0.1718
  249MOL0     H34331   4.485   4.791  10.272  0.3887 -0.9173  1.3050
  249MOL0     H34332   4.392   4.942  10.431  0.6576 -0.6750 -1.1381
  249MOL0     H34333   4.228   4.891  10.391  0.3272 -0.2842 -1.1355
  249MOL0     H34334   4.313   5.103  10.278  1.2235 -0.1807 -0.9967
  249MOL0     H34335   4.408   4.995  10.170  1.2195  1.6001  1.2385
  249MOL0     H34336   4.107   4.973  10.203  0.1304 -0.4836 -0.4323
  249MOL0     H34337   4.196   4.887  10.092 -0.8341  0.3547  0.5983
  249MOL0     H34338   4.263   5.134   9.994 -0.4476  0.7045 -0.6966
  249MOL0     H34339   4.104   5.173  10.068 -0.1634 -0.3208  0.2790
  249MOL0     H34340   4.173   4.950   9.870  4.4910  1.8405  1.5077
  249MOL0     H34341   4.095   5.104   9.825 -2.8125 -2.7150 -0.8650
  249MOL0     H34342   4.243   4.246  10.610 -1.3644 -0.3458 -0.4245
  249MOL0     H34343   4.299   4.003  10.597  0.3670  1.4540  1.3793
  249MOL0     H34344   4.396   3.585  10.180  0.4430 -0.9279 -0.0489
  249MOL0     H34345   4.424   3.349  10.240 -1.5737 -3.1482  2.6007
  249MOL0     H34346   5.398   2.796  10.478 -0.5461  1.2898  0.8764
  249MOL0     H34347   5.661   2.840  10.449  1.1811 -0.0311 -1.7892
  249MOL0     H34348   5.884   3.393  10.379 -1.7261 -1.3107 -1.9806
  249MOL0     H34349   6.098   3.467  10.277 -3.4910 -0.3149 -1.5633
  249MOL0     H34350   6.510   3.331  10.227  0.4172  0.3908  0.5263
  249MOL0     H34351   6.427   3.195  10.303 -4.4221 -0.5148 -0.4460
  249MOL0     H34352   6.316   3.154  10.060  1.9151 -2.7572 -1.9061
  249MOL0     H34353   6.487   3.135  10.060  2.6220  2.2001  1.2246
  249MOL0     H34354   6.397   3.249   9.865 -0.2448 -0.6097  0.0138
  249MOL0     H34355   6.333   3.393   9.960 -0.4262  0.5918 -0.4034
  249MOL0     H34356   6.624   3.298   9.943  0.1476  0.0343  0.7647
  249MOL0     H34357   6.564   3.425  10.036  0.2239 -0.3548  0.2288
  249MOL0     H34358   6.597   3.594   9.634  1.1535 -0.7145  0.0201
  249MOL0     H34359   6.244   3.054  10.290 -0.5008 -1.4782 -0.0161
  249MOL0     H34360   6.127   2.900  10.408 -0.5963 -0.5796  3.5369
  249MOL0     H34361   5.978   2.952  10.486  0.6223 -1.8620 -0.0119
  249MOL0     H34362   5.972   2.911  10.315 -1.2099  1.7961 -1.0252
  250MOL0     O34363   0.568   4.476   3.093 -0.2417 -0.3063 -0.5750
  250MOL0     C34364   0.538   4.553   3.001  0.3953  0.7984  0.0458
  250MOL0     O34365   0.612   4.570   2.881  0.8906 -0.2199 -0.5395
  250MOL0     C34366   0.740   4.535   2.876 -0.5398  0.1341  0.1477
  250MOL0     C34367   0.825   4.626   2.926 -0.3318  0.0708  1.0507
  250MOL0     C34368   0.963   4.623   2.898 -0.1484  0.4208  0.5514
  250MOL0     C34369   1.007   4.523   2.806 -0.4958 -0.1310 -0.4849
  250MOL0     O34370   1.136   4.511   2.778 -0.5145 -0.6236  0.4596
  250MOL0     C34371   1.221   4.622   2.765  0.2205  1.1991  0.9546
  250MOL0     C34372   1.317   4.591   2.644  0.0208  0.1832  0.9131
  250MOL0     C34373   1.240   4.549   2.515  0.2950 -0.0195  0.4797
  250MOL0     C34374   1.131   4.641   2.462 -0.2743 -0.0482  0.1348
  250MOL0     C34375   1.065   4.568   2.342  0.8541 -0.7042 -0.9967
  250MOL0     C34376   0.982   4.665   2.257 -0.0877 -0.5005  0.5141
  250MOL0     C34377   0.862   4.738   2.326 -0.0564  0.0260  0.3152
  250MOL0     C34378   0.744   4.642   2.360 -0.1729  0.3689  0.2137
  250MOL0     N34379   0.626   4.730   2.396 -0.7306  0.2579  0.0149
  250MOL0     C34380   0.566   4.725   2.517  0.2102 -0.1127  1.1475
  250MOL0     C34381   0.453   4.802   2.516 -0.9612 -1.0838 -0.0216
  250MOL0     C34382   0.338   4.818   2.617 -0.2575  1.0383  0.8907
  250MOL0     C34383   0.208   4.743   2.590 -0.3049 -0.8202 -0.1720
  250MOL0     C34384   0.135   4.687   2.715  0.6333  0.6376 -0.4688
  250MOL0     C34385   0.009   4.601   2.676 -0.0132  0.1972 -0.8246
  250MOL0     O34386  -0.064   4.579   2.794 -0.0555  0.2405  0.1765
  250MOL0     C34387  -0.197   4.541   2.793  0.3751 -0.5293  0.0048
  250MOL0     C34388  -0.298   4.557   2.685  0.8138  1.0140 -0.6054
  250MOL0     C34389  -0.433   4.525   2.710  0.8576 -1.3351 -0.1476
  250MOL0     C34390  -0.532   4.551   2.586  1.5319 -0.8161  0.1944
  250MOL0     C34391  -0.472   4.472   2.832 -0.0986 -0.4418 -0.0768
  250MOL0     C34392  -0.607   4.438   2.874 -0.6059  0.7345 -0.2494
  250MOL0     O34393  -0.642   4.429   3.014  0.8323 -0.6224  0.1518
  250MOL0     C34394  -0.763   4.387   3.044  0.1594 -0.4872 -0.1142
  250MOL0     C34395  -0.804   4.256   3.005  0.2881  0.0456 -0.7819
  250MOL0     C34396  -0.939   4.219   3.032 -0.5833  0.3870  0.7639
  250MOL0     C34397  -1.021   4.308   3.100  0.5303 -0.9960  0.6746
  250MOL0     O34398  -1.157   4.274   3.115  0.2579  0.5551 -0.1062
  250MOL0     C34399  -1.246   4.363   3.042 -0.4635  0.6412 -0.3897
  250MOL0     C34400  -1.392   4.327   3.075 -0.4178 -0.7471  0.3853
  250MOL0     C34401  -1.451   4.445   3.163  0.9688  0.3616  0.9026
  250MOL0     C34402  -1.461   4.584   3.086  0.3840 -0.2511  0.0462
  250MOL0     C34403  -1.562   4.587   2.977  0.3837 -0.7941 -0.4283
  250MOL0     C34404  -1.712   4.551   3.009 -0.2881  0.5325 -0.0382
  250MOL0     C34405  -1.804   4.526   2.891  0.2399  0.1272 -0.7414
  250MOL0     C34406  -1.916   4.440   2.926  0.5695  0.0325 -0.7613
  250MOL0    Cl34407  -2.024   4.448   2.785 -0.2165 -0.1034 -0.1151
  250MOL0     C34408  -0.971   4.434   3.141 -0.0196 -0.1101  0.7817
  250MOL0     C34409  -0.843   4.474   3.124 -0.7677  0.0283  0.5824
  250MOL0     O34410  -0.679   4.390   2.785  0.2044 -0.6068 -0.1769
  250MOL0     C34411  -0.366   4.452   2.924  0.8340 -0.1096 -0.7330
  250MOL0     C34412  -0.236   4.477   2.901 -0.2805 -0.7985  0.7512
  250MOL0     N34413   0.455   4.847   2.385 -0.0097 -0.0562 -0.4506
  250MOL0     N34414   0.551   4.809   2.317  0.2364  0.2926 -0.1403
  250MOL0     C34415   0.912   4.428   2.758 -0.1625  0.4651  1.0221
  250MOL0     C34416   0.780   4.435   2.792  0.3301  0.2913 -0.2690
  250MOL0     C34417   0.417   4.621   3.006 -0.3974 -0.4671 -0.1644
  250MOL0     C34418   0.295   4.560   3.012  0.1569 -0.2294 -0.6044
  250MOL0     C34419   0.178   4.633   3.030  0.7175 -0.6330  0.7563
  250MOL0     C34420   0.181   4.778   3.036 -0.6056  0.1657  0.2318
  250MOL0     O34421   0.074   4.856   3.064  0.2117 -0.3039  0.5211
  250MOL0     C34422  -0.057   4.793   3.074  0.0480  0.3582  0.4385
  250MOL0     C34423  -0.063   4.741   3.214  0.4882 -0.4962  0.4590
  250MOL0     C34424  -0.170   4.640   3.230  0.3947 -0.6787  0.3674
  250MOL0     C34425  -0.301   4.717   3.248  0.3951 -0.2749  0.0503
  250MOL0     C34426  -0.406   4.624   3.255 -0.1029 -0.4344  0.5143
  250MOL0     C34427  -0.486   4.533   3.267 -0.3534  0.9053 -0.0914
  250MOL0     C34428   0.304   4.835   3.018  0.1886 -0.3570 -0.9248
  250MOL0     C34429   0.422   4.764   3.005 -0.3597 -0.3297 -1.7224
  250MOL0     C34430   0.541   4.859   3.004 -0.2487 -0.4445  0.5143
  250MOL0     H34431   0.789   4.711   2.983 -3.4514 -1.0416  0.9038
  250MOL0     H34432   1.024   4.697   2.949 -0.7974  0.0983  1.8322
  250MOL0     H34433   1.277   4.633   2.859 -0.1291 -3.7663  2.0329
  250MOL0     H34434   1.152   4.705   2.747 -2.2175 -1.3095 -2.5715
  250MOL0     H34435   1.377   4.682   2.635  1.3541 -0.8845 -2.3759
  250MOL0     H34436   1.377   4.509   2.685 -4.6766 -3.7913  0.8535
  250MOL0     H34437   1.324   4.545   2.446  1.2082  0.7936  1.5070
  250MOL0     H34438   1.196   4.449   2.511  0.2416  0.0138 -2.8949
  250MOL0     H34439   1.047   4.649   2.532 -0.5474 -0.0189 -0.1928
  250MOL0     H34440   1.169   4.740   2.435 -0.1590  1.2754  4.4353
  250MOL0     H34441   0.996   4.499   2.392  0.2266  1.5671  1.5756
  250MOL0     H34442   1.144   4.522   2.283  1.4749 -0.9713  0.0129
  250MOL0     H34443   1.046   4.749   2.227  2.3299 -2.2666  0.3803
  250MOL0     H34444   0.954   4.620   2.161  0.3214 -0.8419  0.5525
  250MOL0     H34445   0.835   4.823   2.263  1.0994  1.5487  1.7722
  250MOL0     H34446   0.894   4.778   2.423 -0.3196  1.8968 -0.3426
  250MOL0     H34447   0.726   4.579   2.272  2.9280 -0.1189 -0.2072
  250MOL0     H34448   0.761   4.568   2.439 -1.2896 -0.6776 -0.4968
  250MOL0     H34449   0.584   4.655   2.598  1.8843 -0.0676  0.8465
  250MOL0     H34450   0.321   4.926   2.624  0.5387  1.1465  1.2755
  250MOL0     H34451   0.381   4.798   2.716  3.2858  2.7446 -0.1036
  250MOL0     H34452   0.132   4.814   2.556  0.0335  1.6041  3.4766
  250MOL0     H34453   0.209   4.659   2.521 -2.4683 -0.0928 -1.1772
  250MOL0     H34454   0.197   4.615   2.769 -1.0392 -1.1177 -0.7550
  250MOL0     H34455   0.101   4.771   2.776  0.3129  1.0682 -1.2183
  250MOL0     H34456  -0.032   4.667   2.599  3.4658  1.3761 -1.8693
  250MOL0     H34457   0.029   4.502   2.635 -1.5425 -1.7154  2.6853
  250MOL0     H34458  -0.259   4.582   2.587  0.2269  1.6387 -0.6906
  250MOL0     H34459  -0.636   4.554   2.621  1.5188  1.0941  0.0807
  250MOL0     H34460  -0.526   4.469   2.515 -1.8288  0.6539 -2.0347
  250MOL0     H34461  -0.516   4.651   2.545 -2.6324 -0.0903 -0.0919
  250MOL0     H34462  -0.733   4.194   2.951 -0.2306 -0.0385 -1.3797
  250MOL0     H34463  -0.985   4.124   3.005 -0.5293  0.5583  0.0609
  250MOL0     H34464  -1.234   4.470   3.062  0.1443  1.0562 -2.6076
  250MOL0     H34465  -1.231   4.363   2.933  0.9741  2.0034 -0.2329
  250MOL0     H34466  -1.457   4.322   2.986 -0.1715 -0.8203  0.2087
  250MOL0     H34467  -1.404   4.227   3.118 -5.5651 -0.4582  0.2145
  250MOL0     H34468  -1.380   4.448   3.246  0.4690 -0.8648  1.4046
  250MOL0     H34469  -1.547   4.410   3.201  0.6506 -1.5362 -1.4368
  250MOL0     H34470  -1.369   4.622   3.041  0.1775  0.6956  0.4031
  250MOL0     H34471  -1.506   4.647   3.163 -1.1727 -0.9804 -0.2105
  250MOL0     H34472  -1.555   4.683   2.924  0.3484 -1.2603 -1.2972
  250MOL0     H34473  -1.532   4.528   2.890 -1.8926 -0.1348 -1.7614
  250MOL0     H34474  -1.757   4.641   3.052 -0.3232 -0.4801  2.1301
  250MOL0     H34475  -1.707   4.466   3.076 -2.1422  0.7515  0.4305
  250MOL0     H34476  -1.749   4.467   2.817  0.8982 -0.0357 -0.1286
  250MOL0     H34477  -1.837   4.624   2.856  0.3254  1.5465  2.7295
  250MOL0     H34478  -1.973   4.486   3.007 -0.3272 -0.5551 -1.0357
  250MOL0     H34479  -1.894   4.336   2.950 -2.7166 -0.2068  1.9604
  250MOL0     H34480  -1.041   4.503   3.188  1.3125  1.4390  0.5727
  250MOL0     H34481  -0.811   4.569   3.165 -0.5624 -0.5049  1.7068
  250MOL0     H34482  -0.389   4.414   3.023  3.5973 -0.0916 -0.0157
  250MOL0     H34483  -0.170   4.471   2.987 -1.5737  3.7099  2.3406
  250MOL0     H34484   0.945   4.344   2.699  1.4654  0.8502  1.3519
  250MOL0     H34485   0.698   4.372   2.761  0.5305  0.0536 -0.3267
  250MOL0     H34486   0.286   4.451   3.008  1.5465 -0.3346 -1.3507
  250MOL0     H34487   0.081   4.585   3.023  0.8297 -0.7319 -0.4021
  250MOL0     H34488  -0.148   4.853   3.071 -0.1106  0.0933 -0.0762
  250MOL0     H34489  -0.068   4.711   3.003 -1.4806  1.1964 -0.3389
  250MOL0     H34490  -0.084   4.825   3.281 -0.6270 -0.6621  0.3340
  250MOL0     H34491   0.026   4.691   3.253 -1.1476 -3.2535  0.9339
  250MOL0     H34492  -0.173   4.561   3.153  1.9318 -1.3729  0.9741
  250MOL0     H34493  -0.149   4.590   3.325 -3.5214 -0.3043  1.5953
  250MOL0     H34494  -0.331   4.788   3.171 -1.7550 -1.4332 -0.2408
  250MOL0     H34495  -0.290   4.765   3.346  0.2071  1.0640 -0.5780
  250MOL0     H34496  -0.558   4.453   3.277  1.3443 -1.1869 -3.1049
  250MOL0     H34497   0.309   4.943   3.025  2.7254 -0.4809  0.0982
  250MOL0     H34498   0.586   4.871   2.905 -3.2431  1.6160 -0.7299
  250MOL0     H34499   0.526   4.965   3.025  2.9195  1.0688 -3.6191
  250MOL0     H34500   0.612   4.836   3.084 -0.6166  4.8163  2.7391
  251MOL0     O34501   1.950   5.665   6.790 -0.2748 -1.0628 -1.1696
  251MOL0     C34502   1.871   5.588   6.846 -1.2653 -0.3262  0.4106
  251MOL0     O34503   1.766   5.538   6.785  0.3788 -0.8058  1.0824
  251MOL0     C34504   1.758   5.509   6.653  0.7039  0.4803 -0.1239
  251MOL0     C34505   1.638   5.551   6.590  0.0761 -0.3149 -1.6008
  251MOL0     C34506   1.606   5.526   6.455  0.2388 -0.1968 -0.0990
  251MOL0     C34507   1.699   5.455   6.371  0.5068  1.1062 -0.6262
  251MOL0     O34508   1.657   5.443   6.241 -1.0050  0.2226 -0.2094
  251MOL0     C34509   1.750   5.383   6.146 -1.4095  0.1971  1.1036
  251MOL0     C34510   1.840   5.488   6.076  0.4168 -0.1164  0.1060
  251MOL0     C34511   1.945   5.433   5.987  0.2147  0.2753  0.2441
  251MOL0     C34512   2.046   5.540   5.945  0.5154 -0.1876 -0.1715
  251MOL0     C34513   2.129   5.609   6.058 -0.9906 -0.6650  0.9585
  251MOL0     C34514   2.265   5.653   5.995 -0.4678 -0.2646 -0.3814
  251MOL0     C34515   2.338   5.760   6.084  0.8259 -0.9086 -0.4109
  251MOL0     C34516   2.470   5.800   6.026  0.1274 -0.7466 -0.0327
  251MOL0     N34517   2.563   5.695   6.057  0.3239 -0.5912  0.3517
  251MOL0     C34518   2.606   5.644   6.173 -0.4388 -0.2609 -0.7183
  251MOL0     C34519   2.679   5.536   6.140 -0.2796 -0.3727  0.7708
  251MOL0     C34520   2.726   5.437   6.234 -0.8168  0.3022 -0.2232
  251MOL0     C34521   2.869   5.396   6.203  0.1054  0.2631  0.2054
  251MOL0     C34522   2.868   5.304   6.078  0.3191  0.3878  0.3722
  251MOL0     C34523   3.003   5.239   6.064  0.5768  0.2416 -0.4121
  251MOL0     O34524   3.039   5.137   6.161 -0.1767  0.4142  0.8410
  251MOL0     C34525   3.174   5.133   6.173  0.2199  0.1344 -0.0766
  251MOL0     C34526   3.222   5.085   6.290 -0.5520 -0.3411 -0.5577
  251MOL0     C34527   3.357   5.072   6.325  0.2665  0.9282 -0.5601
  251MOL0     C34528   3.403   5.013   6.458  0.5887 -0.0112 -0.7050
  251MOL0     C34529   3.458   5.126   6.239 -0.3304  0.0685  0.2099
  251MOL0     C34530   3.596   5.133   6.265 -0.5242  0.6056  0.2605
  251MOL0     O34531   3.678   5.101   6.170 -0.8161  0.9403 -0.4651
  251MOL0     C34532   3.816   5.115   6.177 -0.0848 -0.7590  0.2853
  251MOL0     C34533   3.871   5.177   6.067  0.4183  0.1579  0.2640
  251MOL0     C34534   4.016   5.195   6.063 -0.0597  0.0627  0.6927
  251MOL0     C34535   4.097   5.130   6.157 -0.0990 -0.3814 -0.4623
  251MOL0     O34536   4.239   5.131   6.159  0.4967 -0.1971  0.3000
  251MOL0     C34537   4.292   5.259   6.148 -0.1081 -0.7041  0.7051
  251MOL0     C34538   4.442   5.261   6.186  0.5313  0.9848 -0.4200
  251MOL0     C34539   4.472   5.255   6.335  0.5774 -0.3530  0.6603
  251MOL0     C34540   4.620   5.227   6.371  0.5134 -0.7712  0.0403
  251MOL0     C34541   4.643   5.277   6.516  0.9684  0.5736 -0.0465
  251MOL0     C34542   4.570   5.194   6.619 -0.0488  0.8971 -0.2623
  251MOL0     C34543   4.633   5.056   6.655  0.3365 -0.0366  0.7004
  251MOL0     C34544   4.763   5.058   6.724 -0.5020  0.0177  0.0353
  251MOL0    Cl34545   4.824   4.887   6.733  0.3607  0.3627 -0.3177
  251MOL0     C34546   4.037   5.059   6.264 -0.7027 -0.2866 -0.2514
  251MOL0     C34547   3.897   5.066   6.277  0.3018  0.7880  0.5614
  251MOL0     O34548   3.625   5.158   6.378 -1.0155 -0.5738  0.1322
  251MOL0     C34549   3.407   5.178   6.115 -0.6285 -0.6543  0.2799
  251MOL0     C34550   3.272   5.167   6.079  0.3568 -0.5375 -0.0218
  251MOL0     N34551   2.692   5.526   6.000  0.4158  0.3467 -0.0945
  251MOL0     N34552   2.621   5.625   5.953 -0.3218 -0.5287 -0.2671
  251MOL0     C34553   1.826   5.429   6.427  0.8224  0.3642  0.9057
  251MOL0     C34554   1.852   5.451   6.561  0.1071 -0.2547  0.5983
  251MOL0     C34555   1.889   5.572   6.984  0.1888 -0.5425 -0.6366
  251MOL0     C34556   1.770   5.586   7.062  0.3384  0.2944  0.0412
  251MOL0     C34557   1.787   5.573   7.203  0.2328  0.5390 -0.8367
  251MOL0     C34558   1.905   5.534   7.263 -0.9068  0.1926  0.0253
  251MOL0     O34559   1.914   5.516   7.399  0.0822  0.0954 -0.7444
  251MOL0     C34560   1.817   5.425   7.460 -0.2234  0.6641 -0.5940
  251MOL0     C34561   1.756   5.490   7.590 -0.5989 -0.7029 -0.6892
  251MOL0     C34562   1.870   5.519   7.696 -0.5479  0.6031  0.2942
  251MOL0     C34563   1.817   5.606   7.810  0.5265 -1.3919 -0.2940
  251MOL0     C34564   1.688   5.572   7.885 -0.2583 -0.5252  0.2948
  251MOL0     C34565   1.583   5.562   7.948  0.0420  0.6036  1.2288
  251MOL0     C34566   2.023   5.524   7.185  0.2563  0.3461  0.2387
  251MOL0     C34567   2.016   5.537   7.041  0.6163 -0.7748 -0.0029
  251MOL0     C34568   2.139   5.514   6.958 -0.1762  0.2526  0.0963
  251MOL0     H34569   1.556   5.589   6.650  0.6776  3.4879 -2.9078
  251MOL0     H34570   1.507   5.557   6.423  0.6150  2.3537  0.9575
  251MOL0     H34571   1.681   5.343   6.071 -0.9946  1.5396 -0.0245
  251MOL0     H34572   1.808   5.295   6.175 -1.7011 -0.7518 -0.9871
  251MOL0     H34573   1.776   5.547   6.009  1.3168  1.5126  0.6274
  251MOL0     H34574   1.881   5.549   6.157  0.6732 -0.2379  0.0697
  251MOL0     H34575   2.008   5.358   6.036  1.7091  1.1665 -0.2248
  251MOL0     H34576   1.901   5.406   5.891  1.9468  1.7299 -1.0524
  251MOL0     H34577   2.115   5.483   5.883  2.2096 -2.2445  3.3161
  251MOL0     H34578   2.004   5.626   5.892 -0.8333 -0.7932 -0.1213
  251MOL0     H34579   2.144   5.545   6.146  2.8572  0.1265  1.0633
  251MOL0     H34580   2.083   5.704   6.087  0.9369  0.8958 -0.7783
  251MOL0     H34581   2.331   5.568   5.977  0.4753  0.6483 -1.3895
  251MOL0     H34582   2.239   5.698   5.899 -1.7284 -1.5644 -0.6794
  251MOL0     H34583   2.348   5.713   6.183  1.3961 -0.6695 -0.3483
  251MOL0     H34584   2.280   5.852   6.093  0.7562 -1.0590  0.9776
  251MOL0     H34585   2.467   5.801   5.917  1.3356  0.1904 -0.0646
  251MOL0     H34586   2.497   5.898   6.067 -0.5783 -0.4330 -0.3124
  251MOL0     H34587   2.585   5.673   6.275 -1.7705 -1.1208 -0.7301
  251MOL0     H34588   2.661   5.350   6.226 -0.1311 -0.1646 -0.9408
  251MOL0     H34589   2.718   5.474   6.337  1.5354 -0.0616  0.1478
  251MOL0     H34590   2.932   5.483   6.184  1.5584 -1.2725 -2.6170
  251MOL0     H34591   2.909   5.353   6.295 -1.9123  2.6383  2.3618
  251MOL0     H34592   2.790   5.230   6.099 -1.0213  1.6573 -0.0328
  251MOL0     H34593   2.844   5.341   5.979  1.2785 -3.3965 -1.4534
  251MOL0     H34594   3.007   5.192   5.965  1.7937  1.1981 -0.8549
  251MOL0     H34595   3.073   5.323   6.058 -2.5310  3.0064 -0.5233
  251MOL0     H34596   3.152   5.043   6.361 -0.4118  0.4075  0.0329
  251MOL0     H34597   3.411   5.096   6.528  2.9037 -0.6088 -0.1728
  251MOL0     H34598   3.502   4.968   6.450  1.0921  0.4859  1.9295
  251MOL0     H34599   3.328   4.946   6.501 -0.1502  2.3513  1.9548
  251MOL0     H34600   3.802   5.198   5.985 -1.0284  3.3371  2.0747
  251MOL0     H34601   4.069   5.251   5.987 -1.4348  1.1273  0.4812
  251MOL0     H34602   4.295   5.278   6.040  2.4039 -2.3246  0.4023
  251MOL0     H34603   4.223   5.326   6.200 -1.1135 -2.5676  1.8582
  251MOL0     H34604   4.489   5.173   6.139 -2.1392 -0.4449 -0.6407
  251MOL0     H34605   4.482   5.356   6.151  0.4109  0.7046 -1.3721
  251MOL0     H34606   4.417   5.171   6.378 -0.7817  0.5769  0.7893
  251MOL0     H34607   4.431   5.343   6.385 -0.2508 -0.0198 -0.5424
  251MOL0     H34608   4.683   5.295   6.314 -1.1517  1.4220  0.6923
  251MOL0     H34609   4.656   5.124   6.363  0.6685 -0.6512 -0.9839
  251MOL0     H34610   4.750   5.277   6.538  1.6707 -2.5996 -2.7004
  251MOL0     H34611   4.599   5.377   6.531 -0.8250 -0.2677  0.5584
  251MOL0     H34612   4.465   5.173   6.594 -0.6908  0.6632  2.3432
  251MOL0     H34613   4.549   5.244   6.714  0.6014 -0.6392  0.7301
  251MOL0     H34614   4.638   4.994   6.564 -2.0640  0.0200  0.4611
  251MOL0     H34615   4.559   5.013   6.723 -0.5495 -1.1062 -0.8742
  251MOL0     H34616   4.755   5.095   6.826  2.8039 -0.1956  0.4864
  251MOL0     H34617   4.828   5.128   6.670 -0.7071  0.0974 -0.1129
  251MOL0     H34618   4.100   5.003   6.332 -3.1653 -2.1485  0.6461
  251MOL0     H34619   3.845   5.015   6.358  1.0206 -1.4893 -0.3422
  251MOL0     H34620   3.482   5.220   6.048 -1.5742 -0.0759 -0.4351
  251MOL0     H34621   3.237   5.193   5.980  0.2665 -0.6848 -0.0285
  251MOL0     H34622   1.895   5.371   6.366 -1.8297  0.1443 -2.1651
  251MOL0     H34623   1.944   5.405   6.595 -0.6984 -2.1250  0.3695
  251MOL0     H34624   1.674   5.610   7.018  1.2957  0.2838 -2.1959
  251MOL0     H34625   1.708   5.600   7.273  2.3070  2.3980  0.9594
  251MOL0     H34626   1.732   5.395   7.398 -0.0322 -0.4298 -0.3387
  251MOL0     H34627   1.865   5.336   7.501 -1.7397  0.5440  1.0524
  251MOL0     H34628   1.674   5.429   7.628 -2.6241  1.7280 -0.9164
  251MOL0     H34629   1.704   5.584   7.568 -0.3823  0.9284  4.3143
  251MOL0     H34630   1.914   5.423   7.725  1.0293  0.4290 -2.3398
  251MOL0     H34631   1.952   5.563   7.639 -1.5849 -0.6457 -2.3082
  251MOL0     H34632   1.801   5.708   7.771 -0.4386 -0.6737  1.8190
  251MOL0     H34633   1.886   5.606   7.894 -2.0033 -2.6142  1.9433
  251MOL0     H34634   1.513   5.546   8.027 -2.1225 -1.9253 -0.9906
  251MOL0     H34635   2.117   5.491   7.228 -0.4620  0.7079  2.2066
  251MOL0     H34636   2.129   5.514   6.849 -0.9857 -2.3136  0.0959
  251MOL0     H34637   2.218   5.588   6.977  1.0830 -0.5458 -1.7146
  251MOL0     H34638   2.191   5.419   6.975  0.7082  0.9441  1.4401
  252MOL0     O34639   1.210   2.460   5.046 -0.0688  0.1230  0.1299
  252MOL0     C34640   1.255   2.481   4.931 -0.5705  0.8181 -0.1635
  252MOL0     O34641   1.353   2.410   4.870 -0.3552  0.9352  0.2700
  252MOL0     C34642   1.430   2.324   4.942  0.6806 -0.0747 -0.0894
  252MOL0     C34643   1.487   2.206   4.898  1.0833 -0.0323 -0.4050
  252MOL0     C34644   1.547   2.116   4.985  0.9031 -0.2543  0.1369
  252MOL0     C34645   1.586   2.151   5.115 -0.5534  0.1986 -0.5196
  252MOL0     O34646   1.659   2.066   5.203  0.0828 -0.5909 -0.2877
  252MOL0     C34647   1.724   1.951   5.143 -0.0392  0.5688  0.9785
  252MOL0     C34648   1.628   1.840   5.160 -0.6256  0.7037  0.6613
  252MOL0     C34649   1.696   1.700   5.141  0.0611 -0.4011  0.0984
  252MOL0     C34650   1.597   1.598   5.154  0.5514 -1.0775 -0.2744
  252MOL0     C34651   1.635   1.457   5.112 -0.8618  0.1613  0.2070
  252MOL0     C34652   1.698   1.451   4.969 -0.6721  0.0480  0.1275
  252MOL0     C34653   1.716   1.310   4.911 -0.1199  0.5036 -0.6343
  252MOL0     C34654   1.822   1.295   4.809 -0.1815  0.3889  0.1084
  252MOL0     N34655   1.773   1.311   4.674 -0.4960  0.0003 -0.4296
  252MOL0     C34656   1.755   1.213   4.586  0.6473  0.2774  0.2895
  252MOL0     C34657   1.746   1.278   4.468  0.3347  0.0790  0.4160
  252MOL0     C34658   1.743   1.207   4.333 -1.0870  0.2147 -0.0744
  252MOL0     C34659   1.631   1.106   4.314  0.0479  0.0429  0.2416
  252MOL0     C34660   1.618   1.053   4.176  0.1568 -0.7175  0.5663
  252MOL0     C34661   1.492   0.967   4.153  0.1281  0.3294 -0.9216
  252MOL0     O34662   1.497   0.905   4.026  0.4018  0.5034 -0.4869
  252MOL0     C34663   1.471   0.979   3.917 -0.1021  0.2315  0.2079
  252MOL0     C34664   1.583   1.018   3.845  0.7064 -0.4488 -0.5077
  252MOL0     C34665   1.570   1.095   3.733 -0.7362  0.3581 -0.0001
  252MOL0     C34666   1.695   1.120   3.654  0.3315  1.2362  1.2559
  252MOL0     C34667   1.448   1.147   3.686 -0.5145 -0.6067  0.4060
  252MOL0     C34668   1.432   1.256   3.583 -0.3166  0.0646  0.0897
  252MOL0     O34669   1.538   1.331   3.542  0.0650  0.0956  0.2132
  252MOL0     C34670   1.512   1.453   3.481 -1.5184 -0.2676 -0.3712
  252MOL0     C34671   1.400   1.535   3.501 -0.6969  0.7370  1.4448
  252MOL0     C34672   1.390   1.659   3.434 -1.2941 -0.9551  0.2067
  252MOL0     C34673   1.509   1.716   3.378  0.1747  0.7994 -0.0991
  252MOL0     O34674   1.500   1.850   3.340 -0.3905  0.7326  1.0114
  252MOL0     C34675   1.619   1.924   3.325 -0.0955 -0.6442  0.1190
  252MOL0     C34676   1.592   2.059   3.246  0.8220  0.8563  0.6414
  252MOL0     C34677   1.511   2.042   3.120  0.4528  0.3497  0.8157
  252MOL0     C34678   1.542   2.168   3.034  0.9817  0.1224 -0.1367
  252MOL0     C34679   1.471   2.151   2.900 -0.2600 -0.5049  1.2123
  252MOL0     C34680   1.511   2.253   2.796  0.5983  0.4319  0.4173
  252MOL0     C34681   1.433   2.240   2.653 -0.3963  0.2575 -0.7653
  252MOL0     C34682   1.478   2.110   2.589 -0.1954  0.1367  0.4801
  252MOL0    Cl34683   1.451   2.120   2.411  0.0174  0.0987  0.4747
  252MOL0     C34684   1.622   1.640   3.363  0.1578 -0.9993  0.6240
  252MOL0     C34685   1.618   1.512   3.404  0.4355 -0.3148 -0.3802
  252MOL0     O34686   1.320   1.253   3.521  0.3533 -0.6961  0.4772
  252MOL0     C34687   1.338   1.092   3.749 -0.1125  0.2516  0.2885
  252MOL0     C34688   1.348   1.013   3.865  0.5916 -1.5087  0.7197
  252MOL0     N34689   1.746   1.416   4.494  0.0489  0.1920 -0.6529
  252MOL0     N34690   1.756   1.437   4.616 -0.5973 -0.4676 -0.1510
  252MOL0     C34691   1.547   2.281   5.158 -0.7560 -0.1208  0.4679
  252MOL0     C34692   1.467   2.363   5.073 -1.2264 -0.4243  0.8471
  252MOL0     C34693   1.196   2.594   4.857 -0.3482 -0.2149 -0.0010
  252MOL0     C34694   1.252   2.614   4.730  0.6571  0.2917  0.1697
  252MOL0     C34695   1.198   2.709   4.647  0.7603 -0.2449 -1.0498
  252MOL0     C34696   1.099   2.801   4.686 -0.7238 -0.3497  0.0204
  252MOL0     O34697   1.048   2.890   4.598 -0.2595 -0.0699  0.1551
  252MOL0     C34698   0.914   2.853   4.552  1.2434 -0.0956 -1.5537
  252MOL0     C34699   0.848   2.970   4.472  0.1587 -1.2019  0.1859
  252MOL0     C34700   0.846   3.104   4.543  0.0516 -0.1901  0.0643
  252MOL0     C34701   0.736   3.199   4.480  0.6862 -0.2138 -0.4777
  252MOL0     C34702   0.740   3.327   4.560 -0.0010 -0.2042  0.3221
  252MOL0     C34703   0.732   3.441   4.617  0.1446  0.0890  0.6879
  252MOL0     C34704   1.049   2.781   4.817 -0.5725 -0.0622 -0.2086
  252MOL0     C34705   1.097   2.685   4.903 -0.1704  0.7337 -0.2440
  252MOL0     C34706   1.044   2.683   5.057  0.0399 -0.5026  0.7681
  252MOL0     H34707   1.477   2.176   4.795 -0.4347 -1.0263  0.0053
  252MOL0     H34708   1.566   2.019   4.940 -1.2129  0.4980 -2.5756
  252MOL0     H34709   1.824   1.937   5.185 -0.8002  0.7857  2.9378
  252MOL0     H34710   1.745   1.970   5.037  3.5665  1.2400  1.6989
  252MOL0     H34711   1.579   1.841   5.257 -2.8169  0.6673 -0.4007
  252MOL0     H34712   1.546   1.859   5.091  2.0755  1.8458 -2.5405
  252MOL0     H34713   1.740   1.690   5.041 -0.3197 -1.9365  0.0666
  252MOL0     H34714   1.773   1.674   5.215  0.0259 -1.1003 -0.1093
  252MOL0     H34715   1.559   1.594   5.257  0.7165 -2.2574 -0.2454
  252MOL0     H34716   1.502   1.616   5.103 -0.1523  0.0935  1.3670
  252MOL0     H34717   1.548   1.392   5.105  0.5918 -1.7958 -0.8703
  252MOL0     H34718   1.701   1.414   5.188 -2.4167  0.5606  1.8542
  252MOL0     H34719   1.629   1.505   4.905 -0.5360 -1.5703 -1.4526
  252MOL0     H34720   1.792   1.506   4.974 -1.5775  1.5992  0.5464
  252MOL0     H34721   1.629   1.264   4.862  0.2350  0.7078 -1.4677
  252MOL0     H34722   1.731   1.260   5.007 -1.0986  2.9864  0.8774
  252MOL0     H34723   1.906   1.360   4.833 -1.7760  1.2741  4.0704
  252MOL0     H34724   1.859   1.194   4.831  1.2625  1.2468  1.8646
  252MOL0     H34725   1.752   1.106   4.602  4.4244 -0.0636 -0.3158
  252MOL0     H34726   1.832   1.145   4.325 -1.4226 -0.4826  1.3285
  252MOL0     H34727   1.750   1.288   4.259 -0.1544 -1.5616 -2.0429
  252MOL0     H34728   1.659   1.022   4.379 -0.6335 -3.2822 -3.4181
  252MOL0     H34729   1.532   1.146   4.341  1.2775  3.4571  0.1795
  252MOL0     H34730   1.606   1.144   4.117 -2.7391  0.3028  2.4821
  252MOL0     H34731   1.707   0.992   4.158  1.3726  1.2895 -0.6359
  252MOL0     H34732   1.486   0.882   4.221 -0.0107  2.3389  1.7415
  252MOL0     H34733   1.405   1.029   4.174  0.6293  0.5344  0.6640
  252MOL0     H34734   1.676   0.974   3.879  0.7550 -1.9957 -2.4925
  252MOL0     H34735   1.682   1.107   3.546  0.9218 -0.3394  1.3380
  252MOL0     H34736   1.770   1.045   3.681 -2.9746 -1.7747  2.9967
  252MOL0     H34737   1.730   1.223   3.661 -2.0582  2.1325  0.8959
  252MOL0     H34738   1.309   1.499   3.548  0.1316 -1.4169  1.5532
  252MOL0     H34739   1.297   1.713   3.449 -0.6722  0.1713  0.0941
  252MOL0     H34740   1.658   1.950   3.424  0.7970  0.9224 -0.6075
  252MOL0     H34741   1.685   1.863   3.263 -3.6632 -0.9612 -3.8282
  252MOL0     H34742   1.531   2.113   3.319 -0.4725  1.9033 -1.1419
  252MOL0     H34743   1.683   2.118   3.238  0.9753  0.7400  1.4253
  252MOL0     H34744   1.404   2.026   3.129  0.5846 -2.0816 -0.7758
  252MOL0     H34745   1.546   1.951   3.071 -1.5003  0.0678 -0.1490
  252MOL0     H34746   1.650   2.158   3.019  0.9365 -0.3368 -0.1617
  252MOL0     H34747   1.512   2.261   3.085 -0.2460 -1.7735  2.8787
  252MOL0     H34748   1.482   2.051   2.858 -2.8822 -0.9599  1.4159
  252MOL0     H34749   1.363   2.155   2.918 -0.2987 -0.7887  1.0349
  252MOL0     H34750   1.620   2.248   2.790  0.6896  1.2029  1.1624
  252MOL0     H34751   1.483   2.355   2.826  1.2062  0.2249  1.7721
  252MOL0     H34752   1.449   2.328   2.591 -1.8850  1.1343  0.0356
  252MOL0     H34753   1.325   2.240   2.668 -1.0446  4.7956 -3.5523
  252MOL0     H34754   1.415   2.032   2.633  1.1367 -0.3756  1.5424
  252MOL0     H34755   1.582   2.086   2.613 -0.4471 -3.4878 -1.2851
  252MOL0     H34756   1.710   1.680   3.314 -1.4090  2.1973  0.1144
  252MOL0     H34757   1.701   1.443   3.411  0.4969 -0.1109  1.3591
  252MOL0     H34758   1.240   1.116   3.708  0.2963  1.0315 -0.2582
  252MOL0     H34759   1.260   0.987   3.922  0.9103  0.0085  1.9823
  252MOL0     H34760   1.569   2.316   5.259 -0.2351 -0.7363  0.5722
  252MOL0     H34761   1.436   2.457   5.116 -0.7698  1.2142 -2.1193
  252MOL0     H34762   1.325   2.561   4.670  1.1829 -0.6561  1.5961
  252MOL0     H34763   1.215   2.721   4.540  0.5419 -1.5981 -1.2581
  252MOL0     H34764   0.913   2.761   4.494  0.7655  0.3572 -2.2920
  252MOL0     H34765   0.846   2.835   4.636  3.3660  1.5402  0.6699
  252MOL0     H34766   0.741   2.955   4.455 -0.0513  2.9091 -3.6705
  252MOL0     H34767   0.895   2.966   4.373  0.3595 -3.7110  0.3110
  252MOL0     H34768   0.825   3.080   4.647 -1.2666  1.1490  0.1260
  252MOL0     H34769   0.944   3.154   4.538 -0.9728  1.8209 -1.8175
  252MOL0     H34770   0.633   3.163   4.493  1.8373 -2.9339  2.3510
  252MOL0     H34771   0.756   3.216   4.374 -0.6787 -0.1320 -0.7462
  252MOL0     H34772   0.721   3.532   4.672  0.8198 -0.9191  2.5572
  252MOL0     H34773   0.967   2.846   4.846 -2.2700 -1.2739 -2.0342
  252MOL0     H34774   1.128   2.677   5.127  0.0708 -0.3642  0.7413
  252MOL0     H34775   1.010   2.784   5.080 -0.1963 -0.1758 -0.9362
  252MOL0     H34776   0.976   2.597   5.068 -0.6116 -0.4686 -2.3385
  253MOL0     O34777   3.050   8.518   1.519 -0.0495  0.2610 -0.3321
  253MOL0     C34778   3.031   8.470   1.407  0.3163  0.5708  0.0301
  253MOL0     O34779   2.926   8.392   1.374  0.5407  0.0366 -0.5964
  253MOL0     C34780   2.852   8.349   1.482 -0.1890 -0.4713  0.8236
  253MOL0     C34781   2.894   8.285   1.589 -0.2024 -0.1976 -0.6064
  253MOL0     C34782   2.815   8.240   1.694 -0.0611  0.0394 -0.0603
  253MOL0     C34783   2.678   8.265   1.683 -0.8221 -0.6576  0.8925
  253MOL0     O34784   2.607   8.217   1.794  0.3012 -0.2263  0.1231
  253MOL0     C34785   2.472   8.254   1.819  0.3670 -0.0572  0.0786
  253MOL0     C34786   2.432   8.249   1.967 -0.0353 -1.2190  0.3341
  253MOL0     C34787   2.486   8.130   2.039 -0.9402 -0.2010 -0.6202
  253MOL0     C34788   2.466   8.154   2.196 -0.3294  0.0811  0.3065
  253MOL0     C34789   2.560   8.247   2.265  0.2847 -1.2800  0.5921
  253MOL0     C34790   2.703   8.195   2.270 -0.1910 -0.0602  0.6397
  253MOL0     C34791   2.792   8.284   2.358  0.1770  0.3143 -0.2090
  253MOL0     C34792   2.849   8.402   2.277 -0.2732 -0.2672  0.4791
  253MOL0     N34793   2.935   8.381   2.154 -0.5264  1.1412  0.1342
  253MOL0     C34794   3.067   8.404   2.152  0.4710 -0.2098 -0.3361
  253MOL0     C34795   3.104   8.390   2.021  0.2487  0.4807  0.4274
  253MOL0     C34796   3.238   8.416   1.957 -0.0268 -1.0019 -0.4513
  253MOL0     C34797   3.283   8.317   1.847 -0.1976  0.0134  0.5411
  253MOL0     C34798   3.428   8.345   1.818 -0.2248 -0.0882  0.0206
  253MOL0     C34799   3.487   8.267   1.704 -0.2063 -0.1346 -0.5382
  253MOL0     O34800   3.454   8.325   1.569  0.0861  0.1781 -0.8523
  253MOL0     C34801   3.532   8.433   1.528 -0.5354  0.2048  0.0445
  253MOL0     C34802   3.644   8.492   1.585  0.2114  0.4605 -0.1965
  253MOL0     C34803   3.731   8.569   1.515 -0.8474  0.0878 -0.4484
  253MOL0     C34804   3.856   8.610   1.587  0.6621  0.8930  0.4682
  253MOL0     C34805   3.701   8.611   1.384  0.1129 -0.6845 -0.1624
  253MOL0     C34806   3.791   8.709   1.311  0.1441  0.1078 -0.8526
  253MOL0     O34807   3.771   8.708   1.171 -0.2546  0.2573 -0.4794
  253MOL0     C34808   3.770   8.821   1.094 -0.3791 -0.3873 -0.0669
  253MOL0     C34809   3.854   8.835   0.975 -0.4965 -0.1059 -0.5090
  253MOL0     C34810   3.848   8.955   0.905  0.2165 -0.4583  0.1190
  253MOL0     C34811   3.757   9.054   0.947  0.0620 -0.4694  0.5533
  253MOL0     O34812   3.764   9.169   0.883 -0.2411  0.2367 -0.7836
  253MOL0     C34813   3.637   9.211   0.833 -0.4155  0.4411 -0.2732
  253MOL0     C34814   3.631   9.183   0.678 -0.3478 -0.5107 -0.0933
  253MOL0     C34815   3.762   9.212   0.604 -0.1770  0.3387 -0.2583
  253MOL0     C34816   3.728   9.215   0.452  1.1980 -0.0591 -0.2686
  253MOL0     C34817   3.838   9.298   0.383  0.7140 -0.0011  0.4288
  253MOL0     C34818   3.851   9.261   0.236 -0.6552 -0.7399 -0.7669
  253MOL0     C34819   3.968   9.325   0.166  0.2632 -0.6381 -0.4347
  253MOL0     C34820   3.970   9.479   0.189 -0.2853  0.4365 -0.5906
  253MOL0    Cl34821   4.134   9.540   0.132 -0.3357  0.1682  0.0770
  253MOL0     C34822   3.670   9.035   1.058 -0.3007 -0.0067  0.5238
  253MOL0     C34823   3.682   8.920   1.126 -0.0724  0.0928  0.0645
  253MOL0     O34824   3.852   8.795   1.376  0.2319 -0.0900  0.1613
  253MOL0     C34825   3.584   8.569   1.325  0.3475 -0.2781  0.3887
  253MOL0     C34826   3.499   8.479   1.397  0.2178  0.7855  0.2838
  253MOL0     N34827   2.998   8.358   1.947  0.1920 -0.3472  1.3184
  253MOL0     N34828   2.890   8.354   2.026  0.4675 -0.6227  0.2434
  253MOL0     C34829   2.621   8.331   1.567  0.1695  0.4147 -0.3881
  253MOL0     C34830   2.710   8.367   1.466  0.5435  1.0772  0.3075
  253MOL0     C34831   3.127   8.508   1.299 -0.4633 -0.0145 -1.1111
  253MOL0     C34832   3.173   8.411   1.206  0.7616 -0.4524 -0.3565
  253MOL0     C34833   3.261   8.448   1.103 -0.7149 -0.2747  0.3853
  253MOL0     C34834   3.306   8.571   1.094  0.1295 -1.3755  0.4323
  253MOL0     O34835   3.409   8.588   1.005 -0.1188  0.6223 -0.3733
  253MOL0     C34836   3.378   8.660   0.883  0.2976 -0.2583 -0.0936
  253MOL0     C34837   3.500   8.711   0.799  0.1557  0.3040  0.4150
  253MOL0     C34838   3.470   8.833   0.713  0.2614 -0.7205 -0.1798
  253MOL0     C34839   3.380   8.805   0.592  0.1720 -0.6247 -0.3402
  253MOL0     C34840   3.412   8.904   0.489 -0.2206  1.1931  0.0536
  253MOL0     C34841   3.437   8.994   0.403  0.9290  1.1338  0.0594
  253MOL0     C34842   3.265   8.674   1.180  0.6560 -0.8524  0.0379
  253MOL0     C34843   3.182   8.638   1.295  0.0548  0.0067  0.2090
  253MOL0     C34844   3.131   8.751   1.371 -0.0752 -0.0752 -0.7635
  253MOL0     H34845   3.002   8.272   1.597  0.4834  1.1837 -5.0646
  253MOL0     H34846   2.859   8.183   1.775  1.6282  2.3703  0.7948
  253MOL0     H34847   2.396   8.190   1.773  1.1225 -1.3948  0.6402
  253MOL0     H34848   2.460   8.353   1.775 -1.8739  0.1616  1.0655
  253MOL0     H34849   2.484   8.333   2.014  0.5497 -2.3916  1.8738
  253MOL0     H34850   2.324   8.257   1.976 -0.0424  0.0090 -0.6179
  253MOL0     H34851   2.441   8.041   1.994  1.3385 -0.0041 -3.5927
  253MOL0     H34852   2.593   8.130   2.018 -1.2824  2.3664 -2.9220
  253MOL0     H34853   2.364   8.191   2.207  0.4052  2.6386 -0.7070
  253MOL0     H34854   2.480   8.055   2.241  1.6438  0.1604 -0.0172
  253MOL0     H34855   2.515   8.274   2.362 -2.3356  0.4756 -0.9864
  253MOL0     H34856   2.557   8.343   2.212 -1.2471 -0.1043  2.6276
  253MOL0     H34857   2.697   8.096   2.317 -1.3300  0.7609  2.3524
  253MOL0     H34858   2.749   8.190   2.172 -0.0027 -0.8126  0.7568
  253MOL0     H34859   2.883   8.236   2.394 -0.8630 -1.5619  0.1045
  253MOL0     H34860   2.738   8.305   2.451 -1.6120  4.3899 -1.9182
  253MOL0     H34861   2.769   8.470   2.244  1.6540  1.3057 -1.2282
  253MOL0     H34862   2.910   8.466   2.341 -1.1169  0.4528  0.5899
  253MOL0     H34863   3.124   8.433   2.239 -0.8220  3.6969 -0.6087
  253MOL0     H34864   3.309   8.413   2.040  0.8477 -0.6673 -1.1677
  253MOL0     H34865   3.224   8.515   1.913 -0.3975 -0.0735  1.6077
  253MOL0     H34866   3.269   8.217   1.889  1.0891 -1.1348 -1.5734
  253MOL0     H34867   3.223   8.335   1.757  1.0235  1.2186 -0.0642
  253MOL0     H34868   3.439   8.450   1.792 -1.8808  0.1735  0.2774
  253MOL0     H34869   3.475   8.327   1.915 -1.4383  0.5744  0.7560
  253MOL0     H34870   3.595   8.255   1.700  0.0549  2.0482 -1.6709
  253MOL0     H34871   3.446   8.166   1.703  2.5386 -1.3358 -1.5755
  253MOL0     H34872   3.679   8.461   1.683  2.1709 -3.8472 -1.9708
  253MOL0     H34873   3.938   8.623   1.515  1.4441  1.7192  1.4786
  253MOL0     H34874   3.896   8.540   1.662 -0.0592  1.0836  1.0378
  253MOL0     H34875   3.838   8.707   1.633 -0.4754 -0.4213  2.9932
  253MOL0     H34876   3.923   8.754   0.958  1.4794  1.8830 -2.5644
  253MOL0     H34877   3.920   8.978   0.827  0.5462  2.7674  1.2266
  253MOL0     H34878   3.546   9.178   0.884 -0.9766  3.1360  0.6450
  253MOL0     H34879   3.629   9.320   0.840 -1.8933  0.5584 -2.5806
  253MOL0     H34880   3.606   9.078   0.658  0.9177 -1.0810  1.0877
  253MOL0     H34881   3.558   9.255   0.640  0.4074  0.4471  0.2315
  253MOL0     H34882   3.830   9.127   0.612 -0.9275 -0.1143  2.5648
  253MOL0     H34883   3.815   9.303   0.632 -1.8196  2.0333 -2.3028
  253MOL0     H34884   3.630   9.261   0.439  1.9783  2.2487  1.3228
  253MOL0     H34885   3.732   9.109   0.426  2.5647 -0.9823  3.1348
  253MOL0     H34886   3.802   9.401   0.390 -0.0629 -0.1232 -1.2666
  253MOL0     H34887   3.935   9.289   0.433  0.0433  0.6347  1.8882
  253MOL0     H34888   3.762   9.280   0.175 -0.0828  2.8745 -0.6878
  253MOL0     H34889   3.871   9.153   0.237 -1.1251 -0.8815  1.8483
  253MOL0     H34890   3.974   9.313   0.057 -1.8294  0.7794 -0.7685
  253MOL0     H34891   4.058   9.274   0.204 -0.0715 -0.2867  0.8839
  253MOL0     H34892   3.960   9.515   0.292 -2.5446  2.6195 -1.4687
  253MOL0     H34893   3.888   9.522   0.131 -1.1234 -1.2090 -0.6964
  253MOL0     H34894   3.599   9.109   1.091 -4.0844 -3.3319  0.6315
  253MOL0     H34895   3.613   8.907   1.209 -0.4066  2.7210  0.2631
  253MOL0     H34896   3.543   8.622   1.239 -1.0113  0.9564  1.7457
  253MOL0     H34897   3.419   8.439   1.336  0.5185 -0.4021  0.6425
  253MOL0     H34898   2.514   8.354   1.571  0.8249  3.8692  2.2910
  253MOL0     H34899   2.666   8.414   1.379 -1.8965 -1.6049 -0.0904
  253MOL0     H34900   3.131   8.311   1.200 -0.7110  0.1730 -0.9124
  253MOL0     H34901   3.308   8.390   1.024  1.4009  1.9250 -0.1003
  253MOL0     H34902   3.303   8.616   0.817  1.2761  0.6309 -1.8646
  253MOL0     H34903   3.331   8.751   0.921  0.0855  0.2843 -1.6028
  253MOL0     H34904   3.547   8.633   0.739 -0.0839 -1.3257  2.2645
  253MOL0     H34905   3.583   8.742   0.862  0.2592 -0.0462  0.4534
  253MOL0     H34906   3.432   8.921   0.767 -0.2390 -0.8053 -0.3874
  253MOL0     H34907   3.563   8.875   0.673 -1.9408  2.3339 -2.5904
  253MOL0     H34908   3.271   8.806   0.608  0.2828  0.0174  0.4010
  253MOL0     H34909   3.410   8.707   0.554 -1.0601 -0.9517 -0.5339
  253MOL0     H34910   3.460   9.075   0.337  0.9784  1.7763  0.8500
  253MOL0     H34911   3.300   8.775   1.163  0.8039 -0.7958  0.6440
  253MOL0     H34912   3.021   8.759   1.371  0.0054  1.3006  0.0092
  253MOL0     H34913   3.169   8.745   1.473  0.9562  2.5931 -0.9156
  253MOL0     H34914   3.175   8.843   1.332  1.3341 -0.0641  0.7655
  254MOL0     O34915   0.644   7.293   7.085 -0.6133 -0.4461 -0.4405
  254MOL0     C34916   0.751   7.233   7.098  0.5784  0.7044  0.3840
  254MOL0     O34917   0.755   7.110   7.146  0.8216 -0.6001 -0.3328
  254MOL0     C34918   0.638   7.040   7.173  0.3545  0.3181 -0.2912
  254MOL0     C34919   0.557   6.987   7.077 -0.0055  0.0852  1.2375
  254MOL0     C34920   0.440   6.915   7.119 -0.2047 -0.6100  0.4173
  254MOL0     C34921   0.391   6.933   7.252  0.6661  0.0182 -0.1896
  254MOL0     O34922   0.267   6.877   7.275  0.0491 -0.3540 -0.4618
  254MOL0     C34923   0.229   6.865   7.410  0.6037 -0.9471 -0.9163
  254MOL0     C34924   0.082   6.816   7.399 -0.5955  0.3756 -0.4550
  254MOL0     C34925   0.021   6.792   7.534 -0.8546 -0.4727 -1.1281
  254MOL0     C34926  -0.126   6.766   7.501  0.4604 -0.0628 -0.4746
  254MOL0     C34927  -0.204   6.728   7.628 -1.2622  0.0478 -0.1233
  254MOL0     C34928  -0.336   6.789   7.630 -0.3197 -0.4620 -0.1393
  254MOL0     C34929  -0.428   6.717   7.729 -0.2555  0.6133  0.2812
  254MOL0     C34930  -0.372   6.717   7.882  0.1795 -0.4558  0.3260
  254MOL0     N34931  -0.388   6.855   7.939  0.1447  0.2944 -0.5133
  254MOL0     C34932  -0.501   6.916   7.988 -0.8176  0.0103  0.0021
  254MOL0     C34933  -0.458   7.033   8.042  0.1096 -1.5813 -0.1802
  254MOL0     C34934  -0.550   7.138   8.112  1.1274  0.5390  0.3233
  254MOL0     C34935  -0.604   7.235   8.009 -0.8321 -0.3386  0.4516
  254MOL0     C34936  -0.504   7.347   7.980  0.2412 -0.0319 -0.0839
  254MOL0     C34937  -0.576   7.429   7.877 -0.5109  0.9723 -0.9156
  254MOL0     O34938  -0.692   7.491   7.930  0.2268  0.4294  0.3504
  254MOL0     C34939  -0.806   7.487   7.850  0.2424 -0.1063  0.5975
  254MOL0     C34940  -0.790   7.557   7.724 -0.0070 -0.6712  0.3312
  254MOL0     C34941  -0.891   7.546   7.621  0.1134  0.5181  0.0120
  254MOL0     C34942  -0.851   7.606   7.486  0.2527  0.9716 -0.3314
  254MOL0     C34943  -1.023   7.497   7.662  0.4653 -0.2002 -0.5322
  254MOL0     C34944  -1.148   7.492   7.580 -0.2019  0.1550  0.0862
  254MOL0     O34945  -1.266   7.470   7.643  0.0954  0.2377 -0.1780
  254MOL0     C34946  -1.383   7.454   7.574  0.7278  0.6330  0.8423
  254MOL0     C34947  -1.400   7.361   7.471  0.0274  0.5724  0.4268
  254MOL0     C34948  -1.522   7.345   7.406  0.2833 -1.2310 -0.6265
  254MOL0     C34949  -1.631   7.433   7.440 -0.6850  0.2029  0.0147
  254MOL0     O34950  -1.749   7.410   7.378  0.0800  0.0009 -0.2125
  254MOL0     C34951  -1.857   7.504   7.402  0.2595 -0.0474  0.2432
  254MOL0     C34952  -1.915   7.487   7.539 -0.6170  0.4039  0.6595
  254MOL0     C34953  -2.021   7.381   7.533  0.0172  0.3260  0.6404
  254MOL0     C34954  -2.054   7.324   7.674 -0.0925 -0.0785 -1.1072
  254MOL0     C34955  -2.201   7.276   7.687 -0.6064 -0.3518 -0.4568
  254MOL0     C34956  -2.199   7.200   7.818  0.0230 -0.3492  0.2541
  254MOL0     C34957  -2.335   7.196   7.896  0.1037  0.1959 -0.5602
  254MOL0     C34958  -2.391   7.054   7.869  0.5366 -0.6772  0.3691
  254MOL0    Cl34959  -2.359   6.983   7.712 -0.5497  0.3504 -0.0327
  254MOL0     C34960  -1.607   7.526   7.539 -0.9018  0.0391  0.3343
  254MOL0     C34961  -1.487   7.547   7.603 -0.6109  0.8049 -0.1482
  254MOL0     O34962  -1.137   7.525   7.464  0.0820  0.8937 -0.5626
  254MOL0     C34963  -1.030   7.436   7.792 -0.6547 -0.9744 -1.1515
  254MOL0     C34964  -0.920   7.426   7.880 -0.1751  0.2748  0.3219
  254MOL0     N34965  -0.325   7.052   8.007  0.1110  0.2450 -0.4901
  254MOL0     N34966  -0.289   6.947   7.948  0.5967 -0.0142  0.3134
  254MOL0     C34967   0.478   6.981   7.351 -0.2135 -0.0897  0.5917
  254MOL0     C34968   0.602   7.039   7.310  0.1679  0.3527 -0.2566
  254MOL0     C34969   0.875   7.304   7.074  0.4031 -0.5810  0.6663
  254MOL0     C34970   0.872   7.433   7.008  0.0432  0.0695  0.5633
  254MOL0     C34971   0.989   7.518   7.016 -0.4158 -0.5591  0.1692
  254MOL0     C34972   1.115   7.463   7.037  1.2399 -0.4407 -0.3069
  254MOL0     O34973   1.243   7.525   7.027 -0.2887  0.3797 -0.8575
  254MOL0     C34974   1.260   7.640   6.950  0.8370  0.1325  0.5454
  254MOL0     C34975   1.398   7.634   6.899  1.1760  0.2403  0.5637
  254MOL0     C34976   1.503   7.608   7.017  0.1774  0.6173 -1.0728
  254MOL0     C34977   1.639   7.645   6.962 -0.2703 -0.0274  0.0119
  254MOL0     C34978   1.756   7.604   7.040  0.9719  0.1018 -0.0581
  254MOL0     C34979   1.856   7.583   7.099  0.4984  0.3860 -0.2381
  254MOL0     C34980   1.117   7.330   7.073  0.0226 -0.5352  0.5627
  254MOL0     C34981   1.005   7.252   7.103  0.1515 -1.0456 -0.3299
  254MOL0     C34982   1.037   7.131   7.181  0.1999 -1.4550  0.3688
  254MOL0     H34983   0.600   6.983   6.977  0.4042 -2.7906  1.4253
  254MOL0     H34984   0.383   6.875   7.036 -1.5055  0.0428  0.9571
  254MOL0     H34985   0.232   6.962   7.459 -0.3342 -1.8107  0.9675
  254MOL0     H34986   0.298   6.797   7.461  1.1019  1.1454  1.3602
  254MOL0     H34987   0.034   6.890   7.336 -3.3993 -0.4478  0.5360
  254MOL0     H34988   0.099   6.719   7.352 -0.4913  0.2066 -0.0744
  254MOL0     H34989   0.071   6.708   7.584 -2.8141 -1.8367 -1.3913
  254MOL0     H34990   0.019   6.881   7.598 -0.7831  0.5582 -2.5041
  254MOL0     H34991  -0.170   6.855   7.455  0.0087  0.0003  0.0641
  254MOL0     H34992  -0.129   6.680   7.433  3.4124  0.4852 -1.4543
  254MOL0     H34993  -0.156   6.765   7.720  0.0760 -2.2839  0.2174
  254MOL0     H34994  -0.207   6.619   7.642  1.3000 -0.2408 -1.2018
  254MOL0     H34995  -0.334   6.897   7.651 -0.7186 -0.7680  1.6289
  254MOL0     H34996  -0.386   6.775   7.534 -2.0783 -0.8952  0.7879
  254MOL0     H34997  -0.464   6.616   7.709 -2.9787  0.8260  3.3134
  254MOL0     H34998  -0.522   6.773   7.721 -0.2444  0.3477 -3.5755
  254MOL0     H34999  -0.436   6.649   7.940 -1.8566 -2.0780 -3.4256
  254MOL0     H35000  -0.269   6.683   7.875 -0.1817 -1.2331 -3.1932
  254MOL0     H35001  -0.606   6.887   7.995 -1.4188  2.1840  0.8358
  254MOL0     H35002  -0.486   7.193   8.182  0.0686  1.3533  0.6818
  254MOL0     H35003  -0.626   7.082   8.167 -1.2057  1.3819 -1.8564
  254MOL0     H35004  -0.634   7.186   7.916 -2.7108  0.0206  0.8331
  254MOL0     H35005  -0.696   7.277   8.052 -0.8475 -0.5383  0.6155
  254MOL0     H35006  -0.465   7.411   8.059  2.6349  0.8089 -1.8447
  254MOL0     H35007  -0.426   7.301   7.919 -1.4111 -2.0446 -0.7991
  254MOL0     H35008  -0.508   7.498   7.825  1.0536 -0.9262 -1.4738
  254MOL0     H35009  -0.620   7.371   7.795 -2.3860  2.5061 -1.0936
  254MOL0     H35010  -0.699   7.610   7.699  0.4382 -0.4158  2.3318
  254MOL0     H35011  -0.844   7.522   7.416  0.9362 -0.8940  1.8742
  254MOL0     H35012  -0.759   7.662   7.467  0.7817 -0.2201 -1.4655
  254MOL0     H35013  -0.936   7.669   7.459 -0.7257  0.6806  1.9133
  254MOL0     H35014  -1.325   7.284   7.462 -1.5173 -1.4043  3.0421
  254MOL0     H35015  -1.533   7.272   7.327  2.9865 -0.2691 -2.0184
  254MOL0     H35016  -1.826   7.607   7.383 -2.1958  0.5640 -0.7622
  254MOL0     H35017  -1.938   7.491   7.330 -0.2433 -1.9413  1.0713
  254MOL0     H35018  -1.843   7.462   7.617 -1.5760 -1.4093  1.0269
  254MOL0     H35019  -1.955   7.583   7.572 -0.3987 -0.6698  4.5448
  254MOL0     H35020  -1.987   7.297   7.472  0.0758  0.5937  0.2964
  254MOL0     H35021  -2.116   7.423   7.498 -0.9618 -1.1829  1.3962
  254MOL0     H35022  -2.025   7.391   7.754 -1.0901 -3.0537  1.9837
  254MOL0     H35023  -1.992   7.234   7.682  1.1616  0.7704 -1.0917
  254MOL0     H35024  -2.262   7.365   7.710 -0.3662 -0.5470  0.9658
  254MOL0     H35025  -2.250   7.214   7.611 -2.8604 -0.8676  1.2930
  254MOL0     H35026  -2.145   7.261   7.891 -1.3985 -0.5598  1.5458
  254MOL0     H35027  -2.146   7.105   7.820  0.3956 -0.1562 -0.1820
  254MOL0     H35028  -2.397   7.282   7.872 -0.0440  0.6306  1.3029
  254MOL0     H35029  -2.309   7.214   8.000  0.6907  3.9771 -1.2101
  254MOL0     H35030  -2.499   7.051   7.888  0.2656 -0.7096 -1.0934
  254MOL0     H35031  -2.354   6.998   7.956 -0.6760 -0.9840  0.7105
  254MOL0     H35032  -1.685   7.593   7.573 -2.7209 -2.3943  1.2233
  254MOL0     H35033  -1.469   7.618   7.683  1.6444  0.0480  0.0844
  254MOL0     H35034  -1.127   7.398   7.822 -0.3874 -0.0573  1.0769
  254MOL0     H35035  -0.926   7.371   7.974 -1.5592 -0.1995 -0.0140
  254MOL0     H35036   0.453   6.971   7.456  1.2152 -1.6296  0.8220
  254MOL0     H35037   0.666   7.085   7.384  0.4083 -2.7621  1.6232
  254MOL0     H35038   0.774   7.460   6.971  0.0228  0.3405  0.8074
  254MOL0     H35039   0.966   7.622   6.998 -3.2175 -0.7022  2.2602
  254MOL0     H35040   1.190   7.635   6.866  2.6658  1.3812 -1.1609
  254MOL0     H35041   1.245   7.732   7.007 -2.2024 -2.4673  4.4309
  254MOL0     H35042   1.420   7.717   6.832 -0.7513  0.5391  0.2462
  254MOL0     H35043   1.400   7.548   6.832 -1.4786  2.3860 -2.5359
  254MOL0     H35044   1.472   7.668   7.103 -1.7719 -0.6669 -0.8140
  254MOL0     H35045   1.511   7.503   7.047  1.5499  1.3318  1.3644
  254MOL0     H35046   1.641   7.754   6.960  0.5655  0.0116  1.5607
  254MOL0     H35047   1.656   7.601   6.863  1.4688 -2.6178  1.3353
  254MOL0     H35048   1.948   7.545   7.138  0.9116 -0.1938 -1.7218
  254MOL0     H35049   1.215   7.282   7.074  1.6329  2.3141 -2.2726
  254MOL0     H35050   1.145   7.114   7.183  0.6112  0.8213  0.6999
  254MOL0     H35051   0.991   7.140   7.280 -0.2822  1.3092 -0.0205
  254MOL0     H35052   0.994   7.044   7.132 -0.3314 -2.6811  2.8582
  255MOL0     O35053   2.508   0.989   0.840 -0.2455 -0.4645 -0.0842
  255MOL0     C35054   2.535   1.114   0.859  0.3465  1.0378 -0.3109
  255MOL0     O35055   2.479   1.195   0.954 -0.1928 -0.3107 -0.9775
  255MOL0     C35056   2.393   1.128   1.043 -0.7691 -0.5375 -0.6234
  255MOL0     C35057   2.422   1.095   1.180 -0.0004  0.5714  0.1453
  255MOL0     C35058   2.317   1.044   1.259  0.4999  0.9482  0.2260
  255MOL0     C35059   2.197   0.999   1.195 -1.0953 -0.3861  0.5907
  255MOL0     O35060   2.118   0.925   1.282  0.6694 -0.2918  0.8882
  255MOL0     C35061   1.981   0.938   1.274  0.7563 -0.0417  0.5223
  255MOL0     C35062   1.947   1.077   1.332 -0.7910 -0.1992  0.7659
  255MOL0     C35063   1.800   1.119   1.331 -0.9081  1.1404  0.5901
  255MOL0     C35064   1.775   1.252   1.415  0.7729 -0.0648  0.2361
  255MOL0     C35065   1.645   1.329   1.381 -0.0549  0.9042 -0.5515
  255MOL0     C35066   1.524   1.243   1.330 -0.3745 -0.1949 -0.8936
  255MOL0     C35067   1.396   1.335   1.318 -0.5471  0.2080 -0.2083
  255MOL0     C35068   1.291   1.298   1.214  0.2662 -0.1445 -0.2610
  255MOL0     N35069   1.166   1.286   1.291 -0.0665  0.1100 -0.6600
  255MOL0     C35070   1.077   1.181   1.312  0.2062 -0.1902  0.0570
  255MOL0     C35071   0.984   1.232   1.391 -0.3810 -0.2420 -0.0274
  255MOL0     C35072   0.863   1.150   1.420  0.8023  0.5717 -0.3994
  255MOL0     C35073   0.731   1.226   1.439 -0.4632 -0.1126 -0.2036
  255MOL0     C35074   0.691   1.271   1.587 -0.0391 -0.5406  0.2580
  255MOL0     C35075   0.576   1.370   1.580 -0.6276  0.0181  0.1829
  255MOL0     O35076   0.559   1.409   1.718 -0.6443  0.9989  0.3149
  255MOL0     C35077   0.444   1.464   1.756 -0.7125 -1.5650  0.2018
  255MOL0     C35078   0.432   1.494   1.892 -0.0762 -0.5073  0.6488
  255MOL0     C35079   0.315   1.535   1.947  0.1515 -0.4694 -1.2170
  255MOL0     C35080   0.313   1.557   2.103  0.5146  0.4179  0.1868
  255MOL0     C35081   0.203   1.550   1.865 -0.3694 -0.0518  0.5533
  255MOL0     C35082   0.071   1.557   1.918 -0.4430 -0.3595  1.0701
  255MOL0     O35083   0.058   1.639   2.026 -0.0367 -0.0522  0.5529
  255MOL0     C35084  -0.062   1.679   2.064  0.6075 -0.2077 -0.4028
  255MOL0     C35085  -0.101   1.655   2.196 -0.6592 -1.9617  0.1151
  255MOL0     C35086  -0.220   1.702   2.244  0.1767  0.2595  0.2137
  255MOL0     C35087  -0.310   1.763   2.161  0.4923 -0.4952 -1.1723
  255MOL0     O35088  -0.421   1.814   2.217  0.0672  0.3319  0.2934
  255MOL0     C35089  -0.532   1.853   2.134 -0.6125 -0.1686 -0.1733
  255MOL0     C35090  -0.612   1.938   2.228 -0.2758  0.9530  0.1555
  255MOL0     C35091  -0.673   1.878   2.358  0.7250 -0.0154 -0.7696
  255MOL0     C35092  -0.599   1.904   2.493  0.1159 -0.1334  0.0216
  255MOL0     C35093  -0.686   1.884   2.624  0.0418  0.2823  0.7851
  255MOL0     C35094  -0.743   1.744   2.638  0.1038 -0.3719  1.0948
  255MOL0     C35095  -0.887   1.737   2.642 -0.3438  0.1759 -0.0590
  255MOL0     C35096  -0.946   1.633   2.743  0.8208  0.0712  0.2092
  255MOL0    Cl35097  -1.131   1.664   2.754  0.2230  0.1241 -0.2161
  255MOL0     C35098  -0.278   1.781   2.029 -0.6153 -0.6662  0.0123
  255MOL0     C35099  -0.152   1.753   1.988 -0.5823  0.1000  0.0799
  255MOL0     O35100  -0.020   1.504   1.854  0.0477  0.8516  0.0401
  255MOL0     C35101   0.209   1.539   1.728 -0.1394 -0.3229  0.4684
  255MOL0     C35102   0.335   1.495   1.670  0.1300  0.0573 -0.5179
  255MOL0     N35103   1.015   1.361   1.432  0.0738  0.3993  1.1548
  255MOL0     N35104   1.119   1.390   1.367  0.6063 -0.7602  0.0203
  255MOL0     C35105   2.176   1.031   1.054  0.5175 -0.2963 -1.4930
  255MOL0     C35106   2.269   1.097   0.985 -0.7900 -0.3986  0.2609
  255MOL0     C35107   2.640   1.171   0.768  0.8514  0.2184  0.8126
  255MOL0     C35108   2.668   1.306   0.786 -0.3932 -0.8366 -0.8597
  255MOL0     C35109   2.768   1.368   0.710  0.6005  0.5852 -1.1242
  255MOL0     C35110   2.836   1.305   0.602  0.6052  0.9554 -1.3483
  255MOL0     O35111   2.915   1.389   0.529 -0.2860  0.0181 -0.7013
  255MOL0     C35112   2.923   1.353   0.395  0.3296  0.5528 -1.1992
  255MOL0     C35113   2.957   1.488   0.323  0.7948  0.0074 -0.0380
  255MOL0     C35114   2.991   1.454   0.177  1.0295 -0.8463  0.3569
  255MOL0     C35115   3.130   1.380   0.157 -0.7284 -0.4640 -0.7153
  255MOL0     C35116   3.128   1.246   0.118  0.5352  0.2830 -0.8763
  255MOL0     C35117   3.100   1.132   0.090 -0.1173  1.3103  0.2658
  255MOL0     C35118   2.798   1.170   0.584 -0.2003  0.8092 -0.1688
  255MOL0     C35119   2.707   1.106   0.658  0.5739 -0.5239  0.0020
  255MOL0     C35120   2.685   0.960   0.621 -0.2992 -0.4717 -0.6216
  255MOL0     H35121   2.511   1.114   1.238 -0.5819 -0.9477  1.6302
  255MOL0     H35122   2.328   1.024   1.365  0.3379 -1.8919 -0.2137
  255MOL0     H35123   1.931   0.860   1.333  1.6882 -1.2126 -0.1776
  255MOL0     H35124   1.957   0.933   1.168  2.9199 -0.4457  0.0040
  255MOL0     H35125   1.988   1.075   1.433  1.9067 -2.7523 -0.2376
  255MOL0     H35126   2.010   1.157   1.292 -3.2864  1.1761 -0.6640
  255MOL0     H35127   1.768   1.134   1.227 -0.3984  2.2197  0.5792
  255MOL0     H35128   1.747   1.035   1.377  1.1706 -0.8610 -0.4461
  255MOL0     H35129   1.772   1.207   1.515  1.4430 -0.5964  0.0244
  255MOL0     H35130   1.863   1.315   1.408  1.7503 -1.5028 -1.2788
  255MOL0     H35131   1.675   1.400   1.303 -0.5117 -0.1026 -1.6702
  255MOL0     H35132   1.613   1.396   1.461 -2.8689 -1.5285  0.5219
  255MOL0     H35133   1.550   1.190   1.238  1.1491  3.0856 -2.5525
  255MOL0     H35134   1.501   1.172   1.410 -2.1693 -1.1579 -2.1892
  255MOL0     H35135   1.433   1.432   1.284 -0.0717 -0.7527 -2.6920
  255MOL0     H35136   1.367   1.348   1.423  1.0762 -5.4262  1.3277
  255MOL0     H35137   1.276   1.365   1.129 -2.4053 -0.5231 -0.1925
  255MOL0     H35138   1.316   1.198   1.178 -1.7878 -1.5299  1.8395
  255MOL0     H35139   1.073   1.088   1.257 -2.4328 -1.8185  2.7351
  255MOL0     H35140   0.881   1.091   1.510 -1.1344  2.2337  1.1656
  255MOL0     H35141   0.847   1.079   1.338  0.4479 -0.4116  0.4866
  255MOL0     H35142   0.737   1.321   1.383 -0.7211  0.3449  0.5299
  255MOL0     H35143   0.642   1.170   1.408 -0.6362  0.2166 -0.3185
  255MOL0     H35144   0.660   1.186   1.647  1.8579 -2.2730 -1.0983
  255MOL0     H35145   0.786   1.313   1.621  1.3811 -0.6999 -3.0787
  255MOL0     H35146   0.607   1.459   1.524 -0.4193 -0.4829 -0.4989
  255MOL0     H35147   0.501   1.312   1.526  1.2357 -0.4031 -2.0821
  255MOL0     H35148   0.523   1.504   1.950  0.1737 -1.5864  0.4739
  255MOL0     H35149   0.233   1.504   2.154 -0.3462  2.5743  1.1834
  255MOL0     H35150   0.280   1.656   2.136 -3.2230 -0.3186 -0.8887
  255MOL0     H35151   0.403   1.527   2.158 -0.9087 -3.0119  0.9053
  255MOL0     H35152  -0.047   1.605   2.276  0.6519 -0.0265  0.5225
  255MOL0     H35153  -0.252   1.685   2.347  0.1451  1.8201  0.4848
  255MOL0     H35154  -0.508   1.923   2.053  0.9889  1.0600  1.2882
  255MOL0     H35155  -0.595   1.778   2.085 -2.0752  0.5710  0.5506
  255MOL0     H35156  -0.549   2.020   2.265  0.9297 -0.3343  1.1075
  255MOL0     H35157  -0.695   1.981   2.171 -2.3128 -0.5436  1.8327
  255MOL0     H35158  -0.680   1.772   2.332  0.3324  0.4419 -2.6921
  255MOL0     H35159  -0.776   1.911   2.373 -0.1169 -2.2217 -1.2474
  255MOL0     H35160  -0.569   2.009   2.501  0.6917 -0.2865 -0.0533
  255MOL0     H35161  -0.509   1.842   2.486  0.5914  0.4326  0.9830
  255MOL0     H35162  -0.633   1.915   2.715  3.3801  0.6439 -1.0909
  255MOL0     H35163  -0.771   1.952   2.613 -0.7783 -0.3354  2.8141
  255MOL0     H35164  -0.693   1.714   2.731  1.0498  2.5075  1.6299
  255MOL0     H35165  -0.721   1.684   2.550 -0.0239  1.3061 -0.1389
  255MOL0     H35166  -0.917   1.725   2.538 -0.5460  1.7731 -0.2097
  255MOL0     H35167  -0.923   1.835   2.674  1.5996  0.8032  0.3860
  255MOL0     H35168  -0.893   1.642   2.839 -1.3691 -1.0959  1.6087
  255MOL0     H35169  -0.923   1.536   2.699  0.2371  1.5202 -3.6805
  255MOL0     H35170  -0.352   1.818   1.958 -1.8814  2.4816  2.7213
  255MOL0     H35171  -0.133   1.790   1.888 -3.4455  1.2986 -0.1294
  255MOL0     H35172   0.121   1.555   1.667 -0.6276 -2.4532  0.5265
  255MOL0     H35173   0.335   1.482   1.563 -4.4389 -0.7926 -0.6097
  255MOL0     H35174   2.084   1.011   1.001  0.4625  2.3057 -2.5275
  255MOL0     H35175   2.247   1.134   0.885 -2.3872 -1.8682  0.0331
  255MOL0     H35176   2.623   1.367   0.863 -0.1125  1.4618 -2.4042
  255MOL0     H35177   2.781   1.475   0.727 -0.7475  0.6438 -0.3748
  255MOL0     H35178   2.998   1.275   0.382  0.4403  0.4339  0.0972
  255MOL0     H35179   2.831   1.314   0.349 -0.9347 -0.2617  1.8008
  255MOL0     H35180   3.045   1.544   0.356  2.0994 -1.4336 -0.9083
  255MOL0     H35181   2.873   1.557   0.334  1.6208  0.6168  4.6858
  255MOL0     H35182   2.915   1.381   0.146  0.5165 -0.6417  1.1158
  255MOL0     H35183   2.983   1.542   0.112  3.6899 -1.8151 -1.4708
  255MOL0     H35184   3.180   1.381   0.254  1.9328 -0.2261 -2.0131
  255MOL0     H35185   3.200   1.424   0.086 -0.0454 -2.8904 -1.6417
  255MOL0     H35186   3.068   1.039   0.046 -0.7697 -0.2752  3.7594
  255MOL0     H35187   2.836   1.126   0.492  1.2609 -3.9342  2.3831
  255MOL0     H35188   2.714   0.944   0.516 -2.4743 -1.0396 -1.1941
  255MOL0     H35189   2.751   0.907   0.689  2.6702  1.6534 -1.6486
  255MOL0     H35190   2.581   0.925   0.615 -0.0419 -1.2241 -0.7689
  256MOL0     O35191   3.251  10.330   2.669  0.1174  0.6097 -0.3064
  256MOL0     C35192   3.319  10.417   2.717 -0.3332 -1.2693 -0.8393
  256MOL0     O35193   3.436  10.395   2.793 -0.3320  0.6782 -0.3921
  256MOL0     C35194   3.457  10.269   2.844 -0.9558  0.3146 -0.6523
  256MOL0     C35195   3.587  10.227   2.850 -0.6542  0.0791 -1.1683
  256MOL0     C35196   3.611  10.112   2.924 -1.0356  0.5033 -0.6965
  256MOL0     C35197   3.504  10.043   2.984  0.1639 -0.2830  0.8494
  256MOL0     O35198   3.522   9.927   3.039  0.5081  0.1160 -0.1979
  256MOL0     C35199   3.641   9.844   3.004 -0.2983 -0.8112 -0.0722
  256MOL0     C35200   3.602   9.693   2.998  0.3376 -0.3058  0.0927
  256MOL0     C35201   3.521   9.650   2.875 -0.0274  0.4634 -0.2179
  256MOL0     C35202   3.490   9.500   2.894  0.4864  1.0841 -0.1031
  256MOL0     C35203   3.446   9.431   2.764  0.3675 -1.0243 -0.7343
  256MOL0     C35204   3.372   9.297   2.787 -0.0727 -0.3200 -0.0252
  256MOL0     C35205   3.281   9.266   2.669 -0.0317 -0.0057  0.3793
  256MOL0     C35206   3.350   9.203   2.548 -0.2821  0.7789 -1.0020
  256MOL0     N35207   3.264   9.185   2.434  0.3672 -0.6286  0.5567
  256MOL0     C35208   3.280   9.071   2.351  0.3838 -0.2494  0.1321
  256MOL0     C35209   3.179   9.081   2.266 -0.4815 -0.3952 -0.2523
  256MOL0     C35210   3.138   8.975   2.175 -0.3736 -0.2780 -0.1675
  256MOL0     C35211   3.189   8.982   2.029 -0.0843  0.3481  0.0025
  256MOL0     C35212   3.180   8.852   1.949 -0.2863 -0.1045  0.3364
  256MOL0     C35213   3.059   8.761   1.965 -0.7476  0.3313  0.6047
  256MOL0     O35214   2.944   8.841   1.940  0.3393  0.2779 -0.2209
  256MOL0     C35215   2.814   8.807   1.962 -0.9843 -0.1192  0.0725
  256MOL0     C35216   2.728   8.910   1.981  0.3575 -0.2124  0.1074
  256MOL0     C35217   2.599   8.892   2.020  0.2828  0.0877  1.3474
  256MOL0     C35218   2.524   9.017   2.050  0.3250  0.9019  0.0065
  256MOL0     C35219   2.543   8.758   2.020  0.1036 -0.3509 -0.7587
  256MOL0     C35220   2.407   8.738   2.047 -0.0955  1.0408  0.4156
  256MOL0     O35221   2.349   8.639   1.982 -0.2032  0.1948 -0.4445
  256MOL0     C35222   2.242   8.571   2.038 -0.4031 -0.1721  0.3762
  256MOL0     C35223   2.260   8.485   2.141 -0.8645  0.6369  0.0659
  256MOL0     C35224   2.145   8.422   2.188  0.6448  0.4023 -0.1835
  256MOL0     C35225   2.017   8.442   2.141 -0.2786 -0.5853 -0.2371
  256MOL0     O35226   1.914   8.378   2.203  0.3606  0.7257  0.2120
  256MOL0     C35227   1.791   8.449   2.201  0.2131 -0.2697 -0.6751
  256MOL0     C35228   1.695   8.381   2.297  0.1973  0.3862 -0.6845
  256MOL0     C35229   1.729   8.355   2.446  0.0438  0.7076  0.3302
  256MOL0     C35230   1.794   8.469   2.522  0.7812  0.6838  0.3521
  256MOL0     C35231   1.872   8.435   2.649  0.3092  0.6610 -1.2401
  256MOL0     C35232   1.794   8.352   2.755 -0.5227  0.0263 -0.2340
  256MOL0     C35233   1.895   8.306   2.869  0.1112 -0.1141  0.7926
  256MOL0     C35234   1.846   8.240   2.996  0.6607  0.7893 -0.3643
  256MOL0    Cl35235   1.805   8.361   3.122  0.4393  0.3225  0.0172
  256MOL0     C35236   2.008   8.527   2.032  0.5949 -0.3941  0.1707
  256MOL0     C35237   2.120   8.588   1.977  0.2662  0.0559 -0.4778
  256MOL0     O35238   2.364   8.801   2.144  0.2136  0.9759  0.1573
  256MOL0     C35239   2.630   8.657   1.974  0.2006  0.3485  0.5913
  256MOL0     C35240   2.768   8.683   1.941 -0.4841 -0.4358  0.5227
  256MOL0     N35241   3.112   9.199   2.285 -0.0159 -0.8988  0.4292
  256MOL0     N35242   3.157   9.263   2.385  0.1926  1.0145 -0.1119
  256MOL0     C35243   3.373  10.087   2.978  0.0474  0.2212 -0.1678
  256MOL0     C35244   3.352  10.204   2.910  0.7453 -0.5930  0.9807
  256MOL0     C35245   3.290  10.562   2.711 -0.3745  0.7438  0.0485
  256MOL0     C35246   3.376  10.641   2.643 -0.6797 -0.4036 -0.3503
  256MOL0     C35247   3.350  10.777   2.616 -0.8797  0.0828  0.2384
  256MOL0     C35248   3.224  10.823   2.663 -0.5636 -0.6734  0.2013
  256MOL0     O35249   3.158  10.942   2.623 -0.5077 -0.1924  0.9058
  256MOL0     C35250   3.227  11.025   2.519 -0.6074 -0.4084  0.4573
  256MOL0     C35251   3.148  11.161   2.512 -0.8073  1.0867  0.1007
  256MOL0     C35252   3.142  11.204   2.372 -0.1126 -0.2230  0.6385
  256MOL0     C35253   3.037  11.158   2.264  1.0417 -0.2266 -0.1241
  256MOL0     C35254   3.087  11.156   2.127  0.2655  0.1299 -0.1883
  256MOL0     C35255   3.129  11.151   2.015  1.4356 -0.5132 -0.6833
  256MOL0     C35256   3.143  10.739   2.743  0.5792 -0.4843 -0.1464
  256MOL0     C35257   3.173  10.611   2.770  0.3840 -0.4513 -0.5035
  256MOL0     C35258   3.088  10.513   2.845 -1.2741 -0.3840  0.3154
  256MOL0     H35259   3.674  10.280   2.811  4.0981 -3.9844  2.5616
  256MOL0     H35260   3.715  10.081   2.930 -1.4205 -1.6127 -3.2301
  256MOL0     H35261   3.716   9.873   3.079  0.0933  1.9270 -1.3820
  256MOL0     H35262   3.678   9.877   2.907  0.9562 -1.0664  0.2982
  256MOL0     H35263   3.693   9.632   2.996 -0.9771 -2.3885  0.8009
  256MOL0     H35264   3.536   9.655   3.076 -0.0573  0.1816  0.0052
  256MOL0     H35265   3.424   9.700   2.866 -1.7007 -2.8572 -2.7117
  256MOL0     H35266   3.568   9.665   2.778  1.4249 -3.5166 -0.3142
  256MOL0     H35267   3.575   9.449   2.940 -2.4750 -0.9728  3.6405
  256MOL0     H35268   3.413   9.485   2.970 -0.1407 -1.6156 -1.1683
  256MOL0     H35269   3.538   9.412   2.707  1.6601  1.1528  0.4525
  256MOL0     H35270   3.372   9.497   2.718 -0.7986 -2.0282 -0.3390
  256MOL0     H35271   3.448   9.221   2.807  1.2743  0.7694 -0.8398
  256MOL0     H35272   3.302   9.310   2.870  0.8747  0.5389  0.6650
  256MOL0     H35273   3.246   9.364   2.635  1.1790  0.7620  1.2584
  256MOL0     H35274   3.194   9.209   2.704 -0.0233  0.1639  0.6773
  256MOL0     H35275   3.430   9.272   2.516 -0.4184  0.9557 -0.9640
  256MOL0     H35276   3.411   9.116   2.576 -0.5056  1.3740  1.6149
  256MOL0     H35277   3.360   8.998   2.353  0.0418 -0.6295 -0.0258
  256MOL0     H35278   3.029   8.965   2.182 -0.3775 -0.7070 -0.7977
  256MOL0     H35279   3.177   8.883   2.220 -1.8009 -0.7598  0.1491
  256MOL0     H35280   3.131   9.062   1.982  0.7036  0.1274 -1.3732
  256MOL0     H35281   3.292   9.016   2.044 -0.5800  1.0682  2.2403
  256MOL0     H35282   3.192   8.881   1.844  2.6718  1.9468  1.0918
  256MOL0     H35283   3.269   8.790   1.964  0.7533  1.4860  1.0962
  256MOL0     H35284   3.062   8.689   1.883  1.8174  0.4794  0.4769
  256MOL0     H35285   3.050   8.708   2.061 -0.8731  1.9022  1.5031
  256MOL0     H35286   2.764   9.012   1.979 -1.9090  0.6833  1.3471
  256MOL0     H35287   2.458   9.016   2.137 -0.8873 -5.1172 -0.5498
  256MOL0     H35288   2.455   9.040   1.969 -0.3169  0.6206  0.4657
  256MOL0     H35289   2.598   9.095   2.073  1.1013  0.2024 -0.0535
  256MOL0     H35290   2.357   8.473   2.188 -0.4073 -0.7628 -1.1770
  256MOL0     H35291   2.155   8.359   2.276 -1.4834  2.5443  1.7406
  256MOL0     H35292   1.803   8.548   2.245  0.4090  1.1512 -3.6675
  256MOL0     H35293   1.739   8.465   2.106 -0.1895  0.4932 -0.3314
  256MOL0     H35294   1.613   8.453   2.286  0.6212  1.8322  3.6537
  256MOL0     H35295   1.668   8.283   2.257  0.6628 -0.0086 -0.0538
  256MOL0     H35296   1.805   8.276   2.456  3.2162  3.4859  0.2134
  256MOL0     H35297   1.636   8.333   2.499 -2.1307  2.8958 -2.2674
  256MOL0     H35298   1.713   8.539   2.545 -0.9528 -0.5037 -1.8203
  256MOL0     H35299   1.874   8.519   2.467  0.8376  1.4957  1.1325
  256MOL0     H35300   1.955   8.369   2.621  0.5112  1.8091 -3.6109
  256MOL0     H35301   1.901   8.528   2.699 -0.4356  0.0928  0.2990
  256MOL0     H35302   1.753   8.259   2.714 -0.7972  0.2081 -0.3788
  256MOL0     H35303   1.727   8.422   2.806 -0.1873 -0.6140  1.1382
  256MOL0     H35304   1.962   8.391   2.890 -1.4994  1.6048 -0.6657
  256MOL0     H35305   1.960   8.240   2.811 -0.5591 -1.4265  1.4912
  256MOL0     H35306   1.926   8.187   3.048  1.9578  2.4179 -0.6140
  256MOL0     H35307   1.762   8.177   2.964  1.5533  0.1623 -1.5599
  256MOL0     H35308   1.906   8.545   1.998  1.3477 -0.9340 -2.6200
  256MOL0     H35309   2.106   8.656   1.894 -1.9459 -3.0487 -2.9186
  256MOL0     H35310   2.589   8.557   1.964  0.5275  0.3839 -1.7498
  256MOL0     H35311   2.831   8.609   1.894  1.0878  2.7709 -2.9188
  256MOL0     H35312   3.294  10.034   3.031  0.6288 -1.1831 -0.6627
  256MOL0     H35313   3.251  10.238   2.889  1.9222  0.4424 -4.8828
  256MOL0     H35314   3.464  10.599   2.597  0.1651  0.8198  0.1028
  256MOL0     H35315   3.415  10.822   2.542 -0.9509 -1.0278 -0.5185
  256MOL0     H35316   3.332  11.045   2.544  0.5438  1.5586 -4.5866
  256MOL0     H35317   3.219  10.979   2.419 -2.7777  1.2376 -0.2100
  256MOL0     H35318   3.202  11.234   2.573 -1.0484  0.5574  0.9783
  256MOL0     H35319   3.041  11.146   2.534 -1.3217  0.4421 -2.5196
  256MOL0     H35320   3.128  11.313   2.374 -0.3529 -0.2547  0.6149
  256MOL0     H35321   3.243  11.182   2.335  0.9975  2.2396  1.9146
  256MOL0     H35322   2.945  11.217   2.268  0.3867 -0.9947 -2.1815
  256MOL0     H35323   2.996  11.057   2.278  4.9382 -1.8965  0.6765
  256MOL0     H35324   3.158  11.151   1.911  0.6252 -0.2747 -0.9163
  256MOL0     H35325   3.051  10.784   2.778  1.4820 -0.4019  2.2657
  256MOL0     H35326   3.151  10.480   2.928  3.2495  3.0948 -1.3424
  256MOL0     H35327   2.992  10.546   2.888 -0.5687  1.0376  0.8434
  256MOL0     H35328   3.051  10.430   2.783 -1.2836  0.3755 -0.7180
  257MOL0     O35329   6.547   5.552   8.647  0.6997  0.3399  0.2130
  257MOL0     C35330   6.656   5.593   8.608  0.8832 -0.1654 -0.0384
  257MOL0     O35331   6.779   5.531   8.632  0.3502 -0.3326  0.3477
  257MOL0     C35332   6.780   5.419   8.706  0.8225 -0.2323  0.8697
  257MOL0     C35333   6.685   5.310   8.695  0.4381 -0.3406  0.4303
  257MOL0     C35334   6.693   5.198   8.769 -1.0022 -0.0238 -0.1977
  257MOL0     C35335   6.801   5.175   8.858 -0.1519  0.3198  0.8621
  257MOL0     O35336   6.807   5.068   8.943  0.6483 -0.4103 -0.3076
  257MOL0     C35337   6.687   5.058   9.029 -0.8761 -0.4114 -0.0428
  257MOL0     C35338   6.716   5.137   9.168 -0.0484 -0.2655  0.0685
  257MOL0     C35339   6.859   5.104   9.226  0.1538  0.1681  0.7354
  257MOL0     C35340   6.831   4.967   9.309 -0.1387 -0.2706 -0.3936
  257MOL0     C35341   6.959   4.912   9.374 -0.1045  0.3958 -0.3167
  257MOL0     C35342   6.929   4.791   9.470 -0.0328 -0.6214 -0.4662
  257MOL0     C35343   7.062   4.724   9.513 -0.9052 -0.3121  0.7062
  257MOL0     C35344   7.035   4.618   9.622 -0.4637  0.2361  1.0200
  257MOL0     N35345   6.984   4.488   9.566  0.4967 -0.0778 -0.2384
  257MOL0     C35346   6.856   4.439   9.588  0.3293 -0.0627 -0.2690
  257MOL0     C35347   6.852   4.329   9.517  0.0023 -0.5309  1.1749
  257MOL0     C35348   6.734   4.237   9.509  0.4637 -0.3194  0.5844
  257MOL0     C35349   6.748   4.133   9.629 -0.4704 -0.2689 -0.4492
  257MOL0     C35350   6.633   4.034   9.618 -0.3111 -0.4196  0.1812
  257MOL0     C35351   6.648   3.936   9.735  0.0059  0.6016 -0.6163
  257MOL0     O35352   6.517   3.874   9.771 -0.1634  0.2314  0.2694
  257MOL0     C35353   6.486   3.855   9.904  0.8485 -0.9071  0.1041
  257MOL0     C35354   6.506   3.961  10.000 -0.0135 -0.2821  0.6993
  257MOL0     C35355   6.459   3.951  10.130  0.1628  0.4683 -1.0992
  257MOL0     C35356   6.495   4.064  10.226  0.0899  0.4469  0.5155
  257MOL0     C35357   6.388   3.833  10.164 -0.6778 -0.7017 -0.3042
  257MOL0     C35358   6.331   3.810  10.309  0.4371 -0.8519  1.1440
  257MOL0     O35359   6.232   3.717  10.318  0.6285  0.1685  0.3559
  257MOL0     C35360   6.146   3.751  10.429  0.4254  0.2240 -0.6750
  257MOL0     C35361   6.109   3.667  10.530 -0.6838 -0.5871 -0.1020
  257MOL0     C35362   6.007   3.703  10.618 -0.2788 -0.2482 -0.7830
  257MOL0     C35363   5.939   3.821  10.613  0.0484  0.0109 -0.1700
  257MOL0     O35364   5.848   3.859  10.701 -0.4223 -1.2263  0.4441
  257MOL0     C35365   5.877   3.828  10.843 -0.0277  1.0988  0.0465
  257MOL0     C35366   5.880   3.952  10.932  0.7810 -0.0404  0.6798
  257MOL0     C35367   5.735   4.009  10.933  0.8447 -0.0000 -0.1889
  257MOL0     C35368   5.717   4.152  10.993  0.5785  0.0424  0.0400
  257MOL0     C35369   5.702   4.166  11.143 -0.2154 -0.8936 -0.6437
  257MOL0     C35370   5.840   4.136  11.225  0.5472  0.0402  0.7548
  257MOL0     C35371   5.832   4.169  11.366  0.4013 -0.0160  0.1019
  257MOL0     C35372   5.958   4.149  11.443  0.6706 -1.0784 -0.2570
  257MOL0    Cl35373   6.016   3.979  11.463 -0.2478 -0.0341 -0.0521
  257MOL0     C35374   5.985   3.913  10.517  0.8739  0.5138  0.4629
  257MOL0     C35375   6.090   3.881  10.431 -0.3486  0.4642 -0.7541
  257MOL0     O35376   6.381   3.864  10.410 -0.4781  0.1057 -0.1805
  257MOL0     C35377   6.361   3.735  10.070 -0.1085  0.5462  0.0924
  257MOL0     C35378   6.404   3.747   9.941  1.1821  0.3404  0.3304
  257MOL0     N35379   6.967   4.315   9.443  0.4892 -0.5762 -0.0105
  257MOL0     N35380   7.043   4.414   9.474 -0.4829 -0.0408  0.5079
  257MOL0     C35381   6.907   5.273   8.861  0.2974  0.7893  0.4468
  257MOL0     C35382   6.886   5.396   8.793  0.2404 -0.4386  0.0809
  257MOL0     C35383   6.664   5.723   8.545  0.1396 -0.2893 -0.3701
  257MOL0     C35384   6.790   5.785   8.556  0.0972 -0.0848 -0.0145
  257MOL0     C35385   6.811   5.903   8.497  0.0925 -0.1703  0.2381
  257MOL0     C35386   6.714   5.987   8.453 -0.6600  0.0884  0.3117
  257MOL0     O35387   6.724   6.123   8.424  0.1372  0.5916 -0.2934
  257MOL0     C35388   6.851   6.187   8.437  0.5004 -0.2375  0.0469
  257MOL0     C35389   6.837   6.337   8.435  0.4974  0.0058 -0.7445
  257MOL0     C35390   6.951   6.414   8.486 -1.1922  0.2285 -0.2656
  257MOL0     C35391   6.916   6.567   8.481  0.5281 -1.1242  0.3303
  257MOL0     C35392   6.822   6.600   8.594  0.0411  0.7463  1.3210
  257MOL0     C35393   6.749   6.619   8.687  0.3240 -0.4688  0.3466
  257MOL0     C35394   6.586   5.933   8.441  0.8447 -0.1334 -0.6862
  257MOL0     C35395   6.561   5.796   8.484  0.9014 -0.3943 -0.7709
  257MOL0     C35396   6.427   5.728   8.457 -0.2721 -0.8939  0.0095
  257MOL0     H35397   6.609   5.309   8.617  1.0939 -0.1991 -0.2207
  257MOL0     H35398   6.613   5.130   8.743 -1.7933  1.6563 -2.5055
  257MOL0     H35399   6.672   4.952   9.054 -1.6978  0.1911  2.2630
  257MOL0     H35400   6.597   5.099   8.982 -0.7797 -0.5257 -0.3293
  257MOL0     H35401   6.719   5.245   9.151 -2.5582 -0.0548  0.5629
  257MOL0     H35402   6.639   5.122   9.245 -0.8832  0.8602 -0.5162
  257MOL0     H35403   6.932   5.087   9.147 -0.9589 -2.7275  0.2175
  257MOL0     H35404   6.893   5.192   9.282  0.6669 -0.5398  1.5613
  257MOL0     H35405   6.780   4.990   9.403  2.8882  0.4540  1.1976
  257MOL0     H35406   6.771   4.895   9.251  1.5912 -2.1495  0.0490
  257MOL0     H35407   7.015   4.983   9.435  0.1168 -0.2473  0.2389
  257MOL0     H35408   7.025   4.874   9.295  1.0399 -0.0143  0.8186
  257MOL0     H35409   6.880   4.834   9.558  1.9145  1.2297 -0.1946
  257MOL0     H35410   6.863   4.726   9.412 -0.0461  1.0096 -2.4404
  257MOL0     H35411   7.125   4.796   9.566 -0.4340 -1.0790  1.2188
  257MOL0     H35412   7.115   4.694   9.422 -1.0985  4.4922 -1.2848
  257MOL0     H35413   7.127   4.597   9.677  1.3317  1.7520 -1.1863
  257MOL0     H35414   6.966   4.668   9.691  0.5492 -0.5751  2.6613
  257MOL0     H35415   6.783   4.460   9.665  1.5051 -0.2597  0.9427
  257MOL0     H35416   6.725   4.181   9.416  0.4577 -0.3761  0.6191
  257MOL0     H35417   6.637   4.286   9.520 -0.4012 -1.4444 -1.5124
  257MOL0     H35418   6.848   4.092   9.647 -0.8236 -0.0284  2.6512
  257MOL0     H35419   6.736   4.185   9.725 -1.6443  0.5395 -1.0089
  257MOL0     H35420   6.545   4.097   9.637  0.2604  0.1789  0.9129
  257MOL0     H35421   6.624   3.985   9.521 -1.1554  3.1013 -1.7162
  257MOL0     H35422   6.717   3.858   9.701 -1.3910 -1.3390  0.7913
  257MOL0     H35423   6.692   3.988   9.821 -0.8260 -2.4660  1.8607
  257MOL0     H35424   6.555   4.046   9.954 -1.0329 -0.4770 -0.8087
  257MOL0     H35425   6.544   4.145  10.171  0.3763 -0.4702 -0.6134
  257MOL0     H35426   6.557   4.016  10.302  1.7034 -0.8051 -1.4873
  257MOL0     H35427   6.396   4.101  10.254  0.1506  1.8466 -0.9340
  257MOL0     H35428   6.169   3.577  10.526  4.0783  2.2020  1.1724
  257MOL0     H35429   5.983   3.639  10.702 -2.7637  0.9240 -0.5120
  257MOL0     H35430   5.809   3.750  10.880  0.5614 -1.3928 -3.5994
  257MOL0     H35431   5.982   3.805  10.861  1.3378  6.6436  1.2141
  257MOL0     H35432   5.907   3.922  11.033 -1.7226 -0.6255  1.2360
  257MOL0     H35433   5.945   4.030  10.891  0.0493  1.0471  1.5288
  257MOL0     H35434   5.681   3.938  10.996  0.8322 -0.3533 -0.6017
  257MOL0     H35435   5.707   4.013  10.828  3.4163 -2.0815 -1.0603
  257MOL0     H35436   5.620   4.182  10.952  0.3815 -2.4275 -1.5872
  257MOL0     H35437   5.787   4.218  10.942 -1.1957  2.3184  0.3961
  257MOL0     H35438   5.687   4.272  11.167  3.0897 -0.4587  0.0328
  257MOL0     H35439   5.621   4.105  11.184 -0.0591 -0.6312  0.0712
  257MOL0     H35440   5.912   4.200  11.174  0.8133  0.1837  1.3008
  257MOL0     H35441   5.861   4.029  11.218  1.3692  0.2850 -1.0909
  257MOL0     H35442   5.738   4.119  11.394  0.2288 -0.5547 -1.3049
  257MOL0     H35443   5.798   4.273  11.373 -1.9825 -0.6227 -1.1701
  257MOL0     H35444   5.936   4.189  11.543 -0.8968 -0.9293 -0.6401
  257MOL0     H35445   6.037   4.220  11.418  0.8688 -0.0187  2.8802
  257MOL0     H35446   5.939   4.011  10.506 -1.3565 -0.5037  0.3242
  257MOL0     H35447   6.127   3.951  10.357 -0.3170  0.0178 -1.1643
  257MOL0     H35448   6.293   3.660  10.109 -2.6530  2.5521 -0.2296
  257MOL0     H35449   6.406   3.680   9.855  1.2758  1.8969 -0.9442
  257MOL0     H35450   6.978   5.250   8.940  0.8533 -4.8786 -1.2569
  257MOL0     H35451   6.953   5.477   8.818 -1.2019  0.9550 -0.4015
  257MOL0     H35452   6.866   5.760   8.629  0.0628  0.7659  0.3187
  257MOL0     H35453   6.913   5.939   8.504  0.4825  0.0568 -4.1159
  257MOL0     H35454   6.901   6.166   8.532 -0.9874 -0.7648  0.7384
  257MOL0     H35455   6.916   6.148   8.357  1.4022 -0.6081  0.9344
  257MOL0     H35456   6.751   6.352   8.500  0.7924  0.3069 -0.4190
  257MOL0     H35457   6.820   6.375   8.334  3.2075  0.7839 -1.0049
  257MOL0     H35458   6.974   6.371   8.584 -0.1077  0.5371 -0.3809
  257MOL0     H35459   7.039   6.387   8.427 -1.6218 -1.3210 -0.2454
  257MOL0     H35460   6.887   6.596   8.380  1.9222  1.4550  0.5921
  257MOL0     H35461   7.014   6.612   8.501 -1.2571  2.6312  1.5185
  257MOL0     H35462   6.694   6.637   8.777 -2.3527 -0.2845 -1.2076
  257MOL0     H35463   6.497   5.982   8.403  1.8705 -1.5982 -5.5314
  257MOL0     H35464   6.383   5.686   8.548  1.5011  1.7136  2.2487
  257MOL0     H35465   6.352   5.798   8.419  0.5488 -1.2497 -2.4570
  257MOL0     H35466   6.433   5.651   8.379  1.1341  0.1509 -0.9712
  258MOL0     O35467   8.908   3.712   6.943  0.6121 -0.6251 -0.0924
  258MOL0     C35468   8.871   3.634   7.033  0.3351  0.4729 -0.1641
  258MOL0     O35469   8.957   3.573   7.120  0.8682  0.9921 -0.4657
  258MOL0     C35470   9.093   3.586   7.105 -0.4111  0.4484  0.1164
  258MOL0     C35471   9.161   3.508   7.012 -0.7352  0.0081  0.2671
  258MOL0     C35472   9.297   3.499   7.019  0.7082 -0.5237  0.6799
  258MOL0     C35473   9.375   3.560   7.113  1.6643 -0.3516 -0.1567
  258MOL0     O35474   9.508   3.562   7.106 -0.1105 -0.2739  0.8624
  258MOL0     C35475   9.573   3.460   7.188 -0.2828  0.4707 -0.2124
  258MOL0     C35476   9.724   3.458   7.172  0.0035  0.1551 -0.6022
  258MOL0     C35477   9.779   3.419   7.029 -0.0184 -1.1009  0.1669
  258MOL0     C35478   9.938   3.418   7.016  0.7939  0.7316 -0.2057
  258MOL0     C35479   9.972   3.416   6.869 -1.1103 -0.1611 -0.0857
  258MOL0     C35480   9.943   3.564   6.808  0.3021  0.1126 -0.3705
  258MOL0     C35481   9.982   3.568   6.663  0.9242 -0.4536  0.0499
  258MOL0     C35482   9.949   3.707   6.591 -0.1566 -0.6717 -0.3156
  258MOL0     N35483  10.051   3.809   6.575 -0.7050  0.6112  0.5851
  258MOL0     C35484  10.062   3.914   6.659  0.1026 -0.9075 -1.2812
  258MOL0     C35485  10.189   3.966   6.636  0.5671 -0.1520 -0.0776
  258MOL0     C35486  10.260   4.087   6.706 -0.5489  0.0048  0.1663
  258MOL0     C35487  10.330   4.177   6.601 -0.9533 -1.4706 -0.0526
  258MOL0     C35488  10.447   4.253   6.662 -0.5910 -0.4449  0.1544
  258MOL0     C35489  10.576   4.164   6.655  0.3298  0.2106  0.5983
  258MOL0     O35490  10.678   4.207   6.747  0.1834 -0.0803 -0.5217
  258MOL0     C35491  10.643   4.190   6.878  0.0311  0.2558  0.7341
  258MOL0     C35492  10.642   4.292   6.974 -0.1354 -0.2172  0.4742
  258MOL0     C35493  10.611   4.268   7.109  1.2491 -0.0269  0.0189
  258MOL0     C35494  10.601   4.390   7.189 -0.7172 -0.2512 -0.2415
  258MOL0     C35495  10.589   4.130   7.148 -0.8240 -0.1405 -0.0500
  258MOL0     C35496  10.569   4.097   7.290  0.1267 -0.8010 -0.5857
  258MOL0     O35497  10.519   3.971   7.305 -0.4695 -0.6836  0.5596
  258MOL0     C35498  10.527   3.913   7.434  0.2357  0.6861 -0.1339
  258MOL0     C35499  10.638   3.920   7.517 -0.2866 -0.9803  0.3023
  258MOL0     C35500  10.648   3.876   7.648 -0.2186 -0.0100 -0.4017
  258MOL0     C35501  10.535   3.813   7.702  0.2436 -0.4453  0.0657
  258MOL0     O35502  10.527   3.794   7.831 -0.1408 -0.3201  0.3855
  258MOL0     C35503  10.589   3.675   7.882  0.6287  0.7170  0.5310
  258MOL0     C35504  10.502   3.627   7.997 -0.3713 -0.0089  0.2949
  258MOL0     C35505  10.550   3.677   8.137 -0.1824  0.1250  1.0401
  258MOL0     C35506  10.529   3.830   8.159  0.8156  0.4127  0.0892
  258MOL0     C35507  10.540   3.855   8.310  0.4825  0.2247 -0.8417
  258MOL0     C35508  10.691   3.842   8.353 -0.0579 -0.5717  0.6749
  258MOL0     C35509  10.727   3.933   8.470 -0.0552  0.1612 -0.4475
  258MOL0     C35510  10.875   3.919   8.516  0.0758 -0.6682  0.5363
  258MOL0    Cl35511  10.913   3.735   8.550  0.0418  0.1685 -0.4559
  258MOL0     C35512  10.426   3.788   7.620 -0.2588 -0.2972  0.3951
  258MOL0     C35513  10.420   3.844   7.489 -0.7412  0.2605  0.9040
  258MOL0     O35514  10.582   4.183   7.382  0.7386  0.4416 -0.0556
  258MOL0     C35515  10.586   4.026   7.054 -0.2617 -0.2341 -0.2874
  258MOL0     C35516  10.621   4.058   6.920  0.4088 -0.6827 -0.1557
  258MOL0     N35517  10.252   3.878   6.537  1.3969 -0.0699 -0.6886
  258MOL0     N35518  10.166   3.786   6.502 -0.0034  0.9398 -1.1135
  258MOL0     C35519   9.311   3.662   7.187  0.4801 -0.1790  0.4845
  258MOL0     C35520   9.171   3.671   7.191  0.0019 -0.1073 -0.5369
  258MOL0     C35521   8.724   3.596   7.051 -0.7242  0.2183  0.7561
  258MOL0     C35522   8.694   3.459   7.044  0.4220 -0.2955 -0.0250
  258MOL0     C35523   8.563   3.417   7.023  0.5915  0.0264 -0.5074
  258MOL0     C35524   8.458   3.511   7.028 -0.3410  0.0714  0.5204
  258MOL0     O35525   8.333   3.456   7.017 -0.1611 -0.1337 -0.4770
  258MOL0     C35526   8.290   3.454   6.882  0.0442  0.5792  0.5916
  258MOL0     C35527   8.188   3.345   6.869 -0.3778 -0.4996 -0.0035
  258MOL0     C35528   8.061   3.363   6.956 -0.6289  0.0786 -0.7051
  258MOL0     C35529   7.948   3.288   6.892  0.7486 -0.6689 -0.0040
  258MOL0     C35530   7.892   3.364   6.776  0.5361  0.2027 -0.4070
  258MOL0     C35531   7.846   3.430   6.681  0.4746 -0.2425 -0.2676
  258MOL0     C35532   8.490   3.646   7.039  0.1469 -0.4562  0.2525
  258MOL0     C35533   8.622   3.694   7.046 -0.0354  0.5186 -0.6391
  258MOL0     C35534   8.649   3.846   7.056 -0.5285  1.1243  0.8808
  258MOL0     H35535   9.113   3.449   6.934 -1.0468  0.4245  0.1354
  258MOL0     H35536   9.346   3.427   6.954  1.0147  0.3550 -0.1031
  258MOL0     H35537   9.539   3.361   7.156  0.0038  0.0330  0.8000
  258MOL0     H35538   9.535   3.460   7.291 -2.2913 -2.1805 -0.8429
  258MOL0     H35539   9.749   3.562   7.197 -2.7696  0.3235  2.1321
  258MOL0     H35540   9.765   3.386   7.244 -2.7990 -1.0645 -0.0846
  258MOL0     H35541   9.760   3.319   6.989  2.6807 -0.6359 -2.6483
  258MOL0     H35542   9.732   3.492   6.962  0.5784  0.8344  1.7645
  258MOL0     H35543   9.978   3.505   7.068 -1.3213  2.0264 -0.6208
  258MOL0     H35544   9.976   3.330   7.068 -1.1228 -0.0965 -0.0959
  258MOL0     H35545   9.911   3.343   6.815 -0.0493 -0.2680 -1.1694
  258MOL0     H35546  10.074   3.381   6.849 -1.7124 -1.2197 -1.4608
  258MOL0     H35547   9.841   3.598   6.830  0.6522 -0.4640  2.5052
  258MOL0     H35548  10.009   3.630   6.866 -1.7537  0.9276  1.1828
  258MOL0     H35549   9.911   3.492   6.631  1.8038 -2.5790  2.6908
  258MOL0     H35550  10.081   3.525   6.644  0.8297  0.3352 -2.5976
  258MOL0     H35551   9.907   3.696   6.491 -1.5148  1.3515 -0.0378
  258MOL0     H35552   9.859   3.747   6.641 -2.4323 -2.7173 -2.4826
  258MOL0     H35553   9.999   3.940   6.743  2.4519 -0.4557  0.4359
  258MOL0     H35554  10.330   4.050   6.782  1.0933  2.9004  0.2135
  258MOL0     H35555  10.198   4.157   6.762 -2.3434 -1.0405 -0.4232
  258MOL0     H35556  10.365   4.128   6.510  4.0470  0.4727  0.5308
  258MOL0     H35557  10.254   4.249   6.570  1.8359  2.5284  1.5913
  258MOL0     H35558  10.474   4.347   6.613 -0.1106  0.0009  1.2216
  258MOL0     H35559  10.427   4.282   6.766  2.7176  3.8662 -0.1251
  258MOL0     H35560  10.537   4.064   6.677 -1.0917  1.0013  1.9284
  258MOL0     H35561  10.616   4.161   6.554  0.1630  1.2643  0.4874
  258MOL0     H35562  10.671   4.387   6.930 -3.4810  1.7692  2.1247
  258MOL0     H35563  10.555   4.473   7.133 -0.3902  0.6294  0.7761
  258MOL0     H35564  10.701   4.424   7.217 -0.4744 -0.8744 -0.3332
  258MOL0     H35565  10.548   4.385   7.284  2.7723  0.3302  1.8891
  258MOL0     H35566  10.727   3.960   7.469 -1.3836 -2.1480 -2.9965
  258MOL0     H35567  10.741   3.904   7.696  0.9158 -1.0144 -1.9167
  258MOL0     H35568  10.604   3.594   7.810  2.4343  0.9537  0.5865
  258MOL0     H35569  10.691   3.701   7.912  0.7778  2.4529 -1.2672
  258MOL0     H35570  10.402   3.668   7.978 -0.0505 -0.0901 -1.8330
  258MOL0     H35571  10.506   3.517   8.004  1.4586 -0.1236 -1.5285
  258MOL0     H35572  10.652   3.647   8.162 -0.5500 -3.2758 -0.8642
  258MOL0     H35573  10.477   3.623   8.198  0.5506 -1.6336  0.4442
  258MOL0     H35574  10.430   3.854   8.120  0.1643  0.8968  1.9455
  258MOL0     H35575  10.611   3.882   8.109  1.0647  1.6356  1.6765
  258MOL0     H35576  10.499   3.953   8.332 -1.6590 -0.2052 -2.5512
  258MOL0     H35577  10.478   3.779   8.359 -1.0240  1.7194 -0.3489
  258MOL0     H35578  10.758   3.871   8.272 -1.5858 -0.3317 -0.5365
  258MOL0     H35579  10.720   3.738   8.371  1.0191 -0.6309 -1.1905
  258MOL0     H35580  10.674   3.901   8.561 -1.0884  3.7090  0.3907
  258MOL0     H35581  10.689   4.034   8.449 -1.9974 -0.2167  0.9362
  258MOL0     H35582  10.902   3.980   8.603 -0.6159  1.3377 -0.5880
  258MOL0     H35583  10.946   3.953   8.439 -1.9333 -2.2030 -2.1923
  258MOL0     H35584  10.343   3.732   7.661  0.7696 -2.2605 -0.0839
  258MOL0     H35585  10.334   3.824   7.427  0.3969  0.7684 -0.9135
  258MOL0     H35586  10.562   3.924   7.081 -0.7096  0.3315  1.5986
  258MOL0     H35587  10.638   3.980   6.846  0.2943 -0.8321 -0.0272
  258MOL0     H35588   9.376   3.734   7.234 -0.2266  2.3703 -2.1475
  258MOL0     H35589   9.122   3.733   7.265  2.8178  0.2426  1.1939
  258MOL0     H35590   8.769   3.381   7.044 -0.9703 -1.6975  0.2669
  258MOL0     H35591   8.540   3.311   7.017 -3.7813  0.7699 -0.6006
  258MOL0     H35592   8.252   3.550   6.846 -2.8294 -1.0122 -0.9822
  258MOL0     H35593   8.375   3.425   6.820 -1.7570 -0.7821 -1.3868
  258MOL0     H35594   8.233   3.248   6.889  2.1626  0.3650 -0.9991
  258MOL0     H35595   8.151   3.346   6.766  2.0631 -2.0561 -0.9967
  258MOL0     H35596   8.083   3.318   7.054 -0.1174 -3.3694 -2.2465
  258MOL0     H35597   8.038   3.469   6.967 -0.9519 -0.2729  4.8099
  258MOL0     H35598   7.867   3.286   6.966  1.3467 -1.7858  0.6557
  258MOL0     H35599   7.979   3.187   6.864  0.5800  0.0830 -3.2540
  258MOL0     H35600   7.799   3.475   6.595 -0.5309 -2.3872 -0.9177
  258MOL0     H35601   8.410   3.719   7.033  1.4799  0.9090 -2.1801
  258MOL0     H35602   8.571   3.900   7.110  0.4195  1.3547  2.0561
  258MOL0     H35603   8.738   3.870   7.115  1.1274 -0.0443 -1.0135
  258MOL0     H35604   8.667   3.875   6.952 -2.2204 -0.2702  0.1352
  259MOL0     O35605   5.654   4.936   4.882 -0.8759  0.0794 -0.0290
  259MOL0     C35606   5.734   4.958   4.973  0.0390 -0.0129  0.3057
  259MOL0     O35607   5.853   5.027   4.959  0.4260 -0.2984 -0.1617
  259MOL0     C35608   5.888   5.036   4.821  1.2916 -0.0063 -1.2133
  259MOL0     C35609   5.966   4.944   4.754  0.5315 -0.4719  0.5525
  259MOL0     C35610   5.999   4.952   4.617 -0.3405  0.3827 -0.0217
  259MOL0     C35611   5.973   5.073   4.549 -0.1798 -0.0464  0.4802
  259MOL0     O35612   6.016   5.104   4.421  0.5195  0.4861 -0.4299
  259MOL0     C35613   5.895   5.095   4.332  0.1345  0.3440 -0.2276
  259MOL0     C35614   5.941   5.057   4.194  0.1009 -0.2032 -0.7335
  259MOL0     C35615   6.020   5.177   4.123 -0.0755  0.0664  0.1985
  259MOL0     C35616   6.051   5.141   3.976 -0.5144  0.6262  0.3878
  259MOL0     C35617   6.118   5.253   3.890  0.2276  0.2953 -0.2935
  259MOL0     C35618   6.157   5.191   3.753  0.5178  0.7303 -0.5018
  259MOL0     C35619   6.228   5.298   3.661  0.9917 -0.8032  0.5823
  259MOL0     C35620   6.278   5.228   3.525 -0.5228 -0.3844 -0.4747
  259MOL0     N35621   6.404   5.278   3.476 -0.9640 -0.6329  0.5044
  259MOL0     C35622   6.526   5.207   3.495  0.0801 -0.2576 -0.1225
  259MOL0     C35623   6.608   5.266   3.391  1.2990  0.3286 -0.6327
  259MOL0     C35624   6.750   5.240   3.366  0.1315 -0.2033  0.3619
  259MOL0     C35625   6.819   5.372   3.371  0.0821 -0.3272 -1.3552
  259MOL0     C35626   6.862   5.427   3.515 -0.5812  0.0320  0.1984
  259MOL0     C35627   6.762   5.412   3.629 -0.6710 -0.6420  0.0301
  259MOL0     O35628   6.813   5.490   3.739  0.1355 -0.6266  1.0269
  259MOL0     C35629   6.732   5.583   3.804 -1.6253  0.7544  0.1452
  259MOL0     C35630   6.800   5.690   3.867  0.2034  0.5189 -0.5001
  259MOL0     C35631   6.735   5.785   3.943  0.3543  0.1274 -0.4548
  259MOL0     C35632   6.826   5.887   4.002 -0.5517  0.3627 -0.9603
  259MOL0     C35633   6.587   5.791   3.950  0.2013  0.4423 -0.4731
  259MOL0     C35634   6.505   5.891   4.030  0.3361  0.1317  0.0545
  259MOL0     O35635   6.575   5.998   4.062  0.3134 -0.3779 -0.0498
  259MOL0     C35636   6.529   6.099   4.151 -0.0650  0.6487  0.4315
  259MOL0     C35637   6.557   6.230   4.128 -1.1266 -0.4537 -0.3369
  259MOL0     C35638   6.519   6.334   4.205 -0.0726  0.0727  0.6687
  259MOL0     C35639   6.439   6.304   4.315  0.3800  0.5341  0.6281
  259MOL0     O35640   6.415   6.406   4.402  0.7180 -1.2186  0.7577
  259MOL0     C35641   6.281   6.410   4.467  0.8847  0.7985  0.7260
  259MOL0     C35642   6.265   6.551   4.526  0.1708 -0.3271 -0.2566
  259MOL0     C35643   6.342   6.580   4.660  1.2703  0.1622 -0.6420
  259MOL0     C35644   6.492   6.573   4.642 -0.1455 -0.3851  0.6870
  259MOL0     C35645   6.560   6.650   4.760  0.4265 -0.2777  0.0884
  259MOL0     C35646   6.716   6.631   4.765 -0.5387  0.4055  0.3003
  259MOL0     C35647   6.797   6.735   4.687 -0.1199 -0.4901 -0.3570
  259MOL0     C35648   6.757   6.736   4.537 -0.4783  0.0053  1.0948
  259MOL0    Cl35649   6.882   6.802   4.434  0.2564 -0.0413  0.5033
  259MOL0     C35650   6.403   6.167   4.345 -0.0681  0.0476 -0.9533
  259MOL0     C35651   6.447   6.069   4.263  0.5505  0.5556 -0.1082
  259MOL0     O35652   6.383   5.866   4.049 -1.3583 -0.6901  0.1088
  259MOL0     C35653   6.518   5.676   3.899 -0.5024  0.6982 -0.1553
  259MOL0     C35654   6.594   5.580   3.823 -0.7991  1.6562  0.5980
  259MOL0     N35655   6.524   5.339   3.310  0.1718 -0.4421 -0.0925
  259MOL0     N35656   6.411   5.359   3.366  0.9114  0.3177  0.2539
  259MOL0     C35657   5.891   5.174   4.609 -0.3181  0.1188 -0.0387
  259MOL0     C35658   5.847   5.152   4.747 -0.2949  0.6395  0.2839
  259MOL0     C35659   5.719   4.908   5.110  0.1683 -0.9275 -0.1188
  259MOL0     C35660   5.808   4.956   5.208  0.2178 -1.0512  0.0307
  259MOL0     C35661   5.810   4.899   5.331 -0.7157 -0.4209 -0.1441
  259MOL0     C35662   5.716   4.794   5.366 -0.4106  1.0316 -0.0748
  259MOL0     O35663   5.712   4.735   5.497  1.1804  0.3937  0.9299
  259MOL0     C35664   5.824   4.756   5.576 -1.1934  0.8115  0.8922
  259MOL0     C35665   5.858   4.628   5.661  0.3545  0.1393  0.8140
  259MOL0     C35666   5.990   4.614   5.738  0.7720  0.0209  0.6287
  259MOL0     C35667   5.976   4.696   5.863  0.7043  0.4479  0.1125
  259MOL0     C35668   6.009   4.836   5.848 -0.2391 -0.9129 -0.7544
  259MOL0     C35669   6.031   4.959   5.844 -0.0730 -0.3672 -0.2219
  259MOL0     C35670   5.628   4.752   5.273 -0.5199  0.3741  0.2440
  259MOL0     C35671   5.628   4.797   5.141  0.2485  0.0605 -0.6556
  259MOL0     C35672   5.523   4.740   5.040  0.1508  0.1894  1.0118
  259MOL0     H35673   5.998   4.850   4.798 -0.5386 -0.5534  1.2097
  259MOL0     H35674   6.058   4.877   4.566 -1.2518  1.1727 -2.3468
  259MOL0     H35675   5.840   5.189   4.334  1.4560  1.1541 -0.7225
  259MOL0     H35676   5.834   5.012   4.369 -1.3827  0.5347 -2.1703
  259MOL0     H35677   5.998   4.964   4.195 -3.0727 -2.3656 -3.0827
  259MOL0     H35678   5.853   5.039   4.131  0.5856  1.2871 -1.8951
  259MOL0     H35679   5.954   5.262   4.142 -2.6232 -1.4385 -1.4077
  259MOL0     H35680   6.120   5.177   4.167 -0.1397  1.8648  0.3930
  259MOL0     H35681   6.109   5.050   3.996 -3.7628 -1.4136  1.3224
  259MOL0     H35682   5.957   5.106   3.931  1.0478 -2.4941 -0.7952
  259MOL0     H35683   6.204   5.299   3.940  1.2989 -0.7798 -1.0860
  259MOL0     H35684   6.041   5.330   3.883 -0.9187 -0.5546  1.8431
  259MOL0     H35685   6.219   5.102   3.766 -3.5656 -2.3475 -0.1224
  259MOL0     H35686   6.072   5.147   3.700  0.6483 -1.0024  0.6414
  259MOL0     H35687   6.310   5.342   3.718 -1.1092  3.0739  0.9451
  259MOL0     H35688   6.156   5.378   3.643  3.4959  2.8454  4.7184
  259MOL0     H35689   6.277   5.120   3.539 -0.7766 -0.4524 -1.0016
  259MOL0     H35690   6.213   5.233   3.437  0.9025 -1.1748 -1.6118
  259MOL0     H35691   6.554   5.135   3.571  1.8104  1.9315  1.4385
  259MOL0     H35692   6.753   5.190   3.268 -3.7783 -1.1234  0.5506
  259MOL0     H35693   6.787   5.170   3.442  0.8671 -1.9073 -1.4764
  259MOL0     H35694   6.904   5.367   3.302 -1.3770  0.4584 -3.3212
  259MOL0     H35695   6.747   5.447   3.336  0.7481  1.6698  1.1880
  259MOL0     H35696   6.952   5.376   3.550 -0.4870 -0.8953 -1.3394
  259MOL0     H35697   6.894   5.531   3.507  3.0017 -0.9934 -0.6699
  259MOL0     H35698   6.664   5.440   3.589 -0.5111 -3.7060 -3.0229
  259MOL0     H35699   6.751   5.308   3.661  0.8719 -0.4943  1.1762
  259MOL0     H35700   6.908   5.697   3.871  0.2277  1.5346 -2.0423
  259MOL0     H35701   6.822   5.985   3.953  1.1834  2.1366  2.1387
  259MOL0     H35702   6.930   5.852   3.998  0.4287  2.9924 -0.7272
  259MOL0     H35703   6.810   5.899   4.109  3.8738 -1.2032  0.1011
  259MOL0     H35704   6.598   6.251   4.030 -3.7905  3.0116 -0.8785
  259MOL0     H35705   6.555   6.435   4.186 -0.5802 -0.1979 -2.2225
  259MOL0     H35706   6.204   6.379   4.395  1.0652  1.2600  0.3326
  259MOL0     H35707   6.281   6.336   4.547  0.2812  1.0342  0.9488
  259MOL0     H35708   6.303   6.628   4.458 -0.4634 -2.1238 -2.7844
  259MOL0     H35709   6.159   6.573   4.543 -0.1028 -1.2471 -0.7355
  259MOL0     H35710   6.303   6.505   4.729 -0.9536  1.1653 -0.7055
  259MOL0     H35711   6.308   6.678   4.693 -1.5875 -1.7128  2.6032
  259MOL0     H35712   6.524   6.622   4.550  1.1831 -1.0800  0.7429
  259MOL0     H35713   6.536   6.473   4.638 -2.1903 -1.4461  2.5153
  259MOL0     H35714   6.544   6.755   4.738  1.1886 -0.4304 -1.3278
  259MOL0     H35715   6.512   6.631   4.856  1.2171  1.9789  0.9869
  259MOL0     H35716   6.733   6.532   4.723 -1.1371  1.0863 -1.6325
  259MOL0     H35717   6.738   6.634   4.872 -0.7259 -1.0056  0.3895
  259MOL0     H35718   6.900   6.701   4.704  0.5005  1.9901  1.4400
  259MOL0     H35719   6.777   6.836   4.725 -0.0782 -0.6184  0.0090
  259MOL0     H35720   6.667   6.792   4.508 -1.1617 -1.8933 -0.7199
  259MOL0     H35721   6.741   6.633   4.502  1.1585 -1.1642  3.5281
  259MOL0     H35722   6.345   6.137   4.431 -1.8534  0.3450 -2.0035
  259MOL0     H35723   6.402   5.972   4.280  0.2142  0.8358  0.6421
  259MOL0     H35724   6.414   5.655   3.919 -0.2616 -0.5589 -0.1391
  259MOL0     H35725   6.537   5.512   3.761  2.2921 -0.0511 -0.5942
  259MOL0     H35726   5.862   5.267   4.562  1.0819  0.1312 -0.9364
  259MOL0     H35727   5.776   5.230   4.776 -0.9637  0.0005  0.4081
  259MOL0     H35728   5.875   5.040   5.195 -2.5855  1.2362 -0.8981
  259MOL0     H35729   5.876   4.955   5.396 -0.0047  1.3590 -2.2877
  259MOL0     H35730   5.917   4.785   5.526 -0.1370  1.9960  3.3289
  259MOL0     H35731   5.794   4.839   5.641 -4.3573 -1.8210  3.1512
  259MOL0     H35732   5.857   4.537   5.599  2.3236 -0.0457  1.0009
  259MOL0     H35733   5.774   4.605   5.728 -1.0173 -1.2558 -1.2795
  259MOL0     H35734   6.010   4.511   5.770 -1.9684  1.0474  7.4337
  259MOL0     H35735   6.074   4.650   5.678 -1.4305  0.4790 -2.4491
  259MOL0     H35736   6.035   4.643   5.937  1.9217 -0.9653 -1.7756
  259MOL0     H35737   5.871   4.695   5.893  0.4568 -3.3001 -0.5100
  259MOL0     H35738   6.046   5.065   5.839 -1.6322  0.2447  4.2554
  259MOL0     H35739   5.559   4.675   5.307  0.1322  0.2702  1.3681
  259MOL0     H35740   5.453   4.816   5.003  1.0643  1.2990  1.5318
  259MOL0     H35741   5.563   4.707   4.943 -2.1014  1.3964 -0.4303
  259MOL0     H35742   5.456   4.666   5.085 -1.6188  1.3075  0.3170
  260MOL0     O35743   5.490   0.168   2.963  0.0410  0.4007  0.6562
  260MOL0     C35744   5.484   0.198   3.078  0.6313  1.6038 -0.6177
  260MOL0     O35745   5.585   0.180   3.159 -0.3676 -0.1779  0.4812
  260MOL0     C35746   5.700   0.120   3.111 -0.0360  1.5024 -1.1357
  260MOL0     C35747   5.807   0.194   3.079 -0.1127  0.0358  0.4761
  260MOL0     C35748   5.933   0.142   3.060 -0.2334  0.2237  0.0303
  260MOL0     C35749   5.941  -0.000   3.052  1.2124  0.0221 -0.4089
  260MOL0     O35750   6.055  -0.058   3.020 -0.0124 -0.8180  0.3763
  260MOL0     C35751   6.164  -0.009   3.104 -0.0108 -0.8324  0.4879
  260MOL0     C35752   6.130   0.000   3.253 -0.0104  0.3299 -0.5495
  260MOL0     C35753   6.270  -0.019   3.329  0.6501 -1.3196  0.2189
  260MOL0     C35754   6.362   0.107   3.327  1.0054  0.1600 -0.5127
  260MOL0     C35755   6.509   0.077   3.318  0.0054  0.0722 -0.1917
  260MOL0     C35756   6.612   0.202   3.303 -0.9979  0.0337  0.7184
  260MOL0     C35757   6.590   0.265   3.160 -0.4603 -0.0338  0.5990
  260MOL0     C35758   6.710   0.367   3.143  1.0803  0.0787 -0.2171
  260MOL0     N35759   6.726   0.386   3.003 -1.6619 -0.0848  0.6844
  260MOL0     C35760   6.656   0.481   2.938 -0.8229  0.1987  0.1234
  260MOL0     C35761   6.646   0.433   2.805  1.1078  0.4567  0.2996
  260MOL0     C35762   6.599   0.528   2.699  0.7253  0.1870 -0.4141
  260MOL0     C35763   6.571   0.457   2.567  0.5012 -0.5059 -0.0510
  260MOL0     C35764   6.439   0.388   2.565 -0.1165 -0.7935  0.0485
  260MOL0     C35765   6.443   0.252   2.488 -0.0755 -0.6459 -0.6880
  260MOL0     O35766   6.304   0.200   2.477  0.3712  0.2031  0.2760
  260MOL0     C35767   6.248   0.176   2.354 -0.6870 -0.2543  0.6637
  260MOL0     C35768   6.106   0.208   2.348 -0.1762 -0.7492 -0.2306
  260MOL0     C35769   6.040   0.177   2.227  0.4959 -0.6641  0.4743
  260MOL0     C35770   5.893   0.205   2.215 -0.3379  0.3902  0.0906
  260MOL0     C35771   6.117   0.130   2.116  0.0646 -0.4983  0.5451
  260MOL0     C35772   6.066   0.124   1.982  0.4159  0.0040  0.6887
  260MOL0     O35773   6.001   0.242   1.933 -0.6440 -0.1935  0.2839
  260MOL0     C35774   5.944   0.234   1.811 -0.1840  0.8809 -1.0081
  260MOL0     C35775   6.026   0.272   1.693 -0.3312  0.4128 -0.4208
  260MOL0     C35776   5.960   0.293   1.568 -0.2068  0.3751  0.2936
  260MOL0     C35777   5.831   0.263   1.550 -0.0090  0.7076  0.3954
  260MOL0     O35778   5.763   0.307   1.435  0.1475  0.5801 -0.3994
  260MOL0     C35779   5.622   0.281   1.413 -0.0594 -0.5418  0.0399
  260MOL0     C35780   5.563   0.355   1.283 -0.0957 -0.1512 -0.2153
  260MOL0     C35781   5.406   0.377   1.276 -0.5956 -0.0960 -0.7275
  260MOL0     C35782   5.324   0.261   1.213  0.4404  0.6585  0.5972
  260MOL0     C35783   5.174   0.292   1.217  0.6580  0.3393  0.3186
  260MOL0     C35784   5.096   0.200   1.121 -0.3637 -0.0634 -0.0090
  260MOL0     C35785   4.945   0.244   1.103  0.2982  0.1879 -0.2713
  260MOL0     C35786   4.862   0.163   1.006 -0.0545 -0.5258  0.2338
  260MOL0    Cl35787   4.899   0.217   0.845 -0.1603  0.5211  0.1169
  260MOL0     C35788   5.757   0.207   1.657 -0.1282 -0.1102 -0.1527
  260MOL0     C35789   5.810   0.200   1.787 -0.7401  0.1781  0.0170
  260MOL0     O35790   6.095   0.018   1.913  0.0387 -0.5387 -0.1601
  260MOL0     C35791   6.256   0.099   2.130  0.2477 -0.1197 -1.0917
  260MOL0     C35792   6.322   0.111   2.252 -0.4461 -0.1462  0.7582
  260MOL0     N35793   6.707   0.308   2.799  0.2896  0.7615  0.3239
  260MOL0     N35794   6.760   0.286   2.910  0.5567  1.0687  0.0692
  260MOL0     C35795   5.828  -0.074   3.069  0.5444  0.4294 -0.2669
  260MOL0     C35796   5.705  -0.018   3.109 -0.5429  0.1089 -0.2067
  260MOL0     C35797   5.362   0.273   3.129  0.1584 -0.2391  1.0402
  260MOL0     C35798   5.371   0.332   3.255 -0.3534  0.6645 -0.2856
  260MOL0     C35799   5.278   0.428   3.300 -0.4501  0.5833 -0.3298
  260MOL0     C35800   5.167   0.450   3.220 -0.6395 -0.2359  0.3531
  260MOL0     O35801   5.065   0.525   3.272 -0.3263 -0.0468 -0.7749
  260MOL0     C35802   5.086   0.660   3.230 -0.4753 -0.2626  0.4982
  260MOL0     C35803   5.196   0.741   3.304  0.4991  0.1901  0.2843
  260MOL0     C35804   5.159   0.894   3.299  0.2181  0.1668  0.0496
  260MOL0     C35805   5.089   0.953   3.416  0.1561 -0.3167 -0.2035
  260MOL0     C35806   5.155   0.945   3.543  0.0741  0.6307  0.2808
  260MOL0     C35807   5.205   0.938   3.651 -0.5093  0.3054 -0.2410
  260MOL0     C35808   5.152   0.386   3.093 -0.1730 -0.9226  1.1624
  260MOL0     C35809   5.247   0.296   3.041 -0.7399  0.1555  0.4112
  260MOL0     C35810   5.212   0.227   2.904 -0.1140 -0.0728  0.1338
  260MOL0     H35811   5.788   0.300   3.093  0.9100  0.1144  1.4594
  260MOL0     H35812   6.008   0.219   3.049 -1.9718  2.0498  0.2987
  260MOL0     H35813   6.197   0.082   3.055  1.5849  1.1598  4.7784
  260MOL0     H35814   6.247  -0.078   3.085 -0.6242 -0.9747 -2.0476
  260MOL0     H35815   6.088   0.099   3.273  0.3073  0.7502 -1.8546
  260MOL0     H35816   6.060  -0.076   3.288  3.2042 -2.1944  0.9934
  260MOL0     H35817   6.257  -0.059   3.430 -0.5992  2.2554  1.6418
  260MOL0     H35818   6.327  -0.096   3.276  3.8330 -0.3062  1.9132
  260MOL0     H35819   6.347   0.162   3.233 -0.8987 -1.3835 -1.1782
  260MOL0     H35820   6.362   0.168   3.417  2.3301 -0.0946 -0.3252
  260MOL0     H35821   6.523   0.010   3.232 -2.8749  0.4670 -1.0849
  260MOL0     H35822   6.542   0.022   3.406  0.2646 -2.5400 -1.8040
  260MOL0     H35823   6.609   0.270   3.389  0.2584 -1.0499  1.6625
  260MOL0     H35824   6.715   0.166   3.307 -1.2330 -1.0690 -1.5691
  260MOL0     H35825   6.496   0.321   3.158  1.1047  2.8017  1.9223
  260MOL0     H35826   6.593   0.191   3.079 -1.0340  1.2541 -0.6345
  260MOL0     H35827   6.694   0.451   3.211 -4.1304 -1.6950  1.2454
  260MOL0     H35828   6.805   0.326   3.179  0.5714 -0.3519  0.6599
  260MOL0     H35829   6.628   0.578   2.978 -3.0410  1.3473 -3.7281
  260MOL0     H35830   6.691   0.587   2.693  2.3211 -2.1110  0.2007
  260MOL0     H35831   6.511   0.580   2.737  0.0007  1.2107 -3.2613
  260MOL0     H35832   6.594   0.532   2.491 -0.1660  0.4410  0.6646
  260MOL0     H35833   6.655   0.387   2.560  0.7538 -0.2517  0.4092
  260MOL0     H35834   6.405   0.365   2.667 -0.1905  0.6325  0.3599
  260MOL0     H35835   6.372   0.466   2.527  2.5355  1.8080  0.3390
  260MOL0     H35836   6.494   0.245   2.391  2.1972 -1.8459  0.5211
  260MOL0     H35837   6.505   0.189   2.552 -0.1028 -1.5584 -1.5356
  260MOL0     H35838   6.051   0.254   2.429 -1.2917 -2.2411 -0.1034
  260MOL0     H35839   5.820   0.177   2.291 -1.9430  0.7499 -1.2679
  260MOL0     H35840   5.848   0.141   2.139 -2.1472 -0.4519  1.7637
  260MOL0     H35841   5.866   0.310   2.201  0.1104  0.4543 -0.3400
  260MOL0     H35842   6.134   0.281   1.703 -0.1731 -2.2558  1.1575
  260MOL0     H35843   6.022   0.336   1.490  0.0393  0.3363  0.4679
  260MOL0     H35844   5.601   0.173   1.409  2.0333 -1.1218  2.3546
  260MOL0     H35845   5.558   0.314   1.495 -2.6972 -0.1540 -2.0321
  260MOL0     H35846   5.606   0.454   1.298  3.9276 -2.1587  3.7659
  260MOL0     H35847   5.593   0.307   1.190  2.0573 -1.7963  1.2397
  260MOL0     H35848   5.384   0.465   1.214  1.9219  0.9867 -0.2479
  260MOL0     H35849   5.374   0.401   1.378  0.1029 -2.5053  0.1208
  260MOL0     H35850   5.327   0.173   1.278 -0.1840 -0.8456 -1.3281
  260MOL0     H35851   5.359   0.236   1.112  0.8651 -0.2391  0.9587
  260MOL0     H35852   5.123   0.292   1.314 -1.9272  3.8204 -0.8519
  260MOL0     H35853   5.167   0.390   1.169  2.3701 -0.2905 -1.3440
  260MOL0     H35854   5.094   0.092   1.138  0.3683 -0.0562  0.1568
  260MOL0     H35855   5.145   0.209   1.023 -0.4800  0.5306 -0.0131
  260MOL0     H35856   4.929   0.346   1.068 -2.3721 -0.0843 -0.0257
  260MOL0     H35857   4.903   0.225   1.202 -2.3693 -1.2144 -1.5484
  260MOL0     H35858   4.755   0.173   1.026 -0.0453  0.8549 -0.2342
  260MOL0     H35859   4.882   0.056   1.013  0.0631 -0.5062  0.2080
  260MOL0     H35860   5.651   0.185   1.644 -0.4631  0.0447  1.9112
  260MOL0     H35861   5.752   0.162   1.871 -0.1098 -0.7041  0.0593
  260MOL0     H35862   6.317   0.058   2.050  1.4546 -2.4161  0.8542
  260MOL0     H35863   6.421   0.068   2.266 -1.2312 -2.1027  0.6580
  260MOL0     H35864   5.849  -0.180   3.063  0.7369  0.3191  1.7213
  260MOL0     H35865   5.629  -0.086   3.145 -0.0692 -0.4616 -0.2650
  260MOL0     H35866   5.461   0.318   3.315 -1.7004  0.0006  1.6580
  260MOL0     H35867   5.288   0.479   3.395 -1.5345  4.7782 -2.2453
  260MOL0     H35868   5.106   0.670   3.123  2.5105  0.9475  1.0784
  260MOL0     H35869   5.000   0.721   3.259 -0.8118 -0.7434  0.5243
  260MOL0     H35870   5.293   0.727   3.256  0.8803 -1.0669  1.3473
  260MOL0     H35871   5.207   0.699   3.405 -2.8649 -2.9017 -0.4269
  260MOL0     H35872   5.249   0.955   3.282  0.1642  0.0265 -0.7567
  260MOL0     H35873   5.101   0.894   3.207  3.4145 -0.3735 -2.1036
  260MOL0     H35874   4.996   0.896   3.420 -1.1282  1.7416  1.5715
  260MOL0     H35875   5.055   1.054   3.392  0.5209 -0.3480 -0.8987
  260MOL0     H35876   5.238   0.913   3.750 -2.5714  1.7082  0.8697
  260MOL0     H35877   5.057   0.407   3.044  0.2763 -0.7795  0.3350
  260MOL0     H35878   5.106   0.205   2.891 -0.1613  0.1148  0.1929
  260MOL0     H35879   5.240   0.292   2.821 -2.3967 -0.6894 -1.2011
  260MOL0     H35880   5.268   0.133   2.909  1.1605  0.6176 -0.5788
  261MOL0     O35881   2.736   4.864   1.953 -0.0314 -0.4136 -0.4184
  261MOL0     C35882   2.781   4.759   1.980 -0.5636  0.3146  1.4768
  261MOL0     O35883   2.809   4.712   2.109 -0.2534  0.4471 -0.2337
  261MOL0     C35884   2.733   4.775   2.205  0.8216  0.1019  0.6962
  261MOL0     C35885   2.804   4.832   2.310  0.4490 -0.3084 -0.9042
  261MOL0     C35886   2.740   4.907   2.407 -0.1811 -0.7026 -0.0971
  261MOL0     C35887   2.600   4.918   2.401 -0.6461 -0.8034 -0.1716
  261MOL0     O35888   2.555   4.996   2.498 -0.2745  0.6085 -0.0317
  261MOL0     C35889   2.414   5.032   2.502 -0.3187 -0.2919 -0.1859
  261MOL0     C35890   2.399   5.109   2.637  0.1617 -0.1624 -0.0125
  261MOL0     C35891   2.502   5.099   2.744  0.4258 -0.2859 -0.6057
  261MOL0     C35892   2.504   4.959   2.806  0.1194  0.7093 -0.8106
  261MOL0     C35893   2.560   4.940   2.947 -0.5797  0.2685 -0.1584
  261MOL0     C35894   2.707   4.979   2.962  0.1830 -0.0541 -0.2054
  261MOL0     C35895   2.790   4.876   2.880 -0.8779  0.1471 -0.6829
  261MOL0     C35896   2.934   4.866   2.932 -0.2065  0.1133 -0.0285
  261MOL0     N35897   3.012   4.981   2.924 -0.4439  0.2682  0.6129
  261MOL0     C35898   3.064   5.032   2.815  0.3418 -0.4368 -0.8741
  261MOL0     C35899   3.119   5.149   2.853  0.0390 -0.0978  0.4005
  261MOL0     C35900   3.214   5.233   2.766  0.1890  0.1238  0.7464
  261MOL0     C35901   3.328   5.147   2.712 -0.4616 -0.2536  0.1894
  261MOL0     C35902   3.418   5.233   2.629 -0.0452  0.9807 -0.7472
  261MOL0     C35903   3.523   5.147   2.558 -0.1193  0.4462  0.9532
  261MOL0     O35904   3.613   5.094   2.660 -1.0322  0.5579  1.1443
  261MOL0     C35905   3.712   5.014   2.615  0.0381 -0.9740  1.0732
  261MOL0     C35906   3.728   4.978   2.477 -0.0756  0.1455 -0.4596
  261MOL0     C35907   3.835   4.906   2.430  0.0321 -0.2894  0.0386
  261MOL0     C35908   3.850   4.871   2.282 -0.3798 -0.6218  0.0751
  261MOL0     C35909   3.930   4.866   2.531  0.7962 -0.0528 -0.4168
  261MOL0     C35910   4.056   4.803   2.506 -0.7152 -0.4999 -0.7455
  261MOL0     O35911   4.110   4.808   2.382  0.1586  0.6038 -0.7429
  261MOL0     C35912   4.194   4.714   2.335  0.4530 -0.1881  0.7398
  261MOL0     C35913   4.252   4.752   2.215 -0.6103  0.0538  0.4183
  261MOL0     C35914   4.351   4.685   2.152 -0.3582  0.2849  0.5380
  261MOL0     C35915   4.392   4.558   2.200  0.0699 -0.6819  0.3019
  261MOL0     O35916   4.479   4.469   2.141  0.8582 -0.2712 -0.6604
  261MOL0     C35917   4.582   4.524   2.068  0.4196 -0.6098  1.9233
  261MOL0     C35918   4.693   4.423   2.084  0.3846 -0.4272  0.2832
  261MOL0     C35919   4.775   4.436   2.207  1.1533  0.3277  0.8724
  261MOL0     C35920   4.705   4.372   2.324 -0.3079 -0.2436  0.1416
  261MOL0     C35921   4.802   4.321   2.434 -0.3834 -0.5621  0.3691
  261MOL0     C35922   4.911   4.421   2.490  0.4416  0.6400  0.0093
  261MOL0     C35923   4.847   4.520   2.581 -0.3001 -0.2357  0.2080
  261MOL0     C35924   4.946   4.554   2.692 -0.0531 -0.3062 -0.8573
  261MOL0    Cl35925   4.871   4.671   2.809  0.3327  0.3145 -0.2208
  261MOL0     C35926   4.345   4.527   2.322  0.9890  0.4732 -0.1118
  261MOL0     C35927   4.252   4.602   2.396 -0.3665 -0.1807  0.4792
  261MOL0     O35928   4.105   4.741   2.605  0.1366 -0.3346 -0.0730
  261MOL0     C35929   3.911   4.903   2.667  0.0759 -0.5032 -0.0398
  261MOL0     C35930   3.801   4.976   2.710  0.0270  1.0624  0.1678
  261MOL0     N35931   3.122   5.154   2.992  0.2135  0.4843  0.5846
  261MOL0     N35932   3.054   5.049   3.031 -0.3173 -0.1675  0.4638
  261MOL0     C35933   2.522   4.862   2.292  0.3350  0.4952 -0.5078
  261MOL0     C35934   2.598   4.793   2.188  0.2001 -0.6579  0.6580
  261MOL0     C35935   2.859   4.688   1.874  1.1464  0.1717 -0.2902
  261MOL0     C35936   2.967   4.608   1.909 -0.4279  0.6737  0.2861
  261MOL0     C35937   3.020   4.532   1.813 -0.3377 -0.4713  0.7109
  261MOL0     C35938   2.978   4.521   1.684  0.3105 -0.0426 -0.6128
  261MOL0     O35939   3.021   4.431   1.588  0.9056  0.0937 -0.9107
  261MOL0     C35940   3.159   4.386   1.580 -0.9868 -0.1147  0.5183
  261MOL0     C35941   3.219   4.410   1.436  0.2036 -0.2531 -0.1751
  261MOL0     C35942   3.178   4.300   1.331 -0.6626  0.2558 -0.3291
  261MOL0     C35943   3.044   4.335   1.269  0.2934 -0.5812  0.1617
  261MOL0     C35944   2.996   4.233   1.178 -0.4312 -0.6267 -0.7970
  261MOL0     C35945   2.967   4.146   1.100  0.2340 -0.2926  0.3151
  261MOL0     C35946   2.885   4.620   1.653  0.3034 -0.4520  0.3015
  261MOL0     C35947   2.828   4.709   1.742  0.1220  0.5914  0.0629
  261MOL0     C35948   2.728   4.816   1.683 -0.6183  0.1483 -1.3976
  261MOL0     H35949   2.912   4.822   2.307  0.6209  0.2391  1.4727
  261MOL0     H35950   2.804   4.949   2.483  4.7442 -5.4890 -0.9397
  261MOL0     H35951   2.352   4.942   2.498 -0.2371 -0.3157 -3.6908
  261MOL0     H35952   2.392   5.087   2.410  2.8779  0.1793 -0.7906
  261MOL0     H35953   2.398   5.214   2.609  0.1665 -0.0700  0.3325
  261MOL0     H35954   2.303   5.089   2.685  0.6758  0.6887  1.4124
  261MOL0     H35955   2.597   5.124   2.695  0.1237  1.9486 -0.1618
  261MOL0     H35956   2.490   5.173   2.824  1.5236 -0.4936 -0.2210
  261MOL0     H35957   2.398   4.937   2.822  0.2129  0.9554  0.2067
  261MOL0     H35958   2.539   4.885   2.734 -0.3808 -0.1350 -0.2077
  261MOL0     H35959   2.557   4.835   2.976  2.3434  0.8236  2.7479
  261MOL0     H35960   2.508   5.005   3.018  2.3406  4.1416 -1.2145
  261MOL0     H35961   2.728   5.071   2.908  1.4437 -0.4733 -0.4456
  261MOL0     H35962   2.738   4.981   3.067 -0.4055  1.4096 -0.0408
  261MOL0     H35963   2.780   4.910   2.776  0.0760  1.4845 -0.3643
  261MOL0     H35964   2.752   4.774   2.891  0.8926 -0.7562 -2.2667
  261MOL0     H35965   2.928   4.840   3.038 -2.4326 -1.9293 -0.5689
  261MOL0     H35966   2.988   4.793   2.872 -1.7440 -0.1478 -1.1598
  261MOL0     H35967   3.067   4.977   2.721  2.8842 -2.2362  0.1414
  261MOL0     H35968   3.240   5.317   2.831  0.1554 -0.2446  1.2471
  261MOL0     H35969   3.158   5.273   2.681  0.1706 -0.1669  0.6193
  261MOL0     H35970   3.386   5.107   2.796 -1.0855  1.5752  1.5581
  261MOL0     H35971   3.296   5.083   2.630  0.4013  1.1217 -1.2795
  261MOL0     H35972   3.354   5.291   2.562 -0.1361  1.3315 -0.3556
  261MOL0     H35973   3.466   5.302   2.698  1.8278 -0.4448 -0.5227
  261MOL0     H35974   3.474   5.066   2.502  3.1219 -0.1810 -1.2393
  261MOL0     H35975   3.569   5.209   2.480 -0.2054  1.6298  1.8264
  261MOL0     H35976   3.662   4.996   2.393  1.0274 -2.3500 -1.9779
  261MOL0     H35977   3.943   4.905   2.236 -2.5901  0.7768 -3.8703
  261MOL0     H35978   3.771   4.913   2.219 -1.9794 -2.2157  0.9115
  261MOL0     H35979   3.834   4.763   2.274  3.1044 -1.2653  0.1871
  261MOL0     H35980   4.232   4.852   2.178 -0.6834 -0.7586 -1.9397
  261MOL0     H35981   4.385   4.721   2.055 -4.0866 -0.8834 -1.3882
  261MOL0     H35982   4.556   4.542   1.963  1.8176 -1.0843  1.4669
  261MOL0     H35983   4.611   4.620   2.111 -2.2490  1.3521 -0.3149
  261MOL0     H35984   4.667   4.318   2.072  1.7103 -0.6497 -0.9118
  261MOL0     H35985   4.765   4.449   2.006  1.0931 -1.2177  0.6622
  261MOL0     H35986   4.794   4.541   2.233  0.4715  0.7892 -0.4332
  261MOL0     H35987   4.861   4.371   2.186 -0.0182 -1.0342  0.1621
  261MOL0     H35988   4.643   4.287   2.294 -0.9927 -0.4705  2.0700
  261MOL0     H35989   4.628   4.443   2.356 -1.1944  0.6585 -3.5140
  261MOL0     H35990   4.758   4.260   2.513  1.0604 -2.4659 -0.2290
  261MOL0     H35991   4.851   4.242   2.377  2.2461  0.9033  0.4433
  261MOL0     H35992   4.970   4.483   2.423 -0.9264  2.2720  0.2613
  261MOL0     H35993   4.975   4.347   2.540  0.3655  0.7803  0.3184
  261MOL0     H35994   4.755   4.480   2.624 -2.2439  2.2735 -1.3488
  261MOL0     H35995   4.836   4.616   2.531  2.2178 -0.6514 -1.3654
  261MOL0     H35996   5.042   4.598   2.665 -0.5603  1.5876  0.2096
  261MOL0     H35997   4.968   4.462   2.747  0.7798  0.9186  0.9576
  261MOL0     H35998   4.366   4.430   2.366 -3.5076 -1.5774 -1.8513
  261MOL0     H35999   4.232   4.578   2.500 -0.3949  2.1360  1.0496
  261MOL0     H36000   3.963   4.859   2.751  1.1796  0.8593  0.0118
  261MOL0     H36001   3.789   4.995   2.816  0.5586  0.6433  0.3084
  261MOL0     H36002   2.414   4.855   2.283  0.4143 -0.8986 -0.6292
  261MOL0     H36003   2.545   4.750   2.103 -0.1702 -0.1867  0.6480
  261MOL0     H36004   3.013   4.611   2.007 -0.7659 -1.3227  0.5348
  261MOL0     H36005   3.116   4.489   1.837  0.2516 -0.2208 -1.0856
  261MOL0     H36006   3.227   4.443   1.645 -0.5851  0.5016 -0.4311
  261MOL0     H36007   3.171   4.280   1.604  2.8892  0.2357  0.7614
  261MOL0     H36008   3.328   4.401   1.443  0.9760  5.5636  0.6898
  261MOL0     H36009   3.200   4.512   1.401 -1.2303 -1.3038 -2.7256
  261MOL0     H36010   3.263   4.297   1.263  0.7884 -1.5718  1.4153
  261MOL0     H36011   3.171   4.208   1.391 -1.3479 -0.2783 -1.2017
  261MOL0     H36012   3.039   4.433   1.219  2.4957  0.4927  1.9017
  261MOL0     H36013   2.970   4.355   1.348  0.5591  0.1381  0.2381
  261MOL0     H36014   2.947   4.069   1.029  1.7039  0.4994 -1.0349
  261MOL0     H36015   2.849   4.623   1.551  1.4795  1.1771 -0.1044
  261MOL0     H36016   2.630   4.806   1.731  0.1758 -0.6180  0.1570
  261MOL0     H36017   2.761   4.919   1.700  3.0154 -1.0922  0.0292
  261MOL0     H36018   2.707   4.808   1.576  0.1699 -1.1901 -1.4722
  262MOL0     O36019   1.913   4.278   4.798 -0.5804  0.1772 -0.6429
  262MOL0     C36020   1.796   4.254   4.765 -0.4019 -0.0725  0.1148
  262MOL0     O36021   1.706   4.198   4.843  0.0186  1.0158  0.6695
  262MOL0     C36022   1.740   4.160   4.977 -0.0901 -0.2825 -0.3305
  262MOL0     C36023   1.729   4.030   5.026  0.2597  0.3943  0.3173
  262MOL0     C36024   1.740   3.997   5.159 -0.0622  0.1066 -0.7260
  262MOL0     C36025   1.771   4.103   5.263  1.4558 -0.5017  0.4418
  262MOL0     O36026   1.760   4.069   5.397 -0.6030 -0.3182 -0.4155
  262MOL0     C36027   1.748   4.162   5.496 -0.2487 -0.2539  0.6459
  262MOL0     C36028   1.622   4.119   5.578  0.2553 -0.8842  0.9205
  262MOL0     C36029   1.491   4.082   5.492  0.5861 -0.2627 -0.3325
  262MOL0     C36030   1.369   4.018   5.557  0.9721  0.2554  0.5877
  262MOL0     C36031   1.263   3.956   5.461  0.1632  0.0225 -0.7448
  262MOL0     C36032   1.200   4.061   5.364  0.3182  0.1299 -0.9813
  262MOL0     C36033   1.106   4.177   5.400  0.4496 -1.0136 -0.0136
  262MOL0     C36034   1.159   4.291   5.495  0.5134  0.0751  1.0987
  262MOL0     N36035   1.054   4.398   5.522 -0.2945 -1.0737  0.3609
  262MOL0     C36036   1.075   4.535   5.512 -0.4088 -1.1194 -0.0127
  262MOL0     C36037   0.967   4.604   5.570 -0.3797 -1.3021  0.1107
  262MOL0     C36038   0.950   4.746   5.619 -0.9016 -0.2637 -0.2521
  262MOL0     C36039   0.806   4.773   5.641  0.3501  0.3944  0.2583
  262MOL0     C36040   0.701   4.746   5.537 -0.2221 -0.7545 -0.7797
  262MOL0     C36041   0.697   4.846   5.416 -0.5762 -0.2296 -0.5850
  262MOL0     O36042   0.584   4.800   5.331 -0.1649 -0.3356  0.0515
  262MOL0     C36043   0.596   4.840   5.201  1.0121  0.4647  0.8475
  262MOL0     C36044   0.638   4.964   5.178 -0.9160 -0.6611  0.2902
  262MOL0     C36045   0.685   4.997   5.048  0.5111  0.3473  0.0875
  262MOL0     C36046   0.766   5.122   5.047 -0.4390 -0.9381  0.5502
  262MOL0     C36047   0.686   4.903   4.940 -1.0512  0.8193 -0.1195
  262MOL0     C36048   0.747   4.938   4.809 -0.2226 -0.6782 -0.3633
  262MOL0     O36049   0.779   5.072   4.781  0.4813 -0.9523 -0.1226
  262MOL0     C36050   0.841   5.107   4.656  0.3210  0.5193 -0.5661
  262MOL0     C36051   0.798   5.224   4.590  0.8049  0.0688 -0.0751
  262MOL0     C36052   0.870   5.272   4.479 -0.2321 -0.4504 -0.1767
  262MOL0     C36053   0.973   5.196   4.425 -0.6581 -0.3249 -0.5275
  262MOL0     O36054   1.069   5.240   4.338  0.2378  0.4240  0.2749
  262MOL0     C36055   1.068   5.382   4.305  0.5914  0.3544  0.2656
  262MOL0     C36056   1.181   5.398   4.201 -0.1577  0.4370 -0.7161
  262MOL0     C36057   1.180   5.537   4.141 -0.0973 -0.5837  0.8805
  262MOL0     C36058   1.238   5.535   4.002 -0.6659  0.2855  1.0574
  262MOL0     C36059   1.368   5.450   3.977  0.0961  0.5071  0.8632
  262MOL0     C36060   1.489   5.494   4.043 -0.1027  0.4849 -0.6979
  262MOL0     C36061   1.502   5.652   4.041 -0.0354  0.1768  0.1456
  262MOL0     C36062   1.644   5.694   4.086  0.4816  0.1181 -0.1967
  262MOL0    Cl36063   1.757   5.628   3.974 -0.0982  0.1838  0.2044
  262MOL0     C36064   0.996   5.069   4.477 -0.5776 -0.4261  0.1967
  262MOL0     C36065   0.941   5.033   4.600 -0.5508 -0.2367  0.3292
  262MOL0     O36066   0.761   4.845   4.732 -0.4021  0.0304  0.6610
  262MOL0     C36067   0.631   4.770   4.972  0.3807  0.0586 -0.2168
  262MOL0     C36068   0.582   4.746   5.095 -0.3358 -0.1243 -0.3180
  262MOL0     N36069   0.882   4.498   5.612 -0.1555 -0.3416 -0.5806
  262MOL0     N36070   0.940   4.383   5.581 -0.3495 -0.6552 -0.0765
  262MOL0     C36071   1.791   4.231   5.208 -0.1594 -0.5654 -0.1354
  262MOL0     C36072   1.783   4.258   5.069  0.6782  0.2169  0.2173
  262MOL0     C36073   1.745   4.308   4.639 -0.2571  0.8090 -0.4770
  262MOL0     C36074   1.607   4.325   4.620  0.2063  0.0825 -0.8654
  262MOL0     C36075   1.555   4.348   4.501 -1.4369  0.8114 -0.4414
  262MOL0     C36076   1.637   4.365   4.392 -0.1461  0.1565  0.0600
  262MOL0     O36077   1.554   4.389   4.281 -0.1611  0.0897  0.4652
  262MOL0     C36078   1.602   4.363   4.138 -0.1465 -0.0373 -0.0615
  262MOL0     C36079   1.596   4.216   4.088 -0.1605 -0.3138  0.5943
  262MOL0     C36080   1.625   4.210   3.932  0.9643 -0.2414 -0.3283
  262MOL0     C36081   1.635   4.060   3.888  0.5236 -0.5486  0.2865
  262MOL0     C36082   1.687   4.045   3.745 -0.4552 -0.2041 -0.3862
  262MOL0     C36083   1.726   4.015   3.633 -0.5816 -0.1095 -1.4930
  262MOL0     C36084   1.780   4.350   4.400 -0.4153  0.3361 -1.3346
  262MOL0     C36085   1.835   4.328   4.530  0.7467  0.6078  1.3376
  262MOL0     C36086   1.979   4.352   4.539  0.0632  0.0545  0.2015
  262MOL0     H36087   1.687   3.957   4.957  0.9387 -1.1338  1.4763
  262MOL0     H36088   1.717   3.893   5.180 -1.5093  0.1805 -1.7867
  262MOL0     H36089   1.756   4.268   5.469  4.5180 -0.4137  0.7042
  262MOL0     H36090   1.838   4.149   5.556 -0.3964 -1.2434  0.6719
  262MOL0     H36091   1.653   4.025   5.624  1.4717 -2.1810 -2.2375
  262MOL0     H36092   1.613   4.197   5.653  0.3792 -1.7577  1.8643
  262MOL0     H36093   1.456   4.174   5.444 -0.3404  1.5731  3.4756
  262MOL0     H36094   1.532   4.013   5.418 -0.6119 -1.3416 -0.0179
  262MOL0     H36095   1.410   3.947   5.629  0.4193 -2.2139 -1.3828
  262MOL0     H36096   1.314   4.101   5.602 -0.3093 -0.7251  0.8926
  262MOL0     H36097   1.191   3.914   5.531  0.0068  0.6710 -0.5064
  262MOL0     H36098   1.301   3.879   5.394 -1.2081  0.1157 -1.6598
  262MOL0     H36099   1.284   4.113   5.317  0.7155  0.9117  0.5320
  262MOL0     H36100   1.146   4.001   5.289  0.5122  0.0182 -1.0326
  262MOL0     H36101   1.013   4.135   5.440 -0.6983  1.5407  0.2319
  262MOL0     H36102   1.079   4.214   5.301 -3.5905 -2.6388  0.2692
  262MOL0     H36103   1.189   4.252   5.593 -0.6072 -3.4254  0.1938
  262MOL0     H36104   1.255   4.322   5.454  0.5971  0.2318  1.4079
  262MOL0     H36105   1.158   4.589   5.469 -1.0385  1.1638  1.4346
  262MOL0     H36106   0.981   4.834   5.561 -4.3372  2.4692  1.6818
  262MOL0     H36107   1.008   4.747   5.712  0.8316  0.8466 -1.2880
  262MOL0     H36108   0.780   4.710   5.727 -1.0330 -1.3777 -1.3572
  262MOL0     H36109   0.798   4.876   5.677 -1.0009 -1.4639  6.5130
  262MOL0     H36110   0.703   4.639   5.513 -0.7146 -1.3930  1.7469
  262MOL0     H36111   0.613   4.754   5.602  3.3609 -0.0272  4.6211
  262MOL0     H36112   0.672   4.946   5.454 -1.8431 -1.4631  2.1274
  262MOL0     H36113   0.794   4.844   5.367 -0.6002 -2.5044 -0.6427
  262MOL0     H36114   0.653   5.038   5.255 -1.1283 -0.6045  0.2791
  262MOL0     H36115   0.761   5.170   5.146 -0.9861 -0.3109  0.2332
  262MOL0     H36116   0.729   5.202   4.981  0.5634 -0.1234  0.9592
  262MOL0     H36117   0.870   5.100   5.025  0.0974  1.3995  0.4536
  262MOL0     H36118   0.720   5.279   4.641 -0.4408 -0.9250 -0.8500
  262MOL0     H36119   0.849   5.376   4.455  1.3882  0.1403  0.8101
  262MOL0     H36120   0.977   5.411   4.251  1.1271 -1.9911 -2.1329
  262MOL0     H36121   1.086   5.444   4.393 -1.4983  0.1418  0.9224
  262MOL0     H36122   1.276   5.380   4.252 -0.5281 -1.6309 -0.6694
  262MOL0     H36123   1.171   5.329   4.117 -0.4360  1.9461 -1.9596
  262MOL0     H36124   1.242   5.603   4.201  2.6834 -3.3395  1.3129
  262MOL0     H36125   1.087   5.593   4.151  0.1990 -0.1345  1.1311
  262MOL0     H36126   1.245   5.630   3.949 -0.4675 -0.9949 -1.3469
  262MOL0     H36127   1.162   5.485   3.941  0.2934 -2.5387  1.9782
  262MOL0     H36128   1.344   5.347   4.003 -1.5733 -0.1674 -2.8219
  262MOL0     H36129   1.404   5.445   3.874  1.4494  1.4596  1.2631
  262MOL0     H36130   1.573   5.443   3.995  0.7643  0.1961  1.0423
  262MOL0     H36131   1.487   5.458   4.147 -2.0788 -2.8334 -1.7372
  262MOL0     H36132   1.417   5.690   4.098 -0.0642 -1.4772  1.3080
  262MOL0     H36133   1.470   5.691   3.945 -1.6196  3.1917  1.7467
  262MOL0     H36134   1.676   5.641   4.176  0.0726 -1.1820 -0.7896
  262MOL0     H36135   1.664   5.801   4.099  2.8522 -0.5491  2.6726
  262MOL0     H36136   1.086   5.014   4.453 -0.0269 -0.3117  1.8737
  262MOL0     H36137   0.996   4.952   4.645  0.5354 -0.0865 -0.6788
  262MOL0     H36138   0.634   4.698   4.891  0.8309  0.9212 -0.9829
  262MOL0     H36139   0.562   4.645   5.130 -1.4521  0.7725  1.8431
  262MOL0     H36140   1.825   4.307   5.278 -2.7920 -1.2630  2.1149
  262MOL0     H36141   1.803   4.354   5.021 -0.2172  2.8594  4.6165
  262MOL0     H36142   1.535   4.307   4.699 -0.6642 -3.8440 -2.2946
  262MOL0     H36143   1.449   4.336   4.482 -1.5483  0.8146  0.1601
  262MOL0     H36144   1.524   4.409   4.076 -4.2891 -3.4564  2.1199
  262MOL0     H36145   1.699   4.412   4.120 -0.1081 -0.3925 -0.8580
  262MOL0     H36146   1.494   4.189   4.118  0.5949 -0.4297  3.3281
  262MOL0     H36147   1.668   4.151   4.138 -1.9544  0.2197  4.1500
  262MOL0     H36148   1.551   4.260   3.870  0.6106 -0.0517  0.2408
  262MOL0     H36149   1.719   4.266   3.921  1.6424 -0.4532  3.1785
  262MOL0     H36150   1.538   4.012   3.903  1.1857 -1.9929  0.1261
  262MOL0     H36151   1.699   4.016   3.965  0.5923 -2.7217 -0.9340
  262MOL0     H36152   1.760   3.975   3.540  1.0265  0.0226 -1.0017
  262MOL0     H36153   1.839   4.366   4.311 -1.1560  0.6043 -1.7896
  262MOL0     H36154   2.027   4.260   4.573  0.6036  0.6940  1.2028
  262MOL0     H36155   2.026   4.389   4.447 -1.9827 -0.3185 -1.0550
  262MOL0     H36156   2.005   4.421   4.620  0.8513 -0.9227  0.7993
  263MOL0     O36157   3.405   9.702   8.310 -0.4659 -0.0046 -0.6218
  263MOL0     C36158   3.476   9.747   8.395  0.1903  0.5159  1.3209
  263MOL0     O36159   3.608   9.786   8.377 -0.0544 -0.0692  0.5174
  263MOL0     C36160   3.689   9.727   8.287 -0.3577  0.8809 -0.2344
  263MOL0     C36161   3.793   9.651   8.334 -0.4977  0.2709  0.0356
  263MOL0     C36162   3.880   9.596   8.240 -0.9166 -0.9871 -1.4831
  263MOL0     C36163   3.869   9.621   8.095 -0.5492  0.1517 -0.7067
  263MOL0     O36164   3.961   9.557   8.016  0.5122 -0.0034 -0.7703
  263MOL0     C36165   3.942   9.553   7.878 -0.7584 -0.9447  0.2681
  263MOL0     C36166   4.000   9.680   7.811  0.5206  0.7149 -0.5232
  263MOL0     C36167   4.146   9.716   7.860  1.5311 -0.4874 -0.7838
  263MOL0     C36168   4.196   9.852   7.827  0.8169 -0.0713  0.8498
  263MOL0     C36169   4.203   9.870   7.674  0.0425 -0.7967  0.6915
  263MOL0     C36170   4.274  10.006   7.643  0.5191  0.3848 -0.2325
  263MOL0     C36171   4.283  10.045   7.487  0.9813  0.5260 -1.2539
  263MOL0     C36172   4.386   9.982   7.397 -1.2256 -0.4163  1.1647
  263MOL0     N36173   4.376  10.023   7.254 -0.1017  0.3356 -0.2826
  263MOL0     C36174   4.313  10.140   7.224 -0.0289 -0.2295 -0.3790
  263MOL0     C36175   4.295  10.133   7.086  0.0856  0.0286 -0.1938
  263MOL0     C36176   4.235  10.260   7.022 -1.0367 -0.2407  0.0024
  263MOL0     C36177   4.278  10.271   6.873 -0.3434 -0.5447  0.2062
  263MOL0     C36178   4.410  10.339   6.845 -0.1051  0.0587  0.8005
  263MOL0     C36179   4.534  10.286   6.918 -0.8033  0.7286 -0.5876
  263MOL0     O36180   4.649  10.376   6.895  0.5309  0.7138  0.1676
  263MOL0     C36181   4.769  10.309   6.915  0.0414  1.2426  1.2291
  263MOL0     C36182   4.884  10.383   6.879 -0.4020 -0.0130  0.1571
  263MOL0     C36183   5.013  10.342   6.922 -0.1910 -0.2204 -0.2383
  263MOL0     C36184   5.113  10.451   6.907  0.3816 -0.4252  0.1886
  263MOL0     C36185   5.033  10.212   6.985  0.5789 -1.0263  0.5708
  263MOL0     C36186   5.172  10.159   7.007  0.7644  0.0582  0.7039
  263MOL0     O36187   5.256  10.191   6.918 -0.4992 -0.9295 -0.3386
  263MOL0     C36188   5.383  10.134   6.929 -0.4560  0.8065  0.4924
  263MOL0     C36189   5.500  10.210   6.932  0.7826  0.7308 -0.4613
  263MOL0     C36190   5.628  10.148   6.931  0.7783  0.9859 -0.4750
  263MOL0     C36191   5.634  10.002   6.931 -0.7794  0.5743 -1.0227
  263MOL0     O36192   5.749   9.933   6.937 -0.4999  0.0189 -0.6323
  263MOL0     C36193   5.850   9.977   6.847  0.1041 -0.2904 -0.5978
  263MOL0     C36194   5.947   9.855   6.833 -0.1367 -0.4789 -0.4752
  263MOL0     C36195   6.079   9.896   6.756 -0.4346  0.2184  0.6627
  263MOL0     C36196   6.066   9.942   6.608 -0.2825 -0.3979 -0.0008
  263MOL0     C36197   6.065   9.818   6.523 -0.4653 -0.7136 -0.5183
  263MOL0     C36198   6.073   9.849   6.374  0.3483  0.7361 -0.6954
  263MOL0     C36199   6.064   9.718   6.295 -0.4804  0.4223  0.6914
  263MOL0     C36200   6.060   9.731   6.149  0.9154  0.0983  0.0713
  263MOL0    Cl36201   6.204   9.817   6.092  0.0048 -0.6098 -0.0928
  263MOL0     C36202   5.515   9.929   6.934 -0.1291  1.1185  1.2815
  263MOL0     C36203   5.391   9.992   6.929 -0.0897  0.5953 -0.1685
  263MOL0     O36204   5.183  10.074   7.097  0.5964  0.4490  0.0520
  263MOL0     C36205   4.916  10.133   7.019  0.4997 -0.5403 -0.0069
  263MOL0     C36206   4.790  10.188   6.976  1.1860 -0.0971 -0.1645
  263MOL0     N36207   4.328  10.003   7.046 -0.0742  0.0498 -0.2152
  263MOL0     N36208   4.359   9.938   7.151  0.3018 -0.0743 -0.0167
  263MOL0     C36209   3.763   9.695   8.055  0.6669 -0.7993 -0.4653
  263MOL0     C36210   3.669   9.745   8.150 -0.9078 -0.6150 -0.1011
  263MOL0     C36211   3.415   9.794   8.519 -0.8470 -0.7459  0.0295
  263MOL0     C36212   3.466   9.915   8.570 -0.4109 -0.4616  0.1446
  263MOL0     C36213   3.428   9.964   8.695  0.1598 -0.1372 -0.1375
  263MOL0     C36214   3.350   9.884   8.781  1.4820  0.8253  0.4463
  263MOL0     O36215   3.326   9.902   8.913  0.5372  0.3032 -0.3812
  263MOL0     C36216   3.313  10.031   8.972  0.6246  0.2970 -0.5652
  263MOL0     C36217   3.206  10.114   8.908  0.2312  0.2217  0.1727
  263MOL0     C36218   3.143  10.213   9.011  0.2206 -0.4233  0.3611
  263MOL0     C36219   3.240  10.323   9.046  0.1426 -0.0416  0.2694
  263MOL0     C36220   3.314  10.283   9.166  0.9198 -0.3989 -0.0832
  263MOL0     C36221   3.374  10.240   9.269  0.5255  0.2748  0.6131
  263MOL0     C36222   3.292   9.767   8.732  0.2889  0.2873  0.6721
  263MOL0     C36223   3.313   9.725   8.601 -0.5526  0.2281  0.1130
  263MOL0     C36224   3.237   9.618   8.545  0.0694  0.9564 -0.5354
  263MOL0     H36225   3.829   9.639   8.436  0.7357  2.5993 -0.0439
  263MOL0     H36226   3.955   9.523   8.268 -0.8300 -0.2524  0.2936
  263MOL0     H36227   3.840   9.528   7.849 -0.9642  0.7237 -0.5836
  263MOL0     H36228   4.005   9.468   7.848 -2.1319 -1.4542 -1.2891
  263MOL0     H36229   4.006   9.656   7.705 -0.8669 -0.5854 -0.3486
  263MOL0     H36230   3.936   9.766   7.830 -0.8849 -0.3786 -0.1064
  263MOL0     H36231   4.142   9.697   7.968 -0.0742 -1.4061 -0.9820
  263MOL0     H36232   4.211   9.644   7.811  4.7987  2.7900 -1.7316
  263MOL0     H36233   4.149   9.937   7.878 -1.4439  0.2932 -1.6339
  263MOL0     H36234   4.301   9.853   7.857  1.0208 -1.6422  0.2856
  263MOL0     H36235   4.108   9.874   7.620  0.4608 -1.7806 -0.1404
  263MOL0     H36236   4.256   9.783   7.635  1.1788  1.6372 -3.8799
  263MOL0     H36237   4.221  10.091   7.689 -0.0664 -0.9294  1.6530
  263MOL0     H36238   4.372  10.005   7.691 -0.1140 -0.4475  1.0934
  263MOL0     H36239   4.290  10.154   7.493 -1.1864  0.7370 -1.6979
  263MOL0     H36240   4.190  10.014   7.439  0.4839  2.6121 -1.7084
  263MOL0     H36241   4.488   9.991   7.433 -0.4160  0.4206 -1.1889
  263MOL0     H36242   4.380   9.873   7.397 -0.8453 -0.4963  3.6887
  263MOL0     H36243   4.289  10.229   7.283  4.3655  0.4037  0.7577
  263MOL0     H36244   4.263  10.353   7.073 -2.6322  0.9491 -1.1801
  263MOL0     H36245   4.127  10.240   7.020 -0.8862 -1.4083 -3.7692
  263MOL0     H36246   4.275  10.176   6.819  2.3274 -0.7197  0.2474
  263MOL0     H36247   4.209  10.348   6.836  1.0961  1.3312  1.2069
  263MOL0     H36248   4.436  10.329   6.739 -0.2695  0.5221  0.7165
  263MOL0     H36249   4.392  10.444   6.868 -1.7621 -0.5394  2.4895
  263MOL0     H36250   4.516  10.274   7.025 -2.1479 -0.0517 -0.8758
  263MOL0     H36251   4.551  10.192   6.866  2.1490  1.5570 -1.3093
  263MOL0     H36252   4.858  10.478   6.836 -1.8674  0.3372  1.7324
  263MOL0     H36253   5.076  10.543   6.954 -2.6984 -2.0056  1.2162
  263MOL0     H36254   5.150  10.452   6.805 -0.8524  2.2087 -0.3196
  263MOL0     H36255   5.202  10.441   6.970  1.1884 -0.7713 -0.9854
  263MOL0     H36256   5.482  10.316   6.939  5.3091  1.6559 -0.4386
  263MOL0     H36257   5.715  10.207   6.955  2.8647 -1.9874 -0.1176
  263MOL0     H36258   5.809  10.011   6.751 -0.2324 -2.0296 -1.1046
  263MOL0     H36259   5.909  10.062   6.882 -1.1868  0.4609 -0.1592
  263MOL0     H36260   5.973   9.806   6.927 -0.4165 -2.1760 -1.2299
  263MOL0     H36261   5.890   9.775   6.785 -2.2500 -0.3850  1.6844
  263MOL0     H36262   6.153   9.815   6.763 -0.1582 -0.1752 -3.8442
  263MOL0     H36263   6.129   9.977   6.810 -0.4438 -0.2904  1.4421
  263MOL0     H36264   6.140  10.018   6.583  1.0754 -1.8862 -0.6704
  263MOL0     H36265   5.971   9.993   6.591 -1.1352 -1.5422  1.1512
  263MOL0     H36266   6.152   9.755   6.538 -1.3317 -1.4516  1.8408
  263MOL0     H36267   5.987   9.754   6.565  2.1275 -3.2173  0.7849
  263MOL0     H36268   6.157   9.913   6.344  0.0014  1.2021 -0.6798
  263MOL0     H36269   5.985   9.910   6.355 -1.1605  0.6456  4.4238
  263MOL0     H36270   5.976   9.659   6.322 -0.5483 -0.7513 -1.7750
  263MOL0     H36271   6.160   9.670   6.314  2.2043  3.5215 -3.2419
  263MOL0     H36272   5.974   9.790   6.118 -0.6040 -1.1832  1.6442
  263MOL0     H36273   6.059   9.631   6.107  0.8247 -1.1390  2.7756
  263MOL0     H36274   5.530   9.825   6.905 -3.8523  0.0836  2.5350
  263MOL0     H36275   5.302   9.933   6.911 -0.5243  0.9234  0.8727
  263MOL0     H36276   4.915  10.035   7.064 -3.1946 -2.1253 -3.0263
  263MOL0     H36277   4.703  10.134   7.011  0.4050  1.2635  0.0635
  263MOL0     H36278   3.754   9.718   7.949  1.5439 -1.8503 -0.7827
  263MOL0     H36279   3.584   9.809   8.126 -4.2264 -4.9214 -1.0988
  263MOL0     H36280   3.537   9.975   8.514  0.2326  1.8974  3.2305
  263MOL0     H36281   3.471  10.046   8.751 -0.4591  1.8044 -2.3817
  263MOL0     H36282   3.292  10.011   9.077  2.2692 -0.9241 -0.4146
  263MOL0     H36283   3.412  10.078   8.965  0.8911  0.0829  1.2987
  263MOL0     H36284   3.120  10.055   8.874  2.1358 -3.9068  1.8159
  263MOL0     H36285   3.256  10.169   8.829  1.2802  1.2990  1.5469
  263MOL0     H36286   3.055  10.252   8.959 -0.1964 -0.3804  1.0754
  263MOL0     H36287   3.101  10.173   9.104 -0.9638 -0.5735 -0.2207
  263MOL0     H36288   3.182  10.413   9.067 -2.6085 -1.2467 -1.6173
  263MOL0     H36289   3.313  10.345   8.968 -0.1021  0.2714  0.1288
  263MOL0     H36290   3.440  10.218   9.351  1.3984 -0.1969 -0.2012
  263MOL0     H36291   3.237   9.703   8.801  0.8476  0.3551  1.1872
  263MOL0     H36292   3.146   9.587   8.598 -0.5384  0.5497 -1.7926
  263MOL0     H36293   3.207   9.642   8.443  4.0617  1.7518 -1.7008
  263MOL0     H36294   3.309   9.536   8.544  0.2019  1.0693 -0.2993
  264MOL0     O36295  11.464   9.854   5.509 -0.3245 -0.0670 -0.1474
  264MOL0     C36296  11.549   9.947   5.507  0.6931  1.0558  1.0716
  264MOL0     O36297  11.556  10.043   5.599 -0.2958  0.3499  0.1341
  264MOL0     C36298  11.475  10.056   5.712  0.4028 -0.9907  0.0055
  264MOL0     C36299  11.397   9.954   5.768  0.2793  0.4018 -1.1353
  264MOL0     C36300  11.306   9.982   5.873 -0.0562 -0.7988 -0.0342
  264MOL0     C36301  11.285  10.122   5.907  0.4818  1.6900  0.2946
  264MOL0     O36302  11.187  10.164   5.989 -0.1644  0.2503 -0.1622
  264MOL0     C36303  11.101  10.061   6.052 -0.5105  0.1814  0.6114
  264MOL0     C36304  11.035  10.114   6.176 -0.2366 -0.1366 -0.3868
  264MOL0     C36305  10.969  10.011   6.260  0.9428 -0.7633 -0.5204
  264MOL0     C36306  10.920  10.061   6.391  0.1338 -0.1639  0.1461
  264MOL0     C36307  10.830   9.956   6.459 -0.1687  0.0961  1.3503
  264MOL0     C36308  10.752  10.011   6.569  0.6603 -0.3774  0.6179
  264MOL0     C36309  10.655   9.903   6.624  0.4051  0.4086 -0.3047
  264MOL0     C36310  10.568   9.945   6.744 -0.1728 -0.0253 -0.4096
  264MOL0     N36311  10.477   9.839   6.794 -0.2598  0.6424  0.2005
  264MOL0     C36312  10.381   9.783   6.715 -0.2046 -0.0342 -1.1597
  264MOL0     C36313  10.322   9.687   6.789  0.1648 -0.2659  0.0515
  264MOL0     C36314  10.213   9.588   6.735  0.2755 -0.1120  0.0273
  264MOL0     C36315  10.204   9.462   6.809  0.1734  1.3165  0.4295
  264MOL0     C36316  10.127   9.362   6.708 -0.7218 -0.0324  0.4321
  264MOL0     C36317  10.147   9.209   6.739 -0.9317  0.3945  0.0063
  264MOL0     O36318  10.285   9.159   6.721 -0.0054  0.1817 -0.4277
  264MOL0     C36319  10.351   9.156   6.605  0.7297  0.4072  0.7191
  264MOL0     C36320  10.482   9.126   6.605  0.1269 -0.2380 -0.8545
  264MOL0     C36321  10.564   9.098   6.506  0.0696 -0.2736 -0.3551
  264MOL0     C36322  10.714   9.061   6.538  0.8302  0.7280 -0.0052
  264MOL0     C36323  10.513   9.129   6.377  1.2112 -0.3416  0.2588
  264MOL0     C36324  10.596   9.127   6.253 -0.1706  0.2066  0.9878
  264MOL0     O36325  10.658   9.012   6.211  0.2739  0.1899  0.6138
  264MOL0     C36326  10.776   9.003   6.146  0.1975 -0.1648  0.5267
  264MOL0     C36327  10.859   9.119   6.111 -0.0242  0.0701  0.2005
  264MOL0     C36328  10.983   9.102   6.044  0.9132 -0.6386  0.8224
  264MOL0     C36329  11.026   8.972   6.029 -1.0412  0.0895  1.5269
  264MOL0     O36330  11.143   8.955   5.955 -0.4471  0.7868  0.4551
  264MOL0     C36331  11.211   8.830   5.961  0.3771  0.4554  0.0579
  264MOL0     C36332  11.354   8.839   5.900 -1.0613  0.6971 -0.9331
  264MOL0     C36333  11.424   8.709   5.906 -0.0888  0.0141  0.5034
  264MOL0     C36334  11.573   8.712   5.868  0.0538  0.6627 -0.1666
  264MOL0     C36335  11.589   8.758   5.721  0.7783 -0.1880 -0.7385
  264MOL0     C36336  11.719   8.700   5.664 -0.9831 -0.0405  0.3289
  264MOL0     C36337  11.845   8.773   5.711  0.9423 -0.0889  0.0761
  264MOL0     C36338  11.921   8.818   5.593  0.3526  0.0514 -0.4866
  264MOL0    Cl36339  11.816   8.927   5.501  0.0723 -0.0779 -0.0893
  264MOL0     C36340  10.949   8.866   6.059  0.2137  0.4428 -0.2307
  264MOL0     C36341  10.828   8.880   6.123  0.3374 -0.0249 -1.0810
  264MOL0     O36342  10.579   9.235   6.191 -0.1467  0.6827 -0.6918
  264MOL0     C36343  10.369   9.154   6.364  0.1206 -0.6935  0.1147
  264MOL0     C36344  10.288   9.165   6.479 -0.8462 -0.6030 -0.1702
  264MOL0     N36345  10.385   9.684   6.910 -0.5882  0.0054  0.4152
  264MOL0     N36346  10.481   9.771   6.911 -0.7037  0.5473  0.1647
  264MOL0     C36347  11.368  10.221   5.855  0.5528 -0.2028 -1.5521
  264MOL0     C36348  11.466  10.184   5.759  1.3537  0.5738  0.6970
  264MOL0     C36349  11.640   9.946   5.394 -0.7727  0.3159 -0.2372
  264MOL0     C36350  11.648   9.839   5.310 -0.8916  0.8586  0.7211
  264MOL0     C36351  11.740   9.840   5.195  0.4244  0.0343 -0.3500
  264MOL0     C36352  11.818   9.950   5.176 -0.8325  0.6917 -0.6606
  264MOL0     O36353  11.904   9.943   5.069 -0.4398 -0.0565  0.1129
  264MOL0     C36354  11.868  10.012   4.952 -0.3812 -0.5509  0.7942
  264MOL0     C36355  11.779   9.924   4.865  0.2342 -0.4529  0.5064
  264MOL0     C36356  11.708  10.004   4.745 -0.7091 -0.4665  0.6663
  264MOL0     C36357  11.663   9.900   4.631 -0.1794 -0.0503 -0.2740
  264MOL0     C36358  11.570   9.790   4.693 -0.6053 -0.1969 -0.2503
  264MOL0     C36359  11.505   9.711   4.753  0.0042 -0.1227  0.0923
  264MOL0     C36360  11.806  10.060   5.255 -0.3029  0.5094 -0.4308
  264MOL0     C36361  11.725  10.057   5.366 -0.5286 -0.3455  0.0542
  264MOL0     C36362  11.732  10.184   5.439 -1.0575 -0.5754 -0.3479
  264MOL0     H36363  11.421   9.850   5.745  0.0916 -0.5105  2.2347
  264MOL0     H36364  11.271   9.890   5.917  1.3824 -0.1349  2.7126
  264MOL0     H36365  11.167   9.980   6.085  0.0450 -0.6857 -2.3754
  264MOL0     H36366  11.034  10.006   5.985  3.0775 -0.0324 -3.1737
  264MOL0     H36367  11.106  10.163   6.242  0.1006 -0.1318 -0.7540
  264MOL0     H36368  10.955  10.186   6.157 -1.2741 -0.7895  1.2185
  264MOL0     H36369  10.890   9.969   6.198  0.8873 -1.6745  0.1448
  264MOL0     H36370  11.042   9.932   6.280 -0.8035 -1.8140  2.3126
  264MOL0     H36371  11.015  10.066   6.445  0.7183  1.5474 -0.9689
  264MOL0     H36372  10.887  10.164   6.405  0.0540 -0.1561 -0.0942
  264MOL0     H36373  10.892   9.875   6.497  0.1040 -0.4545 -0.1899
  264MOL0     H36374  10.767   9.900   6.390  0.7469  1.7905 -0.9957
  264MOL0     H36375  10.817  10.049   6.649  3.4912 -1.7899 -0.8510
  264MOL0     H36376  10.682  10.085   6.529 -2.6619 -3.5600  0.0086
  264MOL0     H36377  10.710   9.810   6.639 -1.9500 -0.8462  1.2785
  264MOL0     H36378  10.575   9.886   6.551 -0.3780 -1.4081  0.8903
  264MOL0     H36379  10.625   9.980   6.830  1.9636 -1.5261 -1.1546
  264MOL0     H36380  10.510  10.030   6.705 -0.9897 -0.4640 -0.1776
  264MOL0     H36381  10.340   9.810   6.618  0.3552  0.6099 -1.2299
  264MOL0     H36382  10.238   9.559   6.633  1.5558 -4.3424  1.3608
  264MOL0     H36383  10.115   9.638   6.730 -0.3537 -1.4485 -2.5834
  264MOL0     H36384  10.300   9.415   6.833 -0.7028  0.1416  1.8195
  264MOL0     H36385  10.141   9.465   6.899  0.8670 -0.2850  1.0166
  264MOL0     H36386  10.019   9.374   6.723 -0.9757 -1.7535  0.1129
  264MOL0     H36387  10.151   9.376   6.603  1.2209 -0.6421  0.7572
  264MOL0     H36388  10.125   9.194   6.845 -0.8911  0.9699  0.0973
  264MOL0     H36389  10.082   9.146   6.677  1.5533 -0.4852 -1.8514
  264MOL0     H36390  10.529   9.118   6.702 -0.3259 -1.1768 -0.7007
  264MOL0     H36391  10.763   9.019   6.450 -2.8906  0.0323 -1.9193
  264MOL0     H36392  10.721   8.978   6.609  1.3842  0.8231  0.0581
  264MOL0     H36393  10.774   9.146   6.573  1.8424 -0.5284  1.4879
  264MOL0     H36394  10.824   9.217   6.142  0.5802 -0.4336  2.7075
  264MOL0     H36395  11.061   9.175   6.024 -0.1629  0.7724  1.5734
  264MOL0     H36396  11.222   8.801   6.066 -2.3732  0.3547  0.3741
  264MOL0     H36397  11.171   8.749   5.900  1.3656 -2.1755  2.6678
  264MOL0     H36398  11.349   8.878   5.798 -0.8141  0.8256 -0.8952
  264MOL0     H36399  11.408   8.905   5.969  1.0342 -1.5968 -0.2302
  264MOL0     H36400  11.369   8.652   5.831  2.5989 -1.6307 -0.3381
  264MOL0     H36401  11.414   8.651   5.999  1.1833  0.4040  0.8973
  264MOL0     H36402  11.616   8.615   5.892 -0.2978  0.4888 -0.2189
  264MOL0     H36403  11.631   8.777   5.933 -0.2353 -1.7354  2.6821
  264MOL0     H36404  11.500   8.715   5.673 -0.5476 -2.6297  3.3897
  264MOL0     H36405  11.573   8.866   5.720 -1.8753 -0.3722  2.6618
  264MOL0     H36406  11.717   8.714   5.555  0.3971 -0.4719  0.2256
  264MOL0     H36407  11.723   8.592   5.679  0.0371  0.0655  0.9082
  264MOL0     H36408  11.899   8.705   5.777  2.1809  2.4536  1.8477
  264MOL0     H36409  11.817   8.857   5.776  1.0881 -0.6378  0.8684
  264MOL0     H36410  11.946   8.729   5.534  2.9520 -0.2548  0.9319
  264MOL0     H36411  12.004   8.879   5.629 -1.4182  1.5533  1.2978
  264MOL0     H36412  10.972   8.761   6.046  0.0246  0.0355  2.1939
  264MOL0     H36413  10.768   8.791   6.139 -3.0527  2.2341 -0.1216
  264MOL0     H36414  10.321   9.182   6.271  1.3501  5.2518  0.8316
  264MOL0     H36415  10.182   9.182   6.462 -1.0134 -0.7501  0.6709
  264MOL0     H36416  11.352  10.326   5.877  3.4675 -0.3440  2.1102
  264MOL0     H36417  11.533  10.251   5.707  0.2479  2.7401  1.9023
  264MOL0     H36418  11.598   9.749   5.344  0.8675  0.2849  1.9327
  264MOL0     H36419  11.760   9.754   5.131 -0.6619 -1.8078  1.6177
  264MOL0     H36420  11.815  10.104   4.980  1.2700  0.7300 -0.0911
  264MOL0     H36421  11.956  10.050   4.899  0.5222 -2.1131  1.1161
  264MOL0     H36422  11.704   9.871   4.925 -0.0013  0.8749  1.4441
  264MOL0     H36423  11.841   9.846   4.821  0.3837  0.4538 -0.9794
  264MOL0     H36424  11.622  10.059   4.783  0.0705  0.1117  1.6456
  264MOL0     H36425  11.779  10.067   4.692 -0.5862 -2.4047 -1.6684
  264MOL0     H36426  11.750   9.846   4.593  1.5388  1.4088  1.4168
  264MOL0     H36427  11.626   9.962   4.548  4.7268  1.4499 -1.6615
  264MOL0     H36428  11.447   9.654   4.823  1.4416 -2.0610 -0.2062
  264MOL0     H36429  11.870  10.147   5.243 -2.9554  2.8184  1.0837
  264MOL0     H36430  11.780  10.174   5.537 -0.3243 -1.4388 -0.7789
  264MOL0     H36431  11.798  10.256   5.388  0.8635 -2.0116 -0.0203
  264MOL0     H36432  11.634  10.230   5.451  0.4141  2.5033  0.9942
  265MOL0     O36433   6.676  11.147   8.183  0.4694  0.1813 -0.1935
  265MOL0     C36434   6.572  11.108   8.230 -0.7463  1.0508 -0.1218
  265MOL0     O36435   6.537  10.978   8.247  0.5156  0.3108  0.3580
  265MOL0     C36436   6.639  10.882   8.247 -0.1853  0.1405 -0.3264
  265MOL0     C36437   6.621  10.768   8.157 -0.1880 -0.7191  0.1488
  265MOL0     C36438   6.726  10.679   8.148  0.3208 -0.8481  0.0685
  265MOL0     C36439   6.843  10.693   8.231  0.2550 -0.2447 -0.3713
  265MOL0     O36440   6.927  10.589   8.228  0.0675 -0.0925  0.0845
  265MOL0     C36441   6.984  10.566   8.353  0.3962 -0.1112 -0.3777
  265MOL0     C36442   7.031  10.420   8.358  0.1318 -0.4247  0.3900
  265MOL0     C36443   7.109  10.368   8.479  0.8362 -0.4108  0.0427
  265MOL0     C36444   7.204  10.478   8.530 -0.0901 -0.0372  0.5382
  265MOL0     C36445   7.275  10.450   8.660 -0.5605  0.7803 -0.7509
  265MOL0     C36446   7.396  10.533   8.692 -1.0487 -0.0216  0.1303
  265MOL0     C36447   7.510  10.501   8.586  0.3795  0.2817 -0.3350
  265MOL0     C36448   7.645  10.490   8.643  0.0309 -0.3134 -0.0029
  265MOL0     N36449   7.751  10.493   8.539 -0.1398 -0.0447  0.6793
  265MOL0     C36450   7.817  10.375   8.483  0.1845 -0.5886 -0.0057
  265MOL0     C36451   7.924  10.415   8.414  0.6278 -0.0056 -0.7515
  265MOL0     C36452   8.036  10.334   8.355 -0.5045 -0.8005  0.2875
  265MOL0     C36453   8.102  10.258   8.469  0.5454 -0.0677 -0.1601
  265MOL0     C36454   8.240  10.206   8.404 -0.2016  0.4562 -0.3737
  265MOL0     C36455   8.322  10.098   8.480  1.2737  0.0985 -0.7994
  265MOL0     O36456   8.318  10.144   8.618 -0.4483  0.4310 -0.0804
  265MOL0     C36457   8.304  10.037   8.709  0.0562 -0.4356  0.0798
  265MOL0     C36458   8.276  10.091   8.837 -0.4150 -0.1860  0.3740
  265MOL0     C36459   8.258  10.015   8.948  0.1408 -0.4318  0.1112
  265MOL0     C36460   8.208  10.088   9.079  0.5333 -0.0891  0.1232
  265MOL0     C36461   8.257   9.875   8.933 -0.4205 -0.2930 -0.5906
  265MOL0     C36462   8.218   9.791   9.047  0.5579  0.5329  0.1700
  265MOL0     O36463   8.277   9.817   9.171 -0.1621 -0.3611  0.1709
  265MOL0     C36464   8.239   9.737   9.281  1.0361  0.6014  0.7539
  265MOL0     C36465   8.198   9.806   9.404 -0.0993 -0.0575 -0.3829
  265MOL0     C36466   8.167   9.733   9.514  0.3118  0.2519 -0.6055
  265MOL0     C36467   8.164   9.593   9.512 -0.6173 -0.5564  0.3855
  265MOL0     O36468   8.123   9.536   9.627 -0.3925 -0.4696 -0.4313
  265MOL0     C36469   8.107   9.390   9.634  1.0562 -0.0269  0.7317
  265MOL0     C36470   7.978   9.347   9.569  0.2124  0.0343  0.4090
  265MOL0     C36471   7.955   9.187   9.586  0.8080 -0.0916 -0.3581
  265MOL0     C36472   8.074   9.102   9.559 -1.0719 -0.4208  0.1772
  265MOL0     C36473   8.059   8.959   9.584 -0.6829  0.0768 -0.0765
  265MOL0     C36474   8.027   8.911   9.730  0.5770  0.2496 -0.2690
  265MOL0     C36475   8.008   8.767   9.737 -0.0621  0.2667  0.4975
  265MOL0     C36476   8.002   8.714   9.877 -0.7114 -0.3755  0.0490
  265MOL0    Cl36477   7.860   8.789   9.964 -0.5451  0.0953 -0.0121
  265MOL0     C36478   8.203   9.521   9.394  0.9482  0.1828  0.1425
  265MOL0     C36479   8.238   9.593   9.281  0.0086  0.6244 -0.8989
  265MOL0     O36480   8.142   9.694   9.018 -0.2127  0.0109 -0.4056
  265MOL0     C36481   8.291   9.817   8.816 -0.1259 -0.0690  0.1659
  265MOL0     C36482   8.317   9.899   8.703 -0.4326 -0.1425 -0.2650
  265MOL0     N36483   7.919  10.559   8.414  0.7561  0.7033  0.5915
  265MOL0     N36484   7.818  10.603   8.493  0.6971  0.6682 -0.6087
  265MOL0     C36485   6.860  10.807   8.306 -1.0463  0.3633 -0.1083
  265MOL0     C36486   6.755  10.906   8.316 -0.2186  0.0155 -0.1877
  265MOL0     C36487   6.456  11.196   8.237  0.3454 -0.2907  0.0808
  265MOL0     C36488   6.431  11.270   8.116  0.6630  0.4209 -0.6504
  265MOL0     C36489   6.319  11.349   8.106  0.2862 -0.6021  0.3925
  265MOL0     C36490   6.219  11.344   8.205 -0.8347  1.2014 -0.4932
  265MOL0     O36491   6.106  11.418   8.213 -0.0057 -0.4265 -0.5355
  265MOL0     C36492   6.075  11.507   8.108  0.3629 -0.1609 -0.1546
  265MOL0     C36493   5.933  11.495   8.086  0.9299  0.4882 -0.3226
  265MOL0     C36494   5.880  11.572   7.962  0.1515  1.2898 -0.7209
  265MOL0     C36495   5.743  11.630   7.999  0.4330 -0.2553 -0.1324
  265MOL0     C36496   5.759  11.733   8.100 -0.0688 -0.2305 -0.0422
  265MOL0     C36497   5.763  11.838   8.172 -0.6732 -0.0718 -0.0524
  265MOL0     C36498   6.242  11.269   8.323 -0.0008 -0.4444 -0.1427
  265MOL0     C36499   6.359  11.201   8.346 -0.6586  0.6668 -1.3937
  265MOL0     C36500   6.387  11.156   8.483  0.2590 -0.2488  0.1324
  265MOL0     H36501   6.522  10.764   8.114 -0.0517 -0.4011 -0.2006
  265MOL0     H36502   6.714  10.595   8.081 -2.7468 -0.3842 -0.1023
  265MOL0     H36503   6.920  10.592   8.437 -1.8162 -2.1208 -1.3285
  265MOL0     H36504   7.072  10.631   8.357  4.1809 -4.6134 -1.5451
  265MOL0     H36505   6.958  10.343   8.332  2.5998 -3.4593  1.8337
  265MOL0     H36506   7.096  10.405   8.271  1.0870 -2.3701  1.3723
  265MOL0     H36507   7.037  10.335   8.555  1.7108 -0.1542  1.0072
  265MOL0     H36508   7.158  10.272   8.460  1.9758 -0.2944  2.1063
  265MOL0     H36509   7.282  10.501   8.456 -1.9597 -1.5239 -2.0609
  265MOL0     H36510   7.139  10.563   8.553 -0.5237 -0.6424  1.5768
  265MOL0     H36511   7.311  10.347   8.670 -2.2610  0.1277 -0.9495
  265MOL0     H36512   7.194  10.449   8.734 -1.9016 -2.1161 -2.1157
  265MOL0     H36513   7.357  10.635   8.676 -2.3530 -0.3522  0.9989
  265MOL0     H36514   7.437  10.535   8.793 -1.1217  0.7042  0.1523
  265MOL0     H36515   7.514  10.576   8.507  0.8878  0.5269 -0.0827
  265MOL0     H36516   7.486  10.402   8.548 -2.4068 -0.7549  3.4632
  265MOL0     H36517   7.662  10.562   8.724  0.3897  2.3461 -2.3058
  265MOL0     H36518   7.662  10.386   8.674 -0.7057 -0.6520 -0.6965
  265MOL0     H36519   7.785  10.271   8.493  1.4341 -1.1622 -1.4888
  265MOL0     H36520   8.109  10.397   8.305  0.9526 -0.2031  2.9568
  265MOL0     H36521   7.983  10.263   8.291 -0.1232 -0.8681  0.0486
  265MOL0     H36522   8.128  10.312   8.560  3.8554 -1.6153 -0.0490
  265MOL0     H36523   8.037  10.175   8.498  0.3604  0.5317  1.2224
  265MOL0     H36524   8.204  10.154   8.314  2.4070  0.2485 -1.3821
  265MOL0     H36525   8.299  10.292   8.372 -2.7314  1.6362 -2.2284
  265MOL0     H36526   8.268  10.004   8.467 -2.6790  1.7126  1.9999
  265MOL0     H36527   8.421  10.086   8.435  2.2880 -1.2038  1.5752
  265MOL0     H36528   8.263  10.199   8.839 -3.9042 -0.5121  1.1919
  265MOL0     H36529   8.129  10.030   9.128 -2.1615  3.1441 -0.0337
  265MOL0     H36530   8.165  10.187   9.068  1.0597  0.1303  0.0007
  265MOL0     H36531   8.282  10.103   9.158  0.3913  0.1840  0.2053
  265MOL0     H36532   8.186   9.913   9.405 -1.1975 -0.1577 -0.8446
  265MOL0     H36533   8.134   9.784   9.604 -1.3479 -1.5134 -0.1564
  265MOL0     H36534   8.197   9.343   9.593  0.6081  0.5042 -0.9216
  265MOL0     H36535   8.111   9.365   9.741 -0.7161 -0.1450  0.7928
  265MOL0     H36536   7.891   9.394   9.616 -0.5404 -0.2351 -0.6920
  265MOL0     H36537   7.975   9.364   9.461 -0.0054 -4.3247 -0.4470
  265MOL0     H36538   7.873   9.147   9.525 -0.1765 -0.9610  1.4595
  265MOL0     H36539   7.932   9.173   9.692  1.3793  4.0931  0.4785
  265MOL0     H36540   8.149   9.145   9.627 -1.5253  0.4385  0.1574
  265MOL0     H36541   8.118   9.123   9.462 -2.9174  3.0519 -0.0990
  265MOL0     H36542   7.978   8.921   9.521  1.4504 -0.6306 -2.6042
  265MOL0     H36543   8.150   8.914   9.542  2.6864  3.8920  2.3809
  265MOL0     H36544   7.941   8.968   9.766 -1.0834 -2.8221  0.9703
  265MOL0     H36545   8.114   8.937   9.792 -0.1813 -0.5846  1.1747
  265MOL0     H36546   8.098   8.736   9.684 -2.0127 -0.2916 -2.7075
  265MOL0     H36547   7.926   8.733   9.672 -0.1117 -0.3786  0.8900
  265MOL0     H36548   8.090   8.748   9.932 -0.1974 -2.7002  0.7471
  265MOL0     H36549   7.995   8.605   9.881  0.8563 -0.5795 -1.4247
  265MOL0     H36550   8.198   9.413   9.386 -2.5239  0.3709 -2.9328
  265MOL0     H36551   8.259   9.545   9.186  5.2203  1.9099 -0.6934
  265MOL0     H36552   8.309   9.712   8.793  1.5632  0.0925  0.6006
  265MOL0     H36553   8.358   9.850   8.615 -0.3143 -0.0361 -0.2703
  265MOL0     H36554   6.954  10.832   8.355 -1.8567  0.8642  1.2642
  265MOL0     H36555   6.777  10.997   8.372  0.3807 -1.7630  2.6267
  265MOL0     H36556   6.506  11.261   8.038  1.7872 -0.0252  0.4419
  265MOL0     H36557   6.309  11.420   8.025  2.4480  2.8750  2.8518
  265MOL0     H36558   6.099  11.611   8.134 -0.5344  0.2763 -0.9573
  265MOL0     H36559   6.126  11.495   8.012  0.1977 -2.0558 -0.0389
  265MOL0     H36560   5.888  11.526   8.181  0.8041 -1.7110  0.3708
  265MOL0     H36561   5.922  11.387   8.078  3.6128  0.1912 -0.9083
  265MOL0     H36562   5.941  11.654   7.924  1.2668  0.9724  0.3322
  265MOL0     H36563   5.883  11.504   7.876  2.6670  2.4406 -1.6150
  265MOL0     H36564   5.685  11.544   8.034  3.5355 -2.5382 -0.1478
  265MOL0     H36565   5.695  11.675   7.912 -1.0395 -1.9662 -0.2587
  265MOL0     H36566   5.759  11.926   8.233 -0.0261  1.0084 -1.5361
  265MOL0     H36567   6.163  11.288   8.395 -0.3475  1.3872 -0.9479
  265MOL0     H36568   6.490  11.183   8.508 -0.0669  2.9993 -1.4789
  265MOL0     H36569   6.326  11.204   8.560  1.4219  0.6971  0.4968
  265MOL0     H36570   6.375  11.048   8.489  0.0986 -0.4544 -2.6005
  266MOL0     O36571   6.731   0.751   4.259  0.0068 -0.3649  0.0996
  266MOL0     C36572   6.808   0.811   4.176  0.0685 -0.4374  0.0261
  266MOL0     O36573   6.819   0.790   4.038  0.7789 -0.0644 -0.3741
  266MOL0     C36574   6.737   0.706   3.972 -0.2536 -0.6132  0.0844
  266MOL0     C36575   6.794   0.599   3.894 -0.4366 -0.2762 -0.2086
  266MOL0     C36576   6.707   0.503   3.834  0.5176  0.0064 -0.0301
  266MOL0     C36577   6.563   0.524   3.839 -0.6663 -0.2147 -0.4142
  266MOL0     O36578   6.476   0.453   3.761 -0.4340  0.3534 -0.6704
  266MOL0     C36579   6.491   0.312   3.744 -0.4162  0.5388  0.3309
  266MOL0     C36580   6.351   0.257   3.701 -0.1537  0.7554 -0.7151
  266MOL0     C36581   6.277   0.214   3.834  0.1306 -0.4786  0.2261
  266MOL0     C36582   6.144   0.300   3.874 -0.5647  0.3958  0.5051
  266MOL0     C36583   6.084   0.245   4.005  0.1772  0.1277 -0.1712
  266MOL0     C36584   6.161   0.272   4.138  0.4768  0.1246  0.2154
  266MOL0     C36585   6.201   0.408   4.158  0.4040  0.2739 -0.0352
  266MOL0     C36586   6.098   0.512   4.128 -0.2004  0.2149  0.1821
  266MOL0     N36587   6.154   0.638   4.171 -0.2598  0.9130  0.2804
  266MOL0     C36588   6.092   0.724   4.259 -0.3735  0.8518 -0.2664
  266MOL0     C36589   6.184   0.815   4.280 -0.4140  0.0699 -0.5885
  266MOL0     C36590   6.158   0.949   4.346 -0.4085 -0.6253  0.5134
  266MOL0     C36591   6.065   0.932   4.462  0.2146  0.0093  0.0954
  266MOL0     C36592   6.063   1.059   4.553 -0.4643  0.4314  0.1703
  266MOL0     C36593   5.934   1.042   4.641  0.1821 -0.3382  0.0217
  266MOL0     O36594   5.902   1.175   4.699  0.5860  0.5681 -0.0798
  266MOL0     C36595   6.013   1.251   4.732 -0.2817  0.2928  0.9823
  266MOL0     C36596   6.021   1.377   4.687  0.2300 -1.1572  0.4011
  266MOL0     C36597   6.122   1.467   4.730 -0.0181 -0.9826  0.2258
  266MOL0     C36598   6.105   1.616   4.697  0.8557 -0.5627 -0.6901
  266MOL0     C36599   6.226   1.417   4.808 -0.5331 -0.1193 -0.2133
  266MOL0     C36600   6.344   1.491   4.837  0.6173 -0.4023  0.0073
  266MOL0     O36601   6.417   1.450   4.945 -0.0027  0.2817  0.3214
  266MOL0     C36602   6.547   1.493   4.974  0.7308 -0.6754 -0.4157
  266MOL0     C36603   6.609   1.421   5.080 -0.4550  0.1575  0.0262
  266MOL0     C36604   6.746   1.433   5.114 -0.3671 -0.0296  0.2246
  266MOL0     C36605   6.814   1.538   5.055 -1.6052 -0.8017  0.4383
  266MOL0     O36606   6.942   1.557   5.096 -0.7234 -0.4366  0.5733
  266MOL0     C36607   7.031   1.552   4.982  0.8027 -0.3640  0.8972
  266MOL0     C36608   7.173   1.542   5.047  0.4729  0.4221  0.2782
  266MOL0     C36609   7.273   1.558   4.935  0.2382 -0.1431  1.0460
  266MOL0     C36610   7.405   1.526   4.988 -0.7645  0.4435  0.2649
  266MOL0     C36611   7.508   1.539   4.877 -0.1647  0.2787  0.4845
  266MOL0     C36612   7.550   1.682   4.836  0.5030  0.2924  0.4896
  266MOL0     C36613   7.665   1.746   4.913 -0.3472 -0.9260 -0.7559
  266MOL0     C36614   7.796   1.678   4.909  0.0371 -0.6266  0.6760
  266MOL0    Cl36615   7.902   1.793   4.999 -0.2697  0.1899 -0.0986
  266MOL0     C36616   6.754   1.618   4.969 -0.0975 -0.4489 -0.4152
  266MOL0     C36617   6.618   1.601   4.916  0.7865  0.0733 -0.6468
  266MOL0     O36618   6.378   1.585   4.769  1.0719  0.3916  0.4205
  266MOL0     C36619   6.211   1.279   4.851 -0.0671 -0.4986 -0.0449
  266MOL0     C36620   6.099   1.203   4.821 -0.6405 -0.1453 -1.1972
  266MOL0     N36621   6.296   0.794   4.198 -0.5057  0.5904 -0.0236
  266MOL0     N36622   6.277   0.686   4.132  0.1839  0.3034 -0.0468
  266MOL0     C36623   6.512   0.626   3.919  0.6037 -0.8224  0.3909
  266MOL0     C36624   6.601   0.718   3.981  0.4850 -0.4720  0.2312
  266MOL0     C36625   6.894   0.904   4.246 -0.1394 -0.7539  0.2148
  266MOL0     C36626   7.020   0.918   4.181 -0.1723  0.2966 -0.4689
  266MOL0     C36627   7.115   1.007   4.234  0.1215  0.1292  0.1373
  266MOL0     C36628   7.088   1.093   4.349 -0.6790 -0.8499  1.4587
  266MOL0     O36629   7.169   1.188   4.398  1.0150  0.2668 -0.3601
  266MOL0     C36630   7.247   1.261   4.307 -0.2138  0.2193  0.6967
  266MOL0     C36631   7.304   1.388   4.375  0.4975 -0.4254  0.3878
  266MOL0     C36632   7.188   1.493   4.403 -0.4306 -0.6815 -0.1585
  266MOL0     C36633   7.234   1.606   4.503 -0.1265 -0.0575  0.1759
  266MOL0     C36634   7.115   1.683   4.555 -0.5078  0.6621 -0.3604
  266MOL0     C36635   7.012   1.715   4.602 -0.1855  0.6188  0.0463
  266MOL0     C36636   6.970   1.077   4.405  0.3325  0.0779  1.0265
  266MOL0     C36637   6.868   0.987   4.359  0.1804 -1.1324  0.0121
  266MOL0     C36638   6.726   0.985   4.420 -0.3885  0.7255 -0.6538
  266MOL0     H36639   6.903   0.598   3.892 -0.4455 -0.7215 -0.9161
  266MOL0     H36640   6.752   0.422   3.778  0.1626 -0.5244  0.4355
  266MOL0     H36641   6.538   0.265   3.831  1.2283 -0.5624 -1.0681
  266MOL0     H36642   6.567   0.293   3.667 -2.7802  1.6094 -2.4389
  266MOL0     H36643   6.297   0.331   3.641 -1.7902  0.2807  0.1438
  266MOL0     H36644   6.376   0.164   3.649  0.6974 -0.6566  2.0612
  266MOL0     H36645   6.244   0.111   3.821  0.0214 -0.5835  1.2034
  266MOL0     H36646   6.344   0.210   3.921  0.8091 -0.5669 -0.2976
  266MOL0     H36647   6.164   0.407   3.884 -0.3515  0.2700  1.5460
  266MOL0     H36648   6.074   0.275   3.794  3.0728 -0.5927 -2.7223
  266MOL0     H36649   6.078   0.136   4.015  0.5743  0.2902  2.6773
  266MOL0     H36650   5.984   0.287   4.019 -1.0068 -1.8786 -1.9589
  266MOL0     H36651   6.101   0.243   4.225 -1.9533  1.4496 -0.9145
  266MOL0     H36652   6.251   0.211   4.137  2.7731  3.2344  0.3498
  266MOL0     H36653   6.291   0.420   4.098  0.6187 -0.5222  0.1129
  266MOL0     H36654   6.232   0.409   4.263 -2.4059 -0.9591  0.9012
  266MOL0     H36655   6.073   0.510   4.021  0.1386  2.0908  0.0294
  266MOL0     H36656   5.996   0.509   4.167  0.1791  2.7683  1.5836
  266MOL0     H36657   5.990   0.721   4.297 -0.0384 -1.6457  0.6091
  266MOL0     H36658   6.120   1.028   4.281  1.8706 -1.1772 -1.6537
  266MOL0     H36659   6.255   0.978   4.388  1.2011 -1.6673 -2.2090
  266MOL0     H36660   5.963   0.918   4.423 -1.1738  0.4129  3.2634
  266MOL0     H36661   6.085   0.856   4.537  0.8133  1.2192  1.2030
  266MOL0     H36662   6.156   1.059   4.611  0.7084  1.9556 -1.5879
  266MOL0     H36663   6.057   1.153   4.497  1.2796  1.8926  2.2257
  266MOL0     H36664   5.841   1.024   4.586  0.3364 -1.1906  0.0351
  266MOL0     H36665   5.949   0.978   4.728 -1.9282  1.5238  1.9131
  266MOL0     H36666   5.938   1.402   4.622  0.4489 -3.1680 -0.7262
  266MOL0     H36667   6.005   1.623   4.653 -0.7375 -0.5896  2.5817
  266MOL0     H36668   6.172   1.637   4.613 -0.4252 -1.3374 -1.9423
  266MOL0     H36669   6.112   1.686   4.781 -0.8905  1.8125 -2.3525
  266MOL0     H36670   6.574   1.339   5.142  0.4111  1.2924  2.1180
  266MOL0     H36671   6.804   1.363   5.173 -0.9270 -0.4423  0.2950
  266MOL0     H36672   6.997   1.465   4.925 -0.9347  0.4691  0.5860
  266MOL0     H36673   7.026   1.628   4.903  2.3041 -1.9962 -0.8847
  266MOL0     H36674   7.176   1.635   5.105 -1.8561  1.1958 -0.7327
  266MOL0     H36675   7.187   1.453   5.109 -1.4120 -1.8675 -2.3537
  266MOL0     H36676   7.259   1.657   4.891 -1.5434 -0.1449  1.5230
  266MOL0     H36677   7.239   1.479   4.867 -0.6953  1.9660 -1.0730
  266MOL0     H36678   7.408   1.424   5.027 -1.5489  0.3093 -0.0170
  266MOL0     H36679   7.430   1.591   5.072 -0.4182  0.3160  0.2656
  266MOL0     H36680   7.595   1.476   4.902  0.0249 -0.6292 -2.1292
  266MOL0     H36681   7.470   1.483   4.792 -2.1413  2.1165  0.0868
  266MOL0     H36682   7.467   1.754   4.831  0.8990  0.8264  1.4923
  266MOL0     H36683   7.581   1.675   4.731  1.0365  2.0035  0.4933
  266MOL0     H36684   7.651   1.759   5.020  1.5688 -0.2984 -0.5352
  266MOL0     H36685   7.683   1.845   4.870 -2.6023 -0.2154 -0.1779
  266MOL0     H36686   7.831   1.668   4.806 -0.3078 -2.0813  0.6769
  266MOL0     H36687   7.786   1.582   4.961 -1.6764 -1.2708 -0.7439
  266MOL0     H36688   6.796   1.712   4.936  0.2580 -0.5902 -0.3713
  266MOL0     H36689   6.578   1.683   4.858  2.7623  2.3201  0.9825
  266MOL0     H36690   6.283   1.244   4.924 -3.0420  1.6306  4.4268
  266MOL0     H36691   6.085   1.101   4.857 -0.7601  1.1540  3.0688
  266MOL0     H36692   6.405   0.642   3.930  0.5450 -1.6790  1.1329
  266MOL0     H36693   6.556   0.802   4.033  3.4150  1.6475 -0.4084
  266MOL0     H36694   7.045   0.877   4.083  2.1974  1.9011 -0.6340
  266MOL0     H36695   7.200   1.023   4.167 -1.2688 -0.3319 -1.8362
  266MOL0     H36696   7.326   1.197   4.265 -0.5113  0.5066 -0.3327
  266MOL0     H36697   7.183   1.299   4.227 -1.9906 -0.2723  1.8512
  266MOL0     H36698   7.369   1.433   4.299  2.2694  0.5583  2.3762
  266MOL0     H36699   7.378   1.363   4.452  0.1894  0.8080  1.1030
  266MOL0     H36700   7.147   1.533   4.310  2.1087 -0.7849 -1.4163
  266MOL0     H36701   7.099   1.448   4.447 -0.7504 -0.1267 -0.2344
  266MOL0     H36702   7.296   1.672   4.442 -1.4677 -0.8474 -2.1882
  266MOL0     H36703   7.288   1.570   4.592  1.7250  0.5284 -0.6649
  266MOL0     H36704   6.928   1.735   4.665  0.4723 -1.3111  1.6583
  266MOL0     H36705   6.945   1.144   4.487 -1.6770  0.0988  0.4357
  266MOL0     H36706   6.657   0.970   4.336 -0.9979 -1.3768  0.1458
  266MOL0     H36707   6.714   0.910   4.499 -2.8139  0.0096 -1.5952
  266MOL0     H36708   6.707   1.080   4.471  1.0494  1.6993 -1.8439
  267MOL0     O36709   3.225   7.839  10.652  0.4892  0.2231 -0.1380
  267MOL0     C36710   3.182   7.787  10.759 -0.5362  0.3164 -0.8637
  267MOL0     O36711   3.186   7.652  10.788 -0.8834 -1.0512  0.9776
  267MOL0     C36712   3.232   7.570  10.690  0.2856 -0.0923 -0.4457
  267MOL0     C36713   3.142   7.471  10.658  0.4011 -0.5650  0.5072
  267MOL0     C36714   3.183   7.370  10.567  0.3651  0.2853 -0.9160
  267MOL0     C36715   3.309   7.379  10.502  0.0263  0.2809 -0.3126
  267MOL0     O36716   3.340   7.281  10.407  0.3672 -0.5779  0.6569
  267MOL0     C36717   3.433   7.298  10.297  1.1143 -0.4720  0.2595
  267MOL0     C36718   3.379   7.404  10.200 -0.0192  0.2912 -0.1583
  267MOL0     C36719   3.241   7.374  10.134 -0.2852  0.1983 -0.7577
  267MOL0     C36720   3.174   7.506  10.112  0.3124 -0.5958 -1.2200
  267MOL0     C36721   3.083   7.538  10.231  0.2640 -0.4185 -0.4887
  267MOL0     C36722   3.012   7.678  10.216 -0.5221  0.6454 -0.5049
  267MOL0     C36723   2.907   7.730  10.315 -0.1794 -0.7227  0.0747
  267MOL0     C36724   2.976   7.778  10.443  0.0885  0.9340 -0.1896
  267MOL0     N36725   2.891   7.788  10.567 -0.5989  0.1285  0.9777
  267MOL0     C36726   2.789   7.882  10.576 -0.3158  0.0137  1.0378
  267MOL0     C36727   2.711   7.842  10.675 -0.4941  0.8546 -1.0232
  267MOL0     C36728   2.588   7.919  10.714  0.6782 -0.4103  0.5560
  267MOL0     C36729   2.476   7.886  10.621  0.1882  0.3709  0.5006
  267MOL0     C36730   2.344   7.924  10.676 -0.6101  0.3812  0.7063
  267MOL0     C36731   2.335   8.073  10.703  0.4671 -0.4320  0.0498
  267MOL0     O36732   2.208   8.103  10.759 -0.1862 -0.6270  0.1126
  267MOL0     C36733   2.201   8.222  10.814  0.0053  0.4458  0.6562
  267MOL0     C36734   2.150   8.215  10.944 -0.4171  1.1540 -0.1509
  267MOL0     C36735   2.116   8.329  11.014 -1.0825 -0.1166  0.1473
  267MOL0     C36736   2.037   8.309  11.138 -0.0894 -0.0982 -0.4200
  267MOL0     C36737   2.150   8.460  10.958  0.3225  0.5719 -0.8185
  267MOL0     C36738   2.146   8.588  11.031 -0.2312  1.0695  0.2284
  267MOL0     O36739   2.046   8.593  11.119  0.6719  0.9311 -0.7615
  267MOL0     C36740   2.014   8.712  11.191 -0.7941  0.7026 -0.1323
  267MOL0     C36741   1.930   8.809  11.138  0.1508  0.3309  0.0029
  267MOL0     C36742   1.918   8.934  11.197 -0.9533 -0.3636  0.8931
  267MOL0     C36743   2.000   8.966  11.305 -0.4760  0.4299  0.7781
  267MOL0     O36744   2.000   9.086  11.370 -0.4544 -0.3606  0.5020
  267MOL0     C36745   2.024   9.198  11.288 -0.4491 -0.5141  1.2483
  267MOL0     C36746   2.166   9.257  11.292 -0.0560  0.3966 -0.0255
  267MOL0     C36747   2.189   9.400  11.241 -0.0502 -0.4708  0.7351
  267MOL0     C36748   2.321   9.467  11.246  0.9201 -0.3906 -0.3895
  267MOL0     C36749   2.289   9.615  11.249 -0.1530  0.5422 -0.5646
  267MOL0     C36750   2.420   9.687  11.229 -1.5678  0.0404 -0.2203
  267MOL0     C36751   2.406   9.843  11.259  0.0194 -0.6134 -0.2175
  267MOL0     C36752   2.391   9.895  11.396 -0.3489  1.8889 -0.2065
  267MOL0    Cl36753   2.535   9.853  11.485 -0.0832  0.0772  0.0820
  267MOL0     C36754   2.081   8.871  11.356 -0.1559 -0.4883 -0.3475
  267MOL0     C36755   2.077   8.741  11.314 -0.5045 -0.1551  0.3893
  267MOL0     O36756   2.214   8.689  11.005 -0.5012 -0.0101 -0.2296
  267MOL0     C36757   2.218   8.458  10.834  0.3695  1.2352 -0.7173
  267MOL0     C36758   2.235   8.344  10.759  0.0661 -0.0340  0.6764
  267MOL0     N36759   2.765   7.720  10.725 -0.0998 -0.4570 -0.0302
  267MOL0     N36760   2.871   7.689  10.657 -0.3266  0.5172  0.2073
  267MOL0     C36761   3.399   7.480  10.549  0.4441  0.6335  0.2949
  267MOL0     C36762   3.359   7.572  10.644 -0.4620  0.2932  0.2163
  267MOL0     C36763   3.122   7.878  10.868 -0.2417 -0.6644  0.0447
  267MOL0     C36764   3.027   7.824  10.956 -1.2393 -0.5973  1.1472
  267MOL0     C36765   2.958   7.918  11.040  0.3817 -0.4774  0.4361
  267MOL0     C36766   2.971   8.051  11.030 -0.3828  0.2328  0.2858
  267MOL0     O36767   2.888   8.142  11.097 -0.7399 -0.0528 -0.6912
  267MOL0     C36768   2.811   8.102  11.206 -0.2836  0.6640  0.1720
  267MOL0     C36769   2.828   8.190  11.328  0.2648 -0.9447  0.9138
  267MOL0     C36770   2.783   8.344  11.302  0.0201  0.7137 -0.3082
  267MOL0     C36771   2.761   8.416  11.439 -0.8514  0.2074  0.9953
  267MOL0     C36772   2.678   8.355  11.534  0.3605 -0.2374 -0.0641
  267MOL0     C36773   2.636   8.298  11.631 -0.0995  0.0658  0.2019
  267MOL0     C36774   3.059   8.103  10.938  0.0225  0.5252  1.0734
  267MOL0     C36775   3.142   8.021  10.861  0.1526  0.2751 -0.3896
  267MOL0     C36776   3.252   8.103  10.782  0.6139  0.1745 -0.3637
  267MOL0     H36777   3.046   7.464  10.707 -0.5015  0.2081 -1.0726
  267MOL0     H36778   3.111   7.290  10.551  1.5654 -1.1981  0.7714
  267MOL0     H36779   3.444   7.200  10.249 -2.0684 -2.4486  3.0971
  267MOL0     H36780   3.528   7.323  10.345  1.0086  3.7724 -1.3241
  267MOL0     H36781   3.365   7.497  10.256 -4.9424 -0.3914  0.2226
  267MOL0     H36782   3.442   7.420  10.112  1.5486 -1.3969  0.6099
  267MOL0     H36783   3.265   7.324  10.040 -2.9968  3.2223 -3.2975
  267MOL0     H36784   3.169   7.309  10.184 -0.3986  0.3018 -0.7854
  267MOL0     H36785   3.248   7.587  10.111  0.7071 -0.8735  0.8985
  267MOL0     H36786   3.125   7.502  10.014  3.2450  0.4069 -2.8618
  267MOL0     H36787   3.130   7.530  10.330  1.1731 -2.4455 -1.0389
  267MOL0     H36788   3.003   7.465  10.219  0.0999  0.1357 -3.4943
  267MOL0     H36789   3.082   7.761  10.201 -0.4230  0.2312 -2.7112
  267MOL0     H36790   2.965   7.672  10.117 -0.4020 -0.0920 -0.5290
  267MOL0     H36791   2.831   7.653  10.329 -0.9356 -0.3522 -1.7696
  267MOL0     H36792   2.867   7.823  10.274  1.4502  0.2113  0.5095
  267MOL0     H36793   3.049   7.698  10.462 -3.1971 -2.4583 -0.5442
  267MOL0     H36794   3.025   7.874  10.424  0.1902  0.9302  0.0574
  267MOL0     H36795   2.784   7.963  10.504 -0.2942  1.1185  2.2349
  267MOL0     H36796   2.614   8.024  10.706 -0.6382  0.1072  2.3177
  267MOL0     H36797   2.553   7.901  10.816 -1.6495 -0.7568 -0.2294
  267MOL0     H36798   2.495   7.934  10.524  2.9447 -0.9478  0.2724
  267MOL0     H36799   2.474   7.778  10.601 -1.0830  0.6120 -0.9093
  267MOL0     H36800   2.265   7.900  10.604  1.0835 -0.2201 -1.0458
  267MOL0     H36801   2.312   7.872  10.766 -1.8431  1.5807  0.9954
  267MOL0     H36802   2.401   8.100  10.786 -0.0587 -2.7092  1.2918
  267MOL0     H36803   2.363   8.138  10.620  0.8148  0.2724  0.7059
  267MOL0     H36804   2.136   8.123  10.999  2.2228  2.1930  2.5431
  267MOL0     H36805   1.980   8.215  11.137 -1.6976  0.8340  0.3857
  267MOL0     H36806   1.969   8.392  11.158  1.0671  0.6064  0.7671
  267MOL0     H36807   2.105   8.307  11.224  0.4190 -1.8131 -0.8196
  267MOL0     H36808   1.865   8.789  11.054  1.4598  0.1292 -0.9894
  267MOL0     H36809   1.847   9.004  11.154 -3.2756 -0.9957  3.3945
  267MOL0     H36810   1.997   9.174  11.185 -0.3687 -0.3807  1.1955
  267MOL0     H36811   1.959   9.270  11.339  0.9644  0.4204  1.7919
  267MOL0     H36812   2.208   9.261  11.393  1.6905 -1.5968 -0.5759
  267MOL0     H36813   2.235   9.190  11.240 -1.2292 -1.6270  0.9011
  267MOL0     H36814   2.135   9.458  11.316 -2.3768  0.6594 -1.6247
  267MOL0     H36815   2.152   9.409  11.138  1.3873 -4.2890 -0.2748
  267MOL0     H36816   2.370   9.440  11.152  4.2769 -2.3474  1.7561
  267MOL0     H36817   2.382   9.435  11.330  1.7036 -0.3420 -0.9328
  267MOL0     H36818   2.220   9.653  11.173 -0.8071  2.4039  0.8822
  267MOL0     H36819   2.244   9.643  11.344 -1.8589 -1.2675 -0.7719
  267MOL0     H36820   2.450   9.672  11.125 -2.7566 -0.0341 -0.5635
  267MOL0     H36821   2.496   9.639  11.293 -0.5750  0.9128 -0.7206
  267MOL0     H36822   2.315   9.881  11.211 -0.0060 -0.7825 -0.3053
  267MOL0     H36823   2.499   9.886  11.220 -0.5554  0.8702 -0.0334
  267MOL0     H36824   2.308   9.846  11.449  3.6409 -2.2809  3.0996
  267MOL0     H36825   2.380  10.003  11.403  0.0165  1.8713  0.9847
  267MOL0     H36826   2.154   8.892  11.433  0.3932  0.9940 -1.2381
  267MOL0     H36827   2.152   8.682  11.366  1.4808  1.4464 -0.5121
  267MOL0     H36828   2.245   8.554  10.790  0.5128  0.7672 -1.6791
  267MOL0     H36829   2.276   8.359  10.660 -2.5832  1.1864 -0.3285
  267MOL0     H36830   3.497   7.492  10.505  0.1692  0.4039 -0.3919
  267MOL0     H36831   3.434   7.644  10.677  1.9458 -1.8505 -0.2384
  267MOL0     H36832   3.015   7.716  10.965 -2.0560 -0.6911 -0.6414
  267MOL0     H36833   2.885   7.872  11.106 -0.1536 -1.4131 -0.7701
  267MOL0     H36834   2.705   8.113  11.179 -1.0655 -2.8120  1.3729
  267MOL0     H36835   2.837   8.002  11.241 -0.7352 -1.2761 -4.3339
  267MOL0     H36836   2.936   8.186  11.341  0.8321 -2.8871 -2.9404
  267MOL0     H36837   2.769   8.141  11.406 -1.8529  2.3258  1.5919
  267MOL0     H36838   2.871   8.392  11.258 -0.1340  0.6576 -0.6819
  267MOL0     H36839   2.698   8.354  11.233  0.3574  0.5795 -0.7483
  267MOL0     H36840   2.724   8.515  11.414  0.1960  0.3461 -0.0668
  267MOL0     H36841   2.855   8.434  11.492  0.7055  0.2888 -1.6177
  267MOL0     H36842   2.601   8.238  11.713  0.6182  1.4630  1.5704
  267MOL0     H36843   3.064   8.211  10.931  0.5183  0.6281  2.6026
  267MOL0     H36844   3.348   8.051  10.782  0.9706  0.8128  0.2874
  267MOL0     H36845   3.212   8.111  10.680 -1.0749 -2.1804  0.0527
  267MOL0     H36846   3.271   8.206  10.813 -1.8437 -0.0015  2.0909
  268MOL0     O36847   7.401   4.957  11.021 -0.1522  0.6490 -0.2588
  268MOL0     C36848   7.347   4.990  11.125  0.8387  0.1737  0.2874
  268MOL0     O36849   7.217   5.034  11.131 -0.1305 -0.2590 -0.9304
  268MOL0     C36850   7.171   5.104  11.021  0.3589  0.3096 -0.0307
  268MOL0     C36851   7.211   5.236  11.012 -0.4016 -0.0842 -1.0113
  268MOL0     C36852   7.172   5.318  10.910  0.2051 -0.4488  0.6470
  268MOL0     C36853   7.092   5.266  10.811 -1.0378 -0.9619 -0.9000
  268MOL0     O36854   7.059   5.360  10.725 -0.1260 -0.3242  0.3189
  268MOL0     C36855   6.987   5.321  10.609 -0.1033  0.0672 -0.4890
  268MOL0     C36856   6.973   5.429  10.501 -0.4841  0.9414  0.5500
  268MOL0     C36857   7.105   5.505  10.457  0.6718 -0.1712  0.0482
  268MOL0     C36858   7.084   5.596  10.340  0.1573  0.3285 -0.4683
  268MOL0     C36859   6.981   5.552  10.231 -0.2067 -0.0127  0.4507
  268MOL0     C36860   6.961   5.653  10.110 -0.0130  0.0924  0.8785
  268MOL0     C36861   7.094   5.636  10.019  0.3710 -0.7323 -2.1965
  268MOL0     C36862   7.078   5.717   9.893  0.4680  0.2896 -0.6949
  268MOL0     N36863   7.196   5.695   9.803  0.3683  0.0721  0.4091
  268MOL0     C36864   7.285   5.791   9.760 -0.5781  1.5904 -0.2991
  268MOL0     C36865   7.381   5.725   9.694 -0.1862  0.5584 -0.6416
  268MOL0     C36866   7.509   5.785   9.634  0.7039 -0.5842 -0.1040
  268MOL0     C36867   7.471   5.844   9.503 -0.2758  0.6916  0.2909
  268MOL0     C36868   7.581   5.926   9.442 -0.1578 -0.4061 -0.1310
  268MOL0     C36869   7.557   5.986   9.306 -0.1019  0.1317  0.5153
  268MOL0     O36870   7.413   6.023   9.291 -0.3603 -0.1700  0.8047
  268MOL0     C36871   7.341   6.002   9.164 -0.4067  0.2762 -0.3593
  268MOL0     C36872   7.214   6.039   9.164  0.0292 -1.3030  0.1732
  268MOL0     C36873   7.131   6.030   9.047 -0.1810  0.9193  0.5610
  268MOL0     C36874   6.990   6.079   9.065  0.3826 -0.9139  0.3551
  268MOL0     C36875   7.181   5.993   8.923  0.2561 -0.2372 -0.5743
  268MOL0     C36876   7.109   5.997   8.794 -0.0381 -0.3218  0.2079
  268MOL0     O36877   7.099   6.104   8.709 -0.1587  0.4578 -0.1994
  268MOL0     C36878   7.189   6.204   8.727 -0.2636 -0.5021 -0.3433
  268MOL0     C36879   7.312   6.199   8.650 -0.1133 -0.2694  0.4723
  268MOL0     C36880   7.418   6.284   8.654  0.4268 -0.8624  0.4860
  268MOL0     C36881   7.391   6.402   8.727  0.7559 -1.3471  1.2917
  268MOL0     O36882   7.483   6.506   8.734  0.3113  0.1239 -0.9305
  268MOL0     C36883   7.606   6.486   8.663 -0.0923  0.5790 -0.2380
  268MOL0     C36884   7.686   6.617   8.682  0.4342  0.3121  0.7171
  268MOL0     C36885   7.821   6.611   8.606  0.4348 -0.3278 -0.3174
  268MOL0     C36886   7.832   6.591   8.459  1.1603 -0.1233  0.0490
  268MOL0     C36887   7.966   6.621   8.406  0.3380 -0.1719 -0.2985
  268MOL0     C36888   7.977   6.618   8.250  0.2565  0.7142 -0.0930
  268MOL0     C36889   7.866   6.700   8.184 -0.8875  0.4355  0.2522
  268MOL0     C36890   7.880   6.723   8.029 -0.0442 -0.1121  0.2557
  268MOL0    Cl36891   7.726   6.771   7.965 -0.0907 -0.6347  0.1222
  268MOL0     C36892   7.273   6.418   8.800 -0.3637  0.0906  0.1372
  268MOL0     C36893   7.176   6.320   8.805  0.9624 -0.8239  0.1675
  268MOL0     O36894   7.048   5.891   8.782  0.6958  0.5354  0.1513
  268MOL0     C36895   7.323   5.951   8.918  0.1479 -0.0380 -0.2646
  268MOL0     C36896   7.397   5.962   9.038 -1.2571 -0.1058  0.4145
  268MOL0     N36897   7.340   5.592   9.686 -1.1228  0.1275  0.2221
  268MOL0     N36898   7.224   5.578   9.743  0.5467 -0.1117 -1.0177
  268MOL0     C36899   7.041   5.132  10.819 -0.7881 -0.7124 -0.6212
  268MOL0     C36900   7.081   5.053  10.929  0.1871  0.5202 -0.6274
  268MOL0     C36901   7.419   4.973  11.253  0.1836  0.5462  0.0134
  268MOL0     C36902   7.344   5.013  11.365  1.4736  0.6830  0.4047
  268MOL0     C36903   7.403   4.997  11.489 -0.0964 -0.2985 -0.4933
  268MOL0     C36904   7.536   4.963  11.513 -0.2433  0.3717  0.5613
  268MOL0     O36905   7.596   4.960  11.630  0.2561 -0.1880 -0.0221
  268MOL0     C36906   7.651   5.093  11.647 -0.4842  0.4974 -0.2804
  268MOL0     C36907   7.564   5.191  11.717  0.0402 -0.7329 -0.2986
  268MOL0     C36908   7.629   5.333  11.731 -0.8456  0.9914 -0.0845
  268MOL0     C36909   7.716   5.334  11.859  0.7360 -0.1118 -0.3702
  268MOL0     C36910   7.782   5.463  11.891  0.6036  0.7634 -0.1030
  268MOL0     C36911   7.853   5.562  11.903 -0.0286 -0.1708 -0.0800
  268MOL0     C36912   7.620   4.927  11.398  0.0248 -0.1834  0.3452
  268MOL0     C36913   7.554   4.934  11.268 -0.5526 -0.9164  0.0244
  268MOL0     C36914   7.645   4.884  11.159  0.1333 -1.1394 -0.5200
  268MOL0     H36915   7.293   5.265  11.077  0.1567 -2.6666 -0.4734
  268MOL0     H36916   7.210   5.420  10.915 -4.2242  1.3644  1.3084
  268MOL0     H36917   6.886   5.292  10.636  0.4431  0.7221  2.5640
  268MOL0     H36918   7.045   5.239  10.566 -1.4181 -0.4770 -1.2877
  268MOL0     H36919   6.938   5.384  10.408 -0.7625  0.4766  0.8820
  268MOL0     H36920   6.898   5.498  10.542 -0.0782 -0.7227  4.5787
  268MOL0     H36921   7.146   5.570  10.535  1.1444 -1.5825  1.0029
  268MOL0     H36922   7.182   5.434  10.428 -0.4467 -1.2284 -0.4300
  268MOL0     H36923   7.056   5.694  10.379  0.1877  0.6719 -1.2835
  268MOL0     H36924   7.183   5.611  10.296 -0.3343 -0.7129 -2.0143
  268MOL0     H36925   6.884   5.532  10.278 -1.1794 -0.6270 -1.7344
  268MOL0     H36926   7.013   5.455  10.192 -1.6057 -0.6743  0.8670
  268MOL0     H36927   6.876   5.622  10.048 -0.3184 -0.3798  1.5141
  268MOL0     H36928   6.924   5.753  10.135 -0.9913  0.2895 -1.2078
  268MOL0     H36929   7.123   5.534   9.995  2.1268 -0.6902 -0.5038
  268MOL0     H36930   7.185   5.666  10.072  0.4326 -2.6506 -1.1327
  268MOL0     H36931   6.987   5.684   9.843 -0.0749  2.0090 -0.8913
  268MOL0     H36932   7.068   5.825   9.911 -0.7634  0.6996 -3.4533
  268MOL0     H36933   7.284   5.896   9.785 -1.2294  1.2402  1.2603
  268MOL0     H36934   7.589   5.711   9.622  0.9764 -0.2374 -0.4515
  268MOL0     H36935   7.553   5.855   9.705 -4.2279  1.1648  1.6871
  268MOL0     H36936   7.432   5.767   9.437 -0.3951 -0.0563  1.2151
  268MOL0     H36937   7.383   5.906   9.521  0.7918  2.8104 -1.3654
  268MOL0     H36938   7.587   6.012   9.509 -1.9137  0.4105 -0.9643
  268MOL0     H36939   7.669   5.861   9.452  0.8603  1.0550  0.9130
  268MOL0     H36940   7.629   6.068   9.295  1.2349 -0.7542  2.2812
  268MOL0     H36941   7.577   5.905   9.235 -2.2452 -2.8941  3.0809
  268MOL0     H36942   7.180   6.101   9.246 -0.7748  0.4127 -1.3793
  268MOL0     H36943   6.959   6.127   8.972  2.2435 -2.1469 -0.9723
  268MOL0     H36944   6.973   6.151   9.146  2.2013  0.2249 -0.2043
  268MOL0     H36945   6.929   5.989   9.071 -1.2052 -0.1331 -2.3271
  268MOL0     H36946   7.335   6.113   8.588 -3.3284 -0.4660 -0.6229
  268MOL0     H36947   7.507   6.257   8.597  2.1939  1.9590  1.7159
  268MOL0     H36948   7.667   6.404   8.702 -0.6068 -1.5740 -3.5049
  268MOL0     H36949   7.596   6.482   8.554  1.4447  1.5811 -0.4509
  268MOL0     H36950   7.626   6.703   8.652 -1.2101 -1.3154 -0.9549
  268MOL0     H36951   7.706   6.627   8.789 -1.9215 -2.5087  1.5620
  268MOL0     H36952   7.894   6.550   8.660 -0.0088 -3.2383 -2.7932
  268MOL0     H36953   7.850   6.717   8.606 -0.0618 -0.1883 -0.8212
  268MOL0     H36954   7.769   6.666   8.412  2.5824  1.3490  0.3965
  268MOL0     H36955   7.806   6.488   8.432 -1.4713  0.4920  0.0395
  268MOL0     H36956   8.000   6.719   8.441  0.4082  0.3053 -1.6614
  268MOL0     H36957   8.034   6.548   8.451 -0.6036 -0.6906  0.3237
  268MOL0     H36958   7.968   6.515   8.215 -1.0790  0.3163  1.3140
  268MOL0     H36959   8.071   6.666   8.219  1.8995  0.5897  4.0962
  268MOL0     H36960   7.839   6.786   8.246  0.4359  0.1752  1.2522
  268MOL0     H36961   7.778   6.636   8.192 -0.9384  0.6096  1.2035
  268MOL0     H36962   7.919   6.631   7.985 -1.1972 -0.1259 -0.7668
  268MOL0     H36963   7.951   6.805   8.009  0.1859 -0.6968 -1.5112
  268MOL0     H36964   7.255   6.500   8.869 -0.4307  1.2829 -1.2446
  268MOL0     H36965   7.089   6.339   8.866  1.4825  0.7254  0.4724
  268MOL0     H36966   7.367   5.919   8.824 -1.2482 -1.2219 -0.5466
  268MOL0     H36967   7.505   5.948   9.031 -0.6203  3.7948  0.5277
  268MOL0     H36968   6.965   5.093  10.752  0.4945  0.3271 -2.7892
  268MOL0     H36969   7.039   4.957  10.957 -0.9187  1.9442  3.3639
  268MOL0     H36970   7.239   5.035  11.355  0.3198 -3.2250  2.1404
  268MOL0     H36971   7.351   5.027  11.579  2.5442  0.3666  0.9420
  268MOL0     H36972   7.737   5.069  11.711 -2.6053 -1.1484  2.1637
  268MOL0     H36973   7.689   5.139  11.556  3.0529  1.0086  1.2583
  268MOL0     H36974   7.538   5.147  11.814 -2.0292  0.4756 -0.2421
  268MOL0     H36975   7.469   5.197  11.662 -1.3333 -2.8512  1.6894
  268MOL0     H36976   7.691   5.362  11.646  0.0330  1.5517  0.7291
  268MOL0     H36977   7.556   5.415  11.736 -2.3925 -0.4113  3.4119
  268MOL0     H36978   7.789   5.254  11.843  0.6551  0.0692 -1.7609
  268MOL0     H36979   7.660   5.314  11.950  0.2816 -1.3727 -0.9135
  268MOL0     H36980   7.918   5.645  11.920  1.8777 -1.1522 -2.0299
  268MOL0     H36981   7.724   4.902  11.415  0.8333  1.4318 -1.7580
  268MOL0     H36982   7.714   4.808  11.199  0.8411  0.3900  1.3322
  268MOL0     H36983   7.583   4.843  11.079 -1.9335  0.6769  0.0648
  268MOL0     H36984   7.709   4.963  11.119  2.7374 -2.1342  1.3604
  269MOL0     O36985   3.524   2.223  11.464 -0.7347  0.2215  0.1580
  269MOL0     C36986   3.644   2.231  11.504  1.2665  0.4075  0.6038
  269MOL0     O36987   3.708   2.123  11.561 -0.2913  0.2538 -0.5642
  269MOL0     C36988   3.845   2.143  11.599  0.5786 -0.0080  0.2053
  269MOL0     C36989   3.938   2.055  11.548  0.0320  1.0379  0.4941
  269MOL0     C36990   4.072   2.048  11.587 -0.2646  0.1030  0.3965
  269MOL0     C36991   4.115   2.151  11.678  0.3824 -0.3151 -0.5113
  269MOL0     O36992   4.248   2.149  11.723  0.3109 -0.0511 -0.0300
  269MOL0     C36993   4.351   2.130  11.629 -0.4755 -0.2569 -0.6733
  269MOL0     C36994   4.379   2.252  11.533 -0.1589 -0.2760  0.2117
  269MOL0     C36995   4.507   2.236  11.438 -0.5565  1.1483  0.0991
  269MOL0     C36996   4.545   2.357  11.346  0.5755  0.3418  0.2007
  269MOL0     C36997   4.657   2.321  11.261  0.2364 -0.2419  0.2984
  269MOL0     C36998   4.706   2.438  11.168  1.0626 -0.5962 -0.0009
  269MOL0     C36999   4.819   2.408  11.074 -0.5182  0.4851 -0.0084
  269MOL0     C37000   4.954   2.454  11.133  0.9501  0.3830 -0.4218
  269MOL0     N37001   5.071   2.421  11.061  1.1083  0.2700 -0.6698
  269MOL0     C37002   5.193   2.428  11.128  0.0323 -0.3784  0.5915
  269MOL0     C37003   5.277   2.427  11.026 -1.4048  0.4069  1.4714
  269MOL0     C37004   5.431   2.420  11.038 -0.2673 -0.0057  0.0182
  269MOL0     C37005   5.463   2.348  11.171 -0.9777 -0.2537 -0.4216
  269MOL0     C37006   5.604   2.304  11.199 -0.5041 -0.3113 -0.1174
  269MOL0     C37007   5.695   2.277  11.086 -0.0253 -0.2051 -0.7077
  269MOL0     O37008   5.665   2.162  11.011  1.1075  0.3434 -0.8606
  269MOL0     C37009   5.750   2.115  10.913  0.2753 -0.1272 -0.5287
  269MOL0     C37010   5.727   1.991  10.850  0.1968  0.5188 -0.4717
  269MOL0     C37011   5.820   1.938  10.754  0.2108 -0.2928 -1.3369
  269MOL0     C37012   5.775   1.798  10.708  0.2757 -0.5462 -0.3408
  269MOL0     C37013   5.942   2.009  10.708 -0.0234  0.5913  0.1032
  269MOL0     C37014   6.038   1.964  10.612 -0.2248  0.3524  0.7022
  269MOL0     O37015   6.015   1.846  10.546 -0.6588  0.4969  0.0780
  269MOL0     C37016   6.074   1.809  10.429  0.4038  0.3794 -0.6358
  269MOL0     C37017   6.130   1.682  10.415  0.6809  0.3659  0.9200
  269MOL0     C37018   6.193   1.655  10.295 -0.9794 -0.3473  0.2241
  269MOL0     C37019   6.199   1.748  10.189 -0.0671 -0.9831  0.3178
  269MOL0     O37020   6.261   1.715  10.074 -0.3120  0.2243 -0.1828
  269MOL0     C37021   6.363   1.608  10.070 -0.5645 -0.4872  0.0303
  269MOL0     C37022   6.424   1.613   9.935  0.3786  0.2242  0.7021
  269MOL0     C37023   6.521   1.500   9.906 -0.5002  0.1445 -0.6299
  269MOL0     C37024   6.592   1.519   9.775  0.0289 -1.0189  0.0521
  269MOL0     C37025   6.723   1.437   9.781  0.1209 -0.1250  1.2517
  269MOL0     C37026   6.824   1.533   9.836  0.2356 -0.7946  0.6229
  269MOL0     C37027   6.966   1.480   9.831  0.5070 -0.2133 -0.2215
  269MOL0     C37028   6.987   1.346   9.909 -0.0053 -0.8263 -0.9311
  269MOL0    Cl37029   7.156   1.297   9.898 -0.2947 -0.2854  0.1742
  269MOL0     C37030   6.140   1.874  10.205 -0.3125 -0.3390 -0.2499
  269MOL0     C37031   6.082   1.900  10.325 -1.0868  0.0777  0.0326
  269MOL0     O37032   6.128   2.043  10.585 -0.5930 -0.2528 -0.1607
  269MOL0     C37033   5.951   2.130  10.776  0.5838 -0.7903 -0.6166
  269MOL0     C37034   5.851   2.187  10.859  0.0568 -0.1471  0.4419
  269MOL0     N37035   5.218   2.450  10.903  0.1863  0.6639  0.2540
  269MOL0     N37036   5.096   2.429  10.930  0.4083 -0.3897 -0.3043
  269MOL0     C37037   4.025   2.245  11.734  0.3127 -0.1704  0.3107
  269MOL0     C37038   3.884   2.230  11.697 -0.1882  0.0757 -0.5062
  269MOL0     C37039   3.700   2.367  11.480  0.3246  1.0242  0.2127
  269MOL0     C37040   3.815   2.374  11.400  0.0638 -0.5837 -0.0308
  269MOL0     C37041   3.863   2.505  11.368 -0.0843 -0.2108  0.1616
  269MOL0     C37042   3.803   2.628  11.405  0.2283  0.9659  0.4869
  269MOL0     O37043   3.840   2.753  11.357  1.0441  0.8564  0.4196
  269MOL0     C37044   3.919   2.771  11.238  0.5207  1.8785 -0.4902
  269MOL0     C37045   3.957   2.921  11.223  0.2371  0.1856 -0.1389
  269MOL0     C37046   3.859   3.009  11.150 -0.1607 -0.1616 -1.2207
  269MOL0     C37047   3.798   2.949  11.026 -0.1412  0.3908  0.2920
  269MOL0     C37048   3.752   3.061  10.934 -1.1685  0.3402 -0.4222
  269MOL0     C37049   3.698   3.157  10.876  0.2264 -0.0671 -0.5151
  269MOL0     C37050   3.692   2.616  11.491  0.5012 -0.5662  0.7136
  269MOL0     C37051   3.645   2.483  11.530  0.6303 -0.6866 -0.4454
  269MOL0     C37052   3.516   2.476  11.610 -0.7084  0.7790  0.1694
  269MOL0     H37053   3.905   1.976  11.482  2.2091 -1.1249  1.7973
  269MOL0     H37054   4.151   1.991  11.539  3.1469  5.1388 -0.7320
  269MOL0     H37055   4.348   2.029  11.586 -0.7315  0.5242 -2.5930
  269MOL0     H37056   4.439   2.122  11.694 -1.2315  3.0637  0.9327
  269MOL0     H37057   4.292   2.271  11.470 -0.0728  1.0136  0.4566
  269MOL0     H37058   4.385   2.342  11.595 -2.6175 -1.1183  1.7746
  269MOL0     H37059   4.596   2.212  11.498 -1.3315  0.9200  1.1876
  269MOL0     H37060   4.486   2.146  11.379 -1.7148 -0.8320  3.2472
  269MOL0     H37061   4.464   2.370  11.273  0.9570 -0.9209 -0.4902
  269MOL0     H37062   4.551   2.450  11.403  1.5345 -0.2917  1.1634
  269MOL0     H37063   4.638   2.230  11.203  0.4959 -0.7219  0.9480
  269MOL0     H37064   4.739   2.314  11.333  3.0255 -1.0873 -2.7489
  269MOL0     H37065   4.623   2.457  11.100  0.4009 -0.8264  0.7204
  269MOL0     H37066   4.708   2.527  11.232  1.9751  1.6002 -2.8861
  269MOL0     H37067   4.804   2.464  10.982 -2.4063  1.5909  0.9099
  269MOL0     H37068   4.830   2.303  11.049  3.0766  0.4834  1.0177
  269MOL0     H37069   4.948   2.562  11.147 -2.9691 -0.0287  3.5382
  269MOL0     H37070   4.958   2.406  11.232 -4.9785  0.4333  0.2244
  269MOL0     H37071   5.215   2.419  11.234 -2.2597  1.6406  1.3375
  269MOL0     H37072   5.480   2.518  11.043  1.9166 -0.9596 -1.2411
  269MOL0     H37073   5.473   2.370  10.950  0.1416  0.9895 -0.3738
  269MOL0     H37074   5.432   2.407  11.258 -0.8868 -2.0963  0.9417
  269MOL0     H37075   5.401   2.257  11.175 -0.7951 -0.4784 -2.0827
  269MOL0     H37076   5.652   2.397  11.232  0.9570 -1.1938  0.3374
  269MOL0     H37077   5.619   2.217  11.264  2.4272 -0.3131 -0.6699
  269MOL0     H37078   5.700   2.369  11.027  1.2814 -0.0918 -0.4590
  269MOL0     H37079   5.795   2.271  11.130  0.2779  0.0551 -1.3404
  269MOL0     H37080   5.644   1.939  10.896 -0.8833  1.0164 -1.7601
  269MOL0     H37081   5.709   1.760  10.786 -0.9991  3.7372  0.9040
  269MOL0     H37082   5.858   1.729  10.687  1.6442  0.3519  1.8231
  269MOL0     H37083   5.722   1.819  10.614  1.7629  2.1609 -0.6744
  269MOL0     H37084   6.125   1.607  10.493 -2.9396 -2.2894 -1.5074
  269MOL0     H37085   6.237   1.557  10.285  2.6226  1.0818  0.4628
  269MOL0     H37086   6.436   1.621  10.151  2.1499  1.3591 -2.5032
  269MOL0     H37087   6.313   1.512  10.088 -1.7192  0.6844  4.3635
  269MOL0     H37088   6.337   1.609   9.869  0.2463  3.6553  0.4850
  269MOL0     H37089   6.458   1.714   9.910 -1.1734  0.0138 -2.8931
  269MOL0     H37090   6.475   1.401   9.900  2.3566 -1.2817 -0.5774
  269MOL0     H37091   6.590   1.495   9.991 -0.4429  1.4329 -0.5888
  269MOL0     H37092   6.607   1.625   9.753  1.0006 -1.2256 -0.3341
  269MOL0     H37093   6.536   1.459   9.703 -1.5387  0.2510  0.1672
  269MOL0     H37094   6.714   1.341   9.833 -1.0069 -2.0758 -2.2174
  269MOL0     H37095   6.736   1.414   9.676 -2.7219  0.3182  0.7136
  269MOL0     H37096   6.796   1.563   9.938  1.0093  0.7732  0.3993
  269MOL0     H37097   6.821   1.625   9.777 -1.9395  0.8207  3.0147
  269MOL0     H37098   7.033   1.557   9.871 -1.8428  1.0218  1.5922
  269MOL0     H37099   6.997   1.462   9.728  0.4744 -3.1040  0.1856
  269MOL0     H37100   6.920   1.267   9.875 -2.2056  0.5058  0.0950
  269MOL0     H37101   6.953   1.350  10.013  1.0035 -0.6784 -0.5959
  269MOL0     H37102   6.136   1.944  10.122 -1.5353 -0.2451 -0.1258
  269MOL0     H37103   6.029   1.993  10.346 -0.9241  0.0474  0.5993
  269MOL0     H37104   6.035   2.199  10.772  0.1790  0.4559  4.7418
  269MOL0     H37105   5.868   2.290  10.889  1.0768 -0.7502  2.0578
  269MOL0     H37106   4.051   2.312  11.816 -1.1339 -0.2063  0.8361
  269MOL0     H37107   3.809   2.297  11.739 -1.0937 -0.2480 -1.5777
  269MOL0     H37108   3.872   2.301  11.343  1.4570  0.3435  0.1505
  269MOL0     H37109   3.948   2.508  11.300  0.0009 -0.2488  0.2655
  269MOL0     H37110   4.015   2.721  11.237 -1.1331 -1.6067 -2.3118
  269MOL0     H37111   3.866   2.731  11.152  1.1234 -4.8804  1.7390
  269MOL0     H37112   4.040   2.922  11.151 -1.0013 -0.6873 -1.6467
  269MOL0     H37113   3.992   2.961  11.319 -1.4709 -3.8932  2.4285
  269MOL0     H37114   3.776   3.038  11.215  0.1150 -0.0141 -0.9338
  269MOL0     H37115   3.916   3.099  11.127 -1.0064  1.0700  1.2184
  269MOL0     H37116   3.720   2.880  11.059  0.3015  0.5223  1.6809
  269MOL0     H37117   3.866   2.888  10.965 -2.2653  0.2786 -2.1128
  269MOL0     H37118   3.658   3.240  10.822  1.2254 -0.6517 -2.2135
  269MOL0     H37119   3.647   2.711  11.519  2.1326  0.4491  0.0648
  269MOL0     H37120   3.432   2.466  11.542 -0.5216 -1.1095  0.1832
  269MOL0     H37121   3.523   2.392  11.679  1.3752  0.6331 -0.1531
  269MOL0     H37122   3.503   2.557  11.684 -0.2683 -0.9866  2.2950
  270MOL0     O37123   8.447   9.916   5.534  0.6625 -0.5805  0.1521
  270MOL0     C37124   8.391   9.812   5.503  0.1174 -1.3057  0.3058
  270MOL0     O37125   8.258   9.798   5.479 -0.1886  0.4136 -0.3950
  270MOL0     C37126   8.178   9.904   5.488  0.4880 -0.1350  0.2700
  270MOL0     C37127   8.157   9.981   5.375  0.6533 -0.4263  0.5390
  270MOL0     C37128   8.073  10.096   5.383  0.3096  0.0440  0.6423
  270MOL0     C37129   8.015  10.124   5.508 -0.3310  0.5490  0.1808
  270MOL0     O37130   7.941  10.247   5.519  0.7210 -0.1907 -0.7102
  270MOL0     C37131   7.907  10.332   5.408 -0.5345  0.7361  0.1487
  270MOL0     C37132   7.882  10.468   5.466  1.4391 -0.0148 -0.6646
  270MOL0     C37133   8.011  10.539   5.508  0.5115 -0.2431  0.1748
  270MOL0     C37134   8.009  10.684   5.443  0.1674  0.6424  0.5867
  270MOL0     C37135   8.109  10.776   5.509 -0.4012  0.3256 -0.1467
  270MOL0     C37136   8.134  10.911   5.429 -0.5238 -0.3720 -0.1016
  270MOL0     C37137   8.208  11.021   5.492  0.1506 -1.2099  0.0927
  270MOL0     C37138   8.326  10.982   5.576 -0.0519  0.8733  0.0062
  270MOL0     N37139   8.388  11.100   5.626  0.0737  0.0505 -0.1950
  270MOL0     C37140   8.324  11.188   5.720 -0.4000  0.4049  0.6448
  270MOL0     C37141   8.401  11.302   5.706  0.2851  0.3098 -0.4313
  270MOL0     C37142   8.420  11.419   5.798 -0.0761  0.2494 -0.3912
  270MOL0     C37143   8.385  11.387   5.942 -0.0628  0.4580  0.7125
  270MOL0     C37144   8.375  11.499   6.036  0.4729 -1.4858  0.2790
  270MOL0     C37145   8.370  11.445   6.180  0.5083 -0.0654 -0.7490
  270MOL0     O37146   8.251  11.367   6.208  0.5012 -0.5011  0.5801
  270MOL0     C37147   8.223  11.335   6.340 -0.5838 -0.7455  0.2354
  270MOL0     C37148   8.292  11.393   6.450 -0.1981  0.7348  0.0881
  270MOL0     C37149   8.256  11.348   6.583 -0.1926  0.2065 -0.7908
  270MOL0     C37150   8.342  11.409   6.688 -0.7095  1.4486 -0.7687
  270MOL0     C37151   8.140  11.260   6.604  0.6727  0.6543  0.3629
  270MOL0     C37152   8.094  11.209   6.740  0.2291 -0.1980 -0.7433
  270MOL0     O37153   8.003  11.113   6.732  0.0012 -0.6066 -0.0524
  270MOL0     C37154   7.934  11.071   6.842  0.1776 -0.1427 -0.8212
  270MOL0     C37155   7.919  10.933   6.858 -0.2131  0.3028 -0.1164
  270MOL0     C37156   7.843  10.889   6.965 -0.3580  0.1221 -0.1413
  270MOL0     C37157   7.775  10.982   7.054  0.6043  0.0473  0.4080
  270MOL0     O37158   7.702  10.925   7.158  0.5564  0.4379 -0.4767
  270MOL0     C37159   7.644  11.018   7.260 -0.4790 -0.7656  0.3794
  270MOL0     C37160   7.570  10.935   7.365  0.5397 -0.3282 -0.7261
  270MOL0     C37161   7.658  10.835   7.435 -0.4610  0.6784 -0.9044
  270MOL0     C37162   7.660  10.689   7.370  0.0807  0.5986 -0.2370
  270MOL0     C37163   7.781  10.608   7.412 -0.5915 -0.0001 -0.0843
  270MOL0     C37164   7.908  10.659   7.351  0.3669 -0.0135  0.0401
  270MOL0     C37165   8.019  10.567   7.405 -0.1447  0.2697  0.2596
  270MOL0     C37166   8.144  10.625   7.361  0.2349 -0.5302  0.4424
  270MOL0    Cl37167   8.265  10.549   7.440 -0.1246 -0.6219  0.2327
  270MOL0     C37168   7.797  11.118   7.037 -0.4238  0.3303  0.1132
  270MOL0     C37169   7.875  11.157   6.932 -0.3545 -0.1777  0.2734
  270MOL0     O37170   8.141  11.242   6.848  0.2131  0.2014 -0.2108
  270MOL0     C37171   8.074  11.209   6.490  0.4761 -0.1235 -0.5430
  270MOL0     C37172   8.124  11.239   6.372  0.0869  0.4451  0.2262
  270MOL0     N37173   8.479  11.295   5.590  0.1779  0.7277 -0.3590
  270MOL0     N37174   8.470  11.173   5.549  0.4542  0.9043  0.4614
  270MOL0     C37175   8.025  10.032   5.610 -0.8451  0.5741  0.1940
  270MOL0     C37176   8.102   9.921   5.606  1.0751  0.2742  0.5926
  270MOL0     C37177   8.463   9.688   5.487 -0.8363 -0.0406 -0.0369
  270MOL0     C37178   8.436   9.626   5.363 -0.1869  0.6051  0.1479
  270MOL0     C37179   8.497   9.502   5.322 -0.3658  0.1556 -0.1673
  270MOL0     C37180   8.600   9.447   5.415  0.4314  0.3629  0.2875
  270MOL0     O37181   8.634   9.320   5.398 -0.5984  0.2771  0.1640
  270MOL0     C37182   8.693   9.235   5.501 -0.2495 -0.2458 -0.8426
  270MOL0     C37183   8.583   9.221   5.607  0.4569  0.8172 -0.2194
  270MOL0     C37184   8.642   9.160   5.748  0.7338 -0.1970 -0.0333
  270MOL0     C37185   8.704   9.264   5.835  0.1024  0.4326 -0.5073
  270MOL0     C37186   8.722   9.218   5.972  0.6522 -0.6111  0.2634
  270MOL0     C37187   8.723   9.185   6.085  0.0209 -0.0200 -0.2910
  270MOL0     C37188   8.638   9.519   5.530  0.4256  0.3469  0.3860
  270MOL0     C37189   8.564   9.635   5.570  0.9370  0.3276  0.6539
  270MOL0     C37190   8.589   9.698   5.702 -0.8180 -0.8513 -0.5094
  270MOL0     H37191   8.214   9.964   5.284 -1.8901 -0.6631 -1.1148
  270MOL0     H37192   8.044  10.161   5.301 -0.2182  1.0466  1.6016
  270MOL0     H37193   7.811  10.297   5.370 -0.2328 -3.6759  2.8015
  270MOL0     H37194   7.992  10.342   5.340 -0.3453 -0.2475  0.2338
  270MOL0     H37195   7.837  10.514   5.377  2.2710 -0.6799 -1.4503
  270MOL0     H37196   7.810  10.466   5.548  2.2086  0.3982  0.0281
  270MOL0     H37197   8.014  10.555   5.616 -2.5902  2.6534  0.0003
  270MOL0     H37198   8.085  10.467   5.473 -1.6330 -2.0065 -0.9976
  270MOL0     H37199   8.042  10.672   5.340 -0.9609  1.1764  0.1453
  270MOL0     H37200   7.915  10.739   5.453 -1.1469 -1.7805  3.1724
  270MOL0     H37201   8.204  10.726   5.532  1.2022  2.5223 -1.4716
  270MOL0     H37202   8.076  10.805   5.609 -1.8130 -1.3013 -0.0965
  270MOL0     H37203   8.208  10.889   5.351  2.5546  1.2963  2.0969
  270MOL0     H37204   8.038  10.947   5.393 -0.1586  0.1605 -0.5469
  270MOL0     H37205   8.133  11.071   5.555  2.5686 -0.0149  2.2104
  270MOL0     H37206   8.244  11.102   5.428 -0.5511  0.0547  1.2418
  270MOL0     H37207   8.290  10.916   5.656  2.3632  0.3894  0.8126
  270MOL0     H37208   8.398  10.922   5.519  0.0077 -0.0561  1.0240
  270MOL0     H37209   8.255  11.147   5.792 -1.3951 -0.6489 -0.8562
  270MOL0     H37210   8.359  11.498   5.752  0.4026  1.5597  1.1362
  270MOL0     H37211   8.521  11.459   5.801  0.7712 -1.7730 -0.5436
  270MOL0     H37212   8.283  11.346   5.944 -1.4607  3.4193 -1.9477
  270MOL0     H37213   8.446  11.303   5.977 -0.0495  0.8490  1.6618
  270MOL0     H37214   8.453  11.574   6.023 -0.8036 -0.3289 -1.0097
  270MOL0     H37215   8.278  11.548   6.020  1.1868 -0.1140  0.0808
  270MOL0     H37216   8.461  11.387   6.199 -0.0757 -1.1980 -1.2959
  270MOL0     H37217   8.370  11.532   6.246  0.7771 -1.0616  0.6165
  270MOL0     H37218   8.358  11.478   6.437 -0.3449  1.2615  2.4599
  270MOL0     H37219   8.432  11.347   6.694 -3.2711 -2.5435 -0.0524
  270MOL0     H37220   8.289  11.416   6.784  1.9908 -0.0967  0.9636
  270MOL0     H37221   8.372  11.510   6.659  0.7971  0.3550 -3.3672
  270MOL0     H37222   7.969  10.865   6.789  0.1847 -1.3433  1.7240
  270MOL0     H37223   7.837  10.785   6.998  0.1699  0.6528  1.7754
  270MOL0     H37224   7.729  11.073   7.301  1.4664 -1.0696 -2.8821
  270MOL0     H37225   7.572  11.081   7.209  0.7060 -0.2848 -0.7578
  270MOL0     H37226   7.529  11.004   7.439 -0.3855  0.4080 -1.8742
  270MOL0     H37227   7.489  10.880   7.316 -0.1138  0.5316 -0.6285
  270MOL0     H37228   7.617  10.815   7.535  0.3930  4.0074  0.2554
  270MOL0     H37229   7.757  10.880   7.446  0.6243 -1.7683 -0.2074
  270MOL0     H37230   7.648  10.691   7.261  3.8625 -1.4429 -0.8703
  270MOL0     H37231   7.572  10.639   7.411  1.3177  0.7435  2.8630
  270MOL0     H37232   7.794  10.610   7.520 -0.6317  1.5810 -0.0830
  270MOL0     H37233   7.768  10.502   7.386  1.5637  0.2105 -2.4508
  270MOL0     H37234   7.927  10.766   7.364 -0.2809 -0.0072  0.9831
  270MOL0     H37235   7.909  10.646   7.242 -3.5752  0.7156 -0.2293
  270MOL0     H37236   8.005  10.467   7.363  1.1071 -0.3279  1.2062
  270MOL0     H37237   8.017  10.563   7.514 -1.7241  1.3458  0.3088
  270MOL0     H37238   8.140  10.733   7.376 -1.0395 -0.4002 -0.6042
  270MOL0     H37239   8.161  10.605   7.255  2.2128 -1.5081  0.9053
  270MOL0     H37240   7.751  11.195   7.098  0.0550  0.0151  0.8945
  270MOL0     H37241   7.906  11.261   6.923  3.3135 -1.0082  1.6922
  270MOL0     H37242   7.981  11.152   6.486  1.1731 -1.2176 -1.9387
  270MOL0     H37243   8.060  11.214   6.288 -0.2677 -0.1914  0.6797
  270MOL0     H37244   7.968  10.060   5.698  1.5117 -1.7641  2.6345
  270MOL0     H37245   8.112   9.844   5.682 -0.3741 -1.4325 -0.8452
  270MOL0     H37246   8.368   9.672   5.293 -0.4124  2.6453  1.6134
  270MOL0     H37247   8.469   9.449   5.232  0.5711  0.2047 -0.4934
  270MOL0     H37248   8.708   9.133   5.463 -1.0848 -0.1951 -1.3503
  270MOL0     H37249   8.789   9.267   5.542 -1.6582  2.2013  0.7849
  270MOL0     H37250   8.519   9.142   5.567  0.4651  1.2916 -1.1923
  270MOL0     H37251   8.516   9.305   5.625 -0.9954 -0.0824 -1.2511
  270MOL0     H37252   8.551   9.123   5.795 -1.0353  2.0437 -1.4712
  270MOL0     H37253   8.723   9.087   5.744  2.8127  1.9609  0.1072
  270MOL0     H37254   8.627   9.342   5.829 -2.0695 -1.6778 -2.0175
  270MOL0     H37255   8.791   9.302   5.781  0.3309  3.5071  1.7328
  270MOL0     H37256   8.717   9.129   6.177  4.2952 -0.0465  0.1517
  270MOL0     H37257   8.718   9.470   5.586  1.0557 -2.5222 -2.7060
  270MOL0     H37258   8.652   9.787   5.689 -1.0584 -0.7069 -0.7002
  270MOL0     H37259   8.507   9.719   5.771  0.9686 -1.3777  1.9115
  270MOL0     H37260   8.645   9.622   5.757 -1.4685 -0.9808 -0.0167
  271MOL0     O37261   1.814   3.208   1.407  0.6802 -0.8571 -0.4256
  271MOL0     C37262   1.795   3.140   1.507  0.1048 -0.2586 -0.0415
  271MOL0     O37263   1.763   3.009   1.502  0.5300 -0.3087 -0.3168
  271MOL0     C37264   1.789   2.942   1.386 -0.1292  0.1607 -0.1345
  271MOL0     C37265   1.698   2.850   1.334 -0.2092 -0.7655  0.1820
  271MOL0     C37266   1.722   2.773   1.213 -0.2978 -0.3106 -0.7471
  271MOL0     C37267   1.838   2.782   1.136 -0.5337 -0.4523  0.2531
  271MOL0     O37268   1.849   2.707   1.010 -0.4751  0.3504  0.2792
  271MOL0     C37269   1.956   2.745   0.916 -0.5380  0.8651  0.5943
  271MOL0     C37270   2.014   2.614   0.850  0.0815 -0.5736  0.3200
  271MOL0     C37271   2.111   2.647   0.736  0.3904  0.6621  0.1323
  271MOL0     C37272   2.038   2.601   0.593  0.3646 -0.6007 -0.9771
  271MOL0     C37273   2.107   2.647   0.464  0.1761  0.6899  0.8675
  271MOL0     C37274   2.115   2.793   0.449  0.5828 -0.2135  0.0342
  271MOL0     C37275   2.142   2.846   0.306 -0.1640  1.0059 -0.0014
  271MOL0     C37276   2.289   2.813   0.261  0.3592  0.1383 -0.5488
  271MOL0     N37277   2.294   2.845   0.124 -0.6162 -0.4511  0.5871
  271MOL0     C37278   2.310   2.971   0.073 -0.0654 -0.4667 -0.8533
  271MOL0     C37279   2.295   2.956  -0.061 -0.8609 -0.6310  0.3284
  271MOL0     C37280   2.283   3.058  -0.170  0.6938  0.6733 -0.5746
  271MOL0     C37281   2.406   3.154  -0.190 -0.0523  0.4836 -0.2655
  271MOL0     C37282   2.466   3.220  -0.057 -0.0617  0.6388  1.0903
  271MOL0     C37283   2.587   3.135  -0.013 -1.1162 -0.0722 -0.0685
  271MOL0     O37284   2.640   3.150   0.115 -0.1521 -0.6466 -0.1316
  271MOL0     C37285   2.622   3.070   0.230  0.0814 -0.7053 -0.1230
  271MOL0     C37286   2.613   2.934   0.224 -0.5588 -0.6650 -0.7824
  271MOL0     C37287   2.632   2.852   0.338 -0.3206 -1.1120  0.9539
  271MOL0     C37288   2.624   2.710   0.307 -0.3184  0.2097 -0.2888
  271MOL0     C37289   2.627   2.921   0.466 -0.0872  0.0960  1.0512
  271MOL0     C37290   2.623   2.849   0.598 -0.1152  0.0754 -0.9690
  271MOL0     O37291   2.554   2.908   0.700 -0.2513 -1.1895  0.1661
  271MOL0     C37292   2.503   2.842   0.803  0.7856  0.0068 -1.1927
  271MOL0     C37293   2.439   2.719   0.784 -0.1362  0.0987  0.1839
  271MOL0     C37294   2.393   2.646   0.892  0.3355 -0.4191 -0.0136
  271MOL0     C37295   2.405   2.690   1.021 -0.1878  0.6740  0.1803
  271MOL0     O37296   2.359   2.594   1.109 -0.9073 -0.2294  0.5769
  271MOL0     C37297   2.314   2.642   1.235 -0.1203  0.1741 -0.2603
  271MOL0     C37298   2.193   2.564   1.293  0.2637  0.3103 -0.0429
  271MOL0     C37299   2.193   2.411   1.259  0.3773 -0.6801 -0.6792
  271MOL0     C37300   2.309   2.334   1.325 -0.5098  0.1697  0.4689
  271MOL0     C37301   2.323   2.341   1.477 -0.3178  0.0921 -0.3646
  271MOL0     C37302   2.199   2.302   1.563 -0.4641  0.1286 -0.6348
  271MOL0     C37303   2.209   2.343   1.714 -0.5065  0.0089  0.4547
  271MOL0     C37304   2.080   2.303   1.789 -0.3175 -0.0864  0.9010
  271MOL0    Cl37305   2.113   2.306   1.963 -0.3780 -0.3444 -0.2031
  271MOL0     C37306   2.459   2.823   1.038 -0.3031  0.0579 -0.6050
  271MOL0     C37307   2.501   2.899   0.930 -1.2027 -0.3504 -0.3355
  271MOL0     O37308   2.686   2.746   0.610  0.6721 -0.7587 -0.1238
  271MOL0     C37309   2.643   3.061   0.472 -0.1051 -0.0602  0.3898
  271MOL0     C37310   2.644   3.137   0.356 -0.3656  0.0629  0.7564
  271MOL0     N37311   2.259   2.819  -0.084 -0.1697  0.5025 -0.4348
  271MOL0     N37312   2.262   2.753   0.027  0.5122 -0.5280 -0.3378
  271MOL0     C37313   1.938   2.865   1.199  0.5214  0.1178 -0.0365
  271MOL0     C37314   1.918   2.937   1.325  0.2082  0.2701  0.1662
  271MOL0     C37315   1.819   3.206   1.642 -0.0896  0.7548 -0.1890
  271MOL0     C37316   1.851   3.118   1.749  0.2111  0.5973 -0.2397
  271MOL0     C37317   1.875   3.165   1.881  0.6591 -0.4299  0.5188
  271MOL0     C37318   1.884   3.295   1.913  0.9245  0.8973 -0.2720
  271MOL0     O37319   1.907   3.327   2.047 -0.3079 -0.0893  0.2135
  271MOL0     C37320   1.953   3.462   2.073  0.4765  0.4832  0.1387
  271MOL0     C37321   2.092   3.500   2.014 -0.5400 -0.8174 -0.1359
  271MOL0     C37322   2.101   3.628   1.923  0.1955 -0.3475 -0.3245
  271MOL0     C37323   2.104   3.613   1.762 -1.0875 -0.2716 -1.1814
  271MOL0     C37324   2.214   3.519   1.718  0.4808  0.3079  0.7033
  271MOL0     C37325   2.278   3.428   1.660 -0.0241 -0.3756  0.4350
  271MOL0     C37326   1.854   3.381   1.817 -0.8041  0.3686  0.6960
  271MOL0     C37327   1.822   3.340   1.682  0.7609  0.2934  1.3794
  271MOL0     C37328   1.787   3.453   1.593 -0.3066 -0.1547 -0.2948
  271MOL0     H37329   1.604   2.845   1.389 -0.4246  1.8626  0.1655
  271MOL0     H37330   1.651   2.700   1.173 -0.3930 -0.8649  0.3892
  271MOL0     H37331   2.037   2.802   0.962  0.2349 -0.7825  1.3892
  271MOL0     H37332   1.919   2.810   0.836 -2.9917  0.2716  1.1496
  271MOL0     H37333   2.053   2.548   0.928 -0.7744  0.3905  1.5926
  271MOL0     H37334   1.927   2.564   0.806 -0.2651 -1.1564  1.6264
  271MOL0     H37335   2.140   2.752   0.735 -2.6050  1.6062 -2.0624
  271MOL0     H37336   2.206   2.592   0.731 -0.9269 -1.6587 -3.5752
  271MOL0     H37337   2.042   2.492   0.594  0.1112 -0.6124 -0.1472
  271MOL0     H37338   1.940   2.648   0.580  0.4744 -0.3183 -0.7953
  271MOL0     H37339   2.049   2.624   0.374  1.7662  1.6822 -0.4563
  271MOL0     H37340   2.195   2.583   0.452  0.7129  1.3214  1.3930
  271MOL0     H37341   2.025   2.846   0.480  1.1460  0.9600 -0.2592
  271MOL0     H37342   2.202   2.831   0.504 -0.0390  0.5942  0.4836
  271MOL0     H37343   2.120   2.953   0.308 -0.8027  0.8907 -0.5133
  271MOL0     H37344   2.074   2.812   0.228 -0.7526  4.6308 -1.2375
  271MOL0     H37345   2.357   2.879   0.317 -0.8760  2.8472 -2.0087
  271MOL0     H37346   2.313   2.709   0.285  1.5426  0.7108  0.8981
  271MOL0     H37347   2.315   3.061   0.134  2.2807 -1.9343  1.2798
  271MOL0     H37348   2.192   3.115  -0.148 -1.4199 -2.7822  0.4363
  271MOL0     H37349   2.258   3.005  -0.262  1.7736  0.7267 -0.9111
  271MOL0     H37350   2.477   3.093  -0.245 -0.1367  1.0086 -0.9728
  271MOL0     H37351   2.374   3.229  -0.263  0.4085 -0.2003 -1.1821
  271MOL0     H37352   2.489   3.326  -0.070  1.1810  0.6796  3.1944
  271MOL0     H37353   2.400   3.213   0.030  1.6896 -3.4274  2.3075
  271MOL0     H37354   2.580   3.028  -0.034 -1.9820  0.0698 -0.5508
  271MOL0     H37355   2.673   3.169  -0.072  0.2203 -0.1116  1.7592
  271MOL0     H37356   2.599   2.882   0.130  0.2376 -3.9025  0.7797
  271MOL0     H37357   2.613   2.650   0.398 -0.1089  1.8264  0.8353
  271MOL0     H37358   2.711   2.673   0.252 -1.8049 -2.5182 -0.9934
  271MOL0     H37359   2.532   2.687   0.253 -0.7605  1.5531 -0.1388
  271MOL0     H37360   2.425   2.669   0.689 -4.7553 -2.1685  1.7513
  271MOL0     H37361   2.362   2.544   0.875  2.1123 -0.8127 -1.1899
  271MOL0     H37362   2.390   2.627   1.313  0.3502  1.3306 -0.4692
  271MOL0     H37363   2.289   2.748   1.246 -0.2306  0.0964  0.2774
  271MOL0     H37364   2.188   2.578   1.401  1.3971 -0.5608  0.1451
  271MOL0     H37365   2.105   2.605   1.243  0.7772  1.3102 -0.1466
  271MOL0     H37366   2.206   2.404   1.151  0.6308  1.8539 -0.8725
  271MOL0     H37367   2.091   2.373   1.276 -0.4950  0.9659 -1.9088
  271MOL0     H37368   2.409   2.370   1.296  0.9537 -1.3546  3.1685
  271MOL0     H37369   2.302   2.229   1.296  0.5355  0.5656 -1.4495
  271MOL0     H37370   2.411   2.281   1.500  1.2299  1.8369 -1.4781
  271MOL0     H37371   2.354   2.445   1.496  3.8309 -1.4345  2.6712
  271MOL0     H37372   2.185   2.195   1.549  2.0073  0.1205 -4.3686
  271MOL0     H37373   2.113   2.354   1.519  2.0594  2.9831 -2.6122
  271MOL0     H37374   2.230   2.450   1.723 -0.0699 -0.0202 -0.1711
  271MOL0     H37375   2.304   2.299   1.745  1.5189  3.4561 -0.2731
  271MOL0     H37376   2.047   2.203   1.760  0.3370  0.4999 -2.1410
  271MOL0     H37377   1.994   2.363   1.760  0.6644  1.1896  0.5146
  271MOL0     H37378   2.479   2.842   1.143 -0.9957  0.2167 -0.4981
  271MOL0     H37379   2.562   2.987   0.944 -2.9140  0.9379 -0.7612
  271MOL0     H37380   2.659   3.120   0.562 -1.7402 -0.0113  0.6829
  271MOL0     H37381   2.663   3.243   0.340  0.5525 -0.2489 -0.4074
  271MOL0     H37382   2.042   2.870   1.168 -0.4287  1.6121 -3.4453
  271MOL0     H37383   2.003   2.988   1.370  2.2021 -1.8839 -0.9843
  271MOL0     H37384   1.858   3.010   1.736  2.4583  0.9553 -2.9421
  271MOL0     H37385   1.888   3.085   1.953 -2.7322 -0.6592  1.0226
  271MOL0     H37386   1.873   3.532   2.047 -1.2667 -0.9646  1.3269
  271MOL0     H37387   1.951   3.469   2.182 -2.2665 -1.8981  0.3628
  271MOL0     H37388   2.141   3.412   1.971 -1.0638 -0.7826 -0.8266
  271MOL0     H37389   2.150   3.521   2.104 -1.4615  0.0848  0.2720
  271MOL0     H37390   2.014   3.692   1.945  0.6547 -0.7123  3.2389
  271MOL0     H37391   2.191   3.675   1.962  2.7897 -3.5004 -2.0305
  271MOL0     H37392   2.123   3.712   1.720  0.7890  0.4641  1.1764
  271MOL0     H37393   2.005   3.579   1.732 -0.5764 -2.9426 -0.2018
  271MOL0     H37394   2.321   3.374   1.578  0.9799  1.0983 -0.0499
  271MOL0     H37395   1.853   3.488   1.830  0.0376  0.7466 -1.7847
  271MOL0     H37396   1.693   3.435   1.540 -1.5012  1.5953  1.1092
  271MOL0     H37397   1.788   3.552   1.640  1.2979 -0.6474  0.7813
  271MOL0     H37398   1.867   3.466   1.519  0.1885 -0.5504  0.1583
  272MOL0     O37399   9.215   7.436   1.206 -0.9153 -0.2282  0.4610
  272MOL0     C37400   9.294   7.419   1.300 -0.1204  0.2239 -0.0905
  272MOL0     O37401   9.375   7.312   1.307 -0.1824  0.1660 -0.5152
  272MOL0     C37402   9.381   7.215   1.211  0.8130 -0.6739 -0.4141
  272MOL0     C37403   9.264   7.148   1.180 -0.2862  0.2567  0.3059
  272MOL0     C37404   9.253   7.046   1.088  0.1648 -0.3953  1.2920
  272MOL0     C37405   9.372   6.998   1.024  0.0647  0.9196 -0.4035
  272MOL0     O37406   9.377   6.900   0.931 -0.2482  0.7406  0.5433
  272MOL0     C37407   9.367   6.768   0.970  1.0206 -0.0441  0.0217
  272MOL0     C37408   9.434   6.675   0.880  0.0667 -0.5625  0.7220
  272MOL0     C37409   9.410   6.532   0.909  0.4309 -0.4259  0.8354
  272MOL0     C37410   9.481   6.430   0.821 -0.3957  0.7157  0.5656
  272MOL0     C37411   9.627   6.419   0.873  0.7010 -0.8586  0.3372
  272MOL0     C37412   9.674   6.262   0.901 -0.0163 -1.2756 -0.3745
  272MOL0     C37413   9.810   6.282   0.973  0.0629 -0.3925 -0.2210
  272MOL0     C37414   9.886   6.152   1.020  0.3580 -0.5997 -0.5024
  272MOL0     N37415  10.025   6.172   1.045 -1.1725 -0.9653  0.1117
  272MOL0     C37416  10.120   6.170   0.946 -0.1335  0.0290  0.0649
  272MOL0     C37417  10.229   6.230   1.001  0.0697 -0.0475 -0.2954
  272MOL0     C37418  10.365   6.237   0.942  0.1188 -0.0583 -0.0568
  272MOL0     C37419  10.439   6.367   0.942  0.9113 -0.2542  0.2133
  272MOL0     C37420  10.591   6.358   0.954  1.1593  0.5236 -0.1424
  272MOL0     C37421  10.657   6.496   0.942 -0.8692 -0.3425  0.0842
  272MOL0     O37422  10.715   6.508   0.810  1.2036  0.4462  0.0723
  272MOL0     C37423  10.798   6.621   0.779  0.0643  1.0610 -1.0369
  272MOL0     C37424  10.842   6.711   0.875 -0.2576 -0.0244  0.7772
  272MOL0     C37425  10.928   6.813   0.846  0.0719 -0.1851  1.6353
  272MOL0     C37426  10.974   6.895   0.960  0.3830 -0.0191  0.7387
  272MOL0     C37427  10.954   6.836   0.711 -1.2637 -0.4879 -0.2000
  272MOL0     C37428  11.037   6.949   0.664 -0.4835  0.6113  0.1059
  272MOL0     O37429  11.081   6.937   0.528  0.5217  0.0451 -0.0131
  272MOL0     C37430  11.129   7.040   0.448 -0.3770 -0.4259  0.4884
  272MOL0     C37431  11.196   7.005   0.337  0.2545  0.0970 -1.2187
  272MOL0     C37432  11.256   7.093   0.253 -0.7387  0.3985 -0.2420
  272MOL0     C37433  11.231   7.230   0.268  0.5496  0.0855  0.6604
  272MOL0     O37434  11.283   7.311   0.170  0.1168  0.1280  0.0776
  272MOL0     C37435  11.298   7.452   0.191 -0.1345  0.6806  0.5346
  272MOL0     C37436  11.406   7.492   0.287  0.7662 -0.3344  1.1398
  272MOL0     C37437  11.556   7.479   0.223  1.6443  0.3132 -0.4430
  272MOL0     C37438  11.606   7.614   0.175  0.3520  0.6140  0.8487
  272MOL0     C37439  11.751   7.592   0.112  0.2768  0.3273 -0.5189
  272MOL0     C37440  11.738   7.556  -0.037  0.4299 -0.1806  0.5347
  272MOL0     C37441  11.855   7.461  -0.058 -0.8344  0.5221  0.1023
  272MOL0     C37442  11.888   7.450  -0.205  0.0880  0.2155  0.3680
  272MOL0    Cl37443  12.020   7.341  -0.221  0.3891 -0.5760  0.0681
  272MOL0     C37444  11.164   7.275   0.379 -0.2722 -0.0583 -1.1456
  272MOL0     C37445  11.121   7.182   0.476  0.6736 -0.4045 -0.1013
  272MOL0     O37446  11.058   7.047   0.730  0.5288  0.2122  0.7535
  272MOL0     C37447  10.913   6.743   0.613 -0.0254  0.0701  1.5242
  272MOL0     C37448  10.828   6.638   0.647  0.1923 -0.4598 -0.5839
  272MOL0     N37449  10.193   6.281   1.131 -0.0280  0.0375 -0.3132
  272MOL0     N37450  10.070   6.256   1.154  0.5950 -0.4787 -0.5032
  272MOL0     C37451   9.494   7.050   1.067  0.6639  0.1118  0.1064
  272MOL0     C37452   9.504   7.158   1.165  0.5949 -1.2579  0.5516
  272MOL0     C37453   9.261   7.496   1.423  0.1684 -0.0977 -0.1481
  272MOL0     C37454   9.295   7.443   1.547  0.3141  0.9382 -0.0229
  272MOL0     C37455   9.268   7.522   1.663 -0.8515  0.5550 -0.6656
  272MOL0     C37456   9.216   7.655   1.664  1.1750  0.1308 -0.0236
  272MOL0     O37457   9.193   7.713   1.788 -0.2019  0.6250  0.1140
  272MOL0     C37458   9.153   7.852   1.796  0.0800 -0.6375  0.6987
  272MOL0     C37459   9.195   7.887   1.938  1.1473  0.1438  0.5156
  272MOL0     C37460   9.167   8.044   1.968  0.5995 -0.6144 -0.6008
  272MOL0     C37461   9.016   8.062   1.980 -0.1046  0.4170 -0.1955
  272MOL0     C37462   8.963   8.142   1.870 -0.1692 -0.5970 -0.1302
  272MOL0     C37463   8.923   8.216   1.781 -0.2343  0.0217 -0.6421
  272MOL0     C37464   9.194   7.705   1.533  0.1462  0.1126 -0.6720
  272MOL0     C37465   9.212   7.632   1.418 -0.2179  0.4337 -0.8354
  272MOL0     C37466   9.175   7.708   1.287  0.1647  0.3292 -0.0192
  272MOL0     H37467   9.165   7.181   1.209  0.4147  2.8918 -0.0553
  272MOL0     H37468   9.155   7.016   1.053  0.6319  0.3231 -0.7050
  272MOL0     H37469   9.263   6.735   0.983  0.6576  0.4897 -1.2969
  272MOL0     H37470   9.397   6.768   1.075  0.8326 -0.3412  0.0773
  272MOL0     H37471   9.407   6.694   0.775  1.6845 -0.6908  0.2603
  272MOL0     H37472   9.540   6.699   0.873  0.1519 -1.4108 -2.2314
  272MOL0     H37473   9.444   6.496   1.007  3.9910 -2.5448 -0.9554
  272MOL0     H37474   9.304   6.517   0.888  0.5899  1.4074 -1.6072
  272MOL0     H37475   9.431   6.335   0.841  0.4075  0.0738 -0.3937
  272MOL0     H37476   9.476   6.460   0.716  1.7579 -1.9171 -0.3848
  272MOL0     H37477   9.636   6.476   0.966  3.7726 -2.2331  0.9994
  272MOL0     H37478   9.688   6.475   0.801  0.4378 -1.7850 -0.6214
  272MOL0     H37479   9.610   6.214   0.976  3.9599  0.7050  4.8600
  272MOL0     H37480   9.675   6.208   0.805 -2.0960  1.9769 -2.4189
  272MOL0     H37481   9.786   6.337   1.064 -2.4349 -0.8047 -0.5451
  272MOL0     H37482   9.881   6.332   0.907 -0.9939 -1.1862 -2.0517
  272MOL0     H37483   9.838   6.127   1.115  0.1606 -1.0392 -0.7132
  272MOL0     H37484   9.860   6.070   0.951 -1.7155  1.1936 -2.0113
  272MOL0     H37485  10.099   6.133   0.846 -1.0578 -2.1959  1.0025
  272MOL0     H37486  10.361   6.210   0.836 -0.0141  1.0614 -0.3456
  272MOL0     H37487  10.425   6.162   0.995  2.8460  0.4158 -2.2471
  272MOL0     H37488  10.421   6.417   0.846 -0.2112  0.0609  0.5684
  272MOL0     H37489  10.392   6.434   1.014  0.0211 -0.2861 -0.3177
  272MOL0     H37490  10.612   6.311   1.050  3.0489 -3.0220 -2.0709
  272MOL0     H37491  10.616   6.294   0.869 -4.1669  0.5409 -2.0938
  272MOL0     H37492  10.591   6.579   0.966 -0.2249  1.3089 -3.3103
  272MOL0     H37493  10.739   6.496   1.015 -1.7824  0.2676  1.1346
  272MOL0     H37494  10.815   6.702   0.980  2.7707  1.0289  1.7364
  272MOL0     H37495  11.082   6.907   0.966  0.3736 -0.4438  2.2910
  272MOL0     H37496  10.926   6.850   1.047 -2.0045  0.6294 -0.1397
  272MOL0     H37497  10.927   6.992   0.937 -0.9263 -1.1593 -1.8228
  272MOL0     H37498  11.234   6.905   0.319 -1.1910 -1.1739  2.1034
  272MOL0     H37499  11.315   7.050   0.172  0.3261 -0.5285  0.9858
  272MOL0     H37500  11.320   7.499   0.095 -0.5523 -0.1304  0.0291
  272MOL0     H37501  11.198   7.481   0.223 -1.5981 -1.2657 -1.9214
  272MOL0     H37502  11.380   7.594   0.317 -0.2214 -1.0625  2.8907
  272MOL0     H37503  11.377   7.434   0.374 -1.7011 -0.5950  0.2084
  272MOL0     H37504  11.546   7.409   0.139 -2.0244 -2.4762  2.0351
  272MOL0     H37505  11.625   7.439   0.298  2.3394  0.9593 -0.7186
  272MOL0     H37506  11.628   7.676   0.263 -2.7131 -0.8930  2.8402
  272MOL0     H37507  11.542   7.673   0.108  0.3979 -0.4166 -0.1221
  272MOL0     H37508  11.813   7.683   0.115 -1.3154  1.7770 -4.6645
  272MOL0     H37509  11.799   7.509   0.164 -1.5673 -0.8035 -0.5291
  272MOL0     H37510  11.736   7.649  -0.095  0.3585  0.7360  1.9636
  272MOL0     H37511  11.645   7.501  -0.053  0.3338  0.7511 -3.2155
  272MOL0     H37512  11.847   7.362  -0.012  0.9590  0.5574  0.5793
  272MOL0     H37513  11.945   7.508  -0.019 -1.7205  2.8486 -0.4690
  272MOL0     H37514  11.913   7.541  -0.261  0.9685  1.6046  2.8243
  272MOL0     H37515  11.793   7.413  -0.242  0.0688 -0.2160  0.8361
  272MOL0     H37516  11.147   7.380   0.399  0.3557 -0.6466  3.8959
  272MOL0     H37517  11.084   7.225   0.568 -1.9604  0.3249 -1.3845
  272MOL0     H37518  10.930   6.762   0.508  1.2384  5.9551  2.4258
  272MOL0     H37519  10.796   6.571   0.568 -0.6277 -0.2093 -0.4662
  272MOL0     H37520   9.584   7.010   1.022  1.3615 -3.0522  3.7751
  272MOL0     H37521   9.601   7.200   1.186 -0.6473  1.5682  1.0467
  272MOL0     H37522   9.333   7.342   1.559  0.6551  1.1584  0.8639
  272MOL0     H37523   9.304   7.486   1.759 -1.2853  1.4946 -0.1244
  272MOL0     H37524   9.217   7.911   1.730 -3.5579  1.1623 -1.5669
  272MOL0     H37525   9.048   7.875   1.774  0.2850 -0.4305 -0.0742
  272MOL0     H37526   9.303   7.872   1.949  0.8371 -2.2605  0.7546
  272MOL0     H37527   9.151   7.813   2.005 -0.0589 -0.4893 -0.9282
  272MOL0     H37528   9.223   8.074   2.058 -1.3058  0.2916  0.3324
  272MOL0     H37529   9.203   8.098   1.881 -3.4076  2.3990 -0.6653
  272MOL0     H37530   8.988   8.100   2.078 -0.6106 -0.2115 -0.0854
  272MOL0     H37531   8.965   7.965   1.980 -1.5454  1.1405 -0.0867
  272MOL0     H37532   8.900   8.275   1.694 -0.6355 -0.2300 -0.7079
  272MOL0     H37533   9.145   7.802   1.528  1.8083  1.2419  2.2699
  272MOL0     H37534   9.162   7.813   1.318 -0.0477  0.7755 -1.5425
  272MOL0     H37535   9.253   7.721   1.211  0.4454  2.6231  0.5792
  272MOL0     H37536   9.083   7.666   1.245  0.0208  1.8612 -1.3555
  273MOL0     O37537   4.693   4.875  10.689 -0.1534 -0.3942  0.4879
  273MOL0     C37538   4.700   4.927  10.803 -0.4342 -0.0765  0.6115
  273MOL0     O37539   4.592   4.956  10.888 -0.2343 -0.6865 -0.6601
  273MOL0     C37540   4.468   4.959  10.831 -0.1590  0.5250 -0.4945
  273MOL0     C37541   4.390   5.074  10.819  1.0452 -0.5277 -0.3168
  273MOL0     C37542   4.260   5.064  10.764  0.7252 -0.8702  0.2614
  273MOL0     C37543   4.195   4.946  10.733 -0.5909 -0.3236  0.3616
  273MOL0     O37544   4.068   4.932  10.696  0.6803 -0.7680  0.1884
  273MOL0     C37545   4.004   5.029  10.611  0.6947  0.9167 -0.7142
  273MOL0     C37546   3.861   4.972  10.590 -0.6618 -0.5356  0.2274
  273MOL0     C37547   3.839   4.967  10.441  0.0840  0.7828 -0.0909
  273MOL0     C37548   3.813   5.110  10.380 -0.1754  0.1929 -0.7680
  273MOL0     C37549   3.754   5.100  10.238 -0.2551 -0.3412 -0.2880
  273MOL0     C37550   3.749   5.236  10.174  0.1174 -0.0473 -0.1099
  273MOL0     C37551   3.639   5.240  10.066 -0.4740 -0.1922 -1.3141
  273MOL0     C37552   3.654   5.365   9.973 -0.9778 -0.0937 -0.1370
  273MOL0     N37553   3.542   5.393   9.871 -1.2815 -0.0794  0.0164
  273MOL0     C37554   3.423   5.331   9.853 -0.7738 -0.4780  1.4487
  273MOL0     C37555   3.370   5.393   9.750  0.9175  0.1944  0.4493
  273MOL0     C37556   3.234   5.360   9.690  0.0591  0.8798  0.2692
  273MOL0     C37557   3.210   5.433   9.563 -0.5990  0.0040 -0.3451
  273MOL0     C37558   3.082   5.406   9.485 -0.1407 -0.6392  0.3718
  273MOL0     C37559   3.029   5.264   9.463  0.7003 -0.6994 -0.2270
  273MOL0     O37560   3.134   5.191   9.399 -0.2229 -0.0221 -0.1993
  273MOL0     C37561   3.126   5.141   9.273 -0.4608 -0.2594  0.7581
  273MOL0     C37562   3.245   5.121   9.193  1.3507 -0.6645  0.7591
  273MOL0     C37563   3.241   5.092   9.060 -0.4889 -0.1158  0.0956
  273MOL0     C37564   3.380   5.074   8.989  0.6289  0.4368  0.5283
  273MOL0     C37565   3.115   5.070   8.992 -0.5413 -0.2938  1.4093
  273MOL0     C37566   3.093   5.023   8.856 -0.4228  0.8798 -0.5661
  273MOL0     O37567   2.972   4.983   8.817 -0.6191 -0.2478 -0.7471
  273MOL0     C37568   2.971   4.897   8.706  0.1677 -0.1643 -0.1231
  273MOL0     C37569   3.071   4.810   8.667  0.2421  0.9603  0.8411
  273MOL0     C37570   3.074   4.734   8.551 -0.0597 -0.1138  0.2817
  273MOL0     C37571   2.970   4.756   8.452 -0.2077 -0.8382 -1.3730
  273MOL0     O37572   2.968   4.687   8.330 -0.8491  0.6596  0.3592
  273MOL0     C37573   3.094   4.613   8.291  0.1593  0.7945 -1.0627
  273MOL0     C37574   3.078   4.585   8.141  0.4032  0.0452 -0.3665
  273MOL0     C37575   3.077   4.721   8.056  0.0241  0.1061 -0.0342
  273MOL0     C37576   3.042   4.677   7.921 -0.6812  0.8782  0.0660
  273MOL0     C37577   3.050   4.808   7.841  0.9143  0.8382 -0.0448
  273MOL0     C37578   2.953   4.794   7.716 -0.0732  0.4284  0.3554
  273MOL0     C37579   2.983   4.667   7.637 -0.4478 -0.0262  0.6360
  273MOL0     C37580   3.101   4.699   7.544 -0.0230 -0.6684  0.0414
  273MOL0    Cl37581   3.228   4.616   7.631  0.0104  0.4171  0.5931
  273MOL0     C37582   2.866   4.845   8.486 -0.7061  0.6635 -0.3057
  273MOL0     C37583   2.869   4.916   8.613 -0.4819  0.7339  0.3816
  273MOL0     O37584   3.189   5.042   8.781 -0.0091  0.3722 -0.3775
  273MOL0     C37585   2.994   5.074   9.069 -1.1927 -0.5074  0.3682
  273MOL0     C37586   3.003   5.101   9.209  0.4093 -0.5820  0.7257
  273MOL0     N37587   3.452   5.495   9.704 -0.3848  0.3478  0.1171
  273MOL0     N37588   3.546   5.492   9.780 -0.5030 -0.6302 -0.8979
  273MOL0     C37589   4.276   4.827  10.751 -0.2690  1.4262 -1.1021
  273MOL0     C37590   4.411   4.834  10.789 -0.1533 -0.3287 -0.3097
  273MOL0     C37591   4.831   4.965  10.850 -0.1048  0.1232 -0.0052
  273MOL0     C37592   4.906   5.036  10.763  0.8142  0.8440  0.8758
  273MOL0     C37593   5.023   5.107  10.799  0.0789  1.5173 -0.7410
  273MOL0     C37594   5.069   5.102  10.931 -0.2095  0.2883 -0.0031
  273MOL0     O37595   5.190   5.157  10.965 -0.5172  0.2593 -0.5159
  273MOL0     C37596   5.262   5.113  11.080  0.1826 -0.2916 -0.5371
  273MOL0     C37597   5.332   4.978  11.059 -0.5068 -1.0597 -0.2770
  273MOL0     C37598   5.433   4.993  10.944 -0.7860  0.0175  0.7266
  273MOL0     C37599   5.575   5.034  11.004  0.2050 -0.2300 -0.6193
  273MOL0     C37600   5.654   5.124  10.918  1.0592  0.3303 -0.0207
  273MOL0     C37601   5.716   5.190  10.840  0.6926  1.1908  0.8847
  273MOL0     C37602   4.997   5.025  11.027  1.1671 -0.4276  0.7497
  273MOL0     C37603   4.880   4.957  10.985  0.3564  0.0071  0.3854
  273MOL0     C37604   4.811   4.873  11.090 -0.5848 -0.9552 -0.1177
  273MOL0     H37605   4.424   5.168  10.862  2.3849 -0.9331 -0.4632
  273MOL0     H37606   4.203   5.156  10.769  0.5562 -0.9820  0.4104
  273MOL0     H37607   4.059   5.040  10.517  0.3801  1.9384 -0.7900
  273MOL0     H37608   4.015   5.131  10.647  0.6620 -0.0053  2.1847
  273MOL0     H37609   3.855   4.871  10.632  2.8243 -0.7109  0.5512
  273MOL0     H37610   3.794   5.040  10.644  0.3047  0.7464 -0.1339
  273MOL0     H37611   3.921   4.930  10.379 -1.9828 -2.9920 -0.8868
  273MOL0     H37612   3.749   4.907  10.425  0.2017  0.3873  0.6773
  273MOL0     H37613   3.737   5.161  10.441  1.1128  1.5177 -0.2221
  273MOL0     H37614   3.908   5.162  10.387 -0.2484  0.1972  0.3761
  273MOL0     H37615   3.652   5.061  10.239 -0.2991 -0.6531  3.9151
  273MOL0     H37616   3.816   5.033  10.178 -0.1107  0.3644 -0.9401
  273MOL0     H37617   3.713   5.312  10.244 -1.9534 -0.0213 -1.1287
  273MOL0     H37618   3.852   5.255  10.144  1.3208 -1.2258  2.8602
  273MOL0     H37619   3.545   5.237  10.123  0.6169 -0.8897  0.5381
  273MOL0     H37620   3.642   5.151  10.002  3.0682  0.3551 -2.1127
  273MOL0     H37621   3.664   5.455  10.034 -0.8522 -0.7736  0.8672
  273MOL0     H37622   3.751   5.364   9.922 -1.3254 -2.1505 -0.8637
  273MOL0     H37623   3.376   5.254   9.913  1.4418  0.0767  4.0935
  273MOL0     H37624   3.155   5.376   9.763 -1.3263  0.0052 -0.9739
  273MOL0     H37625   3.244   5.253   9.665  0.5655  0.8625  0.5217
  273MOL0     H37626   3.213   5.539   9.591  3.5243 -0.0471  0.0498
  273MOL0     H37627   3.291   5.429   9.489 -0.5717  3.9120 -0.7526
  273MOL0     H37628   3.004   5.468   9.528 -2.5720 -0.1328 -4.1173
  273MOL0     H37629   3.095   5.445   9.383 -0.6969  0.2455  0.6350
  273MOL0     H37630   3.009   5.230   9.565 -1.3104 -1.0680 -0.6925
  273MOL0     H37631   2.933   5.264   9.410  1.4545  0.7413 -1.6854
  273MOL0     H37632   3.335   5.160   9.239  3.2978 -1.0299 -2.4855
  273MOL0     H37633   3.393   4.980   8.934 -2.1522 -0.4488  1.2689
  273MOL0     H37634   3.460   5.073   9.064  3.8353 -0.1530 -2.5749
  273MOL0     H37635   3.402   5.161   8.925 -2.7091  0.8053 -0.2729
  273MOL0     H37636   3.158   4.793   8.730 -0.1536  1.7101  1.6150
  273MOL0     H37637   3.143   4.651   8.541 -1.1662 -1.5355  3.1491
  273MOL0     H37638   3.181   4.677   8.309  0.2267  0.5172 -0.3707
  273MOL0     H37639   3.096   4.514   8.337  2.7160  1.1780 -0.2297
  273MOL0     H37640   3.136   4.501   8.102  1.3483  0.4634  0.1181
  273MOL0     H37641   2.974   4.551   8.133 -0.7302  3.4264 -1.9850
  273MOL0     H37642   3.171   4.776   8.056  0.0901  0.0141  1.0549
  273MOL0     H37643   3.001   4.785   8.102 -1.8250 -1.5006 -0.7277
  273MOL0     H37644   2.945   4.629   7.924 -0.2655 -0.0086 -0.4671
  273MOL0     H37645   3.118   4.607   7.884  1.2649  0.2473  4.5921
  273MOL0     H37646   3.014   4.896   7.895  1.0827  0.0292  1.4293
  273MOL0     H37647   3.155   4.833   7.822  1.4623  0.2535  1.9709
  273MOL0     H37648   2.964   4.890   7.665  1.2753  0.5453  0.8288
  273MOL0     H37649   2.846   4.785   7.735 -0.4492  2.2159 -0.7441
  273MOL0     H37650   2.898   4.649   7.571 -0.0651 -0.2798  0.2107
  273MOL0     H37651   3.001   4.579   7.698 -1.2473 -1.0023 -0.4973
  273MOL0     H37652   3.128   4.803   7.524  1.4990 -0.2924  3.4252
  273MOL0     H37653   3.076   4.651   7.448 -3.3541  0.8221  0.0339
  273MOL0     H37654   2.795   4.873   8.409  0.1670 -1.0532 -1.7905
  273MOL0     H37655   2.791   4.991   8.622 -0.0386  1.1016  1.2711
  273MOL0     H37656   2.894   5.079   9.027 -2.1475  2.6879  2.6126
  273MOL0     H37657   2.906   5.096   9.258  1.0611 -4.0523  1.9572
  273MOL0     H37658   4.247   4.727  10.718  4.2691 -0.0090 -1.4676
  273MOL0     H37659   4.478   4.753  10.816  1.1050  1.1948  1.3917
  273MOL0     H37660   4.884   5.055  10.658  0.0891  1.1499  1.0841
  273MOL0     H37661   5.081   5.179  10.742  2.3250  2.3977  2.3795
  273MOL0     H37662   5.339   5.190  11.086  2.8940 -2.9074  2.9783
  273MOL0     H37663   5.198   5.117  11.168  1.6115  3.8932  0.5560
  273MOL0     H37664   5.260   4.902  11.026 -1.1083 -0.3065 -0.7209
  273MOL0     H37665   5.389   4.946  11.146  0.5397  0.3935 -0.3923
  273MOL0     H37666   5.443   4.894  10.899  3.3212 -0.8752  3.1205
  273MOL0     H37667   5.395   5.056  10.862 -0.0468  1.3685  1.3958
  273MOL0     H37668   5.644   4.953  11.030  1.0389 -0.4457 -3.2078
  273MOL0     H37669   5.558   5.086  11.098  1.6960 -0.4923 -0.1789
  273MOL0     H37670   5.770   5.243  10.764 -0.4111  1.1609  0.0488
  273MOL0     H37671   5.027   5.015  11.130  2.7484 -2.6853  0.1491
  273MOL0     H37672   4.891   4.855  11.164  1.2801  3.1678 -0.8311
  273MOL0     H37673   4.740   4.942  11.136  0.6603  3.0001 -3.4744
  273MOL0     H37674   4.767   4.780  11.053 -0.0294 -1.4820  0.5161
  274MOL0     O37675   6.104   3.269   5.562  0.1056 -0.3297  0.2626
  274MOL0     C37676   6.227   3.240   5.562 -0.7196 -0.2103  0.0352
  274MOL0     O37677   6.329   3.329   5.515 -0.5440 -0.4219  0.2999
  274MOL0     C37678   6.291   3.456   5.461 -0.8726  0.0288 -0.1797
  274MOL0     C37679   6.361   3.491   5.349 -0.0046 -0.6538  0.1994
  274MOL0     C37680   6.340   3.623   5.301 -0.6640  0.2022 -0.0674
  274MOL0     C37681   6.247   3.710   5.357 -0.3433  0.2432  0.1689
  274MOL0     O37682   6.228   3.824   5.293 -0.9103 -1.0992 -0.2436
  274MOL0     C37683   6.133   3.924   5.324 -0.1174 -0.4148  0.1510
  274MOL0     C37684   6.138   4.026   5.214 -0.1913  0.0899 -0.8094
  274MOL0     C37685   6.137   3.959   5.083  0.0643 -0.8710  0.5510
  274MOL0     C37686   6.177   4.069   4.980  0.2801 -0.1943  0.3997
  274MOL0     C37687   6.332   4.086   4.983  0.3901 -0.1441 -0.4602
  274MOL0     C37688   6.391   4.151   4.860 -1.0966 -0.5729  0.2725
  274MOL0     C37689   6.413   4.303   4.869  0.0246 -0.3922  0.0711
  274MOL0     C37690   6.485   4.344   4.746 -0.2814 -0.0933  0.3367
  274MOL0     N37691   6.514   4.485   4.729 -0.2091  0.0049 -0.1967
  274MOL0     C37692   6.620   4.547   4.799 -0.1914 -0.9261  0.4569
  274MOL0     C37693   6.659   4.652   4.724  0.2263  0.2353  0.0428
  274MOL0     C37694   6.768   4.749   4.748  0.2295 -0.1122  0.3487
  274MOL0     C37695   6.736   4.888   4.689  0.6066  1.4544 -0.0077
  274MOL0     C37696   6.730   4.901   4.531  0.5297  0.4759  0.6282
  274MOL0     C37697   6.756   5.050   4.483 -0.2071  0.2362 -0.1396
  274MOL0     O37698   6.670   5.147   4.548 -0.0073 -0.6208  1.0795
  274MOL0     C37699   6.587   5.207   4.456  0.3994  0.7535  0.6349
  274MOL0     C37700   6.644   5.284   4.348  0.4547  0.6383 -0.1678
  274MOL0     C37701   6.560   5.358   4.270  0.5766  0.5223  0.8401
  274MOL0     C37702   6.629   5.450   4.166 -0.5605  0.5964 -0.3247
  274MOL0     C37703   6.419   5.358   4.283 -0.5246  0.6564 -0.1080
  274MOL0     C37704   6.318   5.426   4.196 -0.4858 -0.4597 -0.4185
  274MOL0     O37705   6.188   5.429   4.238  0.7124 -0.3566  0.7681
  274MOL0     C37706   6.112   5.540   4.217 -0.1448 -0.2208  0.1167
  274MOL0     C37707   5.974   5.527   4.244 -0.0839 -0.9133  0.3460
  274MOL0     C37708   5.897   5.645   4.249  0.4558  0.1883 -0.3747
  274MOL0     C37709   5.955   5.770   4.219 -0.9053  0.4515  0.0833
  274MOL0     O37710   5.874   5.881   4.202 -0.7491 -0.9743  0.8080
  274MOL0     C37711   5.777   5.880   4.093 -0.5048 -0.6341  1.4795
  274MOL0     C37712   5.647   5.962   4.145 -0.6024 -0.0275 -0.4132
  274MOL0     C37713   5.586   5.902   4.275  0.3445 -0.4509  0.3709
  274MOL0     C37714   5.504   5.780   4.247 -0.9220 -1.3305 -0.3927
  274MOL0     C37715   5.449   5.729   4.382  0.5617 -0.4443 -0.3689
  274MOL0     C37716   5.561   5.703   4.489 -0.4447  0.4026 -0.5092
  274MOL0     C37717   5.526   5.591   4.583  0.0599 -0.7603 -0.3012
  274MOL0     C37718   5.601   5.596   4.713 -0.7297 -0.0829  0.6120
  274MOL0    Cl37719   5.768   5.532   4.700 -0.3424  0.0494  0.0698
  274MOL0     C37720   6.097   5.776   4.201  0.4791  0.4957  0.3223
  274MOL0     C37721   6.178   5.660   4.198 -0.0210 -1.0333 -0.0244
  274MOL0     O37722   6.351   5.473   4.085  0.2789  0.3916  0.1749
  274MOL0     C37723   6.374   5.295   4.401 -0.1671 -0.7144 -0.2223
  274MOL0     C37724   6.460   5.225   4.490 -0.0204  0.2231  0.5212
  274MOL0     N37725   6.584   4.646   4.604  0.4642 -0.3490 -0.2972
  274MOL0     N37726   6.494   4.560   4.620 -0.2565 -0.6307  0.2298
  274MOL0     C37727   6.187   3.669   5.475  0.2609  0.2982 -0.9268
  274MOL0     C37728   6.197   3.541   5.518 -0.5355  0.3061 -0.5782
  274MOL0     C37729   6.260   3.099   5.603  0.8651 -0.4304  0.7371
  274MOL0     C37730   6.354   3.087   5.707  0.3035 -0.6156  0.2147
  274MOL0     C37731   6.400   2.966   5.749 -0.2245  0.3294  0.6384
  274MOL0     C37732   6.359   2.853   5.694 -0.2810 -1.0474 -0.2432
  274MOL0     O37733   6.412   2.737   5.740 -0.2644  0.4583  0.2628
  274MOL0     C37734   6.436   2.631   5.648  1.1826 -0.4561  0.1244
  274MOL0     C37735   6.520   2.523   5.696  0.3868  0.3452  0.4603
  274MOL0     C37736   6.664   2.560   5.685  0.7193  0.1765 -0.3827
  274MOL0     C37737   6.736   2.466   5.776  0.4648  0.1342 -1.0692
  274MOL0     C37738   6.877   2.464   5.774 -0.7768 -0.4360  0.6157
  274MOL0     C37739   7.000   2.467   5.781  0.3162 -0.9714 -0.3474
  274MOL0     C37740   6.259   2.857   5.595  0.6588 -0.6900 -0.4415
  274MOL0     C37741   6.220   2.976   5.540  0.1118  0.1330 -0.4489
  274MOL0     C37742   6.124   2.986   5.425  0.2361  0.0666  0.2976
  274MOL0     H37743   6.441   3.428   5.313  0.4023  0.2659 -0.5505
  274MOL0     H37744   6.382   3.641   5.202  1.3957 -2.3071  0.2489
  274MOL0     H37745   6.169   3.970   5.417  1.6392  1.8565 -1.5272
  274MOL0     H37746   6.034   3.878   5.325 -2.6104  4.3224 -1.5660
  274MOL0     H37747   6.061   4.102   5.223 -1.0572 -0.8767  0.2197
  274MOL0     H37748   6.235   4.075   5.226  0.7700 -1.0902 -3.0886
  274MOL0     H37749   6.211   3.878   5.081  2.2212  0.9351  1.8777
  274MOL0     H37750   6.037   3.916   5.078  0.4974 -1.8034 -2.2891
  274MOL0     H37751   6.143   4.037   4.881  3.5818 -2.1061 -0.2706
  274MOL0     H37752   6.144   4.170   5.006  0.1309 -0.1602  0.0845
  274MOL0     H37753   6.374   3.985   4.988  3.1089  0.8132 -2.2666
  274MOL0     H37754   6.352   4.144   5.073 -3.5887 -0.8007  1.0619
  274MOL0     H37755   6.488   4.102   4.850 -1.7909 -1.8489 -0.4423
  274MOL0     H37756   6.331   4.120   4.774 -1.2229 -0.2504  0.2398
  274MOL0     H37757   6.463   4.341   4.959  0.4292  2.1486 -1.1159
  274MOL0     H37758   6.315   4.351   4.864  0.2598  0.0142 -1.0475
  274MOL0     H37759   6.585   4.299   4.735 -0.0860  0.6064 -1.0613
  274MOL0     H37760   6.430   4.324   4.653 -0.9500  2.0165  0.2244
  274MOL0     H37761   6.677   4.520   4.888 -0.4009  1.4116  1.3709
  274MOL0     H37762   6.867   4.713   4.718  2.4134  1.5599  4.7549
  274MOL0     H37763   6.785   4.757   4.856 -1.3906  2.3093  0.5071
  274MOL0     H37764   6.635   4.910   4.723 -0.3597  0.3231 -1.9598
  274MOL0     H37765   6.802   4.962   4.736 -0.2102  1.1974  1.6018
  274MOL0     H37766   6.794   4.831   4.478  2.8533  2.2398  0.9362
  274MOL0     H37767   6.626   4.879   4.507  0.4769  0.6411  0.7048
  274MOL0     H37768   6.862   5.076   4.489  0.1307 -1.1846  0.4951
  274MOL0     H37769   6.728   5.044   4.377  0.2191  2.7565 -0.4593
  274MOL0     H37770   6.751   5.284   4.330  0.7776 -4.3491  0.3680
  274MOL0     H37771   6.731   5.476   4.196  0.2122 -1.3320 -1.0689
  274MOL0     H37772   6.576   5.542   4.138  1.2627  1.1820 -2.1184
  274MOL0     H37773   6.628   5.397   4.070  1.4799 -0.1074  0.0027
  274MOL0     H37774   5.932   5.431   4.274 -3.9180  0.2611 -0.7471
  274MOL0     H37775   5.790   5.640   4.266  0.3732 -0.3189 -0.9966
  274MOL0     H37776   5.836   5.931   4.016  1.8297 -1.7242  2.4556
  274MOL0     H37777   5.755   5.782   4.051  5.0234 -0.8876 -1.7844
  274MOL0     H37778   5.677   6.064   4.170  1.2361 -0.9484  1.4597
  274MOL0     H37779   5.570   5.968   4.068 -0.6532 -0.8505 -0.4379
  274MOL0     H37780   5.524   5.981   4.317  1.7762  1.1177 -0.3318
  274MOL0     H37781   5.674   5.880   4.337  1.5698 -0.0580 -1.1476
  274MOL0     H37782   5.555   5.699   4.193  1.7316 -0.9127  1.3406
  274MOL0     H37783   5.416   5.798   4.185 -1.1733 -1.8648 -0.1980
  274MOL0     H37784   5.372   5.792   4.428 -0.2409 -0.7434 -1.2874
  274MOL0     H37785   5.395   5.635   4.367 -0.1967 -0.2104  0.7845
  274MOL0     H37786   5.567   5.804   4.531  0.5762  0.8005 -1.5582
  274MOL0     H37787   5.656   5.671   4.446 -0.1109 -0.8918  1.0777
  274MOL0     H37788   5.549   5.495   4.537 -2.0297 -1.7088  0.5113
  274MOL0     H37789   5.420   5.594   4.610  0.3397 -2.0464  1.0861
  274MOL0     H37790   5.549   5.531   4.785  1.5691  1.1379  3.6173
  274MOL0     H37791   5.620   5.696   4.751  1.5146 -0.0616 -0.4063
  274MOL0     H37792   6.135   5.874   4.175 -0.2065  1.2504  1.9962
  274MOL0     H37793   6.286   5.668   4.197 -0.0562  0.7885  2.3486
  274MOL0     H37794   6.269   5.299   4.427 -0.1504 -1.3473 -0.0518
  274MOL0     H37795   6.415   5.167   4.571 -0.4372  1.9065  1.5320
  274MOL0     H37796   6.118   3.738   5.522 -1.0178  0.1087 -2.4514
  274MOL0     H37797   6.149   3.498   5.605  1.3957 -0.2761  0.2626
  274MOL0     H37798   6.382   3.179   5.756 -2.9131  0.2810  0.5400
  274MOL0     H37799   6.482   2.964   5.820 -1.0741 -1.0152  1.6387
  274MOL0     H37800   6.344   2.581   5.617  0.7057  1.2844 -1.4897
  274MOL0     H37801   6.475   2.679   5.557  0.8134 -1.5683 -0.6432
  274MOL0     H37802   6.505   2.436   5.631  1.9201 -0.5601  1.2662
  274MOL0     H37803   6.490   2.507   5.800  3.3901  0.6103  1.4588
  274MOL0     H37804   6.703   2.544   5.584  1.6407  1.8646 -0.3307
  274MOL0     H37805   6.678   2.665   5.710  4.9975 -0.2560 -0.2505
  274MOL0     H37806   6.706   2.363   5.753 -0.6102  0.2696 -0.3425
  274MOL0     H37807   6.716   2.483   5.882  2.3655 -0.4287 -0.5650
  274MOL0     H37808   7.106   2.462   5.790  0.2781 -0.1921  0.6933
  274MOL0     H37809   6.224   2.768   5.543 -0.4955 -1.0466  0.8567
  274MOL0     H37810   6.183   3.012   5.336  1.8796 -0.4592  1.1885
  274MOL0     H37811   6.077   2.889   5.411  2.3607 -0.7785 -1.7204
  274MOL0     H37812   6.053   3.069   5.433  2.3490  1.8968  1.4808
  275MOL0     O37813   4.841   9.007   0.686  0.4859  0.9347 -0.1434
  275MOL0     C37814   4.828   9.102   0.613 -0.0844 -0.1408  1.0822
  275MOL0     O37815   4.737   9.201   0.641  0.0545 -0.4296  0.0637
  275MOL0     C37816   4.648   9.191   0.752 -0.0705  0.0313  0.1887
  275MOL0     C37817   4.695   9.217   0.881  0.1531 -0.1706  0.3793
  275MOL0     C37818   4.610   9.229   0.989 -0.1383 -0.2709  0.6485
  275MOL0     C37819   4.479   9.186   0.978  0.4604 -0.5180  0.0814
  275MOL0     O37820   4.404   9.196   1.091  0.3851  0.2646  0.8662
  275MOL0     C37821   4.300   9.297   1.085 -0.5271  0.5119 -0.8504
  275MOL0     C37822   4.242   9.324   1.215  0.2707 -0.3208 -0.6319
  275MOL0     C37823   4.190   9.190   1.272 -0.6747  0.4608  0.1054
  275MOL0     C37824   4.135   9.226   1.407  0.3758  0.4329 -0.2290
  275MOL0     C37825   4.072   9.109   1.472  0.2241  0.5592 -1.1408
  275MOL0     C37826   4.166   9.013   1.538  0.0308  1.0728  0.3238
  275MOL0     C37827   4.103   8.889   1.600 -0.2380  0.3985  0.5852
  275MOL0     C37828   4.208   8.795   1.663 -0.3587  0.2739  0.0925
  275MOL0     N37829   4.271   8.841   1.782 -0.4557  0.1206 -0.4414
  275MOL0     C37830   4.274   8.751   1.891  0.9143 -0.3504 -0.7997
  275MOL0     C37831   4.362   8.809   1.970 -0.9562 -0.3711 -0.2362
  275MOL0     C37832   4.399   8.765   2.106 -0.6837  0.0226  0.0707
  275MOL0     C37833   4.290   8.690   2.188 -0.3930  0.8329 -0.3314
  275MOL0     C37834   4.173   8.788   2.217  0.0500 -0.0976  0.5460
  275MOL0     C37835   4.186   8.923   2.283  0.1433 -0.5353  0.2304
  275MOL0     O37836   4.228   8.905   2.418  0.4460  0.2038 -0.0945
  275MOL0     C37837   4.260   9.013   2.497 -0.1778  0.2142 -0.3356
  275MOL0     C37838   4.228   9.138   2.469 -0.8854  0.3267 -0.1553
  275MOL0     C37839   4.260   9.260   2.544 -0.0956  1.0844  0.5895
  275MOL0     C37840   4.238   9.391   2.477  0.4925 -1.3344 -0.1716
  275MOL0     C37841   4.325   9.233   2.670 -1.0973  0.2729 -0.8093
  275MOL0     C37842   4.403   9.337   2.732 -0.6309 -0.1053 -0.1340
  275MOL0     O37843   4.335   9.461   2.747 -0.2796 -0.1338 -0.3581
  275MOL0     C37844   4.421   9.567   2.785 -0.3566  0.6124 -0.2882
  275MOL0     C37845   4.450   9.668   2.694  0.0587  0.0303  0.8278
  275MOL0     C37846   4.525   9.784   2.736  0.3785 -1.1629 -0.5007
  275MOL0     C37847   4.569   9.796   2.867 -0.6430 -0.9013  0.2397
  275MOL0     O37848   4.636   9.899   2.931  0.6307 -0.2153 -0.0085
  275MOL0     C37849   4.612  10.036   2.874  0.7680 -0.1238  0.3222
  275MOL0     C37850   4.463  10.084   2.887 -0.1355  0.6565  0.1480
  275MOL0     C37851   4.397  10.094   3.028 -0.2411 -0.5387 -0.0852
  275MOL0     C37852   4.474  10.178   3.127 -0.3267 -0.2571  0.3438
  275MOL0     C37853   4.412  10.179   3.274 -0.0973 -1.0795 -0.2408
  275MOL0     C37854   4.453  10.294   3.366  0.0645 -0.3183  0.8860
  275MOL0     C37855   4.399  10.270   3.505 -0.2852  0.2995  0.2146
  275MOL0     C37856   4.250  10.323   3.521 -0.2509  0.4488 -0.2365
  275MOL0    Cl37857   4.175  10.267   3.677 -0.0726  0.1562  0.5806
  275MOL0     C37858   4.536   9.700   2.949 -0.5397  0.8486  0.2107
  275MOL0     C37859   4.464   9.586   2.918 -0.7197 -0.2119  0.4271
  275MOL0     O37860   4.517   9.310   2.764  0.3125 -0.7349  0.0890
  275MOL0     C37861   4.338   9.098   2.709  0.3457 -0.5206  0.8014
  275MOL0     C37862   4.313   9.002   2.622  0.7067  0.3398  0.3118
  275MOL0     N37863   4.403   8.940   1.927  0.1726  0.1664  0.3660
  275MOL0     N37864   4.351   8.954   1.810  0.1695 -0.5156 -0.3501
  275MOL0     C37865   4.430   9.153   0.849  0.7483 -1.5114  0.7551
  275MOL0     C37866   4.513   9.154   0.738  0.1534  0.1461 -1.1686
  275MOL0     C37867   4.916   9.114   0.492 -0.9182 -0.2553  0.6672
  275MOL0     C37868   4.904   9.235   0.414 -0.3525  0.0978  1.0936
  275MOL0     C37869   4.988   9.266   0.311  0.1332  0.0334  0.0926
  275MOL0     C37870   5.082   9.168   0.277 -0.1308  0.0579  0.5663
  275MOL0     O37871   5.152   9.206   0.165  0.6091 -0.0197 -0.1852
  275MOL0     C37872   5.264   9.132   0.110  1.0078  0.0030 -0.1713
  275MOL0     C37873   5.395   9.131   0.189  0.5876  0.3849  0.4650
  275MOL0     C37874   5.478   9.264   0.163  0.0382 -0.4872 -0.2558
  275MOL0     C37875   5.393   9.399   0.193 -0.4795 -0.0455  0.0742
  275MOL0     C37876   5.333   9.450   0.064  0.5140  0.2905 -0.0972
  275MOL0     C37877   5.295   9.482  -0.040 -0.3992  0.2809  0.2199
  275MOL0     C37878   5.099   9.048   0.349  0.6888 -0.0610  0.2885
  275MOL0     C37879   5.015   9.021   0.458  0.6315 -0.1907  0.4005
  275MOL0     C37880   5.051   8.892   0.534 -0.4044  0.2401  0.2388
  275MOL0     H37881   4.800   9.245   0.883 -0.4076  2.4310 -1.2354
  275MOL0     H37882   4.637   9.271   1.085 -1.4072  2.8982 -0.2544
  275MOL0     H37883   4.209   9.275   1.028 -1.8110  1.7857  0.6247
  275MOL0     H37884   4.348   9.388   1.047  0.3805  0.0924 -0.7266
  275MOL0     H37885   4.313   9.373   1.282 -2.3508  4.3147 -0.8260
  275MOL0     H37886   4.165   9.399   1.195  2.6274  2.0976 -1.2427
  275MOL0     H37887   4.111   9.150   1.208  0.3165  0.5751 -1.2317
  275MOL0     H37888   4.271   9.116   1.278 -3.0940 -3.3152 -5.4229
  275MOL0     H37889   4.208   9.265   1.478 -0.3167 -1.5071  1.6802
  275MOL0     H37890   4.056   9.300   1.390  2.4047  2.7033 -0.1995
  275MOL0     H37891   4.012   9.058   1.396  1.9449 -2.3916 -0.6494
  275MOL0     H37892   3.992   9.133   1.544  0.1447 -0.9685 -0.6934
  275MOL0     H37893   4.249   8.989   1.471  0.2287  1.0192  0.5875
  275MOL0     H37894   4.212   9.074   1.617  0.2244  0.2735  0.8371
  275MOL0     H37895   4.070   8.830   1.514  0.4369 -0.1671  0.7080
  275MOL0     H37896   4.015   8.905   1.664 -0.5152  0.8925  0.0923
  275MOL0     H37897   4.166   8.694   1.662 -0.0468  0.1082 -2.1896
  275MOL0     H37898   4.293   8.770   1.598 -0.1369 -0.5203  0.6723
  275MOL0     H37899   4.222   8.656   1.904 -5.4666  2.3522 -2.6855
  275MOL0     H37900   4.435   8.846   2.169  1.3691 -0.6787 -0.1216
  275MOL0     H37901   4.490   8.704   2.097  0.2617  1.3542  0.3212
  275MOL0     H37902   4.238   8.616   2.126 -2.4974  1.9390  0.0007
  275MOL0     H37903   4.347   8.637   2.265  3.6897  2.6389 -1.8266
  275MOL0     H37904   4.118   8.804   2.124 -3.4554  0.7143  2.5377
  275MOL0     H37905   4.110   8.732   2.287 -1.4443  1.1576  0.2848
  275MOL0     H37906   4.254   8.991   2.231 -1.6263  1.7101  0.6987
  275MOL0     H37907   4.091   8.978   2.291  0.3064 -0.3243  0.8117
  275MOL0     H37908   4.176   9.156   2.375  0.5643  0.0704 -1.0483
  275MOL0     H37909   4.321   9.459   2.497 -1.3724  1.1679 -0.3709
  275MOL0     H37910   4.152   9.438   2.527  1.8991  1.9278 -0.5322
  275MOL0     H37911   4.222   9.381   2.369  2.3805 -1.9712 -0.4127
  275MOL0     H37912   4.407   9.653   2.595  3.0542  2.2961 -0.9797
  275MOL0     H37913   4.553   9.861   2.665  2.3171 -0.3903  1.0214
  275MOL0     H37914   4.682  10.107   2.918  1.5744  2.2673 -4.1327
  275MOL0     H37915   4.642  10.036   2.768  0.3869 -1.0055  0.1995
  275MOL0     H37916   4.467  10.185   2.846 -0.0244  1.3119  1.7160
  275MOL0     H37917   4.400  10.012   2.834  0.8059 -0.6085  0.6927
  275MOL0     H37918   4.397   9.996   3.075  0.5821 -1.5106 -1.9715
  275MOL0     H37919   4.291  10.123   3.033 -0.2388 -0.3069 -1.0523
  275MOL0     H37920   4.472  10.282   3.093 -2.4314 -0.5562 -0.6429
  275MOL0     H37921   4.574  10.134   3.135  0.5593  1.7588  0.8357
  275MOL0     H37922   4.303  10.176   3.261 -0.0609 -1.0172 -0.5782
  275MOL0     H37923   4.438  10.091   3.334 -1.2025  0.3961  2.6013
  275MOL0     H37924   4.407  10.389   3.333  1.1457  0.0203  0.3060
  275MOL0     H37925   4.561  10.306   3.359  0.2832 -2.6154 -1.5658
  275MOL0     H37926   4.453  10.326   3.583 -1.4234 -0.0957  1.3161
  275MOL0     H37927   4.409  10.163   3.526 -0.9697  0.8667  4.1832
  275MOL0     H37928   4.182  10.295   3.440 -3.0017  0.4740  1.9212
  275MOL0     H37929   4.244  10.432   3.532 -1.6076  0.2530  1.3682
  275MOL0     H37930   4.574   9.694   3.051 -0.3846 -0.0340  0.1061
  275MOL0     H37931   4.454   9.506   2.990 -0.7789 -0.6044 -0.0152
  275MOL0     H37932   4.372   9.056   2.803  3.3640  0.5248  0.2687
  275MOL0     H37933   4.315   8.897   2.650  0.2538 -0.2493 -1.6895
  275MOL0     H37934   4.324   9.129   0.849 -0.4047  2.6655 -0.7493
  275MOL0     H37935   4.485   9.125   0.637  1.7772  2.7309 -2.4933
  275MOL0     H37936   4.822   9.306   0.420  0.7876  1.4349  1.0948
  275MOL0     H37937   4.984   9.349   0.240 -0.3203  0.0523  0.1325
  275MOL0     H37938   5.233   9.027   0.112  1.0318 -0.0113  1.8416
  275MOL0     H37939   5.276   9.177   0.011  1.2429  0.2436 -0.0335
  275MOL0     H37940   5.455   9.053   0.141 -0.2379  0.2934 -0.4319
  275MOL0     H37941   5.399   9.104   0.295 -0.4092 -2.1037 -0.0556
  275MOL0     H37942   5.550   9.261   0.246 -0.3684 -0.3166  0.1086
  275MOL0     H37943   5.535   9.287   0.072  1.3747  0.4962  0.7821
  275MOL0     H37944   5.467   9.477   0.211 -2.8650  1.5072  4.9385
  275MOL0     H37945   5.316   9.396   0.271  1.2474  2.5886  2.0289
  275MOL0     H37946   5.247   9.505  -0.134 -0.5793  0.4865  0.3600
  275MOL0     H37947   5.172   8.972   0.325  1.1083  0.8999 -1.7498
  275MOL0     H37948   5.149   8.853   0.506 -1.3019 -3.3173  1.5356
  275MOL0     H37949   5.065   8.906   0.641  1.1081  2.9360 -0.2220
  275MOL0     H37950   4.970   8.823   0.510  0.0355  0.5546 -2.4416
  276MOL0     O37951   5.141   5.791   9.653  0.2124  0.4118  1.0801
  276MOL0     C37952   5.131   5.700   9.570  0.2950  1.0071  0.3782
  276MOL0     O37953   5.100   5.712   9.438 -0.0776 -0.4560 -0.1843
  276MOL0     C37954   5.114   5.823   9.365 -1.0644 -0.0315  0.5596
  276MOL0     C37955   5.115   5.796   9.225 -0.4903  0.3873  0.1565
  276MOL0     C37956   5.133   5.895   9.135 -0.3677 -0.1446  1.4314
  276MOL0     C37957   5.142   6.029   9.168  0.1415 -0.2626  0.8818
  276MOL0     O37958   5.158   6.130   9.074 -0.4834  0.0648  0.1048
  276MOL0     C37959   5.039   6.157   9.011  0.6826  0.3354  1.4472
  276MOL0     C37960   5.028   6.299   8.984  1.5309  1.0809  0.2657
  276MOL0     C37961   4.902   6.340   8.894  0.2725 -1.2014 -0.3356
  276MOL0     C37962   4.886   6.295   8.740 -1.2031  0.0564 -0.6122
  276MOL0     C37963   4.989   6.349   8.641  0.5789  0.3384  0.4795
  276MOL0     C37964   4.993   6.266   8.498 -0.2434  0.2238 -0.5311
  276MOL0     C37965   5.020   6.112   8.528  0.1407  0.1271 -0.0115
  276MOL0     C37966   5.146   6.075   8.597 -0.6183 -0.0555 -0.2326
  276MOL0     N37967   5.167   5.931   8.625  0.1199  0.8642 -0.2361
  276MOL0     C37968   5.169   5.829   8.533 -0.3155  0.4665  0.0439
  276MOL0     C37969   5.143   5.716   8.606 -0.0785 -0.1746 -0.6975
  276MOL0     C37970   5.121   5.581   8.550  0.4190  0.0587 -0.3319
  276MOL0     C37971   5.256   5.526   8.500  0.6123 -0.1068  0.4456
  276MOL0     C37972   5.238   5.408   8.396 -0.7331 -1.5930 -0.8642
  276MOL0     C37973   5.174   5.280   8.440  0.3506 -0.2099 -1.0556
  276MOL0     O37974   5.210   5.243   8.572 -0.6349  0.0311 -0.5172
  276MOL0     C37975   5.148   5.141   8.638 -0.3227  0.1543  1.0846
  276MOL0     C37976   5.185   5.136   8.768 -0.1820  0.0822 -1.0696
  276MOL0     C37977   5.154   5.024   8.849 -0.4807 -0.6459  1.1135
  276MOL0     C37978   5.241   5.000   8.964 -0.4037  1.0094 -0.4026
  276MOL0     C37979   5.065   4.917   8.800  0.0766  0.1711 -0.3220
  276MOL0     C37980   5.012   4.805   8.889 -0.5373 -0.1240 -0.6416
  276MOL0     O37981   4.897   4.755   8.835 -0.1949 -0.4955 -0.3686
  276MOL0     C37982   4.829   4.669   8.919 -0.4585  0.0332  0.2302
  276MOL0     C37983   4.862   4.540   8.956  0.1683  0.3485  1.0836
  276MOL0     C37984   4.774   4.475   9.037  0.7237  0.0592 -0.3260
  276MOL0     C37985   4.657   4.529   9.095 -0.0539 -0.0146  0.9186
  276MOL0     O37986   4.574   4.455   9.181 -0.6389 -0.1714  0.1392
  276MOL0     C37987   4.627   4.339   9.253 -0.1555  0.6113  0.2589
  276MOL0     C37988   4.513   4.300   9.349 -0.9884 -0.2448  0.2381
  276MOL0     C37989   4.513   4.162   9.401  0.1980 -0.3055  0.4400
  276MOL0     C37990   4.492   4.151   9.549 -0.3790 -0.0813  0.2676
  276MOL0     C37991   4.489   4.009   9.591  0.0908 -0.3285  0.2583
  276MOL0     C37992   4.470   4.011   9.754  0.3532  0.8592  0.3690
  276MOL0     C37993   4.479   3.862   9.803  0.5155  0.2848 -0.3121
  276MOL0     C37994   4.478   3.841   9.957 -0.5436 -0.4553 -0.2370
  276MOL0    Cl37995   4.630   3.917  10.022 -0.1516  0.2241  0.1985
  276MOL0     C37996   4.620   4.658   9.051  0.2504  0.2223 -0.0495
  276MOL0     C37997   4.701   4.725   8.959 -0.1208  0.2377  0.0618
  276MOL0     O37998   5.058   4.781   9.006  0.8766  0.3399  0.1279
  276MOL0     C37999   5.021   4.928   8.667  0.7024 -0.5176  0.3320
  276MOL0     C38000   5.066   5.034   8.591 -0.0168  0.7927  0.5103
  276MOL0     N38001   5.151   5.746   8.741 -0.2125  0.9298 -0.3407
  276MOL0     N38002   5.181   5.878   8.753  0.8788 -0.3731 -0.2911
  276MOL0     C38003   5.137   6.059   9.305 -0.0398  0.5837 -1.0758
  276MOL0     C38004   5.121   5.951   9.406 -0.2443  0.1276  0.3245
  276MOL0     C38005   5.125   5.560   9.617 -0.0856 -0.4390 -0.0933
  276MOL0     C38006   5.136   5.457   9.524 -0.5823  0.5382 -0.2541
  276MOL0     C38007   5.124   5.324   9.550  0.2686 -0.2323  0.6646
  276MOL0     C38008   5.127   5.278   9.681 -0.2648  0.4793 -0.6042
  276MOL0     O38009   5.132   5.140   9.696 -0.7868  0.1571  0.8534
  276MOL0     C38010   5.027   5.072   9.781 -0.0243 -0.1075  0.8477
  276MOL0     C38011   4.882   5.098   9.723  1.3452  0.1939 -0.5232
  276MOL0     C38012   4.771   5.041   9.819  0.9205 -0.2608  0.1142
  276MOL0     C38013   4.700   4.928   9.757  0.1783  0.4750  0.2505
  276MOL0     C38014   4.577   4.887   9.832  0.4727  0.4485  0.8878
  276MOL0     C38015   4.483   4.863   9.906  0.3495  0.6543  0.1376
  276MOL0     C38016   5.126   5.380   9.782 -0.1167  0.3325  0.4573
  276MOL0     C38017   5.132   5.519   9.759 -0.0500  0.9963  0.2352
  276MOL0     C38018   5.121   5.614   9.869 -0.0304 -0.1949  0.8696
  276MOL0     H38019   5.113   5.688   9.211 -4.2952  0.0402  2.0330
  276MOL0     H38020   5.145   5.874   9.029  0.0569  2.2796  0.9429
  276MOL0     H38021   4.953   6.127   9.070  0.1233  1.7706  1.4008
  276MOL0     H38022   5.036   6.117   8.910 -2.3383  2.4293  0.5639
  276MOL0     H38023   5.020   6.349   9.081  1.1167 -1.1864  1.4864
  276MOL0     H38024   5.125   6.329   8.944  2.5463 -5.0709 -2.9996
  276MOL0     H38025   4.809   6.307   8.941 -0.0436  1.3486  1.0314
  276MOL0     H38026   4.889   6.449   8.898 -0.2383 -1.0974 -2.9312
  276MOL0     H38027   4.887   6.187   8.756 -0.5330  0.5215  3.7358
  276MOL0     H38028   4.785   6.309   8.698 -0.6787  2.7389 -1.1754
  276MOL0     H38029   5.090   6.346   8.684  1.5205  2.4847 -1.3447
  276MOL0     H38030   4.969   6.454   8.615  4.9776  1.2882  0.0208
  276MOL0     H38031   4.894   6.274   8.453 -1.1968  1.7537  1.6641
  276MOL0     H38032   5.073   6.300   8.432  0.2901  0.2970  0.1334
  276MOL0     H38033   5.003   6.061   8.432 -0.4061  1.5322 -0.6960
  276MOL0     H38034   4.948   6.075   8.600 -0.2542  0.5065 -0.2104
  276MOL0     H38035   5.224   6.097   8.524 -0.6208  5.3260  0.9456
  276MOL0     H38036   5.159   6.136   8.687  2.5996  2.5337 -2.2125
  276MOL0     H38037   5.177   5.837   8.425  3.3187 -0.7650  0.0961
  276MOL0     H38038   5.047   5.586   8.470 -1.5039 -1.7935  1.2106
  276MOL0     H38039   5.072   5.519   8.625 -0.0126 -1.9492 -2.1991
  276MOL0     H38040   5.318   5.603   8.452 -0.2045  0.4796  0.3146
  276MOL0     H38041   5.304   5.475   8.584 -2.3413 -5.0497 -0.4795
  276MOL0     H38042   5.183   5.450   8.311 -1.1737 -0.8531 -0.2311
  276MOL0     H38043   5.340   5.390   8.361  0.4482  0.7223  1.0621
  276MOL0     H38044   5.065   5.297   8.441  0.4864  0.9065  1.4866
  276MOL0     H38045   5.200   5.201   8.369  2.3890  0.8572 -1.5804
  276MOL0     H38046   5.251   5.215   8.802  3.9475 -2.8751 -1.4943
  276MOL0     H38047   5.192   5.007   9.062  0.6492 -0.1104  0.2547
  276MOL0     H38048   5.334   5.058   8.958 -1.1002  2.2970  0.7788
  276MOL0     H38049   5.279   4.899   8.946 -0.9198  0.9390 -1.1216
  276MOL0     H38050   4.955   4.490   8.932 -0.7714 -1.1078  0.2888
  276MOL0     H38051   4.790   4.372   9.069 -0.6332  0.3268  1.3513
  276MOL0     H38052   4.627   4.252   9.186  2.5034  1.5324 -1.0636
  276MOL0     H38053   4.724   4.351   9.302 -0.0611  1.0671 -0.0335
  276MOL0     H38054   4.500   4.373   9.429  1.4200 -0.3229  0.7726
  276MOL0     H38055   4.422   4.317   9.290  0.0656  5.9287 -0.3335
  276MOL0     H38056   4.611   4.118   9.381  0.9731  1.3165  0.5116
  276MOL0     H38057   4.436   4.112   9.342 -2.4702  2.7468  1.0598
  276MOL0     H38058   4.402   4.209   9.569 -0.2117  1.6173 -3.1000
  276MOL0     H38059   4.573   4.209   9.595  2.0864 -0.6107 -3.0397
  276MOL0     H38060   4.400   3.966   9.544  0.2823  0.8005 -1.2402
  276MOL0     H38061   4.581   3.959   9.561  0.8708  1.1845  0.0394
  276MOL0     H38062   4.373   4.049   9.787  0.9930  0.6641  2.6781
  276MOL0     H38063   4.547   4.069   9.806 -1.9511  2.8973  1.6737
  276MOL0     H38064   4.567   3.813   9.762  1.8150  2.1468  0.1091
  276MOL0     H38065   4.394   3.810   9.757 -0.4487 -1.0244  2.7084
  276MOL0     H38066   4.478   3.735   9.986  0.2277 -0.8144 -1.4873
  276MOL0     H38067   4.383   3.889   9.982 -0.7662  0.0123 -1.8881
  276MOL0     H38068   4.533   4.707   9.093  0.6738  1.4600 -0.5444
  276MOL0     H38069   4.665   4.817   8.916 -0.6864  1.9413  3.7430
  276MOL0     H38070   4.939   4.872   8.624  0.2102 -1.1656  2.0113
  276MOL0     H38071   5.041   5.026   8.486 -1.4300  0.2215  0.8703
  276MOL0     H38072   5.140   6.165   9.328 -1.2766  0.7953 -1.7949
  276MOL0     H38073   5.105   5.980   9.509  2.9912  2.4786  0.3300
  276MOL0     H38074   5.156   5.482   9.420 -0.8481  0.6134 -0.2861
  276MOL0     H38075   5.118   5.253   9.469 -0.7574 -2.6717  2.7154
  276MOL0     H38076   5.054   4.966   9.787  1.3949 -0.0281 -2.1143
  276MOL0     H38077   5.026   5.115   9.881 -1.8648  0.2033  0.7246
  276MOL0     H38078   4.864   5.059   9.622  1.9643  3.0267 -1.8154
  276MOL0     H38079   4.861   5.205   9.717 -1.3323  0.0103  2.6783
  276MOL0     H38080   4.805   5.012   9.919  0.6491  1.1771  0.6376
  276MOL0     H38081   4.691   5.115   9.827 -0.2872 -0.9970 -3.3120
  276MOL0     H38082   4.753   4.835   9.734 -0.7727  0.4206 -2.0632
  276MOL0     H38083   4.654   4.950   9.660 -0.9134 -0.9389  0.3987
  276MOL0     H38084   4.391   4.841   9.956 -1.9823  3.2777 -2.5916
  276MOL0     H38085   5.139   5.345   9.884 -3.9752  1.2394  1.4534
  276MOL0     H38086   5.138   5.562   9.963  0.6658  1.7375  1.8858
  276MOL0     H38087   5.198   5.692   9.874 -0.6250  0.6136 -1.3178
  276MOL0     H38088   5.025   5.666   9.862  0.5988  0.8026 -1.8089
  277MOL0     O38089   6.596   8.091   6.507 -0.0528  0.0458 -0.0672
  277MOL0     C38090   6.618   8.093   6.626 -0.9577 -0.5621 -0.2815
  277MOL0     O38091   6.529   8.052   6.725 -0.1400 -0.4838  0.0709
  277MOL0     C38092   6.410   7.993   6.694  0.4603 -0.6199 -0.9319
  277MOL0     C38093   6.320   8.048   6.597  0.1737  0.5140  0.1323
  277MOL0     C38094   6.184   7.992   6.592 -1.1036 -0.4020  0.1479
  277MOL0     C38095   6.143   7.889   6.667 -0.5208 -0.2558 -0.7183
  277MOL0     O38096   6.013   7.852   6.655 -1.3379  1.2852 -0.2842
  277MOL0     C38097   5.976   7.731   6.728 -1.1040  0.1180  0.7052
  277MOL0     C38098   5.848   7.690   6.651  0.5931  0.0889  0.1506
  277MOL0     C38099   5.762   7.582   6.709 -0.5072 -0.4010 -0.4957
  277MOL0     C38100   5.843   7.477   6.784  0.0283  0.5079 -0.1322
  277MOL0     C38101   5.757   7.353   6.809  0.3560  1.2515  0.0422
  277MOL0     C38102   5.858   7.244   6.857  0.1183  0.1272  0.6585
  277MOL0     C38103   5.784   7.134   6.921  0.7275  0.4835 -0.9823
  277MOL0     C38104   5.862   7.010   6.970 -0.7948 -0.2072  0.9787
  277MOL0     N38105   5.778   6.898   7.015 -0.4241  0.1132  1.0944
  277MOL0     C38106   5.800   6.758   6.995 -0.3051 -0.0156 -0.1311
  277MOL0     C38107   5.688   6.697   7.053 -0.5906 -0.2234 -0.3950
  277MOL0     C38108   5.681   6.544   7.064 -0.0623  0.0567 -0.1541
  277MOL0     C38109   5.551   6.498   7.124 -0.8800 -0.6512  0.1124
  277MOL0     C38110   5.545   6.351   7.105  0.0575 -0.4572  0.8301
  277MOL0     C38111   5.424   6.284   7.173 -0.0643  0.5124 -0.1564
  277MOL0     O38112   5.433   6.140   7.164 -1.0661 -0.3108  1.3610
  277MOL0     C38113   5.361   6.067   7.256  0.7039 -0.2874 -0.0451
  277MOL0     C38114   5.227   6.093   7.290 -0.3835  0.8549  1.1777
  277MOL0     C38115   5.166   6.022   7.397  0.6784  0.1372 -0.6462
  277MOL0     C38116   5.020   6.061   7.437 -0.0260  0.0678 -0.3907
  277MOL0     C38117   5.237   5.909   7.459 -0.7306 -0.0889 -0.1683
  277MOL0     C38118   5.184   5.827   7.575  1.1408 -0.7553  0.4398
  277MOL0     O38119   5.070   5.862   7.641  0.1295 -0.1216  0.2194
  277MOL0     C38120   4.984   5.778   7.696  0.0496 -0.0307  0.8914
  277MOL0     C38121   4.852   5.826   7.704  0.6570 -0.5089 -0.6238
  277MOL0     C38122   4.739   5.745   7.756 -1.2732 -1.0408 -0.7177
  277MOL0     C38123   4.771   5.621   7.803  0.6683  0.3551 -0.1822
  277MOL0     O38124   4.657   5.534   7.832  0.2447  0.7360  0.0298
  277MOL0     C38125   4.546   5.589   7.916  1.4991  0.0483  1.0210
  277MOL0     C38126   4.534   5.484   8.027 -0.1689 -0.8333  0.5367
  277MOL0     C38127   4.419   5.513   8.122 -0.3178 -0.1861 -0.3021
  277MOL0     C38128   4.431   5.432   8.244  0.2797  0.0006  0.0903
  277MOL0     C38129   4.310   5.446   8.334 -0.3101 -0.0222 -0.3218
  277MOL0     C38130   4.202   5.357   8.290  0.1082 -0.1903  0.9134
  277MOL0     C38131   4.219   5.210   8.294  0.2051 -0.8833  0.6882
  277MOL0     C38132   4.084   5.136   8.282 -0.6768  0.3919 -0.1684
  277MOL0    Cl38133   4.009   5.159   8.445 -0.3110 -0.7562  0.1467
  277MOL0     C38134   4.905   5.569   7.799  0.3062 -1.3834  0.9322
  277MOL0     C38135   5.010   5.653   7.749 -0.4277  0.0039  0.2749
  277MOL0     O38136   5.252   5.732   7.610  0.0763  0.0329  0.5153
  277MOL0     C38137   5.366   5.881   7.410  0.0935  0.4601 -0.7838
  277MOL0     C38138   5.428   5.959   7.317  0.5680 -0.0958  0.0510
  277MOL0     N38139   5.604   6.794   7.098 -0.1392  0.1752  0.1600
  277MOL0     N38140   5.649   6.913   7.072  0.4765 -0.6905  0.1973
  277MOL0     C38141   6.231   7.842   6.765 -0.1889 -0.1129 -0.0289
  277MOL0     C38142   6.357   7.893   6.779 -0.2825  0.2173 -1.0210
  277MOL0     C38143   6.749   8.148   6.683  0.1407  0.0178 -0.1216
  277MOL0     C38144   6.782   8.280   6.665  0.7839 -0.3166 -0.0660
  277MOL0     C38145   6.895   8.347   6.714 -0.3245 -1.1771 -0.5619
  277MOL0     C38146   6.996   8.272   6.771  0.0763  0.2234 -0.8479
  277MOL0     O38147   7.126   8.328   6.793  0.5857  0.2294 -0.0328
  277MOL0     C38148   7.159   8.463   6.752 -0.6771 -0.3900  1.4647
  277MOL0     C38149   7.314   8.463   6.778  0.0662 -0.3521  0.6103
  277MOL0     C38150   7.369   8.608   6.757  0.2308  0.5644  0.3570
  277MOL0     C38151   7.526   8.608   6.770  1.0488 -0.1080  0.2203
  277MOL0     C38152   7.586   8.509   6.673 -0.6161  0.4392 -1.1342
  277MOL0     C38153   7.622   8.447   6.572 -0.2873 -0.5945 -0.4795
  277MOL0     C38154   6.967   8.132   6.789 -1.0443 -0.4105 -0.4966
  277MOL0     C38155   6.845   8.073   6.755  0.1085  0.3589 -0.2097
  277MOL0     C38156   6.823   7.921   6.783  0.0509 -0.6967  1.0142
  277MOL0     H38157   6.348   8.126   6.527 -1.4242  3.2909  2.3776
  277MOL0     H38158   6.121   8.035   6.514 -1.6998 -0.5633  0.5349
  277MOL0     H38159   5.961   7.756   6.833  1.1453 -1.2842  1.4127
  277MOL0     H38160   6.056   7.657   6.730  0.6621  1.9372  2.1611
  277MOL0     H38161   5.790   7.783   6.653 -0.1282 -0.3397  2.3316
  277MOL0     H38162   5.869   7.645   6.553  0.8001 -3.8889  1.8342
  277MOL0     H38163   5.686   7.619   6.779  1.0222 -0.7222  1.4164
  277MOL0     H38164   5.701   7.540   6.628  0.7771  0.0863 -1.7516
  277MOL0     H38165   5.926   7.460   6.715 -3.5597  0.2825 -4.9420
  277MOL0     H38166   5.871   7.502   6.887  0.3333 -1.3371  0.2603
  277MOL0     H38167   5.698   7.323   6.722 -0.3056 -1.2255  1.2504
  277MOL0     H38168   5.689   7.382   6.890  0.8382 -0.3460  1.0594
  277MOL0     H38169   5.922   7.214   6.773  0.7273 -0.4805  1.3266
  277MOL0     H38170   5.923   7.281   6.937  0.3184 -1.7160  1.3885
  277MOL0     H38171   5.708   7.110   6.846  1.7617 -1.7288 -1.3865
  277MOL0     H38172   5.732   7.174   7.009  2.0209 -2.0727  1.0917
  277MOL0     H38173   5.909   6.975   6.877  2.1777  2.8837  1.1330
  277MOL0     H38174   5.939   7.034   7.044 -0.3396 -0.9431  0.7613
  277MOL0     H38175   5.892   6.726   6.947  0.6057  0.0773  1.4814
  277MOL0     H38176   5.774   6.499   7.099 -1.0215  0.0141  2.6197
  277MOL0     H38177   5.668   6.518   6.959 -1.2895 -0.6096  0.1445
  277MOL0     H38178   5.552   6.523   7.231  1.2680  0.0121 -0.0262
  277MOL0     H38179   5.464   6.552   7.085  0.0530  1.0532  0.3206
  277MOL0     H38180   5.573   6.312   7.007  0.2063 -7.4282  3.1094
  277MOL0     H38181   5.630   6.305   7.155  0.2634 -1.4418 -0.3692
  277MOL0     H38182   5.427   6.309   7.279 -0.6998  0.6933 -0.1779
  277MOL0     H38183   5.335   6.312   7.116 -0.9640 -0.9828  0.4419
  277MOL0     H38184   5.167   6.176   7.253 -1.9887 -0.6588  0.2303
  277MOL0     H38185   5.012   6.091   7.541 -0.0507 -0.8489 -0.1200
  277MOL0     H38186   4.961   5.969   7.426 -3.1450  2.1483 -3.1423
  277MOL0     H38187   4.969   6.129   7.367 -1.7745 -0.1771  0.5845
  277MOL0     H38188   4.841   5.922   7.655 -1.2534 -0.3301  0.0795
  277MOL0     H38189   4.634   5.762   7.736 -0.8728  0.0525 -2.0833
  277MOL0     H38190   4.572   5.684   7.965  3.1234 -0.8199  1.8903
  277MOL0     H38191   4.459   5.607   7.852 -0.2479  3.6441  3.9520
  277MOL0     H38192   4.497   5.395   7.974 -1.2186  0.3272 -0.7560
  277MOL0     H38193   4.623   5.464   8.088  0.9341 -1.0627 -1.0794
  277MOL0     H38194   4.324   5.494   8.073 -0.7636  0.9007  0.1022
  277MOL0     H38195   4.418   5.619   8.150  0.7707 -0.0638 -0.6666
  277MOL0     H38196   4.522   5.474   8.289  1.5774  2.5787 -4.2888
  277MOL0     H38197   4.464   5.331   8.216  0.5175 -0.5801  2.2501
  277MOL0     H38198   4.346   5.416   8.433 -1.0726  0.0115 -0.0222
  277MOL0     H38199   4.268   5.547   8.334 -1.7501 -0.5363  1.8396
  277MOL0     H38200   4.161   5.389   8.194 -0.0150  1.4385  1.4710
  277MOL0     H38201   4.127   5.372   8.368  1.4820 -1.9579  2.6652
  277MOL0     H38202   4.262   5.182   8.391 -2.1432 -1.4274  1.6692
  277MOL0     H38203   4.279   5.176   8.210 -1.6250 -2.0803 -0.2184
  277MOL0     H38204   4.111   5.030   8.273  0.8251  0.0432  5.0800
  277MOL0     H38205   4.029   5.175   8.196  0.6468  1.1761 -0.6877
  277MOL0     H38206   4.923   5.479   7.857 -0.6452 -0.4190  2.8434
  277MOL0     H38207   5.103   5.599   7.756 -0.2166  0.2867 -0.2838
  277MOL0     H38208   5.425   5.801   7.455  0.0436  1.3642  0.9768
  277MOL0     H38209   5.533   5.967   7.292  1.1200  2.4545  2.5965
  277MOL0     H38210   6.197   7.781   6.848 -1.8782  1.4693  0.5068
  277MOL0     H38211   6.416   7.849   6.858 -1.8625  0.5008  0.3839
  277MOL0     H38212   6.713   8.344   6.611 -0.0134 -0.1601  1.1073
  277MOL0     H38213   6.907   8.451   6.686 -1.4928 -0.9882 -0.3939
  277MOL0     H38214   7.125   8.476   6.649  0.2531  1.7921  1.3923
  277MOL0     H38215   7.101   8.536   6.808 -1.5215  0.2162 -0.1145
  277MOL0     H38216   7.358   8.412   6.692 -1.0907  2.3336 -1.7726
  277MOL0     H38217   7.353   8.434   6.876  3.5760  2.6595  0.3783
  277MOL0     H38218   7.338   8.633   6.655 -0.3230 -6.3334 -1.6442
  277MOL0     H38219   7.330   8.685   6.824  0.2444  2.0986 -1.3163
  277MOL0     H38220   7.554   8.574   6.870 -1.8791 -3.2260  0.1396
  277MOL0     H38221   7.561   8.710   6.752  1.3310  0.1782  2.1626
  277MOL0     H38222   7.644   8.385   6.487  1.2777 -1.8976  0.8200
  277MOL0     H38223   7.058   8.083   6.823  0.7974  2.8932 -0.2236
  277MOL0     H38224   6.845   7.859   6.696 -0.4868  0.8991 -0.3125
  277MOL0     H38225   6.893   7.895   6.863  1.0078  2.9050  1.5387
  277MOL0     H38226   6.718   7.902   6.809 -0.1229 -1.8505 -0.4406
  278MOL0     O38227   1.910   4.369   2.832  0.1434 -0.8818 -0.1671
  278MOL0     C38228   1.854   4.399   2.724 -0.0228 -0.1242  0.4410
  278MOL0     O38229   1.839   4.528   2.672  0.2676 -0.2318 -0.0317
  278MOL0     C38230   1.869   4.627   2.759 -0.0075  0.3084 -0.3748
  278MOL0     C38231   1.997   4.678   2.768 -0.6671 -0.0808  1.0800
  278MOL0     C38232   2.028   4.783   2.858 -0.0380  0.5809 -0.4656
  278MOL0     C38233   1.936   4.835   2.954 -0.9102  1.0790  0.8049
  278MOL0     O38234   1.981   4.920   3.051 -0.7659  0.7928  0.5499
  278MOL0     C38235   1.876   4.978   3.128 -0.7387  0.3987 -0.9479
  278MOL0     C38236   1.926   5.088   3.226 -0.4714  0.6186  0.6838
  278MOL0     C38237   1.941   5.230   3.165  1.4692  0.8623 -0.8526
  278MOL0     C38238   1.945   5.339   3.271  0.4848 -0.4303  0.8527
  278MOL0     C38239   1.959   5.468   3.184  0.3990  0.3570  0.2345
  278MOL0     C38240   1.896   5.590   3.260  0.3101  1.0017  0.1538
  278MOL0     C38241   1.950   5.721   3.208 -0.2017  0.7282  0.2471
  278MOL0     C38242   1.868   5.790   3.096  0.0130  0.1350 -0.5018
  278MOL0     N38243   1.935   5.917   3.052  0.3940 -0.3162  0.9698
  278MOL0     C38244   1.970   6.016   3.140 -0.1694  0.0531  0.0434
  278MOL0     C38245   2.045   6.099   3.062 -0.2125 -0.0001 -0.8350
  278MOL0     C38246   2.107   6.244   3.100  0.7959  0.3631  0.6790
  278MOL0     C38247   1.998   6.347   3.088  0.3175 -0.1505  1.4810
  278MOL0     C38248   2.050   6.483   3.137  0.5577 -0.4292 -0.0209
  278MOL0     C38249   2.148   6.551   3.037 -0.0641 -0.8478  0.2149
  278MOL0     O38250   2.235   6.651   3.082 -0.1955 -0.6183  0.7350
  278MOL0     C38251   2.194   6.764   3.149 -0.8851 -0.6490 -0.6309
  278MOL0     C38252   2.068   6.817   3.130 -0.6758  0.1818  0.1615
  278MOL0     C38253   2.020   6.933   3.206 -0.3695 -0.6638  0.6918
  278MOL0     C38254   1.871   6.969   3.180 -0.3771 -0.3590  0.3822
  278MOL0     C38255   2.109   6.979   3.305 -0.6356 -0.0620 -0.0746
  278MOL0     C38256   2.068   7.090   3.392 -0.6415 -0.2782  0.2310
  278MOL0     O38257   2.108   7.072   3.526  0.9032 -0.4209 -0.0128
  278MOL0     C38258   2.077   7.173   3.620 -0.4472  0.7944 -0.3699
  278MOL0     C38259   2.166   7.277   3.633 -0.0413  0.5518  0.6532
  278MOL0     C38260   2.136   7.378   3.725 -0.2974 -0.1314 -0.4423
  278MOL0     C38261   2.028   7.364   3.806 -0.8431 -0.7170 -0.6054
  278MOL0     O38262   2.006   7.472   3.890  0.0998 -0.6710 -0.7920
  278MOL0     C38263   1.945   7.458   4.022 -0.3851 -0.5852 -0.6847
  278MOL0     C38264   2.024   7.549   4.115  0.3903  0.5797  1.0604
  278MOL0     C38265   1.943   7.621   4.229 -1.1872 -0.3971  0.8633
  278MOL0     C38266   2.023   7.699   4.334  0.1174  0.0587 -0.3177
  278MOL0     C38267   2.122   7.619   4.424  0.3302 -0.5406  0.1983
  278MOL0     C38268   2.051   7.517   4.511 -0.1037  0.4579  0.4160
  278MOL0     C38269   2.164   7.456   4.600  1.3022  0.1427  0.6858
  278MOL0     C38270   2.107   7.369   4.722 -1.3167 -0.7177  1.2751
  278MOL0    Cl38271   2.247   7.279   4.784 -0.3627  0.0365 -0.0547
  278MOL0     C38272   1.942   7.244   3.809 -0.2757 -0.0421  0.0002
  278MOL0     C38273   1.967   7.157   3.705 -0.6416 -0.1341 -0.5822
  278MOL0     O38274   2.043   7.195   3.341 -0.7450 -0.1563  0.3587
  278MOL0     C38275   2.248   6.924   3.312  0.4948  0.4480  1.2706
  278MOL0     C38276   2.286   6.817   3.232  0.0649  0.9274 -0.0192
  278MOL0     N38277   2.043   6.060   2.929 -0.4511 -0.1389 -0.6057
  278MOL0     N38278   1.975   5.949   2.921  0.0407 -0.2031 -0.8308
  278MOL0     C38279   1.813   4.785   2.927  0.1003 -0.4257  0.2613
  278MOL0     C38280   1.776   4.688   2.838  0.2896 -0.8566  0.4265
  278MOL0     C38281   1.811   4.299   2.628  0.3227  0.6554 -0.5862
  278MOL0     C38282   1.808   4.334   2.488 -0.3337  0.8040 -0.1511
  278MOL0     C38283   1.783   4.241   2.389 -0.5481 -0.5171  0.3436
  278MOL0     C38284   1.759   4.109   2.428  0.2103  0.2371 -0.1014
  278MOL0     O38285   1.736   4.018   2.333 -0.3652 -0.0370 -0.8069
  278MOL0     C38286   1.797   4.024   2.206  0.4234 -0.4707  0.1903
  278MOL0     C38287   1.945   4.030   2.202 -0.2642 -0.1917  0.4424
  278MOL0     C38288   2.027   3.903   2.205 -0.5787  0.0136  0.8842
  278MOL0     C38289   2.175   3.910   2.208 -0.9652  0.1793 -0.2128
  278MOL0     C38290   2.233   3.803   2.287  0.0836 -0.3148 -0.0663
  278MOL0     C38291   2.263   3.709   2.350 -0.4761 -0.0490  0.4195
  278MOL0     C38292   1.740   4.076   2.562 -0.3382 -0.3612  0.0976
  278MOL0     C38293   1.774   4.171   2.667 -0.5210  1.4020  0.3490
  278MOL0     C38294   1.767   4.124   2.808 -0.1973 -0.9597  0.5830
  278MOL0     H38295   2.073   4.644   2.698 -1.0450  0.1216  0.5651
  278MOL0     H38296   2.132   4.813   2.860 -0.3360  1.6839  1.4214
  278MOL0     H38297   1.837   4.898   3.191 -0.5736  2.0673  1.3885
  278MOL0     H38298   1.794   5.020   3.069 -0.8260  1.2660 -0.2304
  278MOL0     H38299   1.855   5.093   3.308 -0.3519 -3.5833  1.2384
  278MOL0     H38300   2.024   5.044   3.248 -0.2686  0.0784 -1.1378
  278MOL0     H38301   2.032   5.227   3.105  2.1682  1.3174  0.1437
  278MOL0     H38302   1.861   5.249   3.093  1.5646  2.0014 -0.6882
  278MOL0     H38303   1.848   5.341   3.321  0.6668 -0.5015  1.2108
  278MOL0     H38304   2.029   5.323   3.340  0.2197 -2.5956  0.7370
  278MOL0     H38305   1.914   5.463   3.085 -0.0990 -0.5362  0.4921
  278MOL0     H38306   2.068   5.477   3.176  0.4310 -0.7602 -0.9525
  278MOL0     H38307   1.786   5.585   3.258  0.2570  0.7425  1.9222
  278MOL0     H38308   1.916   5.586   3.368 -2.3902 -2.3904  0.7345
  278MOL0     H38309   2.052   5.705   3.170 -0.3231 -2.2807  0.8918
  278MOL0     H38310   1.968   5.788   3.293  1.1147  5.8774 -3.6308
  278MOL0     H38311   1.859   5.724   3.008  1.7538 -0.2273 -0.4471
  278MOL0     H38312   1.766   5.807   3.133 -1.0435 -2.6847 -1.7859
  278MOL0     H38313   1.947   6.021   3.245  1.3124  0.3615  0.3776
  278MOL0     H38314   2.188   6.252   3.027  2.1264 -1.0785  1.9212
  278MOL0     H38315   2.141   6.245   3.204  2.1644 -0.1121  0.2620
  278MOL0     H38316   1.977   6.352   2.981 -3.0954 -0.4664  2.0297
  278MOL0     H38317   1.910   6.317   3.145 -0.4154  1.6719  1.3837
  278MOL0     H38318   1.974   6.562   3.141  1.8777  1.8680 -6.7218
  278MOL0     H38319   2.105   6.475   3.232  0.3511 -3.1902 -0.0614
  278MOL0     H38320   2.222   6.479   3.001 -0.6927 -1.0949 -0.6307
  278MOL0     H38321   2.078   6.579   2.957  0.4692 -0.7830 -0.2317
  278MOL0     H38322   2.007   6.777   3.050 -1.4057  0.5598  0.5149
  278MOL0     H38323   1.854   7.004   3.078 -1.7053 -1.9982  0.0022
  278MOL0     H38324   1.837   7.031   3.263 -2.9107 -3.0776  1.5544
  278MOL0     H38325   1.821   6.873   3.196  1.2074 -1.4979 -1.1644
  278MOL0     H38326   2.243   7.278   3.556  0.6139 -1.0147  1.2505
  278MOL0     H38327   2.196   7.468   3.735  2.2885 -1.5646 -1.8652
  278MOL0     H38328   1.843   7.494   4.006 -0.4437 -0.5667 -0.2620
  278MOL0     H38329   1.944   7.365   4.081 -0.5432  1.8181  3.4441
  278MOL0     H38330   2.107   7.499   4.165 -0.0720  0.9300  2.2383
  278MOL0     H38331   2.070   7.628   4.055  1.2808  0.9152  2.1337
  278MOL0     H38332   1.883   7.547   4.283 -1.0277  0.7590  2.7392
  278MOL0     H38333   1.872   7.683   4.173  0.0040 -1.6306 -2.2063
  278MOL0     H38334   1.938   7.746   4.386 -0.4962  0.0643 -1.2951
  278MOL0     H38335   2.082   7.772   4.278 -1.4280  1.0300 -0.7751
  278MOL0     H38336   2.202   7.581   4.359  1.6034  2.4534 -0.1610
  278MOL0     H38337   2.178   7.687   4.488  4.0738 -1.9044 -1.3617
  278MOL0     H38338   1.998   7.455   4.438 -0.4767  2.2273 -0.8800
  278MOL0     H38339   1.978   7.563   4.578 -0.6437  2.5752 -1.5015
  278MOL0     H38340   2.233   7.531   4.639  0.1227  2.0504 -0.7087
  278MOL0     H38341   2.225   7.385   4.542 -2.1269 -2.7645  0.2488
  278MOL0     H38342   2.027   7.304   4.686  0.0017 -0.9407 -1.4784
  278MOL0     H38343   2.083   7.445   4.797 -0.6713 -0.1882  0.9579
  278MOL0     H38344   1.861   7.221   3.876 -0.8990  2.3753  0.1835
  278MOL0     H38345   1.907   7.072   3.673  0.9309 -1.1437 -0.9484
  278MOL0     H38346   2.307   6.977   3.387 -0.7638  1.3269  1.6763
  278MOL0     H38347   2.377   6.759   3.244 -2.5924 -3.7746 -0.3195
  278MOL0     H38348   1.727   4.815   2.987 -1.7970  3.8178 -3.8763
  278MOL0     H38349   1.671   4.662   2.824 -1.2132  3.2342  2.4906
  278MOL0     H38350   1.810   4.434   2.445  1.2128  0.1847 -1.6557
  278MOL0     H38351   1.773   4.279   2.288  1.4103 -0.0778  0.2699
  278MOL0     H38352   1.758   3.939   2.151  0.2931  1.0079 -2.1377
  278MOL0     H38353   1.756   4.114   2.158  1.2964 -0.2716 -0.2042
  278MOL0     H38354   1.980   4.094   2.284  2.7718 -4.0627  2.5050
  278MOL0     H38355   1.981   4.076   2.110 -0.1666  1.4384  1.2598
  278MOL0     H38356   1.997   3.843   2.292 -5.0507 -0.1126 -0.5162
  278MOL0     H38357   1.984   3.843   2.124  0.7214  0.6374 -0.3071
  278MOL0     H38358   2.203   4.010   2.243 -1.3001 -0.4299  1.9606
  278MOL0     H38359   2.215   3.909   2.107  2.2063  1.9410  0.9088
  278MOL0     H38360   2.300   3.624   2.404  1.3818  0.2396 -0.3308
  278MOL0     H38361   1.724   3.970   2.579  1.1922 -0.8452 -1.2554
  278MOL0     H38362   1.859   4.080   2.846  1.2243  0.8919 -0.5339
  278MOL0     H38363   1.732   4.213   2.862  2.3198  2.8227 -3.4111
  278MOL0     H38364   1.691   4.046   2.804 -2.4555  1.1453 -2.7266
  279MOL0     O38365   8.339   2.079  11.573  0.1087 -0.2434 -0.0117
  279MOL0     C38366   8.320   2.143  11.466 -0.3329 -0.0717 -0.4324
  279MOL0     O38367   8.212   2.218  11.443 -0.3909 -0.2863 -0.1777
  279MOL0     C38368   8.088   2.190  11.501 -0.2563 -0.1751  0.2076
  279MOL0     C38369   7.992   2.281  11.477  0.3358  0.7452  0.4214
  279MOL0     C38370   7.873   2.273  11.535 -0.5838  0.2962  0.6342
  279MOL0     C38371   7.830   2.160  11.607 -0.0460 -0.5832 -0.5404
  279MOL0     O38372   7.692   2.159  11.630 -0.3522  0.0120 -0.1036
  279MOL0     C38373   7.637   2.041  11.684  0.3233  0.7144 -0.0765
  279MOL0     C38374   7.627   2.051  11.836 -0.4429  0.1483 -0.1799
  279MOL0     C38375   7.543   1.941  11.901  0.3474  0.1567 -0.0727
  279MOL0     C38376   7.492   1.993  12.042  0.1031  0.0102  1.0224
  279MOL0     C38377   7.399   2.120  12.042 -1.0799  0.8521 -0.5740
  279MOL0     C38378   7.277   2.091  11.961 -0.4855 -0.2359 -0.1765
  279MOL0     C38379   7.209   1.967  12.001  0.7102 -0.1314 -0.6845
  279MOL0     C38380   7.065   1.962  11.946  0.0467 -0.7371  0.3420
  279MOL0     N38381   7.040   2.003  11.809  1.5040  0.0586  0.6129
  279MOL0     C38382   6.979   2.119  11.763 -0.0202 -0.1049 -0.3449
  279MOL0     C38383   6.938   2.093  11.641 -0.1925 -0.1497  0.3115
  279MOL0     C38384   6.878   2.196  11.557 -0.3716  0.3923 -0.7433
  279MOL0     C38385   6.810   2.307  11.636 -0.1927  1.2632 -0.3835
  279MOL0     C38386   6.733   2.414  11.550 -0.6525  0.2513  0.1887
  279MOL0     C38387   6.806   2.544  11.520 -0.6631 -0.4046  0.3732
  279MOL0     O38388   6.937   2.510  11.461 -0.1285 -0.1235  0.6355
  279MOL0     C38389   6.962   2.581  11.348  0.3420 -0.8018  0.0504
  279MOL0     C38390   6.910   2.531  11.225 -0.3932  0.6581  0.0536
  279MOL0     C38391   6.954   2.587  11.099 -0.1307  0.7702  0.2571
  279MOL0     C38392   6.912   2.508  10.979  0.6057  0.4478 -0.3822
  279MOL0     C38393   7.055   2.688  11.092  0.7802 -0.0517  0.0367
  279MOL0     C38394   7.115   2.754  10.972  0.1762  1.0123  0.3725
  279MOL0     O38395   7.163   2.878  10.995 -0.1727 -0.1045 -0.1577
  279MOL0     C38396   7.145   2.981  10.895  0.2373  0.2947 -0.1626
  279MOL0     C38397   7.229   3.095  10.911 -0.1379  0.3694 -0.8152
  279MOL0     C38398   7.229   3.201  10.826 -0.5407 -0.9409  0.0100
  279MOL0     C38399   7.145   3.186  10.709 -0.4905 -1.0540  0.6628
  279MOL0     O38400   7.147   3.274  10.611  0.0079  0.4768 -0.1871
  279MOL0     C38401   7.253   3.250  10.514  1.0433  0.8876 -0.2422
  279MOL0     C38402   7.227   3.340  10.396  0.5988  0.6920  0.0229
  279MOL0     C38403   7.284   3.290  10.268  0.3115 -0.1698  0.6466
  279MOL0     C38404   7.306   3.408  10.186 -0.0184 -0.2121 -0.0309
  279MOL0     C38405   7.377   3.389  10.059 -0.7031 -0.9598  0.7919
  279MOL0     C38406   7.401   3.522   9.993 -0.0003  0.2965 -0.0002
  279MOL0     C38407   7.513   3.604  10.071 -0.5425  0.0714 -0.1134
  279MOL0     C38408   7.569   3.734   9.998  0.5365  0.4220  0.6469
  279MOL0    Cl38409   7.610   3.694   9.834  0.2523  0.5320 -0.2390
  279MOL0     C38410   7.074   3.070  10.684 -0.8866  0.5237 -0.9854
  279MOL0     C38411   7.067   2.969  10.777 -1.3045 -0.4542 -0.1006
  279MOL0     O38412   7.094   2.708  10.863  0.4246  0.7928  0.9084
  279MOL0     C38413   7.099   2.742  11.219 -0.2741 -0.1694  1.0534
  279MOL0     C38414   7.065   2.678  11.340 -0.5954  0.2218 -0.0877
  279MOL0     N38415   6.975   1.971  11.605  0.0982 -0.3954 -0.0351
  279MOL0     N38416   7.038   1.919  11.703  0.0446  0.2686  0.5403
  279MOL0     C38417   7.926   2.071  11.644  0.1787  0.3627 -0.4552
  279MOL0     C38418   8.057   2.083  11.585  0.7497 -0.0631  0.5343
  279MOL0     C38419   8.438   2.175  11.369 -0.2862 -0.5556 -0.0059
  279MOL0     C38420   8.560   2.126  11.402  0.2350  0.5411  0.0660
  279MOL0     C38421   8.683   2.156  11.337 -0.1861 -0.4401  0.2757
  279MOL0     C38422   8.675   2.245  11.236 -0.4198  0.6105 -0.7782
  279MOL0     O38423   8.797   2.298  11.172  0.1420 -0.4529  0.7275
  279MOL0     C38424   8.779   2.417  11.086  0.0044 -0.1923 -0.2801
  279MOL0     C38425   8.772   2.548  11.166 -0.0986  0.3457 -0.2126
  279MOL0     C38426   8.725   2.660  11.073 -0.8790  0.7915 -0.6754
  279MOL0     C38427   8.744   2.810  11.117 -0.0249  0.7503  0.2498
  279MOL0     C38428   8.630   2.845  11.200 -0.3148  0.0261  0.5167
  279MOL0     C38429   8.531   2.872  11.264 -0.1029  0.2090 -0.6148
  279MOL0     C38430   8.550   2.305  11.203  0.6871  0.3330  0.3519
  279MOL0     C38431   8.436   2.269  11.261 -0.2666 -0.1656  0.8433
  279MOL0     C38432   8.309   2.322  11.194  0.0357 -0.2752 -0.2959
  279MOL0     H38433   8.008   2.363  11.408  1.2210 -0.5194 -0.9256
  279MOL0     H38434   7.803   2.352  11.511  1.6604  2.0410 -0.5605
  279MOL0     H38435   7.690   1.949  11.655  1.7260  1.3066  0.4958
  279MOL0     H38436   7.535   2.028  11.647  0.7991  0.8614 -1.5200
  279MOL0     H38437   7.728   2.061  11.875  0.5811  0.0566 -2.6405
  279MOL0     H38438   7.574   2.145  11.855  0.5826  0.3215  2.2307
  279MOL0     H38439   7.455   1.927  11.839 -1.9435  1.0646  2.7298
  279MOL0     H38440   7.611   1.855  11.904 -2.7981 -2.5652 -1.1541
  279MOL0     H38441   7.444   1.919  12.107 -1.0371  0.7300  1.0251
  279MOL0     H38442   7.587   2.018  12.090  1.4355  0.6431 -1.7128
  279MOL0     H38443   7.451   2.212  12.017  2.5237 -0.5294  1.1688
  279MOL0     H38444   7.364   2.149  12.142  2.4720 -0.1158  1.0870
  279MOL0     H38445   7.202   2.166  11.987 -3.6463 -3.3896  0.4773
  279MOL0     H38446   7.295   2.087  11.853  1.4101  1.5935 -0.0002
  279MOL0     H38447   7.211   1.967  12.110  0.2247  2.2943 -0.6245
  279MOL0     H38448   7.255   1.875  11.965 -0.6872 -0.8251 -0.7838
  279MOL0     H38449   7.023   1.862  11.961 -0.5728 -0.2753  1.9432
  279MOL0     H38450   6.999   2.028  12.003 -0.8643 -2.4807  1.4073
  279MOL0     H38451   6.977   2.212  11.820 -1.2130  0.0511 -0.6106
  279MOL0     H38452   6.806   2.142  11.496 -1.5118 -2.0288  2.4602
  279MOL0     H38453   6.966   2.227  11.500  0.8308  1.0280  1.3191
  279MOL0     H38454   6.737   2.272  11.710  0.0788  1.9427  0.2126
  279MOL0     H38455   6.894   2.355  11.687 -0.5298 -1.1363  2.7348
  279MOL0     H38456   6.695   2.372  11.456  0.0257  1.0159 -0.4418
  279MOL0     H38457   6.650   2.442  11.616  0.7173 -0.1644  2.1828
  279MOL0     H38458   6.753   2.598  11.442  1.1023  2.4240  0.9823
  279MOL0     H38459   6.825   2.589  11.618  4.7881 -2.7213  0.7161
  279MOL0     H38460   6.856   2.437  11.223 -1.2945  1.1640 -0.2026
  279MOL0     H38461   6.839   2.429  11.001  1.0304 -0.2138 -1.2691
  279MOL0     H38462   7.002   2.472  10.929  0.8829 -1.4626  1.3723
  279MOL0     H38463   6.853   2.583  10.925 -1.9827  2.6953  4.8546
  279MOL0     H38464   7.289   3.106  11.001 -1.2057 -1.2763  0.1499
  279MOL0     H38465   7.290   3.287  10.853 -2.7930  0.4717  0.8939
  279MOL0     H38466   7.355   3.261  10.553  2.1558 -1.8051 -2.1155
  279MOL0     H38467   7.250   3.146  10.482 -0.2242  0.7837  0.1423
  279MOL0     H38468   7.120   3.345  10.372  0.1654 -3.4902  0.3450
  279MOL0     H38469   7.264   3.440  10.420 -0.0401  1.1307 -0.7527
  279MOL0     H38470   7.221   3.223  10.209  1.0874 -1.1030  0.8568
  279MOL0     H38471   7.384   3.251  10.289  0.0824 -0.1456  1.8010
  279MOL0     H38472   7.361   3.486  10.239 -0.5679 -1.2198  2.1014
  279MOL0     H38473   7.204   3.438  10.159  0.4884  0.1382 -1.6931
  279MOL0     H38474   7.471   3.332  10.068  1.0057  0.8666 -3.2926
  279MOL0     H38475   7.319   3.324   9.993 -3.0148 -0.3765  2.1606
  279MOL0     H38476   7.307   3.578   9.985  0.3430  0.7744 -0.8017
  279MOL0     H38477   7.420   3.506   9.886 -1.1510  1.3136 -0.3789
  279MOL0     H38478   7.596   3.536  10.091  0.2181  0.9412 -0.2683
  279MOL0     H38479   7.478   3.640  10.169 -1.4476  0.5299 -0.5960
  279MOL0     H38480   7.654   3.778  10.051 -0.2845  3.0303 -0.0445
  279MOL0     H38481   7.503   3.821  10.002  1.2783  1.0044  0.3714
  279MOL0     H38482   7.012   3.060  10.595 -1.5609  3.8244 -1.0124
  279MOL0     H38483   7.002   2.886  10.752 -2.7984  0.5242  0.4090
  279MOL0     H38484   7.180   2.814  11.226  0.8005 -0.9232 -2.0245
  279MOL0     H38485   7.127   2.714  11.421 -0.1804  1.6359 -1.0029
  279MOL0     H38486   7.913   1.984  11.707 -1.1358  0.5404 -0.4398
  279MOL0     H38487   8.134   2.013  11.618 -1.0223 -1.6843  1.4642
  279MOL0     H38488   8.586   2.065  11.487 -0.1088 -1.7292 -1.3771
  279MOL0     H38489   8.776   2.103  11.356 -0.2219 -0.6025  0.0061
  279MOL0     H38490   8.873   2.426  11.032 -0.0564 -1.4315 -0.6101
  279MOL0     H38491   8.698   2.404  11.013  0.5974 -1.7642 -0.6895
  279MOL0     H38492   8.869   2.568  11.213 -0.1745 -1.7355  0.9061
  279MOL0     H38493   8.704   2.545  11.251 -0.0323  1.2955 -0.1062
  279MOL0     H38494   8.787   2.636  10.986  1.7113  0.5008  1.1379
  279MOL0     H38495   8.619   2.641  11.058 -0.9196  0.1917  0.2694
  279MOL0     H38496   8.738   2.868  11.024  1.9894 -0.6942 -0.8445
  279MOL0     H38497   8.840   2.816  11.167  0.3254 -2.2956  0.0963
  279MOL0     H38498   8.439   2.896  11.313  1.1948  1.0200  1.6110
  279MOL0     H38499   8.526   2.357  11.110  1.2769 -1.8166 -1.0788
  279MOL0     H38500   8.229   2.252  11.220  1.5345 -1.6552  0.8233
  279MOL0     H38501   8.278   2.414  11.242 -2.2502 -0.7725 -0.7314
  279MOL0     H38502   8.327   2.338  11.087 -1.2530 -3.8651 -1.2037
  280MOL0     O38503  11.403   5.593   0.127  0.4742  0.2887 -0.1253
  280MOL0     C38504  11.331   5.639   0.210  1.3258 -0.3901 -0.1621
  280MOL0     O38505  11.340   5.616   0.344 -1.0893  0.4800  0.1698
  280MOL0     C38506  11.426   5.522   0.403  0.0970  0.6727  0.9101
  280MOL0     C38507  11.384   5.400   0.437  0.5967  0.6954 -0.2738
  280MOL0     C38508  11.463   5.314   0.518  0.8787  0.8887 -0.1438
  280MOL0     C38509  11.597   5.348   0.539 -0.2518 -0.1788 -0.2190
  280MOL0     O38510  11.697   5.274   0.610 -0.3411 -0.3048  0.0785
  280MOL0     C38511  11.631   5.167   0.693 -0.0452 -0.0090  0.4411
  280MOL0     C38512  11.731   5.063   0.751 -0.2153  0.8451  0.8678
  280MOL0     C38513  11.673   4.952   0.833 -0.5598 -0.2605 -0.3539
  280MOL0     C38514  11.566   4.980   0.938  1.2434  0.3753 -0.1775
  280MOL0     C38515  11.625   4.987   1.085 -0.9861  0.2405  0.4428
  280MOL0     C38516  11.704   5.109   1.116 -0.2526  0.6076 -0.2827
  280MOL0     C38517  11.808   5.104   1.244 -0.0033 -1.4716 -0.2444
  280MOL0     C38518  11.967   5.102   1.200 -0.5641 -0.3550 -0.0153
  280MOL0     N38519  11.993   5.013   1.086 -0.5442  0.3270  0.7986
  280MOL0     C38520  12.030   5.054   0.958 -0.1149 -0.5238 -0.3840
  280MOL0     C38521  12.057   4.934   0.894 -0.2554 -1.4930  0.4814
  280MOL0     C38522  12.090   4.900   0.746  0.4116 -0.2685 -0.5194
  280MOL0     C38523  12.209   4.981   0.695 -0.3670 -0.4065 -0.1130
  280MOL0     C38524  12.343   4.939   0.773 -0.2291 -0.6222 -0.7067
  280MOL0     C38525  12.414   4.802   0.726  0.1581 -0.2206  0.2687
  280MOL0     O38526  12.501   4.766   0.832 -1.0907 -0.2885  0.6281
  280MOL0     C38527  12.633   4.813   0.816  0.2896 -0.8177  0.1578
  280MOL0     C38528  12.696   4.829   0.687 -0.1868 -0.8587 -0.0991
  280MOL0     C38529  12.813   4.897   0.679 -0.5395 -0.5289 -0.3498
  280MOL0     C38530  12.897   4.906   0.548 -0.7255  0.3135 -0.4350
  280MOL0     C38531  12.884   4.931   0.803  0.1432  0.3146 -0.3560
  280MOL0     C38532  13.020   5.000   0.813 -0.4078  0.5796 -0.1778
  280MOL0     O38533  13.073   5.073   0.706  1.3398 -0.4546 -0.7308
  280MOL0     C38534  13.195   5.127   0.707  0.0019  0.7854 -0.7780
  280MOL0     C38535  13.229   5.233   0.793 -0.4787  0.8245 -0.1010
  280MOL0     C38536  13.365   5.268   0.797 -0.0635  0.3115 -0.1794
  280MOL0     C38537  13.461   5.208   0.711  0.0907  0.1868  0.3457
  280MOL0     O38538  13.588   5.249   0.739 -0.4465  0.1136  0.7490
  280MOL0     C38539  13.698   5.159   0.697 -0.0643 -0.0225  0.4548
  280MOL0     C38540  13.831   5.203   0.737  0.8014 -0.2020 -0.0867
  280MOL0     C38541  13.959   5.138   0.677  0.1189 -0.6117 -0.8860
  280MOL0     C38542  14.087   5.162   0.761 -0.1729  0.2675 -0.2490
  280MOL0     C38543  14.211   5.105   0.696  0.4134  0.1104 -0.1508
  280MOL0     C38544  14.261   5.148   0.553  0.0954 -0.2184  0.2345
  280MOL0     C38545  14.319   5.289   0.550 -1.1161  0.2168  0.3376
  280MOL0     C38546  14.249   5.393   0.465 -0.7432 -0.2417 -0.8795
  280MOL0    Cl38547  14.207   5.343   0.299  0.1338  0.1715 -0.0531
  280MOL0     C38548  13.418   5.115   0.622 -0.3639  0.0834  1.1403
  280MOL0     C38549  13.289   5.074   0.617  0.8282  0.1682 -0.9846
  280MOL0     O38550  13.085   4.976   0.910  0.8386 -0.0234 -0.9202
  280MOL0     C38551  12.823   4.913   0.930  0.0210  0.8477  0.9057
  280MOL0     C38552  12.699   4.851   0.937 -0.5291 -0.0269 -0.0137
  280MOL0     N38553  12.032   4.831   0.986  0.3141 -0.6306  0.6089
  280MOL0     N38554  12.007   4.881   1.102 -0.4864  0.1386  0.0156
  280MOL0     C38555  11.641   5.469   0.486  0.4045 -0.3011 -0.9968
  280MOL0     C38556  11.559   5.550   0.413 -0.7583  0.1387  0.0365
  280MOL0     C38557  11.209   5.716   0.173 -0.7203 -0.7026  0.0474
  280MOL0     C38558  11.095   5.704   0.248 -0.1574 -0.5614  0.3754
  280MOL0     C38559  10.978   5.772   0.223 -0.8603 -0.0650  0.0571
  280MOL0     C38560  10.971   5.843   0.106  0.1935  0.0697  0.2721
  280MOL0     O38561  10.838   5.892   0.076  0.1840 -0.5280  0.5084
  280MOL0     C38562  10.834   6.016   0.006  0.3495  0.0253 -0.4110
  280MOL0     C38563  10.877   6.130   0.095 -0.7662 -0.5011 -0.6980
  280MOL0     C38564  10.771   6.194   0.180 -1.8557 -0.4133 -0.2916
  280MOL0     C38565  10.815   6.335   0.234 -0.0402  0.0141  0.0566
  280MOL0     C38566  10.926   6.343   0.320 -0.5393  0.0933  0.4257
  280MOL0     C38567  11.014   6.363   0.397 -0.1624 -0.7427  0.0510
  280MOL0     C38568  11.082   5.855   0.026 -0.4752 -0.2202  0.1242
  280MOL0     C38569  11.204   5.800   0.060  0.2840  0.5837 -0.4028
  280MOL0     C38570  11.311   5.807  -0.045  0.0887 -0.3677 -0.0118
  280MOL0     H38571  11.282   5.378   0.406  0.7836  0.4900 -0.7363
  280MOL0     H38572  11.422   5.220   0.554  0.5477  0.6204 -1.1708
  280MOL0     H38573  11.563   5.108   0.631  1.7146 -1.0185 -0.5872
  280MOL0     H38574  11.574   5.218   0.772 -0.1153  1.2185 -0.3668
  280MOL0     H38575  11.791   5.021   0.670  0.6078 -0.0227  1.9025
  280MOL0     H38576  11.801   5.118   0.814  1.7503 -0.4038 -0.1171
  280MOL0     H38577  11.624   4.879   0.768 -3.7701  0.2352  1.2911
  280MOL0     H38578  11.762   4.904   0.874  0.3603  1.5161 -0.1745
  280MOL0     H38579  11.513   5.073   0.916 -0.0535 -0.9161 -2.9339
  280MOL0     H38580  11.481   4.913   0.924 -1.5109  2.8160  3.1342
  280MOL0     H38581  11.680   4.898   1.116  0.0071  1.1734  1.4655
  280MOL0     H38582  11.544   4.990   1.159 -0.5540  3.4421  0.9388
  280MOL0     H38583  11.770   5.135   1.033  1.9554 -0.8687  0.8944
  280MOL0     H38584  11.634   5.190   1.137 -0.5529 -0.1697  2.0542
  280MOL0     H38585  11.784   5.020   1.309 -0.3163 -0.1058  1.4598
  280MOL0     H38586  11.795   5.189   1.310 -4.3738 -0.7606 -1.6887
  280MOL0     H38587  12.006   5.198   1.164  0.7773 -1.2518 -1.0577
  280MOL0     H38588  12.025   5.057   1.281 -3.4486 -0.2922  2.2603
  280MOL0     H38589  12.028   5.155   0.916  1.4381  0.5653  1.9448
  280MOL0     H38590  12.003   4.906   0.679  1.8296  1.2177 -2.3243
  280MOL0     H38591  12.111   4.792   0.747  0.2711 -0.4908 -4.6588
  280MOL0     H38592  12.230   4.953   0.591  2.6844 -1.8333  0.7697
  280MOL0     H38593  12.195   5.089   0.705 -1.7761 -0.4677 -1.1030
  280MOL0     H38594  12.416   5.019   0.754 -2.2503  1.0902 -1.6693
  280MOL0     H38595  12.323   4.937   0.881 -1.1835  0.0146 -0.8596
  280MOL0     H38596  12.339   4.723   0.723  1.7551 -1.7663 -0.4727
  280MOL0     H38597  12.453   4.811   0.624  0.0543  0.5084  0.2824
  280MOL0     H38598  12.648   4.775   0.606 -1.9892 -0.3275  0.5753
  280MOL0     H38599  12.998   4.867   0.564  0.2008  2.1422 -1.5721
  280MOL0     H38600  12.881   5.007   0.509 -1.6517  0.8899  1.3220
  280MOL0     H38601  12.848   4.844   0.472 -1.5899  1.4404 -0.8247
  280MOL0     H38602  13.151   5.267   0.861  0.2937  1.2653  0.5842
  280MOL0     H38603  13.399   5.331   0.879 -1.4863  0.1805  0.5379
  280MOL0     H38604  13.684   5.062   0.746  1.7967 -0.1715  0.7657
  280MOL0     H38605  13.692   5.144   0.589  2.9061 -1.2058  0.3774
  280MOL0     H38606  13.840   5.301   0.690 -0.1122 -0.6282 -1.2150
  280MOL0     H38607  13.823   5.211   0.845 -1.0929 -1.0717 -0.1176
  280MOL0     H38608  13.976   5.175   0.575 -1.5440 -1.0733 -1.3639
  280MOL0     H38609  13.941   5.032   0.657  0.3824 -0.3949 -2.4010
  280MOL0     H38610  14.073   5.105   0.853 -1.7607  1.4137  0.2687
  280MOL0     H38611  14.105   5.268   0.780 -1.9325  0.5271  0.1526
  280MOL0     H38612  14.294   5.100   0.767 -0.8442 -4.4022  1.3916
  280MOL0     H38613  14.194   4.997   0.683 -0.9289  0.0218  1.8966
  280MOL0     H38614  14.174   5.145   0.487 -0.4738  3.5672  0.5963
  280MOL0     H38615  14.321   5.062   0.523 -1.0251 -2.4777  3.7652
  280MOL0     H38616  14.421   5.275   0.513 -0.1587  0.6987  2.6180
  280MOL0     H38617  14.336   5.319   0.654  0.4725 -0.9373  0.4409
  280MOL0     H38618  14.323   5.473   0.449  1.0853 -1.7493 -0.3529
  280MOL0     H38619  14.160   5.432   0.514 -2.6878 -1.7307 -3.0458
  280MOL0     H38620  13.486   5.073   0.548 -0.1805 -0.0429  1.3828
  280MOL0     H38621  13.259   5.001   0.543  1.9190 -0.7895 -0.5074
  280MOL0     H38622  12.869   4.945   1.023 -3.7961  0.3683  3.1770
  280MOL0     H38623  12.658   4.842   1.037 -1.8295  1.9199 -0.3152
  280MOL0     H38624  11.744   5.500   0.497  0.8482 -1.0886 -2.5181
  280MOL0     H38625  11.603   5.645   0.384  1.4720 -0.6250  0.6562
  280MOL0     H38626  11.101   5.637   0.333  2.3287 -2.8136 -1.3965
  280MOL0     H38627  10.903   5.753   0.299 -1.2317 -1.3225 -0.5926
  280MOL0     H38628  10.901   6.000  -0.079 -1.0174 -1.9570 -1.1741
  280MOL0     H38629  10.740   6.042  -0.042  1.6966  1.5433 -2.3896
  280MOL0     H38630  10.915   6.207   0.028  0.9606 -2.3014 -1.9058
  280MOL0     H38631  10.963   6.102   0.156 -0.7965 -0.7603 -0.7703
  280MOL0     H38632  10.690   6.213   0.109 -0.2048  2.3203 -1.6087
  280MOL0     H38633  10.725   6.131   0.257 -3.0819  2.6612  1.7035
  280MOL0     H38634  10.729   6.371   0.291 -1.1403  2.6682 -2.9359
  280MOL0     H38635  10.834   6.390   0.141  3.0528  0.0540  0.6273
  280MOL0     H38636  11.095   6.391   0.461  0.6755 -2.9105  0.0213
  280MOL0     H38637  11.085   5.894  -0.075  3.4790 -1.5476 -0.4751
  280MOL0     H38638  11.404   5.833   0.006  0.8426  1.1030 -1.9780
  280MOL0     H38639  11.312   5.711  -0.098  0.1767 -0.8319  0.8204
  280MOL0     H38640  11.287   5.886  -0.117 -0.9908  0.2139  0.9437
  281MOL0     O38641   8.152   2.437   4.693 -0.8107 -0.3365 -0.2632
  281MOL0     C38642   8.049   2.405   4.630 -0.3338  0.0169 -0.0979
  281MOL0     O38643   8.029   2.274   4.569 -0.6523  0.5470  0.8697
  281MOL0     C38644   8.121   2.183   4.607  0.4668  1.1233  0.2709
  281MOL0     C38645   8.066   2.084   4.693 -0.2377  0.1944 -0.9023
  281MOL0     C38646   8.143   1.973   4.732  0.7564 -0.2371 -0.3138
  281MOL0     C38647   8.262   1.949   4.675  0.5363  0.6033  0.7259
  281MOL0     O38648   8.331   1.833   4.683 -0.1177 -0.0599 -0.5782
  281MOL0     C38649   8.270   1.705   4.723  0.2823  0.3236 -0.4226
  281MOL0     C38650   8.354   1.652   4.833  0.2179 -0.1814  0.3046
  281MOL0     C38651   8.319   1.506   4.867 -0.3570 -0.8258 -0.8276
  281MOL0     C38652   8.184   1.499   4.938  1.4853  1.0138  1.1315
  281MOL0     C38653   8.200   1.423   5.069  0.0476  0.0034  0.0400
  281MOL0     C38654   8.075   1.423   5.154  0.2480 -0.0921  0.9252
  281MOL0     C38655   8.083   1.346   5.290 -0.1936  0.1874 -0.7074
  281MOL0     C38656   8.026   1.208   5.278  0.3245  0.6851 -0.9276
  281MOL0     N38657   8.074   1.128   5.393  0.7045  0.7812 -0.0275
  281MOL0     C38658   8.007   1.078   5.506 -0.8542  1.4230  0.2973
  281MOL0     C38659   8.091   0.998   5.569 -0.1021 -0.2001 -0.2145
  281MOL0     C38660   8.069   0.907   5.681  0.6682  0.4033  0.1735
  281MOL0     C38661   7.971   0.797   5.641  0.0289  0.1663  0.2821
  281MOL0     C38662   7.998   0.675   5.734 -0.2546 -0.0849  0.3543
  281MOL0     C38663   7.956   0.558   5.666  1.0303  0.1242  0.1312
  281MOL0     O38664   7.816   0.555   5.654 -1.1192 -0.3457  0.0870
  281MOL0     C38665   7.754   0.443   5.601 -0.7358 -0.3912 -0.1446
  281MOL0     C38666   7.815   0.357   5.503 -1.3074  0.7730 -0.4503
  281MOL0     C38667   7.750   0.247   5.451 -0.3422 -0.5366 -0.4705
  281MOL0     C38668   7.826   0.177   5.345 -0.3544  0.2115  0.6719
  281MOL0     C38669   7.629   0.214   5.506 -0.1482 -0.0718 -0.4235
  281MOL0     C38670   7.558   0.080   5.482  0.3812 -0.4288  0.5685
  281MOL0     O38671   7.467   0.055   5.576  0.7125 -0.0793  0.5845
  281MOL0     C38672   7.381  -0.054   5.560 -0.2318  0.1376  0.0846
  281MOL0     C38673   7.408  -0.175   5.625  0.7232  0.2345  0.0494
  281MOL0     C38674   7.310  -0.277   5.618 -0.0642 -0.1924  1.4055
  281MOL0     C38675   7.188  -0.262   5.542 -0.4021 -0.0222 -0.3884
  281MOL0     O38676   7.103  -0.367   5.513 -0.3712  0.8144 -0.5462
  281MOL0     C38677   7.105  -0.485   5.593  0.0644 -0.2631  0.5578
  281MOL0     C38678   6.989  -0.579   5.547 -0.3855  0.0432  0.8988
  281MOL0     C38679   6.998  -0.719   5.607 -0.9649  0.5587 -0.5479
  281MOL0     C38680   6.931  -0.838   5.530 -1.1416 -0.6272  0.4528
  281MOL0     C38681   6.806  -0.882   5.603  0.4469 -1.0991 -0.9802
  281MOL0     C38682   6.843  -0.963   5.730 -0.2861 -0.1280  0.3777
  281MOL0     C38683   6.714  -1.010   5.795 -0.0095  0.9274  0.2033
  281MOL0     C38684   6.746  -1.123   5.891  0.2481  0.3794  1.2943
  281MOL0    Cl38685   6.578  -1.172   5.951  0.2092 -0.2345  0.0437
  281MOL0     C38686   7.175  -0.151   5.469  0.2886 -0.1408  1.1080
  281MOL0     C38687   7.272  -0.051   5.476 -0.0752  0.6021 -0.2873
  281MOL0     O38688   7.575   0.009   5.383  0.6606  0.2914 -0.1940
  281MOL0     C38689   7.559   0.308   5.591 -0.0630  0.2210  0.0449
  281MOL0     C38690   7.622   0.425   5.631  0.2496 -0.5885 -0.3301
  281MOL0     N38691   8.200   0.989   5.484  0.0253  0.7921  0.0167
  281MOL0     N38692   8.194   1.057   5.384 -0.6281 -0.4880  0.3519
  281MOL0     C38693   8.306   2.034   4.570 -0.4034 -0.8807  0.5492
  281MOL0     C38694   8.245   2.160   4.546  0.7011 -0.1836 -0.8467
  281MOL0     C38695   7.954   2.509   4.594  0.1879 -0.1953  0.2984
  281MOL0     C38696   7.888   2.500   4.469 -1.0508 -0.7759 -0.1693
  281MOL0     C38697   7.784   2.596   4.437 -0.1333 -0.3664 -0.1723
  281MOL0     C38698   7.755   2.698   4.529 -0.6108  0.1580 -0.0299
  281MOL0     O38699   7.660   2.795   4.508 -0.5871  0.1533  0.0573
  281MOL0     C38700   7.699   2.905   4.425  0.4858 -0.3318  0.2806
  281MOL0     C38701   7.619   3.025   4.478 -0.2926 -0.0310 -0.7308
  281MOL0     C38702   7.669   3.154   4.408 -0.3704  0.6054 -0.2067
  281MOL0     C38703   7.580   3.276   4.417 -0.6411 -0.1657  0.0004
  281MOL0     C38704   7.636   3.368   4.518  0.6200  0.3145  0.0454
  281MOL0     C38705   7.669   3.453   4.597 -0.2237  0.2560  0.3410
  281MOL0     C38706   7.823   2.701   4.651 -0.5518  0.8079 -0.0609
  281MOL0     C38707   7.924   2.606   4.690  0.4213 -0.6076  0.7835
  281MOL0     C38708   7.985   2.600   4.822  1.3326  0.7087 -0.3960
  281MOL0     H38709   7.966   2.105   4.731 -0.6994  0.3964 -2.1597
  281MOL0     H38710   8.101   1.902   4.802  3.5643 -1.9706 -0.2576
  281MOL0     H38711   8.264   1.629   4.645  1.5826  2.7694 -3.0738
  281MOL0     H38712   8.168   1.723   4.757 -0.7880  0.0833 -3.2722
  281MOL0     H38713   8.459   1.645   4.803  0.1441 -3.6003  0.3917
  281MOL0     H38714   8.338   1.713   4.922 -1.1902  2.7805 -1.8386
  281MOL0     H38715   8.319   1.442   4.778  0.7242  2.0331 -3.0677
  281MOL0     H38716   8.400   1.482   4.937  0.9186  0.7850 -1.6654
  281MOL0     H38717   8.121   1.588   4.948 -0.0818  0.0509  0.1532
  281MOL0     H38718   8.127   1.436   4.870  0.7573 -0.0543  2.6736
  281MOL0     H38719   8.280   1.471   5.127 -0.1992  4.0902 -2.5738
  281MOL0     H38720   8.235   1.321   5.054  2.6926  1.0162 -1.4270
  281MOL0     H38721   8.055   1.530   5.171 -0.3224  0.0159 -0.2989
  281MOL0     H38722   7.985   1.392   5.100  0.0800 -0.7594  1.5662
  281MOL0     H38723   8.019   1.401   5.359 -0.8284 -0.2716 -0.9232
  281MOL0     H38724   8.187   1.342   5.325 -1.1989  1.4474  2.8490
  281MOL0     H38725   7.917   1.198   5.286  0.3834 -0.0345 -0.9651
  281MOL0     H38726   8.047   1.157   5.184  0.8889 -1.0516  0.1001
  281MOL0     H38727   7.905   1.086   5.543 -0.9819 -3.3439  1.6612
  281MOL0     H38728   8.034   0.962   5.769 -0.8901 -0.9015  0.4253
  281MOL0     H38729   8.170   0.872   5.702  0.5735 -1.8797 -2.5934
  281MOL0     H38730   7.868   0.831   5.658 -0.3403 -0.5073 -0.5366
  281MOL0     H38731   7.985   0.766   5.537  1.4968 -1.4312  0.9098
  281MOL0     H38732   8.105   0.661   5.751  0.0495  0.0187 -1.3073
  281MOL0     H38733   7.945   0.703   5.826 -1.0145 -0.3972  0.0220
  281MOL0     H38734   7.996   0.555   5.564  2.5763  1.4934  0.6511
  281MOL0     H38735   7.987   0.471   5.724 -1.5436 -0.8348  0.2067
  281MOL0     H38736   7.915   0.383   5.472 -1.0481  1.7359  1.0556
  281MOL0     H38737   7.870   0.255   5.283  1.4507 -0.7119  0.7217
  281MOL0     H38738   7.767   0.125   5.270  1.2649  1.1209 -1.3319
  281MOL0     H38739   7.910   0.120   5.387  0.5632  1.6181  0.8064
  281MOL0     H38740   7.495  -0.169   5.690 -0.9503  0.2975  2.3903
  281MOL0     H38741   7.321  -0.370   5.672 -0.3322 -0.9342  0.2156
  281MOL0     H38742   7.203  -0.532   5.576  0.6022  1.5980 -2.2411
  281MOL0     H38743   7.094  -0.466   5.700  3.0777  0.3008  0.8612
  281MOL0     H38744   6.895  -0.534   5.580 -0.5306  0.0570  0.4656
  281MOL0     H38745   7.001  -0.576   5.439 -0.4741 -1.2856  0.8381
  281MOL0     H38746   6.943  -0.713   5.701 -0.2831  0.3575 -0.1296
  281MOL0     H38747   7.102  -0.748   5.624 -0.7432  1.4392 -0.3845
  281MOL0     H38748   7.003  -0.919   5.516  0.2669  0.4876  1.0386
  281MOL0     H38749   6.906  -0.797   5.432 -2.2748 -3.3393 -0.4899
  281MOL0     H38750   6.744  -0.798   5.636  0.7169 -1.2824  0.0245
  281MOL0     H38751   6.750  -0.939   5.528 -0.7463  2.0303 -2.6278
  281MOL0     H38752   6.892  -0.901   5.805  1.0898 -1.7802  0.9155
  281MOL0     H38753   6.908  -1.045   5.698 -1.0644 -0.5664 -0.1019
  281MOL0     H38754   6.644  -1.052   5.722  2.9677 -2.1469 -1.1589
  281MOL0     H38755   6.673  -0.920   5.843 -1.6144  0.6728 -0.6103
  281MOL0     H38756   6.825  -1.096   5.962  2.9379 -1.3044 -0.8541
  281MOL0     H38757   6.775  -1.200   5.819  1.6017  2.5655 -0.6657
  281MOL0     H38758   7.096  -0.149   5.396  0.3038  1.0018  1.0953
  281MOL0     H38759   7.257   0.043   5.423  1.2213  2.5907  2.6270
  281MOL0     H38760   7.469   0.278   5.644  0.2795 -0.9553 -0.0058
  281MOL0     H38761   7.580   0.496   5.701 -1.3736 -3.4110  1.7660
  281MOL0     H38762   8.402   2.004   4.529 -0.2857 -1.3345  1.1609
  281MOL0     H38763   8.280   2.224   4.466  0.1340 -0.8867 -1.6779
  281MOL0     H38764   7.920   2.417   4.406  0.9348  1.0657 -1.7154
  281MOL0     H38765   7.740   2.586   4.338 -2.4196 -0.6156  0.8232
  281MOL0     H38766   7.806   2.926   4.433  0.6338 -1.3514  1.0844
  281MOL0     H38767   7.671   2.914   4.319 -1.2192  1.3323  0.8033
  281MOL0     H38768   7.630   3.042   4.586  0.5487  4.7121 -1.3233
  281MOL0     H38769   7.511   3.012   4.469 -1.0282  0.6393  4.4081
  281MOL0     H38770   7.773   3.160   4.443  0.2042 -3.3470 -0.7488
  281MOL0     H38771   7.677   3.140   4.300  0.1623 -0.3406 -0.0545
  281MOL0     H38772   7.483   3.240   4.452  0.2089 -1.0532  1.5796
  281MOL0     H38773   7.568   3.328   4.322  0.6964 -0.5413 -0.4031
  281MOL0     H38774   7.724   3.514   4.666  2.5707  0.4613 -1.8907
  281MOL0     H38775   7.783   2.767   4.727 -3.4325  0.9709 -1.5768
  281MOL0     H38776   7.927   2.665   4.888  1.6532  1.7897 -1.1567
  281MOL0     H38777   7.964   2.499   4.860 -0.3220  1.9448  2.2482
  281MOL0     H38778   8.091   2.628   4.825  1.2369  0.9978  0.9539
  282MOL0     O38779   9.686  10.271   7.521  0.1716  0.4884 -0.3150
  282MOL0     C38780   9.560  10.277   7.527  0.0780  0.3822 -0.4344
  282MOL0     O38781   9.472  10.192   7.589 -0.1218  0.9661 -0.6552
  282MOL0     C38782   9.515  10.061   7.617 -0.3809  0.1255 -0.2250
  282MOL0     C38783   9.454   9.993   7.723  0.3950 -0.8818 -0.5304
  282MOL0     C38784   9.497   9.866   7.767 -0.5351  0.2862  0.2913
  282MOL0     C38785   9.596   9.794   7.691  0.0086 -0.7100  0.6822
  282MOL0     O38786   9.642   9.661   7.709  0.1260 -0.1952  0.2268
  282MOL0     C38787   9.615   9.595   7.838 -0.7314  0.6843  0.2281
  282MOL0     C38788   9.724   9.644   7.940  0.2807 -0.0669  0.6693
  282MOL0     C38789   9.755   9.554   8.052 -0.6482  0.8394  0.6405
  282MOL0     C38790   9.877   9.461   8.015  1.6231 -0.1491 -0.2165
  282MOL0     C38791   9.893   9.340   8.110 -0.3628  0.4813  0.9028
  282MOL0     C38792   9.976   9.240   8.026 -0.4208 -0.0770 -0.4478
  282MOL0     C38793   9.981   9.109   8.109 -0.1995  0.3618 -0.5553
  282MOL0     C38794  10.088   9.117   8.223  0.4039 -0.4507 -0.7963
  282MOL0     N38795  10.120   8.975   8.254  0.6874  0.3266  1.0702
  282MOL0     C38796  10.048   8.880   8.320  0.1952  0.0444 -0.5705
  282MOL0     C38797  10.118   8.769   8.293 -0.1265  0.2125  0.1703
  282MOL0     C38798  10.081   8.623   8.327  0.7369 -0.3614  0.2507
  282MOL0     C38799  10.085   8.600   8.472 -1.2172  0.2917  0.2037
  282MOL0     C38800  10.064   8.455   8.524  0.3302 -0.0095 -0.5467
  282MOL0     C38801   9.998   8.449   8.657 -0.0864 -0.0609 -0.2258
  282MOL0     O38802   9.988   8.314   8.693 -0.8471 -0.0569  0.1759
  282MOL0     C38803  10.074   8.272   8.788  0.0152 -0.8920  0.1551
  282MOL0     C38804  10.210   8.317   8.806  1.5677  0.5694  0.4492
  282MOL0     C38805  10.292   8.257   8.895 -0.9446  0.8126 -1.0819
  282MOL0     C38806  10.433   8.298   8.902  0.3318  1.2147  0.0903
  282MOL0     C38807  10.246   8.158   8.992 -0.7512  0.5322 -0.0294
  282MOL0     C38808  10.332   8.091   9.095 -0.8100 -0.0319 -0.1804
  282MOL0     O38809  10.259   8.047   9.201 -0.7235 -0.7664 -0.2300
  282MOL0     C38810  10.315   7.995   9.315  0.2320  0.3710  0.7273
  282MOL0     C38811  10.395   8.069   9.399  0.1434  0.1820 -0.2171
  282MOL0     C38812  10.459   8.017   9.510  0.6407  0.1426  0.0245
  282MOL0     C38813  10.429   7.888   9.543  0.1827 -0.1930 -0.1443
  282MOL0     O38814  10.459   7.851   9.667  0.4995 -0.4546 -0.7623
  282MOL0     C38815  10.578   7.776   9.672 -0.2182 -0.0603  0.5698
  282MOL0     C38816  10.616   7.758   9.820 -0.3342 -0.3224 -0.3221
  282MOL0     C38817  10.688   7.626   9.844  0.9975  0.7207 -0.0451
  282MOL0     C38818  10.732   7.617   9.993  0.6935 -0.3587 -0.3799
  282MOL0     C38819  10.802   7.482  10.017 -0.3477  0.1754  0.5937
  282MOL0     C38820  10.933   7.491  10.101  0.5076  0.2909 -0.4946
  282MOL0     C38821  10.975   7.347  10.153  1.3557  1.0844 -0.6094
  282MOL0     C38822  10.908   7.314  10.281  0.3195  0.6059 -0.5817
  282MOL0    Cl38823  10.748   7.230  10.264 -0.0270  0.5124 -0.0745
  282MOL0     C38824  10.346   7.810   9.466  0.1764  0.0751  0.5150
  282MOL0     C38825  10.292   7.866   9.350  0.1457  0.0438  0.6976
  282MOL0     O38826  10.458   8.089   9.090  0.1999 -0.1364 -0.0684
  282MOL0     C38827  10.108   8.127   8.980 -0.2371  0.4337  0.0738
  282MOL0     C38828  10.029   8.178   8.874 -0.0613  0.2777  0.5753
  282MOL0     N38829  10.227   8.793   8.211 -0.5868 -0.8942  0.6688
  282MOL0     N38830  10.230   8.922   8.192 -0.7327  0.1480  0.8838
  282MOL0     C38831   9.660   9.865   7.594 -0.6513  0.3834 -0.2222
  282MOL0     C38832   9.620   9.991   7.552 -0.3633  0.1256 -0.2514
  282MOL0     C38833   9.495  10.383   7.452  0.4499  0.4393  0.5499
  282MOL0     C38834   9.495  10.364   7.315 -0.5879 -0.6016  0.3645
  282MOL0     C38835   9.435  10.455   7.227  0.8243  0.4985  0.3944
  282MOL0     C38836   9.376  10.572   7.281  0.7246 -0.1223  0.2946
  282MOL0     O38837   9.332  10.688   7.212 -0.9895  0.7617 -0.2143
  282MOL0     C38838   9.347  10.688   7.067  0.0994  0.0252 -0.0716
  282MOL0     C38839   9.488  10.698   7.016 -0.9068 -0.7266 -0.0498
  282MOL0     C38840   9.490  10.684   6.865 -0.3723 -0.7082 -0.7032
  282MOL0     C38841   9.620  10.734   6.812 -0.2829  1.1805  0.6654
  282MOL0     C38842   9.654  10.709   6.670  0.8047  0.4806  0.2011
  282MOL0     C38843   9.661  10.696   6.551  1.2180 -0.5911 -0.0254
  282MOL0     C38844   9.366  10.584   7.417  0.3346  0.6440  0.2500
  282MOL0     C38845   9.414  10.483   7.502 -0.1510  0.2553  0.3659
  282MOL0     C38846   9.387  10.498   7.648 -0.6556  0.5084  0.3959
  282MOL0     H38847   9.381  10.052   7.778 -0.1560 -3.7933  2.1198
  282MOL0     H38848   9.465   9.833   7.866  0.5902  0.0181  0.5885
  282MOL0     H38849   9.616   9.486   7.831 -1.8965  0.4549  2.7162
  282MOL0     H38850   9.516   9.623   7.874 -0.5995  0.7053  0.5748
  282MOL0     H38851   9.817   9.648   7.883 -1.7512 -4.2745 -3.5747
  282MOL0     H38852   9.703   9.747   7.970  0.8098  1.0849 -2.5029
  282MOL0     H38853   9.779   9.610   8.142 -3.5979  1.4546  1.1576
  282MOL0     H38854   9.662   9.502   8.078 -1.0864  2.6060  2.8524
  282MOL0     H38855   9.857   9.436   7.910 -1.6915 -1.0258  0.5055
  282MOL0     H38856   9.959   9.531   8.029  1.1515  0.3129  0.2846
  282MOL0     H38857   9.804   9.287   8.142  0.4940 -0.4151  1.8506
  282MOL0     H38858   9.947   9.378   8.198 -1.3906  2.3571  0.7863
  282MOL0     H38859   9.910   9.212   7.943 -0.4362  0.9925 -0.8220
  282MOL0     H38860  10.071   9.272   7.982 -0.7151  0.2055 -0.8858
  282MOL0     H38861  10.023   9.026   8.052  1.1717  0.9615 -0.4508
  282MOL0     H38862   9.877   9.090   8.139  0.8453 -1.2063  2.4813
  282MOL0     H38863  10.169   9.183   8.190  0.2169 -0.1895 -0.7373
  282MOL0     H38864  10.041   9.160   8.312  1.2507 -3.7720  1.4522
  282MOL0     H38865   9.957   8.878   8.379  1.6890 -7.0560  2.4664
  282MOL0     H38866  10.159   8.566   8.276  0.4673  1.4453 -2.3396
  282MOL0     H38867   9.983   8.598   8.285 -1.7914  0.7361  4.8031
  282MOL0     H38868  10.181   8.632   8.514 -1.7142 -2.5630  4.1658
  282MOL0     H38869  10.005   8.659   8.518 -2.2250 -2.7163  2.6411
  282MOL0     H38870  10.014   8.396   8.447  0.9914  0.1294 -1.0936
  282MOL0     H38871  10.164   8.414   8.542  1.0061  0.9214 -2.0166
  282MOL0     H38872  10.054   8.512   8.727  0.9529 -0.3427 -0.7847
  282MOL0     H38873   9.902   8.497   8.637 -0.5640 -0.9731 -0.1748
  282MOL0     H38874  10.253   8.383   8.732  2.3359 -0.9967 -0.5449
  282MOL0     H38875  10.493   8.292   8.993  0.9978  0.2773 -0.3816
  282MOL0     H38876  10.456   8.401   8.876  1.7646  1.0146  0.4904
  282MOL0     H38877  10.488   8.232   8.834 -0.8655  0.4009 -0.1243
  282MOL0     H38878  10.409   8.176   9.396  1.3298  0.2002  2.7765
  282MOL0     H38879  10.527   8.072   9.575  0.9485  2.2905 -2.0014
  282MOL0     H38880  10.552   7.682   9.622 -0.3408 -0.2262  0.9397
  282MOL0     H38881  10.670   7.823   9.636 -0.1107  0.1016  1.0418
  282MOL0     H38882  10.673   7.847   9.847 -1.7209  0.4791  0.0192
  282MOL0     H38883  10.524   7.755   9.878  0.7259  3.4607  1.8522
  282MOL0     H38884  10.767   7.605   9.772  0.9266  0.0611  0.0647
  282MOL0     H38885  10.631   7.534   9.828 -1.2039  2.1768 -0.9854
  282MOL0     H38886  10.646   7.626  10.060 -0.3937 -2.6882 -1.3791
  282MOL0     H38887  10.793   7.705  10.017 -0.6838  0.0507  1.9515
  282MOL0     H38888  10.737   7.410  10.069  2.2846 -2.6922  0.1642
  282MOL0     H38889  10.834   7.438   9.922 -3.5867  1.2585 -1.1651
  282MOL0     H38890  10.930   7.565  10.181  0.8311  3.6440 -3.3498
  282MOL0     H38891  11.014   7.534  10.042  1.8015 -0.4258  0.6971
  282MOL0     H38892  11.080   7.349  10.181  0.6573 -2.1216  3.1633
  282MOL0     H38893  10.955   7.277  10.072  0.4891 -1.5343  1.7234
  282MOL0     H38894  10.891   7.403  10.342 -1.7928  2.2096 -3.3006
  282MOL0     H38895  10.970   7.239  10.331 -1.3852 -0.0962  0.5986
  282MOL0     H38896  10.308   7.713   9.496 -2.7572  1.6523  2.3995
  282MOL0     H38897  10.214   7.807   9.302 -0.3487 -1.1161  2.8156
  282MOL0     H38898  10.063   8.056   9.049  0.2195  2.4505  2.6063
  282MOL0     H38899   9.923   8.154   8.864 -0.5196  2.8050 -1.7890
  282MOL0     H38900   9.740   9.821   7.536  0.8971  4.1513 -1.2375
  282MOL0     H38901   9.666  10.051   7.474 -2.5676  4.8095  1.6617
  282MOL0     H38902   9.550  10.279   7.277  2.8950  1.5781  0.1379
  282MOL0     H38903   9.443  10.435   7.121 -1.4759 -3.5431  0.7796
  282MOL0     H38904   9.300  10.597   7.029 -0.6678  0.1029  0.6641
  282MOL0     H38905   9.287  10.774   7.039 -1.5892 -2.2064 -4.1686
  282MOL0     H38906   9.545  10.611   7.050  0.4632  1.0340  2.4995
  282MOL0     H38907   9.542  10.788   7.050  0.0581 -1.3989  0.2459
  282MOL0     H38908   9.484  10.579   6.836  2.6354 -1.9202  2.4599
  282MOL0     H38909   9.413  10.755   6.831  0.1517  0.7270  0.9699
  282MOL0     H38910   9.697  10.679   6.867  1.1498  2.2666 -0.1802
  282MOL0     H38911   9.644  10.834   6.849  1.3105  1.3365 -0.6706
  282MOL0     H38912   9.684  10.676   6.448 -1.0192 -0.9228 -0.5379
  282MOL0     H38913   9.315  10.672   7.456 -2.3637 -0.7894  0.1779
  282MOL0     H38914   9.391  10.402   7.701 -0.2190  0.8815  1.0510
  282MOL0     H38915   9.477  10.555   7.671  1.2570 -1.0252 -2.5679
  282MOL0     H38916   9.296  10.557   7.663 -0.7456  0.6181 -0.5026
  283MOL0     O38917  10.677   4.397   1.683  0.4898  0.2440  0.0143
  283MOL0     C38918  10.792   4.381   1.654 -0.3244 -1.0652  0.3652
  283MOL0     O38919  10.878   4.476   1.597  0.5429 -0.4793 -0.1484
  283MOL0     C38920  10.861   4.610   1.615  0.1628 -0.5973 -0.3008
  283MOL0     C38921  10.783   4.666   1.717 -0.3578  0.2426  0.1256
  283MOL0     C38922  10.769   4.803   1.733 -0.5509  0.1224 -0.0695
  283MOL0     C38923  10.834   4.890   1.640  0.4211  0.9017 -0.2543
  283MOL0     O38924  10.823   5.024   1.668 -0.0800  0.6951 -0.2687
  283MOL0     C38925  10.894   5.124   1.597  0.6530 -0.8860  0.2661
  283MOL0     C38926  10.818   5.256   1.624 -0.1203  0.5717 -0.2496
  283MOL0     C38927  10.907   5.375   1.597 -0.4114 -0.2953  0.2252
  283MOL0     C38928  10.849   5.503   1.657 -0.0939  0.6874 -0.1333
  283MOL0     C38929  10.706   5.531   1.614 -1.1045  0.1553  0.0249
  283MOL0     C38930  10.693   5.572   1.464 -0.0882 -0.4053  0.8656
  283MOL0     C38931  10.554   5.607   1.417 -0.0163  0.3864 -0.2938
  283MOL0     C38932  10.463   5.486   1.385  0.3553 -0.0852  0.0449
  283MOL0     N38933  10.358   5.508   1.288  0.6732  0.4407 -0.6161
  283MOL0     C38934  10.253   5.597   1.320  0.1241 -0.3647 -0.1175
  283MOL0     C38935  10.188   5.625   1.205  0.2652  0.1310  0.6885
  283MOL0     C38936  10.079   5.718   1.198 -0.8118 -0.0668 -0.9249
  283MOL0     C38937  10.122   5.857   1.165 -0.3927 -0.6775  0.9415
  283MOL0     C38938  10.205   5.865   1.027  0.0176 -0.0531  0.3822
  283MOL0     C38939  10.109   5.833   0.900 -0.3637 -0.9386  0.0478
  283MOL0     O38940  10.114   5.922   0.782  0.1682  0.3809 -0.8261
  283MOL0     C38941  10.054   5.873   0.674 -0.0560  0.1965 -1.6725
  283MOL0     C38942   9.932   5.802   0.677 -0.5107 -0.9797  0.2751
  283MOL0     C38943   9.874   5.736   0.573 -0.2521 -0.4849  0.1368
  283MOL0     C38944   9.737   5.684   0.601  0.3820  0.5742 -0.4496
  283MOL0     C38945   9.950   5.747   0.446  0.8949  0.2602 -0.1639
  283MOL0     C38946   9.900   5.682   0.320  0.0872 -1.2304 -0.0724
  283MOL0     O38947   9.994   5.643   0.230 -0.3837  0.6318  0.5022
  283MOL0     C38948   9.956   5.583   0.114  0.7334 -0.6277  0.6590
  283MOL0     C38949   9.847   5.486   0.098 -0.2735 -0.7896 -0.2336
  283MOL0     C38950   9.815   5.429  -0.023 -0.2389 -0.0023 -1.0740
  283MOL0     C38951   9.887   5.466  -0.136 -1.0933  0.6932 -0.2620
  283MOL0     O38952   9.872   5.417  -0.257 -0.1181 -0.5238  0.5059
  283MOL0     C38953   9.746   5.353  -0.274  0.3014 -0.0519 -0.1259
  283MOL0     C38954   9.737   5.301  -0.417 -0.2933 -0.2557 -0.2469
  283MOL0     C38955   9.812   5.169  -0.441  0.7234 -1.9317  1.0766
  283MOL0     C38956   9.779   5.115  -0.586 -0.0183  0.1991 -0.7202
  283MOL0     C38957   9.869   4.999  -0.631 -0.8310 -0.2517 -0.4619
  283MOL0     C38958   9.828   4.956  -0.766 -0.0537 -0.2854 -0.3184
  283MOL0     C38959   9.925   4.840  -0.814 -0.3552  0.1849  0.6815
  283MOL0     C38960   9.906   4.781  -0.951  0.1203  0.0339 -0.0998
  283MOL0    Cl38961   9.742   4.729  -0.968  0.1521  0.0174  0.0949
  283MOL0     C38962   9.995   5.552  -0.120 -0.5671 -0.3994  0.7889
  283MOL0     C38963  10.034   5.606   0.005 -0.1858 -0.5130  0.2724
  283MOL0     O38964   9.779   5.680   0.303 -0.5859 -0.4291 -0.2712
  283MOL0     C38965  10.069   5.819   0.443 -0.9873 -0.0555  0.0244
  283MOL0     C38966  10.122   5.880   0.554  0.6895 -0.0956  0.6502
  283MOL0     N38967  10.252   5.554   1.103 -0.3644  0.4944  0.5003
  283MOL0     N38968  10.358   5.492   1.157  1.0335 -0.4211 -0.4225
  283MOL0     C38969  10.915   4.838   1.544  0.4993  0.3459 -1.0529
  283MOL0     C38970  10.924   4.700   1.526  0.1380 -1.9365  0.7685
  283MOL0     C38971  10.847   4.247   1.658 -0.0467 -0.2103  0.0511
  283MOL0     C38972  10.937   4.216   1.764  0.8064  0.1121 -0.2128
  283MOL0     C38973  10.978   4.082   1.776 -0.1958  0.9038  0.8001
  283MOL0     C38974  10.932   3.983   1.677 -0.7062  0.3425  0.1110
  283MOL0     O38975  10.988   3.857   1.684 -0.7005  0.1622 -0.3259
  283MOL0     C38976  10.896   3.757   1.727 -0.4577  0.0529  0.9004
  283MOL0     C38977  10.952   3.649   1.805 -0.2368  0.3256  0.3387
  283MOL0     C38978  11.067   3.579   1.735 -0.0685  0.1944 -0.2765
  283MOL0     C38979  11.104   3.454   1.815 -0.4813 -1.2739 -0.2905
  283MOL0     C38980  11.210   3.392   1.743 -1.1228 -0.4056  0.9709
  283MOL0     C38981  11.285   3.335   1.667  0.2091 -0.0735  0.6356
  283MOL0     C38982  10.848   4.020   1.576  0.9981 -0.4821 -0.1103
  283MOL0     C38983  10.800   4.147   1.569 -0.2342 -0.2557 -0.1578
  283MOL0     C38984  10.693   4.181   1.470 -0.0767 -0.2012  0.2807
  283MOL0     H38985  10.721   4.612   1.788  1.8301 -0.1465  1.8560
  283MOL0     H38986  10.708   4.840   1.814 -1.3976 -3.2877  1.0182
  283MOL0     H38987  10.913   5.114   1.489 -2.0927 -1.5328 -0.2316
  283MOL0     H38988  10.987   5.127   1.654 -0.0114  0.5602  1.3328
  283MOL0     H38989  10.725   5.262   1.566 -3.2059 -0.9488  4.0058
  283MOL0     H38990  10.779   5.263   1.726 -0.0586  3.8352 -0.3461
  283MOL0     H38991  11.010   5.362   1.631 -0.1766 -0.4985 -0.5416
  283MOL0     H38992  10.913   5.391   1.489  1.6440 -1.2072  0.1677
  283MOL0     H38993  10.846   5.498   1.766 -0.9761 -0.3598 -0.1911
  283MOL0     H38994  10.908   5.590   1.624 -0.1139  0.2328 -1.4321
  283MOL0     H38995  10.677   5.623   1.667 -1.0140  1.6543 -2.3936
  283MOL0     H38996  10.647   5.444   1.643  0.2781 -1.6626 -2.3334
  283MOL0     H38997  10.748   5.666   1.447 -0.0387 -0.9795 -2.8075
  283MOL0     H38998  10.725   5.498   1.390  1.4766  1.7088 -0.7117
  283MOL0     H38999  10.547   5.682   1.338 -0.3140  2.9402  2.0199
  283MOL0     H39000  10.497   5.652   1.499 -0.0160 -1.4678  0.7738
  283MOL0     H39001  10.533   5.414   1.342  2.8119  1.4995  1.2203
  283MOL0     H39002  10.413   5.446   1.474  0.5413 -0.2279  0.0855
  283MOL0     H39003  10.228   5.634   1.418 -0.1704  2.2899 -1.1238
  283MOL0     H39004  10.023   5.710   1.291 -1.6221 -0.9442 -1.4758
  283MOL0     H39005  10.019   5.689   1.112  0.0785  0.4789 -1.7520
  283MOL0     H39006  10.037   5.924   1.158  1.3519  1.5026 -0.7471
  283MOL0     H39007  10.185   5.897   1.246 -1.3456  0.8135  0.9757
  283MOL0     H39008  10.252   5.963   1.019 -0.7309  0.1740 -1.6797
  283MOL0     H39009  10.291   5.798   1.033 -0.5695 -0.7108  3.3417
  283MOL0     H39010  10.129   5.731   0.867 -1.0422 -0.1671 -3.0156
  283MOL0     H39011  10.012   5.846   0.948  1.9246  2.2192  4.7077
  283MOL0     H39012   9.882   5.814   0.772 -0.1053 -0.8362  0.4742
  283MOL0     H39013   9.663   5.759   0.571 -1.1220 -1.6307 -2.7212
  283MOL0     H39014   9.723   5.658   0.706 -1.4049 -0.0032 -0.8026
  283MOL0     H39015   9.711   5.594   0.544  2.7970 -1.5152  1.5131
  283MOL0     H39016   9.787   5.465   0.185 -2.8247  2.1803 -1.0886
  283MOL0     H39017   9.732   5.360  -0.016  1.0655 -1.5689 -0.5481
  283MOL0     H39018   9.716   5.274  -0.205  0.1902  0.1007  0.0032
  283MOL0     H39019   9.665   5.427  -0.278 -0.4362 -0.9050 -1.6845
  283MOL0     H39020   9.630   5.289  -0.436 -0.0351 -1.1992 -1.2653
  283MOL0     H39021   9.768   5.381  -0.485 -2.0292 -0.8333 -1.7986
  283MOL0     H39022   9.796   5.089  -0.368 -3.5238 -1.5623  0.7991
  283MOL0     H39023   9.920   5.187  -0.437  0.5166  1.3760 -2.3776
  283MOL0     H39024   9.780   5.193  -0.664 -1.9345  1.0312  0.0387
  283MOL0     H39025   9.676   5.081  -0.585 -1.2365  3.2897 -2.8970
  283MOL0     H39026   9.970   5.040  -0.631 -0.1925 -1.7328 -1.1351
  283MOL0     H39027   9.876   4.918  -0.557  0.0628 -2.0785 -2.4613
  283MOL0     H39028   9.855   5.038  -0.832  0.0048  0.5432  0.7130
  283MOL0     H39029   9.725   4.920  -0.777 -0.2794  1.0117 -3.3804
  283MOL0     H39030   9.910   4.759  -0.742 -1.3432 -1.8000 -1.6031
  283MOL0     H39031  10.032   4.865  -0.808 -0.5002  0.9194  0.3739
  283MOL0     H39032   9.966   4.693  -0.976 -2.0818 -1.4515 -0.4503
  283MOL0     H39033   9.932   4.854  -1.028 -0.2384  0.9680  0.6427
  283MOL0     H39034  10.057   5.577  -0.206 -1.6632 -3.3929 -1.0192
  283MOL0     H39035  10.114   5.680   0.006 -0.6500  0.0534 -1.2029
  283MOL0     H39036  10.116   5.833   0.347 -1.2310 -1.1575 -0.2690
  283MOL0     H39037  10.212   5.940   0.552 -2.2385  5.1138  3.2996
  283MOL0     H39038  10.967   4.897   1.470 -0.3525  1.7470 -0.5831
  283MOL0     H39039  10.997   4.681   1.448  0.3222 -2.3215  1.0265
  283MOL0     H39040  10.971   4.298   1.825  1.4502 -0.8865  0.8041
  283MOL0     H39041  11.046   4.061   1.859  0.5775 -3.2613 -0.6615
  283MOL0     H39042  10.812   3.794   1.786 -2.5263 -0.4216 -1.5625
  283MOL0     H39043  10.850   3.713   1.639 -0.9483  2.0210  0.1106
  283MOL0     H39044  10.878   3.574   1.831  1.0993 -0.5959  1.6857
  283MOL0     H39045  10.993   3.688   1.898  1.0466  0.3490 -0.2093
  283MOL0     H39046  11.030   3.555   1.635 -1.1832  1.3354 -0.1651
  283MOL0     H39047  11.152   3.648   1.728  0.4426 -0.5613 -2.0175
  283MOL0     H39048  11.017   3.388   1.814  1.3905 -3.9280  0.3576
  283MOL0     H39049  11.130   3.472   1.920 -2.4649 -0.3033  0.0671
  283MOL0     H39050  11.363   3.300   1.602 -1.4483  1.0352 -2.0971
  283MOL0     H39051  10.830   3.949   1.496  0.9133 -1.3578  0.6817
  283MOL0     H39052  10.606   4.231   1.515  0.4005  0.2462  0.7203
  283MOL0     H39053  10.720   4.252   1.391 -0.3590 -1.3602 -0.8834
  283MOL0     H39054  10.654   4.093   1.418  0.3697 -0.2020 -0.0603
  284MOL0     O39055   8.713  11.069   2.001 -0.5961 -0.8805  0.3802
  284MOL0     C39056   8.834  11.088   2.010  0.2996 -0.4311  0.2089
  284MOL0     O39057   8.893  11.211   2.010 -0.3474 -0.5288  0.1279
  284MOL0     C39058   8.825  11.317   1.962  0.1248  0.3792  0.0290
  284MOL0     C39059   8.848  11.362   1.833  0.2912 -0.3470  0.2184
  284MOL0     C39060   8.779  11.483   1.795 -0.2980 -0.2487  0.1723
  284MOL0     C39061   8.705  11.563   1.888 -0.4915  0.6521 -0.2491
  284MOL0     O39062   8.638  11.679   1.858 -0.4887  0.8265 -0.5220
  284MOL0     C39063   8.645  11.729   1.718 -0.3159  0.1463  0.6115
  284MOL0     C39064   8.567  11.862   1.697 -0.1012 -0.7432  0.1412
  284MOL0     C39065   8.589  11.929   1.552 -0.5559  0.6709 -0.1423
  284MOL0     C39066   8.465  11.883   1.467 -0.0654  0.0991 -0.2001
  284MOL0     C39067   8.465  11.958   1.322 -0.0748 -0.3418  1.2841
  284MOL0     C39068   8.429  12.108   1.327 -0.6125 -0.0541 -0.4668
  284MOL0     C39069   8.474  12.184   1.203  0.4002 -0.4536  0.0492
  284MOL0     C39070   8.634  12.195   1.214  0.7475  0.9265 -0.0842
  284MOL0     N39071   8.691  12.299   1.124  1.0352 -0.5717 -0.0401
  284MOL0     C39072   8.665  12.436   1.151 -0.1168  0.0729  0.6284
  284MOL0     C39073   8.764  12.503   1.085 -0.1522 -0.2593 -0.8575
  284MOL0     C39074   8.796  12.651   1.076 -0.8822 -0.3627  0.3393
  284MOL0     C39075   8.693  12.760   1.112 -0.1400  0.4394 -0.0512
  284MOL0     C39076   8.687  12.857   1.005  0.0968  0.1550  0.3311
  284MOL0     C39077   8.558  12.949   1.021 -0.2750 -0.1372  0.0016
  284MOL0     O39078   8.569  13.053   0.925  0.0047 -0.2426  0.6251
  284MOL0     C39079   8.518  13.176   0.972 -0.1322 -0.2307  0.0976
  284MOL0     C39080   8.415  13.188   1.072  0.1962 -0.7595  0.3957
  284MOL0     C39081   8.367  13.307   1.125 -0.2074  0.4677 -0.2434
  284MOL0     C39082   8.267  13.292   1.241 -0.3108 -0.2962  0.4690
  284MOL0     C39083   8.412  13.427   1.062 -0.2433  1.0266 -0.8375
  284MOL0     C39084   8.380  13.562   1.109  0.4697 -0.0013 -0.5214
  284MOL0     O39085   8.398  13.667   1.027  0.2536  0.1443  0.0030
  284MOL0     C39086   8.333  13.792   1.052 -1.1699 -0.3106 -0.8106
  284MOL0     C39087   8.417  13.894   1.082  0.3850  0.9509  0.3044
  284MOL0     C39088   8.377  14.021   1.106 -0.5907 -0.1499 -1.1036
  284MOL0     C39089   8.246  14.048   1.093 -1.0681  0.0369  1.0769
  284MOL0     O39090   8.209  14.171   1.132  0.2460  0.4873  0.3237
  284MOL0     C39091   8.071  14.226   1.137  0.1036 -0.1037 -0.0051
  284MOL0     C39092   8.052  14.361   1.210 -0.0569 -0.5517 -0.1890
  284MOL0     C39093   7.902  14.381   1.260  0.8316 -0.5721 -0.1521
  284MOL0     C39094   7.853  14.265   1.346 -0.4708 -0.0864  0.1900
  284MOL0     C39095   7.739  14.305   1.439  0.3132  0.7056 -0.2126
  284MOL0     C39096   7.626  14.374   1.361  0.7518  0.5098 -0.1015
  284MOL0     C39097   7.501  14.392   1.450  0.2448 -0.2039  0.6765
  284MOL0     C39098   7.409  14.500   1.383  0.2652 -0.0536  0.0520
  284MOL0    Cl39099   7.290  14.540   1.509  0.0172  0.3334  0.4478
  284MOL0     C39100   8.159  13.943   1.060  0.9064  0.0523 -0.7227
  284MOL0     C39101   8.202  13.820   1.034  0.1355  0.6422 -0.2106
  284MOL0     O39102   8.350  13.574   1.226  0.2980 -0.4191  0.2092
  284MOL0     C39103   8.512  13.416   0.961 -0.0498 -0.2384  0.9125
  284MOL0     C39104   8.564  13.292   0.913  0.0538 -0.2092  0.7185
  284MOL0     N39105   8.844  12.411   1.018 -0.5337  0.2524 -0.3004
  284MOL0     N39106   8.789  12.286   1.033  0.6681 -1.1443  0.3712
  284MOL0     C39107   8.702  11.517   2.015 -0.4679  0.3441 -0.0402
  284MOL0     C39108   8.757  11.400   2.058 -0.0829 -0.5809  0.9299
  284MOL0     C39109   8.926  10.977   2.016  0.4917  0.1069 -0.4078
  284MOL0     C39110   9.030  10.973   1.927  0.0473  0.8698  0.7384
  284MOL0     C39111   9.110  10.863   1.933  0.0966 -0.0250 -0.6362
  284MOL0     C39112   9.110  10.771   2.041 -0.0999 -0.3636 -0.7010
  284MOL0     O39113   9.213  10.674   2.037  0.1416 -0.2995 -0.0279
  284MOL0     C39114   9.261  10.631   2.164  0.1779  0.8166  0.1278
  284MOL0     C39115   9.299  10.487   2.149 -0.2174 -0.3174 -0.1041
  284MOL0     C39116   9.272  10.407   2.271 -0.4201  0.7460 -0.7293
  284MOL0     C39117   9.366  10.441   2.387  0.2726  0.3526  0.0248
  284MOL0     C39118   9.344  10.336   2.486 -0.2869  0.5560  0.0092
  284MOL0     C39119   9.306  10.242   2.558 -1.2288  0.1092  0.1895
  284MOL0     C39120   9.005  10.772   2.137  0.5526 -0.3642 -0.2223
  284MOL0     C39121   8.908  10.870   2.114 -0.7088  0.1713  0.2429
  284MOL0     C39122   8.787  10.861   2.214 -0.7487 -1.0188  0.7482
  284MOL0     H39123   8.916  11.306   1.769  0.9144 -1.1338  1.5336
  284MOL0     H39124   8.781  11.518   1.692 -3.9709  1.2628  0.4721
  284MOL0     H39125   8.601  11.653   1.652 -0.5241  1.4368 -0.7988
  284MOL0     H39126   8.750  11.735   1.686  0.6521 -1.3600  3.1835
  284MOL0     H39127   8.464  11.856   1.733  0.0751 -1.1393  0.5841
  284MOL0     H39128   8.621  11.912   1.779  0.3374 -3.0824  1.3868
  284MOL0     H39129   8.591  12.038   1.557 -0.7760  0.6587  0.3003
  284MOL0     H39130   8.689  11.893   1.527 -0.0272  0.7453  1.7034
  284MOL0     H39131   8.472  11.774   1.452 -0.6053  0.3615 -2.8689
  284MOL0     H39132   8.372  11.906   1.519 -0.8403  1.3773 -2.0435
  284MOL0     H39133   8.394  11.897   1.266  3.0539 -3.6259  0.5376
  284MOL0     H39134   8.568  11.946   1.285  0.5953  1.2935  2.4622
  284MOL0     H39135   8.320  12.120   1.329 -0.7144 -0.9705  1.3648
  284MOL0     H39136   8.456  12.157   1.420 -3.9065 -0.2114  0.7108
  284MOL0     H39137   8.426  12.282   1.207  1.5476  0.2253 -1.6285
  284MOL0     H39138   8.443  12.139   1.108 -0.2468  1.3574 -0.6483
  284MOL0     H39139   8.658  12.206   1.321 -0.5320  2.5896  0.0775
  284MOL0     H39140   8.667  12.095   1.186 -0.3548  0.1877  1.1343
  284MOL0     H39141   8.595  12.480   1.221 -0.6324 -2.0182  1.4970
  284MOL0     H39142   8.831  12.666   0.974  0.7964  0.4520  1.0111
  284MOL0     H39143   8.884  12.653   1.140  0.9814 -4.1271 -1.7603
  284MOL0     H39144   8.589  12.733   1.134 -0.8897  2.5181 -0.8713
  284MOL0     H39145   8.739  12.814   1.194 -1.5990 -1.3849  2.0790
  284MOL0     H39146   8.782  12.912   1.008 -0.0133  0.3172  1.6185
  284MOL0     H39147   8.674  12.808   0.908 -1.2733 -0.3423  0.7499
  284MOL0     H39148   8.466  12.891   1.015  0.2806 -0.9668 -0.8195
  284MOL0     H39149   8.556  12.983   1.125  2.9996 -3.8173  1.5096
  284MOL0     H39150   8.363  13.100   1.110 -1.4325  1.1858  2.9978
  284MOL0     H39151   8.328  13.269   1.328  3.7226  0.5828 -1.8608
  284MOL0     H39152   8.189  13.220   1.214 -2.3339  2.4827 -1.7449
  284MOL0     H39153   8.214  13.386   1.260 -0.0171 -0.3541  1.6112
  284MOL0     H39154   8.523  13.871   1.088 -0.2910 -2.4702  0.8605
  284MOL0     H39155   8.458  14.089   1.133 -0.8821  0.0231 -0.6659
  284MOL0     H39156   8.018  14.233   1.042  0.1992  0.1363 -0.0410
  284MOL0     H39157   8.015  14.151   1.193 -1.4241  0.5894 -0.5497
  284MOL0     H39158   8.113  14.378   1.299  1.1049 -1.4217 -0.8015
  284MOL0     H39159   8.079  14.433   1.133 -3.5129 -0.2674 -1.3333
  284MOL0     H39160   7.828  14.378   1.179 -0.2299 -4.1645  0.7569
  284MOL0     H39161   7.896  14.478   1.311 -1.5042  0.7967 -2.7572
  284MOL0     H39162   7.935  14.240   1.415 -0.2865 -0.4467 -0.1552
  284MOL0     H39163   7.828  14.195   1.266  1.2274  1.7661 -2.1074
  284MOL0     H39164   7.700  14.215   1.487  3.9460 -1.6824 -1.3648
  284MOL0     H39165   7.784  14.371   1.514  0.5971  1.2253 -0.8346
  284MOL0     H39166   7.602  14.313   1.273  0.9933  1.4430 -0.8423
  284MOL0     H39167   7.659  14.473   1.328  0.7945  0.1842 -1.0802
  284MOL0     H39168   7.542  14.404   1.551 -1.9566 -0.6599  1.7027
  284MOL0     H39169   7.443  14.299   1.450 -0.8857  0.4684 -0.2282
  284MOL0     H39170   7.362  14.459   1.293 -0.9998  1.1293  0.1421
  284MOL0     H39171   7.453  14.591   1.343 -1.1397  0.7081  0.1844
  284MOL0     H39172   8.054  13.968   1.050  0.6257 -1.9227 -3.8796
  284MOL0     H39173   8.129  13.743   1.008  0.8282 -0.4449  0.9227
  284MOL0     H39174   8.558  13.502   0.913  1.2956 -0.2956  2.0368
  284MOL0     H39175   8.640  13.280   0.837  0.0232 -2.5427  0.9640
  284MOL0     H39176   8.659  11.591   2.082  0.0045  1.4413 -0.9184
  284MOL0     H39177   8.764  11.352   2.155 -0.4515  0.1342  1.3178
  284MOL0     H39178   9.036  11.056   1.857  1.1838  1.9563  2.0760
  284MOL0     H39179   9.200  10.861   1.872  0.9842 -0.6594  0.6518
  284MOL0     H39180   9.347  10.693   2.193 -0.0077  1.0681  0.1436
  284MOL0     H39181   9.191  10.640   2.247 -2.0340  0.3226 -1.6126
  284MOL0     H39182   9.401  10.483   2.111 -1.2389 -1.9403 -3.0079
  284MOL0     H39183   9.244  10.441   2.066 -1.1131 -1.1308  0.9052
  284MOL0     H39184   9.167  10.401   2.302 -1.4317  2.5685 -3.4673
  284MOL0     H39185   9.278  10.299   2.252 -0.4826  0.2774  1.5413
  284MOL0     H39186   9.359  10.537   2.438  1.4732 -1.2783  3.5753
  284MOL0     H39187   9.465  10.418   2.347 -0.5220 -0.9145 -1.3388
  284MOL0     H39188   9.279  10.154   2.613  1.0089  0.3254  1.7665
  284MOL0     H39189   8.987  10.703   2.218  2.1927 -0.7665 -0.1780
  284MOL0     H39190   8.785  10.765   2.267 -1.0288 -1.9351 -0.8494
  284MOL0     H39191   8.800  10.950   2.276  2.3525  1.2612 -2.7404
  284MOL0     H39192   8.700  10.863   2.148 -0.5494  0.5235  0.4996
  285MOL0     O39193  11.127   6.004   2.976 -0.7504 -0.0911  0.3496
  285MOL0     C39194  11.141   5.953   2.868  0.1969 -0.3346 -0.6181
  285MOL0     O39195  11.256   5.944   2.803 -0.2196  0.1891  0.1944
  285MOL0     C39196  11.371   5.989   2.857  0.5609  0.0853 -0.0786
  285MOL0     C39197  11.440   5.886   2.909 -0.0516  0.6646  0.1389
  285MOL0     C39198  11.561   5.918   2.974 -0.7814 -0.1630 -0.1718
  285MOL0     C39199  11.602   6.054   2.989 -0.3933 -0.0038 -0.0095
  285MOL0     O39200  11.706   6.106   3.057  0.6653 -0.0949  0.0738
  285MOL0     C39201  11.828   6.028   3.071 -0.4333  0.1024 -0.4975
  285MOL0     C39202  11.945   6.114   3.102 -0.3713  0.2141  0.4607
  285MOL0     C39203  12.013   6.185   3.000  0.1252 -0.2016  0.0247
  285MOL0     C39204  12.080   6.312   3.054  0.4505 -0.0981 -0.7255
  285MOL0     C39205  12.105   6.413   2.941  0.1730  0.7275 -0.0704
  285MOL0     C39206  12.144   6.551   2.984  0.0600 -0.7115 -0.2759
  285MOL0     C39207  12.149   6.645   2.857 -0.3196 -0.1276  0.7079
  285MOL0     C39208  12.160   6.791   2.908  0.6572 -1.3662  0.1148
  285MOL0     N39209  12.034   6.852   2.941  0.1654 -0.8546 -0.7487
  285MOL0     C39210  11.930   6.859   2.858 -0.0654  0.4729 -0.7069
  285MOL0     C39211  11.819   6.919   2.913 -0.1127  1.0100  0.2220
  285MOL0     C39212  11.682   6.943   2.848  0.5681  0.0134  0.1916
  285MOL0     C39213  11.670   7.076   2.777 -0.5345 -0.0268  0.7604
  285MOL0     C39214  11.783   7.120   2.681  0.1022  1.1401 -0.3338
  285MOL0     C39215  11.742   7.244   2.601 -0.0697 -0.3169 -0.1481
  285MOL0     O39216  11.721   7.357   2.682  0.7323 -0.4668  0.2422
  285MOL0     C39217  11.747   7.482   2.636 -0.3072 -0.0492 -0.2597
  285MOL0     C39218  11.820   7.566   2.720 -0.6727  0.6993  0.0238
  285MOL0     C39219  11.876   7.687   2.665  0.0195 -0.3297  0.1166
  285MOL0     C39220  11.945   7.793   2.752  0.8978 -0.6142  0.7961
  285MOL0     C39221  11.842   7.723   2.526 -0.2242 -0.3987 -0.9715
  285MOL0     C39222  11.902   7.842   2.470  0.2359  0.0261  0.5251
  285MOL0     O39223  11.839   7.909   2.376  0.2127 -0.0572 -0.0114
  285MOL0     C39224  11.902   8.011   2.309  1.6009 -0.2901 -0.2416
  285MOL0     C39225  11.845   8.036   2.190  0.1638  0.5593 -0.5550
  285MOL0     C39226  11.905   8.123   2.088  1.0313 -0.1565 -0.8035
  285MOL0     C39227  12.018   8.206   2.125 -0.9182 -0.0363  0.0695
  285MOL0     O39228  12.082   8.304   2.063  0.3807 -0.1764 -1.0878
  285MOL0     C39229  12.099   8.293   1.925 -0.7026 -0.9996  0.6517
  285MOL0     C39230  12.220   8.365   1.867  0.5147 -0.2285 -0.2020
  285MOL0     C39231  12.184   8.515   1.845  1.4058  0.4312  0.1872
  285MOL0     C39232  12.269   8.599   1.747  0.2874 -0.4613  0.1881
  285MOL0     C39233  12.251   8.747   1.751 -0.4142 -1.2379  0.2939
  285MOL0     C39234  12.331   8.804   1.877 -0.1489 -0.6198 -0.5461
  285MOL0     C39235  12.308   8.956   1.870 -1.1573 -0.1433 -0.3437
  285MOL0     C39236  12.427   9.032   1.935  0.5728 -0.0122 -0.5259
  285MOL0    Cl39237  12.401   9.215   1.934 -0.3275  0.3799  0.0811
  285MOL0     C39238  12.069   8.181   2.253 -0.2641 -0.1158  0.2802
  285MOL0     C39239  12.008   8.089   2.344  0.1761  0.8162  1.3105
  285MOL0     O39240  12.023   7.846   2.489 -0.0820 -0.0343 -0.0387
  285MOL0     C39241  11.762   7.645   2.456  0.3341  0.5092 -0.1920
  285MOL0     C39242  11.718   7.520   2.504  0.1311  0.4929 -0.6430
  285MOL0     N39243  11.861   6.947   3.045  0.0523 -0.5992 -0.6885
  285MOL0     N39244  11.989   6.913   3.058  0.3359 -0.0771 -0.2580
  285MOL0     C39245  11.519   6.157   2.930 -0.2672  0.2536 -0.2498
  285MOL0     C39246  11.411   6.122   2.854 -0.7954 -0.2344 -0.1517
  285MOL0     C39247  11.020   5.918   2.792 -0.6151  1.0194  0.6494
  285MOL0     C39248  11.026   5.919   2.649  0.6606  0.8783  0.3362
  285MOL0     C39249  10.928   5.878   2.561  0.3549 -0.5465  0.2549
  285MOL0     C39250  10.821   5.812   2.627 -0.3387 -0.2566 -0.5960
  285MOL0     O39251  10.706   5.759   2.564 -0.4203 -0.2142 -0.4216
  285MOL0     C39252  10.709   5.732   2.427 -0.0912  0.3935 -0.2153
  285MOL0     C39253  10.574   5.682   2.394  0.2964 -0.3247 -0.1639
  285MOL0     C39254  10.573   5.626   2.260 -0.3706 -0.4504  0.1667
  285MOL0     C39255  10.437   5.563   2.221  0.2049 -1.0938  0.9639
  285MOL0     C39256  10.456   5.504   2.091 -0.0834 -0.3564  0.4719
  285MOL0     C39257  10.491   5.452   1.982  0.3886 -0.7046 -0.1234
  285MOL0     C39258  10.810   5.798   2.765 -0.1993  0.1651 -0.1000
  285MOL0     C39259  10.912   5.857   2.845  0.4854  0.2890  0.6631
  285MOL0     C39260  10.877   5.846   2.997 -0.2158 -0.3883  0.2117
  285MOL0     H39261  11.395   5.787   2.908 -0.2399  0.7161  1.4278
  285MOL0     H39262  11.622   5.836   3.009 -1.2944 -0.7576 -0.6627
  285MOL0     H39263  11.849   5.975   2.978  1.4622  1.5727 -0.9660
  285MOL0     H39264  11.807   5.951   3.147  0.9562 -0.7010 -0.8933
  285MOL0     H39265  11.913   6.189   3.176  0.9536  1.1262  0.1631
  285MOL0     H39266  12.022   6.046   3.139 -1.5910 -1.4354  0.0331
  285MOL0     H39267  12.090   6.119   2.959 -0.5284 -0.5419 -0.6803
  285MOL0     H39268  11.941   6.208   2.921 -2.7054  0.4168  2.5592
  285MOL0     H39269  12.001   6.359   3.113 -0.6214 -0.2240 -2.0173
  285MOL0     H39270  12.173   6.293   3.110  0.5833  2.0273 -0.1359
  285MOL0     H39271  12.015   6.430   2.881  1.1182  2.9322 -0.9816
  285MOL0     H39272  12.186   6.381   2.874 -1.7574  2.6043 -3.6110
  285MOL0     H39273  12.065   6.595   3.044  1.0448  0.6500  0.0638
  285MOL0     H39274  12.243   6.558   3.032 -1.4867 -1.5097  3.4157
  285MOL0     H39275  12.055   6.633   2.803  1.1688 -0.9303 -1.9019
  285MOL0     H39276  12.229   6.626   2.784 -0.1720  2.8580 -0.0518
  285MOL0     H39277  12.222   6.803   2.997 -0.2748 -0.2477  0.6307
  285MOL0     H39278  12.215   6.856   2.839  0.5079 -0.9662  0.3678
  285MOL0     H39279  11.925   6.828   2.754 -1.9434 -3.1079  0.2536
  285MOL0     H39280  11.600   6.931   2.919 -1.9535 -2.1201 -2.8193
  285MOL0     H39281  11.671   6.857   2.781 -2.8927  1.5000 -1.3435
  285MOL0     H39282  11.584   7.064   2.710  0.4916 -0.5647 -0.5088
  285MOL0     H39283  11.659   7.162   2.844  2.9089  0.0612  1.4221
  285MOL0     H39284  11.877   7.125   2.737 -0.6844 -0.9101  1.2818
  285MOL0     H39285  11.793   7.043   2.604 -2.4665  0.5913 -0.2057
  285MOL0     H39286  11.821   7.274   2.531 -2.0275  1.3167 -1.8058
  285MOL0     H39287  11.653   7.226   2.540 -2.8964  1.4468  3.0963
  285MOL0     H39288  11.845   7.536   2.821 -0.3404 -0.4006 -0.3721
  285MOL0     H39289  11.909   7.797   2.856 -1.3143 -0.1142  0.0706
  285MOL0     H39290  11.926   7.893   2.712 -0.0681 -2.3271 -3.5343
  285MOL0     H39291  12.052   7.773   2.761  1.4639  2.1822  1.3291
  285MOL0     H39292  11.762   7.977   2.154 -0.9597  0.2865  2.2446
  285MOL0     H39293  11.860   8.134   1.990  0.0364 -2.8421 -0.7118
  285MOL0     H39294  12.107   8.186   1.906 -2.7544 -1.0260 -0.3687
  285MOL0     H39295  12.004   8.327   1.881 -1.2979 -3.9155 -0.5387
  285MOL0     H39296  12.318   8.365   1.917 -0.4952  1.2274  1.9419
  285MOL0     H39297  12.238   8.320   1.769  2.5243  1.0041 -0.4666
  285MOL0     H39298  12.174   8.570   1.939 -5.2821 -0.2020  0.2780
  285MOL0     H39299  12.078   8.517   1.818  1.5719 -1.7061 -0.8680
  285MOL0     H39300  12.255   8.577   1.641 -1.3446  2.0356 -0.2064
  285MOL0     H39301  12.371   8.561   1.757  0.0135 -1.5895 -0.9983
  285MOL0     H39302  12.313   8.786   1.670 -0.3656  0.4748  1.1120
  285MOL0     H39303  12.147   8.777   1.736  0.0916  1.2901  1.3187
  285MOL0     H39304  12.438   8.784   1.872  0.1850  1.2652 -1.8822
  285MOL0     H39305  12.278   8.769   1.966 -1.8477  1.7101 -0.5299
  285MOL0     H39306  12.210   8.991   1.902 -0.9880 -0.7038  0.8400
  285MOL0     H39307  12.312   8.993   1.767 -0.1902  2.5336  0.5896
  285MOL0     H39308  12.520   9.014   1.881 -0.5534  2.1479 -3.4855
  285MOL0     H39309  12.429   9.012   2.042 -1.1319  2.9723  0.2007
  285MOL0     H39310  12.152   8.241   2.291  2.0541 -1.5659 -2.1174
  285MOL0     H39311  12.067   8.082   2.435  0.4892  2.2975  1.2365
  285MOL0     H39312  11.716   7.677   2.363 -1.5559 -1.3890  0.0135
  285MOL0     H39313  11.671   7.461   2.427  5.3520  2.2251 -5.8545
  285MOL0     H39314  11.555   6.259   2.937  0.5326 -0.0507  0.2382
  285MOL0     H39315  11.355   6.206   2.814  2.7111  3.0297  1.1932
  285MOL0     H39316  11.118   5.963   2.611  0.9813 -0.9333 -1.1143
  285MOL0     H39317  10.939   5.893   2.454 -1.5102 -0.4582  0.0272
  285MOL0     H39318  10.732   5.824   2.373  1.1511  0.0413 -0.3247
  285MOL0     H39319  10.786   5.659   2.399 -2.8180 -2.6255 -0.5641
  285MOL0     H39320  10.499   5.761   2.407 -0.5601 -1.3590  1.5708
  285MOL0     H39321  10.557   5.606   2.471  1.7105 -0.0593  0.4471
  285MOL0     H39322  10.608   5.701   2.189  0.7182 -0.2944  0.8449
  285MOL0     H39323  10.650   5.550   2.243  1.9772  1.0427  3.1621
  285MOL0     H39324  10.372   5.650   2.209  1.3260 -0.2002  1.1461
  285MOL0     H39325  10.393   5.491   2.291 -1.2935 -0.4073  0.7598
  285MOL0     H39326  10.536   5.381   1.916 -1.5664 -0.9136 -1.2969
  285MOL0     H39327  10.719   5.766   2.813  0.9552 -1.3030  1.1889
  285MOL0     H39328  10.970   5.817   3.047  0.1066  1.9493  1.1330
  285MOL0     H39329  10.859   5.945   3.040  1.3980  0.0767 -0.1219
  285MOL0     H39330  10.789   5.786   3.023 -0.3140 -1.0378 -1.5022
  286MOL0     O39331   8.976   6.374   3.281  0.0949 -0.2498 -0.4985
  286MOL0     C39332   9.092   6.344   3.256  0.5481  0.2701 -0.6854
  286MOL0     O39333   9.157   6.225   3.280 -0.4306  0.0901  0.1066
  286MOL0     C39334   9.081   6.121   3.333 -0.5898  0.1891  1.8130
  286MOL0     C39335   9.150   6.021   3.405 -0.7333 -0.4683 -0.4507
  286MOL0     C39336   9.083   5.918   3.469  0.2614 -0.0566  0.7039
  286MOL0     C39337   8.945   5.898   3.448 -0.3432  0.1300  0.1686
  286MOL0     O39338   8.877   5.785   3.479  0.5066 -0.2672  0.0675
  286MOL0     C39339   8.929   5.684   3.561 -0.1668 -0.0583  0.5011
  286MOL0     C39340   8.828   5.577   3.560  0.2990 -0.6953  0.3749
  286MOL0     C39341   8.870   5.446   3.637 -0.3168 -0.1909  0.5099
  286MOL0     C39342   8.858   5.423   3.787 -0.2046 -0.3124  0.0609
  286MOL0     C39343   8.719   5.435   3.840 -1.5459  1.3052  0.3323
  286MOL0     C39344   8.691   5.556   3.933 -0.4352 -0.6907  0.6652
  286MOL0     C39345   8.726   5.688   3.859  0.7240 -1.2842 -0.1560
  286MOL0     C39346   8.723   5.799   3.956 -0.8601  0.5720 -0.2114
  286MOL0     N39347   8.781   5.924   3.907 -0.3305  0.1214 -0.4393
  286MOL0     C39348   8.773   5.980   3.783 -0.9378 -0.0722  0.1734
  286MOL0     C39349   8.853   6.096   3.792  0.1796 -0.2364 -0.0499
  286MOL0     C39350   8.870   6.206   3.686  0.2713 -0.0142 -0.0063
  286MOL0     C39351   8.738   6.285   3.679  0.2042  0.2316 -0.5971
  286MOL0     C39352   8.760   6.435   3.702 -0.4142  0.3715 -1.0370
  286MOL0     C39353   8.787   6.506   3.569 -0.0420  0.8434 -0.2168
  286MOL0     O39354   8.673   6.518   3.489  0.1840 -0.5385  0.2547
  286MOL0     C39355   8.675   6.619   3.400 -0.5022  0.2086  0.5863
  286MOL0     C39356   8.781   6.697   3.357 -1.1747  0.3482 -0.0436
  286MOL0     C39357   8.768   6.800   3.265  0.3513 -0.3000  0.0083
  286MOL0     C39358   8.903   6.858   3.223  0.3393 -0.7310 -0.1485
  286MOL0     C39359   8.640   6.840   3.217 -0.2852 -0.7295 -0.4233
  286MOL0     C39360   8.602   6.946   3.114  0.2753  0.4111 -0.4383
  286MOL0     O39361   8.709   7.015   3.062 -0.1843 -0.3156 -0.3245
  286MOL0     C39362   8.701   7.123   2.982  0.2771  0.2407  0.1836
  286MOL0     C39363   8.755   7.246   3.024 -0.0215  0.4036  0.2677
  286MOL0     C39364   8.748   7.350   2.941 -0.1043 -0.3264 -0.4128
  286MOL0     C39365   8.699   7.348   2.820  0.5273 -0.5926  0.1327
  286MOL0     O39366   8.715   7.463   2.741 -0.3734  0.0555 -0.1066
  286MOL0     C39367   8.721   7.435   2.602  0.4962  1.0201  0.2323
  286MOL0     C39368   8.787   7.546   2.518  0.2972  0.7176 -0.1743
  286MOL0     C39369   8.882   7.501   2.413 -0.6586 -1.1548  0.3289
  286MOL0     C39370   8.918   7.625   2.323 -0.8215 -0.3778  0.6400
  286MOL0     C39371   8.998   7.570   2.210 -0.0087  1.1460  0.2104
  286MOL0     C39372   8.918   7.552   2.073  0.5785  0.0182  0.1396
  286MOL0     C39373   9.010   7.481   1.980  0.6192  0.1650 -0.1752
  286MOL0     C39374   8.945   7.481   1.834  0.4737  0.4802 -0.0355
  286MOL0    Cl39375   8.766   7.434   1.842  0.4067 -0.0868  0.3254
  286MOL0     C39376   8.629   7.229   2.774  0.2680 -0.5567 -0.0848
  286MOL0     C39377   8.624   7.122   2.861  0.8433 -1.3378 -0.0166
  286MOL0     O39378   8.485   6.955   3.083  0.4786  0.1635 -0.4134
  286MOL0     C39379   8.532   6.753   3.259  0.8413 -0.4833  1.0975
  286MOL0     C39380   8.552   6.648   3.354  0.2147 -0.3762 -0.3336
  286MOL0     N39381   8.906   6.107   3.920 -0.1624 -0.4935  0.7401
  286MOL0     N39382   8.863   6.005   3.988  0.5470 -0.5310 -0.0666
  286MOL0     C39383   8.883   5.985   3.362  0.9479 -1.3946 -0.0381
  286MOL0     C39384   8.937   6.104   3.304 -0.1542  1.0143 -0.8392
  286MOL0     C39385   9.173   6.459   3.207  0.0127 -0.9353 -0.4407
  286MOL0     C39386   9.197   6.569   3.292 -0.9596 -0.2118  0.3160
  286MOL0     C39387   9.259   6.692   3.245  0.4974  0.2913  0.2919
  286MOL0     C39388   9.286   6.709   3.106  0.0422 -0.6816 -0.3152
  286MOL0     O39389   9.337   6.825   3.052 -0.6083 -0.2293 -0.1879
  286MOL0     C39390   9.350   6.954   3.115  0.2120 -0.4470 -0.4963
  286MOL0     C39391   9.231   7.040   3.076  0.8567 -0.1833  0.9785
  286MOL0     C39392   9.268   7.187   3.121 -0.3089 -0.2511  0.5189
  286MOL0     C39393   9.144   7.280   3.122 -0.9825 -0.0187 -0.2315
  286MOL0     C39394   9.117   7.322   2.986  0.0814 -0.6924 -0.4918
  286MOL0     C39395   9.077   7.348   2.874  0.0974 -1.1500  0.5422
  286MOL0     C39396   9.263   6.600   3.017 -0.0593  0.3055 -0.1459
  286MOL0     C39397   9.217   6.473   3.071 -0.6519  0.2763 -0.8490
  286MOL0     C39398   9.176   6.362   2.980  0.1875 -0.2522  0.1835
  286MOL0     H39399   9.255   6.032   3.432 -0.7160  2.0703 -1.3237
  286MOL0     H39400   9.134   5.842   3.527 -0.2833  0.3721  1.7879
  286MOL0     H39401   8.923   5.729   3.661 -3.1511  1.7338 -0.3727
  286MOL0     H39402   9.028   5.649   3.528 -0.7353 -1.6206  0.3603
  286MOL0     H39403   8.726   5.598   3.594 -0.5054 -2.1664 -0.9954
  286MOL0     H39404   8.819   5.557   3.453 -0.6423  2.5986 -0.2761
  286MOL0     H39405   8.814   5.373   3.577  0.4788  2.5964 -4.1595
  286MOL0     H39406   8.976   5.430   3.613  0.5616  1.2188  3.0661
  286MOL0     H39407   8.898   5.321   3.795 -2.9832 -1.7967 -2.6591
  286MOL0     H39408   8.928   5.490   3.838 -0.4749 -0.2371  0.3399
  286MOL0     H39409   8.692   5.341   3.890 -0.9706  2.3688  2.7635
  286MOL0     H39410   8.651   5.454   3.756  0.0815  2.2168 -0.8380
  286MOL0     H39411   8.583   5.565   3.950 -0.3234  2.7310  0.0884
  286MOL0     H39412   8.721   5.547   4.038 -0.9564  1.8875  1.0909
  286MOL0     H39413   8.652   5.711   3.782 -1.7871  0.2890  2.5134
  286MOL0     H39414   8.830   5.677   3.828  0.9430 -2.9987  1.0408
  286MOL0     H39415   8.618   5.823   3.975 -1.3791 -0.2635 -1.8464
  286MOL0     H39416   8.787   5.770   4.040  0.3339 -0.0020 -1.2860
  286MOL0     H39417   8.705   5.948   3.705 -0.1276  0.5494 -0.8143
  286MOL0     H39418   8.899   6.168   3.588 -0.6405 -2.6565  0.6735
  286MOL0     H39419   8.952   6.277   3.700 -0.2335  1.0775 -2.0991
  286MOL0     H39420   8.674   6.268   3.592 -0.4773 -2.0548  0.2593
  286MOL0     H39421   8.682   6.258   3.769  4.2430 -2.0393  1.5459
  286MOL0     H39422   8.668   6.484   3.735 -1.5789 -1.8417 -0.7690
  286MOL0     H39423   8.836   6.440   3.780 -0.6020 -3.0330 -0.4573
  286MOL0     H39424   8.833   6.599   3.605 -0.4926  0.7230  0.7152
  286MOL0     H39425   8.869   6.443   3.533 -1.3275  0.1293 -2.0034
  286MOL0     H39426   8.883   6.672   3.382 -0.5248  0.6327 -2.1920
  286MOL0     H39427   8.962   6.847   3.314 -0.4078 -0.7930  0.3295
  286MOL0     H39428   8.902   6.966   3.205 -1.5475 -0.4372  1.4800
  286MOL0     H39429   8.959   6.810   3.142  2.1300 -2.5250  2.0091
  286MOL0     H39430   8.803   7.256   3.121  3.7975  3.5305 -1.6399
  286MOL0     H39431   8.797   7.440   2.976 -0.4728  1.2744 -3.6122
  286MOL0     H39432   8.785   7.347   2.593  0.2101  0.9611 -1.4905
  286MOL0     H39433   8.625   7.410   2.555  1.7052 -0.3279 -1.6022
  286MOL0     H39434   8.712   7.604   2.465  0.7288  2.5847  1.1649
  286MOL0     H39435   8.844   7.621   2.575 -0.0779  0.9582 -0.1167
  286MOL0     H39436   8.827   7.432   2.349 -0.4084 -1.2927  0.2630
  286MOL0     H39437   8.971   7.463   2.463  1.2050  3.2792  0.8519
  286MOL0     H39438   8.978   7.697   2.380  1.6275 -3.3577  2.1410
  286MOL0     H39439   8.836   7.680   2.277 -0.3680 -0.1923  0.0457
  286MOL0     H39440   9.079   7.637   2.179  1.3193 -0.3296  0.3600
  286MOL0     H39441   9.058   7.481   2.230  1.7659  2.1553 -0.4299
  286MOL0     H39442   8.888   7.649   2.032  2.6999  0.5218 -0.3450
  286MOL0     H39443   8.838   7.482   2.095  0.2245  0.1693 -0.6325
  286MOL0     H39444   9.034   7.377   2.001 -0.2327 -0.2467 -1.1539
  286MOL0     H39445   9.102   7.541   1.979  1.5968 -1.2847 -0.7260
  286MOL0     H39446   8.987   7.388   1.795  0.4103 -0.1709  1.3697
  286MOL0     H39447   8.958   7.560   1.760 -1.1874 -1.0651 -2.0962
  286MOL0     H39448   8.594   7.209   2.674 -1.3169 -1.5151  0.6254
  286MOL0     H39449   8.552   7.045   2.835 -2.0574  1.2567 -0.3316
  286MOL0     H39450   8.435   6.757   3.209  1.5541 -1.6049 -0.4653
  286MOL0     H39451   8.466   6.589   3.384 -1.3016  0.9376 -1.8796
  286MOL0     H39452   8.776   5.969   3.346  0.1708  2.7422 -0.2066
  286MOL0     H39453   8.893   6.161   3.223  1.2183 -1.1078 -3.2291
  286MOL0     H39454   9.172   6.555   3.397 -0.2615  0.5874  0.5982
  286MOL0     H39455   9.263   6.770   3.321  2.5801 -0.7917  1.4006
  286MOL0     H39456   9.386   6.949   3.218  1.8780  4.3309 -0.6214
  286MOL0     H39457   9.432   7.002   3.062  0.7916 -1.0134 -0.1205
  286MOL0     H39458   9.135   7.011   3.119 -0.0556 -0.7218 -1.2823
  286MOL0     H39459   9.223   7.030   2.967 -0.0643 -1.1293  1.1141
  286MOL0     H39460   9.311   7.186   3.222  0.6255 -0.7512  0.1271
  286MOL0     H39461   9.346   7.226   3.055  0.9465 -1.9556  0.9181
  286MOL0     H39462   9.172   7.368   3.182  1.0772 -0.1392 -0.9219
  286MOL0     H39463   9.057   7.225   3.157  0.1296 -1.9371 -0.3459
  286MOL0     H39464   9.036   7.363   2.776  1.8245  2.1482  0.1889
  286MOL0     H39465   9.286   6.621   2.913 -0.1242  0.6143 -0.0987
  286MOL0     H39466   9.227   6.266   2.982  0.5038 -0.3690 -4.1055
  286MOL0     H39467   9.067   6.356   2.992 -0.4976  4.5548 -1.3265
  286MOL0     H39468   9.197   6.393   2.877 -1.1144  1.0313  0.2711
  287MOL0     O39469   2.782   2.283   5.475  0.5867 -1.1598  1.1577
  287MOL0     C39470   2.890   2.235   5.472  0.0829 -0.4692 -0.3985
  287MOL0     O39471   2.940   2.159   5.372  0.3985  0.4565  0.3608
  287MOL0     C39472   2.873   2.135   5.251  0.8317  0.6546  0.4205
  287MOL0     C39473   2.800   2.234   5.186  1.1156 -0.3123  1.6338
  287MOL0     C39474   2.738   2.201   5.072  0.4796  0.2496 -0.1589
  287MOL0     C39475   2.742   2.076   5.011  0.6653  0.0092 -0.7710
  287MOL0     O39476   2.688   2.073   4.886 -0.2183  0.1669  0.4245
  287MOL0     C39477   2.630   1.945   4.828 -0.0009  0.1710  0.5766
  287MOL0     C39478   2.743   1.843   4.797 -0.0325 -0.3318 -1.1345
  287MOL0     C39479   2.722   1.777   4.656 -0.4220  0.0488  0.2299
  287MOL0     C39480   2.846   1.693   4.610  0.1137  1.0018  0.3029
  287MOL0     C39481   2.826   1.611   4.483  0.0568 -0.2527  1.2915
  287MOL0     C39482   2.949   1.536   4.436  0.3169  1.0282  0.4291
  287MOL0     C39483   3.080   1.621   4.441 -0.8146  0.6023  0.0186
  287MOL0     C39484   3.199   1.563   4.368  0.2708  0.1829  0.1045
  287MOL0     N39485   3.216   1.636   4.239  0.1997  0.4154  0.5480
  287MOL0     C39486   3.305   1.735   4.207 -0.9605 -0.7597 -0.0664
  287MOL0     C39487   3.264   1.778   4.080  0.1960  0.0792 -0.0879
  287MOL0     C39488   3.327   1.892   4.006 -0.0748 -0.8632 -0.5479
  287MOL0     C39489   3.439   1.835   3.920  0.0033 -0.2319 -0.5175
  287MOL0     C39490   3.510   1.940   3.843  0.0490  0.2820  1.2186
  287MOL0     C39491   3.595   2.052   3.909  0.4684 -0.0647 -0.1875
  287MOL0     O39492   3.652   2.118   3.789 -1.0373  0.3115 -0.8080
  287MOL0     C39493   3.602   2.246   3.759 -0.1611 -0.3327  0.2082
  287MOL0     C39494   3.686   2.330   3.679  0.8735  0.5305  0.4414
  287MOL0     C39495   3.656   2.459   3.645  0.9379  0.2331 -0.8843
  287MOL0     C39496   3.759   2.531   3.560  0.7715  0.0419  0.2196
  287MOL0     C39497   3.531   2.509   3.692  0.9373  0.2662 -0.6142
  287MOL0     C39498   3.493   2.647   3.670 -0.6517  0.4817  0.1753
  287MOL0     O39499   3.422   2.706   3.778 -0.1929  0.0689  0.1165
  287MOL0     C39500   3.431   2.841   3.788  0.2704 -0.4384 -0.7791
  287MOL0     C39501   3.557   2.901   3.782  0.2393 -0.8409  0.3559
  287MOL0     C39502   3.572   3.039   3.794  0.5114 -0.3385  0.5264
  287MOL0     C39503   3.472   3.120   3.845 -0.6187  0.0653  1.0307
  287MOL0     O39504   3.485   3.252   3.874  0.3409 -1.0012 -0.2002
  287MOL0     C39505   3.619   3.300   3.913  1.0699  0.4713  0.7977
  287MOL0     C39506   3.620   3.440   3.951 -0.1134 -0.4645 -0.2365
  287MOL0     C39507   3.557   3.481   4.091  0.2617  0.9933 -0.0832
  287MOL0     C39508   3.619   3.407   4.212  0.1214 -0.8084  0.5825
  287MOL0     C39509   3.570   3.469   4.344  0.8662  0.0594  0.4719
  287MOL0     C39510   3.575   3.368   4.454 -0.5903 -0.4017 -0.2154
  287MOL0     C39511   3.540   3.406   4.591  0.6621 -0.2769 -0.5121
  287MOL0     C39512   3.565   3.293   4.691 -0.7569 -0.3516  0.4747
  287MOL0    Cl39513   3.740   3.283   4.730  0.5168  0.1128 -0.6143
  287MOL0     C39514   3.348   3.069   3.862  0.2230 -0.0838  0.8342
  287MOL0     C39515   3.323   2.933   3.828  0.1404  0.2663 -0.0466
  287MOL0     O39516   3.523   2.699   3.564  0.4340 -0.8008 -0.0852
  287MOL0     C39517   3.437   2.419   3.762  0.4948 -0.6074  0.0549
  287MOL0     C39518   3.474   2.287   3.785 -0.2396  0.1733 -0.4998
  287MOL0     N39519   3.154   1.700   4.040  0.1288  0.0903  0.5080
  287MOL0     N39520   3.117   1.624   4.140 -0.7683 -0.3871 -0.4285
  287MOL0     C39521   2.818   1.969   5.076  0.6681 -0.3142  1.0157
  287MOL0     C39522   2.880   2.009   5.189  0.7696 -0.5379  0.0499
  287MOL0     C39523   2.984   2.266   5.579 -0.5768 -1.0985  0.5480
  287MOL0     C39524   3.128   2.266   5.554 -0.2109  0.9833 -0.2106
  287MOL0     C39525   3.217   2.303   5.648  0.4563  0.0009 -0.7976
  287MOL0     C39526   3.169   2.342   5.773  0.5333 -1.8966 -0.2547
  287MOL0     O39527   3.236   2.376   5.892 -0.3214 -0.1191  0.4061
  287MOL0     C39528   3.372   2.417   5.882 -0.8873  0.3686 -0.0957
  287MOL0     C39529   3.463   2.298   5.886  0.6019  0.0333  0.4897
  287MOL0     C39530   3.605   2.332   5.861  0.0181 -0.0573 -0.1575
  287MOL0     C39531   3.692   2.212   5.873 -0.7686  0.5103  0.2207
  287MOL0     C39532   3.716   2.157   6.008  0.0744  1.3769 -0.0877
  287MOL0     C39533   3.728   2.095   6.115 -0.1133  0.1370 -0.1328
  287MOL0     C39534   3.027   2.329   5.805 -0.8267 -1.4128 -0.5796
  287MOL0     C39535   2.936   2.291   5.709  1.0460 -0.8057 -0.6276
  287MOL0     C39536   2.799   2.281   5.775  0.3648  0.6634 -0.2855
  287MOL0     H39537   2.802   2.337   5.221 -2.3894  0.0632  1.0659
  287MOL0     H39538   2.676   2.287   5.045 -0.6656 -0.5643 -0.2106
  287MOL0     H39539   2.578   1.965   4.734 -0.8510 -1.1068  0.7438
  287MOL0     H39540   2.556   1.912   4.902 -1.6925 -0.4904 -1.2947
  287MOL0     H39541   2.841   1.890   4.809 -1.3349  2.1469  0.8068
  287MOL0     H39542   2.741   1.769   4.877  2.6168  2.2523  1.5994
  287MOL0     H39543   2.635   1.714   4.679  1.4723 -2.4713  0.9378
  287MOL0     H39544   2.694   1.840   4.572  2.1494  0.9339 -0.0431
  287MOL0     H39545   2.905   1.780   4.579  0.8749  0.0352 -1.0793
  287MOL0     H39546   2.895   1.628   4.683  1.4646  0.7028 -0.8360
  287MOL0     H39547   2.804   1.673   4.395  1.1545 -0.8816  0.5435
  287MOL0     H39548   2.746   1.537   4.498 -0.0674 -0.8225 -1.5182
  287MOL0     H39549   2.974   1.455   4.505  0.5292  1.8217  1.3014
  287MOL0     H39550   2.936   1.483   4.341  0.8570 -0.2552  1.0484
  287MOL0     H39551   3.095   1.640   4.548 -2.5246  2.9067 -0.0689
  287MOL0     H39552   3.057   1.718   4.397 -2.3373  0.4672  0.4746
  287MOL0     H39553   3.292   1.573   4.423  0.3593 -1.2871  0.2580
  287MOL0     H39554   3.187   1.456   4.354  0.6759  0.4901 -3.6057
  287MOL0     H39555   3.388   1.771   4.268 -2.9709  2.5220  1.0283
  287MOL0     H39556   3.354   1.969   4.079 -5.3172  0.5802  0.2487
  287MOL0     H39557   3.252   1.949   3.951 -0.4177 -1.4308 -0.6842
  287MOL0     H39558   3.511   1.776   3.978  1.5484 -1.6825 -3.6078
  287MOL0     H39559   3.403   1.760   3.848 -0.0623  0.0981 -0.8302
  287MOL0     H39560   3.565   1.884   3.768 -0.8814  1.2200 -0.2093
  287MOL0     H39561   3.437   1.995   3.783 -0.4507 -0.9801  0.6408
  287MOL0     H39562   3.548   2.123   3.977  1.5642 -0.1485  0.6912
  287MOL0     H39563   3.665   1.995   3.972  2.6580  2.0758 -0.5104
  287MOL0     H39564   3.776   2.284   3.641  0.2682 -1.3952  1.1823
  287MOL0     H39565   3.827   2.456   3.518 -0.6587  0.2490 -2.7751
  287MOL0     H39566   3.807   2.610   3.617  0.6396  0.9711 -0.9244
  287MOL0     H39567   3.719   2.573   3.467 -1.3372 -1.5914  0.3126
  287MOL0     H39568   3.645   2.840   3.762  2.6525  0.5750  5.0957
  287MOL0     H39569   3.674   3.066   3.768  0.9679  0.2159  2.6556
  287MOL0     H39570   3.659   3.234   3.990  1.3491 -2.8961 -1.9441
  287MOL0     H39571   3.683   3.285   3.825  4.2471 -1.0562  3.1924
  287MOL0     H39572   3.725   3.472   3.945  0.4847 -0.6253  4.8422
  287MOL0     H39573   3.556   3.494   3.881  0.7122  0.6813 -0.1373
  287MOL0     H39574   3.450   3.464   4.081  0.2642  1.3144 -0.7633
  287MOL0     H39575   3.589   3.583   4.116  0.3527  0.4196  2.3601
  287MOL0     H39576   3.728   3.401   4.209  0.0719 -1.5193 -0.2766
  287MOL0     H39577   3.590   3.302   4.201 -2.9331 -0.3376  2.7653
  287MOL0     H39578   3.636   3.547   4.384 -0.9818 -0.0838  4.2888
  287MOL0     H39579   3.469   3.510   4.335  1.2586  0.5719 -2.5947
  287MOL0     H39580   3.679   3.333   4.456 -0.6877 -0.7651 -1.0606
  287MOL0     H39581   3.523   3.275   4.429  2.0866 -1.6795 -1.5888
  287MOL0     H39582   3.436   3.441   4.597  0.4924 -0.9000  0.5795
  287MOL0     H39583   3.598   3.492   4.626 -0.6548  0.4996 -0.1573
  287MOL0     H39584   3.527   3.200   4.648 -2.6842 -0.2053  1.7438
  287MOL0     H39585   3.508   3.308   4.783 -0.8624  0.2544  0.3159
  287MOL0     H39586   3.266   3.134   3.892 -5.4054 -4.3030 -3.1389
  287MOL0     H39587   3.226   2.891   3.855 -0.6938  2.4005  0.5038
  287MOL0     H39588   3.341   2.463   3.788 -0.3099 -1.8808 -0.6763
  287MOL0     H39589   3.406   2.216   3.830 -0.8762  1.2623  0.3007
  287MOL0     H39590   2.836   1.879   5.019 -4.3085 -0.0452 -1.5480
  287MOL0     H39591   2.951   1.948   5.243  0.8940  1.5100  2.4006
  287MOL0     H39592   3.145   2.253   5.447 -3.6611  2.6266 -1.1259
  287MOL0     H39593   3.325   2.302   5.641  0.3961  0.4542 -2.2499
  287MOL0     H39594   3.385   2.470   5.786 -2.8416  0.9801 -0.0715
  287MOL0     H39595   3.403   2.490   5.957  0.6761 -1.0079  0.6554
  287MOL0     H39596   3.451   2.211   5.822  2.6435  0.8487 -1.1212
  287MOL0     H39597   3.460   2.257   5.988 -0.0185 -0.9013  0.1039
  287MOL0     H39598   3.625   2.383   5.766  1.1346  2.0530  1.1292
  287MOL0     H39599   3.637   2.410   5.932 -1.3691 -0.4634  0.9605
  287MOL0     H39600   3.794   2.241   5.843 -0.4296  0.8895  1.6701
  287MOL0     H39601   3.669   2.121   5.817  5.5561 -1.2345 -0.3725
  287MOL0     H39602   3.732   2.046   6.210  1.6191 -1.0412 -0.7629
  287MOL0     H39603   2.998   2.353   5.907  1.2178 -1.4898  0.0452
  287MOL0     H39604   2.746   2.376   5.763 -0.1869  0.5648  1.1934
  287MOL0     H39605   2.728   2.210   5.732  0.4501 -0.3370  1.1666
  287MOL0     H39606   2.818   2.261   5.880  1.2318  3.4778  0.1732
  288MOL0     O39607   3.703  11.272   1.023  0.0492  0.0275  0.3800
  288MOL0     C39608   3.746  11.182   1.103 -0.9968 -0.9993  0.4937
  288MOL0     O39609   3.867  11.124   1.098  0.2741 -0.0945  0.1193
  288MOL0     C39610   3.979  11.178   1.050  0.7179 -0.7129 -0.4488
  288MOL0     C39611   4.045  11.090   0.964  0.1350  0.1749  0.9916
  288MOL0     C39612   4.174  11.115   0.918 -0.6810  0.5249 -0.7363
  288MOL0     C39613   4.235  11.241   0.938 -0.4530  0.2495 -0.0993
  288MOL0     O39614   4.355  11.290   0.892 -0.4310 -1.1866  0.0002
  288MOL0     C39615   4.428  11.214   0.798  0.9699 -0.1139 -0.4761
  288MOL0     C39616   4.579  11.237   0.782 -0.2729  0.6231 -0.9339
  288MOL0     C39617   4.608  11.375   0.726  0.1163  0.2947  1.2592
  288MOL0     C39618   4.762  11.397   0.706  0.4292 -0.4499  0.6597
  288MOL0     C39619   4.843  11.382   0.834 -0.0778 -1.0740  0.0586
  288MOL0     C39620   4.993  11.374   0.810  0.1355 -0.6146 -0.1183
  288MOL0     C39621   5.069  11.371   0.948  0.3610  0.5915  0.4826
  288MOL0     C39622   5.144  11.234   0.957  0.1648 -0.5788  0.1339
  288MOL0     N39623   5.052  11.121   0.989  0.3013 -1.1323  0.0107
  288MOL0     C39624   5.005  11.097   1.116  0.0995 -0.1413  0.4161
  288MOL0     C39625   4.934  10.988   1.118 -0.3637  0.6092 -0.4568
  288MOL0     C39626   4.872  10.917   1.243  0.0488  0.4957 -0.1643
  288MOL0     C39627   4.836  11.016   1.360 -0.2147 -0.1496  0.2113
  288MOL0     C39628   4.759  10.941   1.471  0.5884 -0.2228 -0.1408
  288MOL0     C39629   4.830  10.824   1.534  0.3749 -0.8502  0.4033
  288MOL0     O39630   4.753  10.793   1.649  0.1065 -0.3019 -0.2040
  288MOL0     C39631   4.755  10.679   1.730  0.8934  0.2078  0.5798
  288MOL0     C39632   4.813  10.556   1.691  0.1616  0.4013  0.3369
  288MOL0     C39633   4.807  10.439   1.761  0.0787 -0.6233 -0.3869
  288MOL0     C39634   4.860  10.325   1.682  0.1115 -0.4552 -0.8802
  288MOL0     C39635   4.739  10.429   1.892 -0.8292 -0.0291 -0.0130
  288MOL0     C39636   4.726  10.305   1.977  0.3873 -0.2905 -0.8546
  288MOL0     O39637   4.783  10.191   1.942  0.0756 -0.6519 -0.2178
  288MOL0     C39638   4.768  10.079   2.023  0.0450 -0.0751 -0.4270
  288MOL0     C39639   4.685   9.971   1.996  0.6286 -0.2524 -0.1115
  288MOL0     C39640   4.679   9.862   2.084 -0.4514  0.0955 -0.2055
  288MOL0     C39641   4.751   9.861   2.200  0.2807 -0.9763 -0.1154
  288MOL0     O39642   4.761   9.751   2.277 -0.1233  1.0213 -0.4891
  288MOL0     C39643   4.878   9.672   2.268 -0.2948  0.3673 -0.2302
  288MOL0     C39644   4.871   9.563   2.162  0.1805 -0.3184  0.0521
  288MOL0     C39645   4.907   9.601   2.020  1.0775  0.3378 -1.0804
  288MOL0     C39646   4.874   9.484   1.913  0.2545 -0.0426  0.0603
  288MOL0     C39647   4.942   9.526   1.782  0.2502 -0.8563 -0.2664
  288MOL0     C39648   4.860   9.614   1.685  0.2683  0.3245  0.4185
  288MOL0     C39649   4.852   9.761   1.723  0.1066 -0.3207 -0.9078
  288MOL0     C39650   4.795   9.845   1.601 -0.7972 -0.1762 -0.4720
  288MOL0    Cl39651   4.740   9.988   1.684  0.7161 -0.1031 -0.6441
  288MOL0     C39652   4.824   9.972   2.245  0.4442 -0.9956  0.0644
  288MOL0     C39653   4.848  10.079   2.145 -0.3320  0.0182  0.3473
  288MOL0     O39654   4.641  10.319   2.067  0.4270  0.0544  0.3387
  288MOL0     C39655   4.693  10.549   1.932 -0.9054  0.4346 -0.0045
  288MOL0     C39656   4.693  10.668   1.853  0.8213 -0.8629 -0.4023
  288MOL0     N39657   4.922  10.944   0.988  0.1702 -0.1353  0.0375
  288MOL0     N39658   5.002  11.023   0.908  0.5291 -0.9831 -0.4780
  288MOL0     C39659   4.156  11.338   1.007 -0.4795 -0.2004  0.2213
  288MOL0     C39660   4.033  11.310   1.065 -0.0430 -0.0819 -0.1465
  288MOL0     C39661   3.655  11.124   1.206 -0.4157 -0.4266 -0.5221
  288MOL0     C39662   3.709  11.036   1.296  0.3011  0.8573  0.4463
  288MOL0     C39663   3.641  11.004   1.411  0.0433  0.3763  0.6318
  288MOL0     C39664   3.517  11.058   1.434  0.5366 -0.1408  0.1981
  288MOL0     O39665   3.469  11.045   1.564  0.5155 -0.8551 -0.4654
  288MOL0     C39666   3.345  11.105   1.600 -0.4914 -0.3769  0.2071
  288MOL0     C39667   3.221  11.031   1.556 -0.0835 -1.1736  0.1877
  288MOL0     C39668   3.091  11.113   1.581  0.0918  0.6262  0.2054
  288MOL0     C39669   3.056  11.216   1.468 -0.7274  0.0637 -0.8794
  288MOL0     C39670   3.042  11.152   1.335  0.4840 -0.1519 -0.5032
  288MOL0     C39671   3.050  11.079   1.241 -0.1235  0.4288 -0.1989
  288MOL0     C39672   3.449  11.125   1.324  0.2331  0.0992  0.2253
  288MOL0     C39673   3.519  11.163   1.211  0.9926  0.0857  0.8719
  288MOL0     C39674   3.433  11.241   1.109 -0.3148  0.3285  0.5570
  288MOL0     H39675   3.993  11.002   0.928  0.0699  0.9243 -0.8350
  288MOL0     H39676   4.225  11.028   0.876  0.3181 -0.9233  3.1091
  288MOL0     H39677   4.382  11.236   0.701 -1.2218  1.5799  0.8743
  288MOL0     H39678   4.407  11.108   0.816  0.9392 -0.5856 -2.9423
  288MOL0     H39679   4.628  11.227   0.879 -1.9570  2.0334  0.1415
  288MOL0     H39680   4.625  11.159   0.722  2.5765 -1.9470  3.9454
  288MOL0     H39681   4.553  11.396   0.634 -0.0302 -0.7379  1.0980
  288MOL0     H39682   4.581  11.458   0.793  1.6077  2.2621 -0.4555
  288MOL0     H39683   4.794  11.324   0.631  3.3195  1.0445  0.3291
  288MOL0     H39684   4.774  11.490   0.650 -2.1641 -1.6947 -2.2532
  288MOL0     H39685   4.827  11.287   0.885  1.5912 -0.4928  1.7785
  288MOL0     H39686   4.819  11.472   0.890 -1.2482 -0.1068 -1.8659
  288MOL0     H39687   5.006  11.286   0.746  0.5795  1.3617 -2.9329
  288MOL0     H39688   5.034  11.450   0.744  1.8370 -2.1589 -0.9234
  288MOL0     H39689   5.004  11.388   1.034  0.4413  0.7604  0.5098
  288MOL0     H39690   5.140  11.454   0.951 -0.5365  1.3468  2.7506
  288MOL0     H39691   5.196  11.217   0.863 -2.1012  3.8136 -2.2578
  288MOL0     H39692   5.218  11.246   1.037 -1.9466  0.4497  2.0605
  288MOL0     H39693   5.020  11.161   1.202  1.3816 -1.0610  0.9034
  288MOL0     H39694   4.935  10.834   1.279  1.6529 -0.2716 -4.1425
  288MOL0     H39695   4.781  10.868   1.207 -0.0973  2.0256 -2.0613
  288MOL0     H39696   4.924  11.053   1.415 -1.5755 -0.2893  2.6380
  288MOL0     H39697   4.770  11.095   1.323  0.2995  0.9259  1.5089
  288MOL0     H39698   4.741  11.016   1.548  0.6296  0.5485 -0.8711
  288MOL0     H39699   4.667  10.897   1.434  0.0360  0.1447  0.7625
  288MOL0     H39700   4.843  10.740   1.466 -2.2899 -2.8604  2.1446
  288MOL0     H39701   4.922  10.860   1.581 -0.3039 -1.6523  2.4787
  288MOL0     H39702   4.855  10.551   1.591  0.9814 -1.5628  0.7450
  288MOL0     H39703   4.923  10.346   1.595 -0.9326  0.2254 -1.4961
  288MOL0     H39704   4.769  10.273   1.654 -1.2748  1.4966 -0.2186
  288MOL0     H39705   4.920  10.267   1.753 -0.5830  0.9233  0.9159
  288MOL0     H39706   4.611   9.970   1.917 -3.6087 -0.0909  3.4906
  288MOL0     H39707   4.609   9.781   2.067  1.0100 -1.3240  0.3493
  288MOL0     H39708   4.961   9.739   2.244 -0.4197  1.5285  2.2942
  288MOL0     H39709   4.905   9.625   2.363  1.0800 -0.6522 -1.0694
  288MOL0     H39710   4.930   9.475   2.191  1.8846  0.4909 -0.8370
  288MOL0     H39711   4.768   9.525   2.153  0.4905 -1.0792 -0.4001
  288MOL0     H39712   5.016   9.600   2.016  1.0504 -0.2091 -2.3099
  288MOL0     H39713   4.866   9.701   2.001 -1.3905  0.0541  2.0279
  288MOL0     H39714   4.768   9.479   1.890  0.7323  0.3461 -2.4723
  288MOL0     H39715   4.904   9.384   1.948 -1.1235  0.1600  2.0076
  288MOL0     H39716   5.034   9.580   1.810  1.7822 -2.7395 -1.4066
  288MOL0     H39717   4.980   9.439   1.729  2.9595  0.1180 -0.1182
  288MOL0     H39718   4.756   9.582   1.680  0.2256  0.0581  2.4711
  288MOL0     H39719   4.904   9.606   1.585 -0.6399  0.0347  0.0307
  288MOL0     H39720   4.954   9.786   1.750  0.9017 -4.9438  1.2879
  288MOL0     H39721   4.781   9.779   1.804  2.3335  1.4795  0.7620
  288MOL0     H39722   4.711   9.797   1.549 -2.4039  1.8640  0.1148
  288MOL0     H39723   4.871   9.867   1.525  0.3401  1.1989  1.0104
  288MOL0     H39724   4.878   9.974   2.339 -2.5546 -0.0360  1.9096
  288MOL0     H39725   4.917  10.161   2.165  2.3584 -1.6162 -1.5684
  288MOL0     H39726   4.634  10.571   2.021  0.9446  1.0517  1.1371
  288MOL0     H39727   4.635  10.752   1.887  0.5735 -0.8979 -0.7368
  288MOL0     H39728   4.187  11.442   1.010 -0.1542 -0.2526 -0.7742
  288MOL0     H39729   3.970  11.386   1.110  0.7004 -0.9745  2.6201
  288MOL0     H39730   3.805  10.987   1.280  0.0684  0.4322  0.3399
  288MOL0     H39731   3.676  10.956   1.501 -1.2092  1.1205  1.5558
  288MOL0     H39732   3.332  11.113   1.709 -2.8387 -2.6035  0.1683
  288MOL0     H39733   3.358  11.209   1.568  3.9460  0.1225  2.7330
  288MOL0     H39734   3.214  10.941   1.618  2.3637 -0.6050  1.3948
  288MOL0     H39735   3.227  10.998   1.451 -2.7030  3.2201 -1.6414
  288MOL0     H39736   3.011  11.040   1.597  0.4535  0.6804  2.5266
  288MOL0     H39737   3.116  11.148   1.681  0.4965 -3.8777  1.8705
  288MOL0     H39738   3.137  11.291   1.467 -0.5563 -0.0491  0.9051
  288MOL0     H39739   2.974  11.277   1.507  1.5952  0.5749  3.9891
  288MOL0     H39740   3.073  11.002   1.170  0.6530  1.2843 -0.8817
  288MOL0     H39741   3.349  11.156   1.353 -0.7175 -2.6863  0.2822
  288MOL0     H39742   3.326  11.216   1.107  0.5274 -4.1803 -1.3576
  288MOL0     H39743   3.442  11.350   1.108  0.9428  0.2488 -0.8388
  288MOL0     H39744   3.471  11.213   1.010  2.1622 -0.4710  1.6662
  289MOL0     O39745  10.810   2.362   8.153  0.5444 -0.0926 -0.3861
  289MOL0     C39746  10.836   2.351   8.273 -0.9410  0.8310 -0.9381
  289MOL0     O39747  10.951   2.380   8.328 -0.1538 -0.5040  0.2489
  289MOL0     C39748  11.045   2.433   8.251  0.0512  0.7968  0.0595
  289MOL0     C39749  11.071   2.567   8.255 -0.6054 -0.8616 -0.1165
  289MOL0     C39750  11.152   2.627   8.161 -0.9478 -0.6037  0.2124
  289MOL0     C39751  11.235   2.552   8.069  0.3817 -0.3038 -0.6212
  289MOL0     O39752  11.317   2.603   7.973 -0.2849 -0.1094  0.2029
  289MOL0     C39753  11.354   2.741   7.970  0.0064  0.1287 -0.2866
  289MOL0     C39754  11.506   2.758   7.965 -0.0171  0.0574  0.5313
  289MOL0     C39755  11.574   2.738   8.104 -0.2874 -0.1910 -0.2068
  289MOL0     C39756  11.620   2.597   8.128 -0.5287 -0.1264 -0.2385
  289MOL0     C39757  11.719   2.591   8.236  0.5341  0.7285 -0.0667
  289MOL0     C39758  11.769   2.445   8.248  0.2748  0.7849  0.2244
  289MOL0     C39759  11.848   2.421   8.378 -0.4129 -0.4133 -0.1650
  289MOL0     C39760  11.773   2.447   8.518 -0.5678 -0.1715  0.1096
  289MOL0     N39761  11.656   2.358   8.541 -0.0731  0.0641  0.7235
  289MOL0     C39762  11.532   2.367   8.480  0.5013  0.2312  0.8159
  289MOL0     C39763  11.466   2.261   8.527 -0.1795  0.7313  0.1446
  289MOL0     C39764  11.321   2.230   8.505  0.1565 -0.2876  0.3871
  289MOL0     C39765  11.231   2.264   8.612 -0.2796 -0.3223 -0.1865
  289MOL0     C39766  11.238   2.407   8.673  0.5953  0.2906 -0.4202
  289MOL0     C39767  11.199   2.522   8.576 -0.1153  0.3198 -0.3608
  289MOL0     O39768  11.294   2.548   8.473 -0.3358 -0.4742 -0.2203
  289MOL0     C39769  11.373   2.661   8.499  0.4885  0.1651  0.7387
  289MOL0     C39770  11.353   2.774   8.413 -0.6179  0.0569 -0.6535
  289MOL0     C39771  11.440   2.884   8.412  0.2714 -0.9246 -0.2603
  289MOL0     C39772  11.413   2.985   8.312  0.2410  0.0063  0.0220
  289MOL0     C39773  11.550   2.887   8.501  0.8028  0.4604 -0.0295
  289MOL0     C39774  11.647   2.990   8.506  0.0895  0.4167 -0.7849
  289MOL0     O39775  11.685   3.010   8.636  0.2891 -0.0167 -0.6464
  289MOL0     C39776  11.739   3.131   8.675  0.8616  0.4527  0.2678
  289MOL0     C39777  11.684   3.189   8.790 -0.0109 -0.4373  0.3346
  289MOL0     C39778  11.747   3.295   8.858  0.4104 -0.2458 -0.0217
  289MOL0     C39779  11.872   3.339   8.819  0.0461  0.0826  0.7115
  289MOL0     O39780  11.937   3.425   8.901  0.0341 -0.7893  0.3056
  289MOL0     C39781  12.028   3.515   8.852  0.4527 -0.8151  0.1295
  289MOL0     C39782  12.068   3.622   8.961  0.1116  0.2752  0.1734
  289MOL0     C39783  12.160   3.736   8.903  0.1245 -0.1461 -0.0517
  289MOL0     C39784  12.204   3.831   9.014  0.0787 -0.6726 -0.6160
  289MOL0     C39785  12.309   3.778   9.113 -1.2047 -0.2606 -0.2277
  289MOL0     C39786  12.350   3.873   9.229  0.1726 -1.2442  0.5652
  289MOL0     C39787  12.457   3.825   9.331  0.7915  0.4025  0.5799
  289MOL0     C39788  12.429   3.685   9.388 -0.1916  0.4882  0.0436
  289MOL0    Cl39789  12.270   3.705   9.487  0.5825 -0.2768 -0.2479
  289MOL0     C39790  11.925   3.277   8.705  0.1889  0.1231  0.2310
  289MOL0     C39791  11.857   3.186   8.625  0.2387  0.6867 -0.3528
  289MOL0     O39792  11.679   3.059   8.410  0.2871  0.1603  0.3450
  289MOL0     C39793  11.562   2.776   8.589  0.3901 -0.4661  0.4687
  289MOL0     C39794  11.478   2.669   8.594  0.1797  0.8946 -0.2543
  289MOL0     N39795  11.547   2.193   8.619 -0.9029 -0.8017 -0.1026
  289MOL0     N39796  11.661   2.246   8.610 -0.6958 -0.4632  0.0935
  289MOL0     C39797  11.203   2.416   8.067 -0.8573 -0.1778  0.0919
  289MOL0     C39798  11.120   2.358   8.158 -0.3121  0.2953  0.7770
  289MOL0     C39799  10.726   2.295   8.366  0.3504 -0.4200 -0.4507
  289MOL0     C39800  10.640   2.380   8.440 -0.0669  0.0255  0.1285
  289MOL0     C39801  10.540   2.326   8.522  0.3219 -0.5225 -0.9552
  289MOL0     C39802  10.537   2.191   8.547 -0.9595 -0.1765  0.2197
  289MOL0     O39803  10.462   2.129   8.638 -0.0620 -0.1288  0.1669
  289MOL0     C39804  10.374   2.222   8.713 -1.0915 -1.1414  0.8226
  289MOL0     C39805  10.281   2.160   8.811 -1.2931 -1.0548  0.2932
  289MOL0     C39806  10.188   2.266   8.870  0.3930  0.3807  0.6662
  289MOL0     C39807  10.078   2.298   8.778 -0.5457 -0.0388 -0.3936
  289MOL0     C39808   9.993   2.409   8.825 -0.3409  0.0230 -0.8934
  289MOL0     C39809   9.932   2.499   8.878 -0.4971 -0.4533  0.0463
  289MOL0     C39810  10.609   2.109   8.464  0.1340  0.1249 -0.5660
  289MOL0     C39811  10.710   2.159   8.382 -0.6007  0.4093 -0.7257
  289MOL0     C39812  10.804   2.065   8.311 -0.1098 -0.3122  0.4390
  289MOL0     H39813  11.016   2.630   8.324  2.4930  1.3645  0.5702
  289MOL0     H39814  11.151   2.736   8.170 -2.7211 -0.5771 -0.0891
  289MOL0     H39815  11.312   2.805   8.048  1.8989  2.4994 -1.0849
  289MOL0     H39816  11.305   2.782   7.881  0.7320  1.9472  0.1055
  289MOL0     H39817  11.555   2.697   7.889  0.3479  1.8813 -0.7608
  289MOL0     H39818  11.512   2.863   7.935  0.1050  0.4689  1.9139
  289MOL0     H39819  11.651   2.816   8.108 -0.6824  0.3006 -1.7313
  289MOL0     H39820  11.498   2.756   8.180 -1.0504 -2.5046 -0.3593
  289MOL0     H39821  11.532   2.536   8.149 -0.7027  0.1940 -0.0146
  289MOL0     H39822  11.658   2.562   8.032 -0.8418  5.1427 -2.6651
  289MOL0     H39823  11.673   2.626   8.329  2.1695 -0.6882  1.3616
  289MOL0     H39824  11.801   2.662   8.219 -0.7008  2.1553 -0.2369
  289MOL0     H39825  11.689   2.371   8.254  1.0020  0.1283  3.3195
  289MOL0     H39826  11.832   2.427   8.160 -0.9498  2.3668 -1.0482
  289MOL0     H39827  11.940   2.480   8.378  0.3052 -1.4952  1.0506
  289MOL0     H39828  11.879   2.316   8.374  1.7642  0.1642  0.3569
  289MOL0     H39829  11.845   2.438   8.600  0.4411  1.0863 -0.5924
  289MOL0     H39830  11.746   2.553   8.509  0.2670 -0.0251 -0.8401
  289MOL0     H39831  11.495   2.441   8.411 -1.0215  0.9950  2.3822
  289MOL0     H39832  11.307   2.125   8.478  2.4421  0.0438 -2.5881
  289MOL0     H39833  11.286   2.288   8.419  1.7075 -2.3472 -1.7436
  289MOL0     H39834  11.128   2.256   8.576 -0.5071  0.3440  0.2913
  289MOL0     H39835  11.259   2.192   8.690 -2.4507  1.1409  2.0923
  289MOL0     H39836  11.187   2.411   8.770 -1.5020 -1.0298 -1.4049
  289MOL0     H39837  11.341   2.427   8.705  1.1089 -0.7859 -1.3488
  289MOL0     H39838  11.101   2.501   8.533  0.7894  1.8129 -3.4089
  289MOL0     H39839  11.181   2.607   8.643 -1.4033 -0.4238  0.2547
  289MOL0     H39840  11.258   2.779   8.361 -1.3865  1.9148  0.8114
  289MOL0     H39841  11.416   3.088   8.349 -3.5186  0.4187 -0.3970
  289MOL0     H39842  11.323   2.973   8.251  0.2811  1.2964 -0.3123
  289MOL0     H39843  11.493   2.969   8.239  0.5738 -0.7114  0.5289
  289MOL0     H39844  11.598   3.133   8.826  0.7282 -2.6851 -1.2156
  289MOL0     H39845  11.701   3.343   8.945 -0.3368 -0.1793 -0.4406
  289MOL0     H39846  12.121   3.465   8.824  0.3542 -0.8295 -0.1667
  289MOL0     H39847  11.981   3.565   8.767 -1.1720 -2.0752  0.2265
  289MOL0     H39848  11.979   3.665   9.007 -2.1696 -1.9288 -1.9059
  289MOL0     H39849  12.125   3.574   9.041  0.3630 -1.3685 -0.9432
  289MOL0     H39850  12.111   3.793   8.824 -0.4900  0.0814  0.4724
  289MOL0     H39851  12.250   3.685   8.867  0.5964  0.3542  0.3987
  289MOL0     H39852  12.118   3.859   9.076 -1.2024 -2.7743 -1.3292
  289MOL0     H39853  12.244   3.921   8.966  0.3255  0.0426  0.8583
  289MOL0     H39854  12.265   3.691   9.163 -0.3873 -1.7081 -1.9529
  289MOL0     H39855  12.398   3.762   9.051 -0.9061  1.6931 -0.3939
  289MOL0     H39856  12.254   3.894   9.277 -0.5197 -0.8604 -0.9185
  289MOL0     H39857  12.392   3.969   9.199  1.2971 -1.9657 -0.2457
  289MOL0     H39858  12.465   3.884   9.422  1.0017 -0.6882  1.2814
  289MOL0     H39859  12.550   3.828   9.273  0.0291 -1.0858 -0.8048
  289MOL0     H39860  12.499   3.648   9.463 -2.2884 -1.4050  1.2205
  289MOL0     H39861  12.436   3.601   9.319  0.3029 -1.8179  2.6806
  289MOL0     H39862  12.025   3.308   8.677  0.7677 -1.0516  0.9230
  289MOL0     H39863  11.906   3.139   8.540 -1.2810 -1.3479 -0.1751
  289MOL0     H39864  11.647   2.770   8.656  2.8549 -3.0304 -2.5088
  289MOL0     H39865  11.491   2.579   8.653 -0.2715 -2.3234 -4.5707
  289MOL0     H39866  11.244   2.365   7.981 -1.9448  0.3783 -0.7878
  289MOL0     H39867  11.095   2.253   8.160  3.1600 -0.8185 -2.8407
  289MOL0     H39868  10.665   2.485   8.428  2.6117 -0.2056  2.7375
  289MOL0     H39869  10.487   2.401   8.581 -0.5290 -0.4459 -1.7841
  289MOL0     H39870  10.432   2.300   8.761  0.6001 -1.1741 -1.0126
  289MOL0     H39871  10.321   2.283   8.639  4.3915  2.1117 -1.0675
  289MOL0     H39872  10.344   2.115   8.888 -2.5209 -1.5522  1.0330
  289MOL0     H39873  10.225   2.088   8.750 -1.2363 -0.0437 -0.9910
  289MOL0     H39874  10.145   2.223   8.961  3.8038 -1.7232  1.4475
  289MOL0     H39875  10.235   2.358   8.906  3.0839  0.4306 -2.4981
  289MOL0     H39876  10.013   2.218   8.743  0.2952 -0.6874 -0.5021
  289MOL0     H39877  10.124   2.333   8.685 -0.1486 -2.5060 -1.1853
  289MOL0     H39878   9.866   2.572   8.922  1.2863  0.9913  0.4481
  289MOL0     H39879  10.591   2.002   8.466 -1.5707  0.3196  3.3413
  289MOL0     H39880  10.813   2.070   8.202  0.5643  0.4782  0.5184
  289MOL0     H39881  10.904   2.080   8.354  0.4332  0.8891 -1.1595
  289MOL0     H39882  10.787   1.961   8.339  2.8278 -0.8344  0.5942
  290MOL0     O39883   8.275   4.715   0.569 -0.7199 -0.4442  0.1241
  290MOL0     C39884   8.210   4.774   0.654 -0.2399  0.8641  1.0110
  290MOL0     O39885   8.256   4.885   0.719  0.0665  0.1329  0.3286
  290MOL0     C39886   8.369   4.942   0.668 -0.3003  1.2796 -0.1883
  290MOL0     C39887   8.379   5.034   0.558  0.4215  0.1758 -0.1949
  290MOL0     C39888   8.497   5.092   0.510 -0.9136 -0.7837 -0.7797
  290MOL0     C39889   8.608   5.049   0.577 -0.0504  0.6547 -0.3537
  290MOL0     O39890   8.730   5.105   0.545  0.1680  0.6429  0.1681
  290MOL0     C39891   8.797   5.172   0.655  0.4545 -0.5605 -0.0890
  290MOL0     C39892   8.920   5.244   0.595  0.9554  0.3794 -1.0045
  290MOL0     C39893   9.008   5.150   0.505 -0.2211  0.0929  0.2780
  290MOL0     C39894   9.082   5.232   0.393  0.2963  0.0362 -0.8126
  290MOL0     C39895   9.153   5.145   0.294 -0.4133 -0.1714  0.0935
  290MOL0     C39896   9.254   5.222   0.195  0.4482 -0.2845  0.0128
  290MOL0     C39897   9.375   5.275   0.260  0.0928  0.8054 -0.6653
  290MOL0     C39898   9.491   5.314   0.168 -0.1685 -0.6189  0.1933
  290MOL0     N39899   9.462   5.429   0.084  0.1356 -0.2483  0.1347
  290MOL0     C39900   9.441   5.561   0.122  0.2377  0.1302  1.4206
  290MOL0     C39901   9.451   5.630   0.009  0.3638 -0.4484  1.0259
  290MOL0     C39902   9.431   5.788   0.000  0.6903 -0.6260 -0.5119
  290MOL0     C39903   9.564   5.850   0.045  0.9064 -1.0695 -0.4059
  290MOL0     C39904   9.669   5.864  -0.063  0.1913 -0.3310  0.3054
  290MOL0     C39905   9.787   5.944  -0.009  0.4411 -0.2359  0.6550
  290MOL0     O39906   9.762   6.086   0.006  0.1056 -0.3340  0.4512
  290MOL0     C39907   9.843   6.151   0.098  0.4064 -0.7849  0.1670
  290MOL0     C39908   9.849   6.110   0.229 -0.8229 -0.3868 -0.9057
  290MOL0     C39909   9.929   6.173   0.335  1.5121  0.0031  0.2105
  290MOL0     C39910   9.905   6.117   0.467 -0.2714 -0.0085 -0.4690
  290MOL0     C39911   9.997   6.294   0.310 -0.4477  0.0210  0.5003
  290MOL0     C39912  10.072   6.382   0.408 -0.3594 -0.3700  1.4225
  290MOL0     O39913  10.183   6.448   0.370 -0.0414  0.2999 -0.6915
  290MOL0     C39914  10.230   6.532   0.465  0.5214  0.4091 -0.2489
  290MOL0     C39915  10.160   6.642   0.515  0.5238  0.5897  0.8697
  290MOL0     C39916  10.229   6.728   0.601  0.9277  0.2510  0.9028
  290MOL0     C39917  10.361   6.712   0.643 -0.8250 -0.0410 -0.5369
  290MOL0     O39918  10.433   6.784   0.741 -0.2275 -0.3962 -0.2437
  290MOL0     C39919  10.395   6.911   0.776  0.6852 -0.9542  0.1028
  290MOL0     C39920  10.476   6.952   0.900  0.7987  0.0732 -0.1471
  290MOL0     C39921  10.443   7.079   0.973 -0.1571 -0.7235 -0.0426
  290MOL0     C39922  10.559   7.106   1.086  1.2798 -0.9510  0.2003
  290MOL0     C39923  10.553   7.248   1.130  0.1921 -0.8807 -0.1742
  290MOL0     C39924  10.607   7.277   1.266  0.0307 -1.2016 -0.1162
  290MOL0     C39925  10.561   7.415   1.308  0.4032  0.6751  0.4561
  290MOL0     C39926  10.560   7.416   1.460 -0.6507 -0.0295  0.0668
  290MOL0    Cl39927  10.732   7.436   1.512 -0.4824 -0.0847 -0.6933
  290MOL0     C39928  10.430   6.606   0.595  0.0702 -0.0806  0.3570
  290MOL0     C39929  10.359   6.510   0.515 -0.3356 -1.3697  0.0903
  290MOL0     O39930  10.027   6.383   0.523  0.7485  0.0896 -0.0890
  290MOL0     C39931   9.989   6.339   0.177 -0.6116  0.0644  0.5216
  290MOL0     C39932   9.911   6.271   0.073  0.3118 -0.5549 -0.7990
  290MOL0     N39933   9.474   5.543  -0.097  0.8273  0.5127  0.2891
  290MOL0     N39934   9.471   5.419  -0.047 -0.3364  0.4061  0.0169
  290MOL0     C39935   8.601   4.963   0.690 -0.4892 -0.1185  0.2372
  290MOL0     C39936   8.485   4.914   0.736 -0.4979 -0.5072 -0.1555
  290MOL0     C39937   8.080   4.723   0.678  0.1712 -1.0257 -0.7857
  290MOL0     C39938   8.004   4.786   0.775  0.8086 -0.0872 -0.6046
  290MOL0     C39939   7.884   4.731   0.827  0.1642 -0.5537 -0.7562
  290MOL0     C39940   7.828   4.622   0.770 -0.4042  0.3511 -0.1983
  290MOL0     O39941   7.715   4.582   0.834  0.3124  0.0084 -0.4435
  290MOL0     C39942   7.609   4.511   0.766 -0.0884  0.7475  0.4948
  290MOL0     C39943   7.510   4.603   0.701 -0.0811  0.7816 -0.2019
  290MOL0     C39944   7.396   4.636   0.794 -0.0274 -0.3207  1.0845
  290MOL0     C39945   7.432   4.667   0.936  0.6863  0.6737  0.5863
  290MOL0     C39946   7.327   4.764   0.979 -0.3732  0.2473  0.3788
  290MOL0     C39947   7.248   4.852   1.017 -0.7236 -0.1659  0.4392
  290MOL0     C39948   7.897   4.560   0.664 -0.3915 -0.0810 -0.9811
  290MOL0     C39949   8.022   4.609   0.622  0.3659 -0.3048 -0.4243
  290MOL0     C39950   8.070   4.540   0.494  0.0394 -0.1010 -0.4317
  290MOL0     H39951   8.289   5.074   0.512  0.7858  0.6917 -0.4556
  290MOL0     H39952   8.491   5.167   0.432 -1.2206  0.5410  0.4985
  290MOL0     H39953   8.835   5.093   0.720  0.1327 -0.0850  0.6784
  290MOL0     H39954   8.727   5.246   0.696  1.3473  1.1024 -1.4032
  290MOL0     H39955   8.868   5.315   0.530  0.2608  1.9042  1.1099
  290MOL0     H39956   8.965   5.311   0.670  0.5413  1.2991 -1.5548
  290MOL0     H39957   9.094   5.108   0.559  1.1190 -0.1233 -1.8634
  290MOL0     H39958   8.951   5.069   0.459  2.5909 -1.1761 -1.2954
  290MOL0     H39959   9.009   5.288   0.333  0.1199 -0.3805 -0.9892
  290MOL0     H39960   9.151   5.296   0.448  1.2498 -2.4745  1.0539
  290MOL0     H39961   9.075   5.089   0.242  0.2885  0.7090 -2.0205
  290MOL0     H39962   9.201   5.064   0.349 -0.0474 -0.1940 -0.2604
  290MOL0     H39963   9.283   5.154   0.114 -0.9835 -0.3117 -0.5075
  290MOL0     H39964   9.209   5.315   0.158 -1.9012  1.5524  6.1992
  290MOL0     H39965   9.418   5.204   0.331 -1.1596 -0.9350 -1.5703
  290MOL0     H39966   9.350   5.366   0.315  2.1433  0.3254  1.2248
  290MOL0     H39967   9.581   5.336   0.227 -1.3730  0.4845  1.7149
  290MOL0     H39968   9.512   5.229   0.102 -1.0070  0.6376 -1.7833
  290MOL0     H39969   9.399   5.598   0.215 -0.1213  0.4380  1.1404
  290MOL0     H39970   9.338   5.809   0.054 -1.1956 -3.4579 -2.4013
  290MOL0     H39971   9.410   5.805  -0.106  1.0998  4.0984 -0.0451
  290MOL0     H39972   9.542   5.945   0.094 -0.7862 -0.3301 -2.4276
  290MOL0     H39973   9.607   5.799   0.131 -0.5808  2.0087  2.3997
  290MOL0     H39974   9.702   5.765  -0.097 -0.3757 -0.8165  1.1134
  290MOL0     H39975   9.628   5.921  -0.146  0.2517 -1.0597 -0.2281
  290MOL0     H39976   9.813   5.893   0.084 -1.0431 -1.7666  0.2762
  290MOL0     H39977   9.876   5.933  -0.072 -0.2117  0.6683 -0.4652
  290MOL0     H39978   9.793   6.019   0.247 -1.8679  0.2096 -1.0113
  290MOL0     H39979   9.879   6.011   0.456 -0.9537  0.4484 -4.8258
  290MOL0     H39980   9.837   6.167   0.537 -0.2821  1.3373 -1.4183
  290MOL0     H39981  10.000   6.121   0.521  1.7805 -1.5818 -3.6579
  290MOL0     H39982  10.064   6.671   0.473  2.2088  4.5386 -0.8162
  290MOL0     H39983  10.193   6.830   0.616  1.6190  0.8194 -1.0066
  290MOL0     H39984  10.421   6.975   0.691 -1.7634 -0.4563 -0.3480
  290MOL0     H39985  10.286   6.925   0.776  0.8957  1.4585 -2.0429
  290MOL0     H39986  10.447   6.877   0.974 -1.3620  0.8572 -0.1313
  290MOL0     H39987  10.585   6.945   0.885  1.7664  6.2381  1.1499
  290MOL0     H39988  10.340   7.078   1.010 -0.0882 -0.5673  0.1554
  290MOL0     H39989  10.455   7.150   0.891  2.4452  0.4389  1.2310
  290MOL0     H39990  10.657   7.089   1.040  2.5858  1.4303  1.9301
  290MOL0     H39991  10.550   7.026   1.160  0.1772 -0.6051  0.4596
  290MOL0     H39992  10.616   7.309   1.064  4.0372 -0.4750  3.4028
  290MOL0     H39993  10.448   7.278   1.129  0.7058  1.2590  1.2706
  290MOL0     H39994  10.716   7.271   1.263  0.1143 -1.1526  1.8761
  290MOL0     H39995  10.585   7.196   1.335  1.5769  0.4186  2.4442
  290MOL0     H39996  10.463   7.445   1.271 -0.1359 -1.0074  0.4507
  290MOL0     H39997  10.633   7.488   1.270  0.3359  0.5606  0.1091
  290MOL0     H39998  10.510   7.329   1.504 -2.0857 -1.1992 -3.5253
  290MOL0     H39999  10.498   7.498   1.496  0.1840 -0.8438  3.7931
  290MOL0     H40000  10.536   6.593   0.612 -0.0147  1.4516  2.4783
  290MOL0     H40001  10.406   6.426   0.465  2.6816  0.0661  0.2763
  290MOL0     H40002  10.045   6.424   0.140  1.4274 -1.0208  0.9488
  290MOL0     H40003   9.904   6.308  -0.029  1.8216  1.6637 -0.1527
  290MOL0     H40004   8.695   4.944   0.741 -0.4681 -0.4266  0.0846
  290MOL0     H40005   8.474   4.849   0.822 -0.2799 -0.8733 -0.4038
  290MOL0     H40006   8.045   4.875   0.821 -0.6770  0.6828 -0.7311
  290MOL0     H40007   7.837   4.778   0.913 -1.3891 -2.9521 -0.2111
  290MOL0     H40008   7.652   4.443   0.693  0.7264  0.4773  1.2023
  290MOL0     H40009   7.561   4.452   0.845 -1.5872  0.6775 -0.4425
  290MOL0     H40010   7.484   4.560   0.604  2.1499 -0.7231 -0.2023
  290MOL0     H40011   7.564   4.695   0.674  1.7871 -0.5238 -1.1344
  290MOL0     H40012   7.355   4.732   0.762  0.2208 -0.3795  0.5778
  290MOL0     H40013   7.319   4.559   0.798  2.4603 -3.1414 -0.6988
  290MOL0     H40014   7.533   4.710   0.939  0.9056  0.6827 -2.7665
  290MOL0     H40015   7.439   4.577   0.997  2.8932  0.7140  0.4550
  290MOL0     H40016   7.195   4.935   1.058  0.6632  0.4508  1.0270
  290MOL0     H40017   7.839   4.479   0.620 -2.8115  2.0746 -2.1206
  290MOL0     H40018   8.012   4.451   0.468 -1.8431  0.1189  2.5069
  290MOL0     H40019   8.072   4.616   0.416  2.2291  1.0935  0.7049
  290MOL0     H40020   8.178   4.521   0.499  0.3754  1.8899  0.7494
  291MOL0     O40021   1.827   2.810   4.216  0.7765 -0.2008 -0.4714
  291MOL0     C40022   1.865   2.864   4.324  1.1622  0.3463  0.6099
  291MOL0     O40023   1.993   2.891   4.357  0.1416 -0.6156  1.1249
  291MOL0     C40024   2.087   2.824   4.286  0.0283  0.0986  0.5953
  291MOL0     C40025   2.146   2.704   4.339 -0.8443 -0.0476  0.6897
  291MOL0     C40026   2.244   2.629   4.267  0.7012 -0.2274  0.0027
  291MOL0     C40027   2.283   2.674   4.138 -0.0613 -0.2533 -0.1679
  291MOL0     O40028   2.381   2.603   4.060  0.3708  1.2856 -0.1933
  291MOL0     C40029   2.439   2.486   4.120 -0.3424  0.6491  0.3151
  291MOL0     C40030   2.548   2.504   4.224  0.0095  0.2904  0.4935
  291MOL0     C40031   2.655   2.587   4.147  0.0658  0.0712  0.2387
  291MOL0     C40032   2.748   2.665   4.248 -0.3465  0.1890  0.0325
  291MOL0     C40033   2.859   2.729   4.161 -0.4443  0.1767 -0.7692
  291MOL0     C40034   2.983   2.649   4.106 -0.6882 -0.4087 -0.3246
  291MOL0     C40035   2.960   2.516   4.038  0.7676  0.4425 -0.3278
  291MOL0     C40036   3.077   2.463   3.953 -0.5598 -0.1879  0.4683
  291MOL0     N40037   3.202   2.419   4.014  0.1055 -0.0889 -0.9752
  291MOL0     C40038   3.289   2.511   4.072 -0.7835 -0.1425 -0.5285
  291MOL0     C40039   3.375   2.431   4.148  0.3155  0.2413  0.4104
  291MOL0     C40040   3.493   2.479   4.233  0.0438  0.6007 -0.3052
  291MOL0     C40041   3.621   2.430   4.167  0.6617  0.7720  0.9139
  291MOL0     C40042   3.673   2.520   4.053 -0.6072  1.1139 -0.5885
  291MOL0     C40043   3.814   2.466   4.012  0.3969  0.1665 -0.4996
  291MOL0     O40044   3.831   2.317   3.984 -0.4127 -0.2883 -0.6790
  291MOL0     C40045   3.939   2.262   4.055 -0.1001  1.2418  0.2538
  291MOL0     C40046   3.941   2.116   4.079  0.8598 -0.0638 -0.1620
  291MOL0     C40047   4.046   2.057   4.161  0.1062  0.1351  0.1692
  291MOL0     C40048   4.027   1.902   4.171 -0.2929  0.3470 -0.2364
  291MOL0     C40049   4.163   2.141   4.192 -0.0868  1.0073 -0.0331
  291MOL0     C40050   4.290   2.080   4.239  0.9318 -0.2745 -1.4163
  291MOL0     O40051   4.362   2.163   4.323  0.3134  0.9696 -0.6324
  291MOL0     C40052   4.436   2.098   4.417  0.5360  0.6821 -0.3162
  291MOL0     C40053   4.368   2.030   4.521 -0.1899  0.6991 -0.0539
  291MOL0     C40054   4.443   1.949   4.617 -0.6773 -0.1505 -0.8762
  291MOL0     C40055   4.584   1.954   4.619 -0.2097  0.1577  0.4554
  291MOL0     O40056   4.654   1.878   4.704  0.1588  0.0875 -0.0361
  291MOL0     C40057   4.663   1.735   4.659 -0.7023 -0.9078  0.4177
  291MOL0     C40058   4.808   1.679   4.679 -0.7418  0.6879 -0.5591
  291MOL0     C40059   4.863   1.683   4.835  0.0836 -0.0458 -0.2541
  291MOL0     C40060   4.761   1.619   4.925  0.2557 -0.8571 -0.0363
  291MOL0     C40061   4.823   1.605   5.060 -0.9041  0.2701 -0.1552
  291MOL0     C40062   4.930   1.483   5.048 -0.7021 -0.2927 -0.5127
  291MOL0     C40063   4.964   1.435   5.188  0.1743  0.7585  0.2354
  291MOL0     C40064   5.084   1.336   5.182 -0.2377  0.2914  0.2805
  291MOL0    Cl40065   5.065   1.187   5.077 -0.3659  0.0224  0.5177
  291MOL0     C40066   4.654   2.033   4.525  0.4590  1.1977 -0.2260
  291MOL0     C40067   4.576   2.113   4.430  0.0942 -0.3355  0.1571
  291MOL0     O40068   4.320   1.969   4.205  0.4267  0.2344  0.5977
  291MOL0     C40069   4.173   2.265   4.138 -0.5031 -1.3088  0.4697
  291MOL0     C40070   4.061   2.333   4.085 -0.3654 -0.9711  0.0644
  291MOL0     N40071   3.332   2.303   4.137 -0.7030  0.3429 -0.6934
  291MOL0     N40072   3.228   2.295   4.063 -0.2870 -0.3094  0.7313
  291MOL0     C40073   2.215   2.779   4.083  0.3486  0.0583  0.4419
  291MOL0     C40074   2.126   2.860   4.159 -0.4489  0.5795  0.7361
  291MOL0     C40075   1.759   2.897   4.417 -0.4930 -0.3204 -0.4191
  291MOL0     C40076   1.793   2.981   4.529  0.5748 -0.2302 -0.1218
  291MOL0     C40077   1.699   3.017   4.624 -0.1394 -0.6918 -0.0500
  291MOL0     C40078   1.564   2.986   4.605  0.6624  0.2424  0.0300
  291MOL0     O40079   1.469   3.036   4.684 -0.2251  0.0774  0.0039
  291MOL0     C40080   1.479   3.180   4.702 -1.2458  0.1142  0.6706
  291MOL0     C40081   1.368   3.227   4.781  0.7817 -0.6423 -0.6506
  291MOL0     C40082   1.227   3.175   4.736  0.3979  0.2969 -0.4340
  291MOL0     C40083   1.105   3.235   4.817 -1.0900  0.7795  1.2007
  291MOL0     C40084   1.104   3.201   4.957  0.1961  0.7461 -0.5307
  291MOL0     C40085   1.109   3.177   5.076  0.2520  0.3904  0.3522
  291MOL0     C40086   1.523   2.908   4.497 -0.5648 -0.3956  0.6270
  291MOL0     C40087   1.620   2.865   4.400  0.1348  1.5270  1.1316
  291MOL0     C40088   1.554   2.785   4.287 -0.9259 -0.5471 -1.0493
  291MOL0     H40089   2.124   2.654   4.433 -1.3820 -4.5144 -1.5724
  291MOL0     H40090   2.256   2.538   4.325  2.4431  0.9466  1.6007
  291MOL0     H40091   2.474   2.433   4.031 -0.7684 -0.4383  0.7860
  291MOL0     H40092   2.357   2.429   4.164 -2.8235  2.1682 -2.0363
  291MOL0     H40093   2.492   2.559   4.300 -2.4532  1.3194 -1.8683
  291MOL0     H40094   2.593   2.414   4.266  1.4292  0.6573 -0.1894
  291MOL0     H40095   2.710   2.515   4.086  1.0124  1.9597 -1.2278
  291MOL0     H40096   2.612   2.662   4.080  0.5175  0.5331  0.4643
  291MOL0     H40097   2.688   2.735   4.307 -2.6576 -1.7643  0.1369
  291MOL0     H40098   2.799   2.601   4.319  0.9202  1.6860  0.5248
  291MOL0     H40099   2.896   2.810   4.225 -0.1357 -2.0144  2.0427
  291MOL0     H40100   2.809   2.778   4.077  0.5090  0.8896 -0.9422
  291MOL0     H40101   3.035   2.711   4.033 -2.8624  1.2801 -0.5344
  291MOL0     H40102   3.040   2.628   4.197  0.0019 -0.1021 -0.6764
  291MOL0     H40103   2.880   2.534   3.965  2.0158  1.4511 -1.4776
  291MOL0     H40104   2.933   2.430   4.101 -0.1273 -0.3801 -1.7572
  291MOL0     H40105   3.045   2.378   3.891  3.0105  1.0660 -3.5612
  291MOL0     H40106   3.110   2.531   3.874  3.0802 -2.4499 -0.1795
  291MOL0     H40107   3.292   2.619   4.058 -0.1273  0.3006  2.4365
  291MOL0     H40108   3.490   2.450   4.338  1.6927  1.1156 -0.0961
  291MOL0     H40109   3.494   2.589   4.228  0.4637  0.5886 -0.5712
  291MOL0     H40110   3.691   2.416   4.250 -0.5715  2.3417  2.2754
  291MOL0     H40111   3.593   2.331   4.130 -2.2618  2.6079 -2.4098
  291MOL0     H40112   3.613   2.513   3.962  0.2103 -5.1953 -1.0584
  291MOL0     H40113   3.680   2.624   4.088  0.7672  0.3642  1.5046
  291MOL0     H40114   3.842   2.513   3.917  0.3982  2.1386  0.4114
  291MOL0     H40115   3.889   2.505   4.082 -0.5365 -0.1249  0.6898
  291MOL0     H40116   3.859   2.053   4.047 -0.9809  0.3233  3.3121
  291MOL0     H40117   4.066   1.851   4.082  5.3424  3.6671 -0.1262
  291MOL0     H40118   3.920   1.892   4.191 -0.3891  2.0251  0.1979
  291MOL0     H40119   4.085   1.860   4.255  1.9740  3.9067  0.1754
  291MOL0     H40120   4.261   2.021   4.505 -0.0146  1.6821 -2.2641
  291MOL0     H40121   4.395   1.896   4.698  1.6863  3.8361  3.6905
  291MOL0     H40122   4.599   1.682   4.730 -1.8037  1.7575  1.5640
  291MOL0     H40123   4.624   1.723   4.558 -2.8332  0.2323  1.0350
  291MOL0     H40124   4.788   1.574   4.657  1.7508 -0.9692  3.9431
  291MOL0     H40125   4.885   1.708   4.607  2.3667  0.0706  2.2540
  291MOL0     H40126   4.887   1.783   4.871 -2.9443  0.1817  1.4608
  291MOL0     H40127   4.960   1.631   4.837  1.0506  1.6925  0.3916
  291MOL0     H40128   4.715   1.527   4.887 -1.0294  0.2701 -1.3432
  291MOL0     H40129   4.685   1.698   4.932  1.1929 -0.0010  0.8510
  291MOL0     H40130   4.886   1.691   5.085  1.3843 -0.6237 -2.2729
  291MOL0     H40131   4.760   1.580   5.145  1.5491  0.4225  1.8456
  291MOL0     H40132   5.021   1.515   4.997 -1.0162  0.1291 -0.8151
  291MOL0     H40133   4.879   1.405   4.990 -2.5776 -1.9354  3.0546
  291MOL0     H40134   4.869   1.398   5.229 -1.5239 -0.0065 -3.8660
  291MOL0     H40135   4.997   1.521   5.247 -0.0658  1.5032 -0.7058
  291MOL0     H40136   5.092   1.308   5.288  0.3941  0.0132  0.1686
  291MOL0     H40137   5.174   1.395   5.160  0.2016 -0.0819  1.0246
  291MOL0     H40138   4.763   2.037   4.520  0.4267  1.5120 -0.8404
  291MOL0     H40139   4.619   2.187   4.363 -1.9181 -1.3109 -2.3671
  291MOL0     H40140   4.261   2.326   4.155 -2.3712  1.9798 -0.8164
  291MOL0     H40141   4.084   2.437   4.064  2.5978 -1.7210 -0.9940
  291MOL0     H40142   2.230   2.804   3.978  0.0658  0.3053  0.4574
  291MOL0     H40143   2.074   2.942   4.111 -0.7202  0.0235  0.0548
  291MOL0     H40144   1.896   3.013   4.537  1.6699 -3.1987 -1.2953
  291MOL0     H40145   1.740   3.078   4.705  2.8023 -1.0742 -1.1240
  291MOL0     H40146   1.567   3.210   4.759 -0.8364  0.6778 -0.2334
  291MOL0     H40147   1.496   3.232   4.607  1.2463 -1.2319  0.2828
  291MOL0     H40148   1.359   3.336   4.775 -0.1357 -0.7273 -1.1073
  291MOL0     H40149   1.383   3.201   4.886 -1.3805 -1.1811 -0.4089
  291MOL0     H40150   1.215   3.185   4.628  0.4998 -0.3775 -0.5090
  291MOL0     H40151   1.227   3.070   4.765 -2.4396 -0.0314 -1.3153
  291MOL0     H40152   1.013   3.188   4.781  0.6175 -0.8399 -1.2941
  291MOL0     H40153   1.101   3.345   4.813  0.5387  0.9214  2.5376
  291MOL0     H40154   1.109   3.158   5.181  0.4784 -2.5105 -0.1107
  291MOL0     H40155   1.420   2.889   4.470 -0.1027  0.0526 -1.7384
  291MOL0     H40156   1.455   2.741   4.304  0.2202 -2.4015  1.3295
  291MOL0     H40157   1.544   2.837   4.191 -3.5733  1.1134 -0.0080
  291MOL0     H40158   1.609   2.693   4.266 -2.0682 -1.1406 -1.5553
  292MOL0     O40159   2.334  10.188  10.969 -0.5075  0.1649 -0.2400
  292MOL0     C40160   2.321  10.304  10.988  0.0605  0.0130  0.9298
  292MOL0     O40161   2.356  10.361  11.111  0.1907 -0.7050  0.2066
  292MOL0     C40162   2.434  10.308  11.203 -0.9699  0.0374 -0.2446
  292MOL0     C40163   2.485  10.182  11.214  0.1250 -0.1330  0.3949
  292MOL0     C40164   2.580  10.141  11.303  0.6432  0.0686  0.0462
  292MOL0     C40165   2.632  10.235  11.393  0.1938 -0.3879 -0.4457
  292MOL0     O40166   2.723  10.185  11.488  0.2573 -0.6693  0.5350
  292MOL0     C40167   2.773  10.270  11.582 -0.9606 -0.5620 -0.4824
  292MOL0     C40168   2.889  10.351  11.508  0.3100  0.2730  0.3563
  292MOL0     C40169   3.001  10.266  11.459 -0.7307  0.1568 -0.0961
  292MOL0     C40170   3.020  10.141  11.555 -1.0836  0.6536 -0.1977
  292MOL0     C40171   3.120  10.037  11.491  0.6609  0.4793  0.1534
  292MOL0     C40172   3.126   9.925  11.586  0.1606 -0.1646  0.1215
  292MOL0     C40173   3.206   9.802  11.527  0.2068  0.1284  0.1598
  292MOL0     C40174   3.187   9.679  11.625  0.3379 -0.4318  1.2805
  292MOL0     N40175   3.237   9.554  11.560  0.6994 -0.4049  0.2962
  292MOL0     C40176   3.158   9.480  11.469  0.0462 -0.3674 -0.7929
  292MOL0     C40177   3.234   9.377  11.429 -0.1818 -0.7500 -0.9591
  292MOL0     C40178   3.188   9.277  11.331 -0.2670 -1.3683 -0.2644
  292MOL0     C40179   3.139   9.155  11.402  0.5251 -0.4735  0.4515
  292MOL0     C40180   3.100   9.041  11.309 -0.3705  1.1511  0.7945
  292MOL0     C40181   3.022   8.932  11.385  0.3591  0.6052 -0.4203
  292MOL0     O40182   3.110   8.885  11.485  0.2708 -0.1866 -0.0253
  292MOL0     C40183   3.059   8.803  11.587  0.9019 -0.7703  1.2165
  292MOL0     C40184   3.133   8.792  11.703 -0.0530 -0.0364  0.5758
  292MOL0     C40185   3.092   8.722  11.818  0.9416  0.1200 -0.0784
  292MOL0     C40186   3.191   8.727  11.924  0.7936  0.1185  0.0243
  292MOL0     C40187   2.961   8.658  11.825 -0.2880 -0.8094  0.3547
  292MOL0     C40188   2.913   8.572  11.931 -0.2765 -0.8594 -0.4195
  292MOL0     O40189   2.947   8.600  12.068 -0.5528  0.0148  0.0717
  292MOL0     C40190   2.909   8.506  12.159  0.1091 -0.1073 -0.2083
  292MOL0     C40191   2.783   8.500  12.215 -0.2748  0.3648  0.5107
  292MOL0     C40192   2.751   8.425  12.328 -0.2913 -0.6565 -0.2813
  292MOL0     C40193   2.851   8.340  12.379  0.9440  0.0499 -0.2076
  292MOL0     O40194   2.803   8.263  12.485  0.2760 -0.3858 -0.2711
  292MOL0     C40195   2.898   8.224  12.588  0.0969 -0.6526  0.4363
  292MOL0     C40196   2.822   8.179  12.709  0.4258 -0.4142 -0.0235
  292MOL0     C40197   2.902   8.074  12.784  0.3834  0.4288  0.1067
  292MOL0     C40198   2.815   8.023  12.898 -0.4474 -0.1561  0.0906
  292MOL0     C40199   2.894   7.924  12.987 -1.0197  0.3798 -0.3779
  292MOL0     C40200   2.972   7.985  13.103  1.3095  0.3024  0.4117
  292MOL0     C40201   3.099   7.911  13.149  0.8171 -0.5409  0.0833
  292MOL0     C40202   3.208   8.020  13.172  0.3162 -0.9415  0.3296
  292MOL0    Cl40203   3.293   8.071  13.017  0.4604  0.7746  0.4923
  292MOL0     C40204   2.971   8.334  12.318 -0.0158 -1.4167 -0.2955
  292MOL0     C40205   3.010   8.419  12.211  0.4063 -0.0359 -1.2604
  292MOL0     O40206   2.845   8.477  11.892 -0.0574 -0.1103 -0.9723
  292MOL0     C40207   2.884   8.681  11.708  0.8019  1.0131 -0.0849
  292MOL0     C40208   2.925   8.756  11.593  0.4137 -0.0671 -0.0899
  292MOL0     N40209   3.356   9.402  11.487  0.1077 -0.2478 -0.1970
  292MOL0     N40210   3.359   9.508  11.558  0.1776  0.3668 -0.3278
  292MOL0     C40211   2.576  10.365  11.401 -0.1675  0.6112 -0.1317
  292MOL0     C40212   2.488  10.398  11.302  0.0350  0.4157 -0.4658
  292MOL0     C40213   2.245  10.392  10.902 -0.8920  0.2701 -0.0074
  292MOL0     C40214   2.152  10.475  10.962  0.0492  0.1784 -0.2292
  292MOL0     C40215   2.064  10.543  10.873  0.0889 -0.5083 -0.0408
  292MOL0     C40216   2.070  10.541  10.728 -0.1799  0.0233  0.2232
  292MOL0     O40217   1.989  10.619  10.651  0.0093 -0.1139 -0.1844
  292MOL0     C40218   1.987  10.606  10.507  0.5129 -0.1466  0.5231
  292MOL0     C40219   2.079  10.706  10.441  0.4456  0.1344 -0.3721
  292MOL0     C40220   2.063  10.851  10.487 -0.2855 -0.1187  1.2623
  292MOL0     C40221   2.110  10.878  10.626  0.5294 -1.2416  0.2759
  292MOL0     C40222   2.123  11.020  10.644 -0.4728 -0.3333 -0.4834
  292MOL0     C40223   2.167  11.129  10.643  0.2076  0.6929  0.1304
  292MOL0     C40224   2.184  10.481  10.676  0.1721  0.4131 -0.4423
  292MOL0     C40225   2.266  10.400  10.761 -0.1905  0.5867  0.4611
  292MOL0     C40226   2.367  10.314  10.685 -0.0006  0.3983 -0.5650
  292MOL0     H40227   2.440  10.108  11.149  0.2545  2.2038 -2.5649
  292MOL0     H40228   2.619  10.040  11.304 -2.5728 -1.2836  0.1367
  292MOL0     H40229   2.802  10.220  11.674  1.3642  2.5775  0.6432
  292MOL0     H40230   2.691  10.323  11.631 -2.3776  2.1961 -5.1578
  292MOL0     H40231   2.870  10.411  11.419  1.9628  0.7482  0.2792
  292MOL0     H40232   2.928  10.422  11.582 -1.9760 -0.8314  2.7864
  292MOL0     H40233   2.973  10.236  11.358 -4.0633  3.8880 -0.5178
  292MOL0     H40234   3.087  10.334  11.453 -1.1632  0.8503  1.2679
  292MOL0     H40235   3.069  10.179  11.645  4.4339  1.8363 -3.2517
  292MOL0     H40236   2.926  10.091  11.581 -1.0263  2.1473  3.6543
  292MOL0     H40237   3.222  10.066  11.465  0.1482  1.4010 -0.9120
  292MOL0     H40238   3.068  10.001  11.402  0.9324 -1.9729  0.9153
  292MOL0     H40239   3.198   9.957  11.661  4.2321 -1.5196 -2.8156
  292MOL0     H40240   3.029   9.895  11.626  0.7863  0.9472  2.6829
  292MOL0     H40241   3.314   9.819  11.527  0.1617  0.6386 -1.9080
  292MOL0     H40242   3.175   9.776  11.425  0.3529  3.1889 -0.7583
  292MOL0     H40243   3.249   9.709  11.710  0.5931 -0.0330  0.9578
  292MOL0     H40244   3.086   9.669  11.666  1.4688 -0.8100  4.2617
  292MOL0     H40245   3.055   9.496  11.438  0.0058  1.8101  0.2984
  292MOL0     H40246   3.271   9.237  11.271  0.5666 -0.4096  0.2293
  292MOL0     H40247   3.111   9.326  11.270 -1.1140 -1.6563  0.5524
  292MOL0     H40248   3.221   9.117  11.464 -0.1917  0.7058  2.2177
  292MOL0     H40249   3.048   9.182  11.456 -1.9874  1.5942 -4.2021
  292MOL0     H40250   3.037   9.092  11.236 -0.2132  1.0856  0.6127
  292MOL0     H40251   3.187   8.988  11.269 -0.2616  1.5142  0.5565
  292MOL0     H40252   2.940   8.976  11.444  1.4831  0.1871  1.5491
  292MOL0     H40253   3.001   8.844  11.324  2.7705  0.7920 -1.6426
  292MOL0     H40254   3.227   8.846  11.704 -0.7027  1.1297  1.7397
  292MOL0     H40255   3.279   8.667  11.901 -0.7195 -1.7795 -1.0189
  292MOL0     H40256   3.147   8.694  12.019 -1.1221  2.9223  0.2287
  292MOL0     H40257   3.219   8.832  11.937 -2.2699  0.8711  1.5005
  292MOL0     H40258   2.702   8.568  12.190  0.0350 -0.0975 -1.8947
  292MOL0     H40259   2.657   8.416  12.381 -0.5701 -2.9974 -1.0518
  292MOL0     H40260   2.946   8.134  12.549 -0.1185 -0.2000 -0.9477
  292MOL0     H40261   2.982   8.289  12.614 -1.2765 -0.2527  4.5562
  292MOL0     H40262   2.792   8.259  12.777  0.4026 -1.4115  1.1741
  292MOL0     H40263   2.731   8.131  12.672  2.1563 -2.5551 -1.7827
  292MOL0     H40264   2.995   8.120  12.817  0.4660  1.2623 -1.2156
  292MOL0     H40265   2.927   7.987  12.723 -1.3935  0.2347 -0.4087
  292MOL0     H40266   2.729   7.972  12.854 -1.1107  2.6576 -2.1250
  292MOL0     H40267   2.758   8.103  12.945 -0.9236  0.2898 -1.2088
  292MOL0     H40268   2.825   7.851  13.030  0.0240 -0.8554 -0.7286
  292MOL0     H40269   2.966   7.873  12.921 -1.0980  2.1857 -1.9434
  292MOL0     H40270   2.907   7.998  13.190 -0.9367  2.0879 -1.3997
  292MOL0     H40271   2.992   8.087  13.070 -3.0462  2.4288  3.3792
  292MOL0     H40272   3.130   7.835  13.077 -1.4222 -1.6571  0.2082
  292MOL0     H40273   3.073   7.850  13.237  1.2938 -0.7184  0.1008
  292MOL0     H40274   3.272   7.969  13.246  0.5099 -2.1819 -0.6588
  292MOL0     H40275   3.162   8.108  13.218 -0.0078 -1.9888  2.1416
  292MOL0     H40276   3.059   8.275  12.344  2.7478  2.2267 -0.5206
  292MOL0     H40277   3.110   8.411  12.168  0.4736 -0.4014 -1.0338
  292MOL0     H40278   2.782   8.646  11.714  1.4788 -0.9923  0.6139
  292MOL0     H40279   2.863   8.788  11.510 -3.0829  1.4066  2.8251
  292MOL0     H40280   2.609  10.445  11.467 -1.6647 -0.0814  1.5359
  292MOL0     H40281   2.454  10.501  11.312 -1.9869 -0.1210 -1.3508
  292MOL0     H40282   2.158  10.489  11.070 -0.2495  1.3526 -0.3515
  292MOL0     H40283   1.984  10.605  10.912 -0.3769 -0.7224 -0.6328
  292MOL0     H40284   2.008  10.504  10.475  1.2414  0.4970 -1.1966
  292MOL0     H40285   1.886  10.640  10.483  0.7136 -1.9085 -3.6780
  292MOL0     H40286   2.060  10.710  10.333  1.9313 -0.0754 -0.6662
  292MOL0     H40287   2.185  10.683  10.457  0.4844  0.1649 -0.5877
  292MOL0     H40288   2.115  10.913  10.414 -1.6653 -1.0002 -0.5502
  292MOL0     H40289   1.959  10.881  10.468  0.4606  0.2174 -3.3999
  292MOL0     H40290   2.206  10.831  10.649  2.9139  2.2664 -1.4769
  292MOL0     H40291   2.027  10.846  10.689  0.3810  0.2030  0.8604
  292MOL0     H40292   2.225  11.216  10.619  1.4410 -0.5608 -1.8487
  292MOL0     H40293   2.214  10.505  10.574 -1.8767  0.2945 -1.1195
  292MOL0     H40294   2.454  10.286  10.744 -1.0666 -0.0107  0.8813
  292MOL0     H40295   2.325  10.216  10.661 -1.0424  0.8103 -0.5072
  292MOL0     H40296   2.400  10.360  10.591  2.8278  2.3347  1.2119
  293MOL0     O40297   3.296   5.932   7.917 -0.0890  1.0279 -0.1597
  293MOL0     C40298   3.316   5.999   8.011 -0.1743  0.4829 -0.8533
  293MOL0     O40299   3.225   6.087   8.067  0.1595 -0.6968 -0.0773
  293MOL0     C40300   3.093   6.090   8.029  0.4162  0.3917 -0.5986
  293MOL0     C40301   3.023   6.212   8.046  1.3803  0.0462 -0.9530
  293MOL0     C40302   2.885   6.217   8.009 -0.0003 -0.3225 -1.3475
  293MOL0     C40303   2.829   6.111   7.942  0.3044  0.6251 -0.1730
  293MOL0     O40304   2.700   6.107   7.898 -0.6231 -0.1144 -0.6902
  293MOL0     C40305   2.617   6.071   8.010  1.1835  0.2765 -0.4134
  293MOL0     C40306   2.474   6.042   7.948 -0.1832 -0.0835 -0.5105
  293MOL0     C40307   2.462   5.923   7.846 -0.1829 -0.0396  0.2515
  293MOL0     C40308   2.536   5.798   7.889  0.7445 -0.5028 -1.2242
  293MOL0     C40309   2.481   5.673   7.818  0.6257 -0.2022 -0.1088
  293MOL0     C40310   2.496   5.541   7.892  0.0174  0.8505  1.0418
  293MOL0     C40311   2.475   5.425   7.790  0.4923  0.1907 -0.7135
  293MOL0     C40312   2.324   5.414   7.782 -0.0717 -0.1026 -0.3209
  293MOL0     N40313   2.283   5.311   7.691  0.5331  0.4604 -0.6232
  293MOL0     C40314   2.358   5.224   7.621  0.1453  0.2295  0.1946
  293MOL0     C40315   2.272   5.162   7.531  0.0293  0.3321  0.3950
  293MOL0     C40316   2.290   5.033   7.445  0.4813  0.0891  0.0963
  293MOL0     C40317   2.237   4.916   7.530 -0.2574  1.1680 -0.0532
  293MOL0     C40318   2.234   4.797   7.437  0.1966  0.4543 -0.4758
  293MOL0     C40319   2.168   4.666   7.496 -0.3528 -0.6530 -0.5254
  293MOL0     O40320   2.036   4.705   7.539 -0.0443  1.0157  0.7284
  293MOL0     C40321   1.982   4.596   7.617 -0.0080 -0.0822  0.3166
  293MOL0     C40322   2.035   4.582   7.747 -0.4762 -0.3676 -0.7715
  293MOL0     C40323   1.987   4.474   7.827  0.4473 -0.2421 -0.3773
  293MOL0     C40324   2.030   4.467   7.968 -0.2640  1.1072  0.1651
  293MOL0     C40325   1.892   4.385   7.775 -0.1450  0.9060 -0.2348
  293MOL0     C40326   1.827   4.266   7.847 -1.1361  0.2659  0.4379
  293MOL0     O40327   1.799   4.164   7.767 -0.5153 -0.2231 -0.0639
  293MOL0     C40328   1.700   4.078   7.796 -0.6864  0.6279  1.1615
  293MOL0     C40329   1.587   4.100   7.878  1.2063 -0.8468  0.2226
  293MOL0     C40330   1.504   3.996   7.918 -0.4719 -0.3406  0.3205
  293MOL0     C40331   1.523   3.872   7.870 -0.1512  0.9140 -0.3800
  293MOL0     O40332   1.418   3.782   7.897 -0.1205  0.2916  0.0825
  293MOL0     C40333   1.438   3.640   7.879  0.2130 -0.6687 -0.4442
  293MOL0     C40334   1.379   3.570   8.011  0.1159  0.2617  0.1281
  293MOL0     C40335   1.233   3.601   8.045 -0.3975 -0.1419  0.7647
  293MOL0     C40336   1.135   3.613   7.922 -0.0446  0.8731 -0.4241
  293MOL0     C40337   1.009   3.534   7.945  1.2695 -0.2115 -0.4919
  293MOL0     C40338   0.922   3.524   7.819  0.7550  1.2623  0.2199
  293MOL0     C40339   0.776   3.469   7.854 -0.6740 -0.1632 -0.4623
  293MOL0     C40340   0.772   3.339   7.933  0.0339 -1.4662  0.4502
  293MOL0    Cl40341   0.603   3.297   7.968 -0.3944  0.2965  0.3306
  293MOL0     C40342   1.621   3.847   7.769  0.0068 -0.6443  0.5933
  293MOL0     C40343   1.707   3.955   7.726  0.1902  1.3531 -1.0930
  293MOL0     O40344   1.831   4.253   7.968  0.3012  0.6057  0.1699
  293MOL0     C40345   1.854   4.398   7.639 -0.9021 -0.0418 -0.3161
  293MOL0     C40346   1.894   4.502   7.563  0.2575 -1.0221  0.7193
  293MOL0     N40347   2.144   5.206   7.563 -0.0682 -0.2232  0.5848
  293MOL0     N40348   2.155   5.279   7.674  0.2891  0.1718  0.7719
  293MOL0     C40349   2.899   5.993   7.927  1.0664 -0.3589 -0.6339
  293MOL0     C40350   3.024   5.980   7.967 -0.1942  0.0304 -0.1534
  293MOL0     C40351   3.450   5.988   8.074  0.2664  0.2628  0.1176
  293MOL0     C40352   3.490   6.090   8.159 -0.2084 -1.0483  0.1759
  293MOL0     C40353   3.606   6.105   8.218 -0.3093 -1.1797  0.3283
  293MOL0     C40354   3.697   6.000   8.203  1.3183 -0.7488  0.1220
  293MOL0     O40355   3.810   5.998   8.274  0.8952  0.3662  0.6220
  293MOL0     C40356   3.794   5.958   8.412  0.2806 -0.1933  0.5817
  293MOL0     C40357   3.814   5.804   8.433  0.0360 -0.6880 -0.7252
  293MOL0     C40358   3.968   5.777   8.435 -0.0565 -0.3110  0.4210
  293MOL0     C40359   3.988   5.630   8.462 -0.2117  0.2447  0.9843
  293MOL0     C40360   3.918   5.538   8.368  0.0086  0.6636 -0.4432
  293MOL0     C40361   3.867   5.473   8.281  0.2374 -1.0941  0.4000
  293MOL0     C40362   3.670   5.885   8.125 -0.0539  0.1786  0.3253
  293MOL0     C40363   3.541   5.875   8.063  0.0309 -0.6596 -0.0832
  293MOL0     C40364   3.509   5.743   7.986 -0.1060  0.3082 -0.0601
  293MOL0     H40365   3.058   6.306   8.089 -1.9224  0.5368  0.9367
  293MOL0     H40366   2.821   6.301   8.032  0.4267  0.1180 -1.7443
  293MOL0     H40367   2.599   6.153   8.081 -0.2238  0.2578 -0.7089
  293MOL0     H40368   2.655   5.979   8.055 -2.1541 -0.9149  0.2466
  293MOL0     H40369   2.415   6.025   8.039 -1.3121 -0.4325 -1.2880
  293MOL0     H40370   2.422   6.128   7.906  0.2659 -0.4147 -1.7653
  293MOL0     H40371   2.357   5.891   7.851  0.0330 -1.1078 -1.3864
  293MOL0     H40372   2.479   5.963   7.745 -0.8910  3.5792  1.4220
  293MOL0     H40373   2.639   5.802   7.853  0.6386 -0.6752 -1.5492
  293MOL0     H40374   2.518   5.805   7.997  3.4414  2.3710 -0.8146
  293MOL0     H40375   2.521   5.663   7.717 -2.3194 -3.2601 -1.1676
  293MOL0     H40376   2.373   5.683   7.807 -0.0414 -4.0660  1.3784
  293MOL0     H40377   2.601   5.541   7.922  1.6784  0.1489 -3.8632
  293MOL0     H40378   2.431   5.536   7.980 -3.6953 -2.1858 -1.5229
  293MOL0     H40379   2.520   5.333   7.827 -1.4619 -0.2962  0.6232
  293MOL0     H40380   2.519   5.461   7.696  4.4153 -2.7767 -0.2337
  293MOL0     H40381   2.283   5.403   7.883  0.9720 -1.9428 -0.0354
  293MOL0     H40382   2.281   5.504   7.738  0.3376 -0.2684 -1.0879
  293MOL0     H40383   2.465   5.205   7.625  0.0922 -0.7262 -1.8389
  293MOL0     H40384   2.396   5.021   7.421  0.7291 -1.3021  1.6696
  293MOL0     H40385   2.231   5.040   7.354  0.8608 -3.2559 -0.5128
  293MOL0     H40386   2.310   4.920   7.610  0.5177  2.9093 -0.7894
  293MOL0     H40387   2.136   4.934   7.567 -1.5625 -1.7439 -1.7814
  293MOL0     H40388   2.162   4.829   7.361 -0.6242  0.1458  0.1586
  293MOL0     H40389   2.337   4.789   7.400  0.0912 -2.4086 -0.3305
  293MOL0     H40390   2.147   4.589   7.422 -0.3509 -0.3557 -0.8428
  293MOL0     H40391   2.228   4.623   7.576  2.1634  0.6919 -1.5678
  293MOL0     H40392   2.108   4.652   7.785  0.7683  0.2854 -4.0360
  293MOL0     H40393   2.116   4.534   7.981  2.3657 -2.1591  1.0228
  293MOL0     H40394   2.067   4.368   7.994 -0.7233  1.0596  0.6440
  293MOL0     H40395   1.951   4.482   8.041  0.2902  2.7657  0.4766
  293MOL0     H40396   1.576   4.192   7.934 -1.0101 -1.9362  1.7098
  293MOL0     H40397   1.433   4.031   7.992 -0.8925  0.7552 -0.5716
  293MOL0     H40398   1.397   3.603   7.785  0.3883  0.0371 -0.8047
  293MOL0     H40399   1.544   3.614   7.891  0.0367 -1.2837 -0.1516
  293MOL0     H40400   1.389   3.461   8.002  1.9757  0.4351 -0.1057
  293MOL0     H40401   1.443   3.599   8.094  1.1044  0.4838 -0.6994
  293MOL0     H40402   1.243   3.699   8.092  4.1807  0.0219 -0.0231
  293MOL0     H40403   1.196   3.533   8.122 -0.2443  2.2651  3.1049
  293MOL0     H40404   1.185   3.581   7.830 -0.0125  0.9481 -0.4335
  293MOL0     H40405   1.097   3.714   7.905 -2.3781  0.2829  0.8959
  293MOL0     H40406   1.033   3.431   7.973 -3.2190 -1.2202  0.5782
  293MOL0     H40407   0.949   3.581   8.024  1.1224 -0.6128 -0.3629
  293MOL0     H40408   0.969   3.456   7.748  0.8480  2.0449 -0.4711
  293MOL0     H40409   0.902   3.625   7.784 -1.4428  1.2608  1.2970
  293MOL0     H40410   0.725   3.457   7.758 -1.1400  0.9657 -0.3750
  293MOL0     H40411   0.722   3.543   7.914  1.3789 -1.2392  3.0101
  293MOL0     H40412   0.810   3.361   8.033 -1.5668 -4.2852  1.8041
  293MOL0     H40413   0.827   3.253   7.893  1.8898 -0.9223  1.6921
  293MOL0     H40414   1.638   3.748   7.728 -0.2966 -0.6943  0.5874
  293MOL0     H40415   1.784   3.933   7.652 -0.0357  0.4941 -1.0871
  293MOL0     H40416   1.804   4.313   7.594  4.7357 -4.8712  1.2252
  293MOL0     H40417   1.870   4.523   7.460  1.1005  1.4538  0.9764
  293MOL0     H40418   2.830   5.916   7.894 -5.0048  2.8273  2.8543
  293MOL0     H40419   3.074   5.889   7.936 -0.6839  0.8604 -3.8564
  293MOL0     H40420   3.421   6.171   8.180 -0.2945 -1.8383  3.5306
  293MOL0     H40421   3.621   6.190   8.283 -1.4326  1.2730 -2.4321
  293MOL0     H40422   3.866   6.007   8.478  0.0238  0.5756  0.3028
  293MOL0     H40423   3.690   5.973   8.442 -0.6672  0.0126 -2.4599
  293MOL0     H40424   3.753   5.739   8.370 -2.6654  0.6528  0.3196
  293MOL0     H40425   3.779   5.781   8.534  2.9101 -0.2703  0.4469
  293MOL0     H40426   4.016   5.821   8.347 -2.7720 -1.6799 -1.9225
  293MOL0     H40427   4.013   5.827   8.521  3.6613  1.7917 -2.4540
  293MOL0     H40428   3.959   5.603   8.564  0.3563 -0.4114  0.9805
  293MOL0     H40429   4.096   5.614   8.462  0.0187  1.7326  1.1609
  293MOL0     H40430   3.825   5.434   8.190  0.8031 -1.0911  0.1313
  293MOL0     H40431   3.744   5.808   8.108  1.6179  0.8922  3.5429
  293MOL0     H40432   3.525   5.657   8.053 -2.3111 -1.4448 -1.6164
  293MOL0     H40433   3.409   5.729   7.945  0.0959 -2.1765  0.1045
  293MOL0     H40434   3.569   5.738   7.895  0.1512 -3.6684  0.1596
  294MOL0     O40435   5.233   2.588   8.639 -0.1459 -0.4140  0.2900
  294MOL0     C40436   5.213   2.583   8.763  0.4442  0.1551  1.0411
  294MOL0     O40437   5.164   2.478   8.826 -0.2095 -0.3562  0.5221
  294MOL0     C40438   5.125   2.369   8.751 -0.3745  0.6870 -0.8748
  294MOL0     C40439   5.019   2.367   8.665  0.6087 -0.3367  0.4278
  294MOL0     C40440   4.982   2.252   8.592 -0.8607  0.0949 -0.4841
  294MOL0     C40441   5.055   2.129   8.620  0.8985 -0.4211  0.2680
  294MOL0     O40442   5.010   2.001   8.585 -0.2802 -0.7174 -0.5093
  294MOL0     C40443   4.882   1.990   8.528  0.3817  0.1431 -0.5001
  294MOL0     C40444   4.880   1.867   8.439  0.2590 -0.2219 -0.1886
  294MOL0     C40445   4.891   1.736   8.519  0.5136  0.0816 -0.3904
  294MOL0     C40446   4.847   1.600   8.454 -0.7977 -0.2912  0.5581
  294MOL0     C40447   4.888   1.477   8.543 -0.5897 -0.6609  0.7370
  294MOL0     C40448   4.829   1.358   8.461  0.0997  0.8804  0.3554
  294MOL0     C40449   4.859   1.220   8.527  0.1300 -0.4139  0.8099
  294MOL0     C40450   5.000   1.162   8.493  0.4892  0.0117 -0.7331
  294MOL0     N40451   5.000   1.015   8.524  0.0248  0.0084  0.2744
  294MOL0     C40452   4.976   0.947   8.641 -0.4517 -0.3157 -0.6032
  294MOL0     C40453   4.988   0.813   8.612  0.2462 -0.1343  0.5193
  294MOL0     C40454   5.009   0.712   8.716 -0.1285 -0.1573 -0.4517
  294MOL0     C40455   5.156   0.713   8.772  0.0824  0.2017 -0.6757
  294MOL0     C40456   5.256   0.654   8.666 -0.7542  0.1846  0.3358
  294MOL0     C40457   5.237   0.507   8.628 -0.5333  0.0393 -0.8305
  294MOL0     O40458   5.246   0.427   8.753  0.5839 -0.9755  0.4950
  294MOL0     C40459   5.303   0.304   8.753  0.5111  0.2377 -0.1695
  294MOL0     C40460   5.276   0.234   8.871 -0.3037  0.3059 -0.1592
  294MOL0     C40461   5.322   0.105   8.888  1.3804  0.5103 -0.8145
  294MOL0     C40462   5.256   0.035   8.998  0.7854  0.2154  0.0886
  294MOL0     C40463   5.413   0.047   8.801 -0.0114 -0.9383  0.6425
  294MOL0     C40464   5.497  -0.076   8.831  0.1727  0.0339  1.2503
  294MOL0     O40465   5.479  -0.133   8.954 -0.1599 -0.1661 -0.3420
  294MOL0     C40466   5.537  -0.253   8.970  0.8282 -0.4335  0.6919
  294MOL0     C40467   5.664  -0.270   8.985 -0.4794  0.2047  0.0314
  294MOL0     C40468   5.719  -0.389   9.012 -0.7346 -0.3684 -0.1319
  294MOL0     C40469   5.640  -0.505   9.027  0.1753  0.6986 -0.0842
  294MOL0     O40470   5.685  -0.636   9.045  0.7637  0.3125  0.3139
  294MOL0     C40471   5.821  -0.640   9.099  0.1055  0.1102  0.9119
  294MOL0     C40472   5.831  -0.797   9.145 -0.8866 -1.1518 -0.4566
  294MOL0     C40473   5.815  -0.876   9.019  0.0480 -0.3097 -0.1241
  294MOL0     C40474   5.872  -1.021   9.039 -0.2863 -0.3406  0.1194
  294MOL0     C40475   5.785  -1.117   8.962 -0.6913  1.1224  0.5567
  294MOL0     C40476   5.850  -1.254   8.992  0.1741 -0.1622  0.7225
  294MOL0     C40477   5.758  -1.377   8.991 -0.8498 -0.2895 -1.3792
  294MOL0     C40478   5.692  -1.365   9.130 -0.0301 -0.1813  0.9456
  294MOL0    Cl40479   5.582  -1.504   9.148 -0.1138 -0.6309  0.4055
  294MOL0     C40480   5.500  -0.484   9.023  0.5535 -0.2783 -0.1912
  294MOL0     C40481   5.445  -0.361   8.982  1.7324 -0.3626 -0.5094
  294MOL0     O40482   5.578  -0.106   8.749 -0.7648 -0.2798  0.1568
  294MOL0     C40483   5.439   0.122   8.683 -0.2348 -0.9196  0.6720
  294MOL0     C40484   5.378   0.243   8.652  0.3826  0.2365  0.3034
  294MOL0     N40485   5.011   0.801   8.477  0.6167  0.7356  0.4010
  294MOL0     N40486   5.015   0.923   8.426  0.9189  0.3836 -0.3745
  294MOL0     C40487   5.160   2.129   8.708 -0.6304 -0.5169 -0.0706
  294MOL0     C40488   5.192   2.248   8.771  0.1629  0.4884 -0.4316
  294MOL0     C40489   5.246   2.702   8.844 -0.3078  0.2357 -0.4007
  294MOL0     C40490   5.298   2.692   8.970  0.6160  0.0564  0.0840
  294MOL0     C40491   5.309   2.799   9.057  0.0287 -0.7900  0.0540
  294MOL0     C40492   5.282   2.928   9.015  0.1899  0.3383 -0.0542
  294MOL0     O40493   5.290   3.042   9.093 -0.2568  0.2301 -0.1389
  294MOL0     C40494   5.354   3.053   9.216 -1.2284  1.1896 -0.3005
  294MOL0     C40495   5.299   3.167   9.305 -0.3471 -0.0829 -0.1142
  294MOL0     C40496   5.303   3.292   9.226  0.5600 -1.2471  0.5016
  294MOL0     C40497   5.246   3.411   9.303  0.4563  0.1304 -0.4684
  294MOL0     C40498   5.097   3.435   9.313  0.5096  0.1098 -0.8352
  294MOL0     C40499   4.982   3.465   9.327  0.2783  0.1337 -0.1256
  294MOL0     C40500   5.230   2.943   8.894  0.2800  0.4382  0.5503
  294MOL0     C40501   5.206   2.834   8.807 -0.2793 -0.4283 -0.2236
  294MOL0     C40502   5.135   2.867   8.681 -0.1061 -0.4430  0.1087
  294MOL0     H40503   4.973   2.464   8.648 -0.6215 -1.1428 -1.2144
  294MOL0     H40504   4.898   2.256   8.523 -0.8054  1.0758 -0.5176
  294MOL0     H40505   4.852   2.074   8.465  2.2302  2.2625  1.2995
  294MOL0     H40506   4.806   1.977   8.606  0.4313  2.0607 -0.0969
  294MOL0     H40507   4.778   1.866   8.399  0.1966  3.2217 -0.4234
  294MOL0     H40508   4.955   1.871   8.360 -2.9100 -2.2868 -3.6238
  294MOL0     H40509   4.993   1.731   8.559  1.1396 -0.6396 -1.9880
  294MOL0     H40510   4.823   1.751   8.604  1.4662  1.5371  0.1527
  294MOL0     H40511   4.740   1.592   8.430 -0.7822  1.1040 -0.1382
  294MOL0     H40512   4.898   1.591   8.358 -1.1689  2.4340 -0.0003
  294MOL0     H40513   4.846   1.473   8.643 -0.3978 -3.4236  0.7823
  294MOL0     H40514   4.997   1.465   8.542 -0.3294  1.3346 -0.6492
  294MOL0     H40515   4.720   1.367   8.460 -0.0980 -1.0520  0.3270
  294MOL0     H40516   4.870   1.357   8.359  2.6806  0.2097  1.3270
  294MOL0     H40517   4.784   1.147   8.495 -0.7787  1.3703 -1.3629
  294MOL0     H40518   4.846   1.239   8.634  1.1770 -0.2796  0.9278
  294MOL0     H40519   5.044   1.186   8.396  2.1714  1.7878  0.3799
  294MOL0     H40520   5.059   1.225   8.561  0.6764  3.1508 -3.5248
  294MOL0     H40521   4.986   0.975   8.746 -0.8849 -3.5975  0.4101
  294MOL0     H40522   4.980   0.612   8.681  2.3908 -1.2646  0.3648
  294MOL0     H40523   4.948   0.749   8.799  2.3157  0.0995  1.3432
  294MOL0     H40524   5.188   0.813   8.801 -1.6751 -0.1090  2.7926
  294MOL0     H40525   5.167   0.652   8.861  2.3147  4.0746  2.0170
  294MOL0     H40526   5.248   0.711   8.572  2.2038  2.3794  1.2625
  294MOL0     H40527   5.361   0.667   8.694 -0.1300  0.1627 -1.8078
  294MOL0     H40528   5.139   0.480   8.589  0.6851 -1.9973 -2.7051
  294MOL0     H40529   5.316   0.481   8.557 -0.4376 -2.7581  0.1705
  294MOL0     H40530   5.220   0.289   8.947  0.0943  1.1622 -0.4678
  294MOL0     H40531   5.300   0.071   9.092 -1.8089  0.1253  1.4151
  294MOL0     H40532   5.259  -0.073   8.984 -0.2123  0.2914 -0.7508
  294MOL0     H40533   5.151   0.061   9.007  0.8543  2.6386 -3.8064
  294MOL0     H40534   5.711  -0.174   9.005 -3.2187  1.5467  0.6129
  294MOL0     H40535   5.827  -0.397   9.015 -0.8158 -1.3785  1.2443
  294MOL0     H40536   5.893  -0.618   9.019  1.9633 -1.9073  1.9176
  294MOL0     H40537   5.833  -0.564   9.176  1.7942  2.7764 -1.7832
  294MOL0     H40538   5.923  -0.811   9.202 -1.0175  0.6651  0.2566
  294MOL0     H40539   5.755  -0.819   9.221  0.1127 -1.3665  0.4984
  294MOL0     H40540   5.877  -0.828   8.943  0.3775  0.5323  0.6580
  294MOL0     H40541   5.710  -0.887   8.991  0.4359 -1.1048 -1.3469
  294MOL0     H40542   5.858  -1.053   9.143  0.6882 -1.4045 -0.0518
  294MOL0     H40543   5.980  -1.027   9.023 -0.1382 -1.4120  1.2925
  294MOL0     H40544   5.685  -1.118   9.007 -1.1274 -0.0679 -0.3891
  294MOL0     H40545   5.776  -1.099   8.854  3.5332  3.3360  0.3421
  294MOL0     H40546   5.898  -1.258   9.090 -1.2770  0.0021  1.4813
  294MOL0     H40547   5.930  -1.262   8.918 -1.1843  0.5580 -0.8936
  294MOL0     H40548   5.818  -1.468   8.980 -1.1157 -0.4380 -1.6413
  294MOL0     H40549   5.700  -1.364   8.898 -2.3315 -1.3053 -0.6328
  294MOL0     H40550   5.635  -1.272   9.137 -1.4975 -0.6028 -2.7841
  294MOL0     H40551   5.765  -1.371   9.211 -0.0121  0.1114  0.9525
  294MOL0     H40552   5.429  -0.566   9.029 -1.8446  1.6264 -1.2089
  294MOL0     H40553   5.340  -0.347   8.960  1.1419 -3.4341 -0.0522
  294MOL0     H40554   5.517   0.084   8.617 -1.7267  1.1497 -2.5214
  294MOL0     H40555   5.407   0.295   8.561  0.5910 -2.1271 -1.0333
  294MOL0     H40556   5.210   2.036   8.736 -1.4672 -1.3434 -1.2088
  294MOL0     H40557   5.283   2.268   8.826 -0.5699 -2.8375  2.3355
  294MOL0     H40558   5.330   2.593   9.001  1.5493  0.1485 -0.5479
  294MOL0     H40559   5.320   2.789   9.164 -1.4811  1.0936  0.4554
  294MOL0     H40560   5.338   2.956   9.265  0.8160  1.5381  1.1725
  294MOL0     H40561   5.462   3.060   9.202 -0.8323  0.7250  2.0300
  294MOL0     H40562   5.355   3.181   9.397 -0.2741  1.4473 -0.3655
  294MOL0     H40563   5.192   3.151   9.321 -0.1217 -1.8438 -0.1612
  294MOL0     H40564   5.409   3.317   9.211  0.6605  0.4665  3.3653
  294MOL0     H40565   5.252   3.285   9.129  0.4719  2.0043  0.1958
  294MOL0     H40566   5.288   3.507   9.270 -0.6052  0.2703 -1.4770
  294MOL0     H40567   5.272   3.395   9.408 -1.4752  0.9080  0.1712
  294MOL0     H40568   4.882   3.502   9.340  1.1390  1.6973  2.8933
  294MOL0     H40569   5.206   3.043   8.859  0.9282 -0.0170 -1.3449
  294MOL0     H40570   5.034   2.829   8.667 -0.3198  1.2819 -5.3027
  294MOL0     H40571   5.127   2.974   8.661 -1.5226 -0.8331 -1.6688
  294MOL0     H40572   5.199   2.830   8.600  0.9705  0.6757  0.4123
  295MOL0     O40573   6.942   3.534   7.425 -0.4740 -0.5720 -0.3481
  295MOL0     C40574   7.028   3.489   7.344 -0.4448 -0.8589  0.0210
  295MOL0     O40575   7.082   3.564   7.237 -0.2743  0.3085 -0.0497
  295MOL0     C40576   7.067   3.704   7.247  0.5992  0.0409 -0.4060
  295MOL0     C40577   6.998   3.778   7.150  0.5206 -0.0494 -0.7409
  295MOL0     C40578   6.955   3.910   7.172  0.6428  0.3299 -0.7160
  295MOL0     C40579   6.999   3.983   7.280  0.3382 -0.2372  0.7426
  295MOL0     O40580   6.967   4.106   7.305  0.9715 -0.0824 -0.1305
  295MOL0     C40581   6.828   4.150   7.289 -0.4935  0.0540 -0.6534
  295MOL0     C40582   6.736   4.127   7.406 -0.8798 -0.0723  0.3978
  295MOL0     C40583   6.689   3.974   7.396 -0.0330 -0.0274  0.1823
  295MOL0     C40584   6.597   3.938   7.511  0.1560 -0.4434  0.5907
  295MOL0     C40585   6.543   3.797   7.477  0.4988 -0.6620 -0.5460
  295MOL0     C40586   6.473   3.740   7.597  0.0570  1.1151 -0.1893
  295MOL0     C40587   6.431   3.605   7.578  1.2750  0.0004  0.5749
  295MOL0     C40588   6.554   3.510   7.618  0.3365 -0.1387 -0.4673
  295MOL0     N40589   6.560   3.369   7.575 -0.3974 -0.1633  0.8560
  295MOL0     C40590   6.548   3.339   7.443  0.1323 -0.0257 -0.2092
  295MOL0     C40591   6.532   3.205   7.448 -0.6608 -0.0499 -0.9788
  295MOL0     C40592   6.507   3.119   7.331 -0.9732  0.4576 -0.0134
  295MOL0     C40593   6.637   3.092   7.257  0.1445  0.0371 -0.1907
  295MOL0     C40594   6.725   3.000   7.345  0.3089 -0.4052 -1.0145
  295MOL0     C40595   6.836   2.942   7.245  0.1955  0.9891 -0.0418
  295MOL0     O40596   6.796   2.868   7.132  1.0954  0.0249 -0.4628
  295MOL0     C40597   6.891   2.797   7.066 -0.2656 -0.2104  0.5789
  295MOL0     C40598   6.844   2.705   6.975 -0.0239 -0.2259 -0.5007
  295MOL0     C40599   6.932   2.643   6.885  0.0410 -0.1683 -0.5055
  295MOL0     C40600   6.880   2.536   6.796 -0.7335 -0.2604  0.4396
  295MOL0     C40601   7.074   2.673   6.898 -0.4764 -1.0067  0.7459
  295MOL0     C40602   7.173   2.592   6.822  0.8142  0.4956  0.1343
  295MOL0     O40603   7.244   2.652   6.728 -0.0811  0.1316 -0.0948
  295MOL0     C40604   7.172   2.734   6.641 -0.3523  0.2651 -0.9484
  295MOL0     C40605   7.093   2.681   6.541 -0.1631 -0.0702 -0.1152
  295MOL0     C40606   7.026   2.766   6.457 -0.6745 -0.4522  0.0640
  295MOL0     C40607   7.011   2.902   6.498 -0.6899 -0.1839 -0.8317
  295MOL0     O40608   6.929   2.992   6.433 -0.0068  0.2997 -0.8665
  295MOL0     C40609   6.826   2.942   6.351  0.9020  0.0389 -0.0969
  295MOL0     C40610   6.710   3.048   6.356 -0.9178 -0.0090 -0.6853
  295MOL0     C40611   6.607   3.014   6.246  0.2284 -0.0519 -0.3296
  295MOL0     C40612   6.490   3.110   6.234  0.2446  0.1566  0.0946
  295MOL0     C40613   6.385   3.076   6.126 -0.0076 -0.1404 -0.3141
  295MOL0     C40614   6.245   3.141   6.139  0.5510 -0.0120  0.6793
  295MOL0     C40615   6.231   3.289   6.082 -0.2857  0.1288  0.2856
  295MOL0     C40616   6.088   3.340   6.116 -0.2972  0.1234  0.6894
  295MOL0    Cl40617   6.038   3.494   6.033 -0.0380  0.0677  0.1284
  295MOL0     C40618   7.087   2.952   6.605  0.7583 -0.3411 -0.3837
  295MOL0     C40619   7.177   2.867   6.668 -0.4746 -0.0178 -0.6640
  295MOL0     O40620   7.199   2.479   6.865  0.1183  0.1650 -0.2149
  295MOL0     C40621   7.118   2.769   6.992 -1.1014  0.9552 -0.1555
  295MOL0     C40622   7.029   2.833   7.071 -0.0748  0.2776 -0.3626
  295MOL0     N40623   6.530   3.163   7.575  0.0597 -0.5484  0.6736
  295MOL0     N40624   6.550   3.260   7.655  0.0904 -0.3108 -1.0668
  295MOL0     C40625   7.079   3.917   7.376 -0.9045 -0.6066  0.6935
  295MOL0     C40626   7.114   3.779   7.356  0.1050 -0.4072 -0.1835
  295MOL0     C40627   7.045   3.336   7.334 -0.1748 -0.5019  0.0991
  295MOL0     C40628   7.127   3.285   7.228 -0.4293  1.0258  0.4323
  295MOL0     C40629   7.169   3.153   7.228  0.2339 -0.3947  0.3912
  295MOL0     C40630   7.147   3.073   7.338 -0.0243  0.0107  0.3503
  295MOL0     O40631   7.196   2.942   7.339 -0.2095 -0.3114  0.4297
  295MOL0     C40632   7.255   2.883   7.453  0.8030  0.3690  0.0040
  295MOL0     C40633   7.361   2.782   7.408 -0.3874  0.0145 -0.0361
  295MOL0     C40634   7.323   2.688   7.294  0.0424 -0.6293  1.0900
  295MOL0     C40635   7.398   2.554   7.273  0.2854 -0.1830 -0.3372
  295MOL0     C40636   7.362   2.474   7.388  1.5950 -0.3865  0.2832
  295MOL0     C40637   7.355   2.405   7.489  1.1676  0.5889 -0.3358
  295MOL0     C40638   7.059   3.116   7.433  0.0160  1.2587  0.1774
  295MOL0     C40639   7.005   3.241   7.435 -0.1036  0.0965  0.1604
  295MOL0     C40640   6.903   3.286   7.539  0.1210 -0.2398  0.3648
  295MOL0     H40641   6.967   3.717   7.066 -0.3530 -0.2120 -0.3113
  295MOL0     H40642   6.883   3.949   7.101  1.7208  2.0715 -0.8995
  295MOL0     H40643   6.785   4.115   7.195  0.3865 -3.2934  0.0482
  295MOL0     H40644   6.840   4.258   7.285  2.0555 -0.1833 -1.6403
  295MOL0     H40645   6.785   4.138   7.503  0.2186  1.6751 -0.2979
  295MOL0     H40646   6.653   4.199   7.407 -1.0819 -0.3054  0.5740
  295MOL0     H40647   6.642   3.959   7.298 -0.7743  0.4344  0.4554
  295MOL0     H40648   6.774   3.908   7.414 -0.9544 -2.3250 -2.9794
  295MOL0     H40649   6.664   3.929   7.597  2.8933 -2.3576 -1.5366
  295MOL0     H40650   6.527   4.019   7.531  1.9333  1.1403  0.7453
  295MOL0     H40651   6.623   3.735   7.436  0.6724  0.0845 -1.3755
  295MOL0     H40652   6.472   3.816   7.396  2.8554 -1.5626 -2.9839
  295MOL0     H40653   6.554   3.741   7.670  0.3475  1.5380 -0.5149
  295MOL0     H40654   6.396   3.805   7.641 -0.1033  0.5158  0.4322
  295MOL0     H40655   6.395   3.580   7.478  1.1688 -0.9295  0.8326
  295MOL0     H40656   6.349   3.583   7.646 -1.2135  2.0969 -1.5332
  295MOL0     H40657   6.644   3.560   7.580 -0.7225 -0.1764 -3.2658
  295MOL0     H40658   6.558   3.501   7.727 -3.6632 -1.2088 -0.2391
  295MOL0     H40659   6.533   3.403   7.357 -3.4166 -0.4830 -0.0743
  295MOL0     H40660   6.431   3.159   7.264  2.6671  1.8567 -3.7865
  295MOL0     H40661   6.472   3.026   7.377 -0.4324  1.5539  2.8690
  295MOL0     H40662   6.612   3.039   7.164  2.6248  0.5539 -1.2279
  295MOL0     H40663   6.671   3.188   7.217 -1.9801  1.5192  1.3508
  295MOL0     H40664   6.770   3.055   7.427 -1.5369  0.8982 -0.8112
  295MOL0     H40665   6.663   2.919   7.386  2.4546 -1.0115  1.2752
  295MOL0     H40666   6.899   3.027   7.215  1.8272  0.1844  0.9280
  295MOL0     H40667   6.908   2.883   7.303 -1.6439  0.1377  1.4799
  295MOL0     H40668   6.741   2.672   6.978  0.0330 -0.3260  0.4297
  295MOL0     H40669   6.899   2.572   6.695 -0.1904  0.4138  0.7725
  295MOL0     H40670   6.775   2.512   6.817 -0.5017 -1.8471 -0.1023
  295MOL0     H40671   6.937   2.443   6.796  0.1501  0.2600 -0.6189
  295MOL0     H40672   7.081   2.573   6.539 -1.1707  0.0378 -1.9703
  295MOL0     H40673   6.960   2.728   6.380 -2.1461 -2.1727  2.0464
  295MOL0     H40674   6.853   2.921   6.247 -0.8536 -1.6776 -0.2663
  295MOL0     H40675   6.781   2.856   6.400 -2.0215  1.8107  0.5557
  295MOL0     H40676   6.674   3.060   6.458  3.1175  1.2549  0.7876
  295MOL0     H40677   6.763   3.141   6.335 -0.4086 -0.4122 -1.2091
  295MOL0     H40678   6.568   2.912   6.254  0.5880 -0.5002 -3.1766
  295MOL0     H40679   6.655   3.012   6.148  1.4874 -4.5014  0.1484
  295MOL0     H40680   6.531   3.210   6.221 -1.0456  1.2740  3.6037
  295MOL0     H40681   6.433   3.112   6.327  0.4835  3.9808  0.3064
  295MOL0     H40682   6.431   3.100   6.029  1.5540 -0.1495  0.4045
  295MOL0     H40683   6.379   2.968   6.140  4.7918 -0.5087  0.4887
  295MOL0     H40684   6.221   3.143   6.246  0.3362 -0.1741  0.6359
  295MOL0     H40685   6.172   3.081   6.084 -0.3939 -0.5724  2.4484
  295MOL0     H40686   6.254   3.299   5.975  2.3194  1.2334  0.8580
  295MOL0     H40687   6.316   3.339   6.129 -1.1859  0.9822  1.0494
  295MOL0     H40688   6.093   3.357   6.224  2.2175  0.4005  0.6116
  295MOL0     H40689   6.007   3.269   6.099 -1.9657  1.3618  2.9970
  295MOL0     H40690   7.074   3.054   6.640 -1.2926 -0.8702  0.5281
  295MOL0     H40691   7.250   2.900   6.742 -0.9508  0.3856 -0.3721
  295MOL0     H40692   7.224   2.790   6.997 -0.3533 -2.4872  3.8357
  295MOL0     H40693   7.071   2.906   7.140  2.6092 -2.1759  0.8146
  295MOL0     H40694   7.120   3.978   7.457  0.5146  2.1364 -1.8803
  295MOL0     H40695   7.160   3.735   7.444  1.3046  1.1602  0.0156
  295MOL0     H40696   7.142   3.342   7.137  2.6767  0.5090  0.5202
  295MOL0     H40697   7.225   3.111   7.145  1.5394 -2.0047  2.0080
  295MOL0     H40698   7.313   2.960   7.505 -2.0915  4.4388 -2.2563
  295MOL0     H40699   7.185   2.825   7.514  1.1584 -1.7890 -1.5228
  295MOL0     H40700   7.386   2.715   7.491 -0.0934 -1.5669 -1.3463
  295MOL0     H40701   7.452   2.840   7.386  0.0981 -1.4705 -2.3573
  295MOL0     H40702   7.214   2.678   7.291 -0.1505  1.1785  1.0052
  295MOL0     H40703   7.350   2.751   7.209  2.4637 -1.9010  0.8461
  295MOL0     H40704   7.506   2.569   7.258  0.3908  0.4193  0.8882
  295MOL0     H40705   7.358   2.502   7.186  0.8912 -1.1330 -0.0581
  295MOL0     H40706   7.354   2.333   7.569  1.2828  2.2218  1.1859
  295MOL0     H40707   7.024   3.049   7.511 -3.2140  1.6895 -0.7447
  295MOL0     H40708   6.934   3.367   7.606  3.1919 -1.8309  1.0954
  295MOL0     H40709   6.814   3.310   7.480 -0.0782 -0.3502  0.6219
  295MOL0     H40710   6.870   3.193   7.585 -1.4669 -1.7637 -3.4146
  296MOL0     O40711  10.359   8.709  11.299  0.0705 -0.0199 -0.2618
  296MOL0     C40712  10.347   8.784  11.202 -0.4437 -1.0684  0.8208
  296MOL0     O40713  10.331   8.924  11.212  0.8598  0.4556  0.5323
  296MOL0     C40714  10.298   8.979  11.333 -0.4082 -0.8762 -0.4400
  296MOL0     C40715  10.167   9.012  11.361  0.2492  0.0172 -0.1588
  296MOL0     C40716  10.117   9.050  11.481 -0.6929  0.1978  0.2236
  296MOL0     C40717  10.211   9.065  11.586 -0.1242  0.5367 -0.0282
  296MOL0     O40718  10.181   9.132  11.705 -0.3960 -0.0926 -0.2248
  296MOL0     C40719  10.053   9.136  11.774 -0.7597 -1.0560 -1.2641
  296MOL0     C40720  10.066   9.137  11.929 -1.0764 -0.4237 -0.0688
  296MOL0     C40721  10.161   9.037  11.990  0.4316  0.5552  1.0189
  296MOL0     C40722  10.190   9.069  12.132 -0.7118 -0.9692  0.2450
  296MOL0     C40723  10.271   8.962  12.207  0.5693 -0.4055 -0.1236
  296MOL0     C40724  10.173   8.875  12.288  0.5543  0.2420 -0.1029
  296MOL0     C40725  10.248   8.743  12.302 -0.2642  0.0191 -0.6000
  296MOL0     C40726  10.169   8.633  12.379 -0.4737 -0.0384  0.8268
  296MOL0     N40727  10.055   8.596  12.296  0.0659 -0.0607 -0.0675
  296MOL0     C40728  10.040   8.550  12.165 -1.0206 -0.1113 -0.5960
  296MOL0     C40729   9.912   8.562  12.136  0.2810  0.5848 -0.7149
  296MOL0     C40730   9.833   8.524  12.015  0.1998 -0.6544  0.0147
  296MOL0     C40731   9.856   8.617  11.900 -0.0503  0.6262  1.1930
  296MOL0     C40732   9.816   8.766  11.941  0.3794 -0.5949  1.1925
  296MOL0     C40733   9.671   8.788  12.002 -0.9098  0.6613 -1.3134
  296MOL0     O40734   9.595   8.732  11.899  0.7467  0.2923 -0.1524
  296MOL0     C40735   9.460   8.716  11.915 -0.3489 -0.1520 -0.1275
  296MOL0     C40736   9.389   8.632  11.823  0.2452 -0.6913 -0.2586
  296MOL0     C40737   9.248   8.632  11.828  0.0457  0.5058  0.6673
  296MOL0     C40738   9.158   8.573  11.718  0.3564  0.2808  0.3005
  296MOL0     C40739   9.185   8.697  11.941 -0.7376  0.9459  1.1562
  296MOL0     C40740   9.040   8.698  11.960 -0.4262  0.2114  0.1223
  296MOL0     O40741   8.974   8.577  11.939 -0.0999 -0.2451  0.2028
  296MOL0     C40742   8.838   8.571  11.954 -0.6605  1.0096 -0.2633
  296MOL0     C40743   8.791   8.437  11.974  0.2116 -1.2187 -0.6071
  296MOL0     C40744   8.652   8.413  11.982 -0.2028  0.4710  0.3495
  296MOL0     C40745   8.559   8.507  11.937 -0.3701 -0.1133 -0.5650
  296MOL0     O40746   8.419   8.489  11.919 -0.1592  0.4383  0.7448
  296MOL0     C40747   8.371   8.362  11.948 -1.6451  1.2470 -0.2397
  296MOL0     C40748   8.361   8.322  12.096  0.5700  0.0671  0.6772
  296MOL0     C40749   8.289   8.193  12.135  0.3151  0.7189 -0.0312
  296MOL0     C40750   8.370   8.060  12.111 -0.6604  0.2747 -1.0609
  296MOL0     C40751   8.279   7.945  12.146 -0.2795  0.2922 -0.2192
  296MOL0     C40752   8.363   7.833  12.212  0.7523  0.6907 -0.5248
  296MOL0     C40753   8.279   7.705  12.237 -0.3032  0.1177 -0.2507
  296MOL0     C40754   8.341   7.587  12.303  0.4130 -0.6954 -0.1539
  296MOL0    Cl40755   8.508   7.583  12.262 -0.1703 -0.0224 -0.1189
  296MOL0     C40756   8.603   8.642  11.912 -0.0431  0.7085  0.0459
  296MOL0     C40757   8.742   8.670  11.922 -0.8080 -0.1295  0.4623
  296MOL0     O40758   8.986   8.797  12.005  0.0559 -0.2477  0.2263
  296MOL0     C40759   9.253   8.766  12.033  0.8899 -0.0746  0.6375
  296MOL0     C40760   9.388   8.789  12.012  0.7608 -0.0156  0.1463
  296MOL0     N40761   9.849   8.635  12.234 -0.1288  0.1922  0.2836
  296MOL0     N40762   9.933   8.650  12.331 -0.6338 -0.5985 -1.0144
  296MOL0     C40763  10.344   9.041  11.557  0.0000 -0.3287 -0.0326
  296MOL0     C40764  10.385   8.996  11.433 -0.1238  0.9092 -0.2662
  296MOL0     C40765  10.374   8.730  11.068 -0.6025  0.0946  0.5018
  296MOL0     C40766  10.333   8.793  10.944 -1.2861  0.1193 -0.6312
  296MOL0     C40767  10.382   8.759  10.819  0.7077  1.8563 -0.3275
  296MOL0     C40768  10.462   8.647  10.809 -0.3820 -0.4376  0.1460
  296MOL0     O40769  10.519   8.611  10.688  0.3553 -0.3319  0.0233
  296MOL0     C40770  10.470   8.683  10.574 -0.4522 -0.0328 -0.6606
  296MOL0     C40771  10.544   8.621  10.457 -0.0608  0.3122 -0.6883
  296MOL0     C40772  10.569   8.731  10.354 -0.4229  0.6670  0.1503
  296MOL0     C40773  10.662   8.686  10.240  0.1331 -0.2255 -1.0058
  296MOL0     C40774  10.585   8.584  10.165 -0.9408 -0.5213  0.4398
  296MOL0     C40775  10.507   8.516  10.096 -0.2050  0.3954  0.2370
  296MOL0     C40776  10.495   8.575  10.919 -1.6172  0.0491 -0.5906
  296MOL0     C40777  10.462   8.615  11.052 -0.2524  0.6060  0.0236
  296MOL0     C40778  10.523   8.524  11.152  0.0298  0.4135  0.0651
  296MOL0     H40779  10.089   8.990  11.289 -0.7880  1.8535  0.3133
  296MOL0     H40780  10.010   9.059  11.497 -1.4268  2.0697 -4.3065
  296MOL0     H40781  10.002   9.040  11.768 -2.4909 -0.1170 -2.3998
  296MOL0     H40782   9.989   9.218  11.742 -0.5242  0.0180  0.8283
  296MOL0     H40783  10.099   9.236  11.961 -2.3075 -0.7543  2.5571
  296MOL0     H40784   9.966   9.130  11.973 -0.9648  0.3129  0.3143
  296MOL0     H40785  10.114   8.939  11.984  2.8661 -0.8746  3.2405
  296MOL0     H40786  10.256   9.027  11.936  0.0263  0.7079  0.2651
  296MOL0     H40787  10.242   9.165  12.132 -2.6390  0.1432  1.0354
  296MOL0     H40788  10.096   9.087  12.184 -0.9912  0.5205 -0.7002
  296MOL0     H40789  10.337   9.018  12.273 -1.0163  0.1047  1.0815
  296MOL0     H40790  10.339   8.915  12.135 -0.8178 -2.5050 -0.1555
  296MOL0     H40791  10.151   8.924  12.383 -1.9224 -3.1876  1.2887
  296MOL0     H40792  10.078   8.858  12.235  1.4431  1.0572 -2.0870
  296MOL0     H40793  10.338   8.767  12.358 -0.7186  2.4992 -0.8296
  296MOL0     H40794  10.264   8.705  12.201 -2.4918 -2.1391 -0.2627
  296MOL0     H40795  10.239   8.553  12.403 -1.2727 -1.3365 -0.9538
  296MOL0     H40796  10.139   8.676  12.475 -0.4852 -0.7486  1.1423
  296MOL0     H40797  10.117   8.505  12.102 -1.2671 -0.4335 -0.6726
  296MOL0     H40798   9.726   8.521  12.038  0.5905  0.4308  2.2889
  296MOL0     H40799   9.872   8.429  11.976  2.1654 -0.1654  0.6742
  296MOL0     H40800   9.963   8.622  11.875 -0.0547  0.6085  1.1732
  296MOL0     H40801   9.808   8.592  11.805  1.1176  2.0490  0.1758
  296MOL0     H40802   9.891   8.809  12.008  1.4338  0.4575 -0.5736
  296MOL0     H40803   9.824   8.834  11.855  1.4959  0.4541  2.0819
  296MOL0     H40804   9.659   8.740  12.100 -1.0535  2.8320 -0.2024
  296MOL0     H40805   9.656   8.894  12.021  1.0256  0.6851  0.5837
  296MOL0     H40806   9.417   8.595  11.725  2.0429  0.4014 -0.1894
  296MOL0     H40807   9.145   8.467  11.738 -0.1551  0.7569  2.9778
  296MOL0     H40808   9.208   8.584  11.622 -0.7407  1.1129 -0.1980
  296MOL0     H40809   9.064   8.625  11.696  0.1013 -0.7854 -1.2870
  296MOL0     H40810   8.866   8.359  11.987  0.4775 -0.8471  0.2042
  296MOL0     H40811   8.610   8.320  12.020 -2.7043  0.6608 -1.7473
  296MOL0     H40812   8.273   8.362  11.898 -0.4984  2.2804 -2.6364
  296MOL0     H40813   8.437   8.291  11.898 -0.1618 -1.4298  4.8103
  296MOL0     H40814   8.458   8.313  12.145  0.6315 -0.6112  0.4338
  296MOL0     H40815   8.306   8.403  12.144 -1.0408 -0.5056 -0.1432
  296MOL0     H40816   8.203   8.186  12.068  0.1017 -2.7724  0.4665
  296MOL0     H40817   8.254   8.194  12.238  1.3864  0.0436  0.3599
  296MOL0     H40818   8.464   8.051  12.166  1.3660  0.7098 -4.2189
  296MOL0     H40819   8.405   8.057  12.008  1.1997  3.0717 -0.5974
  296MOL0     H40820   8.221   7.988  12.228  0.7483  2.6569 -0.6463
  296MOL0     H40821   8.208   7.918  12.068  0.5534  0.1497 -0.9489
  296MOL0     H40822   8.407   7.861  12.309  1.2026  2.1385 -1.1170
  296MOL0     H40823   8.446   7.793  12.153  0.1206 -0.7911 -0.4497
  296MOL0     H40824   8.246   7.667  12.140 -0.1118 -0.0835 -0.2399
  296MOL0     H40825   8.189   7.734  12.290 -2.6269 -4.0662 -1.4308
  296MOL0     H40826   8.279   7.498  12.288 -0.9264  0.2126 -0.1923
  296MOL0     H40827   8.342   7.622  12.407  0.6518 -0.1281 -0.3420
  296MOL0     H40828   8.523   8.711  11.888 -1.4790 -0.1419  2.0650
  296MOL0     H40829   8.790   8.759  11.883 -0.3117 -1.0222 -1.0491
  296MOL0     H40830   9.205   8.811  12.120 -3.1031  1.5206 -2.0749
  296MOL0     H40831   9.440   8.847  12.088  1.6126  0.2603 -0.6243
  296MOL0     H40832  10.416   9.058  11.636 -0.0618 -2.7294  0.6129
  296MOL0     H40833  10.488   8.969  11.413 -1.2694 -2.7341 -2.1654
  296MOL0     H40834  10.278   8.886  10.952  2.9776  2.9525 -1.1426
  296MOL0     H40835  10.338   8.811  10.734 -1.1131  3.7836  1.6740
  296MOL0     H40836  10.366   8.687  10.543 -0.7441  3.4543  0.3482
  296MOL0     H40837  10.505   8.783  10.599  1.4723 -1.2526  2.0296
  296MOL0     H40838  10.507   8.532  10.406  1.6235  2.2808 -5.9195
  296MOL0     H40839  10.643   8.600  10.498 -0.0948  0.3236 -0.5997
  296MOL0     H40840  10.478   8.758  10.299  0.3395 -1.9158 -2.6224
  296MOL0     H40841  10.612   8.823  10.394 -0.0954  0.1008  1.1336
  296MOL0     H40842  10.750   8.640  10.287 -0.8006  0.6394  1.8211
  296MOL0     H40843  10.682   8.762  10.164 -0.8247 -0.5912 -1.6436
  296MOL0     H40844  10.443   8.456  10.036  1.8878 -2.0504  0.2810
  296MOL0     H40845  10.562   8.493  10.896  0.4277  0.9489  1.6952
  296MOL0     H40846  10.593   8.577  11.217 -0.3913 -0.0336  0.9017
  296MOL0     H40847  10.442   8.476  11.209  0.1458 -1.2743 -1.1033
  296MOL0     H40848  10.579   8.438  11.113 -2.5559 -1.3214 -0.0943
  297MOL0     O40849   7.862   6.284   1.435 -0.6216  1.0022  1.0829
  297MOL0     C40850   7.960   6.272   1.512  0.6190 -0.3760 -0.2308
  297MOL0     O40851   7.985   6.159   1.571 -0.0362  0.2928  0.3819
  297MOL0     C40852   7.908   6.042   1.543 -0.0231 -0.8446  0.0423
  297MOL0     C40853   7.898   5.986   1.422  1.0669 -0.1663  0.8679
  297MOL0     C40854   7.812   5.877   1.405  0.6955 -0.1098 -0.5090
  297MOL0     C40855   7.734   5.827   1.511  0.7275  0.4775 -0.3562
  297MOL0     O40856   7.648   5.728   1.485  0.4198  0.3871  0.2471
  297MOL0     C40857   7.666   5.615   1.574  0.3984  0.3692 -0.1457
  297MOL0     C40858   7.567   5.512   1.528 -0.2138  0.4400  0.8480
  297MOL0     C40859   7.648   5.411   1.425  0.1385 -0.5006 -0.4291
  297MOL0     C40860   7.663   5.475   1.291 -0.3789 -0.2566  0.4234
  297MOL0     C40861   7.764   5.403   1.191  0.2288  0.4694  0.1186
  297MOL0     C40862   7.733   5.263   1.136  0.3265  0.3952 -0.1790
  297MOL0     C40863   7.870   5.192   1.112 -1.3026 -0.4734  0.3831
  297MOL0     C40864   7.870   5.048   1.061  0.2223 -0.5264  0.7679
  297MOL0     N40865   7.790   5.037   0.938 -0.4147 -0.3084  0.4799
  297MOL0     C40866   7.802   5.106   0.818  0.1503  0.3274 -0.9216
  297MOL0     C40867   7.684   5.090   0.750 -1.0547  0.1709  0.0020
  297MOL0     C40868   7.660   5.135   0.609  0.9590  0.7261  0.3626
  297MOL0     C40869   7.728   5.048   0.495 -1.2875 -0.4861 -0.0903
  297MOL0     C40870   7.721   4.896   0.530  0.3202  0.0283 -0.1710
  297MOL0     C40871   7.779   4.824   0.407  0.5467  0.0907  1.0576
  297MOL0     O40872   7.923   4.851   0.396 -0.5791 -0.4931 -0.0295
  297MOL0     C40873   7.953   4.911   0.278 -0.3133 -0.6743 -0.6862
  297MOL0     C40874   7.999   5.047   0.271  0.9787  0.4779  0.3562
  297MOL0     C40875   8.014   5.109   0.143  0.2290 -0.3977 -0.6071
  297MOL0     C40876   8.046   5.264   0.143 -0.1483  0.7303 -0.4679
  297MOL0     C40877   8.010   5.042   0.025 -1.0734  0.0146 -0.5235
  297MOL0     C40878   8.014   5.106  -0.113  0.4524  0.3983  1.1032
  297MOL0     O40879   7.988   5.026  -0.221 -0.0898 -0.1434  0.9181
  297MOL0     C40880   7.994   5.078  -0.349  0.8502  0.3888 -1.2885
  297MOL0     C40881   7.913   5.185  -0.393 -0.7012 -0.8624  0.3053
  297MOL0     C40882   7.926   5.232  -0.525 -0.5380 -0.0247  0.0491
  297MOL0     C40883   8.012   5.172  -0.617  1.0445  0.3236  0.3942
  297MOL0     O40884   8.016   5.239  -0.740  0.6626  0.0873  0.3296
  297MOL0     C40885   8.100   5.353  -0.760 -0.6627  0.3810 -0.1472
  297MOL0     C40886   8.240   5.302  -0.771 -0.6449 -0.5604  0.0810
  297MOL0     C40887   8.274   5.207  -0.892  0.0641  0.4427 -0.6248
  297MOL0     C40888   8.227   5.261  -1.026 -0.9361  0.1147  0.3219
  297MOL0     C40889   8.258   5.159  -1.136 -0.2306 -0.9643 -0.1803
  297MOL0     C40890   8.411   5.177  -1.173 -1.0581  0.8645  0.9994
  297MOL0     C40891   8.455   5.061  -1.267 -0.4349  0.2855 -1.6832
  297MOL0     C40892   8.600   5.071  -1.302 -0.2492 -0.0202  0.3294
  297MOL0    Cl40893   8.680   4.960  -1.180  0.6382  0.1496 -0.6496
  297MOL0     C40894   8.087   5.058  -0.575 -0.5972 -0.1646 -0.4268
  297MOL0     C40895   8.088   5.027  -0.433  0.6139 -0.7356 -0.2526
  297MOL0     O40896   8.028   5.225  -0.124 -0.1212 -0.3178  0.1356
  297MOL0     C40897   7.976   4.908   0.036  0.2042 -0.2040 -0.6853
  297MOL0     C40898   7.945   4.846   0.158 -0.1220  0.1327 -0.8267
  297MOL0     N40899   7.597   5.017   0.833 -0.7684  0.2662  0.0823
  297MOL0     N40900   7.668   4.989   0.935  0.0076  0.4565 -0.6890
  297MOL0     C40901   7.747   5.887   1.633 -0.3560 -0.3308 -0.6632
  297MOL0     C40902   7.841   5.986   1.651 -0.0372 -0.5064  1.0392
  297MOL0     C40903   8.042   6.392   1.541  0.5156  0.5749 -0.0058
  297MOL0     C40904   8.097   6.456   1.430  0.1975  0.4229 -0.7845
  297MOL0     C40905   8.196   6.553   1.448 -1.0815  0.1551 -0.0098
  297MOL0     C40906   8.234   6.604   1.577 -0.0822 -0.8335  0.5085
  297MOL0     O40907   8.316   6.715   1.589  0.1258  0.1118 -0.7487
  297MOL0     C40908   8.316   6.805   1.704 -0.5281  0.2792 -0.1464
  297MOL0     C40909   8.407   6.925   1.676 -0.2478 -0.3016 -0.5864
  297MOL0     C40910   8.553   6.886   1.666  0.3061 -0.4546 -0.6086
  297MOL0     C40911   8.651   6.995   1.720  0.4923  0.3606 -0.3368
  297MOL0     C40912   8.779   6.934   1.744  0.1189  0.5185 -0.1339
  297MOL0     C40913   8.891   6.901   1.768 -0.2382 -0.8795  0.3512
  297MOL0     C40914   8.174   6.548   1.688  1.1526 -0.5632 -0.5268
  297MOL0     C40915   8.081   6.437   1.665 -0.4450 -0.0840 -0.1831
  297MOL0     C40916   8.049   6.354   1.781 -0.3723 -0.0309 -0.3226
  297MOL0     H40917   7.954   6.031   1.341  0.9340  2.5533  2.1806
  297MOL0     H40918   7.791   5.848   1.303  0.0760 -0.7718 -0.2054
  297MOL0     H40919   7.640   5.635   1.679  0.6866 -0.7592  0.1588
  297MOL0     H40920   7.767   5.575   1.584 -0.0802 -0.9011 -0.1953
  297MOL0     H40921   7.548   5.445   1.612  0.0843 -1.1105 -0.2650
  297MOL0     H40922   7.476   5.563   1.494  1.4267  2.1335 -1.2200
  297MOL0     H40923   7.745   5.401   1.474 -1.6752  0.7017  3.8624
  297MOL0     H40924   7.593   5.318   1.412 -1.5167  0.2052  1.1015
  297MOL0     H40925   7.565   5.499   1.250  0.4123  0.3187 -1.2106
  297MOL0     H40926   7.709   5.572   1.312 -0.7256 -0.2219  1.0388
  297MOL0     H40927   7.859   5.386   1.243 -0.0840 -0.7252  0.3334
  297MOL0     H40928   7.787   5.477   1.113 -0.0432  0.0927 -0.3272
  297MOL0     H40929   7.674   5.205   1.207 -0.1750  1.0131 -0.0895
  297MOL0     H40930   7.669   5.286   1.050 -0.9966 -0.3491  0.5937
  297MOL0     H40931   7.930   5.198   1.203 -0.0235  3.4269 -0.5311
  297MOL0     H40932   7.921   5.259   1.042  0.3310  0.7031  2.5789
  297MOL0     H40933   7.971   5.012   1.041 -1.1641 -2.9196 -3.1928
  297MOL0     H40934   7.834   4.968   1.127  0.4897 -2.0227 -0.8315
  297MOL0     H40935   7.893   5.148   0.775 -0.3165  0.9646 -1.3062
  297MOL0     H40936   7.695   5.238   0.616 -1.8983  1.8522 -0.6729
  297MOL0     H40937   7.551   5.134   0.607  0.8098  3.1163 -3.0700
  297MOL0     H40938   7.682   5.075   0.399 -0.0007 -1.0444 -0.8822
  297MOL0     H40939   7.832   5.078   0.488 -1.4577 -0.2668 -2.2111
  297MOL0     H40940   7.774   4.868   0.621 -2.3649  0.9400  1.8137
  297MOL0     H40941   7.621   4.855   0.546  1.2035 -1.1246  3.2419
  297MOL0     H40942   7.747   4.722   0.424  0.5166 -0.2237 -0.7324
  297MOL0     H40943   7.727   4.847   0.314  2.6462  1.2741  0.0984
  297MOL0     H40944   8.008   5.108   0.360  1.0897  2.5188 -0.9854
  297MOL0     H40945   8.076   5.305   0.239 -0.8434 -0.3327  0.2382
  297MOL0     H40946   7.953   5.307   0.104 -1.9604 -2.4202 -0.0107
  297MOL0     H40947   8.132   5.272   0.077  0.0931 -2.9268 -0.8325
  297MOL0     H40948   7.839   5.228  -0.327 -3.1412 -1.4644 -1.8370
  297MOL0     H40949   7.880   5.324  -0.560 -0.1692 -1.0954 -3.6505
  297MOL0     H40950   8.077   5.406  -0.853  1.6037 -1.6612 -2.0207
  297MOL0     H40951   8.075   5.421  -0.679  1.0078 -2.0747  2.6267
  297MOL0     H40952   8.302   5.392  -0.781  4.0303 -3.3418  0.8827
  297MOL0     H40953   8.255   5.266  -0.668 -2.7222  2.2228  1.4905
  297MOL0     H40954   8.216   5.120  -0.861  0.4776  0.4850  0.2859
  297MOL0     H40955   8.381   5.189  -0.884 -0.1542 -0.1466  2.9659
  297MOL0     H40956   8.270   5.359  -1.049  0.2162  0.0527  1.9988
  297MOL0     H40957   8.120   5.278  -1.010 -0.9944 -0.3404  0.4387
  297MOL0     H40958   8.216   5.063  -1.105 -3.0664  0.1410 -0.3217
  297MOL0     H40959   8.194   5.187  -1.220 -1.4205 -3.1983 -0.1091
  297MOL0     H40960   8.476   5.162  -1.087 -0.1134 -0.1864  0.1287
  297MOL0     H40961   8.425   5.276  -1.218 -0.2108 -0.6699 -2.4498
  297MOL0     H40962   8.397   5.067  -1.359 -3.1419  1.0994 -0.0351
  297MOL0     H40963   8.438   4.966  -1.216 -0.0303  1.6296  1.1984
  297MOL0     H40964   8.637   5.174  -1.309 -0.7374  0.0943 -0.9288
  297MOL0     H40965   8.616   5.028  -1.401  2.3371  1.9272 -0.2093
  297MOL0     H40966   8.158   5.006  -0.638 -0.0232  0.1946 -0.0811
  297MOL0     H40967   8.157   4.949  -0.403  1.0367 -0.8016 -1.3320
  297MOL0     H40968   7.978   4.849  -0.055  3.3984 -1.1629 -0.1270
  297MOL0     H40969   7.917   4.741   0.152  0.3476 -0.2073  1.8170
  297MOL0     H40970   7.686   5.857   1.718 -3.2560  4.3930 -0.6718
  297MOL0     H40971   7.849   6.017   1.755  0.6857  0.6190  0.6676
  297MOL0     H40972   8.068   6.409   1.336  0.0388  0.6336 -0.8405
  297MOL0     H40973   8.241   6.594   1.358 -0.8781  0.4692  0.2321
  297MOL0     H40974   8.215   6.845   1.718 -2.3107 -2.5876 -3.4401
  297MOL0     H40975   8.355   6.758   1.795 -1.0234 -1.7068 -0.9154
  297MOL0     H40976   8.391   6.996   1.758 -3.5769 -1.4853 -0.0500
  297MOL0     H40977   8.388   6.970   1.578  2.4222  3.8673  0.5358
  297MOL0     H40978   8.582   6.792   1.713  0.5510 -0.2467 -0.3320
  297MOL0     H40979   8.577   6.872   1.560 -3.7499  2.1571 -2.0876
  297MOL0     H40980   8.606   7.016   1.818  0.8532  3.2654 -0.6883
  297MOL0     H40981   8.652   7.076   1.646  1.7211 -2.6130 -3.8308
  297MOL0     H40982   8.991   6.881   1.801  1.5322  2.8330 -2.1598
  297MOL0     H40983   8.197   6.576   1.791 -2.2353 -0.9921  0.4742
  297MOL0     H40984   8.092   6.254   1.768 -0.3472  0.1396 -1.6106
  297MOL0     H40985   8.080   6.398   1.877 -0.2830 -1.8359  0.5194
  297MOL0     H40986   7.940   6.350   1.784 -0.4661  1.5748 -0.7278
  298MOL0     O40987   3.383   7.893  11.321 -0.2972  0.3978 -0.6806
  298MOL0     C40988   3.285   7.968  11.313  0.5555  0.3662  0.1651
  298MOL0     O40989   3.289   8.093  11.283  0.8645  0.5322  0.1974
  298MOL0     C40990   3.404   8.172  11.298 -0.9059  0.1689 -0.4802
  298MOL0     C40991   3.405   8.304  11.258  0.3373 -0.8776  0.4369
  298MOL0     C40992   3.497   8.391  11.298  0.7340 -0.1769 -0.6699
  298MOL0     C40993   3.603   8.364  11.381  0.2676  0.6377  0.8424
  298MOL0     O40994   3.683   8.476  11.402 -0.2877  0.3408 -0.4974
  298MOL0     C40995   3.811   8.436  11.446  0.0253 -0.5274  0.0357
  298MOL0     C40996   3.901   8.566  11.431 -0.2865  0.0399 -0.5454
  298MOL0     C40997   3.860   8.657  11.541 -1.4419 -0.7760 -0.3359
  298MOL0     C40998   3.983   8.770  11.559  0.1066 -0.3971  0.3357
  298MOL0     C40999   3.955   8.867  11.678 -0.5115  0.5063  0.8693
  298MOL0     C41000   4.014   8.799  11.806  0.4185 -0.6938 -0.0104
  298MOL0     C41001   4.018   8.905  11.915 -0.8169 -0.2601 -0.8425
  298MOL0     C41002   4.158   8.975  11.923 -0.3359 -0.3602  0.5706
  298MOL0     N41003   4.172   9.047  12.039  0.2705 -0.8734 -0.4493
  298MOL0     C41004   4.192   9.187  12.040 -0.1934  0.2974 -0.2048
  298MOL0     C41005   4.196   9.219  12.175  0.2496 -0.4864 -0.7147
  298MOL0     C41006   4.182   9.346  12.245  0.5075 -0.0326 -0.3064
  298MOL0     C41007   4.298   9.439  12.215 -0.0178 -0.5941 -0.5632
  298MOL0     C41008   4.273   9.525  12.097  0.5784  0.2792 -0.5142
  298MOL0     C41009   4.409   9.593  12.052  0.8527  0.7267 -0.5636
  298MOL0     O41010   4.469   9.660  12.165 -0.1652  1.1307 -0.8438
  298MOL0     C41011   4.602   9.641  12.167 -1.1164  0.2595 -0.2553
  298MOL0     C41012   4.695   9.650  12.050  0.0141 -0.0851  0.4245
  298MOL0     C41013   4.825   9.602  12.060 -0.9182  1.3574 -0.1724
  298MOL0     C41014   4.913   9.643  11.945 -0.0182 -0.1774 -0.4620
  298MOL0     C41015   4.874   9.544  12.180  1.0302 -0.5641 -0.4218
  298MOL0     C41016   5.005   9.480  12.210  0.8436 -1.0106  0.2297
  298MOL0     O41017   5.018   9.387  12.316  0.1867 -0.9668 -0.2846
  298MOL0     C41018   5.144   9.330  12.338  0.8127 -0.6877 -0.5066
  298MOL0     C41019   5.206   9.263  12.232  0.0564 -0.1436  0.0132
  298MOL0     C41020   5.340   9.212  12.239 -0.3936 -0.3792  0.4831
  298MOL0     C41021   5.403   9.221  12.365 -0.4490  1.0853 -0.0292
  298MOL0     O41022   5.535   9.166  12.367 -0.8285  0.0364  0.4713
  298MOL0     C41023   5.651   9.258  12.391  0.9663  0.8769 -0.1665
  298MOL0     C41024   5.657   9.288  12.539  0.4568  0.4310 -0.2198
  298MOL0     C41025   5.798   9.321  12.589 -0.4639  1.1339  0.0062
  298MOL0     C41026   5.921   9.231  12.555  0.8308 -0.3401  0.7513
  298MOL0     C41027   6.047   9.294  12.616  0.7265 -0.2468 -0.8964
  298MOL0     C41028   6.064   9.261  12.770  0.3199 -0.1674  0.8472
  298MOL0     C41029   6.183   9.353  12.837  0.9418  0.1142 -0.1823
  298MOL0     C41030   6.314   9.346  12.761  0.0894  0.1226  0.5413
  298MOL0    Cl41031   6.390   9.179  12.760 -0.5934  0.1370  0.0544
  298MOL0     C41032   5.334   9.274  12.484 -0.4895 -0.6341 -0.1716
  298MOL0     C41033   5.204   9.327  12.472 -0.5121 -1.1275 -0.2493
  298MOL0     O41034   5.094   9.510  12.131  0.4393 -0.4335  0.0416
  298MOL0     C41035   4.784   9.549  12.290 -0.0818  0.2633  0.5164
  298MOL0     C41036   4.659   9.596  12.289 -0.3242  0.8119 -0.3098
  298MOL0     N41037   4.200   9.103  12.250 -0.2925  0.6129  0.2161
  298MOL0     N41038   4.186   8.998  12.167 -0.6702  0.1008 -0.2452
  298MOL0     C41039   3.604   8.236  11.434  0.0392  0.7994  0.1578
  298MOL0     C41040   3.509   8.140  11.396 -0.3188 -0.1458  0.0915
  298MOL0     C41041   3.149   7.923  11.372 -0.3497 -0.3551  0.2565
  298MOL0     C41042   3.091   8.004  11.468 -1.0435 -0.0812 -0.2340
  298MOL0     C41043   2.973   7.953  11.534 -0.9730  0.1199  0.2092
  298MOL0     C41044   2.905   7.834  11.491  0.0856  0.2175 -0.3643
  298MOL0     O41045   2.800   7.789  11.572 -0.4895 -0.0353 -0.7933
  298MOL0     C41046   2.675   7.775  11.500 -0.0060 -0.1383 -0.2330
  298MOL0     C41047   2.578   7.875  11.556  0.4173 -0.2532  0.7204
  298MOL0     C41048   2.571   7.909  11.705 -0.2715  1.0389  0.0055
  298MOL0     C41049   2.535   7.781  11.788 -0.3386 -0.1929  0.3322
  298MOL0     C41050   2.479   7.818  11.924  0.0651 -0.8317 -0.5151
  298MOL0     C41051   2.432   7.849  12.033 -0.2829 -0.3375  0.1919
  298MOL0     C41052   2.965   7.753  11.397 -0.3207  0.9601 -0.3793
  298MOL0     C41053   3.087   7.796  11.340 -0.2885 -0.3369 -0.5821
  298MOL0     C41054   3.153   7.704  11.251  0.2035  0.8968 -0.1348
  298MOL0     H41055   3.318   8.333  11.201 -0.4962 -2.8850  0.6178
  298MOL0     H41056   3.493   8.495  11.269  0.6235 -0.1283 -0.4809
  298MOL0     H41057   3.840   8.355  11.379 -0.0762 -2.9164  2.7113
  298MOL0     H41058   3.805   8.388  11.545 -0.6304 -3.1470 -1.1912
  298MOL0     H41059   4.008   8.545  11.433 -0.1273  0.8442  0.1046
  298MOL0     H41060   3.884   8.605  11.331  2.4818  0.2321 -0.9912
  298MOL0     H41061   3.758   8.695  11.523 -0.8376  1.0587 -0.0972
  298MOL0     H41062   3.863   8.601  11.635  0.0081 -0.0536  0.0783
  298MOL0     H41063   4.079   8.718  11.565 -0.7164 -2.0635 -0.2561
  298MOL0     H41064   3.982   8.835  11.471 -1.7848  0.4773  0.9350
  298MOL0     H41065   3.846   8.865  11.684 -0.5486 -4.5187  3.2610
  298MOL0     H41066   3.991   8.969  11.660  0.2182 -0.0634 -1.2453
  298MOL0     H41067   3.953   8.712  11.829  0.2632 -1.8244 -3.9542
  298MOL0     H41068   4.115   8.760  11.789  2.5378  4.0048  0.2152
  298MOL0     H41069   4.009   8.844  12.006 -1.3929  0.7342 -0.2220
  298MOL0     H41070   3.929   8.968  11.908 -0.3357  0.7517  1.3310
  298MOL0     H41071   4.246   8.911  11.914 -0.5208 -0.3698 -1.8465
  298MOL0     H41072   4.165   9.042  11.837  2.1405 -1.7816 -0.4300
  298MOL0     H41073   4.175   9.261  11.962  2.0951  1.2210  0.1087
  298MOL0     H41074   4.178   9.331  12.354 -1.3034  3.1199  0.1727
  298MOL0     H41075   4.084   9.389  12.224 -0.3464 -0.9277  1.6318
  298MOL0     H41076   4.310   9.511  12.295 -0.8857 -0.4707 -0.5303
  298MOL0     H41077   4.392   9.385  12.198 -0.9274 -3.1710  1.7798
  298MOL0     H41078   4.247   9.463  12.011  0.2472  0.9315 -0.8908
  298MOL0     H41079   4.200   9.604  12.119  1.3557  1.1420 -0.9555
  298MOL0     H41080   4.469   9.508  12.017  0.5777  0.2480  0.0916
  298MOL0     H41081   4.394   9.670  11.976  1.6757  0.0092 -1.4742
  298MOL0     H41082   4.658   9.683  11.954  1.9271  3.6099  0.7435
  298MOL0     H41083   4.941   9.550  11.894 -0.6200  0.4139 -1.9371
  298MOL0     H41084   4.997   9.709  11.969  0.6919 -0.0787 -2.9196
  298MOL0     H41085   4.859   9.702  11.871  0.9928 -0.2419 -1.2735
  298MOL0     H41086   5.149   9.249  12.141  0.6361  4.8385 -1.4542
  298MOL0     H41087   5.393   9.168  12.156 -3.0055 -3.0955  0.0783
  298MOL0     H41088   5.746   9.211  12.362  0.2373 -1.1800  0.6047
  298MOL0     H41089   5.630   9.355  12.346 -0.2310  0.7414  0.0837
  298MOL0     H41090   5.593   9.373  12.563 -4.4979 -2.3923 -2.0576
  298MOL0     H41091   5.604   9.206  12.590 -4.8096  0.5182 -4.5958
  298MOL0     H41092   5.796   9.332  12.698  3.4787  0.8149  0.2559
  298MOL0     H41093   5.826   9.418  12.546 -2.3540  2.0447  0.7338
  298MOL0     H41094   5.938   9.241  12.447  1.8406  2.7314  1.0946
  298MOL0     H41095   5.910   9.130  12.597 -3.7048 -0.8501 -1.1010
  298MOL0     H41096   6.136   9.243  12.576  0.7716  0.5873 -1.8986
  298MOL0     H41097   6.053   9.401  12.596  1.6853 -0.2433 -0.6636
  298MOL0     H41098   6.079   9.155  12.790  1.8893  0.1523  1.5139
  298MOL0     H41099   5.965   9.286  12.809 -0.0118  2.6212 -1.4249
  298MOL0     H41100   6.198   9.298  12.930  5.2489 -0.9087 -1.2278
  298MOL0     H41101   6.156   9.458  12.852  2.5720  0.8327 -1.8944
  298MOL0     H41102   6.377   9.429  12.794 -2.8916  4.8118 -3.9307
  298MOL0     H41103   6.289   9.371  12.657 -0.8882 -3.1632 -0.1458
  298MOL0     H41104   5.382   9.271  12.582 -1.9724  2.7767  0.8143
  298MOL0     H41105   5.160   9.381  12.556  2.2050  4.3201 -1.8513
  298MOL0     H41106   4.818   9.523  12.390 -2.8615  0.3020  1.5422
  298MOL0     H41107   4.605   9.603  12.383  1.1795  2.4494  0.5190
  298MOL0     H41108   3.689   8.213  11.497 -1.5171 -2.4456  1.3156
  298MOL0     H41109   3.524   8.042  11.439  0.7927  0.1527  0.4152
  298MOL0     H41110   3.146   8.091  11.503  0.3159 -0.1395 -2.0264
  298MOL0     H41111   2.940   7.997  11.627 -2.1958  0.3403 -0.3038
  298MOL0     H41112   2.689   7.777  11.391  0.3245 -4.0329 -0.4204
  298MOL0     H41113   2.650   7.671  11.525  0.5604 -1.0563 -3.0629
  298MOL0     H41114   2.478   7.843  11.525  0.8908 -1.0538 -0.0131
  298MOL0     H41115   2.597   7.967  11.500  3.2263 -0.4771  1.1832
  298MOL0     H41116   2.672   7.927  11.741 -0.1726  0.6652 -0.0804
  298MOL0     H41117   2.498   7.987  11.727 -0.8040  0.0394  1.9948
  298MOL0     H41118   2.627   7.722  11.797  0.5813  0.8105 -1.7625
  298MOL0     H41119   2.463   7.724  11.728  0.1112  0.3778 -0.7808
  298MOL0     H41120   2.394   7.856  12.133 -0.5103 -1.4109  0.1960
  298MOL0     H41121   2.923   7.654  11.388 -0.7660  1.0291  0.7896
  298MOL0     H41122   3.204   7.763  11.174  4.6661  0.9723  2.5358
  298MOL0     H41123   3.222   7.636  11.301 -2.9128 -3.3818 -1.1027
  298MOL0     H41124   3.085   7.636  11.200  0.3222  1.2755 -0.8161
  299MOL0     O41125   4.554   1.265   2.050 -0.4037 -0.0064 -1.1624
  299MOL0     C41126   4.605   1.276   2.159  1.3852 -0.2480  0.1157
  299MOL0     O41127   4.688   1.379   2.197  0.0785  0.5829  0.5061
  299MOL0     C41128   4.703   1.482   2.111 -0.4528 -0.3290 -0.0774
  299MOL0     C41129   4.835   1.532   2.081  0.9693  0.1959  0.2782
  299MOL0     C41130   4.851   1.662   2.021 -0.9294 -0.3314  0.6145
  299MOL0     C41131   4.743   1.724   1.961 -0.0085 -0.5414 -0.9927
  299MOL0     O41132   4.770   1.836   1.884  0.3160 -1.1438 -0.6175
  299MOL0     C41133   4.666   1.896   1.805 -0.5595  0.0783  0.3687
  299MOL0     C41134   4.595   2.013   1.883 -0.2594  1.3679  0.0761
  299MOL0     C41135   4.487   2.053   1.786 -0.2390  0.5149  0.2107
  299MOL0     C41136   4.419   2.187   1.834  0.6589  0.5474 -0.2376
  299MOL0     C41137   4.330   2.233   1.710 -1.1319  0.6411  0.2615
  299MOL0     C41138   4.282   2.372   1.726  0.1221  0.2391 -0.1075
  299MOL0     C41139   4.390   2.484   1.721  0.4631 -0.1641  0.7189
  299MOL0     C41140   4.332   2.621   1.704 -0.6605  0.0026 -0.4579
  299MOL0     N41141   4.249   2.650   1.587  0.2680 -0.4677  0.0334
  299MOL0     C41142   4.290   2.656   1.462 -1.0650 -0.2780  0.4697
  299MOL0     C41143   4.181   2.694   1.388 -0.4864  0.3049  0.7532
  299MOL0     C41144   4.190   2.719   1.244 -0.7323  0.9420 -0.4216
  299MOL0     C41145   4.047   2.717   1.176  0.9089  0.5164  0.4437
  299MOL0     C41146   4.054   2.749   1.030  0.7763  0.6168 -0.1674
  299MOL0     C41147   4.104   2.887   0.992  0.4296 -0.2535 -0.0475
  299MOL0     O41148   4.235   2.860   0.922  0.3535  0.3470 -0.8638
  299MOL0     C41149   4.325   2.968   0.889 -0.4865 -0.0233 -0.0775
  299MOL0     C41150   4.458   2.954   0.857 -0.4940 -0.0280 -0.4049
  299MOL0     C41151   4.547   3.060   0.832  0.9820 -0.4434 -1.8210
  299MOL0     C41152   4.691   3.023   0.812 -1.1783  1.0439  0.9421
  299MOL0     C41153   4.497   3.201   0.841  0.0734  1.2194 -0.3111
  299MOL0     C41154   4.578   3.317   0.816  1.3787  0.2914  0.9271
  299MOL0     O41155   4.547   3.420   0.897  0.2931  0.1286 -0.2929
  299MOL0     C41156   4.630   3.528   0.907  0.0102 -0.1404 -0.1727
  299MOL0     C41157   4.722   3.592   0.830 -0.9001  0.5967  0.1500
  299MOL0     C41158   4.786   3.716   0.859  0.0045 -0.3590  0.3711
  299MOL0     C41159   4.762   3.785   0.971  0.1736  0.1242  0.9919
  299MOL0     O41160   4.831   3.903   1.010  0.7826  0.5317 -1.0043
  299MOL0     C41161   4.949   3.936   0.950 -0.3405  0.1661 -0.1626
  299MOL0     C41162   5.040   4.026   1.027  0.3525 -0.8572 -0.4210
  299MOL0     C41163   5.176   4.060   0.966 -0.1777  0.0686  0.7139
  299MOL0     C41164   5.278   4.094   1.064 -0.2122  0.2664  0.1531
  299MOL0     C41165   5.413   4.100   0.998  0.6913  0.1833  0.3413
  299MOL0     C41166   5.515   4.107   1.113 -0.6884  0.1175  0.1971
  299MOL0     C41167   5.662   4.083   1.046  0.9321 -0.3526 -0.2134
  299MOL0     C41168   5.775   4.046   1.145  0.1230 -0.0249  0.6165
  299MOL0    Cl41169   5.864   4.192   1.197  0.4277  0.2638 -0.2598
  299MOL0     C41170   4.660   3.738   1.047  0.3275  0.0194  0.0726
  299MOL0     C41171   4.595   3.609   1.022 -0.7313  0.4842  0.6272
  299MOL0     O41172   4.665   3.322   0.733  0.3877 -0.7424  0.2811
  299MOL0     C41173   4.363   3.208   0.867  0.4175 -0.4871 -0.2453
  299MOL0     C41174   4.284   3.097   0.881 -0.0656 -1.1647  0.2513
  299MOL0     N41175   4.076   2.708   1.470  0.3507  0.1258  0.3512
  299MOL0     N41176   4.111   2.669   1.584 -1.0190  0.5437 -0.8422
  299MOL0     C41177   4.615   1.671   1.988  0.0783  0.3103 -1.2465
  299MOL0     C41178   4.594   1.553   2.063 -0.5008 -0.0704 -0.1905
  299MOL0     C41179   4.570   1.177   2.262  0.3614 -0.2066  0.2731
  299MOL0     C41180   4.625   1.191   2.394  0.0316  0.4054 -1.0338
  299MOL0     C41181   4.597   1.093   2.489  0.7989 -0.5397 -0.3584
  299MOL0     C41182   4.515   0.982   2.472  0.5762  0.8500  0.3522
  299MOL0     O41183   4.490   0.904   2.583 -0.3963  0.3876 -0.1207
  299MOL0     C41184   4.417   0.774   2.569  0.1840  0.7482  0.1322
  299MOL0     C41185   4.381   0.715   2.704  0.3212  0.0577  0.2575
  299MOL0     C41186   4.504   0.687   2.795  0.3467  0.2644 -0.4912
  299MOL0     C41187   4.469   0.576   2.898  0.4100  0.5892  0.6663
  299MOL0     C41188   4.489   0.452   2.832  0.1419  0.2660 -0.0958
  299MOL0     C41189   4.489   0.348   2.773 -0.1625 -0.2482  0.6577
  299MOL0     C41190   4.443   0.979   2.349 -0.3166  0.3334  0.3001
  299MOL0     C41191   4.481   1.066   2.244  0.2254 -0.5546  0.7467
  299MOL0     C41192   4.440   1.011   2.111  0.3141 -0.0850  0.3977
  299MOL0     H41193   4.913   1.467   2.120  0.9983 -0.6752 -1.1756
  299MOL0     H41194   4.947   1.707   1.998 -1.8184  0.5962 -1.6223
  299MOL0     H41195   4.590   1.822   1.778 -1.0850 -0.3241  2.7417
  299MOL0     H41196   4.720   1.931   1.717 -0.9097 -1.5053 -0.5223
  299MOL0     H41197   4.561   1.977   1.981  1.2152  0.8758  0.4371
  299MOL0     H41198   4.659   2.099   1.906  0.4138 -0.0847  4.8236
  299MOL0     H41199   4.543   2.072   1.694  0.9845 -1.3676  0.5153
  299MOL0     H41200   4.415   1.972   1.774 -0.2518  0.3994  0.9875
  299MOL0     H41201   4.371   2.165   1.929 -1.7337 -0.6155 -1.6258
  299MOL0     H41202   4.498   2.256   1.865  2.8372 -1.6316 -0.5993
  299MOL0     H41203   4.249   2.161   1.696  0.3449 -0.7434 -1.9339
  299MOL0     H41204   4.389   2.226   1.618 -2.9307  0.0827 -0.9023
  299MOL0     H41205   4.210   2.391   1.645  0.1557 -1.4303 -0.5658
  299MOL0     H41206   4.235   2.376   1.825 -0.8675  2.0312 -0.6024
  299MOL0     H41207   4.463   2.462   1.643 -1.2022 -3.2320 -0.1820
  299MOL0     H41208   4.452   2.482   1.811  0.1074  0.3438  0.9811
  299MOL0     H41209   4.286   2.658   1.796 -0.6481  1.2358 -0.9231
  299MOL0     H41210   4.423   2.683   1.700  0.1656 -0.8128  2.6335
  299MOL0     H41211   4.395   2.640   1.442 -0.6394 -0.2707  2.5046
  299MOL0     H41212   4.260   2.644   1.207  1.6402  2.1121  1.4374
  299MOL0     H41213   4.225   2.822   1.235 -0.8159  1.3085  2.5310
  299MOL0     H41214   3.990   2.624   1.186 -0.2527  1.1643 -0.0578
  299MOL0     H41215   3.984   2.793   1.223  1.4984  3.1236 -2.6656
  299MOL0     H41216   4.116   2.674   0.980  0.8146  0.6003 -0.0954
  299MOL0     H41217   3.956   2.738   0.982  0.5691 -0.6650  0.5024
  299MOL0     H41218   4.043   2.941   0.919  1.5372 -0.7166 -1.3436
  299MOL0     H41219   4.117   2.949   1.081 -0.7818 -0.3475  0.2039
  299MOL0     H41220   4.502   2.856   0.841 -2.2174 -0.6944 -1.2150
  299MOL0     H41221   4.730   3.062   0.717  2.4901  0.1721  1.9029
  299MOL0     H41222   4.723   2.919   0.821  2.4233  2.1866  4.4238
  299MOL0     H41223   4.756   3.070   0.887  1.1700 -1.9079  0.9595
  299MOL0     H41224   4.758   3.551   0.736  0.2331 -2.6204  1.8273
  299MOL0     H41225   4.854   3.766   0.791 -0.6076  0.3205  0.2509
  299MOL0     H41226   4.993   3.838   0.929 -1.8088  0.5522 -7.6564
  299MOL0     H41227   4.942   3.989   0.855 -0.8737  1.7562  0.7271
  299MOL0     H41228   4.981   4.116   1.040  1.0186 -0.2690 -1.3367
  299MOL0     H41229   5.062   3.986   1.126  2.8748  0.3417 -0.4145
  299MOL0     H41230   5.152   4.137   0.892  0.6384 -1.0026 -0.7094
  299MOL0     H41231   5.205   3.973   0.906 -2.1091 -1.2667  1.6170
  299MOL0     H41232   5.280   4.013   1.138 -1.5888 -0.6030 -0.7120
  299MOL0     H41233   5.243   4.185   1.115  0.0470  0.0216  0.7861
  299MOL0     H41234   5.430   4.006   0.945 -2.3656  0.4019 -1.2300
  299MOL0     H41235   5.422   4.185   0.929 -2.9950 -0.2279 -0.8333
  299MOL0     H41236   5.491   4.026   1.183 -1.3635  0.3754  0.2709
  299MOL0     H41237   5.508   4.196   1.177  0.3717  1.5377 -1.5615
  299MOL0     H41238   5.693   4.171   0.989  2.2055 -1.6710 -1.6368
  299MOL0     H41239   5.653   3.992   0.987 -1.6034  0.7492 -1.6773
  299MOL0     H41240   5.843   3.977   1.094 -2.0403 -0.3758 -2.0122
  299MOL0     H41241   5.735   3.979   1.221  3.3208 -2.1879  0.5889
  299MOL0     H41242   4.626   3.809   1.123  1.8946  1.7257 -0.7362
  299MOL0     H41243   4.518   3.565   1.085 -0.7968 -1.7303 -0.9088
  299MOL0     H41244   4.320   3.307   0.875 -1.1307 -1.3139  3.4998
  299MOL0     H41245   4.176   3.109   0.891 -0.1716 -1.9256  0.1047
  299MOL0     H41246   4.530   1.710   1.934 -0.3902 -0.0804 -0.8056
  299MOL0     H41247   4.490   1.523   2.070 -0.8323  0.8253 -1.0273
  299MOL0     H41248   4.687   1.275   2.425 -0.1233  0.3375 -0.5356
  299MOL0     H41249   4.645   1.116   2.583 -1.4072  0.7124  0.5226
  299MOL0     H41250   4.321   0.785   2.517  0.2263  2.7560  0.3702
  299MOL0     H41251   4.479   0.709   2.508  3.3045 -0.6003  4.2769
  299MOL0     H41252   4.340   0.616   2.682  2.2081 -0.6304 -0.4270
  299MOL0     H41253   4.305   0.772   2.757 -2.2244 -2.5291 -0.3659
  299MOL0     H41254   4.594   0.667   2.736 -0.6049  0.2116 -1.9800
  299MOL0     H41255   4.529   0.778   2.850  3.2808 -0.7692  0.0821
  299MOL0     H41256   4.367   0.591   2.934  0.6352 -1.0545  2.1104
  299MOL0     H41257   4.528   0.574   2.990 -0.1074  0.1879  0.9967
  299MOL0     H41258   4.503   0.260   2.714 -0.0996 -0.7050  1.3426
  299MOL0     H41259   4.379   0.894   2.327 -0.1864  0.2227  0.3460
  299MOL0     H41260   4.369   1.079   2.062  0.4079  1.6189  2.4718
  299MOL0     H41261   4.517   1.019   2.033  0.8834 -1.5782  0.7796
  299MOL0     H41262   4.395   0.912   2.116 -0.4722  0.0417 -2.4046
  300MOL0     O41263   5.946   2.162   3.602 -0.7073  0.1225  0.3139
  300MOL0     C41264   6.043   2.186   3.670  0.5931  0.1900 -0.4387
  300MOL0     O41265   6.051   2.294   3.754  1.0345 -1.1867 -0.1746
  300MOL0     C41266   5.953   2.396   3.765 -0.4986  1.1667  0.2646
  300MOL0     C41267   5.825   2.384   3.728 -0.2536  0.1504 -0.3172
  300MOL0     C41268   5.737   2.496   3.733 -0.1434  0.4205 -1.0671
  300MOL0     C41269   5.777   2.626   3.756  0.6796  0.3634  1.1076
  300MOL0     O41270   5.686   2.726   3.753 -0.3537 -0.8400  0.4022
  300MOL0     C41271   5.654   2.777   3.888 -0.5603 -0.1360  0.3546
  300MOL0     C41272   5.561   2.687   3.969 -0.1717  0.0594  1.0060
  300MOL0     C41273   5.550   2.727   4.112  0.4647  0.2861 -0.8102
  300MOL0     C41274   5.461   2.622   4.193  0.4363 -0.1019 -0.8598
  300MOL0     C41275   5.413   2.668   4.330  0.8787 -0.2059 -0.5039
  300MOL0     C41276   5.322   2.564   4.386 -0.4267  0.2131 -0.4476
  300MOL0     C41277   5.231   2.617   4.499  0.6134 -0.9081 -0.1263
  300MOL0     C41278   5.125   2.519   4.554 -0.3093 -0.4646  0.5094
  300MOL0     N41279   5.022   2.494   4.450  0.1854 -0.0756  0.0512
  300MOL0     C41280   4.914   2.569   4.419  0.2400  0.1118  0.7615
  300MOL0     C41281   4.819   2.491   4.357  0.9235 -0.3795  0.2932
  300MOL0     C41282   4.682   2.537   4.304  0.2424 -0.5001  0.1091
  300MOL0     C41283   4.688   2.551   4.147  0.1172  0.0721 -0.3748
  300MOL0     C41284   4.545   2.541   4.089 -0.8527 -0.3242  0.5933
  300MOL0     C41285   4.437   2.621   4.153  0.6828  0.5941 -0.0442
  300MOL0     O41286   4.328   2.656   4.073  0.3591 -0.7078  0.7305
  300MOL0     C41287   4.210   2.678   4.136  0.5928  0.8183  1.6338
  300MOL0     C41288   4.121   2.753   4.063  0.8532 -0.3485  0.1517
  300MOL0     C41289   3.991   2.787   4.112  0.0405  0.4931  1.0023
  300MOL0     C41290   3.900   2.852   4.005  0.0423  0.0159 -0.5377
  300MOL0     C41291   3.949   2.742   4.238 -0.4038  0.0763 -0.6271
  300MOL0     C41292   3.811   2.782   4.290  0.0415  1.3210  0.4873
  300MOL0     O41293   3.743   2.874   4.222  0.8601 -0.2955 -0.6816
  300MOL0     C41294   3.607   2.901   4.256  0.0589  0.3869  0.6819
  300MOL0     C41295   3.577   2.957   4.379 -0.4000 -0.1661  0.5691
  300MOL0     C41296   3.440   2.984   4.407  0.3400 -0.2986 -0.3884
  300MOL0     C41297   3.342   2.983   4.305 -0.4340  0.5347 -0.5341
  300MOL0     O41298   3.210   3.003   4.329  0.3930  0.2240 -0.3033
  300MOL0     C41299   3.185   3.105   4.431  0.7883 -0.1718 -0.0131
  300MOL0     C41300   3.044   3.156   4.423 -0.0125  0.4686 -0.7532
  300MOL0     C41301   2.938   3.058   4.500  0.2299 -1.1713  0.8957
  300MOL0     C41302   2.790   3.074   4.478 -0.8465  0.3883 -0.2720
  300MOL0     C41303   2.691   2.974   4.545 -0.5742 -0.6514  0.3079
  300MOL0     C41304   2.654   3.007   4.696  1.1054 -0.8708  0.2070
  300MOL0     C41305   2.588   3.147   4.701  0.0446  0.4969 -0.4505
  300MOL0     C41306   2.531   3.174   4.842 -0.9196 -1.1176  0.8551
  300MOL0    Cl41307   2.661   3.214   4.948  0.4797 -0.1753  0.2479
  300MOL0     C41308   3.375   2.924   4.182  0.1269 -0.3511 -0.3127
  300MOL0     C41309   3.506   2.876   4.161 -0.5932 -0.2002 -0.7018
  300MOL0     O41310   3.773   2.728   4.392  0.5600 -0.0317  0.5804
  300MOL0     C41311   4.044   2.674   4.318 -0.4015  0.1834 -0.6942
  300MOL0     C41312   4.177   2.639   4.270  0.5523  1.0458 -0.3045
  300MOL0     N41313   4.885   2.367   4.337 -0.1363  0.3602 -0.1807
  300MOL0     N41314   4.993   2.364   4.410 -0.2756  0.0296  0.2073
  300MOL0     C41315   5.909   2.635   3.800  0.6398 -0.9790  0.2700
  300MOL0     C41316   5.998   2.523   3.807  0.5442  0.2643  0.2613
  300MOL0     C41317   6.158   2.090   3.680 -0.3686  0.2045 -0.2860
  300MOL0     C41318   6.233   2.086   3.790  0.1766  0.3271 -0.4899
  300MOL0     C41319   6.353   2.009   3.794 -0.1220  0.4144 -0.0077
  300MOL0     C41320   6.398   1.936   3.679  0.4372 -0.4618 -0.2252
  300MOL0     O41321   6.503   1.855   3.666  0.2274  0.1380 -0.1816
  300MOL0     C41322   6.624   1.903   3.729  0.4609  0.0970  0.6631
  300MOL0     C41323   6.700   1.814   3.825  0.4320 -0.3138  1.7352
  300MOL0     C41324   6.595   1.760   3.929 -0.4116 -0.2064 -0.6088
  300MOL0     C41325   6.578   1.818   4.070 -1.0395 -0.7259 -0.2123
  300MOL0     C41326   6.627   1.965   4.070  0.8716  1.0712  0.0647
  300MOL0     C41327   6.648   2.079   4.051 -0.5464  1.1573  0.9896
  300MOL0     C41328   6.307   1.931   3.577 -0.0870  0.6846  0.2699
  300MOL0     C41329   6.187   2.002   3.576 -0.9719  0.0107  0.3210
  300MOL0     C41330   6.129   1.997   3.445 -0.1030  0.6555 -0.3675
  300MOL0     H41331   5.783   2.287   3.705  0.4536 -0.4342  0.8006
  300MOL0     H41332   5.631   2.483   3.716 -1.1204  1.2007  3.1903
  300MOL0     H41333   5.599   2.870   3.875 -3.3585 -1.8394 -0.9993
  300MOL0     H41334   5.741   2.809   3.946 -0.9522 -1.4477  1.7477
  300MOL0     H41335   5.468   2.698   3.913  1.6446  1.7868 -1.9110
  300MOL0     H41336   5.590   2.582   3.958  0.0146  0.3096 -1.2646
  300MOL0     H41337   5.646   2.722   4.164  0.3065 -1.3607 -0.6420
  300MOL0     H41338   5.514   2.831   4.112 -1.6774 -0.4108 -1.1454
  300MOL0     H41339   5.375   2.594   4.132  0.1616  1.3487 -1.1794
  300MOL0     H41340   5.520   2.532   4.212  2.0652  1.5182  2.4818
  300MOL0     H41341   5.360   2.762   4.315 -0.9596 -1.1955 -0.5354
  300MOL0     H41342   5.497   2.678   4.400 -0.6477 -0.3302  1.4385
  300MOL0     H41343   5.251   2.520   4.315 -1.2362  0.6801  0.0600
  300MOL0     H41344   5.383   2.490   4.438 -1.1361 -2.3428 -2.9739
  300MOL0     H41345   5.172   2.697   4.453  0.4823 -1.7227 -1.4339
  300MOL0     H41346   5.289   2.655   4.583  2.6760  0.6483 -2.1405
  300MOL0     H41347   5.171   2.422   4.574  2.5063  0.7039  0.1090
  300MOL0     H41348   5.076   2.549   4.647  0.9516 -1.6708  1.6150
  300MOL0     H41349   4.911   2.676   4.437 -0.1413  0.5979 -1.8121
  300MOL0     H41350   4.670   2.636   4.349  2.8747  0.9851 -2.1604
  300MOL0     H41351   4.607   2.461   4.327  1.2687 -1.5874 -0.0359
  300MOL0     H41352   4.722   2.653   4.128 -1.1673  0.3719 -1.2101
  300MOL0     H41353   4.761   2.479   4.110  0.5645 -0.1838  0.9302
  300MOL0     H41354   4.556   2.570   3.984  0.1465 -0.8977  0.5276
  300MOL0     H41355   4.520   2.435   4.079 -0.2251 -0.4771  0.5648
  300MOL0     H41356   4.407   2.572   4.246 -0.1277 -1.5786 -1.3800
  300MOL0     H41357   4.481   2.719   4.172  1.2652  0.2884  0.2144
  300MOL0     H41358   4.154   2.776   3.963 -1.1847  1.0078 -0.2593
  300MOL0     H41359   3.893   2.954   4.043 -0.3478  0.3352 -1.4431
  300MOL0     H41360   3.803   2.802   4.004  1.1472 -2.3361  0.3768
  300MOL0     H41361   3.935   2.844   3.902 -3.0600 -2.2791 -1.5468
  300MOL0     H41362   3.658   2.971   4.450 -0.4312 -0.2425  0.6198
  300MOL0     H41363   3.414   3.009   4.509 -1.5794 -0.3345 -0.8242
  300MOL0     H41364   3.195   3.053   4.527  3.4901  1.1640  0.5398
  300MOL0     H41365   3.249   3.192   4.452 -0.3719 -0.0342  3.7649
  300MOL0     H41366   3.044   3.246   4.485  0.7029 -0.1937  0.2566
  300MOL0     H41367   3.010   3.166   4.320 -3.1421  1.4626  0.2770
  300MOL0     H41368   2.955   3.085   4.605 -2.4771  4.9743  0.1541
  300MOL0     H41369   2.966   2.955   4.477 -2.3804 -1.7916  0.2699
  300MOL0     H41370   2.781   3.066   4.370  1.3493 -2.4757 -0.3621
  300MOL0     H41371   2.768   3.179   4.502  0.9013  0.5416  0.9154
  300MOL0     H41372   2.598   2.965   4.488 -2.6819 -5.5046  3.8084
  300MOL0     H41373   2.731   2.872   4.552 -0.3811 -0.5126  1.3974
  300MOL0     H41374   2.749   3.015   4.750  1.9254 -1.9884 -1.0183
  300MOL0     H41375   2.597   2.930   4.749  0.7036  0.2435  1.4771
  300MOL0     H41376   2.509   3.138   4.625 -0.9712  1.0107  0.5194
  300MOL0     H41377   2.661   3.224   4.678 -0.8586  1.1379 -1.2927
  300MOL0     H41378   2.464   3.100   4.887 -1.3458 -0.2248  1.7316
  300MOL0     H41379   2.481   3.270   4.831 -0.5137 -0.8824  1.0381
  300MOL0     H41380   3.299   2.902   4.108  1.3428  2.9068 -2.8008
  300MOL0     H41381   3.533   2.836   4.064  0.4088  1.4189 -1.1355
  300MOL0     H41382   4.005   2.653   4.417  0.0599 -1.9635 -0.9165
  300MOL0     H41383   4.247   2.591   4.338 -1.6366 -1.6979  0.2212
  300MOL0     H41384   5.934   2.736   3.832 -0.7346  0.1931 -2.1015
  300MOL0     H41385   6.099   2.533   3.844  0.6090  1.4313 -0.1989
  300MOL0     H41386   6.214   2.143   3.880 -0.8201 -0.3673 -0.2428
  300MOL0     H41387   6.410   2.002   3.887  0.2273  2.9789  0.0408
  300MOL0     H41388   6.692   1.915   3.644 -0.7741 -1.8934 -0.6679
  300MOL0     H41389   6.619   2.004   3.772 -0.6232  0.1666  0.4036
  300MOL0     H41390   6.779   1.871   3.875  1.2359  0.2354 -0.0681
  300MOL0     H41391   6.750   1.733   3.771 -1.9135  0.3857 -1.8773
  300MOL0     H41392   6.500   1.744   3.878 -0.0697 -3.1936 -0.4971
  300MOL0     H41393   6.650   1.667   3.949  2.3552  1.1823 -1.2502
  300MOL0     H41394   6.623   1.763   4.153  0.4742 -0.4846 -0.8437
  300MOL0     H41395   6.470   1.814   4.090 -0.8253  1.7592  1.9862
  300MOL0     H41396   6.667   2.181   4.027 -1.2832  0.9053 -0.8202
  300MOL0     H41397   6.335   1.863   3.497 -2.2660  1.6733 -1.4206
  300MOL0     H41398   6.158   2.087   3.390  3.0023  0.3828  0.6372
  300MOL0     H41399   6.164   1.907   3.392 -0.9449  0.1528 -0.0834
  300MOL0     H41400   6.023   1.972   3.454  0.7407 -2.9486  1.9481
  301MOL0     O41401   1.046  11.268   9.467 -0.0138 -0.2283  0.0867
  301MOL0     C41402   0.969  11.215   9.393  0.1041 -0.4654  0.1043
  301MOL0     O41403   0.976  11.075   9.365  0.1996 -0.6760 -0.1675
  301MOL0     C41404   1.088  10.997   9.410  0.1335 -0.4655  0.3774
  301MOL0     C41405   1.192  10.962   9.327  0.8165  0.4212  0.5035
  301MOL0     C41406   1.294  10.878   9.384  1.0720 -0.4087  0.3932
  301MOL0     C41407   1.287  10.824   9.510 -1.0812 -0.6408 -0.1643
  301MOL0     O41408   1.394  10.741   9.548 -0.0367 -0.1909 -0.8946
  301MOL0     C41409   1.362  10.644   9.645 -0.4834  0.4360  0.3189
  301MOL0     C41410   1.476  10.545   9.650  0.1289 -0.4205 -0.1910
  301MOL0     C41411   1.481  10.462   9.777  0.1226  0.7872  0.0653
  301MOL0     C41412   1.614  10.393   9.800 -0.2466 -0.1727 -0.9251
  301MOL0     C41413   1.596  10.297   9.919 -0.9245  0.6936  0.0975
  301MOL0     C41414   1.702  10.191   9.914  0.2156  0.0546 -0.0505
  301MOL0     C41415   1.735  10.116  10.045  0.7148 -0.4039 -0.1401
  301MOL0     C41416   1.606  10.042  10.089 -0.0671  1.5664 -0.0911
  301MOL0     N41417   1.619  10.003  10.230 -0.1810  1.0073 -0.9759
  301MOL0     C41418   1.578  10.070  10.337 -0.0050  0.2530 -0.7242
  301MOL0     C41419   1.597   9.982  10.445 -0.5516 -0.2231  0.3315
  301MOL0     C41420   1.586  10.007  10.596  0.4741  0.8010  0.6693
  301MOL0     C41421   1.693  10.115  10.633 -0.1291  0.4517 -0.1176
  301MOL0     C41422   1.682  10.168  10.768  0.0815 -0.1556 -0.3852
  301MOL0     C41423   1.761  10.289  10.788  0.3410 -0.2970 -0.5110
  301MOL0     O41424   1.728  10.362  10.902  0.3290 -0.1259  0.2829
  301MOL0     C41425   1.802  10.345  11.016 -0.1918  0.4594  0.9299
  301MOL0     C41426   1.883  10.230  11.059 -0.8888  0.6094  0.3034
  301MOL0     C41427   1.961  10.238  11.169 -0.1855  0.3634 -0.3475
  301MOL0     C41428   2.044  10.118  11.202 -0.9910  0.4608  1.2916
  301MOL0     C41429   1.979  10.366  11.240  0.2256  0.1780  0.2696
  301MOL0     C41430   2.084  10.395  11.341 -0.3373  0.2310 -0.5990
  301MOL0     O41431   2.120  10.525  11.367  0.3643 -0.2668 -0.1870
  301MOL0     C41432   2.193  10.547  11.476 -0.4036 -1.0689 -0.2562
  301MOL0     C41433   2.177  10.479  11.594  0.0988  0.4041  0.2381
  301MOL0     C41434   2.265  10.497  11.694 -1.2544 -0.0017  0.0362
  301MOL0     C41435   2.373  10.592  11.683 -0.4326  0.0698 -0.3069
  301MOL0     O41436   2.464  10.606  11.782 -0.3606  0.0326  0.7134
  301MOL0     C41437   2.596  10.626  11.744 -0.7407 -0.8269 -0.9041
  301MOL0     C41438   2.685  10.623  11.862 -0.5259 -0.5972  0.3448
  301MOL0     C41439   2.685  10.753  11.951 -0.0100  0.1621  0.4085
  301MOL0     C41440   2.820  10.782  12.009 -0.0061  0.2190 -0.1263
  301MOL0     C41441   2.815  10.880  12.116  0.4045 -1.0531 -0.1198
  301MOL0     C41442   2.959  10.908  12.157 -0.4870 -0.8362 -0.8091
  301MOL0     C41443   2.981  11.021  12.256 -0.6833 -0.3415 -0.2855
  301MOL0     C41444   3.136  11.029  12.270 -0.2384  0.2169 -0.2540
  301MOL0    Cl41445   3.179  11.154  12.401 -0.0970  0.0570 -0.0102
  301MOL0     C41446   2.384  10.670  11.565 -0.9261  0.1855  0.3004
  301MOL0     C41447   2.291  10.649  11.469  0.6497  0.0865 -0.3328
  301MOL0     O41448   2.141  10.292  11.386 -0.3583 -1.0223 -0.2908
  301MOL0     C41449   1.907  10.477  11.193  0.5817  0.1106  0.5823
  301MOL0     C41450   1.810  10.465  11.088 -0.1263 -0.3541  0.1857
  301MOL0     N41451   1.645   9.861  10.399  0.7977 -0.1961  0.0760
  301MOL0     N41452   1.659   9.885  10.270 -0.2799 -0.3391  0.1390
  301MOL0     C41453   1.183  10.866   9.589 -0.8799  0.6699  0.8075
  301MOL0     C41454   1.085  10.949   9.542 -0.2243 -0.9914  0.6935
  301MOL0     C41455   0.872  11.299   9.336  0.4541  0.1606 -0.2938
  301MOL0     C41456   0.782  11.241   9.249  0.1873 -0.3784  0.0341
  301MOL0     C41457   0.687  11.324   9.196 -0.2093 -0.7772  0.5430
  301MOL0     C41458   0.676  11.459   9.220 -0.6868  0.5877 -0.8104
  301MOL0     O41459   0.570  11.532   9.162 -1.0728 -0.6210 -0.0046
  301MOL0     C41460   0.563  11.668   9.189  0.5187 -0.7130  0.3473
  301MOL0     C41461   0.481  11.734   9.076  0.2354 -0.3901 -0.3915
  301MOL0     C41462   0.545  11.706   8.947 -0.2592 -0.0528  0.1810
  301MOL0     C41463   0.463  11.757   8.825 -0.3579 -0.0485 -0.6862
  301MOL0     C41464   0.534  11.879   8.773 -0.8409  0.6797 -0.3961
  301MOL0     C41465   0.593  11.973   8.721  0.3360 -0.8789  0.7746
  301MOL0     C41466   0.768  11.513   9.314  0.2563 -0.2752 -0.0125
  301MOL0     C41467   0.858  11.434   9.379  0.6938 -0.1298 -0.2237
  301MOL0     C41468   0.932  11.501   9.498 -0.0104 -0.2275  0.4100
  301MOL0     H41469   1.212  11.009   9.231 -1.6043  5.6300  2.1641
  301MOL0     H41470   1.379  10.854   9.322  0.0025 -0.0681 -1.2837
  301MOL0     H41471   1.275  10.581   9.625  0.6605 -1.5454  1.2892
  301MOL0     H41472   1.345  10.700   9.738 -2.2225 -0.3822  0.5354
  301MOL0     H41473   1.490  10.483   9.560  1.6265  1.0922 -1.0653
  301MOL0     H41474   1.559  10.616   9.659  1.0899 -1.5160 -0.1197
  301MOL0     H41475   1.457  10.535   9.855 -2.1158 -0.9789  1.1494
  301MOL0     H41476   1.397  10.392   9.773 -0.6751  1.7408 -0.0466
  301MOL0     H41477   1.633  10.322   9.719 -3.4557 -0.5286 -1.5157
  301MOL0     H41478   1.690  10.468   9.824 -0.9610  1.0667 -2.3797
  301MOL0     H41479   1.494  10.260   9.904 -2.2390  4.1859 -0.7485
  301MOL0     H41480   1.607  10.349  10.015 -1.2406  0.1238  0.4473
  301MOL0     H41481   1.650  10.120   9.849 -0.4290  1.2136 -0.8290
  301MOL0     H41482   1.794  10.219   9.862  0.5792 -0.3018  0.3952
  301MOL0     H41483   1.756  10.196  10.117 -2.1622  1.9431 -1.6831
  301MOL0     H41484   1.823  10.053  10.033 -0.0558 -1.0734 -3.0621
  301MOL0     H41485   1.519  10.101  10.060 -2.3641 -0.5323  1.9620
  301MOL0     H41486   1.585   9.949  10.036  2.4085  0.9618 -0.1060
  301MOL0     H41487   1.528  10.165  10.348  1.3833  0.8610  0.6680
  301MOL0     H41488   1.591   9.913  10.650  0.7020  0.9372  0.8899
  301MOL0     H41489   1.486  10.050  10.611 -0.2759 -0.7574  0.3164
  301MOL0     H41490   1.793  10.076  10.614  0.0661 -0.9382  3.0423
  301MOL0     H41491   1.669  10.197  10.565 -2.0079  2.1199  2.3695
  301MOL0     H41492   1.576  10.188  10.785  0.4825  0.7029  1.3577
  301MOL0     H41493   1.711  10.098  10.847  0.2356  2.2480  1.8155
  301MOL0     H41494   1.869  10.273  10.782  0.1927 -1.3755 -0.5172
  301MOL0     H41495   1.744  10.358  10.705  4.6587 -1.8057 -3.0207
  301MOL0     H41496   1.879  10.141  10.998 -0.3577  0.8166 -0.0394
  301MOL0     H41497   2.148  10.151  11.198 -1.5001  1.9556 -0.5479
  301MOL0     H41498   2.032  10.042  11.124 -1.8427  1.0102  0.8704
  301MOL0     H41499   2.015  10.083  11.302  1.0162  2.2202  2.5642
  301MOL0     H41500   2.099  10.404  11.596 -1.0848  1.6318  0.8925
  301MOL0     H41501   2.273  10.427  11.776  3.1466 -2.6070 -2.2009
  301MOL0     H41502   2.633  10.546  11.679  4.0762  1.9264 -2.0928
  301MOL0     H41503   2.610  10.723  11.696 -0.0532 -0.4638 -0.0018
  301MOL0     H41504   2.666  10.534  11.922 -4.2442  0.1585  0.5173
  301MOL0     H41505   2.780  10.617  11.809 -0.2175 -0.2953  0.8641
  301MOL0     H41506   2.606  10.732  12.023 -2.0557  0.7331 -1.5295
  301MOL0     H41507   2.643  10.832  11.887 -2.2960 -1.3034 -0.0516
  301MOL0     H41508   2.890  10.817  11.933 -0.9557 -0.4577 -1.3544
  301MOL0     H41509   2.869  10.694  12.054 -0.0043  1.0900  1.6600
  301MOL0     H41510   2.758  10.966  12.081  3.0341  1.5039  1.4202
  301MOL0     H41511   2.765  10.834  12.202  2.7299 -2.4057  0.6117
  301MOL0     H41512   3.011  10.936  12.065 -1.6697 -0.0287 -1.2561
  301MOL0     H41513   3.009  10.820  12.199 -0.2358 -1.7167 -2.8326
  301MOL0     H41514   2.932  11.030  12.354 -2.8178  6.1704 -1.4693
  301MOL0     H41515   2.939  11.110  12.209 -0.2292  0.5340  0.9028
  301MOL0     H41516   3.182  11.065  12.177 -1.9331 -2.0541 -2.0774
  301MOL0     H41517   3.176  10.931  12.298 -0.7656  1.2121  5.0482
  301MOL0     H41518   2.456  10.751  11.560 -1.1198  0.3514  0.2057
  301MOL0     H41519   2.292  10.700  11.373  3.8631 -0.4074 -0.6665
  301MOL0     H41520   1.918  10.574  11.241  4.1569 -1.3426  3.1707
  301MOL0     H41521   1.743  10.546  11.061  1.7170  0.8032 -1.1409
  301MOL0     H41522   1.180  10.854   9.696 -3.0862  1.3745  0.8685
  301MOL0     H41523   0.997  10.974   9.601 -1.3207  0.2875 -1.3519
  301MOL0     H41524   0.779  11.136   9.220  0.3689  0.3329 -2.7647
  301MOL0     H41525   0.611  11.281   9.131 -0.1743  0.2754 -0.2360
  301MOL0     H41526   0.516  11.693   9.285  2.5242  1.7242  0.7929
  301MOL0     H41527   0.658  11.722   9.195 -0.6642  1.8517 -2.0324
  301MOL0     H41528   0.461  11.840   9.098  0.3612  0.1592 -2.6566
  301MOL0     H41529   0.382  11.687   9.071 -0.2679  0.2610  2.0431
  301MOL0     H41530   0.649  11.738   8.961 -1.0397  1.5949  2.9742
  301MOL0     H41531   0.544  11.598   8.932 -0.4516 -0.0567  0.2265
  301MOL0     H41532   0.355  11.763   8.844 -0.4299  0.4542 -1.2155
  301MOL0     H41533   0.475  11.685   8.743 -2.4180 -0.2786 -0.8494
  301MOL0     H41534   0.632  12.054   8.663  2.4099 -2.3702 -0.0773
  301MOL0     H41535   0.751  11.616   9.342  0.0856 -0.3221  0.0546
  301MOL0     H41536   0.923  11.431   9.581 -2.0232 -0.2577  0.2151
  301MOL0     H41537   1.036  11.522   9.470  0.0350 -1.1898 -0.1960
  301MOL0     H41538   0.889  11.599   9.524  0.3758  0.5279 -1.6056
  302MOL0     O41539   3.792  11.583   4.880 -1.5151 -0.3361 -0.2809
  302MOL0     C41540   3.686  11.549   4.830  0.6790  0.9869  0.1779
  302MOL0     O41541   3.565  11.563   4.896  0.1306 -0.5751  0.3784
  302MOL0     C41542   3.551  11.589   5.029 -0.2692 -1.0853 -0.1854
  302MOL0     C41543   3.643  11.572   5.133 -0.0679 -0.5338 -0.0031
  302MOL0     C41544   3.611  11.585   5.267  0.5139 -0.4639  0.2301
  302MOL0     C41545   3.484  11.636   5.304  0.1823 -0.1623  0.3978
  302MOL0     O41546   3.452  11.663   5.433  0.9598 -0.1897  0.6538
  302MOL0     C41547   3.557  11.694   5.538  0.6168  0.9480  0.6665
  302MOL0     C41548   3.488  11.686   5.680  0.4843 -0.6749 -0.4093
  302MOL0     C41549   3.593  11.700   5.791 -1.0957  0.4603  0.4688
  302MOL0     C41550   3.522  11.696   5.918 -0.3270 -0.2127  0.4476
  302MOL0     C41551   3.613  11.697   6.040 -0.0798  0.2733  0.4833
  302MOL0     C41552   3.541  11.740   6.169 -1.2021 -1.0017  1.2528
  302MOL0     C41553   3.441  11.636   6.209 -0.1345  0.1609  0.9357
  302MOL0     C41554   3.386  11.656   6.353  0.0110 -0.2259  0.1180
  302MOL0     N41555   3.305  11.547   6.388  0.9428  0.0465 -0.0471
  302MOL0     C41556   3.181  11.503   6.344  0.2911 -0.3864 -0.0571
  302MOL0     C41557   3.153  11.398   6.417  0.1330  0.5275 -0.5129
  302MOL0     C41558   3.018  11.338   6.423  0.3072 -0.6119 -0.2626
  302MOL0     C41559   2.916  11.415   6.525 -0.4686 -0.2558 -1.1133
  302MOL0     C41560   2.986  11.479   6.650  0.7695  0.3079 -0.4445
  302MOL0     C41561   2.894  11.560   6.754 -0.1948 -0.1136  0.7178
  302MOL0     O41562   2.791  11.471   6.805 -0.5536 -0.0473  0.1450
  302MOL0     C41563   2.708  11.529   6.901 -1.0442 -0.3749  0.7681
  302MOL0     C41564   2.583  11.559   6.869  0.1317  0.6089  0.0155
  302MOL0     C41565   2.495  11.609   6.962  0.2378 -0.9659 -0.7508
  302MOL0     C41566   2.352  11.646   6.925  0.8185 -0.0174 -0.6543
  302MOL0     C41567   2.541  11.624   7.101  0.0796  0.2579  0.7018
  302MOL0     C41568   2.451  11.649   7.220  1.0097  0.6285  0.6758
  302MOL0     O41569   2.313  11.636   7.215  0.1388  0.2742  0.5502
  302MOL0     C41570   2.245  11.565   7.308 -0.2815 -0.4606  0.1368
  302MOL0     C41571   2.225  11.617   7.435 -0.4135  0.6223 -0.0866
  302MOL0     C41572   2.181  11.539   7.539 -0.7535  0.6682 -0.3605
  302MOL0     C41573   2.142  11.403   7.514  0.2341  0.1229 -0.3459
  302MOL0     O41574   2.105  11.319   7.613 -0.7918 -0.0309  0.0573
  302MOL0     C41575   2.014  11.358   7.716  0.3616  0.2325  0.4208
  302MOL0     C41576   2.092  11.364   7.847  0.2613  0.2238 -0.2556
  302MOL0     C41577   1.998  11.395   7.967 -0.8452  0.1083  0.4917
  302MOL0     C41578   2.086  11.448   8.089 -0.8132 -0.2509 -0.4633
  302MOL0     C41579   2.001  11.546   8.170 -0.1717 -0.3360 -0.0028
  302MOL0     C41580   2.085  11.600   8.288 -0.2430  0.3240 -0.4172
  302MOL0     C41581   2.015  11.691   8.393  0.2038  0.1552 -0.0325
  302MOL0     C41582   2.099  11.768   8.497  0.1727  0.6144 -0.3181
  302MOL0    Cl41583   2.008  11.853   8.621  0.3258  0.9532  0.4315
  302MOL0     C41584   2.158  11.363   7.374 -0.4168  0.3967 -0.8757
  302MOL0     C41585   2.208  11.445   7.277  1.1168  0.9221  0.0525
  302MOL0     O41586   2.508  11.673   7.323 -0.5241  0.3713 -0.6783
  302MOL0     C41587   2.678  11.603   7.130 -0.2545 -0.3276  0.6442
  302MOL0     C41588   2.762  11.553   7.027  0.0112  0.3254 -0.4768
  302MOL0     N41589   3.263  11.354   6.479  0.0279 -0.2858 -0.4678
  302MOL0     N41590   3.347  11.444   6.480 -0.4131 -0.2972  0.7222
  302MOL0     C41591   3.393  11.663   5.200  0.0651  1.5533 -0.9962
  302MOL0     C41592   3.421  11.636   5.072 -0.5500  0.7828  0.0479
  302MOL0     C41593   3.678  11.509   4.689  0.4917  0.3092 -0.5764
  302MOL0     C41594   3.557  11.533   4.621 -0.0344 -0.2825  0.1877
  302MOL0     C41595   3.534  11.482   4.491  0.4800  0.4413 -0.5033
  302MOL0     C41596   3.629  11.404   4.421 -0.0294  0.1186 -0.1835
  302MOL0     O41597   3.598  11.337   4.305  0.0606 -0.0559  0.3521
  302MOL0     C41598   3.496  11.383   4.221  0.1771  0.5174 -1.0037
  302MOL0     C41599   3.547  11.509   4.165  0.8416 -1.1080  1.2321
  302MOL0     C41600   3.473  11.542   4.033 -0.5940 -0.0197 -0.6638
  302MOL0     C41601   3.494  11.677   3.976 -0.2106 -1.2756 -1.5456
  302MOL0     C41602   3.380  11.704   3.883  0.2283 -0.1554  0.1498
  302MOL0     C41603   3.289  11.739   3.808  0.5031 -0.1389 -0.1897
  302MOL0     C41604   3.750  11.390   4.483  0.6005  0.4834 -0.8171
  302MOL0     C41605   3.772  11.444   4.612 -0.5114  0.1708 -0.1620
  302MOL0     C41606   3.923  11.431   4.649  1.0829 -0.1521 -0.6867
  302MOL0     H41607   3.744  11.542   5.106  0.8546  2.4759 -0.2361
  302MOL0     H41608   3.686  11.559   5.341 -1.2129 -0.1947  2.1768
  302MOL0     H41609   3.586  11.799   5.525 -0.1118  1.2125  1.1274
  302MOL0     H41610   3.643  11.627   5.548 -1.3089 -1.2686  4.0148
  302MOL0     H41611   3.415  11.765   5.700 -1.4293 -1.8300 -2.4160
  302MOL0     H41612   3.433  11.592   5.692 -2.5973  0.8481 -1.5189
  302MOL0     H41613   3.668  11.621   5.781  0.7540  2.4210 -3.4452
  302MOL0     H41614   3.648  11.794   5.780 -0.6407 -0.0442 -2.6557
  302MOL0     H41615   3.466  11.790   5.919 -1.0268 -0.6231  0.1517
  302MOL0     H41616   3.437  11.628   5.919 -3.7191  3.3687 -4.0037
  302MOL0     H41617   3.702  11.756   6.016 -0.5356  0.8992  0.3259
  302MOL0     H41618   3.671  11.607   6.065  0.0892  0.6358  1.4097
  302MOL0     H41619   3.616  11.754   6.248  1.7885 -2.6501 -1.0957
  302MOL0     H41620   3.493  11.837   6.149  0.7580 -0.0215  1.0333
  302MOL0     H41621   3.491  11.545   6.241  0.8228  0.0550 -0.7124
  302MOL0     H41622   3.359  11.625   6.136  0.9661  0.3500 -0.3765
  302MOL0     H41623   3.474  11.670   6.416  1.9472  0.9366 -2.6134
  302MOL0     H41624   3.331  11.750   6.350 -1.9106 -1.2724  1.0899
  302MOL0     H41625   3.111  11.550   6.276 -0.2407 -1.5616 -0.3482
  302MOL0     H41626   3.028  11.237   6.465 -0.0401 -0.4850  0.1334
  302MOL0     H41627   2.972  11.324   6.325 -1.7329  1.4131  0.3251
  302MOL0     H41628   2.891  11.507   6.471  3.7578  0.4681 -2.1586
  302MOL0     H41629   2.832  11.346   6.540  1.1809 -3.8008 -5.7340
  302MOL0     H41630   3.044  11.399   6.698  0.8756  1.2613  1.0605
  302MOL0     H41631   3.057  11.554   6.613  0.2014  0.2291 -1.7638
  302MOL0     H41632   2.952  11.592   6.842 -0.1978 -0.4190  0.8348
  302MOL0     H41633   2.851  11.650   6.710  1.0716  0.1323 -0.0769
  302MOL0     H41634   2.561  11.538   6.765 -0.0026 -1.1392  0.3629
  302MOL0     H41635   2.340  11.641   6.817  0.4525 -0.2284 -0.6042
  302MOL0     H41636   2.328  11.745   6.967 -1.4049  0.2816 -2.4371
  302MOL0     H41637   2.278  11.573   6.960  1.5950  0.1967  1.6183
  302MOL0     H41638   2.255  11.717   7.464 -0.0374  0.7057 -0.7322
  302MOL0     H41639   2.165  11.581   7.638 -0.8973 -1.3719  0.5245
  302MOL0     H41640   1.972  11.456   7.691  0.9989  0.2121 -0.8201
  302MOL0     H41641   1.935  11.283   7.722 -1.0386  1.7009  0.9959
  302MOL0     H41642   2.149  11.275   7.876  1.1693  0.8965  0.0810
  302MOL0     H41643   2.172  11.437   7.828 -0.0678  0.2814 -1.4993
  302MOL0     H41644   1.936  11.317   8.012 -1.1049 -0.5133 -0.9239
  302MOL0     H41645   1.941  11.483   7.933  2.5902  1.7112 -1.6436
  302MOL0     H41646   2.170  11.510   8.056 -1.7392  1.7002  0.6277
  302MOL0     H41647   2.123  11.369   8.155 -0.2470  0.9645  0.7381
  302MOL0     H41648   1.985  11.627   8.097 -0.4197 -0.5600 -0.1992
  302MOL0     H41649   1.905  11.500   8.198 -1.4618  0.7312 -2.3266
  302MOL0     H41650   2.156  11.656   8.227  0.3718 -1.2843 -1.2341
  302MOL0     H41651   2.142  11.530   8.349  0.4169  0.7927 -0.4829
  302MOL0     H41652   1.933  11.636   8.442 -0.0493 -2.0716 -2.7299
  302MOL0     H41653   1.976  11.768   8.325 -1.0993  0.8231  1.3998
  302MOL0     H41654   2.166  11.850   8.466 -1.3231  1.8086 -0.5151
  302MOL0     H41655   2.156  11.686   8.540 -1.3119 -0.9140 -1.1853
  302MOL0     H41656   2.120  11.267   7.340 -0.7343 -0.7758  2.4378
  302MOL0     H41657   2.219  11.395   7.181 -0.1399 -1.0673  0.8702
  302MOL0     H41658   2.720  11.622   7.229  1.1573  0.3762 -0.0636
  302MOL0     H41659   2.865  11.524   7.045 -0.6268 -1.8372 -0.0104
  302MOL0     H41660   3.306  11.723   5.227 -1.5341 -0.7864 -0.5746
  302MOL0     H41661   3.358  11.648   4.985 -0.8741  0.0868  0.1785
  302MOL0     H41662   3.481  11.593   4.668 -0.9257 -1.0527 -0.2212
  302MOL0     H41663   3.429  11.486   4.464  0.2553 -0.7647  0.1204
  302MOL0     H41664   3.484  11.307   4.144  0.9333 -0.7332  0.0813
  302MOL0     H41665   3.397  11.387   4.266  0.1270 -0.2186 -1.0462
  302MOL0     H41666   3.654  11.505   4.146  0.7308  1.1075 -0.1630
  302MOL0     H41667   3.546  11.591   4.237 -1.2524 -0.4984  0.5950
  302MOL0     H41668   3.515  11.476   3.956 -0.4660  0.7716 -1.2804
  302MOL0     H41669   3.369  11.509   4.037 -0.3508 -1.0697 -2.0435
  302MOL0     H41670   3.600  11.677   3.949  0.3704 -0.0720  0.4448
  302MOL0     H41671   3.485  11.748   4.059 -0.8616 -0.1639 -2.5276
  302MOL0     H41672   3.211  11.777   3.745  1.1038 -0.2606 -1.0227
  302MOL0     H41673   3.833  11.330   4.445  0.4521 -0.5632  0.4451
  302MOL0     H41674   3.988  11.379   4.578  3.4586  1.7845 -0.0913
  302MOL0     H41675   3.971  11.529   4.655 -1.4885  1.2554 -1.3137
  302MOL0     H41676   3.929  11.373   4.741  2.3710 -2.0496 -1.9043
  303MOL0     O41677   1.678   1.032   2.483 -0.2241 -0.8742  0.7081
  303MOL0     C41678   1.773   0.956   2.458 -0.2384 -0.3694  0.2667
  303MOL0     O41679   1.790   0.884   2.346  0.1628 -0.5089 -0.1349
  303MOL0     C41680   1.674   0.827   2.304  0.4381  0.5107 -1.0454
  303MOL0     C41681   1.667   0.685   2.326  0.1209  0.6984  0.6201
  303MOL0     C41682   1.566   0.611   2.259 -0.4675 -0.0698 -0.9350
  303MOL0     C41683   1.464   0.678   2.198  0.5173 -0.2506  0.0308
  303MOL0     O41684   1.355   0.627   2.141 -0.4784  0.4072  0.2878
  303MOL0     C41685   1.292   0.526   2.215  0.5576 -0.0994  0.5410
  303MOL0     C41686   1.154   0.581   2.274 -0.6692  0.1450 -0.4964
  303MOL0     C41687   1.185   0.664   2.403  0.0472  0.4206 -0.6596
  303MOL0     C41688   1.115   0.586   2.528  0.1930  0.7330 -0.0429
  303MOL0     C41689   1.148   0.655   2.652  0.6099 -0.0312  0.7564
  303MOL0     C41690   1.068   0.604   2.767  0.2727 -0.4688 -1.1765
  303MOL0     C41691   1.102   0.687   2.898 -0.2030 -0.7793 -0.3524
  303MOL0     C41692   1.010   0.669   3.016 -0.1028 -0.0542 -0.1406
  303MOL0     N41693   1.081   0.691   3.143 -0.3314 -0.7332  0.0196
  303MOL0     C41694   1.115   0.816   3.201 -0.2450 -0.1645  0.1129
  303MOL0     C41695   1.172   0.792   3.322 -0.5815  1.1806  0.5375
  303MOL0     C41696   1.199   0.895   3.430 -0.3474 -0.8430 -0.4888
  303MOL0     C41697   1.067   0.950   3.489 -0.6066 -0.4402  0.7701
  303MOL0     C41698   0.976   0.843   3.567 -0.2197 -0.2167  0.4280
  303MOL0     C41699   1.036   0.800   3.701 -0.3217 -0.3251 -0.9017
  303MOL0     O41700   0.966   0.697   3.745  0.4476 -0.8245  0.2461
  303MOL0     C41701   0.959   0.648   3.876 -0.9736  0.4930  1.1256
  303MOL0     C41702   1.062   0.649   3.964 -0.6170  0.2975  0.3291
  303MOL0     C41703   1.051   0.590   4.097 -0.9282 -0.3648 -0.7955
  303MOL0     C41704   1.164   0.591   4.193 -0.1196  0.6643 -0.3182
  303MOL0     C41705   0.931   0.522   4.134  0.1621 -0.2258 -0.0350
  303MOL0     C41706   0.899   0.448   4.260  0.4759  0.0974 -0.1672
  303MOL0     O41707   0.785   0.377   4.248 -0.6484 -0.0294 -0.4838
  303MOL0     C41708   0.716   0.321   4.353 -0.2700  0.3982 -0.9620
  303MOL0     C41709   0.735   0.345   4.491 -0.3533 -0.0117 -0.5720
  303MOL0     C41710   0.653   0.293   4.592 -0.9319  0.6761  0.4724
  303MOL0     C41711   0.553   0.200   4.550 -0.2148 -0.0339 -0.2933
  303MOL0     O41712   0.461   0.138   4.638  0.3417 -0.0204  0.2843
  303MOL0     C41713   0.463   0.161   4.782  0.7319 -1.2399  1.1881
  303MOL0     C41714   0.563   0.054   4.826 -0.6426 -0.5918 -0.7563
  303MOL0     C41715   0.564   0.064   4.980  0.6933  0.3516  0.6146
  303MOL0     C41716   0.630  -0.059   5.039  0.4513 -0.1742 -0.4749
  303MOL0     C41717   0.583  -0.078   5.185  0.2502 -0.9483  0.4307
  303MOL0     C41718   0.648  -0.219   5.232  0.6300 -0.2487  1.0405
  303MOL0     C41719   0.603  -0.223   5.379 -0.0694  0.1583  0.6991
  303MOL0     C41720   0.700  -0.151   5.473  0.0405  0.0764  0.9443
  303MOL0    Cl41721   0.852  -0.224   5.468 -0.3968  0.1816 -0.6351
  303MOL0     C41722   0.538   0.168   4.419  0.1660  0.6140  0.3534
  303MOL0     C41723   0.618   0.228   4.322 -0.1205  0.8379 -0.3671
  303MOL0     O41724   0.961   0.457   4.361  0.4748  0.1796 -0.6269
  303MOL0     C41725   0.827   0.544   4.040  0.2096  0.4766  0.1419
  303MOL0     C41726   0.838   0.595   3.916 -0.2046 -0.7473 -0.0977
  303MOL0     N41727   1.165   0.656   3.333  0.6036 -0.3863  0.1381
  303MOL0     N41728   1.111   0.598   3.228 -0.1539  0.4420 -1.2493
  303MOL0     C41729   1.469   0.818   2.187  0.1413  0.3927  0.3113
  303MOL0     C41730   1.573   0.892   2.242 -0.2482  0.2487  0.1669
  303MOL0     C41731   1.899   0.989   2.545  0.3051 -0.3009  1.3474
  303MOL0     C41732   2.015   0.916   2.516  0.7228 -0.2211  0.0388
  303MOL0     C41733   2.139   0.954   2.583  0.3866 -0.4988 -0.3718
  303MOL0     C41734   2.143   1.060   2.678 -0.3527 -0.0561  0.2480
  303MOL0     O41735   2.263   1.084   2.746  0.0194  0.3663  0.6181
  303MOL0     C41736   2.374   1.134   2.674  0.1395  0.0680  0.1121
  303MOL0     C41737   2.478   1.213   2.750  0.0352 -0.3676  0.2774
  303MOL0     C41738   2.411   1.333   2.828  0.4268  0.4639  0.2631
  303MOL0     C41739   2.373   1.300   2.970 -0.1583  1.1663 -0.1978
  303MOL0     C41740   2.263   1.379   3.016 -0.2148  0.1822  0.3245
  303MOL0     C41741   2.176   1.451   3.037  0.7617  0.0322  0.6226
  303MOL0     C41742   2.024   1.116   2.723  0.2120  0.6024  0.8862
  303MOL0     C41743   1.902   1.089   2.658  0.1045 -0.1359  0.1776
  303MOL0     C41744   1.776   1.173   2.712 -0.3940 -0.4569 -0.1531
  303MOL0     H41745   1.743   0.625   2.376 -2.3232 -2.7167  0.5704
  303MOL0     H41746   1.551   0.504   2.274 -1.8610  0.2585  0.3318
  303MOL0     H41747   1.347   0.481   2.298 -0.3181 -0.7239  0.8089
  303MOL0     H41748   1.256   0.443   2.154 -0.7724 -0.6729  2.0291
  303MOL0     H41749   1.094   0.633   2.199 -2.4633 -1.5941 -0.3410
  303MOL0     H41750   1.097   0.493   2.304 -0.6387 -0.7498 -2.8556
  303MOL0     H41751   1.294   0.662   2.413  0.0803  1.9609 -0.5905
  303MOL0     H41752   1.156   0.769   2.405 -0.0509  0.3933 -0.6014
  303MOL0     H41753   1.007   0.572   2.529  0.5193 -2.7570  1.4400
  303MOL0     H41754   1.161   0.487   2.528 -0.6717  0.2831 -2.5210
  303MOL0     H41755   1.117   0.759   2.637 -1.6693 -0.6523  0.8266
  303MOL0     H41756   1.254   0.650   2.681  1.3341  0.5399 -1.6089
  303MOL0     H41757   0.960   0.605   2.753 -0.0318 -1.9201  0.5988
  303MOL0     H41758   1.087   0.497   2.780  3.0534 -0.0750 -1.4531
  303MOL0     H41759   1.083   0.793   2.880 -3.7847 -1.0194  1.1308
  303MOL0     H41760   1.205   0.663   2.924 -0.6544 -1.1641  1.1646
  303MOL0     H41761   0.925   0.737   3.014  1.4713  2.1671  2.3422
  303MOL0     H41762   0.964   0.570   3.019 -1.3361  0.5361  0.9757
  303MOL0     H41763   1.078   0.908   3.155 -2.1974 -2.0999 -2.5807
  303MOL0     H41764   1.256   0.983   3.398 -1.4702  0.7731  1.7394
  303MOL0     H41765   1.255   0.847   3.511 -0.2575  1.0168  0.6042
  303MOL0     H41766   1.089   1.029   3.562 -1.0699 -1.2303  1.8033
  303MOL0     H41767   1.013   1.000   3.408 -0.2222  2.8990  2.4113
  303MOL0     H41768   0.871   0.874   3.574 -0.1260  1.9289 -4.3514
  303MOL0     H41769   0.984   0.754   3.504 -0.3743 -0.0521  0.1749
  303MOL0     H41770   1.142   0.775   3.686 -0.7460 -2.6785 -0.3909
  303MOL0     H41771   1.038   0.875   3.780  0.3345  0.0864 -1.3013
  303MOL0     H41772   1.156   0.693   3.932 -1.2401  2.2480  1.0316
  303MOL0     H41773   1.155   0.662   4.275 -0.1179  1.2344 -0.7985
  303MOL0     H41774   1.262   0.616   4.151  0.4667 -2.6835 -1.2359
  303MOL0     H41775   1.164   0.486   4.225 -2.6704  0.1703 -1.6260
  303MOL0     H41776   0.800   0.427   4.521  1.3456 -0.7054 -2.2082
  303MOL0     H41777   0.658   0.345   4.687  0.3804  0.8634  0.3142
  303MOL0     H41778   0.495   0.263   4.800  1.6694 -0.2859 -4.1130
  303MOL0     H41779   0.361   0.142   4.818  1.0499  0.4228  3.1670
  303MOL0     H41780   0.529  -0.040   4.782 -1.7195  0.3946 -2.1554
  303MOL0     H41781   0.661   0.080   4.786 -1.2205  0.0601 -1.8002
  303MOL0     H41782   0.463   0.087   5.015 -0.3042 -1.7839 -0.6407
  303MOL0     H41783   0.619   0.153   5.012 -0.9219  3.3504 -3.9016
  303MOL0     H41784   0.738  -0.042   5.034  0.3917 -0.0179 -1.3622
  303MOL0     H41785   0.598  -0.149   4.986 -0.2865 -0.1107 -0.1551
  303MOL0     H41786   0.623   0.003   5.248  0.1198  2.2219 -3.1885
  303MOL0     H41787   0.474  -0.078   5.192  0.2385  1.4995  1.1107
  303MOL0     H41788   0.757  -0.213   5.223  0.3866  0.7619 -4.3184
  303MOL0     H41789   0.603  -0.302   5.177 -1.8254  0.4722  1.8539
  303MOL0     H41790   0.613  -0.328   5.404  2.1083  0.6250  1.9989
  303MOL0     H41791   0.503  -0.182   5.395 -0.9649 -1.2957 -0.8060
  303MOL0     H41792   0.663  -0.161   5.575  1.8555 -3.3537  1.4060
  303MOL0     H41793   0.704  -0.043   5.456  1.0541 -0.3055 -1.7706
  303MOL0     H41794   0.471   0.094   4.378  3.7564 -1.1352 -3.0523
  303MOL0     H41795   0.614   0.212   4.215 -0.4301  0.0181 -0.2387
  303MOL0     H41796   0.731   0.496   4.052  0.4959  0.0054  0.5816
  303MOL0     H41797   0.750   0.582   3.853  0.9447  0.2500 -2.0158
  303MOL0     H41798   1.390   0.881   2.147 -1.2054 -0.0769  2.1233
  303MOL0     H41799   1.581   1.000   2.232  0.6908  0.1011 -0.8055
  303MOL0     H41800   2.019   0.832   2.448 -2.3662 -0.8970  0.5514
  303MOL0     H41801   2.235   0.909   2.561  1.1379  0.0944  1.5087
  303MOL0     H41802   2.428   1.045   2.643 -0.4972 -1.2992  2.6883
  303MOL0     H41803   2.338   1.183   2.583  1.5799 -0.8398 -0.9768
  303MOL0     H41804   2.555   1.250   2.681  1.2835 -3.2284 -0.0362
  303MOL0     H41805   2.531   1.138   2.810  1.8463  0.0436 -0.7428
  303MOL0     H41806   2.479   1.418   2.828  1.6706 -0.4597  1.8413
  303MOL0     H41807   2.323   1.368   2.774 -0.3994  0.0120  1.2619
  303MOL0     H41808   2.461   1.304   3.035 -0.3567 -1.3479  0.3098
  303MOL0     H41809   2.342   1.195   2.968 -1.4364  1.5254 -2.1625
  303MOL0     H41810   2.097   1.523   3.050 -0.1187 -1.0199  1.2477
  303MOL0     H41811   2.030   1.171   2.817 -0.2408 -1.0392  1.9161
  303MOL0     H41812   1.738   1.259   2.657 -2.4926 -0.2039  1.6092
  303MOL0     H41813   1.688   1.108   2.721  0.3455 -1.3657  0.7537
  303MOL0     H41814   1.805   1.201   2.813  0.4048 -0.8757 -0.2525
  304MOL0     O41815   8.920   7.054   7.075  0.2142 -0.2430  1.0427
  304MOL0     C41816   8.928   7.063   7.201 -0.4227  0.4172 -0.1764
  304MOL0     O41817   8.885   7.163   7.281  0.0496 -0.1268 -0.2695
  304MOL0     C41818   8.851   7.280   7.216 -0.0451  0.2921  0.0063
  304MOL0     C41819   8.928   7.399   7.235  0.7781  0.9779 -0.1259
  304MOL0     C41820   8.886   7.518   7.167 -0.4390  0.5922 -0.2628
  304MOL0     C41821   8.771   7.524   7.092 -0.2289 -0.0973  0.1674
  304MOL0     O41822   8.759   7.629   7.005  0.2349 -0.2862 -0.3466
  304MOL0     C41823   8.807   7.761   7.034  0.1479  0.3799 -0.1697
  304MOL0     C41824   8.769   7.851   6.925  0.5034 -0.3732  0.0547
  304MOL0     C41825   8.838   7.808   6.789 -0.2880  0.0458  0.3027
  304MOL0     C41826   8.741   7.769   6.685  0.3317  0.1478 -0.4134
  304MOL0     C41827   8.812   7.762   6.547  0.3903 -0.1617  0.7131
  304MOL0     C41828   8.711   7.784   6.427 -0.4508 -0.2699  0.3051
  304MOL0     C41829   8.595   7.689   6.421  0.2986 -0.2109 -0.3872
  304MOL0     C41830   8.613   7.536   6.469 -0.3256  0.1948  1.6264
  304MOL0     N41831   8.479   7.473   6.447  0.1853  0.0449 -0.7000
  304MOL0     C41832   8.420   7.422   6.332 -0.3963 -0.6123 -0.3026
  304MOL0     C41833   8.297   7.380   6.375 -0.5191  0.4649  0.9111
  304MOL0     C41834   8.198   7.330   6.276 -0.1579 -0.5137 -0.0226
  304MOL0     C41835   8.135   7.197   6.317  0.5509 -0.2512 -0.1360
  304MOL0     C41836   8.036   7.134   6.218 -0.3287  0.2821 -0.4086
  304MOL0     C41837   7.923   7.229   6.184  0.2967  0.8973  0.9992
  304MOL0     O41838   7.807   7.154   6.128  0.4552  0.4362  0.3655
  304MOL0     C41839   7.739   7.077   6.217  0.1693  0.4395  0.1594
  304MOL0     C41840   7.651   7.144   6.290  1.0103 -0.0135  0.0404
  304MOL0     C41841   7.592   7.081   6.399  0.1314 -0.5646 -0.1254
  304MOL0     C41842   7.493   7.155   6.481  0.0578 -0.2595  0.2755
  304MOL0     C41843   7.632   6.946   6.424 -0.5277  0.6326  0.6319
  304MOL0     C41844   7.592   6.865   6.547  0.1270 -0.5895 -0.3531
  304MOL0     O41845   7.552   6.919   6.666  0.0259  0.3915  1.0810
  304MOL0     C41846   7.511   6.842   6.773 -0.6816 -0.0493  0.4090
  304MOL0     C41847   7.605   6.776   6.856  0.3621 -1.3799  0.4738
  304MOL0     C41848   7.562   6.706   6.970  0.0456  0.1528  0.0866
  304MOL0     C41849   7.427   6.705   7.008  0.3611  0.5761 -0.0460
  304MOL0     O41850   7.384   6.650   7.133 -0.3946 -0.0758 -0.0890
  304MOL0     C41851   7.484   6.624   7.239 -0.2128 -0.0580 -0.4521
  304MOL0     C41852   7.414   6.578   7.374  0.2998 -0.5805 -0.5149
  304MOL0     C41853   7.509   6.551   7.492 -0.4899  0.3136 -0.2977
  304MOL0     C41854   7.609   6.440   7.464 -0.6621  0.5124 -0.7536
  304MOL0     C41855   7.691   6.387   7.589 -0.6114 -0.9537 -0.0659
  304MOL0     C41856   7.772   6.480   7.682 -0.2071 -0.6745  0.6422
  304MOL0     C41857   7.906   6.506   7.610  0.7314 -0.2679 -0.0542
  304MOL0     C41858   8.006   6.592   7.697  0.2669  0.2238 -0.1726
  304MOL0    Cl41859   8.164   6.631   7.620  0.1871 -0.2691  0.2886
  304MOL0     C41860   7.330   6.766   6.914  0.7455 -1.0369 -0.1127
  304MOL0     C41861   7.377   6.826   6.794  0.2926 -0.7673  1.5855
  304MOL0     O41862   7.578   6.743   6.526 -0.1707 -0.3940 -0.2019
  304MOL0     C41863   7.714   6.871   6.333  0.3259  0.3294  0.3817
  304MOL0     C41864   7.769   6.940   6.224 -0.4677 -0.4435  0.1752
  304MOL0     N41865   8.277   7.422   6.505  0.6769 -0.1783 -1.3082
  304MOL0     N41866   8.389   7.474   6.545  0.6900 -0.6696  0.3420
  304MOL0     C41867   8.695   7.410   7.066 -0.9515 -0.4268 -0.3079
  304MOL0     C41868   8.723   7.300   7.146  0.9194 -0.3349 -0.0913
  304MOL0     C41869   8.980   6.943   7.269  0.3011 -0.4482 -0.3396
  304MOL0     C41870   8.910   6.820   7.233 -0.1579  0.3843  0.0049
  304MOL0     C41871   8.952   6.705   7.295 -0.0669  0.8713 -0.0952
  304MOL0     C41872   9.060   6.700   7.380  0.3304  0.1408  0.1562
  304MOL0     O41873   9.099   6.591   7.449 -0.9949 -0.2632  1.0329
  304MOL0     C41874   9.107   6.468   7.375  0.0167 -0.5972 -0.1842
  304MOL0     C41875   9.058   6.362   7.471 -0.3479  0.3227  0.2696
  304MOL0     C41876   9.066   6.216   7.422  0.6937 -0.7830  1.0378
  304MOL0     C41877   9.017   6.121   7.526  0.1409  0.9033 -0.4085
  304MOL0     C41878   9.069   5.988   7.504  0.6341 -0.1124 -0.3406
  304MOL0     C41879   9.104   5.885   7.459 -0.3494  0.4306 -0.0713
  304MOL0     C41880   9.129   6.813   7.413  0.0555 -0.1548 -0.0763
  304MOL0     C41881   9.092   6.944   7.355  0.5473 -0.3235  0.9214
  304MOL0     C41882   9.171   7.067   7.390  0.2413  0.6735  0.0536
  304MOL0     H41883   9.017   7.387   7.295  0.4004 -2.8290 -0.0784
  304MOL0     H41884   8.963   7.594   7.176  0.7413 -0.4427 -1.3510
  304MOL0     H41885   8.914   7.747   7.047  0.3683  1.4098 -0.7720
  304MOL0     H41886   8.755   7.791   7.125 -1.3153 -0.4146 -0.7079
  304MOL0     H41887   8.660   7.860   6.925  0.5530  2.1304  3.7494
  304MOL0     H41888   8.806   7.951   6.951 -0.1324  1.1049 -3.9621
  304MOL0     H41889   8.916   7.881   6.763  1.2848 -1.7044 -0.1240
  304MOL0     H41890   8.905   7.723   6.803  0.2320  0.6999  1.9671
  304MOL0     H41891   8.679   7.683   6.710 -1.7306  1.9512  1.1069
  304MOL0     H41892   8.685   7.862   6.669  1.4775  1.2148  1.4043
  304MOL0     H41893   8.854   7.661   6.539 -1.6689 -0.8949 -2.1117
  304MOL0     H41894   8.891   7.838   6.538  4.6863 -3.6450  4.0795
  304MOL0     H41895   8.682   7.889   6.434  0.3333 -0.0529  0.3515
  304MOL0     H41896   8.771   7.777   6.335  4.5297  6.8672  2.1495
  304MOL0     H41897   8.557   7.703   6.320 -1.3562  0.8631  0.3312
  304MOL0     H41898   8.507   7.727   6.476 -0.3767  1.6240 -2.5976
  304MOL0     H41899   8.694   7.483   6.419  0.1426  1.5507  0.8718
  304MOL0     H41900   8.648   7.533   6.572 -0.9475  2.1234  1.9380
  304MOL0     H41901   8.457   7.418   6.230 -0.5299 -2.4139 -0.3085
  304MOL0     H41902   8.228   7.334   6.171 -3.0499 -3.9175 -1.1996
  304MOL0     H41903   8.127   7.413   6.281  1.9544  1.4338 -0.8761
  304MOL0     H41904   8.213   7.121   6.329  0.6616 -0.3864 -1.5567
  304MOL0     H41905   8.087   7.215   6.414 -1.6547  1.0149 -1.3848
  304MOL0     H41906   8.098   7.117   6.129  1.8524  0.9662  0.9011
  304MOL0     H41907   8.004   7.041   6.265  1.0562 -1.0988 -2.0705
  304MOL0     H41908   7.897   7.294   6.269  2.4033  0.9829  1.6415
  304MOL0     H41909   7.944   7.285   6.093 -0.0551 -1.4941 -0.6571
  304MOL0     H41910   7.625   7.247   6.270 -0.7361 -0.4967 -0.3972
  304MOL0     H41911   7.441   7.221   6.411 -1.1789 -1.4148  0.0720
  304MOL0     H41912   7.546   7.215   6.555  0.1197  1.0141 -0.7750
  304MOL0     H41913   7.429   7.079   6.526  0.2030 -0.0356  0.8731
  304MOL0     H41914   7.711   6.778   6.831  1.4227 -0.5211  4.4274
  304MOL0     H41915   7.636   6.669   7.040 -1.0299  0.7756  1.6007
  304MOL0     H41916   7.554   6.545   7.210  2.8801  2.5815 -0.6603
  304MOL0     H41917   7.546   6.711   7.257  0.6610 -1.1041  2.0220
  304MOL0     H41918   7.353   6.664   7.402 -0.9367 -1.1371 -1.4386
  304MOL0     H41919   7.350   6.489   7.367  0.0611 -0.7726  2.7681
  304MOL0     H41920   7.457   6.526   7.585  1.0563  1.6660  1.0052
  304MOL0     H41921   7.554   6.649   7.513 -3.3597  1.7978 -0.5151
  304MOL0     H41922   7.683   6.471   7.390 -1.4878 -2.1895 -2.8730
  304MOL0     H41923   7.555   6.356   7.419  0.5424 -0.1843 -0.9394
  304MOL0     H41924   7.623   6.334   7.656  0.4942 -0.0940  1.8044
  304MOL0     H41925   7.752   6.308   7.543 -1.0944 -0.0157 -2.4649
  304MOL0     H41926   7.774   6.440   7.784 -0.1230  2.5475  2.0221
  304MOL0     H41927   7.727   6.577   7.703  2.2667 -0.1508  4.4827
  304MOL0     H41928   7.895   6.552   7.511 -1.0163 -3.1116 -1.3179
  304MOL0     H41929   7.956   6.411   7.588  0.8578  0.0292 -1.0923
  304MOL0     H41930   8.021   6.540   7.792 -0.6426  2.2743  1.1558
  304MOL0     H41931   7.957   6.682   7.733 -2.2396 -1.1045 -0.0441
  304MOL0     H41932   7.225   6.773   6.940  1.4416 -1.0196  3.2109
  304MOL0     H41933   7.305   6.876   6.729  2.8536 -0.8269 -1.5074
  304MOL0     H41934   7.762   6.776   6.355 -2.1127 -1.5347 -1.8369
  304MOL0     H41935   7.832   6.882   6.157  0.3986  0.4527  0.1863
  304MOL0     H41936   8.613   7.408   6.994  0.7393  3.0111 -2.6130
  304MOL0     H41937   8.655   7.215   7.145 -2.6126  2.2593  0.0222
  304MOL0     H41938   8.823   6.824   7.169  0.9374 -1.7506 -1.7328
  304MOL0     H41939   8.907   6.617   7.250 -5.4693  1.6590  2.9615
  304MOL0     H41940   9.046   6.467   7.285 -2.0598 -1.2031  1.1638
  304MOL0     H41941   9.207   6.454   7.334  0.7862  2.1828  0.5148
  304MOL0     H41942   8.966   6.382   7.526  0.5354  0.9378  1.5691
  304MOL0     H41943   9.128   6.360   7.555 -1.6099 -1.3021  1.3615
  304MOL0     H41944   9.006   6.201   7.332  0.5203  0.5164  0.9143
  304MOL0     H41945   9.169   6.189   7.395 -0.0546 -0.7908 -2.1550
  304MOL0     H41946   8.908   6.110   7.525  0.1391 -0.7971  2.9954
  304MOL0     H41947   9.062   6.147   7.622  0.2813 -2.3836  0.5342
  304MOL0     H41948   9.133   5.795   7.408  1.3865  1.5146 -1.0782
  304MOL0     H41949   9.205   6.808   7.490  2.2810 -0.9092 -2.1629
  304MOL0     H41950   9.144   7.144   7.317 -0.5282  0.5327  0.1800
  304MOL0     H41951   9.142   7.099   7.490  1.4284 -0.5850  0.8519
  304MOL0     H41952   9.276   7.036   7.390 -0.1097 -0.6288  1.1748
  305MOL0     O41953   4.136   2.195   8.062 -0.5662  0.4760 -0.4896
  305MOL0     C41954   4.090   2.298   8.022  0.3568  1.3741 -0.5713
  305MOL0     O41955   3.967   2.342   8.050 -0.8086 -0.0379  0.2950
  305MOL0     C41956   3.881   2.268   8.123  0.1329 -0.3576 -0.6528
  305MOL0     C41957   3.848   2.137   8.088  0.1808  0.6335  0.4147
  305MOL0     C41958   3.742   2.072   8.157  0.0539 -0.1568  0.6389
  305MOL0     C41959   3.662   2.135   8.256  0.5399 -0.1176 -0.6688
  305MOL0     O41960   3.547   2.091   8.310  0.0363  0.5126 -0.3042
  305MOL0     C41961   3.474   1.977   8.245  1.1885 -0.4698  0.3858
  305MOL0     C41962   3.388   2.008   8.128 -0.6978 -0.1261 -0.2869
  305MOL0     C41963   3.283   2.106   8.153  0.3710 -0.2977  0.5441
  305MOL0     C41964   3.144   2.067   8.092 -0.4240  0.5356 -0.5125
  305MOL0     C41965   3.089   1.936   8.170 -0.0915 -0.0899 -0.3907
  305MOL0     C41966   2.935   1.928   8.164 -0.3873 -0.5528  0.3403
  305MOL0     C41967   2.889   1.885   8.024  0.0357 -0.1034 -0.3619
  305MOL0     C41968   2.822   1.997   7.947  0.5448 -0.1795 -0.4220
  305MOL0     N41969   2.786   1.941   7.822  0.2630 -0.1730 -0.2851
  305MOL0     C41970   2.674   1.863   7.799 -0.3528  0.2326  0.1872
  305MOL0     C41971   2.687   1.816   7.668 -0.1937 -0.2300 -0.0120
  305MOL0     C41972   2.604   1.719   7.605 -0.2995 -0.6871  0.0731
  305MOL0     C41973   2.638   1.659   7.474 -0.2640 -0.6195 -0.5440
  305MOL0     C41974   2.602   1.758   7.361 -0.4755 -0.3635  0.3252
  305MOL0     C41975   2.656   1.710   7.228 -0.0067 -0.2145  0.3769
  305MOL0     O41976   2.643   1.827   7.151  0.5507  1.0660  0.8600
  305MOL0     C41977   2.625   1.792   7.020 -0.0755  1.8680 -0.1411
  305MOL0     C41978   2.573   1.878   6.924  0.6344  0.5433  0.3766
  305MOL0     C41979   2.574   1.858   6.786  0.1290 -0.3540  0.3435
  305MOL0     C41980   2.535   1.980   6.703  0.0164  0.0659 -0.4023
  305MOL0     C41981   2.626   1.735   6.733  0.5536  0.0385 -0.8614
  305MOL0     C41982   2.617   1.694   6.601  0.6440  0.3423  0.6086
  305MOL0     O41983   2.655   1.779   6.512 -0.3647 -0.5363  0.8701
  305MOL0     C41984   2.633   1.745   6.379  0.1248  0.0005  0.7657
  305MOL0     C41985   2.506   1.700   6.331  0.5047  0.5270 -0.3446
  305MOL0     C41986   2.484   1.671   6.201  0.1583 -0.7903  2.1866
  305MOL0     C41987   2.592   1.689   6.104 -0.6939  0.3685 -0.6296
  305MOL0     O41988   2.583   1.686   5.973  0.3825 -0.6826  0.4958
  305MOL0     C41989   2.458   1.656   5.904 -0.6745 -0.3797  0.2132
  305MOL0     C41990   2.495   1.635   5.753  0.0788 -0.9228 -0.3676
  305MOL0     C41991   2.598   1.522   5.742  0.1063 -0.1694  0.6375
  305MOL0     C41992   2.616   1.489   5.593  1.1994  1.2052 -0.6793
  305MOL0     C41993   2.581   1.336   5.567  0.4572  0.2705 -0.1052
  305MOL0     C41994   2.604   1.305   5.427  0.3946 -0.1519 -0.4115
  305MOL0     C41995   2.605   1.162   5.379  0.0597  1.5353  0.1778
  305MOL0     C41996   2.710   1.064   5.449  0.0185 -0.6304 -0.3328
  305MOL0    Cl41997   2.745   0.911   5.362 -0.4326  0.3823 -0.2988
  305MOL0     C41998   2.713   1.744   6.152  0.2997  1.2419 -0.7587
  305MOL0     C41999   2.729   1.775   6.283 -0.0419 -0.0523  0.4341
  305MOL0     O42000   2.581   1.576   6.573 -0.4974  0.4095  0.2055
  305MOL0     C42001   2.670   1.637   6.827  0.2032 -0.3673 -0.3338
  305MOL0     C42002   2.673   1.672   6.961  0.6010  0.1782 -0.1116
  305MOL0     N42003   2.808   1.862   7.617  0.2496 -0.7742  1.0650
  305MOL0     N42004   2.870   1.927   7.718  1.0313 -0.1583  1.2386
  305MOL0     C42005   3.705   2.260   8.299  0.4617  0.2070 -0.5566
  305MOL0     C42006   3.814   2.322   8.236  0.2951  0.1521 -0.1226
  305MOL0     C42007   4.194   2.370   7.962  0.0566 -0.9584 -0.6343
  305MOL0     C42008   4.325   2.375   8.016  0.0317 -0.6931  0.6430
  305MOL0     C42009   4.417   2.451   7.944 -0.7129  0.0812  0.6805
  305MOL0     C42010   4.383   2.526   7.831  0.1470 -0.4106 -0.2142
  305MOL0     O42011   4.502   2.579   7.778  0.8064 -0.2870  0.5024
  305MOL0     C42012   4.490   2.684   7.686  0.0745 -0.2532 -0.1156
  305MOL0     C42013   4.470   2.616   7.550  0.2970  0.1073  0.4778
  305MOL0     C42014   4.533   2.679   7.430  0.4438 -0.3044  0.5001
  305MOL0     C42015   4.545   2.581   7.312 -0.1575 -0.1553 -0.0917
  305MOL0     C42016   4.427   2.591   7.228  0.3375  0.2872  0.8622
  305MOL0     C42017   4.348   2.579   7.133  0.3339  0.2923 -0.3603
  305MOL0     C42018   4.252   2.542   7.786  0.5796 -1.2027 -1.2122
  305MOL0     C42019   4.159   2.462   7.843 -0.2708  0.8214 -0.9970
  305MOL0     C42020   4.021   2.470   7.782  0.6525 -0.0447 -0.4005
  305MOL0     H42021   3.885   2.072   8.009  3.3547 -2.4508  3.9898
  305MOL0     H42022   3.710   1.979   8.112 -1.6766  0.4893  0.4561
  305MOL0     H42023   3.407   1.934   8.320 -0.2519 -0.5332 -0.8816
  305MOL0     H42024   3.539   1.897   8.209  0.4729 -0.8646 -0.0459
  305MOL0     H42025   3.450   2.034   8.041 -1.3443 -2.6162 -1.5854
  305MOL0     H42026   3.335   1.918   8.094  1.6767 -1.4580 -0.6471
  305MOL0     H42027   3.264   2.115   8.261  2.4500 -2.4641  1.1753
  305MOL0     H42028   3.305   2.209   8.121 -0.3459  0.5466  2.5910
  305MOL0     H42029   3.071   2.144   8.115 -0.5625 -0.2418  1.8913
  305MOL0     H42030   3.145   2.061   7.982  0.9738 -2.3063 -0.4408
  305MOL0     H42031   3.110   1.939   8.277  3.0557 -0.8719 -0.9048
  305MOL0     H42032   3.129   1.841   8.135 -2.5704 -1.5107  0.3475
  305MOL0     H42033   2.905   1.856   8.240 -1.8937  1.5435  1.8473
  305MOL0     H42034   2.886   2.020   8.199 -0.9424 -0.1869 -1.3124
  305MOL0     H42035   2.818   1.803   8.037  0.8949 -0.5714  1.8316
  305MOL0     H42036   2.968   1.829   7.973 -0.5293 -1.3416  0.0904
  305MOL0     H42037   2.730   2.035   7.992  0.4644 -0.8675 -0.0059
  305MOL0     H42038   2.891   2.081   7.931 -1.0529  1.7040  1.8749
  305MOL0     H42039   2.596   1.830   7.866  0.8373  2.8552  3.1052
  305MOL0     H42040   2.515   1.778   7.580  1.8553  2.3522 -0.9990
  305MOL0     H42041   2.580   1.631   7.665 -0.5853 -0.5016  0.2310
  305MOL0     H42042   2.742   1.626   7.461  0.2721 -0.2072  2.1280
  305MOL0     H42043   2.578   1.568   7.462 -0.4333 -1.1780  3.3233
  305MOL0     H42044   2.496   1.784   7.359 -0.5116 -0.4961 -1.5991
  305MOL0     H42045   2.662   1.846   7.387 -1.5293 -0.2658  2.6497
  305MOL0     H42046   2.761   1.680   7.234 -0.7315 -2.7490  2.1655
  305MOL0     H42047   2.600   1.632   7.177  0.1892 -0.6146  0.7618
  305MOL0     H42048   2.529   1.969   6.963  0.6072  0.3193  0.8898
  305MOL0     H42049   2.615   2.051   6.679 -1.3567  1.2502 -1.7088
  305MOL0     H42050   2.467   2.045   6.759  1.7924  0.2310  1.6929
  305MOL0     H42051   2.482   1.951   6.612 -2.2921  1.0522  0.5454
  305MOL0     H42052   2.415   1.692   6.390  0.8459  0.6731  0.2089
  305MOL0     H42053   2.384   1.657   6.164  1.5608  2.1641 -3.9758
  305MOL0     H42054   2.407   1.570   5.950 -1.6016 -0.2641 -0.5637
  305MOL0     H42055   2.391   1.742   5.911  0.4791  0.4932  0.9717
  305MOL0     H42056   2.402   1.607   5.703 -1.9639  1.5745  1.7472
  305MOL0     H42057   2.534   1.732   5.720 -4.7700  1.8740  1.1732
  305MOL0     H42058   2.563   1.439   5.805 -2.2224  2.9714  3.9296
  305MOL0     H42059   2.696   1.549   5.781  0.3657  1.0381 -0.7575
  305MOL0     H42060   2.723   1.502   5.573  1.6780 -1.1834  0.0535
  305MOL0     H42061   2.551   1.539   5.520  2.8391  1.8811 -1.7363
  305MOL0     H42062   2.644   1.271   5.629  2.8081 -0.0376 -2.6155
  305MOL0     H42063   2.476   1.319   5.591  0.3607  1.0733  0.0705
  305MOL0     H42064   2.695   1.349   5.386  0.9530  1.5866  2.4517
  305MOL0     H42065   2.519   1.354   5.380 -3.0681 -2.9619  2.3219
  305MOL0     H42066   2.639   1.175   5.276 -0.7918 -0.3554 -0.3799
  305MOL0     H42067   2.507   1.113   5.379 -1.2175  3.8935  0.1879
  305MOL0     H42068   2.670   1.035   5.546 -0.9876  1.0753 -0.2018
  305MOL0     H42069   2.800   1.124   5.465 -0.8499  0.2336  1.7649
  305MOL0     H42070   2.783   1.762   6.071 -0.0152 -2.1890 -1.9876
  305MOL0     H42071   2.825   1.821   6.305  0.0039  0.7673 -1.3463
  305MOL0     H42072   2.683   1.535   6.793 -1.7768  0.2886 -3.5064
  305MOL0     H42073   2.741   1.608   7.018 -0.3702 -0.0332  0.8331
  305MOL0     H42074   3.646   2.319   8.369  1.8077 -0.9264  1.6334
  305MOL0     H42075   3.852   2.419   8.267 -0.8966  0.9138 -0.9531
  305MOL0     H42076   4.355   2.334   8.112 -0.3303  1.5745  1.7972
  305MOL0     H42077   4.517   2.458   7.984 -0.8596  1.5662  0.8513
  305MOL0     H42078   4.408   2.754   7.704  0.9771  0.2295  2.5642
  305MOL0     H42079   4.580   2.744   7.702 -0.9513  0.8709  1.7251
  305MOL0     H42080   4.363   2.631   7.535 -0.2265  0.1647  3.5333
  305MOL0     H42081   4.495   2.510   7.547  0.5374  0.1726 -2.3474
  305MOL0     H42082   4.460   2.756   7.406  0.8662 -0.7568 -2.5460
  305MOL0     H42083   4.626   2.735   7.444 -0.8620  2.4332 -1.0524
  305MOL0     H42084   4.559   2.481   7.354  1.1929  0.3316  0.6642
  305MOL0     H42085   4.635   2.604   7.255 -0.9630  1.1485 -0.9003
  305MOL0     H42086   4.268   2.585   7.063  0.2702  3.9750 -0.1696
  305MOL0     H42087   4.234   2.598   7.695  0.6151  2.3889  0.7914
  305MOL0     H42088   3.963   2.548   7.832 -1.7327 -2.6058  1.1060
  305MOL0     H42089   4.023   2.498   7.676  1.0141  1.2205 -0.0766
  305MOL0     H42090   3.971   2.373   7.787 -0.6782  0.6756  1.3822
  306MOL0     O42091   4.612   5.710   0.275 -0.7836  0.0369 -0.4450
  306MOL0     C42092   4.661   5.597   0.290  0.4309 -0.4919  0.3256
  306MOL0     O42093   4.588   5.483   0.329 -0.3883 -0.7124 -0.2977
  306MOL0     C42094   4.455   5.491   0.334 -0.9340 -0.4325  0.3771
  306MOL0     C42095   4.380   5.485   0.220  0.4539  0.7406  0.3032
  306MOL0     C42096   4.241   5.478   0.224 -0.7810  0.9916 -0.0394
  306MOL0     C42097   4.172   5.491   0.343  0.1689  0.1429  0.1994
  306MOL0     O42098   4.032   5.482   0.332  0.2026 -0.5807  0.6447
  306MOL0     C42099   3.981   5.369   0.258  0.2373  0.2821 -1.0814
  306MOL0     C42100   3.997   5.237   0.334 -0.3838 -0.9207  0.4199
  306MOL0     C42101   3.935   5.117   0.260  1.0066  0.5867  0.5212
  306MOL0     C42102   3.993   5.081   0.122 -0.4532 -1.2560  0.0961
  306MOL0     C42103   3.938   4.961   0.054  0.1671  0.2697  0.5038
  306MOL0     C42104   3.785   4.950   0.047  0.0143  0.2541 -0.3287
  306MOL0     C42105   3.735   4.830  -0.034 -0.3836 -0.2667 -0.1937
  306MOL0     C42106   3.767   4.831  -0.185  0.4261 -0.8108 -0.5906
  306MOL0     N42107   3.725   4.716  -0.258  0.0825 -0.1039 -0.8322
  306MOL0     C42108   3.660   4.724  -0.377  0.1963 -0.4827  0.1552
  306MOL0     C42109   3.621   4.598  -0.402  0.3402  0.0098 -0.2604
  306MOL0     C42110   3.535   4.536  -0.496  0.1687 -0.1766  0.1828
  306MOL0     C42111   3.380   4.544  -0.475 -0.7183 -0.9404 -1.2945
  306MOL0     C42112   3.322   4.481  -0.602  0.4681  0.0982  0.7533
  306MOL0     C42113   3.161   4.479  -0.589 -0.3704  0.5698 -0.4527
  306MOL0     O42114   3.119   4.608  -0.586  0.0248 -0.2049 -0.0027
  306MOL0     C42115   2.982   4.643  -0.588 -1.6945  0.5000  0.0882
  306MOL0     C42116   2.880   4.562  -0.644  0.1182  0.3534  0.1382
  306MOL0     C42117   2.748   4.611  -0.645  0.1310 -0.0112 -1.3533
  306MOL0     C42118   2.640   4.525  -0.710  0.4375 -0.8109 -0.3857
  306MOL0     C42119   2.729   4.744  -0.604 -0.7352  0.1682  0.1555
  306MOL0     C42120   2.594   4.797  -0.605  0.1579  0.1036 -0.4644
  306MOL0     O42121   2.574   4.902  -0.684  0.2562  0.5708  0.0181
  306MOL0     C42122   2.464   4.980  -0.693  0.1261  0.4412  0.3121
  306MOL0     C42123   2.477   5.077  -0.788  0.8712 -0.2950 -0.1559
  306MOL0     C42124   2.378   5.176  -0.807  0.0562  0.3978 -1.1899
  306MOL0     C42125   2.260   5.169  -0.732  0.7240  0.0998  0.2824
  306MOL0     O42126   2.177   5.264  -0.766  0.3782  0.4433  0.1008
  306MOL0     C42127   2.065   5.296  -0.691 -0.8224 -0.1879  0.3761
  306MOL0     C42128   2.089   5.363  -0.548 -0.2049 -0.5923  0.4311
  306MOL0     C42129   2.106   5.519  -0.543  0.0148 -0.2372  0.3516
  306MOL0     C42130   2.216   5.570  -0.642 -0.2070 -0.4104 -0.0871
  306MOL0     C42131   2.247   5.723  -0.612  0.4586 -0.4005 -0.5521
  306MOL0     C42132   2.131   5.800  -0.667 -0.8588 -0.1300 -1.0275
  306MOL0     C42133   2.158   5.955  -0.641 -0.1476  0.6069  0.2244
  306MOL0     C42134   2.252   6.003  -0.745 -0.3790  0.0758  0.9837
  306MOL0    Cl42135   2.259   6.171  -0.723 -0.1218 -0.3092 -0.3232
  306MOL0     C42136   2.256   5.079  -0.632  0.2160 -0.9742 -1.0982
  306MOL0     C42137   2.347   4.976  -0.614 -0.8602 -0.3298 -0.3427
  306MOL0     O42138   2.512   4.740  -0.526 -0.3205  0.0411  0.6490
  306MOL0     C42139   2.837   4.833  -0.564 -0.1705 -1.0221 -0.9529
  306MOL0     C42140   2.966   4.780  -0.558 -0.1908 -0.0624  0.8705
  306MOL0     N42141   3.674   4.513  -0.302 -0.1247  0.2820 -0.1428
  306MOL0     N42142   3.743   4.585  -0.214 -0.4476  0.3264 -0.5045
  306MOL0     C42143   4.240   5.507   0.463  0.0455  0.1880 -0.6313
  306MOL0     C42144   4.380   5.508   0.456  0.4177  0.8012 -0.3830
  306MOL0     C42145   4.806   5.584   0.273 -0.5191 -0.5782 -0.6678
  306MOL0     C42146   4.864   5.468   0.331 -0.3508 -0.2434 -0.8700
  306MOL0     C42147   4.996   5.438   0.322  0.7202 -0.2127 -0.0959
  306MOL0     C42148   5.090   5.522   0.262  0.2305 -0.4822 -0.3738
  306MOL0     O42149   5.226   5.506   0.253 -0.3400 -0.1534  0.2219
  306MOL0     C42150   5.280   5.395   0.329  0.5589  0.5207 -0.1971
  306MOL0     C42151   5.427   5.411   0.321  0.3619 -0.0601  0.9993
  306MOL0     C42152   5.515   5.320   0.416 -0.2056  0.2149 -0.4233
  306MOL0     C42153   5.489   5.341   0.565  0.4354 -0.2565 -0.2202
  306MOL0     C42154   5.559   5.467   0.603  0.0718  0.2326 -0.6889
  306MOL0     C42155   5.594   5.578   0.628 -0.0883 -0.1279  0.2555
  306MOL0     C42156   5.034   5.637   0.207  0.3859 -0.4156 -1.0217
  306MOL0     C42157   4.893   5.673   0.204  0.6648 -0.2232 -0.2066
  306MOL0     C42158   4.846   5.797   0.127 -0.2697 -0.2139 -0.2582
  306MOL0     H42159   4.434   5.472   0.127  0.3628 -0.4654  0.4029
  306MOL0     H42160   4.187   5.474   0.130 -0.2865  1.8796 -0.3796
  306MOL0     H42161   4.033   5.357   0.162  0.0244  2.3242 -1.4991
  306MOL0     H42162   3.876   5.391   0.239 -0.0418 -0.2283 -0.1928
  306MOL0     H42163   4.104   5.230   0.356  0.1017 -2.3659 -1.9617
  306MOL0     H42164   3.946   5.257   0.428 -3.6435  0.4908 -1.4700
  306MOL0     H42165   3.948   5.027   0.320  0.8191 -0.3776 -0.8377
  306MOL0     H42166   3.827   5.131   0.266  0.1463 -4.8831  2.9950
  306MOL0     H42167   3.985   5.169   0.059  2.6097 -0.8552  0.1212
  306MOL0     H42168   4.098   5.056   0.140  0.1517  0.4218 -0.8556
  306MOL0     H42169   3.971   4.871   0.107  2.0329 -1.3602 -3.0684
  306MOL0     H42170   3.983   4.961  -0.045  2.9006 -1.3140  1.6507
  306MOL0     H42171   3.745   4.943   0.148 -1.7362  0.9228 -0.9360
  306MOL0     H42172   3.744   5.047   0.016  1.7833  1.2362  0.2617
  306MOL0     H42173   3.627   4.815  -0.030  0.0380 -4.8373 -0.7374
  306MOL0     H42174   3.775   4.740   0.015  1.0158 -0.2244 -1.1855
  306MOL0     H42175   3.723   4.919  -0.233  0.1155 -0.6615 -0.0497
  306MOL0     H42176   3.873   4.820  -0.208  0.7188  1.4670 -0.5355
  306MOL0     H42177   3.636   4.814  -0.433 -0.1881 -1.2266 -0.9176
  306MOL0     H42178   3.576   4.436  -0.512  1.5221  0.4466 -0.3472
  306MOL0     H42179   3.564   4.589  -0.587  4.3379 -0.1809  1.3245
  306MOL0     H42180   3.351   4.492  -0.384  1.4479 -0.2384 -0.1447
  306MOL0     H42181   3.340   4.645  -0.461  1.8433  0.1527 -1.3104
  306MOL0     H42182   3.338   4.530  -0.698 -0.8295 -0.2930  0.3187
  306MOL0     H42183   3.366   4.381  -0.603  3.4077  1.2945 -0.5261
  306MOL0     H42184   3.133   4.420  -0.677  0.4750 -1.0990  0.3547
  306MOL0     H42185   3.143   4.415  -0.502 -5.7108 -1.0410 -2.3791
  306MOL0     H42186   2.883   4.455  -0.664 -1.2162  0.0523  1.4020
  306MOL0     H42187   2.646   4.552  -0.816  1.4516  1.2896  0.1507
  306MOL0     H42188   2.539   4.530  -0.668  1.4361 -0.1262  2.1239
  306MOL0     H42189   2.666   4.420  -0.693 -0.9379 -0.6573  4.0376
  306MOL0     H42190   2.562   5.073  -0.855  2.1030 -0.1108  1.3468
  306MOL0     H42191   2.390   5.252  -0.883  0.8065  1.4771 -0.0264
  306MOL0     H42192   1.999   5.360  -0.750 -3.5693 -2.4950  0.6887
  306MOL0     H42193   2.004   5.205  -0.680  1.5108 -1.6705  2.0104
  306MOL0     H42194   2.013   5.328  -0.478 -1.0159 -0.1661 -0.2217
  306MOL0     H42195   2.179   5.307  -0.519 -0.6938 -1.6152  0.0018
  306MOL0     H42196   2.133   5.560  -0.445 -0.3162  1.1498 -0.1224
  306MOL0     H42197   2.009   5.566  -0.562  0.6495  1.0780  0.2210
  306MOL0     H42198   2.176   5.551  -0.742 -2.5246  0.3481  0.6204
  306MOL0     H42199   2.309   5.514  -0.631  0.2892  0.2983 -0.5876
  306MOL0     H42200   2.256   5.729  -0.504 -2.1494 -1.0458 -0.2309
  306MOL0     H42201   2.341   5.762  -0.651 -0.2003 -0.0411 -1.8423
  306MOL0     H42202   2.043   5.789  -0.602 -1.7938  4.4379 -1.1741
  306MOL0     H42203   2.099   5.778  -0.769  0.5391 -1.7360 -1.1643
  306MOL0     H42204   2.207   5.970  -0.544  1.0578 -2.3927  0.1822
  306MOL0     H42205   2.067   6.015  -0.632  0.4131  1.2607  2.1607
  306MOL0     H42206   2.209   5.972  -0.840  0.6202 -2.8659  1.3858
  306MOL0     H42207   2.347   5.950  -0.733  0.1535  0.2848 -1.6964
  306MOL0     H42208   2.169   5.067  -0.568  0.3936 -2.7325 -1.1324
  306MOL0     H42209   2.330   4.891  -0.550  0.4023 -1.2759 -1.2129
  306MOL0     H42210   2.825   4.939  -0.541 -0.3051 -1.5383  1.7052
  306MOL0     H42211   3.055   4.837  -0.532  2.4078 -3.1002 -0.6541
  306MOL0     H42212   4.190   5.525   0.558  1.3324  4.1678 -0.5117
  306MOL0     H42213   4.438   5.505   0.547  0.6143  0.9897 -0.4990
  306MOL0     H42214   4.810   5.389   0.383 -0.6209 -0.3096 -1.2490
  306MOL0     H42215   5.022   5.337   0.354 -1.7366 -1.6154 -2.1039
  306MOL0     H42216   5.247   5.407   0.432  1.2773  0.7246  0.0148
  306MOL0     H42217   5.262   5.299   0.278  0.3365  0.3337  0.2329
  306MOL0     H42218   5.438   5.519   0.333 -1.8768  0.5917 -1.6522
  306MOL0     H42219   5.453   5.385   0.218  0.2900 -0.4111  1.0690
  306MOL0     H42220   5.500   5.214   0.391  1.8396  0.3490 -2.6124
  306MOL0     H42221   5.620   5.331   0.386 -0.6176  1.9498 -1.3897
  306MOL0     H42222   5.533   5.264   0.629 -1.8526 -1.1914  0.3186
  306MOL0     H42223   5.382   5.343   0.587 -0.4691 -2.5059 -3.6283
  306MOL0     H42224   5.618   5.678   0.657  3.4330 -0.4397 -1.2125
  306MOL0     H42225   5.107   5.705   0.164  1.4361 -1.6773 -1.3163
  306MOL0     H42226   4.932   5.865   0.119 -0.5443  0.7300  3.0625
  306MOL0     H42227   4.812   5.762   0.029  1.4781  0.5478 -1.1885
  306MOL0     H42228   4.772   5.849   0.189  2.6454 -0.7140  4.1313
  307MOL0     O42229   2.165  10.576   9.648  1.1621  0.1668 -0.0208
  307MOL0     C42230   2.218  10.658   9.572 -0.4947 -0.4140 -0.2582
  307MOL0     O42231   2.321  10.626   9.486 -0.3361  0.3960 -0.2319
  307MOL0     C42232   2.340  10.486   9.486 -0.2322 -0.3489  0.3321
  307MOL0     C42233   2.408  10.422   9.585 -0.0867  1.0467  0.0440
  307MOL0     C42234   2.430  10.281   9.570  1.0257 -0.7115 -1.2600
  307MOL0     C42235   2.379  10.204   9.458  0.3360 -0.6998  0.1417
  307MOL0     O42236   2.388  10.064   9.440 -0.1295 -0.0799  0.0424
  307MOL0     C42237   2.444   9.996   9.557  0.3514  1.1696  0.0951
  307MOL0     C42238   2.599   9.991   9.533 -0.0229 -1.2528 -0.4776
  307MOL0     C42239   2.648   9.904   9.412 -0.2109 -1.0172 -1.0571
  307MOL0     C42240   2.791   9.841   9.430  0.1131  0.2572  0.2278
  307MOL0     C42241   2.843   9.745   9.324 -0.3309 -0.2592 -0.0639
  307MOL0     C42242   2.986   9.772   9.275  0.9100  0.0651  0.8604
  307MOL0     C42243   3.098   9.768   9.381 -0.4112  0.3165  0.0366
  307MOL0     C42244   3.213   9.853   9.334  0.3447  0.7378 -0.3548
  307MOL0     N42245   3.314   9.870   9.435 -0.0185 -0.3951 -0.0878
  307MOL0     C42246   3.385   9.773   9.495  0.0511  0.2620 -0.0847
  307MOL0     C42247   3.452   9.835   9.598  1.1188 -1.1235  0.7703
  307MOL0     C42248   3.538   9.753   9.703 -0.0042 -0.3271  0.2694
  307MOL0     C42249   3.601   9.840   9.808 -0.0407 -0.7825 -0.0312
  307MOL0     C42250   3.725   9.911   9.750  0.4077 -0.6346  1.1181
  307MOL0     C42251   3.784  10.011   9.853 -0.4844  0.8335 -0.0396
  307MOL0     O42252   3.900  10.068   9.786  0.8956 -0.5030  0.1455
  307MOL0     C42253   3.954  10.189   9.840  0.5399 -0.3132 -0.0013
  307MOL0     C42254   3.884  10.286   9.916  0.8419  0.0964  0.1597
  307MOL0     C42255   3.947  10.406   9.959 -1.0144  0.4583  0.6683
  307MOL0     C42256   3.865  10.506  10.042  0.4359 -1.6811  0.1420
  307MOL0     C42257   4.084  10.424   9.930 -0.1519  0.2674 -0.9775
  307MOL0     C42258   4.151  10.548   9.968  0.2090 -0.9121  0.3389
  307MOL0     O42259   4.227  10.541  10.085  0.2218  0.2067  0.0387
  307MOL0     C42260   4.290  10.657  10.120 -0.4325  0.2471 -0.1659
  307MOL0     C42261   4.425  10.651  10.099  0.0054 -0.0188  0.4642
  307MOL0     C42262   4.508  10.746  10.160 -0.1230 -1.2830  0.4392
  307MOL0     C42263   4.451  10.856  10.232 -0.4110 -0.1133  0.0661
  307MOL0     O42264   4.528  10.954  10.289  0.4879  0.7953  0.2197
  307MOL0     C42265   4.518  11.084  10.218  1.0155  0.0880 -0.6137
  307MOL0     C42266   4.623  11.176  10.280  0.3133 -0.2656 -0.5482
  307MOL0     C42267   4.544  11.305  10.315 -0.1786 -0.2410  0.4745
  307MOL0     C42268   4.624  11.430  10.353 -0.4055 -0.5254  0.3362
  307MOL0     C42269   4.733  11.466  10.257 -0.1198 -0.7986  0.1902
  307MOL0     C42270   4.820  11.586  10.313  0.6723  0.4356  0.0072
  307MOL0     C42271   4.920  11.536  10.421  0.0455 -0.3785 -0.3806
  307MOL0     C42272   5.008  11.654  10.466  0.1901  0.3049  0.2170
  307MOL0    Cl42273   5.080  11.619  10.625 -0.0883  0.3403  0.7524
  307MOL0     C42274   4.308  10.865  10.234 -0.4853  0.0820  0.4439
  307MOL0     C42275   4.235  10.759  10.187  1.0174 -0.8882  0.2537
  307MOL0     O42276   4.122  10.643   9.900  0.1741  0.3778  0.0408
  307MOL0     C42277   4.146  10.326   9.861  0.0801  0.7339  0.5593
  307MOL0     C42278   4.092  10.204   9.822 -0.2601  0.7426  0.7040
  307MOL0     N42279   3.420   9.969   9.601  0.1451  0.3659  1.0852
  307MOL0     N42280   3.337   9.991   9.502  0.1663 -0.1151 -0.0722
  307MOL0     C42281   2.305  10.274   9.362  0.3807 -0.5584 -0.0155
  307MOL0     C42282   2.285  10.414   9.370 -0.0452 -0.7164 -1.1056
  307MOL0     C42283   2.164  10.802   9.570 -0.2958  0.2352  0.8113
  307MOL0     C42284   2.255  10.894   9.523 -0.3605 -0.2083 -0.4505
  307MOL0     C42285   2.210  11.025   9.483  0.4677  0.9086 -0.4798
  307MOL0     C42286   2.071  11.056   9.491 -0.3751 -0.4051  0.5061
  307MOL0     O42287   2.025  11.179   9.458 -0.6528  0.0331  0.9970
  307MOL0     C42288   2.105  11.281   9.397 -1.1554  0.6286  0.4874
  307MOL0     C42289   2.018  11.365   9.307  0.6810 -0.7725  0.1622
  307MOL0     C42290   1.987  11.504   9.372 -0.4405 -0.5283 -0.1211
  307MOL0     C42291   1.892  11.582   9.277  0.6977  0.1631 -0.6613
  307MOL0     C42292   1.854  11.715   9.327 -0.6381  1.3391 -0.0630
  307MOL0     C42293   1.797  11.823   9.354 -0.1573 -0.2168  0.0610
  307MOL0     C42294   1.986  10.958   9.539  0.4095  0.0813 -0.2039
  307MOL0     C42295   2.024  10.830   9.567  0.6242  0.9200  0.9422
  307MOL0     C42296   1.918  10.725   9.579 -0.2297  0.5967 -0.7102
  307MOL0     H42297   2.433  10.478   9.674  0.6296  0.0719  0.4724
  307MOL0     H42298   2.473  10.232   9.656 -2.5769  2.4091  2.7937
  307MOL0     H42299   2.413   9.891   9.562  1.0395  1.0056  1.4163
  307MOL0     H42300   2.417  10.033   9.656  0.2804 -0.8065  0.8745
  307MOL0     H42301   2.626  10.097   9.533 -1.5715 -0.7311 -3.3846
  307MOL0     H42302   2.646   9.947   9.621  0.3793 -1.1680 -0.6502
  307MOL0     H42303   2.588   9.814   9.402 -0.2002 -0.9050 -2.2980
  307MOL0     H42304   2.648   9.957   9.316 -1.6028 -0.5756 -0.8444
  307MOL0     H42305   2.866   9.921   9.429  1.4920 -1.0016 -0.5845
  307MOL0     H42306   2.800   9.802   9.532  0.4900  3.6323  1.6242
  307MOL0     H42307   2.775   9.746   9.238 -1.1782 -0.1597  0.5975
  307MOL0     H42308   2.842   9.641   9.358  1.4298 -0.6494 -1.0464
  307MOL0     H42309   3.016   9.707   9.192  0.7672 -0.3647  1.1449
  307MOL0     H42310   2.979   9.871   9.228 -0.8436 -0.5092 -0.1728
  307MOL0     H42311   3.128   9.664   9.389 -1.2187 -0.2253 -2.8906
  307MOL0     H42312   3.062   9.801   9.479 -0.2084 -0.1131  0.2544
  307MOL0     H42313   3.266   9.813   9.247  1.0307 -2.1782  1.2714
  307MOL0     H42314   3.170   9.952   9.316  2.4049  1.1657 -4.0134
  307MOL0     H42315   3.377   9.669   9.464 -1.9130 -0.3520  2.2001
  307MOL0     H42316   3.617   9.706   9.645  0.0197 -0.5973  0.5149
  307MOL0     H42317   3.474   9.672   9.740 -2.2161  0.2882 -1.9306
  307MOL0     H42318   3.526   9.911   9.842  0.3255 -0.3151 -0.1899
  307MOL0     H42319   3.642   9.771   9.883  2.5219  2.4751  1.8586
  307MOL0     H42320   3.800   9.845   9.707  0.9458 -0.0046  1.0771
  307MOL0     H42321   3.697   9.973   9.665  2.7448  3.1933  2.8665
  307MOL0     H42322   3.713  10.088   9.884 -1.0914  1.2195 -2.2489
  307MOL0     H42323   3.823   9.957   9.940  1.8777  0.3483 -1.3264
  307MOL0     H42324   3.784  10.271   9.953  1.4835  0.8241  2.3134
  307MOL0     H42325   3.857  10.601   9.988  4.0693 -1.1027  0.3682
  307MOL0     H42326   3.897  10.520  10.146 -0.6277  1.3120  0.1544
  307MOL0     H42327   3.761  10.473  10.048  0.0364 -0.3600  1.1556
  307MOL0     H42328   4.459  10.565  10.043 -2.7406 -1.8820  1.4662
  307MOL0     H42329   4.616  10.739  10.153 -0.1801 -0.9259 -1.6924
  307MOL0     H42330   4.547  11.066  10.114  1.3855 -0.1135 -0.4794
  307MOL0     H42331   4.415  11.118  10.227  0.3482 -0.9078 -3.4266
  307MOL0     H42332   4.669  11.142  10.374 -0.9975  1.7738  0.9389
  307MOL0     H42333   4.697  11.189  10.200 -0.2755  0.9353 -0.9233
  307MOL0     H42334   4.458  11.294  10.382 -0.1954 -2.3618  0.1587
  307MOL0     H42335   4.491  11.333  10.224  0.5984 -0.2277  0.0249
  307MOL0     H42336   4.665  11.412  10.453  2.1144 -0.6183 -0.6521
  307MOL0     H42337   4.554  11.512  10.370  0.6019  0.1090  1.6637
  307MOL0     H42338   4.794  11.376  10.249 -0.8196 -1.4227  1.5168
  307MOL0     H42339   4.687  11.490  10.161 -2.2716  1.8567  1.7281
  307MOL0     H42340   4.756  11.662  10.359 -1.9947 -1.5547 -0.2176
  307MOL0     H42341   4.865  11.623  10.220 -1.4783 -1.3712 -1.8620
  307MOL0     H42342   4.995  11.463  10.390 -0.8648 -0.8662 -1.5014
  307MOL0     H42343   4.868  11.489  10.505  0.6761  2.2862  1.6568
  307MOL0     H42344   4.948  11.746  10.469 -0.1995  0.3421 -3.9392
  307MOL0     H42345   5.086  11.672  10.392 -1.2359 -1.5466 -1.8521
  307MOL0     H42346   4.256  10.952  10.271 -0.7928 -0.6424  1.7995
  307MOL0     H42347   4.127  10.750  10.191  0.4624  3.3486 -0.9502
  307MOL0     H42348   4.250  10.337   9.832  0.1730 -1.4384 -0.0619
  307MOL0     H42349   4.157  10.133   9.771 -0.1706  0.4052  1.2792
  307MOL0     H42350   2.253  10.226   9.279  1.4662 -2.2176  0.2080
  307MOL0     H42351   2.230  10.461   9.289  0.3279 -2.8772 -2.6868
  307MOL0     H42352   2.359  10.863   9.521 -1.0631 -2.7745 -2.2907
  307MOL0     H42353   2.288  11.098   9.462 -1.2871  2.7433 -1.0410
  307MOL0     H42354   2.161  11.337   9.472 -0.4493 -1.3774  1.5538
  307MOL0     H42355   2.180  11.244   9.326 -1.3057  0.4798  0.4035
  307MOL0     H42356   1.926  11.308   9.289  0.0386  0.0920  0.6142
  307MOL0     H42357   2.070  11.388   9.214 -0.3930 -2.2751 -0.8681
  307MOL0     H42358   1.953  11.492   9.476  0.8299  2.3913  0.7088
  307MOL0     H42359   2.076  11.566   9.382 -1.6654  0.9506  2.8344
  307MOL0     H42360   1.806  11.519   9.254 -1.8342  2.5507  1.6433
  307MOL0     H42361   1.947  11.600   9.184  0.6527  1.6237 -0.4237
  307MOL0     H42362   1.751  11.917   9.376  2.8787  1.9713 -2.0355
  307MOL0     H42363   1.878  10.965   9.526 -0.1265  2.1724  3.9025
  307MOL0     H42364   1.818  10.769   9.583 -0.4889 -0.0530  0.7529
  307MOL0     H42365   1.929  10.653   9.497 -1.1696 -2.2237  1.4533
  307MOL0     H42366   1.932  10.679   9.677 -4.1153  0.2344 -0.1808
  308MOL0     O42367   6.944   3.342   2.247 -0.2483 -0.5218  0.5034
  308MOL0     C42368   6.858   3.325   2.160 -0.7409 -0.2762  0.4657
  308MOL0     O42369   6.754   3.251   2.169  0.2333  0.7393 -0.8741
  308MOL0     C42370   6.732   3.160   2.270 -0.1871  0.9367 -0.5053
  308MOL0     C42371   6.833   3.091   2.335 -1.1837 -0.1443  0.0828
  308MOL0     C42372   6.810   2.990   2.433  0.1301 -0.8394 -0.1099
  308MOL0     C42373   6.679   2.969   2.480 -0.3185 -0.6661 -0.1760
  308MOL0     O42374   6.663   2.896   2.595  0.0538 -0.9239 -0.1494
  308MOL0     C42375   6.537   2.840   2.625 -0.2994 -0.8617 -1.0358
  308MOL0     C42376   6.560   2.788   2.770  0.1602 -0.6960 -0.2697
  308MOL0     C42377   6.422   2.729   2.822 -0.2237 -0.6829  0.2589
  308MOL0     C42378   6.449   2.642   2.947  0.1737  0.5971 -0.1787
  308MOL0     C42379   6.312   2.621   3.010  0.9250 -0.2058  0.6584
  308MOL0     C42380   6.291   2.495   3.099 -0.0181  0.7307 -0.2123
  308MOL0     C42381   6.144   2.465   3.114  1.2415  0.3072 -0.3783
  308MOL0     C42382   6.121   2.364   3.234 -0.4302 -0.8344  0.4424
  308MOL0     N42383   6.069   2.234   3.185 -0.2569 -0.4579  0.0480
  308MOL0     C42384   5.948   2.184   3.178 -0.8607  1.2820 -0.4993
  308MOL0     C42385   5.967   2.054   3.134 -1.1950  0.7066 -0.4894
  308MOL0     C42386   5.857   1.945   3.139 -0.1069 -0.3494 -0.2608
  308MOL0     C42387   5.901   1.819   3.054  0.2445  0.0338 -1.1305
  308MOL0     C42388   5.930   1.850   2.903 -0.4581 -0.1251  0.6177
  308MOL0     C42389   5.960   1.715   2.845  0.1622  0.5188  1.0438
  308MOL0     O42390   6.021   1.730   2.718 -0.6585  0.3211 -0.5645
  308MOL0     C42391   6.142   1.663   2.707 -0.2498 -0.0333  0.6965
  308MOL0     C42392   6.257   1.703   2.785  0.3135 -0.3073 -1.2492
  308MOL0     C42393   6.373   1.635   2.774  0.9453  0.9962 -0.7403
  308MOL0     C42394   6.493   1.700   2.845  0.6168  0.5473  0.1395
  308MOL0     C42395   6.386   1.521   2.680  1.1614  0.1656 -0.3097
  308MOL0     C42396   6.513   1.451   2.647  0.8081 -1.1109  0.3939
  308MOL0     O42397   6.506   1.360   2.538 -0.1739  0.1566 -0.0557
  308MOL0     C42398   6.628   1.300   2.496  0.3595 -0.0785 -0.2610
  308MOL0     C42399   6.696   1.206   2.574 -0.5498  0.7256  0.4243
  308MOL0     C42400   6.817   1.151   2.539 -0.2717 -0.4125  0.4109
  308MOL0     C42401   6.882   1.191   2.419 -0.1672 -0.2530 -0.5156
  308MOL0     O42402   7.009   1.147   2.394  0.0621 -0.4146 -0.1039
  308MOL0     C42403   7.068   1.198   2.271  0.5760  0.3156  0.0996
  308MOL0     C42404   7.218   1.151   2.241  0.4167 -1.2941  0.9199
  308MOL0     C42405   7.223   1.005   2.267 -0.4377  0.1655 -0.2421
  308MOL0     C42406   7.299   0.929   2.168  0.3088  0.3604  0.4337
  308MOL0     C42407   7.290   0.773   2.201 -0.7037 -0.5399  0.1016
  308MOL0     C42408   7.391   0.707   2.117 -0.6406 -0.4967  0.4489
  308MOL0     C42409   7.411   0.557   2.137 -0.3619 -0.5634 -0.2612
  308MOL0     C42410   7.303   0.472   2.072 -0.4081  0.4324  0.6916
  308MOL0    Cl42411   7.333   0.296   2.112  0.1962 -0.4249  0.1048
  308MOL0     C42412   6.815   1.298   2.349 -0.0727  1.1176  1.4926
  308MOL0     C42413   6.683   1.352   2.379 -0.8766  0.1306 -1.0438
  308MOL0     O42414   6.617   1.475   2.702  0.1338 -0.6779  0.1473
  308MOL0     C42415   6.265   1.488   2.602  0.1753 -0.1610 -0.7540
  308MOL0     C42416   6.144   1.551   2.619 -1.1620  0.1503  0.5260
  308MOL0     N42417   6.104   2.039   3.112 -0.0489  0.2479  0.2860
  308MOL0     N42418   6.167   2.147   3.148  0.6579 -0.1611  0.4564
  308MOL0     C42419   6.573   3.040   2.411 -0.1401  0.1661  0.4855
  308MOL0     C42420   6.598   3.122   2.295 -0.3357 -0.1607  0.0696
  308MOL0     C42421   6.882   3.392   2.035 -0.9268  0.1921 -0.5558
  308MOL0     C42422   6.771   3.397   1.947  0.1996 -0.3276  0.4881
  308MOL0     C42423   6.775   3.483   1.837  0.3889 -0.6779 -0.5496
  308MOL0     C42424   6.889   3.549   1.804  0.3763 -0.0647  1.3412
  308MOL0     O42425   6.912   3.619   1.687 -0.7689  0.0550 -0.5717
  308MOL0     C42426   6.824   3.637   1.586  0.5946 -0.4366 -0.4705
  308MOL0     C42427   6.730   3.754   1.610  0.4089  1.0545 -0.7628
  308MOL0     C42428   6.796   3.887   1.583  0.5640 -0.0268  0.5342
  308MOL0     C42429   6.757   4.000   1.672 -0.1253 -0.6509  0.2452
  308MOL0     C42430   6.613   4.004   1.679 -0.0760  0.1297 -0.1871
  308MOL0     C42431   6.491   4.001   1.684  1.2359  1.2086  0.3719
  308MOL0     C42432   6.998   3.537   1.882 -1.0005 -0.2927 -0.7291
  308MOL0     C42433   6.997   3.458   1.991  0.3407 -0.4071  0.3176
  308MOL0     C42434   7.134   3.436   2.061  0.5976 -0.1483  0.2230
  308MOL0     H42435   6.935   3.099   2.300 -1.1158  1.0750  0.5159
  308MOL0     H42436   6.896   2.928   2.456  0.2192 -1.2072 -1.3260
  308MOL0     H42437   6.505   2.753   2.568 -1.2724 -1.1010 -0.1486
  308MOL0     H42438   6.453   2.910   2.629  0.0144 -0.3311 -2.9084
  308MOL0     H42439   6.639   2.713   2.784 -1.0026 -1.7216  1.0061
  308MOL0     H42440   6.581   2.875   2.833  2.0414 -0.8660 -0.5942
  308MOL0     H42441   6.357   2.810   2.855  2.4773  1.4339  0.7133
  308MOL0     H42442   6.357   2.688   2.745 -0.8980  2.3136 -0.8928
  308MOL0     H42443   6.505   2.552   2.921  3.7162  3.1193 -1.9654
  308MOL0     H42444   6.498   2.710   3.017 -0.9644  2.7252 -1.3311
  308MOL0     H42445   6.236   2.602   2.934 -0.1203  2.1863  1.0136
  308MOL0     H42446   6.272   2.716   3.047  0.1211  0.2377 -1.2009
  308MOL0     H42447   6.333   2.403   3.057 -1.4183 -0.2819  0.4952
  308MOL0     H42448   6.345   2.520   3.191 -0.6435  2.1035 -0.1967
  308MOL0     H42449   6.097   2.436   3.020 -0.9247 -1.8989  1.2435
  308MOL0     H42450   6.093   2.558   3.141 -0.5757 -0.3205 -1.4751
  308MOL0     H42451   6.220   2.346   3.278  0.2156  0.6440 -0.3069
  308MOL0     H42452   6.052   2.400   3.310 -2.0112 -0.7295 -0.9886
  308MOL0     H42453   5.854   2.234   3.200 -1.8599 -0.7461  0.0741
  308MOL0     H42454   5.755   1.975   3.115  0.4348  0.9833 -1.0080
  308MOL0     H42455   5.841   1.923   3.245  0.8157  0.8451  0.1611
  308MOL0     H42456   5.994   1.779   3.094  0.0498 -0.1840 -0.8957
  308MOL0     H42457   5.819   1.747   3.057  0.9173 -0.7624  2.5330
  308MOL0     H42458   5.842   1.888   2.851 -0.2406 -1.4067 -0.7524
  308MOL0     H42459   6.017   1.914   2.886  0.1554 -1.0508  0.2117
  308MOL0     H42460   6.003   1.641   2.912  0.2779 -1.2431 -0.8865
  308MOL0     H42461   5.865   1.665   2.825  0.7634 -0.3739  0.3753
  308MOL0     H42462   6.248   1.788   2.852 -5.5881 -0.1465 -1.6530
  308MOL0     H42463   6.550   1.745   2.763 -2.7917 -0.2830 -2.9068
  308MOL0     H42464   6.544   1.619   2.898 -1.8444 -0.3650  1.2554
  308MOL0     H42465   6.454   1.768   2.922 -1.2509 -1.3461  0.9408
  308MOL0     H42466   6.642   1.140   2.642 -2.1843 -0.3018 -1.7564
  308MOL0     H42467   6.851   1.067   2.599 -1.8274 -2.1197 -0.9578
  308MOL0     H42468   7.013   1.162   2.184 -0.2058 -1.7464  1.4049
  308MOL0     H42469   7.073   1.307   2.262 -2.0015  0.5241  0.6970
  308MOL0     H42470   7.226   1.172   2.134 -4.7859  1.4565  0.7556
  308MOL0     H42471   7.289   1.211   2.298  0.4572 -2.3059  1.9820
  308MOL0     H42472   7.122   0.962   2.263 -0.5886  0.3903  0.7705
  308MOL0     H42473   7.266   0.991   2.367 -2.4004  2.6562  1.0731
  308MOL0     H42474   7.400   0.969   2.155  1.2917 -2.2096 -0.5122
  308MOL0     H42475   7.256   0.937   2.067 -0.9047 -2.8787  0.5663
  308MOL0     H42476   7.321   0.770   2.306 -2.0983 -2.0910  0.5200
  308MOL0     H42477   7.189   0.731   2.196 -2.1241  2.4157  1.2100
  308MOL0     H42478   7.481   0.764   2.143 -0.3286 -0.3445 -0.8769
  308MOL0     H42479   7.372   0.731   2.012 -2.1132 -1.9567  0.3455
  308MOL0     H42480   7.415   0.525   2.242 -0.9534 -1.1638 -0.4144
  308MOL0     H42481   7.502   0.538   2.080 -0.1165 -0.9331  0.2438
  308MOL0     H42482   7.292   0.490   1.964 -0.7574  0.5425  0.7423
  308MOL0     H42483   7.207   0.494   2.121  0.0778  1.5596  1.1860
  308MOL0     H42484   6.860   1.332   2.257 -2.0297  1.2328  0.5221
  308MOL0     H42485   6.623   1.418   2.317  1.2613  0.7058 -2.6329
  308MOL0     H42486   6.265   1.409   2.528 -1.2029  0.1454 -1.1109
  308MOL0     H42487   6.053   1.524   2.566 -1.3914 -4.0407  2.6218
  308MOL0     H42488   6.471   3.015   2.437 -0.3977 -3.7382 -3.2273
  308MOL0     H42489   6.519   3.160   2.231  1.2141 -1.5524 -2.8716
  308MOL0     H42490   6.678   3.342   1.963 -1.0144  2.0330  2.2545
  308MOL0     H42491   6.685   3.495   1.778  0.9198  2.4234 -0.8934
  308MOL0     H42492   6.886   3.652   1.498 -0.0445  0.4880 -0.7851
  308MOL0     H42493   6.765   3.545   1.576 -0.0758  0.0442 -0.9883
  308MOL0     H42494   6.684   3.728   1.706  1.0550 -2.9036 -1.3758
  308MOL0     H42495   6.647   3.745   1.539  0.0450 -0.1466 -0.2023
  308MOL0     H42496   6.903   3.869   1.597  0.9958 -0.0667 -2.1606
  308MOL0     H42497   6.777   3.908   1.477  4.5321 -1.1252 -0.5714
  308MOL0     H42498   6.804   4.090   1.632 -0.1009 -0.2842  1.0790
  308MOL0     H42499   6.799   3.992   1.772  0.2367  1.1568  0.2647
  308MOL0     H42500   6.384   3.998   1.672  1.2539  2.3130 -0.1625
  308MOL0     H42501   7.096   3.563   1.845 -0.3871  0.4715  1.3201
  308MOL0     H42502   7.158   3.330   2.067  0.4498 -0.1488  0.8806
  308MOL0     H42503   7.215   3.480   2.002  0.5086  0.1112  0.2904
  308MOL0     H42504   7.127   3.488   2.157 -2.2828  0.7629 -0.3916
  309MOL0     O42505   9.566   2.098   3.356  0.8754  0.1069 -0.1412
  309MOL0     C42506   9.513   2.086   3.466  0.4527 -0.1705 -0.5516
  309MOL0     O42507   9.421   2.168   3.515 -0.1112 -0.1262 -0.0830
  309MOL0     C42508   9.371   2.255   3.420 -0.7990 -0.2172 -0.9451
  309MOL0     C42509   9.448   2.375   3.406 -1.1214 -0.3449  1.0229
  309MOL0     C42510   9.418   2.463   3.297 -0.3462 -0.0716 -0.0924
  309MOL0     C42511   9.312   2.440   3.215 -1.3479  1.5398  0.8299
  309MOL0     O42512   9.281   2.533   3.121  0.0549 -0.7056  0.9258
  309MOL0     C42513   9.254   2.493   2.979 -0.4064 -0.3852 -0.9349
  309MOL0     C42514   9.348   2.384   2.919  1.3899 -0.4268  0.3784
  309MOL0     C42515   9.495   2.394   2.931 -0.1342 -0.7005 -0.5963
  309MOL0     C42516   9.560   2.494   2.830  0.0847 -0.0916  0.1949
  309MOL0     C42517   9.602   2.630   2.883 -0.2986 -0.6727  0.1752
  309MOL0     C42518   9.735   2.626   2.965  0.3899  0.0070 -0.5019
  309MOL0     C42519   9.804   2.768   2.981 -0.0920  0.6208  0.4074
  309MOL0     C42520   9.918   2.787   2.863 -0.5484 -0.3562  0.6342
  309MOL0     N42521  10.038   2.721   2.899 -0.6975 -0.7561 -0.0944
  309MOL0     C42522  10.127   2.763   2.995 -0.6153 -0.7054  0.2820
  309MOL0     C42523  10.208   2.644   3.013 -0.6522 -0.1084  0.1612
  309MOL0     C42524  10.312   2.643   3.124  1.2116  0.2243 -0.1677
  309MOL0     C42525  10.448   2.594   3.091 -0.5931 -0.1372  0.1099
  309MOL0     C42526  10.522   2.693   2.984  0.1179 -1.0723 -0.2555
  309MOL0     C42527  10.648   2.636   2.929 -0.2015  0.1848  0.1478
  309MOL0     O42528  10.738   2.614   3.035  0.2458 -0.2112  0.0742
  309MOL0     C42529  10.853   2.554   2.987 -0.1760 -0.4352 -0.7960
  309MOL0     C42530  10.846   2.426   2.929 -1.0236  0.4477 -0.2319
  309MOL0     C42531  10.961   2.352   2.893  0.9652 -0.1461 -0.8550
  309MOL0     C42532  10.934   2.203   2.850 -0.3213 -0.1225 -0.2684
  309MOL0     C42533  11.088   2.409   2.924  0.3022 -0.4305 -0.2672
  309MOL0     C42534  11.215   2.336   2.885  0.7447 -1.0451  1.2849
  309MOL0     O42535  11.216   2.257   2.779  0.9546  0.1136  0.4475
  309MOL0     C42536  11.332   2.217   2.721 -0.2298  0.2312  0.6602
  309MOL0     C42537  11.320   2.091   2.666  0.1359  0.8397 -0.1691
  309MOL0     C42538  11.417   2.032   2.591 -0.5758  0.0458 -0.0151
  309MOL0     C42539  11.539   2.101   2.577 -0.3812  0.9836  0.7073
  309MOL0     O42540  11.652   2.053   2.506  0.2443 -0.4221  0.2569
  309MOL0     C42541  11.641   1.951   2.403  0.7176  0.1892  0.7559
  309MOL0     C42542  11.748   1.972   2.298 -0.2550  0.4411  0.3734
  309MOL0     C42543  11.891   1.962   2.367  0.4136  0.6658 -0.0159
  309MOL0     C42544  12.016   1.967   2.271  0.1070  0.3770  0.6994
  309MOL0     C42545  12.148   1.905   2.326  0.1203 -0.0897  0.4954
  309MOL0     C42546  12.250   1.876   2.207  0.6431 -0.8327  0.2864
  309MOL0     C42547  12.390   1.927   2.251 -0.3926 -0.1045 -0.4749
  309MOL0     C42548  12.473   1.924   2.125 -1.1991  0.5008 -0.1653
  309MOL0    Cl42549  12.628   1.975   2.159  0.3642  0.4872 -0.2490
  309MOL0     C42550  11.556   2.229   2.631 -0.7188 -0.4935 -0.1298
  309MOL0     C42551  11.454   2.284   2.709 -0.2963 -0.2139 -0.9475
  309MOL0     O42552  11.314   2.351   2.959 -0.0923 -0.4423  0.8022
  309MOL0     C42553  11.093   2.537   2.992 -0.2929  0.0722 -0.6136
  309MOL0     C42554  10.982   2.610   3.010  0.4112 -0.2930 -0.1156
  309MOL0     N42555  10.159   2.537   2.947  0.7707 -0.3227 -0.0251
  309MOL0     N42556  10.061   2.590   2.876  0.4791  0.8320 -0.6625
  309MOL0     C42557   9.240   2.317   3.232 -1.3479 -0.0252  0.2923
  309MOL0     C42558   9.276   2.228   3.334 -0.0668 -0.6087  0.8845
  309MOL0     C42559   9.555   1.971   3.550  0.3946  0.7255  0.1455
  309MOL0     C42560   9.612   1.855   3.484  0.0185 -0.7509  0.6471
  309MOL0     C42561   9.645   1.742   3.552  0.3806 -1.3103  0.7211
  309MOL0     C42562   9.630   1.734   3.691  0.3590  0.6390  0.5657
  309MOL0     O42563   9.650   1.619   3.767  0.2643 -0.2686 -0.5397
  309MOL0     C42564   9.619   1.493   3.696 -0.2740  0.5185 -0.3641
  309MOL0     C42565   9.579   1.390   3.804 -0.2091 -0.2136  0.9396
  309MOL0     C42566   9.616   1.241   3.751 -0.3532 -0.3555  0.5646
  309MOL0     C42567   9.575   1.131   3.849 -0.4222 -0.0051 -0.6927
  309MOL0     C42568   9.432   1.129   3.892 -0.8524 -0.3177 -0.7523
  309MOL0     C42569   9.317   1.137   3.920 -0.0855  0.1386  0.7625
  309MOL0     C42570   9.582   1.847   3.752  0.6424  0.1474 -0.7709
  309MOL0     C42571   9.548   1.961   3.687  0.4356 -0.8388 -0.6208
  309MOL0     C42572   9.498   2.074   3.771  0.4353  0.3598  0.0118
  309MOL0     H42573   9.533   2.401   3.469  0.4973 -0.9408 -0.8370
  309MOL0     H42574   9.472   2.556   3.280 -3.8762  2.1722 -0.0484
  309MOL0     H42575   9.256   2.577   2.909 -1.5894 -0.6598 -1.3346
  309MOL0     H42576   9.155   2.449   2.961 -0.4856  0.7178 -3.6111
  309MOL0     H42577   9.324   2.290   2.969 -0.3676 -0.7384 -0.9393
  309MOL0     H42578   9.335   2.366   2.812 -0.6301 -1.9917  0.8387
  309MOL0     H42579   9.518   2.437   3.029  2.7792 -1.9862 -0.5936
  309MOL0     H42580   9.533   2.292   2.918  2.2919  0.1952 -1.1204
  309MOL0     H42581   9.657   2.458   2.794  2.2926  3.7821  1.6880
  309MOL0     H42582   9.501   2.502   2.738  1.4306 -2.4945 -1.0129
  309MOL0     H42583   9.525   2.675   2.947 -0.2028  1.2587 -0.9866
  309MOL0     H42584   9.624   2.692   2.796  5.5254 -1.0151  1.0282
  309MOL0     H42585   9.705   2.578   3.058  1.8092 -0.5557 -0.3101
  309MOL0     H42586   9.803   2.557   2.913  2.4591  0.6084  1.2579
  309MOL0     H42587   9.851   2.775   3.079  0.5528  1.1799  0.0611
  309MOL0     H42588   9.736   2.853   2.989  0.6625  1.2131  0.6310
  309MOL0     H42589   9.883   2.751   2.765 -0.3160  3.2858 -0.9222
  309MOL0     H42590   9.952   2.890   2.851 -1.3103  0.0450  1.7148
  309MOL0     H42591  10.130   2.853   3.056 -0.5614 -1.1056  0.8874
  309MOL0     H42592  10.269   2.574   3.197 -2.0748 -0.3943 -2.4692
  309MOL0     H42593  10.316   2.744   3.166  5.1963 -0.1386  0.7407
  309MOL0     H42594  10.514   2.581   3.178 -0.2057 -2.2806 -0.4334
  309MOL0     H42595  10.447   2.493   3.049 -1.2510  0.2103 -0.7421
  309MOL0     H42596  10.458   2.708   2.896 -0.3390  2.1311  0.5031
  309MOL0     H42597  10.528   2.796   3.020 -0.3280 -0.4230 -1.9186
  309MOL0     H42598  10.621   2.546   2.873  2.5487 -1.4724  1.2725
  309MOL0     H42599  10.692   2.706   2.857 -4.0851  2.6482 -0.1814
  309MOL0     H42600  10.752   2.376   2.905 -0.3830 -0.4914 -0.8565
  309MOL0     H42601  10.995   2.191   2.760  0.3846  1.8846 -0.1182
  309MOL0     H42602  10.827   2.186   2.832 -0.6527  0.1831  1.3272
  309MOL0     H42603  10.954   2.141   2.938 -0.0407  1.9504  1.1981
  309MOL0     H42604  11.240   2.024   2.696  0.3080  1.6077  2.2880
  309MOL0     H42605  11.392   1.938   2.542 -1.2496 -0.3575  1.0534
  309MOL0     H42606  11.662   1.852   2.444  2.8100 -0.7827 -2.2814
  309MOL0     H42607  11.545   1.946   2.351  0.9002  0.1933  0.4164
  309MOL0     H42608  11.742   1.899   2.217  1.6223 -1.8618  2.1728
  309MOL0     H42609  11.744   2.068   2.245  1.8390  1.2967  1.6401
  309MOL0     H42610  11.896   1.867   2.421 -0.7902  1.5394  1.7185
  309MOL0     H42611  11.909   2.051   2.429 -0.4065  2.2071 -1.8803
  309MOL0     H42612  12.024   2.071   2.236  1.3445  0.0978  0.0762
  309MOL0     H42613  11.991   1.918   2.177  0.3556  1.2715  0.1464
  309MOL0     H42614  12.180   1.980   2.400 -0.7324  0.7996 -0.0063
  309MOL0     H42615  12.137   1.809   2.377 -0.0432  0.1195  0.8547
  309MOL0     H42616  12.224   1.928   2.115  0.7919 -0.4096  0.4794
  309MOL0     H42617  12.251   1.768   2.192 -1.4034 -0.6444 -1.6477
  309MOL0     H42618  12.424   1.849   2.319 -0.4191  0.5965  0.3677
  309MOL0     H42619  12.399   2.025   2.299 -4.4275 -0.4285  1.4367
  309MOL0     H42620  12.428   1.990   2.050  0.1350 -2.3326 -3.7801
  309MOL0     H42621  12.472   1.827   2.075 -0.3892  1.2278 -1.6871
  309MOL0     H42622  11.646   2.286   2.608 -1.3350  0.9945  0.9569
  309MOL0     H42623  11.464   2.380   2.758 -4.1711 -0.9385  1.6747
  309MOL0     H42624  11.178   2.598   3.019 -0.8497  0.4856  0.2280
  309MOL0     H42625  10.998   2.713   3.041  0.9143 -1.1162  2.6883
  309MOL0     H42626   9.154   2.293   3.169 -1.9889 -1.8605  1.7676
  309MOL0     H42627   9.230   2.130   3.330 -1.6281  0.0334  2.1343
  309MOL0     H42628   9.610   1.843   3.376  1.3937 -4.4439  0.8819
  309MOL0     H42629   9.671   1.653   3.495 -0.8052 -0.4561 -1.2682
  309MOL0     H42630   9.528   1.514   3.639 -1.3547 -2.0383  0.2728
  309MOL0     H42631   9.703   1.463   3.634 -2.3876  1.3783 -3.9305
  309MOL0     H42632   9.473   1.401   3.826 -1.1758  1.1368 -3.3746
  309MOL0     H42633   9.641   1.410   3.892  0.4439 -1.3594  0.7542
  309MOL0     H42634   9.561   1.220   3.659 -3.3114 -0.0514  2.1188
  309MOL0     H42635   9.724   1.229   3.742 -0.4155  0.3815 -1.6930
  309MOL0     H42636   9.626   1.149   3.944 -1.2039 -2.0163  0.1442
  309MOL0     H42637   9.611   1.041   3.798  7.1649  2.7167 -1.4895
  309MOL0     H42638   9.213   1.156   3.937 -0.3092 -2.2897  2.7218
  309MOL0     H42639   9.572   1.848   3.860 -2.9870 -0.6296 -0.9684
  309MOL0     H42640   9.539   2.169   3.734 -0.1261  1.0323  1.0628
  309MOL0     H42641   9.390   2.071   3.786  0.2697  1.2039 -0.9366
  309MOL0     H42642   9.541   2.062   3.871  1.8980 -0.6821 -0.6990
  310MOL0     O42643   3.101  11.563  11.317 -0.3474 -0.3652  0.0056
  310MOL0     C42644   3.189  11.507  11.249  0.1396 -1.0418  0.2226
  310MOL0     O42645   3.315  11.496  11.291  0.1298 -0.2318 -0.5665
  310MOL0     C42646   3.352  11.567  11.403  0.8786  0.5055 -0.0822
  310MOL0     C42647   3.337  11.495  11.530  1.2136 -0.3981 -0.4543
  310MOL0     C42648   3.392  11.542  11.652  0.8068 -0.2227 -0.4213
  310MOL0     C42649   3.452  11.666  11.656  0.1136 -0.0303 -0.0730
  310MOL0     O42650   3.503  11.711  11.776 -0.2408 -0.1666  0.3326
  310MOL0     C42651   3.516  11.623  11.889  0.8390  0.5842  0.0327
  310MOL0     C42652   3.550  11.706  12.009 -0.2063 -0.2112  0.4085
  310MOL0     C42653   3.547  11.622  12.141  0.1674  0.1547 -0.3674
  310MOL0     C42654   3.598  11.699  12.259 -0.6173 -0.1926 -0.1172
  310MOL0     C42655   3.599  11.592  12.375 -0.6431 -0.3777  0.2247
  310MOL0     C42656   3.667  11.669  12.493 -0.3816 -0.2836 -0.0152
  310MOL0     C42657   3.732  11.589  12.606 -0.0913  0.3161 -0.5367
  310MOL0     C42658   3.783  11.685  12.712  0.0079 -0.2774 -1.0452
  310MOL0     N42659   3.830  11.616  12.835  0.2893  0.1107  0.0462
  310MOL0     C42660   3.753  11.546  12.923  1.2073  0.1345  0.0558
  310MOL0     C42661   3.829  11.525  13.032  0.3054 -0.1768  0.2334
  310MOL0     C42662   3.794  11.439  13.153  0.4342  0.7324  0.2786
  310MOL0     C42663   3.894  11.322  13.169 -0.1310 -0.3181  0.2482
  310MOL0     C42664   4.044  11.354  13.214 -0.6183  0.5239 -0.1258
  310MOL0     C42665   4.100  11.239  13.296  0.8374 -0.5872  0.2749
  310MOL0     O42666   4.230  11.280  13.336  0.2354 -0.2606  0.1651
  310MOL0     C42667   4.305  11.194  13.402 -0.0015 -0.2608 -0.4315
  310MOL0     C42668   4.429  11.227  13.436 -0.3548  0.3154 -0.3859
  310MOL0     C42669   4.516  11.150  13.513 -0.1740  0.6411  0.1378
  310MOL0     C42670   4.647  11.203  13.542 -0.0476  0.0392  0.4485
  310MOL0     C42671   4.470  11.023  13.562 -0.2744 -0.1827 -1.0281
  310MOL0     C42672   4.537  10.951  13.668 -0.5625  0.5690  0.2907
  310MOL0     O42673   4.454  10.854  13.724  0.2504 -0.2183 -0.3636
  310MOL0     C42674   4.497  10.753  13.808  0.5242 -0.1243  0.1214
  310MOL0     C42675   4.392  10.715  13.896  0.0221 -0.5354 -0.4710
  310MOL0     C42676   4.409  10.615  13.995  0.4501  0.1228 -0.0726
  310MOL0     C42677   4.534  10.556  14.003  0.1083  0.0234 -0.8113
  310MOL0     O42678   4.558  10.459  14.093 -0.0209 -0.2398 -0.6801
  310MOL0     C42679   4.486  10.338  14.092  0.0043  0.3984 -0.1719
  310MOL0     C42680   4.589  10.221  14.074  0.3495 -0.3650 -0.5680
  310MOL0     C42681   4.526  10.086  14.070  1.2586  0.0164 -0.0268
  310MOL0     C42682   4.412  10.060  13.966 -0.2694  0.0183  0.8566
  310MOL0     C42683   4.374   9.903  13.951 -0.3497 -0.1240  0.0541
  310MOL0     C42684   4.260   9.877  13.848 -0.0527  0.7919  0.4725
  310MOL0     C42685   4.195   9.742  13.876 -0.5196 -0.4970 -1.1939
  310MOL0     C42686   4.106   9.723  13.749 -0.1064  0.3343 -0.1752
  310MOL0    Cl42687   4.066   9.543  13.727 -0.2034 -0.0698  0.1702
  310MOL0     C42688   4.635  10.586  13.913  0.9895  0.7323  0.2410
  310MOL0     C42689   4.624  10.692  13.820  0.7292  0.2803  0.2087
  310MOL0     O42690   4.652  10.968  13.709 -0.5267  0.7364 -0.5150
  310MOL0     C42691   4.338  10.985  13.532  0.1054 -0.0248  0.5983
  310MOL0     C42692   4.262  11.066  13.448 -0.7062  0.2337  0.3456
  310MOL0     N42693   3.948  11.588  13.010 -0.1961  0.0330  0.6243
  310MOL0     N42694   3.954  11.628  12.889 -0.8706  0.4451  0.0295
  310MOL0     C42695   3.447  11.743  11.539  0.4824 -1.0513  0.5718
  310MOL0     C42696   3.391  11.698  11.413 -1.0257 -0.1409 -0.7585
  310MOL0     C42697   3.161  11.467  11.103  0.0691  0.4668 -1.2873
  310MOL0     C42698   3.016  11.480  11.066 -0.3004  0.2382  0.8304
  310MOL0     C42699   2.968  11.439  10.936  0.6951 -0.2096  0.0935
  310MOL0     C42700   3.063  11.401  10.840 -0.0857  0.8117  0.1936
  310MOL0     O42701   3.015  11.367  10.713  0.3923 -0.6439 -0.1091
  310MOL0     C42702   3.089  11.422  10.602  0.0494  0.4717 -0.2148
  310MOL0     C42703   3.043  11.339  10.482 -0.1337  0.2073  0.3009
  310MOL0     C42704   3.094  11.401  10.350 -0.1742  0.1417  0.0831
  310MOL0     C42705   3.049  11.313  10.238  0.4313 -0.1623  1.1360
  310MOL0     C42706   3.113  11.181  10.225  0.6772  0.0566  0.0631
  310MOL0     C42707   3.160  11.073  10.176  0.1925 -0.4726  0.2434
  310MOL0     C42708   3.198  11.383  10.878  0.0366 -0.6552 -0.4271
  310MOL0     C42709   3.251  11.415  11.005  0.3362  0.8875  0.8615
  310MOL0     C42710   3.400  11.424  11.019 -0.3739 -0.0701  0.8931
  310MOL0     H42711   3.296  11.395  11.526  1.2346 -0.4367  0.2410
  310MOL0     H42712   3.372  11.464  11.725  0.4803 -2.3614 -2.6938
  310MOL0     H42713   3.589  11.546  11.864  2.3544  2.6104 -2.1098
  310MOL0     H42714   3.420  11.571  11.901  0.2835  1.5268 -0.2234
  310MOL0     H42715   3.650  11.748  11.992 -0.7335  2.2432  2.7345
  310MOL0     H42716   3.479  11.786  12.029 -3.5825 -2.1969 -2.5125
  310MOL0     H42717   3.443  11.587  12.148  0.5344 -1.7016 -2.8665
  310MOL0     H42718   3.619  11.542  12.118  1.2522  0.4412  1.8079
  310MOL0     H42719   3.701  11.735  12.247  0.6828 -3.5370 -0.0706
  310MOL0     H42720   3.537  11.788  12.273 -0.1600  0.2827 -1.0237
  310MOL0     H42721   3.657  11.503  12.352 -1.8906 -0.7034 -1.9309
  310MOL0     H42722   3.495  11.568  12.398 -1.8332  0.0780 -3.8255
  310MOL0     H42723   3.742  11.742  12.460  0.2077  0.1716  2.1545
  310MOL0     H42724   3.593  11.741  12.530 -2.4652 -0.3065 -3.6648
  310MOL0     H42725   3.817  11.527  12.576  2.0105  1.1471  3.1113
  310MOL0     H42726   3.661  11.514  12.642 -2.2216  0.4610 -3.9706
  310MOL0     H42727   3.872  11.736  12.673  0.5421  0.2692  0.7603
  310MOL0     H42728   3.701  11.747  12.750  0.2813 -0.3195 -0.3777
  310MOL0     H42729   3.651  11.513  12.906  1.0502  1.1942 -1.2620
  310MOL0     H42730   3.697  11.396  13.126  1.7738 -0.5596 -2.9778
  310MOL0     H42731   3.796  11.491  13.249 -0.2824  1.3591 -0.0326
  310MOL0     H42732   3.856  11.254  13.245 -0.6242  1.2610  1.4716
  310MOL0     H42733   3.884  11.273  13.071  1.0943  0.1704 -0.1447
  310MOL0     H42734   4.112  11.387  13.135  0.6879  0.6711  1.0385
  310MOL0     H42735   4.041  11.443  13.277  0.3543  0.7117 -0.3381
  310MOL0     H42736   4.034  11.222  13.381  0.7224 -0.3425  0.2359
  310MOL0     H42737   4.118  11.150  13.234  0.0788  0.2259 -1.1860
  310MOL0     H42738   4.450  11.327  13.401 -0.1892  1.0240  1.5894
  310MOL0     H42739   4.718  11.150  13.478 -2.0323 -3.6452  1.0491
  310MOL0     H42740   4.679  11.196  13.647 -1.8352 -1.2619  0.9420
  310MOL0     H42741   4.660  11.308  13.514 -3.1808  0.2305 -0.6933
  310MOL0     H42742   4.304  10.776  13.874  2.6154  2.9344 -2.2560
  310MOL0     H42743   4.338  10.582  14.070 -2.2282 -0.8327 -2.7793
  310MOL0     H42744   4.429  10.310  14.181  0.2090 -0.7484 -0.3796
  310MOL0     H42745   4.416  10.342  14.008 -0.6980  1.0154  0.4363
  310MOL0     H42746   4.634  10.227  13.975  2.1080 -0.4714  0.1905
  310MOL0     H42747   4.667  10.222  14.150 -0.5895 -1.1853  0.4399
  310MOL0     H42748   4.485  10.066  14.169 -1.3533  0.4275 -0.9621
  310MOL0     H42749   4.603  10.010  14.052  1.1361 -0.8536  2.6728
  310MOL0     H42750   4.467  10.079  13.873  3.1914 -3.1846  1.9673
  310MOL0     H42751   4.318  10.115  13.973 -0.6034 -0.4154  0.0306
  310MOL0     H42752   4.455   9.837  13.921 -0.9421 -1.0301  0.4088
  310MOL0     H42753   4.349   9.859  14.047 -1.7585 -1.3856 -0.8423
  310MOL0     H42754   4.290   9.884  13.743 -4.5627 -0.0667 -1.1239
  310MOL0     H42755   4.178   9.949  13.858  0.3765  1.3001  0.3986
  310MOL0     H42756   4.136   9.741  13.968  0.8545 -2.0774 -0.2636
  310MOL0     H42757   4.272   9.664  13.880  1.9944  1.7496 -2.2037
  310MOL0     H42758   4.152   9.759  13.657  1.1713  2.2250  1.1307
  310MOL0     H42759   4.007   9.768  13.757 -1.1940 -1.2368 -3.1185
  310MOL0     H42760   4.735  10.546  13.900  1.5250  1.9113  0.5222
  310MOL0     H42761   4.708  10.729  13.762  0.6893  2.7534  1.5575
  310MOL0     H42762   4.285  10.895  13.563 -0.6158  0.6826  1.4802
  310MOL0     H42763   4.162  11.038  13.416 -0.7636  0.2299  0.5299
  310MOL0     H42764   3.501  11.835  11.553  2.7552 -1.6747 -2.8249
  310MOL0     H42765   3.393  11.765  11.328  2.2057  1.2192  0.2510
  310MOL0     H42766   2.946  11.507  11.144  0.3874  1.2263  1.1233
  310MOL0     H42767   2.868  11.443  10.895  0.4707 -4.0034 -0.0396
  310MOL0     H42768   3.064  11.528  10.595  0.3727  0.5745  0.1319
  310MOL0     H42769   3.198  11.426  10.609  0.2051  1.9725 -2.4695
  310MOL0     H42770   2.935  11.335  10.501  0.3757 -1.6304  3.6108
  310MOL0     H42771   3.073  11.235  10.498 -0.4773  0.1962  0.9240
  310MOL0     H42772   3.063  11.506  10.355  2.3972  0.9200  1.6654
  310MOL0     H42773   3.203  11.406  10.342 -0.0731 -0.1886  1.1586
  310MOL0     H42774   3.062  11.358  10.139  0.0139 -0.7434  0.8119
  310MOL0     H42775   2.941  11.296  10.245  0.5509 -1.7240 -0.1976
  310MOL0     H42776   3.210  10.990  10.131 -1.2878  0.1572 -2.8179
  310MOL0     H42777   3.268  11.343  10.805 -0.3958 -4.0875  0.8672
  310MOL0     H42778   3.418  11.531  11.036 -2.4540  0.2540  1.3052
  310MOL0     H42779   3.433  11.368  11.107 -1.3742 -1.2728  0.5337
  310MOL0     H42780   3.450  11.388  10.928  0.6792  0.3420  1.2898
  311MOL0     O42781   1.709   6.968   4.883 -0.0885 -0.9797 -0.2276
  311MOL0     C42782   1.739   6.935   4.768  0.0001 -0.4462  0.7876
  311MOL0     O42783   1.709   7.009   4.652 -0.2833 -0.3874  0.6939
  311MOL0     C42784   1.583   7.069   4.631 -1.0264  0.4967  0.0474
  311MOL0     C42785   1.569   7.162   4.521 -0.3830  0.5678  0.1082
  311MOL0     C42786   1.449   7.219   4.487  0.2881 -0.0126 -0.1051
  311MOL0     C42787   1.342   7.199   4.570  0.0499 -0.6397 -0.1228
  311MOL0     O42788   1.212   7.243   4.542 -1.0436  0.3158 -0.3503
  311MOL0     C42789   1.196   7.374   4.496 -0.9646  0.0756  0.0243
  311MOL0     C42790   1.048   7.421   4.508 -0.2289  0.4602  0.4460
  311MOL0     C42791   1.003   7.413   4.653  0.0831  0.7842 -0.0557
  311MOL0     C42792   0.867   7.480   4.677  0.2350  0.6478  0.1765
  311MOL0     C42793   0.809   7.445   4.815  0.6409  0.3826 -0.6709
  311MOL0     C42794   0.688   7.525   4.846  0.5917 -0.4306  0.1545
  311MOL0     C42795   0.618   7.479   4.975 -0.9925 -0.0543  0.8940
  311MOL0     C42796   0.480   7.547   5.001 -0.6562 -0.6493 -0.2524
  311MOL0     N42797   0.490   7.660   5.101  0.3340 -0.3725 -0.5824
  311MOL0     C42798   0.443   7.784   5.074 -0.7616 -0.3220  0.8307
  311MOL0     C42799   0.468   7.841   5.194  0.0963  0.3557  0.6470
  311MOL0     C42800   0.446   7.983   5.218  0.0884 -0.1845  0.7217
  311MOL0     C42801   0.305   7.994   5.282 -0.7642 -0.2491  0.2333
  311MOL0     C42802   0.280   8.119   5.365 -0.4128  0.7653 -0.4063
  311MOL0     C42803   0.156   8.122   5.448  0.6442 -0.3322  0.6411
  311MOL0     O42804   0.141   8.254   5.496 -0.7390  0.2041  0.4783
  311MOL0     C42805   0.173   8.282   5.620 -0.2308 -0.2654 -0.7056
  311MOL0     C42806   0.072   8.288   5.715 -0.2936 -0.1237  0.2883
  311MOL0     C42807   0.106   8.314   5.851 -0.0553 -0.1069  0.1880
  311MOL0     C42808  -0.009   8.306   5.955 -0.4924 -0.3772  0.6322
  311MOL0     C42809   0.245   8.329   5.883 -0.7179  0.1313 -0.2090
  311MOL0     C42810   0.300   8.348   6.024 -0.0805 -0.5170 -0.0423
  311MOL0     O42811   0.427   8.393   6.039 -0.3714  0.6367 -0.4896
  311MOL0     C42812   0.500   8.394   6.161  0.5412  0.3967  0.5318
  311MOL0     C42813   0.495   8.285   6.242 -0.8621  0.3697 -0.1919
  311MOL0     C42814   0.564   8.279   6.362 -0.0854  0.4361 -0.0080
  311MOL0     C42815   0.644   8.391   6.394 -0.0784 -0.0602 -1.3446
  311MOL0     O42816   0.718   8.401   6.508  0.3177  0.4698 -0.8849
  311MOL0     C42817   0.656   8.312   6.613 -0.4065  0.1090  0.6787
  311MOL0     C42818   0.514   8.357   6.651  0.0564  0.1583 -0.1010
  311MOL0     C42819   0.496   8.277   6.778  1.0923  0.3772 -0.7338
  311MOL0     C42820   0.357   8.204   6.780  0.4698 -0.0307  0.4123
  311MOL0     C42821   0.368   8.076   6.688  0.3741 -1.0366 -0.4004
  311MOL0     C42822   0.409   7.949   6.762 -0.1234  0.0230  0.2526
  311MOL0     C42823   0.450   7.822   6.663 -0.0982  0.1820  1.0160
  311MOL0     C42824   0.334   7.794   6.562  0.8002  0.1716  1.2289
  311MOL0    Cl42825   0.162   7.812   6.630  0.7756 -0.3445  0.0205
  311MOL0     C42826   0.653   8.499   6.311 -0.0551  0.3479  0.3625
  311MOL0     C42827   0.581   8.501   6.189 -0.7845 -0.6769 -0.3179
  311MOL0     O42828   0.229   8.325   6.120  0.2490 -0.7778  0.7860
  311MOL0     C42829   0.335   8.346   5.784  0.4481  0.5454 -0.8125
  311MOL0     C42830   0.301   8.321   5.656 -0.6055  0.9309  1.0479
  311MOL0     N42831   0.513   7.754   5.281  0.2934  0.9053 -0.2489
  311MOL0     N42832   0.521   7.638   5.229  0.4461  0.3032 -0.0009
  311MOL0     C42833   1.352   7.116   4.688  0.1451 -0.6814  0.1622
  311MOL0     C42834   1.473   7.046   4.717  0.2042 -1.0399  0.2447
  311MOL0     C42835   1.805   6.805   4.737  0.2148 -0.7275  0.1419
  311MOL0     C42836   1.771   6.749   4.614 -0.0171 -0.5608 -0.6208
  311MOL0     C42837   1.833   6.626   4.574  0.8999 -0.0512 -0.3071
  311MOL0     C42838   1.920   6.552   4.657  0.6990 -0.0946 -0.4585
  311MOL0     O42839   1.984   6.437   4.615 -0.2706 -0.1772  0.1660
  311MOL0     C42840   2.120   6.449   4.641  0.3168 -0.8385 -0.3524
  311MOL0     C42841   2.202   6.550   4.565  0.2730 -0.8030  0.1321
  311MOL0     C42842   2.171   6.562   4.424 -0.4751  0.4216  0.8214
  311MOL0     C42843   2.203   6.439   4.322 -0.1525  0.0347  0.4039
  311MOL0     C42844   2.163   6.484   4.193  0.4582 -1.1716 -0.3562
  311MOL0     C42845   2.119   6.538   4.091  0.0719  0.3006  0.3115
  311MOL0     C42846   1.942   6.617   4.783  0.1729 -1.0204 -0.5089
  311MOL0     C42847   1.891   6.741   4.830 -0.1221 -0.7309 -0.0388
  311MOL0     C42848   1.950   6.785   4.963  0.2411 -1.4359  0.6399
  311MOL0     H42849   1.656   7.181   4.459 -1.4121 -2.9061 -2.7425
  311MOL0     H42850   1.449   7.272   4.392 -2.3505 -1.4918 -1.0355
  311MOL0     H42851   1.217   7.369   4.389 -4.6339 -2.9498 -0.7718
  311MOL0     H42852   1.257   7.445   4.553  0.1858 -0.5829 -0.3456
  311MOL0     H42853   1.039   7.524   4.472  1.0809 -0.8053 -4.2741
  311MOL0     H42854   0.974   7.360   4.455  0.5177  1.0826 -1.3926
  311MOL0     H42855   1.009   7.305   4.674  1.9159  0.4632 -1.8909
  311MOL0     H42856   1.077   7.465   4.714  1.4907 -0.8535 -0.2657
  311MOL0     H42857   0.883   7.588   4.669 -1.0410  0.6990 -3.3354
  311MOL0     H42858   0.791   7.440   4.610  0.7313  1.4355 -0.8905
  311MOL0     H42859   0.883   7.471   4.892  0.7854 -1.0942 -0.2818
  311MOL0     H42860   0.788   7.338   4.820 -1.1479  0.6898 -1.1189
  311MOL0     H42861   0.712   7.631   4.862  0.9260 -0.3071 -1.0735
  311MOL0     H42862   0.624   7.518   4.757  0.3374 -0.2113  0.3170
  311MOL0     H42863   0.686   7.484   5.060  0.2787  1.8566 -0.1488
  311MOL0     H42864   0.592   7.376   4.950  0.9687 -0.2484 -0.5385
  311MOL0     H42865   0.425   7.572   4.911 -0.6938 -2.6946 -0.8445
  311MOL0     H42866   0.413   7.477   5.051 -0.5024 -0.1027  0.7647
  311MOL0     H42867   0.406   7.835   4.986  3.4114  1.7157  0.0191
  311MOL0     H42868   0.445   8.040   5.125  1.4034 -1.0388  0.1547
  311MOL0     H42869   0.519   8.025   5.287 -1.3634  1.7589  1.1562
  311MOL0     H42870   0.230   7.985   5.203 -0.7987 -2.4859  0.4497
  311MOL0     H42871   0.291   7.908   5.348  1.5059  0.2043  1.4200
  311MOL0     H42872   0.362   8.120   5.437  0.3821 -1.8133 -1.1539
  311MOL0     H42873   0.299   8.205   5.300  1.2264  1.4372  0.9060
  311MOL0     H42874   0.073   8.096   5.380  1.0494  0.0243 -0.0015
  311MOL0     H42875   0.163   8.052   5.531  0.2820  1.0821  1.9178
  311MOL0     H42876  -0.030   8.278   5.679 -0.1674  1.2726 -0.5037
  311MOL0     H42877  -0.107   8.326   5.911 -0.0705  2.0760  0.6974
  311MOL0     H42878   0.004   8.374   6.040  0.9978 -2.4166  2.1438
  311MOL0     H42879  -0.001   8.204   5.996 -0.0796 -0.3758  0.5511
  311MOL0     H42880   0.434   8.201   6.213 -3.5257  0.8897  3.2268
  311MOL0     H42881   0.574   8.178   6.400 -1.7902  0.3673  0.3485
  311MOL0     H42882   0.658   8.204   6.592 -1.0476  0.2833 -0.3118
  311MOL0     H42883   0.728   8.322   6.695 -0.3856 -0.4942  0.7428
  311MOL0     H42884   0.507   8.465   6.670 -0.0256 -0.1205  1.6364
  311MOL0     H42885   0.440   8.338   6.573 -1.1969 -1.0903  1.3377
  311MOL0     H42886   0.493   8.342   6.866 -1.2269  0.7010 -0.9939
  311MOL0     H42887   0.571   8.199   6.795 -0.3013 -0.4185  2.4296
  311MOL0     H42888   0.282   8.270   6.736 -1.4959 -0.8448  2.3568
  311MOL0     H42889   0.329   8.176   6.882  1.2111  0.2757  0.7013
  311MOL0     H42890   0.272   8.059   6.639 -0.1156 -1.2274  0.6088
  311MOL0     H42891   0.431   8.082   6.599  0.8381  0.6352  0.0138
  311MOL0     H42892   0.325   7.922   6.826 -1.4246  1.2895 -0.8667
  311MOL0     H42893   0.487   7.989   6.828 -0.5804 -0.0603  0.8510
  311MOL0     H42894   0.472   7.742   6.733 -1.4789 -2.8012 -1.6811
  311MOL0     H42895   0.543   7.829   6.605 -2.3097 -1.1961 -3.1192
  311MOL0     H42896   0.340   7.690   6.529 -0.7761  1.3280 -3.6119
  311MOL0     H42897   0.339   7.861   6.476  1.8830 -2.9330 -1.3508
  311MOL0     H42898   0.715   8.577   6.354 -0.1300 -0.7265  2.5613
  311MOL0     H42899   0.586   8.594   6.132 -0.4739 -0.1911  0.4823
  311MOL0     H42900   0.433   8.391   5.800 -0.2359  1.7911  0.0622
  311MOL0     H42901   0.371   8.338   5.574 -2.1791  3.1508  0.0549
  311MOL0     H42902   1.258   7.092   4.737 -0.2262  2.0083  0.9412
  311MOL0     H42903   1.469   6.980   4.804  0.4256  0.4519  1.4232
  311MOL0     H42904   1.705   6.801   4.545 -0.9646  0.4417  0.9922
  311MOL0     H42905   1.788   6.601   4.478  2.5452  0.3186 -1.2144
  311MOL0     H42906   2.144   6.465   4.747  0.3409 -2.2690 -0.1180
  311MOL0     H42907   2.152   6.345   4.628  2.3498 -1.1354  4.6650
  311MOL0     H42908   2.310   6.535   4.573  0.8398  1.5143 -2.0354
  311MOL0     H42909   2.185   6.651   4.603  0.5690 -0.3423 -0.9416
  311MOL0     H42910   2.062   6.560   4.427 -0.6166 -2.8711 -1.7420
  311MOL0     H42911   2.200   6.661   4.388 -2.6690  0.0324 -2.3731
  311MOL0     H42912   2.158   6.342   4.345  1.2395 -0.9014 -0.6972
  311MOL0     H42913   2.310   6.421   4.315  0.0046  1.1977 -0.4454
  311MOL0     H42914   2.099   6.587   3.999  0.2968 -1.3374 -0.6518
  311MOL0     H42915   1.998   6.568   4.862  1.8782 -0.1213 -1.0981
  311MOL0     H42916   2.051   6.754   4.990 -0.1948 -1.2539  2.6310
  311MOL0     H42917   1.960   6.893   4.977  0.8631 -1.4672  0.4309
  311MOL0     H42918   1.881   6.749   5.041 -0.9261 -0.4993  0.0753
  312MOL0     O42919   6.757   0.107   8.721 -0.3853 -0.1650 -0.4024
  312MOL0     C42920   6.819   0.159   8.812 -0.1204 -0.0960 -0.3838
  312MOL0     O42921   6.887   0.275   8.805  0.5778  0.1926  0.1953
  312MOL0     C42922   6.894   0.361   8.697  0.5600 -0.2028  0.6044
  312MOL0     C42923   6.969   0.484   8.727  0.8552 -0.2874  0.4886
  312MOL0     C42924   6.989   0.577   8.617 -0.7042 -0.5581 -0.2091
  312MOL0     C42925   6.928   0.565   8.492  1.0112  0.2641  0.2705
  312MOL0     O42926   6.944   0.646   8.386  0.0594 -0.1971  0.1608
  312MOL0     C42927   6.971   0.788   8.399  0.5245  1.1073  0.2059
  312MOL0     C42928   7.003   0.856   8.266  0.1672  0.0867  0.1539
  312MOL0     C42929   7.141   0.816   8.224 -0.1790 -0.2871  0.6560
  312MOL0     C42930   7.178   0.859   8.074 -0.1540  0.4813 -0.0428
  312MOL0     C42931   7.300   0.945   8.065 -0.3287  0.2235  0.7813
  312MOL0     C42932   7.324   0.998   7.922 -0.2261 -0.1123  0.0604
  312MOL0     C42933   7.467   1.060   7.907 -0.2719 -0.0752  0.1728
  312MOL0     C42934   7.489   1.131   7.775 -1.3899  0.3469  0.1596
  312MOL0     N42935   7.517   1.038   7.669 -0.5570  0.0257 -0.6865
  312MOL0     C42936   7.433   1.017   7.565  0.1502  0.5402  0.2020
  312MOL0     C42937   7.501   0.934   7.488  0.0085 -0.0893  0.2767
  312MOL0     C42938   7.451   0.860   7.364 -0.2545 -0.2711 -0.2288
  312MOL0     C42939   7.335   0.944   7.294 -0.7760  0.3332  0.1343
  312MOL0     C42940   7.333   0.934   7.134  0.2002  0.5334 -0.3756
  312MOL0     C42941   7.245   1.040   7.079  0.5945 -0.8570  0.2645
  312MOL0     O42942   7.111   1.024   7.143 -0.8854 -0.0725  0.2184
  312MOL0     C42943   7.005   0.974   7.071 -0.3173 -0.0724  0.2281
  312MOL0     C42944   7.019   0.923   6.941  0.0815 -0.7146  0.3204
  312MOL0     C42945   6.901   0.875   6.874 -0.1476  0.3084 -0.6475
  312MOL0     C42946   6.921   0.821   6.736  0.6073  0.4151  0.2247
  312MOL0     C42947   6.774   0.887   6.936  0.1656 -0.0306  0.4789
  312MOL0     C42948   6.652   0.846   6.868 -0.0255 -0.6451 -0.5366
  312MOL0     O42949   6.567   0.769   6.956  0.1470 -0.4270  0.3813
  312MOL0     C42950   6.452   0.718   6.889 -0.7259  0.3020 -0.3124
  312MOL0     C42951   6.328   0.769   6.929  0.7177  0.1733  0.3336
  312MOL0     C42952   6.203   0.727   6.898  0.1847  1.1943  0.0868
  312MOL0     C42953   6.205   0.624   6.806 -0.3892 -0.1091  0.5255
  312MOL0     O42954   6.084   0.565   6.766  0.4207  0.0649 -0.1484
  312MOL0     C42955   6.001   0.658   6.692 -0.5644  0.3054  0.3451
  312MOL0     C42956   6.074   0.675   6.550 -0.1408 -0.7935  0.5368
  312MOL0     C42957   5.977   0.744   6.457  0.7668 -0.8898  0.2987
  312MOL0     C42958   5.986   0.892   6.471 -0.6315  0.1213  0.3770
  312MOL0     C42959   5.870   0.945   6.395 -0.1067  0.0708  0.4061
  312MOL0     C42960   5.849   1.096   6.406  0.4375  1.1806 -1.7456
  312MOL0     C42961   5.743   1.154   6.326 -0.1614  0.5405  0.3917
  312MOL0     C42962   5.645   1.251   6.395  0.9004  0.0602  0.5600
  312MOL0    Cl42963   5.572   1.174   6.532  0.1231  0.1270 -0.6192
  312MOL0     C42964   6.329   0.570   6.768 -0.8900 -1.6288 -0.0438
  312MOL0     C42965   6.459   0.616   6.796  0.1581  0.3881 -0.4671
  312MOL0     O42966   6.625   0.877   6.747 -0.0032  1.0390 -0.1719
  312MOL0     C42967   6.770   0.929   7.066  0.3438 -0.6394  0.3510
  312MOL0     C42968   6.880   0.977   7.135  0.9099 -0.2476 -0.7439
  312MOL0     N42969   7.609   0.883   7.553 -0.1280 -0.2448  0.0663
  312MOL0     N42970   7.630   0.955   7.662  0.1740  0.2093 -0.1778
  312MOL0     C42971   6.855   0.446   8.467 -0.5255 -0.7206 -0.1423
  312MOL0     C42972   6.836   0.355   8.572 -0.8514  0.0260  0.8197
  312MOL0     C42973   6.846   0.071   8.929  0.0015  0.1703 -1.0134
  312MOL0     C42974   6.751   0.067   9.029 -0.3972  0.2410  0.0472
  312MOL0     C42975   6.786  -0.021   9.136 -0.1244 -0.4406 -0.0375
  312MOL0     C42976   6.896  -0.101   9.149 -0.0526  0.7724 -0.7879
  312MOL0     O42977   6.916  -0.192   9.251 -0.4946  0.1611 -0.4850
  312MOL0     C42978   6.813  -0.210   9.349 -0.1632  0.4385  0.3269
  312MOL0     C42979   6.894  -0.219   9.474 -0.6519 -0.7184  0.7136
  312MOL0     C42980   6.812  -0.286   9.591  0.1666 -0.1671 -0.4218
  312MOL0     C42981   6.889  -0.273   9.728  1.1565 -0.2412 -0.2475
  312MOL0     C42982   6.991  -0.371   9.738  0.2512 -0.1582 -0.0147
  312MOL0     C42983   7.079  -0.462   9.746 -0.1523  0.6263 -0.3899
  312MOL0     C42984   6.985  -0.096   9.049  0.1912 -0.7457  0.5825
  312MOL0     C42985   6.964  -0.016   8.934 -0.8308 -0.2028 -0.2168
  312MOL0     C42986   7.064  -0.028   8.827 -0.8991 -0.2346  0.3121
  312MOL0     H42987   7.016   0.483   8.825 -0.3257  0.4482  1.0858
  312MOL0     H42988   7.078   0.638   8.620 -0.7960 -0.1221 -3.2257
  312MOL0     H42989   7.056   0.810   8.464 -0.4072  1.6742  1.2800
  312MOL0     H42990   6.888   0.831   8.455 -0.9066  2.4756 -2.7329
  312MOL0     H42991   6.927   0.828   8.193  2.4739 -2.3434 -1.4891
  312MOL0     H42992   7.006   0.961   8.297 -1.9415  1.4685 -3.7166
  312MOL0     H42993   7.213   0.839   8.302 -1.2687  2.3145  1.0276
  312MOL0     H42994   7.134   0.708   8.207 -0.6049  0.1665 -2.9389
  312MOL0     H42995   7.197   0.770   8.013  1.8342  0.3491  0.7071
  312MOL0     H42996   7.089   0.909   8.034 -1.5294 -1.1230  0.8543
  312MOL0     H42997   7.381   0.876   8.090  0.7099  0.2913 -2.0615
  312MOL0     H42998   7.294   1.036   8.127 -0.2708 -0.2561  1.5078
  312MOL0     H42999   7.323   0.912   7.854 -1.2676 -5.5336  6.0058
  312MOL0     H43000   7.250   1.073   7.892  1.2505  1.3137 -0.1415
  312MOL0     H43001   7.529   0.971   7.897  1.0533  0.9729 -1.5823
  312MOL0     H43002   7.504   1.117   7.993 -0.1822  0.5591 -0.2781
  312MOL0     H43003   7.396   1.184   7.754 -2.1167 -0.9052  0.1059
  312MOL0     H43004   7.570   1.201   7.792 -0.4243 -0.3833 -1.2321
  312MOL0     H43005   7.331   1.050   7.545 -1.0562 -1.9872  1.7218
  312MOL0     H43006   7.419   0.758   7.387  2.5735 -0.9044  1.3917
  312MOL0     H43007   7.531   0.853   7.289 -0.0996 -0.5442 -0.0395
  312MOL0     H43008   7.243   0.898   7.332 -0.4917  2.8721  4.5398
  312MOL0     H43009   7.344   1.047   7.328 -1.2911  0.0817  1.0699
  312MOL0     H43010   7.428   0.956   7.086 -0.0232 -2.1171 -2.2983
  312MOL0     H43011   7.302   0.831   7.111 -0.6853  0.0003  2.6926
  312MOL0     H43012   7.285   1.135   7.117  3.6126 -1.3007 -1.4748
  312MOL0     H43013   7.247   1.047   6.970 -3.6592 -1.1442  0.0301
  312MOL0     H43014   7.112   0.930   6.886 -1.1554  0.5992 -1.7244
  312MOL0     H43015   7.013   0.831   6.678  0.5579 -0.0527  0.0602
  312MOL0     H43016   6.845   0.862   6.669  0.8502 -0.3718 -0.5610
  312MOL0     H43017   6.915   0.712   6.731 -1.8881  0.5069  0.3159
  312MOL0     H43018   6.332   0.861   6.987  3.0879  0.1439  0.2906
  312MOL0     H43019   6.111   0.767   6.939 -0.1848  1.7606 -1.2351
  312MOL0     H43020   5.898   0.623   6.693  0.5224 -3.2833 -0.6639
  312MOL0     H43021   5.996   0.755   6.743 -0.2070 -0.9576  2.9633
  312MOL0     H43022   6.162   0.739   6.567 -0.8605 -0.2677  2.7177
  312MOL0     H43023   6.109   0.580   6.510 -0.1414 -0.5580 -0.0363
  312MOL0     H43024   5.875   0.708   6.474  0.9323 -1.4951  0.0480
  312MOL0     H43025   6.001   0.711   6.355  1.8227  1.8590 -0.4194
  312MOL0     H43026   6.074   0.932   6.418 -0.4143 -1.5367 -0.5810
  312MOL0     H43027   5.972   0.926   6.574  0.0932 -3.0452  1.6402
  312MOL0     H43028   5.869   0.914   6.290 -2.0133  0.0771  0.3762
  312MOL0     H43029   5.783   0.893   6.436 -1.2640 -0.0748 -2.0501
  312MOL0     H43030   5.944   1.152   6.407  0.1541  1.8227  1.9709
  312MOL0     H43031   5.823   1.108   6.511  2.0625 -0.3389 -1.1134
  312MOL0     H43032   5.679   1.075   6.285 -0.4691  1.5905 -1.2337
  312MOL0     H43033   5.777   1.202   6.234 -2.8075  0.2603 -0.8366
  312MOL0     H43034   5.570   1.271   6.318  0.3310 -1.0750  0.7966
  312MOL0     H43035   5.703   1.337   6.429  1.0882  0.3565 -0.4795
  312MOL0     H43036   6.326   0.478   6.710  3.4906 -1.7106 -0.4455
  312MOL0     H43037   6.541   0.556   6.758  2.1295  2.5120  0.1600
  312MOL0     H43038   6.671   0.931   7.111  0.4246  1.6077  0.5820
  312MOL0     H43039   6.868   1.020   7.234 -1.9250 -1.4071 -0.5064
  312MOL0     H43040   6.833   0.426   8.362  0.3569 -0.6750 -0.3415
  312MOL0     H43041   6.766   0.277   8.545 -0.4349 -0.5311  1.3094
  312MOL0     H43042   6.658   0.123   9.032 -0.1021  0.7188  0.3291
  312MOL0     H43043   6.713  -0.013   9.216  1.1151  0.6217  1.0478
  312MOL0     H43044   6.728  -0.141   9.355 -1.2815 -0.8645 -0.0837
  312MOL0     H43045   6.764  -0.305   9.326  1.4612 -0.3877  0.1237
  312MOL0     H43046   6.926  -0.120   9.506  1.4815 -1.5455  1.3077
  312MOL0     H43047   6.984  -0.280   9.469  2.7925  3.7204  2.3872
  312MOL0     H43048   6.720  -0.227   9.597  0.5057  0.3570 -0.4054
  312MOL0     H43049   6.787  -0.387   9.557 -1.4081  0.9525 -2.8695
  312MOL0     H43050   6.820  -0.281   9.813  0.8213  2.8150 -0.1246
  312MOL0     H43051   6.922  -0.170   9.742  2.2027 -0.6743  0.6299
  312MOL0     H43052   7.157  -0.535   9.748  1.4031  2.2054 -0.9468
  312MOL0     H43053   7.069  -0.165   9.057  0.6519 -0.3381 -0.5120
  312MOL0     H43054   7.118   0.066   8.816 -0.6584 -0.1347  2.0160
  312MOL0     H43055   7.140  -0.107   8.837  0.5572  0.9290 -1.0579
  312MOL0     H43056   7.009  -0.069   8.742 -1.9536 -1.5659  1.5650
  313MOL0     O43057   1.171   4.942   4.946  0.2518  0.6666 -0.2706
  313MOL0     C43058   1.152   4.836   4.894  0.5894  0.1237  0.2122
  313MOL0     O43059   1.210   4.776   4.784 -0.2135 -0.0847  0.2299
  313MOL0     C43060   1.346   4.787   4.750  0.2466 -0.3535  0.1029
  313MOL0     C43061   1.439   4.859   4.822 -0.1016 -0.9536 -0.5185
  313MOL0     C43062   1.579   4.849   4.795  0.2336  0.2114  0.5745
  313MOL0     C43063   1.624   4.777   4.683 -1.1809  0.5677  0.8518
  313MOL0     O43064   1.759   4.789   4.679  0.1856  0.3257 -0.2223
  313MOL0     C43065   1.843   4.721   4.577  0.1362  0.1408  0.8419
  313MOL0     C43066   1.799   4.781   4.445  0.2195 -0.6548 -0.2244
  313MOL0     C43067   1.859   4.723   4.325  0.1314  0.2170  0.1208
  313MOL0     C43068   2.013   4.743   4.320 -0.4331  0.8030 -0.0498
  313MOL0     C43069   2.089   4.646   4.218 -0.0088  0.2329  0.1278
  313MOL0     C43070   2.034   4.677   4.077  1.0645  0.0231  0.1869
  313MOL0     C43071   2.115   4.599   3.976  0.1035 -0.6009  0.6378
  313MOL0     C43072   2.040   4.560   3.847  0.1698 -0.4563 -0.2767
  313MOL0     N43073   2.118   4.458   3.770 -0.7252  0.1281  0.1159
  313MOL0     C43074   2.129   4.326   3.807  0.6731  0.3781  0.3490
  313MOL0     C43075   2.198   4.276   3.700 -0.4322  0.0337 -0.0337
  313MOL0     C43076   2.233   4.131   3.670 -0.3406 -0.0198 -0.1257
  313MOL0     C43077   2.337   4.079   3.756  0.1139  0.3437 -1.0558
  313MOL0     C43078   2.367   3.939   3.695  0.7020 -0.2068 -0.7183
  313MOL0     C43079   2.482   3.868   3.777 -0.0274  0.0649  0.4162
  313MOL0     O43080   2.617   3.911   3.754 -0.2296 -0.2309 -0.1241
  313MOL0     C43081   2.707   3.847   3.669  0.0684 -0.2129  0.4438
  313MOL0     C43082   2.668   3.750   3.584  0.2842  0.6903 -0.1413
  313MOL0     C43083   2.759   3.690   3.501 -0.8146  0.2642 -0.0805
  313MOL0     C43084   2.700   3.597   3.405  0.5016  0.9248 -0.4386
  313MOL0     C43085   2.899   3.721   3.512 -0.4489  0.6591  0.6762
  313MOL0     C43086   3.014   3.676   3.426  0.5118 -0.4493 -0.4373
  313MOL0     O43087   3.135   3.742   3.435  0.5866  0.7761 -0.7291
  313MOL0     C43088   3.210   3.735   3.327  0.0047  0.3045 -0.9419
  313MOL0     C43089   3.179   3.799   3.204  1.1512 -0.4745 -0.1096
  313MOL0     C43090   3.245   3.764   3.082 -0.3705 -0.5596 -0.1899
  313MOL0     C43091   3.354   3.682   3.087  0.9257  0.7876 -0.6919
  313MOL0     O43092   3.428   3.642   2.970  0.2556 -0.0797 -0.5503
  313MOL0     C43093   3.366   3.660   2.840  0.1030 -0.6463  0.5157
  313MOL0     C43094   3.394   3.792   2.767  0.6086  0.3940  0.2852
  313MOL0     C43095   3.298   3.809   2.642  0.1077 -0.6762  0.3887
  313MOL0     C43096   3.370   3.893   2.530 -1.1731  0.2212 -0.4626
  313MOL0     C43097   3.372   3.831   2.389  0.2691 -0.6843 -0.0249
  313MOL0     C43098   3.476   3.721   2.381  0.5144 -0.5291  1.1771
  313MOL0     C43099   3.486   3.621   2.252  0.1453  0.4351 -0.1992
  313MOL0     C43100   3.540   3.489   2.293 -0.1322  1.2191  0.5715
  313MOL0    Cl43101   3.496   3.362   2.169  0.6559 -0.5185 -0.5441
  313MOL0     C43102   3.392   3.626   3.207 -0.1834 -0.6532  0.2624
  313MOL0     C43103   3.326   3.648   3.329  0.1202  0.4550  1.0330
  313MOL0     O43104   3.000   3.565   3.376 -0.3909 -0.0461 -0.4949
  313MOL0     C43105   2.935   3.821   3.601 -0.2657 -0.0836 -0.3926
  313MOL0     C43106   2.839   3.885   3.676 -0.0480 -0.4450  0.7360
  313MOL0     N43107   2.209   4.378   3.604  0.0763 -0.7543 -0.3102
  313MOL0     N43108   2.164   4.481   3.652  0.6152  0.2018  0.1623
  313MOL0     C43109   1.533   4.688   4.615  0.1438 -0.5168  0.1387
  313MOL0     C43110   1.395   4.696   4.652 -0.8839 -0.3817  0.1161
  313MOL0     C43111   1.042   4.752   4.954  0.1063  0.8432  0.1128
  313MOL0     C43112   0.977   4.661   4.866  0.5308  0.1413  0.5674
  313MOL0     C43113   0.878   4.573   4.909  0.1342 -0.5100 -0.5115
  313MOL0     C43114   0.847   4.561   5.040  0.7585  0.0801 -1.1858
  313MOL0     O43115   0.763   4.459   5.095 -1.4435  0.5866  0.3461
  313MOL0     C43116   0.822   4.329   5.083  0.5032 -0.8357 -0.3496
  313MOL0     C43117   0.718   4.224   5.033 -0.1842  0.2949  0.1569
  313MOL0     C43118   0.619   4.275   4.929  0.2476  0.2841  0.4507
  313MOL0     C43119   0.596   4.169   4.812  0.4062 -0.2311 -0.1899
  313MOL0     C43120   0.715   4.164   4.717  0.2075  0.5242 -0.4254
  313MOL0     C43121   0.810   4.141   4.655 -0.2560 -0.1894 -0.2016
  313MOL0     C43122   0.917   4.646   5.125  0.4876  0.1404 -0.4625
  313MOL0     C43123   1.008   4.738   5.087 -0.1709  0.5763 -0.4076
  313MOL0     C43124   1.069   4.832   5.197  0.1428 -0.2043  0.3706
  313MOL0     H43125   1.409   4.918   4.908  5.0473 -0.6239  1.4460
  313MOL0     H43126   1.644   4.914   4.853 -2.0794  2.3661  0.9249
  313MOL0     H43127   1.830   4.612   4.575 -1.5476  0.2563  2.6521
  313MOL0     H43128   1.947   4.751   4.597 -0.1438  3.6477 -1.9759
  313MOL0     H43129   1.693   4.757   4.431  0.1262 -1.6225  1.8266
  313MOL0     H43130   1.825   4.887   4.439  2.0261 -1.0834 -0.5368
  313MOL0     H43131   1.830   4.617   4.325  0.4961  0.1131  0.6973
  313MOL0     H43132   1.822   4.767   4.232 -1.6857 -1.6717 -0.1353
  313MOL0     H43133   2.043   4.843   4.289  0.9045  0.3107 -0.4108
  313MOL0     H43134   2.063   4.726   4.416  2.4173  1.7278 -1.2772
  313MOL0     H43135   2.082   4.537   4.230 -1.0970  0.3249  0.4654
  313MOL0     H43136   2.197   4.662   4.211  0.2491 -1.7494 -1.4554
  313MOL0     H43137   1.930   4.643   4.079  0.0160  2.9862  0.5397
  313MOL0     H43138   2.032   4.782   4.046 -2.2835 -0.2096 -0.7535
  313MOL0     H43139   2.160   4.505   4.008 -1.9240 -1.2185  1.8313
  313MOL0     H43140   2.199   4.665   3.952  1.6178 -0.2023  5.8119
  313MOL0     H43141   1.941   4.519   3.871  0.6291 -1.5985 -0.2551
  313MOL0     H43142   2.020   4.641   3.777 -4.3031  0.8349  2.1120
  313MOL0     H43143   2.100   4.285   3.903 -0.5102  1.8441  0.6644
  313MOL0     H43144   2.266   4.116   3.566  0.1997 -0.6208  0.1238
  313MOL0     H43145   2.148   4.064   3.677  1.1015 -1.8488  0.7066
  313MOL0     H43146   2.420   4.145   3.732 -0.3733 -0.1811 -4.6846
  313MOL0     H43147   2.300   4.072   3.859 -2.2955 -0.7690 -1.9203
  313MOL0     H43148   2.271   3.886   3.691  1.4003 -1.4259 -2.0129
  313MOL0     H43149   2.409   3.957   3.596  0.2522 -0.4047 -0.9470
  313MOL0     H43150   2.460   3.875   3.884 -3.7165 -2.2367  0.0019
  313MOL0     H43151   2.475   3.760   3.764  0.3071  0.2649 -2.0164
  313MOL0     H43152   2.566   3.717   3.572  0.3732 -0.0492  1.0465
  313MOL0     H43153   2.701   3.655   3.312  1.5774  0.3700 -0.7963
  313MOL0     H43154   2.600   3.560   3.428  0.6832 -0.0004 -1.0953
  313MOL0     H43155   2.762   3.507   3.402  2.0445  1.9230 -0.0037
  313MOL0     H43156   3.091   3.860   3.192  0.8665 -0.5710  1.3690
  313MOL0     H43157   3.202   3.796   2.987  1.4453 -0.7681 -1.1232
  313MOL0     H43158   3.408   3.586   2.771 -0.5329  1.0238 -1.8036
  313MOL0     H43159   3.259   3.638   2.837  0.1080 -0.6872 -2.3825
  313MOL0     H43160   3.372   3.867   2.843  0.0392  0.1284  0.3896
  313MOL0     H43161   3.496   3.803   2.730  0.2633  0.4675 -0.6836
  313MOL0     H43162   3.206   3.864   2.663  2.8618  4.3560  0.8743
  313MOL0     H43163   3.271   3.712   2.601  2.0143 -1.0251 -0.1643
  313MOL0     H43164   3.473   3.917   2.558 -2.3843  0.8991  4.4364
  313MOL0     H43165   3.325   3.992   2.524 -1.2823  0.1620 -0.6210
  313MOL0     H43166   3.276   3.782   2.369  1.3020 -2.9449  0.2324
  313MOL0     H43167   3.393   3.904   2.310  3.7571  0.5119  1.8194
  313MOL0     H43168   3.453   3.659   2.468  1.0670  0.7933  2.3091
  313MOL0     H43169   3.570   3.775   2.391  0.7470 -0.7016  0.0572
  313MOL0     H43170   3.562   3.671   2.191  1.1098  3.4159  3.0944
  313MOL0     H43171   3.390   3.614   2.202  0.4257 -2.6359 -0.4718
  313MOL0     H43172   3.490   3.458   2.386 -2.6715 -0.5077 -1.2433
  313MOL0     H43173   3.647   3.482   2.314 -0.1262 -0.2195  0.1884
  313MOL0     H43174   3.462   3.545   3.193 -1.2450 -1.4982 -0.3904
  313MOL0     H43175   3.375   3.595   3.409  0.2485 -2.2718 -0.7331
  313MOL0     H43176   3.039   3.849   3.613 -0.4369  0.0399  0.9672
  313MOL0     H43177   2.854   3.958   3.755  0.0176 -1.2356  1.4761
  313MOL0     H43178   1.573   4.624   4.537 -0.7426  0.2028 -0.9464
  313MOL0     H43179   1.328   4.638   4.589 -0.5435 -2.5668  1.6516
  313MOL0     H43180   0.996   4.650   4.760  3.7996 -2.8742  1.2759
  313MOL0     H43181   0.825   4.517   4.832 -1.9210 -1.0224  1.1727
  313MOL0     H43182   0.906   4.328   5.013  2.5361  0.0767  1.9043
  313MOL0     H43183   0.880   4.295   5.170  0.5284 -0.2660 -0.1414
  313MOL0     H43184   0.653   4.196   5.117 -0.1822  1.1483  0.4515
  313MOL0     H43185   0.779   4.139   5.000  0.3357  1.2269 -1.3706
  313MOL0     H43186   0.520   4.277   4.977 -0.1134  3.9389 -0.1742
  313MOL0     H43187   0.647   4.372   4.886  1.4074  0.4696  1.5676
  313MOL0     H43188   0.508   4.210   4.763  0.6194  1.7835  1.0139
  313MOL0     H43189   0.577   4.076   4.865 -0.4403 -0.0558 -0.1794
  313MOL0     H43190   0.907   4.124   4.611 -0.2331 -0.6038  0.0059
  313MOL0     H43191   0.875   4.648   5.226 -1.1519  4.2026 -1.0538
  313MOL0     H43192   1.044   4.938   5.186  0.9443 -0.1003 -0.6691
  313MOL0     H43193   1.032   4.802   5.295 -0.8413 -0.7304 -0.1470
  313MOL0     H43194   1.178   4.817   5.202  0.0709 -0.4255  3.2994
  314MOL0     O43195   3.383   9.099   9.852  0.4724 -0.1067  0.5586
  314MOL0     C43196   3.472   9.054   9.919 -0.5882  0.3555  0.1990
  314MOL0     O43197   3.578   8.988   9.865  1.0817  1.1090 -0.3520
  314MOL0     C43198   3.588   8.976   9.723 -0.3126 -0.5991 -0.3363
  314MOL0     C43199   3.627   8.843   9.682  1.1192 -0.0617 -0.6121
  314MOL0     C43200   3.630   8.810   9.547 -0.5446  0.0973 -0.1096
  314MOL0     C43201   3.618   8.916   9.455  0.2250  0.1852 -0.3371
  314MOL0     O43202   3.627   8.881   9.320  0.1503 -0.7863 -0.9861
  314MOL0     C43203   3.516   8.910   9.236  0.5473 -0.3334 -0.0955
  314MOL0     C43204   3.512   8.816   9.114 -0.4462  0.0754  0.5739
  314MOL0     C43205   3.517   8.893   8.971  0.1956 -0.6633 -0.5082
  314MOL0     C43206   3.474   8.804   8.851  0.9483  0.6829  0.6523
  314MOL0     C43207   3.522   8.867   8.709  0.3601  0.6420 -0.6632
  314MOL0     C43208   3.455   8.817   8.577  0.1158  0.1321  0.2419
  314MOL0     C43209   3.519   8.868   8.445  0.0825 -0.3064  0.3610
  314MOL0     C43210   3.413   8.865   8.336  0.3208 -0.4030 -0.6947
  314MOL0     N43211   3.373   8.725   8.306  0.1085  0.4826  0.6630
  314MOL0     C43212   3.284   8.652   8.375 -0.2909 -0.3469  1.4355
  314MOL0     C43213   3.285   8.531   8.318  0.3585 -0.1824  0.3096
  314MOL0     C43214   3.206   8.412   8.362 -1.1104 -0.5847 -0.2311
  314MOL0     C43215   3.058   8.425   8.352 -0.1778  0.0456  0.2102
  314MOL0     C43216   2.989   8.283   8.373 -0.2578  0.2445  0.2941
  314MOL0     C43217   2.968   8.218   8.247  0.6892 -0.5619  0.1030
  314MOL0     O43218   2.965   8.069   8.257 -0.3910  1.0235 -0.2542
  314MOL0     C43219   3.073   8.004   8.303 -0.6460  0.7804 -0.8376
  314MOL0     C43220   3.195   8.029   8.253  0.2427  0.6450  0.0987
  314MOL0     C43221   3.297   7.948   8.299  0.2420 -0.3254  0.6086
  314MOL0     C43222   3.434   7.970   8.237  0.1525 -0.1893 -0.2509
  314MOL0     C43223   3.278   7.869   8.419 -0.5148 -0.4019 -0.0642
  314MOL0     C43224   3.392   7.798   8.478 -0.5274 -0.4801 -0.2475
  314MOL0     O43225   3.467   7.703   8.408 -0.5437 -0.3008 -0.2080
  314MOL0     C43226   3.600   7.676   8.429 -0.6490  0.6863  0.6829
  314MOL0     C43227   3.689   7.742   8.512  0.0555  1.0720 -0.3985
  314MOL0     C43228   3.826   7.707   8.530 -0.5034  0.3409  1.1061
  314MOL0     C43229   3.882   7.610   8.441  1.3790 -1.0748  0.4996
  314MOL0     O43230   4.008   7.562   8.468  0.1807  0.0035  0.1291
  314MOL0     C43231   4.076   7.470   8.381  0.0939 -0.6145 -0.2516
  314MOL0     C43232   4.213   7.457   8.459  0.2515  0.4767 -0.2904
  314MOL0     C43233   4.314   7.563   8.408  0.5604  0.7442  0.3258
  314MOL0     C43234   4.370   7.533   8.273  0.0355 -0.0673 -0.1756
  314MOL0     C43235   4.468   7.636   8.211  0.4310 -0.2745 -0.2256
  314MOL0     C43236   4.609   7.644   8.283 -0.2653 -0.5711  0.5442
  314MOL0     C43237   4.714   7.545   8.242  0.1133  0.0767  0.2313
  314MOL0     C43238   4.852   7.584   8.299 -0.3315 -0.0888 -0.2762
  314MOL0    Cl43239   4.968   7.486   8.210  0.1710 -0.0877 -0.6234
  314MOL0     C43240   3.796   7.563   8.334 -0.1926 -0.8144  0.8057
  314MOL0     C43241   3.658   7.590   8.333 -0.0604  0.0161  0.0498
  314MOL0     O43242   3.405   7.821   8.599 -0.0986 -0.3342 -0.6857
  314MOL0     C43243   3.144   7.847   8.462 -1.1501  0.1560  0.6241
  314MOL0     C43244   3.050   7.917   8.406  0.4715 -0.6421  0.2182
  314MOL0     N43245   3.384   8.535   8.221  0.0605  0.6068  0.7537
  314MOL0     N43246   3.440   8.644   8.221 -0.1238 -0.0522  0.1731
  314MOL0     C43247   3.576   9.046   9.500 -0.1559 -0.1399 -0.9693
  314MOL0     C43248   3.566   9.078   9.636 -0.0743 -0.4294 -0.4184
  314MOL0     C43249   3.456   9.038  10.070 -0.3559 -0.0802  0.0277
  314MOL0     C43250   3.439   8.909  10.123 -0.0927  0.0139  0.0120
  314MOL0     C43251   3.414   8.887  10.261 -1.5427 -0.2093 -0.1648
  314MOL0     C43252   3.383   8.999  10.345 -0.3933  0.2171 -0.7938
  314MOL0     O43253   3.340   8.997  10.473 -0.0358 -0.4637 -0.2540
  314MOL0     C43254   3.313   8.864  10.520 -0.3196  0.8449  0.4056
  314MOL0     C43255   3.274   8.850  10.674 -0.1634  0.5424  0.0287
  314MOL0     C43256   3.331   8.971  10.752 -0.5852  0.4361  0.0313
  314MOL0     C43257   3.320   8.957  10.898 -0.8203 -1.1206  0.8934
  314MOL0     C43258   3.380   9.081  10.964  0.1870  0.4281 -0.6558
  314MOL0     C43259   3.430   9.173  11.023  0.3684 -0.4049 -0.0220
  314MOL0     C43260   3.409   9.126  10.290  0.2401  0.2383  0.0432
  314MOL0     C43261   3.445   9.142  10.162 -0.6392  0.0051  0.4354
  314MOL0     C43262   3.481   9.288  10.126 -0.1495  0.5803 -0.2057
  314MOL0     H43263   3.636   8.768   9.760 -0.7170  2.6463  2.4617
  314MOL0     H43264   3.655   8.715   9.499 -2.2472  1.2503 -3.6512
  314MOL0     H43265   3.528   9.013   9.201  0.5100 -0.5324 -0.6985
  314MOL0     H43266   3.420   8.919   9.287  0.3055  2.2062 -0.8898
  314MOL0     H43267   3.598   8.749   9.123 -0.2575  0.3040  0.5022
  314MOL0     H43268   3.420   8.758   9.125  0.8159 -1.9927  0.6245
  314MOL0     H43269   3.456   8.984   8.979  0.8104 -0.3265  0.5531
  314MOL0     H43270   3.622   8.923   8.967 -0.0589  0.2875 -0.3304
  314MOL0     H43271   3.534   8.713   8.855  0.4238  0.2951 -0.0118
  314MOL0     H43272   3.366   8.794   8.853  1.0785 -0.8470  2.5653
  314MOL0     H43273   3.630   8.862   8.693  0.3840 -0.5953 -0.1463
  314MOL0     H43274   3.493   8.973   8.705  1.2310  1.0727  2.0566
  314MOL0     H43275   3.468   8.709   8.565 -1.8736 -0.0273 -0.8653
  314MOL0     H43276   3.347   8.834   8.582 -0.4069 -1.6487 -2.8323
  314MOL0     H43277   3.608   8.813   8.413  0.7750  1.3989 -0.8196
  314MOL0     H43278   3.553   8.972   8.452 -3.7921  1.0767  0.6671
  314MOL0     H43279   3.324   8.919   8.370  1.7929  0.1498  2.7555
  314MOL0     H43280   3.450   8.902   8.241  0.7229  0.1995 -0.3071
  314MOL0     H43281   3.222   8.696   8.452  0.6102 -1.2107  2.7006
  314MOL0     H43282   3.237   8.396   8.465  2.9408 -6.5478 -1.8840
  314MOL0     H43283   3.242   8.319   8.318  5.2201  0.0208  2.5406
  314MOL0     H43284   3.024   8.489   8.434 -0.2015  1.4370 -0.8579
  314MOL0     H43285   3.021   8.473   8.261 -2.4240 -0.4613  0.7845
  314MOL0     H43286   3.059   8.218   8.427  1.8216 -0.0049 -2.4712
  314MOL0     H43287   2.900   8.302   8.433  0.6616 -0.8639  2.1444
  314MOL0     H43288   2.877   8.258   8.200 -0.0305 -3.0795 -0.8319
  314MOL0     H43289   3.044   8.231   8.170 -0.1239  0.5463 -0.5419
  314MOL0     H43290   3.219   8.100   8.175  0.2050 -1.0100 -1.4799
  314MOL0     H43291   3.442   7.893   8.160 -1.5775  0.4904 -1.1809
  314MOL0     H43292   3.517   7.972   8.308 -1.4095  1.8452  1.6751
  314MOL0     H43293   3.440   8.067   8.187 -1.5363  0.4043  0.6034
  314MOL0     H43294   3.646   7.811   8.584 -2.1325  1.9609 -2.4398
  314MOL0     H43295   3.893   7.744   8.607  1.0467 -1.6652  0.7963
  314MOL0     H43296   4.027   7.372   8.381 -2.2005  0.4600  0.3111
  314MOL0     H43297   4.089   7.507   8.279  1.3928 -3.3994 -1.1969
  314MOL0     H43298   4.206   7.452   8.568 -0.8126 -2.1189 -0.4100
  314MOL0     H43299   4.264   7.363   8.433  1.6721  0.6499  1.6471
  314MOL0     H43300   4.399   7.558   8.477 -0.3887  1.1626  1.5536
  314MOL0     H43301   4.282   7.667   8.420  1.9729  0.8582  6.1678
  314MOL0     H43302   4.290   7.524   8.198  0.8759  4.3197 -1.9255
  314MOL0     H43303   4.418   7.435   8.269 -3.2750 -2.0638  2.6883
  314MOL0     H43304   4.491   7.616   8.105 -0.6911  2.0042 -0.9653
  314MOL0     H43305   4.414   7.731   8.216  2.4624  1.1195 -2.4930
  314MOL0     H43306   4.600   7.641   8.392 -1.8867 -0.9396  0.4117
  314MOL0     H43307   4.657   7.738   8.252 -1.1934  0.0651  0.9815
  314MOL0     H43308   4.712   7.537   8.133  1.1150 -2.2173  0.3298
  314MOL0     H43309   4.694   7.444   8.280  0.5960  0.3153  1.1597
  314MOL0     H43310   4.865   7.567   8.406 -2.2649  0.0862  0.0334
  314MOL0     H43311   4.884   7.683   8.266  0.8368  0.5506  2.5218
  314MOL0     H43312   3.834   7.491   8.262 -3.1447 -0.3712 -1.4148
  314MOL0     H43313   3.602   7.550   8.249  1.5199 -0.0357 -1.0392
  314MOL0     H43314   3.108   7.785   8.543 -2.6393  1.3993  0.9578
  314MOL0     H43315   2.947   7.896   8.430  0.5292  0.8131  1.9494
  314MOL0     H43316   3.560   9.133   9.436  1.3252  0.3174 -0.7417
  314MOL0     H43317   3.536   9.177   9.670  2.0478  0.2213 -0.2836
  314MOL0     H43318   3.443   8.820  10.060 -1.0240  0.0152 -0.0614
  314MOL0     H43319   3.409   8.784  10.297  0.7219 -0.3953 -0.2754
  314MOL0     H43320   3.229   8.825  10.462 -0.9013 -0.8378  2.2514
  314MOL0     H43321   3.394   8.791  10.512 -1.0243 -0.4402  3.5584
  314MOL0     H43322   3.315   8.756  10.711 -2.7461 -2.3987 -3.8310
  314MOL0     H43323   3.168   8.841  10.696  0.1956 -2.3809  1.0932
  314MOL0     H43324   3.436   8.972  10.722 -0.0283 -2.0417  1.6293
  314MOL0     H43325   3.283   9.066  10.725 -0.7506  0.5724  0.7905
  314MOL0     H43326   3.383   8.877  10.936 -0.3559 -0.6383  1.1570
  314MOL0     H43327   3.213   8.956  10.921 -1.1156  0.5330 -0.2279
  314MOL0     H43328   3.464   9.271  11.052 -2.6710  1.1258 -1.0671
  314MOL0     H43329   3.387   9.214  10.350  0.6750 -0.4835  1.2982
  314MOL0     H43330   3.507   9.300  10.020 -3.0637 -1.3140 -1.2471
  314MOL0     H43331   3.399   9.356  10.152 -0.0205  0.9349 -0.7009
  314MOL0     H43332   3.558   9.327  10.193 -0.4015 -3.4765  2.8245
  315MOL0     O43333   5.993   3.801   7.429 -0.4296  0.1859 -1.0053
  315MOL0     C43334   6.012   3.685   7.420  0.4917  0.1752  0.7794
  315MOL0     O43335   5.949   3.580   7.480  0.6919  0.3557  0.7397
  315MOL0     C43336   5.824   3.598   7.534  0.5839 -0.1470  0.5138
  315MOL0     C43337   5.770   3.712   7.606  0.6483  0.3178  0.0218
  315MOL0     C43338   5.646   3.706   7.669  0.4522 -0.7863  0.0513
  315MOL0     C43339   5.570   3.585   7.671  0.2598  0.2418  0.2731
  315MOL0     O43340   5.451   3.569   7.748  0.0886 -0.4179  0.2758
  315MOL0     C43341   5.326   3.589   7.681  0.3663 -0.3560 -0.0714
  315MOL0     C43342   5.203   3.560   7.774 -0.0203 -1.0817  0.8343
  315MOL0     C43343   5.205   3.642   7.901  0.9472  0.8954  0.1775
  315MOL0     C43344   5.075   3.644   7.988 -0.5814  0.1359 -0.0128
  315MOL0     C43345   5.102   3.732   8.112 -0.5693  0.6652 -0.0168
  315MOL0     C43346   4.970   3.756   8.177  0.3284 -0.3392  0.9743
  315MOL0     C43347   4.990   3.806   8.323 -0.0999 -0.9607 -0.6714
  315MOL0     C43348   5.067   3.946   8.331  1.0479  0.0989  0.3945
  315MOL0     N43349   5.050   4.021   8.455 -0.0220  0.0324  0.0754
  315MOL0     C43350   4.941   4.097   8.492  0.5034 -0.4522  0.0902
  315MOL0     C43351   4.974   4.173   8.603 -0.7908 -0.2586  1.1931
  315MOL0     C43352   4.894   4.265   8.680  0.6019  0.4763  0.4012
  315MOL0     C43353   4.820   4.189   8.793 -0.7078 -0.3135 -0.3026
  315MOL0     C43354   4.910   4.145   8.899  0.5730  0.2697 -0.0101
  315MOL0     C43355   4.832   4.059   9.002  0.0785 -0.8018 -0.0389
  315MOL0     O43356   4.922   4.016   9.110  0.4115  0.8146 -0.2150
  315MOL0     C43357   4.869   3.940   9.215  0.4527  0.4864  0.1775
  315MOL0     C43358   4.730   3.902   9.222 -0.1206  0.0584 -1.0048
  315MOL0     C43359   4.692   3.802   9.319  0.4308 -0.8045  0.1622
  315MOL0     C43360   4.549   3.758   9.300 -0.6298 -0.3322  0.1804
  315MOL0     C43361   4.777   3.762   9.419 -0.6546  0.0921 -0.4129
  315MOL0     C43362   4.747   3.672   9.536  0.9576  0.2424 -0.4446
  315MOL0     O43363   4.839   3.639   9.628  0.3601 -0.3311 -0.1095
  315MOL0     C43364   4.797   3.559   9.735 -0.2966 -0.0999 -0.6302
  315MOL0     C43365   4.788   3.417   9.721  0.7821  0.0560  0.2347
  315MOL0     C43366   4.761   3.331   9.832 -0.0416  0.0268 -0.6293
  315MOL0     C43367   4.721   3.383   9.961  0.4927 -0.0114  0.1377
  315MOL0     O43368   4.693   3.320  10.083 -0.2013  0.3371 -0.6483
  315MOL0     C43369   4.659   3.181  10.077  0.2149  0.9281 -0.2265
  315MOL0     C43370   4.514   3.172  10.018  0.0319 -1.3603 -0.9047
  315MOL0     C43371   4.460   3.033   9.988 -0.6638 -0.1076  0.1413
  315MOL0     C43372   4.530   2.956   9.869 -0.4450  0.5876  0.0374
  315MOL0     C43373   4.517   3.027   9.742 -0.2192 -0.2731 -0.3867
  315MOL0     C43374   4.502   2.933   9.632  0.2508  0.0252 -0.2394
  315MOL0     C43375   4.642   2.883   9.591  0.1911 -0.2036  0.9725
  315MOL0     C43376   4.646   2.772   9.486  0.4259 -0.4882  0.3278
  315MOL0    Cl43377   4.539   2.637   9.517  0.2862 -0.3857  0.0020
  315MOL0     C43378   4.735   3.523   9.967  1.1768 -0.0411  0.4091
  315MOL0     C43379   4.760   3.611   9.858 -0.1183 -0.0625 -0.6762
  315MOL0     O43380   4.639   3.617   9.539 -0.0966 -0.2343  0.2926
  315MOL0     C43381   4.910   3.815   9.419  0.4174 -1.1205 -0.5812
  315MOL0     C43382   4.954   3.910   9.323 -0.0248 -0.9362  0.0721
  315MOL0     N43383   5.107   4.126   8.633 -0.3820  0.7202 -0.3183
  315MOL0     N43384   5.150   4.045   8.546  0.2464  0.1272  0.6514
  315MOL0     C43385   5.614   3.479   7.597  0.1460 -0.1877  0.9799
  315MOL0     C43386   5.736   3.485   7.533 -0.1437 -0.4340 -0.1152
  315MOL0     C43387   6.114   3.639   7.322 -0.4097 -0.8377  0.3041
  315MOL0     C43388   6.153   3.504   7.307 -0.1540 -0.8840  0.6132
  315MOL0     C43389   6.272   3.468   7.247  0.5238  0.5050  0.6350
  315MOL0     C43390   6.358   3.557   7.184 -1.1679 -0.4362 -1.6089
  315MOL0     O43391   6.467   3.508   7.114  0.4168 -0.3636 -0.8202
  315MOL0     C43392   6.576   3.590   7.073  0.9636 -0.4264 -0.6762
  315MOL0     C43393   6.703   3.521   7.114 -0.4018 -0.1806  0.6274
  315MOL0     C43394   6.712   3.387   7.027  0.8727 -0.5590 -0.1219
  315MOL0     C43395   6.857   3.337   7.045 -0.3629 -0.2495  0.7358
  315MOL0     C43396   6.878   3.221   6.954  0.6779 -0.7284  0.5591
  315MOL0     C43397   6.926   3.136   6.888 -0.1247  0.5487  0.1837
  315MOL0     C43398   6.308   3.688   7.175  0.5177  0.2291  0.5697
  315MOL0     C43399   6.197   3.737   7.243  0.0305 -0.5914 -0.8492
  315MOL0     C43400   6.158   3.885   7.218 -0.9481 -0.5503  0.6501
  315MOL0     H43401   5.833   3.800   7.610  3.1596 -1.3939  3.0088
  315MOL0     H43402   5.602   3.799   7.701 -1.4566 -2.0290  1.1737
  315MOL0     H43403   5.313   3.526   7.592  1.0312 -0.1896 -0.2939
  315MOL0     H43404   5.314   3.696   7.663  0.5583  0.3013  3.1083
  315MOL0     H43405   5.107   3.589   7.730 -0.3669 -2.6626  0.4862
  315MOL0     H43406   5.190   3.451   7.779 -0.4352 -1.0687  0.1708
  315MOL0     H43407   5.293   3.614   7.960  1.5327 -0.5490 -1.3196
  315MOL0     H43408   5.221   3.746   7.872  0.5690  0.7180 -0.6708
  315MOL0     H43409   5.000   3.696   7.927  1.3674  2.9072 -0.2399
  315MOL0     H43410   5.045   3.543   8.018 -1.6917  0.5217  0.2134
  315MOL0     H43411   5.159   3.821   8.085 -1.4971  2.0528  2.2278
  315MOL0     H43412   5.164   3.674   8.180  0.5675 -0.1226 -1.6596
  315MOL0     H43413   4.918   3.835   8.123 -1.1724 -1.5809  0.5174
  315MOL0     H43414   4.900   3.673   8.157 -1.0043  1.7528 -5.4855
  315MOL0     H43415   5.054   3.741   8.383 -0.2495  0.3482  0.9955
  315MOL0     H43416   4.895   3.809   8.379 -0.2982 -0.0671 -1.0324
  315MOL0     H43417   5.172   3.924   8.311  0.7636 -1.4491  0.5298
  315MOL0     H43418   5.019   4.015   8.261  0.3964  0.4878  1.2071
  315MOL0     H43419   4.839   4.084   8.456  0.4011  1.6398 -0.5245
  315MOL0     H43420   4.822   4.313   8.611 -2.6939 -0.3566  3.0118
  315MOL0     H43421   4.951   4.349   8.721  0.0426 -0.6494  3.7840
  315MOL0     H43422   4.746   4.252   8.844  1.6148 -0.5604  3.7377
  315MOL0     H43423   4.763   4.107   8.748 -1.5041  0.3675 -0.5879
  315MOL0     H43424   4.995   4.088   8.860  1.7640  2.4423 -0.7416
  315MOL0     H43425   4.957   4.232   8.945  0.0238 -0.0253  1.1585
  315MOL0     H43426   4.748   4.117   9.040  1.4263  1.3499 -0.2123
  315MOL0     H43427   4.790   3.981   8.937 -2.2394  0.8591 -0.6430
  315MOL0     H43428   4.652   3.939   9.156  0.2216  0.0177 -1.4364
  315MOL0     H43429   4.496   3.800   9.386  1.8570  0.7105  1.3196
  315MOL0     H43430   4.534   3.649   9.296 -1.0257 -0.3517  1.6013
  315MOL0     H43431   4.502   3.815   9.220 -1.4467  0.3791  1.1475
  315MOL0     H43432   4.818   3.374   9.626  3.5428  0.5998  0.7645
  315MOL0     H43433   4.767   3.225   9.810  0.8533 -0.1062  0.2080
  315MOL0     H43434   4.729   3.134  10.008 -0.7202 -3.3131  1.4120
  315MOL0     H43435   4.670   3.136  10.176  2.1469 -0.5968 -1.0658
  315MOL0     H43436   4.440   3.212  10.088 -3.7795 -2.9431 -3.6807
  315MOL0     H43437   4.507   3.238   9.931  0.5042 -0.5542 -0.3398
  315MOL0     H43438   4.355   3.049   9.964 -1.1801  1.9360  3.1956
  315MOL0     H43439   4.461   2.977  10.082  0.2548 -0.0866  0.1565
  315MOL0     H43440   4.481   2.858   9.878 -0.5475  0.6558  0.2222
  315MOL0     H43441   4.634   2.933   9.893  0.4148  0.9487 -2.9175
  315MOL0     H43442   4.424   3.085   9.738 -0.0189  0.0744  0.0058
  315MOL0     H43443   4.603   3.092   9.729 -0.1651 -0.0095  1.1630
  315MOL0     H43444   4.459   2.999   9.557 -1.2820  2.4241  2.5493
  315MOL0     H43445   4.430   2.853   9.654 -0.5162  0.7948  0.0929
  315MOL0     H43446   4.702   2.862   9.679  1.6290 -0.8631 -0.1273
  315MOL0     H43447   4.689   2.973   9.549  2.1563 -1.7007 -0.2260
  315MOL0     H43448   4.746   2.729   9.489  0.1545 -1.1433  4.0958
  315MOL0     H43449   4.641   2.814   9.385 -1.4514 -0.4854  0.3790
  315MOL0     H43450   4.695   3.566  10.058 -2.2227  1.4893 -1.6270
  315MOL0     H43451   4.769   3.719   9.863  0.9588 -0.1999  3.4540
  315MOL0     H43452   4.975   3.780   9.499 -1.9990 -3.2157  0.6345
  315MOL0     H43453   5.050   3.960   9.318 -0.2960 -0.4979 -0.9149
  315MOL0     H43454   5.557   3.387   7.606 -0.7374 -0.0556 -2.2740
  315MOL0     H43455   5.762   3.392   7.483 -2.7750 -0.3446 -1.8322
  315MOL0     H43456   6.087   3.432   7.355 -1.8586 -0.2677 -0.6933
  315MOL0     H43457   6.306   3.365   7.254  0.2267  0.3946  0.4765
  315MOL0     H43458   6.578   3.610   6.966 -2.7871 -0.2997 -0.8648
  315MOL0     H43459   6.569   3.688   7.121 -1.0268 -0.3231 -1.0895
  315MOL0     H43460   6.696   3.496   7.220 -0.7645  0.0531  0.6599
  315MOL0     H43461   6.785   3.594   7.108 -0.6679  0.0392 -0.4489
  315MOL0     H43462   6.643   3.305   7.048  0.7149 -0.5701 -0.6453
  315MOL0     H43463   6.702   3.424   6.924  1.5329  2.7112  0.8700
  315MOL0     H43464   6.862   3.294   7.145  1.4717  3.1408  2.2541
  315MOL0     H43465   6.931   3.417   7.035 -2.8354  1.9331 -1.8527
  315MOL0     H43466   6.983   3.061   6.837 -0.7141  0.2620 -0.0693
  315MOL0     H43467   6.365   3.758   7.115  1.0781 -1.6738 -1.2185
  315MOL0     H43468   6.216   3.933   7.139 -0.1057 -2.9444 -0.2687
  315MOL0     H43469   6.055   3.891   7.182 -1.0131 -2.6997  0.3815
  315MOL0     H43470   6.162   3.939   7.314 -0.5681  0.6427 -0.0236
  316MOL0     O43471   1.043   8.532   1.105 -0.5078  0.0065  0.0972
  316MOL0     C43472   1.131   8.618   1.102  0.0654  0.0011 -0.2739
  316MOL0     O43473   1.144   8.721   1.004  0.7933 -0.4542 -0.0780
  316MOL0     C43474   1.061   8.706   0.899 -0.0064 -1.6838  0.8803
  316MOL0     C43475   0.919   8.719   0.899 -0.3671  0.2819 -0.3496
  316MOL0     C43476   0.848   8.701   0.783 -0.1878 -0.8330  0.6551
  316MOL0     C43477   0.922   8.679   0.655  0.7486 -0.3732  0.0483
  316MOL0     O43478   0.853   8.647   0.546 -0.6762  0.6009  0.2057
  316MOL0     C43479   0.707   8.662   0.535 -0.5623  1.3669 -0.5125
  316MOL0     C43480   0.686   8.604   0.393 -0.0875 -0.0081  0.1928
  316MOL0     C43481   0.539   8.612   0.353  0.7911 -0.0957 -0.2593
  316MOL0     C43482   0.479   8.755   0.317  0.6848  0.3890 -0.2729
  316MOL0     C43483   0.328   8.737   0.317  0.0188  0.5883  0.1561
  316MOL0     C43484   0.260   8.859   0.251 -0.0807 -0.0812 -0.4818
  316MOL0     C43485   0.276   8.980   0.339 -0.1507  0.0858 -0.6920
  316MOL0     C43486   0.222   9.108   0.286 -0.6089  0.5227  0.9003
  316MOL0     N43487   0.283   9.218   0.362 -0.5386  0.7432  0.0148
  316MOL0     C43488   0.233   9.261   0.481  1.1073 -0.0861 -0.6923
  316MOL0     C43489   0.333   9.346   0.535  0.8107  0.2634  0.4985
  316MOL0     C43490   0.356   9.406   0.675 -0.5004 -0.7044  0.5506
  316MOL0     C43491   0.355   9.285   0.777  0.4084 -0.0076 -0.3718
  316MOL0     C43492   0.475   9.200   0.777  0.1872 -0.5628  0.5911
  316MOL0     C43493   0.596   9.241   0.861 -0.6229  0.2208 -0.6958
  316MOL0     O43494   0.658   9.358   0.816  0.2657 -0.2636  1.0025
  316MOL0     C43495   0.783   9.388   0.875  0.1682  0.6489 -0.5495
  316MOL0     C43496   0.894   9.434   0.799 -0.4479 -0.5742 -0.1491
  316MOL0     C43497   1.010   9.472   0.866 -0.8215 -0.2986 -0.0045
  316MOL0     C43498   1.128   9.527   0.777 -0.3400  0.4351 -0.0805
  316MOL0     C43499   1.022   9.476   1.013  0.5389 -0.0421  1.0709
  316MOL0     C43500   1.127   9.528   1.094 -1.1498 -0.3114  0.1674
  316MOL0     O43501   1.099   9.576   1.220 -0.4416  0.2317  0.5373
  316MOL0     C43502   1.198   9.634   1.294 -0.1360  0.0434 -0.2704
  316MOL0     C43503   1.198   9.775   1.330  0.0311  0.9510  0.6843
  316MOL0     C43504   1.297   9.833   1.403  0.2094 -0.3060 -0.0565
  316MOL0     C43505   1.404   9.753   1.450  0.6103 -0.4350 -0.8276
  316MOL0     O43506   1.519   9.803   1.494  0.2437 -0.1494 -0.1829
  316MOL0     C43507   1.525   9.881   1.614 -0.3296 -0.0614 -0.6093
  316MOL0     C43508   1.418   9.846   1.724  0.4731 -0.1998  1.2474
  316MOL0     C43509   1.420   9.932   1.851  0.7407  0.3435 -0.5518
  316MOL0     C43510   1.530   9.901   1.944 -0.2962  0.2125  0.6162
  316MOL0     C43511   1.512   9.966   2.086 -0.2356  0.2202  0.8790
  316MOL0     C43512   1.601   9.922   2.197 -0.7093  0.1448 -0.2024
  316MOL0     C43513   1.548   9.984   2.328 -0.1292  0.8292  1.0761
  316MOL0     C43514   1.654   9.994   2.440 -0.7820 -0.4228 -0.3669
  316MOL0    Cl43515   1.702   9.844   2.503 -0.1103  0.2186  0.0934
  316MOL0     C43516   1.412   9.618   1.422  0.1924 -0.0024 -1.2365
  316MOL0     C43517   1.310   9.561   1.340 -0.7258  0.8494 -0.1432
  316MOL0     O43518   1.243   9.529   1.042  0.1350  0.0455  0.8239
  316MOL0     C43519   0.908   9.441   1.077  0.8451  1.2142  0.2118
  316MOL0     C43520   0.790   9.389   1.011  0.6387 -0.0981 -0.4608
  316MOL0     N43521   0.429   9.359   0.437  0.3536  0.5860  0.4323
  316MOL0     N43522   0.402   9.279   0.338 -0.2522 -0.0216 -0.2235
  316MOL0     C43523   1.064   8.673   0.661  0.9250  0.1470 -0.1334
  316MOL0     C43524   1.136   8.684   0.781  0.0116 -0.8460 -0.1110
  316MOL0     C43525   1.225   8.605   1.217 -0.7057 -0.9568 -0.2610
  316MOL0     C43526   1.166   8.545   1.334 -0.0140 -0.2118  0.8535
  316MOL0     C43527   1.262   8.492   1.422 -0.5472 -0.1534  1.0700
  316MOL0     C43528   1.401   8.517   1.407 -0.0015 -0.4625 -0.7338
  316MOL0     O43529   1.473   8.461   1.516  0.9438 -0.5092 -0.9374
  316MOL0     C43530   1.610   8.484   1.513 -0.3542  0.2053  0.0812
  316MOL0     C43531   1.684   8.417   1.632 -0.7337  0.7033 -1.3213
  316MOL0     C43532   1.618   8.439   1.768  0.3732  0.5823 -0.6747
  316MOL0     C43533   1.577   8.582   1.791  0.8779 -0.4664 -0.4387
  316MOL0     C43534   1.696   8.663   1.801  0.0980  0.1866  0.8033
  316MOL0     C43535   1.796   8.726   1.829 -0.0995  0.3543 -0.5121
  316MOL0     C43536   1.447   8.598   1.309  0.2969  0.0616  0.8826
  316MOL0     C43537   1.360   8.643   1.211 -0.3598  0.6241 -0.2295
  316MOL0     C43538   1.428   8.726   1.097  0.5412 -0.2433 -0.4431
  316MOL0     H43539   0.861   8.718   0.991  1.8496 -2.2534  1.1554
  316MOL0     H43540   0.739   8.700   0.783 -0.2361 -2.9253  2.3544
  316MOL0     H43541   0.692   8.771   0.533  1.6552  1.7215 -2.4931
  316MOL0     H43542   0.651   8.612   0.614  1.4069  0.4032  0.3056
  316MOL0     H43543   0.741   8.656   0.314  0.4437  1.5332  1.5284
  316MOL0     H43544   0.710   8.497   0.393  0.3480  0.0346 -2.3415
  316MOL0     H43545   0.517   8.547   0.267 -1.1214 -1.3712  1.1202
  316MOL0     H43546   0.481   8.562   0.431  2.0266  1.0870  1.4904
  316MOL0     H43547   0.504   8.830   0.394  0.9447  0.8605 -0.8078
  316MOL0     H43548   0.512   8.793   0.220 -1.4764 -0.4064 -1.3797
  316MOL0     H43549   0.291   8.737   0.420  1.0153 -1.4279  0.5701
  316MOL0     H43550   0.293   8.645   0.269  2.7252 -0.9805  1.0107
  316MOL0     H43551   0.314   8.884   0.159  0.1613  2.6816  0.3097
  316MOL0     H43552   0.156   8.851   0.218 -1.0730  2.2094  1.7893
  316MOL0     H43553   0.380   9.004   0.364 -0.5963  0.8543  0.5400
  316MOL0     H43554   0.225   8.953   0.433 -0.3414  1.3410 -0.4269
  316MOL0     H43555   0.245   9.128   0.181  0.2870  2.2814  1.3887
  316MOL0     H43556   0.113   9.101   0.291 -0.6253  1.3439  2.1461
  316MOL0     H43557   0.140   9.230   0.526  1.1186 -3.3298 -2.6320
  316MOL0     H43558   0.279   9.481   0.695  1.0521  1.3238 -0.6313
  316MOL0     H43559   0.444   9.471   0.685 -2.3490  1.9162  0.7230
  316MOL0     H43560   0.332   9.330   0.873  2.1677  3.1527 -1.3101
  316MOL0     H43561   0.279   9.207   0.765 -0.6031  1.0089 -0.7225
  316MOL0     H43562   0.464   9.095   0.806 -3.2585 -0.8598 -1.2194
  316MOL0     H43563   0.516   9.195   0.675 -2.1133 -1.1431 -0.3879
  316MOL0     H43564   0.568   9.262   0.965  1.0227 -2.6729  0.4587
  316MOL0     H43565   0.675   9.168   0.884  0.2764  1.9427  2.1674
  316MOL0     H43566   0.880   9.457   0.694 -0.2956  2.7478  0.4482
  316MOL0     H43567   1.232   9.512   0.807 -0.2507 -0.1524 -0.6527
  316MOL0     H43568   1.113   9.632   0.752  2.0378  1.1780  1.2457
  316MOL0     H43569   1.131   9.482   0.677  1.2774  1.1763 -0.3979
  316MOL0     H43570   1.115   9.836   1.298 -2.1713 -0.7562  2.7759
  316MOL0     H43571   1.303   9.941   1.409 -0.5719 -0.1999 -1.0366
  316MOL0     H43572   1.618   9.863   1.669 -1.6037  3.0353  2.9374
  316MOL0     H43573   1.527   9.988   1.591 -0.4960  0.6488  2.3431
  316MOL0     H43574   1.320   9.840   1.676  2.5278 -1.8376 -3.2664
  316MOL0     H43575   1.437   9.741   1.747  3.1186 -0.7222 -2.4510
  316MOL0     H43576   1.328   9.899   1.900  0.9365 -0.5167 -0.7531
  316MOL0     H43577   1.416  10.040   1.831 -2.6356  0.6364  0.9363
  316MOL0     H43578   1.627   9.910   1.894 -0.2532 -2.2551  0.1370
  316MOL0     H43579   1.527   9.793   1.962  1.6872  0.1584  0.8538
  316MOL0     H43580   1.520  10.075   2.072 -0.2671 -0.0890 -2.5527
  316MOL0     H43581   1.409   9.951   2.121 -0.9641  1.4341 -0.5535
  316MOL0     H43582   1.706   9.951   2.184 -0.6458  1.3692  2.4044
  316MOL0     H43583   1.605   9.813   2.203  0.3412  0.2299  1.3151
  316MOL0     H43584   1.464   9.920   2.357  0.7344 -1.0001 -0.2838
  316MOL0     H43585   1.513  10.084   2.297 -0.9913 -0.1545 -1.3535
  316MOL0     H43586   1.617  10.054   2.524  5.5993  2.9083  0.7169
  316MOL0     H43587   1.747  10.037   2.402  0.4308 -0.5714  2.2300
  316MOL0     H43588   1.497   9.563   1.462  1.3896  3.9070  2.3974
  316MOL0     H43589   1.315   9.453   1.340  0.0034  0.7571  3.4655
  316MOL0     H43590   0.893   9.451   1.184  2.4302 -1.5211  0.7791
  316MOL0     H43591   0.711   9.357   1.077 -1.3834 -0.8762 -3.0713
  316MOL0     H43592   1.121   8.651   0.571  0.2984  2.4695 -1.1805
  316MOL0     H43593   1.242   8.694   0.797 -0.2835  0.8122  1.1225
  316MOL0     H43594   1.059   8.531   1.345 -0.2021 -1.5279 -1.8809
  316MOL0     H43595   1.234   8.430   1.507 -0.4775 -1.9391 -0.1593
  316MOL0     H43596   1.635   8.442   1.415 -0.4565  1.2994 -0.4267
  316MOL0     H43597   1.639   8.589   1.503  0.1219 -0.0594 -1.4426
  316MOL0     H43598   1.780   8.469   1.639  0.5986 -1.8760  2.2614
  316MOL0     H43599   1.703   8.311   1.612 -0.0593  0.5468  0.0309
  316MOL0     H43600   1.519   8.392   1.775 -0.4608  2.1499 -1.4290
  316MOL0     H43601   1.694   8.409   1.841  1.6682  1.6147 -1.5719
  316MOL0     H43602   1.518   8.587   1.883  0.5658 -1.5954 -0.5634
  316MOL0     H43603   1.510   8.627   1.718  2.2056 -0.1381 -1.4914
  316MOL0     H43604   1.895   8.765   1.839  0.9737 -1.7245 -2.1352
  316MOL0     H43605   1.553   8.620   1.296 -0.0571  1.9374  0.8279
  316MOL0     H43606   1.397   8.831   1.098 -0.5744 -0.5544 -1.3262
  316MOL0     H43607   1.536   8.718   1.116  0.4446 -0.3673  0.0940
  316MOL0     H43608   1.419   8.685   0.996  2.0187  1.9099 -1.5215
  317MOL0     O43609   6.027   0.435   5.128 -0.1289 -0.2231 -0.1705
  317MOL0     C43610   5.909   0.414   5.111 -0.1305 -0.4902 -0.1823
  317MOL0     O43611   5.809   0.483   5.163  0.1337  0.6242 -0.3879
  317MOL0     C43612   5.819   0.619   5.164  1.0189  0.1143 -0.2367
  317MOL0     C43613   5.878   0.691   5.059  0.0720 -0.4421 -0.1914
  317MOL0     C43614   5.880   0.833   5.056 -0.2190 -0.9076 -0.2082
  317MOL0     C43615   5.812   0.906   5.156  0.9021 -0.4103 -0.3608
  317MOL0     O43616   5.800   1.045   5.148 -0.0964 -0.0746 -0.9038
  317MOL0     C43617   5.748   1.097   5.018 -0.0872 -1.3263 -0.1526
  317MOL0     C43618   5.610   1.158   5.055  1.0223  0.1890  0.5010
  317MOL0     C43619   5.547   1.213   4.921 -0.0750  0.1517 -0.4678
  317MOL0     C43620   5.423   1.285   4.961  0.8964 -0.7513  0.1760
  317MOL0     C43621   5.437   1.436   4.903  0.1190 -0.1344  0.4588
  317MOL0     C43622   5.296   1.500   4.884  0.7233  0.3298 -0.1457
  317MOL0     C43623   5.309   1.623   4.796  0.0148 -0.0492  1.1677
  317MOL0     C43624   5.277   1.584   4.653 -0.4427  0.1035  0.8914
  317MOL0     N43625   5.288   1.713   4.570  0.2362  0.3233  0.0944
  317MOL0     C43626   5.259   1.833   4.618  0.4381  1.0083 -0.2495
  317MOL0     C43627   5.273   1.912   4.513 -0.2483  0.3194 -0.0657
  317MOL0     C43628   5.268   2.064   4.510  0.2557  0.0968  0.2803
  317MOL0     C43629   5.329   2.137   4.633  0.4028  0.4183  1.0667
  317MOL0     C43630   5.486   2.123   4.639  0.2733 -0.2492 -0.1965
  317MOL0     C43631   5.560   2.190   4.522 -0.3602 -0.3853 -0.8258
  317MOL0     O43632   5.690   2.245   4.556  0.6169 -0.0710 -0.1479
  317MOL0     C43633   5.787   2.279   4.466  1.0515  0.4966  0.8799
  317MOL0     C43634   5.761   2.314   4.333 -0.3798 -0.3209  0.6222
  317MOL0     C43635   5.868   2.317   4.237 -0.5974 -0.6363  0.2246
  317MOL0     C43636   5.822   2.345   4.097 -0.1182 -0.4818  0.2474
  317MOL0     C43637   6.002   2.307   4.277  0.0815 -0.0530 -0.1957
  317MOL0     C43638   6.116   2.347   4.190 -1.7939  0.6453 -0.2668
  317MOL0     O43639   6.244   2.358   4.253  0.1836 -0.5379 -0.8342
  317MOL0     C43640   6.357   2.408   4.186  1.1844  0.2685 -0.4815
  317MOL0     C43641   6.427   2.513   4.243  1.1021 -0.3806  0.1455
  317MOL0     C43642   6.530   2.559   4.172 -0.1008  1.0268  0.3388
  317MOL0     C43643   6.577   2.518   4.043  0.1130  0.8304 -0.3979
  317MOL0     O43644   6.694   2.558   3.984  0.2534 -0.4265  0.2918
  317MOL0     C43645   6.676   2.658   3.880 -0.5326  0.0383  0.1898
  317MOL0     C43646   6.667   2.593   3.744  0.4188  0.3445 -0.0298
  317MOL0     C43647   6.801   2.526   3.710 -0.1822 -0.0976  0.4992
  317MOL0     C43648   6.794   2.468   3.570 -0.5735  0.4847 -0.5844
  317MOL0     C43649   6.932   2.405   3.537  0.2488  0.3009 -0.7580
  317MOL0     C43650   6.967   2.357   3.393 -0.1659 -0.5824 -0.8160
  317MOL0     C43651   7.114   2.326   3.346  0.3818  0.6338  0.1324
  317MOL0     C43652   7.161   2.192   3.401 -0.4289  0.0602 -0.4336
  317MOL0    Cl43653   7.335   2.175   3.369 -0.3104  0.0415  0.3808
  317MOL0     C43654   6.506   2.411   3.986  0.3913  0.5905  1.1359
  317MOL0     C43655   6.395   2.355   4.059 -0.1947 -0.3885 -0.2355
  317MOL0     O43656   6.112   2.339   4.063  0.0415  0.1600 -1.1771
  317MOL0     C43657   6.029   2.285   4.425 -0.3495  0.3137  0.4618
  317MOL0     C43658   5.912   2.264   4.509  0.2364 -0.8136  0.6066
  317MOL0     N43659   5.327   1.836   4.404  0.1899 -0.1801 -0.2859
  317MOL0     N43660   5.316   1.714   4.443 -0.1385 -0.2051  0.5554
  317MOL0     C43661   5.742   0.839   5.261 -0.2361 -0.9272  0.7078
  317MOL0     C43662   5.748   0.697   5.260 -0.0189  0.5103 -0.3497
  317MOL0     C43663   5.875   0.308   5.022 -0.8758 -0.4078 -0.5379
  317MOL0     C43664   5.749   0.301   4.964  0.0457 -0.1608  0.6084
  317MOL0     C43665   5.709   0.214   4.865  0.3197  0.0201 -0.8638
  317MOL0     C43666   5.794   0.106   4.835 -0.5653 -0.4821  0.1167
  317MOL0     O43667   5.766   0.001   4.746  0.6388  0.1723  0.5252
  317MOL0     C43668   5.659   0.043   4.651  0.0308 -0.4586  0.2373
  317MOL0     C43669   5.639  -0.082   4.565  0.9651  0.7101  0.7742
  317MOL0     C43670   5.557  -0.186   4.643 -0.3554 -0.0240  0.1178
  317MOL0     C43671   5.450  -0.268   4.572  0.1206  0.5174 -0.1077
  317MOL0     C43672   5.330  -0.174   4.555  0.4939  0.4937 -0.2757
  317MOL0     C43673   5.240  -0.087   4.560 -0.1806 -0.4796  0.0592
  317MOL0     C43674   5.919   0.099   4.909  0.6743  0.1505  0.9601
  317MOL0     C43675   5.964   0.193   4.993 -0.3124 -1.0698 -0.3153
  317MOL0     C43676   6.103   0.174   5.047  0.2604  0.2526 -0.7997
  317MOL0     H43677   5.943   0.631   4.996  0.7842 -1.6569  1.6253
  317MOL0     H43678   5.928   0.885   4.974 -0.3580  0.9914  0.8349
  317MOL0     H43679   5.730   1.026   4.937  0.1754 -0.1279 -1.2950
  317MOL0     H43680   5.809   1.179   4.979 -2.0229 -0.3033 -1.1880
  317MOL0     H43681   5.553   1.071   5.087 -0.5443  0.1997 -1.9729
  317MOL0     H43682   5.625   1.235   5.131  0.0621 -0.5635  1.4852
  317MOL0     H43683   5.624   1.273   4.871  1.8557 -1.0601  0.9009
  317MOL0     H43684   5.529   1.133   4.848  2.2656 -1.5805  0.6821
  317MOL0     H43685   5.335   1.236   4.919  0.1231 -2.7651  3.7315
  317MOL0     H43686   5.417   1.296   5.070  0.3473  0.8826  0.0049
  317MOL0     H43687   5.490   1.435   4.808  1.5760 -0.9439  1.2437
  317MOL0     H43688   5.495   1.493   4.977 -0.5116  2.3427 -0.8581
  317MOL0     H43689   5.223   1.431   4.843  2.7986  0.4085 -4.5629
  317MOL0     H43690   5.265   1.529   4.985 -1.0580 -0.0391 -0.5638
  317MOL0     H43691   5.399   1.685   4.807  1.5717 -1.4721 -2.0395
  317MOL0     H43692   5.223   1.682   4.827  0.0137 -0.1263  1.3096
  317MOL0     H43693   5.349   1.512   4.613 -0.7026 -0.4543  1.4115
  317MOL0     H43694   5.178   1.539   4.649 -0.9487  1.2582 -0.3733
  317MOL0     H43695   5.233   1.868   4.717 -1.0176  3.1441 -1.2843
  317MOL0     H43696   5.164   2.093   4.493 -1.5107 -2.2899  5.0669
  317MOL0     H43697   5.331   2.096   4.427  1.4362 -1.8398  0.3586
  317MOL0     H43698   5.296   2.241   4.624 -0.5983  0.0548  0.3820
  317MOL0     H43699   5.285   2.095   4.724  0.2974  0.7389  1.1623
  317MOL0     H43700   5.500   2.175   4.734 -1.9492  2.0707 -1.0235
  317MOL0     H43701   5.513   2.017   4.649 -0.3783 -0.5142 -1.0260
  317MOL0     H43702   5.551   2.115   4.443 -1.1032  0.7551 -1.8661
  317MOL0     H43703   5.508   2.284   4.498 -0.1212 -0.2435 -0.7891
  317MOL0     H43704   5.664   2.357   4.310 -0.5248 -0.2402  1.3413
  317MOL0     H43705   5.868   2.441   4.074  0.1708 -0.4401  0.9830
  317MOL0     H43706   5.713   2.351   4.090 -0.1406 -1.7803 -1.1991
  317MOL0     H43707   5.853   2.275   4.018 -1.6143  1.7869 -2.5304
  317MOL0     H43708   6.412   2.560   4.339  2.9866 -0.5155  0.5473
  317MOL0     H43709   6.587   2.627   4.234 -1.0871  1.7913  0.4312
  317MOL0     H43710   6.585   2.715   3.898  0.8791  1.8271  2.2053
  317MOL0     H43711   6.761   2.728   3.880  0.0718 -0.6535  1.2823
  317MOL0     H43712   6.585   2.522   3.726 -0.1170  0.9943 -0.1745
  317MOL0     H43713   6.653   2.667   3.665 -1.5652  0.6665  0.5679
  317MOL0     H43714   6.813   2.436   3.772 -1.0888  0.4287  1.4662
  317MOL0     H43715   6.881   2.598   3.727 -2.2101  1.8102  2.5920
  317MOL0     H43716   6.764   2.545   3.498 -0.8087 -0.8382 -1.9487
  317MOL0     H43717   6.710   2.398   3.569 -2.4621  2.4995  1.9605
  317MOL0     H43718   7.006   2.477   3.574  0.1138 -1.2297  2.8195
  317MOL0     H43719   6.953   2.321   3.603  4.0174  1.7165  0.1337
  317MOL0     H43720   6.938   2.442   3.331 -0.4854  2.0783  2.7154
  317MOL0     H43721   6.898   2.274   3.374 -2.1875  0.1202  2.6661
  317MOL0     H43722   7.182   2.407   3.375 -2.2442  3.4670 -1.0164
  317MOL0     H43723   7.112   2.321   3.237  0.6657  2.5752 -0.0046
  317MOL0     H43724   7.111   2.105   3.356  1.5573  0.1456 -2.9924
  317MOL0     H43725   7.154   2.190   3.510  0.4945 -0.8635 -0.3731
  317MOL0     H43726   6.561   2.366   3.904  0.6805  4.2819 -0.9482
  317MOL0     H43727   6.358   2.261   4.021 -2.0236  0.0942  0.2304
  317MOL0     H43728   6.127   2.289   4.471 -0.5822 -1.1703  1.1340
  317MOL0     H43729   5.930   2.267   4.616  3.6546 -0.7295  0.1526
  317MOL0     H43730   5.686   0.899   5.332 -0.4825  1.1734 -1.1473
  317MOL0     H43731   5.691   0.642   5.334  0.7462 -0.3171 -0.3659
  317MOL0     H43732   5.672   0.372   4.994 -0.0704  0.0049 -0.0444
  317MOL0     H43733   5.614   0.229   4.815  1.5208  3.2071 -2.4498
  317MOL0     H43734   5.572   0.066   4.714 -0.0643 -2.0649  0.7443
  317MOL0     H43735   5.703   0.121   4.589  5.6268 -1.1271  2.7886
  317MOL0     H43736   5.733  -0.129   4.537 -0.2878 -1.4374 -0.1216
  317MOL0     H43737   5.575  -0.063   4.479  1.4149 -1.1939 -0.0331
  317MOL0     H43738   5.620  -0.255   4.700 -1.5534 -1.0408  0.2517
  317MOL0     H43739   5.508  -0.125   4.720 -1.7910 -0.5233 -0.3702
  317MOL0     H43740   5.428  -0.349   4.642  3.0434  1.5013  2.1574
  317MOL0     H43741   5.487  -0.312   4.479  0.8265 -0.6219  0.6939
  317MOL0     H43742   5.172  -0.004   4.562  0.0580 -0.2119 -1.3831
  317MOL0     H43743   5.983   0.016   4.881  2.0376  0.9184  1.7103
  317MOL0     H43744   6.171   0.260   5.036 -1.5982  1.6061 -2.3262
  317MOL0     H43745   6.099   0.166   5.156 -2.6837  1.2975 -0.7349
  317MOL0     H43746   6.152   0.091   4.995 -0.1964  0.8598 -2.2438
  318MOL0     O43747   1.642   1.041   3.060 -0.0410  0.6955  0.5808
  318MOL0     C43748   1.668   1.116   3.144 -0.6472 -0.4602  0.0968
  318MOL0     O43749   1.688   1.084   3.279 -0.0461  0.4571  0.3827
  318MOL0     C43750   1.689   0.948   3.290  0.5582 -0.0028 -0.2294
  318MOL0     C43751   1.811   0.875   3.280 -0.2885 -0.2424 -0.3487
  318MOL0     C43752   1.809   0.733   3.287 -0.6830 -0.8239 -0.7418
  318MOL0     C43753   1.692   0.664   3.305  0.3888  0.3083 -0.3411
  318MOL0     O43754   1.684   0.534   3.290  0.3269  0.6033  0.0146
  318MOL0     C43755   1.784   0.453   3.354  0.3362  0.8602 -0.4354
  318MOL0     C43756   1.861   0.360   3.253  1.2343 -0.1593 -0.5118
  318MOL0     C43757   1.889   0.436   3.124  0.5170 -0.3230 -0.4035
  318MOL0     C43758   1.924   0.344   3.009  0.0587 -0.6616 -0.1795
  318MOL0     C43759   1.820   0.249   2.953  0.5240 -0.3910  0.8054
  318MOL0     C43760   1.706   0.337   2.875  0.4990 -0.1094  0.1100
  318MOL0     C43761   1.755   0.380   2.735 -0.1338 -0.7719 -0.4116
  318MOL0     C43762   1.630   0.442   2.663  0.2445  0.1465  0.7062
  318MOL0     N43763   1.513   0.361   2.615  0.1890  0.3972  0.4103
  318MOL0     C43764   1.390   0.344   2.681 -0.3468 -0.1519 -0.0947
  318MOL0     C43765   1.312   0.268   2.600  0.1630  0.6545 -0.4197
  318MOL0     C43766   1.168   0.214   2.624  0.8401  0.5926 -0.6720
  318MOL0     C43767   1.174   0.056   2.639  0.3987  0.1485 -0.0176
  318MOL0     C43768   1.049  -0.024   2.675  0.1082 -0.0247  1.4412
  318MOL0     C43769   1.004  -0.110   2.562  0.8129  0.0411 -0.7165
  318MOL0     O43770   0.870  -0.147   2.592  0.4764  0.2798  0.2659
  318MOL0     C43771   0.806  -0.200   2.473 -0.2894 -0.0613 -0.4174
  318MOL0     C43772   0.673  -0.245   2.480 -0.7836  0.3325 -1.4773
  318MOL0     C43773   0.603  -0.295   2.373  0.9031  0.8949 -0.9135
  318MOL0     C43774   0.463  -0.343   2.409  0.0069 -0.0226 -0.1928
  318MOL0     C43775   0.671  -0.332   2.251 -2.2016  0.6251 -0.8789
  318MOL0     C43776   0.610  -0.382   2.130  0.1085 -0.0402 -0.2374
  318MOL0     O43777   0.683  -0.456   2.059 -0.0340  0.0794  0.3495
  318MOL0     C43778   0.636  -0.493   1.933 -0.1773 -0.4003  0.1856
  318MOL0     C43779   0.690  -0.448   1.813 -1.0479 -0.4895 -0.8324
  318MOL0     C43780   0.633  -0.485   1.694  1.1764 -0.3196  0.0283
  318MOL0     C43781   0.530  -0.579   1.692  0.0096 -0.4291  0.2817
  318MOL0     O43782   0.487  -0.625   1.566 -0.4065 -0.0009 -0.4466
  318MOL0     C43783   0.363  -0.698   1.574 -0.7189  0.6731  0.7145
  318MOL0     C43784   0.328  -0.699   1.427 -0.0127  1.1212 -0.4212
  318MOL0     C43785   0.184  -0.750   1.408  0.0223  0.0322  0.0305
  318MOL0     C43786   0.076  -0.661   1.463  0.1108 -0.0298 -0.3761
  318MOL0     C43787  -0.068  -0.710   1.436 -0.0587 -0.0161  0.4112
  318MOL0     C43788  -0.163  -0.589   1.458 -0.8690  0.2440  0.4136
  318MOL0     C43789  -0.309  -0.607   1.414 -1.0315  0.1888  0.2161
  318MOL0     C43790  -0.403  -0.502   1.471  0.1604 -0.3844  0.0802
  318MOL0    Cl43791  -0.575  -0.536   1.421  0.0622 -1.0096 -0.3771
  318MOL0     C43792   0.485  -0.631   1.810  0.2356 -0.1033  0.4423
  318MOL0     C43793   0.536  -0.584   1.931  0.1093 -0.6314  0.2071
  318MOL0     O43794   0.499  -0.330   2.100 -0.4784 -0.5640  0.4810
  318MOL0     C43795   0.805  -0.290   2.243 -0.5109  0.4508 -0.9983
  318MOL0     C43796   0.866  -0.226   2.351  0.3397 -0.5155  1.0236
  318MOL0     N43797   1.386   0.227   2.490  0.3647  0.2681 -0.2931
  318MOL0     N43798   1.502   0.281   2.502 -0.3041  0.5999 -0.0069
  318MOL0     C43799   1.575   0.735   3.309  0.0017 -0.6985 -0.9276
  318MOL0     C43800   1.568   0.876   3.308 -0.4728  0.7290 -0.0548
  318MOL0     C43801   1.688   1.257   3.107 -0.0245  0.3929  0.3356
  318MOL0     C43802   1.796   1.331   3.151  0.4368  1.1358 -0.6121
  318MOL0     C43803   1.815   1.464   3.135 -0.9455  0.5581 -0.1193
  318MOL0     C43804   1.719   1.536   3.060 -0.1126 -0.2449  0.3016
  318MOL0     O43805   1.742   1.668   3.032 -0.1876  0.2275 -0.2961
  318MOL0     C43806   1.728   1.722   2.895  0.8399  0.0784  0.5040
  318MOL0     C43807   1.845   1.681   2.802 -0.5037  0.5854  0.1521
  318MOL0     C43808   1.827   1.536   2.756  0.3487  0.1840  0.1851
  318MOL0     C43809   1.951   1.499   2.682  0.4195 -0.0372  0.2139
  318MOL0     C43810   1.965   1.565   2.545  0.5742 -0.7797 -0.0493
  318MOL0     C43811   1.972   1.613   2.434 -0.1870 -0.1228 -0.0943
  318MOL0     C43812   1.611   1.469   3.008 -0.2704  0.2354  0.4174
  318MOL0     C43813   1.589   1.327   3.031 -0.4852 -0.0419  0.8350
  318MOL0     C43814   1.468   1.260   2.986  0.4350  0.3015  0.8682
  318MOL0     H43815   1.909   0.922   3.273 -0.6897  0.7981  0.6185
  318MOL0     H43816   1.891   0.663   3.274 -1.1773 -1.5911  0.1765
  318MOL0     H43817   1.732   0.383   3.422  1.2002  1.6524  1.0815
  318MOL0     H43818   1.855   0.505   3.418  1.5921 -0.9534 -0.2704
  318MOL0     H43819   1.949   0.321   3.306 -0.5529 -3.5436  0.2472
  318MOL0     H43820   1.793   0.277   3.230  4.4714 -3.1312 -0.3773
  318MOL0     H43821   1.797   0.488   3.097  0.2125  0.6747  2.2778
  318MOL0     H43822   1.975   0.503   3.131  0.3817 -0.2530  0.8440
  318MOL0     H43823   1.978   0.398   2.930  2.5373  0.2965  2.0024
  318MOL0     H43824   2.006   0.293   3.062  1.1299  3.0377  2.0436
  318MOL0     H43825   1.762   0.200   3.032 -1.0295  0.8425  0.4869
  318MOL0     H43826   1.864   0.164   2.899 -0.4739 -0.9322  0.8258
  318MOL0     H43827   1.612   0.281   2.869 -0.0833  0.4161  3.0685
  318MOL0     H43828   1.679   0.429   2.927 -0.5772  0.4875 -1.4232
  318MOL0     H43829   1.786   0.297   2.672 -1.0057  0.0992 -2.0420
  318MOL0     H43830   1.839   0.448   2.752 -1.8438  1.2355  0.5501
  318MOL0     H43831   1.598   0.527   2.724 -3.2280 -0.9971  0.7050
  318MOL0     H43832   1.670   0.503   2.582  0.9943 -1.4098 -0.1425
  318MOL0     H43833   1.367   0.393   2.775 -4.0484 -1.0845 -0.3576
  318MOL0     H43834   1.095   0.225   2.543 -3.5313  4.5952  3.1872
  318MOL0     H43835   1.121   0.264   2.709 -1.5490  0.1853 -1.6760
  318MOL0     H43836   1.207   0.021   2.541 -2.0791 -1.2429 -0.4443
  318MOL0     H43837   1.249   0.036   2.716  1.0260  1.5823 -0.2289
  318MOL0     H43838   1.063  -0.094   2.759 -0.6195 -1.4004  0.4617
  318MOL0     H43839   0.970   0.048   2.698  1.2949  2.3862 -1.4825
  318MOL0     H43840   1.001  -0.051   2.470  0.7245  0.7147 -0.2882
  318MOL0     H43841   1.068  -0.199   2.557  1.1416  0.2137  0.2324
  318MOL0     H43842   0.621  -0.234   2.574 -0.3841  0.2504 -1.2441
  318MOL0     H43843   0.387  -0.264   2.408  0.5624  0.5226 -1.7698
  318MOL0     H43844   0.457  -0.388   2.509  2.3907 -0.2883 -0.1071
  318MOL0     H43845   0.414  -0.417   2.345 -1.1257  1.3658 -0.9897
  318MOL0     H43846   0.768  -0.372   1.819 -0.3816 -1.0567 -2.0274
  318MOL0     H43847   0.683  -0.446   1.605 -0.7754  2.2675 -0.0586
  318MOL0     H43848   0.374  -0.803   1.603 -0.0916  0.6989  0.5854
  318MOL0     H43849   0.292  -0.635   1.629 -1.0627 -0.2787  1.3766
  318MOL0     H43850   0.356  -0.602   1.386  3.4545  0.5913  0.3764
  318MOL0     H43851   0.392  -0.770   1.373  0.1727  2.5010 -2.1182
  318MOL0     H43852   0.184  -0.851   1.450  1.8064  0.1385  0.3651
  318MOL0     H43853   0.169  -0.742   1.300 -0.0754  3.6043  0.1638
  318MOL0     H43854   0.097  -0.557   1.435  0.0128 -0.4668 -2.2113
  318MOL0     H43855   0.069  -0.662   1.572  0.8331 -1.0217 -0.3227
  318MOL0     H43856  -0.073  -0.741   1.332 -1.4398 -1.8961  0.9816
  318MOL0     H43857  -0.106  -0.795   1.494  0.0242 -0.9791 -0.9028
  318MOL0     H43858  -0.124  -0.496   1.416 -0.2427  0.3433  1.1943
  318MOL0     H43859  -0.160  -0.568   1.565  0.2718 -0.6997  0.5936
  318MOL0     H43860  -0.338  -0.710   1.432 -1.6013  0.1242 -0.9885
  318MOL0     H43861  -0.309  -0.611   1.304  1.9965 -1.3673  0.1697
  318MOL0     H43862  -0.368  -0.402   1.445  1.7226 -0.6735  0.9808
  318MOL0     H43863  -0.401  -0.512   1.579 -4.6540 -0.7152  0.3603
  318MOL0     H43864   0.395  -0.691   1.812  1.0698 -1.3842  0.7500
  318MOL0     H43865   0.482  -0.608   2.023 -4.7515  3.0569 -1.2638
  318MOL0     H43866   0.871  -0.316   2.161  0.8027 -4.2872  1.2362
  318MOL0     H43867   0.970  -0.211   2.321 -0.2363  1.1585 -0.2998
  318MOL0     H43868   1.488   0.673   3.325  0.5093 -0.9688  1.0832
  318MOL0     H43869   1.473   0.928   3.293 -1.3508 -0.8638 -0.2418
  318MOL0     H43870   1.862   1.274   3.215  0.4616  3.8578  1.9535
  318MOL0     H43871   1.902   1.516   3.174 -1.5521  0.9465  0.7488
  318MOL0     H43872   1.635   1.684   2.850  1.9315  0.3407 -2.1267
  318MOL0     H43873   1.700   1.828   2.900 -3.0604 -0.7135 -0.6482
  318MOL0     H43874   1.944   1.681   2.848  0.3604 -2.3379 -1.4423
  318MOL0     H43875   1.838   1.751   2.718 -0.4269 -1.7327 -1.8734
  318MOL0     H43876   1.842   1.460   2.833 -3.5044 -2.1089 -1.0728
  318MOL0     H43877   1.728   1.531   2.710 -0.6437 -1.1999  2.3582
  318MOL0     H43878   1.938   1.392   2.663 -3.1748 -0.4512  3.8222
  318MOL0     H43879   2.040   1.509   2.744 -0.0559  0.8110  0.7668
  318MOL0     H43880   1.973   1.665   2.340  0.0772 -2.2890 -1.3586
  318MOL0     H43881   1.537   1.533   2.962 -1.2313  0.3472  2.0660
  318MOL0     H43882   1.394   1.329   2.944  0.6553  0.5027  0.8083
  318MOL0     H43883   1.490   1.185   2.908 -0.0277  1.3046 -0.2545
  318MOL0     H43884   1.421   1.212   3.072 -2.5188  2.3245  0.5133
  319MOL0     O43885   0.115  10.997   9.129 -0.5366  0.7955 -0.3153
  319MOL0     C43886   0.165  11.066   9.217 -0.0119 -0.0392 -0.0152
  319MOL0     O43887   0.291  11.043   9.277 -0.0045 -0.3511  0.1895
  319MOL0     C43888   0.351  10.923   9.276  0.0169  0.2236  0.3140
  319MOL0     C43889   0.485  10.904   9.307 -0.4309 -0.7046  0.3202
  319MOL0     C43890   0.547  10.775   9.328 -0.0552 -1.0179  0.9092
  319MOL0     C43891   0.473  10.659   9.307 -0.8444 -0.1802 -0.2013
  319MOL0     O43892   0.543  10.546   9.320  0.2123  0.4513  1.1608
  319MOL0     C43893   0.459  10.428   9.315 -0.2749 -0.2656  0.5256
  319MOL0     C43894   0.558  10.314   9.347 -0.3384 -0.3465 -0.4893
  319MOL0     C43895   0.614  10.346   9.486  0.0376  0.0905  0.4089
  319MOL0     C43896   0.698  10.239   9.556  0.9641  0.0149  0.2675
  319MOL0     C43897   0.737  10.300   9.691  1.0771 -0.4221 -0.1100
  319MOL0     C43898   0.631  10.252   9.794 -0.2816  0.5905 -0.0896
  319MOL0     C43899   0.626  10.350   9.913  0.1535  0.8702 -0.2719
  319MOL0     C43900   0.760  10.369   9.980 -0.3897  0.1123 -0.8208
  319MOL0     N43901   0.764  10.473  10.093 -0.5171 -0.3433 -0.2322
  319MOL0     C43902   0.829  10.457  10.213 -0.0373 -0.7667 -0.1276
  319MOL0     C43903   0.787  10.556  10.290 -0.0029 -0.4014  1.1617
  319MOL0     C43904   0.790  10.549  10.437  0.4559  0.4684  0.1415
  319MOL0     C43905   0.729  10.416  10.491 -1.1553 -0.3082 -0.0007
  319MOL0     C43906   0.764  10.400  10.637  0.2259  0.2137  0.4960
  319MOL0     C43907   0.699  10.282  10.704 -0.9338 -0.6339 -0.5663
  319MOL0     O43908   0.692  10.166  10.619 -0.4969  0.2928  0.1498
  319MOL0     C43909   0.633  10.055  10.673 -0.2680  0.3178 -0.9837
  319MOL0     C43910   0.539  10.048  10.776  0.0317 -0.2340  0.8904
  319MOL0     C43911   0.508   9.933  10.843  0.1604  0.2847  0.5003
  319MOL0     C43912   0.405   9.944  10.952  0.8225 -0.4295 -0.1157
  319MOL0     C43913   0.588   9.815  10.815 -0.9844  0.4204 -0.0037
  319MOL0     C43914   0.588   9.700  10.898 -0.4187  0.0672  0.7401
  319MOL0     O43915   0.650   9.586  10.851  0.6760  0.0219 -0.2134
  319MOL0     C43916   0.717   9.496  10.930 -0.0272  0.3576 -0.0745
  319MOL0     C43917   0.725   9.360  10.894 -0.2175 -0.3049 -0.5185
  319MOL0     C43918   0.805   9.272  10.970  0.0787 -0.6033 -0.0819
  319MOL0     C43919   0.867   9.312  11.091 -0.2648  0.1049  0.1425
  319MOL0     O43920   0.952   9.244  11.173  0.2153  0.2699  0.2636
  319MOL0     C43921   1.034   9.148  11.112  0.2845 -0.0722 -0.5636
  319MOL0     C43922   0.965   9.008  11.104 -0.4316  0.4457  0.2451
  319MOL0     C43923   0.961   8.949  11.246  0.8048  0.0336 -0.1670
  319MOL0     C43924   0.912   8.809  11.228 -0.0496 -0.6322  0.1636
  319MOL0     C43925   0.908   8.729  11.359  0.0025  0.2983 -0.0146
  319MOL0     C43926   0.830   8.603  11.349  0.7590 -0.3075 -0.4889
  319MOL0     C43927   0.814   8.510  11.486 -0.5189 -0.4175  0.6857
  319MOL0     C43928   0.768   8.597  11.599 -0.0454  0.6039 -0.9311
  319MOL0    Cl43929   0.902   8.690  11.667  0.1040  0.2121  0.0751
  319MOL0     C43930   0.856   9.444  11.118 -0.0991  0.1636 -0.3304
  319MOL0     C43931   0.772   9.534  11.052  0.0441  0.7054 -0.1030
  319MOL0     O43932   0.532   9.711  11.007 -0.6881 -0.0590  0.1282
  319MOL0     C43933   0.670   9.816  10.698  0.5264  0.0659 -0.9000
  319MOL0     C43934   0.694   9.935  10.625  0.3802  0.1497 -0.0819
  319MOL0     N43935   0.697  10.627  10.218 -0.2420 -0.7780 -0.2034
  319MOL0     N43936   0.694  10.590  10.098  0.7864 -0.4557  0.1379
  319MOL0     C43937   0.328  10.672   9.277 -0.7226  0.1159 -0.5703
  319MOL0     C43938   0.274  10.803   9.263 -0.0200 -0.2042  0.0124
  319MOL0     C43939   0.105  11.198   9.234  0.4875 -0.2559 -0.4450
  319MOL0     C43940   0.192  11.311   9.230  0.3411  0.5525  0.2863
  319MOL0     C43941   0.139  11.436   9.251 -0.0646  0.6355  0.1492
  319MOL0     C43942   0.008  11.454   9.275 -0.0061  1.0631  0.4353
  319MOL0     O43943  -0.033  11.577   9.295  0.1749 -0.1839 -0.7026
  319MOL0     C43944  -0.174  11.609   9.325  0.0313 -0.7368 -0.3431
  319MOL0     C43945  -0.190  11.764   9.373 -0.3269 -0.0524 -0.2567
  319MOL0     C43946  -0.180  11.878   9.272  0.7819 -0.3431  0.2865
  319MOL0     C43947  -0.236  12.019   9.313 -0.0397 -0.4080  0.2936
  319MOL0     C43948  -0.130  12.105   9.377 -0.5116 -0.4130  0.5022
  319MOL0     C43949  -0.042  12.177   9.423 -0.1720  0.7415 -0.4095
  319MOL0     C43950  -0.080  11.340   9.274  0.3868  0.4377  0.9866
  319MOL0     C43951  -0.030  11.213   9.252 -0.0304 -0.5009 -0.6256
  319MOL0     C43952  -0.127  11.098   9.254  0.1603  0.6492  0.1973
  319MOL0     H43953   0.553  10.989   9.307  1.4446 -2.0580 -1.9766
  319MOL0     H43954   0.653  10.771   9.354  0.7172  0.2551 -1.6557
  319MOL0     H43955   0.420  10.417   9.214 -2.4689 -0.8841  1.3798
  319MOL0     H43956   0.374  10.439   9.383 -1.3129 -1.6155 -0.5055
  319MOL0     H43957   0.497  10.223   9.353 -1.2579  0.3037  0.7748
  319MOL0     H43958   0.627  10.301   9.263  0.4607  0.7404 -0.0178
  319MOL0     H43959   0.684  10.428   9.470 -1.2164  1.2808  0.8996
  319MOL0     H43960   0.545  10.387   9.559  0.4625 -0.9034  1.4044
  319MOL0     H43961   0.631  10.155   9.573  1.6915 -0.3778  1.3196
  319MOL0     H43962   0.785  10.205   9.499  1.2776 -1.4187  1.5145
  319MOL0     H43963   0.761  10.407   9.691  1.2888 -0.4427  1.8509
  319MOL0     H43964   0.837  10.262   9.713  0.6975 -1.4869 -0.1431
  319MOL0     H43965   0.529  10.247   9.754  0.6221 -2.1201 -2.3590
  319MOL0     H43966   0.650  10.154   9.839 -0.9468  0.7076  0.4743
  319MOL0     H43967   0.558  10.306   9.986 -0.5638  3.6089  0.8299
  319MOL0     H43968   0.588  10.447   9.879  0.6982 -0.4523 -5.5780
  319MOL0     H43969   0.796  10.270  10.011 -2.8492  0.3246  3.5898
  319MOL0     H43970   0.827  10.417   9.908  2.3658  0.6544  1.8909
  319MOL0     H43971   0.880  10.372  10.257  1.2223  0.2334  0.4301
  319MOL0     H43972   0.733  10.636  10.474 -6.9666 -2.7950 -1.7431
  319MOL0     H43973   0.896  10.555  10.463  0.4488 -0.7997  0.4914
  319MOL0     H43974   0.622  10.408  10.468 -1.1297 -1.8313  0.3191
  319MOL0     H43975   0.783  10.332  10.445  0.3057  0.1861  0.7405
  319MOL0     H43976   0.872  10.379  10.638  0.0115 -2.3893 -4.3289
  319MOL0     H43977   0.730  10.491  10.688 -0.5826  1.3653 -1.9647
  319MOL0     H43978   0.764  10.244  10.784  0.4419 -2.8471 -2.6135
  319MOL0     H43979   0.597  10.302  10.739 -1.9135 -0.9369 -3.0648
  319MOL0     H43980   0.480  10.133  10.808 -1.9095 -0.5671 -1.5519
  319MOL0     H43981   0.337  10.025  10.924 -1.9753 -3.1519 -1.8121
  319MOL0     H43982   0.459   9.959  11.046 -0.2437  0.4530  0.3862
  319MOL0     H43983   0.343   9.854  10.956  0.3425 -0.2241 -2.0054
  319MOL0     H43984   0.682   9.339  10.796  0.6543 -3.1509 -0.4041
  319MOL0     H43985   0.824   9.174  10.926 -1.2606 -1.6956  1.6195
  319MOL0     H43986   1.063   9.183  11.013 -1.5662 -1.4795 -1.6517
  319MOL0     H43987   1.121   9.138  11.179 -2.1995  0.7473  3.0875
  319MOL0     H43988   0.868   9.006  11.053  0.2196 -0.8714 -1.0003
  319MOL0     H43989   1.031   8.951  11.039 -3.1854  1.3813 -3.7752
  319MOL0     H43990   0.887   9.012  11.297 -0.0827 -1.0912 -0.0086
  319MOL0     H43991   1.051   8.960  11.308  0.5136 -0.1450  0.2982
  319MOL0     H43992   0.978   8.764  11.153  3.8251  3.7951  0.4510
  319MOL0     H43993   0.811   8.811  11.186  0.6019  0.2637 -1.4560
  319MOL0     H43994   1.014   8.707  11.374  0.1583  0.5049 -0.7442
  319MOL0     H43995   0.862   8.797  11.431 -0.0800 -0.2726  0.4810
  319MOL0     H43996   0.868   8.541  11.268 -0.4027 -1.8979  0.1180
  319MOL0     H43997   0.730   8.628  11.311  0.1054 -1.4954  0.3635
  319MOL0     H43998   0.908   8.457  11.505  0.0369 -0.5905 -2.1450
  319MOL0     H43999   0.737   8.435  11.466 -1.2900  0.4836  0.1634
  319MOL0     H44000   0.723   8.538  11.679  1.3761  1.5413  0.6293
  319MOL0     H44001   0.689   8.664  11.563  0.2409  0.3942 -1.9887
  319MOL0     H44002   0.916   9.487  11.197 -3.2586  1.8762  1.3435
  319MOL0     H44003   0.765   9.638  11.084  1.8137  1.7231 -2.6090
  319MOL0     H44004   0.730   9.729  10.672  0.5721  0.4276 -2.0910
  319MOL0     H44005   0.775   9.941  10.553 -0.1452 -0.5953 -0.7522
  319MOL0     H44006   0.261  10.588   9.263 -1.1353  0.6218 -1.7444
  319MOL0     H44007   0.166  10.809   9.262 -0.1504 -1.8130  0.8598
  319MOL0     H44008   0.300  11.312   9.221  0.4115 -3.2192 -1.4489
  319MOL0     H44009   0.211  11.518   9.250 -0.1944  0.9103  3.0100
  319MOL0     H44010  -0.240  11.581   9.243 -2.4390  1.1470  0.8242
  319MOL0     H44011  -0.223  11.542   9.397 -2.7641  0.5325 -0.9116
  319MOL0     H44012  -0.117  11.770   9.454 -1.8056  0.9230  1.0643
  319MOL0     H44013  -0.288  11.775   9.421  2.4616  1.0306  6.2430
  319MOL0     H44014  -0.083  11.896   9.226  1.0278 -1.4613  0.3218
  319MOL0     H44015  -0.247  11.853   9.189  3.8370  1.1157 -2.8677
  319MOL0     H44016  -0.324  12.008   9.376  0.2850 -0.7047  0.7027
  319MOL0     H44017  -0.267  12.077   9.226  0.0756  0.0018  0.5193
  319MOL0     H44018   0.020  12.249   9.472 -0.2682 -0.2394  1.2180
  319MOL0     H44019  -0.187  11.351   9.287 -0.0889  1.6554 -2.7764
  319MOL0     H44020  -0.215  11.117   9.315  0.8310  2.6759  0.5881
  319MOL0     H44021  -0.149  11.060   9.153  3.5988 -1.7874  0.1624
  319MOL0     H44022  -0.085  11.010   9.304 -0.0569  0.7075  0.4846
  320MOL0     O44023   2.512   5.195   8.791 -0.0868  0.1324  0.0976
  320MOL0     C44024   2.477   5.112   8.878  0.6534  0.0613 -0.1923
  320MOL0     O44025   2.406   5.002   8.857 -0.3738  0.2067 -0.0218
  320MOL0     C44026   2.378   4.979   8.725  0.3430  0.5941 -0.1598
  320MOL0     C44027   2.266   5.033   8.663 -0.0352  0.3569  0.8434
  320MOL0     C44028   2.246   5.003   8.532 -0.5892  0.1235 -0.0472
  320MOL0     C44029   2.334   4.921   8.459 -0.9154  0.0911  0.5069
  320MOL0     O44030   2.292   4.898   8.325 -0.5152  0.5780  0.0256
  320MOL0     C44031   2.218   4.771   8.309 -0.0503  0.2818 -0.5337
  320MOL0     C44032   2.083   4.780   8.245 -0.4872  0.5116  0.5409
  320MOL0     C44033   2.094   4.866   8.125 -0.6507 -0.6303 -0.3966
  320MOL0     C44034   1.977   4.860   8.027 -0.2773 -0.1067  1.0091
  320MOL0     C44035   1.985   4.967   7.911  0.7521  0.1787  0.1339
  320MOL0     C44036   1.880   4.944   7.810  1.1530 -0.5816 -0.7349
  320MOL0     C44037   1.866   5.049   7.691 -1.0584  1.2477 -0.0183
  320MOL0     C44038   1.754   4.999   7.604 -0.3168 -0.5276  0.3479
  320MOL0     N44039   1.625   5.030   7.664 -0.7792 -0.7221  0.4212
  320MOL0     C44040   1.564   4.962   7.769 -0.7935 -0.0630 -0.0029
  320MOL0     C44041   1.452   5.030   7.783 -0.0976  0.3462 -0.4053
  320MOL0     C44042   1.340   4.987   7.867  0.7784  0.4799 -0.9240
  320MOL0     C44043   1.386   4.997   8.020 -0.5968  0.3039  0.3554
  320MOL0     C44044   1.277   4.999   8.130  0.4687  0.3843  0.2786
  320MOL0     C44045   1.334   5.060   8.260 -0.8754  0.7058  0.1273
  320MOL0     O44046   1.441   4.980   8.304  0.8043  0.2931  0.5061
  320MOL0     C44047   1.514   5.033   8.402  0.3110  0.8665 -0.3946
  320MOL0     C44048   1.466   5.112   8.508 -0.4773  0.0203 -0.6124
  320MOL0     C44049   1.553   5.194   8.585 -0.9095  0.8655 -0.7533
  320MOL0     C44050   1.487   5.294   8.671 -0.9289 -0.7207  0.1282
  320MOL0     C44051   1.697   5.173   8.575 -0.5439  0.9794  0.0176
  320MOL0     C44052   1.795   5.265   8.632  0.3253  0.2129 -0.5779
  320MOL0     O44053   1.896   5.305   8.547  0.4816  0.0463  0.7390
  320MOL0     C44054   1.988   5.394   8.595  0.0437  0.2035  0.1571
  320MOL0     C44055   1.961   5.524   8.640  0.1130  0.0753  0.0854
  320MOL0     C44056   2.062   5.616   8.668 -0.2961 -0.1329  0.0813
  320MOL0     C44057   2.191   5.576   8.650 -1.1135 -0.9645 -1.2435
  320MOL0     O44058   2.291   5.661   8.696  0.6340  0.2130  0.0379
  320MOL0     C44059   2.426   5.628   8.729  0.4840 -0.4842 -0.2267
  320MOL0     C44060   2.443   5.693   8.865  0.0302 -0.1491 -0.0114
  320MOL0     C44061   2.580   5.665   8.931  0.3580  0.7838  0.2362
  320MOL0     C44062   2.648   5.784   9.002  0.1851 -0.6550 -0.1399
  320MOL0     C44063   2.758   5.732   9.095  0.2760  0.3142 -1.0335
  320MOL0     C44064   2.840   5.857   9.133 -0.7471  0.0670 -0.6246
  320MOL0     C44065   2.961   5.823   9.231 -0.1524  0.2742  0.1800
  320MOL0     C44066   3.077   5.760   9.159 -0.5182 -0.3402 -0.8769
  320MOL0    Cl44067   3.202   5.723   9.273  0.8687  0.0938  0.4767
  320MOL0     C44068   2.230   5.452   8.599  0.1844 -0.3694 -0.5568
  320MOL0     C44069   2.123   5.362   8.580  0.3148 -0.6125  0.9368
  320MOL0     O44070   1.786   5.301   8.756  0.3972  0.9171 -0.1289
  320MOL0     C44071   1.742   5.073   8.485 -0.0125  0.0482  0.8447
  320MOL0     C44072   1.649   5.005   8.403 -1.4530 -0.2862 -0.0344
  320MOL0     N44073   1.447   5.146   7.706  0.8544 -0.3516  0.2615
  320MOL0     N44074   1.552   5.144   7.641  0.7062  0.5270  0.2226
  320MOL0     C44075   2.455   4.878   8.513  0.4353 -0.0102 -1.2659
  320MOL0     C44076   2.472   4.906   8.653  0.4392  0.9968  0.7497
  320MOL0     C44077   2.502   5.141   9.025  0.4666  0.1040 -0.2313
  320MOL0     C44078   2.413   5.081   9.119  0.1103 -0.1728 -0.4432
  320MOL0     C44079   2.451   5.072   9.254 -0.4086  0.3131 -0.0250
  320MOL0     C44080   2.552   5.142   9.305 -1.0109 -0.4911  0.1931
  320MOL0     O44081   2.591   5.144   9.437  0.2562  0.7519 -0.1081
  320MOL0     C44082   2.498   5.125   9.541  1.1520 -0.1765 -0.0578
  320MOL0     C44083   2.578   5.049   9.654  0.0557 -0.5093  0.0152
  320MOL0     C44084   2.563   5.113   9.792  0.3857 -0.5892 -0.8046
  320MOL0     C44085   2.647   5.239   9.801 -0.2849 -0.3231 -0.9359
  320MOL0     C44086   2.793   5.210   9.812  0.0876 -0.5019 -0.8619
  320MOL0     C44087   2.914   5.207   9.827 -0.0812 -0.0844  0.1183
  320MOL0     C44088   2.623   5.222   9.218 -0.3505  0.0500 -0.0456
  320MOL0     C44089   2.604   5.222   9.082  0.1618 -0.1296 -0.6857
  320MOL0     C44090   2.717   5.289   8.997 -1.0043  0.5523  0.8471
  320MOL0     H44091   2.198   5.092   8.724 -1.0967 -0.1100  0.1346
  320MOL0     H44092   2.157   5.034   8.478  1.7416  5.0918 -1.6440
  320MOL0     H44093   2.212   4.731   8.411  1.5526  1.2931 -0.0064
  320MOL0     H44094   2.285   4.705   8.253  0.6150  1.4272 -1.1052
  320MOL0     H44095   2.038   4.686   8.212 -0.6098  1.5345 -2.5896
  320MOL0     H44096   2.014   4.831   8.312 -0.3859 -0.3613  1.3220
  320MOL0     H44097   2.109   4.967   8.166  2.9716 -0.5243 -1.5623
  320MOL0     H44098   2.184   4.846   8.066 -1.5034 -3.1064 -0.9834
  320MOL0     H44099   1.953   4.763   7.983  2.5595 -0.5742  0.3251
  320MOL0     H44100   1.893   4.894   8.089 -0.0661 -2.3813  2.6666
  320MOL0     H44101   2.085   4.956   7.867  1.0063  0.3373  0.6665
  320MOL0     H44102   1.985   5.066   7.957 -2.1554  1.2376 -1.8848
  320MOL0     H44103   1.889   4.844   7.768  0.7315  0.2636 -2.9963
  320MOL0     H44104   1.790   4.946   7.871  2.0272  1.7554  0.6058
  320MOL0     H44105   1.955   5.041   7.629  0.5010  1.0073  2.1444
  320MOL0     H44106   1.854   5.152   7.727  2.5644  0.6065  3.8990
  320MOL0     H44107   1.756   5.046   7.504  0.2798  1.3285  1.1768
  320MOL0     H44108   1.759   4.890   7.600  1.7408 -0.4357 -1.1995
  320MOL0     H44109   1.580   4.864   7.812  0.1064 -0.3878 -1.0232
  320MOL0     H44110   1.307   4.884   7.856 -2.5924  0.8971  2.8114
  320MOL0     H44111   1.250   5.044   7.842  0.4566  1.8674  2.7704
  320MOL0     H44112   1.459   4.916   8.033  0.8258  1.5981  0.7824
  320MOL0     H44113   1.445   5.089   8.027 -0.4333  0.3995 -1.8741
  320MOL0     H44114   1.191   5.055   8.090  0.2575 -0.4330 -0.4241
  320MOL0     H44115   1.240   4.899   8.153  0.4833  0.5115  0.8746
  320MOL0     H44116   1.372   5.162   8.247  0.1867  0.2938 -0.1196
  320MOL0     H44117   1.257   5.051   8.337  0.0405  0.0706  0.9928
  320MOL0     H44118   1.360   5.135   8.517 -0.2918  0.7108 -0.1143
  320MOL0     H44119   1.550   5.383   8.662 -2.7147  0.4159 -2.2195
  320MOL0     H44120   1.472   5.261   8.774 -1.9766  1.6227  0.7816
  320MOL0     H44121   1.383   5.316   8.644 -1.6586 -1.6837  1.9892
  320MOL0     H44122   1.860   5.559   8.660  0.5726  0.4090  2.0055
  320MOL0     H44123   2.043   5.717   8.703  1.4702  0.1158  0.4133
  320MOL0     H44124   2.442   5.520   8.737  3.0807 -0.1079  0.5656
  320MOL0     H44125   2.506   5.666   8.665  0.7907  2.9974  1.9649
  320MOL0     H44126   2.429   5.800   8.849  1.2083 -0.3834 -3.5507
  320MOL0     H44127   2.362   5.660   8.930  0.1952  1.1562  0.9040
  320MOL0     H44128   2.657   5.649   8.855  1.7136  0.6225  1.6114
  320MOL0     H44129   2.576   5.573   8.988 -1.8225  0.2395 -0.6673
  320MOL0     H44130   2.574   5.836   9.063  1.3110 -0.6802  1.3211
  320MOL0     H44131   2.684   5.856   8.928 -3.2221 -0.8433 -2.1867
  320MOL0     H44132   2.705   5.686   9.180  1.7933 -1.2442 -0.8753
  320MOL0     H44133   2.818   5.654   9.048  2.4581 -0.9549  3.2595
  320MOL0     H44134   2.774   5.927   9.184 -2.1288 -1.6610  0.0668
  320MOL0     H44135   2.882   5.906   9.045  0.2618  0.5486  0.1021
  320MOL0     H44136   2.921   5.763   9.314 -1.8333  0.8319 -0.1931
  320MOL0     H44137   3.019   5.910   9.265 -0.2002  0.8949 -1.2688
  320MOL0     H44138   3.110   5.828   9.080 -0.2374 -1.3892 -1.6720
  320MOL0     H44139   3.041   5.669   9.111 -2.1193 -0.2221  0.0254
  320MOL0     H44140   2.329   5.410   8.588  0.5587  1.0535 -3.9033
  320MOL0     H44141   2.149   5.265   8.539  0.4711 -0.4414  0.6331
  320MOL0     H44142   1.847   5.056   8.464 -0.1284  1.7366 -1.4064
  320MOL0     H44143   1.692   4.933   8.334 -0.5763  0.8931 -0.7730
  320MOL0     H44144   2.535   4.827   8.460  2.1267  0.5928  0.6078
  320MOL0     H44145   2.559   4.871   8.708  2.9922 -0.7061 -3.8504
  320MOL0     H44146   2.319   5.034   9.095 -0.8956 -0.5037  3.5636
  320MOL0     H44147   2.389   5.013   9.321 -2.7404  2.7427  0.1534
  320MOL0     H44148   2.437   5.210   9.573 -0.9351 -0.8784 -1.8646
  320MOL0     H44149   2.421   5.052   9.511 -0.8775  2.7584 -2.7539
  320MOL0     H44150   2.680   5.051   9.614 -0.2979 -0.0555 -0.8913
  320MOL0     H44151   2.546   4.945   9.649 -1.8512  0.0837 -3.3183
  320MOL0     H44152   2.459   5.136   9.816  1.2009 -1.2126  4.3394
  320MOL0     H44153   2.590   5.050   9.877 -1.7933 -0.9577 -0.3039
  320MOL0     H44154   2.618   5.291   9.893 -2.3226 -1.0254 -1.1414
  320MOL0     H44155   2.633   5.314   9.722 -0.9651  2.5959  1.7298
  320MOL0     H44156   3.020   5.193   9.835  0.1386 -1.0770 -2.9142
  320MOL0     H44157   2.710   5.269   9.263  0.4802 -1.7213  0.3003
  320MOL0     H44158   2.796   5.321   9.065 -2.2569 -0.3344  2.8246
  320MOL0     H44159   2.758   5.213   8.931 -2.8853  2.0556 -2.3253
  320MOL0     H44160   2.696   5.378   8.936  3.4883  0.8012 -0.6783
  321MOL0     O44161   4.504   8.408   0.848 -0.7773  0.0242 -0.9729
  321MOL0     C44162   4.605   8.404   0.916 -0.7915 -1.0237  0.0426
  321MOL0     O44163   4.649   8.290   0.973 -0.5853 -1.2129  0.1421
  321MOL0     C44164   4.639   8.177   0.890 -0.9337 -0.3627 -0.6383
  321MOL0     C44165   4.569   8.068   0.936 -0.3429 -0.2562 -0.1864
  321MOL0     C44166   4.558   7.953   0.852  0.0192  0.0702 -0.1348
  321MOL0     C44167   4.633   7.945   0.731  0.7114  0.6649  0.1386
  321MOL0     O44168   4.634   7.832   0.653  0.9246 -0.3853  0.6395
  321MOL0     C44169   4.501   7.796   0.600  0.2752 -0.4876  0.1666
  321MOL0     C44170   4.492   7.745   0.449 -0.1080 -0.3807  0.4813
  321MOL0     C44171   4.575   7.616   0.437 -0.2028 -0.2681  0.2338
  321MOL0     C44172   4.600   7.569   0.288  0.1170 -0.3085  0.2190
  321MOL0     C44173   4.630   7.423   0.281  0.3421 -0.2006 -0.3394
  321MOL0     C44174   4.518   7.337   0.332  1.3527  0.6331  0.0829
  321MOL0     C44175   4.500   7.199   0.277 -0.6814 -0.1054 -0.2956
  321MOL0     C44176   4.467   7.099   0.389 -0.1773  0.8330 -0.5295
  321MOL0     N44177   4.432   6.963   0.333  0.3314 -0.0617  0.0507
  321MOL0     C44178   4.510   6.860   0.280  0.2388 -0.2456 -0.0408
  321MOL0     C44179   4.423   6.760   0.272 -0.1314  0.2086  0.0619
  321MOL0     C44180   4.468   6.625   0.224 -0.2543  1.0672 -0.9550
  321MOL0     C44181   4.524   6.547   0.346  0.1349 -0.6527  1.0864
  321MOL0     C44182   4.577   6.409   0.305 -0.3546  0.9811  0.1916
  321MOL0     C44183   4.697   6.374   0.398  0.3091  0.7340 -0.8219
  321MOL0     O44184   4.799   6.470   0.422  0.0057 -0.7650 -0.1306
  321MOL0     C44185   4.904   6.475   0.342 -0.1501  0.6505  0.3183
  321MOL0     C44186   4.927   6.395   0.233  0.5939  0.0353  0.0371
  321MOL0     C44187   5.055   6.391   0.167  0.0077  0.0165  0.5649
  321MOL0     C44188   5.071   6.285   0.052  1.2542 -0.1829 -0.2227
  321MOL0     C44189   5.163   6.483   0.205 -0.0456  0.7824  0.9228
  321MOL0     C44190   5.293   6.486   0.127  0.0841 -0.2410  0.7979
  321MOL0     O44191   5.377   6.586   0.166 -0.2581 -0.3360  0.2411
  321MOL0     C44192   5.499   6.583   0.094 -0.3321 -0.8056 -0.2315
  321MOL0     C44193   5.591   6.487   0.118 -0.4125 -0.6832 -0.2332
  321MOL0     C44194   5.726   6.514   0.073  0.9768  0.0066  0.7575
  321MOL0     C44195   5.760   6.632   0.005 -0.5517  0.6284 -0.0086
  321MOL0     O44196   5.886   6.649  -0.032 -0.5407  0.5251  0.2241
  321MOL0     C44197   5.918   6.761  -0.118  0.2672  0.3516 -0.4695
  321MOL0     C44198   5.964   6.876  -0.019  0.3945 -0.0249  0.8512
  321MOL0     C44199   5.977   7.019  -0.079  0.7311  0.4175 -0.6561
  321MOL0     C44200   6.105   7.093  -0.029  0.2313  0.1233  0.2483
  321MOL0     C44201   6.104   7.242  -0.057  0.4004 -1.4726 -0.6206
  321MOL0     C44202   6.157   7.284  -0.196 -0.1982  0.6472 -0.0180
  321MOL0     C44203   6.134   7.424  -0.239  0.7341  0.0992 -0.2692
  321MOL0     C44204   6.165   7.454  -0.386  0.1226 -0.0676  0.1301
  321MOL0    Cl44205   6.027   7.389  -0.478  0.1281  0.1740  0.1796
  321MOL0     C44206   5.659   6.731  -0.005  0.4745  0.4329 -0.2348
  321MOL0     C44207   5.529   6.704   0.029 -0.3348  0.0373 -0.6706
  321MOL0     O44208   5.308   6.403   0.034  0.2077 -0.4136  0.2055
  321MOL0     C44209   5.132   6.574   0.306  0.5650  0.0420 -0.1965
  321MOL0     C44210   5.000   6.573   0.373 -0.5664 -0.7085  0.2085
  321MOL0     N44211   4.300   6.798   0.316  0.2532 -0.3423  1.1125
  321MOL0     N44212   4.300   6.920   0.347 -0.6603  0.2456 -0.4573
  321MOL0     C44213   4.699   8.057   0.684 -0.7878 -1.0375 -0.6131
  321MOL0     C44214   4.714   8.167   0.771  0.2264  0.3208  0.4865
  321MOL0     C44215   4.655   8.534   0.961 -0.6077 -0.7358 -0.3739
  321MOL0     C44216   4.760   8.523   1.052 -0.2663 -0.4012 -0.5333
  321MOL0     C44217   4.835   8.634   1.100 -0.3127  0.0633 -0.4631
  321MOL0     C44218   4.805   8.765   1.050  0.6361  0.9244 -0.6941
  321MOL0     O44219   4.887   8.869   1.094 -0.2103  0.3723  0.4456
  321MOL0     C44220   4.878   8.990   1.017  0.6569  0.2685  0.2216
  321MOL0     C44221   4.996   9.087   1.055 -0.5222  0.3948 -0.6682
  321MOL0     C44222   4.989   9.134   1.201  0.3385 -0.0998 -0.7422
  321MOL0     C44223   5.081   9.248   1.249  0.2347  0.5063 -0.0553
  321MOL0     C44224   5.222   9.204   1.230  1.4519  0.0535  0.3900
  321MOL0     C44225   5.340   9.181   1.230  0.1520  0.6256 -0.8756
  321MOL0     C44226   4.695   8.771   0.961 -0.6313  0.3274  0.5022
  321MOL0     C44227   4.621   8.664   0.910 -0.1659  0.5565 -1.2310
  321MOL0     C44228   4.522   8.708   0.810 -0.6145  0.4824 -0.0449
  321MOL0     H44229   4.514   8.081   1.029  0.1058  3.4367 -0.2890
  321MOL0     H44230   4.486   7.874   0.867  1.1888 -0.4257  4.3948
  321MOL0     H44231   4.431   7.880   0.603  0.4032 -0.3675 -0.2077
  321MOL0     H44232   4.461   7.712   0.657 -3.9383  0.7012 -0.7128
  321MOL0     H44233   4.387   7.717   0.433 -0.4965  1.1537  0.1763
  321MOL0     H44234   4.518   7.828   0.382  1.9998  0.1949  1.9002
  321MOL0     H44235   4.682   7.636   0.455  0.4757 -0.7840 -2.6888
  321MOL0     H44236   4.528   7.543   0.502  1.0246 -0.1365  1.3189
  321MOL0     H44237   4.508   7.592   0.234  0.5317  1.8382  0.3624
  321MOL0     H44238   4.690   7.617   0.248 -0.4568  0.2145 -0.4581
  321MOL0     H44239   4.715   7.406   0.348 -0.6209 -2.3148  0.4438
  321MOL0     H44240   4.645   7.402   0.175 -5.1669 -0.9527 -1.2734
  321MOL0     H44241   4.530   7.315   0.439  1.5010 -1.0090 -0.2361
  321MOL0     H44242   4.418   7.380   0.325  0.3322 -1.5285  0.4596
  321MOL0     H44243   4.584   7.164   0.216 -1.3239  1.9553 -2.5173
  321MOL0     H44244   4.423   7.192   0.200  0.1705 -0.6210 -1.1220
  321MOL0     H44245   4.548   7.076   0.460 -0.6534 -0.8025 -0.4687
  321MOL0     H44246   4.384   7.143   0.445  1.6170  1.9831  1.3493
  321MOL0     H44247   4.613   6.874   0.249  0.2491 -0.7788 -0.2536
  321MOL0     H44248   4.543   6.624   0.144  1.6739  0.3697  0.7423
  321MOL0     H44249   4.381   6.569   0.189 -1.0338  1.7246 -0.1088
  321MOL0     H44250   4.607   6.611   0.376 -0.2717 -0.0010  0.8488
  321MOL0     H44251   4.446   6.533   0.420 -2.3745  3.1176 -0.5310
  321MOL0     H44252   4.497   6.336   0.322 -0.8606  2.0586  2.9574
  321MOL0     H44253   4.618   6.414   0.204  1.3911  0.4779  0.8280
  321MOL0     H44254   4.657   6.347   0.496  0.8970 -3.4160 -1.5377
  321MOL0     H44255   4.745   6.278   0.376 -0.3439  0.5266 -1.3832
  321MOL0     H44256   4.852   6.329   0.190  1.3212 -1.2096  0.6208
  321MOL0     H44257   4.997   6.205   0.062 -2.5169  3.0541  0.3995
  321MOL0     H44258   5.165   6.236   0.026  0.1915 -0.2811 -4.7957
  321MOL0     H44259   5.050   6.341  -0.040  0.3039 -1.0176 -0.5350
  321MOL0     H44260   5.555   6.390   0.151 -1.9409 -1.4575 -3.7964
  321MOL0     H44261   5.800   6.437   0.093 -0.0770 -1.1263  0.4295
  321MOL0     H44262   6.007   6.735  -0.176  0.4845 -1.0190  0.4299
  321MOL0     H44263   5.850   6.805  -0.191 -0.5343 -0.2632 -0.1058
  321MOL0     H44264   5.904   6.891   0.072  1.1568  2.0538  1.0465
  321MOL0     H44265   6.064   6.848   0.015 -0.1224 -3.0872  0.1524
  321MOL0     H44266   5.892   7.086  -0.062  0.7093  0.2832 -0.2143
  321MOL0     H44267   5.983   7.012  -0.188  3.5077 -0.5561 -0.5100
  321MOL0     H44268   6.183   7.047  -0.090 -0.3836  0.7549 -1.0469
  321MOL0     H44269   6.118   7.071   0.077 -0.3269 -2.3131 -0.1234
  321MOL0     H44270   6.001   7.279  -0.048 -0.0059 -2.3988 -1.3212
  321MOL0     H44271   6.162   7.297   0.018  0.4829 -1.9080 -0.3606
  321MOL0     H44272   6.111   7.216  -0.269  1.0798 -1.8349  1.3441
  321MOL0     H44273   6.266   7.270  -0.206 -0.2878 -1.2276  1.1695
  321MOL0     H44274   6.192   7.494  -0.177 -0.9472  1.5283 -0.2100
  321MOL0     H44275   6.030   7.458  -0.225  0.9267  0.7456 -0.3588
  321MOL0     H44276   6.254   7.399  -0.421  0.7317  1.7903 -1.3964
  321MOL0     H44277   6.183   7.560  -0.405  2.0261  0.3414  3.3124
  321MOL0     H44278   5.672   6.826  -0.057  0.0482  0.5840 -0.0687
  321MOL0     H44279   5.452   6.778   0.011 -0.0675  0.5440  0.1963
  321MOL0     H44280   5.211   6.648   0.319  2.3371 -1.9646  1.1456
  321MOL0     H44281   4.988   6.646   0.452 -2.0661  0.2286 -0.8272
  321MOL0     H44282   4.740   8.054   0.583  2.9776  0.0452  0.7122
  321MOL0     H44283   4.763   8.260   0.746 -2.1905  2.5960  3.5139
  321MOL0     H44284   4.811   8.432   1.084  0.5131 -0.0890 -0.8595
  321MOL0     H44285   4.917   8.625   1.171  0.7142  4.3266 -0.8332
  321MOL0     H44286   4.897   8.960   0.913 -2.6848 -0.1315 -0.3905
  321MOL0     H44287   4.779   9.031   1.034 -1.1063 -3.2846 -0.3759
  321MOL0     H44288   4.988   9.176   0.991  0.1339 -1.3803 -3.3970
  321MOL0     H44289   5.090   9.031   1.047 -2.4993 -3.3959  0.4482
  321MOL0     H44290   4.893   9.183   1.219 -0.6765 -1.6009 -1.8834
  321MOL0     H44291   4.991   9.050   1.271  1.6193  0.1829 -0.4120
  321MOL0     H44292   5.063   9.294   1.346 -0.4285  0.2236 -0.0404
  321MOL0     H44293   5.063   9.332   1.181 -2.3623  0.9147  1.0165
  321MOL0     H44294   5.446   9.167   1.225 -0.2215 -2.7794 -1.1667
  321MOL0     H44295   4.680   8.864   0.909 -0.0755 -0.7493 -1.7039
  321MOL0     H44296   4.433   8.647   0.795 -0.4882  0.0733  0.8208
  321MOL0     H44297   4.484   8.809   0.827  3.1529  1.9105  1.0706
  321MOL0     H44298   4.583   8.709   0.719  3.3294 -3.1032  2.1921
  322MOL0     O44299   3.923   9.798   0.474  0.2575 -0.5512 -1.1634
  322MOL0     C44300   3.822   9.801   0.400  0.0303 -1.3958 -0.3420
  322MOL0     O44301   3.803   9.896   0.293  0.0123  0.2120  0.7080
  322MOL0     C44302   3.899   9.993   0.295 -0.1684  0.8265  1.1387
  322MOL0     C44303   3.990   9.995   0.195  0.5336  0.1295 -0.3786
  322MOL0     C44304   4.081  10.096   0.174  0.5801  0.7865 -1.1318
  322MOL0     C44305   4.082  10.202   0.268 -0.1827  0.0611  0.7039
  322MOL0     O44306   4.167  10.302   0.241  0.8382 -0.2516  1.0727
  322MOL0     C44307   4.146  10.429   0.304 -0.3648 -0.5324  0.7051
  322MOL0     C44308   4.236  10.533   0.240 -0.2332  0.1814 -0.0351
  322MOL0     C44309   4.192  10.679   0.274  0.3679  0.1527 -0.3197
  322MOL0     C44310   4.310  10.783   0.250 -0.8469 -0.1936 -0.4941
  322MOL0     C44311   4.319  10.855   0.107  0.5346 -0.8073 -0.4548
  322MOL0     C44312   4.352  10.761  -0.014 -0.4031  0.2406 -0.3105
  322MOL0     C44313   4.353  10.831  -0.156 -0.4102  0.3225 -0.4673
  322MOL0     C44314   4.468  10.937  -0.174  0.4712 -1.2032  0.1411
  322MOL0     N44315   4.499  10.968  -0.310  0.0090  0.4934  0.0697
  322MOL0     C44316   4.531  10.876  -0.414 -0.7029  0.2560 -0.0408
  322MOL0     C44317   4.577  10.943  -0.520 -0.9857 -0.9529  0.2037
  322MOL0     C44318   4.654  10.886  -0.633  0.6908  2.3205  1.0094
  322MOL0     C44319   4.689  10.973  -0.746 -0.5509  0.3743  0.6809
  322MOL0     C44320   4.741  10.901  -0.878 -0.1276 -0.3497 -0.4449
  322MOL0     C44321   4.853  10.800  -0.862 -0.1758  0.3228  0.2383
  322MOL0     O44322   4.971  10.879  -0.811  0.0209  0.4475 -1.3075
  322MOL0     C44323   5.095  10.819  -0.828 -0.1092  0.1392 -0.6176
  322MOL0     C44324   5.109  10.685  -0.851 -0.8050  0.0464  0.8555
  322MOL0     C44325   5.237  10.635  -0.876 -0.3261 -0.0180 -0.0793
  322MOL0     C44326   5.261  10.489  -0.901  0.2883  1.0537  0.8362
  322MOL0     C44327   5.353  10.721  -0.864  0.5067 -0.4999 -0.2690
  322MOL0     C44328   5.483  10.689  -0.910 -0.8076 -0.0702 -0.7453
  322MOL0     O44329   5.543  10.593  -0.836 -0.2813  0.2826 -0.0770
  322MOL0     C44330   5.658  10.527  -0.870 -0.0176 -0.3772 -0.1690
  322MOL0     C44331   5.662  10.386  -0.848  0.2601  0.2035  0.6378
  322MOL0     C44332   5.784  10.317  -0.861 -0.4120  0.1968  0.2241
  322MOL0     C44333   5.904  10.380  -0.911 -0.0231 -0.1224  0.7297
  322MOL0     O44334   6.028  10.321  -0.916 -0.4690 -0.7729 -0.5890
  322MOL0     C44335   6.092  10.346  -0.789  0.0861 -0.1120  0.7042
  322MOL0     C44336   6.207  10.249  -0.782  0.3901  0.0672 -0.8057
  322MOL0     C44337   6.165  10.107  -0.826 -0.1447  0.1320  0.3346
  322MOL0     C44338   6.283  10.000  -0.802  0.3282  0.0577  0.4230
  322MOL0     C44339   6.277   9.943  -0.659  0.9946  1.6084  0.2495
  322MOL0     C44340   6.181   9.826  -0.625  0.6728  0.3047  0.8621
  322MOL0     C44341   6.205   9.695  -0.700  0.4995 -0.1102 -0.1709
  322MOL0     C44342   6.346   9.631  -0.710  0.5157 -0.6899 -0.1070
  322MOL0    Cl44343   6.324   9.456  -0.747 -0.4389  0.3200 -0.3454
  322MOL0     C44344   5.888  10.511  -0.954  0.2551  0.0096  0.7872
  322MOL0     C44345   5.773  10.588  -0.926 -0.4768  1.1547  0.0767
  322MOL0     O44346   5.521  10.730  -1.012  0.0072 -0.4308  0.5716
  322MOL0     C44347   5.337  10.859  -0.837  0.3219 -0.0477  0.8433
  322MOL0     C44348   5.209  10.899  -0.805 -1.3439 -0.4225  0.0920
  322MOL0     N44349   4.569  11.078  -0.477 -0.4444  0.0693 -0.2878
  322MOL0     N44350   4.525  11.095  -0.356 -1.2498 -0.0739 -0.4695
  322MOL0     C44351   3.985  10.200   0.378  0.2564 -1.1693  0.1562
  322MOL0     C44352   3.902  10.089   0.392  0.2036  0.6423  0.2798
  322MOL0     C44353   3.709   9.699   0.413  0.4929 -0.5977 -0.7448
  322MOL0     C44354   3.612   9.685   0.310 -0.7112 -0.3546  0.7015
  322MOL0     C44355   3.496   9.612   0.343 -0.5448 -0.3042 -0.0387
  322MOL0     C44356   3.468   9.543   0.461 -0.0825 -0.8139  0.9821
  322MOL0     O44357   3.357   9.465   0.482 -0.0175  0.1333  0.4925
  322MOL0     C44358   3.250   9.456   0.384  0.5004  1.1039 -0.2712
  322MOL0     C44359   3.219   9.315   0.347  0.7402 -0.0538 -0.5691
  322MOL0     C44360   3.087   9.296   0.266 -0.8161  0.0194 -0.3116
  322MOL0     C44361   3.092   9.152   0.210  0.0590  0.2755  0.0878
  322MOL0     C44362   2.954   9.108   0.174  0.3753  0.6440 -0.2765
  322MOL0     C44363   2.840   9.095   0.142  0.3539 -0.2185 -0.0799
  322MOL0     C44364   3.568   9.557   0.555 -0.2715  0.3644  0.4338
  322MOL0     C44365   3.686   9.629   0.540 -0.7409 -0.5171 -0.7686
  322MOL0     C44366   3.798   9.609   0.656  0.5540 -0.2074 -0.5835
  322MOL0     H44367   3.997   9.912   0.125 -1.2814  0.6097 -1.1927
  322MOL0     H44368   4.141  10.088   0.084 -1.3932 -1.0916 -2.3730
  322MOL0     H44369   4.158  10.418   0.412 -2.8067  1.1407  1.2296
  322MOL0     H44370   4.047  10.468   0.278  0.1508 -0.3149 -1.0287
  322MOL0     H44371   4.335  10.509   0.279  0.7057 -0.8450 -2.7771
  322MOL0     H44372   4.239  10.531   0.130 -0.2194  1.2733 -0.0676
  322MOL0     H44373   4.092  10.699   0.235 -0.4750  0.0495  1.6558
  322MOL0     H44374   4.178  10.684   0.382  1.3795 -0.2977 -0.1531
  322MOL0     H44375   4.305  10.864   0.323 -0.8717 -1.4924  1.0113
  322MOL0     H44376   4.404  10.728   0.267  0.5239 -0.5536 -6.8324
  322MOL0     H44377   4.400  10.928   0.115  1.5617 -1.9926  0.5534
  322MOL0     H44378   4.225  10.907   0.088 -0.0410 -1.6316  0.0277
  322MOL0     H44379   4.446  10.709   0.009  1.0988  3.3280  1.2221
  322MOL0     H44380   4.269  10.690  -0.019  0.3614 -1.0480  2.7091
  322MOL0     H44381   4.263  10.890  -0.177  0.8304  1.8243 -1.8196
  322MOL0     H44382   4.366  10.752  -0.231  0.4750 -1.4545  1.4768
  322MOL0     H44383   4.436  11.033  -0.133  1.2218 -0.2925 -1.2998
  322MOL0     H44384   4.564  10.913  -0.127  1.2843  1.2163 -0.1465
  322MOL0     H44385   4.531  10.767  -0.410 -1.0700  0.0034 -3.6071
  322MOL0     H44386   4.586  10.809  -0.669  0.0074  3.0335  0.7371
  322MOL0     H44387   4.746  10.833  -0.608  0.0495  1.2842  1.2086
  322MOL0     H44388   4.605  11.041  -0.765  0.4417  1.1292 -1.3362
  322MOL0     H44389   4.763  11.043  -0.706 -1.0471  0.6146  1.1895
  322MOL0     H44390   4.652  10.850  -0.919 -0.1248 -2.7824  2.2342
  322MOL0     H44391   4.781  10.975  -0.947 -0.5463 -0.0870 -0.4095
  322MOL0     H44392   4.834  10.714  -0.797 -2.1217 -0.3451 -1.1149
  322MOL0     H44393   4.885  10.755  -0.956  1.3080  0.9106  0.4487
  322MOL0     H44394   5.022  10.620  -0.853 -2.1596  1.5913 -3.9010
  322MOL0     H44395   5.168  10.446  -0.939  0.0636  1.2626  1.1541
  322MOL0     H44396   5.272  10.436  -0.806  0.1384 -1.2598 -0.3406
  322MOL0     H44397   5.343  10.475  -0.973 -1.0466 -0.7013 -0.4681
  322MOL0     H44398   5.590  10.324  -0.795  1.8638 -0.7762  1.7473
  322MOL0     H44399   5.792  10.217  -0.818 -0.4742  1.0515  2.3496
  322MOL0     H44400   6.132  10.447  -0.792 -0.1679  0.0068  1.2395
  322MOL0     H44401   6.018  10.337  -0.709 -0.3004  3.2359  0.8364
  322MOL0     H44402   6.289  10.288  -0.844 -3.4101  1.4680 -5.6161
  322MOL0     H44403   6.243  10.244  -0.679  1.0618  0.0270 -1.0367
  322MOL0     H44404   6.127  10.109  -0.928 -0.6451  0.1196  0.5127
  322MOL0     H44405   6.080  10.084  -0.760  0.1595 -0.6016  0.4807
  322MOL0     H44406   6.373  10.055  -0.830  0.2713 -0.3996 -0.7340
  322MOL0     H44407   6.280   9.909  -0.862  5.0586 -0.0557  0.0100
  322MOL0     H44408   6.374   9.898  -0.635 -0.5850 -1.2695  1.8125
  322MOL0     H44409   6.247  10.026  -0.594 -0.7254 -0.7468  2.6907
  322MOL0     H44410   6.083   9.857  -0.662  0.4925 -2.4916 -1.4044
  322MOL0     H44411   6.185   9.810  -0.517 -0.7523  0.6514  0.9952
  322MOL0     H44412   6.169   9.706  -0.803  1.9080  0.1434 -0.6586
  322MOL0     H44413   6.138   9.616  -0.665  2.5358 -2.6039 -1.5303
  322MOL0     H44414   6.409   9.634  -0.621 -0.9271 -0.0193  0.9280
  322MOL0     H44415   6.399   9.681  -0.792  0.7400 -4.1724 -2.2796
  322MOL0     H44416   5.972  10.562  -1.001 -0.1217  0.2693  0.3942
  322MOL0     H44417   5.768  10.690  -0.963 -1.1666  1.0444 -0.1490
  322MOL0     H44418   5.422  10.927  -0.833  1.8751 -1.9323  1.2264
  322MOL0     H44419   5.221  11.002  -0.773  1.7354 -1.3600  2.4197
  322MOL0     H44420   3.988  10.270   0.461  2.5310 -3.3990  2.0960
  322MOL0     H44421   3.836  10.063   0.475  1.6141 -2.9077  0.4396
  322MOL0     H44422   3.613   9.742   0.218 -3.6695  2.7393  2.3634
  322MOL0     H44423   3.410   9.622   0.277 -1.2771  0.8401  1.0452
  322MOL0     H44424   3.158   9.494   0.431  0.6354  0.7321  0.2929
  322MOL0     H44425   3.245   9.518   0.293  1.0853  2.2348  0.4433
  322MOL0     H44426   3.225   9.260   0.442  1.8812 -2.0862 -1.7482
  322MOL0     H44427   3.302   9.279   0.286  0.7191 -3.6294  1.2228
  322MOL0     H44428   3.003   9.310   0.334  1.7234  2.7513  2.5986
  322MOL0     H44429   3.077   9.367   0.183  1.1593  0.9030  0.1323
  322MOL0     H44430   3.131   9.076   0.277  2.2031  1.3008  0.1020
  322MOL0     H44431   3.158   9.154   0.122 -0.5589  2.3387 -0.4023
  322MOL0     H44432   2.736   9.082   0.122  0.3988  0.8465 -1.0899
  322MOL0     H44433   3.549   9.500   0.645  1.6430  2.3554  2.2413
  322MOL0     H44434   3.894   9.582   0.613 -0.5317 -0.0454 -3.3273
  322MOL0     H44435   3.796   9.702   0.714 -4.0983 -0.7218  0.4957
  322MOL0     H44436   3.764   9.533   0.726 -0.4104  0.0529 -0.7529
  323MOL0     O44437   4.377  10.810   6.833  0.3480 -0.0345  0.4877
  323MOL0     C44438   4.310  10.801   6.741  0.2028  0.0315 -0.0898
  323MOL0     O44439   4.175  10.779   6.744  0.1485 -0.2242 -0.6630
  323MOL0     C44440   4.105  10.780   6.859 -0.2166 -0.0793  0.2376
  323MOL0     C44441   4.043  10.896   6.907 -1.2059  0.8317  0.8357
  323MOL0     C44442   3.971  10.894   7.023  0.4394  0.2432  0.3510
  323MOL0     C44443   3.948  10.778   7.094 -0.5331 -1.3914  0.6404
  323MOL0     O44444   3.863  10.793   7.195 -0.8948 -0.6621  0.2242
  323MOL0     C44445   3.793  10.671   7.236  0.2931 -0.1100  0.8021
  323MOL0     C44446   3.693  10.698   7.345 -0.6851  0.1837  0.7423
  323MOL0     C44447   3.636  10.572   7.429  0.0047 -0.0291  1.2272
  323MOL0     C44448   3.504  10.592   7.501 -1.2669 -0.0984  0.5480
  323MOL0     C44449   3.469  10.452   7.567 -0.2740 -0.4217  0.4566
  323MOL0     C44450   3.347  10.455   7.649  0.6232 -0.5193 -0.0191
  323MOL0     C44451   3.317  10.337   7.742 -0.2599  0.2007 -0.1681
  323MOL0     C44452   3.236  10.231   7.669  0.1702 -0.4383 -0.4602
  323MOL0     N44453   3.282  10.176   7.545 -0.6158 -0.0441  1.0363
  323MOL0     C44454   3.405  10.119   7.534 -1.1611  0.0760 -0.2458
  323MOL0     C44455   3.432  10.111   7.401  0.1907 -0.0110 -0.4565
  323MOL0     C44456   3.548  10.066   7.321  0.3835  1.3354 -0.6825
  323MOL0     C44457   3.588  10.184   7.232  1.5343  0.0926  0.3334
  323MOL0     C44458   3.696  10.131   7.143  0.5257 -0.4582  0.7312
  323MOL0     C44459   3.802  10.231   7.102 -0.6239 -0.0074  0.1487
  323MOL0     O44460   3.745  10.342   7.032 -0.1404 -0.5907 -0.1978
  323MOL0     C44461   3.733  10.309   6.900 -0.4988 -0.2155 -0.0258
  323MOL0     C44462   3.610  10.286   6.844 -0.4419 -0.4731 -0.5681
  323MOL0     C44463   3.593  10.258   6.713  0.4087 -0.1467  0.5725
  323MOL0     C44464   3.457  10.225   6.658 -0.3427  0.8374  0.0492
  323MOL0     C44465   3.697  10.262   6.623  0.0565 -0.7188  0.2442
  323MOL0     C44466   3.677  10.216   6.483  0.5184  0.1339  0.9252
  323MOL0     O44467   3.611  10.299   6.397 -0.2868  0.4117 -0.1630
  323MOL0     C44468   3.585  10.270   6.258  0.9662 -0.0845 -0.0265
  323MOL0     C44469   3.604  10.149   6.188  1.0032  0.0817 -1.1825
  323MOL0     C44470   3.582  10.138   6.052  0.4537  0.1763 -0.6181
  323MOL0     C44471   3.531  10.247   5.981  0.2244  0.1087  0.8628
  323MOL0     O44472   3.510  10.251   5.843 -0.4149  1.0026 -0.2131
  323MOL0     C44473   3.515  10.131   5.776 -0.2761 -0.6413 -0.3556
  323MOL0     C44474   3.427  10.151   5.650 -0.4534  0.0534 -0.7841
  323MOL0     C44475   3.450  10.046   5.543  0.5314  0.1516  0.2372
  323MOL0     C44476   3.377  10.095   5.413 -0.1044 -0.8071  0.9249
  323MOL0     C44477   3.360   9.990   5.294  0.0202 -0.1237 -0.0730
  323MOL0     C44478   3.289  10.053   5.180 -0.5492 -0.2476  0.2936
  323MOL0     C44479   3.141  10.070   5.213  0.9862 -0.6344  0.5806
  323MOL0     C44480   3.060   9.973   5.140  0.6688 -0.5781 -0.1889
  323MOL0    Cl44481   3.026  10.029   4.974  0.1323 -0.0107 -0.7254
  323MOL0     C44482   3.498  10.359   6.051  0.7474 -1.2768  0.3858
  323MOL0     C44483   3.531  10.368   6.181 -0.3078 -0.2313 -0.5603
  323MOL0     O44484   3.712  10.100   6.454 -0.2839 -0.5917  0.2069
  323MOL0     C44485   3.823  10.301   6.672 -0.1054 -0.1380 -0.1075
  323MOL0     C44486   3.846  10.324   6.810 -0.7360 -0.0706  0.2865
  323MOL0     N44487   3.317  10.151   7.337 -0.4044 -0.1583 -1.2747
  323MOL0     N44488   3.226  10.187   7.424 -0.0003 -0.1390  0.1638
  323MOL0     C44489   4.016  10.668   7.046  0.3739  0.6574 -0.4724
  323MOL0     C44490   4.098  10.665   6.939 -0.2011  0.2728  0.4542
  323MOL0     C44491   4.382  10.796   6.607 -0.2067  0.2685 -0.4288
  323MOL0     C44492   4.302  10.778   6.486  0.0567 -0.3239 -0.4772
  323MOL0     C44493   4.373  10.782   6.365 -0.0208 -0.7241 -0.6734
  323MOL0     C44494   4.514  10.785   6.368 -1.4628 -0.7023  0.8991
  323MOL0     O44495   4.590  10.801   6.251 -0.1200 -0.1715 -0.0849
  323MOL0     C44496   4.630  10.674   6.188  0.1746  0.5685  0.1798
  323MOL0     C44497   4.520  10.626   6.089 -1.2277 -0.0766 -0.0344
  323MOL0     C44498   4.563  10.491   6.024  0.3311  0.3460  0.1813
  323MOL0     C44499   4.678  10.512   5.925 -0.5624  0.2341 -0.1845
  323MOL0     C44500   4.716  10.383   5.858  0.0281  1.0500 -0.8466
  323MOL0     C44501   4.735  10.263   5.834 -0.0654 -0.3759 -0.7085
  323MOL0     C44502   4.585  10.815   6.485  0.3770 -1.1695 -0.3290
  323MOL0     C44503   4.521  10.825   6.602 -0.8552 -0.5789 -0.1598
  323MOL0     C44504   4.616  10.869   6.712  0.2773  0.2517 -0.3093
  323MOL0     H44505   4.024  10.988   6.852 -2.7466 -1.3170 -2.5228
  323MOL0     H44506   3.923  10.976   7.076  0.9222 -0.7132  2.3719
  323MOL0     H44507   3.865  10.610   7.291  1.2961 -1.6938 -2.0592
  323MOL0     H44508   3.744  10.623   7.152 -0.7089 -0.0864  1.3633
  323MOL0     H44509   3.752  10.757   7.415  0.7935  1.1321 -1.2021
  323MOL0     H44510   3.610  10.751   7.296 -0.4154  1.5006  1.6384
  323MOL0     H44511   3.645  10.495   7.352 -0.3391  1.7911 -0.7078
  323MOL0     H44512   3.714  10.555   7.504  1.0336  3.0082  0.9581
  323MOL0     H44513   3.525  10.671   7.574 -0.6515  0.4511 -0.1962
  323MOL0     H44514   3.428  10.630   7.432 -1.7201 -1.9758 -0.0535
  323MOL0     H44515   3.560  10.421   7.619  0.3372 -3.6505 -2.1971
  323MOL0     H44516   3.455  10.379   7.486 -2.3493 -1.7813  1.9397
  323MOL0     H44517   3.347  10.551   7.703 -2.5931  0.4632 -1.5219
  323MOL0     H44518   3.262  10.475   7.584  0.2407  1.5708  1.0233
  323MOL0     H44519   3.255  10.369   7.826  0.0734  2.4872 -0.7429
  323MOL0     H44520   3.411  10.297   7.782  0.8948  1.7109 -1.2632
  323MOL0     H44521   3.237  10.145   7.736  0.1003  0.4298  0.6829
  323MOL0     H44522   3.131  10.260   7.654  0.2313 -0.2590 -0.5372
  323MOL0     H44523   3.472  10.115   7.619 -0.6624 -0.6338 -0.6554
  323MOL0     H44524   3.516   9.976   7.268  2.3551  0.3149 -0.2591
  323MOL0     H44525   3.625  10.026   7.387 -2.8243 -2.3862  1.2417
  323MOL0     H44526   3.503  10.221   7.174 -1.3291 -1.3276  3.2882
  323MOL0     H44527   3.608  10.274   7.291 -2.9107  0.8600  0.9857
  323MOL0     H44528   3.748  10.057   7.205 -1.1600 -0.8574  1.7194
  323MOL0     H44529   3.649  10.095   7.051 -2.6813 -2.4435  2.9334
  323MOL0     H44530   3.856  10.249   7.195 -0.3375 -0.4750  0.0770
  323MOL0     H44531   3.876  10.181   7.039  2.0445  2.3672  1.2095
  323MOL0     H44532   3.512  10.306   6.887 -0.5921  1.4782 -1.6745
  323MOL0     H44533   3.462  10.122   6.622 -1.1826  0.4842  0.9161
  323MOL0     H44534   3.430  10.297   6.580 -2.2869 -0.3806 -0.4627
  323MOL0     H44535   3.390  10.239   6.743  2.9904  1.4213  2.7872
  323MOL0     H44536   3.628  10.059   6.242 -2.3575  1.3218  2.9351
  323MOL0     H44537   3.633  10.057   6.003  1.6932  1.4962 -1.5839
  323MOL0     H44538   3.618  10.119   5.740  0.3495  1.9491  0.3699
  323MOL0     H44539   3.491  10.043   5.836  3.8084 -1.4640  0.3889
  323MOL0     H44540   3.327  10.146   5.693  0.1048 -0.1348  0.5234
  323MOL0     H44541   3.441  10.249   5.603 -0.0812  0.5440  0.3179
  323MOL0     H44542   3.400   9.950   5.563 -2.9960  2.2820  2.9150
  323MOL0     H44543   3.557  10.030   5.524  1.0252  2.1045  1.1864
  323MOL0     H44544   3.429  10.183   5.373 -1.2545 -0.0932  0.9732
  323MOL0     H44545   3.282  10.142   5.440  0.9159 -0.3294  4.0733
  323MOL0     H44546   3.462   9.963   5.267 -0.3551 -1.5592 -0.1298
  323MOL0     H44547   3.297   9.909   5.332 -1.3847  1.3263  0.7840
  323MOL0     H44548   3.309   9.982   5.098  0.7750  0.1891  0.2102
  323MOL0     H44549   3.334  10.147   5.148  2.1004 -1.5929 -0.2417
  323MOL0     H44550   3.105  10.169   5.182  1.5659 -0.9159 -1.0948
  323MOL0     H44551   3.112  10.059   5.318  2.4244  1.1631  1.2151
  323MOL0     H44552   2.967   9.959   5.196  1.1146 -0.1187  0.6806
  323MOL0     H44553   3.105   9.873   5.148  0.3595 -0.8319 -1.4413
  323MOL0     H44554   3.449  10.452   6.022  0.7445 -0.9438  1.4145
  323MOL0     H44555   3.499  10.450   6.244  1.1847 -1.8915  2.6189
  323MOL0     H44556   3.899  10.324   6.598  0.8082 -0.9609  0.5494
  323MOL0     H44557   3.944  10.345   6.852  1.0006 -0.6960 -3.0650
  323MOL0     H44558   3.996  10.576   7.100  0.6165  0.2964 -0.9835
  323MOL0     H44559   4.149  10.572   6.914  0.3906  0.7240 -0.0483
  323MOL0     H44560   4.195  10.793   6.500  0.3773  1.7116  0.1249
  323MOL0     H44561   4.328  10.794   6.267 -1.8537 -3.6203 -0.3182
  323MOL0     H44562   4.726  10.689   6.139  1.1270 -1.3866  1.3575
  323MOL0     H44563   4.657  10.595   6.257  1.4364  1.3856  0.6497
  323MOL0     H44564   4.497  10.707   6.019 -2.5313 -0.1761  0.2507
  323MOL0     H44565   4.423  10.613   6.138 -0.3673 -3.8104  1.0059
  323MOL0     H44566   4.598  10.437   6.112 -0.4267  2.3047  1.7613
  323MOL0     H44567   4.482  10.429   5.983 -2.4067  3.6876  0.0607
  323MOL0     H44568   4.763  10.562   5.973 -0.9018  1.2029 -0.5458
  323MOL0     H44569   4.636  10.572   5.843 -1.7433 -1.0373 -0.5338
  323MOL0     H44570   4.753  10.159   5.812  2.5695 -0.2524  0.6093
  323MOL0     H44571   4.691  10.837   6.473  0.0499 -0.7165 -3.0118
  323MOL0     H44572   4.637  10.797   6.792 -1.0889 -0.2064 -0.3440
  323MOL0     H44573   4.707  10.908   6.665  0.5344  0.2577  0.1782
  323MOL0     H44574   4.576  10.962   6.752  0.7916  1.2893 -2.1213
  324MOL0     O44575   1.988   7.147   9.035 -0.1123 -0.3650  0.9986
  324MOL0     C44576   2.110   7.165   9.031 -0.2195 -0.1299  0.0609
  324MOL0     O44577   2.182   7.216   8.927  0.1856 -0.5124  0.6338
  324MOL0     C44578   2.115   7.235   8.810  0.5068 -0.3082  0.4867
  324MOL0     C44579   2.022   7.154   8.749 -0.4008  1.6258 -0.0925
  324MOL0     C44580   1.962   7.178   8.630  0.0597  0.0776  0.0455
  324MOL0     C44581   2.012   7.288   8.554 -0.5003  0.2276  0.1438
  324MOL0     O44582   1.967   7.308   8.426 -0.5875  0.1076 -0.1936
  324MOL0     C44583   2.062   7.348   8.326  0.8047 -0.6276 -0.8213
  324MOL0     C44584   2.006   7.358   8.185 -1.2919  0.1646  1.2360
  324MOL0     C44585   1.862   7.411   8.168  0.1037 -0.4213 -0.0694
  324MOL0     C44586   1.811   7.443   8.029  0.1412 -0.6433  0.8794
  324MOL0     C44587   1.852   7.581   7.979 -0.5492 -0.1993  0.0435
  324MOL0     C44588   1.779   7.617   7.857  0.0001  0.4193 -0.0852
  324MOL0     C44589   1.802   7.774   7.832 -0.0392 -0.2132  0.0977
  324MOL0     C44590   1.935   7.806   7.754  0.5587 -0.0256 -0.1798
  324MOL0     N44591   1.996   7.932   7.802 -0.7275 -1.1152 -0.8576
  324MOL0     C44592   1.950   8.063   7.792  0.2651  0.6374 -0.6002
  324MOL0     C44593   2.055   8.145   7.841  0.1661  0.8173  0.1277
  324MOL0     C44594   2.056   8.298   7.856  0.3700  0.4983 -0.0554
  324MOL0     C44595   2.200   8.347   7.822  0.2567 -0.8812 -0.2762
  324MOL0     C44596   2.212   8.488   7.884  0.0187  0.7249  0.0134
  324MOL0     C44597   2.346   8.550   7.869 -0.5892 -0.5351  0.4946
  324MOL0     O44598   2.389   8.559   7.733 -0.0413  0.0339 -0.4814
  324MOL0     C44599   2.466   8.669   7.704 -0.0208 -0.0540 -0.1112
  324MOL0     C44600   2.437   8.740   7.580  0.2476  0.4896 -0.4940
  324MOL0     C44601   2.501   8.865   7.548 -0.1885 -0.2262  0.6603
  324MOL0     C44602   2.465   8.928   7.409  1.0246  0.2117 -0.5226
  324MOL0     C44603   2.597   8.919   7.636 -0.6379  0.6624  1.1413
  324MOL0     C44604   2.668   9.045   7.624  0.2162 -0.7202  0.0663
  324MOL0     O44605   2.630   9.140   7.529  0.1015  0.2090 -0.8094
  324MOL0     C44606   2.719   9.233   7.472 -0.0479  1.1033  0.3921
  324MOL0     C44607   2.710   9.257   7.337 -0.3575  0.7376  0.3493
  324MOL0     C44608   2.783   9.341   7.262 -0.0987 -0.9224 -0.8944
  324MOL0     C44609   2.889   9.412   7.324 -0.2051  0.1741 -0.6031
  324MOL0     O44610   2.974   9.497   7.264  0.2822 -0.1667  0.7637
  324MOL0     C44611   2.920   9.578   7.164 -0.5365 -0.0649  0.2047
  324MOL0     C44612   2.987   9.717   7.173 -0.5639  0.6429 -0.0613
  324MOL0     C44613   2.951   9.804   7.048 -0.1853  0.3777 -0.7702
  324MOL0     C44614   2.799   9.853   7.045 -0.3541 -0.1134 -0.8137
  324MOL0     C44615   2.784   9.975   6.949  0.7441 -0.6240 -0.2081
  324MOL0     C44616   2.639   9.984   6.910  0.1247  0.2546 -0.4462
  324MOL0     C44617   2.613  10.099   6.819 -0.5230 -0.3807 -0.6830
  324MOL0     C44618   2.466  10.123   6.783 -0.5207 -1.1823 -0.5092
  324MOL0    Cl44619   2.395   9.977   6.708 -0.0659  0.2047  0.3202
  324MOL0     C44620   2.905   9.389   7.468 -0.7871  1.0649 -0.9317
  324MOL0     C44621   2.814   9.308   7.544  0.5269 -0.8580  0.1309
  324MOL0     O44622   2.748   9.071   7.708  0.1249 -0.4314  0.5178
  324MOL0     C44623   2.616   8.849   7.757  0.4995 -0.1578 -0.1189
  324MOL0     C44624   2.556   8.727   7.793  0.3542 -0.3745  0.4917
  324MOL0     N44625   2.158   8.065   7.883 -0.7941  0.4092 -0.7452
  324MOL0     N44626   2.122   7.943   7.862  0.3630 -0.5171  0.3630
  324MOL0     C44627   2.114   7.370   8.612 -0.5435 -1.2420 -0.0178
  324MOL0     C44628   2.162   7.340   8.734  0.7058  0.5043  0.0511
  324MOL0     C44629   2.187   7.094   9.129 -0.5946  0.2320 -0.3862
  324MOL0     C44630   2.311   7.027   9.090 -0.4203 -0.1398  0.6051
  324MOL0     C44631   2.378   6.964   9.187 -0.1682  0.1617 -0.1483
  324MOL0     C44632   2.341   6.958   9.319 -0.7425 -0.2676 -0.9108
  324MOL0     O44633   2.425   6.891   9.406 -0.1414 -0.2297  0.2732
  324MOL0     C44634   2.371   6.871   9.537 -0.4472  0.2944  0.6305
  324MOL0     C44635   2.465   6.782   9.623 -0.6456  0.9719  0.1515
  324MOL0     C44636   2.535   6.855   9.743  1.1569 -0.2496 -0.1481
  324MOL0     C44637   2.627   6.956   9.683  0.1272  0.7929  0.6323
  324MOL0     C44638   2.710   7.006   9.788 -0.6646  0.5094 -0.3110
  324MOL0     C44639   2.778   7.051   9.885 -0.4682  0.2677 -1.4195
  324MOL0     C44640   2.213   7.023   9.357 -0.0415  0.0482 -0.0727
  324MOL0     C44641   2.141   7.092   9.265 -0.2092 -0.5124  0.2280
  324MOL0     C44642   2.019   7.176   9.314 -0.0060  0.0596 -0.9147
  324MOL0     H44643   1.992   7.068   8.808 -0.5521  2.0092  0.3982
  324MOL0     H44644   1.890   7.113   8.581 -1.0706  0.8349  0.6624
  324MOL0     H44645   2.149   7.282   8.333 -0.8741 -2.8261  1.0005
  324MOL0     H44646   2.094   7.448   8.359  2.3435 -1.1534 -0.6623
  324MOL0     H44647   2.068   7.425   8.125  0.3086 -0.7623  1.7787
  324MOL0     H44648   2.002   7.254   8.149 -1.5910  1.0492 -1.5826
  324MOL0     H44649   1.795   7.331   8.202 -0.6135 -0.0706 -0.6308
  324MOL0     H44650   1.844   7.502   8.227 -1.9360 -0.7662 -0.0887
  324MOL0     H44651   1.853   7.369   7.959  0.6732 -1.2690  1.8425
  324MOL0     H44652   1.702   7.443   8.024  0.1283  0.7041  0.8977
  324MOL0     H44653   1.960   7.594   7.962 -0.5419 -0.6021 -0.2128
  324MOL0     H44654   1.818   7.652   8.055  3.7477  0.6619  1.4480
  324MOL0     H44655   1.792   7.564   7.762 -1.8581 -0.3308  0.0151
  324MOL0     H44656   1.675   7.602   7.889  0.5360  2.5883  3.1803
  324MOL0     H44657   1.802   7.832   7.925  0.2440 -0.5576  0.3147
  324MOL0     H44658   1.715   7.796   7.770  0.5137  2.0030  0.0451
  324MOL0     H44659   2.003   7.722   7.767  1.2502  0.3586 -1.2037
  324MOL0     H44660   1.917   7.803   7.646  0.1218  6.0380 -0.6229
  324MOL0     H44661   1.855   8.083   7.745 -1.0522 -2.3585  0.4928
  324MOL0     H44662   2.008   8.326   7.950 -3.4749  0.4587 -1.8375
  324MOL0     H44663   1.998   8.345   7.776  2.1281  3.1074  0.0605
  324MOL0     H44664   2.276   8.276   7.857 -0.3049 -0.8251  1.1406
  324MOL0     H44665   2.212   8.350   7.714  0.9510 -1.2837 -0.2211
  324MOL0     H44666   2.135   8.545   7.831 -3.3765 -1.1717  2.5320
  324MOL0     H44667   2.182   8.481   7.989  0.4551 -0.2577  0.0746
  324MOL0     H44668   2.349   8.646   7.922  0.5848  1.7852 -3.4120
  324MOL0     H44669   2.424   8.483   7.907 -0.1836 -0.0767  0.4941
  324MOL0     H44670   2.356   8.691   7.525 -2.7437  1.7856  2.3938
  324MOL0     H44671   2.422   9.027   7.423 -0.6348 -0.2731 -1.7573
  324MOL0     H44672   2.375   8.881   7.367 -0.8989  0.1226  3.2846
  324MOL0     H44673   2.551   8.936   7.343 -0.1379 -0.9160 -2.2784
  324MOL0     H44674   2.637   9.204   7.277  1.2168 -0.0407 -0.9246
  324MOL0     H44675   2.770   9.346   7.154  0.9515 -1.3903 -1.0575
  324MOL0     H44676   2.936   9.529   7.068 -2.9716 -3.2077  1.2233
  324MOL0     H44677   2.812   9.590   7.175 -0.3579  1.3629  0.6204
  324MOL0     H44678   2.956   9.758   7.270 -0.4798  0.1609  0.1719
  324MOL0     H44679   3.095   9.705   7.177 -0.4697  0.4444 -2.1952
  324MOL0     H44680   2.973   9.762   6.949  0.2419  2.5628 -1.6691
  324MOL0     H44681   3.020   9.889   7.055  2.2315 -1.5972  1.2850
  324MOL0     H44682   2.768   9.883   7.145  1.4563  0.3893 -0.3522
  324MOL0     H44683   2.730   9.771   7.022 -2.0553  0.5046  1.6912
  324MOL0     H44684   2.814  10.074   6.985  1.4238 -0.1997 -1.8593
  324MOL0     H44685   2.847   9.950   6.864  1.2430 -2.9333  0.7559
  324MOL0     H44686   2.582  10.000   7.002  0.4163 -2.3498  0.2798
  324MOL0     H44687   2.609   9.889   6.864 -2.1890 -0.4030  2.1557
  324MOL0     H44688   2.655  10.084   6.719 -1.3523 -1.5852 -0.8793
  324MOL0     H44689   2.650  10.188   6.870  1.0839 -1.3693 -0.0100
  324MOL0     H44690   2.464  10.210   6.718 -2.1204 -0.8922 -0.0968
  324MOL0     H44691   2.417  10.161   6.873  0.1141  3.0314 -1.7441
  324MOL0     H44692   2.972   9.460   7.514 -0.9459  0.5607  0.1011
  324MOL0     H44693   2.828   9.307   7.651  0.7930  2.8490  0.2283
  324MOL0     H44694   2.681   8.887   7.835  0.5420  3.2150 -1.6701
  324MOL0     H44695   2.581   8.695   7.894  1.0150  1.5877  0.9985
  324MOL0     H44696   2.141   7.453   8.547 -1.6806  0.3650  1.4725
  324MOL0     H44697   2.235   7.406   8.779 -2.6836  4.1007  0.7256
  324MOL0     H44698   2.349   7.015   8.989 -2.5046  2.9893 -0.7221
  324MOL0     H44699   2.471   6.921   9.149 -0.4958 -0.2654 -0.4834
  324MOL0     H44700   2.338   6.961   9.590 -0.2889  0.2851  0.7433
  324MOL0     H44701   2.290   6.799   9.520 -0.1153 -0.0247  0.3960
  324MOL0     H44702   2.540   6.728   9.566 -1.4750  0.9631 -0.9803
  324MOL0     H44703   2.396   6.701   9.651 -0.7937  0.2047 -2.2374
  324MOL0     H44704   2.456   6.911   9.793  0.9184 -2.4235  2.1269
  324MOL0     H44705   2.576   6.783   9.815 -0.5863  0.9580  2.2066
  324MOL0     H44706   2.568   7.037   9.639  0.4810  0.0891 -1.2102
  324MOL0     H44707   2.687   6.919   9.600  0.0340 -0.7405  1.2135
  324MOL0     H44708   2.842   7.085   9.964  1.2164  0.1658 -2.6594
  324MOL0     H44709   2.171   7.010   9.456  0.4130 -1.9338 -0.0907
  324MOL0     H44710   1.930   7.116   9.292 -1.4310  1.5939  0.4795
  324MOL0     H44711   2.014   7.201   9.420  0.6520  1.0381 -1.1030
  324MOL0     H44712   2.014   7.272   9.262 -2.0071  0.0568 -0.8067
  325MOL0     O44713  10.313   0.919  10.022 -0.1151 -0.0732  0.3863
  325MOL0     C44714  10.266   0.943  10.130 -0.6774 -0.1765  0.5423
  325MOL0     O44715  10.155   0.890  10.181  0.4217 -0.0398  0.2932
  325MOL0     C44716  10.050   0.844  10.106 -0.7076  0.4303  0.2855
  325MOL0     C44717  10.031   0.855   9.971 -0.4047 -0.0713 -1.4980
  325MOL0     C44718   9.917   0.797   9.910  0.5717 -0.8187  0.4635
  325MOL0     C44719   9.831   0.721   9.988  0.1095  0.4636 -0.0013
  325MOL0     O44720   9.720   0.683   9.924 -0.1708 -0.1421  0.0185
  325MOL0     C44721   9.654   0.563   9.972 -0.1775 -0.2743  0.0079
  325MOL0     C44722   9.578   0.503   9.861 -0.4001  0.2949  0.5079
  325MOL0     C44723   9.658   0.482   9.724  0.7710 -0.5570  0.7603
  325MOL0     C44724   9.624   0.589   9.621  0.0859 -0.3516 -0.0552
  325MOL0     C44725   9.727   0.598   9.508  1.0243 -0.2651  0.6832
  325MOL0     C44726   9.685   0.694   9.396  0.0910  0.2478  0.1439
  325MOL0     C44727   9.709   0.834   9.452 -0.0758 -0.2666 -0.5009
  325MOL0     C44728   9.856   0.875   9.420 -0.4573  0.2768  0.4415
  325MOL0     N44729   9.922   0.990   9.494 -0.2578 -1.0384 -0.1566
  325MOL0     C44730   9.864   1.062   9.604  0.2929 -0.5117 -0.1327
  325MOL0     C44731   9.957   1.162   9.639  0.2031  0.0761 -0.5426
  325MOL0     C44732   9.951   1.255   9.752  0.3879 -0.2105 -0.3464
  325MOL0     C44733  10.054   1.225   9.865  0.7022 -0.1796 -0.0313
  325MOL0     C44734  10.035   1.334   9.973  0.6040 -0.6207  0.4102
  325MOL0     C44735  10.144   1.335  10.081  0.2018  0.1107 -0.3665
  325MOL0     O44736  10.085   1.422  10.192 -0.0659 -0.3775 -0.4214
  325MOL0     C44737  10.088   1.561  10.175 -0.8421  0.3198  0.3595
  325MOL0     C44738  10.199   1.621  10.138  0.0743 -0.4000  0.0077
  325MOL0     C44739  10.214   1.759  10.124 -0.2627 -1.5777 -0.8156
  325MOL0     C44740  10.362   1.810  10.103  0.3821 -1.0490  0.7544
  325MOL0     C44741  10.089   1.840  10.146  0.0368  0.4488  0.6467
  325MOL0     C44742  10.084   1.980  10.116 -0.9179  1.1060 -0.3452
  325MOL0     O44743   9.984   2.049  10.189  0.2832 -0.1472  0.4146
  325MOL0     C44744   9.980   2.180  10.158 -0.7372 -1.0562 -0.0776
  325MOL0     C44745  10.035   2.265  10.254 -0.8353 -1.0487  0.1665
  325MOL0     C44746  10.057   2.396  10.228 -0.0256 -1.1138  0.4545
  325MOL0     C44747  10.009   2.461  10.114  0.1509  0.2601  1.0013
  325MOL0     O44748  10.013   2.600  10.107 -0.1133 -1.0097  0.4954
  325MOL0     C44749   9.934   2.670  10.006 -0.0048  0.3841 -0.3273
  325MOL0     C44750   9.781   2.662  10.014  1.3446  0.1700  0.5790
  325MOL0     C44751   9.733   2.649  10.157 -0.2121 -0.2058  0.2588
  325MOL0     C44752   9.768   2.763  10.251  0.1546 -0.1105 -0.2708
  325MOL0     C44753   9.742   2.734  10.402  0.8829 -0.1362 -0.3247
  325MOL0     C44754   9.813   2.858  10.475  0.3969  0.6918 -0.3274
  325MOL0     C44755   9.967   2.831  10.497  0.1163  1.0107  1.2994
  325MOL0     C44756  10.029   2.962  10.535 -0.3348 -0.5126 -0.5306
  325MOL0    Cl44757   9.961   3.059  10.662  0.6877 -0.2613  0.1188
  325MOL0     C44758   9.949   2.382  10.014  0.3597 -0.3277 -0.3336
  325MOL0     C44759   9.932   2.244  10.044  0.3417  0.3396  0.4611
  325MOL0     O44760  10.179   2.030  10.053 -0.1048 -0.2011 -0.8424
  325MOL0     C44761   9.973   1.777  10.187  0.0953  1.1835 -0.5053
  325MOL0     C44762   9.981   1.637  10.201  0.0603 -0.3569  0.4255
  325MOL0     N44763  10.065   1.153   9.552  0.3758  0.1137  0.0023
  325MOL0     N44764  10.045   1.054   9.466 -0.3981  0.3135 -0.4575
  325MOL0     C44765   9.854   0.703  10.125  0.2460  0.3865 -0.0133
  325MOL0     C44766   9.961   0.763  10.184 -0.3502 -0.4995  0.6546
  325MOL0     C44767  10.346   1.025  10.226 -0.5365  0.0466 -0.3465
  325MOL0     C44768  10.292   1.045  10.352 -1.0937 -0.8205  0.0188
  325MOL0     C44769  10.355   1.113  10.463  0.7273 -0.1442 -0.2977
  325MOL0     C44770  10.488   1.162  10.434  0.4912 -0.1553  0.3868
  325MOL0     O44771  10.569   1.210  10.526 -0.6981 -0.3558  0.1076
  325MOL0     C44772  10.520   1.271  10.642 -0.3639  0.0212 -0.1355
  325MOL0     C44773  10.561   1.192  10.761 -0.1315  0.0074  0.6094
  325MOL0     C44774  10.497   1.239  10.896  0.7307 -0.3454  0.0301
  325MOL0     C44775  10.343   1.200  10.921 -0.0165 -1.4117 -0.1828
  325MOL0     C44776  10.321   1.059  10.934  0.0907 -0.3136  0.3674
  325MOL0     C44777  10.289   0.942  10.947  0.4982 -0.1787 -1.2974
  325MOL0     C44778  10.542   1.145  10.307 -0.4267 -0.0819  0.1364
  325MOL0     C44779  10.470   1.081  10.206 -0.6001 -0.5624  0.7718
  325MOL0     C44780  10.547   1.079  10.070 -0.1699 -0.7410  0.0877
  325MOL0     H44781  10.100   0.907   9.904  0.8294  1.3708  0.7493
  325MOL0     H44782   9.904   0.808   9.803 -1.3204  0.4007  0.7737
  325MOL0     H44783   9.590   0.585  10.058  0.8048  2.3460  0.1711
  325MOL0     H44784   9.727   0.485   9.993 -0.0064  0.1446  1.0366
  325MOL0     H44785   9.547   0.405   9.899  4.9665 -0.7909  3.0152
  325MOL0     H44786   9.489   0.563   9.836 -0.6597  0.0964  0.9367
  325MOL0     H44787   9.764   0.483   9.752  0.3599  1.2104  2.4433
  325MOL0     H44788   9.645   0.385   9.674  0.6439  0.2024 -0.7565
  325MOL0     H44789   9.525   0.564   9.582 -0.8538  0.9983  1.3689
  325MOL0     H44790   9.613   0.684   9.674 -0.3205 -1.0220  1.0882
  325MOL0     H44791   9.747   0.501   9.462  4.0071 -0.5727  2.3185
  325MOL0     H44792   9.828   0.624   9.540  0.2436  0.1364  2.9943
  325MOL0     H44793   9.727   0.684   9.296 -2.9363 -0.2969 -1.1894
  325MOL0     H44794   9.578   0.680   9.376  0.2961  1.5638 -2.2632
  325MOL0     H44795   9.678   0.852   9.556 -2.6049  1.3940 -1.4405
  325MOL0     H44796   9.637   0.902   9.405  1.0304  0.0339 -1.8092
  325MOL0     H44797   9.926   0.795   9.447 -1.3442  0.0698  2.2858
  325MOL0     H44798   9.873   0.893   9.314  1.3727  1.9825  0.9648
  325MOL0     H44799   9.767   1.058   9.654  0.3450 -0.7239 -0.0479
  325MOL0     H44800   9.851   1.264   9.798  0.8972 -1.8002  1.1764
  325MOL0     H44801   9.961   1.357   9.712 -1.0084 -0.0655 -0.4102
  325MOL0     H44802  10.043   1.124   9.906  0.8901 -1.3445 -2.6574
  325MOL0     H44803  10.153   1.240   9.821  0.1239  2.4858 -0.5652
  325MOL0     H44804  10.036   1.433   9.926  1.6658 -1.8089 -2.2857
  325MOL0     H44805   9.949   1.313  10.036 -1.7841  1.6329 -1.8540
  325MOL0     H44806  10.167   1.234  10.114  0.2481 -0.7914 -2.9564
  325MOL0     H44807  10.234   1.380  10.037  0.6412 -0.5162 -0.1278
  325MOL0     H44808  10.286   1.558  10.124  0.7331  0.0499  1.8197
  325MOL0     H44809  10.425   1.730  10.140  3.0357 -0.4219 -2.0010
  325MOL0     H44810  10.379   1.895  10.170  0.9137 -1.8349  1.6385
  325MOL0     H44811  10.375   1.839   9.998  4.1123 -2.9473  0.5467
  325MOL0     H44812  10.069   2.212  10.343 -3.2695 -2.2407  0.4901
  325MOL0     H44813  10.121   2.460  10.288  1.8777 -1.3467 -1.2048
  325MOL0     H44814   9.965   2.775  10.006  0.9380  0.1704  2.3606
  325MOL0     H44815   9.965   2.641   9.905 -0.3668  0.1026 -0.3617
  325MOL0     H44816   9.742   2.750   9.962 -2.8047 -1.0652  1.3095
  325MOL0     H44817   9.764   2.564   9.969  0.9287 -0.9794  3.1135
  325MOL0     H44818   9.779   2.558  10.196 -0.9666 -0.2954  0.9741
  325MOL0     H44819   9.623   2.650  10.158 -0.2834  2.0336  2.5521
  325MOL0     H44820   9.716   2.855  10.224  0.8085  0.6009  0.8053
  325MOL0     H44821   9.872   2.790  10.233 -0.1377  0.3096 -1.3725
  325MOL0     H44822   9.638   2.724  10.436  1.0223  0.5594  0.3396
  325MOL0     H44823   9.795   2.643  10.431 -1.1661 -1.0760  0.6603
  325MOL0     H44824   9.756   2.871  10.567 -5.5878  0.7318 -3.5128
  325MOL0     H44825   9.794   2.951  10.421  0.1643  0.8178 -0.0318
  325MOL0     H44826  10.022   2.798  10.408 -0.2149  2.2210  0.6249
  325MOL0     H44827   9.972   2.758  10.579  1.7920  1.4497  1.6255
  325MOL0     H44828  10.033   3.029  10.448  0.0529  3.3747  2.2184
  325MOL0     H44829  10.134   2.935  10.553 -0.0798 -0.9201 -2.4080
  325MOL0     H44830   9.920   2.422   9.917 -1.4776  0.2965  0.4338
  325MOL0     H44831   9.890   2.178   9.969 -0.2975 -0.6009  1.6206
  325MOL0     H44832   9.881   1.823  10.221  0.5748 -0.4702  3.7800
  325MOL0     H44833   9.904   1.578  10.250  0.6497 -0.4421  1.2854
  325MOL0     H44834   9.778   0.641  10.172  2.6375 -3.6915 -0.9841
  325MOL0     H44835   9.976   0.762  10.291  1.1785 -1.7083  0.4798
  325MOL0     H44836  10.199   1.009  10.394 -0.1823 -3.3068  0.1052
  325MOL0     H44837  10.299   1.122  10.555 -0.2959 -1.2892 -0.7719
  325MOL0     H44838  10.556   1.374  10.645  2.9949 -1.0496  0.6254
  325MOL0     H44839  10.411   1.278  10.636 -0.3962 -0.1104  0.2501
  325MOL0     H44840  10.668   1.197  10.783  0.0390 -0.5528 -0.0483
  325MOL0     H44841  10.544   1.088  10.731 -1.3046  0.4002 -0.1614
  325MOL0     H44842  10.554   1.190  10.975 -4.1857 -4.0656  1.7744
  325MOL0     H44843  10.482   1.348  10.899 -0.0922 -0.4628  2.6056
  325MOL0     H44844  10.287   1.239  10.836 -0.3617 -3.3089 -0.8630
  325MOL0     H44845  10.298   1.242  11.012 -0.0962 -0.5953 -0.5897
  325MOL0     H44846  10.257   0.844  10.976 -0.5339  0.7934  1.1333
  325MOL0     H44847  10.641   1.181  10.281 -0.3124 -0.7961 -0.4589
  325MOL0     H44848  10.568   0.976  10.039  2.1764  0.0538 -1.1987
  325MOL0     H44849  10.485   1.120   9.989 -1.7899 -1.0160  1.1433
  325MOL0     H44850  10.647   1.124  10.067 -0.3839 -0.3008 -1.4937
  326MOL0     O44851   6.213   7.677   7.080  0.0904 -0.3388  0.4435
  326MOL0     C44852   6.106   7.677   7.133 -0.5618 -0.6896 -0.0979
  326MOL0     O44853   6.026   7.789   7.143  0.1308  0.2051  0.5486
  326MOL0     C44854   6.082   7.910   7.113 -0.4928 -0.1499 -0.1273
  326MOL0     C44855   6.019   8.001   7.026  0.5588  0.5388 -1.9610
  326MOL0     C44856   6.070   8.129   6.989  0.6115 -0.5429 -0.5967
  326MOL0     C44857   6.200   8.172   7.041  0.6779  0.5146  1.6809
  326MOL0     O44858   6.268   8.289   7.000  0.1678 -0.0571 -0.3747
  326MOL0     C44859   6.411   8.315   7.028  1.1865 -0.5145 -0.0170
  326MOL0     C44860   6.435   8.436   6.930  0.3688 -0.5371  0.1896
  326MOL0     C44861   6.573   8.474   6.952 -0.8467  1.0136  0.0676
  326MOL0     C44862   6.635   8.576   6.870 -0.1707 -0.1144 -0.1765
  326MOL0     C44863   6.768   8.641   6.921 -0.2408 -0.9337  0.1740
  326MOL0     C44864   6.823   8.737   6.816 -0.8381 -0.6575  0.7184
  326MOL0     C44865   6.956   8.800   6.853  0.4969  0.2555 -0.2049
  326MOL0     C44866   6.985   8.908   6.752 -0.4462 -0.3649  0.0443
  326MOL0     N44867   7.051   8.857   6.635 -1.0412  0.5502  0.6035
  326MOL0     C44868   6.991   8.776   6.539 -0.0799 -0.6871  0.1732
  326MOL0     C44869   7.083   8.757   6.453 -0.4807 -0.3396 -0.4466
  326MOL0     C44870   7.070   8.675   6.331 -0.2186 -0.1747 -0.1047
  326MOL0     C44871   7.148   8.547   6.353  0.0498 -0.0503 -0.5994
  326MOL0     C44872   7.190   8.468   6.226 -0.8902  0.0192 -0.0581
  326MOL0     C44873   7.245   8.325   6.266 -0.3425  0.0552  1.4175
  326MOL0     O44874   7.163   8.254   6.356  0.2008  0.0875 -0.0376
  326MOL0     C44875   7.073   8.167   6.306 -0.1029 -0.3589 -0.7075
  326MOL0     C44876   7.040   8.143   6.173 -0.2111 -0.6984  0.2820
  326MOL0     C44877   6.935   8.052   6.138  0.3464 -0.1524 -0.0443
  326MOL0     C44878   6.881   8.054   5.995 -1.2144  0.3466 -0.9491
  326MOL0     C44879   6.875   7.975   6.240  0.0602  0.1593  0.4846
  326MOL0     C44880   6.771   7.865   6.220 -1.1374  0.7459 -0.0862
  326MOL0     O44881   6.725   7.817   6.341 -0.2686 -0.1312 -0.0982
  326MOL0     C44882   6.618   7.732   6.353  0.4680 -0.1434  0.1822
  326MOL0     C44883   6.592   7.622   6.265  0.7345 -0.8347  0.2941
  326MOL0     C44884   6.472   7.559   6.284  1.1871 -1.3829  0.2764
  326MOL0     C44885   6.369   7.593   6.374  0.4846  1.0005 -0.2628
  326MOL0     O44886   6.252   7.511   6.380  0.2010 -0.5648  0.6209
  326MOL0     C44887   6.131   7.589   6.349 -1.4800  0.5722 -0.4569
  326MOL0     C44888   6.016   7.504   6.296  0.4707  0.0643 -0.5013
  326MOL0     C44889   6.035   7.422   6.173  0.5657  0.2606  0.1130
  326MOL0     C44890   6.044   7.519   6.057  0.5342  0.4229  0.7086
  326MOL0     C44891   6.148   7.474   5.959 -0.3379  1.3330  1.3346
  326MOL0     C44892   6.156   7.568   5.840 -0.9606 -1.1938 -0.7477
  326MOL0     C44893   6.024   7.613   5.761 -0.4781 -0.7970 -0.0043
  326MOL0     C44894   6.047   7.739   5.662 -0.3383  0.0768 -0.0806
  326MOL0    Cl44895   6.135   7.687   5.515 -0.0718 -0.0658 -0.5806
  326MOL0     C44896   6.399   7.700   6.460  1.3850 -0.6308  0.8785
  326MOL0     C44897   6.520   7.765   6.447 -0.0347 -0.5794 -0.0623
  326MOL0     O44898   6.734   7.829   6.111  0.2613  0.4163  1.0993
  326MOL0     C44899   6.918   8.000   6.376  0.6449  0.4756  0.3881
  326MOL0     C44900   7.018   8.086   6.407  0.2005 -0.7676 -0.1763
  326MOL0     N44901   7.196   8.805   6.503 -1.3885  0.3094  0.2848
  326MOL0     N44902   7.182   8.880   6.604 -0.1814 -0.3145  0.1078
  326MOL0     C44903   6.261   8.080   7.134  0.8820  0.2693  0.0507
  326MOL0     C44904   6.209   7.953   7.170  1.3793  0.9607  1.0169
  326MOL0     C44905   6.071   7.544   7.191 -0.2464  0.4785  0.6247
  326MOL0     C44906   6.170   7.452   7.218  0.3823  0.0477 -0.1662
  326MOL0     C44907   6.151   7.323   7.269 -0.7808 -0.6918 -1.2436
  326MOL0     C44908   6.024   7.273   7.294  1.0942 -0.0810 -0.3997
  326MOL0     O44909   5.989   7.150   7.345 -0.0036  0.5475 -0.0031
  326MOL0     C44910   6.088   7.051   7.397  1.7733  1.0327  0.4736
  326MOL0     C44911   6.013   6.924   7.457 -0.5662 -0.8861  0.1188
  326MOL0     C44912   5.979   6.812   7.359 -0.0246 -0.1588 -0.3377
  326MOL0     C44913   5.868   6.721   7.418  0.5551 -0.6670 -1.3029
  326MOL0     C44914   5.917   6.633   7.528 -0.1509  0.2123  0.3510
  326MOL0     C44915   5.967   6.558   7.617  1.0659 -0.7078  0.8586
  326MOL0     C44916   5.916   7.355   7.248  0.2094  0.1054  0.2622
  326MOL0     C44917   5.936   7.485   7.191 -0.0470  0.4729 -0.2991
  326MOL0     C44918   5.799   7.556   7.169  0.2767 -0.5445 -0.1086
  326MOL0     H44919   5.921   7.971   6.989  0.2487 -2.0109  0.6309
  326MOL0     H44920   6.019   8.182   6.909  1.4076 -1.0404 -1.4563
  326MOL0     H44921   6.470   8.227   7.002  1.3518 -0.0386 -1.3150
  326MOL0     H44922   6.430   8.342   7.132  0.6159 -0.9447  0.2053
  326MOL0     H44923   6.406   8.413   6.827 -1.8656  1.1149  0.3713
  326MOL0     H44924   6.369   8.517   6.963 -0.8549 -2.8413  4.1161
  326MOL0     H44925   6.574   8.509   7.056 -0.9146 -1.7457  1.0604
  326MOL0     H44926   6.637   8.387   6.936  0.0337  1.6716 -0.0530
  326MOL0     H44927   6.648   8.549   6.765 -2.6326  0.7840 -0.7793
  326MOL0     H44928   6.567   8.661   6.875  1.5949  1.2693  2.6319
  326MOL0     H44929   6.851   8.572   6.943 -0.1151 -1.9233 -2.9724
  326MOL0     H44930   6.754   8.704   7.009 -0.8764 -0.1362 -0.4827
  326MOL0     H44931   6.847   8.677   6.727 -0.3262  1.1574 -0.4236
  326MOL0     H44932   6.750   8.813   6.787  0.3736  0.5351  0.7187
  326MOL0     H44933   7.036   8.725   6.860  0.6902  0.5438  0.9760
  326MOL0     H44934   6.945   8.851   6.949 -0.6377 -1.2483  0.5143
  326MOL0     H44935   6.904   8.971   6.712  1.3489  2.2484  0.2727
  326MOL0     H44936   7.060   8.973   6.797  2.0442 -0.9216 -2.9822
  326MOL0     H44937   6.883   8.764   6.538 -1.0565  5.1293  1.4683
  326MOL0     H44938   7.112   8.735   6.250 -3.0707 -0.3135 -1.8207
  326MOL0     H44939   6.965   8.658   6.306 -0.4647  0.5853  0.3942
  326MOL0     H44940   7.237   8.578   6.409  1.5642 -3.5987 -0.8115
  326MOL0     H44941   7.091   8.480   6.419 -3.5684  1.0338 -2.3670
  326MOL0     H44942   7.096   8.452   6.173  0.7781 -0.6365 -3.0311
  326MOL0     H44943   7.260   8.514   6.157  1.2977 -2.2157  0.5149
  326MOL0     H44944   7.274   8.270   6.177  0.4568  3.0606 -0.3318
  326MOL0     H44945   7.339   8.346   6.318  1.0217  0.2442 -1.0021
  326MOL0     H44946   7.078   8.214   6.100 -3.5656  2.2712  1.1460
  326MOL0     H44947   6.930   7.982   5.929 -3.7202  0.0447 -2.6379
  326MOL0     H44948   6.915   8.154   5.964 -1.2747  0.8015  0.4068
  326MOL0     H44949   6.773   8.045   5.979 -1.2938 -0.4644 -0.0103
  326MOL0     H44950   6.661   7.581   6.192 -3.2623 -1.5395 -3.5062
  326MOL0     H44951   6.464   7.469   6.224 -2.5486 -0.8001 -0.3167
  326MOL0     H44952   6.098   7.624   6.447  0.2612  0.9625  0.0083
  326MOL0     H44953   6.149   7.667   6.274 -0.5485 -1.8010 -2.8679
  326MOL0     H44954   5.996   7.432   6.377 -0.6098  2.0167  1.0733
  326MOL0     H44955   5.922   7.560   6.294 -0.8193 -1.7469  2.6187
  326MOL0     H44956   5.957   7.346   6.156  3.1604 -2.1587 -1.8814
  326MOL0     H44957   6.128   7.366   6.184  0.0629 -0.2265  2.3744
  326MOL0     H44958   6.063   7.623   6.084  0.4142  1.4652 -2.7158
  326MOL0     H44959   5.946   7.509   6.011 -0.1363 -1.6407  2.4184
  326MOL0     H44960   6.242   7.463   6.014  0.0657  0.9949  0.5814
  326MOL0     H44961   6.125   7.370   5.936  1.6451  0.8507  1.4113
  326MOL0     H44962   6.225   7.524   5.767 -1.0242  0.4249 -1.8383
  326MOL0     H44963   6.198   7.664   5.871 -2.3275 -0.0413 -2.2680
  326MOL0     H44964   5.949   7.645   5.834 -1.9303  0.1472 -1.8188
  326MOL0     H44965   5.973   7.535   5.703  0.9555 -2.2654  0.6338
  326MOL0     H44966   6.102   7.820   5.711 -1.1648 -0.3587  1.6435
  326MOL0     H44967   5.952   7.783   5.631 -0.1318 -0.4675 -1.6159
  326MOL0     H44968   6.328   7.726   6.539 -0.2618 -1.2077 -0.3664
  326MOL0     H44969   6.545   7.845   6.516 -1.0175 -0.1592 -0.1831
  326MOL0     H44970   6.865   7.948   6.455 -0.4831  1.1116  0.0651
  326MOL0     H44971   7.044   8.106   6.511 -0.7610 -0.6663  0.0497
  326MOL0     H44972   6.352   8.120   7.180  0.4222 -0.2244  1.4495
  326MOL0     H44973   6.259   7.877   7.229 -2.9391 -3.3788 -0.2660
  326MOL0     H44974   6.274   7.482   7.210  1.1477 -1.9810  1.2751
  326MOL0     H44975   6.236   7.264   7.302 -1.3563  0.7061  3.5201
  326MOL0     H44976   6.150   7.007   7.318 -1.8015 -2.6449 -0.5784
  326MOL0     H44977   6.153   7.097   7.472  3.5658 -1.9926  0.9235
  326MOL0     H44978   5.918   6.965   7.493 -0.4186 -0.2327 -0.2185
  326MOL0     H44979   6.078   6.896   7.540  1.3894 -0.2869 -1.1300
  326MOL0     H44980   5.931   6.861   7.274 -2.5271 -0.1808  0.9782
  326MOL0     H44981   6.063   6.757   7.315 -0.5334 -0.8999 -0.4003
  326MOL0     H44982   5.835   6.650   7.341 -4.4875  1.0176 -1.0930
  326MOL0     H44983   5.789   6.784   7.460  3.0836  0.6158  1.9235
  326MOL0     H44984   5.995   6.480   7.684 -3.1350 -1.0788  2.5318
  326MOL0     H44985   5.815   7.317   7.243  0.8355 -1.5263 -0.8524
  326MOL0     H44986   5.786   7.647   7.228 -0.8358  0.4092 -1.7514
  326MOL0     H44987   5.787   7.591   7.066  1.4102  1.5899  0.4422
  326MOL0     H44988   5.718   7.486   7.190  0.4903 -0.4734  1.0206
  327MOL0     O44989   3.478   6.165   8.790 -0.0230 -0.7042 -0.5986
  327MOL0     C44990   3.372   6.229   8.792  0.4556  0.8181 -0.2053
  327MOL0     O44991   3.264   6.209   8.709  0.4456 -0.0173 -0.1443
  327MOL0     C44992   3.265   6.101   8.631  1.3901 -0.0887 -0.4924
  327MOL0     C44993   3.271   5.972   8.680  0.3260  0.0169 -0.7355
  327MOL0     C44994   3.291   5.861   8.600 -0.6460  0.0703  0.3010
  327MOL0     C44995   3.281   5.874   8.456 -0.2599 -0.3632  0.7181
  327MOL0     O44996   3.307   5.779   8.364  0.3926  0.0767  0.5133
  327MOL0     C44997   3.312   5.640   8.386 -0.0727 -0.5406 -0.1095
  327MOL0     C44998   3.465   5.587   8.375  0.1314  0.0039  0.1759
  327MOL0     C44999   3.490   5.434   8.377 -0.8961 -0.1299  0.3209
  327MOL0     C45000   3.455   5.378   8.515  0.7908  0.4188 -0.4283
  327MOL0     C45001   3.457   5.227   8.508  0.3875 -0.2682 -0.9604
  327MOL0     C45002   3.330   5.169   8.441 -0.9766 -0.1483 -0.3103
  327MOL0     C45003   3.339   5.015   8.424 -0.1574 -0.6061  0.2759
  327MOL0     C45004   3.443   4.978   8.318  0.1525 -0.4064  0.5973
  327MOL0     N45005   3.507   4.853   8.359 -0.0934  0.4384  1.1874
  327MOL0     C45006   3.493   4.720   8.313 -0.1023 -0.3304  0.1861
  327MOL0     C45007   3.582   4.642   8.377  0.4774  1.2664  0.5729
  327MOL0     C45008   3.592   4.494   8.383 -0.0388  0.0631 -1.1701
  327MOL0     C45009   3.624   4.439   8.250  1.1044 -0.3682 -0.5412
  327MOL0     C45010   3.773   4.391   8.249  0.1249  1.5341  0.6304
  327MOL0     C45011   3.814   4.313   8.118 -0.4026 -0.1247 -0.2953
  327MOL0     O45012   3.947   4.272   8.116  0.5221 -0.2151 -0.5598
  327MOL0     C45013   3.996   4.212   8.002 -0.1579  0.0847 -0.5912
  327MOL0     C45014   3.913   4.159   7.902  0.7772 -0.3472  0.1141
  327MOL0     C45015   3.960   4.094   7.782  0.6309  0.7954  0.1375
  327MOL0     C45016   3.862   4.055   7.670  0.2611  0.6718  0.0693
  327MOL0     C45017   4.103   4.074   7.783  0.1761 -0.9277  0.1184
  327MOL0     C45018   4.179   4.016   7.666 -0.1917 -0.6069 -0.4837
  327MOL0     O45019   4.313   4.042   7.648  0.2457 -0.0059 -0.4304
  327MOL0     C45020   4.390   3.954   7.575 -0.0372  1.0265 -0.5054
  327MOL0     C45021   4.520   3.938   7.621  0.3488  0.6686  0.8576
  327MOL0     C45022   4.619   3.859   7.557  0.0875 -0.1753  0.9293
  327MOL0     C45023   4.585   3.796   7.444 -0.3691 -1.2790  0.0630
  327MOL0     O45024   4.684   3.726   7.373 -0.0473  0.6256 -0.4189
  327MOL0     C45025   4.675   3.726   7.229  0.5564 -0.3109  0.7777
  327MOL0     C45026   4.800   3.662   7.162  0.5043 -0.5940 -0.2914
  327MOL0     C45027   4.835   3.745   7.037 -0.3022 -0.2327  0.5996
  327MOL0     C45028   4.989   3.736   7.004  0.0236 -0.3992  0.0462
  327MOL0     C45029   5.031   3.751   6.856 -0.8675  0.0091 -0.1479
  327MOL0     C45030   5.040   3.896   6.805 -0.7042 -0.0013  0.2018
  327MOL0     C45031   5.086   3.870   6.658  0.0045  0.2854 -0.2902
  327MOL0     C45032   5.116   4.001   6.577  0.6405  0.0452  0.7102
  327MOL0    Cl45033   5.239   4.116   6.649  0.6732 -0.6218 -0.4560
  327MOL0     C45034   4.455   3.810   7.387  0.9095 -0.2867  0.1543
  327MOL0     C45035   4.360   3.891   7.457 -0.0140 -0.4710 -0.4512
  327MOL0     O45036   4.120   3.933   7.605 -0.4930 -0.0402 -0.1249
  327MOL0     C45037   4.190   4.122   7.895  0.5525  0.3523  0.0242
  327MOL0     C45038   4.132   4.188   8.002 -0.7365  0.9726  0.0595
  327MOL0     N45039   3.664   4.730   8.459 -0.3613  0.5027 -0.2384
  327MOL0     N45040   3.615   4.850   8.450 -0.6673 -0.3655  0.5220
  327MOL0     C45041   3.265   6.001   8.408  0.0120 -0.0221 -0.1484
  327MOL0     C45042   3.255   6.114   8.490 -0.4567  0.4283 -0.5934
  327MOL0     C45043   3.371   6.348   8.877  0.4741  0.6725  0.1868
  327MOL0     C45044   3.430   6.344   9.009 -0.9007  0.7762  1.0402
  327MOL0     C45045   3.422   6.453   9.091  0.0868  0.0021 -0.4545
  327MOL0     C45046   3.353   6.570   9.053 -0.7498  1.0235 -0.1107
  327MOL0     O45047   3.330   6.676   9.140 -0.4495 -0.8897 -0.1831
  327MOL0     C45048   3.261   6.640   9.263 -0.0772  0.1460 -0.3969
  327MOL0     C45049   3.338   6.693   9.384  0.7130  0.0558 -1.1256
  327MOL0     C45050   3.460   6.604   9.410  0.3611 -0.0475  0.5328
  327MOL0     C45051   3.530   6.635   9.540  0.2874 -0.4820 -0.4226
  327MOL0     C45052   3.458   6.586   9.652  0.2130 -0.1517  0.0705
  327MOL0     C45053   3.388   6.557   9.744 -0.1325 -0.4212 -0.0873
  327MOL0     C45054   3.286   6.577   8.929 -0.3414  0.7642 -0.8689
  327MOL0     C45055   3.301   6.467   8.843 -0.2559  0.5865 -1.0828
  327MOL0     C45056   3.232   6.487   8.714  0.4382 -0.7926  0.0874
  327MOL0     H45057   3.254   5.957   8.786 -2.5828  2.6190 -0.7038
  327MOL0     H45058   3.298   5.764   8.647 -1.6608  0.1758  0.6912
  327MOL0     H45059   3.251   5.592   8.308  0.8495 -0.2561 -1.0318
  327MOL0     H45060   3.267   5.611   8.481 -1.3931  3.8540  0.8289
  327MOL0     H45061   3.493   5.628   8.278 -4.0161  0.0878 -1.2156
  327MOL0     H45062   3.528   5.640   8.446 -2.1389  1.3903  1.2770
  327MOL0     H45063   3.425   5.408   8.293  1.6117 -0.6416 -1.6146
  327MOL0     H45064   3.593   5.401   8.358 -0.3139  1.5483  0.4401
  327MOL0     H45065   3.526   5.415   8.590  0.8017 -1.5881  0.6279
  327MOL0     H45066   3.356   5.411   8.546  1.0182  0.3564  0.3921
  327MOL0     H45067   3.461   5.189   8.610 -0.0470 -2.3126 -1.6513
  327MOL0     H45068   3.551   5.193   8.462  0.8066  1.6375 -1.5904
  327MOL0     H45069   3.245   5.190   8.507 -0.6159  1.5674 -0.3402
  327MOL0     H45070   3.307   5.211   8.343 -2.1833 -3.5091 -1.6000
  327MOL0     H45071   3.244   4.964   8.412 -0.4714 -0.0135  0.2191
  327MOL0     H45072   3.375   4.971   8.518  1.5649 -1.0983 -0.5608
  327MOL0     H45073   3.405   4.971   8.215  1.2663 -2.3944  0.2638
  327MOL0     H45074   3.529   5.044   8.330 -0.1820 -0.0919  1.2861
  327MOL0     H45075   3.419   4.697   8.237  0.3941  0.2206 -0.4614
  327MOL0     H45076   3.501   4.446   8.419  1.7352 -2.3265  0.3867
  327MOL0     H45077   3.662   4.473   8.464 -0.9531  2.7475  0.4314
  327MOL0     H45078   3.547   4.363   8.237 -0.2381  1.2828 -3.1688
  327MOL0     H45079   3.604   4.512   8.171  0.8322 -1.0583 -1.1246
  327MOL0     H45080   3.834   4.481   8.259 -0.7160  1.8979  3.1970
  327MOL0     H45081   3.776   4.317   8.330 -5.2282 -2.3179 -2.0107
  327MOL0     H45082   3.762   4.217   8.107  0.8813 -1.1129  1.8090
  327MOL0     H45083   3.792   4.379   8.033 -0.2508 -0.7599 -0.8363
  327MOL0     H45084   3.806   4.173   7.902  1.0605  3.1217  2.9059
  327MOL0     H45085   3.896   3.965   7.618  1.9647  1.3075 -0.0105
  327MOL0     H45086   3.867   4.138   7.598 -0.2722  2.1864  1.7004
  327MOL0     H45087   3.761   4.031   7.702  0.6768 -1.1466  0.1215
  327MOL0     H45088   4.553   4.005   7.700  2.3146 -0.3057  0.9174
  327MOL0     H45089   4.725   3.843   7.577  1.3444  1.5755 -3.3138
  327MOL0     H45090   4.590   3.670   7.190  2.3131 -0.1638 -4.0028
  327MOL0     H45091   4.664   3.830   7.196 -3.2316 -1.2170 -1.4537
  327MOL0     H45092   4.888   3.679   7.225  2.8304 -0.0980 -3.4158
  327MOL0     H45093   4.785   3.554   7.147 -0.8299 -0.1061 -3.2208
  327MOL0     H45094   4.810   3.852   7.040  0.5982 -0.0291  2.0661
  327MOL0     H45095   4.774   3.712   6.953 -0.1455  0.1729  0.3215
  327MOL0     H45096   5.033   3.644   7.043  2.4330  1.4672  2.0411
  327MOL0     H45097   5.038   3.822   7.051  0.5682 -0.8476  0.3121
  327MOL0     H45098   5.129   3.704   6.852 -0.8578 -0.0894  0.9747
  327MOL0     H45099   4.961   3.698   6.791 -0.5395  2.8089 -3.0494
  327MOL0     H45100   5.111   3.949   6.869  0.8356 -0.5549 -0.9749
  327MOL0     H45101   4.945   3.948   6.819  1.1479  2.9767  3.2083
  327MOL0     H45102   5.018   3.808   6.601 -0.8919 -1.5821  2.6018
  327MOL0     H45103   5.176   3.807   6.652 -1.5953 -2.3814  1.5063
  327MOL0     H45104   5.015   4.041   6.563  0.8889  1.7687  3.1952
  327MOL0     H45105   5.161   3.979   6.480 -1.1084 -1.1488  0.1176
  327MOL0     H45106   4.427   3.756   7.297  1.8869 -0.3957 -0.0945
  327MOL0     H45107   4.262   3.896   7.412 -0.7620 -4.8926  0.2275
  327MOL0     H45108   4.297   4.108   7.886  0.3993 -1.1586  0.3499
  327MOL0     H45109   4.196   4.215   8.085 -0.9541  1.6885  0.0005
  327MOL0     H45110   3.246   6.012   8.301 -0.5666  1.7681  0.1093
  327MOL0     H45111   3.247   6.213   8.446  3.0671  0.6434 -1.0151
  327MOL0     H45112   3.491   6.259   9.037  2.9969  1.9741 -2.7135
  327MOL0     H45113   3.476   6.437   9.184  1.5625 -1.4763 -1.5131
  327MOL0     H45114   3.161   6.683   9.255  0.2731  1.6766  2.3228
  327MOL0     H45115   3.246   6.531   9.266 -1.9019  0.2789 -2.4063
  327MOL0     H45116   3.276   6.679   9.473 -0.2291 -2.0758 -2.0562
  327MOL0     H45117   3.360   6.800   9.375 -1.1400  0.5139 -0.5452
  327MOL0     H45118   3.437   6.498   9.420  1.6787 -0.3712  0.2246
  327MOL0     H45119   3.539   6.623   9.338 -0.9696 -0.5706 -1.1226
  327MOL0     H45120   3.524   6.744   9.548 -2.4484 -0.6472  1.2831
  327MOL0     H45121   3.629   6.588   9.545  0.9624  0.8871 -0.4946
  327MOL0     H45122   3.330   6.522   9.827  0.2151  0.5085  0.5654
  327MOL0     H45123   3.216   6.658   8.913 -2.5342 -0.9277 -0.3110
  327MOL0     H45124   3.234   6.592   8.682  1.3481 -1.5204 -2.4555
  327MOL0     H45125   3.281   6.436   8.631  2.0256 -0.0819  0.5391
  327MOL0     H45126   3.127   6.460   8.731  0.2837  0.4659  1.3546
  328MOL0     O45127   9.903   3.423   9.116  0.0891  0.1773 -0.5146
  328MOL0     C45128  10.013   3.406   9.069 -0.7826  0.4990 -0.4683
  328MOL0     O45129  10.102   3.505   9.049  0.2784  0.2274 -0.3543
  328MOL0     C45130  10.063   3.623   9.085  0.9071 -0.2219 -0.7902
  328MOL0     C45131  10.006   3.715   8.990 -0.0086  0.7390  0.6208
  328MOL0     C45132   9.955   3.834   9.037 -0.1350 -0.5149  0.1807
  328MOL0     C45133   9.967   3.877   9.165 -0.5443  0.2027  0.0700
  328MOL0     O45134   9.922   4.002   9.201  0.9676 -0.4546 -0.0703
  328MOL0     C45135   9.821   3.996   9.300  0.8078 -0.7668  0.6949
  328MOL0     C45136   9.725   4.112   9.263  0.4620 -1.1173 -1.0067
  328MOL0     C45137   9.583   4.068   9.249  0.1296 -0.1480  0.1277
  328MOL0     C45138   9.574   4.003   9.105 -0.2871 -0.0982  0.5891
  328MOL0     C45139   9.437   3.920   9.087 -0.0619  1.1983  0.2586
  328MOL0     C45140   9.315   4.014   9.070 -0.3082 -0.4273 -0.0547
  328MOL0     C45141   9.187   3.927   9.072  0.5686  0.6970 -0.4130
  328MOL0     C45142   9.064   3.996   9.012 -0.0489  0.4703 -0.8534
  328MOL0     N45143   9.025   4.122   9.071 -0.6542 -0.4300 -0.1313
  328MOL0     C45144   9.074   4.238   9.010 -0.2045 -0.2543 -0.4171
  328MOL0     C45145   9.076   4.326   9.114 -1.1174  0.7728 -0.4790
  328MOL0     C45146   9.138   4.457   9.104  0.5033  0.8080  0.1402
  328MOL0     C45147   9.285   4.463   9.102  0.9742 -0.5452  0.0227
  328MOL0     C45148   9.351   4.538   9.218  0.7751 -0.2645 -0.1621
  328MOL0     C45149   9.323   4.461   9.352 -0.8387  0.3120 -0.2356
  328MOL0     O45150   9.442   4.447   9.430  0.7677  0.4506 -0.2606
  328MOL0     C45151   9.498   4.550   9.509  1.1763  0.5621  0.2286
  328MOL0     C45152   9.602   4.517   9.602  0.7944  0.1433 -0.1138
  328MOL0     C45153   9.660   4.610   9.681  0.0247 -0.1961 -1.1074
  328MOL0     C45154   9.744   4.551   9.790  0.3022  0.2051 -0.6272
  328MOL0     C45155   9.647   4.741   9.647 -0.0762  0.2603 -0.6242
  328MOL0     C45156   9.717   4.855   9.716  0.4089 -0.5064 -0.8126
  328MOL0     O45157   9.652   4.979   9.705  0.6367 -0.3741 -0.5154
  328MOL0     C45158   9.722   5.099   9.726  0.5563  0.4507  0.4360
  328MOL0     C45159   9.805   5.132   9.837  0.1334  0.4458 -0.2530
  328MOL0     C45160   9.891   5.236   9.828  0.8429  0.1974 -0.5019
  328MOL0     C45161   9.897   5.330   9.724 -0.0700  0.4108 -0.1631
  328MOL0     O45162   9.988   5.427   9.726 -0.2988 -0.1937 -0.4390
  328MOL0     C45163  10.127   5.397   9.712  0.2380 -0.2775 -0.5059
  328MOL0     C45164  10.207   5.484   9.807  0.9349  1.0504  0.3091
  328MOL0     C45165  10.183   5.425   9.947 -0.3668  0.2373 -0.0604
  328MOL0     C45166  10.273   5.505  10.034 -0.4928 -0.3844  0.2861
  328MOL0     C45167  10.275   5.441  10.163  0.2462  0.6152 -0.0949
  328MOL0     C45168  10.363   5.521  10.273  0.3140  0.5311  0.7493
  328MOL0     C45169  10.362   5.435  10.403 -0.4264  0.3001 -0.2812
  328MOL0     C45170  10.488   5.464  10.493 -0.0832 -0.4734 -0.1681
  328MOL0    Cl45171  10.442   5.630  10.559 -0.2938  0.1184  0.4378
  328MOL0     C45172   9.809   5.306   9.618  0.3182  0.8129 -0.3065
  328MOL0     C45173   9.725   5.194   9.618  0.3582 -0.1107 -0.8031
  328MOL0     O45174   9.835   4.845   9.752  0.1153  0.4115 -0.2721
  328MOL0     C45175   9.538   4.777   9.571  0.7282  0.3531 -0.5650
  328MOL0     C45176   9.463   4.678   9.497 -0.3785 -0.1236  0.0050
  328MOL0     N45177   9.009   4.269   9.224 -0.0446  0.8015  0.0818
  328MOL0     N45178   8.975   4.146   9.192 -0.1146  0.6417  0.2767
  328MOL0     C45179  10.028   3.787   9.259  0.7167 -0.1942 -0.2013
  328MOL0     C45180  10.078   3.660   9.221  0.2924 -0.7463 -0.5937
  328MOL0     C45181  10.049   3.262   9.038 -0.2172  0.4620  0.6543
  328MOL0     C45182   9.944   3.162   9.024 -0.2516 -0.6014 -1.1508
  328MOL0     C45183   9.973   3.036   8.985 -0.5894  0.0754  0.8020
  328MOL0     C45184  10.099   2.997   8.974 -0.3309  0.9757 -0.2301
  328MOL0     O45185  10.110   2.867   8.927  0.3984  0.1212  0.0589
  328MOL0     C45186  10.236   2.790   8.911  0.0281 -0.0584 -0.2586
  328MOL0     C45187  10.301   2.793   8.770 -0.8308 -0.2811  0.2143
  328MOL0     C45188  10.239   2.705   8.659 -0.6726 -0.4137 -0.6641
  328MOL0     C45189  10.090   2.729   8.621 -0.0311 -0.2593 -0.6059
  328MOL0     C45190  10.069   2.636   8.509 -0.3175 -0.6849  0.0406
  328MOL0     C45191  10.062   2.554   8.422 -0.2860 -0.1543  0.3997
  328MOL0     C45192  10.208   3.083   8.995  0.6036  0.3514  0.2974
  328MOL0     C45193  10.186   3.220   9.029 -0.1374  0.5808  0.8317
  328MOL0     C45194  10.308   3.296   9.073  0.4652  0.9240  0.1749
  328MOL0     H45195   9.992   3.679   8.888  0.9293  2.9839 -0.3710
  328MOL0     H45196   9.907   3.891   8.958 -2.1430 -0.4255  1.4014
  328MOL0     H45197   9.853   4.009   9.404  1.5301  2.1786  0.1707
  328MOL0     H45198   9.770   3.899   9.302  3.8491 -2.4744  0.8086
  328MOL0     H45199   9.729   4.192   9.337  1.9756  0.6869 -2.8914
  328MOL0     H45200   9.757   4.173   9.178 -0.0404  0.6377  0.0248
  328MOL0     H45201   9.561   3.993   9.325  0.8684 -1.5898 -1.0106
  328MOL0     H45202   9.511   4.150   9.257  0.7095  0.4401 -0.4930
  328MOL0     H45203   9.580   4.070   9.019 -1.9645 -0.6146  0.0349
  328MOL0     H45204   9.661   3.937   9.095 -0.9484 -1.3510  2.5459
  328MOL0     H45205   9.421   3.857   9.175  0.3995 -3.0163 -2.3895
  328MOL0     H45206   9.437   3.844   9.008 -1.8549 -2.2268  3.2648
  328MOL0     H45207   9.320   4.090   9.148 -4.1585  0.0083 -0.0274
  328MOL0     H45208   9.320   4.074   8.978 -0.7869  2.3738  1.6591
  328MOL0     H45209   9.157   3.902   9.174  1.4644 -2.8896 -0.9036
  328MOL0     H45210   9.215   3.840   9.013  4.7532  0.9585  0.8467
  328MOL0     H45211   9.079   3.996   8.904 -4.5448  0.5447 -1.6559
  328MOL0     H45212   8.986   3.922   9.033 -0.3676  1.3674  1.3848
  328MOL0     H45213   9.120   4.254   8.913  1.2374 -1.4751  0.0335
  328MOL0     H45214   9.096   4.511   9.190 -2.5337  0.9317 -1.2727
  328MOL0     H45215   9.094   4.516   9.023 -2.7462 -1.2278  0.2134
  328MOL0     H45216   9.328   4.363   9.105 -1.2803 -1.5668  0.4375
  328MOL0     H45217   9.318   4.503   9.005  0.4703 -1.0097 -0.3512
  328MOL0     H45218   9.458   4.548   9.199  0.4911 -0.3387 -1.9359
  328MOL0     H45219   9.328   4.645   9.217 -1.5620 -0.7156  0.5778
  328MOL0     H45220   9.259   4.520   9.418 -2.6466 -0.2588 -1.4374
  328MOL0     H45221   9.289   4.359   9.334  3.7005 -1.3693 -0.7001
  328MOL0     H45222   9.609   4.410   9.620 -0.1937  0.0050 -0.4544
  328MOL0     H45223   9.853   4.561   9.785  0.2539  2.4311  1.2432
  328MOL0     H45224   9.726   4.444   9.801 -1.3733  0.4083 -1.1555
  328MOL0     H45225   9.717   4.595   9.887 -0.0137 -0.1428 -0.5549
  328MOL0     H45226   9.803   5.064   9.922  0.6034  0.5450 -0.1583
  328MOL0     H45227   9.951   5.248   9.918  1.2502 -0.0823 -0.7306
  328MOL0     H45228  10.143   5.291   9.731 -2.8946 -0.6047  0.9455
  328MOL0     H45229  10.151   5.405   9.605  2.8239 -1.3982 -0.0780
  328MOL0     H45230  10.311   5.479   9.774 -0.0493  0.0346 -3.0601
  328MOL0     H45231  10.167   5.586   9.805 -0.5606  0.5866  2.6467
  328MOL0     H45232  10.204   5.318   9.947  1.1691  0.4908 -1.4480
  328MOL0     H45233  10.084   5.433   9.991  0.0999  1.7369  0.7921
  328MOL0     H45234  10.229   5.605  10.033 -2.1260 -0.9538 -4.3109
  328MOL0     H45235  10.371   5.516   9.987  0.3174  0.7616  2.0829
  328MOL0     H45236  10.171   5.434  10.195 -0.0887 -1.8926 -1.5026
  328MOL0     H45237  10.304   5.336  10.151 -3.2368 -0.2329 -2.6200
  328MOL0     H45238  10.315   5.616  10.299  0.6219  0.6956  0.7143
  328MOL0     H45239  10.462   5.537  10.230 -1.3814 -0.3905 -4.3072
  328MOL0     H45240  10.373   5.330  10.374  0.2523  0.7264 -1.6405
  328MOL0     H45241  10.276   5.446  10.470 -0.7643 -0.6599 -0.5399
  328MOL0     H45242  10.571   5.470  10.423 -0.0795 -0.7505 -0.1877
  328MOL0     H45243  10.516   5.393  10.572  0.9759 -0.6196 -0.6565
  328MOL0     H45244   9.806   5.364   9.526 -0.4210  0.1640 -0.7035
  328MOL0     H45245   9.680   5.175   9.522  1.8512  0.4426 -1.6458
  328MOL0     H45246   9.498   4.878   9.560 -0.4563 -0.0477 -0.1543
  328MOL0     H45247   9.385   4.722   9.435 -3.6775 -0.9792  3.1818
  328MOL0     H45248  10.037   3.829   9.359  0.8503 -0.2507 -0.1889
  328MOL0     H45249  10.131   3.597   9.292 -0.1625  0.9766  1.3955
  328MOL0     H45250   9.840   3.192   9.027  0.1667  1.0049 -1.4457
  328MOL0     H45251   9.892   2.967   8.964  0.2611 -0.3093 -1.5218
  328MOL0     H45252  10.317   2.824   8.977 -0.0196 -1.0887  0.3668
  328MOL0     H45253  10.220   2.683   8.933 -1.2118 -0.2099 -1.7603
  328MOL0     H45254  10.400   2.750   8.784 -0.0107  0.6032 -2.4397
  328MOL0     H45255  10.322   2.893   8.730  1.1825 -1.9421 -3.2853
  328MOL0     H45256  10.315   2.702   8.580 -0.3704 -0.7688 -0.3646
  328MOL0     H45257  10.240   2.608   8.709 -0.5660 -0.7369 -1.2822
  328MOL0     H45258  10.078   2.834   8.591  2.4622 -0.0175 -1.0015
  328MOL0     H45259  10.030   2.699   8.708  2.5455 -2.0299  0.6831
  328MOL0     H45260  10.053   2.480   8.345  2.5776  1.5455 -1.7806
  328MOL0     H45261  10.308   3.041   8.997  0.6646  0.5114  0.9398
  328MOL0     H45262  10.363   3.227   9.137 -2.6646  0.5544  2.7525
  328MOL0     H45263  10.373   3.321   8.989 -1.5547  1.9042 -1.1782
  328MOL0     H45264  10.291   3.378   9.144  5.4275 -1.5683  4.9715
  329MOL0     O45265   7.570   5.594   2.948 -0.1230  0.3771 -1.2636
  329MOL0     C45266   7.458   5.622   2.912 -1.0604  0.2314 -0.3496
  329MOL0     O45267   7.398   5.597   2.793  0.1507  0.6600  0.8100
  329MOL0     C45268   7.473   5.565   2.678  0.1365 -0.2413  0.5893
  329MOL0     C45269   7.528   5.439   2.687  0.0022  0.5474  0.4638
  329MOL0     C45270   7.637   5.402   2.604 -0.5623 -0.5874 -0.8422
  329MOL0     C45271   7.672   5.485   2.495  0.3133 -0.0019  0.0107
  329MOL0     O45272   7.782   5.465   2.412 -0.3764 -0.3124 -0.2197
  329MOL0     C45273   7.832   5.329   2.416 -0.2220  0.1910 -0.2581
  329MOL0     C45274   7.924   5.301   2.295  0.5408 -0.9087  0.3871
  329MOL0     C45275   7.893   5.158   2.245  0.1768 -1.1307 -0.9191
  329MOL0     C45276   7.910   5.119   2.097  0.0650 -0.5810  0.1812
  329MOL0     C45277   8.048   5.096   2.038  0.0782 -0.5368  0.0010
  329MOL0     C45278   8.106   5.238   1.992 -0.3049  0.6383  0.5995
  329MOL0     C45279   8.196   5.225   1.865 -0.3992  0.2871  0.3265
  329MOL0     C45280   8.210   5.355   1.790  0.4472  0.4989 -0.2898
  329MOL0     N45281   8.297   5.316   1.673  0.6193  0.9381 -0.2446
  329MOL0     C45282   8.423   5.359   1.658  0.8306  0.5393 -0.0816
  329MOL0     C45283   8.475   5.294   1.553  0.0550 -0.4218 -0.1754
  329MOL0     C45284   8.591   5.305   1.467  0.3720  0.7434  0.1365
  329MOL0     C45285   8.722   5.321   1.541 -0.6819 -0.4731 -0.1389
  329MOL0     C45286   8.774   5.184   1.576  0.4329  0.4209  0.7362
  329MOL0     C45287   8.911   5.188   1.642  0.2215  0.3240  0.3956
  329MOL0     O45288   8.918   5.058   1.708  0.4144 -0.2092  0.8543
  329MOL0     C45289   9.042   5.005   1.738  0.2906  0.2977 -0.0160
  329MOL0     C45290   9.069   4.868   1.745  0.0408  0.7794 -0.5387
  329MOL0     C45291   9.197   4.820   1.778 -1.2738 -0.5480 -0.0135
  329MOL0     C45292   9.233   4.671   1.776 -0.5377  0.0361 -0.9435
  329MOL0     C45293   9.304   4.915   1.804 -0.8678 -0.3100  0.3160
  329MOL0     C45294   9.433   4.868   1.859  0.2122 -0.7238  0.0036
  329MOL0     O45295   9.546   4.932   1.805 -0.5852  0.1733 -0.5975
  329MOL0     C45296   9.668   4.886   1.860 -0.2918  0.3272  0.1567
  329MOL0     C45297   9.696   4.754   1.834 -0.2191  0.1614 -0.1893
  329MOL0     C45298   9.809   4.687   1.893  0.4251  0.7450 -0.3972
  329MOL0     C45299   9.902   4.764   1.966  0.6878  0.7142  0.5138
  329MOL0     O45300  10.027   4.713   1.995  0.2229  0.0267  0.0647
  329MOL0     C45301  10.093   4.749   2.118 -0.9652  0.0287  0.6349
  329MOL0     C45302  10.182   4.633   2.157  0.8778 -0.6107 -0.0872
  329MOL0     C45303  10.300   4.610   2.067 -0.4844  0.5143 -1.2752
  329MOL0     C45304  10.344   4.457   2.075 -0.2447 -0.3642  0.6294
  329MOL0     C45305  10.469   4.433   1.995  0.3762  0.4763  0.1033
  329MOL0     C45306  10.535   4.296   2.004  0.6795 -0.9659  0.0926
  329MOL0     C45307  10.445   4.176   2.019  0.6705 -0.0672  0.4805
  329MOL0     C45308  10.472   4.069   1.922 -0.2514 -0.3508  0.7748
  329MOL0    Cl45309  10.437   4.149   1.757 -0.7300 -0.5418 -0.0176
  329MOL0     C45310   9.878   4.898   1.970  0.1225  0.3345 -0.7795
  329MOL0     C45311   9.765   4.962   1.919  0.7005 -0.4617 -1.1792
  329MOL0     O45312   9.430   4.796   1.961 -0.1520 -0.4924  0.8259
  329MOL0     C45313   9.274   5.052   1.790  0.0250  0.1054 -0.5421
  329MOL0     C45314   9.147   5.095   1.757 -0.2622  0.3624 -0.2901
  329MOL0     N45315   8.386   5.207   1.511 -0.3197  0.1691 -0.6078
  329MOL0     N45316   8.281   5.211   1.587  0.1337  0.7712 -0.2157
  329MOL0     C45317   7.614   5.599   2.468  0.2095 -0.2432 -0.0632
  329MOL0     C45318   7.507   5.641   2.559 -0.1000 -0.2749 -0.2893
  329MOL0     C45319   7.382   5.721   3.002 -1.2117 -0.6999 -0.0777
  329MOL0     C45320   7.266   5.796   2.948  0.0056 -0.5845  0.0317
  329MOL0     C45321   7.184   5.886   3.019 -0.6270  0.0933 -0.3344
  329MOL0     C45322   7.215   5.902   3.161  0.4147 -0.2661 -0.1443
  329MOL0     O45323   7.140   5.978   3.251 -0.0440  0.0199 -0.5897
  329MOL0     C45324   7.068   6.089   3.197  0.2589 -0.5319  1.2379
  329MOL0     C45325   7.043   6.197   3.298  0.3561 -0.6804 -0.1397
  329MOL0     C45326   7.167   6.285   3.302  0.0753 -0.2024  0.1516
  329MOL0     C45327   7.179   6.387   3.416  0.5443 -0.1465  0.4355
  329MOL0     C45328   7.288   6.375   3.511 -0.4158 -1.1136  0.2048
  329MOL0     C45329   7.377   6.357   3.589 -0.1848  0.2019  0.5241
  329MOL0     C45330   7.317   5.826   3.219  0.1905 -0.1104  0.1265
  329MOL0     C45331   7.400   5.745   3.141 -0.8961 -1.2309  0.6901
  329MOL0     C45332   7.513   5.675   3.215 -1.1528  0.3327 -0.1461
  329MOL0     H45333   7.513   5.370   2.769  2.4310 -0.2253  0.3537
  329MOL0     H45334   7.703   5.321   2.632 -2.2369 -1.2299  1.6105
  329MOL0     H45335   7.745   5.262   2.414  0.1363 -0.2866 -2.0205
  329MOL0     H45336   7.888   5.295   2.503 -0.8651  1.8660  0.8639
  329MOL0     H45337   7.902   5.372   2.215  0.2124 -0.8675  0.5097
  329MOL0     H45338   8.030   5.307   2.319 -0.2330  1.4747  4.0632
  329MOL0     H45339   7.966   5.089   2.290  2.6020  1.8690  0.0907
  329MOL0     H45340   7.787   5.135   2.260  0.3006 -1.0031  0.3008
  329MOL0     H45341   7.858   5.023   2.082  2.9334 -2.0148 -1.3596
  329MOL0     H45342   7.867   5.190   2.026  0.0144  0.0587  0.8447
  329MOL0     H45343   8.052   5.030   1.950  3.0293  0.4949 -0.7508
  329MOL0     H45344   8.107   5.049   2.117  0.0576 -0.8036 -0.1394
  329MOL0     H45345   8.027   5.311   1.972  1.2288  3.0517  2.6356
  329MOL0     H45346   8.170   5.264   2.078 -0.0616  0.7820  0.3748
  329MOL0     H45347   8.147   5.151   1.800 -0.9448  1.6644 -0.8872
  329MOL0     H45348   8.297   5.197   1.896  1.3317  2.7456 -2.5042
  329MOL0     H45349   8.113   5.388   1.751 -0.1446 -0.6397  0.1981
  329MOL0     H45350   8.257   5.439   1.843 -0.8642 -0.5925  2.8393
  329MOL0     H45351   8.465   5.437   1.719  3.8289  0.3967 -1.7741
  329MOL0     H45352   8.581   5.399   1.411 -1.3402  0.6651  0.2671
  329MOL0     H45353   8.600   5.232   1.386  0.7578  1.0746 -0.1288
  329MOL0     H45354   8.797   5.365   1.475 -1.0540  0.7181  0.2067
  329MOL0     H45355   8.712   5.365   1.640  1.0234 -4.0073  1.8013
  329MOL0     H45356   8.704   5.136   1.646 -2.4264  0.2772 -1.9788
  329MOL0     H45357   8.788   5.131   1.481  1.8876  3.1656 -0.6771
  329MOL0     H45358   8.984   5.212   1.564 -0.9799 -2.3367 -1.6996
  329MOL0     H45359   8.904   5.271   1.714 -0.0725 -0.0452  0.7967
  329MOL0     H45360   8.989   4.798   1.721  0.8629 -0.3851  0.0331
  329MOL0     H45361   9.152   4.627   1.834 -1.4081 -0.4131 -2.4529
  329MOL0     H45362   9.327   4.640   1.822 -1.6648  0.0366  1.5135
  329MOL0     H45363   9.220   4.626   1.677 -0.7593  0.0040 -0.8989
  329MOL0     H45364   9.622   4.707   1.771 -1.7102  4.6892 -2.2220
  329MOL0     H45365   9.821   4.581   1.877  2.2123  0.9633 -0.7335
  329MOL0     H45366  10.159   4.833   2.096  1.6246 -1.6636  1.4471
  329MOL0     H45367  10.019   4.774   2.195 -1.0318  1.9021  0.0120
  329MOL0     H45368  10.226   4.652   2.255 -1.5009 -0.3158  0.9678
  329MOL0     H45369  10.121   4.543   2.161 -0.6385  0.1681 -2.9856
  329MOL0     H45370  10.380   4.680   2.096  0.3572  0.0200 -2.3104
  329MOL0     H45371  10.277   4.626   1.962 -1.7603 -2.0912 -1.4715
  329MOL0     H45372  10.253   4.413   2.032 -2.8359  4.3881  0.5138
  329MOL0     H45373  10.357   4.413   2.174 -1.0752  1.3402  1.5575
  329MOL0     H45374  10.428   4.441   1.894 -0.6649 -1.3028  0.3374
  329MOL0     H45375  10.545   4.509   2.013  1.6724 -0.9027  0.6671
  329MOL0     H45376  10.596   4.297   2.094 -0.5861 -0.3094  0.9723
  329MOL0     H45377  10.587   4.289   1.907 -3.0149 -0.2934 -2.1397
  329MOL0     H45378  10.338   4.195   2.004  0.4105 -0.8521  1.2983
  329MOL0     H45379  10.449   4.144   2.123 -2.4777  1.3626  1.1809
  329MOL0     H45380  10.397   3.992   1.941 -0.7046  0.4507  2.4149
  329MOL0     H45381  10.574   4.031   1.929  0.1757  0.9471  2.4075
  329MOL0     H45382   9.947   4.972   2.009  0.7094 -0.7244  0.2534
  329MOL0     H45383   9.747   5.068   1.909  1.5428  0.0265  1.4819
  329MOL0     H45384   9.352   5.124   1.811 -2.4098  2.0426  2.8852
  329MOL0     H45385   9.142   5.203   1.745  0.3407  0.2576 -1.7951
  329MOL0     H45386   7.647   5.663   2.386  0.0136 -0.1394 -0.0614
  329MOL0     H45387   7.451   5.734   2.550 -0.1968 -0.3191 -0.1416
  329MOL0     H45388   7.249   5.793   2.841  0.9453  1.6101 -0.2518
  329MOL0     H45389   7.099   5.933   2.970 -2.1752 -3.6225 -1.6129
  329MOL0     H45390   7.122   6.139   3.116 -1.5926  1.9938  1.4361
  329MOL0     H45391   6.971   6.059   3.154 -0.4171  4.0134 -1.0116
  329MOL0     H45392   7.001   6.151   3.388 -1.2622  1.0505  0.0626
  329MOL0     H45393   6.971   6.264   3.250  0.5759  0.9240  1.6110
  329MOL0     H45394   7.258   6.229   3.326  0.1584 -0.9582 -1.7587
  329MOL0     H45395   7.179   6.326   3.201  0.1577 -1.4517 -0.3666
  329MOL0     H45396   7.090   6.370   3.477 -0.6849  4.4336  0.2766
  329MOL0     H45397   7.168   6.486   3.370  2.3665 -2.3511 -5.7292
  329MOL0     H45398   7.461   6.336   3.652  1.3505  2.3305 -0.6670
  329MOL0     H45399   7.347   5.838   3.322  3.8128  0.2792 -0.8455
  329MOL0     H45400   7.499   5.678   3.323  1.2183 -0.8927  0.2792
  329MOL0     H45401   7.532   5.572   3.184 -5.0369 -0.7416  0.5966
  329MOL0     H45402   7.613   5.718   3.199 -1.4361  1.1192  0.1460
  330MOL0     O45403   1.127   1.174   0.949 -0.4986 -1.0945  0.7792
  330MOL0     C45404   1.131   1.171   0.829  0.4807 -0.0540  0.7982
  330MOL0     O45405   1.126   1.280   0.743  0.3472 -0.0740  0.5068
  330MOL0     C45406   1.062   1.396   0.795  0.1611  0.3748  0.8458
  330MOL0     C45407   1.136   1.480   0.876 -0.0018  0.2930  0.0476
  330MOL0     C45408   1.086   1.609   0.905  0.4577 -0.5748  0.1606
  330MOL0     C45409   0.952   1.643   0.855 -0.3116  0.3931  0.0709
  330MOL0     O45410   0.886   1.758   0.868  1.2754  0.5039  0.0111
  330MOL0     C45411   0.923   1.863   0.955  0.1793  0.6042 -0.1744
  330MOL0     C45412   0.830   1.980   0.942  0.9304 -1.5058  0.1710
  330MOL0     C45413   0.698   1.969   1.031  0.1614  0.2087 -0.4786
  330MOL0     C45414   0.615   1.841   1.021 -0.3378 -0.0412  0.0920
  330MOL0     C45415   0.537   1.823   0.887  0.1143 -0.3599 -0.0893
  330MOL0     C45416   0.415   1.729   0.910 -0.2327 -0.1058 -0.3266
  330MOL0     C45417   0.370   1.666   0.781 -0.1725  0.4050  0.8071
  330MOL0     C45418   0.266   1.557   0.794 -0.6358 -0.1747 -0.7998
  330MOL0     N45419   0.321   1.423   0.832  0.5016  0.1754  0.1328
  330MOL0     C45420   0.381   1.406   0.952  0.8052 -0.4131 -0.3990
  330MOL0     C45421   0.415   1.268   0.946 -0.9036  0.3439 -0.4896
  330MOL0     C45422   0.491   1.192   1.057 -0.2566 -0.1782  0.0638
  330MOL0     C45423   0.633   1.138   1.026 -0.3632 -0.5788  0.0528
  330MOL0     C45424   0.716   1.261   0.976 -0.4567 -0.6847 -0.1105
  330MOL0     C45425   0.774   1.360   1.080 -0.5118  0.0868  0.1775
  330MOL0     O45426   0.664   1.422   1.144  0.3319  0.1938  0.1171
  330MOL0     C45427   0.685   1.534   1.217 -0.2753 -0.6116 -0.4244
  330MOL0     C45428   0.567   1.595   1.261 -0.8195 -0.2785 -0.0846
  330MOL0     C45429   0.555   1.716   1.332 -0.2725  0.6549  0.0230
  330MOL0     C45430   0.422   1.737   1.400 -0.9441 -0.6570 -1.1797
  330MOL0     C45431   0.676   1.785   1.351  0.1960 -0.4503 -0.0591
  330MOL0     C45432   0.672   1.928   1.399  0.4098 -0.0701 -0.1530
  330MOL0     O45433   0.792   1.997   1.394  0.0626 -0.7109  0.3004
  330MOL0     C45434   0.804   2.124   1.434  0.6601  0.0724 -0.0138
  330MOL0     C45435   0.817   2.140   1.570 -0.4623 -0.4592  0.7219
  330MOL0     C45436   0.834   2.273   1.614  0.1833 -0.8161 -0.6447
  330MOL0     C45437   0.832   2.388   1.530  0.0115  0.1510 -0.4517
  330MOL0     O45438   0.861   2.504   1.575  0.1908 -0.5033 -0.1898
  330MOL0     C45439   0.817   2.556   1.705 -0.2212  0.7387 -0.8217
  330MOL0     C45440   0.870   2.697   1.724 -0.0238 -0.4910 -0.0621
  330MOL0     C45441   0.762   2.798   1.717  0.3695 -0.2886  0.2606
  330MOL0     C45442   0.812   2.942   1.755 -0.1882  0.0468  0.4792
  330MOL0     C45443   0.709   3.060   1.713  0.6497 -0.5207 -0.6133
  330MOL0     C45444   0.578   3.049   1.798  0.8831  0.2655 -0.1247
  330MOL0     C45445   0.458   3.107   1.729 -0.2403  0.0993 -0.3482
  330MOL0     C45446   0.324   3.126   1.801 -0.5236 -0.8982 -0.4084
  330MOL0    Cl45447   0.327   3.276   1.916  0.2484 -0.3619 -0.4243
  330MOL0     C45448   0.816   2.361   1.390 -0.1465 -0.6176 -0.7572
  330MOL0     C45449   0.800   2.232   1.346 -0.6804 -0.1702 -0.6783
  330MOL0     O45450   0.569   1.980   1.434  0.5723  0.0507 -0.2626
  330MOL0     C45451   0.804   1.734   1.304  1.0386 -0.6129 -1.3076
  330MOL0     C45452   0.802   1.610   1.238 -0.1852 -1.3366  0.0553
  330MOL0     N45453   0.353   1.219   0.835 -0.5830  0.3534  0.7779
  330MOL0     N45454   0.305   1.305   0.762 -0.1417  0.2065  0.0116
  330MOL0     C45455   0.877   1.543   0.782 -0.2237 -0.3687 -0.9325
  330MOL0     C45456   0.939   1.421   0.753  0.2812 -1.4365  0.0389
  330MOL0     C45457   1.155   1.035   0.755  0.0349 -0.0430  0.0810
  330MOL0     C45458   1.182   1.048   0.616  0.9936  0.0424  0.0753
  330MOL0     C45459   1.186   0.930   0.549  0.2560 -0.4313 -0.2154
  330MOL0     C45460   1.182   0.795   0.608  0.3813 -0.1608  0.0973
  330MOL0     O45461   1.202   0.683   0.529  0.2062  0.0227 -0.5304
  330MOL0     C45462   1.147   0.561   0.575 -0.4043 -0.5272  0.1087
  330MOL0     C45463   1.140   0.452   0.459 -0.0653  0.0602 -0.3694
  330MOL0     C45464   1.136   0.518   0.319 -0.5458 -0.4395  0.2148
  330MOL0     C45465   1.079   0.425   0.204 -0.4347 -0.2146  0.9084
  330MOL0     C45466   0.933   0.424   0.212  0.1862  0.4893 -0.8494
  330MOL0     C45467   0.811   0.438   0.239 -0.3174  0.3552 -1.6141
  330MOL0     C45468   1.157   0.791   0.745  0.2861  0.3975  0.3636
  330MOL0     C45469   1.141   0.903   0.824 -0.8477 -0.7665  0.2758
  330MOL0     C45470   1.083   0.867   0.962  0.1962  0.0083  0.9370
  330MOL0     H45471   1.239   1.464   0.903 -0.6208  1.6037  3.7691
  330MOL0     H45472   1.150   1.660   0.976 -1.7948  0.8500  1.2633
  330MOL0     H45473   1.028   1.884   0.934  0.4627  1.3275  1.7451
  330MOL0     H45474   0.927   1.839   1.062 -2.4063  1.6142  0.2198
  330MOL0     H45475   0.887   2.070   0.966  1.1202 -0.4776 -3.6024
  330MOL0     H45476   0.797   1.992   0.838 -0.8640 -1.7707  0.6631
  330MOL0     H45477   0.736   1.970   1.134  4.1172 -1.6978 -1.7074
  330MOL0     H45478   0.637   2.059   1.022 -1.7873 -0.8017  1.5164
  330MOL0     H45479   0.679   1.754   1.039  1.5432  1.2159 -0.2652
  330MOL0     H45480   0.537   1.851   1.097 -0.7057 -0.2192 -0.2599
  330MOL0     H45481   0.606   1.795   0.806 -0.3821 -1.1116 -0.2705
  330MOL0     H45482   0.493   1.919   0.861  1.7844  0.0394 -1.6087
  330MOL0     H45483   0.454   1.649   0.974  1.3836  1.1078  0.2852
  330MOL0     H45484   0.329   1.772   0.962  0.1142 -1.9483  1.9187
  330MOL0     H45485   0.464   1.632   0.735  0.3734  1.4392  1.1112
  330MOL0     H45486   0.339   1.745   0.712  3.1097  1.0988 -0.0785
  330MOL0     H45487   0.190   1.600   0.860  0.3129 -2.1186  1.7184
  330MOL0     H45488   0.219   1.542   0.697 -1.6440  0.7134 -0.4614
  330MOL0     H45489   0.392   1.488   1.023  2.5632  0.3248 -1.4484
  330MOL0     H45490   0.432   1.102   1.077  1.3967 -1.8821 -2.2936
  330MOL0     H45491   0.483   1.266   1.137 -0.5006  1.4910 -1.4507
  330MOL0     H45492   0.686   1.110   1.118  0.2705  1.3761  0.3278
  330MOL0     H45493   0.641   1.057   0.953  2.5222 -1.9476  1.7090
  330MOL0     H45494   0.804   1.225   0.922  2.5158  0.6814  3.4173
  330MOL0     H45495   0.657   1.312   0.899 -0.6440 -2.2024 -1.0097
  330MOL0     H45496   0.839   1.320   1.158 -0.7816  3.1499  2.1415
  330MOL0     H45497   0.839   1.435   1.034  0.4342 -0.8506 -0.0444
  330MOL0     H45498   0.472   1.545   1.245 -0.9259 -0.9088  2.1511
  330MOL0     H45499   0.362   1.803   1.336  0.5599  1.4315 -0.5500
  330MOL0     H45500   0.428   1.766   1.505  0.1895 -1.8245 -0.8988
  330MOL0     H45501   0.376   1.639   1.409  0.3942 -1.0863  2.7112
  330MOL0     H45502   0.809   2.064   1.647  1.4907 -0.8406  0.5827
  330MOL0     H45503   0.852   2.298   1.718 -3.0108  3.8852 -0.8723
  330MOL0     H45504   0.710   2.537   1.718  0.4256 -2.0100  1.2388
  330MOL0     H45505   0.875   2.499   1.778  1.8076  0.0638 -2.8316
  330MOL0     H45506   0.920   2.722   1.818  1.7181  0.5195 -1.2130
  330MOL0     H45507   0.933   2.724   1.639 -1.9471  2.6741 -0.6550
  330MOL0     H45508   0.679   2.773   1.784  0.3206 -3.3002 -0.7591
  330MOL0     H45509   0.723   2.800   1.615  2.8524 -4.2506 -1.0351
  330MOL0     H45510   0.907   2.962   1.704  0.7518 -2.7844  0.9394
  330MOL0     H45511   0.843   2.940   1.860  0.1108  0.9668  0.4246
  330MOL0     H45512   0.768   3.149   1.736  1.8452 -1.1928 -1.0032
  330MOL0     H45513   0.684   3.062   1.606 -0.5316 -0.1457 -0.3479
  330MOL0     H45514   0.598   3.080   1.900  2.3398 -1.4980  0.1660
  330MOL0     H45515   0.553   2.943   1.798  0.4286  0.3506 -1.2934
  330MOL0     H45516   0.439   3.035   1.649  0.1344 -1.1903  0.6904
  330MOL0     H45517   0.488   3.208   1.701  0.6284  1.1050  3.6508
  330MOL0     H45518   0.292   3.034   1.850  0.1840 -1.5494 -1.1358
  330MOL0     H45519   0.247   3.158   1.730  0.0660 -1.6019 -1.3922
  330MOL0     H45520   0.806   2.450   1.329  0.1331  1.6555  2.2620
  330MOL0     H45521   0.769   2.231   1.242  2.0271  2.1197 -1.6246
  330MOL0     H45522   0.893   1.797   1.307 -0.1184  1.4113 -4.4764
  330MOL0     H45523   0.896   1.579   1.193  1.5445 -0.1882  2.6188
  330MOL0     H45524   0.780   1.578   0.747 -0.5681 -1.6586 -1.3138
  330MOL0     H45525   0.873   1.348   0.706  0.4231 -0.9378 -0.9596
  330MOL0     H45526   1.197   1.137   0.556  3.1416 -0.6205 -0.4648
  330MOL0     H45527   1.182   0.943   0.441  2.3392 -1.6987 -0.5138
  330MOL0     H45528   1.209   0.542   0.663 -1.7966 -2.2133  0.7937
  330MOL0     H45529   1.044   0.570   0.611  0.0358  4.7005  0.9207
  330MOL0     H45530   1.066   0.373   0.470 -0.9550  1.1583  2.3866
  330MOL0     H45531   1.241   0.410   0.456 -0.1783 -0.1798 -1.4040
  330MOL0     H45532   1.073   0.607   0.323 -0.5443 -0.4578  0.8146
  330MOL0     H45533   1.234   0.560   0.294 -0.2250 -1.3300 -0.0763
  330MOL0     H45534   1.128   0.327   0.206  3.7650  1.6339 -0.5875
  330MOL0     H45535   1.107   0.480   0.114  0.6511  0.8062  1.8471
  330MOL0     H45536   0.708   0.454   0.261  0.1515  0.6239  0.6353
  330MOL0     H45537   1.146   0.690   0.783 -2.2484 -0.2376 -1.7790
  330MOL0     H45538   1.079   0.953   1.029  1.1856  0.5140  0.3632
  330MOL0     H45539   0.976   0.846   0.948 -0.7093  4.3208  0.0341
  330MOL0     H45540   1.149   0.793   1.009  3.5710  1.4269 -1.1912
  331MOL0     O45541   5.108   1.927  10.963  0.7059 -0.4056  0.4115
  331MOL0     C45542   5.196   2.013  10.962 -0.3123 -0.2919 -0.2781
  331MOL0     O45543   5.262   2.061  11.071 -0.3236  0.4549  0.0990
  331MOL0     C45544   5.212   2.059  11.201  0.4680  0.5298 -0.5234
  331MOL0     C45545   5.296   2.057  11.310  0.5949  0.2523  0.2207
  331MOL0     C45546   5.240   2.063  11.443  0.5580  0.6319  0.1542
  331MOL0     C45547   5.102   2.069  11.466  0.0169 -0.0697  0.5764
  331MOL0     O45548   5.063   2.098  11.602 -1.0715 -0.0203 -0.2934
  331MOL0     C45549   4.925   2.090  11.639 -0.0178  0.1341 -0.4753
  331MOL0     C45550   4.869   1.946  11.614 -0.5400 -0.4657  0.5939
  331MOL0     C45551   4.908   1.840  11.722  0.0706 -0.7818  0.3088
  331MOL0     C45552   4.860   1.894  11.850 -0.0898 -0.1116  0.5735
  331MOL0     C45553   4.874   1.797  11.970 -0.4332 -0.0509  0.4432
  331MOL0     C45554   5.025   1.788  12.015  0.5801  0.1087  0.2891
  331MOL0     C45555   5.053   1.725  12.151  0.2764 -0.5376  0.4081
  331MOL0     C45556   5.010   1.827  12.256  0.4005 -0.4482  0.6187
  331MOL0     N45557   5.073   1.805  12.383 -0.0079  0.1985 -0.3373
  331MOL0     C45558   5.019   1.740  12.487 -0.1678  0.5732  1.0530
  331MOL0     C45559   5.100   1.761  12.587  0.7358  0.4692  0.2650
  331MOL0     C45560   5.089   1.705  12.729 -1.0974  0.3536  0.8560
  331MOL0     C45561   4.944   1.697  12.776 -0.0220 -0.1838 -0.5251
  331MOL0     C45562   4.943   1.653  12.926 -0.1666  0.0122  1.0285
  331MOL0     C45563   4.978   1.768  13.026  0.1727 -1.0953 -0.7826
  331MOL0     O45564   4.906   1.886  12.993 -0.3975 -0.5134 -0.0452
  331MOL0     C45565   4.918   1.993  13.081  0.3894  0.2190  0.7024
  331MOL0     C45566   4.826   2.096  13.061 -0.2885  0.2520  0.0532
  331MOL0     C45567   4.812   2.208  13.149 -0.5163  0.8071  0.1004
  331MOL0     C45568   4.716   2.317  13.120 -0.3818 -0.0904 -0.0138
  331MOL0     C45569   4.894   2.205  13.271  0.8018  0.5704  0.1067
  331MOL0     C45570   4.888   2.307  13.380  0.0642  0.3631  0.5735
  331MOL0     O45571   4.901   2.250  13.502  0.2960  0.2133 -0.0194
  331MOL0     C45572   4.858   2.301  13.620 -0.0245 -0.8168 -0.5821
  331MOL0     C45573   4.802   2.432  13.643  0.7273 -0.2448  0.9070
  331MOL0     C45574   4.761   2.473  13.771 -0.3179 -0.5999  0.7464
  331MOL0     C45575   4.780   2.390  13.877  0.9706 -0.2048  1.0058
  331MOL0     O45576   4.730   2.429  13.999  0.0399  0.4049  0.4856
  331MOL0     C45577   4.841   2.445  14.093 -1.0796  0.5464  0.3253
  331MOL0     C45578   4.911   2.578  14.074 -0.2014 -0.1645 -0.6225
  331MOL0     C45579   5.057   2.576  14.101 -0.3715 -0.0254  0.0336
  331MOL0     C45580   5.095   2.551  14.242 -0.2643 -0.8251  1.1758
  331MOL0     C45581   5.254   2.544  14.235 -0.1328 -0.4293 -0.6623
  331MOL0     C45582   5.315   2.683  14.256 -0.9517 -0.0273 -0.0314
  331MOL0     C45583   5.466   2.677  14.246 -0.2320 -0.4058  0.1124
  331MOL0     C45584   5.523   2.813  14.182 -0.2802  0.2355 -0.4034
  331MOL0    Cl45585   5.462   2.816  14.005 -0.4530 -0.3366 -0.0780
  331MOL0     C45586   4.828   2.259  13.853  0.3975 -0.3069 -0.3300
  331MOL0     C45587   4.875   2.215  13.733 -0.6979  0.4509  0.0781
  331MOL0     O45588   4.869   2.420  13.354 -0.3385 -0.4479  0.0990
  331MOL0     C45589   4.986   2.100  13.291 -0.0002  0.0353  0.9338
  331MOL0     C45590   5.008   2.006  13.191 -0.4199 -0.6424  0.5057
  331MOL0     N45591   5.212   1.830  12.542  0.1416 -0.4982 -0.2444
  331MOL0     N45592   5.194   1.857  12.415 -0.6206 -1.0847  0.1782
  331MOL0     C45593   5.019   2.083  11.357  0.2965  0.1208  0.4758
  331MOL0     C45594   5.070   2.073  11.221 -0.6005 -1.1028  0.5093
  331MOL0     C45595   5.232   2.065  10.828 -0.3294 -0.0037  0.3811
  331MOL0     C45596   5.368   2.100  10.819  0.0926 -0.5823  0.2329
  331MOL0     C45597   5.421   2.138  10.697  0.3060 -0.2792 -0.6910
  331MOL0     C45598   5.358   2.126  10.582 -0.6420  0.2767 -0.1311
  331MOL0     O45599   5.420   2.173  10.465 -0.5041  1.2194 -0.5129
  331MOL0     C45600   5.565   2.214  10.458 -0.0586 -0.0970  0.1151
  331MOL0     C45601   5.672   2.099  10.461  0.6438 -0.6041 -0.0401
  331MOL0     C45602   5.650   2.006  10.343 -0.2759  0.0769 -0.0572
  331MOL0     C45603   5.671   2.062  10.195  0.5164  0.1518 -0.3674
  331MOL0     C45604   5.651   1.933  10.120 -0.6862 -0.0776 -0.6438
  331MOL0     C45605   5.644   1.836  10.048  0.8463  0.2896  0.3210
  331MOL0     C45606   5.221   2.090  10.590  0.1814  0.9833  0.0757
  331MOL0     C45607   5.154   2.063  10.709 -1.0722 -0.4092 -0.1868
  331MOL0     C45608   5.007   2.028  10.693  0.1628  0.5404  0.3749
  331MOL0     H45609   5.405   2.048  11.308  0.4598 -1.7146 -0.0808
  331MOL0     H45610   5.316   2.066  11.521 -0.7129  0.5144  1.4294
  331MOL0     H45611   4.872   2.167  11.584  0.6575 -0.4995 -2.0754
  331MOL0     H45612   4.916   2.119  11.744  2.5639 -0.6938  0.0502
  331MOL0     H45613   4.760   1.961  11.613 -0.7259 -1.2543 -2.9199
  331MOL0     H45614   4.890   1.908  11.514  1.3851  1.7516  0.0760
  331MOL0     H45615   4.847   1.750  11.712 -4.0962  1.4478  3.0423
  331MOL0     H45616   5.014   1.810  11.722  0.3976  0.1885 -1.3971
  331MOL0     H45617   4.891   1.995  11.881 -3.8174  2.1130 -2.2168
  331MOL0     H45618   4.754   1.918  11.844 -0.1842 -0.1915  1.6456
  331MOL0     H45619   4.839   1.701  11.930  0.7408 -0.1816 -0.3186
  331MOL0     H45620   4.799   1.821  12.045 -0.2834 -0.0281  0.5869
  331MOL0     H45621   5.079   1.712  11.957  0.3856  0.6244 -0.5775
  331MOL0     H45622   5.082   1.881  12.009 -0.8441  1.0493  0.8930
  331MOL0     H45623   5.159   1.699  12.153  0.6535  0.5880 -2.0259
  331MOL0     H45624   4.990   1.635  12.151 -1.3773  0.5594  1.1669
  331MOL0     H45625   5.037   1.921  12.208 -1.0309 -1.5379 -2.5857
  331MOL0     H45626   4.902   1.833  12.273  0.5238  0.9098  1.0156
  331MOL0     H45627   4.932   1.675  12.492 -1.8201  2.7003  1.3141
  331MOL0     H45628   5.134   1.776  12.800 -0.9175  1.5643 -0.4148
  331MOL0     H45629   5.138   1.609  12.746  0.9804  1.1990 -0.0553
  331MOL0     H45630   4.889   1.791  12.766  2.1849  1.2529  0.1002
  331MOL0     H45631   4.896   1.631  12.704 -0.8026  1.5818 -1.6891
  331MOL0     H45632   4.846   1.608  12.948  0.9886 -2.7422  0.9443
  331MOL0     H45633   5.007   1.566  12.943  1.0322  0.2814 -1.5652
  331MOL0     H45634   4.943   1.746  13.127 -1.4975  1.2613 -0.7642
  331MOL0     H45635   5.084   1.797  13.033  0.1017 -0.8603 -0.6888
  331MOL0     H45636   4.763   2.099  12.973 -0.8522  0.4410  0.4545
  331MOL0     H45637   4.646   2.335  13.202  0.2969  0.5787  0.4319
  331MOL0     H45638   4.662   2.298  13.027 -1.5807  2.3765  0.0940
  331MOL0     H45639   4.778   2.404  13.099  1.0844 -1.5049 -1.8879
  331MOL0     H45640   4.790   2.504  13.562 -2.9918 -2.3959 -0.7218
  331MOL0     H45641   4.722   2.573  13.792  0.3570 -0.6874  2.5979
  331MOL0     H45642   4.805   2.445  14.196 -0.6434  0.6494  0.4802
  331MOL0     H45643   4.927   2.379  14.078 -0.4351  1.8005 -2.0880
  331MOL0     H45644   4.890   2.631  13.980  3.8065 -2.1459 -2.9289
  331MOL0     H45645   4.868   2.644  14.149 -1.6043 -0.1713 -1.3821
  331MOL0     H45646   5.086   2.673  14.059 -2.3824  1.2305  1.4090
  331MOL0     H45647   5.103   2.505  14.031  1.7988  1.5120 -0.2149
  331MOL0     H45648   5.047   2.455  14.263 -1.7602 -0.1786  0.8010
  331MOL0     H45649   5.067   2.629  14.313  0.6937  0.4465  0.2137
  331MOL0     H45650   5.281   2.493  14.328 -1.6505 -0.0887 -0.0067
  331MOL0     H45651   5.294   2.494  14.146 -0.6295 -0.3376 -0.9423
  331MOL0     H45652   5.288   2.726  14.353  2.2829 -2.4333  2.1190
  331MOL0     H45653   5.279   2.742  14.171 -2.3091 -1.6421 -0.6496
  331MOL0     H45654   5.509   2.598  14.182 -0.2331  0.7926 -1.4360
  331MOL0     H45655   5.504   2.647  14.344  1.5042  0.6094 -0.2007
  331MOL0     H45656   5.632   2.815  14.170 -0.0509  0.9626  1.5384
  331MOL0     H45657   5.488   2.894  14.246 -0.8315 -0.8775  0.7270
  331MOL0     H45658   4.833   2.189  13.936 -3.5051 -1.7025 -1.0824
  331MOL0     H45659   4.908   2.112  13.724  1.1294  1.0764 -0.8614
  331MOL0     H45660   5.043   2.109  13.382  0.0354  1.6479  0.7782
  331MOL0     H45661   5.088   1.936  13.211  0.5774 -0.1594 -1.5603
  331MOL0     H45662   4.913   2.102  11.367  0.6329  1.3039  2.4639
  331MOL0     H45663   5.006   2.085  11.135 -1.7549 -1.9761  1.2265
  331MOL0     H45664   5.431   2.115  10.906 -0.9561 -1.5464  1.1987
  331MOL0     H45665   5.525   2.168  10.692  0.4320 -0.4755  0.3479
  331MOL0     H45666   5.587   2.279  10.372 -0.1061  1.0048  0.9086
  331MOL0     H45667   5.590   2.285  10.537  3.7309  0.3140 -1.2369
  331MOL0     H45668   5.667   2.045  10.556  0.4263  0.9102  0.8366
  331MOL0     H45669   5.773   2.137  10.443  1.0886 -1.4536  0.6224
  331MOL0     H45670   5.729   1.932  10.360  2.9226  3.7905  3.7743
  331MOL0     H45671   5.549   1.970  10.362 -0.2270 -0.1334 -0.1899
  331MOL0     H45672   5.772   2.104  10.192 -0.0514  1.9226  1.9529
  331MOL0     H45673   5.604   2.143  10.165  1.0148  1.1646  1.0995
  331MOL0     H45674   5.640   1.750   9.984 -0.6873  0.6541 -0.1070
  331MOL0     H45675   5.162   2.075  10.500 -1.9834  1.0139  1.4357
  331MOL0     H45676   4.949   2.050  10.783 -0.3451  2.2337 -0.3420
  331MOL0     H45677   4.972   2.103  10.622  2.2363 -0.1473 -1.4921
  331MOL0     H45678   4.993   1.924  10.661 -2.0331  1.1015 -0.6820
  332MOL0     O45679   5.001   6.032   5.949  0.0012 -1.2455 -0.4450
  332MOL0     C45680   5.022   5.931   5.887  0.2675  0.2811  0.1819
  332MOL0     O45681   5.069   5.928   5.753  0.2723 -0.2015 -0.7427
  332MOL0     C45682   5.145   6.029   5.694  0.3244 -0.8406 -0.0590
  332MOL0     C45683   5.155   6.027   5.555 -0.9299  0.5492  0.0062
  332MOL0     C45684   5.216   6.129   5.482  0.3590 -0.1756  0.2077
  332MOL0     C45685   5.251   6.252   5.542 -0.1880  1.0142  0.3488
  332MOL0     O45686   5.263   6.358   5.462 -0.3422  0.5902 -0.1085
  332MOL0     C45687   5.243   6.490   5.508  0.8045  0.4471  0.4330
  332MOL0     C45688   5.288   6.600   5.412 -0.3066 -0.6997 -0.5341
  332MOL0     C45689   5.200   6.620   5.292 -0.0856 -0.9945  0.1267
  332MOL0     C45690   5.277   6.694   5.187  0.5577 -0.0065 -1.2568
  332MOL0     C45691   5.200   6.705   5.058  0.0272  0.2597 -0.4029
  332MOL0     C45692   5.305   6.756   4.958  0.1570  0.1859  0.8067
  332MOL0     C45693   5.233   6.802   4.835  0.7271  0.0882  0.0244
  332MOL0     C45694   5.323   6.825   4.715  0.0351 -0.4170 -0.0431
  332MOL0     N45695   5.345   6.697   4.647  0.5401  0.6136 -0.9044
  332MOL0     C45696   5.266   6.620   4.565 -0.3163 -0.3764  0.5773
  332MOL0     C45697   5.345   6.529   4.512 -0.7689  0.0279  1.3458
  332MOL0     C45698   5.322   6.422   4.423 -0.0453  0.2834  1.2735
  332MOL0     C45699   5.374   6.475   4.275 -0.2145  0.6448  0.6330
  332MOL0     C45700   5.381   6.360   4.166 -0.1590  0.3141  0.0895
  332MOL0     C45701   5.498   6.394   4.062 -0.6132  0.1779 -1.0322
  332MOL0     O45702   5.623   6.385   4.131 -0.5443 -0.2754  0.4898
  332MOL0     C45703   5.737   6.363   4.056 -0.2935  0.1732  0.2863
  332MOL0     C45704   5.836   6.282   4.107  0.0597 -0.2490  0.8602
  332MOL0     C45705   5.952   6.242   4.041  1.0416  0.2784  1.0545
  332MOL0     C45706   6.058   6.172   4.132  0.7930  1.6979  0.4929
  332MOL0     C45707   5.975   6.302   3.913 -0.1450  0.2353 -0.4984
  332MOL0     C45708   6.100   6.266   3.828  0.0466  0.3185  0.6020
  332MOL0     O45709   6.209   6.198   3.882  0.4064 -0.2321 -0.1154
  332MOL0     C45710   6.325   6.198   3.814  0.5628  0.0029  0.3420
  332MOL0     C45711   6.391   6.078   3.786 -1.0384  0.1672 -0.4637
  332MOL0     C45712   6.502   6.083   3.704  0.1305  0.1149 -0.1352
  332MOL0     C45713   6.553   6.194   3.654 -0.4081  0.3753  0.0763
  332MOL0     O45714   6.678   6.183   3.588  0.2087  0.5306  0.2681
  332MOL0     C45715   6.778   6.273   3.627 -0.6271 -0.6344 -0.4152
  332MOL0     C45716   6.847   6.207   3.755  0.4791 -0.2390  1.1948
  332MOL0     C45717   6.974   6.282   3.775 -0.1165 -0.6679  0.9130
  332MOL0     C45718   7.049   6.213   3.888 -0.1590 -0.7393 -0.5039
  332MOL0     C45719   7.185   6.281   3.904 -0.6054  0.1407 -0.0343
  332MOL0     C45720   7.279   6.190   3.991  0.9445 -0.1442  0.2033
  332MOL0     C45721   7.232   6.186   4.132  0.8329  0.4331 -0.8758
  332MOL0     C45722   7.318   6.094   4.221  0.1655  0.8800 -0.5863
  332MOL0    Cl45723   7.225   6.073   4.373 -0.3251 -0.3508 -0.2706
  332MOL0     C45724   6.493   6.317   3.688  0.0686 -0.7418  0.7847
  332MOL0     C45725   6.377   6.320   3.764 -1.1167  0.2843 -0.4802
  332MOL0     O45726   6.095   6.298   3.712  0.3227 -0.4779 -0.1867
  332MOL0     C45727   5.874   6.386   3.856  0.4776  0.9809  0.6849
  332MOL0     C45728   5.762   6.419   3.931  0.0975 -0.3407  0.0583
  332MOL0     N45729   5.473   6.555   4.559 -0.7705  0.0794  0.4112
  332MOL0     N45730   5.475   6.658   4.643  0.1716  0.7112 -0.0300
  332MOL0     C45731   5.251   6.250   5.679 -0.0506 -0.8462  0.3865
  332MOL0     C45732   5.194   6.145   5.754  0.4308 -0.7818  0.6445
  332MOL0     C45733   4.971   5.799   5.938  0.3465 -0.2283 -0.3671
  332MOL0     C45734   5.032   5.684   5.893 -0.3268  0.6391 -0.5407
  332MOL0     C45735   4.983   5.554   5.934 -0.0063  0.3448  0.4162
  332MOL0     C45736   4.881   5.534   6.020  0.0730 -0.1672  0.6665
  332MOL0     O45737   4.832   5.414   6.059 -0.2771 -0.5036  0.4530
  332MOL0     C45738   4.842   5.302   5.964  0.8876  0.2811 -0.4174
  332MOL0     C45739   4.967   5.215   5.978 -1.1691  0.4215 -0.1576
  332MOL0     C45740   4.987   5.127   5.844  0.5698  0.2051 -0.7505
  332MOL0     C45741   4.858   5.071   5.785  0.1871  0.2983 -0.3774
  332MOL0     C45742   4.789   4.963   5.862 -0.2913 -0.0028  0.2613
  332MOL0     C45743   4.726   4.885   5.924 -0.4634 -0.6410 -0.2575
  332MOL0     C45744   4.814   5.649   6.063 -0.9379 -0.0321  0.4190
  332MOL0     C45745   4.857   5.781   6.022 -0.5539  0.5740 -0.2315
  332MOL0     C45746   4.775   5.893   6.080 -1.5387 -0.2371 -0.1096
  332MOL0     H45747   5.118   5.946   5.493  4.0074 -0.8334 -1.6029
  332MOL0     H45748   5.222   6.129   5.373  3.3252  3.3477  0.1680
  332MOL0     H45749   5.307   6.505   5.595  4.0501  0.9114 -1.8712
  332MOL0     H45750   5.139   6.513   5.534  0.6170  1.7892 -1.2719
  332MOL0     H45751   5.302   6.692   5.470  0.3489 -1.1173 -0.0246
  332MOL0     H45752   5.383   6.554   5.384 -0.4999  0.8987 -4.4945
  332MOL0     H45753   5.160   6.526   5.255 -1.3993 -2.3350  4.3718
  332MOL0     H45754   5.120   6.688   5.323  1.8386  1.5088 -0.0185
  332MOL0     H45755   5.306   6.793   5.224  4.3399 -0.3494 -2.8261
  332MOL0     H45756   5.366   6.633   5.168  0.2701 -0.3695 -1.4494
  332MOL0     H45757   5.109   6.765   5.060 -0.7143 -0.7952 -1.5557
  332MOL0     H45758   5.176   6.604   5.024  0.0786  0.0416  0.1986
  332MOL0     H45759   5.356   6.846   4.994  0.6441  0.4378 -0.4453
  332MOL0     H45760   5.375   6.675   4.935 -0.2376 -0.1947  0.9331
  332MOL0     H45761   5.180   6.893   4.864 -0.4710 -0.8960  1.0734
  332MOL0     H45762   5.154   6.729   4.815  2.2072 -1.9460  1.2167
  332MOL0     H45763   5.279   6.898   4.646  2.8496 -2.2413 -4.1863
  332MOL0     H45764   5.419   6.872   4.737 -0.4224  1.3313 -1.4695
  332MOL0     H45765   5.161   6.630   4.539  0.2197  0.9196 -1.2363
  332MOL0     H45766   5.218   6.390   4.423  0.1415 -0.7525 -2.3818
  332MOL0     H45767   5.377   6.331   4.448 -1.3626 -0.8186  0.2992
  332MOL0     H45768   5.305   6.553   4.241  0.0417  1.6138  2.2142
  332MOL0     H45769   5.472   6.520   4.291 -0.7770  3.0681 -1.8664
  332MOL0     H45770   5.393   6.263   4.215  0.1304  0.9864  1.4184
  332MOL0     H45771   5.287   6.367   4.110 -1.3203  2.8291  2.1181
  332MOL0     H45772   5.487   6.334   3.971  0.2774 -0.6061 -0.6407
  332MOL0     H45773   5.487   6.496   4.021 -2.5208 -1.4017 -5.0265
  332MOL0     H45774   5.821   6.252   4.211  3.2408  1.6824  2.0178
  332MOL0     H45775   6.143   6.239   4.147  1.0500  0.9690  2.5425
  332MOL0     H45776   6.086   6.081   4.077  1.4187  2.1855 -0.0097
  332MOL0     H45777   6.019   6.142   4.230 -0.0816  1.6230  0.1336
  332MOL0     H45778   6.350   5.982   3.819  0.5530 -0.8937 -1.4258
  332MOL0     H45779   6.555   5.991   3.686  0.8224  0.5134 -0.1366
  332MOL0     H45780   6.856   6.288   3.551  1.8052 -3.0800  1.4052
  332MOL0     H45781   6.739   6.371   3.657 -0.4555 -0.7361  0.1450
  332MOL0     H45782   6.771   6.225   3.832 -0.6184 -0.0123  0.0865
  332MOL0     H45783   6.866   6.101   3.732 -2.0721 -0.6682  0.8462
  332MOL0     H45784   6.952   6.383   3.812 -1.9059 -1.5771  2.5157
  332MOL0     H45785   7.024   6.284   3.678 -2.0584 -1.9678 -0.1743
  332MOL0     H45786   7.058   6.104   3.874  0.1676 -0.5931 -1.5324
  332MOL0     H45787   6.985   6.219   3.976 -0.9947  0.7106 -1.1851
  332MOL0     H45788   7.228   6.283   3.803 -1.9023  1.8314 -0.6001
  332MOL0     H45789   7.179   6.382   3.946 -0.4577  1.0886 -2.1591
  332MOL0     H45790   7.377   6.239   3.989 -0.4904  2.9260 -0.7592
  332MOL0     H45791   7.270   6.086   3.959  4.2793 -0.8788  1.1939
  332MOL0     H45792   7.134   6.138   4.146  1.0117  1.0043  3.7408
  332MOL0     H45793   7.221   6.287   4.171  0.5414  1.1296 -2.6674
  332MOL0     H45794   7.416   6.134   4.248  0.4975 -0.1950 -0.1539
  332MOL0     H45795   7.338   5.997   4.175 -2.1840  0.3689 -0.6252
  332MOL0     H45796   6.530   6.405   3.637  1.2015 -1.7292 -0.1575
  332MOL0     H45797   6.336   6.418   3.786  4.0435  2.5097  0.7456
  332MOL0     H45798   5.887   6.424   3.755  3.2736 -3.5997 -0.9936
  332MOL0     H45799   5.696   6.492   3.885  0.1085 -0.1139  0.3969
  332MOL0     H45800   5.281   6.336   5.738 -0.7767 -1.7375  2.1255
  332MOL0     H45801   5.188   6.149   5.862 -1.8055 -1.5684  0.5904
  332MOL0     H45802   5.108   5.693   5.815  0.6279  1.4752  0.4517
  332MOL0     H45803   5.037   5.469   5.894  1.0211 -0.6460  3.5580
  332MOL0     H45804   4.760   5.232   5.983  2.5692 -1.5300  0.4355
  332MOL0     H45805   4.832   5.345   5.864  0.7684 -2.2176 -1.5560
  332MOL0     H45806   4.969   5.155   6.069  1.6448 -2.6817 -2.0268
  332MOL0     H45807   5.050   5.282   5.999 -0.2824 -1.0866  1.4096
  332MOL0     H45808   5.053   5.183   5.778 -0.2430  2.9267  0.5927
  332MOL0     H45809   5.054   5.045   5.873  0.8069 -0.1002 -2.1053
  332MOL0     H45810   4.896   5.009   5.703 -3.4281 -3.5985  0.5725
  332MOL0     H45811   4.802   5.158   5.750  0.5164 -0.7313 -3.7258
  332MOL0     H45812   4.667   4.812   5.977  2.8356 -0.8673  3.6141
  332MOL0     H45813   4.738   5.651   6.141 -1.2435  2.5636  0.1681
  332MOL0     H45814   4.756   5.886   6.188 -0.7040  0.3954  0.0918
  332MOL0     H45815   4.811   5.995   6.062 -1.1436 -0.2922  0.3263
  332MOL0     H45816   4.681   5.894   6.024  0.4557  0.2146 -3.7117
  333MOL0     O45817   9.639   0.886   4.730 -0.5054 -0.3490 -0.0101
  333MOL0     C45818   9.569   0.898   4.629  0.4603 -0.3225 -0.3580
  333MOL0     O45819   9.615   0.897   4.494  1.3500 -0.7874  0.4399
  333MOL0     C45820   9.724   0.822   4.470  0.1642  0.5302  0.6996
  333MOL0     C45821   9.848   0.882   4.437 -0.8856  0.5508  0.7469
  333MOL0     C45822   9.956   0.797   4.416 -0.0461  0.5782 -0.0675
  333MOL0     C45823   9.947   0.665   4.400  1.1644 -0.0265 -0.1755
  333MOL0     O45824  10.061   0.594   4.352  0.1174  0.6916  0.1878
  333MOL0     C45825  10.102   0.629   4.214 -0.2915 -0.0197 -0.2141
  333MOL0     C45826  10.248   0.670   4.219  0.3833  0.1166 -0.3282
  333MOL0     C45827  10.322   0.570   4.136  1.2277 -0.1208 -1.3517
  333MOL0     C45828  10.464   0.609   4.130  0.1849  0.5918 -0.6194
  333MOL0     C45829  10.544   0.571   4.003  0.5456  0.4336 -0.4380
  333MOL0     C45830  10.524   0.428   3.953 -0.1257 -0.6255  0.5558
  333MOL0     C45831  10.590   0.396   3.823  0.6531 -0.7195  0.2517
  333MOL0     C45832  10.737   0.388   3.836 -0.5028 -0.8574  0.4777
  333MOL0     N45833  10.805   0.370   3.707  0.6868 -0.4469  0.0240
  333MOL0     C45834  10.850   0.254   3.659  0.5826 -0.0993  0.4102
  333MOL0     C45835  10.911   0.284   3.546 -0.9991  0.9408  0.4411
  333MOL0     C45836  10.985   0.194   3.450 -0.4660  0.2728  0.4093
  333MOL0     C45837  11.064   0.266   3.335  0.1043 -0.3484 -0.4865
  333MOL0     C45838  11.163   0.168   3.273 -0.5625  0.2502 -1.0483
  333MOL0     C45839  11.203   0.197   3.129  0.3133 -0.6211 -0.1724
  333MOL0     O45840  11.107   0.154   3.044 -0.1501 -0.0515  0.5286
  333MOL0     C45841  11.112   0.189   2.913 -0.1058 -0.7282 -0.1414
  333MOL0     C45842  11.018   0.143   2.825  0.7983  0.2177  0.3273
  333MOL0     C45843  11.009   0.175   2.682 -0.3175  0.6308  0.5857
  333MOL0     C45844  10.899   0.109   2.609 -0.3092  0.8557  0.4836
  333MOL0     C45845  11.118   0.245   2.629  0.7645  0.4929  0.6454
  333MOL0     C45846  11.129   0.300   2.488 -0.9641 -0.0602  0.1777
  333MOL0     O45847  11.267   0.322   2.438  0.5457  0.4164 -0.4493
  333MOL0     C45848  11.290   0.409   2.330 -0.6212  0.3770 -0.6152
  333MOL0     C45849  11.191   0.461   2.245  0.0612 -0.0615  0.5720
  333MOL0     C45850  11.218   0.574   2.167  0.8598 -1.1394  0.7939
  333MOL0     C45851  11.348   0.617   2.146 -0.4109 -0.3869  0.0034
  333MOL0     O45852  11.362   0.722   2.065  0.3407  0.2408 -0.0084
  333MOL0     C45853  11.480   0.807   2.075 -0.4316 -0.1691  0.3926
  333MOL0     C45854  11.425   0.945   2.067 -0.3236  0.6032  0.7047
  333MOL0     C45855  11.525   1.056   2.089 -0.4871 -1.3085 -0.5051
  333MOL0     C45856  11.456   1.199   2.124 -0.2106 -0.7186  0.9610
  333MOL0     C45857  11.439   1.228   2.269 -0.0644 -0.1133 -0.3025
  333MOL0     C45858  11.570   1.266   2.343 -0.2875  0.4215 -0.1133
  333MOL0     C45859  11.527   1.304   2.485 -0.9419 -0.6645 -0.1311
  333MOL0     C45860  11.649   1.370   2.553 -0.0938  0.4633  0.6293
  333MOL0    Cl45861  11.777   1.242   2.561  0.3263 -0.4492 -0.1475
  333MOL0     C45862  11.452   0.560   2.224  0.0824 -0.1616 -0.3815
  333MOL0     C45863  11.423   0.462   2.318  0.9481  0.3473  0.0316
  333MOL0     O45864  11.026   0.315   2.424 -0.6728 -1.0823 -0.4195
  333MOL0     C45865  11.227   0.276   2.706  0.5524 -0.2583 -0.9462
  333MOL0     C45866  11.227   0.243   2.846 -0.0092 -0.2164  0.6686
  333MOL0     N45867  10.905   0.418   3.524 -0.6286  0.3139  0.3086
  333MOL0     N45868  10.833   0.465   3.621  0.6837 -0.1192 -0.4042
  333MOL0     C45869   9.830   0.600   4.442 -0.5868 -0.8886  0.2994
  333MOL0     C45870   9.717   0.678   4.482 -0.0079  0.5553  0.1535
  333MOL0     C45871   9.419   0.909   4.666 -0.5263  0.4265  0.2882
  333MOL0     C45872   9.380   1.020   4.736 -0.6926 -0.1375 -0.0939
  333MOL0     C45873   9.247   1.057   4.745 -0.1520  1.0001 -0.2770
  333MOL0     C45874   9.144   0.975   4.712  0.0918  0.3748  0.3095
  333MOL0     O45875   9.007   0.966   4.739  0.5565  0.1892 -0.0602
  333MOL0     C45876   8.954   1.071   4.817  0.5608 -0.3587  0.1824
  333MOL0     C45877   8.799   1.068   4.798  0.1903 -0.5490 -0.2892
  333MOL0     C45878   8.742   0.933   4.842  0.3319 -0.2806 -0.1563
  333MOL0     C45879   8.588   0.933   4.817 -0.4413 -0.0023 -0.8271
  333MOL0     C45880   8.524   1.037   4.896  0.1590  0.1942  0.0763
  333MOL0     C45881   8.458   1.107   4.967 -0.7544 -0.2888  1.2543
  333MOL0     C45882   9.187   0.858   4.632  0.9376 -0.7121 -0.3258
  333MOL0     C45883   9.321   0.818   4.615  0.6158  0.5927 -0.4221
  333MOL0     C45884   9.352   0.687   4.543  1.3169 -0.2962  0.1658
  333MOL0     H45885   9.866   0.989   4.443  1.1340  0.5127 -2.2809
  333MOL0     H45886  10.056   0.834   4.399  2.9680 -4.9860  2.7278
  333MOL0     H45887  10.059   0.723   4.179 -2.7898 -1.6210 -1.7107
  333MOL0     H45888  10.080   0.548   4.143 -1.6992  1.7255 -1.8861
  333MOL0     H45889  10.262   0.772   4.182  2.3793 -0.7696 -2.2408
  333MOL0     H45890  10.285   0.668   4.322  2.1156 -2.0177 -0.9213
  333MOL0     H45891  10.309   0.470   4.178 -0.7819  1.3459  1.8420
  333MOL0     H45892  10.283   0.592   4.036  0.8826  2.6678 -0.6967
  333MOL0     H45893  10.464   0.714   4.161  1.9462  0.2930  0.5552
  333MOL0     H45894  10.496   0.552   4.217 -1.3210  2.6908  1.4512
  333MOL0     H45895  10.649   0.595   4.020  0.1977  2.5565 -1.0195
  333MOL0     H45896  10.528   0.637   3.917  2.7500  1.9992  0.2856
  333MOL0     H45897  10.554   0.367   4.039 -2.5517 -3.3811 -0.3975
  333MOL0     H45898  10.416   0.416   3.938 -0.1505 -1.5406  1.3871
  333MOL0     H45899  10.563   0.479   3.757  1.1958 -0.7780 -0.0446
  333MOL0     H45900  10.543   0.304   3.787 -1.8579  0.5394  0.1310
  333MOL0     H45901  10.777   0.474   3.889  3.0277 -2.0642  0.0549
  333MOL0     H45902  10.752   0.298   3.898 -2.9799 -2.3718 -0.9681
  333MOL0     H45903  10.837   0.153   3.698 -1.3307  0.3387  0.9741
  333MOL0     H45904  10.913   0.123   3.409  0.5916 -0.4786 -0.1933
  333MOL0     H45905  11.060   0.140   3.510 -0.6434 -0.6753 -0.2119
  333MOL0     H45906  10.987   0.309   3.271 -2.4379 -0.1465  2.4698
  333MOL0     H45907  11.121   0.351   3.373  0.9222 -1.9331  2.1208
  333MOL0     H45908  11.253   0.152   3.334 -3.0439 -0.5068  2.7707
  333MOL0     H45909  11.115   0.071   3.264  0.8325 -0.3143 -3.0498
  333MOL0     H45910  11.223   0.303   3.114 -2.1106  0.0873  1.0029
  333MOL0     H45911  11.298   0.147   3.108  2.0535  1.9248  1.1352
  333MOL0     H45912  10.936   0.090   2.871  0.6531  1.8042  2.0254
  333MOL0     H45913  10.889   0.003   2.632  3.5254  0.7584  2.4654
  333MOL0     H45914  10.918   0.106   2.502  1.2191 -1.7615  0.7484
  333MOL0     H45915  10.810   0.170   2.631  0.3536  0.7033  4.3781
  333MOL0     H45916  11.085   0.435   2.239  0.3566 -2.0516  2.6608
  333MOL0     H45917  11.137   0.609   2.103  1.9472 -2.3046 -1.3325
  333MOL0     H45918  11.530   0.796   2.171 -2.3327 -1.9844  1.2589
  333MOL0     H45919  11.556   0.789   1.999  1.5226  1.1268  1.9498
  333MOL0     H45920  11.387   0.955   1.965  2.5361 -0.5701 -0.6101
  333MOL0     H45921  11.349   0.953   2.144 -0.7472 -0.3215  0.4049
  333MOL0     H45922  11.587   1.064   1.999 -2.7055 -0.3967 -2.0380
  333MOL0     H45923  11.593   1.021   2.167  3.2981 -0.6748 -3.2604
  333MOL0     H45924  11.358   1.212   2.078 -0.0391 -1.1648  0.4614
  333MOL0     H45925  11.505   1.281   2.069 -1.9189  0.1286  0.6420
  333MOL0     H45926  11.366   1.309   2.276  0.3881  0.1979  1.0983
  333MOL0     H45927  11.400   1.134   2.310  2.5604 -1.2053 -0.1214
  333MOL0     H45928  11.610   1.356   2.295  0.8765  1.1824  2.1587
  333MOL0     H45929  11.629   1.175   2.335 -2.5336 -1.0379 -1.1158
  333MOL0     H45930  11.492   1.219   2.545 -0.8452  1.3446  3.0602
  333MOL0     H45931  11.449   1.380   2.487  0.2262  0.6487 -1.6541
  333MOL0     H45932  11.638   1.416   2.652  3.9916  0.0292  1.4325
  333MOL0     H45933  11.696   1.438   2.483 -0.5844  0.7116  0.5333
  333MOL0     H45934  11.559   0.581   2.222  0.8982 -3.1368  2.9058
  333MOL0     H45935  11.498   0.437   2.393  0.9382  1.6686  0.5020
  333MOL0     H45936  11.314   0.331   2.671  1.7465 -1.5684 -0.1190
  333MOL0     H45937  11.307   0.298   2.894  1.6419 -1.3860 -0.6334
  333MOL0     H45938   9.833   0.494   4.462 -3.5785 -0.4884  4.1056
  333MOL0     H45939   9.630   0.619   4.508 -1.6164  2.1587 -1.2753
  333MOL0     H45940   9.461   1.083   4.771 -0.8841 -1.0464  2.1498
  333MOL0     H45941   9.220   1.146   4.801 -2.6737 -0.1563  0.4743
  333MOL0     H45942   8.968   1.065   4.925  1.4742 -1.7590  0.0046
  333MOL0     H45943   8.980   1.173   4.786 -1.7399  0.6844  1.4313
  333MOL0     H45944   8.775   1.087   4.692 -0.5053  1.1309  0.1389
  333MOL0     H45945   8.743   1.147   4.848  0.5884 -2.5982  3.7501
  333MOL0     H45946   8.805   0.856   4.797  0.4126 -0.5598  0.4388
  333MOL0     H45947   8.760   0.918   4.949 -2.4188 -3.2711  0.0210
  333MOL0     H45948   8.552   0.835   4.850  0.9303 -0.3507 -0.2743
  333MOL0     H45949   8.567   0.952   4.711 -1.0065  1.0858 -0.5351
  333MOL0     H45950   8.399   1.176   5.024 -0.0546  2.6005 -1.2101
  333MOL0     H45951   9.107   0.790   4.604 -2.8963  3.1980  0.0779
  333MOL0     H45952   9.433   0.642   4.601  4.5478  3.4274 -0.9661
  333MOL0     H45953   9.263   0.624   4.552 -0.9857  3.0020  4.7209
  333MOL0     H45954   9.382   0.710   4.440  1.6441  0.4798  0.4271
  334MOL0     O45955   8.806   1.498   9.334 -0.2507 -0.1845 -0.1489
  334MOL0     C45956   8.882   1.498   9.433 -0.3691 -0.5368  0.7424
  334MOL0     O45957   8.983   1.406   9.458 -0.2689  0.5885  0.0109
  334MOL0     C45958   8.997   1.314   9.353 -0.4077 -0.2114 -0.2985
  334MOL0     C45959   8.892   1.227   9.306 -0.3219  0.4789  0.5895
  334MOL0     C45960   8.909   1.155   9.186 -0.7992 -1.4350  0.0775
  334MOL0     C45961   9.037   1.146   9.123  0.4177 -0.2281  0.6939
  334MOL0     O45962   9.054   1.064   9.021  0.2500  0.5775  0.6410
  334MOL0     C45963   9.005   1.107   8.889 -0.6687  0.0587 -0.6529
  334MOL0     C45964   9.099   1.209   8.821 -0.6809  0.3260  0.8200
  334MOL0     C45965   9.133   1.177   8.680 -0.5254 -0.3966 -0.7832
  334MOL0     C45966   9.264   1.244   8.649  0.1503 -0.4444 -0.1468
  334MOL0     C45967   9.294   1.229   8.505 -0.2343 -0.2073  0.2803
  334MOL0     C45968   9.447   1.227   8.476  0.0411 -0.1292 -0.6413
  334MOL0     C45969   9.480   1.181   8.335  1.1445  0.0904 -0.7883
  334MOL0     C45970   9.627   1.148   8.315  0.5621 -0.7444 -1.1424
  334MOL0     N45971   9.646   1.079   8.183  0.9224  0.3369 -0.7761
  334MOL0     C45972   9.578   0.964   8.139 -0.1423  0.1918  1.8420
  334MOL0     C45973   9.627   0.940   8.016  0.8126 -0.3781 -0.4543
  334MOL0     C45974   9.581   0.813   7.939 -0.1512 -0.5867 -0.3981
  334MOL0     C45975   9.441   0.763   7.981 -0.2306 -0.1905 -0.3434
  334MOL0     C45976   9.320   0.868   7.949 -0.3429 -0.2531 -0.1647
  334MOL0     C45977   9.179   0.812   7.987 -0.1827  0.2968  0.5484
  334MOL0     O45978   9.157   0.707   7.890 -0.4802  0.2387 -0.5498
  334MOL0     C45979   9.031   0.704   7.827 -1.0790  0.4943 -0.2592
  334MOL0     C45980   8.906   0.713   7.892 -0.8251  0.3075 -0.4132
  334MOL0     C45981   8.782   0.685   7.838  0.0545 -0.0069  0.0960
  334MOL0     C45982   8.669   0.689   7.930 -1.0114  0.1021  0.0293
  334MOL0     C45983   8.772   0.649   7.706 -0.8488  0.5331  0.5675
  334MOL0     C45984   8.653   0.597   7.645 -0.4186 -0.0077  0.8739
  334MOL0     O45985   8.661   0.481   7.571  0.2864 -0.3279  0.6977
  334MOL0     C45986   8.554   0.431   7.502 -0.5372  0.6419  0.5870
  334MOL0     C45987   8.494   0.516   7.406 -0.9457  0.5365 -0.0750
  334MOL0     C45988   8.403   0.454   7.310 -0.1370 -0.1970  0.0748
  334MOL0     C45989   8.348   0.324   7.327  0.2281 -1.1332  0.3029
  334MOL0     O45990   8.250   0.273   7.248  1.1236  0.2553  0.1178
  334MOL0     C45991   8.163   0.372   7.182  0.0913  0.5576 -0.4992
  334MOL0     C45992   8.029   0.308   7.147  0.4945  0.2043 -0.5418
  334MOL0     C45993   8.019   0.189   7.043  0.1049  0.1996 -0.8239
  334MOL0     C45994   8.083   0.227   6.914  0.4969  0.4831  0.2469
  334MOL0     C45995   8.063   0.115   6.809 -0.3680 -0.7314  0.1130
  334MOL0     C45996   7.924   0.119   6.751 -0.3991 -0.8168  0.4216
  334MOL0     C45997   7.887  -0.009   6.676 -0.1295 -0.5612  0.6756
  334MOL0     C45998   7.750   0.000   6.623 -0.3523  0.6182 -0.4667
  334MOL0    Cl45999   7.694  -0.159   6.578  0.4598  0.1584 -0.1335
  334MOL0     C46000   8.403   0.252   7.427 -0.1517  0.5033  0.0531
  334MOL0     C46001   8.507   0.295   7.506 -0.1528 -1.1921  0.3802
  334MOL0     O46002   8.552   0.654   7.657  0.3180 -0.0996 -0.0410
  334MOL0     C46003   8.896   0.636   7.639  0.8540 -0.3389  0.4616
  334MOL0     C46004   9.023   0.658   7.694  0.4291  0.5148 -0.5642
  334MOL0     N46005   9.699   1.044   7.975 -0.0259  0.2311  0.8181
  334MOL0     N46006   9.715   1.120   8.074 -0.0154  0.6725 -0.2797
  334MOL0     C46007   9.143   1.224   9.180 -1.0410 -0.6792  0.3453
  334MOL0     C46008   9.119   1.318   9.283  0.5319  0.0150 -0.8618
  334MOL0     C46009   8.858   1.609   9.536 -0.2543  0.4883  0.6420
  334MOL0     C46010   8.893   1.580   9.674  0.3894  0.0578  0.9005
  334MOL0     C46011   8.873   1.674   9.771  0.0560 -0.4293  0.6692
  334MOL0     C46012   8.813   1.804   9.739 -0.0434  0.4448 -0.0825
  334MOL0     O46013   8.788   1.908   9.834  0.7196 -0.4041 -0.4951
  334MOL0     C46014   8.811   1.874   9.968 -0.5713  0.2756 -0.3316
  334MOL0     C46015   8.789   2.000  10.044  0.6568 -0.4112 -0.5183
  334MOL0     C46016   8.879   2.118   9.996  0.6718 -0.4637 -0.0298
  334MOL0     C46017   8.907   2.222  10.110 -0.9745 -0.1544 -0.1906
  334MOL0     C46018   8.965   2.354  10.056  0.3168 -0.1181  0.3182
  334MOL0     C46019   9.007   2.462  10.035  0.7438  0.7630 -0.7767
  334MOL0     C46020   8.778   1.838   9.610  0.0237 -0.5033 -0.5913
  334MOL0     C46021   8.797   1.741   9.511 -0.7007  0.8018 -0.9921
  334MOL0     C46022   8.750   1.793   9.371  0.4951  0.8807 -0.7505
  334MOL0     H46023   8.804   1.231   9.369 -0.0245 -2.2842  1.3402
  334MOL0     H46024   8.831   1.099   9.135 -1.7433 -1.3932  1.4210
  334MOL0     H46025   8.904   1.149   8.896 -0.7194  1.0250 -4.5848
  334MOL0     H46026   9.001   1.008   8.844  2.5756 -0.4015 -0.1544
  334MOL0     H46027   9.054   1.308   8.830 -1.1232  0.5444 -2.6773
  334MOL0     H46028   9.190   1.223   8.880 -2.6487  1.3009  3.8951
  334MOL0     H46029   9.139   1.068   8.668  1.4735 -0.7557  2.3722
  334MOL0     H46030   9.056   1.214   8.611 -0.0212 -0.4686 -1.3876
  334MOL0     H46031   9.257   1.349   8.680  0.6192 -0.6353  0.6487
  334MOL0     H46032   9.346   1.200   8.707  0.9823 -2.6482 -2.8208
  334MOL0     H46033   9.246   1.302   8.440 -1.5541 -1.0159  0.2998
  334MOL0     H46034   9.267   1.131   8.465  2.5953  0.0885 -2.6961
  334MOL0     H46035   9.497   1.323   8.494 -0.6333  0.4621 -1.8423
  334MOL0     H46036   9.487   1.158   8.552  0.2577 -1.4514 -1.9076
  334MOL0     H46037   9.437   1.246   8.259  1.1983  1.7461  0.5397
  334MOL0     H46038   9.423   1.088   8.321 -1.5420  1.2327  1.5900
  334MOL0     H46039   9.690   1.233   8.341 -1.4444  0.6814 -0.6683
  334MOL0     H46040   9.666   1.074   8.385  1.0286 -2.8509 -3.4948
  334MOL0     H46041   9.511   0.900   8.196 -1.4991 -2.4354 -2.2725
  334MOL0     H46042   9.640   0.737   7.990  0.0157  0.5316  1.1492
  334MOL0     H46043   9.588   0.806   7.830  0.5371  1.9562 -0.5725
  334MOL0     H46044   9.425   0.660   7.947  1.4378 -1.8606  3.4030
  334MOL0     H46045   9.445   0.735   8.087 -0.7157 -0.4385 -0.3824
  334MOL0     H46046   9.326   0.963   8.003 -1.8083 -0.2382  0.0333
  334MOL0     H46047   9.322   0.887   7.841 -4.3547 -1.8630 -0.7038
  334MOL0     H46048   9.183   0.786   8.094 -0.7826  0.6062  0.6556
  334MOL0     H46049   9.110   0.897   7.985  2.1520  2.5249 -5.5031
  334MOL0     H46050   8.922   0.741   7.996 -1.6853  0.6738 -0.3761
  334MOL0     H46051   8.638   0.585   7.948 -3.1351  1.0895  2.7848
  334MOL0     H46052   8.592   0.742   7.873  0.6167  3.0646  0.3809
  334MOL0     H46053   8.689   0.734   8.027  0.3264  0.6364 -0.4606
  334MOL0     H46054   8.533   0.617   7.398 -1.5697  0.9275  1.4829
  334MOL0     H46055   8.368   0.521   7.232 -0.0915 -1.0816 -0.7218
  334MOL0     H46056   8.133   0.459   7.240  0.3015  1.7850 -2.1514
  334MOL0     H46057   8.214   0.409   7.092  0.8052 -2.3598 -1.4098
  334MOL0     H46058   7.987   0.281   7.245 -2.7432  0.5811 -1.7038
  334MOL0     H46059   7.967   0.393   7.119  1.3895  1.0701  0.0243
  334MOL0     H46060   7.917   0.155   7.024  0.0377  0.9064 -1.8724
  334MOL0     H46061   8.074   0.109   7.092 -0.9911 -1.4860 -2.2349
  334MOL0     H46062   8.190   0.238   6.934  1.0232  0.7276 -2.2678
  334MOL0     H46063   8.048   0.319   6.867 -0.5196 -0.0026  0.0275
  334MOL0     H46064   8.136   0.128   6.729 -0.8536 -0.3369 -0.2667
  334MOL0     H46065   8.084   0.017   6.854  0.9843  0.7504  3.0205
  334MOL0     H46066   7.897   0.205   6.689  0.3595 -0.9582 -0.1159
  334MOL0     H46067   7.855   0.129   6.835  1.8056  1.3680  2.1438
  334MOL0     H46068   7.893  -0.099   6.738 -2.3434  0.4469  2.4672
  334MOL0     H46069   7.949  -0.013   6.586 -2.5073 -1.2649 -1.0299
  334MOL0     H46070   7.747   0.056   6.529  0.5870 -1.3060 -1.7000
  334MOL0     H46071   7.682   0.047   6.694  2.0660  1.6070  1.3478
  334MOL0     H46072   8.357   0.154   7.439  0.8094 -0.2843 -2.1917
  334MOL0     H46073   8.559   0.217   7.560  2.6907 -0.5818 -1.2619
  334MOL0     H46074   8.888   0.605   7.536 -1.1837 -1.3119  0.8606
  334MOL0     H46075   9.116   0.627   7.648  0.2195  0.1518 -0.7513
  334MOL0     H46076   9.237   1.223   9.127 -0.7037  1.9857  0.7211
  334MOL0     H46077   9.203   1.382   9.311  0.0687  0.0088  0.6719
  334MOL0     H46078   8.925   1.479   9.694  2.3054 -0.2087 -2.6409
  334MOL0     H46079   8.900   1.643   9.872 -1.7385  1.1818  1.7168
  334MOL0     H46080   8.747   1.794  10.008 -2.7134  1.7716 -0.5865
  334MOL0     H46081   8.914   1.855   9.999 -1.9387 -2.8629  2.9241
  334MOL0     H46082   8.808   1.982  10.150 -0.6796 -0.6525 -0.3027
  334MOL0     H46083   8.683   2.023  10.035  0.6948  1.6023  2.6592
  334MOL0     H46084   8.971   2.077   9.952 -0.1726 -2.8358  0.2607
  334MOL0     H46085   8.821   2.167   9.918 -4.5287 -1.0272  3.0677
  334MOL0     H46086   8.977   2.176  10.181 -0.6703  0.0664 -0.3423
  334MOL0     H46087   8.815   2.241  10.165 -0.4707 -3.8386  2.3010
  334MOL0     H46088   9.052   2.559  10.025 -0.1479  1.9737  4.1520
  334MOL0     H46089   8.733   1.929   9.572 -0.7347 -1.3769 -1.8967
  334MOL0     H46090   8.797   1.739   9.288  0.4118 -0.4093  0.0028
  334MOL0     H46091   8.642   1.773   9.372  0.2147  1.9973  2.6283
  334MOL0     H46092   8.754   1.902   9.366  3.3401  0.9673  1.2183
  335MOL0     O46093  11.279   1.733   9.836  0.2804  0.8188 -0.2489
  335MOL0     C46094  11.268   1.643   9.916  0.2178 -1.0760  0.1635
  335MOL0     O46095  11.165   1.557   9.936 -0.2077 -0.2220 -0.3643
  335MOL0     C46096  11.030   1.575   9.911  0.2318 -0.6853  1.9602
  335MOL0     C46097  10.938   1.465   9.921  0.1203 -0.2334  0.2133
  335MOL0     C46098  10.802   1.484   9.901 -0.4559  0.2412  0.5397
  335MOL0     C46099  10.743   1.616   9.860 -1.0481  0.8819  0.7440
  335MOL0     O46100  10.609   1.646   9.840 -0.2704 -1.2833 -0.0130
  335MOL0     C46101  10.495   1.557   9.886 -0.1777  0.5171 -0.1468
  335MOL0     C46102  10.379   1.560   9.788  0.4116  0.2916 -0.2503
  335MOL0     C46103  10.412   1.482   9.656 -0.2973 -0.6178  0.1033
  335MOL0     C46104  10.473   1.576   9.544  0.1673  0.1125  0.5992
  335MOL0     C46105  10.528   1.497   9.419 -0.0544 -0.8786 -0.5922
  335MOL0     C46106  10.540   1.573   9.292 -1.1664  0.4181 -0.2860
  335MOL0     C46107  10.428   1.539   9.194 -0.0152  0.4027  0.1583
  335MOL0     C46108  10.435   1.619   9.065  0.5466  0.3098 -0.1974
  335MOL0     N46109  10.364   1.751   9.091  0.4079  0.1268  0.5180
  335MOL0     C46110  10.224   1.756   9.092  0.6482  0.0042 -0.6252
  335MOL0     C46111  10.202   1.881   9.139  0.6926  0.8934  0.3007
  335MOL0     C46112  10.070   1.937   9.156  0.2356 -0.6068 -0.6121
  335MOL0     C46113  10.019   1.887   9.298  0.2430 -0.3716 -0.3601
  335MOL0     C46114  10.104   1.931   9.419 -0.3857 -1.0377 -0.3051
  335MOL0     C46115  10.129   2.080   9.429  0.4866 -0.9436  0.0053
  335MOL0     O46116  10.025   2.161   9.382 -0.2458  0.2088  0.3721
  335MOL0     C46117  10.058   2.295   9.401  0.2542  0.6536  0.4453
  335MOL0     C46118  10.076   2.379   9.294  0.0230  0.3483  0.8430
  335MOL0     C46119  10.091   2.516   9.312  0.6794  1.2626  0.4078
  335MOL0     C46120  10.111   2.605   9.196 -0.1015  0.0448  1.0179
  335MOL0     C46121  10.091   2.561   9.448  0.4711  1.1104  0.2993
  335MOL0     C46122  10.117   2.699   9.483  0.4397  0.0487 -0.3147
  335MOL0     O46123  10.182   2.781   9.400  0.6537 -0.6006 -0.0491
  335MOL0     C46124  10.217   2.903   9.450  0.6181  0.6158  0.3393
  335MOL0     C46125  10.183   3.020   9.364 -0.2796  0.4706 -0.1915
  335MOL0     C46126  10.217   3.147   9.398  0.2851  0.4192 -0.2427
  335MOL0     C46127  10.282   3.173   9.521  0.4704  0.3109  0.3767
  335MOL0     O46128  10.322   3.302   9.562 -0.3324  0.6903  0.3287
  335MOL0     C46129  10.266   3.364   9.683  0.6632 -1.0368  1.2111
  335MOL0     C46130  10.146   3.435   9.656  0.0772  0.0466  0.0122
  335MOL0     C46131  10.090   3.537   9.768  0.4233 -0.1670  0.4820
  335MOL0     C46132  10.084   3.463   9.901  0.1274  0.4941 -0.1459
  335MOL0     C46133  10.062   3.555  10.021 -0.1700  0.8013  0.1307
  335MOL0     C46134   9.937   3.642  10.018 -0.5351  0.6836  0.0140
  335MOL0     C46135   9.808   3.566  10.032 -1.9295  0.6192  1.0019
  335MOL0     C46136   9.776   3.542  10.173 -0.8117 -0.3627  0.0031
  335MOL0    Cl46137   9.680   3.384  10.177  0.0618 -0.0869  0.1248
  335MOL0     C46138  10.313   3.064   9.603 -0.6777  0.8881  0.1944
  335MOL0     C46139  10.290   2.931   9.565  0.1656 -0.1981 -0.1437
  335MOL0     O46140  10.059   2.739   9.584  0.0730 -0.9957 -0.3187
  335MOL0     C46141  10.066   2.475   9.556 -0.5524  0.6505 -1.6884
  335MOL0     C46142  10.058   2.344   9.541 -1.3267  0.4675  0.4900
  335MOL0     N46143  10.320   1.937   9.178 -0.0875  0.2693 -0.6832
  335MOL0     N46144  10.419   1.860   9.152 -0.3610  0.2447  1.0497
  335MOL0     C46145  10.846   1.700   9.816 -1.0788 -0.0065 -0.1136
  335MOL0     C46146  10.976   1.695   9.847  0.1274  0.3025 -0.0893
  335MOL0     C46147  11.381   1.618   9.999 -0.0822 -0.5322  0.3955
  335MOL0     C46148  11.488   1.559   9.936 -0.1079  0.1679  0.5619
  335MOL0     C46149  11.598   1.516  10.014  0.6280 -0.0128  0.1095
  335MOL0     C46150  11.618   1.556  10.147 -0.3083 -1.5544  0.2887
  335MOL0     O46151  11.734   1.539  10.220  0.0785 -0.3323  0.4361
  335MOL0     C46152  11.750   1.404  10.273  0.4906 -0.2587  0.0343
  335MOL0     C46153  11.843   1.312  10.206 -0.7270  0.0430 -0.0212
  335MOL0     C46154  11.890   1.182  10.281  0.0410  0.5173  0.3289
  335MOL0     C46155  11.959   1.084  10.185  0.0830 -0.9878 -1.9107
  335MOL0     C46156  12.069   1.007  10.246 -0.8294  0.7053  0.0782
  335MOL0     C46157  12.168   0.929  10.254  0.0972 -0.3172  0.6492
  335MOL0     C46158  11.508   1.620  10.207 -0.4002 -0.4405  0.4085
  335MOL0     C46159  11.386   1.642  10.135  0.0048  0.0745 -0.0728
  335MOL0     C46160  11.263   1.699  10.203  0.0655 -0.6436 -0.4444
  335MOL0     H46161  10.978   1.371   9.957  1.2228 -0.0198 -0.4313
  335MOL0     H46162  10.733   1.402   9.919 -2.5110  1.6917 -0.3177
  335MOL0     H46163  10.473   1.604   9.982  6.1290  1.3049  1.3319
  335MOL0     H46164  10.524   1.454   9.906  0.1177  0.7426  0.6225
  335MOL0     H46165  10.289   1.508   9.822  0.8867 -0.6959 -0.4711
  335MOL0     H46166  10.343   1.663   9.776  0.7625  1.0255  3.5334
  335MOL0     H46167  10.494   1.409   9.666 -1.3488 -2.1596 -1.8311
  335MOL0     H46168  10.326   1.427   9.617 -1.1170  0.4327  0.4038
  335MOL0     H46169  10.388   1.635   9.508  0.9292  1.3072  0.6765
  335MOL0     H46170  10.553   1.643   9.577 -1.6874  2.6759  0.2161
  335MOL0     H46171  10.457   1.416   9.401 -2.1011  0.6008  0.3824
  335MOL0     H46172  10.622   1.449   9.447  0.6253 -0.1334 -1.5661
  335MOL0     H46173  10.545   1.681   9.311 -0.5076  0.3759 -0.2162
  335MOL0     H46174  10.630   1.537   9.243 -0.6494  1.6398 -0.2599
  335MOL0     H46175  10.327   1.543   9.237 -1.3610 -0.0818 -2.7049
  335MOL0     H46176  10.435   1.431   9.175 -1.4701  0.5575 -1.5616
  335MOL0     H46177  10.539   1.632   9.036  0.6328 -0.3489 -0.1941
  335MOL0     H46178  10.375   1.578   8.983 -1.5444  1.3239  0.7296
  335MOL0     H46179  10.151   1.680   9.066  3.5722 -2.3120 -2.6694
  335MOL0     H46180   9.999   1.893   9.085  0.0253 -1.3889  0.0731
  335MOL0     H46181  10.081   2.046   9.158  0.8526 -0.6016  3.3428
  335MOL0     H46182   9.924   1.940   9.311  1.0309  1.6723 -2.3069
  335MOL0     H46183  10.008   1.779   9.312 -2.1939 -0.0118  1.1974
  335MOL0     H46184  10.059   1.904   9.515 -0.7807  4.9840  1.6443
  335MOL0     H46185  10.197   1.874   9.419  0.4039  0.1346  1.9711
  335MOL0     H46186  10.142   2.088   9.537  2.1780  0.8050 -0.2814
  335MOL0     H46187  10.218   2.102   9.369  0.4061 -1.3005 -0.2499
  335MOL0     H46188  10.073   2.336   9.195 -3.6409 -1.1514  1.4368
  335MOL0     H46189  10.216   2.622   9.167 -0.6156 -1.3677 -2.1676
  335MOL0     H46190  10.055   2.698   9.199 -1.9320 -1.0330  1.5277
  335MOL0     H46191  10.071   2.558   9.105 -2.4640  2.7120  0.5564
  335MOL0     H46192  10.132   2.991   9.272  1.5639 -1.6624 -0.6259
  335MOL0     H46193  10.196   3.233   9.336  2.6493  0.5851 -0.8938
  335MOL0     H46194  10.251   3.283   9.755  0.2968  0.1052  2.4572
  335MOL0     H46195  10.344   3.436   9.710 -1.3251  2.0336 -0.6800
  335MOL0     H46196  10.151   3.493   9.564 -0.1097  0.5124  0.2864
  335MOL0     H46197  10.077   3.353   9.637  0.6039 -0.4174  0.0883
  335MOL0     H46198   9.994   3.587   9.750  0.7127  0.8964  1.7311
  335MOL0     H46199  10.161   3.619   9.781 -0.6660  0.7125  1.0891
  335MOL0     H46200  10.178   3.410   9.919  1.4667  2.0880 -1.8851
  335MOL0     H46201  10.005   3.388   9.894 -2.6665  2.4415  5.2657
  335MOL0     H46202  10.066   3.504  10.118  1.8784 -1.5400 -1.0954
  335MOL0     H46203  10.150   3.620  10.023  0.7099 -0.3811  1.2083
  335MOL0     H46204   9.929   3.689   9.919 -1.8477 -0.7858 -0.6246
  335MOL0     H46205   9.937   3.726  10.088 -2.5305  1.5535 -0.9536
  335MOL0     H46206   9.823   3.473   9.976  3.9993  2.4267 -1.2449
  335MOL0     H46207   9.719   3.614   9.991 -1.1913  0.2911 -1.1111
  335MOL0     H46208   9.725   3.622  10.228  0.3952  1.4392 -1.3961
  335MOL0     H46209   9.869   3.517  10.224 -0.6713  0.9483  0.4400
  335MOL0     H46210  10.368   3.094   9.691  1.4491  0.6486 -0.9903
  335MOL0     H46211  10.338   2.844   9.610 -0.5816  0.2723  1.6687
  335MOL0     H46212  10.077   2.509   9.659  6.4301 -0.0974 -1.7071
  335MOL0     H46213  10.047   2.281   9.629 -1.6662  3.6399  2.8846
  335MOL0     H46214  10.824   1.790   9.760 -2.1461 -0.7279 -0.8842
  335MOL0     H46215  11.050   1.770   9.817 -0.4143  1.1711  0.6853
  335MOL0     H46216  11.483   1.558   9.827 -1.2147 -1.3359  0.5965
  335MOL0     H46217  11.682   1.466   9.968  1.5453  1.7454 -0.2303
  335MOL0     H46218  11.792   1.407  10.374  0.4879 -1.3684  0.0796
  335MOL0     H46219  11.652   1.356  10.276 -1.5068  3.4447  2.5261
  335MOL0     H46220  11.943   1.355  10.199 -0.3303 -0.7538  0.6640
  335MOL0     H46221  11.811   1.278  10.107 -0.6883 -4.5994  1.3505
  335MOL0     H46222  11.959   1.206  10.363 -0.8839  2.1001  0.6904
  335MOL0     H46223  11.803   1.132  10.324  2.2235 -3.0033  1.0429
  335MOL0     H46224  11.996   1.139  10.097 -1.5443  2.6218 -0.5473
  335MOL0     H46225  11.884   1.014  10.148  0.5400 -2.9592  0.6005
  335MOL0     H46226  12.257   0.870  10.256 -0.5607 -1.3659  0.2492
  335MOL0     H46227  11.500   1.659  10.308 -1.4998 -0.2475  0.2570
  335MOL0     H46228  11.289   1.777  10.275 -2.0163 -0.2921  0.0052
  335MOL0     H46229  11.200   1.755  10.133  0.3940 -1.0616 -1.0799
  335MOL0     H46230  11.201   1.621  10.249  0.3729 -1.8987 -2.0538
  336MOL0     O46231   5.044   4.129   5.031 -0.6122 -0.2472  0.4865
  336MOL0     C46232   5.032   4.213   4.939  0.9920 -0.1112 -0.5350
  336MOL0     O46233   5.106   4.214   4.823  0.2407 -0.4566 -0.4116
  336MOL0     C46234   5.216   4.137   4.821  0.1720 -0.4286  0.0446
  336MOL0     C46235   5.338   4.199   4.806  0.2806  0.6654 -0.2911
  336MOL0     C46236   5.451   4.125   4.764  0.8590 -0.2798 -0.0856
  336MOL0     C46237   5.439   3.988   4.764  0.1494  0.7177 -0.9131
  336MOL0     O46238   5.542   3.895   4.731  0.0886  0.1853 -0.3711
  336MOL0     C46239   5.679   3.930   4.729  0.2379 -0.2730  0.6016
  336MOL0     C46240   5.756   3.797   4.741 -0.0885  0.5550  0.1960
  336MOL0     C46241   5.872   3.811   4.846  0.2543 -0.2176  1.0903
  336MOL0     C46242   5.930   3.671   4.864  0.5375 -0.1975 -0.1388
  336MOL0     C46243   5.998   3.655   4.994  0.8545 -0.0301  0.3983
  336MOL0     C46244   5.989   3.503   5.034  0.4157 -0.4738 -0.2269
  336MOL0     C46245   6.063   3.492   5.163 -0.6880 -0.4377  0.0370
  336MOL0     C46246   6.069   3.350   5.226 -0.1739 -0.5812 -0.2660
  336MOL0     N46247   5.948   3.267   5.212 -0.2895  0.0103  0.9941
  336MOL0     C46248   5.845   3.249   5.299  1.2193  1.1008  0.0168
  336MOL0     C46249   5.770   3.143   5.245 -0.3318 -1.0032  0.4612
  336MOL0     C46250   5.640   3.083   5.295 -0.2840  0.4621  0.1934
  336MOL0     C46251   5.524   3.100   5.198 -0.0643  0.6877  0.7390
  336MOL0     C46252   5.532   3.022   5.063 -1.6665  0.4603 -0.5177
  336MOL0     C46253   5.566   2.878   5.094  0.7356 -0.6262 -0.5015
  336MOL0     O46254   5.472   2.822   5.186  0.2732 -0.0035  0.4028
  336MOL0     C46255   5.498   2.697   5.222 -0.1221 -0.3261  0.1541
  336MOL0     C46256   5.597   2.614   5.162 -0.3615 -0.4556 -0.0033
  336MOL0     C46257   5.637   2.487   5.213 -0.0241  0.1353 -0.1014
  336MOL0     C46258   5.742   2.414   5.133 -0.7768  0.0111 -1.3839
  336MOL0     C46259   5.574   2.444   5.335 -0.9453  0.7114  0.0973
  336MOL0     C46260   5.607   2.311   5.407 -0.1002  1.0443 -0.0773
  336MOL0     O46261   5.723   2.238   5.381 -0.5159  0.5446  0.8003
  336MOL0     C46262   5.748   2.115   5.443  0.2356  0.4944 -0.3058
  336MOL0     C46263   5.648   2.017   5.439  0.1951  0.2355  0.0486
  336MOL0     C46264   5.666   1.895   5.501 -0.2964 -0.7168 -0.4842
  336MOL0     C46265   5.786   1.871   5.577  0.2817 -0.7454  0.0318
  336MOL0     O46266   5.800   1.751   5.644  0.0683 -0.4332  0.2476
  336MOL0     C46267   5.679   1.701   5.710 -0.3425  0.5110 -0.4676
  336MOL0     C46268   5.699   1.598   5.826 -0.5216  0.9886 -0.1980
  336MOL0     C46269   5.810   1.490   5.795  0.0606 -0.0937 -0.2679
  336MOL0     C46270   5.835   1.390   5.902 -0.7233 -0.4270 -0.0997
  336MOL0     C46271   5.936   1.280   5.874 -0.6605  0.1954  0.3342
  336MOL0     C46272   5.944   1.171   5.986  0.8425  0.2557 -0.5440
  336MOL0     C46273   6.031   1.053   5.925 -0.4559  1.0480 -0.2169
  336MOL0     C46274   6.084   0.947   6.022  0.2802 -0.4048 -0.1993
  336MOL0    Cl46275   6.170   1.026   6.162  0.5204 -0.3622  0.1061
  336MOL0     C46276   5.896   1.962   5.564 -0.0974 -0.4087  0.8340
  336MOL0     C46277   5.874   2.092   5.505  0.2205  0.5146 -0.7659
  336MOL0     O46278   5.519   2.272   5.491 -0.0262 -0.0072  0.4789
  336MOL0     C46279   5.472   2.527   5.384 -0.7175  0.1523  0.0940
  336MOL0     C46280   5.430   2.648   5.331  0.0273  0.2120 -0.1661
  336MOL0     N46281   5.843   3.094   5.140 -1.5659  0.4592  0.3220
  336MOL0     N46282   5.953   3.164   5.123  0.2884  1.1463  0.5416
  336MOL0     C46283   5.321   3.922   4.783 -0.1639 -0.3173  0.0384
  336MOL0     C46284   5.205   4.000   4.807 -0.0440 -0.1698  0.5242
  336MOL0     C46285   4.948   4.325   4.968  0.0211  0.1684 -0.2123
  336MOL0     C46286   4.950   4.431   4.871  0.0638  0.6395 -0.0235
  336MOL0     C46287   4.867   4.542   4.879  0.3305  0.2757 -0.0601
  336MOL0     C46288   4.781   4.554   4.988  0.8755  0.0316 -0.0100
  336MOL0     O46289   4.689   4.662   5.005  0.5037  0.5041  0.7083
  336MOL0     C46290   4.745   4.790   5.002  0.8578 -1.0325  0.4714
  336MOL0     C46291   4.720   4.881   5.126  1.7075 -0.1191 -0.3672
  336MOL0     C46292   4.562   4.908   5.133 -0.7104 -0.0779  0.0877
  336MOL0     C46293   4.535   5.035   5.218 -0.0065  0.0246  0.0894
  336MOL0     C46294   4.624   5.063   5.328  0.3414 -0.5789  0.4275
  336MOL0     C46295   4.684   5.105   5.434  0.1725  0.1717 -0.1159
  336MOL0     C46296   4.771   4.442   5.075 -0.3723 -0.0399 -1.0912
  336MOL0     C46297   4.850   4.330   5.072  0.0716 -0.5064  0.2594
  336MOL0     C46298   4.820   4.226   5.173 -0.3604 -0.0655 -1.2914
  336MOL0     H46299   5.343   4.308   4.803  1.5529  0.6258 -0.2589
  336MOL0     H46300   5.543   4.181   4.747  2.5923 -2.5699  1.2825
  336MOL0     H46301   5.699   3.993   4.816 -2.6844  2.3471 -0.4309
  336MOL0     H46302   5.704   3.984   4.637  0.8518 -1.8408 -0.1785
  336MOL0     H46303   5.692   3.718   4.780  0.5296  1.2395  2.7990
  336MOL0     H46304   5.799   3.777   4.642  2.3705 -1.7095  1.5620
  336MOL0     H46305   5.950   3.872   4.800  0.2429 -1.2821 -0.4286
  336MOL0     H46306   5.844   3.860   4.939  1.9655  0.4400  1.2807
  336MOL0     H46307   5.854   3.593   4.850  0.9321 -0.2827 -1.9548
  336MOL0     H46308   5.998   3.653   4.781 -0.9318 -3.2835 -0.8293
  336MOL0     H46309   5.951   3.716   5.071  2.6073  3.4229 -1.0366
  336MOL0     H46310   6.097   3.688   4.962  1.1210 -1.8456 -0.7951
  336MOL0     H46311   5.889   3.462   5.045  0.8808 -1.1568  1.9716
  336MOL0     H46312   6.035   3.435   4.962 -1.1797 -1.8809  0.0335
  336MOL0     H46313   6.018   3.555   5.241  1.6844 -0.9590  1.9782
  336MOL0     H46314   6.164   3.529   5.147 -0.3237  0.0244  2.8773
  336MOL0     H46315   6.160   3.302   5.190  0.8031  0.7467  0.3376
  336MOL0     H46316   6.081   3.345   5.334 -2.0762 -0.0816  0.0151
  336MOL0     H46317   5.817   3.311   5.384 -2.0193  0.3797 -0.4125
  336MOL0     H46318   5.619   3.116   5.398  0.7066  1.6215  0.0383
  336MOL0     H46319   5.659   2.978   5.320 -1.4723  0.6408  2.0758
  336MOL0     H46320   5.433   3.061   5.245  0.1170 -0.2232  0.3600
  336MOL0     H46321   5.518   3.205   5.169 -3.5388 -0.4298 -3.7125
  336MOL0     H46322   5.430   3.009   5.026 -2.0017  0.6906  0.3148
  336MOL0     H46323   5.606   3.065   4.995 -0.0306 -0.3862  0.6530
  336MOL0     H46324   5.539   2.826   5.002 -2.6127  1.7701 -1.0600
  336MOL0     H46325   5.671   2.869   5.122  1.2862  2.2477 -1.3988
  336MOL0     H46326   5.654   2.653   5.078  0.1887 -1.1495  0.0393
  336MOL0     H46327   5.752   2.448   5.029  3.3716 -0.1993 -1.2136
  336MOL0     H46328   5.716   2.309   5.115 -1.5612 -0.3089  1.1918
  336MOL0     H46329   5.839   2.421   5.183 -0.7837 -2.1580 -0.9650
  336MOL0     H46330   5.577   2.028   5.358 -2.1147 -1.6835  1.6876
  336MOL0     H46331   5.587   1.821   5.510  0.8654 -2.0280 -0.8250
  336MOL0     H46332   5.612   1.779   5.746 -0.7111 -0.6833  1.5927
  336MOL0     H46333   5.616   1.655   5.634 -0.0804  0.3439 -0.5870
  336MOL0     H46334   5.717   1.651   5.920 -1.9194 -2.0116  1.9217
  336MOL0     H46335   5.605   1.546   5.847  0.4974 -1.5305 -1.4157
  336MOL0     H46336   5.902   1.537   5.758  0.2378 -0.1039  0.1526
  336MOL0     H46337   5.770   1.430   5.713  1.0160  0.7935 -1.4190
  336MOL0     H46338   5.746   1.344   5.946 -2.6996  2.2673 -0.9855
  336MOL0     H46339   5.864   1.443   5.993 -1.4137 -0.8837  0.3978
  336MOL0     H46340   5.901   1.231   5.782  2.9064 -0.8501 -0.6252
  336MOL0     H46341   6.024   1.336   5.842  0.6402 -2.6768 -1.4143
  336MOL0     H46342   5.840   1.155   6.018 -0.5071  5.1876 -1.6130
  336MOL0     H46343   5.995   1.227   6.065 -0.8624  2.5269 -0.9461
  336MOL0     H46344   6.115   1.096   5.868 -0.1968  1.5187  0.5003
  336MOL0     H46345   5.970   0.990   5.860 -0.8192  1.0562  0.1161
  336MOL0     H46346   6.158   0.881   5.975  1.5637  1.4148 -0.8535
  336MOL0     H46347   6.001   0.892   6.067 -1.4203  1.8949 -0.3789
  336MOL0     H46348   5.990   1.940   5.613  0.6776  1.7543  0.4557
  336MOL0     H46349   5.954   2.165   5.493 -0.2231  1.7924  2.8122
  336MOL0     H46350   5.430   2.478   5.471  0.3585  1.8264  1.6102
  336MOL0     H46351   5.357   2.711   5.380 -0.6371 -1.2342  0.7543
  336MOL0     H46352   5.326   3.817   4.759  1.5512  0.0978 -1.7183
  336MOL0     H46353   5.109   3.949   4.797 -0.5837  1.1918 -1.9870
  336MOL0     H46354   5.023   4.436   4.791 -2.2367 -3.9218 -2.7982
  336MOL0     H46355   4.882   4.614   4.799 -2.1146 -0.2825 -1.1248
  336MOL0     H46356   4.850   4.804   4.975  0.4365  0.7150 -0.4574
  336MOL0     H46357   4.688   4.838   4.921 -1.7939 -3.7692  0.5419
  336MOL0     H46358   4.782   4.971   5.118  2.7773 -0.6583  1.3146
  336MOL0     H46359   4.754   4.824   5.213 -2.1621 -1.3476  0.5357
  336MOL0     H46360   4.536   4.930   5.028  0.6358  0.8220 -0.0911
  336MOL0     H46361   4.512   4.819   5.172 -1.3891  1.2957  2.4959
  336MOL0     H46362   4.432   5.024   5.254 -1.2770  0.2509 -3.1909
  336MOL0     H46363   4.546   5.125   5.157  0.6663  1.2545  1.9450
  336MOL0     H46364   4.716   5.144   5.528  0.3755 -0.8708  0.2670
  336MOL0     H46365   4.691   4.437   5.148 -2.4151  0.8118 -3.1689
  336MOL0     H46366   4.793   4.132   5.123 -1.0610 -1.0386  0.8199
  336MOL0     H46367   4.910   4.221   5.233 -0.2626  1.9212 -1.2043
  336MOL0     H46368   4.744   4.240   5.251 -1.1904 -3.4070 -1.3416
  337MOL0     O46369  10.677   7.532   6.065 -0.0692 -0.4454  0.1776
  337MOL0     C46370  10.723   7.579   5.956  0.9402  0.1027 -0.4532
  337MOL0     O46371  10.715   7.508   5.842  0.3877  0.3611 -0.1742
  337MOL0     C46372  10.670   7.372   5.854  0.8661 -0.8882 -0.1140
  337MOL0     C46373  10.763   7.267   5.837  0.9851 -0.0557  0.6542
  337MOL0     C46374  10.715   7.135   5.833  0.6791 -0.7265 -0.8721
  337MOL0     C46375  10.587   7.100   5.857  0.7419  0.2145 -0.8239
  337MOL0     O46376  10.542   6.975   5.842  0.1975 -0.4125 -0.1814
  337MOL0     C46377  10.628   6.867   5.883  0.4620  0.4549  0.3942
  337MOL0     C46378  10.564   6.733   5.922 -0.4181 -0.0014 -0.1811
  337MOL0     C46379  10.493   6.758   6.056  0.2018 -0.5702  1.7871
  337MOL0     C46380  10.420   6.639   6.109 -0.0885 -0.8042  0.0398
  337MOL0     C46381  10.489   6.504   6.093  0.0299  0.2141 -0.9547
  337MOL0     C46382  10.608   6.483   6.176 -0.3803 -0.3777 -0.5652
  337MOL0     C46383  10.657   6.337   6.189  0.3385  0.7445 -0.0878
  337MOL0     C46384  10.555   6.230   6.234  0.4141 -0.0841  0.4878
  337MOL0     N46385  10.528   6.239   6.377 -0.3479 -0.5921 -0.2550
  337MOL0     C46386  10.555   6.138   6.466  0.1980  1.2644 -0.7322
  337MOL0     C46387  10.541   6.187   6.588 -0.9443  1.4524 -0.0448
  337MOL0     C46388  10.574   6.119   6.721 -0.3472 -0.6870 -0.1101
  337MOL0     C46389  10.452   6.031   6.757 -0.0055 -0.5790 -0.6973
  337MOL0     C46390  10.477   5.910   6.844 -0.1601  0.3094 -0.8518
  337MOL0     C46391  10.469   5.771   6.782 -0.4263 -0.3376  0.4200
  337MOL0     O46392  10.482   5.653   6.862  1.0353  0.5039  0.0583
  337MOL0     C46393  10.593   5.615   6.936  0.1190 -0.3253  0.5750
  337MOL0     C46394  10.571   5.560   7.065 -0.4031 -0.3511 -0.4382
  337MOL0     C46395  10.681   5.531   7.155  0.1642  0.3881  0.8389
  337MOL0     C46396  10.642   5.474   7.289 -0.2466 -0.3467 -0.2107
  337MOL0     C46397  10.810   5.550   7.113 -0.6121  0.0330 -1.5712
  337MOL0     C46398  10.930   5.496   7.182 -0.8608  0.2671  0.8543
  337MOL0     O46399  11.039   5.463   7.103 -0.4958 -0.0740  0.4707
  337MOL0     C46400  11.153   5.385   7.136  0.1127  1.6460 -0.7040
  337MOL0     C46401  11.261   5.387   7.037 -0.4440  0.5296 -0.2920
  337MOL0     C46402  11.368   5.296   7.055  0.4621  0.3736  0.0118
  337MOL0     C46403  11.381   5.221   7.170  0.4367 -0.3813  0.4468
  337MOL0     O46404  11.505   5.164   7.175  0.1688  0.0420 -0.5683
  337MOL0     C46405  11.537   5.073   7.280 -0.5387 -0.1662  0.1616
  337MOL0     C46406  11.685   5.049   7.287 -0.6543  0.2897  0.2094
  337MOL0     C46407  11.764   5.175   7.314 -1.3593  0.6580 -0.5515
  337MOL0     C46408  11.909   5.167   7.268  1.7031  1.0893 -0.0346
  337MOL0     C46409  12.004   5.248   7.347 -0.0594 -0.4500  0.2801
  337MOL0     C46410  11.990   5.402   7.339  0.0545  0.2683 -0.0986
  337MOL0     C46411  12.116   5.468   7.406 -0.4629  0.2075 -0.4159
  337MOL0     C46412  12.152   5.437   7.542  0.1863  0.0400  0.1356
  337MOL0    Cl46413  12.020   5.457   7.664 -0.3730  0.6248  0.3907
  337MOL0     C46414  11.270   5.202   7.252  0.7541 -0.8226 -0.9214
  337MOL0     C46415  11.159   5.291   7.242 -0.4415 -0.0480 -0.1129
  337MOL0     O46416  10.924   5.467   7.304  0.7656  0.3341 -0.1975
  337MOL0     C46417  10.830   5.597   6.984  0.8418  0.7279 -0.4581
  337MOL0     C46418  10.725   5.647   6.902 -0.6718 -0.2628 -0.4073
  337MOL0     N46419  10.505   6.320   6.572  0.3461  0.9368 -0.3867
  337MOL0     N46420  10.502   6.351   6.445  0.1094 -0.4506  0.2059
  337MOL0     C46421  10.495   7.199   5.891  1.5745  0.0745  0.7837
  337MOL0     C46422  10.533   7.334   5.881 -1.4671  0.4649 -0.7770
  337MOL0     C46423  10.757   7.712   5.939  0.1561  0.0538  0.1619
  337MOL0     C46424  10.673   7.811   6.002 -0.3367 -0.0726 -0.2974
  337MOL0     C46425  10.688   7.949   5.968 -0.3121  0.0929  0.2046
  337MOL0     C46426  10.784   7.978   5.875  0.4292 -0.1438  0.4488
  337MOL0     O46427  10.780   8.101   5.817 -0.3906 -0.6540 -0.1009
  337MOL0     C46428  10.885   8.199   5.844 -1.3134  0.1956  0.2331
  337MOL0     C46429  10.961   8.269   5.718 -0.5606  0.0379  0.0866
  337MOL0     C46430  11.073   8.350   5.754  0.0897  0.2647 -0.5084
  337MOL0     C46431  11.050   8.455   5.870 -0.2614  0.6455  0.2554
  337MOL0     C46432  10.937   8.544   5.835 -0.4857  0.7615 -0.1391
  337MOL0     C46433  10.850   8.629   5.808  0.1899  0.9115 -0.2693
  337MOL0     C46434  10.872   7.885   5.826  0.2208 -1.2564 -0.2864
  337MOL0     C46435  10.862   7.753   5.859 -0.6504  0.6046  0.6227
  337MOL0     C46436  10.965   7.674   5.802  0.4819  0.3836 -0.0442
  337MOL0     H46437  10.869   7.285   5.829  1.1649 -1.3773 -0.4720
  337MOL0     H46438  10.792   7.063   5.806  1.2321 -1.5747  2.5155
  337MOL0     H46439  10.688   6.883   5.973  0.9652 -1.3524  0.4314
  337MOL0     H46440  10.695   6.841   5.801  1.4829  1.1919  0.9766
  337MOL0     H46441  10.484   6.711   5.851 -1.3391 -1.8498  1.3323
  337MOL0     H46442  10.638   6.655   5.936 -0.3553  0.4140  2.2296
  337MOL0     H46443  10.564   6.799   6.129  0.9908  0.8915  0.2734
  337MOL0     H46444  10.417   6.832   6.028 -0.2702 -2.7845 -4.2841
  337MOL0     H46445  10.398   6.651   6.216 -2.0801 -1.4645 -0.2478
  337MOL0     H46446  10.333   6.630   6.044  0.3540 -1.8898 -0.4314
  337MOL0     H46447  10.508   6.484   5.987 -0.9428 -0.9465 -0.9282
  337MOL0     H46448  10.405   6.444   6.127 -0.6916  1.7296  0.0896
  337MOL0     H46449  10.693   6.544   6.145 -0.4202  1.0606  1.8559
  337MOL0     H46450  10.584   6.530   6.272 -0.8978 -0.3900 -0.6830
  337MOL0     H46451  10.750   6.338   6.247 -1.2570  1.2289  2.6350
  337MOL0     H46452  10.687   6.306   6.089  3.6899  1.6462  0.5214
  337MOL0     H46453  10.460   6.254   6.185 -0.4070  1.2970  2.6010
  337MOL0     H46454  10.578   6.130   6.198  2.4927  0.5143  0.0125
  337MOL0     H46455  10.594   6.040   6.438  1.4311  2.1431 -2.2850
  337MOL0     H46456  10.591   6.198   6.795 -0.9046  2.4512 -3.0503
  337MOL0     H46457  10.666   6.061   6.710 -1.0294 -1.5717 -1.4710
  337MOL0     H46458  10.391   6.095   6.821  2.3986 -1.0241  2.2574
  337MOL0     H46459  10.398   5.996   6.669 -1.2329  0.7849 -0.5391
  337MOL0     H46460  10.561   5.913   6.914 -0.8223  0.6422 -0.0452
  337MOL0     H46461  10.391   5.913   6.912 -1.3756 -2.8285 -2.0703
  337MOL0     H46462  10.364   5.761   6.752 -0.8120 -1.2736  1.9390
  337MOL0     H46463  10.518   5.777   6.685 -1.3863  2.3857  0.0058
  337MOL0     H46464  10.472   5.550   7.108  1.5026 -0.3640  4.6402
  337MOL0     H46465  10.669   5.524   7.382 -2.4065 -0.8760  0.7700
  337MOL0     H46466  10.669   5.368   7.289 -1.1692 -0.7946  4.1243
  337MOL0     H46467  10.532   5.473   7.290 -0.3004 -2.9808  0.9793
  337MOL0     H46468  11.245   5.444   6.946 -1.8497  0.2885 -0.2260
  337MOL0     H46469  11.461   5.292   6.998  0.1319 -2.1720 -0.4511
  337MOL0     H46470  11.514   5.112   7.379  0.6773  3.3678 -0.7968
  337MOL0     H46471  11.478   4.982   7.268  1.2730 -1.1139 -2.6699
  337MOL0     H46472  11.700   4.977   7.368 -2.7393 -0.7867 -0.2910
  337MOL0     H46473  11.714   4.991   7.198 -1.3226  1.7952 -1.0350
  337MOL0     H46474  11.753   5.192   7.422 -3.4742  3.4826 -1.1048
  337MOL0     H46475  11.728   5.263   7.260  0.2488  1.5432 -0.2439
  337MOL0     H46476  11.910   5.193   7.162 -1.0062 -0.7814 -0.6355
  337MOL0     H46477  11.937   5.062   7.275  0.7094  0.7902 -0.3637
  337MOL0     H46478  11.999   5.220   7.453 -1.4208  1.5991  0.8033
  337MOL0     H46479  12.097   5.204   7.310  0.8633  0.3721  1.5213
  337MOL0     H46480  11.899   5.438   7.389  0.0286 -0.8970  0.7220
  337MOL0     H46481  11.995   5.429   7.233  7.1748 -0.8366 -0.5087
  337MOL0     H46482  12.103   5.576   7.412  0.2405  0.2022  2.6264
  337MOL0     H46483  12.207   5.460   7.346 -0.1776 -2.7589  0.2556
  337MOL0     H46484  12.237   5.498   7.574  1.6713 -0.5639 -2.3804
  337MOL0     H46485  12.164   5.329   7.544 -2.8526 -0.3905 -0.3875
  337MOL0     H46486  11.276   5.121   7.325 -1.7713 -0.0270  0.2725
  337MOL0     H46487  11.090   5.262   7.321  0.0004  0.9485  0.6745
  337MOL0     H46488  10.931   5.599   6.944  0.1248  0.5546 -2.3657
  337MOL0     H46489  10.753   5.692   6.807 -1.0019 -0.3537 -0.5511
  337MOL0     H46490  10.395   7.167   5.918  1.0513  0.0691 -1.0354
  337MOL0     H46491  10.464   7.410   5.917  1.4168  1.2853  3.9577
  337MOL0     H46492  10.586   7.776   6.056  1.0149  0.7934  2.6415
  337MOL0     H46493  10.604   8.011   5.995 -1.5931 -1.7366  0.5910
  337MOL0     H46494  10.846   8.278   5.908 -1.1473 -0.0006  0.5780
  337MOL0     H46495  10.969   8.160   5.903  0.7300  0.6857 -2.1697
  337MOL0     H46496  10.885   8.329   5.668  1.0313 -0.7833 -3.6703
  337MOL0     H46497  10.990   8.186   5.652 -0.8874 -3.3099  3.7692
  337MOL0     H46498  11.151   8.284   5.795  0.2306  1.4507  1.2414
  337MOL0     H46499  11.111   8.404   5.667 -2.4011  2.6767 -0.2216
  337MOL0     H46500  11.130   8.526   5.891  1.5668 -1.6194  1.4323
  337MOL0     H46501  11.042   8.404   5.966  2.6647 -2.3785 -0.8811
  337MOL0     H46502  10.775   8.700   5.780  0.7753  1.7372  0.2141
  337MOL0     H46503  10.947   7.919   5.755  0.8552  0.7118  1.2515
  337MOL0     H46504  10.969   7.574   5.844  1.5838  0.0942 -0.7979
  337MOL0     H46505  10.949   7.664   5.694 -1.7723  0.2999  0.2652
  337MOL0     H46506  11.064   7.716   5.824  1.1181 -1.2725  0.3580
  338MOL0     O46507   4.273  11.441   7.243 -0.4603 -0.6417 -0.0962
  338MOL0     C46508   4.226  11.548   7.277  0.0908 -1.0375  1.0695
  338MOL0     O46509   4.268  11.674   7.221  0.8310  1.2711 -0.4757
  338MOL0     C46510   4.359  11.662   7.126  1.0153  0.6284 -0.7768
  338MOL0     C46511   4.326  11.684   6.995  0.9551  0.2183  0.5052
  338MOL0     C46512   4.408  11.643   6.888 -0.0747 -0.2091  0.4804
  338MOL0     C46513   4.532  11.592   6.912 -0.6360  0.5703  0.5537
  338MOL0     O46514   4.606  11.559   6.800  0.0492 -0.0700 -0.1122
  338MOL0     C46515   4.723  11.477   6.798  0.3380  0.2336  0.0999
  338MOL0     C46516   4.753  11.399   6.665  0.0082 -0.0858 -0.3071
  338MOL0     C46517   4.620  11.333   6.615 -0.4864 -0.1104  0.1513
  338MOL0     C46518   4.650  11.240   6.493 -0.0195  0.5009 -0.1111
  338MOL0     C46519   4.525  11.244   6.407 -0.8464  0.4639  0.7530
  338MOL0     C46520   4.495  11.374   6.338 -0.5492  0.6497 -0.4325
  338MOL0     C46521   4.344  11.398   6.304 -0.9626  0.7274  0.9869
  338MOL0     C46522   4.263  11.462   6.412 -0.0559  1.0095  0.0955
  338MOL0     N46523   4.122  11.452   6.376 -1.2351  0.3035  0.0365
  338MOL0     C46524   4.027  11.388   6.452  0.2407  0.1443  0.4120
  338MOL0     C46525   3.907  11.426   6.406  0.5942 -0.3851  0.0576
  338MOL0     C46526   3.765  11.379   6.454  1.2204  0.5738 -0.0917
  338MOL0     C46527   3.751  11.228   6.475 -0.0860 -0.0763 -0.2225
  338MOL0     C46528   3.619  11.163   6.483 -0.1562  0.3754 -0.0532
  338MOL0     C46529   3.535  11.207   6.603  0.6354  0.7394 -0.5638
  338MOL0     O46530   3.587  11.151   6.719 -0.3841 -0.4674  0.3320
  338MOL0     C46531   3.514  11.166   6.831 -0.0776  0.1914 -0.2511
  338MOL0     C46532   3.422  11.265   6.858 -0.3430 -0.1832  1.1751
  338MOL0     C46533   3.346  11.277   6.983 -0.5517  0.0341  0.2682
  338MOL0     C46534   3.238  11.385   6.977  0.3075  0.3796  0.9271
  338MOL0     C46535   3.380  11.192   7.092  0.1290 -0.5989 -1.1424
  338MOL0     C46536   3.310  11.192   7.225  0.1846  0.3815  0.0449
  338MOL0     O46537   3.344  11.107   7.326  0.1641  0.9384  0.6653
  338MOL0     C46538   3.279  11.105   7.454  0.5775  0.8256 -0.8052
  338MOL0     C46539   3.306  11.217   7.536 -0.7166 -0.5783  0.3464
  338MOL0     C46540   3.256  11.220   7.664  0.9713  0.5264  0.3551
  338MOL0     C46541   3.171  11.123   7.714 -0.4964  0.8903 -0.9124
  338MOL0     O46542   3.135  11.131   7.849  0.5776  0.8774  0.0314
  338MOL0     C46543   2.993  11.165   7.868 -1.6411  0.6535  1.0653
  338MOL0     C46544   2.947  11.122   8.005 -0.1618 -0.1876 -0.3861
  338MOL0     C46545   3.025  11.191   8.121  0.5358  0.9488 -0.4968
  338MOL0     C46546   2.933  11.232   8.236 -0.5492 -0.3639 -0.6979
  338MOL0     C46547   2.822  11.334   8.194  1.2044 -0.4185 -0.6726
  338MOL0     C46548   2.684  11.307   8.267  0.8997 -0.2261  0.4776
  338MOL0     C46549   2.594  11.429   8.250 -0.2358  0.0837 -1.6021
  338MOL0     C46550   2.456  11.387   8.239  0.7748  0.2160  0.2719
  338MOL0    Cl46551   2.385  11.350   8.392  0.4202 -0.6421  0.3193
  338MOL0     C46552   3.138  11.011   7.637  0.6862  1.3983  0.3171
  338MOL0     C46553   3.192  11.007   7.503  0.9277  0.8304 -0.2305
  338MOL0     O46554   3.232  11.289   7.242 -0.2065  0.2343 -0.1768
  338MOL0     C46555   3.472  11.092   7.067  0.6866  0.0308  0.1484
  338MOL0     C46556   3.545  11.086   6.941  0.1646 -0.0824 -0.7684
  338MOL0     N46557   3.932  11.504   6.290 -0.0743  0.1479  0.3254
  338MOL0     N46558   4.067  11.516   6.275 -0.6664  0.0912  0.4215
  338MOL0     C46559   4.581  11.578   7.045  0.8252  0.4476  0.7611
  338MOL0     C46560   4.493  11.605   7.149  0.0507 -0.1092  0.8148
  338MOL0     C46561   4.134  11.545   7.388 -0.7409  0.2722 -0.6344
  338MOL0     C46562   4.062  11.663   7.420  0.1057  0.0975 -0.4222
  338MOL0     C46563   3.978  11.672   7.534 -0.2629 -0.4763 -0.2038
  338MOL0     C46564   3.959  11.558   7.615  0.1096 -0.8424 -0.1062
  338MOL0     O46565   3.889  11.583   7.735  0.2978  0.1693 -0.1180
  338MOL0     C46566   3.760  11.528   7.717 -0.0460 -0.7837 -0.6051
  338MOL0     C46567   3.676  11.612   7.620 -0.1742 -0.3933 -1.0653
  338MOL0     C46568   3.536  11.557   7.618  0.0321  0.4120  0.0745
  338MOL0     C46569   3.418  11.647   7.646 -0.6770  1.1072  0.1261
  338MOL0     C46570   3.399  11.739   7.534 -0.8289  0.0692 -0.3697
  338MOL0     C46571   3.360  11.814   7.446  0.3121 -0.1897 -0.6349
  338MOL0     C46572   4.020  11.441   7.585  1.0062  0.4821  0.2283
  338MOL0     C46573   4.097  11.431   7.465 -0.1989  0.7657 -0.4163
  338MOL0     C46574   4.136  11.287   7.443 -0.2540 -0.1400  1.0619
  338MOL0     H46575   4.228  11.724   6.971  2.0466  3.0892  0.4789
  338MOL0     H46576   4.371  11.653   6.787  2.3507  1.0437 -0.3787
  338MOL0     H46577   4.723  11.402   6.878  2.9674  0.1593  0.1128
  338MOL0     H46578   4.808  11.535   6.834  0.4867 -0.5097  0.9880
  338MOL0     H46579   4.797  11.467   6.592  0.6109 -0.7115 -0.5400
  338MOL0     H46580   4.829  11.326   6.694 -1.0028  0.1255  3.4269
  338MOL0     H46581   4.578  11.278   6.699 -0.5202  1.8213  1.4476
  338MOL0     H46582   4.544  11.407   6.590 -1.5309 -0.0513  3.1574
  338MOL0     H46583   4.732  11.278   6.430  1.8735 -2.2673  0.5285
  338MOL0     H46584   4.684  11.144   6.532  1.9697  1.5506  0.8919
  338MOL0     H46585   4.443  11.224   6.477 -0.5550 -2.4576  0.3934
  338MOL0     H46586   4.527  11.159   6.338 -0.9781  1.3912 -0.4239
  338MOL0     H46587   4.534  11.458   6.396 -1.8786  2.4491 -2.0256
  338MOL0     H46588   4.551  11.369   6.244 -0.2603  1.4784 -0.3181
  338MOL0     H46589   4.305  11.299   6.278  0.7061 -0.4115  2.5931
  338MOL0     H46590   4.334  11.467   6.219 -0.5043 -0.3153  0.0452
  338MOL0     H46591   4.282  11.413   6.507  1.9240  1.7086  0.1107
  338MOL0     H46592   4.296  11.565   6.426  1.6157  0.3232  1.5908
  338MOL0     H46593   4.034  11.327   6.542  1.0122  0.3838  0.5215
  338MOL0     H46594   3.693  11.392   6.373 -1.9289  0.4759  2.4826
  338MOL0     H46595   3.728  11.432   6.542  2.4637 -0.9322  1.4320
  338MOL0     H46596   3.807  11.170   6.401 -1.8498 -1.2634 -0.7024
  338MOL0     H46597   3.798  11.203   6.571 -2.1432  4.5198  2.3078
  338MOL0     H46598   3.560  11.196   6.397 -0.7025  1.3196  0.6615
  338MOL0     H46599   3.628  11.054   6.483  0.9781  0.4351  1.0679
  338MOL0     H46600   3.537  11.314   6.627 -1.7302  0.0050  4.3358
  338MOL0     H46601   3.438  11.160   6.586  1.2142 -0.5441 -0.4096
  338MOL0     H46602   3.396  11.332   6.776  0.0066 -3.6883 -2.0950
  338MOL0     H46603   3.231  11.426   6.876 -0.7126  2.7986  1.9038
  338MOL0     H46604   3.273  11.458   7.051  4.5726 -4.0310  3.9280
  338MOL0     H46605   3.142  11.340   7.004  1.1164 -1.2406  1.1740
  338MOL0     H46606   3.371  11.298   7.503 -1.0241 -0.7943 -0.8289
  338MOL0     H46607   3.258  11.303   7.733  0.9570  0.7334  0.1090
  338MOL0     H46608   2.994  11.273   7.855  1.7184  0.6922  0.8729
  338MOL0     H46609   2.933  11.124   7.786  2.3744  1.7445 -2.8080
  338MOL0     H46610   2.840  11.142   8.012 -0.4920 -2.2783  2.3595
  338MOL0     H46611   2.960  11.013   8.008  1.4169 -0.1299 -2.8082
  338MOL0     H46612   3.086  11.277   8.093  2.8558  0.6646  3.0098
  338MOL0     H46613   3.100  11.119   8.156 -0.7848  1.0330  2.8616
  338MOL0     H46614   2.996  11.268   8.318 -1.5753 -0.4073  0.1300
  338MOL0     H46615   2.884  11.146   8.282  1.0010  0.1865  2.2772
  338MOL0     H46616   2.855  11.435   8.221  2.1503 -0.9064  0.1045
  338MOL0     H46617   2.807  11.338   8.086  1.1802  0.7081 -0.6463
  338MOL0     H46618   2.695  11.306   8.376  3.6525 -0.6046  0.2696
  338MOL0     H46619   2.640  11.209   8.247 -0.2097  0.0825  1.3030
  338MOL0     H46620   2.625  11.488   8.163 -1.7511  3.1527 -0.2251
  338MOL0     H46621   2.603  11.491   8.339 -0.3580  3.9679 -4.0354
  338MOL0     H46622   2.445  11.297   8.179  1.7565 -1.2593  2.1869
  338MOL0     H46623   2.401  11.474   8.202  2.9821  1.3044 -0.6139
  338MOL0     H46624   3.089  10.922   7.675 -0.2230  1.4518 -0.7020
  338MOL0     H46625   3.174  10.925   7.434  0.7412 -0.6554  1.5212
  338MOL0     H46626   3.510  11.017   7.136  0.6808  1.1834  1.4548
  338MOL0     H46627   3.623  11.011   6.936  1.4973  1.0222  1.6572
  338MOL0     H46628   4.687  11.561   7.062  0.7849  1.8328  2.6686
  338MOL0     H46629   4.521  11.583   7.252  1.0253  2.2892  1.1100
  338MOL0     H46630   4.064  11.743   7.347  1.0759  0.1210 -0.3870
  338MOL0     H46631   3.936  11.767   7.566  2.8873  0.8532  0.3765
  338MOL0     H46632   3.763  11.421   7.695  0.4593 -0.7353 -0.7852
  338MOL0     H46633   3.708  11.521   7.813  0.9963 -1.5127 -0.0731
  338MOL0     H46634   3.719  11.628   7.521  3.4598 -0.4370  0.3409
  338MOL0     H46635   3.692  11.711   7.665  1.7058 -0.2506 -1.9760
  338MOL0     H46636   3.515  11.512   7.521  0.6361  2.8092 -1.2414
  338MOL0     H46637   3.530  11.469   7.683 -0.6572  0.3644 -0.0461
  338MOL0     H46638   3.441  11.701   7.739  1.0801  1.8262 -0.6794
  338MOL0     H46639   3.331  11.582   7.659  0.2542  0.3013  2.9850
  338MOL0     H46640   3.329  11.882   7.369 -2.0443 -2.3959 -1.7990
  338MOL0     H46641   4.006  11.349   7.641 -1.2882  1.5034  1.4507
  338MOL0     H46642   4.086  11.221   7.515  1.1416  0.5262  2.7273
  338MOL0     H46643   4.095  11.268   7.344 -0.3872  3.0952  0.3888
  338MOL0     H46644   4.242  11.258   7.435 -0.2900 -0.0407  0.1328
  339MOL0     O46645  10.503   9.582  10.150 -0.6472 -0.3693  0.2490
  339MOL0     C46646  10.462   9.467  10.157  0.2801 -0.1604  0.7466
  339MOL0     O46647  10.334   9.437  10.178  0.1115 -0.6952  0.3929
  339MOL0     C46648  10.231   9.528  10.166  0.0855  0.1672  0.0561
  339MOL0     C46649  10.207   9.588  10.046  0.7395 -0.3283 -0.7560
  339MOL0     C46650  10.081   9.651  10.020 -0.3934 -0.2952  0.7845
  339MOL0     C46651   9.999   9.665  10.129  1.2243 -0.1757 -0.3660
  339MOL0     O46652   9.867   9.707  10.104 -0.3345 -0.2030 -0.2081
  339MOL0     C46653   9.839   9.823  10.189  0.6193  0.7829 -0.4096
  339MOL0     C46654   9.887   9.955  10.124  0.0324 -0.0556 -0.3315
  339MOL0     C46655   9.898  10.074  10.229 -0.6415 -0.9233  0.2887
  339MOL0     C46656   9.770  10.135  10.272  0.3160 -1.6672  0.0086
  339MOL0     C46657   9.792  10.281  10.336  0.6548 -0.2830  0.7612
  339MOL0     C46658   9.661  10.295  10.423 -0.5863 -0.2222  0.3679
  339MOL0     C46659   9.661  10.441  10.468 -0.7453  0.4852  0.7076
  339MOL0     C46660   9.574  10.531  10.380 -0.2273 -0.8119  1.4154
  339MOL0     N46661   9.583  10.669  10.419 -0.0115  0.0546  0.1225
  339MOL0     C46662   9.548  10.718  10.539 -0.2641 -0.1177  0.2037
  339MOL0     C46663   9.568  10.853  10.531 -1.0101  0.1131  0.4088
  339MOL0     C46664   9.529  10.947  10.639 -0.6771  0.7159  0.5373
  339MOL0     C46665   9.406  11.008  10.601  0.2063 -0.1501 -0.5625
  339MOL0     C46666   9.275  10.929  10.563  0.8374 -0.0710  0.3908
  339MOL0     C46667   9.228  10.833  10.673 -0.2178  0.1916  0.1341
  339MOL0     O46668   9.115  10.767  10.613 -0.3158  0.4144  0.1784
  339MOL0     C46669   9.129  10.632  10.574  0.1620  0.2330 -0.2073
  339MOL0     C46670   9.219  10.541  10.634  0.3446  0.6017 -1.1227
  339MOL0     C46671   9.236  10.408  10.583  1.3968 -0.0714 -0.8443
  339MOL0     C46672   9.332  10.313  10.650 -0.7613 -0.2701 -0.5876
  339MOL0     C46673   9.171  10.374  10.463  0.2800 -0.1082 -0.4063
  339MOL0     C46674   9.191  10.246  10.384  0.3755 -0.6211 -0.7899
  339MOL0     O46675   9.314  10.195  10.395 -0.8773  0.2222 -0.0300
  339MOL0     C46676   9.333  10.059  10.377 -0.0089 -0.3055  0.6143
  339MOL0     C46677   9.292   9.962  10.470 -0.1147 -0.5005  0.2957
  339MOL0     C46678   9.324   9.832  10.458  0.5223  0.4877 -0.2108
  339MOL0     C46679   9.416   9.799  10.360 -0.5847  0.4679  0.3399
  339MOL0     O46680   9.479   9.676  10.360 -0.4420 -0.2472 -0.6857
  339MOL0     C46681   9.489   9.604  10.229 -0.2809 -0.0570 -0.6227
  339MOL0     C46682   9.461   9.451  10.258  0.7246  0.3872 -0.3096
  339MOL0     C46683   9.560   9.390  10.351  0.2079  0.9489  0.1617
  339MOL0     C46684   9.546   9.241  10.350 -0.8195 -0.0385 -0.9340
  339MOL0     C46685   9.617   9.176  10.475  0.1990 -0.3006  0.0840
  339MOL0     C46686   9.631   9.020  10.452  0.4869 -0.7642 -0.2285
  339MOL0     C46687   9.642   8.952  10.589  0.8526 -0.4040 -0.5954
  339MOL0     C46688   9.775   8.888  10.605  0.5773  0.2762  0.2504
  339MOL0    Cl46689   9.805   8.829  10.765 -0.5306 -0.0104 -0.0536
  339MOL0     C46690   9.437   9.880  10.253 -0.4143 -0.3487 -1.1210
  339MOL0     C46691   9.403  10.017  10.266 -0.3770 -0.5144  0.2671
  339MOL0     O46692   9.094  10.189  10.328  0.6956  0.4181 -0.0605
  339MOL0     C46693   9.067  10.465  10.421 -0.3011 -0.3263  1.0748
  339MOL0     C46694   9.037  10.591  10.478 -1.0591  1.0637 -0.1905
  339MOL0     N46695   9.615  10.882  10.401  0.3187  0.4232  0.3446
  339MOL0     N46696   9.639  10.767  10.347  0.0760  0.2250  0.0223
  339MOL0     C46697  10.028   9.621  10.258  0.3482  0.4749  0.2051
  339MOL0     C46698  10.144   9.549  10.274 -0.3037  0.5548 -1.7312
  339MOL0     C46699  10.550   9.348  10.113  0.3292 -0.7557 -0.8801
  339MOL0     C46700  10.487   9.222  10.121 -0.8067 -0.3584  0.4207
  339MOL0     C46701  10.553   9.112  10.071 -1.1517 -0.6208  0.5512
  339MOL0     C46702  10.689   9.115  10.029 -0.1662  0.8286  0.5471
  339MOL0     O46703  10.744   9.001   9.984 -0.0301 -0.5610 -0.2090
  339MOL0     C46704  10.888   9.000   9.956  0.0287  1.0169 -0.5909
  339MOL0     C46705  10.914   8.861   9.894  0.6682 -0.0358  0.3163
  339MOL0     C46706  10.909   8.734   9.983  0.3014  0.3607  0.4912
  339MOL0     C46707  10.969   8.614   9.909 -0.0575 -0.1281 -0.0903
  339MOL0     C46708  11.117   8.611   9.927  0.5813  0.2516  1.0658
  339MOL0     C46709  11.235   8.613   9.955  0.6102 -0.1066 -0.0727
  339MOL0     C46710  10.751   9.243  10.018 -0.3669  0.0695  0.3837
  339MOL0     C46711  10.683   9.356  10.076  0.3490  0.2618  0.4786
  339MOL0     C46712  10.754   9.483  10.070  0.3741  0.0214  0.1486
  339MOL0     H46713  10.291   9.591   9.977  2.2272  0.9197  1.0168
  339MOL0     H46714  10.053   9.676   9.918  0.2782 -1.8169  0.2101
  339MOL0     H46715   9.883   9.813  10.289  1.0727 -3.5127 -0.8541
  339MOL0     H46716   9.733   9.824  10.217  0.9994  1.7454  1.1584
  339MOL0     H46717   9.988   9.946  10.085  0.5274  0.1981  0.8430
  339MOL0     H46718   9.818   9.981  10.043 -3.6635  0.3535  2.6358
  339MOL0     H46719   9.950  10.056  10.323 -1.0062 -2.1550  0.2728
  339MOL0     H46720   9.951  10.155  10.178 -1.9118  0.2798  0.8222
  339MOL0     H46721   9.701  10.132  10.188  1.8990  1.8024 -1.6187
  339MOL0     H46722   9.742  10.068  10.354  0.5249  3.2051  4.6717
  339MOL0     H46723   9.796  10.355  10.256  1.8600 -0.0770  0.9905
  339MOL0     H46724   9.878  10.285  10.403 -0.0097  2.9612  1.6080
  339MOL0     H46725   9.587  10.271  10.346  1.1980 -0.1130 -1.4755
  339MOL0     H46726   9.665  10.221  10.503  3.7528 -2.0423 -1.1763
  339MOL0     H46727   9.767  10.467  10.463 -0.1639 -1.8983 -0.9360
  339MOL0     H46728   9.636  10.448  10.574 -1.3662 -0.1123  0.6094
  339MOL0     H46729   9.600  10.531  10.274 -0.0951  1.5168  1.3879
  339MOL0     H46730   9.468  10.505  10.377  0.0255 -1.8017 -1.0536
  339MOL0     H46731   9.519  10.672  10.633  0.2680 -0.6338  0.1223
  339MOL0     H46732   9.609  11.021  10.632 -1.8909  1.9381 -1.1326
  339MOL0     H46733   9.522  10.912  10.743 -1.9819 -0.0962  0.2070
  339MOL0     H46734   9.378  11.070  10.688 -1.8383 -0.6334 -0.8359
  339MOL0     H46735   9.426  11.072  10.515  3.4894 -0.4027 -0.1417
  339MOL0     H46736   9.192  11.000  10.555  1.9662  1.5033  1.9845
  339MOL0     H46737   9.289  10.881  10.465 -2.7658 -0.6813  0.0126
  339MOL0     H46738   9.305  10.761  10.699  0.7592  0.3839 -1.9948
  339MOL0     H46739   9.190  10.868  10.770 -1.6559 -1.0387  0.0497
  339MOL0     H46740   9.285  10.569  10.714 -1.3375  2.5147 -0.3057
  339MOL0     H46741   9.296  10.210  10.654 -2.5535  0.2608  4.1441
  339MOL0     H46742   9.350  10.340  10.755  0.1440 -1.3259 -0.4514
  339MOL0     H46743   9.429  10.320  10.600 -1.7697 -2.5459 -3.0911
  339MOL0     H46744   9.234   9.988  10.557 -1.1874 -0.6151 -0.3729
  339MOL0     H46745   9.295   9.760  10.534  0.8934 -0.0518 -0.5705
  339MOL0     H46746   9.413   9.638  10.158 -1.9388  0.9142  1.4766
  339MOL0     H46747   9.591   9.609  10.192 -1.5239  1.0172 -4.3121
  339MOL0     H46748   9.363   9.446  10.307  1.1165  1.0937  0.5813
  339MOL0     H46749   9.450   9.400  10.162  0.4148 -1.8689  0.8594
  339MOL0     H46750   9.537   9.414  10.455  0.3103 -5.0933  2.0136
  339MOL0     H46751   9.662   9.419  10.327  0.6990 -1.5058 -1.0690
  339MOL0     H46752   9.590   9.204  10.256  0.8212  0.1537 -0.2778
  339MOL0     H46753   9.440   9.214  10.356 -1.0159  0.5916 -1.4436
  339MOL0     H46754   9.707   9.234  10.495  0.9182 -0.5740 -2.0178
  339MOL0     H46755   9.549   9.193  10.558 -4.8003 -0.0936 -3.5816
  339MOL0     H46756   9.725   9.015  10.396  1.5203 -2.5084  1.5447
  339MOL0     H46757   9.551   8.976  10.391  1.8222  0.0210 -2.6804
  339MOL0     H46758   9.563   8.876  10.599 -1.7232  2.3167  1.6244
  339MOL0     H46759   9.630   9.020  10.674 -2.8948 -0.9936 -0.4454
  339MOL0     H46760   9.860   8.956  10.597  0.7977 -0.1174 -0.8717
  339MOL0     H46761   9.786   8.806  10.533  2.5284 -1.1738  2.0624
  339MOL0     H46762   9.480   9.852  10.158  0.3333  1.8180 -1.4729
  339MOL0     H46763   9.431  10.102  10.204  0.2629  0.8516  2.3477
  339MOL0     H46764   9.007  10.437  10.336  0.1581  2.6997 -0.4011
  339MOL0     H46765   8.960  10.658  10.441  0.3412  2.5434 -0.5458
  339MOL0     H46766   9.950   9.616  10.333  0.0015  1.4104 -0.0703
  339MOL0     H46767  10.151   9.493  10.367 -0.2836 -0.2137 -2.1858
  339MOL0     H46768  10.384   9.216  10.157 -1.8296  2.7501 -1.5424
  339MOL0     H46769  10.505   9.015  10.080  1.3467 -2.0612 -0.3669
  339MOL0     H46770  10.930   9.080   9.894 -1.2732  1.8323 -0.4534
  339MOL0     H46771  10.942   8.998  10.051 -2.4116 -0.7016  0.8882
  339MOL0     H46772  11.019   8.865   9.862  1.4684 -0.6521  2.6832
  339MOL0     H46773  10.844   8.856   9.810 -1.0438  0.1848  1.6740
  339MOL0     H46774  10.959   8.759  10.077 -0.1353  0.2317  0.7628
  339MOL0     H46775  10.806   8.707  10.008 -0.2754  1.3181 -0.7226
  339MOL0     H46776  10.949   8.623   9.802  0.6700 -0.2363 -0.2427
  339MOL0     H46777  10.931   8.522   9.955  2.4144 -0.5020  1.4195
  339MOL0     H46778  11.334   8.632   9.991 -0.8989  2.9853  3.2527
  339MOL0     H46779  10.844   9.256   9.962 -1.2656  1.7926 -0.7807
  339MOL0     H46780  10.856   9.466  10.034  0.0992 -1.3478 -0.0531
  339MOL0     H46781  10.696   9.551  10.007  0.9354  0.9611  0.6306
  339MOL0     H46782  10.756   9.528  10.170  0.7786 -0.2037  0.2405
  340MOL0     O46783   0.552  10.159   6.972  0.5510 -0.4664  0.5327
  340MOL0     C46784   0.665  10.124   6.937  0.6576  0.9133 -0.2706
  340MOL0     O46785   0.781  10.196   6.971 -0.2172 -1.3357  0.3589
  340MOL0     C46786   0.787  10.332   7.007 -0.4294  0.5115  0.5639
  340MOL0     C46787   0.700  10.430   6.965  0.9747  1.0150  0.6152
  340MOL0     C46788   0.717  10.563   6.993  0.6846 -0.1994  0.1705
  340MOL0     C46789   0.819  10.600   7.070 -0.0204  0.3589  0.2743
  340MOL0     O46790   0.821  10.729   7.102  0.6154  0.5869 -0.0159
  340MOL0     C46791   0.894  10.770   7.214 -0.2489 -0.4572  0.3746
  340MOL0     C46792   0.864  10.927   7.211 -0.4837 -0.0797  0.3093
  340MOL0     C46793   0.910  10.998   7.334  0.8908  0.0380  0.4673
  340MOL0     C46794   1.060  10.976   7.379  0.0131  0.5841  0.3217
  340MOL0     C46795   1.119  11.106   7.418 -1.0283  0.3333 -0.7976
  340MOL0     C46796   1.055  11.168   7.550 -0.3835  0.7450  0.6448
  340MOL0     C46797   1.143  11.289   7.607 -0.3947  0.0861 -0.4636
  340MOL0     C46798   1.249  11.229   7.711 -0.2774  0.3500 -0.8819
  340MOL0     N46799   1.337  11.131   7.637  0.0006 -0.5097 -0.3393
  340MOL0     C46800   1.317  10.994   7.633 -1.4658  0.3638 -0.7099
  340MOL0     C46801   1.439  10.942   7.608  0.1383  0.2850 -0.4540
  340MOL0     C46802   1.462  10.795   7.633 -0.0873  0.0271  0.0629
  340MOL0     C46803   1.429  10.701   7.518 -0.1958  0.1956 -0.0003
  340MOL0     C46804   1.278  10.688   7.492  0.7093  0.3387  0.0245
  340MOL0     C46805   1.254  10.609   7.368  0.1003 -0.8611 -0.4411
  340MOL0     O46806   1.318  10.482   7.382 -0.2290  0.0600 -0.0280
  340MOL0     C46807   1.320  10.422   7.264 -0.0864 -0.7877 -0.0362
  340MOL0     C46808   1.442  10.441   7.188 -0.0720  0.9566 -0.8145
  340MOL0     C46809   1.453  10.373   7.064 -0.5250 -0.3395  1.0325
  340MOL0     C46810   1.580  10.396   6.980  0.9505  1.2840 -0.3997
  340MOL0     C46811   1.346  10.301   7.013  0.1945  0.1270 -0.7834
  340MOL0     C46812   1.338  10.238   6.887  0.8944 -0.2786  0.0682
  340MOL0     O46813   1.216  10.258   6.831  0.0136 -0.3797 -0.0230
  340MOL0     C46814   1.198  10.242   6.684  0.3753  0.3541 -0.7733
  340MOL0     C46815   1.258  10.146   6.602  0.4579 -0.1855 -0.1190
  340MOL0     C46816   1.226  10.137   6.464  1.6027 -1.6168 -0.5141
  340MOL0     C46817   1.145  10.236   6.401 -0.1505  0.6099 -0.7784
  340MOL0     O46818   1.143  10.224   6.266 -0.2002  0.2235 -0.5844
  340MOL0     C46819   1.042  10.309   6.204 -0.8465 -0.3135  0.5437
  340MOL0     C46820   1.033  10.277   6.056 -0.1411  0.2293  0.5508
  340MOL0     C46821   0.924  10.173   6.034  0.0244 -0.3766  0.8162
  340MOL0     C46822   0.895  10.181   5.881 -0.9192  0.5244  0.3305
  340MOL0     C46823   0.793  10.075   5.831 -0.4622  0.0073 -0.4957
  340MOL0     C46824   0.742  10.076   5.688  0.0794 -0.3130  1.3459
  340MOL0     C46825   0.623  10.002   5.653 -0.2856  0.8207 -0.1426
  340MOL0     C46826   0.579  10.021   5.500 -0.2037  0.0122  0.2410
  340MOL0    Cl46827   0.453  10.156   5.498  0.4344  0.4116  0.3472
  340MOL0     C46828   1.085  10.333   6.485 -0.6697  0.1269  0.4639
  340MOL0     C46829   1.104  10.329   6.623  0.0428 -0.6893  0.3652
  340MOL0     O46830   1.425  10.166   6.839  0.5217  0.6992  0.7822
  340MOL0     C46831   1.232  10.284   7.099 -0.0567 -0.2672  0.6108
  340MOL0     C46832   1.224  10.345   7.223  0.8028  0.6734  0.3376
  340MOL0     N46833   1.532  11.039   7.586 -0.1687  0.4603  1.0677
  340MOL0     N46834   1.470  11.149   7.603  0.2927 -0.0592  0.7008
  340MOL0     C46835   0.913  10.505   7.120 -0.3486 -0.2815  0.3489
  340MOL0     C46836   0.892  10.368   7.088 -0.1810 -1.0485  0.3315
  340MOL0     C46837   0.670   9.994   6.858  0.0860 -1.1161 -0.2145
  340MOL0     C46838   0.546   9.927   6.814  0.0307 -0.3013  0.0017
  340MOL0     C46839   0.550   9.808   6.731  1.0324 -0.1510 -0.5075
  340MOL0     C46840   0.674   9.761   6.691 -0.2421  0.0216 -0.4107
  340MOL0     O46841   0.671   9.642   6.619  0.0120 -0.2047  0.0957
  340MOL0     C46842   0.674   9.661   6.480  0.0597 -0.0317 -0.1127
  340MOL0     C46843   0.522   9.660   6.431 -0.1194 -0.6108 -0.3446
  340MOL0     C46844   0.443   9.540   6.480  0.6708 -0.2590 -0.6315
  340MOL0     C46845   0.304   9.542   6.423  0.0786  0.1457 -0.5075
  340MOL0     C46846   0.303   9.484   6.290  0.7157 -0.0381 -0.7482
  340MOL0     C46847   0.317   9.422   6.190  0.1899  0.5366  0.0203
  340MOL0     C46848   0.793   9.816   6.723  0.0443 -0.7844 -0.3975
  340MOL0     C46849   0.797   9.937   6.810  0.4271 -0.2691 -0.2514
  340MOL0     C46850   0.926  10.000   6.843 -1.4568 -0.1375 -1.1750
  340MOL0     H46851   0.615  10.387   6.912  2.6426 -0.4071 -1.0186
  340MOL0     H46852   0.640  10.637   6.972  0.5984  0.1558  1.6269
  340MOL0     H46853   1.001  10.751   7.201 -0.4056 -1.4918  0.4849
  340MOL0     H46854   0.851  10.725   7.304 -0.7568 -0.0048  0.3604
  340MOL0     H46855   0.896  10.981   7.122  1.3321 -1.4484  0.0577
  340MOL0     H46856   0.755  10.931   7.219 -0.4419 -0.7348  1.4124
  340MOL0     H46857   0.893  11.105   7.323  5.1178  0.8815  0.5742
  340MOL0     H46858   0.854  10.951   7.415 -1.1184  1.6087  0.0479
  340MOL0     H46859   1.066  10.904   7.462  0.9192  1.2486  0.8631
  340MOL0     H46860   1.116  10.939   7.293 -0.5770 -1.3663  0.7156
  340MOL0     H46861   1.083  11.178   7.344 -1.8153  2.9729  1.9496
  340MOL0     H46862   1.228  11.104   7.418 -0.9887  1.4875 -0.0596
  340MOL0     H46863   0.959  11.216   7.528 -1.3844 -1.9364 -1.4449
  340MOL0     H46864   1.038  11.083   7.617  0.2510  0.4598  0.4467
  340MOL0     H46865   1.089  11.373   7.651  2.2809  1.4245  0.5110
  340MOL0     H46866   1.185  11.341   7.521 -2.0875  1.7939 -0.3261
  340MOL0     H46867   1.312  11.313   7.743 -1.0739 -0.4818  3.5340
  340MOL0     H46868   1.202  11.177   7.795 -1.4732  0.2087 -1.6196
  340MOL0     H46869   1.229  10.937   7.659 -2.6833  0.0991 -4.7061
  340MOL0     H46870   1.401  10.768   7.720 -1.7395 -2.6160 -1.7887
  340MOL0     H46871   1.567  10.787   7.662  1.0067  1.4396 -3.0408
  340MOL0     H46872   1.477  10.731   7.424 -0.7297  0.5262 -0.1742
  340MOL0     H46873   1.475  10.610   7.556  0.5564  1.3352  1.9801
  340MOL0     H46874   1.226  10.649   7.580  1.4934  2.1723  1.3520
  340MOL0     H46875   1.233  10.786   7.476  0.4674  0.2541  0.1731
  340MOL0     H46876   1.147  10.588   7.355  0.1421 -2.1219  0.8935
  340MOL0     H46877   1.297  10.661   7.282  2.2471  0.7035  1.4587
  340MOL0     H46878   1.532  10.491   7.223  0.4967  0.8727 -2.1190
  340MOL0     H46879   1.639  10.305   6.990  2.0954  2.1296  0.8158
  340MOL0     H46880   1.639  10.480   7.018 -1.1958  3.4705 -1.6174
  340MOL0     H46881   1.553  10.414   6.875 -1.7060 -0.1856 -0.0727
  340MOL0     H46882   1.328  10.073   6.640  0.1401 -0.2660  0.3179
  340MOL0     H46883   1.271  10.050   6.416  1.0338 -2.2487  0.0816
  340MOL0     H46884   0.943  10.295   6.248 -1.5072  0.4762 -0.6164
  340MOL0     H46885   1.086  10.408   6.222 -0.9616 -0.4883  1.8526
  340MOL0     H46886   1.005  10.373   6.010  3.1562  0.9180 -0.2626
  340MOL0     H46887   1.134  10.253   6.022  1.0122  0.1746  3.6419
  340MOL0     H46888   0.835  10.191   6.095 -1.4339 -0.9285 -1.0663
  340MOL0     H46889   0.966  10.076   6.062  0.0478 -0.2618  1.1923
  340MOL0     H46890   0.983  10.169   5.817 -0.9330  1.4315  0.1199
  340MOL0     H46891   0.852  10.279   5.856 -2.1810  0.1704  1.0324
  340MOL0     H46892   0.831   9.976   5.856  2.7550  1.1139 -0.5416
  340MOL0     H46893   0.710  10.089   5.901  2.1706  0.9880  2.7452
  340MOL0     H46894   0.822  10.051   5.618 -0.7937 -1.6277  0.7765
  340MOL0     H46895   0.722  10.180   5.661  3.7268  0.0928 -0.5011
  340MOL0     H46896   0.537  10.033   5.713 -1.7761  1.0528 -2.2679
  340MOL0     H46897   0.636   9.894   5.662 -3.8187  0.1439 -1.4042
  340MOL0     H46898   0.538   9.933   5.449 -0.9499  1.3022 -1.4727
  340MOL0     H46899   0.664  10.051   5.439  1.6992 -1.9756  1.7569
  340MOL0     H46900   1.023  10.413   6.444 -0.5990  0.6332  1.3182
  340MOL0     H46901   1.047  10.402   6.679 -0.1541 -3.3925  4.0913
  340MOL0     H46902   1.160  10.213   7.058  0.0606  0.3039 -0.6020
  340MOL0     H46903   1.145  10.334   7.296  1.7688  1.3571  1.5108
  340MOL0     H46904   0.997  10.546   7.176 -0.3026 -2.3845  1.9012
  340MOL0     H46905   0.948  10.287   7.134 -1.0310 -2.8797 -1.6954
  340MOL0     H46906   0.448   9.960   6.845  0.1981  3.3567 -2.7320
  340MOL0     H46907   0.456   9.766   6.698  0.3299  2.7179 -2.4755
  340MOL0     H46908   0.723   9.758   6.466  1.0013  0.1541  3.5158
  340MOL0     H46909   0.724   9.580   6.425  0.0533  1.0894 -1.8636
  340MOL0     H46910   0.527   9.662   6.322  2.3377 -0.9258 -0.3013
  340MOL0     H46911   0.472   9.750   6.468  0.0473 -1.3800  1.9343
  340MOL0     H46912   0.492   9.449   6.443  1.0387  0.6001 -2.3218
  340MOL0     H46913   0.443   9.539   6.590  0.6399  0.3501 -0.6242
  340MOL0     H46914   0.270   9.645   6.438  1.6773  0.2990  3.1413
  340MOL0     H46915   0.243   9.469   6.477  2.7132 -3.6958 -2.2166
  340MOL0     H46916   0.349   9.366   6.105  1.3975 -0.7983  1.2936
  340MOL0     H46917   0.884   9.775   6.683  2.1750  1.4538  1.7796
  340MOL0     H46918   1.001   9.930   6.804  0.1940  1.1459 -0.4576
  340MOL0     H46919   0.939  10.098   6.796  4.0300  0.4210  0.7571
  340MOL0     H46920   0.951  10.012   6.949 -1.1611 -0.0537 -1.2513
  341MOL0     O46921   9.500   7.257   9.388 -0.0548 -0.0686 -0.3804
  341MOL0     C46922   9.614   7.265   9.432  0.0480  0.9649 -0.3234
  341MOL0     O46923   9.649   7.273   9.569 -0.4659  0.4245  0.5726
  341MOL0     C46924   9.565   7.244   9.679 -0.8240 -0.2105 -0.1685
  341MOL0     C46925   9.480   7.137   9.664  0.6529 -0.3553 -0.1364
  341MOL0     C46926   9.395   7.096   9.770 -0.1568  0.3388  0.7212
  341MOL0     C46927   9.404   7.152   9.897 -0.7791  0.0918  0.1846
  341MOL0     O46928   9.323   7.139   9.997  0.1646  0.4027 -0.3844
  341MOL0     C46929   9.207   7.061   9.999  0.5990 -0.4551 -0.2550
  341MOL0     C46930   9.142   7.047  10.147  0.1099  0.1779  0.6602
  341MOL0     C46931   9.048   6.923  10.158  0.9514 -0.4372 -0.0589
  341MOL0     C46932   9.105   6.779  10.113  0.0933 -0.7258 -0.2542
  341MOL0     C46933   9.002   6.665  10.139  0.1339 -0.7929 -0.1096
  341MOL0     C46934   9.067   6.528  10.123 -0.8695  0.1418  0.1607
  341MOL0     C46935   8.989   6.405  10.163  0.4835 -0.8787  0.5043
  341MOL0     C46936   8.980   6.374  10.316 -0.3549  0.9357  0.5716
  341MOL0     N46937   9.101   6.317  10.359 -0.9087  0.2891  0.1633
  341MOL0     C46938   9.218   6.387  10.409  0.5695  1.1679 -0.0398
  341MOL0     C46939   9.316   6.298  10.431 -1.2471  0.0864  0.7898
  341MOL0     C46940   9.456   6.319  10.471 -0.5311  1.6895 -0.1047
  341MOL0     C46941   9.538   6.428  10.402  0.3940  0.2294  0.0894
  341MOL0     C46942   9.670   6.461  10.478 -1.2820  0.4452  0.7745
  341MOL0     C46943   9.760   6.550  10.393 -0.0276  0.0132  0.0066
  341MOL0     O46944   9.740   6.687  10.433 -0.4942 -0.3084  0.1657
  341MOL0     C46945   9.831   6.741  10.520 -0.2799 -0.3218 -0.7845
  341MOL0     C46946   9.881   6.864  10.492 -0.7078 -0.7990 -0.1416
  341MOL0     C46947  10.012   6.898  10.547  0.7417 -0.3885  0.0019
  341MOL0     C46948  10.080   7.024  10.498 -0.1039 -0.3451  0.2666
  341MOL0     C46949  10.064   6.824  10.658 -0.2378 -0.2493  0.3286
  341MOL0     C46950  10.162   6.878  10.758 -0.0841  1.7599 -0.5257
  341MOL0     O46951  10.218   6.993  10.738 -0.5974 -0.1123  0.7389
  341MOL0     C46952  10.329   7.036  10.804 -0.4796  0.8101 -0.2716
  341MOL0     C46953  10.442   6.960  10.856 -0.2980  0.7525 -0.6926
  341MOL0     C46954  10.551   7.022  10.918 -0.2569 -0.9526  0.3111
  341MOL0     C46955  10.574   7.159  10.903 -0.5603  0.3660 -0.6801
  341MOL0     O46956  10.687   7.234  10.941 -0.2774  0.4230  0.3086
  341MOL0     C46957  10.806   7.164  10.982  0.4803 -0.1169  0.8157
  341MOL0     C46958  10.905   7.259  11.026 -0.7532 -0.1255 -0.4697
  341MOL0     C46959  10.856   7.344  11.144  0.2236 -0.5957  0.4642
  341MOL0     C46960  10.975   7.398  11.215 -0.4219  0.1906 -0.1612
  341MOL0     C46961  10.962   7.503  11.335  0.1777 -0.6957 -1.0186
  341MOL0     C46962  11.086   7.586  11.384 -0.3929 -0.0735  0.5548
  341MOL0     C46963  11.052   7.644  11.521 -0.4014  0.0093 -0.1841
  341MOL0     C46964  11.184   7.717  11.567  0.3406  0.1941  0.7989
  341MOL0    Cl46965  11.181   7.744  11.744  0.0397  0.1858  0.0848
  341MOL0     C46966  10.463   7.231  10.859  0.4683  0.6095  0.0091
  341MOL0     C46967  10.346   7.175  10.818  0.3662  0.1070  1.0975
  341MOL0     O46968  10.192   6.798  10.847 -0.0021  0.0019  0.3371
  341MOL0     C46969  10.011   6.695  10.673 -0.3825  0.3195  1.0054
  341MOL0     C46970   9.902   6.657  10.614 -0.8722 -0.5283  0.7161
  341MOL0     N46971   9.254   6.178  10.402 -0.1192  0.4533 -0.3393
  341MOL0     N46972   9.133   6.183  10.369  0.6688  0.1119  0.6950
  341MOL0     C46973   9.509   7.247   9.913  1.3006  0.2064 -0.5183
  341MOL0     C46974   9.591   7.290   9.812  0.4351  1.0145  0.1627
  341MOL0     C46975   9.716   7.246   9.319 -0.8088  0.0272 -0.3122
  341MOL0     C46976   9.713   7.323   9.201  0.7084 -0.0169 -0.1040
  341MOL0     C46977   9.808   7.330   9.099  0.0589  0.8106 -0.8761
  341MOL0     C46978   9.923   7.244   9.117  0.4516 -0.9934 -0.3677
  341MOL0     O46979  10.029   7.238   9.037 -0.5926 -0.2540 -0.1581
  341MOL0     C46980  10.054   7.342   8.943 -0.0412 -0.5983  0.7328
  341MOL0     C46981  10.078   7.268   8.807  0.7748 -0.1451  0.4127
  341MOL0     C46982   9.954   7.210   8.736  0.5305  0.1010  0.0509
  341MOL0     C46983   9.983   7.149   8.601  0.7026  0.3132 -0.9658
  341MOL0     C46984  10.030   7.245   8.502  0.8765 -0.7557  0.1898
  341MOL0     C46985  10.075   7.335   8.433 -0.4733 -0.2782  0.3519
  341MOL0     C46986   9.924   7.163   9.232 -1.5415  0.2842  0.2305
  341MOL0     C46987   9.823   7.158   9.328 -0.3329 -0.6551  0.1946
  341MOL0     C46988   9.842   7.071   9.448 -0.0869 -0.7417 -0.0938
  341MOL0     H46989   9.482   7.100   9.562 -0.4413  0.7366 -0.5735
  341MOL0     H46990   9.328   7.019   9.733 -0.5236  1.2925 -0.7214
  341MOL0     H46991   9.240   6.964   9.960 -1.6124 -0.7902 -1.4578
  341MOL0     H46992   9.127   7.105   9.940 -1.7258 -2.2064  1.4112
  341MOL0     H46993   9.218   7.053  10.226  0.3844  0.4653  0.3800
  341MOL0     H46994   9.077   7.134  10.159 -0.4650 -0.1785  0.1829
  341MOL0     H46995   8.998   6.927  10.255  1.6182 -3.3530  0.4845
  341MOL0     H46996   8.970   6.956  10.088  0.9249 -2.3120 -0.9648
  341MOL0     H46997   9.119   6.782  10.005  0.5402 -2.7552 -0.2902
  341MOL0     H46998   9.199   6.758  10.165 -0.0338  3.0677  1.8481
  341MOL0     H46999   8.915   6.668  10.072  0.2411 -1.4554 -0.2855
  341MOL0     H47000   8.973   6.671  10.244  1.3841  0.8244  0.1834
  341MOL0     H47001   9.089   6.521  10.016  1.7563  1.4216  0.5389
  341MOL0     H47002   9.165   6.514  10.168  0.2081 -1.3402 -2.4457
  341MOL0     H47003   9.030   6.313  10.120 -2.0839 -1.7114 -0.3619
  341MOL0     H47004   8.886   6.414  10.127  0.6775 -1.3985 -0.2067
  341MOL0     H47005   8.959   6.466  10.372  0.3492  1.0006  0.7336
  341MOL0     H47006   8.903   6.300  10.340 -0.0413  1.1948  2.5646
  341MOL0     H47007   9.238   6.492  10.426  0.2430  1.0935  0.8292
  341MOL0     H47008   9.511   6.224  10.470  0.1295  2.0217 -2.4056
  341MOL0     H47009   9.454   6.348  10.576  0.8204  1.4013  0.0225
  341MOL0     H47010   9.559   6.383  10.305 -1.6069 -0.4763 -0.0757
  341MOL0     H47011   9.476   6.517  10.385  0.2793  0.1215 -0.0542
  341MOL0     H47012   9.648   6.494  10.580 -1.3230 -1.6737  1.5110
  341MOL0     H47013   9.719   6.363  10.473 -0.2108  1.0165 -0.7403
  341MOL0     H47014   9.862   6.519  10.418  0.2517 -0.8141 -2.0029
  341MOL0     H47015   9.740   6.537  10.286  1.2193 -0.4520 -0.1921
  341MOL0     H47016   9.834   6.924  10.415  0.2335  2.3116  1.5168
  341MOL0     H47017  10.186   7.005  10.485  0.4583  0.0712  3.4167
  341MOL0     H47018  10.071   7.114  10.561 -0.3060 -2.2654  3.1572
  341MOL0     H47019  10.035   7.050  10.402 -1.1802  1.5555  1.2009
  341MOL0     H47020  10.438   6.852  10.859 -1.1175  0.7894  0.3297
  341MOL0     H47021  10.636   6.969  10.959  1.7374  0.6019 -1.6062
  341MOL0     H47022  10.781   7.100  11.067 -1.0581  1.4823  1.6165
  341MOL0     H47023  10.846   7.099  10.902 -1.3784  2.4099 -2.4245
  341MOL0     H47024  10.986   7.199  11.069 -0.2190 -0.3313 -1.7283
  341MOL0     H47025  10.946   7.321  10.945 -0.3781  1.3221  0.7631
  341MOL0     H47026  10.809   7.271  11.212  0.2814 -0.4720  0.6377
  341MOL0     H47027  10.775   7.410  11.113  2.8829  1.5305 -2.5123
  341MOL0     H47028  11.043   7.455  11.151 -0.3035  0.9120  0.6006
  341MOL0     H47029  11.036   7.322  11.265  0.7516  1.0835 -0.1848
  341MOL0     H47030  10.876   7.566  11.310 -0.2179  0.6581  3.0386
  341MOL0     H47031  10.934   7.441  11.421  0.5440  1.0955  0.4456
  341MOL0     H47032  11.087   7.677  11.325 -0.1150  0.8227  1.8911
  341MOL0     H47033  11.179   7.529  11.392 -1.3909 -2.3968 -2.6243
  341MOL0     H47034  11.043   7.551  11.577 -0.6266  0.9776  1.4569
  341MOL0     H47035  10.964   7.709  11.524 -0.5756 -0.1106 -1.9145
  341MOL0     H47036  11.187   7.816  11.522 -0.2100  0.0762  0.4905
  341MOL0     H47037  11.275   7.669  11.529 -0.9210 -0.7781 -1.1526
  341MOL0     H47038  10.485   7.336  10.842  0.5684  0.7737  1.0482
  341MOL0     H47039  10.266   7.241  10.789  0.3674 -0.2359  0.2919
  341MOL0     H47040  10.033   6.631  10.758 -0.1732  0.3644  0.9841
  341MOL0     H47041   9.864   6.558  10.635 -2.7347  0.0608  0.3136
  341MOL0     H47042   9.525   7.292  10.011 -1.1147  0.1736 -0.0475
  341MOL0     H47043   9.673   7.352   9.845  0.5718 -0.9131  4.0304
  341MOL0     H47044   9.617   7.371   9.182  0.7589  0.3765  0.6236
  341MOL0     H47045   9.804   7.386   9.006  4.0396 -0.5869 -2.1011
  341MOL0     H47046   9.985   7.426   8.931 -1.0293 -1.6111 -0.9890
  341MOL0     H47047  10.148   7.394   8.968 -0.9505  0.2722  2.5422
  341MOL0     H47048  10.148   7.185   8.818  3.0487  1.6792  0.5642
  341MOL0     H47049  10.123   7.342   8.739  1.7177  0.6058  1.7923
  341MOL0     H47050   9.916   7.137   8.808  0.0288  2.4855  2.3711
  341MOL0     H47051   9.887   7.294   8.721 -1.4821 -1.7688 -2.2056
  341MOL0     H47052   9.896   7.105   8.552  1.6431 -0.3883 -2.0636
  341MOL0     H47053  10.058   7.072   8.621  0.4103  0.2191 -0.1853
  341MOL0     H47054  10.111   7.407   8.363  3.1247  0.5228  2.7920
  341MOL0     H47055  10.000   7.091   9.259  1.9953  2.6304 -2.6205
  341MOL0     H47056   9.752   7.016   9.476  1.2881 -3.2091 -0.2593
  341MOL0     H47057   9.909   6.987   9.427 -0.0691 -0.4545 -1.2578
  341MOL0     H47058   9.885   7.132   9.528  0.8940 -0.1989 -1.0121
  342MOL0     O47059  10.959   9.249  10.371 -0.2823  0.3797 -0.7809
  342MOL0     C47060  11.076   9.300  10.354  0.0960  0.8066 -0.4632
  342MOL0     O47061  11.136   9.405  10.428  0.0748 -0.7073 -0.0786
  342MOL0     C47062  11.077   9.432  10.549  0.6786  0.4211  0.4259
  342MOL0     C47063  11.111   9.354  10.656 -0.1725 -0.0563 -0.2785
  342MOL0     C47064  11.050   9.385  10.780  0.2603  0.0139  0.0842
  342MOL0     C47065  10.953   9.485  10.791 -0.2364  0.5619  0.5240
  342MOL0     O47066  10.876   9.509  10.902  0.2923 -0.6137  0.4292
  342MOL0     C47067  10.861   9.647  10.947 -0.4523 -0.7637  1.1354
  342MOL0     C47068  10.775   9.631  11.075  0.0558  0.1612 -0.2299
  342MOL0     C47069  10.749   9.761  11.144  0.2312 -0.2086 -0.0076
  342MOL0     C47070  10.681   9.769  11.283 -0.0130  0.6869  0.5227
  342MOL0     C47071  10.568   9.663  11.279  0.4192  0.3683 -0.6891
  342MOL0     C47072  10.481   9.646  11.403 -0.6489  0.5975 -0.6453
  342MOL0     C47073  10.365   9.544  11.385  0.6730  0.2198  0.0402
  342MOL0     C47074  10.403   9.395  11.394  0.0841 -0.2557 -0.6733
  342MOL0     N47075  10.462   9.361  11.521 -0.8323  0.1957 -0.2067
  342MOL0     C47076  10.410   9.390  11.646  0.0954  0.7608  0.0865
  342MOL0     C47077  10.497   9.324  11.732  0.5782 -0.0621 -0.2080
  342MOL0     C47078  10.463   9.303  11.874  0.3074  0.5929 -0.0623
  342MOL0     C47079  10.436   9.439  11.959 -0.3390 -0.2001 -0.2238
  342MOL0     C47080  10.558   9.531  11.956 -0.0423 -0.0285  0.1516
  342MOL0     C47081  10.674   9.462  12.035 -0.0452  0.1855 -0.3031
  342MOL0     O47082  10.648   9.482  12.180 -0.4139 -0.2353 -0.0890
  342MOL0     C47083  10.756   9.478  12.264  0.1722 -0.7262 -0.4825
  342MOL0     C47084  10.778   9.581  12.362  1.0190 -0.4718 -0.4671
  342MOL0     C47085  10.899   9.596  12.435  0.5074  0.0255 -0.4728
  342MOL0     C47086  10.905   9.716  12.539  0.2933  0.3608  0.5983
  342MOL0     C47087  11.000   9.501  12.412 -0.1721  0.2432  0.8957
  342MOL0     C47088  11.138   9.502  12.485  0.6359 -0.0066 -0.7100
  342MOL0     O47089  11.229   9.418  12.433 -0.8297 -0.1125 -0.7802
  342MOL0     C47090  11.327   9.366  12.513  0.0748 -0.4287  0.6871
  342MOL0     C47091  11.308   9.265  12.607 -0.2819  0.2867  0.5008
  342MOL0     C47092  11.410   9.202  12.677 -0.5510  0.0047  0.1369
  342MOL0     C47093  11.541   9.241  12.632 -0.7978  0.2781 -0.5629
  342MOL0     O47094  11.660   9.195  12.687 -0.1320  1.0163 -0.3324
  342MOL0     C47095  11.663   9.076  12.763 -1.0600 -0.6646  0.5669
  342MOL0     C47096  11.653   9.121  12.910  0.1185  0.9151 -0.5663
  342MOL0     C47097  11.653   8.992  12.990 -0.7723 -0.3462 -0.0023
  342MOL0     C47098  11.700   9.019  13.128 -0.4405 -0.5575 -0.4771
  342MOL0     C47099  11.653   8.919  13.234 -0.2822  0.7355 -0.0313
  342MOL0     C47100  11.693   8.767  13.207  0.5177 -0.6509 -0.4620
  342MOL0     C47101  11.615   8.689  13.303 -0.8464  0.3654  0.2267
  342MOL0     C47102  11.655   8.538  13.287  0.0222 -1.0411  0.2522
  342MOL0    Cl47103  11.825   8.516  13.361  0.2555  0.1095  0.1318
  342MOL0     C47104  11.560   9.333  12.539 -0.2345 -0.1084 -0.9172
  342MOL0     C47105  11.460   9.406  12.482  0.6707 -0.4313  0.8254
  342MOL0     O47106  11.154   9.580  12.581 -0.3293  0.4919  0.8022
  342MOL0     C47107  10.979   9.398  12.312  0.2554 -0.9793 -0.2193
  342MOL0     C47108  10.860   9.387  12.245  0.1968  0.4102 -0.9239
  342MOL0     N47109  10.604   9.271  11.659  0.4313  0.1325  0.7851
  342MOL0     N47110  10.581   9.300  11.538  0.2334  0.2062 -0.3690
  342MOL0     C47111  10.921   9.554  10.674 -0.6563  0.7615 -0.8404
  342MOL0     C47112  10.979   9.531  10.554 -0.6925  0.0898  1.3846
  342MOL0     C47113  11.141   9.253  10.225  0.0977 -0.3369  0.0880
  342MOL0     C47114  11.176   9.113  10.225 -0.0909 -0.1740  0.0678
  342MOL0     C47115  11.253   9.064  10.116 -0.6092  0.1492 -0.4344
  342MOL0     C47116  11.291   9.140  10.000 -0.2387  0.2018  1.0815
  342MOL0     O47117  11.359   9.099   9.888 -0.2720 -0.2815 -0.1059
  342MOL0     C47118  11.349   8.957   9.860 -0.1704  0.5226 -0.5599
  342MOL0     C47119  11.473   8.883   9.883  0.0092 -0.3646 -0.1689
  342MOL0     C47120  11.596   8.928   9.803 -0.6915 -1.0534  0.5274
  342MOL0     C47121  11.577   8.934   9.653  0.0858 -0.6671  0.4091
  342MOL0     C47122  11.502   8.814   9.611  0.0656  0.4125 -0.6667
  342MOL0     C47123  11.470   8.705   9.580  0.6254  0.9156 -0.0288
  342MOL0     C47124  11.269   9.281  10.014  0.8950  1.1109 -0.0277
  342MOL0     C47125  11.199   9.335  10.122 -0.0581  0.3600  0.6944
  342MOL0     C47126  11.180   9.487  10.114  0.0652  0.5081 -0.1383
  342MOL0     H47127  11.187   9.277  10.660  0.5124  0.6401  1.1654
  342MOL0     H47128  11.090   9.352  10.875 -1.0148  2.1434  1.4525
  342MOL0     H47129  10.805   9.712  10.880  0.7260  0.2524  1.1044
  342MOL0     H47130  10.954   9.702  10.963  0.1608 -0.3635 -2.8663
  342MOL0     H47131  10.679   9.589  11.043  0.7206 -2.1394  0.6498
  342MOL0     H47132  10.831   9.564  11.140  1.5888 -0.6945 -2.3179
  342MOL0     H47133  10.843   9.816  11.151  1.1942 -1.1718 -3.4268
  342MOL0     H47134  10.683   9.821  11.081  0.5381  1.7259  1.3964
  342MOL0     H47135  10.750   9.754  11.366 -0.8178  1.3155  1.3289
  342MOL0     H47136  10.644   9.869  11.309 -1.9883 -0.7188  3.6519
  342MOL0     H47137  10.600   9.560  11.259 -0.9209 -0.4285  1.0197
  342MOL0     H47138  10.502   9.702  11.201 -0.1851  3.0170  1.0388
  342MOL0     H47139  10.550   9.622  11.484 -0.7587  0.7910 -0.4933
  342MOL0     H47140  10.429   9.741  11.420 -2.2692 -0.5612  1.2095
  342MOL0     H47141  10.321   9.544  11.285  0.9080  1.7039 -0.0823
  342MOL0     H47142  10.289   9.571  11.459  0.1608 -2.4043  0.5864
  342MOL0     H47143  10.310   9.341  11.374  0.2040 -1.1038  0.8905
  342MOL0     H47144  10.472   9.370  11.313  3.7004  1.3767  1.6290
  342MOL0     H47145  10.315   9.438  11.666 -0.2718 -0.0216  0.2760
  342MOL0     H47146  10.554   9.254  11.911  0.1774  0.0839 -0.4009
  342MOL0     H47147  10.380   9.232  11.875  1.4275 -0.7725  0.0186
  342MOL0     H47148  10.360   9.497  11.907 -0.0325 -0.5498 -1.1036
  342MOL0     H47149  10.395   9.420  12.058 -0.4947  3.6845  0.6069
  342MOL0     H47150  10.597   9.535  11.854  0.3347  1.1853  0.3260
  342MOL0     H47151  10.539   9.634  11.989 -1.4640 -0.0651 -0.5114
  342MOL0     H47152  10.678   9.354  12.015  0.5302  0.3509 -1.1388
  342MOL0     H47153  10.771   9.506  12.010 -1.0703  0.5476 -4.4688
  342MOL0     H47154  10.694   9.646  12.384 -0.0403 -2.2955  1.2025
  342MOL0     H47155  10.910   9.677  12.641 -2.4879  0.4574  0.8392
  342MOL0     H47156  10.814   9.777  12.542 -0.5233 -0.7963 -0.3019
  342MOL0     H47157  10.973   9.794  12.502 -1.0786  1.4710  0.3092
  342MOL0     H47158  11.204   9.237  12.618 -0.2622  0.7031  1.9585
  342MOL0     H47159  11.402   9.136  12.763 -0.8629 -0.9275 -0.5827
  342MOL0     H47160  11.592   9.000  12.729  0.8209 -0.4184 -4.8107
  342MOL0     H47161  11.762   9.035  12.741 -0.9502  0.1722 -0.6079
  342MOL0     H47162  11.737   9.181  12.947  1.1091 -0.5902 -0.2923
  342MOL0     H47163  11.564   9.183  12.924 -1.1113  0.2557 -4.3439
  342MOL0     H47164  11.717   8.911  12.956  1.0884 -0.3711  3.1879
  342MOL0     H47165  11.549   8.956  12.992 -0.8473 -0.1943 -0.7894
  342MOL0     H47166  11.658   9.116  13.156  2.7574  1.2283 -1.2304
  342MOL0     H47167  11.808   9.027  13.112 -0.5934  0.2560 -1.1753
  342MOL0     H47168  11.705   8.951  13.325  0.4108 -0.7603  0.1348
  342MOL0     H47169  11.547   8.931  13.258 -1.2962 -2.1807 -2.4118
  342MOL0     H47170  11.799   8.744  13.201  1.7203  2.6994  3.1892
  342MOL0     H47171  11.656   8.742  13.107  2.3336 -0.8591 -1.1146
  342MOL0     H47172  11.507   8.697  13.293 -1.3697 -4.5160 -0.3436
  342MOL0     H47173  11.653   8.717  13.402 -3.7748  0.3704  1.4562
  342MOL0     H47174  11.633   8.500  13.187 -3.7814 -2.9633  1.6301
  342MOL0     H47175  11.588   8.475  13.347 -3.8634  2.2994 -0.1540
  342MOL0     H47176  11.662   9.360  12.515  0.4390  2.3231  3.4814
  342MOL0     H47177  11.495   9.482  12.414  0.1392  1.4766  2.5682
  342MOL0     H47178  11.063   9.335  12.286  1.2324  0.3036 -0.3073
  342MOL0     H47179  10.852   9.308  12.171 -1.1852 -1.1222  0.7635
  342MOL0     H47180  10.843   9.628  10.687  0.5791  1.9903 -0.2817
  342MOL0     H47181  10.958   9.596  10.469  2.4682  0.6664  0.9500
  342MOL0     H47182  11.155   9.045  10.307  1.3692 -0.8854 -0.1210
  342MOL0     H47183  11.281   8.959  10.115 -0.1152  0.2750 -1.6941
  342MOL0     H47184  11.269   8.908   9.917  1.3728  1.2926  2.4929
  342MOL0     H47185  11.317   8.955   9.755 -0.2588 -0.1304 -0.5229
  342MOL0     H47186  11.453   8.779   9.857 -0.4214 -0.0430 -1.1545
  342MOL0     H47187  11.506   8.902   9.986  0.5666  1.7840 -0.6968
  342MOL0     H47188  11.627   9.015   9.860 -1.6135 -0.9757  0.9345
  342MOL0     H47189  11.676   8.855   9.821 -2.3497 -2.7748  1.3534
  342MOL0     H47190  11.678   8.943   9.612  1.6807 -0.5287  4.0608
  342MOL0     H47191  11.524   9.029   9.638  0.5412 -0.2545  1.3574
  342MOL0     H47192  11.435   8.607   9.556  2.9497 -0.3258  1.3184
  342MOL0     H47193  11.276   9.353   9.933 -2.1778  2.6142  0.8939
  342MOL0     H47194  11.072   9.496  10.127  0.1645  0.4330  0.8451
  342MOL0     H47195  11.237   9.521  10.201 -1.3477  0.5085  0.8374
  342MOL0     H47196  11.213   9.532  10.021  2.2076 -2.5170 -1.0126
  343MOL0     O47197   1.232  10.970   2.609  0.0258 -0.4716  0.5450
  343MOL0     C47198   1.232  11.033   2.509 -0.2745 -0.3708  0.0115
  343MOL0     O47199   1.133  11.024   2.412 -0.1031 -0.1480  0.8126
  343MOL0     C47200   1.008  10.996   2.450 -0.5601 -0.2068 -0.2070
  343MOL0     C47201   0.966  11.058   2.563 -0.2260  0.8280 -0.7861
  343MOL0     C47202   0.831  11.041   2.604  0.5277 -0.4093  0.4252
  343MOL0     C47203   0.737  10.971   2.521  0.6346 -0.5895 -0.4137
  343MOL0     O47204   0.608  10.944   2.560 -0.4382  0.3868 -0.4628
  343MOL0     C47205   0.583  10.909   2.706 -0.1538 -0.0744  0.8476
  343MOL0     C47206   0.462  10.822   2.713 -0.8686  0.4311  0.6477
  343MOL0     C47207   0.322  10.879   2.725 -0.2841  0.3824 -0.0366
  343MOL0     C47208   0.272  10.893   2.583 -0.3050  0.5682 -0.3495
  343MOL0     C47209   0.126  10.934   2.552 -0.1787  0.4496 -1.0525
  343MOL0     C47210   0.115  11.078   2.599  0.0116 -0.4207  0.3728
  343MOL0     C47211  -0.024  11.133   2.566  0.2351 -0.0833 -0.5980
  343MOL0     C47212  -0.046  11.184   2.421 -0.6836  0.4812  0.3444
  343MOL0     N47213   0.024  11.304   2.375  0.4100 -0.3386  0.0181
  343MOL0     C47214   0.100  11.323   2.261 -0.4657  0.4107 -0.0324
  343MOL0     C47215   0.143  11.455   2.276  0.5644  0.5724  0.6454
  343MOL0     C47216   0.231  11.540   2.197 -0.2001 -0.0372 -0.0540
  343MOL0     C47217   0.381  11.541   2.253 -0.2325 -0.2097 -0.2499
  343MOL0     C47218   0.474  11.629   2.174 -0.3800 -0.7871  0.8791
  343MOL0     C47219   0.619  11.615   2.218  0.6014 -1.4905  0.2005
  343MOL0     O47220   0.702  11.698   2.141 -0.4515  0.8246  0.6968
  343MOL0     C47221   0.760  11.642   2.028  0.1912 -0.8332  0.3555
  343MOL0     C47222   0.877  11.704   1.987 -0.2202 -0.9004 -0.0007
  343MOL0     C47223   0.935  11.669   1.864 -1.2808  0.0518 -0.3102
  343MOL0     C47224   1.055  11.755   1.817  0.6577  1.1088 -0.0078
  343MOL0     C47225   0.884  11.561   1.795  0.1645 -0.6229  0.2074
  343MOL0     C47226   0.948  11.505   1.672  0.0403 -0.4237  0.3067
  343MOL0     O47227   1.049  11.571   1.601 -0.0750 -0.4286 -0.2054
  343MOL0     C47228   1.142  11.499   1.538 -0.5635  0.4832  0.3555
  343MOL0     C47229   1.269  11.485   1.593  0.0985  0.0808 -0.2990
  343MOL0     C47230   1.370  11.436   1.510 -0.0118  1.1002 -0.2742
  343MOL0     C47231   1.339  11.386   1.387  0.2337  0.4813 -0.7958
  343MOL0     O47232   1.445  11.327   1.317 -0.4294 -0.5637  0.1498
  343MOL0     C47233   1.398  11.208   1.247 -0.6681 -0.0341  0.4439
  343MOL0     C47234   1.514  11.149   1.159  0.2510 -0.2703  0.9829
  343MOL0     C47235   1.639  11.094   1.234 -0.3936 -0.5727  0.4601
  343MOL0     C47236   1.740  11.040   1.136 -0.8817 -0.4262  0.1650
  343MOL0     C47237   1.872  11.010   1.214 -0.6913 -0.3260  0.0381
  343MOL0     C47238   1.956  10.918   1.134  0.7004  0.1536 -0.3823
  343MOL0     C47239   2.099  10.888   1.180 -0.3192 -0.0926  0.1362
  343MOL0     C47240   2.191  10.858   1.063 -0.1182 -0.0488 -0.2694
  343MOL0    Cl47241   2.193  10.682   1.030  0.4377 -0.1893 -0.6557
  343MOL0     C47242   1.206  11.389   1.342  1.1664 -0.2188 -0.0510
  343MOL0     C47243   1.109  11.446   1.416  0.4751 -0.2795 -0.6690
  343MOL0     O47244   0.912  11.386   1.648  0.0142 -0.4367  0.0111
  343MOL0     C47245   0.771  11.491   1.845 -0.0463  0.0973 -0.4444
  343MOL0     C47246   0.712  11.524   1.967 -0.2270  0.0049  1.1052
  343MOL0     N47247   0.086  11.507   2.392 -0.0733  0.7305 -0.0349
  343MOL0     N47248   0.016  11.418   2.451  0.9029 -0.4771 -0.1717
  343MOL0     C47249   0.787  10.908   2.405 -0.3716 -0.0490  0.0316
  343MOL0     C47250   0.928  10.920   2.375  0.2848  0.4705  0.6991
  343MOL0     C47251   1.334  11.136   2.475  0.1952 -0.4517 -0.0287
  343MOL0     C47252   1.319  11.226   2.366 -1.0948  0.3801  0.1032
  343MOL0     C47253   1.406  11.329   2.342  0.0327  0.3649  0.4968
  343MOL0     C47254   1.522  11.346   2.417 -0.0811  0.4438  0.0666
  343MOL0     O47255   1.618  11.446   2.409 -0.1224 -0.3062  0.0195
  343MOL0     C47256   1.605  11.564   2.319 -0.2784 -0.1463  0.6913
  343MOL0     C47257   1.749  11.617   2.301  0.4419 -0.0534 -0.3356
  343MOL0     C47258   1.838  11.514   2.220  0.3108 -0.7589 -0.4326
  343MOL0     C47259   1.975  11.590   2.180  0.2682 -0.6095  0.7784
  343MOL0     C47260   2.043  11.641   2.297  1.8701 -0.7911 -0.3346
  343MOL0     C47261   2.095  11.686   2.401  0.6537  0.0783 -0.2531
  343MOL0     C47262   1.554  11.249   2.513 -0.0955 -0.3104  0.2541
  343MOL0     C47263   1.460  11.146   2.547 -0.4350 -0.0805  0.7615
  343MOL0     C47264   1.522  11.051   2.641  0.4225 -0.8141 -1.4942
  343MOL0     H47265   1.032  11.126   2.616  0.8589 -1.6139  1.1679
  343MOL0     H47266   0.795  11.113   2.677  0.7318  0.2031 -0.0612
  343MOL0     H47267   0.578  10.995   2.773  0.4378 -0.2227  1.0843
  343MOL0     H47268   0.672  10.855   2.739  0.1583 -0.2135 -0.1748
  343MOL0     H47269   0.459  10.751   2.630 -0.8293  0.4165  0.6591
  343MOL0     H47270   0.488  10.765   2.803  1.0404  2.5927  1.5568
  343MOL0     H47271   0.250  10.814   2.775  0.9566 -0.7490  0.3374
  343MOL0     H47272   0.313  10.974   2.780 -0.3881  1.3168 -1.6061
  343MOL0     H47273   0.346  10.945   2.522  1.0413 -0.6357  0.2057
  343MOL0     H47274   0.264  10.794   2.536 -0.6929  1.6589 -2.7284
  343MOL0     H47275   0.049  10.872   2.599 -0.4803  1.7407  0.2053
  343MOL0     H47276   0.100  10.929   2.446 -2.3859  2.1885 -0.6690
  343MOL0     H47277   0.130  11.077   2.707  1.5592 -2.1209  0.1941
  343MOL0     H47278   0.185  11.147   2.550 -1.4049  2.5851  2.3194
  343MOL0     H47279  -0.045  11.209   2.642  0.5401  1.0347 -1.6029
  343MOL0     H47280  -0.095  11.053   2.589  0.7746 -0.8337 -1.4484
  343MOL0     H47281  -0.018  11.102   2.353  1.5533  2.0078 -0.6919
  343MOL0     H47282  -0.152  11.206   2.410 -1.1450 -1.1507  1.2189
  343MOL0     H47283   0.149  11.254   2.194 -0.7897 -0.4212  0.5647
  343MOL0     H47284   0.198  11.644   2.201  2.7380  1.3105 -4.1864
  343MOL0     H47285   0.229  11.513   2.091 -0.9894  1.2448 -0.3843
  343MOL0     H47286   0.391  11.561   2.360 -1.2839 -2.1837  0.2674
  343MOL0     H47287   0.416  11.438   2.249 -1.4611 -0.7560  1.6766
  343MOL0     H47288   0.472  11.591   2.072 -0.0889 -0.2314  0.6665
  343MOL0     H47289   0.437  11.732   2.166 -0.5231 -0.6856  2.3939
  343MOL0     H47290   0.629  11.642   2.324 -1.0107  1.1824 -0.2157
  343MOL0     H47291   0.639  11.510   2.197 -2.9770 -1.5606 -4.3682
  343MOL0     H47292   0.920  11.799   2.017 -2.3367 -0.0554  0.5570
  343MOL0     H47293   1.075  11.826   1.898 -0.0608  0.5841  0.6432
  343MOL0     H47294   1.031  11.811   1.726  1.7270 -1.1774 -1.7967
  343MOL0     H47295   1.144  11.700   1.784  0.7107 -0.2058  2.1246
  343MOL0     H47296   1.292  11.536   1.687  1.9286  1.2828 -1.3339
  343MOL0     H47297   1.475  11.420   1.535  1.0095  0.7850 -4.1631
  343MOL0     H47298   1.365  11.151   1.334  1.7478  1.5698  2.5562
  343MOL0     H47299   1.324  11.220   1.168 -0.4430 -3.5475 -0.4765
  343MOL0     H47300   1.486  11.071   1.089 -0.1826 -1.4575  2.4333
  343MOL0     H47301   1.544  11.233   1.095  0.5482  0.6769  2.3070
  343MOL0     H47302   1.608  11.018   1.306 -2.3520  0.7062  1.0622
  343MOL0     H47303   1.674  11.180   1.293 -0.6315  0.2108 -0.5042
  343MOL0     H47304   1.769  11.117   1.064 -0.5674  0.3586  1.1012
  343MOL0     H47305   1.692  10.957   1.084  0.4250  0.0777 -1.9802
  343MOL0     H47306   1.922  11.097   1.257  1.5716 -2.9014  3.1784
  343MOL0     H47307   1.841  10.962   1.308 -1.6434  2.6789  1.3625
  343MOL0     H47308   1.959  10.949   1.029 -2.0777  0.4198 -0.4404
  343MOL0     H47309   1.909  10.820   1.126 -1.5274  1.2904 -2.2743
  343MOL0     H47310   2.100  10.809   1.256 -0.4361  0.2328  0.4822
  343MOL0     H47311   2.153  10.967   1.234  1.7383 -1.7951  0.7398
  343MOL0     H47312   2.289  10.882   1.105 -0.3004  4.4376 -1.8883
  343MOL0     H47313   2.180  10.928   0.980 -1.1256 -1.6755 -1.5851
  343MOL0     H47314   1.186  11.335   1.250  4.6976 -5.1430  1.6563
  343MOL0     H47315   1.005  11.442   1.384  0.4238  0.9400 -0.7065
  343MOL0     H47316   0.719  11.411   1.793 -2.6699 -0.0022  2.0598
  343MOL0     H47317   0.617  11.475   1.987 -0.4647  0.1985  0.4501
  343MOL0     H47318   0.725  10.836   2.354 -1.0353  1.2815 -1.1212
  343MOL0     H47319   0.982  10.881   2.290 -2.2928  1.4982 -1.5627
  343MOL0     H47320   1.239  11.220   2.293  2.0541  2.2350 -3.8523
  343MOL0     H47321   1.399  11.393   2.255  0.6582  0.5986  0.6135
  343MOL0     H47322   1.558  11.538   2.224 -1.5632  4.6468 -0.2419
  343MOL0     H47323   1.536  11.640   2.356  1.2614  1.1841  0.9124
  343MOL0     H47324   1.789  11.626   2.402 -0.0772 -3.7773  0.3211
  343MOL0     H47325   1.750  11.713   2.247 -0.4945  1.9839  2.9885
  343MOL0     H47326   1.852  11.439   2.298  1.3505 -0.1806 -0.0458
  343MOL0     H47327   1.798  11.467   2.130 -3.7954 -0.1073  0.8392
  343MOL0     H47328   1.959  11.667   2.104 -0.2076  0.1182  1.6014
  343MOL0     H47329   2.042  11.524   2.125  1.3193  1.7493 -0.9499
  343MOL0     H47330   2.142  11.721   2.490  0.4616  1.1045 -0.5450
  343MOL0     H47331   1.647  11.258   2.569 -2.0004 -1.7189  4.0475
  343MOL0     H47332   1.521  10.945   2.612 -1.0250 -0.5392 -2.5164
  343MOL0     H47333   1.626  11.079   2.663 -0.2203  2.0108 -1.7258
  343MOL0     H47334   1.465  11.058   2.734  0.2615 -2.8166 -1.3972
  344MOL0     O47335   6.343   2.181   7.096  0.3685  0.0566 -0.1287
  344MOL0     C47336   6.296   2.286   7.132  0.0765 -0.0782  0.1099
  344MOL0     O47337   6.341   2.360   7.242  0.4586 -0.2024 -0.0991
  344MOL0     C47338   6.412   2.311   7.354  1.0103  0.3062 -0.6877
  344MOL0     C47339   6.461   2.408   7.447 -0.7088 -0.9902  0.9227
  344MOL0     C47340   6.531   2.367   7.560  0.0394 -0.2514 -0.2491
  344MOL0     C47341   6.572   2.237   7.574 -0.0120  0.0186 -0.4429
  344MOL0     O47342   6.649   2.201   7.682  0.1363 -0.5470 -0.3476
  344MOL0     C47343   6.783   2.168   7.659  0.8366 -0.3492  0.6518
  344MOL0     C47344   6.873   2.264   7.727 -0.2381 -0.5466 -0.5293
  344MOL0     C47345   7.023   2.223   7.722 -1.1236  0.2116  0.1687
  344MOL0     C47346   7.103   2.320   7.804 -0.2837 -1.1602  0.4916
  344MOL0     C47347   7.226   2.269   7.880 -0.8947  0.6085  0.3694
  344MOL0     C47348   7.190   2.157   7.979 -0.3573  0.7275 -0.1829
  344MOL0     C47349   7.305   2.102   8.062 -0.1905  0.2207  0.6118
  344MOL0     C47350   7.250   2.015   8.171  0.3833  0.7952  0.0121
  344MOL0     N47351   7.340   1.910   8.221 -0.9393 -0.3762 -0.5080
  344MOL0     C47352   7.399   1.815   8.140  0.8703  0.5589 -0.1348
  344MOL0     C47353   7.447   1.725   8.237  0.5464 -0.0534 -0.6777
  344MOL0     C47354   7.518   1.598   8.208  0.5103  0.8056  0.1403
  344MOL0     C47355   7.434   1.483   8.157 -0.0214  1.3550 -0.0163
  344MOL0     C47356   7.329   1.420   8.253 -0.3758  0.0302  1.1503
  344MOL0     C47357   7.355   1.428   8.396 -0.3951  0.4852 -0.6394
  344MOL0     O47358   7.256   1.354   8.479  0.2520 -0.1954 -0.3040
  344MOL0     C47359   7.267   1.219   8.505  0.3395 -0.0037 -0.9003
  344MOL0     C47360   7.210   1.174   8.622  0.1827 -0.0862  1.0160
  344MOL0     C47361   7.237   1.044   8.677 -0.1331 -0.2704  0.2190
  344MOL0     C47362   7.170   1.009   8.818 -0.1421  0.1616  0.0124
  344MOL0     C47363   7.319   0.948   8.614  0.0943 -0.7141 -0.4254
  344MOL0     C47364   7.353   0.829   8.673  0.2493  0.2917  1.3132
  344MOL0     O47365   7.367   0.714   8.598  0.9595  0.1924 -0.0453
  344MOL0     C47366   7.381   0.592   8.656 -1.2139 -0.0555 -0.7623
  344MOL0     C47367   7.343   0.543   8.791  0.0886 -0.6987 -0.4248
  344MOL0     C47368   7.385   0.416   8.831 -1.0178  0.4847  0.2034
  344MOL0     C47369   7.440   0.327   8.737 -0.4833  0.6360 -0.5186
  344MOL0     O47370   7.428   0.193   8.763 -0.3083  0.4010  0.0216
  344MOL0     C47371   7.446   0.100   8.657  0.3658  0.9351 -0.1234
  344MOL0     C47372   7.477  -0.043   8.709  0.7692 -0.4784 -0.0507
  344MOL0     C47373   7.459  -0.138   8.590  0.0314 -0.0871  0.3597
  344MOL0     C47374   7.413  -0.281   8.644 -0.1331 -0.7653  0.1535
  344MOL0     C47375   7.543  -0.345   8.696  0.0136 -0.0831 -0.4643
  344MOL0     C47376   7.525  -0.494   8.730  0.4861  1.0100  0.9711
  344MOL0     C47377   7.659  -0.568   8.727 -0.0535  0.3727  0.5744
  344MOL0     C47378   7.645  -0.719   8.716  0.4584 -0.4318  0.3276
  344MOL0    Cl47379   7.529  -0.800   8.835 -0.1656  0.1715 -0.1380
  344MOL0     C47380   7.486   0.377   8.615 -0.2413 -0.3006 -0.7852
  344MOL0     C47381   7.456   0.503   8.577  0.4296 -0.6530 -0.5683
  344MOL0     O47382   7.388   0.840   8.788 -0.0586  0.3011 -0.5825
  344MOL0     C47383   7.367   0.996   8.496  0.1528 -0.7271  0.3298
  344MOL0     C47384   7.340   1.123   8.441  0.3593 -0.3518  0.9228
  344MOL0     N47385   7.438   1.774   8.363 -0.2473 -0.3568  0.5653
  344MOL0     N47386   7.372   1.883   8.353 -0.1278  0.5385  0.3755
  344MOL0     C47387   6.539   2.141   7.480  0.5220 -0.1631  0.3027
  344MOL0     C47388   6.446   2.174   7.375  0.3756 -0.3379 -0.1955
  344MOL0     C47389   6.193   2.360   7.055 -0.4962  0.5553 -0.2989
  344MOL0     C47390   6.109   2.446   7.125 -0.4099  0.0086 -0.6372
  344MOL0     C47391   6.024   2.522   7.045 -0.3013  0.2854 -0.7694
  344MOL0     C47392   6.032   2.539   6.907 -0.6383  0.3005  0.1961
  344MOL0     O47393   5.951   2.637   6.859  0.2288 -0.0785  0.2484
  344MOL0     C47394   5.961   2.668   6.723  0.2334 -0.0569  0.6571
  344MOL0     C47395   5.823   2.727   6.677  0.2815  0.8826 -0.4996
  344MOL0     C47396   5.701   2.636   6.718 -0.0546 -0.3992  0.7105
  344MOL0     C47397   5.604   2.604   6.606 -0.1853  0.6372  0.1253
  344MOL0     C47398   5.520   2.709   6.569 -0.1316  0.9753  0.2737
  344MOL0     C47399   5.450   2.810   6.536  0.2661 -0.3998  0.4824
  344MOL0     C47400   6.117   2.449   6.837 -0.5073  0.8365  0.1578
  344MOL0     C47401   6.204   2.364   6.913  1.0319 -1.1005  0.7272
  344MOL0     C47402   6.301   2.288   6.828  0.0440  0.1442  0.1560
  344MOL0     H47403   6.448   2.511   7.418  1.4578 -0.7932  0.4403
  344MOL0     H47404   6.569   2.439   7.632 -0.4679 -1.8547  1.7094
  344MOL0     H47405   6.816   2.171   7.555  0.1014  1.0711  0.4418
  344MOL0     H47406   6.805   2.067   7.695 -2.4625 -0.7160  1.9640
  344MOL0     H47407   6.843   2.364   7.693 -0.2542 -0.9403 -1.7125
  344MOL0     H47408   6.843   2.259   7.832  1.1974  0.1454 -0.0757
  344MOL0     H47409   7.051   2.128   7.768  0.8825  1.6997  2.2963
  344MOL0     H47410   7.070   2.221   7.624  1.4171  1.7633  1.2461
  344MOL0     H47411   7.130   2.407   7.743 -1.0591  0.6850  2.6803
  344MOL0     H47412   7.036   2.357   7.882  1.3792 -1.2987  2.0633
  344MOL0     H47413   7.281   2.345   7.936  2.8926 -0.3843 -1.6537
  344MOL0     H47414   7.298   2.240   7.804 -1.5842  1.6297 -0.7214
  344MOL0     H47415   7.115   2.202   8.045 -0.0706  1.2563 -0.2160
  344MOL0     H47416   7.141   2.073   7.929 -0.0693  1.2395 -1.3353
  344MOL0     H47417   7.372   2.176   8.106  0.3302 -0.4000  0.8868
  344MOL0     H47418   7.365   2.033   8.001  0.7731  0.0259  1.7534
  344MOL0     H47419   7.228   2.079   8.256 -0.2883 -0.5794  0.9045
  344MOL0     H47420   7.156   1.968   8.141  1.4512 -2.5911  1.4751
  344MOL0     H47421   7.377   1.784   8.038  1.6323  0.3863 -0.2526
  344MOL0     H47422   7.579   1.550   8.286 -1.0725 -0.6592  0.5536
  344MOL0     H47423   7.592   1.617   8.130  0.5497 -1.7184 -0.5254
  344MOL0     H47424   7.385   1.503   8.061 -1.9651  1.7383  1.0179
  344MOL0     H47425   7.506   1.404   8.134 -0.1665  1.1905  0.0986
  344MOL0     H47426   7.238   1.472   8.223  0.0239 -0.2365 -0.6783
  344MOL0     H47427   7.324   1.314   8.228 -0.9404 -0.2971  2.5801
  344MOL0     H47428   7.454   1.383   8.404 -0.0465  1.3872  0.4299
  344MOL0     H47429   7.364   1.527   8.443  0.8106 -0.4571  1.2503
  344MOL0     H47430   7.139   1.243   8.666 -2.8003 -1.9778 -0.5529
  344MOL0     H47431   7.089   1.082   8.833  1.6190  2.4059 -0.8815
  344MOL0     H47432   7.247   1.000   8.895  2.1980 -3.5999 -2.4604
  344MOL0     H47433   7.131   0.907   8.815  5.7302 -2.4376 -0.5343
  344MOL0     H47434   7.272   0.604   8.847  1.5136 -1.2180  2.0460
  344MOL0     H47435   7.354   0.389   8.932 -1.0402 -1.9975 -0.3969
  344MOL0     H47436   7.357   0.094   8.595 -1.6865 -4.6358  2.6653
  344MOL0     H47437   7.534   0.118   8.593 -0.0836  3.0920 -0.2033
  344MOL0     H47438   7.583  -0.045   8.738  0.1388  3.3817  3.4314
  344MOL0     H47439   7.405  -0.059   8.790 -0.1369 -0.4499 -0.8393
  344MOL0     H47440   7.550  -0.155   8.532 -1.5322 -1.2292 -1.9088
  344MOL0     H47441   7.390  -0.104   8.512  0.4879  3.4635  1.3262
  344MOL0     H47442   7.394  -0.346   8.558  2.4689 -0.6319 -0.6053
  344MOL0     H47443   7.334  -0.282   8.720 -0.3246  0.5667 -0.0039
  344MOL0     H47444   7.623  -0.329   8.624 -0.2529 -1.3712 -1.0852
  344MOL0     H47445   7.576  -0.306   8.793  1.4891  2.0990 -1.7823
  344MOL0     H47446   7.465  -0.537   8.649  1.7973  2.6640 -0.9822
  344MOL0     H47447   7.474  -0.514   8.825  2.3465 -2.8170  1.3899
  344MOL0     H47448   7.722  -0.545   8.814 -0.8212  1.8748  0.7841
  344MOL0     H47449   7.718  -0.519   8.649 -0.3593  2.6634  1.6928
  344MOL0     H47450   7.741  -0.769   8.732  0.8863 -0.2587 -1.4181
  344MOL0     H47451   7.613  -0.737   8.613 -0.7606  2.0151  0.2053
  344MOL0     H47452   7.547   0.315   8.550  1.9382  2.4932 -1.5582
  344MOL0     H47453   7.499   0.537   8.484  0.5378  0.0052 -0.2825
  344MOL0     H47454   7.422   0.930   8.430 -2.4240 -2.8415  0.1458
  344MOL0     H47455   7.392   1.131   8.346 -2.6211 -0.1648 -0.8184
  344MOL0     H47456   6.583   2.042   7.487 -0.2414 -0.6472 -1.2618
  344MOL0     H47457   6.403   2.099   7.310  0.8455  0.7189 -1.7739
  344MOL0     H47458   6.114   2.465   7.232 -0.5444 -1.6066 -0.3271
  344MOL0     H47459   5.948   2.580   7.096  0.4515  1.4879 -0.9751
  344MOL0     H47460   6.048   2.734   6.708  0.8059 -1.0678 -0.6288
  344MOL0     H47461   5.978   2.585   6.654  0.6633  2.5849 -2.6843
  344MOL0     H47462   5.838   2.749   6.571  2.1356  2.7084  0.0709
  344MOL0     H47463   5.818   2.823   6.729  2.6116  0.9166 -0.2235
  344MOL0     H47464   5.740   2.541   6.756 -1.9581 -2.1690 -1.3960
  344MOL0     H47465   5.651   2.682   6.803  1.8869  0.3982  1.4682
  344MOL0     H47466   5.555   2.510   6.633  0.1351  0.8041  1.3783
  344MOL0     H47467   5.655   2.572   6.515 -1.4794 -3.3692  0.5985
  344MOL0     H47468   5.390   2.896   6.513  0.6640  0.0502  1.1079
  344MOL0     H47469   6.134   2.462   6.730  1.9792  0.7011  0.4616
  344MOL0     H47470   6.405   2.307   6.854  1.0793 -1.7253 -2.2778
  344MOL0     H47471   6.291   2.179   6.829 -0.4736  0.0623 -3.0372
  344MOL0     H47472   6.295   2.312   6.722 -0.4119 -0.5102  0.0262
  345MOL0     O47473   2.880   6.791   5.315 -0.5686  1.0766  0.4339
  345MOL0     C47474   2.978   6.812   5.245  1.2297 -0.4855 -0.1411
  345MOL0     O47475   3.027   6.721   5.156 -0.1002 -0.4610  0.4464
  345MOL0     C47476   2.998   6.593   5.173  0.6713 -0.2866 -0.5098
  345MOL0     C47477   2.896   6.522   5.119  0.3661  0.4618  0.4889
  345MOL0     C47478   2.875   6.382   5.139 -0.3305  0.1437 -1.1894
  345MOL0     C47479   2.962   6.318   5.232 -0.3887  0.1253  0.4326
  345MOL0     O47480   2.974   6.186   5.261 -0.6990 -0.4630 -1.2679
  345MOL0     C47481   2.897   6.087   5.186  0.4156 -0.0524  0.0486
  345MOL0     C47482   2.935   5.944   5.221 -0.8438  0.5650  0.2322
  345MOL0     C47483   2.918   5.912   5.375 -0.3354  0.3370 -0.3660
  345MOL0     C47484   2.943   5.761   5.401 -0.0263 -0.3306 -0.3272
  345MOL0     C47485   2.950   5.719   5.546  0.8329  0.8198  0.1152
  345MOL0     C47486   2.819   5.677   5.617  0.4417 -0.6904 -0.7134
  345MOL0     C47487   2.779   5.537   5.585 -1.0046 -0.2916  0.8017
  345MOL0     C47488   2.807   5.425   5.685  0.3488 -0.4515  0.0036
  345MOL0     N47489   2.955   5.396   5.690 -0.1928  0.3585  1.2682
  345MOL0     C47490   3.025   5.317   5.595  0.3844  0.3717 -0.0530
  345MOL0     C47491   3.152   5.322   5.631 -0.3956  0.9152 -0.6301
  345MOL0     C47492   3.268   5.279   5.548 -0.1712  0.3039 -0.3363
  345MOL0     C47493   3.264   5.340   5.406 -1.2859  0.3464 -0.4216
  345MOL0     C47494   3.238   5.488   5.402 -0.5384  0.9665  0.4528
  345MOL0     C47495   3.261   5.528   5.257  0.4402  0.0330  0.3744
  345MOL0     O47496   3.145   5.489   5.179  0.0817 -0.0947 -0.3787
  345MOL0     C47497   3.161   5.495   5.048 -0.0213  0.9097 -0.0074
  345MOL0     C47498   3.197   5.377   4.983 -0.4900  1.1546 -0.2539
  345MOL0     C47499   3.199   5.366   4.838  0.4967  0.4683  0.0120
  345MOL0     C47500   3.239   5.235   4.778  1.4868  0.6162 -0.5426
  345MOL0     C47501   3.174   5.478   4.759  1.0329 -0.1197 -0.0915
  345MOL0     C47502   3.189   5.502   4.617 -0.2755  0.0798  0.0967
  345MOL0     O47503   3.277   5.432   4.537  0.2250 -0.8791 -0.4386
  345MOL0     C47504   3.265   5.441   4.399 -0.4666  0.4581  0.1172
  345MOL0     C47505   3.144   5.439   4.326  0.7587  0.1469  0.7160
  345MOL0     C47506   3.144   5.470   4.186  0.2664 -0.1128 -0.3693
  345MOL0     C47507   3.260   5.490   4.121 -0.3502 -0.8615 -0.1499
  345MOL0     O47508   3.270   5.529   3.987  0.0169  0.2673  0.1693
  345MOL0     C47509   3.194   5.445   3.906 -0.5260 -0.0793  1.1241
  345MOL0     C47510   3.253   5.442   3.765  0.2573  0.0370  0.2860
  345MOL0     C47511   3.208   5.563   3.670  0.3091  0.6474  0.1167
  345MOL0     C47512   3.241   5.530   3.533 -0.3899  0.3410  0.2828
  345MOL0     C47513   3.220   5.644   3.433 -0.2838 -0.1477 -0.4916
  345MOL0     C47514   3.204   5.588   3.289 -0.5210  1.4050  0.2487
  345MOL0     C47515   3.329   5.534   3.228 -0.5369  0.4032  0.5927
  345MOL0     C47516   3.302   5.486   3.083 -0.9703 -0.6051 -1.2528
  345MOL0    Cl47517   3.458   5.467   2.990 -0.1454  0.2996 -0.3090
  345MOL0     C47518   3.383   5.482   4.197  0.3046 -0.2081 -0.2808
  345MOL0     C47519   3.386   5.448   4.334  0.3879 -0.9270  0.2312
  345MOL0     O47520   3.105   5.576   4.569  0.8032 -0.3832  0.8056
  345MOL0     C47521   3.129   5.597   4.828  0.3906 -0.3779  0.0836
  345MOL0     C47522   3.120   5.604   4.969 -0.4237  0.7826 -0.5762
  345MOL0     N47523   3.154   5.382   5.755 -0.0947 -0.9959 -0.1771
  345MOL0     N47524   3.037   5.422   5.791 -0.6199  1.2194  0.0426
  345MOL0     C47525   3.058   6.396   5.297  0.0166  0.2027  0.1503
  345MOL0     C47526   3.076   6.529   5.271  0.2836  0.7403 -1.3497
  345MOL0     C47527   3.023   6.952   5.230  0.8466  0.2981 -0.1643
  345MOL0     C47528   3.103   6.986   5.127 -0.7592  0.2178  0.6772
  345MOL0     C47529   3.125   7.120   5.090 -0.1044 -0.3089 -0.8836
  345MOL0     C47530   3.068   7.219   5.166 -0.2949 -0.5123  0.0176
  345MOL0     O47531   3.084   7.354   5.151 -0.0172 -0.6363  0.2696
  345MOL0     C47532   3.174   7.391   5.036  0.7102  0.0029 -0.5690
  345MOL0     C47533   3.151   7.537   5.016  0.5693  0.8982  0.3198
  345MOL0     C47534   3.213   7.609   5.137 -0.2333  0.4750  0.0299
  345MOL0     C47535   3.204   7.759   5.115  0.2892  0.6998  0.2245
  345MOL0     C47536   3.286   7.807   5.003  0.3774  0.3588 -0.8154
  345MOL0     C47537   3.339   7.847   4.902  0.9367  0.0135  0.5592
  345MOL0     C47538   3.000   7.185   5.284 -0.1092  0.1119 -0.3307
  345MOL0     C47539   2.992   7.049   5.334  0.2401 -0.3771  0.0703
  345MOL0     C47540   2.949   7.027   5.474 -0.1016 -0.8629 -0.3880
  345MOL0     H47541   2.828   6.581   5.058  0.3357  1.8552  1.8353
  345MOL0     H47542   2.789   6.329   5.098 -3.0732  1.1473  2.7547
  345MOL0     H47543   2.914   6.091   5.078 -1.4456 -0.8203 -0.3256
  345MOL0     H47544   2.788   6.098   5.188  0.0357 -2.7278 -1.1097
  345MOL0     H47545   2.876   5.874   5.160 -2.6414  0.3500  2.0970
  345MOL0     H47546   3.041   5.934   5.197 -0.3728  1.7257  1.6527
  345MOL0     H47547   2.986   5.978   5.430  0.0039  0.3007 -0.7455
  345MOL0     H47548   2.819   5.953   5.401  0.8080  0.8483  4.0845
  345MOL0     H47549   2.855   5.718   5.352  0.7756  0.2017 -2.3028
  345MOL0     H47550   3.034   5.730   5.350 -0.3424 -0.0431 -1.0782
  345MOL0     H47551   2.989   5.805   5.601  1.2764 -0.2172  1.4595
  345MOL0     H47552   3.014   5.632   5.564  1.5689  1.8385  2.9785
  345MOL0     H47553   2.844   5.676   5.724 -1.5082 -4.0537 -0.1362
  345MOL0     H47554   2.743   5.752   5.592 -0.7623 -1.7596 -0.3657
  345MOL0     H47555   2.806   5.517   5.481 -3.9342  1.1375 -0.3532
  345MOL0     H47556   2.670   5.533   5.592 -0.8717 -2.6233  2.8286
  345MOL0     H47557   2.790   5.453   5.789  0.8684  1.8398 -0.4742
  345MOL0     H47558   2.753   5.335   5.657 -1.9082 -0.8547  4.7009
  345MOL0     H47559   2.991   5.267   5.505  2.4442 -0.4399 -0.4136
  345MOL0     H47560   3.276   5.170   5.546  2.2421  0.4285 -0.8767
  345MOL0     H47561   3.368   5.316   5.577  1.3491 -2.1241 -2.1052
  345MOL0     H47562   3.362   5.313   5.364 -1.0969  0.3253  0.0302
  345MOL0     H47563   3.205   5.278   5.338  0.5765  0.8335 -2.6255
  345MOL0     H47564   3.139   5.508   5.444 -1.3991 -1.0803 -0.4714
  345MOL0     H47565   3.307   5.553   5.457 -1.6348  1.0516  1.7519
  345MOL0     H47566   3.250   5.635   5.243 -0.4033 -0.0949 -0.0037
  345MOL0     H47567   3.356   5.488   5.220  0.8456 -0.3435  1.7508
  345MOL0     H47568   3.249   5.302   5.041  3.1967  4.5084  1.2397
  345MOL0     H47569   3.288   5.170   4.852 -2.0546 -2.4839 -0.6159
  345MOL0     H47570   3.297   5.235   4.686  2.2055 -0.0399 -0.1008
  345MOL0     H47571   3.142   5.187   4.761  2.0729 -0.8420  0.0373
  345MOL0     H47572   3.049   5.423   4.376  0.3288 -3.1967 -0.8991
  345MOL0     H47573   3.056   5.475   4.123  1.0317  1.7147 -1.3695
  345MOL0     H47574   3.197   5.342   3.943  1.4802  0.8754  3.9135
  345MOL0     H47575   3.089   5.477   3.900 -0.5286 -0.3176 -0.7083
  345MOL0     H47576   3.361   5.433   3.778  0.0472 -1.3326  1.2369
  345MOL0     H47577   3.218   5.348   3.720 -4.7219  2.3012 -1.3618
  345MOL0     H47578   3.253   5.657   3.703  0.0159  1.2256 -1.0857
  345MOL0     H47579   3.101   5.579   3.679  0.2825 -0.0622  1.2550
  345MOL0     H47580   3.176   5.446   3.510 -1.1361  1.0288 -0.1941
  345MOL0     H47581   3.346   5.498   3.526 -0.0730  1.4148 -0.1851
  345MOL0     H47582   3.126   5.696   3.454 -1.8830 -3.0722  0.1000
  345MOL0     H47583   3.309   5.707   3.444 -1.8789  2.0142  1.1003
  345MOL0     H47584   3.181   5.667   3.217  3.4533 -0.0474 -3.0339
  345MOL0     H47585   3.120   5.518   3.296 -1.4992  2.4822 -0.4046
  345MOL0     H47586   3.364   5.445   3.282  0.5581  1.2966  1.3807
  345MOL0     H47587   3.408   5.609   3.219 -0.6110  0.2712 -1.8689
  345MOL0     H47588   3.229   5.552   3.034  1.3309  1.4348 -2.1247
  345MOL0     H47589   3.253   5.388   3.080 -0.8249 -0.7096 -0.3759
  345MOL0     H47590   3.482   5.475   4.152  1.7520  1.8517  2.2778
  345MOL0     H47591   3.476   5.441   4.394  0.2680  0.3009  0.5877
  345MOL0     H47592   3.114   5.691   4.777 -1.8105  0.0321  1.3751
  345MOL0     H47593   3.076   5.694   5.011 -1.7061  0.4867 -1.2302
  345MOL0     H47594   3.124   6.350   5.369 -1.5516 -1.1895  0.7632
  345MOL0     H47595   3.141   6.596   5.326 -0.5853 -0.2461  1.0401
  345MOL0     H47596   3.147   6.914   5.057 -0.0904 -1.5245  2.7778
  345MOL0     H47597   3.191   7.150   5.009  1.5077  2.6170  1.3660
  345MOL0     H47598   3.278   7.366   5.061  0.8729  0.7124 -0.5317
  345MOL0     H47599   3.142   7.341   4.944 -0.0903 -1.1635  0.3099
  345MOL0     H47600   3.045   7.553   4.997  1.3919  1.8805 -4.6127
  345MOL0     H47601   3.202   7.580   4.930  0.2028  1.9327  0.6092
  345MOL0     H47602   3.166   7.588   5.234  0.6983 -3.3532 -0.1784
  345MOL0     H47603   3.319   7.584   5.149 -1.0910 -3.9818  0.2931
  345MOL0     H47604   3.232   7.814   5.205 -2.5976  0.6125  1.3016
  345MOL0     H47605   3.101   7.786   5.092 -0.1224  1.2800  2.5151
  345MOL0     H47606   3.396   7.897   4.826 -0.7303  1.3526  0.1204
  345MOL0     H47607   2.972   7.267   5.348 -1.9301  1.3430 -2.5560
  345MOL0     H47608   2.960   6.922   5.503  0.6990 -1.3363 -2.2281
  345MOL0     H47609   3.012   7.092   5.535  0.1120 -1.4188 -0.0052
  345MOL0     H47610   2.847   7.065   5.473  0.4290  1.5103 -6.2035
  346MOL0     O47611   1.253   3.611   8.607  0.2578  0.7130  0.6333
  346MOL0     C47612   1.186   3.624   8.504  0.1109 -0.6309 -0.0504
  346MOL0     O47613   1.204   3.715   8.400 -0.8066  0.1856 -0.0168
  346MOL0     C47614   1.329   3.770   8.374  0.9299  1.0494 -0.4579
  346MOL0     C47615   1.441   3.679   8.360 -0.0214  0.3387 -0.3362
  346MOL0     C47616   1.571   3.735   8.321  1.0483 -0.1209  1.0642
  346MOL0     C47617   1.593   3.872   8.313 -0.2188  0.7337 -0.3863
  346MOL0     O47618   1.723   3.900   8.275  0.0305 -0.4228 -0.2592
  346MOL0     C47619   1.747   4.033   8.229 -0.4989 -0.4138  0.5295
  346MOL0     C47620   1.890   4.065   8.211  0.0261  0.1300  0.8251
  346MOL0     C47621   1.968   4.064   8.347 -0.1644 -0.8516 -0.4197
  346MOL0     C47622   2.032   3.922   8.378  0.4012  0.7157  0.3243
  346MOL0     C47623   2.171   3.941   8.449 -0.6348 -0.5257  0.6566
  346MOL0     C47624   2.156   4.004   8.586 -0.9395 -0.2233 -0.4740
  346MOL0     C47625   2.283   3.988   8.675  0.5694  0.1837  0.1112
  346MOL0     C47626   2.335   4.128   8.731 -0.3604  0.0343  0.3425
  346MOL0     N47627   2.451   4.122   8.814 -0.0821 -0.2866  1.2797
  346MOL0     C47628   2.466   4.185   8.932  0.6949  0.8846  0.3486
  346MOL0     C47629   2.589   4.165   8.975 -0.8600 -0.2957  0.9437
  346MOL0     C47630   2.644   4.224   9.095  0.2586  0.1554 -0.0154
  346MOL0     C47631   2.615   4.136   9.219 -0.0728 -0.3687  0.8469
  346MOL0     C47632   2.695   4.182   9.345  0.4971 -0.1289  0.5228
  346MOL0     C47633   2.691   4.097   9.474  0.5965 -0.1944 -1.3823
  346MOL0     O47634   2.560   4.052   9.508 -1.0426  0.5477 -0.1622
  346MOL0     C47635   2.527   4.029   9.640  0.5949  0.4913 -0.9316
  346MOL0     C47636   2.388   4.027   9.663 -0.0479 -0.1928  0.0756
  346MOL0     C47637   2.332   4.003   9.792  0.2308  0.1287  0.5131
  346MOL0     C47638   2.187   4.013   9.804 -0.4534 -0.2066 -0.8292
  346MOL0     C47639   2.425   3.958   9.893  0.3974  0.3744 -1.2167
  346MOL0     C47640   2.378   3.923  10.029  0.1542  1.0969 -1.2624
  346MOL0     O47641   2.477   3.875  10.116 -0.1297  0.1057 -1.0389
  346MOL0     C47642   2.451   3.835  10.243  0.8844 -0.1205 -1.2697
  346MOL0     C47643   2.396   3.710  10.273  0.4348  0.2562 -0.9350
  346MOL0     C47644   2.381   3.661  10.407  0.4969 -0.3367  0.7955
  346MOL0     C47645   2.420   3.739  10.509 -0.3628 -0.4058 -0.6328
  346MOL0     O47646   2.413   3.682  10.635  0.6971  0.6070 -0.5260
  346MOL0     C47647   2.385   3.754  10.757  0.2993  0.0122  0.2612
  346MOL0     C47648   2.285   3.685  10.845 -0.5243  0.0708  0.2938
  346MOL0     C47649   2.340   3.550  10.903  0.1568 -0.7000 -0.2698
  346MOL0     C47650   2.235   3.466  10.958  1.6567  0.7409 -0.7768
  346MOL0     C47651   2.280   3.328  10.998  0.4527 -0.3075  0.6993
  346MOL0     C47652   2.185   3.258  11.099 -0.0955 -1.3112  0.8405
  346MOL0     C47653   2.062   3.188  11.030 -0.7299  0.1587 -0.3888
  346MOL0     C47654   1.973   3.123  11.129  0.2791 -0.1695  0.1572
  346MOL0    Cl47655   1.919   3.226  11.246 -0.2799  0.1332  0.0218
  346MOL0     C47656   2.471   3.877  10.491  0.7937  0.5621 -0.1379
  346MOL0     C47657   2.484   3.925  10.359  0.2233 -0.2181  0.5021
  346MOL0     O47658   2.264   3.946  10.063 -0.7292 -0.0733 -0.3942
  346MOL0     C47659   2.562   3.963   9.870 -0.0532  0.7366 -0.5155
  346MOL0     C47660   2.613   4.003   9.753 -1.1281  0.6846 -0.2631
  346MOL0     N47661   2.636   4.062   8.891 -0.3661 -0.1299 -0.9044
  346MOL0     N47662   2.552   4.036   8.801  0.3446  0.8977  0.4493
  346MOL0     C47663   1.482   3.958   8.345 -0.0229  0.1276  0.4670
  346MOL0     C47664   1.353   3.909   8.366  0.1151  0.5298 -0.5807
  346MOL0     C47665   1.061   3.539   8.491 -1.3570  1.2002 -0.0102
  346MOL0     C47666   1.047   3.436   8.400  0.2748 -0.0232 -0.4668
  346MOL0     C47667   0.930   3.359   8.392  0.6324  0.0613 -0.1994
  346MOL0     C47668   0.821   3.382   8.479  0.3998 -0.6170  0.2985
  346MOL0     O47669   0.703   3.309   8.491  0.6557 -0.0883 -0.1377
  346MOL0     C47670   0.642   3.263   8.364 -0.1793 -0.2982 -0.5520
  346MOL0     C47671   0.604   3.113   8.363 -0.5145  0.4449 -0.0652
  346MOL0     C47672   0.520   3.057   8.234 -0.3158  0.8778 -1.0619
  346MOL0     C47673   0.509   2.897   8.235  0.1108  0.2203 -0.3105
  346MOL0     C47674   0.408   2.874   8.339  0.3202 -0.0756  0.0919
  346MOL0     C47675   0.341   2.861   8.430  0.1616 -0.2102 -0.4520
  346MOL0     C47676   0.835   3.482   8.574 -0.7057  0.3990  0.3966
  346MOL0     C47677   0.943   3.571   8.566  0.2452  0.4040  0.0320
  346MOL0     C47678   0.945   3.694   8.650 -0.0575 -0.6756  0.7205
  346MOL0     H47679   1.427   3.574   8.384  0.9283  0.1222 -0.6978
  346MOL0     H47680   1.651   3.662   8.311  1.0226  0.1359 -1.9180
  346MOL0     H47681   1.701   4.103   8.299  0.2501 -0.4316  1.0445
  346MOL0     H47682   1.699   4.035   8.130 -1.1830  2.8059  0.8035
  346MOL0     H47683   1.932   3.988   8.146 -2.4893 -2.7601  2.3279
  346MOL0     H47684   1.903   4.165   8.167  2.1553 -0.1001  0.8220
  346MOL0     H47685   2.046   4.138   8.330  0.3160 -1.1123  0.5376
  346MOL0     H47686   1.904   4.103   8.427  0.3712  4.4037 -2.1933
  346MOL0     H47687   1.976   3.851   8.439 -2.0409  1.3029 -1.0992
  346MOL0     H47688   2.053   3.866   8.286 -1.9818 -1.4607  0.9923
  346MOL0     H47689   2.225   4.007   8.381  0.1778 -2.3438 -0.5565
  346MOL0     H47690   2.230   3.848   8.445 -1.2134 -1.0058  2.3224
  346MOL0     H47691   2.140   4.112   8.575 -0.9996 -0.3792 -2.0836
  346MOL0     H47692   2.066   3.973   8.640  0.2665 -1.5469  0.8381
  346MOL0     H47693   2.361   3.938   8.618  0.0632 -1.4826  0.8354
  346MOL0     H47694   2.265   3.923   8.761 -3.2224 -2.1064 -2.1450
  346MOL0     H47695   2.370   4.194   8.651  1.8484 -1.1591  0.2437
  346MOL0     H47696   2.257   4.184   8.784 -1.7355 -1.2470 -0.2700
  346MOL0     H47697   2.389   4.258   8.956  1.5944  0.8457  3.8653
  346MOL0     H47698   2.600   4.320   9.125 -0.6556 -0.4298  0.5879
  346MOL0     H47699   2.749   4.250   9.084  0.8113 -1.4619  1.0944
  346MOL0     H47700   2.510   4.119   9.243 -0.2214 -1.9826 -0.7585
  346MOL0     H47701   2.650   4.035   9.198  1.6586  0.5151 -0.8177
  346MOL0     H47702   2.797   4.204   9.312  0.4923  0.3190  0.7958
  346MOL0     H47703   2.653   4.280   9.367  2.3300  0.7826  0.1341
  346MOL0     H47704   2.760   4.014   9.454 -0.1625 -0.8771 -1.2435
  346MOL0     H47705   2.718   4.155   9.563 -2.5218 -0.8555  0.1654
  346MOL0     H47706   2.321   4.048   9.581  1.7052  0.1849 -1.3200
  346MOL0     H47707   2.159   4.067   9.895 -1.9784  1.7250 -2.3424
  346MOL0     H47708   2.135   3.916   9.800 -0.8297 -0.0156 -0.6605
  346MOL0     H47709   2.152   4.082   9.727  1.5326  0.7077 -0.9809
  346MOL0     H47710   2.361   3.658  10.185  1.2033 -0.5786 -0.7639
  346MOL0     H47711   2.326   3.570  10.429  0.2466 -0.6335 -0.8631
  346MOL0     H47712   2.476   3.796  10.802  0.6344  1.5883 -1.7613
  346MOL0     H47713   2.341   3.851  10.732  1.1708  0.2833 -0.2553
  346MOL0     H47714   2.253   3.734  10.937  2.0778 -1.1458  1.9825
  346MOL0     H47715   2.191   3.677  10.789 -0.6848  3.1560 -0.0325
  346MOL0     H47716   2.408   3.583  10.982 -0.6157  0.3602 -0.0152
  346MOL0     H47717   2.399   3.494  10.830  3.2977 -0.1542  1.6635
  346MOL0     H47718   2.156   3.447  10.884  1.8171  0.2163 -0.8207
  346MOL0     H47719   2.187   3.513  11.044 -1.1053 -2.1705 -0.5037
  346MOL0     H47720   2.283   3.271  10.904  2.3539  0.4941  0.2357
  346MOL0     H47721   2.379   3.329  11.044  0.9995 -0.4921 -0.4246
  346MOL0     H47722   2.158   3.325  11.181  0.5045 -0.6509  0.5007
  346MOL0     H47723   2.253   3.191  11.152  2.6531  0.6229 -0.0443
  346MOL0     H47724   2.106   3.123  10.954  0.0637  1.1180 -0.7660
  346MOL0     H47725   2.017   3.256  10.957 -2.1592 -1.2696 -0.9041
  346MOL0     H47726   2.028   3.038  11.171  1.9541  1.8961  2.4195
  346MOL0     H47727   1.887   3.092  11.069  0.8729  0.9697 -1.3395
  346MOL0     H47728   2.503   3.947  10.568 -2.6784  3.5979 -1.1362
  346MOL0     H47729   2.532   4.019  10.334 -3.7233  2.2718  1.4065
  346MOL0     H47730   2.642   3.955   9.942  0.9864 -0.4993 -1.7544
  346MOL0     H47731   2.721   4.011   9.753 -0.7558 -2.6693 -1.2785
  346MOL0     H47732   1.497   4.065   8.358 -3.4445  0.7914 -0.2875
  346MOL0     H47733   1.267   3.973   8.383 -0.6762 -0.2762 -1.4359
  346MOL0     H47734   1.130   3.424   8.330  0.3925 -0.4385 -0.2597
  346MOL0     H47735   0.912   3.274   8.327 -0.9160  0.4787 -0.3602
  346MOL0     H47736   0.549   3.317   8.345  0.4076  0.4077 -1.5412
  346MOL0     H47737   0.695   3.281   8.270 -1.1802  3.7427 -0.4995
  346MOL0     H47738   0.548   3.092   8.455 -0.9324 -1.1690 -0.6423
  346MOL0     H47739   0.699   3.058   8.357  1.2834  3.2150  0.9888
  346MOL0     H47740   0.421   3.103   8.242  0.7805  3.1510  1.0708
  346MOL0     H47741   0.559   3.076   8.134  0.1943  1.3648 -0.7810
  346MOL0     H47742   0.609   2.858   8.255 -0.5694 -1.2090  0.4809
  346MOL0     H47743   0.478   2.867   8.134  1.1576  1.6984 -1.1101
  346MOL0     H47744   0.281   2.839   8.516 -0.1684  2.3816  0.0875
  346MOL0     H47745   0.770   3.495   8.660  3.1711 -0.7350  3.8353
  346MOL0     H47746   0.845   3.738   8.650  1.2514  2.5432  1.0648
  346MOL0     H47747   0.982   3.680   8.752  1.2935 -0.7203  0.2397
  346MOL0     H47748   1.008   3.771   8.604  3.7038 -1.5589  3.8092
  347MOL0     O47749   9.315   4.312   8.748  0.7521 -1.1081  0.1965
  347MOL0     C47750   9.356   4.431   8.725  0.6158 -0.4126 -0.6992
  347MOL0     O47751   9.486   4.474   8.721  0.5243 -0.4156 -0.6238
  347MOL0     C47752   9.607   4.413   8.760 -0.8503 -0.2277  1.1407
  347MOL0     C47753   9.725   4.463   8.690 -0.4548  0.3448  0.0933
  347MOL0     C47754   9.849   4.409   8.722  0.6354  0.2855  0.5092
  347MOL0     C47755   9.867   4.290   8.795 -1.2618 -0.2743  0.1742
  347MOL0     O47756   9.988   4.219   8.808 -0.5219  0.0678  0.1527
  347MOL0     C47757  10.103   4.266   8.734  0.7812 -0.0355  0.7959
  347MOL0     C47758  10.215   4.167   8.742  0.7687 -0.1290  0.1310
  347MOL0     C47759  10.174   4.028   8.688  0.8096  0.0522 -0.0503
  347MOL0     C47760  10.152   4.030   8.537 -0.6683 -0.8678 -0.1073
  347MOL0     C47761  10.148   3.886   8.500 -0.5637 -0.2066 -0.0765
  347MOL0     C47762  10.124   3.878   8.349 -0.2120 -0.4663 -0.4772
  347MOL0     C47763  10.178   3.752   8.283 -0.0318 -0.4303 -0.1511
  347MOL0     C47764  10.073   3.710   8.168 -0.3786 -0.2652 -0.4414
  347MOL0     N47765  10.057   3.809   8.056  0.6201  0.5162 -0.0802
  347MOL0     C47766  10.143   3.824   7.948  0.2264 -0.3163 -0.0986
  347MOL0     C47767  10.118   3.950   7.904  0.6471 -0.3399  0.5277
  347MOL0     C47768  10.178   4.032   7.788 -0.1356 -0.3370 -0.1607
  347MOL0     C47769  10.257   4.160   7.843 -0.2386  0.2609 -0.3201
  347MOL0     C47770  10.338   4.229   7.740 -0.8919  0.3572 -0.6452
  347MOL0     C47771  10.314   4.196   7.594  0.1627 -0.3561  0.2032
  347MOL0     O47772  10.193   4.254   7.554 -0.3672 -0.0333 -0.0759
  347MOL0     C47773  10.142   4.204   7.439 -0.6743  0.0146  0.2870
  347MOL0     C47774  10.223   4.208   7.321 -0.6628 -0.3762 -0.5534
  347MOL0     C47775  10.170   4.158   7.193  0.1563  0.6737 -0.5786
  347MOL0     C47776  10.252   4.183   7.068 -0.1114 -0.1521  0.3964
  347MOL0     C47777  10.044   4.094   7.187  0.3294 -1.0342 -0.2204
  347MOL0     C47778   9.980   4.033   7.066  0.2316 -0.3981  0.3302
  347MOL0     O47779   9.866   3.974   7.079  1.0182 -0.2908  0.0679
  347MOL0     C47780   9.779   3.963   6.981  0.3680  0.0492  0.2882
  347MOL0     C47781   9.719   3.834   6.963  0.9906  0.6279 -0.0932
  347MOL0     C47782   9.624   3.819   6.863  0.2168 -0.1381  0.4513
  347MOL0     C47783   9.578   3.933   6.790  0.6093  0.3308  0.2196
  347MOL0     O47784   9.471   3.916   6.700 -0.3352  0.0243 -0.4396
  347MOL0     C47785   9.355   4.002   6.702 -0.3182 -0.1613  0.8144
  347MOL0     C47786   9.292   3.983   6.561  0.3261 -0.1371  0.0817
  347MOL0     C47787   9.389   4.005   6.445  0.0865  0.1193 -0.3593
  347MOL0     C47788   9.307   4.019   6.321  0.1983  1.8239 -0.5863
  347MOL0     C47789   9.379   4.098   6.206  0.0880  0.4124 -0.4237
  347MOL0     C47790   9.480   4.013   6.124 -0.3425  0.4986 -1.0649
  347MOL0     C47791   9.574   4.096   6.040 -0.0041  1.1688 -0.4089
  347MOL0     C47792   9.628   4.025   5.915  0.5672  0.4862  0.0679
  347MOL0    Cl47793   9.729   3.879   5.936 -0.4856  0.3346 -0.3706
  347MOL0     C47794   9.642   4.055   6.804  0.1241  0.8460 -0.4326
  347MOL0     C47795   9.740   4.071   6.898 -0.5462  0.5938  0.1966
  347MOL0     O47796  10.044   4.035   6.961 -0.5673  0.0327  0.2614
  347MOL0     C47797   9.966   4.107   7.301  0.0349  0.7673 -0.7069
  347MOL0     C47798  10.013   4.150   7.421  0.7020  0.0891 -0.1381
  347MOL0     N47799  10.006   4.000   7.975  0.0238 -0.5469  0.3774
  347MOL0     N47800   9.961   3.904   8.060 -0.4673  0.2477 -0.4339
  347MOL0     C47801   9.746   4.238   8.853 -0.5275 -0.9153  0.3727
  347MOL0     C47802   9.617   4.313   8.851  0.8404  0.0941  0.0051
  347MOL0     C47803   9.253   4.535   8.711 -0.4980  0.2851  0.3103
  347MOL0     C47804   9.263   4.650   8.785  0.8240 -0.4696  0.4020
  347MOL0     C47805   9.168   4.755   8.770 -0.9362 -0.1980 -0.4096
  347MOL0     C47806   9.065   4.745   8.676  0.2238  0.0653 -0.3891
  347MOL0     O47807   8.967   4.845   8.674 -0.4656  0.2144  0.4662
  347MOL0     C47808   8.950   4.947   8.777 -0.0661  0.7199  0.2740
  347MOL0     C47809   8.845   4.881   8.869  0.7735  0.5891 -0.1666
  347MOL0     C47810   8.720   4.846   8.790  0.1104  0.1670  0.4512
  347MOL0     C47811   8.598   4.791   8.872 -0.7440  0.9186  0.1681
  347MOL0     C47812   8.524   4.679   8.804 -0.1837 -0.7913 -0.5911
  347MOL0     C47813   8.465   4.588   8.756 -0.3236  0.3685 -0.6291
  347MOL0     C47814   9.057   4.625   8.600  0.0346 -0.3848  0.5508
  347MOL0     C47815   9.146   4.526   8.613 -0.2444 -0.2621 -0.2463
  347MOL0     C47816   9.119   4.415   8.513 -0.6264 -0.8240 -0.2337
  347MOL0     H47817   9.723   4.558   8.636  3.1905  0.6768  0.3115
  347MOL0     H47818   9.938   4.462   8.689  0.8156  1.0678  2.1067
  347MOL0     H47819  10.140   4.358   8.780  1.9389  1.2606 -2.4171
  347MOL0     H47820  10.076   4.297   8.633 -1.0674 -0.0182  1.2629
  347MOL0     H47821  10.295   4.202   8.677 -0.0730 -0.7483 -1.2737
  347MOL0     H47822  10.257   4.164   8.843  1.9229 -0.1163 -0.3317
  347MOL0     H47823  10.247   3.954   8.722  0.9735 -0.4337 -1.4091
  347MOL0     H47824  10.078   4.001   8.732 -1.5161  4.1297 -2.0039
  347MOL0     H47825  10.058   4.083   8.519 -2.6094 -3.5909  1.3882
  347MOL0     H47826  10.247   4.078   8.509 -0.4286 -1.7665 -0.8734
  347MOL0     H47827  10.064   3.842   8.553 -1.5085  1.7011  0.1027
  347MOL0     H47828  10.236   3.832   8.535 -0.5120 -0.5755 -0.7546
  347MOL0     H47829  10.016   3.895   8.339 -0.1571  0.5708  0.5016
  347MOL0     H47830  10.160   3.971   8.304  0.5386 -0.3288  0.3742
  347MOL0     H47831  10.181   3.675   8.361 -0.6970 -0.1596  0.1551
  347MOL0     H47832  10.278   3.760   8.240 -0.0672  0.2511 -0.1254
  347MOL0     H47833  10.115   3.623   8.117  2.7043  0.9887 -0.3060
  347MOL0     H47834   9.972   3.692   8.204 -0.7001 -5.3952 -3.0243
  347MOL0     H47835  10.223   3.755   7.923  0.7989  0.3148 -0.0242
  347MOL0     H47836  10.096   4.059   7.721  1.2987  2.1856 -1.0330
  347MOL0     H47837  10.246   3.974   7.725 -0.5667  1.9837 -2.9746
  347MOL0     H47838  10.181   4.222   7.891 -2.4730 -2.1378 -0.5024
  347MOL0     H47839  10.328   4.124   7.919  1.6288  2.2439 -1.0186
  347MOL0     H47840  10.345   4.338   7.751 -3.3425  0.5205 -0.0913
  347MOL0     H47841  10.438   4.199   7.773  0.0264  1.3942 -2.3184
  347MOL0     H47842  10.388   4.248   7.532 -0.7208  1.4896  0.6229
  347MOL0     H47843  10.306   4.090   7.566 -1.5879 -0.2479  0.2022
  347MOL0     H47844  10.317   4.262   7.324 -1.1811  0.5440  2.5511
  347MOL0     H47845  10.298   4.088   7.041 -0.3951  0.4102 -2.2711
  347MOL0     H47846  10.324   4.259   7.102 -2.0438 -0.1442  5.4011
  347MOL0     H47847  10.194   4.223   6.985  0.6010 -0.0705 -0.0686
  347MOL0     H47848   9.747   3.748   7.022 -0.1731 -3.2866 -4.6213
  347MOL0     H47849   9.578   3.722   6.849  1.0065 -0.2196 -2.3660
  347MOL0     H47850   9.288   3.969   6.782 -0.9866  1.3619  0.9203
  347MOL0     H47851   9.380   4.108   6.715  1.8578 -0.6947  1.4244
  347MOL0     H47852   9.244   3.884   6.557 -2.0410  0.9733 -0.9309
  347MOL0     H47853   9.205   4.049   6.565 -0.2925 -0.8360 -1.1041
  347MOL0     H47854   9.454   3.918   6.430 -0.8851 -0.4765 -1.2007
  347MOL0     H47855   9.441   4.099   6.467 -0.5543  0.2055  0.9109
  347MOL0     H47856   9.214   4.075   6.339 -0.6952  0.4921 -0.9578
  347MOL0     H47857   9.288   3.916   6.292  2.7807  0.9197  0.6341
  347MOL0     H47858   9.310   4.144   6.135  2.9609  0.7701 -3.1975
  347MOL0     H47859   9.429   4.186   6.246  0.0835  1.3437 -2.3498
  347MOL0     H47860   9.420   3.956   6.052 -0.2800 -0.8682 -0.0859
  347MOL0     H47861   9.544   3.948   6.184 -3.7768 -0.7014  1.6881
  347MOL0     H47862   9.665   4.121   6.095  0.7653  0.3181 -1.2579
  347MOL0     H47863   9.527   4.191   6.015 -2.4747 -0.0060 -0.5196
  347MOL0     H47864   9.688   4.100   5.863 -1.6557  1.6213 -1.0185
  347MOL0     H47865   9.546   4.005   5.845 -2.7264  3.5398  2.6589
  347MOL0     H47866   9.630   4.145   6.745  3.3093  1.4602 -0.3087
  347MOL0     H47867   9.796   4.163   6.906  1.6363 -0.1235 -3.9556
  347MOL0     H47868   9.863   4.073   7.304  0.5370 -0.9045 -1.4470
  347MOL0     H47869   9.949   4.144   7.509  3.5979 -2.1688  2.0007
  347MOL0     H47870   9.745   4.145   8.910 -2.7780  0.6201  3.1343
  347MOL0     H47871   9.532   4.276   8.907 -1.7480  3.3260 -1.5103
  347MOL0     H47872   9.344   4.674   8.853 -1.0027  1.1210  2.1435
  347MOL0     H47873   9.191   4.847   8.824  1.4768 -1.8383  1.5891
  347MOL0     H47874   9.040   4.976   8.833  0.5977 -2.0806  0.7741
  347MOL0     H47875   8.922   5.039   8.724 -2.5761  0.5226  1.1472
  347MOL0     H47876   8.822   4.938   8.959 -0.0811  1.0629 -0.6665
  347MOL0     H47877   8.902   4.799   8.913  1.5008  0.8667 -0.5869
  347MOL0     H47878   8.679   4.934   8.740 -1.3577  0.7202  2.5005
  347MOL0     H47879   8.742   4.777   8.709 -0.9494 -0.1843  0.4494
  347MOL0     H47880   8.525   4.870   8.891  2.3241  3.3319  3.2106
  347MOL0     H47881   8.634   4.750   8.966 -4.2934  0.9791  1.6838
  347MOL0     H47882   8.407   4.521   8.695 -1.1925  2.5694 -2.3587
  347MOL0     H47883   8.982   4.613   8.523  0.9562  2.7046 -0.9612
  347MOL0     H47884   9.029   4.425   8.452 -0.6486 -2.5266 -0.5354
  347MOL0     H47885   9.208   4.411   8.450  0.7381 -3.0376  1.6578
  347MOL0     H47886   9.102   4.321   8.567 -4.3161  1.3398  2.8695
  348MOL0     O47887   0.062   4.091   8.511  0.7703  0.2875  0.3230
  348MOL0     C47888  -0.002   4.162   8.431 -0.7525 -0.3641 -0.4524
  348MOL0     O47889   0.030   4.296   8.399 -0.4695  0.8421  0.2677
  348MOL0     C47890   0.132   4.374   8.435  0.3298 -0.4922  0.4839
  348MOL0     C47891   0.257   4.333   8.477 -0.3139  0.3849 -0.7339
  348MOL0     C47892   0.362   4.425   8.497 -0.9541 -0.9426  0.5462
  348MOL0     C47893   0.333   4.560   8.481 -1.0600 -0.4137  0.3056
  348MOL0     O47894   0.430   4.653   8.518 -0.0272  0.3063  0.4353
  348MOL0     C47895   0.568   4.647   8.469  0.1564 -0.5670 -0.3987
  348MOL0     C47896   0.617   4.796   8.449 -0.3305 -0.3556  0.8044
  348MOL0     C47897   0.759   4.820   8.469 -0.4771 -0.4690  0.5844
  348MOL0     C47898   0.800   4.971   8.460  0.0736  0.1479  0.6927
  348MOL0     C47899   0.936   4.987   8.541 -0.6225  0.8895  0.8961
  348MOL0     C47900   1.058   4.913   8.483  0.0624  0.4450  0.6032
  348MOL0     C47901   1.186   4.937   8.574  1.3041  0.2643  1.0326
  348MOL0     C47902   1.153   4.872   8.709 -0.4076 -0.1499  0.0097
  348MOL0     N47903   1.137   4.973   8.813  0.5275 -0.2553 -0.7894
  348MOL0     C47904   1.026   4.981   8.900  0.3342  0.7155 -0.8320
  348MOL0     C47905   1.066   5.066   8.999  0.2799  2.0876  0.3406
  348MOL0     C47906   0.985   5.108   9.120 -0.8900 -0.0706 -0.3428
  348MOL0     C47907   0.956   5.002   9.223  0.1204  0.0550 -0.2020
  348MOL0     C47908   0.909   5.058   9.363 -0.3041  0.1404 -0.1122
  348MOL0     C47909   1.037   5.098   9.442  0.2258 -0.9738  1.0879
  348MOL0     O47910   1.111   4.994   9.482 -1.1323  0.7471  0.0498
  348MOL0     C47911   1.087   4.922   9.597 -0.5818  0.3405 -0.1588
  348MOL0     C47912   1.158   4.803   9.618  0.5640 -0.1614  0.5438
  348MOL0     C47913   1.150   4.723   9.739 -0.0540  0.7116  0.4945
  348MOL0     C47914   1.263   4.620   9.768  0.6037 -0.4130 -0.3915
  348MOL0     C47915   1.043   4.756   9.822  0.0606  0.4858  0.6971
  348MOL0     C47916   1.011   4.681   9.947 -0.1276 -0.0682  0.4403
  348MOL0     O47917   1.098   4.592   9.997  0.2714  0.5989  0.3694
  348MOL0     C47918   1.062   4.484  10.071  1.4144  0.1781 -0.5829
  348MOL0     C47919   0.998   4.368  10.026  0.6414  0.0372 -0.3681
  348MOL0     C47920   0.968   4.267  10.121  0.4989  0.2812 -0.3009
  348MOL0     C47921   0.998   4.285  10.264  0.5566 -0.3787  0.6260
  348MOL0     O47922   0.963   4.181  10.350 -0.2547 -0.3578 -0.2940
  348MOL0     C47923   1.066   4.129  10.439  0.8710  0.2668 -0.1099
  348MOL0     C47924   1.029   3.987  10.475 -0.0960  1.1124 -0.1622
  348MOL0     C47925   0.876   3.951  10.460  0.4532 -0.2473  0.5004
  348MOL0     C47926   0.834   3.817  10.510  0.8475 -0.7211 -0.9610
  348MOL0     C47927   0.862   3.715  10.404 -1.0354 -0.3062 -0.3224
  348MOL0     C47928   0.740   3.642  10.346 -0.2103 -0.3096  0.5414
  348MOL0     C47929   0.759   3.494  10.368 -0.4274  0.3352  0.6506
  348MOL0     C47930   0.764   3.453  10.509 -0.3264 -0.0560 -0.1204
  348MOL0    Cl47931   0.620   3.486  10.607 -0.0466 -0.1550  0.0107
  348MOL0     C47932   1.071   4.405  10.302  0.9996 -0.3725  0.6700
  348MOL0     C47933   1.093   4.502  10.204  0.2479 -0.5100 -0.7245
  348MOL0     O47934   0.903   4.709  10.005 -0.7735  1.0278 -0.4886
  348MOL0     C47935   0.959   4.857   9.790 -0.6135 -0.5997  0.5240
  348MOL0     C47936   0.978   4.938   9.677  0.0668 -0.3471  1.0924
  348MOL0     N47937   1.202   5.092   8.979 -0.4736 -0.3323 -0.0977
  348MOL0     N47938   1.246   5.040   8.866 -0.2683  0.1824 -0.2831
  348MOL0     C47939   0.210   4.604   8.437  0.5229  0.1731 -0.3545
  348MOL0     C47940   0.111   4.509   8.414 -0.5254 -0.1333 -0.1281
  348MOL0     C47941  -0.107   4.094   8.361 -0.1744  0.4461  0.3157
  348MOL0     C47942  -0.120   4.127   8.221 -0.4535  0.1008 -0.0901
  348MOL0     C47943  -0.213   4.056   8.144  0.3351 -0.3157 -0.0960
  348MOL0     C47944  -0.306   3.974   8.213  0.5232  0.0478 -0.3588
  348MOL0     O47945  -0.386   3.901   8.126 -0.3063 -0.4434 -0.0853
  348MOL0     C47946  -0.473   3.801   8.174  0.8685  0.1268 -0.3204
  348MOL0     C47947  -0.557   3.732   8.070  1.2701 -0.3022  0.2657
  348MOL0     C47948  -0.606   3.597   8.117 -0.0086  0.0746  0.4547
  348MOL0     C47949  -0.653   3.509   7.990  0.5484 -0.2484  0.3478
  348MOL0     C47950  -0.730   3.396   8.034  0.3213  0.1786  0.6629
  348MOL0     C47951  -0.803   3.301   8.072  0.7846  0.0165 -0.3250
  348MOL0     C47952  -0.303   3.950   8.348 -0.0917 -0.2798 -0.8132
  348MOL0     C47953  -0.202   4.006   8.424 -0.9313  1.5078 -0.5162
  348MOL0     C47954  -0.180   3.949   8.564 -0.3026 -0.3918 -0.7630
  348MOL0     H47955   0.272   4.226   8.487 -0.5140  0.4882  0.9567
  348MOL0     H47956   0.459   4.402   8.540  0.8532  2.9597 -1.0009
  348MOL0     H47957   0.564   4.589   8.375  1.6702  0.4010 -1.0887
  348MOL0     H47958   0.622   4.595   8.548 -1.3082 -1.3272  0.1462
  348MOL0     H47959   0.593   4.829   8.348 -1.3908  0.1199  1.1963
  348MOL0     H47960   0.565   4.863   8.519  0.1944  1.2796 -0.3230
  348MOL0     H47961   0.793   4.793   8.569 -0.2172  3.4542  1.7017
  348MOL0     H47962   0.825   4.761   8.404 -0.9625 -1.4939  0.9939
  348MOL0     H47963   0.806   5.001   8.355 -0.2567  0.4478  0.7572
  348MOL0     H47964   0.725   5.026   8.518 -0.9932  0.2024 -0.6870
  348MOL0     H47965   0.926   4.976   8.649 -0.2621  1.6389  1.0175
  348MOL0     H47966   0.954   5.093   8.520 -0.9382  0.2546 -3.7132
  348MOL0     H47967   1.034   4.807   8.473  0.6191  0.4922 -1.9326
  348MOL0     H47968   1.070   4.944   8.379 -3.1154 -1.8849 -0.6388
  348MOL0     H47969   1.213   5.043   8.580  1.6069  0.1507  1.7547
  348MOL0     H47970   1.272   4.886   8.529  0.6431 -0.1917  0.2449
  348MOL0     H47971   1.068   4.803   8.696 -0.6791  0.6106 -2.8996
  348MOL0     H47972   1.235   4.814   8.751 -0.7018 -1.7088 -1.4532
  348MOL0     H47973   0.931   4.927   8.897  1.4355 -2.1991  4.0086
  348MOL0     H47974   0.890   5.143   9.080 -1.8750  0.3790  2.1889
  348MOL0     H47975   1.032   5.195   9.167 -1.5237 -0.2805  0.7163
  348MOL0     H47976   0.876   4.945   9.175  0.4134  1.7464 -2.8732
  348MOL0     H47977   1.040   4.932   9.228 -0.2700 -0.5054 -1.2877
  348MOL0     H47978   0.862   5.156   9.359  2.9353  1.9394  1.5048
  348MOL0     H47979   0.842   4.994   9.420  1.3247 -2.5420 -1.0166
  348MOL0     H47980   1.090   5.167   9.376 -1.4822  2.8011  3.3689
  348MOL0     H47981   0.998   5.165   9.519 -3.0644 -1.4149  0.0079
  348MOL0     H47982   1.222   4.769   9.537 -1.9790  1.2961 -2.3214
  348MOL0     H47983   1.222   4.518   9.760 -0.0776 -0.2338  0.6240
  348MOL0     H47984   1.309   4.642   9.865  1.1525  2.7830 -1.2772
  348MOL0     H47985   1.342   4.623   9.692  0.5999  0.3336 -0.3668
  348MOL0     H47986   0.963   4.353   9.925 -1.5437 -1.1632  0.5097
  348MOL0     H47987   0.906   4.179  10.109 -0.0608  0.7871 -1.1996
  348MOL0     H47988   1.168   4.121  10.400  1.5346  0.7367  1.4231
  348MOL0     H47989   1.066   4.195  10.527 -2.9250  0.0121  0.2212
  348MOL0     H47990   1.072   3.912  10.407  0.2577 -0.1166  1.3614
  348MOL0     H47991   1.058   3.958  10.576 -0.4007 -2.6981 -1.0031
  348MOL0     H47992   0.827   3.959  10.363  0.3899 -0.3981  0.5201
  348MOL0     H47993   0.814   4.012  10.527  2.4120  1.3708  0.9470
  348MOL0     H47994   0.728   3.814  10.536  0.6907 -0.9788 -1.6176
  348MOL0     H47995   0.899   3.793  10.594 -1.1173  1.1832  1.2584
  348MOL0     H47996   0.911   3.760  10.317 -0.0962  0.1091  0.4082
  348MOL0     H47997   0.941   3.646  10.434  1.0071  1.5099 -1.3183
  348MOL0     H47998   0.727   3.675  10.242  2.5440 -2.4091 -0.5939
  348MOL0     H47999   0.655   3.683  10.400 -0.2178  0.0130  0.2887
  348MOL0     H48000   0.854   3.461  10.323  1.4537  4.3557  1.2435
  348MOL0     H48001   0.681   3.435  10.320 -0.3161  1.1034 -0.4966
  348MOL0     H48002   0.844   3.503  10.565  1.8896  1.2400 -4.0339
  348MOL0     H48003   0.783   3.346  10.505  0.4811  0.0294 -5.4456
  348MOL0     H48004   1.091   4.423  10.408 -0.6015  3.2861  0.4897
  348MOL0     H48005   1.132   4.600  10.230 -3.6791  1.3010 -0.8759
  348MOL0     H48006   0.874   4.890   9.848  1.3204  0.2323  3.0760
  348MOL0     H48007   0.899   5.012   9.665  0.7324  0.4977  1.8814
  348MOL0     H48008   0.212   4.713   8.429  3.7613  0.0938 -2.7225
  348MOL0     H48009   0.011   4.536   8.381 -0.3528  0.2530 -0.3438
  348MOL0     H48010  -0.064   4.209   8.177  1.2000 -0.5410  0.7573
  348MOL0     H48011  -0.227   4.098   8.045 -1.4233 -0.5922  0.0117
  348MOL0     H48012  -0.411   3.727   8.225  3.4316  1.2465 -1.6343
  348MOL0     H48013  -0.541   3.838   8.251  1.7896  0.5632  0.3088
  348MOL0     H48014  -0.507   3.723   7.973 -1.2963  1.3512 -1.3439
  348MOL0     H48015  -0.650   3.790   8.063  0.0386 -1.7440  2.9483
  348MOL0     H48016  -0.526   3.536   8.161 -0.9631  0.2813  2.6548
  348MOL0     H48017  -0.682   3.601   8.196 -0.7529 -2.9233  0.0320
  348MOL0     H48018  -0.571   3.473   7.926 -0.0673  1.1570 -1.3082
  348MOL0     H48019  -0.715   3.563   7.918  1.3423 -0.2468 -0.3496
  348MOL0     H48020  -0.853   3.219   8.119  1.3297  0.0280  0.2823
  348MOL0     H48021  -0.381   3.889   8.393 -0.9829  0.8588 -0.7761
  348MOL0     H48022  -0.186   4.016   8.650 -0.2685 -2.4920  0.9601
  348MOL0     H48023  -0.246   3.864   8.581  1.2643 -1.8595 -1.6256
  348MOL0     H48024  -0.083   3.901   8.583 -1.2261 -2.2146 -0.4258
  349MOL0     O48025   8.169   4.619   7.699 -0.9801 -0.6147  0.1738
  349MOL0     C48026   8.259   4.659   7.771 -0.2410 -0.4290  0.7433
  349MOL0     O48027   8.325   4.584   7.862  0.3033 -0.7493 -0.1083
  349MOL0     C48028   8.303   4.449   7.887 -0.7260 -0.6753 -0.7570
  349MOL0     C48029   8.373   4.393   7.999  0.1760  0.1144 -0.7471
  349MOL0     C48030   8.379   4.257   8.032  0.1935  0.5282 -0.7590
  349MOL0     C48031   8.317   4.168   7.941 -1.1816  0.4511 -0.5606
  349MOL0     O48032   8.317   4.034   7.979 -0.6094 -0.2043 -1.1872
  349MOL0     C48033   8.284   3.936   7.885 -0.0192  0.2963  0.1966
  349MOL0     C48034   8.142   3.899   7.895  0.1017 -0.2652  1.2881
  349MOL0     C48035   8.086   3.775   7.818  0.2544  0.2029 -0.1396
  349MOL0     C48036   7.959   3.818   7.744 -0.2826  0.3327  0.3649
  349MOL0     C48037   7.910   3.708   7.653 -0.3677 -0.6696 -0.3033
  349MOL0     C48038   7.779   3.757   7.591  0.9186  0.7032 -0.5759
  349MOL0     C48039   7.722   3.646   7.503  1.6267  0.4791  0.1824
  349MOL0     C48040   7.591   3.693   7.442 -0.6423 -1.4166 -0.0730
  349MOL0     N48041   7.605   3.674   7.296  0.6860 -0.4218 -0.4061
  349MOL0     C48042   7.598   3.778   7.209  0.4285  0.8318  0.2677
  349MOL0     C48043   7.566   3.717   7.091  0.1124 -0.6029 -0.0055
  349MOL0     C48044   7.543   3.790   6.964 -0.0889  0.1183  0.7993
  349MOL0     C48045   7.407   3.859   6.963 -0.6736 -0.7198 -0.3253
  349MOL0     C48046   7.373   3.955   7.085 -0.5211  0.2734 -0.0083
  349MOL0     C48047   7.275   4.058   7.041  0.5109 -0.6925  0.9895
  349MOL0     O48048   7.323   4.160   6.944  1.0064  0.2522 -0.3369
  349MOL0     C48049   7.247   4.268   6.902 -1.0325  0.1659 -0.0004
  349MOL0     C48050   7.310   4.373   6.835 -0.2876 -0.2762  0.2071
  349MOL0     C48051   7.239   4.489   6.793  0.1699  0.2107 -0.0968
  349MOL0     C48052   7.319   4.591   6.717  0.1170 -1.2043 -0.1182
  349MOL0     C48053   7.100   4.491   6.800  0.1759  0.0616 -0.5788
  349MOL0     C48054   7.002   4.585   6.737 -0.4529  0.1035 -0.2346
  349MOL0     O48055   6.875   4.584   6.791  0.1394 -0.2527 -0.4429
  349MOL0     C48056   6.768   4.646   6.745  0.4632 -0.5132  0.1403
  349MOL0     C48057   6.771   4.767   6.662  0.3345  0.2309  0.6647
  349MOL0     C48058   6.659   4.831   6.616  0.6595 -0.6500  0.2435
  349MOL0     C48059   6.528   4.799   6.665 -0.3555 -0.2768  0.3160
  349MOL0     O48060   6.413   4.875   6.626 -0.2154  0.0658 -0.0779
  349MOL0     C48061   6.298   4.809   6.577  0.2970  0.3171  0.4054
  349MOL0     C48062   6.215   4.902   6.504  0.1897 -0.3859 -0.3892
  349MOL0     C48063   6.284   4.947   6.371 -0.7003  0.3357  0.4934
  349MOL0     C48064   6.249   4.869   6.249 -0.6137  0.5512 -0.4800
  349MOL0     C48065   6.309   4.918   6.112  0.3218  0.3959 -0.3176
  349MOL0     C48066   6.290   5.071   6.092  0.4813  0.6273 -0.1156
  349MOL0     C48067   6.315   5.127   5.953 -1.1124  0.4205 -0.6023
  349MOL0     C48068   6.257   5.266   5.925  0.1494 -1.2117 -0.0001
  349MOL0    Cl48069   6.267   5.368   6.077  0.0175  0.2604 -0.2762
  349MOL0     C48070   6.522   4.688   6.750 -0.1068  0.1577 -0.2615
  349MOL0     C48071   6.634   4.617   6.790 -0.7730 -0.3596 -0.7132
  349MOL0     O48072   7.045   4.650   6.646 -0.3741 -0.5219 -0.2120
  349MOL0     C48073   7.035   4.382   6.866 -0.3032 -0.0353 -0.0391
  349MOL0     C48074   7.109   4.269   6.909 -0.4122 -0.2367 -1.1615
  349MOL0     N48075   7.577   3.578   7.109  0.2354 -0.4453  0.1350
  349MOL0     N48076   7.589   3.554   7.239  0.4657 -0.8264 -0.4618
  349MOL0     C48077   8.251   4.218   7.829  0.5117  0.0247 -0.0689
  349MOL0     C48078   8.246   4.357   7.799 -0.1284  1.4038 -0.1782
  349MOL0     C48079   8.330   4.778   7.734  0.0643 -0.0042  0.7625
  349MOL0     C48080   8.289   4.901   7.789  0.4702 -0.6287  0.8554
  349MOL0     C48081   8.354   5.017   7.746  0.5761  0.2058  0.7269
  349MOL0     C48082   8.449   5.008   7.648  0.8028  0.3508 -0.7609
  349MOL0     O48083   8.506   5.133   7.626  0.8833 -0.4638 -1.2119
  349MOL0     C48084   8.547   5.153   7.486  0.5883 -0.1553  0.1111
  349MOL0     C48085   8.477   5.283   7.438 -0.0677  0.6708 -0.5588
  349MOL0     C48086   8.537   5.326   7.308  0.2177  0.0504  0.5363
  349MOL0     C48087   8.490   5.236   7.198 -0.1531  0.4007  0.1135
  349MOL0     C48088   8.584   5.248   7.079 -0.3022  0.8570 -0.3750
  349MOL0     C48089   8.652   5.258   6.979 -0.8257 -0.3039 -0.7017
  349MOL0     C48090   8.498   4.885   7.599 -0.2197  0.4194 -0.3658
  349MOL0     C48091   8.435   4.768   7.641  0.4749 -0.0549 -0.0174
  349MOL0     C48092   8.494   4.632   7.590 -0.1526 -0.3872 -0.1364
  349MOL0     H48093   8.432   4.458   8.064  2.7529 -3.7236  1.1199
  349MOL0     H48094   8.420   4.213   8.122 -1.5251 -0.4107 -0.3866
  349MOL0     H48095   8.347   3.850   7.907 -1.4409 -0.1887  2.6824
  349MOL0     H48096   8.317   3.960   7.783 -0.5432 -2.4758 -0.7210
  349MOL0     H48097   8.110   3.895   7.999 -1.0864 -2.9099  0.9001
  349MOL0     H48098   8.084   3.981   7.851  1.3931  0.6503  1.2371
  349MOL0     H48099   8.165   3.747   7.748 -1.0186 -1.1370 -1.0948
  349MOL0     H48100   8.069   3.680   7.869 -0.5015 -1.0486 -2.5631
  349MOL0     H48101   7.883   3.850   7.816 -1.0180  2.7098 -1.3452
  349MOL0     H48102   7.977   3.909   7.686 -2.1834 -0.8924 -2.4360
  349MOL0     H48103   7.894   3.615   7.709 -0.6507 -1.6788 -2.0062
  349MOL0     H48104   7.982   3.702   7.571 -0.0046  5.7397 -0.9376
  349MOL0     H48105   7.703   3.786   7.663  2.5358  0.5894  1.2648
  349MOL0     H48106   7.806   3.838   7.522  0.4319  1.0719 -0.3350
  349MOL0     H48107   7.725   3.546   7.546 -3.0672  1.1738  2.7446
  349MOL0     H48108   7.791   3.651   7.418  0.8415 -0.1750 -0.5135
  349MOL0     H48109   7.520   3.621   7.485  0.7592 -1.9827  1.4254
  349MOL0     H48110   7.557   3.792   7.471 -3.7177 -3.1462  3.0252
  349MOL0     H48111   7.615   3.884   7.227  2.9385  0.1358  2.6041
  349MOL0     H48112   7.541   3.716   6.884 -0.3401 -1.4116  2.1825
  349MOL0     H48113   7.624   3.862   6.950 -0.5579  0.7177  1.0786
  349MOL0     H48114   7.394   3.911   6.867  1.3453 -0.8419 -0.6966
  349MOL0     H48115   7.325   3.789   6.943 -1.6776  0.7281 -1.5998
  349MOL0     H48116   7.345   3.900   7.175  1.1463 -1.4782 -0.4814
  349MOL0     H48117   7.475   3.992   7.101  0.4527 -2.6081  1.0223
  349MOL0     H48118   7.186   4.012   6.997  0.1434  1.2628 -0.4415
  349MOL0     H48119   7.240   4.120   7.125  0.2698  0.5263  0.0234
  349MOL0     H48120   7.418   4.370   6.828 -0.2900 -0.8271  0.3473
  349MOL0     H48121   7.424   4.586   6.750 -1.2688 -2.7324  4.9093
  349MOL0     H48122   7.270   4.685   6.741  1.5076  0.2410 -2.5166
  349MOL0     H48123   7.306   4.577   6.610 -5.9599  0.9236 -0.0034
  349MOL0     H48124   6.866   4.812   6.635 -2.1072  5.9192  0.1436
  349MOL0     H48125   6.660   4.917   6.550  0.3526  0.7357  1.9755
  349MOL0     H48126   6.327   4.725   6.512  0.9218 -1.3842  2.7155
  349MOL0     H48127   6.240   4.768   6.660 -0.6097  0.8987  0.0642
  349MOL0     H48128   6.124   4.849   6.473  1.2279 -0.0470 -4.6800
  349MOL0     H48129   6.198   4.984   6.574  2.3227 -2.1740  2.4846
  349MOL0     H48130   6.392   4.961   6.377 -0.7161  0.0524  1.7436
  349MOL0     H48131   6.239   5.045   6.357  1.9137  1.8937  2.2578
  349MOL0     H48132   6.140   4.864   6.238 -0.4393  0.5613 -2.5340
  349MOL0     H48133   6.285   4.766   6.259 -0.9273  0.4252 -0.6085
  349MOL0     H48134   6.417   4.898   6.109  0.5170  1.4612 -1.1149
  349MOL0     H48135   6.274   4.856   6.028 -0.2760  2.9000 -2.0191
  349MOL0     H48136   6.337   5.121   6.177 -0.5911 -2.7162  2.6653
  349MOL0     H48137   6.182   5.077   6.107  0.2193  2.2396 -2.1265
  349MOL0     H48138   6.278   5.043   5.893 -4.0395 -2.3786  4.3937
  349MOL0     H48139   6.424   5.138   5.944 -0.8505 -0.6455  0.9164
  349MOL0     H48140   6.156   5.259   5.884  0.9160  0.4347 -2.3148
  349MOL0     H48141   6.334   5.302   5.856 -0.4469 -2.2246 -1.2347
  349MOL0     H48142   6.424   4.657   6.786  0.0125 -1.2189 -1.0241
  349MOL0     H48143   6.628   4.527   6.850  0.9621 -2.0384 -2.8771
  349MOL0     H48144   6.927   4.384   6.877 -0.1600  2.1171  1.3457
  349MOL0     H48145   7.048   4.192   6.955 -1.0191 -0.1661 -1.8210
  349MOL0     H48146   8.206   4.153   7.755  0.0719  1.1179 -0.7993
  349MOL0     H48147   8.187   4.382   7.712 -0.6730 -3.7519 -1.5884
  349MOL0     H48148   8.208   4.922   7.858  0.5794  3.4568 -0.0567
  349MOL0     H48149   8.315   5.112   7.779 -1.3837 -0.1323 -0.4724
  349MOL0     H48150   8.655   5.167   7.494  0.4367 -0.0048  2.2429
  349MOL0     H48151   8.523   5.072   7.417  2.1921 -0.2197 -0.4128
  349MOL0     H48152   8.493   5.357   7.517 -1.4518 -0.2271  0.6119
  349MOL0     H48153   8.369   5.268   7.423  0.5927 -2.8307 -3.3037
  349MOL0     H48154   8.514   5.431   7.287  0.9530 -0.1925 -1.8065
  349MOL0     H48155   8.645   5.314   7.325 -0.1358 -0.5198  2.5625
  349MOL0     H48156   8.393   5.280   7.171  0.0809  2.3844  2.1834
  349MOL0     H48157   8.473   5.130   7.216  1.8084  0.0579  0.1564
  349MOL0     H48158   8.702   5.289   6.890 -1.5767 -2.2781 -1.8755
  349MOL0     H48159   8.597   4.882   7.555  0.4084  0.9046  0.9274
  349MOL0     H48160   8.564   4.644   7.507 -0.3219 -2.0482 -0.5478
  349MOL0     H48161   8.537   4.576   7.673 -1.5427 -0.3633  0.6229
  349MOL0     H48162   8.410   4.580   7.542 -2.4542  0.8750  2.2610
  350MOL0     O48163   3.997   8.398   0.459 -0.2822 -0.3764 -0.0258
  350MOL0     C48164   4.032   8.441   0.350  0.7829 -0.6258  0.0852
  350MOL0     O48165   3.967   8.422   0.233  0.1152  0.0947 -0.0496
  350MOL0     C48166   3.878   8.322   0.223 -0.8839 -0.6627 -1.2639
  350MOL0     C48167   3.914   8.192   0.197 -0.6345 -0.9515  1.2901
  350MOL0     C48168   3.815   8.092   0.175 -1.2227 -0.1087 -0.8897
  350MOL0     C48169   3.671   8.121   0.184  0.3319 -0.6486  0.5330
  350MOL0     O48170   3.564   8.032   0.156  0.4160  0.1048 -0.6859
  350MOL0     C48171   3.597   7.897   0.128 -0.3680 -0.1425  0.5501
  350MOL0     C48172   3.481   7.813   0.070  0.2468 -0.1108 -0.0101
  350MOL0     C48173   3.354   7.814   0.154 -0.1841  0.1550  0.8349
  350MOL0     C48174   3.249   7.726   0.091  0.1081  0.1382  0.2717
  350MOL0     C48175   3.278   7.575   0.129 -0.4149 -0.6166 -0.0744
  350MOL0     C48176   3.179   7.493   0.049  1.4260 -1.0999 -0.1611
  350MOL0     C48177   3.211   7.343   0.072 -0.0863  0.5856  0.0450
  350MOL0     C48178   3.107   7.250   0.006 -0.0080 -1.1128  1.1964
  350MOL0     N48179   3.098   7.251  -0.142 -0.8769  0.0903  0.1655
  350MOL0     C48180   3.194   7.175  -0.213 -0.1263  0.2348  0.9887
  350MOL0     C48181   3.160   7.197  -0.340 -1.3922  0.0135  0.7275
  350MOL0     C48182   3.210   7.123  -0.471 -0.0293 -0.5745 -0.9103
  350MOL0     C48183   3.337   7.205  -0.528 -0.4008  0.4655 -0.2132
  350MOL0     C48184   3.332   7.215  -0.673 -0.3022 -0.2452  0.3843
  350MOL0     C48185   3.321   7.091  -0.762 -0.2421  0.3978  0.5151
  350MOL0     O48186   3.434   6.996  -0.753  0.3807 -0.2306  0.1863
  350MOL0     C48187   3.516   6.960  -0.858  0.0245  0.3371  0.3027
  350MOL0     C48188   3.479   6.959  -0.990  1.0655  0.1203 -0.1413
  350MOL0     C48189   3.547   6.903  -1.095 -0.9174  0.5254 -0.4132
  350MOL0     C48190   3.490   6.900  -1.234  0.9189  0.6346 -1.6282
  350MOL0     C48191   3.670   6.839  -1.058 -0.0649 -0.5820  0.6813
  350MOL0     C48192   3.750   6.755  -1.153 -0.4280  0.9183 -1.1236
  350MOL0     O48193   3.890   6.756  -1.141  0.0881  0.1938 -0.6709
  350MOL0     C48194   3.962   6.661  -1.214  0.2423  0.0542 -0.3803
  350MOL0     C48195   3.987   6.656  -1.356 -0.0868  0.1936  0.1619
  350MOL0     C48196   4.044   6.536  -1.409 -0.3881  0.0879 -0.1581
  350MOL0     C48197   4.091   6.433  -1.335  0.7531  0.2511 -0.0482
  350MOL0     O48198   4.140   6.325  -1.402  0.3950  0.3870  0.0714
  350MOL0     C48199   4.113   6.201  -1.336  0.1072  0.5248 -0.6310
  350MOL0     C48200   4.163   6.076  -1.418  0.5359  0.3033  0.7269
  350MOL0     C48201   4.320   6.085  -1.429 -0.4217  0.8195 -0.3424
  350MOL0     C48202   4.365   5.985  -1.538  0.3104  0.6650  0.1379
  350MOL0     C48203   4.515   5.988  -1.576  0.6731  0.3083 -1.1375
  350MOL0     C48204   4.604   5.957  -1.446  0.2967  0.4294  0.8917
  350MOL0     C48205   4.746   5.946  -1.486  0.6235  1.1578 -0.7007
  350MOL0     C48206   4.822   5.882  -1.368  1.2592  1.5881 -0.8871
  350MOL0    Cl48207   4.799   5.711  -1.394  0.0000 -0.3034  0.0775
  350MOL0     C48208   4.088   6.448  -1.192  0.6319  0.5674 -0.2189
  350MOL0     C48209   4.019   6.558  -1.136 -0.6198 -0.5855  0.8757
  350MOL0     O48210   3.696   6.697  -1.244  0.6305 -0.1411 -0.3613
  350MOL0     C48211   3.716   6.847  -0.922 -0.3614 -0.3661 -0.2612
  350MOL0     C48212   3.636   6.910  -0.823 -0.8984  0.1398  0.6895
  350MOL0     N48213   3.066   7.294  -0.344  0.3572 -0.7159  0.1336
  350MOL0     N48214   3.029   7.330  -0.228 -0.4029 -0.7378  0.7746
  350MOL0     C48215   3.641   8.255   0.223 -0.0128  0.8547  0.4948
  350MOL0     C48216   3.744   8.350   0.240 -0.5081 -0.3259  0.4400
  350MOL0     C48217   4.150   8.504   0.337 -1.1204 -0.2684  0.5713
  350MOL0     C48218   4.224   8.490   0.215 -0.1083 -0.5753 -0.6926
  350MOL0     C48219   4.346   8.556   0.201 -0.2505 -0.1074 -0.4560
  350MOL0     C48220   4.404   8.636   0.301 -0.6678 -0.1837  0.6007
  350MOL0     O48221   4.526   8.690   0.277 -0.2217 -0.2823  0.3130
  350MOL0     C48222   4.580   8.796   0.356 -0.1991  0.4987 -0.9336
  350MOL0     C48223   4.630   8.897   0.248  0.1937 -0.3367  0.3525
  350MOL0     C48224   4.529   8.998   0.189 -0.4162  1.3533 -0.8188
  350MOL0     C48225   4.511   9.113   0.287 -0.2258 -0.2005  0.6823
  350MOL0     C48226   4.448   9.221   0.212  0.4367  0.0949  0.0907
  350MOL0     C48227   4.402   9.318   0.167  0.4573  0.0801  0.7483
  350MOL0     C48228   4.325   8.665   0.407 -0.0751  0.1522 -0.0218
  350MOL0     C48229   4.204   8.598   0.431  0.3590  0.0046  0.0985
  350MOL0     C48230   4.135   8.642   0.562 -0.3042  0.3137 -0.1381
  350MOL0     H48231   4.018   8.166   0.180 -1.0621 -0.1974 -4.8205
  350MOL0     H48232   3.863   7.996   0.153  0.4956  0.7878 -1.2456
  350MOL0     H48233   3.621   7.837   0.216  0.0060 -1.5823 -0.4968
  350MOL0     H48234   3.686   7.888   0.065 -0.7381 -1.9986  0.2269
  350MOL0     H48235   3.455   7.855  -0.027 -0.3248  2.0902  1.0396
  350MOL0     H48236   3.509   7.709   0.050  1.1397  0.2297 -0.6209
  350MOL0     H48237   3.373   7.782   0.257  0.6573 -1.5271  0.1852
  350MOL0     H48238   3.308   7.913   0.159 -1.9954 -0.6860  1.6896
  350MOL0     H48239   3.161   7.764   0.143  0.3531 -0.2147  0.9518
  350MOL0     H48240   3.232   7.735  -0.017 -0.4320 -3.1299 -0.0395
  350MOL0     H48241   3.276   7.567   0.238 -2.0768 -0.7441 -0.0950
  350MOL0     H48242   3.377   7.538   0.101 -0.1746 -1.5223  1.8028
  350MOL0     H48243   3.076   7.512   0.080  0.0727 -4.2961 -2.0478
  350MOL0     H48244   3.181   7.505  -0.060 -2.1859 -3.0477 -0.6235
  350MOL0     H48245   3.191   7.316   0.176  0.6801  3.3332  0.9848
  350MOL0     H48246   3.313   7.329   0.035 -0.2485  0.0949 -0.2280
  350MOL0     H48247   3.121   7.146   0.036 -1.6499 -1.0593  2.2655
  350MOL0     H48248   3.006   7.280   0.036  0.9514  0.7171  2.7524
  350MOL0     H48249   3.274   7.110  -0.177  1.5802  1.9759  0.5466
  350MOL0     H48250   3.121   7.118  -0.534 -3.1155  1.8100  2.8633
  350MOL0     H48251   3.241   7.021  -0.444 -1.5851 -1.0907 -1.0156
  350MOL0     H48252   3.339   7.311  -0.499  0.2188  0.7612 -1.2723
  350MOL0     H48253   3.426   7.160  -0.482 -0.5671  0.0872 -0.2634
  350MOL0     H48254   3.245   7.276  -0.696  0.5813  0.2875 -1.8002
  350MOL0     H48255   3.424   7.267  -0.704 -0.1445  0.6448  2.1691
  350MOL0     H48256   3.230   7.039  -0.730 -1.9112  2.4175 -0.7125
  350MOL0     H48257   3.303   7.132  -0.862  1.1737 -0.1814  0.0018
  350MOL0     H48258   3.376   6.991  -1.004 -0.0510 -2.3947  1.6415
  350MOL0     H48259   3.574   6.915  -1.303  2.6876 -4.6746 -1.0858
  350MOL0     H48260   3.410   6.969  -1.262 -1.2101 -1.0416 -0.0322
  350MOL0     H48261   3.451   6.798  -1.239  1.1125  0.6300 -3.9081
  350MOL0     H48262   3.944   6.736  -1.416 -5.4785 -2.3902  0.0680
  350MOL0     H48263   4.046   6.515  -1.515  0.2524 -2.3446  0.2740
  350MOL0     H48264   4.176   6.196  -1.247 -0.0660  0.3440 -0.5170
  350MOL0     H48265   4.008   6.194  -1.306  0.4866 -0.2192  0.6146
  350MOL0     H48266   4.122   5.986  -1.370 -0.2411  0.0566 -0.3413
  350MOL0     H48267   4.116   6.077  -1.517  0.1946 -0.0208  0.8784
  350MOL0     H48268   4.371   6.065  -1.333  1.2048  2.3683 -0.8412
  350MOL0     H48269   4.363   6.179  -1.464  2.2139  0.2430  1.0166
  350MOL0     H48270   4.307   6.009  -1.628 -0.5068  0.3312  0.5681
  350MOL0     H48271   4.324   5.887  -1.512 -2.1932  2.0975  2.0885
  350MOL0     H48272   4.528   5.915  -1.657 -0.2131  2.1297 -3.0025
  350MOL0     H48273   4.549   6.086  -1.609  3.1955  1.0259  2.9936
  350MOL0     H48274   4.579   5.855  -1.416  1.1944  0.0297  0.3228
  350MOL0     H48275   4.591   6.034  -1.370 -1.2243  0.4668  0.6355
  350MOL0     H48276   4.784   6.047  -1.504  1.5351  0.4096 -3.6979
  350MOL0     H48277   4.750   5.880  -1.573 -1.0507 -0.3704  0.3159
  350MOL0     H48278   4.770   5.901  -1.274 -2.2912 -0.6577 -2.1846
  350MOL0     H48279   4.931   5.893  -1.360  1.7173 -2.0765 -0.6468
  350MOL0     H48280   4.124   6.380  -1.115 -2.3065  1.6025  2.2586
  350MOL0     H48281   4.020   6.566  -1.028 -0.1913  1.6755  0.7404
  350MOL0     H48282   3.806   6.791  -0.898  2.5556  3.2038 -1.8902
  350MOL0     H48283   3.677   6.913  -0.722  0.4620  0.5142  0.1466
  350MOL0     H48284   3.535   8.275   0.230 -0.2548 -0.3923  0.7162
  350MOL0     H48285   3.719   8.453   0.264  0.5031 -0.6225  3.0471
  350MOL0     H48286   4.197   8.415   0.141  0.2765 -3.0971  1.5530
  350MOL0     H48287   4.401   8.543   0.108  0.2926  0.6466 -0.2431
  350MOL0     H48288   4.518   8.850   0.429 -2.1121 -2.3461 -0.3049
  350MOL0     H48289   4.666   8.755   0.410 -2.7179 -0.5487  2.6522
  350MOL0     H48290   4.676   8.844   0.164 -1.2104  2.2234 -2.1942
  350MOL0     H48291   4.712   8.959   0.285  0.6071  0.5406 -1.8628
  350MOL0     H48292   4.583   9.031   0.100  1.7876 -1.9245 -0.8822
  350MOL0     H48293   4.432   8.955   0.160 -0.1695 -0.0327  0.2828
  350MOL0     H48294   4.605   9.158   0.322 -1.2308  2.1231  0.5449
  350MOL0     H48295   4.469   9.081   0.382  0.9740  0.6810  1.5478
  350MOL0     H48296   4.354   9.407   0.132 -1.7894 -1.2948  0.1185
  350MOL0     H48297   4.353   8.747   0.472  2.4859  0.8828 -1.8762
  350MOL0     H48298   4.162   8.566   0.636  0.4298 -2.1342 -2.7358
  350MOL0     H48299   4.172   8.742   0.585  1.8224 -0.2034 -1.0937
  350MOL0     H48300   4.026   8.643   0.560 -0.3648 -0.8835  1.2117
  351MOL0     O48301   1.027   6.190   2.151  0.3593  0.2158 -0.6213
  351MOL0     C48302   1.016   6.165   2.277 -0.8287 -0.9665  0.7191
  351MOL0     O48303   1.057   6.249   2.370  0.5053 -0.3111  0.2711
  351MOL0     C48304   1.110   6.374   2.331  0.3071  0.5137 -0.8186
  351MOL0     C48305   1.248   6.402   2.363 -0.3424  0.3199 -0.6190
  351MOL0     C48306   1.297   6.518   2.312 -0.0244 -0.2724  1.4265
  351MOL0     C48307   1.223   6.602   2.222 -0.3853 -0.9729  0.4096
  351MOL0     O48308   1.277   6.708   2.168 -0.0873 -0.2509  0.0854
  351MOL0     C48309   1.372   6.686   2.056 -0.9596  0.3974 -0.5397
  351MOL0     C48310   1.394   6.818   1.980 -0.8397  0.0950 -0.8773
  351MOL0     C48311   1.269   6.859   1.904  0.3534  0.0919 -0.2288
  351MOL0     C48312   1.234   6.765   1.784 -0.1530  0.1270  0.5258
  351MOL0     C48313   1.131   6.832   1.700 -0.1412  0.3625  0.3287
  351MOL0     C48314   1.071   6.739   1.590 -0.1458  0.8698  0.7824
  351MOL0     C48315   0.969   6.792   1.492 -1.3323  0.5402  0.3458
  351MOL0     C48316   0.985   6.938   1.441 -0.7225 -0.5046  0.7984
  351MOL0     N48317   0.865   6.974   1.360 -0.7602  1.6634  0.2820
  351MOL0     C48318   0.875   7.000   1.223 -0.4246 -0.6882  0.2576
  351MOL0     C48319   0.751   7.060   1.194 -0.5327 -0.7461  0.0574
  351MOL0     C48320   0.702   7.130   1.068 -0.1416 -0.0409 -0.1263
  351MOL0     C48321   0.815   7.150   0.960 -0.2748  0.0302 -0.7211
  351MOL0     C48322   0.752   7.191   0.824 -0.1171  0.0267  0.1756
  351MOL0     C48323   0.722   7.336   0.819  0.1992  0.2675  0.3439
  351MOL0     O48324   0.592   7.341   0.760 -0.0961 -0.5134 -0.4008
  351MOL0     C48325   0.547   7.463   0.715  0.0257  0.0103 -0.2212
  351MOL0     C48326   0.425   7.463   0.660 -0.6245  0.2297 -0.4528
  351MOL0     C48327   0.371   7.576   0.593 -0.1236  0.1261  0.6894
  351MOL0     C48328   0.234   7.563   0.528 -0.1573 -0.4443  0.0314
  351MOL0     C48329   0.447   7.694   0.574 -0.4248 -0.3480 -0.3850
  351MOL0     C48330   0.415   7.823   0.508 -0.1389  0.0960  0.0656
  351MOL0     O48331   0.513   7.888   0.439  0.4959 -0.2599  0.2780
  351MOL0     C48332   0.458   7.985   0.352  0.4540  0.3387 -0.2507
  351MOL0     C48333   0.397   7.942   0.232 -0.2149 -0.5174  0.2493
  351MOL0     C48334   0.380   8.039   0.134 -0.7295 -0.6632  0.1688
  351MOL0     C48335   0.417   8.177   0.147  0.6281 -0.0993 -1.0039
  351MOL0     O48336   0.382   8.237   0.039 -0.2463 -0.0196  0.8088
  351MOL0     C48337   0.362   8.379   0.057  0.1261  0.4926  0.5960
  351MOL0     C48338   0.305   8.433  -0.074 -0.4344  0.7323 -0.1265
  351MOL0     C48339   0.414   8.486  -0.171  0.3999  0.5069 -1.0643
  351MOL0     C48340   0.379   8.485  -0.325  0.0910 -0.0942 -0.0545
  351MOL0     C48341   0.506   8.515  -0.414 -0.4446  0.4131  0.2165
  351MOL0     C48342   0.490   8.489  -0.564  0.6286 -0.1016  0.1290
  351MOL0     C48343   0.615   8.551  -0.631  0.3615  0.1057  0.0356
  351MOL0     C48344   0.613   8.516  -0.783  0.5097  0.4879 -0.2877
  351MOL0    Cl48345   0.752   8.604  -0.854  0.1131  0.7481 -0.4072
  351MOL0     C48346   0.466   8.216   0.273  0.6627 -0.4072  0.7104
  351MOL0     C48347   0.490   8.125   0.365 -0.0281 -0.1005 -1.0644
  351MOL0     O48348   0.299   7.863   0.528  0.5300  0.5234 -0.4135
  351MOL0     C48349   0.583   7.689   0.615  0.5998  0.4351 -0.1243
  351MOL0     C48350   0.630   7.576   0.691 -0.1564 -0.1372 -0.5213
  351MOL0     N48351   0.673   7.047   1.314  0.9136 -0.2286 -0.2284
  351MOL0     N48352   0.740   6.988   1.406 -0.0500 -0.4966  0.4038
  351MOL0     C48353   1.092   6.565   2.192  0.2519  0.1229  0.2836
  351MOL0     C48354   1.032   6.459   2.257 -0.5155  0.7442  0.0338
  351MOL0     C48355   0.963   6.036   2.331  0.6669 -0.3127 -0.0922
  351MOL0     C48356   1.034   5.960   2.421 -0.3960  0.2495  0.2852
  351MOL0     C48357   0.986   5.839   2.467  0.0385  0.4837 -0.6611
  351MOL0     C48358   0.865   5.786   2.418 -0.0661 -0.4145 -0.0273
  351MOL0     O48359   0.810   5.672   2.464 -0.8176  0.4311  0.3237
  351MOL0     C48360   0.901   5.557   2.473 -0.5433 -0.1244  0.9262
  351MOL0     C48361   0.833   5.420   2.446  0.5753 -0.5277  0.3514
  351MOL0     C48362   0.765   5.411   2.309  0.6397 -0.0928  0.5071
  351MOL0     C48363   0.685   5.276   2.307  0.8328 -0.0026 -0.2626
  351MOL0     C48364   0.628   5.255   2.175  0.4246 -1.2572  1.0428
  351MOL0     C48365   0.590   5.224   2.060  0.2733  0.1474 -0.7799
  351MOL0     C48366   0.790   5.868   2.336 -0.3868 -0.6030  0.3986
  351MOL0     C48367   0.839   5.995   2.288  0.8774 -0.1237 -0.1486
  351MOL0     C48368   0.743   6.069   2.195  0.0143  0.5371  0.1487
  351MOL0     H48369   1.303   6.321   2.409  1.1829  0.2565 -2.4481
  351MOL0     H48370   1.401   6.546   2.327  0.0178  0.2689  0.2225
  351MOL0     H48371   1.334   6.607   1.991 -0.0788 -0.3061 -0.2271
  351MOL0     H48372   1.466   6.649   2.100 -0.5226 -0.7889 -2.3952
  351MOL0     H48373   1.425   6.897   2.049 -3.7139  0.3737  0.2345
  351MOL0     H48374   1.483   6.794   1.921 -0.5469 -2.7109  0.5489
  351MOL0     H48375   1.178   6.881   1.960 -0.0908 -2.6734  0.2775
  351MOL0     H48376   1.299   6.948   1.848 -0.5071 -1.5438 -3.5863
  351MOL0     H48377   1.328   6.746   1.731  1.4868  1.7693  2.6572
  351MOL0     H48378   1.197   6.673   1.830 -2.5262  1.4292  1.3895
  351MOL0     H48379   1.182   6.911   1.645 -2.0879  1.0048 -0.5977
  351MOL0     H48380   1.046   6.875   1.753 -0.8036  0.8524 -1.0958
  351MOL0     H48381   1.146   6.681   1.535 -2.4848 -1.5320 -0.0756
  351MOL0     H48382   1.026   6.668   1.660 -0.1937  0.1996  0.0922
  351MOL0     H48383   0.872   6.801   1.542 -0.9638 -0.0871  1.2106
  351MOL0     H48384   0.957   6.719   1.412 -2.3400 -3.7033  3.9566
  351MOL0     H48385   0.983   7.008   1.525  1.4895 -0.2986  0.7329
  351MOL0     H48386   1.080   6.952   1.389 -0.6265 -1.5819  0.6714
  351MOL0     H48387   0.958   6.998   1.154  1.0290  0.3489  1.8941
  351MOL0     H48388   0.664   7.228   1.097 -1.3331 -0.7525  0.7699
  351MOL0     H48389   0.616   7.074   1.032 -0.9572  0.3733  1.1256
  351MOL0     H48390   0.896   7.211   1.001  2.1485 -4.9604  2.9473
  351MOL0     H48391   0.853   7.048   0.951 -3.0953 -1.1546 -0.3618
  351MOL0     H48392   0.823   7.179   0.742 -1.1782  0.1907 -0.7971
  351MOL0     H48393   0.665   7.128   0.801 -0.3311  1.0000 -2.0211
  351MOL0     H48394   0.729   7.373   0.921  2.3648  0.1767  0.2714
  351MOL0     H48395   0.799   7.383   0.757 -1.4431  3.8429  0.7380
  351MOL0     H48396   0.368   7.372   0.670  2.3125 -1.6923  0.1044
  351MOL0     H48397   0.224   7.457   0.503  2.8376 -1.4047  2.3377
  351MOL0     H48398   0.215   7.635   0.448 -1.3968 -1.1216 -0.3178
  351MOL0     H48399   0.157   7.593   0.600 -0.2111 -0.4248 -0.0344
  351MOL0     H48400   0.375   7.838   0.211  0.0684 -0.1708 -2.0211
  351MOL0     H48401   0.320   8.013   0.048 -1.3539  1.6582 -0.1563
  351MOL0     H48402   0.292   8.397   0.139  0.4293 -0.6915  1.1396
  351MOL0     H48403   0.457   8.428   0.080  2.4178 -2.4031 -1.7427
  351MOL0     H48404   0.240   8.375  -0.140  0.7594  1.3802 -1.9507
  351MOL0     H48405   0.246   8.517  -0.034 -2.5149 -0.0988 -1.2869
  351MOL0     H48406   0.493   8.414  -0.149 -1.5212 -1.3306  0.0875
  351MOL0     H48407   0.426   8.590  -0.138 -2.9987  0.0446  2.2384
  351MOL0     H48408   0.308   8.566  -0.343  0.0784 -0.2205 -0.6061
  351MOL0     H48409   0.328   8.394  -0.360  0.0105  0.6486 -1.9981
  351MOL0     H48410   0.526   8.622  -0.409  0.2277  0.2524  3.3807
  351MOL0     H48411   0.589   8.468  -0.360  0.6401  1.7887 -0.2288
  351MOL0     H48412   0.396   8.529  -0.603  1.4888  1.7663 -0.1602
  351MOL0     H48413   0.489   8.381  -0.582  2.0619 -0.1398  0.1208
  351MOL0     H48414   0.701   8.511  -0.578 -0.1282 -2.2530 -0.8219
  351MOL0     H48415   0.595   8.658  -0.626 -5.3083 -0.7020  3.5901
  351MOL0     H48416   0.517   8.539  -0.831  0.1040 -1.1265 -0.3339
  351MOL0     H48417   0.621   8.407  -0.791 -0.8962  0.2820  0.8181
  351MOL0     H48418   0.481   8.320   0.299  0.8433 -0.0015 -0.9184
  351MOL0     H48419   0.552   8.144   0.452 -0.5480  0.1742 -0.7462
  351MOL0     H48420   0.652   7.772   0.609  1.4122 -0.0868  1.5001
  351MOL0     H48421   0.725   7.574   0.743 -0.1645 -2.0998 -0.4925
  351MOL0     H48422   1.042   6.633   2.125  2.4464  1.2736 -0.2921
  351MOL0     H48423   0.933   6.423   2.233  0.9862 -2.7533 -1.6822
  351MOL0     H48424   1.115   6.013   2.471 -0.2692  2.7594 -2.3142
  351MOL0     H48425   1.041   5.777   2.537  0.3778  2.1992  0.6467
  351MOL0     H48426   0.968   5.567   2.387 -1.3306 -5.0301 -0.6228
  351MOL0     H48427   0.950   5.547   2.570  1.0569 -1.3262  0.0311
  351MOL0     H48428   0.755   5.398   2.519 -0.2186  0.5158 -0.1558
  351MOL0     H48429   0.907   5.341   2.462  2.7620  1.3461 -0.0134
  351MOL0     H48430   0.702   5.492   2.274 -0.4929 -1.5794 -1.0315
  351MOL0     H48431   0.844   5.414   2.234  0.1128 -1.6997 -0.1597
  351MOL0     H48432   0.604   5.286   2.380 -0.2566 -2.1147 -1.1124
  351MOL0     H48433   0.760   5.200   2.332  1.1444  0.7152  1.1334
  351MOL0     H48434   0.539   5.183   1.975 -1.5837 -4.1644  1.9926
  351MOL0     H48435   0.691   5.829   2.314 -1.0434  0.9133  0.4960
  351MOL0     H48436   0.763   6.176   2.193 -1.5398  0.8395 -0.3752
  351MOL0     H48437   0.760   6.039   2.091 -2.1248 -0.5103  0.0455
  351MOL0     H48438   0.638   6.056   2.222 -0.1495 -2.3544 -1.5416
  352MOL0     O48439   6.952   8.728   1.317 -0.5079  0.5066 -0.1373
  352MOL0     C48440   6.972   8.837   1.268 -0.1413  0.6493  0.3822
  352MOL0     O48441   6.891   8.892   1.175 -0.1949  1.3428 -0.0756
  352MOL0     C48442   6.774   8.835   1.134  0.0407  0.8603  0.7806
  352MOL0     C48443   6.656   8.914   1.127 -0.4567 -0.0076  0.1277
  352MOL0     C48444   6.537   8.853   1.082 -0.1005 -0.4356  0.2349
  352MOL0     C48445   6.532   8.726   1.034 -0.5186  0.3706 -0.4043
  352MOL0     O48446   6.422   8.658   1.000  0.0805  0.1822  0.0794
  352MOL0     C48447   6.298   8.711   1.065 -0.4285 -0.1806 -0.9027
  352MOL0     C48448   6.207   8.589   1.058  0.3185 -0.6272  0.0803
  352MOL0     C48449   6.262   8.456   1.128  0.5121 -0.3124  0.3467
  352MOL0     C48450   6.244   8.453   1.284 -0.1448  0.0686  0.7754
  352MOL0     C48451   6.297   8.324   1.344  0.6480  1.0744 -0.5703
  352MOL0     C48452   6.174   8.229   1.349 -0.3716  0.0773  0.0442
  352MOL0     C48453   6.205   8.092   1.401  0.3254  1.0184  0.6056
  352MOL0     C48454   6.245   8.060   1.545 -0.0069 -0.4478 -0.0604
  352MOL0     N48455   6.392   8.066   1.575 -0.3221  0.0205  0.2256
  352MOL0     C48456   6.455   8.178   1.629 -0.0389  0.4093  1.8000
  352MOL0     C48457   6.569   8.176   1.551  0.5749 -0.7396  0.9065
  352MOL0     C48458   6.671   8.291   1.542 -0.0778 -0.6546  0.4481
  352MOL0     C48459   6.666   8.350   1.405  0.6855 -0.6117 -0.3721
  352MOL0     C48460   6.773   8.446   1.377  0.0804  0.2085 -0.3799
  352MOL0     C48461   6.922   8.385   1.354  0.7021 -0.8403  0.6493
  352MOL0     O48462   6.920   8.260   1.277 -0.8948 -0.1897 -0.2408
  352MOL0     C48463   7.045   8.209   1.275  0.5618  0.5896 -0.3826
  352MOL0     C48464   7.047   8.065   1.280  0.3701  0.5131 -0.2722
  352MOL0     C48465   7.165   7.992   1.249 -0.3615 -1.4260 -0.1338
  352MOL0     C48466   7.167   7.838   1.257 -0.0923  0.7184  0.1719
  352MOL0     C48467   7.287   8.065   1.225 -0.0550  0.3789  0.0637
  352MOL0     C48468   7.411   8.008   1.175 -0.1799  0.6187 -0.8815
  352MOL0     O48469   7.413   7.883   1.140 -0.2974  0.2302 -0.1466
  352MOL0     C48470   7.530   7.830   1.084  1.1545  0.5998  0.0256
  352MOL0     C48471   7.637   7.773   1.160  0.0882  0.1752  0.2417
  352MOL0     C48472   7.729   7.694   1.095 -0.9962  0.0508 -0.2207
  352MOL0     C48473   7.714   7.661   0.954  0.0332 -0.1547 -0.7217
  352MOL0     O48474   7.820   7.588   0.899 -0.4711 -0.4039 -0.6739
  352MOL0     C48475   7.873   7.471   0.981 -0.1159  0.4152 -1.0661
  352MOL0     C48476   7.943   7.364   0.894  1.0320  0.5677 -0.7530
  352MOL0     C48477   8.029   7.263   0.962 -0.7759 -0.0608 -0.6573
  352MOL0     C48478   8.159   7.319   1.021  0.0566  0.8186 -1.1985
  352MOL0     C48479   8.265   7.217   1.037 -0.3605  0.7408  0.3399
  352MOL0     C48480   8.219   7.122   1.148 -0.4380  0.5841 -0.2980
  352MOL0     C48481   8.338   7.024   1.179 -0.1453  0.1330 -0.2810
  352MOL0     C48482   8.289   6.912   1.265 -0.1999 -0.8397 -0.1182
  352MOL0    Cl48483   8.425   6.787   1.298  0.0332  0.2929 -0.2839
  352MOL0     C48484   7.613   7.727   0.882 -0.5303 -0.5300  0.1283
  352MOL0     C48485   7.517   7.804   0.951 -1.1520 -0.9884 -0.4985
  352MOL0     O48486   7.501   8.090   1.158  0.2734 -1.0065 -0.0955
  352MOL0     C48487   7.279   8.205   1.221 -0.2363 -0.2682  0.2170
  352MOL0     C48488   7.160   8.276   1.247 -0.2068  0.5252 -0.3273
  352MOL0     N48489   6.592   8.055   1.490 -0.8507 -0.0314 -0.4264
  352MOL0     N48490   6.487   7.982   1.518  0.2811  0.0128  0.0609
  352MOL0     C48491   6.647   8.648   1.037  0.1112  0.0728 -0.3361
  352MOL0     C48492   6.763   8.704   1.086 -0.0045  0.4889 -0.7875
  352MOL0     C48493   7.088   8.914   1.293  0.1731 -0.5229 -1.0180
  352MOL0     C48494   7.158   8.958   1.179 -0.1541  1.1566 -0.2358
  352MOL0     C48495   7.287   9.011   1.191 -0.1211 -0.4398 -0.9608
  352MOL0     C48496   7.339   9.030   1.317 -0.5483 -0.1281  0.4196
  352MOL0     O48497   7.461   9.071   1.333 -0.4784 -0.6884 -0.4205
  352MOL0     C48498   7.507   9.185   1.274 -0.0604  0.1783  0.6279
  352MOL0     C48499   7.589   9.285   1.362  0.6494 -0.5222 -0.0130
  352MOL0     C48500   7.721   9.231   1.406 -0.8228  0.0389 -0.2221
  352MOL0     C48501   7.708   9.135   1.514  0.3921  0.6953 -0.6201
  352MOL0     C48502   7.841   9.101   1.567 -0.1406 -0.4603 -0.2822
  352MOL0     C48503   7.956   9.084   1.604  0.2166  0.3154 -0.0510
  352MOL0     C48504   7.269   8.986   1.427 -0.1607  0.5652  0.0931
  352MOL0     C48505   7.139   8.935   1.424 -0.3974 -0.1341  0.1681
  352MOL0     C48506   7.060   8.901   1.547 -0.5228 -0.3322 -0.4138
  352MOL0     H48507   6.664   9.019   1.155 -1.2211  0.1501 -0.2092
  352MOL0     H48508   6.448   8.914   1.088  1.6296  2.1359  1.2179
  352MOL0     H48509   6.247   8.795   1.016 -1.3624 -0.0672  0.2351
  352MOL0     H48510   6.315   8.745   1.167 -4.7252 -1.3259  0.4193
  352MOL0     H48511   6.118   8.616   1.115 -0.0239  0.1186 -0.7817
  352MOL0     H48512   6.182   8.570   0.953 -1.1357  1.2616  0.0224
  352MOL0     H48513   6.217   8.367   1.082  4.0690 -1.7931 -0.5619
  352MOL0     H48514   6.370   8.445   1.114  0.8041 -0.8389  2.6983
  352MOL0     H48515   6.307   8.527   1.335  1.2616 -0.8696  0.4780
  352MOL0     H48516   6.142   8.463   1.321 -1.7484 -3.1869 -2.1648
  352MOL0     H48517   6.346   8.332   1.441  2.9787  1.9940 -1.7612
  352MOL0     H48518   6.387   8.292   1.292  0.3544 -2.1647  0.6721
  352MOL0     H48519   6.104   8.273   1.421 -1.7039  0.9575 -1.7246
  352MOL0     H48520   6.127   8.222   1.251 -1.5132  0.1604  0.5766
  352MOL0     H48521   6.276   8.057   1.325  2.1083  2.1758  1.6869
  352MOL0     H48522   6.111   8.042   1.374  0.2968  0.6745  1.3266
  352MOL0     H48523   6.186   8.114   1.619 -0.3665 -2.8090  1.4629
  352MOL0     H48524   6.206   7.961   1.569 -2.1386  0.3681  0.0813
  352MOL0     H48525   6.410   8.255   1.691  2.0530  2.6633  0.6597
  352MOL0     H48526   6.758   8.236   1.577  2.1401  1.5649 -1.2718
  352MOL0     H48527   6.647   8.365   1.620  3.3247 -0.6761  1.6655
  352MOL0     H48528   6.672   8.265   1.337  2.7714 -1.6395  0.9919
  352MOL0     H48529   6.567   8.398   1.401  0.7007 -0.6894 -3.0826
  352MOL0     H48530   6.756   8.507   1.288  5.4871  3.9437  0.6082
  352MOL0     H48531   6.774   8.518   1.459 -2.7580 -0.7230  0.5878
  352MOL0     H48532   6.972   8.460   1.293 -4.3332  2.0966 -0.4432
  352MOL0     H48533   6.974   8.374   1.450 -0.3873  3.5290  1.9285
  352MOL0     H48534   6.958   8.009   1.306  0.0787 -2.6677 -6.2698
  352MOL0     H48535   7.141   7.818   1.153  1.3228  0.9416 -0.2417
  352MOL0     H48536   7.087   7.805   1.323  0.6738 -4.2650 -1.0059
  352MOL0     H48537   7.253   7.793   1.308 -0.2070  0.3432  0.0335
  352MOL0     H48538   7.624   7.802   1.264 -3.8799  1.6163 -0.4651
  352MOL0     H48539   7.807   7.641   1.150  0.9423  2.2785 -0.6714
  352MOL0     H48540   7.946   7.506   1.054  0.9357 -0.3800 -1.7055
  352MOL0     H48541   7.795   7.426   1.043 -0.6866  1.9343 -0.6172
  352MOL0     H48542   7.868   7.306   0.839  1.5355 -0.9628  0.1075
  352MOL0     H48543   7.998   7.415   0.815 -2.9318  2.9177 -2.2932
  352MOL0     H48544   8.056   7.179   0.897 -0.9642 -1.5065  1.0497
  352MOL0     H48545   7.971   7.211   1.039  0.9572  0.9804  1.4300
  352MOL0     H48546   8.141   7.381   1.109  2.3335  2.2568 -1.6633
  352MOL0     H48547   8.211   7.388   0.954 -1.1365  0.6466 -2.3466
  352MOL0     H48548   8.267   7.161   0.944  2.5291  1.3407 -0.0555
  352MOL0     H48549   8.364   7.247   1.072 -1.0297 -0.4852  3.6745
  352MOL0     H48550   8.132   7.061   1.123 -0.3495 -1.1874  3.1312
  352MOL0     H48551   8.200   7.180   1.239 -1.0555  0.3198 -0.2563
  352MOL0     H48552   8.421   7.079   1.223 -1.2491  2.7892 -1.2793
  352MOL0     H48553   8.372   6.999   1.078  2.7120  0.9787  0.3856
  352MOL0     H48554   8.208   6.864   1.209  0.0779  2.2447 -3.5054
  352MOL0     H48555   8.246   6.951   1.358  1.2051  0.0609  0.1717
  352MOL0     H48556   7.592   7.721   0.775 -4.9038  1.8203  0.6079
  352MOL0     H48557   7.429   7.854   0.912 -0.8771  0.9005  1.1887
  352MOL0     H48558   7.360   8.274   1.202 -1.9445  2.1331  1.1924
  352MOL0     H48559   7.180   8.383   1.244 -0.8642  0.6996  0.9520
  352MOL0     H48560   6.658   8.546   1.002  1.3166  0.4060 -0.9936
  352MOL0     H48561   6.853   8.644   1.074  0.8836  1.5098  0.5229
  352MOL0     H48562   7.116   8.944   1.079  0.6155  0.1150 -0.4253
  352MOL0     H48563   7.331   9.039   1.096 -0.1315  2.7953 -0.1162
  352MOL0     H48564   7.570   9.168   1.187 -0.2205  2.9618 -0.1241
  352MOL0     H48565   7.423   9.241   1.232  0.7587  0.8603 -0.1446
  352MOL0     H48566   7.533   9.345   1.434 -0.5546 -0.8461 -0.6438
  352MOL0     H48567   7.618   9.365   1.293 -2.8306  0.7280 -0.2560
  352MOL0     H48568   7.782   9.193   1.324 -0.1947  0.4749  0.0309
  352MOL0     H48569   7.788   9.306   1.449  1.5905 -2.3275  0.3774
  352MOL0     H48570   7.667   9.040   1.478  2.8204  0.0028 -1.7506
  352MOL0     H48571   7.644   9.171   1.595  1.7372  0.2932  0.6711
  352MOL0     H48572   8.054   9.066   1.644 -0.6734  3.4975  4.2376
  352MOL0     H48573   7.312   8.997   1.526 -1.8918  0.4284  0.8888
  352MOL0     H48574   6.973   8.967   1.535 -0.5934 -0.8569 -4.2222
  352MOL0     H48575   7.033   8.795   1.552 -0.0403 -0.3960  1.0337
  352MOL0     H48576   7.116   8.926   1.637  2.9358 -3.6943 -1.3842
  353MOL0     O48577   8.954   3.844   4.348 -0.7580  0.0996  0.0791
  353MOL0     C48578   8.931   3.782   4.453 -0.5639 -1.0312  0.4783
  353MOL0     O48579   8.839   3.679   4.453  0.0328  0.5121  0.0428
  353MOL0     C48580   8.746   3.662   4.352 -0.9957  0.4806 -0.1834
  353MOL0     C48581   8.624   3.717   4.359  0.3792  0.4787  0.5908
  353MOL0     C48582   8.520   3.687   4.264 -0.1851 -1.1453 -0.8108
  353MOL0     C48583   8.542   3.587   4.166  0.7753 -0.8894  0.3595
  353MOL0     O48584   8.439   3.555   4.074 -0.4718  0.2717 -0.1948
  353MOL0     C48585   8.459   3.432   4.006 -0.1785  0.3888  0.9785
  353MOL0     C48586   8.327   3.374   3.949 -0.7908 -0.8039 -0.6886
  353MOL0     C48587   8.330   3.224   3.944  0.0046  1.2781  0.6347
  353MOL0     C48588   8.216   3.167   3.858 -0.2469 -0.2996 -0.1337
  353MOL0     C48589   8.208   3.010   3.851 -0.0876 -0.6675  0.3117
  353MOL0     C48590   8.300   2.943   3.747 -0.3386 -0.2806  0.0657
  353MOL0     C48591   8.220   2.814   3.709 -0.3982  0.0032  0.5244
  353MOL0     C48592   8.243   2.714   3.818 -0.8089  0.5300 -0.0623
  353MOL0     N48593   8.252   2.578   3.764 -0.3296  0.0200 -0.5828
  353MOL0     C48594   8.155   2.490   3.745  0.8945 -0.1837  0.1883
  353MOL0     C48595   8.222   2.376   3.706 -0.4034  0.6293 -0.8735
  353MOL0     C48596   8.158   2.253   3.641  0.2486  0.2892  0.4587
  353MOL0     C48597   8.049   2.187   3.717 -0.2923 -0.4159 -0.0129
  353MOL0     C48598   8.105   2.117   3.849  0.0109  0.4630  1.0655
  353MOL0     C48599   8.014   2.002   3.903 -0.5361  0.4275  0.1246
  353MOL0     O48600   7.887   2.063   3.931 -0.2830  0.5945 -0.5978
  353MOL0     C48601   7.782   1.981   3.969  0.5701 -0.7961 -0.3069
  353MOL0     C48602   7.662   2.045   3.988 -0.2388 -0.4605 -0.1275
  353MOL0     C48603   7.548   1.968   4.026 -0.3704  0.0686 -0.3568
  353MOL0     C48604   7.413   2.029   4.051  0.0260  0.3788 -0.2028
  353MOL0     C48605   7.559   1.824   4.040 -0.1512  0.5146 -0.1181
  353MOL0     C48606   7.445   1.729   4.067 -0.2788 -0.5702  0.4059
  353MOL0     O48607   7.339   1.740   3.985 -0.1582 -0.0189 -0.8696
  353MOL0     C48608   7.239   1.654   3.983  0.4518 -0.1833  0.4789
  353MOL0     C48609   7.268   1.514   3.981 -0.7342  0.8994 -0.4133
  353MOL0     C48610   7.168   1.421   3.973  0.3549 -0.4071  0.6831
  353MOL0     C48611   7.030   1.457   3.961 -0.5315  0.6324 -0.1372
  353MOL0     O48612   6.943   1.351   3.954 -0.5265 -0.0009  0.2914
  353MOL0     C48613   6.929   1.291   4.084  0.4577  0.6219 -0.1583
  353MOL0     C48614   6.822   1.368   4.160 -0.0154  0.8296 -0.1218
  353MOL0     C48615   6.688   1.376   4.081 -1.2365 -0.6358  0.6031
  353MOL0     C48616   6.632   1.237   4.061 -0.4596  0.7156 -0.5990
  353MOL0     C48617   6.482   1.244   4.044 -0.0084  0.4761 -0.3688
  353MOL0     C48618   6.403   1.122   3.994 -0.4086  0.0783 -0.5110
  353MOL0     C48619   6.456   1.054   3.867 -0.1235  0.1615  0.3858
  353MOL0     C48620   6.342   0.974   3.802  0.6406  0.3080 -0.5172
  353MOL0    Cl48621   6.200   1.079   3.742 -0.3804 -0.0180  0.3728
  353MOL0     C48622   7.002   1.594   3.957 -0.0756  0.8672 -0.5754
  353MOL0     C48623   7.104   1.688   3.971  0.4877  0.7820 -1.2483
  353MOL0     O48624   7.462   1.643   4.160 -0.1235 -0.1150  0.1320
  353MOL0     C48625   7.687   1.768   4.033 -1.0152  0.1913  1.4918
  353MOL0     C48626   7.795   1.842   3.996  0.3939  0.3976 -0.4211
  353MOL0     N48627   8.355   2.395   3.720 -0.2316 -0.7688 -0.3705
  353MOL0     N48628   8.372   2.509   3.766  0.1812  0.4385 -0.5351
  353MOL0     C48629   8.666   3.520   4.176  0.6067  0.2457  0.0641
  353MOL0     C48630   8.768   3.559   4.264  0.5574 -0.1281 -0.3663
  353MOL0     C48631   9.030   3.784   4.570 -0.5414 -0.8656  0.1923
  353MOL0     C48632   9.039   3.671   4.650 -1.0048 -0.2799 -0.8952
  353MOL0     C48633   9.137   3.661   4.750  0.0073 -0.3953 -0.5717
  353MOL0     C48634   9.212   3.771   4.792 -0.4099 -0.0245 -0.1443
  353MOL0     O48635   9.282   3.749   4.905 -0.1221 -0.4748  0.6721
  353MOL0     C48636   9.319   3.864   4.978 -0.1243 -0.5266 -0.9508
  353MOL0     C48637   9.207   3.936   5.062 -0.0186  0.5251 -0.2685
  353MOL0     C48638   9.261   4.027   5.173 -0.3853  0.7055  0.4004
  353MOL0     C48639   9.190   4.001   5.305  0.0593  0.8975 -0.3586
  353MOL0     C48640   9.205   3.856   5.355 -0.5502  0.8867  0.7475
  353MOL0     C48641   9.210   3.739   5.383 -0.0053 -0.3165 -0.6811
  353MOL0     C48642   9.208   3.885   4.714  0.0851  0.4712  0.4959
  353MOL0     C48643   9.132   3.889   4.592  0.5523  1.2182  0.0014
  353MOL0     C48644   9.138   3.999   4.495 -1.0850 -0.5282  0.7651
  353MOL0     H48645   8.597   3.805   4.416  0.6271  1.5936 -0.9295
  353MOL0     H48646   8.425   3.739   4.268 -0.6062 -1.7660 -2.2337
  353MOL0     H48647   8.496   3.347   4.063  2.0334 -0.2601 -1.2118
  353MOL0     H48648   8.530   3.446   3.924 -1.1263  0.9791  0.2349
  353MOL0     H48649   8.243   3.392   4.018 -2.5031 -0.1675 -2.8147
  353MOL0     H48650   8.304   3.416   3.851 -3.2660  0.1758  0.2259
  353MOL0     H48651   8.420   3.185   3.896  0.4069  1.4852  1.2051
  353MOL0     H48652   8.336   3.181   4.044  0.9125  0.8036  0.3782
  353MOL0     H48653   8.124   3.208   3.900  0.0642  1.3526 -0.9919
  353MOL0     H48654   8.235   3.218   3.764  1.9506 -1.0846 -0.1707
  353MOL0     H48655   8.105   2.998   3.816 -0.5103  0.2339  1.2012
  353MOL0     H48656   8.200   2.964   3.950 -3.8242  4.5853  2.9244
  353MOL0     H48657   8.313   3.000   3.655 -0.9638 -0.8420 -0.3778
  353MOL0     H48658   8.403   2.917   3.776  0.5145  3.0510  0.4185
  353MOL0     H48659   8.259   2.793   3.609 -1.7244 -0.3204  0.0670
  353MOL0     H48660   8.112   2.823   3.702 -0.7793 -1.0996  3.4628
  353MOL0     H48661   8.335   2.735   3.874 -1.1378  1.3768  0.1800
  353MOL0     H48662   8.161   2.709   3.890  0.9463  0.2362  2.0448
  353MOL0     H48663   8.055   2.528   3.725  1.0410  0.5370  0.7986
  353MOL0     H48664   8.237   2.181   3.619  0.0068  0.0996  0.1925
  353MOL0     H48665   8.116   2.284   3.545 -0.2663  0.2360  0.6618
  353MOL0     H48666   7.968   2.259   3.737  0.4866  0.4731 -0.0039
  353MOL0     H48667   8.006   2.114   3.647  1.2303 -0.4374 -0.9505
  353MOL0     H48668   8.206   2.079   3.834 -0.8888 -1.5434 -0.4993
  353MOL0     H48669   8.122   2.194   3.924  2.8926 -1.1179  2.1897
  353MOL0     H48670   8.007   1.925   3.826  0.0492  0.1650  0.3210
  353MOL0     H48671   8.065   1.951   3.985  1.9575 -0.1816 -1.6844
  353MOL0     H48672   7.641   2.152   3.988 -0.3169 -0.3319 -4.0621
  353MOL0     H48673   7.434   2.132   4.022 -0.6952  0.0076 -2.1745
  353MOL0     H48674   7.369   2.028   4.151 -0.4172  3.6414 -0.2585
  353MOL0     H48675   7.336   2.001   3.979 -0.7762 -0.3191  0.8847
  353MOL0     H48676   7.372   1.484   3.981 -1.3122 -1.3134  0.7684
  353MOL0     H48677   7.189   1.316   3.961 -1.7973 -1.1831  2.8502
  353MOL0     H48678   6.917   1.183   4.073 -0.6073  0.8994 -2.2621
  353MOL0     H48679   7.014   1.299   4.153  2.3216 -3.9188 -1.5240
  353MOL0     H48680   6.810   1.331   4.262 -2.4559 -1.0675 -0.9880
  353MOL0     H48681   6.853   1.472   4.175 -2.5669  1.5832  0.5036
  353MOL0     H48682   6.715   1.430   3.990  2.6776 -1.5564  1.0115
  353MOL0     H48683   6.615   1.445   4.123 -3.8396 -1.5110 -2.1727
  353MOL0     H48684   6.644   1.175   4.150 -3.3447 -1.0499 -1.3143
  353MOL0     H48685   6.686   1.181   3.984  1.1748 -0.9810  1.6267
  353MOL0     H48686   6.444   1.259   4.145 -2.0224  0.3730 -1.0735
  353MOL0     H48687   6.461   1.332   3.981 -0.3056  0.0778 -0.8351
  353MOL0     H48688   6.304   1.161   3.966 -1.4577 -1.4126  0.9356
  353MOL0     H48689   6.406   1.053   4.078  1.4946  2.8220  1.8490
  353MOL0     H48690   6.536   0.983   3.890 -1.3812 -0.6140  2.6920
  353MOL0     H48691   6.492   1.120   3.788  0.6063 -1.1894 -0.4523
  353MOL0     H48692   6.314   0.894   3.870  1.6264  2.4290  2.5886
  353MOL0     H48693   6.374   0.925   3.709 -0.0280 -1.2120  0.0201
  353MOL0     H48694   6.896   1.615   3.962 -0.6801 -1.8905 -0.2131
  353MOL0     H48695   7.078   1.794   3.969  1.5938  1.1815  1.1382
  353MOL0     H48696   7.686   1.659   4.033 -0.2125  0.1307 -0.5361
  353MOL0     H48697   7.889   1.788   3.985  0.3252  0.3387 -0.7221
  353MOL0     H48698   8.698   3.447   4.102  1.6041  0.4809  0.2495
  353MOL0     H48699   8.859   3.501   4.272  2.0638  1.9861 -1.2476
  353MOL0     H48700   8.976   3.584   4.638 -0.5007 -1.0948  1.7277
  353MOL0     H48701   9.147   3.568   4.805  0.6474 -2.0768 -3.3270
  353MOL0     H48702   9.403   3.826   5.037  1.9797  0.6297 -3.0199
  353MOL0     H48703   9.375   3.931   4.911 -1.6892  0.1518 -1.6362
  353MOL0     H48704   9.152   3.845   5.088 -0.0013 -0.0001 -1.9362
  353MOL0     H48705   9.135   3.989   5.000  1.0788  3.5511  0.8772
  353MOL0     H48706   9.369   4.011   5.184 -0.2111  2.8670  2.8052
  353MOL0     H48707   9.225   4.129   5.157 -1.7955  0.3932  1.3365
  353MOL0     H48708   9.084   4.026   5.301  0.3494  2.3877  0.4222
  353MOL0     H48709   9.235   4.064   5.382 -0.9860  0.2916  0.7817
  353MOL0     H48710   9.225   3.645   5.431 -1.8539 -0.5507 -0.4886
  353MOL0     H48711   9.267   3.974   4.734 -1.4235  1.1704  2.0914
  353MOL0     H48712   9.204   4.077   4.535 -0.1885 -0.5723 -0.5707
  353MOL0     H48713   9.183   3.960   4.403 -1.8263  0.5732 -0.0985
  353MOL0     H48714   9.042   4.048   4.476 -0.9274  0.7930  3.0039
  354MOL0     O48715   4.838   2.127   6.869 -0.0966 -0.1518  0.1068
  354MOL0     C48716   4.818   2.143   6.750 -0.6539 -0.7031 -0.3373
  354MOL0     O48717   4.860   2.047   6.660 -0.0838 -0.0830 -0.0734
  354MOL0     C48718   4.879   1.913   6.702  0.2436  0.8012  0.0743
  354MOL0     C48719   4.786   1.820   6.668 -1.0247  0.1093 -0.6477
  354MOL0     C48720   4.782   1.690   6.716  0.1062  1.3956 -0.3692
  354MOL0     C48721   4.871   1.655   6.820  0.3527 -1.0427  0.1333
  354MOL0     O48722   4.852   1.537   6.877  0.0445  0.3023 -0.3606
  354MOL0     C48723   4.806   1.572   7.014 -0.6727 -0.2363 -1.2135
  354MOL0     C48724   4.744   1.451   7.064 -0.2336 -0.1175  0.0592
  354MOL0     C48725   4.616   1.417   6.996 -0.4146  0.5418 -0.4158
  354MOL0     C48726   4.496   1.421   7.096  0.3361 -0.1891  0.9009
  354MOL0     C48727   4.372   1.401   7.014 -0.1334 -0.3446 -0.7795
  354MOL0     C48728   4.252   1.405   7.119 -0.0230  0.6067 -0.1112
  354MOL0     C48729   4.235   1.283   7.208 -0.1705  1.1119 -0.7816
  354MOL0     C48730   4.105   1.286   7.287 -0.4309 -0.7946 -0.0002
  354MOL0     N48731   4.091   1.408   7.370  0.1809 -0.2963  0.5602
  354MOL0     C48732   4.156   1.442   7.489  0.3199  0.2419 -0.3376
  354MOL0     C48733   4.104   1.556   7.531 -0.2295 -1.1302 -0.3000
  354MOL0     C48734   4.128   1.632   7.662 -0.1022 -0.1268 -0.1672
  354MOL0     C48735   4.288   1.639   7.680  0.8444 -0.2566 -0.8856
  354MOL0     C48736   4.369   1.711   7.575  0.5596 -0.2801 -0.1874
  354MOL0     C48737   4.481   1.611   7.521  0.5653  0.1698 -1.0693
  354MOL0     O48738   4.573   1.680   7.435 -0.3650  0.1448 -0.3649
  354MOL0     C48739   4.692   1.737   7.474 -0.0271 -0.0069  0.2207
  354MOL0     C48740   4.778   1.765   7.376 -0.0960  0.1834  0.8493
  354MOL0     C48741   4.910   1.813   7.395 -0.6065  0.5411 -0.4578
  354MOL0     C48742   4.997   1.837   7.270 -0.1621 -0.5018 -0.4277
  354MOL0     C48743   4.948   1.831   7.527  0.1248 -0.4253 -1.1848
  354MOL0     C48744   5.081   1.896   7.575 -0.2892 -0.1377  0.1700
  354MOL0     O48745   5.063   1.988   7.678  0.7817 -0.1169 -0.3699
  354MOL0     C48746   5.163   2.080   7.684  0.0192  0.3948 -0.1489
  354MOL0     C48747   5.278   2.048   7.761  0.6353  0.1582  0.6885
  354MOL0     C48748   5.383   2.133   7.765  0.8535  1.0652  0.1013
  354MOL0     C48749   5.386   2.255   7.697 -0.1373 -0.4790  0.0210
  354MOL0     O48750   5.488   2.343   7.692 -0.8419 -0.1741 -0.1779
  354MOL0     C48751   5.616   2.310   7.744 -0.4821 -0.7255  0.8547
  354MOL0     C48752   5.681   2.427   7.816  0.8690  0.6575  0.0744
  354MOL0     C48753   5.620   2.459   7.951  0.2760  0.7348  0.1615
  354MOL0     C48754   5.667   2.356   8.054  0.2940  0.6336  0.3436
  354MOL0     C48755   5.583   2.355   8.182 -0.3283 -0.0186 -0.8280
  354MOL0     C48756   5.447   2.305   8.141 -0.8943  0.2897 -0.2131
  354MOL0     C48757   5.382   2.218   8.246 -0.2630  0.4201  0.3820
  354MOL0     C48758   5.249   2.167   8.182  0.1087 -0.3423  0.7731
  354MOL0    Cl48759   5.209   2.024   8.278 -0.4872  0.2075 -0.0485
  354MOL0     C48760   5.272   2.288   7.627 -0.1772  0.2261  0.1041
  354MOL0     C48761   5.168   2.203   7.616  0.6529 -0.5299  1.5025
  354MOL0     O48762   5.189   1.870   7.517  0.0673 -1.5073  0.1402
  354MOL0     C48763   4.851   1.811   7.631 -0.5710 -0.8679  0.7220
  354MOL0     C48764   4.724   1.755   7.611 -0.1960  0.9255  0.2644
  354MOL0     N48765   4.004   1.596   7.444 -0.7171 -0.1085 -0.4477
  354MOL0     N48766   4.001   1.511   7.342 -0.4655 -0.0976 -0.2676
  354MOL0     C48767   4.976   1.745   6.854  0.7201  0.2410  0.2127
  354MOL0     C48768   4.986   1.871   6.788  0.4426  0.1410  0.2427
  354MOL0     C48769   4.749   2.272   6.727  0.4587  0.8061 -0.2102
  354MOL0     C48770   4.693   2.338   6.842  0.8311  0.4685  0.1237
  354MOL0     C48771   4.627   2.456   6.821  1.5564 -0.3572  0.1523
  354MOL0     C48772   4.605   2.517   6.692  0.8254  0.6604  0.2675
  354MOL0     O48773   4.523   2.628   6.665  0.9692  0.0698  0.2738
  354MOL0     C48774   4.410   2.648   6.752  0.3740  0.1061  0.9879
  354MOL0     C48775   4.295   2.549   6.719 -0.4005 -0.4152  0.8415
  354MOL0     C48776   4.157   2.591   6.772  0.2583 -0.9557 -0.0834
  354MOL0     C48777   4.036   2.493   6.759 -0.4225 -0.5980  0.8199
  354MOL0     C48778   4.035   2.444   6.619  0.0625  1.0934 -0.1588
  354MOL0     C48779   4.032   2.392   6.507 -0.2138  0.3481  0.2217
  354MOL0     C48780   4.657   2.449   6.582  0.5434 -0.2290 -0.1917
  354MOL0     C48781   4.728   2.330   6.603 -0.5006  0.3657  0.7050
  354MOL0     C48782   4.778   2.273   6.471  0.1540 -0.0329 -0.1277
  354MOL0     H48783   4.715   1.857   6.594 -1.1105  0.8903 -0.1827
  354MOL0     H48784   4.709   1.617   6.683  1.3192 -0.2341  0.3831
  354MOL0     H48785   4.725   1.646   7.016  1.5304  2.4122  2.0530
  354MOL0     H48786   4.889   1.605   7.077 -0.4520 -2.8991  0.0323
  354MOL0     H48787   4.811   1.365   7.055  0.8246  0.4532  1.9270
  354MOL0     H48788   4.729   1.455   7.172 -1.3461 -0.7714 -0.0526
  354MOL0     H48789   4.595   1.491   6.918 -3.0770  1.2183  0.8569
  354MOL0     H48790   4.624   1.325   6.937 -0.3140  1.5820 -2.1110
  354MOL0     H48791   4.508   1.348   7.176  2.0704  0.6505  1.4625
  354MOL0     H48792   4.500   1.511   7.157 -0.0603 -1.4124  2.8299
  354MOL0     H48793   4.380   1.305   6.962 -2.9071 -1.0002 -0.1750
  354MOL0     H48794   4.356   1.485   6.946  1.1940  0.6303  0.0754
  354MOL0     H48795   4.271   1.492   7.183 -0.6274  1.5927 -1.2368
  354MOL0     H48796   4.157   1.412   7.065 -2.0261 -0.1115  3.0595
  354MOL0     H48797   4.318   1.275   7.279  2.0377 -2.3165 -3.4280
  354MOL0     H48798   4.241   1.187   7.156  1.6373 -1.6235  3.8868
  354MOL0     H48799   4.017   1.273   7.224 -0.4356  0.4014 -0.2681
  354MOL0     H48800   4.105   1.199   7.353 -0.7141 -1.2149 -0.5503
  354MOL0     H48801   4.219   1.378   7.551  0.7503  0.4396 -0.5608
  354MOL0     H48802   4.077   1.575   7.739  1.0780 -3.7365 -1.8256
  354MOL0     H48803   4.085   1.732   7.648 -1.2678 -0.7826 -1.4640
  354MOL0     H48804   4.296   1.690   7.776 -1.1854 -1.3171 -0.0933
  354MOL0     H48805   4.324   1.537   7.693 -1.0137 -0.9061 -0.5363
  354MOL0     H48806   4.302   1.746   7.496  1.0421  1.7616  0.2353
  354MOL0     H48807   4.412   1.803   7.616 -0.3522 -0.0483  0.2741
  354MOL0     H48808   4.533   1.553   7.597  4.5487  1.4205 -2.5169
  354MOL0     H48809   4.427   1.534   7.466  1.2427 -1.9492  1.0716
  354MOL0     H48810   4.743   1.748   7.275 -0.5410 -2.3215  1.3787
  354MOL0     H48811   5.057   1.927   7.281  3.2247 -2.2696 -2.5871
  354MOL0     H48812   4.947   1.832   7.173 -0.4061 -1.7265 -0.2645
  354MOL0     H48813   5.082   1.768   7.278 -0.6062 -0.8538  4.8392
  354MOL0     H48814   5.280   1.948   7.805 -2.5547 -1.7979 -3.0030
  354MOL0     H48815   5.469   2.101   7.822 -1.1015 -3.3894  0.9875
  354MOL0     H48816   5.623   2.225   7.813  0.4672 -1.4459 -0.0911
  354MOL0     H48817   5.678   2.281   7.659  0.3711 -0.0693  1.2347
  354MOL0     H48818   5.777   2.390   7.853 -1.0930 -3.4707  1.5729
  354MOL0     H48819   5.686   2.516   7.753 -1.2693  2.1871  1.9049
  354MOL0     H48820   5.511   2.460   7.937  0.2265 -2.1887 -0.4345
  354MOL0     H48821   5.654   2.559   7.979  1.5046  1.6301 -3.8676
  354MOL0     H48822   5.768   2.376   8.090 -0.3617  1.8072  1.6457
  354MOL0     H48823   5.683   2.260   8.003  3.1595  1.2050  0.0290
  354MOL0     H48824   5.630   2.288   8.256 -0.3754 -1.5410 -2.1168
  354MOL0     H48825   5.586   2.455   8.225  1.5235 -0.1338 -0.5996
  354MOL0     H48826   5.445   2.258   8.042  0.8430 -1.1948  0.3870
  354MOL0     H48827   5.392   2.399   8.137 -0.1832  0.7698  0.8722
  354MOL0     H48828   5.359   2.277   8.335  1.7350  2.7759 -0.5250
  354MOL0     H48829   5.448   2.136   8.274 -0.3202  0.7727  1.6002
  354MOL0     H48830   5.267   2.140   8.077  3.3042  2.2444  0.5146
  354MOL0     H48831   5.164   2.236   8.180 -1.9906 -2.7560  0.9474
  354MOL0     H48832   5.260   2.370   7.557 -0.3008 -1.3618 -1.8157
  354MOL0     H48833   5.097   2.222   7.536  0.0404  1.3559  2.4378
  354MOL0     H48834   4.880   1.835   7.733 -1.4635 -1.2342  1.0651
  354MOL0     H48835   4.656   1.734   7.693 -0.8723 -0.7515 -0.6853
  354MOL0     H48836   5.037   1.722   6.941 -2.7697  0.8483  3.0546
  354MOL0     H48837   5.062   1.940   6.821  0.5304 -0.5556  1.5899
  354MOL0     H48838   4.697   2.303   6.945  0.2755 -2.6466 -0.8307
  354MOL0     H48839   4.581   2.513   6.900  1.4356 -0.0174 -0.1591
  354MOL0     H48840   4.431   2.633   6.858  3.2492 -0.6715  0.3974
  354MOL0     H48841   4.372   2.750   6.740 -2.6670 -0.8505  1.3867
  354MOL0     H48842   4.324   2.452   6.759  0.8315 -0.5562 -0.3045
  354MOL0     H48843   4.297   2.544   6.609  0.9841  2.1809  0.6500
  354MOL0     H48844   4.162   2.621   6.877 -1.3666  2.1564 -0.7765
  354MOL0     H48845   4.131   2.684   6.721 -1.5716 -0.9424  0.7903
  354MOL0     H48846   3.942   2.536   6.793  0.8542  0.4458  3.1988
  354MOL0     H48847   4.057   2.408   6.825  4.0961 -0.8243 -0.5806
  354MOL0     H48848   4.033   2.339   6.414 -0.2233 -1.3141  1.1338
  354MOL0     H48849   4.634   2.480   6.480 -3.9074 -1.8446  0.0782
  354MOL0     H48850   4.887   2.282   6.480  0.1760 -1.2283  1.1118
  354MOL0     H48851   4.763   2.167   6.448  2.0983  0.1139 -2.4960
  354MOL0     H48852   4.742   2.322   6.381  2.5426 -0.1612 -1.2181
  355MOL0     O48853   3.732   6.596   0.313 -0.1016  0.5359  1.2584
  355MOL0     C48854   3.849   6.626   0.316  0.7755  0.5987  0.4423
  355MOL0     O48855   3.925   6.624   0.432 -0.0906 -0.2209 -0.0073
  355MOL0     C48856   3.900   6.544   0.538  0.0638  0.7590  0.0531
  355MOL0     C48857   3.974   6.433   0.551  0.6707  1.9881  0.6428
  355MOL0     C48858   3.963   6.356   0.664 -0.2000  0.2902 -0.5325
  355MOL0     C48859   3.873   6.388   0.767 -0.0664 -0.6908 -0.5454
  355MOL0     O48860   3.886   6.317   0.881 -0.2114 -0.6697 -0.0691
  355MOL0     C48861   3.819   6.365   0.996  0.1163 -0.6701 -0.5234
  355MOL0     C48862   3.855   6.277   1.122  1.0818 -0.6070  0.1789
  355MOL0     C48863   3.993   6.220   1.118  0.0012 -0.2990  0.1491
  355MOL0     C48864   4.089   6.316   1.171 -0.1023 -0.0013 -0.8356
  355MOL0     C48865   4.233   6.270   1.138 -0.2030  0.0387  0.0770
  355MOL0     C48866   4.337   6.261   1.258 -0.3641  0.1376 -0.2506
  355MOL0     C48867   4.308   6.165   1.383 -0.0441  0.0341  0.3526
  355MOL0     C48868   4.327   6.228   1.520 -1.5702  0.6677 -1.0188
  355MOL0     N48869   4.243   6.344   1.560 -0.3539 -0.4312  0.2965
  355MOL0     C48870   4.234   6.464   1.496  0.5827 -1.3575 -0.6829
  355MOL0     C48871   4.133   6.527   1.560 -1.4309 -0.4652  0.2298
  355MOL0     C48872   4.074   6.664   1.529  0.0479  0.7996 -0.4006
  355MOL0     C48873   4.044   6.753   1.648 -0.7397 -0.3147  0.2840
  355MOL0     C48874   4.159   6.776   1.748 -0.3082  0.5292  0.8243
  355MOL0     C48875   4.120   6.877   1.851  0.8060  0.9692 -0.1451
  355MOL0     O48876   4.216   6.894   1.951  0.2670 -0.3430 -0.0227
  355MOL0     C48877   4.194   6.990   2.048 -0.2423 -0.8847 -0.8745
  355MOL0     C48878   4.304   7.030   2.122 -0.7616  0.4379  0.5726
  355MOL0     C48879   4.289   7.120   2.228  0.0237 -0.1544 -0.8570
  355MOL0     C48880   4.430   7.143   2.296  0.4904  0.0041  0.6070
  355MOL0     C48881   4.154   7.156   2.269 -0.1787  0.1607 -0.2023
  355MOL0     C48882   4.122   7.259   2.368 -0.4019 -0.5229 -0.1574
  355MOL0     O48883   4.217   7.309   2.445 -0.3237 -0.4993  0.1217
  355MOL0     C48884   4.174   7.368   2.561  0.0609 -0.4265 -0.3309
  355MOL0     C48885   4.203   7.289   2.680 -0.3109  0.6711  0.2286
  355MOL0     C48886   4.156   7.343   2.807  0.1234 -0.1256  0.5033
  355MOL0     C48887   4.092   7.469   2.807  0.5939 -0.1090 -1.7640
  355MOL0     O48888   4.052   7.529   2.923  0.4247 -0.3251 -0.2434
  355MOL0     C48889   4.083   7.465   3.046  0.1022  0.4747 -0.2436
  355MOL0     C48890   4.009   7.536   3.156  0.1923 -0.0924  0.2802
  355MOL0     C48891   3.868   7.492   3.159 -0.3453  0.2560 -0.5143
  355MOL0     C48892   3.860   7.375   3.246 -0.4709 -0.3250  0.1549
  355MOL0     C48893   3.722   7.305   3.229 -0.2681 -0.5219 -0.7047
  355MOL0     C48894   3.663   7.244   3.356 -0.6558  0.0094 -0.5923
  355MOL0     C48895   3.736   7.148   3.458 -0.8465 -0.7261 -0.4639
  355MOL0     C48896   3.662   7.135   3.586  0.2583 -0.9647  0.3612
  355MOL0    Cl48897   3.763   7.045   3.694 -0.5688  0.3438 -0.3114
  355MOL0     C48898   4.060   7.538   2.691  0.4737 -0.5272  0.6365
  355MOL0     C48899   4.098   7.485   2.573 -1.6843 -0.5537  0.5000
  355MOL0     O48900   4.008   7.301   2.368 -0.0139 -0.1175  0.0314
  355MOL0     C48901   4.045   7.125   2.189  0.4400  0.5544 -0.3018
  355MOL0     C48902   4.072   7.033   2.085  0.7591  0.2726 -0.1943
  355MOL0     N48903   4.086   6.453   1.661 -0.6743  0.5743  0.3667
  355MOL0     N48904   4.155   6.341   1.667 -0.0175  0.4235 -0.3450
  355MOL0     C48905   3.779   6.493   0.739 -0.5003  0.3093  0.3561
  355MOL0     C48906   3.799   6.579   0.634  0.8056  0.3268 -0.3864
  355MOL0     C48907   3.899   6.718   0.205 -0.3992 -0.1833 -0.1600
  355MOL0     C48908   3.999   6.818   0.238  0.2373 -0.2010 -0.0361
  355MOL0     C48909   4.048   6.898   0.140 -0.3436  0.2702  0.1217
  355MOL0     C48910   3.983   6.902   0.013 -0.9235  0.5476 -1.2046
  355MOL0     O48911   4.025   6.985  -0.088 -0.1600  0.0847 -0.8124
  355MOL0     C48912   4.140   7.072  -0.071  1.0177 -0.8173  0.6457
  355MOL0     C48913   4.177   7.137  -0.207 -0.1961 -0.1057  0.7763
  355MOL0     C48914   4.318   7.211  -0.223  0.0543  0.2732 -0.0368
  355MOL0     C48915   4.391   7.177  -0.353  0.3589  0.4349  0.2669
  355MOL0     C48916   4.522   7.223  -0.350 -0.1568 -0.1857 -0.2110
  355MOL0     C48917   4.623   7.286  -0.334 -0.3518  0.4658  0.7532
  355MOL0     C48918   3.881   6.812  -0.011 -0.0379 -0.7367 -0.1616
  355MOL0     C48919   3.851   6.710   0.076 -0.1061  1.1115  0.6692
  355MOL0     C48920   3.730   6.631   0.032 -0.2669  0.5069 -0.0112
  355MOL0     H48921   4.043   6.420   0.469 -0.1580  2.2701 -0.1196
  355MOL0     H48922   4.030   6.273   0.685 -2.2602 -1.7573 -1.5498
  355MOL0     H48923   3.710   6.358   0.982  0.0906  1.7257 -2.0834
  355MOL0     H48924   3.847   6.469   1.018 -3.0523  0.1269  0.3336
  355MOL0     H48925   3.849   6.347   1.205  0.9638  0.7934 -0.9691
  355MOL0     H48926   3.778   6.201   1.139  0.0889  1.0847  4.7509
  355MOL0     H48927   3.999   6.135   1.186 -0.1137  0.3527  1.0075
  355MOL0     H48928   4.022   6.182   1.020 -0.3408 -1.7815  0.6077
  355MOL0     H48929   4.083   6.421   1.140  1.3090  0.4053  0.1396
  355MOL0     H48930   4.080   6.315   1.280 -3.5639 -1.3529 -1.0236
  355MOL0     H48931   4.262   6.359   1.081 -0.0345  1.7539  2.6872
  355MOL0     H48932   4.235   6.179   1.077 -0.3690  1.7602 -2.6935
  355MOL0     H48933   4.433   6.239   1.210 -1.8765 -3.4478 -1.9928
  355MOL0     H48934   4.334   6.368   1.283  0.2826  0.2740 -0.7365
  355MOL0     H48935   4.369   6.075   1.372  0.0236  0.0895  0.2736
  355MOL0     H48936   4.200   6.149   1.381 -0.1383  0.6738 -0.0203
  355MOL0     H48937   4.306   6.156   1.600  0.4483  1.2284  0.0727
  355MOL0     H48938   4.431   6.258   1.534 -2.1588  3.6297 -2.2434
  355MOL0     H48939   4.284   6.496   1.405  0.1694 -2.8289 -1.4565
  355MOL0     H48940   3.986   6.644   1.468 -1.1483  0.4515  1.3754
  355MOL0     H48941   4.143   6.716   1.462 -0.6474  0.8105 -1.1290
  355MOL0     H48942   4.037   6.851   1.600  2.4207  0.2042  0.7155
  355MOL0     H48943   3.943   6.735   1.686 -1.4972 -1.8369 -2.1733
  355MOL0     H48944   4.165   6.676   1.792 -3.4277 -0.4647 -0.7126
  355MOL0     H48945   4.251   6.800   1.693  0.3165 -1.8282  0.7318
  355MOL0     H48946   4.108   6.978   1.810 -0.0103  1.2165  0.6766
  355MOL0     H48947   4.022   6.841   1.882  1.2517  0.5265  0.7834
  355MOL0     H48948   4.403   6.997   2.092 -1.2633 -2.4321  1.6645
  355MOL0     H48949   4.506   7.138   2.217  0.9150  1.7744  0.8721
  355MOL0     H48950   4.451   7.083   2.385  2.2019  3.0449  2.3745
  355MOL0     H48951   4.440   7.247   2.326 -0.1004  0.5623 -1.0159
  355MOL0     H48952   4.258   7.196   2.671 -0.7967  0.0241  3.0437
  355MOL0     H48953   4.178   7.284   2.895  0.8474 -2.9783 -1.4498
  355MOL0     H48954   4.056   7.360   3.052 -0.6434  0.6495 -0.4267
  355MOL0     H48955   4.192   7.469   3.058  0.5047 -0.4044 -2.9432
  355MOL0     H48956   4.058   7.529   3.254 -0.3159 -1.0146  0.4783
  355MOL0     H48957   4.011   7.643   3.132  2.6055 -0.5156 -1.8980
  355MOL0     H48958   3.826   7.479   3.059 -0.1537 -1.7137 -0.3774
  355MOL0     H48959   3.813   7.574   3.206  1.4286  1.9387 -1.2301
  355MOL0     H48960   3.871   7.403   3.352  3.6870 -0.3144 -0.1183
  355MOL0     H48961   3.932   7.300   3.211 -1.2981  0.5104 -3.7635
  355MOL0     H48962   3.655   7.382   3.191  2.1306  2.2113  0.2394
  355MOL0     H48963   3.722   7.225   3.154 -2.7529 -0.9277 -0.3549
  355MOL0     H48964   3.577   7.180   3.332 -1.0547 -0.2137  1.2308
  355MOL0     H48965   3.624   7.324   3.420 -0.2820 -0.6557  0.5064
  355MOL0     H48966   3.832   7.191   3.489  0.1711 -1.3568 -2.5464
  355MOL0     H48967   3.749   7.046   3.420 -0.9925 -0.7300 -0.5016
  355MOL0     H48968   3.561   7.093   3.581 -0.7185  1.3639 -1.7111
  355MOL0     H48969   3.653   7.233   3.633  2.0348 -1.2119  1.3160
  355MOL0     H48970   4.001   7.630   2.683 -1.9810 -1.9588  1.1803
  355MOL0     H48971   4.084   7.541   2.481 -1.1765 -2.1220 -0.5587
  355MOL0     H48972   3.944   7.162   2.200  0.8052  1.3395  0.4936
  355MOL0     H48973   3.981   6.991   2.044  0.9794 -0.2791 -0.1236
  355MOL0     H48974   3.709   6.519   0.819  2.0993  1.6389  2.3620
  355MOL0     H48975   3.742   6.671   0.621 -0.9707 -0.9576 -2.5606
  355MOL0     H48976   4.023   6.839   0.341 -1.1895 -0.8409  0.4526
  355MOL0     H48977   4.131   6.965   0.164  1.7932 -1.6456 -1.4322
  355MOL0     H48978   4.121   7.162  -0.012 -3.4119 -0.2653 -1.2898
  355MOL0     H48979   4.224   7.007  -0.043  0.5647 -2.0753 -0.8023
  355MOL0     H48980   4.095   7.205  -0.231  0.1612 -0.0578 -0.3626
  355MOL0     H48981   4.183   7.054  -0.278  2.8880 -2.1320  3.1034
  355MOL0     H48982   4.306   7.319  -0.227  1.9220  0.5245  0.3440
  355MOL0     H48983   4.374   7.191  -0.131  1.4226 -1.1354 -1.1355
  355MOL0     H48984   4.343   7.216  -0.443  0.2869 -0.8636 -0.2726
  355MOL0     H48985   4.395   7.068  -0.347  1.7317  0.5052  1.0676
  355MOL0     H48986   4.704   7.356  -0.327 -0.4311  1.3977 -4.0673
  355MOL0     H48987   3.835   6.825  -0.109  0.0485  2.1986  0.1001
  355MOL0     H48988   3.725   6.614  -0.076 -2.6031  0.3474  0.0776
  355MOL0     H48989   3.711   6.535   0.082 -0.8184  1.0921  0.9465
  355MOL0     H48990   3.642   6.690   0.058  0.4891  0.7017  2.4292
  356MOL0     O48991   1.464   0.350   7.941  0.3575 -0.6426  0.2553
  356MOL0     C48992   1.555   0.369   7.852  0.5105  0.2010 -0.4577
  356MOL0     O48993   1.659   0.283   7.836 -0.1442 -0.7654  0.9733
  356MOL0     C48994   1.639   0.154   7.884  0.5737  0.7175  0.7388
  356MOL0     C48995   1.689   0.110   8.004 -0.6551 -0.3256  0.0061
  356MOL0     C48996   1.661  -0.017   8.059  0.9314 -0.0759  0.4343
  356MOL0     C48997   1.616  -0.115   7.974  0.6807  0.2226 -0.3385
  356MOL0     O48998   1.617  -0.248   8.024  0.3957 -0.0767 -0.5635
  356MOL0     C48999   1.610  -0.353   7.920 -0.2766  0.0984 -0.1777
  356MOL0     C49000   1.628  -0.491   7.988  1.0130  0.1595  0.0621
  356MOL0     C49001   1.516  -0.543   8.072  0.3495  0.1495 -0.9979
  356MOL0     C49002   1.403  -0.595   7.984  0.0827  1.3259  0.5126
  356MOL0     C49003   1.287  -0.647   8.065 -0.3048 -0.1382  0.1506
  356MOL0     C49004   1.189  -0.726   7.975  0.4473 -0.0071 -0.1889
  356MOL0     C49005   1.066  -0.796   8.042  0.0588 -0.0377  0.2459
  356MOL0     C49006   0.981  -0.876   7.946 -0.1015 -0.3998  0.1698
  356MOL0     N49007   0.939  -0.789   7.835  0.2036  0.7942 -0.6329
  356MOL0     C49008   0.836  -0.701   7.838  0.5374 -0.9309  0.0999
  356MOL0     C49009   0.830  -0.639   7.719  0.3600 -0.3850 -0.2158
  356MOL0     C49010   0.721  -0.538   7.684 -0.3442  0.5250 -0.2173
  356MOL0     C49011   0.712  -0.407   7.773  1.1248  0.3637  0.3881
  356MOL0     C49012   0.576  -0.328   7.754  0.2492 -0.0760 -0.0990
  356MOL0     C49013   0.571  -0.220   7.638  0.7500  0.5545 -0.4586
  356MOL0     O49014   0.603  -0.297   7.517  0.5103  0.4754  0.2977
  356MOL0     C49015   0.518  -0.285   7.413  1.4445 -0.4874 -0.7537
  356MOL0     C49016   0.503  -0.394   7.336 -0.0085  0.2489 -1.0143
  356MOL0     C49017   0.441  -0.399   7.207  0.1235 -0.5966  0.7899
  356MOL0     C49018   0.440  -0.521   7.118 -0.2917  0.1387 -0.6358
  356MOL0     C49019   0.384  -0.270   7.162 -0.1243 -0.4048  0.5205
  356MOL0     C49020   0.321  -0.235   7.032  0.6941  0.6418 -0.0348
  356MOL0     O49021   0.266  -0.115   7.014  0.4117  0.7491  0.9110
  356MOL0     C49022   0.198  -0.088   6.888 -0.6603  0.3178 -0.6677
  356MOL0     C49023   0.228  -0.150   6.765  0.1798  1.1733  0.8598
  356MOL0     C49024   0.146  -0.112   6.651  1.0374  0.2556 -0.9999
  356MOL0     C49025   0.028  -0.030   6.670  0.9263 -0.3849 -0.0645
  356MOL0     O49026  -0.045  -0.004   6.557  0.0993  0.3123  0.6187
  356MOL0     C49027  -0.075   0.139   6.548  0.2200  0.5901  0.0188
  356MOL0     C49028  -0.189   0.147   6.442  0.4288 -0.0660  0.2865
  356MOL0     C49029  -0.150   0.098   6.296  0.3724  0.1999 -0.1753
  356MOL0     C49030  -0.076   0.210   6.232 -0.2937 -0.9641 -0.7310
  356MOL0     C49031  -0.012   0.169   6.101 -0.2153 -0.6810 -0.2078
  356MOL0     C49032  -0.101   0.079   6.026 -1.6393  0.0848  0.5472
  356MOL0     C49033  -0.058   0.046   5.879 -0.9659 -0.3466 -0.1992
  356MOL0     C49034  -0.162  -0.027   5.791 -0.9491  0.8949  0.3116
  356MOL0    Cl49035  -0.319   0.052   5.794 -0.4710  0.0453 -0.8575
  356MOL0     C49036  -0.002   0.013   6.803 -0.3858  0.3795  0.1704
  356MOL0     C49037   0.089  -0.004   6.907  0.4918  1.8773 -0.3447
  356MOL0     O49038   0.303  -0.334   6.959  0.6093  0.6613  0.0918
  356MOL0     C49039   0.405  -0.160   7.246 -0.1833  0.7696  0.3847
  356MOL0     C49040   0.461  -0.168   7.367  0.0159  0.4510 -0.8244
  356MOL0     N49041   0.913  -0.707   7.639 -0.3125 -0.5971 -0.6331
  356MOL0     N49042   0.982  -0.796   7.705 -0.7592  0.0810 -0.0889
  356MOL0     C49043   1.577  -0.078   7.844  0.3265 -0.5274  0.2970
  356MOL0     C49044   1.576   0.059   7.806 -1.3062 -0.5020  0.0662
  356MOL0     C49045   1.559   0.492   7.771  0.1858 -0.0653  0.5500
  356MOL0     C49046   1.594   0.492   7.635 -0.7933  0.3203  0.0022
  356MOL0     C49047   1.595   0.608   7.561  0.5608  0.7385  0.4512
  356MOL0     C49048   1.543   0.724   7.612 -0.2255 -0.4162  0.2899
  356MOL0     O49049   1.540   0.834   7.537 -0.1710  0.3239 -0.0960
  356MOL0     C49050   1.414   0.904   7.538 -0.3243  0.1836 -0.1455
  356MOL0     C49051   1.439   1.058   7.561  0.1225 -0.5970 -0.7079
  356MOL0     C49052   1.341   1.162   7.498  0.0059 -0.3447  1.3990
  356MOL0     C49053   1.378   1.303   7.540 -0.3139  0.2997  0.6606
  356MOL0     C49054   1.279   1.403   7.493 -0.5995  0.0772  0.5552
  356MOL0     C49055   1.211   1.503   7.459  0.2360  0.7050  0.6551
  356MOL0     C49056   1.520   0.731   7.752 -0.5394  1.0157 -0.5902
  356MOL0     C49057   1.503   0.616   7.828  0.3099 -0.6008  0.7951
  356MOL0     C49058   1.460   0.631   7.971  1.2102  0.3404  0.4606
  356MOL0     H49059   1.752   0.186   8.048 -0.6714  0.2757 -0.9596
  356MOL0     H49060   1.694  -0.043   8.160  6.2149 -1.8447 -1.3744
  356MOL0     H49061   1.678  -0.335   7.836 -1.1698 -1.2049 -1.2255
  356MOL0     H49062   1.507  -0.355   7.884 -0.5738  0.3369  0.6247
  356MOL0     H49063   1.657  -0.565   7.913  2.5338 -0.6185  1.3567
  356MOL0     H49064   1.726  -0.502   8.037  1.9424  2.2797 -1.1513
  356MOL0     H49065   1.549  -0.620   8.142 -0.2652 -2.6651 -3.5791
  356MOL0     H49066   1.468  -0.460   8.124  1.6711  0.2655  0.0862
  356MOL0     H49067   1.376  -0.517   7.912 -1.0241  0.8146  0.3671
  356MOL0     H49068   1.448  -0.679   7.930 -0.1669  0.7326  1.2083
  356MOL0     H49069   1.229  -0.561   8.100 -2.0159 -0.5389 -1.5067
  356MOL0     H49070   1.321  -0.704   8.152  0.5896  0.3551  0.1326
  356MOL0     H49071   1.155  -0.656   7.899  0.0399  1.4209  1.2515
  356MOL0     H49072   1.238  -0.817   7.939 -2.3083 -1.2860 -0.9523
  356MOL0     H49073   0.996  -0.720   8.077 -1.9910 -0.6171 -2.2855
  356MOL0     H49074   1.089  -0.858   8.129 -0.1764  0.8668  0.9597
  356MOL0     H49075   1.051  -0.946   7.900  0.1834 -1.5088  2.1942
  356MOL0     H49076   0.893  -0.912   8.001 -0.4389 -1.6992 -1.1637
  356MOL0     H49077   0.785  -0.666   7.927 -1.8799  0.9989 -1.9052
  356MOL0     H49078   0.624  -0.586   7.692 -0.9773  1.5481 -1.3251
  356MOL0     H49079   0.745  -0.503   7.583 -1.3192  1.2482 -0.2090
  356MOL0     H49080   0.711  -0.427   7.880  1.1697  3.5789  1.0963
  356MOL0     H49081   0.790  -0.338   7.741 -0.7454  1.8512 -1.2220
  356MOL0     H49082   0.495  -0.401   7.741 -0.6024  1.0334 -1.2054
  356MOL0     H49083   0.554  -0.260   7.837 -2.3954  0.3152 -1.0193
  356MOL0     H49084   0.475  -0.169   7.641  1.6069  2.1625  0.8110
  356MOL0     H49085   0.642  -0.139   7.655 -2.3891  3.4366 -0.0754
  356MOL0     H49086   0.550  -0.486   7.369  0.7620  1.1151  0.3910
  356MOL0     H49087   0.442  -0.610   7.181  1.7826  0.3293 -0.3607
  356MOL0     H49088   0.531  -0.523   7.058 -0.4976  1.8716 -1.0692
  356MOL0     H49089   0.350  -0.533   7.056 -1.3780  3.4574  0.0988
  356MOL0     H49090   0.307  -0.223   6.756 -1.5839 -0.9015  1.3031
  356MOL0     H49091   0.168  -0.137   6.548  0.7118  1.0751 -1.2704
  356MOL0     H49092  -0.120   0.181   6.638  3.3099  2.6944  0.7266
  356MOL0     H49093   0.018   0.190   6.520  0.9028  0.1140  1.3593
  356MOL0     H49094  -0.275   0.086   6.470  1.3853 -1.5411  0.0972
  356MOL0     H49095  -0.223   0.251   6.439  0.4081 -0.0550  0.7770
  356MOL0     H49096  -0.243   0.075   6.244 -0.7967 -0.7276  2.1541
  356MOL0     H49097  -0.085   0.010   6.303 -1.0617 -1.0456 -1.7664
  356MOL0     H49098  -0.003   0.254   6.300  0.2985 -2.0501 -0.6500
  356MOL0     H49099  -0.154   0.285   6.214 -0.7741 -1.1127  0.6568
  356MOL0     H49100   0.024   0.256   6.045  0.2682 -1.4678 -1.1574
  356MOL0     H49101   0.086   0.122   6.113  0.4986  0.8551  0.3555
  356MOL0     H49102  -0.197   0.130   6.021 -0.7037  2.1898  2.2909
  356MOL0     H49103  -0.115  -0.022   6.067 -4.3814  0.7009  1.2933
  356MOL0     H49104   0.026  -0.024   5.878 -1.9378 -1.5572  0.3456
  356MOL0     H49105  -0.029   0.138   5.828  0.7677 -0.2176  0.9020
  356MOL0     H49106  -0.156  -0.132   5.820  5.6441  0.8435  0.1876
  356MOL0     H49107  -0.130  -0.038   5.687  3.1938  0.3554  1.4647
  356MOL0     H49108  -0.083   0.079   6.832  0.1297  0.8461  0.5774
  356MOL0     H49109   0.063   0.054   6.995  0.5302  2.9583 -1.0238
  356MOL0     H49110   0.355  -0.069   7.213 -1.4033 -0.3845 -1.0965
  356MOL0     H49111   0.460  -0.077   7.427 -2.9388 -1.8222  3.0530
  356MOL0     H49112   1.538  -0.154   7.778  2.1853 -0.7980 -0.5625
  356MOL0     H49113   1.517   0.082   7.717 -0.2214 -1.3284 -0.8959
  356MOL0     H49114   1.641   0.406   7.588  0.7446  1.1271 -0.0049
  356MOL0     H49115   1.633   0.590   7.461 -4.6729 -1.5106 -1.4770
  356MOL0     H49116   1.363   0.894   7.442 -4.3975 -6.1787  1.9998
  356MOL0     H49117   1.350   0.867   7.619  1.4364 -3.0171 -0.0256
  356MOL0     H49118   1.531   1.093   7.514  0.9642  1.3259  2.0556
  356MOL0     H49119   1.441   1.082   7.668  2.6979 -1.5689 -0.4574
  356MOL0     H49120   1.357   1.155   7.390 -2.4955 -0.1779  0.9698
  356MOL0     H49121   1.242   1.123   7.523  0.8107 -3.0413  0.6900
  356MOL0     H49122   1.475   1.332   7.497 -1.5792  1.8152 -1.3190
  356MOL0     H49123   1.381   1.314   7.649 -0.2944  3.7003  0.4269
  356MOL0     H49124   1.162   1.591   7.422 -2.4181 -1.0077 -0.1453
  356MOL0     H49125   1.494   0.826   7.797 -4.4471  0.5331 -1.4550
  356MOL0     H49126   1.435   0.735   7.992 -0.3455  2.0949 -7.1247
  356MOL0     H49127   1.371   0.568   7.959  2.4301 -1.1754 -1.1913
  356MOL0     H49128   1.509   0.579   8.054  0.7303  4.2486  3.5079
  357MOL0     O49129   6.820   8.570   3.167  1.0973 -0.8893  0.0056
  357MOL0     C49130   6.735   8.540   3.253 -0.5636  0.5273 -0.3721
  357MOL0     O49131   6.663   8.420   3.249 -0.0507  0.2125 -0.0813
  357MOL0     C49132   6.730   8.317   3.188  0.9555  0.7465 -0.0754
  357MOL0     C49133   6.835   8.251   3.252 -0.4300  0.1916 -0.2588
  357MOL0     C49134   6.918   8.162   3.185 -0.0487 -0.3272 -0.2289
  357MOL0     C49135   6.880   8.111   3.060  0.5489  1.0092  0.7653
  357MOL0     O49136   6.949   8.023   2.986  0.2831  0.0902 -0.4465
  357MOL0     C49137   7.020   7.928   3.063  0.1491  0.5575 -0.0564
  357MOL0     C49138   7.045   7.793   2.980  0.3805  0.4690  0.3387
  357MOL0     C49139   7.116   7.676   3.040 -0.7313 -0.5122  0.2579
  357MOL0     C49140   7.020   7.550   3.049 -0.4178  0.6504 -0.2945
  357MOL0     C49141   7.098   7.416   3.095  0.3913  0.1847 -0.1047
  357MOL0     C49142   7.003   7.285   3.097 -0.5951 -0.1184  0.8713
  357MOL0     C49143   7.089   7.161   3.123 -0.7234  0.8145  0.1520
  357MOL0     C49144   7.197   7.125   3.019 -0.2778 -1.1074 -0.5160
  357MOL0     N49145   7.290   7.019   3.063  0.0716  0.6580  0.5041
  357MOL0     C49146   7.369   6.951   2.988 -0.7164  0.1545  0.1887
  357MOL0     C49147   7.437   6.881   3.075 -0.2036 -1.3748  1.3411
  357MOL0     C49148   7.531   6.771   3.042  0.8574 -0.0679  0.6259
  357MOL0     C49149   7.671   6.813   3.084 -0.8062  0.2825 -0.5464
  357MOL0     C49150   7.754   6.689   3.087 -0.7610  0.0338  0.8717
  357MOL0     C49151   7.819   6.660   2.949 -0.2308 -0.0735  0.2962
  357MOL0     O49152   7.856   6.523   2.958  0.0793  0.6508 -0.9451
  357MOL0     C49153   7.921   6.465   2.853  0.2003  0.3208 -0.0440
  357MOL0     C49154   7.969   6.529   2.733  0.0016 -0.0556  0.1007
  357MOL0     C49155   8.033   6.463   2.631 -0.4302 -0.3617  0.2323
  357MOL0     C49156   8.063   6.537   2.498 -0.0773 -0.3230  0.7833
  357MOL0     C49157   8.072   6.325   2.645 -0.4855 -0.1369  0.7654
  357MOL0     C49158   8.148   6.261   2.538  0.0464 -0.2813 -1.2142
  357MOL0     O49159   8.093   6.153   2.475 -0.5081  0.6385 -0.5054
  357MOL0     C49160   8.163   6.102   2.372  0.1175 -0.3977 -0.6755
  357MOL0     C49161   8.278   6.023   2.398  0.5273  0.0463  0.3618
  357MOL0     C49162   8.334   5.983   2.276 -0.0245  1.2006  0.0689
  357MOL0     C49163   8.288   6.009   2.145 -1.0023 -0.2337  0.9365
  357MOL0     O49164   8.345   5.949   2.037  0.1690  0.6692 -0.0944
  357MOL0     C49165   8.255   5.909   1.935  0.5356 -0.7490 -0.6821
  357MOL0     C49166   8.289   5.785   1.852 -0.4120  0.5625 -0.7561
  357MOL0     C49167   8.168   5.734   1.774  0.4088  0.3094  1.1244
  357MOL0     C49168   8.200   5.645   1.654 -0.2569 -0.7600 -0.0779
  357MOL0     C49169   8.242   5.737   1.532  0.1501  0.6632 -0.0846
  357MOL0     C49170   8.262   5.664   1.395  0.1359  0.4812  0.0464
  357MOL0     C49171   8.169   5.703   1.277  0.5860 -0.6375  0.7016
  357MOL0     C49172   8.034   5.622   1.267  0.4105 -0.3363 -0.5128
  357MOL0    Cl49173   7.944   5.690   1.122 -0.1715  0.0769 -0.2809
  357MOL0     C49174   8.171   6.082   2.138  0.1348 -1.1933 -0.0059
  357MOL0     C49175   8.117   6.132   2.247 -0.2166 -0.7687 -0.1220
  357MOL0     O49176   8.265   6.301   2.536  0.4655  0.0385 -0.3489
  357MOL0     C49177   8.027   6.258   2.761 -0.0584 -0.3580 -0.5480
  357MOL0     C49178   7.959   6.332   2.871  0.5592 -0.1423  0.0586
  357MOL0     N49179   7.397   6.904   3.206  0.1716  0.1594 -0.9236
  357MOL0     N49180   7.306   6.992   3.197 -0.5838 -0.1276 -0.1013
  357MOL0     C49181   6.763   8.173   2.999 -0.3770 -0.2643 -0.4781
  357MOL0     C49182   6.686   8.277   3.065 -0.8978 -0.2940  0.3719
  357MOL0     C49183   6.682   8.645   3.346  0.0573  0.3484  0.7453
  357MOL0     C49184   6.571   8.605   3.417  0.8570 -0.0587  0.1608
  357MOL0     C49185   6.510   8.692   3.508 -0.8591 -0.5169 -0.0470
  357MOL0     C49186   6.564   8.817   3.523 -0.6463 -0.9672 -0.3905
  357MOL0     O49187   6.502   8.914   3.607  0.3193  0.3000  0.2137
  357MOL0     C49188   6.392   8.994   3.549  0.2492 -0.1620 -1.2525
  357MOL0     C49189   6.269   8.942   3.630 -0.1057  0.6158 -0.6259
  357MOL0     C49190   6.275   8.936   3.778 -0.0917 -0.0170  0.5511
  357MOL0     C49191   6.146   8.870   3.846  0.0324 -0.0208  0.7062
  357MOL0     C49192   6.145   8.889   3.991 -0.0059 -0.8045 -0.9305
  357MOL0     C49193   6.122   8.909   4.105 -0.5937  0.0145  1.0584
  357MOL0     C49194   6.680   8.856   3.459 -0.7356  0.0686  0.1535
  357MOL0     C49195   6.746   8.773   3.374 -0.1011 -0.4513 -0.3987
  357MOL0     C49196   6.861   8.844   3.296  0.9455 -0.0702 -0.1492
  357MOL0     H49197   6.857   8.272   3.356 -3.5105  2.0980  0.1308
  357MOL0     H49198   7.011   8.126   3.229 -1.3059 -1.7197  1.4800
  357MOL0     H49199   6.963   7.894   3.149  0.2802  1.5613  0.4397
  357MOL0     H49200   7.119   7.972   3.082  0.6519  1.8481 -4.5402
  357MOL0     H49201   6.950   7.746   2.952  0.3046  1.2777 -0.8551
  357MOL0     H49202   7.095   7.819   2.886  0.4303  0.0842  0.2599
  357MOL0     H49203   7.198   7.654   2.972 -0.3966  0.3476  0.3744
  357MOL0     H49204   7.158   7.704   3.137  2.5738  0.6782 -1.4027
  357MOL0     H49205   6.946   7.581   3.124  0.0635  1.5267 -0.1802
  357MOL0     H49206   6.958   7.528   2.961 -3.1676 -0.5609  1.7799
  357MOL0     H49207   7.142   7.428   3.194  1.5317 -1.5931 -0.3483
  357MOL0     H49208   7.174   7.410   3.017 -0.6995 -0.0017 -1.1905
  357MOL0     H49209   6.941   7.290   3.187 -0.0206 -2.0331  1.4193
  357MOL0     H49210   6.944   7.271   3.006 -0.2818  0.1306  0.6254
  357MOL0     H49211   7.018   7.078   3.129  0.1562  0.1347  1.9629
  357MOL0     H49212   7.143   7.154   3.218  0.3314 -2.0654 -0.5328
  357MOL0     H49213   7.162   7.095   2.920 -0.6661  2.9565 -1.7637
  357MOL0     H49214   7.249   7.216   2.989 -0.4793 -1.6338 -2.6387
  357MOL0     H49215   7.370   6.935   2.880 -1.0071 -0.7700  0.3168
  357MOL0     H49216   7.535   6.753   2.934 -1.1028 -2.2444  0.8249
  357MOL0     H49217   7.499   6.670   3.071 -1.4334 -0.6137 -3.1456
  357MOL0     H49218   7.714   6.882   3.011  1.5102  2.5825  2.7286
  357MOL0     H49219   7.668   6.863   3.181  1.2717 -1.4249  0.4806
  357MOL0     H49220   7.828   6.709   3.164 -1.2445 -2.0378  1.9473
  357MOL0     H49221   7.708   6.593   3.115  2.5067 -2.5516 -1.7718
  357MOL0     H49222   7.750   6.673   2.866 -1.3240 -3.7694  0.4755
  357MOL0     H49223   7.913   6.715   2.937 -0.1480 -0.0746  0.8843
  357MOL0     H49224   7.949   6.635   2.726  2.1322  0.2793 -3.5894
  357MOL0     H49225   8.166   6.576   2.497 -0.6081  1.1681 -0.9771
  357MOL0     H49226   7.999   6.624   2.482  1.9025  1.5147  2.1956
  357MOL0     H49227   8.063   6.477   2.407  3.2322  0.5869  0.0331
  357MOL0     H49228   8.323   6.010   2.496  1.0840  1.0343  0.2452
  357MOL0     H49229   8.429   5.933   2.257 -1.2941 -0.7527 -1.4996
  357MOL0     H49230   8.157   5.894   1.981  1.4742 -0.4754  1.5193
  357MOL0     H49231   8.259   5.988   1.859  0.2614  0.3763  0.4396
  357MOL0     H49232   8.371   5.806   1.783 -0.8837  1.7910 -0.9564
  357MOL0     H49233   8.318   5.701   1.917  0.1760 -1.2977 -3.2615
  357MOL0     H49234   8.104   5.817   1.744  0.5884  0.2569  0.5875
  357MOL0     H49235   8.101   5.677   1.840  2.5570 -2.5159  1.0653
  357MOL0     H49236   8.111   5.586   1.629 -0.0972 -0.8419 -0.4647
  357MOL0     H49237   8.279   5.575   1.681 -0.1665 -0.7708 -0.3693
  357MOL0     H49238   8.162   5.811   1.527  1.8905  2.5919 -1.8143
  357MOL0     H49239   8.328   5.799   1.561  2.7103 -3.6930  2.8047
  357MOL0     H49240   8.244   5.557   1.412 -0.0208  0.7379  1.7190
  357MOL0     H49241   8.365   5.687   1.369 -0.4529  2.5163 -0.6584
  357MOL0     H49242   8.230   5.684   1.189 -1.5086  1.0132 -1.2265
  357MOL0     H49243   8.153   5.811   1.281 -1.7214 -0.8955 -0.2179
  357MOL0     H49244   7.974   5.641   1.357  2.0933 -2.8640  1.2777
  357MOL0     H49245   8.052   5.515   1.250 -0.8503 -0.9883  1.8628
  357MOL0     H49246   8.130   6.103   2.040 -0.7957  0.2680  0.6603
  357MOL0     H49247   8.030   6.193   2.229  0.2442 -0.8431 -3.0693
  357MOL0     H49248   8.055   6.155   2.775  1.8979  0.4681  2.5771
  357MOL0     H49249   7.915   6.286   2.959  0.9047 -0.5141  0.0412
  357MOL0     H49250   6.746   8.145   2.895 -3.6337 -3.1116  0.6253
  357MOL0     H49251   6.592   8.313   3.024 -0.3199  2.7436  1.4672
  357MOL0     H49252   6.521   8.508   3.418  0.5406 -0.1206 -3.7477
  357MOL0     H49253   6.424   8.652   3.561 -0.2224 -1.0394  0.6232
  357MOL0     H49254   6.418   9.099   3.561  0.6072 -0.4279  0.5970
  357MOL0     H49255   6.366   8.980   3.444 -1.2678 -0.7923 -0.8295
  357MOL0     H49256   6.268   8.839   3.593  1.5947 -0.3808  1.8585
  357MOL0     H49257   6.178   8.988   3.591  0.5224 -0.4945 -3.6256
  357MOL0     H49258   6.359   8.875   3.812 -1.8317 -0.6847  4.2334
  357MOL0     H49259   6.284   9.036   3.822  3.3240 -0.0402  0.1496
  357MOL0     H49260   6.142   8.766   3.813 -0.7115  0.4677 -0.8511
  357MOL0     H49261   6.051   8.912   3.811 -1.1460 -2.2583  0.9957
  357MOL0     H49262   6.092   8.918   4.207 -1.5465 -0.8017  0.8609
  357MOL0     H49263   6.727   8.953   3.474 -0.7874  0.8755 -3.8759
  357MOL0     H49264   6.895   8.936   3.343  2.2440  0.1970 -1.5291
  357MOL0     H49265   6.944   8.775   3.275  0.8267  0.2018 -1.5936
  357MOL0     H49266   6.826   8.858   3.193 -5.0096 -1.2879  1.3352
  358MOL0     O49267   5.711   2.017   5.139  0.0773 -0.3584  0.6221
  358MOL0     C49268   5.747   1.924   5.069  0.3359  0.3538  0.9048
  358MOL0     O49269   5.664   1.827   5.012  1.5112 -0.5501  0.0683
  358MOL0     C49270   5.528   1.844   5.029 -0.0586 -0.7513  0.0755
  358MOL0     C49271   5.456   1.957   4.978 -0.2753 -0.5406 -0.4800
  358MOL0     C49272   5.316   1.967   5.007  0.2703 -0.5993 -0.4452
  358MOL0     C49273   5.255   1.874   5.098 -0.2962  1.9902  0.2620
  358MOL0     O49274   5.119   1.865   5.119 -0.0201 -0.4225  0.0775
  358MOL0     C49275   5.055   1.995   5.120  0.1886  0.0144  0.1908
  358MOL0     C49276   4.986   2.031   4.986 -0.0856 -0.1728  0.0004
  358MOL0     C49277   4.977   2.186   4.973 -0.3785  0.0218 -0.0916
  358MOL0     C49278   4.926   2.234   4.838 -0.4466 -0.1586 -0.4043
  358MOL0     C49279   4.780   2.276   4.844 -0.2897  0.3479  1.0406
  358MOL0     C49280   4.749   2.323   4.691 -0.1376 -0.6373  0.9972
  358MOL0     C49281   4.596   2.337   4.681  0.1760  1.2133 -0.0427
  358MOL0     C49282   4.540   2.465   4.763  0.1375  0.5137  0.4111
  358MOL0     N49283   4.397   2.496   4.750 -0.4145 -0.4992  0.2086
  358MOL0     C49284   4.318   2.424   4.664  0.6789 -0.6830 -0.6084
  358MOL0     C49285   4.192   2.470   4.696  0.0397  0.4373  0.2219
  358MOL0     C49286   4.072   2.398   4.635 -0.2655 -0.4257 -0.3292
  358MOL0     C49287   4.015   2.310   4.745  0.7451 -0.8105  0.4205
  358MOL0     C49288   3.877   2.256   4.687 -1.1860 -0.2077  0.2057
  358MOL0     C49289   3.792   2.184   4.794 -0.4233  0.0356  0.3202
  358MOL0     O49290   3.856   2.091   4.868 -1.3128  0.3099  0.0618
  358MOL0     C49291   3.910   1.981   4.810 -0.1198  0.7584  0.2947
  358MOL0     C49292   4.014   1.922   4.883  0.4771  0.3421  0.2682
  358MOL0     C49293   4.067   1.790   4.839 -0.7636 -0.6435 -0.4271
  358MOL0     C49294   4.158   1.705   4.920 -1.0481 -0.1126 -0.5731
  358MOL0     C49295   4.027   1.747   4.710 -0.4484 -0.2441 -0.2308
  358MOL0     C49296   4.097   1.640   4.642  0.2936  1.0448  0.0047
  358MOL0     O49297   4.157   1.683   4.522 -0.5475  0.5613 -0.2593
  358MOL0     C49298   4.186   1.601   4.412  0.3087  0.1154 -0.2730
  358MOL0     C49299   4.253   1.668   4.305 -0.6371  0.0665  0.5843
  358MOL0     C49300   4.285   1.605   4.187  0.3185  1.0046  1.1138
  358MOL0     C49301   4.230   1.474   4.159 -0.7407 -0.4335 -0.9997
  358MOL0     O49302   4.242   1.398   4.042  0.8897  0.3052 -0.2775
  358MOL0     C49303   4.339   1.438   3.952  1.1356  0.1762 -0.4363
  358MOL0     C49304   4.279   1.498   3.826  0.6664  0.1854 -0.3321
  358MOL0     C49305   4.169   1.407   3.763  0.1110  0.1039  1.2172
  358MOL0     C49306   4.203   1.363   3.611  0.2772 -0.2493  0.0623
  358MOL0     C49307   4.184   1.475   3.506 -0.1904 -0.7703  0.3228
  358MOL0     C49308   4.159   1.393   3.379  0.3602 -0.3186  0.1688
  358MOL0     C49309   4.146   1.489   3.257 -0.8789 -0.2235  0.3249
  358MOL0     C49310   4.136   1.407   3.132 -0.1876 -0.3730  0.4931
  358MOL0    Cl49311   4.154   1.534   3.005  0.2340 -0.1312  0.3787
  358MOL0     C49312   4.150   1.419   4.259 -0.1889  0.4403 -0.3060
  358MOL0     C49313   4.132   1.478   4.386  0.2231  1.0178  0.1022
  358MOL0     O49314   4.092   1.525   4.679 -0.4653  0.1433 -0.4053
  358MOL0     C49315   3.933   1.815   4.633  0.6717  0.2144  0.0528
  358MOL0     C49316   3.880   1.934   4.683 -0.2179 -0.2395 -0.4597
  358MOL0     N49317   4.203   2.561   4.800 -0.3240 -0.3000 -0.7020
  358MOL0     N49318   4.333   2.587   4.820 -0.2524  0.5145 -0.2028
  358MOL0     C49319   5.332   1.765   5.143  0.3606 -0.6816  0.1468
  358MOL0     C49320   5.458   1.749   5.104 -0.8098 -0.2196  0.1421
  358MOL0     C49321   5.901   1.893   5.069  1.0268 -0.1292 -0.3679
  358MOL0     C49322   5.976   1.997   5.116  0.0655 -0.0077  0.3745
  358MOL0     C49323   6.119   1.993   5.110  0.4677  0.9282  0.1847
  358MOL0     C49324   6.175   1.862   5.092  0.4685  0.4712  0.0227
  358MOL0     O49325   6.307   1.831   5.111 -0.2867  0.4052 -0.6569
  358MOL0     C49326   6.385   1.932   5.175  0.5652 -1.0898  0.5462
  358MOL0     C49327   6.511   1.860   5.193  0.2711 -0.4874 -0.4357
  358MOL0     C49328   6.503   1.734   5.275 -0.6437  0.0311 -0.0724
  358MOL0     C49329   6.471   1.757   5.421 -0.7191 -0.4473  0.1155
  358MOL0     C49330   6.375   1.679   5.492  1.2984  0.0280  0.6484
  358MOL0     C49331   6.289   1.598   5.521  0.4647  0.4667 -0.2119
  358MOL0     C49332   6.091   1.756   5.041  0.8756  1.1508  0.8423
  358MOL0     C49333   5.951   1.774   5.015 -1.1932 -0.0052 -0.0590
  358MOL0     C49334   5.878   1.652   4.950 -0.2978 -0.3867  0.4611
  358MOL0     H49335   5.507   2.037   4.926 -1.3209  1.0283  0.7927
  358MOL0     H49336   5.262   2.058   4.984 -0.7555 -0.8089  0.9943
  358MOL0     H49337   5.122   2.078   5.146 -0.4905  0.7490 -0.3370
  358MOL0     H49338   4.978   1.985   5.197 -1.6330  3.8514 -0.8745
  358MOL0     H49339   5.030   1.984   4.898 -0.1614  0.8729 -0.6217
  358MOL0     H49340   4.885   1.991   4.985 -0.0543 -0.3562  1.5612
  358MOL0     H49341   4.915   2.215   5.058 -1.1527 -1.7568  0.0128
  358MOL0     H49342   5.080   2.221   4.982 -1.3128  2.4269  2.4416
  358MOL0     H49343   4.967   2.333   4.819  0.1830 -0.5154 -0.9308
  358MOL0     H49344   4.951   2.171   4.752  0.8665  2.6377 -2.1866
  358MOL0     H49345   4.768   2.364   4.908 -5.2151  1.5031 -0.9660
  358MOL0     H49346   4.714   2.196   4.880 -0.1435  1.0905  3.0424
  358MOL0     H49347   4.802   2.415   4.666  1.0520 -1.9604 -1.7996
  358MOL0     H49348   4.784   2.246   4.622 -2.2934  1.1871 -2.4266
  358MOL0     H49349   4.552   2.242   4.712  0.3139  1.0873 -0.2314
  358MOL0     H49350   4.593   2.340   4.572  6.0947 -1.5537 -0.7069
  358MOL0     H49351   4.572   2.459   4.867  0.5226  1.8595  0.3891
  358MOL0     H49352   4.591   2.547   4.712 -3.2150  2.4147 -0.1940
  358MOL0     H49353   4.351   2.341   4.603  0.8428 -1.7738  0.9200
  358MOL0     H49354   4.093   2.329   4.552 -0.9620 -0.9391 -0.0942
  358MOL0     H49355   3.988   2.460   4.601 -1.4845 -2.0740 -0.4914
  358MOL0     H49356   4.074   2.218   4.752 -1.2578 -2.1268  0.9764
  358MOL0     H49357   4.003   2.378   4.830 -2.8108  1.5741 -1.7126
  358MOL0     H49358   3.810   2.334   4.651  1.7041  0.8603 -3.5356
  358MOL0     H49359   3.893   2.192   4.600  3.1267  0.1856  0.4946
  358MOL0     H49360   3.758   2.269   4.853 -3.6197 -0.1041 -1.1121
  358MOL0     H49361   3.699   2.144   4.752  0.2300 -0.4804 -0.6857
  358MOL0     H49362   4.058   1.970   4.970  1.6195 -0.9412  0.4194
  358MOL0     H49363   4.112   1.609   4.943 -4.8452  1.5503 -0.3857
  358MOL0     H49364   4.153   1.747   5.021  0.9320 -0.6344 -0.2153
  358MOL0     H49365   4.256   1.698   4.872 -1.6910 -2.1914 -1.7250
  358MOL0     H49366   4.288   1.767   4.331 -1.9158  0.5676  0.4677
  358MOL0     H49367   4.366   1.642   4.124 -0.2317 -2.6489 -2.1150
  358MOL0     H49368   4.416   1.506   3.991 -1.9218  3.8416 -0.2225
  358MOL0     H49369   4.397   1.348   3.927  0.0932 -0.2288 -1.4818
  358MOL0     H49370   4.240   1.598   3.847 -0.1755 -0.1106 -0.4498
  358MOL0     H49371   4.348   1.517   3.743 -1.0905  0.6195 -1.7487
  358MOL0     H49372   4.069   1.450   3.772  0.7790  2.7099 -1.8226
  358MOL0     H49373   4.169   1.310   3.814  0.7834 -0.2931  0.4924
  358MOL0     H49374   4.142   1.273   3.597  2.2121 -1.4690 -1.1237
  358MOL0     H49375   4.308   1.332   3.602  1.2402 -0.0088  6.2096
  358MOL0     H49376   4.108   1.549   3.530  2.1490  1.9330 -0.1692
  358MOL0     H49377   4.278   1.529   3.495 -0.3081 -0.0030  2.5986
  358MOL0     H49378   4.062   1.345   3.392  0.9763 -1.4387  0.8150
  358MOL0     H49379   4.241   1.320   3.376 -0.1202 -0.9576  1.7144
  358MOL0     H49380   4.247   1.529   3.249 -0.3301 -1.8375 -1.3350
  358MOL0     H49381   4.069   1.567   3.254 -1.2837 -0.5205 -4.3821
  358MOL0     H49382   4.045   1.350   3.113 -0.8403  0.0280  2.2469
  358MOL0     H49383   4.216   1.332   3.127 -0.4533 -0.6496  0.3088
  358MOL0     H49384   4.111   1.318   4.263  2.1913 -0.5980 -1.1999
  358MOL0     H49385   4.057   1.431   4.448  0.5592 -0.1588 -0.3585
  358MOL0     H49386   3.889   1.776   4.542 -0.1877 -0.1871  0.6257
  358MOL0     H49387   3.805   1.974   4.616 -2.2974 -0.3903  1.6634
  358MOL0     H49388   5.272   1.685   5.184  0.9546 -2.0474 -1.5326
  358MOL0     H49389   5.512   1.659   5.130  0.9575  0.9138  0.6051
  358MOL0     H49390   5.932   2.095   5.131  0.3674  0.5456 -1.9349
  358MOL0     H49391   6.174   2.080   5.146 -1.8049  2.2180  0.7601
  358MOL0     H49392   6.399   2.017   5.108 -1.7184  0.1057  1.4526
  358MOL0     H49393   6.350   1.971   5.271 -0.7032 -4.7960  1.7792
  358MOL0     H49394   6.583   1.929   5.237 -0.3361 -0.5642  0.7159
  358MOL0     H49395   6.563   1.839   5.099  0.6816  1.3055 -0.6454
  358MOL0     H49396   6.430   1.665   5.232 -0.0889 -1.5125  1.3434
  358MOL0     H49397   6.598   1.679   5.268 -1.8505 -2.0138 -1.1811
  358MOL0     H49398   6.464   1.863   5.447  4.7369 -0.1339  1.6536
  358MOL0     H49399   6.567   1.727   5.464 -1.0269  1.4806  2.3752
  358MOL0     H49400   6.197   1.546   5.539  0.7021 -0.0306 -0.4265
  358MOL0     H49401   6.143   1.670   5.001 -1.5571  0.5484 -1.2799
  358MOL0     H49402   5.947   1.568   4.952 -2.4280 -2.2083  1.5617
  358MOL0     H49403   5.786   1.632   5.005 -0.3947 -3.3184 -0.6317
  358MOL0     H49404   5.856   1.673   4.845  0.5075  2.3372  0.7379
  359MOL0     O49405   8.099   1.958   8.814 -0.3740 -0.0107  0.8865
  359MOL0     C49406   8.028   2.027   8.743 -1.3656 -0.4532 -1.3742
  359MOL0     O49407   7.918   1.977   8.673 -0.3550  0.0150 -0.3568
  359MOL0     C49408   7.871   1.846   8.675 -0.8173  1.2665  0.5204
  359MOL0     C49409   7.817   1.780   8.558  0.2836  0.3324  0.3496
  359MOL0     C49410   7.755   1.649   8.569 -0.1963 -0.1593 -0.3688
  359MOL0     C49411   7.766   1.579   8.687  0.3254  1.5403 -0.9228
  359MOL0     O49412   7.718   1.450   8.708 -0.6377 -0.9011  0.3396
  359MOL0     C49413   7.704   1.362   8.596 -0.3379  0.4187  0.1901
  359MOL0     C49414   7.676   1.218   8.638 -0.1862  0.2032  0.1037
  359MOL0     C49415   7.780   1.159   8.735  0.5344 -0.9295  0.1609
  359MOL0     C49416   7.733   1.029   8.795  0.1128 -0.6375 -0.4247
  359MOL0     C49417   7.796   0.910   8.710  0.1715 -0.1717  0.5363
  359MOL0     C49418   7.758   0.905   8.560 -0.5034 -0.3338 -0.3622
  359MOL0     C49419   7.777   0.771   8.496 -0.0810  0.0634 -0.3153
  359MOL0     C49420   7.696   0.787   8.368 -0.0993  0.1220 -0.2509
  359MOL0     N49421   7.722   0.910   8.285  0.9637  0.5673 -0.2068
  359MOL0     C49422   7.845   0.955   8.240  0.6456 -0.1053  0.4346
  359MOL0     C49423   7.818   1.085   8.193 -0.4042  0.4840  0.6969
  359MOL0     C49424   7.913   1.174   8.124  0.1425  0.0848 -0.4848
  359MOL0     C49425   7.880   1.226   7.982  0.4718 -0.3187  1.2821
  359MOL0     C49426   7.869   1.105   7.890  0.1735  1.4324  0.7905
  359MOL0     C49427   7.903   1.151   7.748 -0.2762  0.1088 -0.3606
  359MOL0     O49428   7.811   1.244   7.697 -0.0720  0.3708  0.0075
  359MOL0     C49429   7.804   1.265   7.559  0.3491 -0.4265 -1.2768
  359MOL0     C49430   7.684   1.301   7.494 -0.8725  0.1792 -0.6199
  359MOL0     C49431   7.674   1.306   7.355  0.7141 -1.2230 -0.2354
  359MOL0     C49432   7.540   1.340   7.299  0.1794  0.0777 -0.0876
  359MOL0     C49433   7.781   1.275   7.280 -0.2191  0.0440  0.7390
  359MOL0     C49434   7.793   1.272   7.127  0.1608 -0.5093  0.2780
  359MOL0     O49435   7.920   1.266   7.067  0.3376  0.1922 -0.0001
  359MOL0     C49436   7.945   1.239   6.932  0.9889 -0.9966  0.1596
  359MOL0     C49437   7.865   1.194   6.820  1.1565  0.7363 -0.5260
  359MOL0     C49438   7.919   1.165   6.694 -0.6433 -0.2801  0.0938
  359MOL0     C49439   8.061   1.201   6.683  0.4888  0.0464 -0.6772
  359MOL0     O49440   8.131   1.186   6.562 -0.0727 -0.6479 -0.7301
  359MOL0     C49441   8.172   1.051   6.532  1.6503 -0.4946  0.0577
  359MOL0     C49442   8.231   1.046   6.392  0.9496 -0.0853 -0.6515
  359MOL0     C49443   8.352   1.144   6.374 -0.1639  0.2806 -0.1269
  359MOL0     C49444   8.421   1.133   6.243 -1.0515  0.4687 -0.2047
  359MOL0     C49445   8.342   1.177   6.113  0.6286  0.4767  0.1995
  359MOL0     C49446   8.419   1.168   5.986 -0.1406  0.1211  0.4097
  359MOL0     C49447   8.515   1.042   5.969  0.0135  0.1417  0.5553
  359MOL0     C49448   8.568   1.048   5.821  0.5370  0.3033 -0.7691
  359MOL0    Cl49449   8.662   1.186   5.791 -0.2837  0.0143  0.3133
  359MOL0     C49450   8.136   1.255   6.787 -0.5519 -0.0798 -0.1851
  359MOL0     C49451   8.077   1.267   6.908  0.0514  0.5516 -0.5387
  359MOL0     O49452   7.687   1.256   7.063 -0.4117 -1.0971 -1.1563
  359MOL0     C49453   7.910   1.259   7.349  0.0809  0.3618 -0.0237
  359MOL0     C49454   7.922   1.257   7.487  0.1349 -0.3115  1.2925
  359MOL0     N49455   7.682   1.104   8.211  0.3907  0.1861 -0.5574
  359MOL0     N49456   7.621   1.002   8.267 -0.3318  0.9086  0.2348
  359MOL0     C49457   7.820   1.643   8.800  0.0958 -1.0289 -0.3018
  359MOL0     C49458   7.862   1.775   8.794  0.2311 -0.3257 -0.0295
  359MOL0     C49459   8.060   2.172   8.763 -0.0078 -0.7259 -0.8217
  359MOL0     C49460   8.193   2.211   8.808  0.4306  1.0000  0.9351
  359MOL0     C49461   8.225   2.340   8.834  0.2168 -0.6276 -0.4895
  359MOL0     C49462   8.129   2.440   8.818 -0.5303 -0.5148 -0.5315
  359MOL0     O49463   8.154   2.578   8.845  0.2095  0.1517 -0.3787
  359MOL0     C49464   8.282   2.629   8.886 -0.4292 -0.3719  0.4177
  359MOL0     C49465   8.377   2.655   8.757 -0.1979 -0.0920 -0.6538
  359MOL0     C49466   8.287   2.689   8.630  0.4707  0.2414  0.8451
  359MOL0     C49467   8.377   2.737   8.517 -0.2770  0.3069 -0.1120
  359MOL0     C49468   8.471   2.641   8.471 -0.9848  0.0965  0.4207
  359MOL0     C49469   8.532   2.542   8.426  0.2161 -0.8127 -0.3524
  359MOL0     C49470   8.004   2.407   8.777 -0.6131  0.1775  0.0562
  359MOL0     C49471   7.965   2.278   8.746  0.0112 -0.0427 -0.3915
  359MOL0     C49472   7.838   2.255   8.659 -0.7974  0.1598 -0.4745
  359MOL0     H49473   7.795   1.832   8.465 -2.9588  0.9639  1.3444
  359MOL0     H49474   7.713   1.610   8.477  1.5892 -1.7587 -0.5707
  359MOL0     H49475   7.801   1.357   8.546 -0.4617 -1.6703  0.1020
  359MOL0     H49476   7.627   1.407   8.532  0.1850  1.6290  0.3737
  359MOL0     H49477   7.576   1.223   8.681 -0.7797  2.8224 -1.3765
  359MOL0     H49478   7.677   1.157   8.547  0.7806  0.4127 -0.0468
  359MOL0     H49479   7.873   1.135   8.683 -0.2483  0.2996 -1.9160
  359MOL0     H49480   7.813   1.223   8.818  0.9397 -2.0235  0.8659
  359MOL0     H49481   7.753   1.023   8.902 -0.1877 -1.1213 -0.3929
  359MOL0     H49482   7.626   1.013   8.782  0.1011 -0.5655 -0.4181
  359MOL0     H49483   7.762   0.811   8.742 -0.4919 -0.7609 -1.8031
  359MOL0     H49484   7.905   0.901   8.718  0.1809 -2.7301 -1.2369
  359MOL0     H49485   7.652   0.934   8.561  0.4091  3.3969  1.0665
  359MOL0     H49486   7.815   0.980   8.505 -1.4001 -0.5794 -1.6805
  359MOL0     H49487   7.741   0.685   8.553  1.0336 -0.8643 -0.9690
  359MOL0     H49488   7.885   0.764   8.483 -0.0975 -3.5637  0.3492
  359MOL0     H49489   7.724   0.698   8.309 -1.0314 -0.4638  0.1627
  359MOL0     H49490   7.591   0.775   8.398  0.1781 -1.8079  0.1070
  359MOL0     H49491   7.938   0.900   8.252 -0.3480 -1.3076  3.6829
  359MOL0     H49492   8.018   1.142   8.131  0.3146 -0.3217 -3.4547
  359MOL0     H49493   7.907   1.264   8.185  0.9523 -0.7217  0.8271
  359MOL0     H49494   7.784   1.279   7.985 -1.1911 -2.9481 -1.0297
  359MOL0     H49495   7.955   1.300   7.953 -3.2912  3.1188 -0.7652
  359MOL0     H49496   7.932   1.019   7.912 -0.3381  1.3690  2.0967
  359MOL0     H49497   7.767   1.067   7.878  1.6556 -2.8272  0.0870
  359MOL0     H49498   8.001   1.198   7.757 -0.1490 -0.4013  1.4309
  359MOL0     H49499   7.914   1.061   7.687 -0.6113 -0.0433 -0.2022
  359MOL0     H49500   7.604   1.305   7.567 -0.4785 -2.1753  0.0256
  359MOL0     H49501   7.546   1.397   7.206 -0.6518 -2.6281 -1.9062
  359MOL0     H49502   7.480   1.391   7.375 -2.2382 -1.7135 -0.6809
  359MOL0     H49503   7.489   1.246   7.279  1.1167 -0.0878 -1.8215
  359MOL0     H49504   7.759   1.182   6.839  1.6313 -1.3596  1.1172
  359MOL0     H49505   7.854   1.129   6.614  1.3567  0.8129 -2.1327
  359MOL0     H49506   8.240   1.008   6.606  2.6165 -2.2358 -1.7471
  359MOL0     H49507   8.081   0.992   6.539  1.4187 -0.2974 -1.1109
  359MOL0     H49508   8.260   0.945   6.362  2.3672 -0.3422  1.3955
  359MOL0     H49509   8.151   1.077   6.323  0.5618  1.5587  0.4808
  359MOL0     H49510   8.426   1.121   6.451 -0.0309  1.7366  0.2136
  359MOL0     H49511   8.321   1.246   6.398  2.4500  1.4767 -1.3904
  359MOL0     H49512   8.457   1.030   6.247  2.0032  1.5063  1.3764
  359MOL0     H49513   8.510   1.196   6.249 -1.4953  0.9694  3.4597
  359MOL0     H49514   8.245   1.127   6.102 -0.0957  1.6511  0.9377
  359MOL0     H49515   8.313   1.281   6.129  0.3956  0.4752 -0.2066
  359MOL0     H49516   8.476   1.261   5.978  0.8263 -0.6224 -2.5652
  359MOL0     H49517   8.351   1.162   5.901  0.4076 -3.1429  0.0916
  359MOL0     H49518   8.465   0.947   5.990  2.8909 -1.8822 -1.0380
  359MOL0     H49519   8.595   1.060   6.041  2.6964 -0.5580 -2.0382
  359MOL0     H49520   8.479   1.052   5.757 -1.1925 -1.0164  1.3868
  359MOL0     H49521   8.610   0.950   5.799 -0.1667  0.0860 -1.1688
  359MOL0     H49522   8.239   1.289   6.782  0.1156 -1.6644  1.6490
  359MOL0     H49523   8.137   1.304   6.990  1.1181 -0.7352 -0.7171
  359MOL0     H49524   8.000   1.240   7.290 -1.4169  1.9437 -3.0876
  359MOL0     H49525   8.018   1.235   7.533  0.4396 -0.8402  0.4177
  359MOL0     H49526   7.840   1.588   8.891 -3.2912 -3.0000 -0.5471
  359MOL0     H49527   7.896   1.829   8.882 -2.4029  2.0536 -0.3381
  359MOL0     H49528   8.271   2.139   8.832  1.5471  1.5034 -1.0223
  359MOL0     H49529   8.327   2.370   8.859 -0.9225  5.0964 -1.3816
  359MOL0     H49530   8.258   2.724   8.935 -1.1368 -1.2628  1.8760
  359MOL0     H49531   8.341   2.571   8.958  0.1401  2.6926  2.6486
  359MOL0     H49532   8.444   2.570   8.740  1.6898  0.1940  3.9420
  359MOL0     H49533   8.442   2.734   8.794 -2.6801  1.3411  0.8998
  359MOL0     H49534   8.243   2.598   8.588  2.4540 -0.9409  1.2093
  359MOL0     H49535   8.209   2.762   8.650  2.4254  2.6893  0.0108
  359MOL0     H49536   8.422   2.832   8.547  0.2169  0.8356 -2.3144
  359MOL0     H49537   8.322   2.758   8.425  1.6343 -1.1999 -1.6852
  359MOL0     H49538   8.579   2.462   8.373  0.1190 -3.2062  2.8259
  359MOL0     H49539   7.942   2.493   8.754  0.8011  0.5652 -2.7711
  359MOL0     H49540   7.771   2.194   8.719  0.8624  0.1173  1.4567
  359MOL0     H49541   7.803   2.352   8.622 -1.4707  0.1200  0.0359
  359MOL0     H49542   7.865   2.197   8.571 -2.1203 -0.7240 -0.3229
  360MOL0     O49543   8.981   6.612   0.825  0.0803 -0.2850  0.2923
  360MOL0     C49544   8.990   6.717   0.770 -1.1080 -0.3915  0.4006
  360MOL0     O49545   9.074   6.742   0.666  0.1110 -0.1422  0.2153
  360MOL0     C49546   9.153   6.649   0.598  1.2902  0.0337 -0.3249
  360MOL0     C49547   9.260   6.688   0.524  0.2737 -0.4423 -0.0960
  360MOL0     C49548   9.346   6.599   0.468 -0.4683 -0.4358  0.9529
  360MOL0     C49549   9.328   6.465   0.472 -0.7147  0.3916 -0.0449
  360MOL0     O49550   9.399   6.373   0.402 -0.4578 -0.3242  0.2440
  360MOL0     C49551   9.545   6.404   0.417  0.4827  0.7284  0.9491
  360MOL0     C49552   9.604   6.356   0.290 -0.2164 -0.5875  0.5684
  360MOL0     C49553   9.571   6.423   0.153 -0.0412  0.4513  0.7429
  360MOL0     C49554   9.617   6.572   0.149  0.5609  0.0310 -0.0112
  360MOL0     C49555   9.558   6.658   0.029  0.1619 -0.1634  0.7841
  360MOL0     C49556   9.640   6.792   0.012 -0.5015 -0.1823  0.3961
  360MOL0     C49557   9.568   6.901  -0.068  0.4101 -0.7664  0.4799
  360MOL0     C49558   9.429   6.940  -0.014  0.2023 -0.1526  0.4679
  360MOL0     N49559   9.429   6.968   0.128  0.1737  0.1143 -0.0614
  360MOL0     C49560   9.509   7.070   0.184 -0.4216 -0.0983 -0.6644
  360MOL0     C49561   9.484   7.055   0.314 -0.0320 -0.1340 -0.1252
  360MOL0     C49562   9.547   7.138   0.426  0.4417  0.2324  0.4267
  360MOL0     C49563   9.567   7.064   0.558 -0.5501 -0.9579 -0.4111
  360MOL0     C49564   9.673   6.954   0.552 -0.3118 -0.1964  0.7719
  360MOL0     C49565   9.672   6.868   0.674  0.2944 -0.0546 -0.0320
  360MOL0     O49566   9.754   6.936   0.781 -0.1765  0.4582  0.3423
  360MOL0     C49567   9.840   6.871   0.863  0.1577 -0.0699  0.2423
  360MOL0     C49568   9.915   6.753   0.847  0.7853  0.1740  0.6778
  360MOL0     C49569   9.999   6.700   0.948 -0.3030 -0.5920  0.4228
  360MOL0     C49570  10.097   6.583   0.910 -0.1962  0.0762 -1.0916
  360MOL0     C49571  10.024   6.773   1.065 -0.3659  0.5631 -0.1891
  360MOL0     C49572  10.118   6.738   1.175 -1.1383 -0.5284  0.0857
  360MOL0     O49573  10.246   6.725   1.135 -0.5278 -0.3900  0.8640
  360MOL0     C49574  10.342   6.689   1.228 -0.9496 -0.7639 -0.7564
  360MOL0     C49575  10.363   6.561   1.274 -0.0991 -0.6099  0.3454
  360MOL0     C49576  10.470   6.534   1.352 -0.6918  0.2081 -0.3997
  360MOL0     C49577  10.554   6.636   1.390  1.1811 -0.3361 -0.6072
  360MOL0     O49578  10.668   6.607   1.458 -0.3553 -0.2947 -0.1661
  360MOL0     C49579  10.686   6.486   1.527  0.7149  0.3870 -0.3170
  360MOL0     C49580  10.831   6.474   1.575  0.1568 -0.7170 -0.1105
  360MOL0     C49581  10.849   6.575   1.695 -0.0363 -0.0500  0.5729
  360MOL0     C49582  11.003   6.578   1.736  0.1821 -0.2740  0.0938
  360MOL0     C49583  11.103   6.642   1.633  0.5744  0.3227 -0.0350
  360MOL0     C49584  11.251   6.659   1.668 -0.2006 -0.6218  0.4563
  360MOL0     C49585  11.263   6.774   1.772 -0.1963  0.0051 -0.3680
  360MOL0     C49586  11.408   6.828   1.782 -0.2623 -0.8696  0.2738
  360MOL0    Cl49587  11.462   6.927   1.632  0.1340 -0.2006 -0.2636
  360MOL0     C49588  10.526   6.769   1.359 -0.0639 -0.8455  0.8594
  360MOL0     C49589  10.415   6.802   1.283  0.0655 -0.1101  1.2272
  360MOL0     O49590  10.073   6.768   1.294 -0.6300  0.0365  0.8676
  360MOL0     C49591   9.966   6.897   1.074  0.2300  0.5475  0.5668
  360MOL0     C49592   9.870   6.943   0.974 -0.0886 -0.2385 -1.0613
  360MOL0     N49593   9.399   6.951   0.334 -0.2089 -0.5277  0.0852
  360MOL0     N49594   9.357   6.900   0.222  0.6762  0.2604  0.6692
  360MOL0     C49595   9.224   6.409   0.547 -0.1056 -0.7955  0.0326
  360MOL0     C49596   9.135   6.504   0.606  0.8717 -0.2600  0.5097
  360MOL0     C49597   8.897   6.827   0.813 -0.8055 -0.2543 -0.0370
  360MOL0     C49598   8.924   6.962   0.782 -0.3631 -0.6465 -0.6557
  360MOL0     C49599   8.843   7.065   0.825 -0.1976 -0.0657 -0.6668
  360MOL0     C49600   8.710   7.037   0.859 -0.2510 -0.3554  0.9846
  360MOL0     O49601   8.601   7.126   0.884  0.2214  0.2078 -0.4183
  360MOL0     C49602   8.596   7.251   0.807  0.1843  1.0054  0.7975
  360MOL0     C49603   8.556   7.226   0.661 -0.1284 -0.2544  0.2614
  360MOL0     C49604   8.427   7.152   0.654  0.4578 -0.3990 -0.1967
  360MOL0     C49605   8.331   7.174   0.541  0.0767 -0.1304 -0.1216
  360MOL0     C49606   8.190   7.137   0.556  0.8981  0.2639 -0.1509
  360MOL0     C49607   8.076   7.114   0.593 -0.1051  0.3601  0.0626
  360MOL0     C49608   8.674   6.907   0.882 -1.6217  0.3353 -1.0633
  360MOL0     C49609   8.765   6.795   0.859  0.0553  0.4079 -0.3019
  360MOL0     C49610   8.712   6.658   0.870  0.8872  1.2804 -0.4124
  360MOL0     H49611   9.266   6.795   0.511  2.1052 -0.4447  0.3930
  360MOL0     H49612   9.417   6.637   0.396  0.6545 -0.9652  1.7501
  360MOL0     H49613   9.587   6.334   0.490 -0.3385 -1.2964 -0.4193
  360MOL0     H49614   9.571   6.510   0.426 -2.7324  1.8758 -1.5166
  360MOL0     H49615   9.714   6.360   0.298 -0.2601 -0.7976  1.3921
  360MOL0     H49616   9.576   6.253   0.265 -0.3873 -0.4046  0.0130
  360MOL0     H49617   9.614   6.359   0.075 -1.6058 -1.7342  1.5749
  360MOL0     H49618   9.463   6.432   0.138  0.1351 -0.3776 -1.3186
  360MOL0     H49619   9.583   6.627   0.238 -1.6400 -1.4688  0.1557
  360MOL0     H49620   9.726   6.574   0.138  0.4741  1.3932 -0.9078
  360MOL0     H49621   9.459   6.686   0.067 -0.3440  1.7028 -1.6662
  360MOL0     H49622   9.561   6.606  -0.067 -0.3603 -0.4810  0.9360
  360MOL0     H49623   9.661   6.832   0.112 -1.5275 -0.6217  0.7999
  360MOL0     H49624   9.733   6.768  -0.041 -1.5697 -3.0178 -0.3258
  360MOL0     H49625   9.564   6.860  -0.170  4.1933 -0.4330  0.0418
  360MOL0     H49626   9.633   6.988  -0.080 -1.8487  1.1187  1.3013
  360MOL0     H49627   9.394   7.023  -0.076 -0.8726 -0.7495  0.2464
  360MOL0     H49628   9.359   6.855  -0.020 -0.5170  0.5130 -1.0391
  360MOL0     H49629   9.577   7.139   0.137 -0.5672 -0.9026 -2.1255
  360MOL0     H49630   9.478   7.218   0.452 -0.8035 -1.8264  4.1204
  360MOL0     H49631   9.644   7.170   0.385  0.8903 -1.0306  0.4442
  360MOL0     H49632   9.588   7.142   0.632  0.9372  0.4336 -2.1923
  360MOL0     H49633   9.477   7.014   0.594  0.7541 -2.5888  0.6932
  360MOL0     H49634   9.644   6.889   0.468  0.3223  1.4594 -0.7926
  360MOL0     H49635   9.769   7.003   0.539 -1.0220  0.5801 -2.2906
  360MOL0     H49636   9.568   6.848   0.700 -1.0865 -0.1702 -4.7460
  360MOL0     H49637   9.714   6.768   0.657 -1.7043 -1.2519  1.6522
  360MOL0     H49638   9.913   6.700   0.753 -1.2819 -1.2317  1.4268
  360MOL0     H49639  10.097   6.506   0.988  5.4398 -1.0253 -1.7534
  360MOL0     H49640  10.192   6.633   0.895  0.4552 -1.0269 -0.7500
  360MOL0     H49641  10.087   6.535   0.812  3.3420 -1.9687 -0.5994
  360MOL0     H49642  10.294   6.482   1.247 -2.6842  1.9276 -0.9537
  360MOL0     H49643  10.476   6.431   1.387  4.1476  0.4557  0.1363
  360MOL0     H49644  10.617   6.479   1.612  1.9925 -0.6552  0.6695
  360MOL0     H49645  10.657   6.399   1.467 -3.3928  0.9723  0.4801
  360MOL0     H49646  10.848   6.367   1.594 -1.2511 -1.0861 -0.8519
  360MOL0     H49647  10.890   6.503   1.488 -0.5231 -0.1351 -0.3856
  360MOL0     H49648  10.791   6.543   1.782  3.4691 -2.0600  2.3743
  360MOL0     H49649  10.820   6.678   1.671  0.5526 -0.0311 -0.0899
  360MOL0     H49650  11.039   6.483   1.776 -1.3470 -1.1866 -0.6078
  360MOL0     H49651  11.016   6.644   1.822  0.1089 -0.9248  0.6110
  360MOL0     H49652  11.090   6.585   1.541 -0.8604  0.5394  0.0090
  360MOL0     H49653  11.072   6.743   1.605  2.1959  1.3886  1.7423
  360MOL0     H49654  11.312   6.683   1.581  2.9382 -0.7376  2.4438
  360MOL0     H49655  11.296   6.572   1.718 -3.3415 -2.9164 -0.4101
  360MOL0     H49656  11.234   6.732   1.868  1.2849  3.0644  1.5860
  360MOL0     H49657  11.190   6.853   1.751 -2.3037 -1.2430  1.7412
  360MOL0     H49658  11.480   6.747   1.800 -1.0075 -1.5257  0.3736
  360MOL0     H49659  11.411   6.897   1.866 -1.6502 -0.9392  0.4083
  360MOL0     H49660  10.587   6.854   1.389  0.7778 -1.1555  0.0908
  360MOL0     H49661  10.398   6.908   1.264 -3.4481 -0.6386  0.8300
  360MOL0     H49662   9.986   6.959   1.161  2.8438 -0.3067  0.6444
  360MOL0     H49663   9.828   7.043   0.978 -1.7680 -0.7549 -3.5133
  360MOL0     H49664   9.205   6.302   0.548 -2.0765 -0.5144 -1.4883
  360MOL0     H49665   9.059   6.465   0.674  1.4611  2.0006  2.6031
  360MOL0     H49666   9.017   6.989   0.734 -0.9481  2.6250 -0.1751
  360MOL0     H49667   8.881   7.167   0.820  0.5772  0.0421  3.7160
  360MOL0     H49668   8.520   7.321   0.845  0.6674  1.3998  1.0479
  360MOL0     H49669   8.690   7.307   0.809 -0.6427  2.4563  0.4857
  360MOL0     H49670   8.635   7.170   0.611  0.3604  1.2835 -0.7590
  360MOL0     H49671   8.549   7.322   0.610 -3.6280 -1.3067 -1.5529
  360MOL0     H49672   8.441   7.044   0.664  2.7728 -0.0928  0.4152
  360MOL0     H49673   8.366   7.173   0.743  0.7411 -1.0075  0.1478
  360MOL0     H49674   8.370   7.110   0.462 -0.8080 -0.4940 -0.2798
  360MOL0     H49675   8.339   7.277   0.505  2.4555 -1.2171 -3.1055
  360MOL0     H49676   7.979   7.110   0.639 -1.0370 -2.4995 -1.9278
  360MOL0     H49677   8.574   6.892   0.919 -1.1617 -0.5210 -0.1160
  360MOL0     H49678   8.604   6.657   0.887  0.3449 -2.6512 -2.8968
  360MOL0     H49679   8.735   6.605   0.777  1.3567  0.2765  0.2611
  360MOL0     H49680   8.764   6.612   0.954 -0.5019  0.2295 -0.0924
  361MOL0     O49681   9.514   9.930   9.331 -0.2489 -0.3473 -0.2980
  361MOL0     C49682   9.394   9.939   9.307 -0.0571 -0.8213  0.0702
  361MOL0     O49683   9.331  10.057   9.281 -0.2085  0.1082  0.2092
  361MOL0     C49684   9.371  10.164   9.343  0.4347 -0.8097 -0.9106
  361MOL0     C49685   9.305  10.184   9.466  0.1124 -0.1814 -0.3359
  361MOL0     C49686   9.352  10.281   9.554 -0.2337 -0.2917 -0.4364
  361MOL0     C49687   9.453  10.364   9.526  0.3551 -0.5001  0.6006
  361MOL0     O49688   9.500  10.462   9.613 -0.0737  0.0704  0.7035
  361MOL0     C49689   9.399  10.533   9.692  0.7003  0.1607  0.1190
  361MOL0     C49690   9.295  10.620   9.613 -0.8708 -0.0518  0.2375
  361MOL0     C49691   9.354  10.678   9.488  0.3701  0.3103  1.0400
  361MOL0     C49692   9.476  10.768   9.503 -0.4253  0.0529  0.2325
  361MOL0     C49693   9.427  10.902   9.568 -1.1710 -0.7857 -1.5216
  361MOL0     C49694   9.548  10.987   9.604  1.3936 -0.0634  0.0157
  361MOL0     C49695   9.514  11.118   9.683 -0.6600  0.6464  0.0726
  361MOL0     C49696   9.644  11.202   9.724  0.0754 -0.4308  0.1618
  361MOL0     N49697   9.609  11.334   9.769  0.4202  0.7122 -0.3666
  361MOL0     C49698   9.542  11.358   9.884  0.8521 -0.3601  0.6994
  361MOL0     C49699   9.555  11.494   9.906 -0.6025 -0.2745  0.4069
  361MOL0     C49700   9.498  11.569  10.025  0.0046 -0.3941  0.2657
  361MOL0     C49701   9.428  11.697   9.977  0.4370  0.0940  0.7807
  361MOL0     C49702   9.391  11.788  10.084  0.1284 -0.0871  0.4967
  361MOL0     C49703   9.305  11.736  10.189  0.1449 -0.2820  0.0388
  361MOL0     O49704   9.280  11.835  10.296  0.2506  0.1518 -0.1694
  361MOL0     C49705   9.231  11.794  10.416 -0.3786 -0.8786  0.2921
  361MOL0     C49706   9.219  11.893  10.515 -0.8661 -0.5382 -0.1140
  361MOL0     C49707   9.175  11.862  10.645 -0.1013  0.0826  0.6485
  361MOL0     C49708   9.174  11.970  10.748 -0.5604  0.5039  0.3176
  361MOL0     C49709   9.126  11.735  10.673  0.0048  0.4141 -0.3665
  361MOL0     C49710   9.061  11.705  10.793  0.1551 -0.2357 -0.6984
  361MOL0     O49711   8.944  11.634  10.783 -0.1862  0.0457  0.2778
  361MOL0     C49712   8.892  11.576  10.899 -0.2808 -1.4221  0.7096
  361MOL0     C49713   8.883  11.439  10.908  0.8753 -0.0520  0.6552
  361MOL0     C49714   8.812  11.384  11.021 -0.1831  0.9173 -0.5063
  361MOL0     C49715   8.759  11.466  11.121  0.4631  0.4204  0.5439
  361MOL0     O49716   8.680  11.401  11.215 -0.2128 -1.3065  0.4083
  361MOL0     C49717   8.725  11.438  11.350 -0.3950  0.7053  0.5505
  361MOL0     C49718   8.665  11.315  11.423  0.7638 -0.1743  0.1397
  361MOL0     C49719   8.752  11.280  11.549  0.2058  0.3300  0.1035
  361MOL0     C49720   8.724  11.133  11.595  0.6098 -0.0083  0.5181
  361MOL0     C49721   8.827  11.078  11.695  0.0937  0.2813 -0.6628
  361MOL0     C49722   8.804  10.925  11.712 -0.6615 -0.0437  0.6008
  361MOL0     C49723   8.890  10.860  11.819  0.3033 -0.7337  0.5757
  361MOL0     C49724   8.851  10.711  11.835  0.4021  0.2701  0.0860
  361MOL0    Cl49725   8.708  10.692  11.954  0.1154  0.0166 -0.1121
  361MOL0     C49726   8.766  11.599  11.105 -0.1353 -0.2254 -0.4141
  361MOL0     C49727   8.836  11.653  11.000 -0.1388  0.9021  0.3068
  361MOL0     O49728   9.122  11.730  10.894  0.7835  0.1448  0.0258
  361MOL0     C49729   9.125  11.638  10.568 -0.4871  0.0090  0.0503
  361MOL0     C49730   9.168  11.668  10.439 -0.0026  0.2447  0.0343
  361MOL0     N49731   9.615  11.541   9.792 -0.3652  0.6595  0.3775
  361MOL0     N49732   9.637  11.450   9.712 -0.7771 -0.2380 -0.6680
  361MOL0     C49733   9.525  10.346   9.402 -1.1815  0.4861  0.2863
  361MOL0     C49734   9.491  10.245   9.309 -0.0299  0.1870 -0.1339
  361MOL0     C49735   9.324   9.810   9.282  0.7505 -0.1963 -0.9452
  361MOL0     C49736   9.247   9.806   9.169  1.0138 -0.3815  0.4380
  361MOL0     C49737   9.183   9.686   9.130  0.0489  0.1674 -0.0978
  361MOL0     C49738   9.180   9.580   9.217  0.4876  0.3021  0.0264
  361MOL0     O49739   9.100   9.479   9.192 -0.4226  0.3847  0.4323
  361MOL0     C49740   8.983   9.473   9.278  0.8762  0.1548  0.2933
  361MOL0     C49741   8.943   9.338   9.338  0.2164  0.5479  0.0347
  361MOL0     C49742   9.042   9.287   9.436  0.1440  0.0967 -0.4465
  361MOL0     C49743   8.999   9.155   9.498 -0.3557 -0.0295  0.2838
  361MOL0     C49744   8.911   9.185   9.610  0.7695 -0.2836  0.4191
  361MOL0     C49745   8.841   9.204   9.704 -0.4935 -0.7387 -0.1313
  361MOL0     C49746   9.250   9.585   9.337 -0.1489  0.4149 -0.1433
  361MOL0     C49747   9.322   9.701   9.374 -0.5253  0.2033 -0.3321
  361MOL0     C49748   9.387   9.694   9.511  0.3958 -0.0003  0.0386
  361MOL0     H49749   9.229  10.111   9.494 -0.5615  0.9067  0.7764
  361MOL0     H49750   9.304  10.298   9.651  0.0472  0.3757 -0.4076
  361MOL0     H49751   9.449  10.598   9.765 -1.3465  3.0500 -0.8624
  361MOL0     H49752   9.347  10.465   9.760 -0.2512  2.3087  1.6838
  361MOL0     H49753   9.223  10.545   9.582  0.3835 -0.8382 -0.8645
  361MOL0     H49754   9.248  10.700   9.672  0.2620 -1.3215  3.0806
  361MOL0     H49755   9.376  10.595   9.421  0.7306  0.5541  0.8570
  361MOL0     H49756   9.271  10.735   9.446  0.8218  1.2646  1.4177
  361MOL0     H49757   9.543  10.717   9.573 -1.0615  4.1305  4.3056
  361MOL0     H49758   9.523  10.796   9.409  1.0605  0.1359  0.9780
  361MOL0     H49759   9.369  10.877   9.658 -0.5793  1.1479 -0.5550
  361MOL0     H49760   9.372  10.959   9.493 -0.3714 -0.8531 -2.1773
  361MOL0     H49761   9.599  10.927   9.680 -1.2109 -0.3099  1.6793
  361MOL0     H49762   9.616  11.013   9.522  2.9034  1.9699  1.8006
  361MOL0     H49763   9.463  11.105   9.779  1.1981  3.4894  1.5808
  361MOL0     H49764   9.446  11.177   9.620 -1.1543 -1.0144 -1.0165
  361MOL0     H49765   9.685  11.151   9.811  1.5376 -1.3217 -1.0004
  361MOL0     H49766   9.715  11.211   9.641  1.6600 -0.9286  1.4021
  361MOL0     H49767   9.484  11.286   9.941  0.6204 -1.7664 -1.2277
  361MOL0     H49768   9.580  11.584  10.096  0.8877 -2.5096 -0.2134
  361MOL0     H49769   9.423  11.500  10.064 -2.4211  0.7065 -2.1066
  361MOL0     H49770   9.500  11.750   9.914 -1.6145  2.1582  0.0317
  361MOL0     H49771   9.345  11.674   9.909 -1.3564  2.1087  2.1736
  361MOL0     H49772   9.489  11.803  10.132 -0.8173 -2.2495  3.4265
  361MOL0     H49773   9.348  11.879  10.041  2.1404 -0.2734 -2.1927
  361MOL0     H49774   9.212  11.708  10.138  0.0361 -0.1712  0.1715
  361MOL0     H49775   9.352  11.648  10.232  1.7586  2.0163  3.4457
  361MOL0     H49776   9.249  11.995  10.493 -0.7017 -1.0564 -2.5760
  361MOL0     H49777   9.158  12.066  10.698 -0.6889 -0.2339 -1.1047
  361MOL0     H49778   9.267  11.974  10.805 -0.0095  3.1038 -0.6068
  361MOL0     H49779   9.081  11.953  10.804  0.2117 -1.7309  0.9886
  361MOL0     H49780   8.929  11.372  10.835  0.8698 -0.0023  0.6063
  361MOL0     H49781   8.798  11.277  11.025 -0.4532  0.8739 -1.9166
  361MOL0     H49782   8.834  11.441  11.353  0.1669 -1.1177 -5.3876
  361MOL0     H49783   8.673  11.527  11.386  2.1340  1.1856  3.3215
  361MOL0     H49784   8.560  11.338  11.444  0.4906  1.0611 -2.2774
  361MOL0     H49785   8.655  11.221  11.367 -4.4567 -0.2750  0.7713
  361MOL0     H49786   8.731  11.355  11.625  0.5339  1.5125 -0.9425
  361MOL0     H49787   8.856  11.289  11.517  0.1587  1.9524  0.3425
  361MOL0     H49788   8.734  11.080  11.500 -0.8830  1.7169 -0.6652
  361MOL0     H49789   8.622  11.127  11.634  0.2805 -0.3691 -0.3794
  361MOL0     H49790   8.928  11.092  11.655 -0.2223  1.1935 -1.1720
  361MOL0     H49791   8.811  11.138  11.785 -0.7599 -1.7355  0.5926
  361MOL0     H49792   8.829  10.873  11.619  1.3104  2.8128 -0.5994
  361MOL0     H49793   8.696  10.913  11.727 -1.1966  0.2285 -2.5448
  361MOL0     H49794   8.866  10.913  11.912 -0.8528 -1.7284  0.8597
  361MOL0     H49795   8.997  10.866  11.796  0.8953 -1.5785  2.8371
  361MOL0     H49796   8.932  10.651  11.876 -0.1220 -0.8130 -0.4268
  361MOL0     H49797   8.824  10.667  11.738 -0.4325  3.4748 -1.2757
  361MOL0     H49798   8.725  11.663  11.182  1.9346 -0.5190  1.0177
  361MOL0     H49799   8.842  11.762  10.997 -2.6376  1.1332  1.0575
  361MOL0     H49800   9.071  11.545  10.583 -0.9011  0.5011  1.8841
  361MOL0     H49801   9.137  11.596  10.364 -0.2343 -1.8596  2.0331
  361MOL0     H49802   9.611  10.409   9.385 -0.7160 -0.2637 -0.1407
  361MOL0     H49803   9.536  10.249   9.210  0.1792 -0.8997 -0.0945
  361MOL0     H49804   9.228   9.880   9.092 -2.0658 -0.9467  0.5299
  361MOL0     H49805   9.132   9.685   9.034  1.0176  0.8219 -0.6348
  361MOL0     H49806   8.985   9.546   9.360  0.3727  0.2451  0.2282
  361MOL0     H49807   8.899   9.500   9.213  1.8914 -0.6534 -1.4315
  361MOL0     H49808   8.927   9.269   9.254 -0.9027  2.3237 -1.2816
  361MOL0     H49809   8.848   9.349   9.391 -1.2983  1.5541 -2.7095
  361MOL0     H49810   9.133   9.269   9.378  0.2197 -0.7606 -0.0760
  361MOL0     H49811   9.068   9.359   9.514 -0.0257 -1.9775  1.6348
  361MOL0     H49812   9.090   9.110   9.539  0.1953  1.0384  0.2864
  361MOL0     H49813   8.946   9.091   9.428 -0.7236 -1.6459  1.9615
  361MOL0     H49814   8.791   9.245   9.788 -1.6311 -2.8448  0.2975
  361MOL0     H49815   9.224   9.518   9.419 -1.9900  2.3961  0.9778
  361MOL0     H49816   9.316   9.704   9.593  1.2637  0.1295  0.7943
  361MOL0     H49817   9.433   9.597   9.532  0.4117  0.3255  1.6290
  361MOL0     H49818   9.466   9.766   9.535  1.0712 -1.3182  2.0291
  362MOL0     O49819   4.435   2.926   2.042 -0.1900  1.1815  0.6381
  362MOL0     C49820   4.545   2.971   2.087  0.8670 -0.1328  0.5366
  362MOL0     O49821   4.664   2.950   2.023  0.5848 -0.4725  0.3623
  362MOL0     C49822   4.665   2.924   1.887  0.2783  0.6725 -0.5625
  362MOL0     C49823   4.683   3.020   1.791  0.0208 -0.7455  0.8845
  362MOL0     C49824   4.693   2.991   1.651 -0.5932 -0.2609 -0.1090
  362MOL0     C49825   4.692   2.855   1.613  1.0017 -0.2656  0.0462
  362MOL0     O49826   4.744   2.818   1.493  0.3013 -0.0372 -0.2147
  362MOL0     C49827   4.705   2.896   1.382  0.2563  0.5159  0.7758
  362MOL0     C49828   4.573   2.858   1.322  0.5287 -0.1096  0.1337
  362MOL0     C49829   4.527   2.933   1.190  0.9559 -0.9382 -0.0257
  362MOL0     C49830   4.433   3.052   1.214 -0.3081 -0.5442 -0.4820
  362MOL0     C49831   4.488   3.158   1.316  0.5934 -0.8961  0.5647
  362MOL0     C49832   4.606   3.236   1.245  1.0214 -0.7579 -0.7584
  362MOL0     C49833   4.645   3.351   1.340 -0.2836  0.2498  0.7721
  362MOL0     C49834   4.805   3.356   1.366 -1.3708  0.6908  0.5439
  362MOL0     N49835   4.830   3.422   1.490  0.1185 -0.6287  0.2984
  362MOL0     C49836   4.850   3.365   1.611  0.5912 -0.2955 -0.4122
  362MOL0     C49837   4.870   3.481   1.679 -1.1178  0.5762  0.5281
  362MOL0     C49838   4.899   3.499   1.829  0.4541 -0.0914 -0.0514
  362MOL0     C49839   4.776   3.518   1.915  0.1930 -0.1890 -0.9169
  362MOL0     C49840   4.676   3.397   1.886 -0.6909  0.2125  1.2309
  362MOL0     C49841   4.536   3.403   1.953 -0.3265 -0.4391  0.5079
  362MOL0     O49842   4.453   3.290   1.938  0.3650  0.1109 -0.3204
  362MOL0     C49843   4.377   3.291   1.829 -0.0265  0.3441 -0.9997
  362MOL0     C49844   4.365   3.172   1.758  0.4292 -0.1976 -1.0264
  362MOL0     C49845   4.261   3.160   1.658 -1.2808 -0.7683 -1.0977
  362MOL0     C49846   4.252   3.027   1.591 -0.5821 -0.1779 -0.1893
  362MOL0     C49847   4.178   3.263   1.629 -0.4820  0.2987 -0.2843
  362MOL0     C49848   4.073   3.254   1.529  0.1424  0.1808 -0.4002
  362MOL0     O49849   4.087   3.188   1.404 -0.6532  0.3007  0.9638
  362MOL0     C49850   4.008   3.221   1.294 -0.4270  1.1523 -1.3452
  362MOL0     C49851   4.067   3.302   1.197  0.7005 -0.3280 -0.6610
  362MOL0     C49852   3.994   3.338   1.090  0.3233  0.8399 -1.2123
  362MOL0     C49853   3.875   3.274   1.059 -0.0010 -0.1881  0.2507
  362MOL0     O49854   3.813   3.312   0.935  0.4364 -0.2215  0.3779
  362MOL0     C49855   3.667   3.319   0.926 -0.0602 -0.2062 -0.7526
  362MOL0     C49856   3.598   3.339   0.787  0.7515 -0.7705  0.4761
  362MOL0     C49857   3.452   3.395   0.807  0.2992 -0.7460  0.3549
  362MOL0     C49858   3.382   3.431   0.685 -0.1105  0.9967  0.3459
  362MOL0     C49859   3.272   3.529   0.721  0.2440  0.9875  0.6532
  362MOL0     C49860   3.327   3.669   0.723  0.5539  0.0561  0.2546
  362MOL0     C49861   3.218   3.774   0.740 -0.3983 -0.5825  0.1141
  362MOL0     C49862   3.292   3.907   0.767 -0.3288  0.1926 -0.4773
  362MOL0    Cl49863   3.190   4.049   0.794 -0.0751 -0.1781 -0.0796
  362MOL0     C49864   3.818   3.190   1.153  0.2647 -0.2705  0.6729
  362MOL0     C49865   3.887   3.162   1.274  0.2767  0.2337 -0.0706
  362MOL0     O49866   3.971   3.312   1.561 -0.5707 -0.3639  0.4304
  362MOL0     C49867   4.191   3.380   1.702 -0.1434 -0.8269 -0.0411
  362MOL0     C49868   4.277   3.391   1.807 -0.1533  0.8562 -0.0289
  362MOL0     N49869   4.884   3.595   1.593  0.3872 -0.1256 -0.5514
  362MOL0     N49870   4.845   3.553   1.484 -0.3619  0.7375  0.6431
  362MOL0     C49871   4.675   2.763   1.714 -0.0188  0.1134  0.2276
  362MOL0     C49872   4.652   2.789   1.848  0.3295 -0.6713 -0.1042
  362MOL0     C49873   4.538   3.044   2.209 -0.3522 -0.5542  0.7107
  362MOL0     C49874   4.660   3.064   2.291 -0.3788 -0.0383 -0.0072
  362MOL0     C49875   4.666   3.162   2.385 -1.1300 -0.6391 -0.0178
  362MOL0     C49876   4.562   3.235   2.421 -0.4371 -0.6220 -0.0253
  362MOL0     O49877   4.580   3.326   2.518 -0.1988 -0.4470  0.2987
  362MOL0     C49878   4.474   3.411   2.563 -0.2307  0.3807 -1.3617
  362MOL0     C49879   4.470   3.546   2.497 -0.4213  1.0164 -0.0013
  362MOL0     C49880   4.593   3.636   2.537 -0.8705  0.5466  0.4651
  362MOL0     C49881   4.605   3.667   2.687 -0.2053 -0.0980  0.1818
  362MOL0     C49882   4.492   3.759   2.717 -0.0558 -1.4692 -0.2525
  362MOL0     C49883   4.390   3.827   2.727  0.6165  0.4060  0.6266
  362MOL0     C49884   4.440   3.214   2.352 -0.3906 -0.6360  0.1799
  362MOL0     C49885   4.426   3.119   2.251 -0.5318 -0.6562  0.3847
  362MOL0     C49886   4.294   3.121   2.177 -0.4720  0.7801  0.4706
  362MOL0     H49887   4.668   3.126   1.806 -2.9414 -0.4757 -2.5847
  362MOL0     H49888   4.720   3.075   1.589  2.6789 -0.8823  0.3050
  362MOL0     H49889   4.776   2.878   1.301  0.4671  1.4436  0.7445
  362MOL0     H49890   4.706   3.005   1.396  0.3051  0.5800  0.2711
  362MOL0     H49891   4.576   2.751   1.297  0.9511  0.1499 -0.9879
  362MOL0     H49892   4.494   2.866   1.397 -0.5380  1.7926 -1.1304
  362MOL0     H49893   4.611   2.955   1.123 -0.4058 -1.7854 -2.0879
  362MOL0     H49894   4.462   2.867   1.132 -0.5955  0.0876  0.4811
  362MOL0     H49895   4.412   3.094   1.115 -0.0907 -0.5063 -0.5113
  362MOL0     H49896   4.336   3.017   1.250 -1.3439  1.4528 -1.1628
  362MOL0     H49897   4.523   3.105   1.405  3.9541  2.9099  1.8084
  362MOL0     H49898   4.410   3.231   1.340  1.0864  0.1109 -0.7231
  362MOL0     H49899   4.690   3.174   1.214 -0.2262 -1.9027 -1.9931
  362MOL0     H49900   4.565   3.268   1.149 -1.5500 -0.9898  0.1813
  362MOL0     H49901   4.614   3.340   1.444 -0.5793  3.3525  1.1323
  362MOL0     H49902   4.618   3.449   1.298  0.8225  0.5920  0.8415
  362MOL0     H49903   4.842   3.254   1.381 -2.4988  0.4603  1.9274
  362MOL0     H49904   4.858   3.403   1.282 -0.7851 -1.5884 -0.4584
  362MOL0     H49905   4.829   3.269   1.659 -0.9013  1.2500  2.2691
  362MOL0     H49906   4.968   3.584   1.830 -0.4910  0.6924  0.7830
  362MOL0     H49907   4.954   3.415   1.872 -0.4362  0.3280  2.0641
  362MOL0     H49908   4.806   3.522   2.020  2.5659 -0.6525 -1.5331
  362MOL0     H49909   4.735   3.616   1.891 -0.6759 -0.2326  0.2951
  362MOL0     H49910   4.650   3.394   1.780 -3.3116  0.9198  1.7599
  362MOL0     H49911   4.721   3.304   1.921  1.5328  0.1505 -1.4651
  362MOL0     H49912   4.571   3.412   2.056 -0.7209  0.8592  0.5425
  362MOL0     H49913   4.486   3.499   1.940 -0.9574 -0.5638  1.8596
  362MOL0     H49914   4.439   3.097   1.784 -2.2213 -2.5439  0.2808
  362MOL0     H49915   4.273   3.032   1.484  0.0762  1.5553 -0.0087
  362MOL0     H49916   4.155   2.977   1.602 -1.1509  1.0396  0.6876
  362MOL0     H49917   4.331   2.965   1.634 -1.2276 -0.3694  0.7640
  362MOL0     H49918   4.162   3.349   1.220 -0.2962  1.1774  0.5144
  362MOL0     H49919   4.030   3.416   1.024 -0.2308  0.4332 -2.0224
  362MOL0     H49920   3.624   3.223   0.955  1.2018  0.2021  3.0499
  362MOL0     H49921   3.637   3.395   0.999  0.4254  0.7526 -1.5171
  362MOL0     H49922   3.655   3.413   0.730  3.6228 -2.8557  0.4054
  362MOL0     H49923   3.589   3.247   0.728  0.7274 -0.5369  0.1105
  362MOL0     H49924   3.460   3.483   0.871 -3.4378 -0.5897  0.7920
  362MOL0     H49925   3.398   3.317   0.862 -1.2797  2.0845  3.1199
  362MOL0     H49926   3.342   3.336   0.648  1.3014  0.3720  0.3407
  362MOL0     H49927   3.449   3.473   0.609 -0.8930  1.4166 -0.1188
  362MOL0     H49928   3.199   3.528   0.639 -0.6301 -0.8041  1.3914
  362MOL0     H49929   3.223   3.495   0.813  1.1702 -0.2456  0.7165
  362MOL0     H49930   3.388   3.685   0.634  0.3250 -0.2058  0.0476
  362MOL0     H49931   3.385   3.688   0.814 -1.6715 -0.3411  1.8502
  362MOL0     H49932   3.145   3.746   0.817 -1.6348 -2.3311 -1.6066
  362MOL0     H49933   3.154   3.779   0.652  0.0523  1.2724 -0.1405
  362MOL0     H49934   3.353   3.936   0.680  0.4217  0.0197 -0.0217
  362MOL0     H49935   3.359   3.903   0.853 -2.2187  3.1127  1.2801
  362MOL0     H49936   3.718   3.156   1.127  0.8248 -1.4677  0.0472
  362MOL0     H49937   3.844   3.088   1.340 -2.3284  2.2090  0.6201
  362MOL0     H49938   4.123   3.464   1.695  2.8932  1.7965 -0.2214
  362MOL0     H49939   4.269   3.474   1.875  1.7018  0.4996  0.7002
  362MOL0     H49940   4.685   2.658   1.689 -1.0617  0.1192 -0.2641
  362MOL0     H49941   4.623   2.707   1.914  1.4812  0.4340  1.8501
  362MOL0     H49942   4.750   3.012   2.261 -0.7855 -1.1804  0.6607
  362MOL0     H49943   4.759   3.173   2.440  0.6798 -2.8788 -2.4248
  362MOL0     H49944   4.377   3.362   2.553 -0.2705 -1.2221  3.7999
  362MOL0     H49945   4.485   3.413   2.672  0.2806 -2.2228 -1.3051
  362MOL0     H49946   4.379   3.605   2.509 -0.2967  1.7670 -2.2760
  362MOL0     H49947   4.473   3.522   2.391 -1.3887  0.5006  0.0719
  362MOL0     H49948   4.680   3.588   2.491 -1.2021  0.8224 -0.4827
  362MOL0     H49949   4.582   3.734   2.489  0.8254  1.7223  2.3151
  362MOL0     H49950   4.705   3.710   2.693  0.3282 -1.3974  0.9976
  362MOL0     H49951   4.596   3.578   2.750 -0.7988  1.3816  2.2893
  362MOL0     H49952   4.312   3.898   2.748  3.3794  3.2620  2.1738
  362MOL0     H49953   4.353   3.278   2.367 -2.2261 -1.9879 -3.5778
  362MOL0     H49954   4.296   3.158   2.074 -1.5653 -0.4359 -0.0081
  362MOL0     H49955   4.257   3.019   2.167 -1.0341  1.2276 -3.7225
  362MOL0     H49956   4.230   3.183   2.239 -0.4085  3.9325 -2.3195
  363MOL0     O49957  10.638   5.489   7.775 -0.2053 -0.7315  0.0059
  363MOL0     C49958  10.689   5.473   7.885  0.5323  0.6310  0.2003
  363MOL0     O49959  10.827   5.450   7.912  0.8514 -0.5428  1.0154
  363MOL0     C49960  10.926   5.459   7.823 -0.9711  0.3200 -0.5038
  363MOL0     C49961  10.929   5.460   7.679 -0.0709 -0.1509 -0.7050
  363MOL0     C49962  11.048   5.498   7.616 -0.4034 -0.0063  0.6789
  363MOL0     C49963  11.172   5.523   7.689 -0.6924  0.2016  0.7257
  363MOL0     O49964  11.290   5.550   7.635  0.1946  0.0656 -0.5145
  363MOL0     C49965  11.388   5.443   7.634 -0.1471 -0.4406 -0.8298
  363MOL0     C49966  11.515   5.465   7.560  0.7160 -0.1946  1.0713
  363MOL0     C49967  11.606   5.573   7.623  0.1929 -0.2529 -0.7120
  363MOL0     C49968  11.669   5.664   7.525  0.0648 -0.5117  0.6993
  363MOL0     C49969  11.788   5.741   7.586  0.3279  0.2475 -0.5854
  363MOL0     C49970  11.856   5.827   7.487 -0.1533  0.2253 -0.2861
  363MOL0     C49971  11.771   5.943   7.439  0.0146 -0.3743  0.2775
  363MOL0     C49972  11.830   5.982   7.300 -0.5449  0.9876 -0.9478
  363MOL0     N49973  11.787   6.121   7.279  0.1692  0.4788 -0.3031
  363MOL0     C49974  11.668   6.171   7.229 -0.4465  1.0537  0.7392
  363MOL0     C49975  11.683   6.303   7.207 -0.0738  0.4273 -0.2726
  363MOL0     C49976  11.574   6.399   7.156  0.0603  0.6768  0.0848
  363MOL0     C49977  11.642   6.501   7.061  0.0507 -0.0037  0.3688
  363MOL0     C49978  11.553   6.626   7.038 -0.4591  0.1090 -0.3162
  363MOL0     C49979  11.640   6.749   6.999 -0.2550  0.1616  0.3203
  363MOL0     O49980  11.561   6.869   7.016  0.1026  0.1072  0.2586
  363MOL0     C49981  11.582   6.989   6.949 -0.6732 -0.3142 -0.0720
  363MOL0     C49982  11.471   7.076   6.939  0.0415 -0.9924  0.8296
  363MOL0     C49983  11.476   7.193   6.861 -0.3279  0.3039  0.3356
  363MOL0     C49984  11.353   7.288   6.851  0.1096  0.9744  0.3007
  363MOL0     C49985  11.595   7.215   6.779  0.0612 -0.7842 -0.5644
  363MOL0     C49986  11.607   7.322   6.670  0.9839 -0.0430  0.0375
  363MOL0     O49987  11.712   7.303   6.589  0.7154 -0.0028 -0.1743
  363MOL0     C49988  11.696   7.343   6.455  0.2429  0.0809 -0.6130
  363MOL0     C49989  11.653   7.250   6.357 -0.6186  0.0727 -0.1874
  363MOL0     C49990  11.682   7.278   6.224  0.1331 -0.3173  0.3495
  363MOL0     C49991  11.749   7.394   6.182 -0.0866  0.5893  0.4818
  363MOL0     O49992  11.768   7.410   6.046 -0.1642 -0.6871  0.0465
  363MOL0     C49993  11.827   7.535   5.996 -0.1242  0.6146 -1.1256
  363MOL0     C49994  11.781   7.554   5.850 -0.3130  0.8608  0.3237
  363MOL0     C49995  11.823   7.687   5.785  0.6677  0.8940 -0.7846
  363MOL0     C49996  11.881   7.659   5.651  0.3881 -0.7782  0.0840
  363MOL0     C49997  11.956   7.783   5.596  0.8573 -0.8979 -0.7381
  363MOL0     C49998  12.083   7.823   5.683  0.3482 -0.6341  0.1073
  363MOL0     C49999  12.185   7.910   5.609 -0.6337 -0.6860 -0.4400
  363MOL0     C50000  12.298   7.819   5.546 -0.0270  0.1880 -0.9417
  363MOL0    Cl50001  12.388   7.914   5.422 -0.3570 -0.1509 -0.3144
  363MOL0     C50002  11.768   7.490   6.277  0.9455 -0.1481  0.5724
  363MOL0     C50003  11.742   7.471   6.412  0.3952 -0.2444 -0.5574
  363MOL0     O50004  11.519   7.410   6.653 -0.8769 -0.0396 -0.3492
  363MOL0     C50005  11.701   7.117   6.788  0.3344  0.1952 -0.1449
  363MOL0     C50006  11.699   7.014   6.879 -1.7572 -0.0205  1.3280
  363MOL0     N50007  11.808   6.332   7.248  0.2116  0.5687  0.4473
  363MOL0     N50008  11.875   6.225   7.276 -0.4132  0.0838  0.1463
  363MOL0     C50009  11.164   5.507   7.832 -0.1273  0.6321 -0.4204
  363MOL0     C50010  11.045   5.473   7.897 -0.5917  0.1405  0.4835
  363MOL0     C50011  10.596   5.458   7.995 -0.1901 -0.0531 -0.1532
  363MOL0     C50012  10.614   5.536   8.109  1.4757  0.2134 -0.9952
  363MOL0     C50013  10.513   5.526   8.214  0.0211 -0.2828 -0.4421
  363MOL0     C50014  10.408   5.426   8.204 -1.0929 -0.3315 -0.7343
  363MOL0     O50015  10.298   5.402   8.280  0.0875 -0.7514  0.0611
  363MOL0     C50016  10.242   5.516   8.341 -1.4740 -0.1197  0.0461
  363MOL0     C50017  10.138   5.489   8.450 -0.0580 -0.8017 -0.8043
  363MOL0     C50018  10.091   5.611   8.539  0.0641  0.3055  0.1057
  363MOL0     C50019   9.959   5.601   8.601  0.4125  0.3167 -1.3018
  363MOL0     C50020   9.973   5.497   8.709  0.0064  0.3088  0.3004
  363MOL0     C50021   9.989   5.407   8.791 -1.0053 -0.2005 -0.2234
  363MOL0     C50022  10.403   5.346   8.097  0.4715 -0.1733  1.5262
  363MOL0     C50023  10.488   5.360   7.984  0.5064  0.6002 -0.5545
  363MOL0     C50024  10.468   5.263   7.875 -0.4919  0.4336 -0.4449
  363MOL0     H50025  10.841   5.463   7.616 -1.0457  0.8903  0.6494
  363MOL0     H50026  11.044   5.513   7.508  0.7937 -1.3874  0.4156
  363MOL0     H50027  11.338   5.353   7.598 -2.0015  0.1344  0.1988
  363MOL0     H50028  11.414   5.432   7.740 -1.9557 -3.8585 -0.5993
  363MOL0     H50029  11.578   5.375   7.561  4.2318  2.0343  0.2282
  363MOL0     H50030  11.489   5.493   7.457  0.4270 -2.2101  0.5525
  363MOL0     H50031  11.543   5.639   7.685  0.4986 -1.1255  0.5683
  363MOL0     H50032  11.679   5.521   7.685  1.7857 -0.2735 -2.5308
  363MOL0     H50033  11.705   5.607   7.439 -0.6943 -0.7918  0.5598
  363MOL0     H50034  11.589   5.724   7.481 -1.5030 -3.2476 -0.3513
  363MOL0     H50035  11.864   5.670   7.617  0.2102  0.9786  1.5756
  363MOL0     H50036  11.755   5.811   7.664 -2.0356  2.9349 -3.7249
  363MOL0     H50037  11.949   5.855   7.536  0.6248 -1.3315 -0.8076
  363MOL0     H50038  11.877   5.770   7.395  0.6306 -0.2767  0.1947
  363MOL0     H50039  11.783   6.040   7.488 -2.1799  1.6901 -2.8655
  363MOL0     H50040  11.668   5.911   7.420  0.2069 -2.3880  2.2262
  363MOL0     H50041  11.939   5.975   7.310 -0.5834  1.1298 -0.3822
  363MOL0     H50042  11.794   5.916   7.220 -1.9281  1.9151 -1.1158
  363MOL0     H50043  11.571   6.124   7.215  0.6013 -0.4432 -2.7599
  363MOL0     H50044  11.540   6.440   7.251  0.2360  1.6499 -0.2637
  363MOL0     H50045  11.493   6.341   7.110  2.4220 -3.4163  0.6167
  363MOL0     H50046  11.736   6.539   7.102 -0.7097 -0.4774  2.7754
  363MOL0     H50047  11.664   6.446   6.970  1.8438 -0.6965  1.1811
  363MOL0     H50048  11.482   6.617   6.956 -0.9202  4.2768 -0.6016
  363MOL0     H50049  11.501   6.655   7.129  1.2049 -2.4496  1.5848
  363MOL0     H50050  11.730   6.753   7.061  0.1051 -1.4377 -0.0554
  363MOL0     H50051  11.664   6.751   6.892  0.7431 -0.2189  0.5295
  363MOL0     H50052  11.386   7.064   7.005  0.7196  1.3747  2.2538
  363MOL0     H50053  11.391   7.390   6.850 -2.3059  1.9835  2.2178
  363MOL0     H50054  11.292   7.284   6.941  1.1406  2.9393  1.1355
  363MOL0     H50055  11.286   7.254   6.771 -0.4947 -1.5228  1.7458
  363MOL0     H50056  11.612   7.153   6.382 -0.1910 -0.0866 -0.0903
  363MOL0     H50057  11.674   7.199   6.150 -0.1652 -1.2224  1.3242
  363MOL0     H50058  11.802   7.627   6.050  0.9852  0.8642 -1.0207
  363MOL0     H50059  11.935   7.525   5.999 -0.3456 -3.5742  0.6933
  363MOL0     H50060  11.826   7.472   5.793  1.4527 -0.6669  3.6793
  363MOL0     H50061  11.671   7.552   5.842 -0.1882 -0.9511 -1.6705
  363MOL0     H50062  11.899   7.725   5.854 -1.0345  0.2570  1.5592
  363MOL0     H50063  11.742   7.760   5.789 -1.1553 -0.9905  3.8295
  363MOL0     H50064  11.797   7.634   5.585  1.0424  2.7020 -2.3302
  363MOL0     H50065  11.954   7.577   5.649  0.8312 -0.3796 -0.2464
  363MOL0     H50066  11.981   7.774   5.490 -1.3219 -4.3991 -1.0827
  363MOL0     H50067  11.880   7.859   5.579  2.1353  0.6507  0.1363
  363MOL0     H50068  12.130   7.735   5.729  0.7548 -1.8350 -2.4287
  363MOL0     H50069  12.046   7.891   5.760 -2.0979 -0.8185 -0.8108
  363MOL0     H50070  12.221   7.988   5.677 -1.9099 -2.5390  2.5728
  363MOL0     H50071  12.129   7.957   5.527  0.4603  1.4005 -0.0764
  363MOL0     H50072  12.236   7.741   5.500 -1.3216 -0.8518  2.2839
  363MOL0     H50073  12.363   7.795   5.631  0.6796  5.0958  0.1915
  363MOL0     H50074  11.807   7.591   6.266  2.6168 -0.5736  2.0281
  363MOL0     H50075  11.787   7.537   6.486  2.0225 -0.7889 -1.0070
  363MOL0     H50076  11.783   7.123   6.717  2.0489  1.1099  1.8154
  363MOL0     H50077  11.781   6.944   6.888  0.4033  2.2871  0.6853
  363MOL0     H50078  11.250   5.509   7.898  0.3327  2.1226 -1.0183
  363MOL0     H50079  11.041   5.474   8.006 -1.4609  1.2808  0.4624
  363MOL0     H50080  10.694   5.609   8.121  2.3140 -0.7996 -0.2528
  363MOL0     H50081  10.509   5.602   8.291 -1.4748 -1.4222  0.6437
  363MOL0     H50082  10.319   5.571   8.395 -1.0511 -0.1039 -0.5700
  363MOL0     H50083  10.192   5.578   8.266 -1.3490 -1.3177 -1.0705
  363MOL0     H50084  10.182   5.411   8.513  0.2703  0.4853  0.6162
  363MOL0     H50085  10.044   5.453   8.408 -0.7225  0.4738 -0.4735
  363MOL0     H50086  10.168   5.639   8.612 -1.8733  1.1018  1.9697
  363MOL0     H50087  10.085   5.682   8.456  1.6978 -0.5051 -0.7624
  363MOL0     H50088   9.876   5.575   8.534 -1.3523  0.4932  0.7073
  363MOL0     H50089   9.929   5.698   8.642  2.2438  0.8992 -1.2741
  363MOL0     H50090  10.015   5.330   8.861  0.2886 -0.3157 -0.8000
  363MOL0     H50091  10.332   5.264   8.102 -0.7035  0.7086  0.2062
  363MOL0     H50092  10.424   5.174   7.921  0.4893 -0.5930 -1.4247
  363MOL0     H50093  10.409   5.294   7.788  0.6366  0.1971 -1.3312
  363MOL0     H50094  10.564   5.229   7.835 -0.4184 -2.5150  1.8577
  364MOL0     O50095   5.978   9.305   7.242  0.0956  0.3970  0.1924
  364MOL0     C50096   5.998   9.392   7.158 -0.6178 -0.1461  0.1491
  364MOL0     O50097   6.082   9.490   7.186 -0.0624 -0.2858  0.4554
  364MOL0     C50098   6.096   9.531   7.317  0.1125  0.1347 -0.7465
  364MOL0     C50099   6.222   9.564   7.363  0.8591 -0.5126  0.6674
  364MOL0     C50100   6.245   9.635   7.479  0.4573  0.0578 -1.2443
  364MOL0     C50101   6.132   9.678   7.553  0.0430  0.4360 -0.0997
  364MOL0     O50102   6.139   9.754   7.661 -0.2004 -0.4723  0.1690
  364MOL0     C50103   6.044   9.853   7.705 -0.2347  0.5851  1.0049
  364MOL0     C50104   6.118   9.933   7.813  0.7249 -0.4207 -0.1613
  364MOL0     C50105   6.044  10.065   7.844  0.1279  0.5810 -0.6835
  364MOL0     C50106   5.911  10.041   7.915 -0.0925  0.6403  1.1714
  364MOL0     C50107   5.815  10.152   7.915 -0.3014 -0.5911  0.7875
  364MOL0     C50108   5.668  10.116   7.965 -0.0051  0.9459  0.5600
  364MOL0     C50109   5.564  10.180   7.864 -0.6664 -0.1594  0.3690
  364MOL0     C50110   5.587  10.137   7.724  0.5082  0.2729  1.0594
  364MOL0     N50111   5.620  10.002   7.709 -0.0456 -0.2696  0.2698
  364MOL0     C50112   5.530   9.901   7.736 -0.8062  0.2906  0.9242
  364MOL0     C50113   5.584   9.783   7.683 -0.3979  0.3444  0.0253
  364MOL0     C50114   5.530   9.649   7.667  0.0656 -0.3584  0.1813
  364MOL0     C50115   5.456   9.590   7.795 -0.1940  0.3428 -0.4412
  364MOL0     C50116   5.531   9.614   7.933 -0.4765  0.2598 -0.2333
  364MOL0     C50117   5.455   9.527   8.045  0.7894  0.6347  0.0335
  364MOL0     O50118   5.463   9.388   8.014 -1.1654 -0.3842  0.0354
  364MOL0     C50119   5.346   9.313   8.010  0.3468  0.1840  0.0300
  364MOL0     C50120   5.346   9.209   7.915  0.3154 -0.2251 -0.0794
  364MOL0     C50121   5.246   9.113   7.910  0.0298  0.4380  0.3446
  364MOL0     C50122   5.249   9.000   7.804  0.0616  0.8395  0.3395
  364MOL0     C50123   5.134   9.123   7.982 -0.2665 -0.2705 -0.6586
  364MOL0     C50124   5.013   9.045   7.960  0.3903  0.8349 -0.3642
  364MOL0     O50125   4.971   9.039   7.827 -0.1404 -0.8766 -0.3295
  364MOL0     C50126   4.868   8.948   7.795  0.1319 -0.8071  0.0842
  364MOL0     C50127   4.732   8.985   7.835 -0.2525  0.0027  0.0097
  364MOL0     C50128   4.633   8.897   7.806  0.3603 -0.6317 -0.3261
  364MOL0     C50129   4.657   8.768   7.756 -0.0981 -0.0987 -0.1802
  364MOL0     O50130   4.557   8.673   7.734  0.2525 -0.6918  0.0782
  364MOL0     C50131   4.463   8.640   7.840 -0.5740 -0.8576 -0.0808
  364MOL0     C50132   4.361   8.546   7.781 -0.0768 -0.2811  0.3295
  364MOL0     C50133   4.228   8.527   7.865 -0.4025 -0.2177  0.6771
  364MOL0     C50134   4.136   8.648   7.848 -0.0300 -0.2869  0.0358
  364MOL0     C50135   4.004   8.657   7.929  0.6600  0.4521  0.2098
  364MOL0     C50136   3.923   8.787   7.910  1.2690  0.7114 -0.1673
  364MOL0     C50137   3.773   8.758   7.915  0.3753 -0.0477  0.1159
  364MOL0     C50138   3.704   8.885   7.857 -0.7878 -0.7833  0.5976
  364MOL0    Cl50139   3.718   9.008   7.979  0.1491  0.5102  0.0602
  364MOL0     C50140   4.787   8.739   7.718 -0.1578 -0.0614 -0.1088
  364MOL0     C50141   4.898   8.821   7.738  0.1226 -0.3722  0.4051
  364MOL0     O50142   4.955   8.992   8.056  0.8890 -0.0828  0.2596
  364MOL0     C50143   5.126   9.219   8.086  0.1301 -1.1902  0.0908
  364MOL0     C50144   5.238   9.317   8.099  0.7296 -0.7236  0.2787
  364MOL0     N50145   5.703   9.813   7.629 -0.4706 -0.0651 -0.2458
  364MOL0     N50146   5.730   9.943   7.648  0.2317 -0.1679  0.4344
  364MOL0     C50147   6.010   9.644   7.509 -0.4025 -0.9353  0.2375
  364MOL0     C50148   5.993   9.561   7.400 -0.9816  1.2239 -0.8931
  364MOL0     C50149   5.935   9.380   7.023  0.1607  0.8484  0.6019
  364MOL0     C50150   5.960   9.481   6.929 -0.8309  0.8813 -0.3050
  364MOL0     C50151   5.907   9.463   6.797 -0.2497  1.4292 -0.0023
  364MOL0     C50152   5.841   9.356   6.751  0.2876 -0.0574  0.2973
  364MOL0     O50153   5.802   9.357   6.620 -0.1298 -0.4643  0.0424
  364MOL0     C50154   5.778   9.230   6.558 -1.3383  0.6859  0.3036
  364MOL0     C50155   5.631   9.193   6.559 -0.4369 -0.2400 -1.1549
  364MOL0     C50156   5.599   9.041   6.537  0.4817  1.6189  0.2845
  364MOL0     C50157   5.457   9.005   6.492 -0.4108  0.5758  0.4032
  364MOL0     C50158   5.360   9.077   6.579 -1.0263 -0.2888 -0.3048
  364MOL0     C50159   5.287   9.130   6.651  0.3910 -0.3019 -0.1815
  364MOL0     C50160   5.810   9.258   6.849  0.0929  0.7866 -0.3084
  364MOL0     C50161   5.853   9.269   6.982 -0.2563 -0.0751  0.2304
  364MOL0     C50162   5.816   9.148   7.065 -0.9662 -0.3587 -0.2480
  364MOL0     H50163   6.311   9.533   7.309 -1.4476 -1.8548 -2.7279
  364MOL0     H50164   6.342   9.677   7.504  0.1762  0.4656 -0.8399
  364MOL0     H50165   5.951   9.807   7.740  0.2961 -1.5308 -0.2172
  364MOL0     H50166   6.021   9.914   7.618  0.5078 -2.4866 -1.5170
  364MOL0     H50167   6.134   9.874   7.904 -0.1993 -1.1841 -0.4671
  364MOL0     H50168   6.214   9.958   7.768 -0.5453  0.3524 -2.6402
  364MOL0     H50169   6.112  10.120   7.910  0.1983  0.2488 -0.4767
  364MOL0     H50170   6.027  10.121   7.752 -2.4347  1.2825  0.1304
  364MOL0     H50171   5.851   9.967   7.862  1.2337  0.3477  0.0152
  364MOL0     H50172   5.942   9.995   8.009  2.1650 -0.1053  0.1405
  364MOL0     H50173   5.824  10.202   7.818  0.6113 -3.2944 -0.6175
  364MOL0     H50174   5.837  10.233   7.985 -3.1815  1.4269 -0.4716
  364MOL0     H50175   5.654  10.008   7.951 -1.3959  1.4938 -3.9870
  364MOL0     H50176   5.663  10.155   8.067 -0.1420 -0.6055  1.1743
  364MOL0     H50177   5.561  10.289   7.877 -1.0078 -0.2852  1.4422
  364MOL0     H50178   5.463  10.154   7.895 -0.4888 -0.5164  0.6549
  364MOL0     H50179   5.492  10.139   7.669  0.9622 -2.1963  0.0490
  364MOL0     H50180   5.653  10.210   7.677  0.5804  1.4300  2.8674
  364MOL0     H50181   5.429   9.906   7.776 -1.4233  1.1929 -0.6514
  364MOL0     H50182   5.609   9.590   7.619 -0.0098  0.7146 -1.3356
  364MOL0     H50183   5.456   9.657   7.587  0.9289 -1.9487 -0.8362
  364MOL0     H50184   5.360   9.638   7.813  0.1133  1.8271 -2.4268
  364MOL0     H50185   5.433   9.485   7.774 -1.5170  1.0667 -3.0940
  364MOL0     H50186   5.633   9.575   7.927 -0.2626  0.5345  1.1917
  364MOL0     H50187   5.537   9.719   7.963  0.4967 -0.3467  1.8578
  364MOL0     H50188   5.509   9.529   8.141 -1.2199 -0.9836  1.2871
  364MOL0     H50189   5.361   9.574   8.075  2.2046  2.3491  2.1611
  364MOL0     H50190   5.436   9.192   7.856  0.5442 -3.3345  1.0112
  364MOL0     H50191   5.206   9.042   7.713 -2.7349  2.9981  2.4591
  364MOL0     H50192   5.190   8.910   7.824 -0.4813  0.8572 -1.1016
  364MOL0     H50193   5.349   8.969   7.773  0.0449  0.5012  0.6195
  364MOL0     H50194   4.710   9.066   7.904  0.9056  0.9362 -0.7019
  364MOL0     H50195   4.534   8.915   7.848  0.3766 -0.7728 -0.2287
  364MOL0     H50196   4.508   8.592   7.927 -2.2542 -0.5473  1.0171
  364MOL0     H50197   4.407   8.729   7.871 -0.0576  0.3034 -2.2725
  364MOL0     H50198   4.323   8.590   7.689 -0.6248  3.3871  2.1542
  364MOL0     H50199   4.406   8.448   7.759 -0.1377 -0.2142 -0.1013
  364MOL0     H50200   4.243   8.529   7.973  0.2027  1.0594  0.6011
  364MOL0     H50201   4.175   8.433   7.847  0.0636 -0.3082 -0.2706
  364MOL0     H50202   4.109   8.661   7.743  0.9383  2.6376  0.0439
  364MOL0     H50203   4.196   8.736   7.874  2.3275 -2.1032  1.1754
  364MOL0     H50204   3.945   8.566   7.915  2.6440 -0.6859 -1.1798
  364MOL0     H50205   4.028   8.643   8.035  1.1467  1.6419  0.2670
  364MOL0     H50206   3.940   8.839   7.816 -2.2752  0.8348 -0.8962
  364MOL0     H50207   3.960   8.845   7.995 -0.4447  0.6749  0.6614
  364MOL0     H50208   3.736   8.729   8.014 -3.8716 -4.3673 -2.2580
  364MOL0     H50209   3.749   8.671   7.852  1.7901 -0.2543 -0.1601
  364MOL0     H50210   3.600   8.862   7.829 -0.7958  1.0360 -1.1026
  364MOL0     H50211   3.759   8.920   7.769  1.9268 -2.3616  1.5803
  364MOL0     H50212   4.796   8.639   7.675  1.9111  0.5657 -1.2637
  364MOL0     H50213   4.999   8.794   7.707 -0.6793 -1.8669 -1.0473
  364MOL0     H50214   5.024   9.232   8.122  0.3952  1.3593  0.0689
  364MOL0     H50215   5.232   9.393   8.177  0.6879 -2.7389  2.3400
  364MOL0     H50216   5.912   9.676   7.543 -0.4982 -1.6728  0.6979
  364MOL0     H50217   5.890   9.536   7.379 -0.3802 -1.6010 -0.7914
  364MOL0     H50218   6.033   9.557   6.954  0.0294  0.1822 -0.6171
  364MOL0     H50219   5.925   9.535   6.717  3.3205 -0.2951 -0.9761
  364MOL0     H50220   5.811   9.259   6.457  2.1667 -0.7275  0.9035
  364MOL0     H50221   5.837   9.151   6.604  0.7691 -1.1001 -4.7455
  364MOL0     H50222   5.580   9.258   6.487 -1.3355  0.2170 -0.1338
  364MOL0     H50223   5.602   9.225   6.659  2.1016 -3.2031  0.6723
  364MOL0     H50224   5.666   9.016   6.454  0.2893  3.1300 -0.3556
  364MOL0     H50225   5.613   8.976   6.624  1.5873 -0.9689 -1.6912
  364MOL0     H50226   5.432   8.899   6.501  1.3362  0.1660  0.7325
  364MOL0     H50227   5.452   9.036   6.387 -0.2250 -4.3593 -1.3191
  364MOL0     H50228   5.224   9.179   6.722 -0.7103 -0.2653 -1.1496
  364MOL0     H50229   5.770   9.162   6.818 -0.6273  0.3329  1.9011
  364MOL0     H50230   5.721   9.102   7.033 -0.8752 -1.3917  0.8980
  364MOL0     H50231   5.903   9.081   7.069 -0.6115  0.1745  2.7851
  364MOL0     H50232   5.805   9.165   7.172  2.4342 -0.9588  0.3136
  365MOL0     O50233  10.083   0.487   8.524 -0.0610  0.5419  0.0627
  365MOL0     C50234  10.151   0.402   8.461  0.6645 -0.4002  0.5130
  365MOL0     O50235  10.148   0.385   8.320 -0.0651  0.0734  0.5164
  365MOL0     C50236  10.056   0.431   8.232  0.5465  0.7911 -0.4171
  365MOL0     C50237   9.958   0.529   8.244 -0.0473  0.3931  0.1524
  365MOL0     C50238   9.831   0.546   8.168  0.4214 -0.2589  0.3335
  365MOL0     C50239   9.820   0.467   8.055  0.1161  0.2923  0.0835
  365MOL0     O50240   9.709   0.484   7.978  0.3133 -0.6102  0.7334
  365MOL0     C50241   9.616   0.382   8.018  1.2302  0.6007 -0.2653
  365MOL0     C50242   9.495   0.392   7.922 -0.0472 -0.2772  0.6123
  365MOL0     C50243   9.365   0.383   8.006 -0.6370  0.1885  0.6556
  365MOL0     C50244   9.340   0.238   8.064  0.2130  0.6092 -0.8714
  365MOL0     C50245   9.228   0.253   8.166 -0.3639  0.2885 -0.6632
  365MOL0     C50246   9.098   0.179   8.123  0.1101  0.4845  0.6887
  365MOL0     C50247   9.003   0.207   8.247  0.9227 -0.5414 -0.0145
  365MOL0     C50248   8.858   0.146   8.217  0.5502 -0.1683  0.5742
  365MOL0     N50249   8.859   0.004   8.232 -0.0261 -0.0365  0.5891
  365MOL0     C50250   8.871  -0.074   8.120 -0.2788  1.3593  0.3546
  365MOL0     C50251   8.876  -0.206   8.175 -0.4180 -0.0579 -0.2411
  365MOL0     C50252   8.889  -0.337   8.094  0.4890 -0.3346  0.2334
  365MOL0     C50253   8.810  -0.449   8.134  0.7464  1.1306 -0.3754
  365MOL0     C50254   8.838  -0.573   8.056  0.4986  0.1890 -0.0458
  365MOL0     C50255   8.748  -0.684   8.121 -0.8186  0.0922  0.0684
  365MOL0     O50256   8.814  -0.761   8.223 -0.1506 -0.0863  0.1847
  365MOL0     C50257   8.891  -0.869   8.184 -0.0267 -0.0646  1.5501
  365MOL0     C50258   8.964  -0.873   8.064 -0.1029  0.7240  0.7623
  365MOL0     C50259   9.005  -0.995   8.013 -0.4521  0.4149 -0.4538
  365MOL0     C50260   9.044  -0.996   7.868 -0.0592  0.5667 -0.3499
  365MOL0     C50261   9.027  -1.103   8.105 -0.5674 -0.0265  1.0882
  365MOL0     C50262   9.107  -1.232   8.082  0.3592  0.6268 -0.7017
  365MOL0     O50263   9.059  -1.342   8.129  0.2671  0.2511 -0.4513
  365MOL0     C50264   9.136  -1.454   8.115 -0.1096 -0.5460 -1.3113
  365MOL0     C50265   9.181  -1.520   8.231 -0.0405  0.9127  0.3809
  365MOL0     C50266   9.247  -1.646   8.231 -0.1748 -0.6154  0.0542
  365MOL0     C50267   9.263  -1.716   8.107  1.0197  0.7351  0.4965
  365MOL0     O50268   9.313  -1.843   8.106 -0.5549  0.4838 -0.5929
  365MOL0     C50269   9.237  -1.936   8.184  0.0034  1.1219 -0.9289
  365MOL0     C50270   9.315  -2.056   8.217  0.1071  0.7116  0.3344
  365MOL0     C50271   9.454  -2.026   8.288  0.5718 -0.8271 -0.8711
  365MOL0     C50272   9.492  -2.130   8.391 -0.2959  1.0925  0.7801
  365MOL0     C50273   9.642  -2.121   8.431  0.0938  0.1120 -0.5600
  365MOL0     C50274   9.673  -2.178   8.575  0.7886 -0.0432  0.1169
  365MOL0     C50275   9.783  -2.099   8.645  0.6682 -0.2185 -0.7595
  365MOL0     C50276   9.921  -2.102   8.581 -0.7319 -0.3893 -0.4135
  365MOL0    Cl50277   9.923  -1.969   8.461 -0.0013 -0.2340 -0.1995
  365MOL0     C50278   9.218  -1.645   7.985 -0.1179  0.9999 -0.6879
  365MOL0     C50279   9.149  -1.523   7.993  0.1796 -0.3059 -0.0426
  365MOL0     O50280   9.203  -1.218   8.008  0.4712  0.5300  0.2409
  365MOL0     C50281   8.993  -1.080   8.239  0.3471 -0.1130  0.4907
  365MOL0     C50282   8.914  -0.973   8.276 -0.0763  0.3663 -0.9030
  365MOL0     N50283   8.852  -0.202   8.311 -0.2439  0.8584 -0.2490
  365MOL0     N50284   8.830  -0.078   8.342  0.3156 -0.7856 -0.0535
  365MOL0     C50285   9.928   0.381   8.030  1.0154 -0.9356  0.9183
  365MOL0     C50286  10.041   0.359   8.116  0.7344 -0.0413 -0.9566
  365MOL0     C50287  10.244   0.315   8.538  1.0407 -0.6484  0.2014
  365MOL0     C50288  10.306   0.198   8.468  0.9401 -0.4851 -0.4490
  365MOL0     C50289  10.371   0.105   8.545 -0.7399  1.1920  0.3664
  365MOL0     C50290  10.412   0.118   8.677 -0.4219 -1.3171 -0.3973
  365MOL0     O50291  10.489   0.025   8.742  0.4222  0.4725 -0.1242
  365MOL0     C50292  10.425  -0.090   8.823  0.6391 -0.6283  0.3643
  365MOL0     C50293  10.474  -0.227   8.772 -0.6202 -0.5462 -0.7238
  365MOL0     C50294  10.359  -0.336   8.812  0.3301  0.8946  0.3805
  365MOL0     C50295  10.408  -0.475   8.752  0.0455  0.4421  0.7085
  365MOL0     C50296  10.500  -0.531   8.849 -0.3534 -0.2953  0.7037
  365MOL0     C50297  10.588  -0.571   8.920  0.3205  0.0217 -0.0550
  365MOL0     C50298  10.363   0.229   8.741 -0.4125  0.2982 -0.9103
  365MOL0     C50299  10.285   0.331   8.677 -0.3189  0.1005  0.5633
  365MOL0     C50300  10.245   0.446   8.759  0.6262  0.0934  0.2668
  365MOL0     H50301   9.967   0.593   8.331  3.9262  0.5766 -0.2137
  365MOL0     H50302   9.754   0.619   8.189  0.4626 -0.1788  0.2010
  365MOL0     H50303   9.582   0.412   8.117  1.3929  0.7661 -0.2588
  365MOL0     H50304   9.659   0.282   8.025  2.3002  1.1604  2.3816
  365MOL0     H50305   9.487   0.489   7.872 -0.9816 -0.7525 -0.1927
  365MOL0     H50306   9.499   0.311   7.849 -0.3449  0.3149 -0.0700
  365MOL0     H50307   9.377   0.457   8.086 -2.1731  1.7298 -0.4603
  365MOL0     H50308   9.270   0.404   7.956 -0.0543  1.1707 -0.0710
  365MOL0     H50309   9.305   0.173   7.984 -0.8403 -1.7064  1.3320
  365MOL0     H50310   9.428   0.199   8.117 -0.3738  0.8701  0.3275
  365MOL0     H50311   9.210   0.361   8.175  1.1148  0.4248  1.2251
  365MOL0     H50312   9.270   0.204   8.254 -3.3213  1.9936  1.9148
  365MOL0     H50313   9.062   0.211   8.025 -0.5551 -2.8782 -0.2791
  365MOL0     H50314   9.122   0.075   8.098  1.3097  1.5640 -3.4328
  365MOL0     H50315   8.993   0.306   8.292 -0.5390 -0.5860 -0.1739
  365MOL0     H50316   9.045   0.144   8.325  1.9569 -0.2770 -0.3474
  365MOL0     H50317   8.786   0.197   8.282  0.8272  0.8896  0.0782
  365MOL0     H50318   8.815   0.174   8.120  1.0636  1.5395  0.8043
  365MOL0     H50319   8.882  -0.042   8.017 -1.8628  5.4440  1.2752
  365MOL0     H50320   8.993  -0.361   8.119  1.0475  3.4268  2.2905
  365MOL0     H50321   8.891  -0.313   7.987  1.9709  3.0642  0.8841
  365MOL0     H50322   8.834  -0.467   8.239  2.2697  4.4463 -0.0292
  365MOL0     H50323   8.702  -0.430   8.138  0.6412  0.5302  3.1992
  365MOL0     H50324   8.812  -0.559   7.951  1.9725 -2.3744 -0.8429
  365MOL0     H50325   8.945  -0.597   8.065  0.2557 -0.0850  3.6252
  365MOL0     H50326   8.661  -0.637   8.169  0.7730  3.9435 -0.4700
  365MOL0     H50327   8.719  -0.750   8.038  0.4049  0.4652 -0.6825
  365MOL0     H50328   8.951  -0.791   7.994  0.9572 -1.3795 -2.0937
  365MOL0     H50329   9.020  -1.096   7.833  1.2734 -0.6154  1.9262
  365MOL0     H50330   9.149  -0.968   7.855  0.9585 -2.7939 -0.3009
  365MOL0     H50331   8.988  -0.924   7.807  0.2706  1.4102  0.3127
  365MOL0     H50332   9.167  -1.475   8.329 -1.5728  0.9801  0.1560
  365MOL0     H50333   9.283  -1.696   8.321 -1.5384 -1.0149  0.3919
  365MOL0     H50334   9.214  -1.897   8.283 -0.5279  2.0335 -1.3959
  365MOL0     H50335   9.141  -1.956   8.134  0.3618 -0.6116 -0.9805
  365MOL0     H50336   9.254  -2.114   8.288  0.8214 -1.2664 -0.6002
  365MOL0     H50337   9.328  -2.124   8.133  1.1067 -0.0893  1.1106
  365MOL0     H50338   9.445  -1.937   8.351  0.9373 -0.5484 -1.2128
  365MOL0     H50339   9.530  -2.009   8.212  1.4362 -0.5527  0.0291
  365MOL0     H50340   9.468  -2.231   8.357  1.1158  1.2140 -0.6958
  365MOL0     H50341   9.440  -2.114   8.486 -0.2078  3.5395  0.4802
  365MOL0     H50342   9.695  -2.180   8.356  0.2920 -2.8503  1.7200
  365MOL0     H50343   9.657  -2.013   8.439 -4.5515  0.8972  0.8876
  365MOL0     H50344   9.702  -2.283   8.570  2.7705  0.4320  0.6326
  365MOL0     H50345   9.586  -2.168   8.641 -0.2505  0.5096 -1.2692
  365MOL0     H50346   9.777  -2.127   8.751  0.3354  2.4801  0.0161
  365MOL0     H50347   9.750  -1.994   8.652 -0.8863 -0.6742 -0.9206
  365MOL0     H50348   9.947  -2.191   8.523 -3.2449 -0.6484 -1.2655
  365MOL0     H50349   9.990  -2.077   8.662  0.0596  0.1932 -1.2431
  365MOL0     H50350   9.215  -1.697   7.890 -1.8826  0.7330 -0.5319
  365MOL0     H50351   9.125  -1.475   7.899  1.9081 -0.5028 -0.6208
  365MOL0     H50352   9.016  -1.159   8.309  2.9237 -0.7496 -0.9530
  365MOL0     H50353   8.889  -0.963   8.381  1.8114  1.0875 -0.4814
  365MOL0     H50354   9.911   0.312   7.948  4.5488 -0.8586 -0.0303
  365MOL0     H50355  10.100   0.270   8.097 -0.9118 -1.0376 -1.6637
  365MOL0     H50356  10.288   0.175   8.364  1.3400  1.5588 -1.0127
  365MOL0     H50357  10.393   0.020   8.481 -0.9221  1.3052  0.1527
  365MOL0     H50358  10.449  -0.088   8.930 -0.1715 -2.6071  0.6378
  365MOL0     H50359  10.316  -0.093   8.813  0.4583  2.4747  0.6786
  365MOL0     H50360  10.569  -0.255   8.818  0.2609  2.1528 -0.7310
  365MOL0     H50361  10.501  -0.220   8.667  1.1718  0.8294 -0.2142
  365MOL0     H50362  10.348  -0.329   8.920  0.8973  0.1822  0.4888
  365MOL0     H50363  10.266  -0.318   8.758 -0.2239 -1.8812  0.2724
  365MOL0     H50364  10.442  -0.464   8.649 -1.2466  1.7785  0.3959
  365MOL0     H50365  10.327  -0.546   8.739  0.4983  0.1848 -0.8903
  365MOL0     H50366  10.642  -0.616   9.001 -1.5822  0.3824  1.4817
  365MOL0     H50367  10.367   0.234   8.849 -0.9579 -2.0581 -0.7343
  365MOL0     H50368  10.255   0.538   8.699  2.9419  0.4995  1.1575
  365MOL0     H50369  10.138   0.434   8.778  0.8690 -1.7885  0.6544
  365MOL0     H50370  10.302   0.467   8.850 -2.8097 -0.1026  2.6581
  366MOL0     O50371   4.528   1.349   6.584  0.7063 -0.3071 -0.7505
  366MOL0     C50372   4.588   1.376   6.484 -0.1234 -0.2659 -0.0154
  366MOL0     O50373   4.538   1.456   6.379  0.0682 -0.0862  0.7305
  366MOL0     C50374   4.414   1.509   6.395 -1.1606  0.1058 -0.0612
  366MOL0     C50375   4.396   1.610   6.497 -0.4786 -0.6261  0.2976
  366MOL0     C50376   4.279   1.672   6.519 -0.3725  0.1167 -0.3811
  366MOL0     C50377   4.163   1.634   6.445 -1.1935 -0.2457 -0.0077
  366MOL0     O50378   4.038   1.681   6.468 -0.6597  0.0555 -0.1467
  366MOL0     C50379   4.007   1.702   6.610  1.0739  0.8451  0.2836
  366MOL0     C50380   3.854   1.686   6.631  0.0109  0.1777  0.0302
  366MOL0     C50381   3.787   1.810   6.565 -0.0068 -0.3633  0.9324
  366MOL0     C50382   3.634   1.813   6.599  0.1355 -0.2252 -1.2428
  366MOL0     C50383   3.604   1.905   6.723  0.2362 -0.2104  0.7087
  366MOL0     C50384   3.451   1.941   6.732 -0.7675  0.0938 -0.1704
  366MOL0     C50385   3.429   2.014   6.862 -0.1231  0.4968  1.0560
  366MOL0     C50386   3.277   2.044   6.862 -0.5040 -0.1288  0.3242
  366MOL0     N50387   3.256   2.126   6.983 -0.4799  0.0841 -0.0950
  366MOL0     C50388   3.276   2.081   7.110 -0.5888 -0.6353 -0.5224
  366MOL0     C50389   3.267   2.196   7.185  1.0452 -0.9457  0.4164
  366MOL0     C50390   3.280   2.207   7.329 -0.1732 -0.1345 -0.6476
  366MOL0     C50391   3.216   2.343   7.382 -0.1388  1.3987 -0.2163
  366MOL0     C50392   3.179   2.304   7.533 -0.2994 -0.3828 -0.1104
  366MOL0     C50393   3.111   2.420   7.592 -0.1872 -0.6079  0.1769
  366MOL0     O50394   3.041   2.375   7.705  0.3032 -0.4494 -0.0511
  366MOL0     C50395   2.966   2.459   7.789 -0.5427 -0.3226 -1.1464
  366MOL0     C50396   2.940   2.411   7.914 -0.0293  0.4916  0.6606
  366MOL0     C50397   2.871   2.487   8.012  0.1802  0.5889  0.5639
  366MOL0     C50398   2.861   2.430   8.148  0.2145 -0.1538 -0.0098
  366MOL0     C50399   2.822   2.620   7.983  0.1067  0.1221 -0.1422
  366MOL0     C50400   2.759   2.702   8.093 -0.3399 -0.0650  0.1133
  366MOL0     O50401   2.668   2.631   8.162 -0.5874 -0.2101  0.4207
  366MOL0     C50402   2.594   2.670   8.271 -0.2193  0.5286  0.3956
  366MOL0     C50403   2.631   2.765   8.366  0.1266 -0.2703 -0.4498
  366MOL0     C50404   2.540   2.795   8.468  0.5789 -0.1090 -0.4414
  366MOL0     C50405   2.417   2.725   8.472 -0.5284 -0.7053  0.3952
  366MOL0     O50406   2.334   2.772   8.575  0.2143 -0.5734 -0.0849
  366MOL0     C50407   2.219   2.683   8.604  0.5598 -0.6900 -0.4116
  366MOL0     C50408   2.168   2.747   8.739  0.3014  1.0928  0.4325
  366MOL0     C50409   2.109   2.885   8.714 -0.3896 -0.5593 -0.2616
  366MOL0     C50410   1.985   2.905   8.628  0.0575 -0.3255  0.2205
  366MOL0     C50411   1.880   2.845   8.708 -0.6952 -0.1522 -0.6437
  366MOL0     C50412   1.754   2.871   8.639  0.8859  0.1529  0.1680
  366MOL0     C50413   1.638   2.782   8.684  0.3916 -0.0046  0.3197
  366MOL0     C50414   1.507   2.854   8.641 -1.1871  0.4536  0.7159
  366MOL0    Cl50415   1.479   2.994   8.750 -0.6009  0.2365  0.0051
  366MOL0     C50416   2.402   2.609   8.397  0.4366  0.6854  0.3176
  366MOL0     C50417   2.485   2.591   8.290 -0.4402 -0.5938 -0.9243
  366MOL0     O50418   2.776   2.823   8.095 -0.3442 -0.2808 -0.0908
  366MOL0     C50419   2.845   2.669   7.852 -1.5137  0.6768  0.3382
  366MOL0     C50420   2.919   2.587   7.764 -0.2523 -0.0330 -0.0759
  366MOL0     N50421   3.242   2.302   7.097  0.9429 -0.0240  0.2864
  366MOL0     N50422   3.234   2.256   6.975  0.1664  0.5540 -0.7012
  366MOL0     C50423   4.182   1.543   6.339 -0.9233  0.4102  0.2816
  366MOL0     C50424   4.304   1.480   6.317 -0.4021 -0.3663 -0.4211
  366MOL0     C50425   4.723   1.329   6.454  0.1751 -0.8248 -0.4109
  366MOL0     C50426   4.784   1.374   6.336  0.1617  0.0740 -0.8679
  366MOL0     C50427   4.908   1.326   6.302  0.5983 -0.0608 -0.1095
  366MOL0     C50428   4.985   1.247   6.385 -0.2019 -0.1050 -0.0181
  366MOL0     O50429   5.112   1.225   6.341 -0.3863 -0.0106  0.6273
  366MOL0     C50430   5.192   1.127   6.402 -0.3782  0.3284 -0.2518
  366MOL0     C50431   5.313   1.100   6.321  0.0491  0.3842  0.2701
  366MOL0     C50432   5.280   1.034   6.189  0.5364 -0.0210 -0.0568
  366MOL0     C50433   5.402   1.024   6.088  1.3090  0.5292  0.5217
  366MOL0     C50434   5.438   1.158   6.036 -0.3951 -0.0711  0.1558
  366MOL0     C50435   5.490   1.261   5.996  0.1193 -0.4115 -0.9866
  366MOL0     C50436   4.931   1.200   6.492 -0.2139 -0.4957 -0.1969
  366MOL0     C50437   4.797   1.242   6.528  0.4207  0.3881  0.7118
  366MOL0     C50438   4.754   1.204   6.665 -0.0105 -0.4727  0.3974
  366MOL0     H50439   4.474   1.627   6.570 -0.7326  0.5255  0.3086
  366MOL0     H50440   4.272   1.738   6.605  1.3941  2.3518 -1.8347
  366MOL0     H50441   4.052   1.793   6.650 -0.5852  1.0834  1.6989
  366MOL0     H50442   4.061   1.621   6.660  1.4472 -0.6279 -2.3243
  366MOL0     H50443   3.814   1.587   6.608 -1.5362  0.3353  1.7612
  366MOL0     H50444   3.833   1.700   6.738 -0.5503  1.7064 -0.2513
  366MOL0     H50445   3.820   1.905   6.608 -0.0476  0.2505 -0.3338
  366MOL0     H50446   3.794   1.813   6.456  0.7960  1.8566  1.0023
  366MOL0     H50447   3.576   1.847   6.513 -1.7151 -1.2739 -0.4646
  366MOL0     H50448   3.596   1.711   6.607  0.2376 -0.2674 -1.2984
  366MOL0     H50449   3.654   1.997   6.690  0.4979 -0.3293  0.7696
  366MOL0     H50450   3.649   1.873   6.817  2.1106  1.2925  0.3970
  366MOL0     H50451   3.426   2.003   6.646  0.4053  0.4055 -0.3093
  366MOL0     H50452   3.400   1.844   6.732 -2.8131  1.1329 -1.0120
  366MOL0     H50453   3.493   2.103   6.862  1.7300 -0.6646 -1.8515
  366MOL0     H50454   3.464   1.958   6.949 -1.1259 -0.0388  1.1300
  366MOL0     H50455   3.231   2.096   6.778  0.4688  0.1590 -0.0463
  366MOL0     H50456   3.229   1.946   6.869 -2.1174  0.6693  0.9061
  366MOL0     H50457   3.276   1.977   7.141 -3.5884 -1.2229 -2.0935
  366MOL0     H50458   3.387   2.222   7.349 -0.2627  2.3929 -1.6495
  366MOL0     H50459   3.229   2.125   7.379 -3.3808  0.6961 -2.2715
  366MOL0     H50460   3.279   2.432   7.375 -1.4150  2.3375 -0.1360
  366MOL0     H50461   3.122   2.363   7.329 -0.2085 -0.3412 -0.8095
  366MOL0     H50462   3.107   2.221   7.536 -1.1620  0.3726  2.0874
  366MOL0     H50463   3.263   2.283   7.600  0.2041  0.4980 -0.4542
  366MOL0     H50464   3.167   2.507   7.627  0.0952 -1.1524  1.1254
  366MOL0     H50465   3.040   2.448   7.514 -0.6777  0.3888  0.9725
  366MOL0     H50466   2.965   2.306   7.922 -1.2919 -0.0150 -1.2729
  366MOL0     H50467   2.762   2.405   8.187  0.1890  1.2415  0.9059
  366MOL0     H50468   2.881   2.505   8.225 -2.4335  2.3539 -1.5412
  366MOL0     H50469   2.925   2.342   8.159  0.3326  0.0238  0.7192
  366MOL0     H50470   2.716   2.833   8.363 -2.0291  2.5744 -0.6166
  366MOL0     H50471   2.551   2.880   8.534 -0.6434  1.0101 -1.6273
  366MOL0     H50472   2.151   2.679   8.518 -0.1187  1.9062 -0.0675
  366MOL0     H50473   2.242   2.580   8.634  0.9651 -0.3054  0.6327
  366MOL0     H50474   2.089   2.679   8.771  2.8818 -0.6654  3.7524
  366MOL0     H50475   2.248   2.742   8.814  1.6867 -0.3333 -1.0524
  366MOL0     H50476   2.190   2.947   8.677 -0.4274  0.6110  1.4793
  366MOL0     H50477   2.092   2.930   8.812  1.0589 -0.7898  0.1079
  366MOL0     H50478   2.001   2.869   8.526  0.5805  0.4933  0.0022
  366MOL0     H50479   1.975   3.014   8.628 -0.5262 -0.3738  0.0478
  366MOL0     H50480   1.889   2.738   8.724 -2.2239 -0.2044  0.1377
  366MOL0     H50481   1.881   2.889   8.808 -1.5264 -0.4021 -0.5186
  366MOL0     H50482   1.768   2.850   8.533  1.2617  0.8851  0.0674
  366MOL0     H50483   1.739   2.979   8.649  4.6600  0.7443  1.0977
  366MOL0     H50484   1.637   2.763   8.792 -0.1916 -2.3856 -0.0529
  366MOL0     H50485   1.645   2.682   8.639  2.9263 -0.7841  2.2225
  366MOL0     H50486   1.420   2.788   8.629 -1.7253  1.2765 -0.1151
  366MOL0     H50487   1.514   2.895   8.539 -1.1944  0.6149  0.7810
  366MOL0     H50488   2.322   2.537   8.409  0.2423  1.0691  1.4798
  366MOL0     H50489   2.472   2.511   8.218 -0.0867 -0.1211 -1.5254
  366MOL0     H50490   2.809   2.764   7.811 -1.1653  0.3501 -0.7414
  366MOL0     H50491   2.951   2.627   7.668 -2.7566  4.1922  0.5584
  366MOL0     H50492   4.104   1.512   6.271 -1.4306 -1.8487  1.7814
  366MOL0     H50493   4.322   1.400   6.245  0.7666 -1.0378  0.5915
  366MOL0     H50494   4.730   1.438   6.267  0.0753  0.5740 -0.3428
  366MOL0     H50495   4.958   1.343   6.207  2.0540  0.3114  0.6862
  366MOL0     H50496   5.224   1.148   6.504  0.2607 -2.9514  0.3257
  366MOL0     H50497   5.133   1.036   6.408 -0.8102  0.3447 -2.8363
  366MOL0     H50498   5.386   1.041   6.377 -0.5120 -1.3322 -0.7574
  366MOL0     H50499   5.363   1.190   6.284 -0.4989 -0.3293 -2.3852
  366MOL0     H50500   5.226   0.942   6.210 -0.3821 -1.0020 -5.3724
  366MOL0     H50501   5.193   1.085   6.147 -0.6658 -1.5831  0.4391
  366MOL0     H50502   5.367   0.961   6.006 -0.5341  1.7063  0.3292
  366MOL0     H50503   5.483   0.985   6.149 -0.7551  0.2506  3.2655
  366MOL0     H50504   5.513   1.362   5.967 -0.3692  0.2993  0.9443
  366MOL0     H50505   4.985   1.135   6.560  0.8387 -1.5007 -1.9304
  366MOL0     H50506   4.729   1.290   6.728  1.7761  0.1818  0.2757
  366MOL0     H50507   4.661   1.148   6.667 -0.9990  1.1142  1.1846
  366MOL0     H50508   4.819   1.149   6.734  2.5606  2.4537  0.5504
  367MOL0     O50509  11.077  10.079  10.633  0.2892 -0.4773 -0.0318
  367MOL0     C50510  11.107  10.025  10.739 -0.1719  0.2101 -0.5777
  367MOL0     O50511  11.047  10.053  10.862 -0.0058  0.7662 -0.5353
  367MOL0     C50512  10.942  10.141  10.873 -0.1116 -0.1543  0.2973
  367MOL0     C50513  10.839  10.104  10.955  0.0500 -0.2494  0.4899
  367MOL0     C50514  10.736  10.200  10.983 -0.4427  0.5904 -0.6909
  367MOL0     C50515  10.750  10.336  10.939 -0.0629 -0.3734  0.6901
  367MOL0     O50516  10.648  10.423  10.971 -0.3727 -0.3960 -0.1369
  367MOL0     C50517  10.659  10.564  10.951  0.4673  0.8566  0.5957
  367MOL0     C50518  10.762  10.620  11.062  0.0409  0.6359  0.8390
  367MOL0     C50519  10.729  10.772  11.071 -0.2550  1.4643 -0.0775
  367MOL0     C50520  10.818  10.826  11.182  0.8779 -0.5163 -0.5724
  367MOL0     C50521  10.792  10.982  11.185 -0.4700  0.3800 -0.1155
  367MOL0     C50522  10.862  11.040  11.303  0.0014  0.6735 -0.0919
  367MOL0     C50523  10.778  11.160  11.354 -0.0234 -0.7158 -0.9113
  367MOL0     C50524  10.643  11.126  11.419 -0.4330 -0.4035  0.1280
  367MOL0     N50525  10.661  11.043  11.542  1.0099 -0.6763  0.3748
  367MOL0     C50526  10.676  10.914  11.550 -0.0211  0.9892  0.5292
  367MOL0     C50527  10.649  10.872  11.681 -0.1899  0.5615  0.9321
  367MOL0     C50528  10.642  10.738  11.739  0.8731  0.0935 -0.5869
  367MOL0     C50529  10.562  10.727  11.880 -1.0117  0.8647  0.1083
  367MOL0     C50530  10.625  10.629  11.980 -0.4402 -0.0427 -0.2670
  367MOL0     C50531  10.635  10.485  11.930 -0.3908  0.9415 -0.0330
  367MOL0     O50532  10.509  10.430  11.873  0.0789 -0.0841  0.9703
  367MOL0     C50533  10.410  10.379  11.958 -0.2995 -0.7974 -0.2806
  367MOL0     C50534  10.417  10.389  12.094  0.2990  0.4344 -1.0385
  367MOL0     C50535  10.307  10.358  12.175  0.2171 -0.8561  0.0586
  367MOL0     C50536  10.317  10.345  12.328  0.2032 -0.1133  0.2105
  367MOL0     C50537  10.178  10.334  12.105 -0.5731  1.8509  0.5363
  367MOL0     C50538  10.061  10.295  12.170  0.0453 -0.4408 -0.6444
  367MOL0     O50539  10.069  10.196  12.266  0.0220  0.1528  0.4805
  367MOL0     C50540   9.962  10.116  12.323 -0.0392 -0.8853 -0.3506
  367MOL0     C50541   9.825  10.138  12.311  0.8744  0.2658  0.2611
  367MOL0     C50542   9.735  10.067  12.388  0.5112  0.6811  0.2582
  367MOL0     C50543   9.774   9.958  12.468 -0.5153 -0.7399 -0.6987
  367MOL0     O50544   9.684   9.880  12.531  0.6013  0.3759  0.6738
  367MOL0     C50545   9.709   9.851  12.672 -0.0171 -0.1291  0.1619
  367MOL0     C50546   9.598   9.777  12.739  0.2635 -0.2238 -0.1714
  367MOL0     C50547   9.584   9.633  12.681 -0.1200  0.5570  0.9615
  367MOL0     C50548   9.501   9.536  12.769 -0.0942  0.2090 -0.5383
  367MOL0     C50549   9.475   9.402  12.695  0.3978 -0.0495  0.5435
  367MOL0     C50550   9.337   9.342  12.744  0.9537  0.4305  0.2126
  367MOL0     C50551   9.363   9.224  12.850 -0.5492 -1.4529  1.2254
  367MOL0     C50552   9.247   9.164  12.919 -0.2882  0.1013 -0.1676
  367MOL0    Cl50553   9.128   9.279  12.982 -0.0719 -0.6053  0.0298
  367MOL0     C50554   9.912   9.928  12.469  0.2791 -0.7449  0.5701
  367MOL0     C50555  10.004  10.013  12.410  0.2388 -0.1817 -0.0148
  367MOL0     O50556   9.960  10.359  12.153 -0.5781  0.7430  0.5363
  367MOL0     C50557  10.187  10.320  11.963  0.6796 -0.7953 -0.3580
  367MOL0     C50558  10.303  10.326  11.891  1.2103  0.3323  0.4742
  367MOL0     N50559  10.624  10.998  11.746 -0.5298  0.6208  0.4495
  367MOL0     N50560  10.630  11.091  11.664  0.5275 -0.1567  0.0980
  367MOL0     C50561  10.853  10.368  10.847 -0.4270  0.8167  0.1909
  367MOL0     C50562  10.943  10.267  10.812 -0.0480  0.0996  0.4182
  367MOL0     C50563  11.214   9.926  10.723 -0.0965  0.3214 -0.4369
  367MOL0     C50564  11.215   9.801  10.790  0.0953  0.3712 -0.0416
  367MOL0     C50565  11.317   9.699  10.770  0.0382  0.7362  0.3462
  367MOL0     C50566  11.394   9.703  10.663  1.2470 -0.4866  0.0809
  367MOL0     O50567  11.484   9.616  10.634 -0.3690 -0.1320  0.5470
  367MOL0     C50568  11.432   9.493  10.574 -0.2613  0.5274 -0.7680
  367MOL0     C50569  11.527   9.461  10.455 -0.2298 -0.1990 -0.5716
  367MOL0     C50570  11.538   9.585  10.368 -0.8492 -0.0952  0.7693
  367MOL0     C50571  11.650   9.568  10.268  0.0086  0.5079 -0.3180
  367MOL0     C50572  11.596   9.483  10.160 -0.3181  0.0598  0.6179
  367MOL0     C50573  11.562   9.394  10.086 -0.1028 -0.6615  0.3435
  367MOL0     C50574  11.400   9.828  10.601 -0.3734  0.7611 -0.3952
  367MOL0     C50575  11.316   9.936  10.632  0.8887 -0.5144  1.3397
  367MOL0     C50576  11.355  10.079  10.594 -0.5401 -1.1616  0.0478
  367MOL0     H50577  10.839  10.009  11.008  0.1244 -1.6167 -1.8300
  367MOL0     H50578  10.655  10.184  11.054 -0.2073 -0.3605 -0.6247
  367MOL0     H50579  10.557  10.600  10.967  0.0317  1.1259 -2.2339
  367MOL0     H50580  10.676  10.592  10.846  1.0489  1.9583  0.9739
  367MOL0     H50581  10.749  10.580  11.163 -3.5712  2.0482  1.0811
  367MOL0     H50582  10.861  10.590  11.027  0.2318  0.8801  1.1619
  367MOL0     H50583  10.758  10.823  10.978  1.4870 -0.8289 -0.9060
  367MOL0     H50584  10.624  10.800  11.081  0.3703  3.3175  2.1597
  367MOL0     H50585  10.794  10.775  11.275  2.0352  1.4814  0.9040
  367MOL0     H50586  10.926  10.816  11.172  0.8548 -1.1575 -0.1912
  367MOL0     H50587  10.687  11.009  11.191 -0.3101  0.7522  1.7365
  367MOL0     H50588  10.849  11.033  11.107  0.1888  3.3851  2.1409
  367MOL0     H50589  10.880  10.963  11.378  0.2263 -0.4348 -1.2655
  367MOL0     H50590  10.962  11.066  11.266 -0.4479  2.2957 -0.2647
  367MOL0     H50591  10.770  11.229  11.269 -1.5012 -1.2299 -1.2312
  367MOL0     H50592  10.838  11.210  11.430 -1.6031  1.0568 -0.7351
  367MOL0     H50593  10.602  11.225  11.441 -0.5990 -0.6206  0.8280
  367MOL0     H50594  10.585  11.092  11.333 -1.1386  3.9981 -1.3661
  367MOL0     H50595  10.685  10.848  11.464 -2.8238 -1.7635  2.1441
  367MOL0     H50596  10.742  10.699  11.761  0.4702  0.4509  2.3117
  367MOL0     H50597  10.589  10.672  11.670  0.3700  2.2338 -2.3304
  367MOL0     H50598  10.577  10.824  11.927 -1.9543  0.7899  0.5825
  367MOL0     H50599  10.461  10.689  11.864 -0.0304 -1.3567 -1.3187
  367MOL0     H50600  10.715  10.674  12.025 -0.5287 -1.4554  1.4383
  367MOL0     H50601  10.566  10.631  12.072  0.2525 -0.5153  0.1980
  367MOL0     H50602  10.724  10.475  11.868 -0.9148 -0.7441 -0.5713
  367MOL0     H50603  10.666  10.424  12.015  0.4414  2.9407  1.1793
  367MOL0     H50604  10.506  10.429  12.142 -2.4318  3.6614  1.8460
  367MOL0     H50605  10.331  10.238  12.344 -1.2707 -1.1957 -4.2429
  367MOL0     H50606  10.223  10.366  12.379  0.3094  0.3048  0.2369
  367MOL0     H50607  10.402  10.395  12.375  2.7861 -3.5204 -0.4770
  367MOL0     H50608   9.789  10.222  12.253 -0.2276  0.5628  1.3531
  367MOL0     H50609   9.633  10.104  12.381  0.3606  0.4397  1.0170
  367MOL0     H50610   9.814   9.821  12.682  0.1763  0.4205 -0.1635
  367MOL0     H50611   9.724   9.949  12.719 -1.6824  0.9947 -1.5187
  367MOL0     H50612   9.617   9.777  12.847 -4.0269  0.3363  0.7935
  367MOL0     H50613   9.503   9.829  12.725  2.6298  5.5006  2.0823
  367MOL0     H50614   9.686   9.601  12.656 -0.7019 -1.1405  0.6732
  367MOL0     H50615   9.535   9.638  12.583 -2.0952 -0.6536  1.8467
  367MOL0     H50616   9.405   9.584  12.785 -0.4562 -0.8575  0.6547
  367MOL0     H50617   9.563   9.529  12.859 -0.7310  2.4327  0.1253
  367MOL0     H50618   9.464   9.434  12.591  1.5256  2.3417  1.0987
  367MOL0     H50619   9.552   9.325  12.706 -2.0810 -2.5321  1.5876
  367MOL0     H50620   9.274   9.292  12.670 -1.4839  0.5978  2.0348
  367MOL0     H50621   9.274   9.425  12.777 -2.6767 -1.2624 -1.7846
  367MOL0     H50622   9.431   9.265  12.925  0.4116 -1.1266  0.2072
  367MOL0     H50623   9.422   9.150  12.794  3.7424  2.6664 -0.3702
  367MOL0     H50624   9.296   9.119  13.006 -1.4408  0.9597  0.9647
  367MOL0     H50625   9.206   9.098  12.842  0.8547 -1.1178  0.2315
  367MOL0     H50626   9.955   9.847  12.528  0.5759 -1.4865 -0.6424
  367MOL0     H50627  10.110   9.995  12.422  0.3345  0.5332  0.2372
  367MOL0     H50628  10.095  10.305  11.907 -0.1663 -3.9103  1.6065
  367MOL0     H50629  10.292  10.321  11.784 -1.5062  1.1302  0.6464
  367MOL0     H50630  10.875  10.469  10.813 -0.3596  0.2822 -1.4598
  367MOL0     H50631  11.020  10.293  10.740 -0.7987 -1.5550 -1.0300
  367MOL0     H50632  11.123   9.767  10.838  0.5133  0.9996  1.2581
  367MOL0     H50633  11.321   9.613  10.837  2.0350 -2.4613 -3.4543
  367MOL0     H50634  11.420   9.410  10.644  1.6738 -1.1528 -2.2856
  367MOL0     H50635  11.334   9.517  10.533 -0.1578  1.5550 -0.4530
  367MOL0     H50636  11.494   9.375  10.396 -0.2897  1.0463 -2.4018
  367MOL0     H50637  11.627   9.439  10.495  1.2334  1.5919 -2.9914
  367MOL0     H50638  11.441   9.616  10.329 -0.1072 -2.7932 -4.0160
  367MOL0     H50639  11.579   9.668  10.425 -1.0767  0.4777  0.1099
  367MOL0     H50640  11.739   9.519  10.310 -0.6589 -0.4167  0.0345
  367MOL0     H50641  11.685   9.668  10.238 -1.4638  2.6791  4.3144
  367MOL0     H50642  11.526   9.308  10.034  1.8867 -2.2339  1.4334
  367MOL0     H50643  11.478   9.837  10.525  1.2783 -2.1508  0.7629
  367MOL0     H50644  11.318  10.142  10.676  0.2267 -0.6502  0.0136
  367MOL0     H50645  11.463  10.094  10.595 -0.8372  1.4654  0.0665
  367MOL0     H50646  11.314  10.107  10.496  0.6866 -0.5117 -0.2957
  368MOL0     O50647   3.321   1.412   2.684 -0.8165 -0.1606 -0.0933
  368MOL0     C50648   3.303   1.369   2.804  0.1984 -0.6333 -0.6347
  368MOL0     O50649   3.403   1.316   2.882  0.1255  0.2365 -0.2232
  368MOL0     C50650   3.525   1.290   2.823 -0.3906  0.2682  0.1701
  368MOL0     C50651   3.631   1.322   2.904 -0.8879 -0.2213  0.0070
  368MOL0     C50652   3.767   1.306   2.875  0.0240 -0.4401 -0.6952
  368MOL0     C50653   3.798   1.263   2.746 -0.2728  0.3113 -0.4378
  368MOL0     O50654   3.919   1.225   2.689  0.0159 -0.8551 -0.1012
  368MOL0     C50655   4.025   1.293   2.751  0.3543  0.3417 -0.3414
  368MOL0     C50656   4.146   1.305   2.655  0.4502  0.4198 -0.8502
  368MOL0     C50657   4.110   1.357   2.511 -0.2080 -0.1136  0.2819
  368MOL0     C50658   4.082   1.510   2.523  1.1288  0.4219  0.4031
  368MOL0     C50659   4.077   1.568   2.376 -0.4440  0.6307 -0.1777
  368MOL0     C50660   4.018   1.705   2.375  0.2467 -0.4249 -0.6652
  368MOL0     C50661   3.997   1.763   2.233 -0.6496  0.0543  0.5239
  368MOL0     C50662   3.945   1.915   2.237  0.2668  0.2862 -0.5349
  368MOL0     N50663   3.964   1.983   2.106 -0.5589 -0.1858 -0.0825
  368MOL0     C50664   3.866   2.018   2.017  0.0103 -0.2221  0.2237
  368MOL0     C50665   3.935   2.065   1.909  0.0304 -0.4755  0.5431
  368MOL0     C50666   3.885   2.106   1.771  0.1677 -0.1694 -0.7281
  368MOL0     C50667   3.882   2.258   1.757  0.1581  0.1259 -0.4497
  368MOL0     C50668   3.801   2.300   1.636 -0.2417 -1.0528 -1.1792
  368MOL0     C50669   3.877   2.301   1.510 -0.1194  0.1819 -1.2425
  368MOL0     O50670   3.808   2.334   1.392  0.2158 -0.5627  0.3109
  368MOL0     C50671   3.766   2.469   1.385 -0.4685  0.6236 -0.0544
  368MOL0     C50672   3.673   2.500   1.288 -0.2042 -0.1995  1.0208
  368MOL0     C50673   3.629   2.634   1.262  0.6553  0.3370  0.0663
  368MOL0     C50674   3.534   2.648   1.148  0.7055  0.6962 -0.1873
  368MOL0     C50675   3.661   2.735   1.354  0.6517  0.7802 -0.7124
  368MOL0     C50676   3.619   2.880   1.345 -0.2094  0.0127 -0.1550
  368MOL0     O50677   3.641   2.965   1.455 -0.2839 -0.2910  0.6411
  368MOL0     C50678   3.522   2.993   1.525 -0.4241 -0.4906 -0.1512
  368MOL0     C50679   3.397   2.948   1.498  0.1462 -1.0490  0.5342
  368MOL0     C50680   3.290   3.002   1.567  0.3534  0.8546  0.6478
  368MOL0     C50681   3.310   3.109   1.663  1.2933  0.8572 -0.0346
  368MOL0     O50682   3.197   3.177   1.703  0.3932  0.2813  0.4649
  368MOL0     C50683   3.212   3.276   1.805  0.5083 -0.6608 -0.1215
  368MOL0     C50684   3.067   3.324   1.839  0.4911 -0.8275 -0.4408
  368MOL0     C50685   3.067   3.434   1.946 -0.3010  0.6403  0.1383
  368MOL0     C50686   2.958   3.533   1.919 -0.5895  0.2050  0.2160
  368MOL0     C50687   2.946   3.640   2.031 -0.5364 -0.5131  0.7837
  368MOL0     C50688   3.074   3.717   2.067  1.0521 -0.3243  0.3846
  368MOL0     C50689   3.052   3.852   2.126 -0.0654 -0.3651 -0.3209
  368MOL0     C50690   3.015   3.956   2.015  0.0921  0.6682 -0.2125
  368MOL0    Cl50691   3.027   4.119   2.073 -0.4668 -0.3356 -0.0589
  368MOL0     C50692   3.437   3.144   1.704  0.1054 -0.2059  0.6737
  368MOL0     C50693   3.543   3.089   1.625 -0.1668 -0.0438 -0.2914
  368MOL0     O50694   3.590   2.916   1.228 -0.3843  0.5007  0.1073
  368MOL0     C50695   3.738   2.700   1.460  0.1066 -0.4473  0.2975
  368MOL0     C50696   3.799   2.571   1.476  0.0032 -1.4808  0.4934
  368MOL0     N50697   4.069   2.057   1.930 -0.4762  0.7560  0.2699
  368MOL0     N50698   4.087   2.002   2.052 -0.3012  0.4433  0.5044
  368MOL0     C50699   3.692   1.238   2.657 -0.0451 -0.0306 -0.3087
  368MOL0     C50700   3.557   1.252   2.691  0.2403 -0.6126  0.9636
  368MOL0     C50701   3.174   1.383   2.876 -0.1786  0.1482 -0.6921
  368MOL0     C50702   3.160   1.356   3.012  0.7678  0.9573  0.8788
  368MOL0     C50703   3.033   1.367   3.081 -0.5470 -0.2546 -0.7006
  368MOL0     C50704   2.925   1.428   3.016  0.8640 -0.3651  0.9762
  368MOL0     O50705   2.796   1.454   3.062 -0.2181  0.4885 -0.3348
  368MOL0     C50706   2.759   1.422   3.202 -0.6355 -0.4353  0.4564
  368MOL0     C50707   2.642   1.504   3.241 -0.2886  1.4890  0.0144
  368MOL0     C50708   2.659   1.657   3.237 -0.1203  0.2113 -0.0654
  368MOL0     C50709   2.523   1.721   3.238 -0.3609 -0.5336  0.4055
  368MOL0     C50710   2.462   1.709   3.103  0.7946  0.4183  0.0464
  368MOL0     C50711   2.397   1.721   3.000 -1.4725  0.5746  0.6188
  368MOL0     C50712   2.937   1.449   2.881  0.3567  0.1794 -0.0287
  368MOL0     C50713   3.055   1.425   2.808 -0.0834 -0.1711  0.9982
  368MOL0     C50714   3.049   1.455   2.664  0.1832  0.5211  0.3019
  368MOL0     H50715   3.591   1.361   2.997  0.4016 -1.6151  1.1853
  368MOL0     H50716   3.835   1.314   2.959 -1.3030  0.1807  0.3694
  368MOL0     H50717   4.058   1.251   2.846  4.1410  1.6016 -0.9055
  368MOL0     H50718   4.001   1.396   2.778 -2.6721 -0.5121  0.6139
  368MOL0     H50719   4.229   1.362   2.697 -1.8204  2.2579  1.4359
  368MOL0     H50720   4.184   1.204   2.639 -1.1230 -0.0824 -1.6107
  368MOL0     H50721   4.201   1.334   2.453 -0.3085  0.1135  0.0324
  368MOL0     H50722   4.031   1.301   2.460  0.1662 -1.7160  1.3788
  368MOL0     H50723   3.990   1.538   2.575  1.0788  2.4092 -0.6323
  368MOL0     H50724   4.159   1.553   2.588  0.3400  2.0649  0.3048
  368MOL0     H50725   4.012   1.501   2.320 -1.0405  0.5190  0.6289
  368MOL0     H50726   4.175   1.577   2.328  2.3088  3.8450  5.0903
  368MOL0     H50727   3.925   1.690   2.430  0.3248  2.8099  0.5788
  368MOL0     H50728   4.090   1.765   2.433 -0.1078  0.5654 -1.2175
  368MOL0     H50729   3.926   1.700   2.177  2.0049 -2.4938 -0.2291
  368MOL0     H50730   4.080   1.757   2.162 -2.3433 -1.1246 -1.4985
  368MOL0     H50731   3.839   1.915   2.265 -0.5862 -1.7736 -3.3465
  368MOL0     H50732   3.996   1.972   2.315  3.2279 -0.1591 -2.0068
  368MOL0     H50733   3.760   1.994   2.014 -0.2447  0.5542  1.7860
  368MOL0     H50734   3.787   2.062   1.749 -0.3147  0.0776  0.7931
  368MOL0     H50735   3.958   2.067   1.700  3.4749 -0.8050  2.7275
  368MOL0     H50736   3.848   2.317   1.842 -0.2110  2.1526 -1.9337
  368MOL0     H50737   3.987   2.291   1.755  0.6993 -1.3958  0.6834
  368MOL0     H50738   3.707   2.243   1.635 -0.3115 -0.9486 -2.4538
  368MOL0     H50739   3.781   2.404   1.665  0.4424 -1.4515  0.9220
  368MOL0     H50740   3.966   2.364   1.527 -1.3425  1.8606 -0.7993
  368MOL0     H50741   3.910   2.198   1.495 -1.0466 -0.1082 -1.2971
  368MOL0     H50742   3.649   2.416   1.223  2.0461 -0.9060  1.0189
  368MOL0     H50743   3.557   2.734   1.084 -1.1888  2.4664  1.3373
  368MOL0     H50744   3.435   2.665   1.192  2.1277  1.4421  3.0146
  368MOL0     H50745   3.531   2.550   1.100 -1.7121  0.9965 -0.7801
  368MOL0     H50746   3.379   2.872   1.423  0.4770  0.5414 -1.2415
  368MOL0     H50747   3.191   2.960   1.550  0.6551  0.3785  0.0163
  368MOL0     H50748   3.262   3.241   1.896 -0.1363  1.3665  1.0705
  368MOL0     H50749   3.269   3.365   1.778  0.0119 -0.0831  0.7338
  368MOL0     H50750   3.024   3.380   1.756  1.8620  0.6709 -0.2007
  368MOL0     H50751   3.002   3.241   1.868 -0.4843 -0.2958 -1.0492
  368MOL0     H50752   3.162   3.489   1.941  1.4338 -2.2470 -2.9950
  368MOL0     H50753   3.061   3.379   2.040  0.6423 -2.3781 -1.4345
  368MOL0     H50754   2.860   3.486   1.903 -0.7903  1.1984 -1.6509
  368MOL0     H50755   2.992   3.592   1.835  4.7672 -1.0110  1.1820
  368MOL0     H50756   2.871   3.709   1.991  0.2526 -0.7858 -1.2648
  368MOL0     H50757   2.898   3.586   2.114 -3.1518 -3.8150 -2.5045
  368MOL0     H50758   3.131   3.740   1.976 -0.0788 -0.3362 -0.3470
  368MOL0     H50759   3.139   3.652   2.126  2.8684  0.5869 -0.5272
  368MOL0     H50760   3.142   3.883   2.180 -0.5678  2.9803 -1.2169
  368MOL0     H50761   2.973   3.850   2.202 -0.2970 -2.7153 -0.5522
  368MOL0     H50762   2.912   3.940   1.980  0.5576  0.7470 -1.6521
  368MOL0     H50763   3.088   3.931   1.939  2.4260 -3.7532  2.9888
  368MOL0     H50764   3.460   3.224   1.773  1.7911  0.5517 -0.6951
  368MOL0     H50765   3.643   3.127   1.642 -0.3062  0.0194  0.4141
  368MOL0     H50766   3.762   2.773   1.537  1.0026 -1.9506  1.4951
  368MOL0     H50767   3.855   2.555   1.568 -0.1635  1.6703  1.2463
  368MOL0     H50768   3.728   1.206   2.560  2.7103  0.5163  0.4481
  368MOL0     H50769   3.484   1.225   2.615  0.9785 -0.2448  0.1015
  368MOL0     H50770   3.240   1.328   3.079  0.4526  1.0692  1.3031
  368MOL0     H50771   3.040   1.332   3.183 -0.1137  2.5330  0.2937
  368MOL0     H50772   2.731   1.317   3.208  1.0973 -0.8324  3.0573
  368MOL0     H50773   2.846   1.441   3.266  0.5020  1.0861 -1.4104
  368MOL0     H50774   2.607   1.465   3.337  1.8006  1.5549  0.8538
  368MOL0     H50775   2.573   1.474   3.162  0.0246  1.7325 -0.3574
  368MOL0     H50776   2.719   1.708   3.313  0.1216  1.9684 -1.3681
  368MOL0     H50777   2.703   1.680   3.139 -0.0144 -1.1628 -0.3580
  368MOL0     H50778   2.523   1.829   3.259 -1.4755 -0.6802  1.2602
  368MOL0     H50779   2.475   1.668   3.321  1.4531 -1.6899  0.7777
  368MOL0     H50780   2.361   1.733   2.900 -0.2536 -1.1474 -0.0883
  368MOL0     H50781   2.843   1.483   2.840  0.0842 -1.4553 -0.8409
  368MOL0     H50782   3.119   1.532   2.630  0.4041 -0.5247 -1.7568
  368MOL0     H50783   3.074   1.371   2.599  1.6204  1.6301 -0.6284
  368MOL0     H50784   2.946   1.487   2.645  0.0625  0.7900  1.3498
  369MOL0     O50785   9.668   5.290   8.147  0.1123  0.2542 -0.1730
  369MOL0     C50786   9.786   5.281   8.194 -0.1450 -0.3346  0.8224
  369MOL0     O50787   9.861   5.389   8.244  0.3798  0.8520 -0.2483
  369MOL0     C50788   9.800   5.510   8.262  0.6114  0.3701  0.2425
  369MOL0     C50789   9.682   5.533   8.341 -0.8500  0.5471  0.2448
  369MOL0     C50790   9.639   5.666   8.348  0.1930  0.1808  0.7871
  369MOL0     C50791   9.712   5.773   8.284 -0.4097 -0.0553  1.0011
  369MOL0     O50792   9.643   5.894   8.282 -0.6370  0.4679  0.7400
  369MOL0     C50793   9.644   5.966   8.153  1.2277  0.9733 -0.2868
  369MOL0     C50794   9.747   6.084   8.156 -0.7509 -1.1971  0.4968
  369MOL0     C50795   9.751   6.145   8.004  0.4146 -0.5512  0.0607
  369MOL0     C50796   9.868   6.252   7.981 -0.3308  0.2366 -0.6975
  369MOL0     C50797   9.887   6.274   7.836  0.3568  0.5932  1.1373
  369MOL0     C50798   9.766   6.338   7.765  0.2597 -0.2306 -0.1956
  369MOL0     C50799   9.778   6.322   7.609  0.4833 -1.0200 -1.3731
  369MOL0     C50800   9.908   6.365   7.547 -0.3212  0.1183  0.2142
  369MOL0     N50801   9.901   6.386   7.399  0.3157  0.2307 -0.7922
  369MOL0     C50802   9.914   6.284   7.305  0.1033 -0.7204 -0.9975
  369MOL0     C50803   9.894   6.345   7.188  0.5921 -0.0727 -0.1758
  369MOL0     C50804   9.894   6.281   7.050 -0.0231  0.0884  0.4864
  369MOL0     C50805   9.762   6.209   7.003 -0.5716 -0.5158  0.1842
  369MOL0     C50806   9.704   6.111   7.110  1.2778  0.3382  0.1091
  369MOL0     C50807   9.648   5.983   7.046 -0.2222 -0.0798  0.2741
  369MOL0     O50808   9.649   5.873   7.134  0.7514  0.2220  0.7970
  369MOL0     C50809   9.761   5.792   7.173 -0.2468 -0.1828  0.0719
  369MOL0     C50810   9.882   5.821   7.120  0.0627 -0.6323 -0.2482
  369MOL0     C50811  10.001   5.744   7.132 -0.3843 -0.0807 -0.1281
  369MOL0     C50812  10.124   5.792   7.063  0.0008 -0.2850 -0.1698
  369MOL0     C50813   9.982   5.624   7.204  0.5531 -0.0732  1.1676
  369MOL0     C50814  10.084   5.522   7.214  0.1928  0.0736 -0.2366
  369MOL0     O50815  10.084   5.446   7.331  0.0493 -0.4279 -0.1408
  369MOL0     C50816  10.190   5.367   7.359  0.3465 -0.1746 -0.3015
  369MOL0     C50817  10.279   5.405   7.460 -0.0650 -0.5010 -1.2326
  369MOL0     C50818  10.395   5.328   7.501 -0.1799  0.0267  0.5231
  369MOL0     C50819  10.418   5.207   7.432  0.4848 -0.2784  1.3696
  369MOL0     O50820  10.518   5.122   7.460  0.0056 -0.2136 -0.8450
  369MOL0     C50821  10.625   5.170   7.540 -0.7827  0.8199 -0.9226
  369MOL0     C50822  10.740   5.076   7.523 -0.3940  0.2946 -0.3126
  369MOL0     C50823  10.853   5.083   7.627  0.0445  1.0118 -0.2585
  369MOL0     C50824  10.986   5.139   7.565 -0.4694  0.3887 -0.0858
  369MOL0     C50825  11.090   5.158   7.671 -0.1503  0.0253 -0.1468
  369MOL0     C50826  11.156   5.033   7.707 -0.0695  0.5612 -0.3746
  369MOL0     C50827  11.241   4.967   7.600 -1.0587  0.4425 -0.5700
  369MOL0     C50828  11.320   4.854   7.661  0.2552 -0.4524 -0.3214
  369MOL0    Cl50829  11.422   4.771   7.530 -0.2370 -0.3993 -0.4394
  369MOL0     C50830  10.338   5.170   7.318 -0.1737 -0.1319  0.1002
  369MOL0     C50831  10.222   5.246   7.286  0.5047 -0.4923 -0.1636
  369MOL0     O50832  10.169   5.502   7.120 -0.4071 -0.2472 -0.3548
  369MOL0     C50833   9.858   5.593   7.262  0.4540 -0.5293  0.8923
  369MOL0     C50834   9.746   5.671   7.242 -0.8993 -0.4927 -0.2020
  369MOL0     N50835   9.870   6.485   7.209  0.0355  0.0516 -0.0700
  369MOL0     N50836   9.883   6.503   7.335  0.0169  0.1472  0.4623
  369MOL0     C50837   9.828   5.748   8.216  0.0207 -0.0061 -0.7952
  369MOL0     C50838   9.861   5.621   8.213  0.2025 -0.2368 -0.1777
  369MOL0     C50839   9.844   5.139   8.190 -0.0423  0.3938  0.0049
  369MOL0     C50840   9.809   5.048   8.089 -0.0794  0.1652 -0.0073
  369MOL0     C50841   9.831   4.917   8.099 -0.1214  0.9410  0.0929
  369MOL0     C50842   9.899   4.852   8.205 -0.2561 -0.0211 -0.3330
  369MOL0     O50843   9.916   4.714   8.201 -0.1515 -0.8317 -0.0066
  369MOL0     C50844   9.932   4.637   8.324 -0.9651  0.2652 -0.3993
  369MOL0     C50845   9.900   4.493   8.295  0.2542  0.0640  0.6786
  369MOL0     C50846  10.003   4.429   8.189 -0.0739  0.1648  0.9517
  369MOL0     C50847   9.975   4.282   8.160 -0.6679 -0.0252  0.6562
  369MOL0     C50848   9.833   4.268   8.104  0.0437  0.3285 -0.1043
  369MOL0     C50849   9.728   4.246   8.051  0.7768  0.4800  0.1651
  369MOL0     C50850   9.945   4.935   8.300 -0.7296 -0.1407  0.7771
  369MOL0     C50851   9.929   5.079   8.292  0.1903 -1.3904 -0.7187
  369MOL0     C50852   9.997   5.161   8.398  0.0044  0.0155  0.3108
  369MOL0     H50853   9.636   5.454   8.399 -1.2794  1.0678  0.6333
  369MOL0     H50854   9.549   5.692   8.402 -1.2158  1.4192 -1.9468
  369MOL0     H50855   9.543   6.006   8.144  0.4967 -0.4511  1.1273
  369MOL0     H50856   9.657   5.895   8.071 -3.2635 -0.0476 -0.3381
  369MOL0     H50857   9.713   6.156   8.230 -2.7448  1.2435 -2.5376
  369MOL0     H50858   9.844   6.054   8.197 -0.4122 -0.4469  0.2602
  369MOL0     H50859   9.757   6.059   7.936 -1.5827 -1.0355  0.4122
  369MOL0     H50860   9.652   6.186   7.978  0.7886  0.9435  0.8932
  369MOL0     H50861   9.837   6.339   8.038 -0.8615  0.0585 -0.7038
  369MOL0     H50862   9.962   6.211   8.018 -0.8593 -0.4857 -0.1266
  369MOL0     H50863   9.913   6.178   7.790 -3.1112  0.1923 -0.2892
  369MOL0     H50864   9.969   6.341   7.810  1.2222 -1.2082 -1.0713
  369MOL0     H50865   9.679   6.288   7.808  0.8846 -0.4776  0.8300
  369MOL0     H50866   9.767   6.446   7.781  1.6266  0.3439 -3.3123
  369MOL0     H50867   9.695   6.381   7.569  0.6927 -0.4390 -0.9602
  369MOL0     H50868   9.759   6.218   7.580 -0.4223 -1.9515  2.0335
  369MOL0     H50869   9.932   6.461   7.593 -2.5625  1.5353 -1.3374
  369MOL0     H50870   9.986   6.293   7.572 -2.0712 -1.3748  1.7163
  369MOL0     H50871   9.916   6.177   7.327 -0.1001 -0.4977  0.1707
  369MOL0     H50872   9.977   6.210   7.047 -1.8030 -2.1199 -0.0836
  369MOL0     H50873   9.905   6.368   6.985 -0.0354  1.0623  1.7693
  369MOL0     H50874   9.687   6.284   6.975 -2.0209 -1.3810  1.5379
  369MOL0     H50875   9.787   6.157   6.911  0.9561  2.2505 -1.0716
  369MOL0     H50876   9.774   6.069   7.183 -1.8498 -0.2057  3.0049
  369MOL0     H50877   9.621   6.148   7.170  1.5434 -2.1378  2.1861
  369MOL0     H50878   9.544   5.994   7.013 -0.7314 -1.1475  1.4378
  369MOL0     H50879   9.706   5.963   6.956  1.1877 -0.2619  1.2025
  369MOL0     H50880   9.905   5.918   7.076  0.6260  0.1070  1.5618
  369MOL0     H50881  10.107   5.890   7.018 -2.8552  0.2406  1.7880
  369MOL0     H50882  10.147   5.720   6.984 -1.6219 -1.2591  0.1994
  369MOL0     H50883  10.215   5.793   7.124 -0.9248  0.0727  1.2318
  369MOL0     H50884  10.261   5.498   7.513 -1.3159 -0.7962 -1.1208
  369MOL0     H50885  10.447   5.364   7.589  1.3622 -0.3151 -0.2143
  369MOL0     H50886  10.649   5.271   7.505 -2.3739  1.2497 -0.8423
  369MOL0     H50887  10.582   5.165   7.640  0.8406 -0.3205 -0.2463
  369MOL0     H50888  10.707   4.972   7.534 -3.6218  1.1741 -0.7680
  369MOL0     H50889  10.770   5.101   7.421 -2.4192 -1.2409 -1.3570
  369MOL0     H50890  10.871   4.979   7.655 -2.0816  0.4299 -0.8397
  369MOL0     H50891  10.815   5.144   7.710  0.1075  0.3753  0.2481
  369MOL0     H50892  10.961   5.234   7.517 -0.3858  0.2536 -0.4032
  369MOL0     H50893  11.021   5.068   7.489  0.8615  1.7751 -0.8103
  369MOL0     H50894  11.173   5.226   7.652  1.9334 -1.4059  3.0533
  369MOL0     H50895  11.039   5.180   7.765 -0.9722  0.3081 -0.6497
  369MOL0     H50896  11.087   4.956   7.744  2.3595 -0.5980  2.0230
  369MOL0     H50897  11.203   5.070   7.799 -1.9626  0.4998  0.6744
  369MOL0     H50898  11.318   5.039   7.570 -0.3544 -0.4660 -0.9515
  369MOL0     H50899  11.189   4.924   7.514  0.5425  3.2984 -3.1784
  369MOL0     H50900  11.259   4.773   7.703 -0.7162 -1.2571 -3.0619
  369MOL0     H50901  11.383   4.882   7.746 -0.8405 -0.4802  0.5356
  369MOL0     H50902  10.373   5.075   7.277  2.9313  0.7482  0.5070
  369MOL0     H50903  10.167   5.224   7.195  1.9232  1.7593 -1.6850
  369MOL0     H50904   9.855   5.514   7.336  2.0735  0.3435  1.9397
  369MOL0     H50905   9.646   5.647   7.276 -0.6183  0.3317  1.3274
  369MOL0     H50906   9.892   5.820   8.167  1.4032 -0.3310  0.4521
  369MOL0     H50907   9.959   5.610   8.166  0.6123  0.7428  0.4261
  369MOL0     H50908   9.759   5.085   8.000 -0.7024  0.3352  0.4027
  369MOL0     H50909   9.795   4.850   8.022 -0.3559 -0.9048  1.7404
  369MOL0     H50910  10.035   4.649   8.358  0.0051  1.2631 -3.3310
  369MOL0     H50911   9.852   4.664   8.393 -0.3033 -0.7505  0.8004
  369MOL0     H50912   9.797   4.480   8.259  1.0490  0.2132 -1.7799
  369MOL0     H50913   9.914   4.434   8.386  1.5346  1.9198  1.7534
  369MOL0     H50914   9.999   4.477   8.091 -0.1714 -1.5317  0.0971
  369MOL0     H50915  10.103   4.434   8.235  0.5119  1.6527 -0.3987
  369MOL0     H50916   9.997   4.213   8.242  1.7685 -3.1320 -2.3182
  369MOL0     H50917  10.046   4.255   8.081 -0.6596  2.5433 -0.3281
  369MOL0     H50918   9.635   4.212   8.010 -1.4777  3.7199  2.0735
  369MOL0     H50919   9.991   4.895   8.390 -1.1026 -3.8953 -0.5344
  369MOL0     H50920  10.049   5.101   8.474  0.1339  0.6500  0.7295
  369MOL0     H50921  10.072   5.223   8.349 -0.9552  2.4719  1.7938
  369MOL0     H50922   9.924   5.224   8.449  0.2139  0.1403  0.4556
  370MOL0     O50923   6.056   7.263   1.756 -0.5463 -1.2161  0.1197
  370MOL0     C50924   5.955   7.285   1.693  1.3060 -0.0119  0.0640
  370MOL0     O50925   5.924   7.400   1.627 -0.3605  0.1141  0.6571
  370MOL0     C50926   6.023   7.473   1.564 -0.1774  0.5111  0.5339
  370MOL0     C50927   6.162   7.428   1.552  0.5052 -0.4917 -0.0851
  370MOL0     C50928   6.245   7.501   1.464  0.4170  0.9346  0.8681
  370MOL0     C50929   6.199   7.602   1.377 -0.5465 -0.1102  0.1377
  370MOL0     O50930   6.270   7.653   1.267 -0.1948  0.1132 -0.2120
  370MOL0     C50931   6.408   7.680   1.302  0.5246  0.3822 -0.5263
  370MOL0     C50932   6.458   7.802   1.221 -1.0254  0.3246 -0.0801
  370MOL0     C50933   6.614   7.822   1.204 -0.5082  0.1023 -0.4310
  370MOL0     C50934   6.631   7.929   1.095 -0.6150  1.0490 -0.9824
  370MOL0     C50935   6.778   7.994   1.084  0.0569  0.1594  1.0332
  370MOL0     C50936   6.897   7.910   1.036 -0.4144 -0.7041  0.8941
  370MOL0     C50937   6.865   7.831   0.916  0.1993 -0.1509 -0.2482
  370MOL0     C50938   6.892   7.924   0.791 -1.1488 -0.8670  0.1601
  370MOL0     N50939   6.789   7.920   0.695  0.3934  0.2489 -0.3603
  370MOL0     C50940   6.679   7.993   0.700 -0.6347 -0.0502  0.5101
  370MOL0     C50941   6.606   7.955   0.587 -0.6736  0.5130 -0.3113
  370MOL0     C50942   6.467   7.994   0.548  0.6472 -0.3273 -0.5753
  370MOL0     C50943   6.447   7.938   0.401 -0.3398  1.4023 -0.4090
  370MOL0     C50944   6.312   7.987   0.344  0.1768 -0.0555  0.4716
  370MOL0     C50945   6.319   8.132   0.295 -0.4408  0.0090 -1.3044
  370MOL0     O50946   6.186   8.178   0.256 -0.1736  0.7831  0.1673
  370MOL0     C50947   6.171   8.236   0.131 -0.2542 -0.5468  0.3958
  370MOL0     C50948   6.056   8.222   0.057  0.4654 -1.2731 -0.0139
  370MOL0     C50949   6.037   8.299  -0.057 -0.4375 -0.5715  0.4024
  370MOL0     C50950   5.905   8.284  -0.122  0.3748 -0.0917 -0.5930
  370MOL0     C50951   6.135   8.389  -0.095  0.1159  0.4922 -0.0829
  370MOL0     C50952   6.109   8.471  -0.219 -0.5676  1.0707  0.1489
  370MOL0     O50953   6.169   8.592  -0.217  0.5512 -0.7469 -0.0334
  370MOL0     C50954   6.207   8.665  -0.331 -0.0310 -0.5409 -0.4053
  370MOL0     C50955   6.230   8.797  -0.318  0.2891  0.0167 -0.0446
  370MOL0     C50956   6.259   8.877  -0.425 -0.3332  0.0246  0.8535
  370MOL0     C50957   6.257   8.823  -0.554  0.2451  0.2524 -0.1585
  370MOL0     O50958   6.264   8.898  -0.663  0.3546 -1.5474  0.6078
  370MOL0     C50959   6.385   8.979  -0.668  0.1380 -0.0515 -0.5293
  370MOL0     C50960   6.384   9.043  -0.811  0.0366  0.5840  0.3109
  370MOL0     C50961   6.519   9.111  -0.843 -0.9755 -0.5435  0.6093
  370MOL0     C50962   6.516   9.224  -0.943  1.0887 -0.1452 -0.3149
  370MOL0     C50963   6.648   9.298  -0.939  0.8100  0.2706  0.0996
  370MOL0     C50964   6.646   9.434  -0.873 -0.3506  0.4846 -1.0463
  370MOL0     C50965   6.784   9.503  -0.856  0.1489 -0.0310  0.9669
  370MOL0     C50966   6.758   9.614  -0.753  0.5490  0.4727 -0.0893
  370MOL0    Cl50967   6.681   9.750  -0.831 -0.3543  0.6304  0.4823
  370MOL0     C50968   6.243   8.678  -0.567  0.0889  0.0257 -0.8006
  370MOL0     C50969   6.220   8.601  -0.457  0.1923 -0.0426  0.0914
  370MOL0     O50970   6.036   8.431  -0.311  0.3676  0.9362  0.2463
  370MOL0     C50971   6.250   8.405  -0.023  0.0518  1.4436 -0.0674
  370MOL0     C50972   6.278   8.320   0.080 -0.0981 -0.1541 -0.9084
  370MOL0     N50973   6.685   7.871   0.512 -0.2924 -0.5950 -0.2374
  370MOL0     N50974   6.804   7.857   0.571 -0.0389 -0.8949  0.3565
  370MOL0     C50975   6.068   7.638   1.390 -0.2010 -0.2966  0.5531
  370MOL0     C50976   5.984   7.589   1.477  0.3528 -0.3540 -0.0896
  370MOL0     C50977   5.850   7.178   1.693 -0.2479 -0.2269  0.2060
  370MOL0     C50978   5.851   7.092   1.801 -0.5402  1.2422 -0.3226
  370MOL0     C50979   5.762   6.993   1.812 -0.5390 -0.7073 -0.7546
  370MOL0     C50980   5.667   6.971   1.717  1.0504  1.6145  0.4555
  370MOL0     O50981   5.587   6.862   1.728  0.9890  0.0661  0.2130
  370MOL0     C50982   5.475   6.894   1.800  0.4381 -0.7575 -0.2603
  370MOL0     C50983   5.381   6.786   1.852 -0.7372  0.4228  0.3348
  370MOL0     C50984   5.342   6.684   1.743 -0.6869 -0.2253  0.4989
  370MOL0     C50985   5.443   6.565   1.732  0.1522  0.4254  0.5545
  370MOL0     C50986   5.393   6.495   1.608 -0.0766 -0.0788  0.4283
  370MOL0     C50987   5.370   6.414   1.521 -0.0515 -0.5453  0.1576
  370MOL0     C50988   5.671   7.046   1.603  0.3538 -0.4354  0.4821
  370MOL0     C50989   5.764   7.152   1.579  0.9857 -0.3282  0.5344
  370MOL0     C50990   5.761   7.219   1.448  0.3543  0.3711 -0.2265
  370MOL0     H50991   6.197   7.346   1.614 -0.1352  0.3444  1.4596
  370MOL0     H50992   6.347   7.464   1.457 -0.2565 -0.6756 -2.0628
  370MOL0     H50993   6.466   7.597   1.259 -1.5125 -0.8028 -1.1544
  370MOL0     H50994   6.413   7.684   1.411 -2.1099  0.2385 -0.3387
  370MOL0     H50995   6.416   7.801   1.120  0.3387  1.5325 -0.7049
  370MOL0     H50996   6.425   7.886   1.283  4.2494  0.1362  3.7084
  370MOL0     H50997   6.644   7.866   1.300 -1.9552  4.1157 -1.6005
  370MOL0     H50998   6.676   7.736   1.177 -0.5196 -0.1385  0.2923
  370MOL0     H50999   6.584   7.901   1.000 -1.2225 -1.9694  0.1029
  370MOL0     H51000   6.573   8.012   1.138  1.2135  0.6586  2.6606
  370MOL0     H51001   6.804   8.045   1.177 -0.6620  3.1014 -0.2460
  370MOL0     H51002   6.759   8.068   1.006  0.6986 -0.6893  0.0402
  370MOL0     H51003   6.986   7.969   1.012 -0.2843 -0.1141  2.6865
  370MOL0     H51004   6.919   7.837   1.114 -2.5817 -0.5316  1.7357
  370MOL0     H51005   6.765   7.787   0.909  0.7298 -1.4421 -0.0433
  370MOL0     H51006   6.928   7.742   0.924  2.0755  1.2590  1.7955
  370MOL0     H51007   6.908   8.028   0.823 -0.9671 -0.9207  0.2478
  370MOL0     H51008   6.981   7.877   0.748 -1.2608 -1.1349  0.2232
  370MOL0     H51009   6.651   8.061   0.779  1.2524 -0.0701  1.2483
  370MOL0     H51010   6.442   8.099   0.565  2.8491 -0.3112  4.1745
  370MOL0     H51011   6.405   7.944   0.623  3.0494 -0.4304  1.4601
  370MOL0     H51012   6.525   7.953   0.326 -3.0234  1.3166 -3.4086
  370MOL0     H51013   6.448   7.829   0.406 -1.8580  1.4273  1.3418
  370MOL0     H51014   6.282   7.917   0.265  2.2349  0.4224 -0.7864
  370MOL0     H51015   6.237   7.991   0.425 -2.4416  0.8077 -1.8371
  370MOL0     H51016   6.348   8.191   0.382  0.3016 -1.8669 -0.2378
  370MOL0     H51017   6.400   8.144   0.221  0.7301 -0.2088 -0.0943
  370MOL0     H51018   5.982   8.149   0.086  1.5174 -1.6575  1.8978
  370MOL0     H51019   5.924   8.237  -0.219  0.5099 -1.8822  0.2477
  370MOL0     H51020   5.860   8.383  -0.127 -1.4727 -0.9494 -3.7875
  370MOL0     H51021   5.849   8.210  -0.064  2.5018 -3.6152 -2.6210
  370MOL0     H51022   6.221   8.844  -0.220  0.0731 -1.9192  0.9103
  370MOL0     H51023   6.265   8.983  -0.403 -2.4580  0.7697 -1.5968
  370MOL0     H51024   6.385   9.054  -0.589 -0.1863  1.3240 -1.7831
  370MOL0     H51025   6.468   8.908  -0.663 -0.4534 -0.8189 -1.1922
  370MOL0     H51026   6.353   8.972  -0.889  1.7776  0.9708 -0.7810
  370MOL0     H51027   6.306   9.119  -0.822  0.4269  0.9814  0.2679
  370MOL0     H51028   6.577   9.029  -0.887 -1.5506  0.5104 -2.3013
  370MOL0     H51029   6.560   9.138  -0.745 -0.3760 -0.8141  0.4369
  370MOL0     H51030   6.449   9.302  -0.904  0.0096 -1.2056  0.0073
  370MOL0     H51031   6.482   9.189  -1.041  0.1516 -0.8236  0.2366
  370MOL0     H51032   6.730   9.243  -0.890  0.4177  1.3628  2.0862
  370MOL0     H51033   6.685   9.314  -1.041  0.1461  0.5722 -0.0975
  370MOL0     H51034   6.594   9.418  -0.778  1.0759 -2.9911 -0.6977
  370MOL0     H51035   6.589   9.502  -0.938 -2.9489  3.7200  3.9695
  370MOL0     H51036   6.809   9.543  -0.955 -1.5334  0.7933  0.8356
  370MOL0     H51037   6.860   9.437  -0.815  0.9142  0.5311  0.4738
  370MOL0     H51038   6.853   9.646  -0.709  0.5109 -0.0045  0.3553
  370MOL0     H51039   6.709   9.573  -0.664  4.8428 -1.5712  1.6068
  370MOL0     H51040   6.248   8.628  -0.663 -2.2230 -1.7297 -0.0842
  370MOL0     H51041   6.238   8.494  -0.469 -0.5062  0.1075 -2.9543
  370MOL0     H51042   6.333   8.472  -0.043  2.0151  0.2942  3.4228
  370MOL0     H51043   6.371   8.330   0.135 -1.0976 -2.4987  1.4258
  370MOL0     H51044   6.025   7.719   1.332  1.0867  0.2579  0.3486
  370MOL0     H51045   5.886   7.636   1.473  1.1161  1.4614  1.2205
  370MOL0     H51046   5.928   7.105   1.876 -2.8315 -2.4993  3.1228
  370MOL0     H51047   5.766   6.926   1.897 -2.3223 -1.6785 -1.3754
  370MOL0     H51048   5.508   6.964   1.877  2.7621 -2.5371  0.5085
  370MOL0     H51049   5.418   6.935   1.716  0.0425 -0.3902  0.1841
  370MOL0     H51050   5.290   6.839   1.884 -0.6555  0.3413  0.7169
  370MOL0     H51051   5.404   6.729   1.942 -0.6150 -2.7048 -1.5451
  370MOL0     H51052   5.243   6.642   1.765 -1.1920  0.9864  0.6064
  370MOL0     H51053   5.336   6.736   1.647  3.5371 -1.4680 -0.6396
  370MOL0     H51054   5.438   6.490   1.811  0.3396 -1.3897 -1.0646
  370MOL0     H51055   5.544   6.599   1.706 -0.8222  1.6452 -2.0675
  370MOL0     H51056   5.355   6.340   1.445  0.9691 -1.9626  1.2714
  370MOL0     H51057   5.606   7.011   1.524  3.4992  0.4601 -2.8029
  370MOL0     H51058   5.722   7.318   1.474 -3.0694 -1.6706  3.6924
  370MOL0     H51059   5.864   7.220   1.414  0.3379 -0.6912 -0.3388
  370MOL0     H51060   5.687   7.177   1.379  0.9104  0.9821 -1.2067
  371MOL0     O51061   9.374   4.291   5.518  0.1477 -0.3174  0.3390
  371MOL0     C51062   9.413   4.220   5.610 -0.3031  0.4946 -0.2018
  371MOL0     O51063   9.395   4.240   5.747 -0.2566 -0.4613 -0.7682
  371MOL0     C51064   9.327   4.356   5.789  0.6318  0.5233  0.8482
  371MOL0     C51065   9.387   4.442   5.869 -0.1800 -1.3252 -0.0444
  371MOL0     C51066   9.315   4.544   5.940  0.5511  0.8335  0.4160
  371MOL0     C51067   9.185   4.574   5.895 -0.1330 -0.1636  0.3704
  371MOL0     O51068   9.128   4.689   5.948  0.3867 -0.4529 -0.3571
  371MOL0     C51069   9.002   4.719   5.889 -0.2742  0.2469 -0.0960
  371MOL0     C51070   8.936   4.852   5.954 -1.1019  0.2809 -0.8196
  371MOL0     C51071   8.907   4.829   6.102  0.2126 -0.7631 -0.9083
  371MOL0     C51072   8.878   4.955   6.178  0.2673  0.1363 -0.1972
  371MOL0     C51073   8.854   4.935   6.325 -0.5278 -0.3062 -0.0780
  371MOL0     C51074   8.841   5.059   6.408  0.1568 -0.7439 -0.1670
  371MOL0     C51075   8.967   5.147   6.434 -0.1823  0.7179  0.2391
  371MOL0     C51076   9.082   5.085   6.524 -0.1277  0.8528 -0.3186
  371MOL0     N51077   9.167   4.994   6.455 -0.0754  0.0311  0.3210
  371MOL0     C51078   9.197   4.864   6.496 -0.0305 -0.2537  0.0273
  371MOL0     C51079   9.272   4.808   6.397 -0.2943  0.8054 -0.1524
  371MOL0     C51080   9.322   4.667   6.388  0.1328  0.9078 -0.4962
  371MOL0     C51081   9.210   4.568   6.361  0.6549  1.0619 -0.3255
  371MOL0     C51082   9.109   4.544   6.474 -0.3822  0.2272  0.4055
  371MOL0     C51083   9.017   4.424   6.434  0.3178 -0.0669  0.1218
  371MOL0     O51084   8.942   4.420   6.308  0.3733 -0.2435 -0.6749
  371MOL0     C51085   8.939   4.296   6.240  1.1349 -0.8521 -0.0953
  371MOL0     C51086   8.905   4.177   6.296  0.7931 -1.3627 -0.6679
  371MOL0     C51087   8.932   4.062   6.230 -0.6818  0.8078 -0.1000
  371MOL0     C51088   8.906   3.930   6.305 -0.2689 -0.7291  0.4895
  371MOL0     C51089   8.977   4.063   6.097 -0.9785 -0.1940  0.2798
  371MOL0     C51090   8.988   3.940   6.023 -0.3499 -0.1530 -0.2057
  371MOL0     O51091   9.094   3.928   5.944 -0.2507  0.2592 -0.2685
  371MOL0     C51092   9.123   3.807   5.887  0.2458  0.0480  0.2986
  371MOL0     C51093   9.075   3.774   5.759  0.5983  0.6666  0.5803
  371MOL0     C51094   9.115   3.647   5.705 -0.5543  0.2268  0.5928
  371MOL0     C51095   9.214   3.574   5.759 -0.5455 -0.0979  0.2336
  371MOL0     O51096   9.229   3.455   5.696  0.8096 -0.0054  0.1508
  371MOL0     C51097   9.116   3.369   5.685 -0.2124 -0.8391  0.1413
  371MOL0     C51098   9.129   3.293   5.556  1.0215  0.6400 -0.5564
  371MOL0     C51099   9.208   3.160   5.562  0.5999  0.6906 -0.3602
  371MOL0     C51100   9.122   3.035   5.589  0.0186 -0.3701 -0.4325
  371MOL0     C51101   9.177   2.897   5.548 -0.6509 -0.3543  0.4624
  371MOL0     C51102   9.306   2.868   5.618  0.7524  0.0966 -0.4442
  371MOL0     C51103   9.356   2.721   5.643  0.0447 -0.0874 -0.4081
  371MOL0     C51104   9.491   2.690   5.580  0.4279 -0.5570 -0.1201
  371MOL0    Cl51105   9.499   2.515   5.607 -0.2252 -0.2703 -0.2880
  371MOL0     C51106   9.269   3.613   5.883  0.7467 -0.6548 -0.6317
  371MOL0     C51107   9.230   3.738   5.934  0.6508  0.7467  0.4012
  371MOL0     O51108   8.899   3.857   6.035  0.0951  0.3228 -0.4007
  371MOL0     C51109   9.008   4.187   6.043  0.4001 -0.0896  0.3975
  371MOL0     C51110   8.985   4.307   6.115  1.0510  0.0466  0.7985
  371MOL0     N51111   9.285   4.903   6.292  0.6824  0.5576  0.6257
  371MOL0     N51112   9.217   5.010   6.328 -0.1635  0.3519 -0.3414
  371MOL0     C51113   9.126   4.492   5.801 -0.0599 -0.6898 -0.4391
  371MOL0     C51114   9.194   4.382   5.753 -0.0828  0.3961 -0.0563
  371MOL0     C51115   9.481   4.096   5.573  1.3264 -0.6932  0.5987
  371MOL0     C51116   9.410   3.975   5.577  0.2408  0.5896  0.3600
  371MOL0     C51117   9.471   3.850   5.560 -0.4548 -0.4783 -1.0450
  371MOL0     C51118   9.614   3.843   5.538 -0.2076 -0.7246  0.2195
  371MOL0     O51119   9.686   3.733   5.506  0.3138  0.1111  0.0473
  371MOL0     C51120   9.670   3.618   5.584  0.8899  0.5934 -1.4172
  371MOL0     C51121   9.778   3.595   5.689  0.0133 -0.7091  0.1885
  371MOL0     C51122   9.730   3.492   5.794 -0.8996  0.0679 -0.3419
  371MOL0     C51123   9.826   3.465   5.909 -0.7916  0.3349  0.8989
  371MOL0     C51124   9.946   3.397   5.868 -0.6144 -0.2521  0.0794
  371MOL0     C51125  10.044   3.329   5.847  0.4526  0.6398  0.4478
  371MOL0     C51126   9.684   3.970   5.561 -0.1029 -0.1007 -1.2073
  371MOL0     C51127   9.620   4.098   5.573 -0.2201 -0.8192  0.7473
  371MOL0     C51128   9.702   4.223   5.586 -0.4322  0.1805  0.7137
  371MOL0     H51129   9.487   4.411   5.898  0.0156 -1.3695 -0.7619
  371MOL0     H51130   9.369   4.608   6.008  3.1768  0.2069 -0.9439
  371MOL0     H51131   8.927   4.642   5.903 -3.1688  3.1802  1.9322
  371MOL0     H51132   9.013   4.742   5.782  2.4053  2.8709  0.6174
  371MOL0     H51133   9.015   4.922   5.928 -2.1258  0.9105 -2.3972
  371MOL0     H51134   8.851   4.890   5.896 -1.4153 -1.9166 -1.9061
  371MOL0     H51135   8.835   4.747   6.114  0.4911 -1.1737 -1.9484
  371MOL0     H51136   8.996   4.789   6.151  0.6784 -0.9640 -1.8910
  371MOL0     H51137   8.962   5.022   6.159 -0.4033  0.1794 -3.8498
  371MOL0     H51138   8.796   5.002   6.123  0.9849 -1.0196 -2.3657
  371MOL0     H51139   8.945   4.887   6.362  0.0755  1.7322  1.1718
  371MOL0     H51140   8.763   4.876   6.342 -0.1695 -0.2401  2.3835
  371MOL0     H51141   8.754   5.118   6.379 -1.6396 -2.3123  1.7354
  371MOL0     H51142   8.802   5.026   6.504  1.7776 -2.9383 -0.1971
  371MOL0     H51143   8.932   5.235   6.489 -0.5290  2.4418 -2.5087
  371MOL0     H51144   9.023   5.183   6.347  3.8846 -1.7236  1.5912
  371MOL0     H51145   9.145   5.167   6.559  3.4558 -0.7865 -2.4643
  371MOL0     H51146   9.031   5.037   6.608 -0.1069  3.3757  1.2512
  371MOL0     H51147   9.174   4.802   6.582  2.1199 -0.9246  0.1723
  371MOL0     H51148   9.364   4.652   6.488 -1.2470  4.4712  0.8225
  371MOL0     H51149   9.403   4.663   6.315  0.5394 -3.4591 -0.0423
  371MOL0     H51150   9.163   4.608   6.271  2.7967  0.6931 -1.6773
  371MOL0     H51151   9.246   4.472   6.325 -0.9069  0.8238 -1.3817
  371MOL0     H51152   9.162   4.525   6.568  2.6147  1.3896 -0.9110
  371MOL0     H51153   9.042   4.630   6.487  0.9976  1.4272 -0.1181
  371MOL0     H51154   9.083   4.337   6.439  1.1135  0.4209 -1.2570
  371MOL0     H51155   8.936   4.419   6.507 -0.6385  0.7861 -0.8360
  371MOL0     H51156   8.856   4.179   6.393  2.2285  0.3278  0.0897
  371MOL0     H51157   8.978   3.854   6.274 -0.8947  0.0684 -3.4061
  371MOL0     H51158   8.804   3.901   6.277 -0.7617  0.4236  1.0078
  371MOL0     H51159   8.916   3.949   6.413  1.5359 -0.3112  0.2698
  371MOL0     H51160   8.998   3.843   5.726 -1.3023 -1.5192  0.1826
  371MOL0     H51161   9.071   3.633   5.607 -2.1415  1.6682  1.0603
  371MOL0     H51162   9.097   3.305   5.772 -0.3726  0.2309  0.9176
  371MOL0     H51163   9.023   3.424   5.673 -0.5679 -1.4978 -0.1555
  371MOL0     H51164   9.033   3.270   5.509  0.3448 -2.9580  2.1903
  371MOL0     H51165   9.180   3.361   5.486 -0.4310 -1.0060 -3.3987
  371MOL0     H51166   9.279   3.161   5.645  2.4854  1.1465 -1.9043
  371MOL0     H51167   9.261   3.160   5.466  2.0184  4.4942  0.2339
  371MOL0     H51168   9.020   3.036   5.550 -0.4150 -1.7837  0.5702
  371MOL0     H51169   9.113   3.037   5.698 -0.7593  1.8553 -0.5060
  371MOL0     H51170   9.099   2.821   5.562 -1.0608  0.3844  2.5600
  371MOL0     H51171   9.196   2.909   5.441 -2.4946  3.0758  0.3949
  371MOL0     H51172   9.310   2.918   5.716 -0.1142 -0.3779 -0.1507
  371MOL0     H51173   9.371   2.920   5.548 -2.9467  1.0331 -3.5492
  371MOL0     H51174   9.277   2.660   5.599 -0.0519 -0.7138  0.5953
  371MOL0     H51175   9.348   2.710   5.752  0.4873  2.5419 -0.0468
  371MOL0     H51176   9.566   2.750   5.632 -0.5372 -1.3935  2.4081
  371MOL0     H51177   9.483   2.715   5.474  0.9631 -0.1293 -0.0629
  371MOL0     H51178   9.346   3.551   5.927  1.1019  1.4324  1.9624
  371MOL0     H51179   9.268   3.768   6.031  1.5064 -1.5489  0.8379
  371MOL0     H51180   9.035   4.201   5.938  0.6597 -1.9217  0.1911
  371MOL0     H51181   9.000   4.399   6.060  0.0033 -0.3693 -0.2284
  371MOL0     H51182   9.023   4.500   5.766 -0.1664 -0.3866 -0.0649
  371MOL0     H51183   9.139   4.304   5.701 -1.0469  0.8453  0.2595
  371MOL0     H51184   9.303   3.980   5.589 -0.1131  0.2347 -2.0983
  371MOL0     H51185   9.413   3.758   5.562 -1.8357  0.3095  2.7716
  371MOL0     H51186   9.573   3.619   5.635  2.0251  2.2722  0.9044
  371MOL0     H51187   9.675   3.533   5.516 -4.6694 -0.1180 -1.4136
  371MOL0     H51188   9.813   3.693   5.723 -1.3249  1.1950 -3.4074
  371MOL0     H51189   9.864   3.557   5.634 -1.1736  0.9359 -3.0443
  371MOL0     H51190   9.632   3.512   5.837 -0.9772 -1.0288  0.0403
  371MOL0     H51191   9.707   3.398   5.741 -1.5805 -2.2264  3.6523
  371MOL0     H51192   9.774   3.395   5.975  1.7715 -1.9268  0.7377
  371MOL0     H51193   9.856   3.547   5.975  1.7303  1.8833 -1.9301
  371MOL0     H51194  10.112   3.247   5.846 -0.3968 -0.0823  0.7608
  371MOL0     H51195   9.791   3.954   5.562 -0.4990 -3.7199  0.8142
  371MOL0     H51196   9.683   4.274   5.681 -0.3282 -0.5560  1.1327
  371MOL0     H51197   9.811   4.213   5.585 -0.2218  1.7898 -1.4016
  371MOL0     H51198   9.678   4.287   5.500 -1.3485 -0.2912  0.6135
  372MOL0     O51199   8.060   8.613   3.323  0.1318  0.0622 -0.0223
  372MOL0     C51200   7.995   8.688   3.397  1.0683  0.4782  0.2660
  372MOL0     O51201   7.861   8.708   3.388  0.0496  0.2740  0.0706
  372MOL0     C51202   7.791   8.684   3.277 -0.0684  0.1564  0.6418
  372MOL0     C51203   7.830   8.652   3.149  0.3075  0.2851  0.2275
  372MOL0     C51204   7.748   8.634   3.038 -0.2490  0.3466 -0.1783
  372MOL0     C51205   7.604   8.651   3.058 -0.6551  0.3703 -0.2915
  372MOL0     O51206   7.503   8.640   2.962  0.8405  0.1339 -0.0188
  372MOL0     C51207   7.556   8.625   2.830 -0.8778 -0.2774 -1.2438
  372MOL0     C51208   7.448   8.593   2.732 -0.2596  0.6369  0.5823
  372MOL0     C51209   7.508   8.570   2.592  0.0404  0.2683  0.3652
  372MOL0     C51210   7.396   8.560   2.482 -0.3172  0.0954 -0.2712
  372MOL0     C51211   7.443   8.560   2.342 -0.0363 -0.2869 -0.2360
  372MOL0     C51212   7.327   8.533   2.252 -0.4947 -0.1178 -0.1727
  372MOL0     C51213   7.383   8.508   2.106  0.1903 -0.2763 -1.1721
  372MOL0     C51214   7.282   8.430   2.012  0.0217 -1.0186 -0.8944
  372MOL0     N51215   7.145   8.485   2.006  0.0331 -0.2265  0.1976
  372MOL0     C51216   7.105   8.619   1.995  0.3124  0.9535  1.1783
  372MOL0     C51217   6.977   8.616   2.031  0.3570  0.2813  0.1057
  372MOL0     C51218   6.885   8.741   2.031 -0.9117 -0.4444  0.7890
  372MOL0     C51219   6.765   8.706   2.108 -0.7565 -0.5791  0.0690
  372MOL0     C51220   6.685   8.822   2.137  0.1721  0.2884  0.5677
  372MOL0     C51221   6.636   8.904   2.009 -0.3479 -0.8605 -0.4241
  372MOL0     O51222   6.534   8.992   2.049 -0.5400  0.5680  0.3332
  372MOL0     C51223   6.503   9.104   1.963  0.0042  0.6478 -0.5778
  372MOL0     C51224   6.427   9.101   1.846 -0.5739  0.3080 -0.5893
  372MOL0     C51225   6.402   9.217   1.775  1.0888 -0.0354 -0.9653
  372MOL0     C51226   6.292   9.202   1.670  0.0502 -0.1875 -0.0971
  372MOL0     C51227   6.459   9.342   1.808  0.0427 -0.2280  0.4725
  372MOL0     C51228   6.442   9.480   1.742  0.3684 -0.6661 -0.1719
  372MOL0     O51229   6.482   9.591   1.823  0.2933 -0.7461  1.2819
  372MOL0     C51230   6.477   9.726   1.773  0.6508  0.1126 -0.3725
  372MOL0     C51231   6.419   9.825   1.845 -0.9858 -0.1378 -0.6187
  372MOL0     C51232   6.387   9.947   1.777 -0.2583 -0.1260 -0.3832
  372MOL0     C51233   6.434   9.974   1.654 -0.3620  0.0939 -0.4429
  372MOL0     O51234   6.418  10.096   1.595 -1.1076  0.7154  0.1262
  372MOL0     C51235   6.325  10.186   1.637  0.2612  0.1353 -0.5500
  372MOL0     C51236   6.398  10.302   1.710  0.2916  0.8133  0.1452
  372MOL0     C51237   6.465  10.261   1.839 -0.0499 -0.4269  0.1006
  372MOL0     C51238   6.555  10.363   1.897  0.0763  0.9690 -1.0119
  372MOL0     C51239   6.634  10.325   2.032 -1.1726  0.0766 -0.1287
  372MOL0     C51240   6.661  10.174   2.060  0.0646  0.6377 -0.0664
  372MOL0     C51241   6.706  10.138   2.201  0.0611 -0.2074 -0.2198
  372MOL0     C51242   6.714   9.984   2.209 -0.7222  0.0453  0.1725
  372MOL0    Cl51243   6.872   9.937   2.136 -0.0691 -0.3633 -0.0259
  372MOL0     C51244   6.495   9.870   1.583 -1.3200 -0.5457 -0.3831
  372MOL0     C51245   6.513   9.749   1.639  0.0416 -0.6206 -1.0009
  372MOL0     O51246   6.382   9.479   1.635  0.4626 -0.0980  0.5380
  372MOL0     C51247   6.557   9.336   1.914  0.0627 -0.7050 -0.6085
  372MOL0     C51248   6.557   9.223   1.999  0.7643 -0.8650 -1.0684
  372MOL0     N51249   6.934   8.483   2.054 -0.7658  0.5583  0.4016
  372MOL0     N51250   7.037   8.406   2.046  0.3421  0.6440 -0.2867
  372MOL0     C51251   7.563   8.676   3.185  0.7962 -0.6937  0.8575
  372MOL0     C51252   7.650   8.687   3.290  0.9103 -0.4961 -0.1554
  372MOL0     C51253   8.065   8.724   3.510  0.1380  0.4196 -0.0563
  372MOL0     C51254   7.999   8.705   3.630  0.6795  0.0388  0.1608
  372MOL0     C51255   8.065   8.715   3.752  0.1459  1.1532  0.2136
  372MOL0     C51256   8.195   8.775   3.760  0.0903  1.0242  0.2441
  372MOL0     O51257   8.265   8.790   3.876  0.1869 -0.0208  0.6600
  372MOL0     C51258   8.197   8.777   4.008  0.2583  0.6961  0.4827
  372MOL0     C51259   8.291   8.786   4.119 -0.2121  0.3409  1.1394
  372MOL0     C51260   8.305   8.915   4.173 -0.0299 -0.4857 -1.0096
  372MOL0     C51261   8.447   8.919   4.247 -0.4076  0.1283  0.3923
  372MOL0     C51262   8.483   9.040   4.322 -0.6920 -0.2383  0.5233
  372MOL0     C51263   8.496   9.141   4.391  0.4723 -0.2986 -0.3173
  372MOL0     C51264   8.259   8.801   3.641 -1.4248  0.2082 -0.0363
  372MOL0     C51265   8.193   8.779   3.512 -0.5730 -0.4698 -0.1818
  372MOL0     C51266   8.269   8.803   3.385  0.4644  0.0675  0.0252
  372MOL0     H51267   7.932   8.630   3.119 -0.1843  1.8035 -3.0689
  372MOL0     H51268   7.795   8.603   2.946  0.9765 -2.1189  1.1687
  372MOL0     H51269   7.641   8.555   2.831  1.9360  2.8341  0.9407
  372MOL0     H51270   7.585   8.730   2.818 -1.4914 -0.0059 -0.4000
  372MOL0     H51271   7.379   8.512   2.757 -2.6344  0.2655 -5.5467
  372MOL0     H51272   7.391   8.686   2.721 -1.4584 -0.1094  0.3545
  372MOL0     H51273   7.590   8.637   2.564  0.3754 -0.2792  0.0267
  372MOL0     H51274   7.545   8.467   2.603 -0.9717 -0.1734 -0.2981
  372MOL0     H51275   7.331   8.472   2.487 -0.3719  0.1487 -0.0721
  372MOL0     H51276   7.336   8.647   2.508  2.6539  1.6312  2.0325
  372MOL0     H51277   7.527   8.490   2.336  2.1090  2.1501 -0.1460
  372MOL0     H51278   7.497   8.654   2.324  1.0054 -0.5848  1.2062
  372MOL0     H51279   7.279   8.443   2.291 -1.2655 -0.6912 -2.2762
  372MOL0     H51280   7.257   8.617   2.243 -0.1300  0.1873 -0.1790
  372MOL0     H51281   7.481   8.461   2.118 -0.3631 -0.8328  2.1440
  372MOL0     H51282   7.401   8.608   2.065 -0.1584  1.4494  2.5240
  372MOL0     H51283   7.330   8.419   1.915  2.0497 -0.0879 -0.0574
  372MOL0     H51284   7.274   8.324   2.039 -0.7686 -0.9603 -0.8691
  372MOL0     H51285   7.153   8.707   1.953  0.8415 -0.0279 -0.3539
  372MOL0     H51286   6.860   8.757   1.926  3.7277 -1.5818 -0.7431
  372MOL0     H51287   6.936   8.828   2.073 -0.1448  0.3851 -1.6659
  372MOL0     H51288   6.704   8.630   2.060 -0.3884  1.6482 -4.3859
  372MOL0     H51289   6.788   8.663   2.206 -1.6073  0.2794  0.6660
  372MOL0     H51290   6.592   8.791   2.186 -1.1498  0.1845 -1.8836
  372MOL0     H51291   6.739   8.893   2.201 -1.9363  2.6447 -0.1100
  372MOL0     H51292   6.719   8.966   1.974 -0.5459 -0.5298 -0.3136
  372MOL0     H51293   6.595   8.833   1.936 -2.8758 -2.0110  1.9420
  372MOL0     H51294   6.371   9.014   1.817  2.2310 -1.5979 -0.7064
  372MOL0     H51295   6.343   9.197   1.574  2.4844 -1.9491  1.1842
  372MOL0     H51296   6.224   9.288   1.676 -0.8948 -0.9916  1.3749
  372MOL0     H51297   6.230   9.112   1.675  0.3004 -0.2885  2.6821
  372MOL0     H51298   6.383   9.794   1.943  1.7921 -1.0239  0.2196
  372MOL0     H51299   6.340  10.014   1.847 -1.0357  0.3122 -1.2936
  372MOL0     H51300   6.283  10.226   1.544  2.1636  1.8150 -0.7430
  372MOL0     H51301   6.246  10.139   1.697  0.5454  1.2189  0.6973
  372MOL0     H51302   6.476  10.337   1.641  1.2092 -0.3453  0.5562
  372MOL0     H51303   6.317  10.374   1.725 -0.5394 -0.3504  1.4773
  372MOL0     H51304   6.522  10.171   1.813 -2.6122 -1.6052 -1.8679
  372MOL0     H51305   6.385  10.249   1.913 -0.6707 -1.4562 -0.7199
  372MOL0     H51306   6.501  10.456   1.912 -0.2986  0.3971  1.6858
  372MOL0     H51307   6.633  10.372   1.820  2.6108  1.3615  1.4448
  372MOL0     H51308   6.715  10.398   2.035 -3.0865  2.3037  0.4747
  372MOL0     H51309   6.568  10.355   2.114 -0.1420  4.1096 -0.5716
  372MOL0     H51310   6.732  10.143   1.982 -0.1123  3.0610 -1.3045
  372MOL0     H51311   6.569  10.118   2.042 -0.3526 -0.3741  4.1916
  372MOL0     H51312   6.639  10.188   2.272  2.8783  1.0276  1.7686
  372MOL0     H51313   6.806  10.172   2.228 -0.2065  0.2363  0.2499
  372MOL0     H51314   6.627   9.943   2.156  0.3156  1.7260 -3.1578
  372MOL0     H51315   6.717   9.940   2.308  0.6963 -4.0120 -1.4743
  372MOL0     H51316   6.518   9.881   1.477 -0.9598  1.1314 -0.1545
  372MOL0     H51317   6.551   9.668   1.577 -0.9462  1.0820 -3.9984
  372MOL0     H51318   6.604   9.429   1.942 -0.3230 -1.0343  1.2402
  372MOL0     H51319   6.607   9.225   2.096 -1.4702  4.4217  0.3339
  372MOL0     H51320   7.455   8.687   3.197  0.8331  0.2931  0.3512
  372MOL0     H51321   7.627   8.689   3.396  1.2079 -3.1221  0.0194
  372MOL0     H51322   7.896   8.672   3.627  0.4533  0.7766 -0.5164
  372MOL0     H51323   8.021   8.693   3.849  1.0958  0.8291  0.5878
  372MOL0     H51324   8.120   8.854   4.019 -0.0667  0.0462  3.6808
  372MOL0     H51325   8.151   8.679   4.021 -1.0096  1.0473 -1.0440
  372MOL0     H51326   8.383   8.760   4.066 -1.3734 -0.2582 -0.6547
  372MOL0     H51327   8.268   8.705   4.188  1.4489  1.7921  3.5802
  372MOL0     H51328   8.309   8.996   4.099  1.7752  1.4692  1.0749
  372MOL0     H51329   8.227   8.931   4.249  2.2852  0.5777  1.2858
  372MOL0     H51330   8.524   8.896   4.173  0.3568  1.5344  0.7188
  372MOL0     H51331   8.441   8.837   4.320 -1.1288  0.7363  1.0352
  372MOL0     H51332   8.500   9.237   4.440 -0.6837 -1.8781  3.2348
  372MOL0     H51333   8.359   8.841   3.631  0.0799 -3.3702 -0.8661
  372MOL0     H51334   8.231   8.887   3.325 -0.7287  0.2747  1.0360
  372MOL0     H51335   8.371   8.833   3.415 -0.4750  3.7202  0.1138
  372MOL0     H51336   8.281   8.709   3.331 -4.0931 -2.2496  2.4691
  373MOL0     O51337   2.389   1.315  10.201 -0.3299 -0.1253  0.1974
  373MOL0     C51338   2.365   1.226  10.281  0.1329  0.2278  0.5727
  373MOL0     O51339   2.458   1.177  10.374  0.4389  0.1929  0.3762
  373MOL0     C51340   2.579   1.235  10.400 -0.3779 -0.2069  0.4413
  373MOL0     C51341   2.685   1.148  10.434 -0.2537  0.3585 -0.6696
  373MOL0     C51342   2.812   1.192  10.473  0.0282  0.3489  0.2680
  373MOL0     C51343   2.844   1.322  10.464 -0.0207 -0.1845  0.0408
  373MOL0     O51344   2.969   1.364  10.491  0.1101 -0.3344 -0.0279
  373MOL0     C51345   3.036   1.398  10.370 -0.4255 -0.0588  0.3491
  373MOL0     C51346   3.177   1.448  10.403 -0.1151  0.3926  0.2187
  373MOL0     C51347   3.184   1.564  10.508  0.2732 -0.3065 -0.5302
  373MOL0     C51348   3.078   1.678  10.502 -0.9662  0.8251 -0.1803
  373MOL0     C51349   3.085   1.775  10.627  0.1750  0.0149 -0.7165
  373MOL0     C51350   3.214   1.857  10.636  0.1735 -0.3508  0.5180
  373MOL0     C51351   3.242   1.938  10.501  0.6728 -0.9136 -0.0400
  373MOL0     C51352   3.339   2.058  10.529  0.0707  0.0869  1.0053
  373MOL0     N51353   3.293   2.172  10.622 -0.2280 -0.0858 -0.7864
  373MOL0     C51354   3.174   2.239  10.604 -0.7749 -0.4054  0.2823
  373MOL0     C51355   3.174   2.329  10.712  0.1786 -0.6695  1.0202
  373MOL0     C51356   3.071   2.428  10.741  0.2708 -0.1214  0.0165
  373MOL0     C51357   3.127   2.574  10.732  0.2299  0.1559 -0.2689
  373MOL0     C51358   3.019   2.673  10.773 -0.7163 -1.1771  0.7395
  373MOL0     C51359   3.054   2.819  10.763  0.4650 -0.8565 -0.0580
  373MOL0     O51360   2.950   2.896  10.830  0.0282 -0.2180  0.4474
  373MOL0     C51361   2.844   2.949  10.760 -0.1474 -1.0075 -0.7003
  373MOL0     C51362   2.782   3.058  10.825 -0.8205  1.0610  0.4866
  373MOL0     C51363   2.671   3.119  10.768  0.2491 -1.4275  0.8925
  373MOL0     C51364   2.619   3.242  10.839 -0.1105  0.5941 -0.3827
  373MOL0     C51365   2.620   3.074  10.635  0.5156  0.1057 -0.9502
  373MOL0     C51366   2.492   3.122  10.578 -0.0379  0.4549 -0.6095
  373MOL0     O51367   2.384   3.147  10.670 -1.1361  0.4085 -0.2807
  373MOL0     C51368   2.265   3.197  10.617 -0.0712  0.2362  0.3191
  373MOL0     C51369   2.262   3.331  10.592  0.3329  0.1736 -0.8329
  373MOL0     C51370   2.142   3.385  10.543 -0.2687  0.4001 -0.5631
  373MOL0     C51371   2.030   3.304  10.507 -1.1344  0.0298  0.2630
  373MOL0     O51372   1.923   3.363  10.451  0.5168  0.7719 -1.6065
  373MOL0     C51373   1.834   3.278  10.373  0.6789 -0.3056  0.6200
  373MOL0     C51374   1.739   3.357  10.294 -0.1577 -1.5285  0.0744
  373MOL0     C51375   1.674   3.301  10.170  0.4446  0.2650 -0.2205
  373MOL0     C51376   1.615   3.164  10.214 -1.1817 -0.4735 -0.4305
  373MOL0     C51377   1.498   3.117  10.131  0.5192 -0.7229  0.4318
  373MOL0     C51378   1.398   3.226  10.096 -0.1028  0.0399  0.1376
  373MOL0     C51379   1.320   3.278  10.223  0.1289 -0.6989  0.8191
  373MOL0     C51380   1.204   3.381  10.191  0.2991  0.4729  0.1455
  373MOL0    Cl51381   1.119   3.322  10.055  0.1710  0.5854 -0.3828
  373MOL0     C51382   2.039   3.163  10.538 -0.1690 -0.4088  0.6056
  373MOL0     C51383   2.158   3.112  10.587 -0.0939  0.2196  0.0768
  373MOL0     O51384   2.488   3.115  10.455 -0.5338  0.9474 -0.1958
  373MOL0     C51385   2.694   2.971  10.566  0.3250 -0.3197 -0.2292
  373MOL0     C51386   2.809   2.914  10.628 -0.0278 -0.3395  0.0914
  373MOL0     N51387   3.293   2.321  10.773 -0.6542  0.0544 -0.0594
  373MOL0     N51388   3.357   2.220  10.725 -0.2937 -0.0127 -0.2009
  373MOL0     C51389   2.747   1.411  10.422 -0.0356 -0.6594  1.0678
  373MOL0     C51390   2.611   1.367  10.405  0.1447 -0.0545 -0.4346
  373MOL0     C51391   2.233   1.162  10.301 -0.8678  0.9127  0.0671
  373MOL0     C51392   2.206   1.104  10.433  0.0195  0.7507  0.0528
  373MOL0     C51393   2.088   1.028  10.455 -0.8612 -0.1768 -1.0615
  373MOL0     C51394   1.986   1.033  10.368 -0.7149  0.5191  0.5059
  373MOL0     O51395   1.880   0.959  10.414  0.2479 -0.2940  0.6031
  373MOL0     C51396   1.864   0.831  10.356 -1.0225  0.6783  0.7362
  373MOL0     C51397   1.823   0.737  10.464  0.6397  0.2537  0.6414
  373MOL0     C51398   1.894   0.601  10.470 -0.7262  0.7398 -0.0287
  373MOL0     C51399   2.051   0.597  10.491  0.7830 -0.0916 -0.2334
  373MOL0     C51400   2.104   0.464  10.457  0.6753 -0.3409 -1.0079
  373MOL0     C51401   2.144   0.355  10.434  0.5383 -0.3540 -0.5346
  373MOL0     C51402   2.000   1.087  10.240 -0.0095 -0.0682 -0.1250
  373MOL0     C51403   2.125   1.147  10.201 -0.1351 -0.7313 -0.5003
  373MOL0     C51404   2.134   1.193  10.054  0.2081  0.6097  1.0474
  373MOL0     H51405   2.659   1.043  10.440 -1.1862  0.6491  1.0780
  373MOL0     H51406   2.886   1.120  10.505  0.3695  0.4568 -0.2631
  373MOL0     H51407   2.992   1.488  10.324  0.4227  0.2965  0.2142
  373MOL0     H51408   3.037   1.316  10.298  0.9545 -1.2042  1.6312
  373MOL0     H51409   3.229   1.362  10.447 -1.5126  0.0350  1.2467
  373MOL0     H51410   3.230   1.488  10.316  0.2334  1.0510  0.7151
  373MOL0     H51411   3.176   1.514  10.605 -0.1708  0.4847 -0.1555
  373MOL0     H51412   3.285   1.605  10.503 -0.0856  1.6832  4.1054
  373MOL0     H51413   3.081   1.726  10.404 -2.0812 -0.7369 -1.0305
  373MOL0     H51414   2.976   1.641  10.498 -0.5070 -0.3958 -1.3576
  373MOL0     H51415   3.065   1.718  10.718 -0.3060 -0.7084 -1.2696
  373MOL0     H51416   2.995   1.836  10.619  1.2590  1.7341 -0.3644
  373MOL0     H51417   3.218   1.923  10.723 -0.8685  0.3309  0.0622
  373MOL0     H51418   3.292   1.782  10.650  2.8787  1.5115 -2.9073
  373MOL0     H51419   3.148   1.983  10.468  1.8730  0.7425 -1.3551
  373MOL0     H51420   3.285   1.869  10.427  1.6812 -1.1859  0.7704
  373MOL0     H51421   3.432   2.030  10.579 -1.0858 -2.4877  1.8450
  373MOL0     H51422   3.360   2.115  10.438  1.1300 -0.7939  0.6862
  373MOL0     H51423   3.106   2.219  10.522  0.6816 -1.7831 -0.6673
  373MOL0     H51424   3.033   2.407  10.842  0.3178  1.8659  0.4910
  373MOL0     H51425   2.979   2.428  10.682  1.8134  0.0060 -2.5238
  373MOL0     H51426   3.215   2.579  10.796  0.7526  1.1788 -1.0296
  373MOL0     H51427   3.165   2.587  10.630  0.5433 -2.4273 -0.5614
  373MOL0     H51428   2.929   2.647  10.717 -0.3299 -5.4748  1.7873
  373MOL0     H51429   3.000   2.659  10.880 -2.7468  2.3747  1.0222
  373MOL0     H51430   3.152   2.849  10.801  0.4752  0.7506 -1.2304
  373MOL0     H51431   3.055   2.848  10.658  1.4608 -0.4985  0.0464
  373MOL0     H51432   2.826   3.080  10.922  2.6215 -0.6879 -0.5066
  373MOL0     H51433   2.553   3.209  10.919  0.3297 -0.3593 -0.4029
  373MOL0     H51434   2.565   3.311  10.773 -1.7311  0.8443  1.1147
  373MOL0     H51435   2.706   3.297  10.876  1.9946 -0.6414 -3.1601
  373MOL0     H51436   2.340   3.400  10.623 -0.4145  0.8153 -0.3160
  373MOL0     H51437   2.148   3.493  10.532  0.0597  0.5906  1.1947
  373MOL0     H51438   1.897   3.223  10.302  0.5984 -0.8952  1.0024
  373MOL0     H51439   1.784   3.203  10.434 -1.7846 -0.2542 -1.2125
  373MOL0     H51440   1.659   3.385  10.364  2.0845  0.4994  2.0140
  373MOL0     H51441   1.797   3.441  10.254 -1.6299 -0.5451 -0.0886
  373MOL0     H51442   1.757   3.283  10.101  0.6528 -0.4042  0.1893
  373MOL0     H51443   1.610   3.371  10.117  1.3412 -1.9299 -4.6844
  373MOL0     H51444   1.582   3.171  10.318  3.3377 -2.2112  1.3419
  373MOL0     H51445   1.693   3.087  10.211  0.8217  1.2108  3.0459
  373MOL0     H51446   1.547   3.087  10.038  0.6737 -1.0846  0.6297
  373MOL0     H51447   1.458   3.020  10.162  2.3655 -1.6593  0.0308
  373MOL0     H51448   1.315   3.181  10.040 -0.0418  1.8580 -1.5088
  373MOL0     H51449   1.442   3.305  10.036 -1.7713  0.5559 -0.4601
  373MOL0     H51450   1.381   3.336  10.294 -1.7755  0.4281  1.6383
  373MOL0     H51451   1.286   3.187  10.273 -0.9717 -2.8410 -3.4238
  373MOL0     H51452   1.237   3.484  10.178 -0.6674  0.4326 -3.8035
  373MOL0     H51453   1.138   3.384  10.278  0.7141  2.0612  0.4411
  373MOL0     H51454   1.955   3.096  10.525 -0.9573  0.7121 -0.3748
  373MOL0     H51455   2.164   3.011  10.628 -1.6109  0.4109  0.8354
  373MOL0     H51456   2.673   2.951  10.461  2.3787 -1.3144 -0.5198
  373MOL0     H51457   2.869   2.839  10.577  3.0578  1.9565  0.0971
  373MOL0     H51458   2.769   1.517  10.416 -2.6568 -0.0735  0.8311
  373MOL0     H51459   2.523   1.430  10.397 -0.6539 -0.9797  0.7011
  373MOL0     H51460   2.279   1.110  10.512 -2.0470  1.4297  2.0159
  373MOL0     H51461   2.066   0.986  10.552 -1.0778  0.8143 -0.6659
  373MOL0     H51462   1.789   0.829  10.277  0.7230  4.8455 -1.3288
  373MOL0     H51463   1.958   0.800  10.311 -1.0970  1.0226  0.3452
  373MOL0     H51464   1.716   0.717  10.457  0.9656 -2.1468  1.8086
  373MOL0     H51465   1.834   0.796  10.555 -2.7224 -0.5376  1.7104
  373MOL0     H51466   1.849   0.553  10.557 -3.1684 -0.4128 -1.7990
  373MOL0     H51467   1.856   0.538  10.389 -2.3211  1.1166  0.3878
  373MOL0     H51468   2.067   0.640  10.591 -1.3603 -0.0518  0.1520
  373MOL0     H51469   2.100   0.659  10.416 -0.5542 -0.4302 -1.4224
  373MOL0     H51470   2.171   0.251  10.426 -1.0779 -1.0443  1.9394
  373MOL0     H51471   1.922   1.086  10.164 -0.6803  2.9699  0.4088
  373MOL0     H51472   2.115   1.300  10.041 -0.5322  0.3799  0.1388
  373MOL0     H51473   2.230   1.157  10.018 -0.1496 -2.0635  2.4521
  373MOL0     H51474   2.056   1.146   9.992 -0.7569  1.4941  1.5596
  374MOL0     O51475   1.557   9.163  10.922  0.7350 -0.0020  0.6136
  374MOL0     C51476   1.634   9.093  10.854 -0.3706 -0.6889  0.5076
  374MOL0     O51477   1.719   9.132  10.763 -0.1779  0.1660 -0.2839
  374MOL0     C51478   1.776   9.257  10.781 -0.6218 -0.5941 -0.0636
  374MOL0     C51479   1.833   9.300  10.904 -0.7110 -0.9905  0.6233
  374MOL0     C51480   1.910   9.429  10.908 -0.4877  0.3407 -0.2613
  374MOL0     C51481   1.917   9.509  10.796  1.1153 -0.6007 -0.6798
  374MOL0     O51482   1.971   9.631  10.789 -0.1296 -0.6735 -0.2333
  374MOL0     C51483   1.892   9.725  10.862  0.1355 -0.0709  0.0311
  374MOL0     C51484   1.935   9.877  10.837  0.0906 -0.0081 -0.0093
  374MOL0     C51485   2.082   9.906  10.873 -0.5448 -0.5433  0.2814
  374MOL0     C51486   2.195   9.867  10.779 -0.1978  0.3544  0.2404
  374MOL0     C51487   2.340   9.853  10.841  0.6715 -0.2139 -0.5092
  374MOL0     C51488   2.426   9.746  10.767  0.2373  0.1427  0.7277
  374MOL0     C51489   2.385   9.599  10.737 -0.0190 -0.9185 -0.1699
  374MOL0     C51490   2.297   9.552  10.865 -0.4996 -0.3037  1.0272
  374MOL0     N51491   2.287   9.404  10.867 -0.0301 -0.9209 -0.0486
  374MOL0     C51492   2.208   9.337  10.780 -0.2561  0.5302  0.2687
  374MOL0     C51493   2.249   9.210  10.806  0.4827  0.2576  1.2585
  374MOL0     C51494   2.191   9.092  10.724 -0.2568 -0.3647  0.2393
  374MOL0     C51495   2.116   8.986  10.815  0.1762  0.5506 -0.1996
  374MOL0     C51496   1.994   8.903  10.759  0.5047 -0.2718 -0.3225
  374MOL0     C51497   2.034   8.776  10.689  0.9521 -0.6040  0.1069
  374MOL0     O51498   2.160   8.787  10.617 -0.2053 -0.0136 -0.0395
  374MOL0     C51499   2.202   8.678  10.536 -0.5259 -0.2065 -0.1816
  374MOL0     C51500   2.121   8.573  10.486 -0.5009  0.7902  0.0278
  374MOL0     C51501   2.176   8.467  10.406 -0.3684 -0.6649  0.1273
  374MOL0     C51502   2.082   8.354  10.372 -0.3067 -1.0210  1.1888
  374MOL0     C51503   2.319   8.474  10.376 -0.5810 -0.5582 -0.7309
  374MOL0     C51504   2.379   8.370  10.294 -0.6105  0.5533  0.5130
  374MOL0     O51505   2.507   8.402  10.257 -0.3552  0.0820  0.7721
  374MOL0     C51506   2.589   8.319  10.189 -0.0056  1.0490  0.4520
  374MOL0     C51507   2.706   8.377  10.130 -0.0477  0.4331 -0.7728
  374MOL0     C51508   2.800   8.306  10.062 -0.1976  0.2437 -0.2372
  374MOL0     C51509   2.779   8.171  10.028 -0.2598  0.3473 -0.1635
  374MOL0     O51510   2.879   8.112   9.958 -0.3403  0.1399  0.6652
  374MOL0     C51511   2.869   7.974   9.922  0.8715  0.0049 -0.0171
  374MOL0     C51512   2.994   7.926   9.857  0.3656  0.1848  1.2339
  374MOL0     C51513   3.113   7.982   9.924  0.0653 -0.3528 -0.0825
  374MOL0     C51514   3.237   7.895   9.892  1.3480  0.6385  0.6155
  374MOL0     C51515   3.351   7.988   9.868 -0.0387  0.2574 -0.7035
  374MOL0     C51516   3.481   7.904   9.852 -0.5570 -0.4804 -0.0844
  374MOL0     C51517   3.603   7.998   9.829  0.3171 -0.1649 -0.5316
  374MOL0     C51518   3.724   7.908   9.851 -0.5885  0.4293 -0.8304
  374MOL0    Cl51519   3.764   7.883  10.024 -0.1702 -0.3737 -0.0461
  374MOL0     C51520   2.667   8.113  10.081 -0.2683  0.9512 -0.6593
  374MOL0     C51521   2.571   8.177  10.162 -0.1090  0.4561 -0.2280
  374MOL0     O51522   2.318   8.264  10.277 -0.4415 -0.4497  0.1097
  374MOL0     C51523   2.398   8.590  10.420  0.9367  0.4164 -0.5667
  374MOL0     C51524   2.336   8.687  10.496 -0.0821  0.2248 -0.3658
  374MOL0     N51525   2.348   9.204  10.902  0.3040  0.4103  0.4616
  374MOL0     N51526   2.377   9.324  10.926 -0.6672 -0.1748  0.1266
  374MOL0     C51527   1.841   9.469  10.683 -0.1576  0.0962  0.3652
  374MOL0     C51528   1.781   9.350  10.679 -0.2772 -0.1731  0.9661
  374MOL0     C51529   1.619   8.946  10.870  0.9055 -0.0698  0.1986
  374MOL0     C51530   1.633   8.870  10.756 -0.1981  0.2984  0.6291
  374MOL0     C51531   1.638   8.724  10.763  0.5025  0.3527 -0.0483
  374MOL0     C51532   1.622   8.657  10.884 -0.1914 -0.1245  0.0423
  374MOL0     O51533   1.614   8.525  10.875  0.5009  1.0315 -0.6732
  374MOL0     C51534   1.601   8.439  10.992 -0.0154  1.0501  0.2079
  374MOL0     C51535   1.622   8.301  10.942 -0.4364  0.8705  0.5858
  374MOL0     C51536   1.611   8.196  11.053 -0.5016  0.0732 -0.1180
  374MOL0     C51537   1.654   8.057  11.024  0.2783 -0.4445 -0.3030
  374MOL0     C51538   1.578   7.986  10.923  1.5058  0.9807  0.6658
  374MOL0     C51539   1.521   7.928  10.834 -0.3932  0.3247  0.5246
  374MOL0     C51540   1.585   8.737  10.992  0.7660 -0.3596  0.1369
  374MOL0     C51541   1.596   8.871  10.990 -0.3809 -1.8063  0.1307
  374MOL0     C51542   1.567   8.943  11.121  0.4968 -0.4408  0.6611
  374MOL0     H51543   1.842   9.227  10.983 -1.5323 -2.2588 -0.4012
  374MOL0     H51544   1.965   9.455  10.997  0.8778  0.2193 -1.0476
  374MOL0     H51545   1.906   9.721  10.971 -1.1527 -2.7694  0.1616
  374MOL0     H51546   1.791   9.723  10.821  0.1654 -0.1104 -0.0408
  374MOL0     H51547   1.926   9.897  10.730  2.2414  0.3307 -0.1719
  374MOL0     H51548   1.876   9.945  10.901  0.4125  1.1447 -0.9076
  374MOL0     H51549   2.095  10.015  10.873 -0.2466 -0.5749 -0.3323
  374MOL0     H51550   2.108   9.851  10.963 -0.7864 -3.7452 -1.4778
  374MOL0     H51551   2.178   9.777  10.719  1.4676 -0.4819  0.9518
  374MOL0     H51552   2.198   9.957  10.717 -0.1476  1.8608  2.3275
  374MOL0     H51553   2.329   9.821  10.945  0.6925 -2.8580 -1.2623
  374MOL0     H51554   2.388   9.951  10.832  0.3623 -0.1558 -1.7822
  374MOL0     H51555   2.452   9.784  10.668  0.4366  3.2676  1.8547
  374MOL0     H51556   2.521   9.729  10.820  0.5470  0.9274  0.4424
  374MOL0     H51557   2.477   9.540  10.739 -0.2942 -1.3731  2.5259
  374MOL0     H51558   2.329   9.586  10.644  0.4262  2.4141 -1.0508
  374MOL0     H51559   2.349   9.588  10.954 -0.7033  1.6373  0.4159
  374MOL0     H51560   2.195   9.592  10.857 -0.5042 -0.6923 -2.4311
  374MOL0     H51561   2.133   9.368  10.708  0.8182 -1.9157 -2.0682
  374MOL0     H51562   2.270   9.051  10.661 -0.6156 -3.3614  1.5796
  374MOL0     H51563   2.118   9.142  10.660  3.0210  4.3985 -0.3193
  374MOL0     H51564   2.184   8.921  10.872 -0.4985 -1.1046 -1.2112
  374MOL0     H51565   2.071   9.041  10.898  2.6419  0.4707  1.3283
  374MOL0     H51566   1.926   8.876  10.841 -1.2091  1.1373 -1.2088
  374MOL0     H51567   1.930   8.966  10.697 -1.8671 -0.6481  1.5788
  374MOL0     H51568   2.040   8.687  10.754 -0.6888 -1.9948 -1.5204
  374MOL0     H51569   1.952   8.759  10.619 -1.1028  2.1969  1.6111
  374MOL0     H51570   2.013   8.575  10.503 -0.3563  2.6866  0.9882
  374MOL0     H51571   2.056   8.345  10.266 -1.8063  2.1484  1.1557
  374MOL0     H51572   1.994   8.369  10.434 -0.6736 -1.4293  0.7773
  374MOL0     H51573   2.124   8.259  10.405 -0.7564 -2.2157 -1.3921
  374MOL0     H51574   2.717   8.484  10.139  2.5170  0.0441  2.5854
  374MOL0     H51575   2.889   8.355  10.025 -0.6997  1.6999  0.4287
  374MOL0     H51576   2.849   7.907  10.006 -2.8005 -0.1409 -0.8282
  374MOL0     H51577   2.781   7.961   9.858 -1.2196 -0.2782  2.7204
  374MOL0     H51578   2.982   7.817   9.865 -4.7845  0.4150  0.3967
  374MOL0     H51579   2.982   7.954   9.752 -3.3275  1.1373  1.7717
  374MOL0     H51580   3.101   7.985  10.033 -0.9070  1.7220 -0.1947
  374MOL0     H51581   3.132   8.087   9.902  3.5720 -0.8594 -0.0422
  374MOL0     H51582   3.224   7.825   9.808  0.4785 -3.3225  3.7307
  374MOL0     H51583   3.258   7.828   9.976  1.5313  0.6848  0.6060
  374MOL0     H51584   3.331   8.055   9.784 -0.1384  1.6506  0.4061
  374MOL0     H51585   3.363   8.061   9.949 -3.2778  1.6383 -1.2851
  374MOL0     H51586   3.479   7.846   9.760  3.1388 -0.9809  0.0306
  374MOL0     H51587   3.502   7.836   9.935 -1.3639 -0.4573  0.1545
  374MOL0     H51588   3.592   8.082   9.898 -2.4691 -1.3088  0.5615
  374MOL0     H51589   3.615   8.030   9.725  0.0673 -3.7466 -1.8177
  374MOL0     H51590   3.808   7.958   9.801  0.4494  0.7671  1.1390
  374MOL0     H51591   3.722   7.810   9.802  0.4621  0.6222 -1.2967
  374MOL0     H51592   2.659   8.005  10.070  4.6565 -0.1468  3.0972
  374MOL0     H51593   2.488   8.114  10.190  1.9304 -2.1131  0.4776
  374MOL0     H51594   2.505   8.600  10.412  1.3264 -2.8273 -0.3870
  374MOL0     H51595   2.407   8.762  10.528 -0.5280  1.0962 -1.3194
  374MOL0     H51596   1.847   9.541  10.601 -0.1016  1.5486  1.5911
  374MOL0     H51597   1.741   9.314  10.585  3.3966 -1.5296 -0.2534
  374MOL0     H51598   1.669   8.905  10.659 -1.6327 -0.4600 -0.1912
  374MOL0     H51599   1.659   8.655  10.682 -1.4444  1.1197 -1.2924
  374MOL0     H51600   1.679   8.467  11.063  2.4211 -2.1055 -0.9689
  374MOL0     H51601   1.503   8.441  11.041  0.3229 -4.8073  1.9532
  374MOL0     H51602   1.717   8.302  10.889 -1.4171  0.8732 -1.2604
  374MOL0     H51603   1.552   8.290  10.859  0.5800  0.2477 -0.2000
  374MOL0     H51604   1.679   8.234  11.130 -0.6720  0.1825 -0.0188
  374MOL0     H51605   1.505   8.198  11.080 -0.4902 -1.5566  0.1451
  374MOL0     H51606   1.632   8.001  11.115 -1.6287 -1.2470 -1.2118
  374MOL0     H51607   1.759   8.063  10.994  1.1903  0.9110  2.7771
  374MOL0     H51608   1.461   7.879  10.760 -1.0393  0.4532  0.9555
  374MOL0     H51609   1.558   8.675  11.077  0.4356 -0.2128  0.1437
  374MOL0     H51610   1.596   8.873  11.200  4.3225 -0.0709 -0.1891
  374MOL0     H51611   1.621   9.037  11.140 -2.5816  1.4612  0.6234
  374MOL0     H51612   1.464   8.978  11.116  0.2426 -1.3168 -1.8064
  375MOL0     O51613   6.466   1.472  10.433 -0.5849 -0.2512  0.2132
  375MOL0     C51614   6.555   1.470  10.520 -0.0115  1.0356  0.4368
  375MOL0     O51615   6.647   1.381  10.533 -1.1050 -0.2515  0.3817
  375MOL0     C51616   6.644   1.266  10.449  0.2063 -0.4493 -0.1936
  375MOL0     C51617   6.673   1.273  10.318 -0.3738 -0.2321  0.6026
  375MOL0     C51618   6.692   1.157  10.240  0.3563 -0.6519 -0.0854
  375MOL0     C51619   6.694   1.031  10.304 -0.3685  0.4148  1.4007
  375MOL0     O51620   6.745   0.924  10.235 -0.1248 -0.5628 -0.2983
  375MOL0     C51621   6.806   0.817  10.312 -0.0336 -0.2650 -0.1126
  375MOL0     C51622   6.772   0.678  10.263  0.9366  0.6336  0.0432
  375MOL0     C51623   6.890   0.581  10.247 -0.2860  0.4241  0.1626
  375MOL0     C51624   7.014   0.625  10.162 -0.0362 -0.4153  0.0546
  375MOL0     C51625   7.100   0.500  10.116 -0.2698  0.6872 -0.1656
  375MOL0     C51626   7.043   0.460   9.983  0.1879  0.4281  0.0083
  375MOL0     C51627   7.108   0.347   9.911  0.4312 -0.0655  0.4549
  375MOL0     C51628   7.030   0.318   9.779  0.3487 -1.0254 -1.0080
  375MOL0     N51629   7.082   0.203   9.710 -0.6739 -0.0333  0.5122
  375MOL0     C51630   7.185   0.206   9.617 -0.2172 -0.1395  0.1865
  375MOL0     C51631   7.204   0.075   9.578  1.1224  0.1004  0.3210
  375MOL0     C51632   7.308   0.035   9.466 -0.5943  0.8957  0.0371
  375MOL0     C51633   7.328  -0.120   9.449  0.4744 -0.1393 -0.6437
  375MOL0     C51634   7.441  -0.161   9.353 -0.4961  0.3777 -0.7879
  375MOL0     C51635   7.483  -0.305   9.394 -0.5441  0.6600 -0.5309
  375MOL0     O51636   7.591  -0.347   9.298  0.2363  0.4398  0.3284
  375MOL0     C51637   7.625  -0.476   9.279  1.0434  0.5627 -0.1355
  375MOL0     C51638   7.579  -0.576   9.359 -0.1802 -0.1509 -0.8036
  375MOL0     C51639   7.600  -0.708   9.320 -0.2993 -0.9811  0.0427
  375MOL0     C51640   7.543  -0.810   9.406  0.2306  0.9737  0.2875
  375MOL0     C51641   7.678  -0.742   9.203  0.3735 -0.4190 -0.2733
  375MOL0     C51642   7.717  -0.880   9.152  0.0830 -0.1245 -0.3016
  375MOL0     O51643   7.776  -0.891   9.034  0.4629 -0.3500 -0.6392
  375MOL0     C51644   7.807  -1.016   8.998 -0.4277  0.9301  0.1624
  375MOL0     C51645   7.713  -1.114   8.967 -0.8332  1.4201  1.1855
  375MOL0     C51646   7.757  -1.246   8.932 -0.0432  0.3245  0.8530
  375MOL0     C51647   7.892  -1.278   8.909  0.5828  0.2151 -0.3178
  375MOL0     O51648   7.941  -1.397   8.874 -0.5131  1.0303 -1.2327
  375MOL0     C51649   7.847  -1.507   8.853 -0.3901 -0.1499 -0.7787
  375MOL0     C51650   7.928  -1.628   8.804 -0.4752  0.2595  0.5574
  375MOL0     C51651   7.849  -1.682   8.688  0.5541  0.1536  0.2306
  375MOL0     C51652   7.913  -1.807   8.628  0.0881  0.1093 -0.4502
  375MOL0     C51653   7.881  -1.937   8.712 -0.2502  0.4314  0.8181
  375MOL0     C51654   7.903  -2.072   8.637 -0.2895 -0.0979 -0.1521
  375MOL0     C51655   7.876  -2.203   8.706 -0.3951 -0.2076 -0.7142
  375MOL0     C51656   7.733  -2.215   8.765  0.3627 -0.0710 -0.3916
  375MOL0    Cl51657   7.606  -2.193   8.645 -0.1369  0.1787 -0.2150
  375MOL0     C51658   7.980  -1.176   8.925  0.5378  0.2458  1.1011
  375MOL0     C51659   7.936  -1.050   8.967 -0.0999 -0.3652  1.2717
  375MOL0     O51660   7.702  -0.969   9.238  0.1975 -0.2804 -0.8769
  375MOL0     C51661   7.720  -0.634   9.126  0.0992  0.0564  0.2678
  375MOL0     C51662   7.689  -0.502   9.155  1.1621  0.7770 -0.8669
  375MOL0     N51663   7.117  -0.007   9.651  0.3687 -0.3653  0.1161
  375MOL0     N51664   7.049   0.068   9.735  0.0568  0.3159 -1.1594
  375MOL0     C51665   6.658   1.028  10.436  0.3781  0.3236 -0.1947
  375MOL0     C51666   6.632   1.146  10.512  0.5213 -0.0944 -0.8189
  375MOL0     C51667   6.553   1.595  10.613  1.5028  0.7333 -0.0164
  375MOL0     C51668   6.462   1.702  10.587  0.4202 -0.4738 -0.3751
  375MOL0     C51669   6.470   1.819  10.652  0.2717  0.4545 -0.0190
  375MOL0     C51670   6.567   1.840  10.754  1.3183  0.7555 -0.0909
  375MOL0     O51671   6.572   1.954  10.833  0.5327  0.7602 -0.1561
  375MOL0     C51672   6.489   2.068  10.803 -0.7729  0.1835 -0.7006
  375MOL0     C51673   6.518   2.191  10.893 -0.5368  0.4436 -0.3198
  375MOL0     C51674   6.476   2.314  10.816  0.4646 -0.7291 -0.2302
  375MOL0     C51675   6.476   2.434  10.913 -0.0129  0.5735 -0.4952
  375MOL0     C51676   6.350   2.440  10.984  0.7101 -0.5761  0.3423
  375MOL0     C51677   6.231   2.448  11.018  0.2251 -0.4579  0.0453
  375MOL0     C51678   6.648   1.734  10.791  0.1831  0.0793  0.0648
  375MOL0     C51679   6.631   1.611  10.730 -0.8069 -0.1684  0.2663
  375MOL0     C51680   6.720   1.505  10.788 -0.1005  0.2003 -0.3495
  375MOL0     H51681   6.684   1.371  10.274  1.2498 -0.5087  0.3146
  375MOL0     H51682   6.710   1.149  10.133  1.2790  0.7951 -0.0657
  375MOL0     H51683   6.784   0.829  10.419 -1.7982  3.3878 -0.7547
  375MOL0     H51684   6.912   0.843  10.306 -0.5488  1.9546 -0.3241
  375MOL0     H51685   6.697   0.629  10.327  1.8385 -1.9003 -0.7013
  375MOL0     H51686   6.725   0.687  10.165 -1.7308 -2.1358  0.9136
  375MOL0     H51687   6.935   0.549  10.341  1.0184  1.4886 -0.0639
  375MOL0     H51688   6.842   0.491  10.206 -0.0109 -0.5407  1.8587
  375MOL0     H51689   7.001   0.683  10.071  0.4134  0.9192  0.8200
  375MOL0     H51690   7.076   0.688  10.227 -1.9516  0.7177  0.8545
  375MOL0     H51691   7.097   0.419  10.189  1.6631  0.4865 -0.2566
  375MOL0     H51692   7.204   0.520  10.090 -0.6245  0.4154 -1.9087
  375MOL0     H51693   6.936   0.441   9.997  0.4488 -1.5920 -0.4131
  375MOL0     H51694   7.045   0.546   9.914 -1.1773  0.3475 -0.1655
  375MOL0     H51695   7.108   0.257   9.973  0.5932 -1.1882 -1.1147
  375MOL0     H51696   7.214   0.361   9.891  0.2465 -2.0510 -2.6523
  375MOL0     H51697   6.925   0.301   9.803 -1.3071  5.9278 -1.2067
  375MOL0     H51698   7.041   0.401   9.709  2.6087  0.7419  1.2633
  375MOL0     H51699   7.242   0.290   9.579  0.9082 -0.8839  0.1975
  375MOL0     H51700   7.408   0.071   9.489  0.9217 -2.9653  0.2206
  375MOL0     H51701   7.264   0.086   9.380 -0.3727  3.3558  1.2804
  375MOL0     H51702   7.349  -0.158   9.549  0.1378 -1.2448 -0.9775
  375MOL0     H51703   7.234  -0.165   9.415 -0.0732  0.2808  0.2719
  375MOL0     H51704   7.401  -0.166   9.251 -2.0399 -1.5849 -0.1579
  375MOL0     H51705   7.521  -0.088   9.363 -1.6209  1.3050  4.7461
  375MOL0     H51706   7.526  -0.302   9.494 -1.9162 -1.0413  0.1687
  375MOL0     H51707   7.395  -0.370   9.399  0.6724 -0.9504  2.7713
  375MOL0     H51708   7.520  -0.546   9.445  0.6666  0.5402 -0.4514
  375MOL0     H51709   7.463  -0.863   9.353 -2.6859  3.6976  1.6528
  375MOL0     H51710   7.488  -0.756   9.483 -4.6246  3.3959 -4.2116
  375MOL0     H51711   7.618  -0.881   9.441 -0.7519 -0.6854 -0.8325
  375MOL0     H51712   7.609  -1.098   8.995 -1.8360 -3.1408  0.7795
  375MOL0     H51713   7.691  -1.333   8.935  3.0741 -2.3613 -1.3363
  375MOL0     H51714   7.794  -1.527   8.946  1.2701  2.3597  0.8416
  375MOL0     H51715   7.771  -1.472   8.783  0.2213 -1.2405 -2.0491
  375MOL0     H51716   8.021  -1.592   8.759 -0.6427 -0.3905 -0.3431
  375MOL0     H51717   7.939  -1.703   8.883  1.8413 -2.1665 -1.8429
  375MOL0     H51718   7.852  -1.603   8.613  1.7442 -2.5113 -2.7688
  375MOL0     H51719   7.752  -1.705   8.732  1.3819 -1.4524  1.3270
  375MOL0     H51720   8.021  -1.796   8.628 -0.0881  2.2200 -0.1700
  375MOL0     H51721   7.871  -1.818   8.527 -0.6928 -1.3536  0.0151
  375MOL0     H51722   7.952  -1.941   8.796  3.2180  1.0044 -1.8367
  375MOL0     H51723   7.780  -1.937   8.753  0.6059  3.8842  3.3808
  375MOL0     H51724   8.009  -2.069   8.613  0.1419  2.2730  1.6365
  375MOL0     H51725   7.840  -2.073   8.548 -4.0805  1.5948  2.2273
  375MOL0     H51726   7.948  -2.216   8.788 -0.3137 -0.8363 -0.8844
  375MOL0     H51727   7.892  -2.284   8.635 -2.7231 -0.4220 -1.0633
  375MOL0     H51728   7.733  -2.144   8.849  1.3127 -1.4497  0.8180
  375MOL0     H51729   7.722  -2.316   8.805  0.0470  0.6467  1.4265
  375MOL0     H51730   8.081  -1.212   8.906 -0.0103 -0.5924 -0.3532
  375MOL0     H51731   8.008  -0.973   8.992  1.2019 -1.7921  2.0561
  375MOL0     H51732   7.751  -0.655   9.024 -0.9168  0.5249 -0.1489
  375MOL0     H51733   7.708  -0.412   9.097 -1.4578  0.7481 -1.9127
  375MOL0     H51734   6.647   0.931  10.483  1.2638 -1.0895 -2.6632
  375MOL0     H51735   6.604   1.143  10.617  2.0410 -0.0722 -0.3786
  375MOL0     H51736   6.389   1.696  10.508  0.6937 -2.7565 -0.5218
  375MOL0     H51737   6.403   1.896  10.614 -1.2782 -2.4376 -3.8472
  375MOL0     H51738   6.519   2.097  10.702  1.2342  2.2194  0.3861
  375MOL0     H51739   6.384   2.045  10.784 -0.6821  0.3669 -1.4539
  375MOL0     H51740   6.624   2.199  10.921 -1.4646  1.5227  3.3758
  375MOL0     H51741   6.454   2.168  10.979 -0.5432  1.1875 -0.1246
  375MOL0     H51742   6.564   2.339  10.757 -0.1536  1.6808 -0.2558
  375MOL0     H51743   6.390   2.296  10.752  0.4209 -0.1803 -0.3314
  375MOL0     H51744   6.490   2.513  10.839  3.5316 -0.5776 -1.2532
  375MOL0     H51745   6.559   2.429  10.985  0.8755 -0.8862 -1.5585
  375MOL0     H51746   6.133   2.466  11.057  0.8509 -1.0946  2.0501
  375MOL0     H51747   6.707   1.745  10.882  0.2940  1.1650 -0.1271
  375MOL0     H51748   6.667   1.410  10.790 -1.4069  0.8470 -1.7809
  375MOL0     H51749   6.808   1.494  10.725 -0.2710 -0.4963 -0.4746
  375MOL0     H51750   6.747   1.531  10.891  1.1769 -1.8217 -0.1303
  376MOL0     O51751   5.411   0.562   5.882 -0.7811  0.1922 -0.7143
  376MOL0     C51752   5.505   0.500   5.832  0.8872 -0.4234  0.7413
  376MOL0     O51753   5.528   0.468   5.695  0.9992 -0.1638  0.6804
  376MOL0     C51754   5.443   0.517   5.588  0.5779  0.4723 -0.5568
  376MOL0     C51755   5.494   0.513   5.462  0.1465 -0.0157  0.5431
  376MOL0     C51756   5.420   0.570   5.360  0.6730  0.8968 -0.1042
  376MOL0     C51757   5.297   0.627   5.377  0.2044 -0.1742 -0.1797
  376MOL0     O51758   5.231   0.688   5.265 -0.5461  0.4140  0.1874
  376MOL0     C51759   5.271   0.825   5.248 -0.0454  0.6198 -0.0111
  376MOL0     C51760   5.304   0.842   5.089 -0.3914  1.1736 -0.6278
  376MOL0     C51761   5.426   0.758   5.045  0.1535 -0.1166 -0.0229
  376MOL0     C51762   5.470   0.793   4.909 -0.0091  0.0269  0.2914
  376MOL0     C51763   5.560   0.691   4.839 -0.6693  0.5273  0.0839
  376MOL0     C51764   5.635   0.745   4.717  0.1685 -0.7328 -0.8125
  376MOL0     C51765   5.772   0.687   4.682  0.8032 -0.2094  0.3620
  376MOL0     C51766   5.762   0.534   4.691  0.4753 -0.0994 -0.9432
  376MOL0     N51767   5.888   0.496   4.631  0.1892  0.5939 -0.2883
  376MOL0     C51768   5.992   0.414   4.686  0.7412 -0.0244  0.0524
  376MOL0     C51769   6.061   0.375   4.580  0.2506  0.8259  0.4211
  376MOL0     C51770   6.185   0.289   4.564  0.0667 -0.0069 -0.9301
  376MOL0     C51771   6.146   0.145   4.607 -0.1606 -0.8090 -0.4658
  376MOL0     C51772   6.052   0.094   4.501 -0.6576  0.1054  0.0469
  376MOL0     C51773   6.056  -0.061   4.506 -0.2219 -0.6340  0.2360
  376MOL0     O51774   5.967  -0.115   4.411 -0.3642 -0.8704 -0.0178
  376MOL0     C51775   6.007  -0.148   4.282  0.1710 -0.0365  0.4066
  376MOL0     C51776   5.924  -0.241   4.214 -0.3826 -0.2741  0.3654
  376MOL0     C51777   5.975  -0.301   4.102 -0.3674  0.2211  0.0588
  376MOL0     C51778   5.893  -0.390   4.027  0.2977  0.3243 -0.2217
  376MOL0     C51779   6.113  -0.275   4.057  0.4203 -0.3995 -1.5681
  376MOL0     C51780   6.182  -0.343   3.952 -0.3346 -0.6711 -1.1565
  376MOL0     O51781   6.298  -0.292   3.908 -0.0755  0.7272 -0.8260
  376MOL0     C51782   6.371  -0.349   3.813 -0.4420  0.5682  0.4786
  376MOL0     C51783   6.507  -0.386   3.834 -0.9650 -0.4871 -0.4137
  376MOL0     C51784   6.579  -0.457   3.740 -0.6069  0.0958  0.3644
  376MOL0     C51785   6.519  -0.475   3.621  0.3554  0.1516  0.4459
  376MOL0     O51786   6.575  -0.555   3.526 -0.1422  0.3197 -0.2119
  376MOL0     C51787   6.561  -0.697   3.545 -0.0930 -0.2429  0.3106
  376MOL0     C51788   6.667  -0.765   3.463  0.1017  0.8843 -0.0637
  376MOL0     C51789   6.693  -0.719   3.307 -0.6320  0.6867 -0.8547
  376MOL0     C51790   6.778  -0.826   3.225  0.4323 -0.2033  0.0707
  376MOL0     C51791   6.743  -0.832   3.075 -0.4965 -0.3169  0.9092
  376MOL0     C51792   6.740  -0.691   3.011 -0.5872 -0.8200  0.0303
  376MOL0     C51793   6.708  -0.709   2.863  0.3440 -0.6576 -0.4139
  376MOL0     C51794   6.575  -0.775   2.828  0.5673 -0.2419 -0.1697
  376MOL0    Cl51795   6.606  -0.949   2.789 -0.1142 -0.1010  0.0990
  376MOL0     C51796   6.404  -0.417   3.589  1.1954  0.5698 -0.6735
  376MOL0     C51797   6.324  -0.359   3.683 -0.0380  0.2248  0.0322
  376MOL0     O51798   6.137  -0.448   3.915  0.9050  0.6573 -0.2715
  376MOL0     C51799   6.187  -0.180   4.130  0.4891 -0.0798 -0.5912
  376MOL0     C51800   6.132  -0.125   4.244 -0.1322 -0.6024  0.6721
  376MOL0     N51801   6.007   0.428   4.468  0.0866  0.0460  0.1335
  376MOL0     N51802   5.894   0.494   4.494  0.2452  0.0260  0.3993
  376MOL0     C51803   5.238   0.616   5.497  0.0686 -0.6489 -0.6144
  376MOL0     C51804   5.311   0.557   5.596  0.3814 -0.8166 -1.1625
  376MOL0     C51805   5.588   0.429   5.919 -0.0938 -0.7687 -0.8637
  376MOL0     C51806   5.640   0.308   5.886 -0.1537  0.2871  0.6032
  376MOL0     C51807   5.719   0.226   5.974 -0.6463  0.0128  0.0700
  376MOL0     C51808   5.740   0.275   6.102  1.1119  0.1544  0.5746
  376MOL0     O51809   5.813   0.197   6.189  0.1094  0.1617 -0.3128
  376MOL0     C51810   5.783   0.220   6.329 -0.9575  0.5682  0.5625
  376MOL0     C51811   5.824   0.088   6.407  0.7763  0.5503  0.1541
  376MOL0     C51812   5.770   0.058   6.549  0.3255  0.2634 -0.8528
  376MOL0     C51813   5.856  -0.040   6.648  1.6958  0.0407  0.3860
  376MOL0     C51814   5.892  -0.172   6.597 -0.6163 -0.7981 -0.6907
  376MOL0     C51815   5.931  -0.277   6.564  0.4585  0.8509  0.1260
  376MOL0     C51816   5.682   0.399   6.146  0.3257 -0.1417 -0.0173
  376MOL0     C51817   5.621   0.481   6.048 -1.1078  0.6087  1.0691
  376MOL0     C51818   5.584   0.620   6.089  0.7130 -0.3848  0.5227
  376MOL0     H51819   5.595   0.475   5.448  0.1209 -0.3287  1.1819
  376MOL0     H51820   5.461   0.557   5.260  0.7680 -1.3318  0.1621
  376MOL0     H51821   5.349   0.856   5.318  1.3593 -1.8179 -0.3935
  376MOL0     H51822   5.188   0.891   5.276 -0.9357  0.3207 -1.7883
  376MOL0     H51823   5.216   0.798   5.042  0.3663 -1.5620  0.3542
  376MOL0     H51824   5.330   0.946   5.064  2.2730  1.3234  2.1337
  376MOL0     H51825   5.506   0.770   5.118  0.3869 -0.9372 -0.1404
  376MOL0     H51826   5.405   0.651   5.049  0.8856 -0.2705 -0.1884
  376MOL0     H51827   5.385   0.811   4.842  1.8417  2.0564 -1.7082
  376MOL0     H51828   5.500   0.898   4.919  1.6966 -0.4259  0.1678
  376MOL0     H51829   5.506   0.606   4.798 -1.4615  0.7716  0.5990
  376MOL0     H51830   5.622   0.638   4.912 -3.1401 -0.0836  1.8695
  376MOL0     H51831   5.555   0.746   4.643 -4.5729 -1.9837  3.7015
  376MOL0     H51832   5.653   0.851   4.741 -3.0965  0.2174 -2.1305
  376MOL0     H51833   5.838   0.738   4.753 -2.2540  2.1372  1.7428
  376MOL0     H51834   5.791   0.733   4.585 -1.6545  1.1207  0.4262
  376MOL0     H51835   5.741   0.492   4.789  2.1988 -1.0185 -0.9198
  376MOL0     H51836   5.683   0.498   4.624 -0.0328 -1.2248  0.2083
  376MOL0     H51837   6.014   0.400   4.791  1.6865  1.6955  0.1225
  376MOL0     H51838   6.267   0.322   4.629  0.1801 -0.0483 -1.0525
  376MOL0     H51839   6.227   0.286   4.464 -0.2861 -1.1198 -1.0682
  376MOL0     H51840   6.234   0.081   4.619 -0.3530 -1.3845 -1.8694
  376MOL0     H51841   6.103   0.148   4.707  2.6445 -1.5512  0.8664
  376MOL0     H51842   5.952   0.132   4.522  0.9490  3.2585  3.2776
  376MOL0     H51843   6.090   0.129   4.404  0.5906 -2.3131 -0.4243
  376MOL0     H51844   6.152  -0.112   4.491 -0.4042 -0.9347  0.0683
  376MOL0     H51845   6.029  -0.111   4.600  0.5765 -1.6524 -0.0578
  376MOL0     H51846   5.829  -0.271   4.258 -0.6850 -1.4894 -1.0731
  376MOL0     H51847   5.792  -0.348   4.024  0.0597 -0.2620 -0.4552
  376MOL0     H51848   5.893  -0.494   4.060  0.7702 -0.0733 -1.4413
  376MOL0     H51849   5.926  -0.389   3.923  2.7424  0.7566  0.4845
  376MOL0     H51850   6.543  -0.383   3.936  0.6667 -1.1910 -0.9199
  376MOL0     H51851   6.679  -0.490   3.766  1.4876  0.8507 -5.1774
  376MOL0     H51852   6.564  -0.729   3.649 -4.4090 -1.0464  0.3781
  376MOL0     H51853   6.463  -0.737   3.516 -1.0645 -0.8977  3.9809
  376MOL0     H51854   6.761  -0.747   3.516  0.3740  4.4874 -1.5021
  376MOL0     H51855   6.632  -0.868   3.456 -1.9520  1.3551  2.0262
  376MOL0     H51856   6.712  -0.612   3.292 -1.9367  0.5848 -4.1474
  376MOL0     H51857   6.593  -0.718   3.261 -0.4286  1.9094 -1.3274
  376MOL0     H51858   6.766  -0.928   3.262  1.9310 -0.3686  0.1730
  376MOL0     H51859   6.882  -0.794   3.237  0.4967  0.6287 -2.2099
  376MOL0     H51860   6.796  -0.905   3.014  1.6389 -1.1508  3.5776
  376MOL0     H51861   6.639  -0.866   3.079 -0.0910 -1.9345 -0.9379
  376MOL0     H51862   6.829  -0.626   3.014 -0.9705  0.3847 -5.2778
  376MOL0     H51863   6.662  -0.634   3.062  0.3859  1.8130 -1.2452
  376MOL0     H51864   6.795  -0.754   2.814  1.2777  1.1944 -0.5517
  376MOL0     H51865   6.701  -0.615   2.808 -1.0473 -2.1466 -2.9611
  376MOL0     H51866   6.519  -0.720   2.752  1.6263  0.3306 -0.5484
  376MOL0     H51867   6.499  -0.773   2.907  0.5916 -0.1132 -0.1497
  376MOL0     H51868   6.374  -0.432   3.486  1.7923  0.4553 -0.8351
  376MOL0     H51869   6.225  -0.326   3.653 -0.6539 -3.2458 -2.4531
  376MOL0     H51870   6.283  -0.141   4.097  0.0911  4.8036  2.9577
  376MOL0     H51871   6.194  -0.044   4.283 -1.8983  1.2465 -0.1900
  376MOL0     H51872   5.138   0.656   5.511  0.8856  1.5834 -0.7247
  376MOL0     H51873   5.257   0.547   5.690  0.6025  2.5446 -0.5566
  376MOL0     H51874   5.636   0.251   5.794  0.5672 -0.7327  1.1807
  376MOL0     H51875   5.767   0.129   5.959  1.4415  1.0854 -0.6466
  376MOL0     H51876   5.847   0.300   6.366 -0.2732  0.3837 -0.1733
  376MOL0     H51877   5.675   0.227   6.347 -1.4963 -1.7513 -1.1942
  376MOL0     H51878   5.933   0.087   6.413  0.8195 -2.3396  0.2480
  376MOL0     H51879   5.796   0.002   6.345 -3.0636  2.5382 -1.1873
  376MOL0     H51880   5.759   0.150   6.607 -2.0026 -0.1819 -0.4874
  376MOL0     H51881   5.665   0.026   6.546  0.0890  0.5304  2.1751
  376MOL0     H51882   5.795  -0.064   6.735 -0.2911 -1.3636 -1.2789
  376MOL0     H51883   5.946   0.018   6.670  1.5886 -0.2495  1.6306
  376MOL0     H51884   5.970  -0.374   6.540 -1.4926 -0.9191  3.3276
  376MOL0     H51885   5.704   0.435   6.246  1.2317 -1.6495  0.3566
  376MOL0     H51886   5.635   0.664   6.175  0.1566  5.7265 -1.7947
  376MOL0     H51887   5.617   0.681   6.005  1.1295 -1.4366 -0.0994
  376MOL0     H51888   5.482   0.620   6.130  0.7199 -2.6671  0.6787
  377MOL0     O51889   8.757   5.619   1.760 -0.1805 -0.1850 -0.1000
  377MOL0     C51890   8.789   5.721   1.815  0.0195  0.0532  1.5339
  377MOL0     O51891   8.902   5.753   1.888  0.3127 -0.8820 -0.2134
  377MOL0     C51892   8.980   5.651   1.946  0.0390  0.0407  0.0921
  377MOL0     C51893   9.047   5.668   2.074 -0.8206 -0.0657 -0.3066
  377MOL0     C51894   9.130   5.565   2.124 -0.6781 -1.3490  0.1667
  377MOL0     C51895   9.156   5.448   2.053  1.1717  0.2245 -0.0527
  377MOL0     O51896   9.233   5.346   2.099 -0.0464  0.1075 -0.6252
  377MOL0     C51897   9.301   5.354   2.221  0.2081  0.0539  0.2596
  377MOL0     C51898   9.346   5.207   2.244 -0.9604  0.1911  0.5060
  377MOL0     C51899   9.448   5.142   2.139  0.0868 -0.2614  0.4213
  377MOL0     C51900   9.591   5.191   2.166  0.3151  0.1075 -0.0693
  377MOL0     C51901   9.674   5.101   2.259  0.8009  1.0560  0.5364
  377MOL0     C51902   9.821   5.141   2.251  0.3768  0.1060  0.0035
  377MOL0     C51903   9.910   5.038   2.300 -0.4103  0.3790  0.0560
  377MOL0     C51904   9.897   5.011   2.448 -0.0473  0.3482 -0.2798
  377MOL0     N51905   9.919   4.874   2.498  0.3645  0.0549  0.1636
  377MOL0     C51906   9.836   4.773   2.461  0.2099  0.4484  0.7205
  377MOL0     C51907   9.901   4.664   2.500  1.0766 -0.1716  0.4971
  377MOL0     C51908   9.847   4.522   2.470 -0.4048  0.2037  0.2246
  377MOL0     C51909   9.891   4.491   2.330 -1.1246  0.6291  0.4373
  377MOL0     C51910   9.849   4.361   2.270  0.8144 -0.0812 -0.1364
  377MOL0     C51911   9.709   4.381   2.209  0.4863 -0.1594  0.3282
  377MOL0     O51912   9.649   4.251   2.189 -0.3307 -0.0302  0.5191
  377MOL0     C51913   9.530   4.238   2.126 -0.4819 -1.0136 -0.0866
  377MOL0     C51914   9.467   4.118   2.149 -0.1829  0.6952 -0.0466
  377MOL0     C51915   9.340   4.091   2.097 -0.1161 -0.1610 -0.2533
  377MOL0     C51916   9.293   3.944   2.106  0.1727  0.0845 -0.5490
  377MOL0     C51917   9.267   4.201   2.042 -0.2478 -0.6337  0.9386
  377MOL0     C51918   9.124   4.190   2.003 -0.2474 -0.0138 -0.5474
  377MOL0     O51919   9.049   4.095   2.054  0.1486  0.5336  0.3524
  377MOL0     C51920   8.915   4.080   2.020  0.1163 -0.1967  0.2432
  377MOL0     C51921   8.856   4.071   1.892 -0.7207  0.0734  0.6226
  377MOL0     C51922   8.731   4.030   1.880 -0.4119  0.2149  0.1255
  377MOL0     C51923   8.648   4.020   2.001 -0.5426  0.0126  0.3508
  377MOL0     O51924   8.516   3.986   2.008  0.7254  0.5540  0.0690
  377MOL0     C51925   8.423   4.057   1.920 -0.4173 -0.3266  0.6438
  377MOL0     C51926   8.398   4.200   1.965  0.0243  0.4041 -0.3283
  377MOL0     C51927   8.332   4.217   2.108 -0.3014  0.5271 -0.1920
  377MOL0     C51928   8.231   4.333   2.118  0.4461 -0.3424 -0.3677
  377MOL0     C51929   8.188   4.365   2.267  0.4794  0.5902  0.5568
  377MOL0     C51930   8.108   4.232   2.311  0.3563 -0.0326 -1.2395
  377MOL0     C51931   8.045   4.265   2.448 -0.4282 -0.0531  0.9235
  377MOL0     C51932   8.147   4.313   2.552 -0.2195 -0.3659  0.2828
  377MOL0    Cl51933   8.317   4.257   2.541  0.2663 -0.6501  0.3779
  377MOL0     C51934   8.704   4.053   2.129 -0.2949 -0.1561 -0.1139
  377MOL0     C51935   8.837   4.077   2.133  0.4451 -0.2973 -0.6347
  377MOL0     O51936   9.088   4.272   1.918  0.3398 -0.5590 -1.2772
  377MOL0     C51937   9.329   4.331   2.031  0.0381  0.7862  0.0868
  377MOL0     C51938   9.451   4.352   2.077 -0.0646  1.0233  0.0282
  377MOL0     N51939  10.016   4.700   2.564  0.2509 -0.6476 -0.0474
  377MOL0     N51940  10.030   4.831   2.545 -1.1307 -0.2024  0.4579
  377MOL0     C51941   9.089   5.429   1.931 -0.2902 -0.1909 -0.5400
  377MOL0     C51942   9.009   5.529   1.876  0.8301 -0.4637 -1.1187
  377MOL0     C51943   8.697   5.833   1.786 -1.0376 -0.3556  0.2601
  377MOL0     C51944   8.668   5.864   1.651 -0.1402  0.3908  0.5362
  377MOL0     C51945   8.599   5.980   1.615  0.0324  0.5637  0.1728
  377MOL0     C51946   8.543   6.058   1.711 -0.0328 -1.1348 -0.5215
  377MOL0     O51947   8.475   6.178   1.694 -0.0133  0.0581  0.1982
  377MOL0     C51948   8.437   6.240   1.565 -1.5266 -0.4731 -1.2991
  377MOL0     C51949   8.507   6.380   1.550 -0.1057 -0.1596  0.5842
  377MOL0     C51950   8.661   6.376   1.556  0.4591  1.9273 -0.1272
  377MOL0     C51951   8.724   6.503   1.522  0.0983  0.3253  0.0324
  377MOL0     C51952   8.775   6.499   1.383  0.1692 -0.0497 -0.0915
  377MOL0     C51953   8.815   6.501   1.268 -0.4889 -0.1187 -0.1468
  377MOL0     C51954   8.580   6.031   1.840  1.2086  0.3324 -0.0987
  377MOL0     C51955   8.667   5.931   1.884  0.5069 -0.2825 -0.9752
  377MOL0     C51956   8.716   5.919   2.035 -0.1909 -0.4694  0.9649
  377MOL0     H51957   9.047   5.764   2.124  0.4190 -0.9071  1.4128
  377MOL0     H51958   9.187   5.586   2.215 -1.8856 -2.8530  1.3237
  377MOL0     H51959   9.228   5.383   2.297  1.1592  0.1807  1.1358
  377MOL0     H51960   9.392   5.415   2.230 -0.4372  0.7295  3.2165
  377MOL0     H51961   9.380   5.197   2.347 -0.0198  0.0174  0.1871
  377MOL0     H51962   9.255   5.146   2.240 -1.2884  0.6346  1.0470
  377MOL0     H51963   9.434   5.034   2.144 -0.9257 -0.2670 -1.5475
  377MOL0     H51964   9.427   5.164   2.034  1.6277  1.7400  0.4515
  377MOL0     H51965   9.649   5.197   2.073 -0.1564  0.6869 -0.3337
  377MOL0     H51966   9.595   5.289   2.215 -0.4044  0.6558 -1.0720
  377MOL0     H51967   9.657   4.995   2.236  0.1024  1.5000 -1.2159
  377MOL0     H51968   9.634   5.114   2.360 -2.6667 -0.7949 -0.4104
  377MOL0     H51969   9.852   5.159   2.148  0.3380 -1.5683 -0.3174
  377MOL0     H51970   9.838   5.236   2.304  0.6424  0.4709 -0.7238
  377MOL0     H51971  10.013   5.064   2.273  0.1659 -2.7926 -1.2893
  377MOL0     H51972   9.887   4.945   2.248 -0.3432  0.4420 -0.0885
  377MOL0     H51973   9.975   5.072   2.496  1.0400 -1.7727  0.8037
  377MOL0     H51974   9.803   5.045   2.492 -0.5689 -0.9307 -0.3744
  377MOL0     H51975   9.746   4.776   2.400  0.5521 -0.7591  0.1065
  377MOL0     H51976   9.738   4.523   2.474 -0.4529  1.7404  4.8255
  377MOL0     H51977   9.881   4.454   2.549  0.9832 -0.5869 -1.0096
  377MOL0     H51978   9.853   4.568   2.262 -0.3411 -2.1272 -3.4336
  377MOL0     H51979  10.000   4.490   2.341 -0.8429 -3.0078 -1.2691
  377MOL0     H51980   9.912   4.334   2.185  2.5394  1.6995  0.5134
  377MOL0     H51981   9.854   4.278   2.342  3.4274 -0.5312 -0.7389
  377MOL0     H51982   9.640   4.446   2.263  0.1807 -0.4421  0.2838
  377MOL0     H51983   9.727   4.436   2.115  1.3086  0.6349  0.9296
  377MOL0     H51984   9.511   4.043   2.213  1.7506  0.8533 -1.1031
  377MOL0     H51985   9.376   3.878   2.132  0.6423  1.0404  0.4509
  377MOL0     H51986   9.249   3.912   2.012  2.4750 -1.3666 -1.2172
  377MOL0     H51987   9.227   3.948   2.194  4.2871  4.1409  2.8448
  377MOL0     H51988   8.913   4.097   1.803  1.4760 -0.5680  1.7728
  377MOL0     H51989   8.690   3.999   1.784 -1.1412 -2.7303  1.2720
  377MOL0     H51990   8.472   4.059   1.822  0.1241 -1.0982  0.8931
  377MOL0     H51991   8.331   3.998   1.914  0.5899 -1.7935 -1.4446
  377MOL0     H51992   8.492   4.255   1.955  1.2087 -1.5218 -0.2855
  377MOL0     H51993   8.337   4.251   1.890  0.0685  0.6399 -0.2015
  377MOL0     H51994   8.417   4.218   2.177 -1.6682  2.1552  1.5512
  377MOL0     H51995   8.280   4.121   2.118  0.5534  0.0686 -0.0159
  377MOL0     H51996   8.146   4.318   2.051 -0.8641  2.6251  0.4670
  377MOL0     H51997   8.287   4.421   2.083  0.6230 -0.4501 -0.3537
  377MOL0     H51998   8.272   4.390   2.333  0.2887 -0.0338  1.0446
  377MOL0     H51999   8.129   4.454   2.245  2.1462  1.6142 -0.0189
  377MOL0     H52000   8.182   4.154   2.333 -0.4820 -0.0820  1.9453
  377MOL0     H52001   8.038   4.185   2.242  1.1317 -0.1496 -1.9526
  377MOL0     H52002   8.006   4.168   2.480  1.3150 -1.8534 -1.9569
  377MOL0     H52003   7.961   4.335   2.453 -1.2662 -0.8364 -1.0184
  377MOL0     H52004   8.118   4.287   2.654  0.6665  1.3017  0.9963
  377MOL0     H52005   8.145   4.420   2.527  2.0809 -0.0683  1.0944
  377MOL0     H52006   8.660   4.042   2.228 -0.1395  1.5107  0.1610
  377MOL0     H52007   8.877   4.081   2.233 -1.5919  0.8510  0.2035
  377MOL0     H52008   9.293   4.411   1.966  1.6061  0.3182 -1.4540
  377MOL0     H52009   9.509   4.443   2.062  2.2788 -0.4662 -0.5851
  377MOL0     H52010   9.099   5.335   1.877  0.3971 -1.1975  1.2408
  377MOL0     H52011   8.976   5.504   1.776  0.3563  2.9834 -1.9279
  377MOL0     H52012   8.686   5.789   1.574 -4.4236 -2.3833  1.8734
  377MOL0     H52013   8.585   5.987   1.508 -1.2008 -0.5419  0.2479
  377MOL0     H52014   8.471   6.182   1.479  0.4941 -0.2364 -0.7143
  377MOL0     H52015   8.331   6.263   1.553 -1.6599 -0.1033  0.3102
  377MOL0     H52016   8.475   6.437   1.637  0.0091  0.2808  0.3427
  377MOL0     H52017   8.468   6.428   1.460  1.9183 -0.0634 -0.2930
  377MOL0     H52018   8.695   6.354   1.658 -0.6180 -1.5843 -0.4127
  377MOL0     H52019   8.687   6.300   1.482 -2.9401  2.0696 -1.6559
  377MOL0     H52020   8.821   6.523   1.568  0.9240 -0.4386 -1.3346
  377MOL0     H52021   8.652   6.586   1.520  0.3427  0.5690  0.8834
  377MOL0     H52022   8.828   6.518   1.163  1.0081 -3.5899 -0.6809
  377MOL0     H52023   8.530   6.092   1.915 -2.0473  0.5966 -2.2728
  377MOL0     H52024   8.640   5.977   2.088  1.8879  0.4739  3.1052
  377MOL0     H52025   8.715   5.817   2.074  3.1088  0.4071  3.8679
  377MOL0     H52026   8.814   5.966   2.039  0.3727 -1.4735 -0.4209
  378MOL0     O52027  10.483  11.107   1.266  0.4935 -0.1477  0.4692
  378MOL0     C52028  10.496  11.205   1.337 -0.0987  0.5982  0.4429
  378MOL0     O52029  10.569  11.320   1.308 -0.5150  0.0435  0.0581
  378MOL0     C52030  10.655  11.313   1.202  0.3004 -0.2999  0.3138
  378MOL0     C52031  10.613  11.337   1.065 -0.9193 -0.1111 -0.3974
  378MOL0     C52032  10.708  11.346   0.959 -0.0679  0.0214 -1.0700
  378MOL0     C52033  10.843  11.327   0.991  0.2871 -0.5911 -0.4860
  378MOL0     O52034  10.949  11.338   0.898 -0.3150 -0.0016  0.1618
  378MOL0     C52035  10.930  11.388   0.755  0.1157  0.4793  0.3089
  378MOL0     C52036  11.057  11.414   0.680 -0.5927 -0.5771 -0.1604
  378MOL0     C52037  11.131  11.541   0.724 -0.0878 -1.1873 -0.3908
  378MOL0     C52038  11.271  11.549   0.660 -0.9780  0.9211 -0.6422
  378MOL0     C52039  11.352  11.670   0.710  0.8435 -0.3044 -0.5431
  378MOL0     C52040  11.457  11.713   0.614 -0.9768 -0.0265 -0.0664
  378MOL0     C52041  11.554  11.822   0.650 -0.0739  0.0278 -0.7096
  378MOL0     C52042  11.678  11.840   0.554  0.2176  0.6922  0.2615
  378MOL0     N52043  11.796  11.768   0.607 -0.3956  0.2356 -0.0104
  378MOL0     C52044  11.793  11.650   0.679  0.2152  0.2550 -0.5399
  378MOL0     C52045  11.921  11.605   0.672 -0.1185  0.4549  0.6362
  378MOL0     C52046  11.991  11.482   0.729  0.0665  0.6817 -0.1003
  378MOL0     C52047  12.035  11.501   0.883  0.3102 -0.0637  0.2469
  378MOL0     C52048  12.058  11.362   0.949 -0.3106  0.7321 -0.2003
  378MOL0     C52049  11.946  11.276   0.975  1.1504 -0.1187  0.8570
  378MOL0     O52050  11.890  11.289   1.105 -0.3549 -0.4208 -0.7631
  378MOL0     C52051  11.789  11.374   1.143 -0.1893 -0.9190 -0.4937
  378MOL0     C52052  11.742  11.374   1.275  0.2052  1.1357  0.2616
  378MOL0     C52053  11.636  11.454   1.318 -0.4098  0.8643  0.0091
  378MOL0     C52054  11.603  11.457   1.459 -0.5835 -0.8003  0.4786
  378MOL0     C52055  11.557  11.529   1.222 -0.0543 -0.8123 -0.2930
  378MOL0     C52056  11.438  11.615   1.268 -0.4211  0.2056  0.8520
  378MOL0     O52057  11.342  11.614   1.181  0.1485  0.9193 -0.1763
  378MOL0     C52058  11.220  11.676   1.196 -0.6126 -1.3372  0.4393
  378MOL0     C52059  11.215  11.804   1.248  0.8068 -0.0703 -0.3588
  378MOL0     C52060  11.089  11.859   1.298 -0.6634  0.3474 -0.0419
  378MOL0     C52061  10.970  11.786   1.287  0.0193  0.0911  0.8429
  378MOL0     O52062  10.861  11.850   1.345 -0.6687 -0.9075  0.1278
  378MOL0     C52063  10.745  11.774   1.379 -0.9556  0.0627 -0.5231
  378MOL0     C52064  10.637  11.854   1.427  0.5965  0.3957 -0.6469
  378MOL0     C52065  10.523  11.768   1.492  0.5723  0.5286  0.5130
  378MOL0     C52066  10.409  11.834   1.566 -0.0543 -0.8430 -0.1080
  378MOL0     C52067  10.309  11.739   1.619  0.3641  0.1070  0.2596
  378MOL0     C52068  10.249  11.784   1.757 -0.0544 -0.1315  0.0505
  378MOL0     C52069  10.160  11.667   1.811 -0.8712  0.7737  0.1511
  378MOL0     C52070  10.077  11.698   1.935 -0.5465  0.1774  0.1551
  378MOL0    Cl52071   9.938  11.582   1.936  0.6664 -0.2354 -0.1337
  378MOL0     C52072  10.974  11.662   1.212  0.2800 -0.8817  0.0741
  378MOL0     C52073  11.103  11.615   1.157  0.2347  0.3146 -0.4768
  378MOL0     O52074  11.446  11.686   1.368  0.2597 -0.0303  0.7648
  378MOL0     C52075  11.603  11.536   1.093  0.0835  0.4576 -0.3854
  378MOL0     C52076  11.719  11.457   1.053  0.1375  0.1749  0.7484
  378MOL0     N52077  11.995  11.698   0.597  0.1049 -0.0324 -0.3419
  378MOL0     N52078  11.923  11.799   0.577  0.0350 -0.4559 -0.6489
  378MOL0     C52079  10.882  11.306   1.127  0.0066  0.6215 -0.0888
  378MOL0     C52080  10.784  11.281   1.220 -1.1562 -0.1317  0.0996
  378MOL0     C52081  10.405  11.224   1.456  0.6122  0.3107 -0.7591
  378MOL0     C52082  10.333  11.342   1.478  0.8278  0.6134 -0.4461
  378MOL0     C52083  10.239  11.359   1.584 -0.2220 -0.0962 -0.2011
  378MOL0     C52084  10.214  11.248   1.669  0.0844  0.7247  0.1811
  378MOL0     O52085  10.134  11.267   1.777 -0.6600  0.5180  0.0773
  378MOL0     C52086  10.161  11.194   1.903 -0.0381 -0.0249  0.1693
  378MOL0     C52087  10.231  11.281   1.998  0.3691  0.4266 -0.7534
  378MOL0     C52088  10.244  11.217   2.131 -0.2162 -0.0005  0.4795
  378MOL0     C52089  10.294  11.313   2.234  0.9468  0.3148 -0.4795
  378MOL0     C52090  10.191  11.425   2.260  0.3896  0.4799  0.2835
  378MOL0     C52091  10.108  11.514   2.280  0.1844  0.0806 -0.7039
  378MOL0     C52092  10.282  11.130   1.636 -0.7983 -0.3892 -0.4916
  378MOL0     C52093  10.374  11.117   1.534  0.5208 -0.6417  0.8762
  378MOL0     C52094  10.444  10.980   1.516  0.7191 -0.5552 -0.3829
  378MOL0     H52095  10.506  11.344   1.045 -1.0563  0.9778  0.5797
  378MOL0     H52096  10.664  11.375   0.864 -1.3299  3.5311  0.4496
  378MOL0     H52097  10.872  11.480   0.766 -3.4743 -1.4950 -0.5524
  378MOL0     H52098  10.855  11.332   0.699  0.4345  2.9476 -2.8398
  378MOL0     H52099  11.123  11.330   0.700  1.3476  0.8978 -0.1007
  378MOL0     H52100  11.029  11.428   0.575 -1.2059  1.7435  0.2590
  378MOL0     H52101  11.074  11.632   0.704 -0.1725 -1.0527  0.4412
  378MOL0     H52102  11.150  11.536   0.831  1.5522 -3.4942 -0.7169
  378MOL0     H52103  11.329  11.456   0.664 -1.2480  0.4875 -3.8166
  378MOL0     H52104  11.251  11.544   0.552  0.4718  0.9713 -0.9437
  378MOL0     H52105  11.391  11.637   0.806  1.8926  0.8040 -0.5721
  378MOL0     H52106  11.281  11.753   0.714  1.2366 -0.0112  0.5316
  378MOL0     H52107  11.523  11.628   0.592 -0.1305  0.6640 -0.2597
  378MOL0     H52108  11.417  11.746   0.518 -0.8021 -1.2216 -0.5679
  378MOL0     H52109  11.582  11.803   0.754 -0.4189  1.6216 -0.3014
  378MOL0     H52110  11.498  11.915   0.641  0.4789  0.4832  0.3655
  378MOL0     H52111  11.655  11.794   0.457 -1.7643 -0.9200  1.3902
  378MOL0     H52112  11.709  11.943   0.536 -1.4916  1.6808  2.4688
  378MOL0     H52113  11.711  11.594   0.723 -0.5938  1.6396 -0.2450
  378MOL0     H52114  12.083  11.463   0.673 -0.6471 -2.8467 -0.3081
  378MOL0     H52115  11.933  11.389   0.720 -0.5567  1.1908 -1.6842
  378MOL0     H52116  12.131  11.554   0.891 -0.9009  1.9506  5.3689
  378MOL0     H52117  11.950  11.542   0.938  0.4024 -0.8099  0.9642
  378MOL0     H52118  12.142  11.308   0.906  0.5309 -1.1533  3.4418
  378MOL0     H52119  12.099  11.383   1.048 -0.4952  0.2281 -0.0161
  378MOL0     H52120  11.869  11.295   0.900  1.4602  0.8251  0.7616
  378MOL0     H52121  11.972  11.170   0.972 -0.7828 -0.6238 -2.2168
  378MOL0     H52122  11.788  11.310   1.350 -1.7655 -0.3018  0.2980
  378MOL0     H52123  11.668  11.381   1.504 -0.3362 -2.3929 -2.3589
  378MOL0     H52124  11.502  11.416   1.467 -0.2210 -2.3179 -1.9999
  378MOL0     H52125  11.602  11.559   1.499 -4.2634  0.8243 -3.0039
  378MOL0     H52126  11.306  11.860   1.264  0.6169  0.1664 -0.1014
  378MOL0     H52127  11.096  11.956   1.346 -0.3500  0.8473 -1.0662
  378MOL0     H52128  10.712  11.702   1.304 -1.9110 -0.4010  0.3183
  378MOL0     H52129  10.772  11.714   1.466 -1.8322  1.7055  0.9432
  378MOL0     H52130  10.678  11.926   1.498  0.0743 -0.5116  0.6127
  378MOL0     H52131  10.590  11.908   1.345 -1.0893 -1.5775 -1.0700
  378MOL0     H52132  10.570  11.714   1.575  1.7971  1.1837  0.2654
  378MOL0     H52133  10.488  11.699   1.415 -3.4168  2.8610 -0.0593
  378MOL0     H52134  10.347  11.899   1.504  1.0598  0.5934  0.2523
  378MOL0     H52135  10.466  11.890   1.640  2.3253 -2.9721 -0.2064
  378MOL0     H52136  10.237  11.711   1.541  0.7946 -1.7482  0.4720
  378MOL0     H52137  10.365  11.648   1.642  0.2986 -0.1396 -0.5196
  378MOL0     H52138  10.182  11.871   1.748 -3.5792 -2.3925  2.1453
  378MOL0     H52139  10.318  11.802   1.839 -0.5232 -0.7844  0.5944
  378MOL0     H52140  10.229  11.582   1.823 -1.5970 -0.1458 -1.7186
  378MOL0     H52141  10.105  11.634   1.722  1.0884  1.3927 -1.3930
  378MOL0     H52142  10.045  11.802   1.943  2.6403  1.2995 -0.1244
  378MOL0     H52143  10.141  11.683   2.022 -0.4886 -3.1114 -0.3516
  378MOL0     H52144  10.883  11.611   1.183 -1.8658  2.3746  0.5032
  378MOL0     H52145  11.100  11.526   1.095  3.9600  1.3460 -2.4526
  378MOL0     H52146  11.550  11.601   1.025 -0.3940 -0.5103 -0.9549
  378MOL0     H52147  11.741  11.456   0.947  1.2829  1.6850  0.9315
  378MOL0     H52148  10.988  11.290   1.137 -0.0623 -0.6279 -1.1261
  378MOL0     H52149  10.806  11.233   1.315 -4.9022 -1.1465  0.6140
  378MOL0     H52150  10.351  11.428   1.413 -2.3950  1.5683 -0.2295
  378MOL0     H52151  10.210  11.460   1.614  2.5905  0.8979 -0.4814
  378MOL0     H52152  10.069  11.154   1.947 -2.2983  3.3585 -1.0743
  378MOL0     H52153  10.223  11.107   1.877 -0.7837 -1.3202  2.4279
  378MOL0     H52154  10.169  11.372   2.003 -2.2457 -1.3106  2.9501
  378MOL0     H52155  10.334  11.284   1.961  1.2785 -0.8369  1.4676
  378MOL0     H52156  10.147  11.176   2.158 -0.9692  1.4743  0.1078
  378MOL0     H52157  10.322  11.140   2.123  0.6506  0.9177 -0.2323
  378MOL0     H52158  10.384  11.361   2.197  0.6382 -0.0760 -1.8082
  378MOL0     H52159  10.310  11.246   2.319 -2.8498 -0.1790  0.0355
  378MOL0     H52160  10.027  11.576   2.311  0.1437 -0.6664  0.7452
  378MOL0     H52161  10.263  11.040   1.695  0.1787 -0.1648  0.1984
  378MOL0     H52162  10.406  10.911   1.592  0.7019 -0.2031 -0.0683
  378MOL0     H52163  10.406  10.945   1.420  1.4666 -2.3240 -0.0616
  378MOL0     H52164  10.553  10.978   1.524  0.6854 -4.7818  1.6004
  379MOL0     O52165   4.095   8.736   4.927  0.2480  1.1348  0.2375
  379MOL0     C52166   4.155   8.793   4.838 -0.1702 -0.4264 -0.1281
  379MOL0     O52167   4.098   8.857   4.735 -0.0427  0.2970 -0.4241
  379MOL0     C52168   3.969   8.837   4.720 -0.3949  0.5334 -0.1212
  379MOL0     C52169   3.862   8.874   4.806 -0.5934  0.1456 -0.0345
  379MOL0     C52170   3.731   8.856   4.777 -0.2002  1.0499 -0.4018
  379MOL0     C52171   3.705   8.767   4.673  0.6565 -0.2114 -0.0738
  379MOL0     O52172   3.567   8.731   4.639 -0.6015 -0.6040  0.0243
  379MOL0     C52173   3.455   8.763   4.720 -0.2400 -0.2715 -0.2930
  379MOL0     C52174   3.442   8.681   4.851 -0.3287 -1.2060  0.2645
  379MOL0     C52175   3.412   8.528   4.843 -0.1965 -0.7796 -0.5908
  379MOL0     C52176   3.303   8.490   4.762 -0.3053  0.6603  0.4739
  379MOL0     C52177   3.293   8.336   4.731 -0.3917 -0.0731 -0.2534
  379MOL0     C52178   3.143   8.290   4.751 -0.4957 -0.5709 -0.3215
  379MOL0     C52179   3.101   8.298   4.898 -0.7967  0.2151 -0.2961
  379MOL0     C52180   2.952   8.315   4.926  1.3809 -0.2909 -0.3193
  379MOL0     N52181   2.859   8.205   4.893 -0.0198  0.3397 -0.1411
  379MOL0     C52182   2.864   8.084   4.949  0.4682 -0.7796 -0.4489
  379MOL0     C52183   2.788   8.003   4.883  0.7796 -0.2930  0.6429
  379MOL0     C52184   2.738   7.862   4.914  0.2052  0.1287 -1.8572
  379MOL0     C52185   2.826   7.757   4.861 -0.1470 -1.0206  0.6023
  379MOL0     C52186   2.878   7.768   4.718 -0.3377  0.6760 -0.9339
  379MOL0     C52187   2.973   7.658   4.679 -0.4254  0.5347 -1.1735
  379MOL0     O52188   3.014   7.692   4.547 -0.4991 -0.7974 -0.0956
  379MOL0     C52189   3.096   7.604   4.478 -0.1136  0.0995 -0.3417
  379MOL0     C52190   3.203   7.538   4.544 -0.1141 -0.4081  0.2155
  379MOL0     C52191   3.265   7.427   4.486  0.1172 -0.5338 -1.5954
  379MOL0     C52192   3.377   7.356   4.567 -0.7781  0.0544 -0.3438
  379MOL0     C52193   3.219   7.380   4.355  0.8494 -1.2168 -1.0504
  379MOL0     C52194   3.265   7.256   4.297 -0.4011 -0.7139  0.0398
  379MOL0     O52195   3.280   7.251   4.159  0.4026  0.0551 -1.1068
  379MOL0     C52196   3.315   7.137   4.100 -0.5450  0.9084 -0.1443
  379MOL0     C52197   3.448   7.123   4.036  1.6222 -0.1036 -0.0964
  379MOL0     C52198   3.480   7.012   3.958  1.2560  0.6625  0.0959
  379MOL0     C52199   3.400   6.899   3.962  0.7975 -0.2719  0.5173
  379MOL0     O52200   3.438   6.791   3.898 -0.1646  0.5334  0.5001
  379MOL0     C52201   3.385   6.660   3.933  0.0681  0.7631 -0.8434
  379MOL0     C52202   3.422   6.554   3.824  0.2790  0.2917 -0.0446
  379MOL0     C52203   3.358   6.573   3.683  0.0622  0.1624  0.1132
  379MOL0     C52204   3.335   6.712   3.624  0.3289 -0.0723  0.4471
  379MOL0     C52205   3.212   6.788   3.674 -0.9583  0.1455  0.5075
  379MOL0     C52206   3.091   6.705   3.617 -0.1848 -0.9091  0.1770
  379MOL0     C52207   2.955   6.776   3.645  0.3074 -0.3152  0.5544
  379MOL0     C52208   2.949   6.917   3.591 -0.6971 -0.0104  0.5556
  379MOL0    Cl52209   2.998   6.933   3.419 -0.1136 -0.0517  0.0619
  379MOL0     C52210   3.273   6.909   4.034  0.0951 -0.4548  0.1537
  379MOL0     C52211   3.230   7.028   4.105 -0.7246 -0.6290 -0.5178
  379MOL0     O52212   3.281   7.164   4.382 -0.0264 -0.2317 -0.0966
  379MOL0     C52213   3.117   7.455   4.298  0.2117  0.9631  0.8798
  379MOL0     C52214   3.063   7.570   4.352 -0.0579 -1.0644 -0.3162
  379MOL0     N52215   2.736   8.075   4.770 -0.0970  0.0756  0.0218
  379MOL0     N52216   2.779   8.198   4.778  0.2889 -0.2827  0.2122
  379MOL0     C52217   3.801   8.713   4.594 -0.0088 -0.1873 -0.5766
  379MOL0     C52218   3.929   8.757   4.618 -0.6084 -0.4562 -0.3214
  379MOL0     C52219   4.306   8.812   4.855  0.3094  0.1397  0.3962
  379MOL0     C52220   4.362   8.925   4.815  0.1466  0.2466 -0.0470
  379MOL0     C52221   4.500   8.951   4.835  0.1384 -0.4325 -0.4189
  379MOL0     C52222   4.581   8.862   4.904  0.6366 -0.5438 -0.2219
  379MOL0     O52223   4.715   8.906   4.922 -0.0230 -0.2718  0.7973
  379MOL0     C52224   4.801   8.809   5.000  0.5532  1.1022  0.3371
  379MOL0     C52225   4.950   8.824   5.015 -0.2043  1.1554  0.2437
  379MOL0     C52226   5.040   8.739   5.117 -0.0778 -0.2918  1.3077
  379MOL0     C52227   4.975   8.604   5.159  0.1926  0.0926 -0.2444
  379MOL0     C52228   4.950   8.523   5.039  0.2543  0.9697  0.1549
  379MOL0     C52229   4.937   8.448   4.948  0.2200 -0.1473 -0.3917
  379MOL0     C52230   4.524   8.737   4.932 -0.0946  0.1167 -0.7903
  379MOL0     C52231   4.391   8.705   4.909 -0.6303 -0.5280  0.2977
  379MOL0     C52232   4.357   8.562   4.910 -0.2197  0.5776 -0.2406
  379MOL0     H52233   3.893   8.932   4.892  0.1550 -2.1272  1.3404
  379MOL0     H52234   3.659   8.902   4.844  0.2355  2.0794 -0.6172
  379MOL0     H52235   3.359   8.749   4.671 -0.5372  0.7293 -0.0282
  379MOL0     H52236   3.469   8.869   4.745  4.9889 -0.5692 -0.9021
  379MOL0     H52237   3.533   8.689   4.911 -0.8954 -1.8170  1.2378
  379MOL0     H52238   3.364   8.729   4.911  1.0257  2.2675 -0.5152
  379MOL0     H52239   3.508   8.486   4.810  0.2011  1.3994 -2.4757
  379MOL0     H52240   3.396   8.489   4.943 -1.5453  0.1721 -0.4143
  379MOL0     H52241   3.210   8.516   4.815 -0.8478 -2.5442  1.3108
  379MOL0     H52242   3.295   8.547   4.669 -1.9554  0.4576  0.4628
  379MOL0     H52243   3.364   8.283   4.794 -3.0128 -1.4032  1.7973
  379MOL0     H52244   3.320   8.321   4.626 -0.1807  0.1962 -0.2360
  379MOL0     H52245   3.072   8.359   4.705  1.5958  1.6354 -0.4644
  379MOL0     H52246   3.126   8.186   4.722 -0.6622  0.0142 -2.5044
  379MOL0     H52247   3.141   8.390   4.941  0.4579 -0.5328  0.2201
  379MOL0     H52248   3.148   8.220   4.960 -1.8386  0.0110  0.2548
  379MOL0     H52249   2.930   8.326   5.032 -2.9267 -2.3822 -0.7838
  379MOL0     H52250   2.915   8.399   4.866 -0.2825 -2.0645 -1.9273
  379MOL0     H52251   2.910   8.062   5.045  1.4246  1.2696 -0.3799
  379MOL0     H52252   2.640   7.842   4.870  0.0651 -3.2212 -0.3073
  379MOL0     H52253   2.717   7.851   5.021  0.2853  1.0158 -1.7396
  379MOL0     H52254   2.908   7.747   4.933 -0.0134 -0.0725  0.5962
  379MOL0     H52255   2.765   7.667   4.872  1.4197 -2.2165 -0.0548
  379MOL0     H52256   2.797   7.781   4.645  1.5364 -2.3554 -3.8796
  379MOL0     H52257   2.944   7.854   4.709  0.0441  0.3003 -1.8681
  379MOL0     H52258   3.057   7.654   4.749 -2.9900  0.6229  2.1770
  379MOL0     H52259   2.933   7.557   4.668  0.5912  0.2201 -2.2163
  379MOL0     H52260   3.221   7.570   4.646 -0.0251  2.7779 -0.7158
  379MOL0     H52261   3.444   7.309   4.495 -3.4744 -2.3981 -1.4656
  379MOL0     H52262   3.330   7.289   4.640  2.9691 -2.2649  0.1896
  379MOL0     H52263   3.427   7.423   4.639  0.3655 -2.2078  1.0888
  379MOL0     H52264   3.513   7.210   4.044  0.8196  0.4472  0.7199
  379MOL0     H52265   3.580   7.014   3.916  1.4654  0.3126  0.5716
  379MOL0     H52266   3.449   6.635   4.018  1.4355 -0.5976 -2.2099
  379MOL0     H52267   3.278   6.650   3.956  0.6025  1.4477  2.4460
  379MOL0     H52268   3.531   6.548   3.814  0.2897 -0.9444  0.7125
  379MOL0     H52269   3.383   6.456   3.851 -2.3246  0.8010 -1.6070
  379MOL0     H52270   3.265   6.515   3.676 -0.4073  1.0705 -3.3948
  379MOL0     H52271   3.427   6.520   3.616 -0.7286  1.3853 -1.7557
  379MOL0     H52272   3.330   6.698   3.515  0.6281  1.7634  0.1702
  379MOL0     H52273   3.421   6.774   3.649  0.6732 -0.8603  1.2887
  379MOL0     H52274   3.207   6.796   3.783 -0.0609 -0.9263  0.6434
  379MOL0     H52275   3.222   6.890   3.633 -0.0178 -0.8193 -1.8440
  379MOL0     H52276   3.081   6.602   3.653 -0.1441 -1.9294 -2.4405
  379MOL0     H52277   3.111   6.694   3.510 -0.6960 -0.1485 -0.0045
  379MOL0     H52278   2.944   6.777   3.754  2.9578  1.9035  0.9201
  379MOL0     H52279   2.871   6.722   3.601 -2.2039  3.3536  0.4574
  379MOL0     H52280   2.997   6.991   3.655 -0.7234 -0.3346  0.9529
  379MOL0     H52281   2.840   6.929   3.592 -0.8155 -0.9034 -0.1043
  379MOL0     H52282   3.208   6.822   4.026 -1.5716  0.4551  2.4970
  379MOL0     H52283   3.140   7.022   4.166 -0.5156  0.9988 -0.0189
  379MOL0     H52284   3.098   7.443   4.192  2.2363  0.8588  0.5017
  379MOL0     H52285   2.976   7.625   4.316  0.3811 -0.3188 -0.2506
  379MOL0     H52286   3.776   8.644   4.515  1.5374  0.9435 -2.1469
  379MOL0     H52287   4.008   8.715   4.556  2.6817  1.6625  2.0799
  379MOL0     H52288   4.298   8.988   4.755 -1.2192 -0.8690  0.1724
  379MOL0     H52289   4.544   9.041   4.793 -1.1835  1.6847  2.3529
  379MOL0     H52290   4.755   8.794   5.098 -1.7744 -1.6091 -1.0288
  379MOL0     H52291   4.796   8.716   4.942  0.8174  1.7539 -0.7760
  379MOL0     H52292   4.979   8.929   5.024  0.7054  0.8664  0.8318
  379MOL0     H52293   4.991   8.805   4.915 -1.8256 -0.4151 -0.1791
  379MOL0     H52294   5.133   8.716   5.065 -1.3457 -0.4937 -1.0147
  379MOL0     H52295   5.056   8.803   5.204 -0.6898 -1.9460  2.7041
  379MOL0     H52296   4.890   8.617   5.226  0.0261 -1.4882 -0.1039
  379MOL0     H52297   5.053   8.551   5.214  0.6601  0.0152 -0.9638
  379MOL0     H52298   4.907   8.387   4.865 -0.7081 -0.9197  0.4758
  379MOL0     H52299   4.588   8.664   4.981 -1.0072 -1.2138 -1.5282
  379MOL0     H52300   4.442   8.505   4.949  0.3202  1.0072 -0.7661
  379MOL0     H52301   4.261   8.540   4.957 -0.2047  1.2608  0.1129
  379MOL0     H52302   4.346   8.538   4.804 -1.5889  1.2155 -0.2694
  380MOL0     O52303   3.958   6.455   3.799  0.0322  0.5092 -0.2356
  380MOL0     C52304   3.860   6.390   3.762 -0.4623  0.4087  0.8059
  380MOL0     O52305   3.748   6.367   3.837 -0.2875 -0.2846  0.2095
  380MOL0     C52306   3.750   6.369   3.971 -0.5005 -0.2887  0.0630
  380MOL0     C52307   3.719   6.249   4.042 -0.4650 -0.4190 -0.1017
  380MOL0     C52308   3.749   6.238   4.175  0.0904 -0.7454 -0.3817
  380MOL0     C52309   3.796   6.353   4.241  0.8100  0.3927 -0.4909
  380MOL0     O52310   3.840   6.344   4.373  0.4793  0.1952  0.6265
  380MOL0     C52311   3.877   6.220   4.435 -0.5997 -0.8694 -0.1268
  380MOL0     C52312   3.972   6.260   4.550  1.2020 -0.5852  0.0850
  380MOL0     C52313   3.907   6.321   4.677  0.4429 -0.2309 -0.2538
  380MOL0     C52314   4.002   6.407   4.761  0.4025 -0.7851 -0.3696
  380MOL0     C52315   3.923   6.494   4.870  0.9380 -0.3829  0.2150
  380MOL0     C52316   4.013   6.597   4.929  0.7219 -0.3861 -0.7966
  380MOL0     C52317   3.937   6.683   5.032  0.7045  0.4559  0.9732
  380MOL0     C52318   3.897   6.826   4.979 -0.5049 -0.3951 -0.0820
  380MOL0     N52319   3.896   6.850   4.832  0.3811 -0.4274  0.9539
  380MOL0     C52320   3.801   6.806   4.751  0.5132  0.6741  0.6318
  380MOL0     C52321   3.826   6.836   4.622 -0.5979  0.3816  0.0503
  380MOL0     C52322   3.763   6.811   4.492 -0.0280 -0.4161 -0.2382
  380MOL0     C52323   3.678   6.934   4.471  0.6327  0.8259  0.2037
  380MOL0     C52324   3.568   6.915   4.358 -1.0891 -0.1369 -0.7769
  380MOL0     C52325   3.448   6.840   4.398 -0.5766 -0.0428  0.7947
  380MOL0     O52326   3.449   6.711   4.334  0.4280 -0.7508 -0.4702
  380MOL0     C52327   3.462   6.596   4.412 -0.5998 -0.9434 -0.6414
  380MOL0     C52328   3.503   6.587   4.550 -1.0138  0.2295 -0.2087
  380MOL0     C52329   3.513   6.460   4.609 -0.9742 -0.5949  0.5370
  380MOL0     C52330   3.529   6.457   4.756  0.4851 -0.3009 -0.8515
  380MOL0     C52331   3.495   6.338   4.532 -0.1985 -0.7213  0.9552
  380MOL0     C52332   3.528   6.201   4.571 -1.1989 -0.5617 -0.1051
  380MOL0     O52333   3.513   6.106   4.475  0.2324 -0.1022 -0.1316
  380MOL0     C52334   3.587   5.984   4.478  0.0889  0.5476 -0.2010
  380MOL0     C52335   3.539   5.888   4.389  0.3409  0.7466 -0.7621
  380MOL0     C52336   3.600   5.761   4.383  0.7168  0.9194  0.1467
  380MOL0     C52337   3.694   5.718   4.476 -0.2126 -0.5727 -0.6024
  380MOL0     O52338   3.743   5.589   4.473 -0.1444 -0.1726 -0.0899
  380MOL0     C52339   3.882   5.578   4.476 -0.2444  0.6790 -0.2362
  380MOL0     C52340   3.937   5.452   4.410 -0.0471 -0.1160 -0.5170
  380MOL0     C52341   4.087   5.431   4.430 -0.1201  0.3586  0.8033
  380MOL0     C52342   4.121   5.315   4.330 -0.3233 -0.9136  0.0695
  380MOL0     C52343   4.264   5.255   4.379  0.5622  0.1023  0.0502
  380MOL0     C52344   4.319   5.146   4.286 -0.8039  0.0976  0.1273
  380MOL0     C52345   4.224   5.030   4.275  0.7487  0.4396 -0.2836
  380MOL0     C52346   4.265   4.894   4.333  0.6497 -0.1681 -0.4588
  380MOL0    Cl52347   4.149   4.770   4.267 -0.2123  0.0099 -0.4177
  380MOL0     C52348   3.738   5.811   4.573 -0.9575  0.9696  0.0663
  380MOL0     C52349   3.693   5.936   4.564  0.2083  0.4316  0.0709
  380MOL0     O52350   3.592   6.196   4.674  0.0549 -0.2866 -0.0041
  380MOL0     C52351   3.460   6.356   4.403  0.3232 -0.4698  0.2674
  380MOL0     C52352   3.441   6.479   4.339 -0.3113  0.0831  0.1779
  380MOL0     N52353   3.937   6.926   4.637  1.2062  0.4324  0.2838
  380MOL0     N52354   3.978   6.927   4.757  0.0893  0.3591  0.0941
  380MOL0     C52355   3.825   6.473   4.179  1.0982  0.1157  0.1233
  380MOL0     C52356   3.797   6.483   4.045 -0.2065 -0.2733 -0.9148
  380MOL0     C52357   3.870   6.366   3.607  0.1068  0.0174 -0.2203
  380MOL0     C52358   3.969   6.431   3.528  0.1447 -0.1256  0.7397
  380MOL0     C52359   3.986   6.417   3.385  0.4252 -0.5832  0.3614
  380MOL0     C52360   3.890   6.343   3.317 -0.8687 -1.7233 -0.5845
  380MOL0     O52361   3.890   6.344   3.186 -0.0294 -0.2987  0.5879
  380MOL0     C52362   3.784   6.286   3.104  0.1807  0.4765 -0.2565
  380MOL0     C52363   3.794   6.354   2.962  0.3953 -0.4041 -0.9928
  380MOL0     C52364   3.923   6.377   2.886 -0.0960  0.8978  0.5086
  380MOL0     C52365   4.008   6.250   2.844  0.1060 -0.0303 -0.1168
  380MOL0     C52366   4.129   6.305   2.785  0.4713  1.0738 -0.1235
  380MOL0     C52367   4.243   6.345   2.768  0.4973 -0.0354 -0.8491
  380MOL0     C52368   3.809   6.266   3.393  0.6088  0.5921 -0.4235
  380MOL0     C52369   3.790   6.273   3.530  0.3329 -0.6647 -0.5374
  380MOL0     C52370   3.689   6.184   3.602 -0.7333 -0.1014 -0.0857
  380MOL0     H52371   3.683   6.160   3.991  0.0749  0.9070 -3.0158
  380MOL0     H52372   3.725   6.148   4.230 -1.6505 -0.4336 -0.5709
  380MOL0     H52373   3.919   6.144   4.368 -0.2492  0.2595 -1.2241
  380MOL0     H52374   3.786   6.181   4.482 -1.3074  0.8120 -0.0216
  380MOL0     H52375   4.033   6.172   4.568 -0.8147 -1.7277  1.6838
  380MOL0     H52376   4.050   6.325   4.506 -1.9004  3.6178  0.1500
  380MOL0     H52377   3.816   6.372   4.642 -0.2545 -1.9811 -1.0974
  380MOL0     H52378   3.860   6.235   4.725 -1.5005 -0.1142 -1.7831
  380MOL0     H52379   4.079   6.343   4.804 -0.3689 -0.2849  1.9238
  380MOL0     H52380   4.051   6.480   4.696  1.6473 -2.2022 -1.0716
  380MOL0     H52381   3.886   6.425   4.947  1.1789 -0.8559 -0.0867
  380MOL0     H52382   3.827   6.533   4.834  2.5931  2.3082 -1.6349
  380MOL0     H52383   4.098   6.551   4.981  0.3064  3.0021  3.4298
  380MOL0     H52384   4.053   6.663   4.852 -2.2447  2.4234 -0.1226
  380MOL0     H52385   4.012   6.697   5.110  0.7870 -0.9055  1.1497
  380MOL0     H52386   3.856   6.630   5.082  2.1066 -0.3899  2.4392
  380MOL0     H52387   3.807   6.848   5.037 -0.7426 -1.6012  0.0247
  380MOL0     H52388   3.966   6.908   5.003 -1.1220 -0.2255  1.1843
  380MOL0     H52389   3.708   6.763   4.786  0.6649  0.3523  0.6431
  380MOL0     H52390   3.717   6.712   4.481 -1.6238  0.1467  0.9679
  380MOL0     H52391   3.835   6.817   4.409 -1.4514 -2.6227 -1.7493
  380MOL0     H52392   3.624   6.948   4.565  1.0379  0.4751  0.4922
  380MOL0     H52393   3.747   7.014   4.441 -0.0821  0.1468 -3.8109
  380MOL0     H52394   3.524   7.015   4.344  0.9574  1.1200  1.1071
  380MOL0     H52395   3.606   6.882   4.261  0.1534 -4.3175  0.9308
  380MOL0     H52396   3.438   6.837   4.507 -2.2957 -0.1757  0.6615
  380MOL0     H52397   3.356   6.888   4.361 -1.9529 -2.8945  0.2622
  380MOL0     H52398   3.521   6.673   4.614  4.6403 -0.9985  0.3982
  380MOL0     H52399   3.483   6.542   4.807  2.8764  0.1474  0.6819
  380MOL0     H52400   3.634   6.466   4.785  0.0914 -3.0453  1.9944
  380MOL0     H52401   3.487   6.367   4.802  0.6327 -1.0411 -2.1142
  380MOL0     H52402   3.466   5.911   4.312 -1.4313 -0.7765  0.3927
  380MOL0     H52403   3.563   5.692   4.308  0.3868  2.0584 -0.7554
  380MOL0     H52404   3.929   5.663   4.425 -0.1718  0.6524 -0.2127
  380MOL0     H52405   3.900   5.576   4.584 -1.1790 -0.2561 -0.0798
  380MOL0     H52406   3.879   5.365   4.443 -1.3011  1.3027  1.2174
  380MOL0     H52407   3.909   5.454   4.304 -0.7768 -0.4852 -0.3387
  380MOL0     H52408   4.105   5.408   4.536  0.0327  2.6172  1.3099
  380MOL0     H52409   4.146   5.521   4.412  1.3153 -0.7313 -0.2137
  380MOL0     H52410   4.136   5.353   4.228  1.1142  1.7972  1.1857
  380MOL0     H52411   4.039   5.243   4.328 -0.3970 -0.8388  0.4631
  380MOL0     H52412   4.337   5.336   4.389  0.8573 -0.0833 -0.5753
  380MOL0     H52413   4.261   5.203   4.475  0.0071  2.4064  1.3560
  380MOL0     H52414   4.421   5.112   4.310 -0.3758  1.8471  0.9131
  380MOL0     H52415   4.316   5.184   4.183 -0.0764  0.2510  0.1547
  380MOL0     H52416   4.195   5.024   4.170 -0.0932  0.0729 -0.0395
  380MOL0     H52417   4.135   5.057   4.334  0.8982  0.1178  0.0954
  380MOL0     H52418   4.248   4.899   4.441 -5.5557  0.4441 -1.0924
  380MOL0     H52419   4.369   4.879   4.305  1.3419  1.5875  0.9908
  380MOL0     H52420   3.823   5.783   4.635 -0.6818 -1.0814 -1.1280
  380MOL0     H52421   3.715   5.994   4.653 -3.0204  1.3620  0.4110
  380MOL0     H52422   3.443   6.271   4.338  3.1386 -0.5946 -0.4626
  380MOL0     H52423   3.418   6.486   4.233  1.0239  1.2950 -0.0768
  380MOL0     H52424   3.866   6.554   4.239  4.0393 -2.8931  2.5922
  380MOL0     H52425   3.805   6.583   4.002 -1.4009  0.8591  1.3106
  380MOL0     H52426   4.039   6.492   3.584  0.3893 -2.0128  2.5838
  380MOL0     H52427   4.062   6.466   3.325  0.5500 -1.9240 -0.6031
  380MOL0     H52428   3.816   6.182   3.094 -2.2131 -0.4035  0.5001
  380MOL0     H52429   3.682   6.299   3.142  0.1268  3.0361 -1.0812
  380MOL0     H52430   3.752   6.455   2.966 -1.4721 -1.0050 -3.1022
  380MOL0     H52431   3.730   6.296   2.895  0.5025 -0.3054 -1.1827
  380MOL0     H52432   3.896   6.431   2.795 -1.7658 -1.0419 -0.2364
  380MOL0     H52433   3.988   6.447   2.938 -0.5114  1.3577  0.4139
  380MOL0     H52434   3.962   6.195   2.761  1.2280 -0.4519 -0.4761
  380MOL0     H52435   4.032   6.181   2.925 -1.1300  1.1680  1.3295
  380MOL0     H52436   4.346   6.374   2.772  0.3479  0.3675  0.3189
  380MOL0     H52437   3.751   6.195   3.336  2.3059 -1.0960 -0.1505
  380MOL0     H52438   3.745   6.100   3.644 -0.2659  0.4722  0.4590
  380MOL0     H52439   3.635   6.234   3.682 -3.8463 -1.8525 -0.9281
  380MOL0     H52440   3.613   6.146   3.533 -0.6530 -0.4540  0.0179
  381MOL0     O52441   1.124   1.189   3.993 -0.4530  0.0924  0.0593
  381MOL0     C52442   1.084   1.302   4.023  0.1935  0.1241  0.3201
  381MOL0     O52443   0.976   1.368   3.961  0.1055 -0.3726 -0.1371
  381MOL0     C52444   0.933   1.320   3.839 -1.5094 -0.7226 -0.6676
  381MOL0     C52445   0.804   1.254   3.846  0.5716  0.1145 -0.0684
  381MOL0     C52446   0.757   1.188   3.736 -0.2345 -0.5375 -0.1246
  381MOL0     C52447   0.829   1.182   3.622  0.1554  0.5363  0.6480
  381MOL0     O52448   0.797   1.116   3.507 -0.3789  0.3614  0.1047
  381MOL0     C52449   0.666   1.061   3.496  0.5116 -0.1412 -0.1699
  381MOL0     C52450   0.636   1.031   3.347 -0.1695 -0.4140  0.3968
  381MOL0     C52451   0.484   0.995   3.323 -1.0382  0.8606 -0.5105
  381MOL0     C52452   0.439   0.888   3.421  0.3018  0.0852  0.7958
  381MOL0     C52453   0.304   0.845   3.378 -0.5078  0.7116 -0.3102
  381MOL0     C52454   0.248   0.736   3.473 -0.1714  0.1949  0.6290
  381MOL0     C52455   0.100   0.754   3.486 -0.1905  0.3497 -0.1271
  381MOL0     C52456   0.036   0.640   3.588  1.0553 -0.2041  0.1902
  381MOL0     N52457   0.024   0.502   3.537  1.1445 -0.3709  0.1003
  381MOL0     C52458   0.099   0.388   3.578 -0.4730 -1.5209  0.2790
  381MOL0     C52459   0.049   0.289   3.502  0.3807  0.3526 -1.2004
  381MOL0     C52460   0.081   0.143   3.531 -0.3094  0.2423 -0.4009
  381MOL0     C52461   0.061   0.058   3.411 -0.1634 -0.1872 -0.0996
  381MOL0     C52462   0.070  -0.096   3.444  0.3250 -0.4095  0.7660
  381MOL0     C52463  -0.023  -0.137   3.554 -0.8893 -0.6371  0.0921
  381MOL0     O52464  -0.153  -0.083   3.524 -0.4913  0.2081 -0.6039
  381MOL0     C52465  -0.253  -0.088   3.624 -0.3298 -0.5442 -0.2506
  381MOL0     C52466  -0.286  -0.208   3.692 -1.2702 -0.8504  0.8093
  381MOL0     C52467  -0.392  -0.219   3.787  0.3769  0.3674 -0.0792
  381MOL0     C52468  -0.417  -0.357   3.852  0.0573 -0.2498  0.5750
  381MOL0     C52469  -0.464  -0.098   3.814  0.7112 -0.7368  0.3992
  381MOL0     C52470  -0.574  -0.083   3.903  0.2981 -0.1279 -0.0691
  381MOL0     O52471  -0.663   0.025   3.892 -0.1150  0.1752  0.4338
  381MOL0     C52472  -0.743   0.050   3.995 -0.3227  1.2160 -0.5788
  381MOL0     C52473  -0.681   0.099   4.109 -0.0879  0.1003 -1.4169
  381MOL0     C52474  -0.754   0.140   4.224  0.5706 -0.7621 -0.4343
  381MOL0     C52475  -0.897   0.119   4.225 -0.1292  0.6025  0.1270
  381MOL0     O52476  -0.970   0.165   4.334 -0.6044  0.2928 -0.6544
  381MOL0     C52477  -0.933   0.296   4.376  0.5538  0.7939 -0.0753
  381MOL0     C52478  -1.058   0.344   4.444 -0.9975  0.3896 -0.0445
  381MOL0     C52479  -1.045   0.308   4.601 -0.2049  0.7921 -0.2744
  381MOL0     C52480  -1.165   0.357   4.681 -0.4063 -1.1476  0.5209
  381MOL0     C52481  -1.154   0.516   4.694  0.2333 -0.1123 -0.7611
  381MOL0     C52482  -1.255   0.566   4.790  0.0054 -1.2647  1.5233
  381MOL0     C52483  -1.249   0.721   4.789  0.3672 -0.1862  1.1665
  381MOL0     C52484  -1.308   0.784   4.923 -0.1143  0.6750  0.3536
  381MOL0    Cl52485  -1.200   0.753   5.059  0.0610  0.4373 -0.4478
  381MOL0     C52486  -0.961   0.068   4.113 -0.1928 -0.1676  1.2476
  381MOL0     C52487  -0.884   0.031   3.999 -0.8414 -0.4622  0.9343
  381MOL0     O52488  -0.581  -0.167   3.992 -0.0070  0.1426  0.0601
  381MOL0     C52489  -0.428   0.020   3.747  0.1468  0.3165  0.0592
  381MOL0     C52490  -0.329   0.031   3.649  0.4099 -0.3557  0.5267
  381MOL0     N52491  -0.055   0.325   3.431  0.9813 -1.2791  0.1411
  381MOL0     N52492  -0.066   0.457   3.447  0.2589  0.0113 -0.0652
  381MOL0     C52493   0.947   1.262   3.610 -0.2697  1.1191 -0.6159
  381MOL0     C52494   1.001   1.326   3.716 -0.1858  0.4606 -0.6063
  381MOL0     C52495   1.123   1.361   4.152 -0.5005 -0.3952 -0.3023
  381MOL0     C52496   1.015   1.412   4.231  0.7257  0.0020  0.0232
  381MOL0     C52497   1.042   1.490   4.343  0.2976 -0.3420  0.9229
  381MOL0     C52498   1.175   1.504   4.381  0.8481  0.8167  0.6656
  381MOL0     O52499   1.204   1.593   4.480 -0.6510  0.5158  0.6571
  381MOL0     C52500   1.207   1.544   4.617  0.8120 -0.3774 -0.0288
  381MOL0     C52501   1.297   1.427   4.651  0.2375  0.1763  0.1495
  381MOL0     C52502   1.294   1.401   4.803  0.0367 -0.5488 -0.5426
  381MOL0     C52503   1.193   1.287   4.837 -0.9685 -1.1276 -0.3528
  381MOL0     C52504   1.065   1.349   4.850 -0.3587 -0.1283 -0.3799
  381MOL0     C52505   0.954   1.398   4.872  0.3123  0.0730  0.0613
  381MOL0     C52506   1.276   1.447   4.310  0.0841  0.0983  1.3895
  381MOL0     C52507   1.255   1.376   4.189  0.2675  0.0169  0.3114
  381MOL0     C52508   1.375   1.338   4.109 -0.1432 -0.9577  0.2275
  381MOL0     H52509   0.737   1.267   3.930 -1.7387  1.0251 -1.9262
  381MOL0     H52510   0.659   1.141   3.740 -1.2561  1.4135 -0.9370
  381MOL0     H52511   0.589   1.131   3.528 -0.5338  0.2650 -3.2724
  381MOL0     H52512   0.668   0.964   3.547  1.2364  0.8761  1.8438
  381MOL0     H52513   0.669   1.116   3.286  1.4554  0.9392  3.0083
  381MOL0     H52514   0.686   0.938   3.318  0.8041 -0.6786  2.6978
  381MOL0     H52515   0.423   1.085   3.321  2.1709  3.2174 -0.2402
  381MOL0     H52516   0.474   0.947   3.225 -0.5443 -2.3688  0.8817
  381MOL0     H52517   0.506   0.803   3.403  0.6981  0.3657  0.9437
  381MOL0     H52518   0.437   0.928   3.523  0.1291 -1.2958  1.3605
  381MOL0     H52519   0.311   0.818   3.272  1.2704  2.2984 -0.6583
  381MOL0     H52520   0.234   0.927   3.396 -2.8267 -1.4756  1.4209
  381MOL0     H52521   0.268   0.634   3.437 -1.5840 -1.1844  3.4640
  381MOL0     H52522   0.284   0.737   3.576 -0.5165  1.2173  0.7526
  381MOL0     H52523   0.056   0.765   3.387  2.1482  3.0553 -0.9894
  381MOL0     H52524   0.087   0.855   3.526 -0.0488 -0.6856  2.7838
  381MOL0     H52525   0.100   0.629   3.675 -0.1873 -0.2111  1.1277
  381MOL0     H52526  -0.063   0.668   3.626  0.3088 -1.9100 -0.4159
  381MOL0     H52527   0.172   0.375   3.658  0.5588 -2.9558 -0.8498
  381MOL0     H52528   0.019   0.124   3.620  0.7349  1.0348  0.5341
  381MOL0     H52529   0.189   0.143   3.551 -0.1961  0.8154 -0.9704
  381MOL0     H52530  -0.034   0.058   3.357  1.4793  1.1197 -3.2391
  381MOL0     H52531   0.143   0.085   3.344  1.1323  1.4639  2.0420
  381MOL0     H52532   0.044  -0.157   3.356 -1.6795 -2.4831  2.6744
  381MOL0     H52533   0.174  -0.111   3.474  0.9987  1.8666 -0.1457
  381MOL0     H52534  -0.026  -0.245   3.568  0.3753 -0.4748  1.9794
  381MOL0     H52535   0.021  -0.098   3.647  0.9091 -1.5363 -0.3407
  381MOL0     H52536  -0.232  -0.296   3.657 -1.9531 -0.9444 -0.0434
  381MOL0     H52537  -0.323  -0.413   3.843 -0.2560 -0.9243  1.4048
  381MOL0     H52538  -0.483  -0.407   3.781  1.6720 -1.2484 -0.2896
  381MOL0     H52539  -0.454  -0.365   3.955  2.5867  0.0397  1.5762
  381MOL0     H52540  -0.573   0.090   4.113 -0.0609  0.7929  0.2060
  381MOL0     H52541  -0.710   0.177   4.316  0.0353  0.3287 -0.6060
  381MOL0     H52542  -0.850   0.287   4.446 -1.1744 -1.2260  1.8867
  381MOL0     H52543  -0.920   0.363   4.291  1.9935 -1.1999 -1.5507
  381MOL0     H52544  -1.060   0.452   4.430  1.3450  0.2603 -2.0267
  381MOL0     H52545  -1.153   0.309   4.403 -1.2770  0.7381  0.2876
  381MOL0     H52546  -0.950   0.353   4.633 -0.7930  0.9464  1.3526
  381MOL0     H52547  -1.042   0.200   4.616  0.4087  0.7162 -0.8803
  381MOL0     H52548  -1.168   0.316   4.782  0.3807 -0.7901  0.6899
  381MOL0     H52549  -1.258   0.324   4.632 -1.2246 -1.1089  1.9978
  381MOL0     H52550  -1.058   0.544   4.738 -0.3916  0.7492  0.1091
  381MOL0     H52551  -1.164   0.559   4.594 -1.5464 -3.2608 -2.0913
  381MOL0     H52552  -1.251   0.546   4.897  0.5577  1.4347  2.0852
  381MOL0     H52553  -1.354   0.533   4.758 -0.0152  0.7005 -0.6405
  381MOL0     H52554  -1.289   0.763   4.697  2.3470 -1.0876 -0.1827
  381MOL0     H52555  -1.144   0.753   4.790  0.0714  0.9864 -0.7273
  381MOL0     H52556  -1.406   0.740   4.943  0.7679 -3.0255 -2.4666
  381MOL0     H52557  -1.327   0.891   4.915 -3.2701  0.6533  4.4103
  381MOL0     H52558  -1.069   0.055   4.106  0.0529 -1.8563 -0.4363
  381MOL0     H52559  -0.933  -0.004   3.909  2.0079  0.7605 -1.2518
  381MOL0     H52560  -0.483   0.112   3.762 -0.1414 -0.1352  1.9484
  381MOL0     H52561  -0.308   0.126   3.599 -1.1196 -0.1850  0.1713
  381MOL0     H52562   0.991   1.270   3.511  0.2433 -0.0003 -0.4900
  381MOL0     H52563   1.100   1.368   3.700  0.7021 -1.2007  0.2866
  381MOL0     H52564   0.913   1.397   4.196  0.8454  1.4019 -1.0480
  381MOL0     H52565   0.972   1.556   4.393 -0.8620  0.3823 -1.5104
  381MOL0     H52566   1.227   1.631   4.680  3.1468 -0.8263 -0.0553
  381MOL0     H52567   1.102   1.516   4.624 -0.0406  2.2232 -1.2581
  381MOL0     H52568   1.401   1.439   4.621 -0.0523 -0.6476 -1.2536
  381MOL0     H52569   1.265   1.346   4.585 -0.3890  1.5579 -1.3090
  381MOL0     H52570   1.398   1.373   4.821  0.1597  0.2732  0.0514
  381MOL0     H52571   1.276   1.490   4.864  1.3487 -0.8518  0.3068
  381MOL0     H52572   1.228   1.254   4.935 -0.8350 -0.6352 -0.2320
  381MOL0     H52573   1.208   1.213   4.758 -0.6079 -0.8608 -0.5369
  381MOL0     H52574   0.857   1.435   4.846 -0.8841 -1.6863  1.7786
  381MOL0     H52575   1.381   1.459   4.336  0.8832  2.5389 -2.1316
  381MOL0     H52576   1.377   1.383   4.009  1.2652  1.8820  1.4399
  381MOL0     H52577   1.473   1.371   4.145 -0.1790  0.9601 -1.3117
  381MOL0     H52578   1.370   1.229   4.105 -2.3428 -0.9011  0.0971
  382MOL0     O52579   9.627   6.298   9.962  0.3544  0.1552  0.4696
  382MOL0     C52580   9.748   6.294   9.948 -0.9475  0.7302  0.4150
  382MOL0     O52581   9.815   6.290   9.828 -0.0302  0.1153  0.3464
  382MOL0     C52582   9.744   6.288   9.713  0.7344 -0.4237 -0.5569
  382MOL0     C52583   9.685   6.403   9.664  0.0609  0.0543  1.2253
  382MOL0     C52584   9.628   6.400   9.538  0.2185  0.0152  1.0782
  382MOL0     C52585   9.631   6.281   9.457 -0.6934 -0.4323  0.1174
  382MOL0     O52586   9.584   6.270   9.329 -0.2891  0.0420 -0.1774
  382MOL0     C52587   9.502   6.385   9.284  0.2472 -0.7766  0.4021
  382MOL0     C52588   9.434   6.346   9.147 -1.2165  0.7276 -0.1299
  382MOL0     C52589   9.388   6.199   9.158 -0.1417  0.7589 -0.0915
  382MOL0     C52590   9.262   6.180   9.062 -0.2842 -0.4770 -0.4976
  382MOL0     C52591   9.135   6.222   9.125  0.6920  0.1874 -0.1474
  382MOL0     C52592   9.021   6.196   9.030 -0.1189 -0.2191 -0.5570
  382MOL0     C52593   9.005   6.315   8.926  0.3019 -0.5561 -0.5400
  382MOL0     C52594   8.883   6.304   8.830 -0.5270 -0.8867  0.0382
  382MOL0     N52595   8.870   6.178   8.766 -0.2080  0.4788 -0.3448
  382MOL0     C52596   8.940   6.137   8.655  0.3761 -0.8875 -0.4021
  382MOL0     C52597   8.907   6.008   8.643  1.4299 -0.4661  0.7626
  382MOL0     C52598   8.949   5.918   8.531  1.4374 -0.4205  0.0612
  382MOL0     C52599   9.104   5.901   8.517  0.1602  0.0406 -1.1500
  382MOL0     C52600   9.156   5.822   8.644 -0.8337 -0.1446  0.4150
  382MOL0     C52601   9.306   5.820   8.646 -0.2755 -1.7817 -0.3829
  382MOL0     O52602   9.359   5.719   8.735  0.1852  0.8033 -0.8921
  382MOL0     C52603   9.392   5.601   8.673  0.1710  0.3682  0.2962
  382MOL0     C52604   9.317   5.536   8.568  0.9048  0.6678 -0.7364
  382MOL0     C52605   9.350   5.422   8.501  0.2768 -0.6048 -0.1447
  382MOL0     C52606   9.256   5.373   8.403 -0.7764 -0.6013  1.1493
  382MOL0     C52607   9.454   5.351   8.555  0.0913 -0.2045  0.3398
  382MOL0     C52608   9.505   5.220   8.493 -0.5822  0.1068 -0.6311
  382MOL0     O52609   9.415   5.121   8.468 -0.2795 -0.0052  0.7936
  382MOL0     C52610   9.454   4.994   8.443  0.8660  0.2149  0.5257
  382MOL0     C52611   9.400   4.879   8.509 -0.2368 -0.7429 -0.9651
  382MOL0     C52612   9.434   4.753   8.467 -0.0528  0.5484  0.5042
  382MOL0     C52613   9.506   4.728   8.353  0.6519 -0.7921 -0.6752
  382MOL0     O52614   9.543   4.604   8.304 -0.1041  0.8000 -0.3061
  382MOL0     C52615   9.444   4.495   8.333  0.0641  0.0910  0.3282
  382MOL0     C52616   9.511   4.360   8.295  0.8056 -0.1715  0.0747
  382MOL0     C52617   9.602   4.299   8.410 -0.0758  0.1346 -0.2155
  382MOL0     C52618   9.607   4.144   8.384 -0.2325  0.4641  1.0038
  382MOL0     C52619   9.704   4.074   8.483  0.0515 -0.1059  0.6591
  382MOL0     C52620   9.632   4.019   8.602 -0.4541  0.1062 -1.7398
  382MOL0     C52621   9.715   3.935   8.706  1.5380 -0.3506  0.6354
  382MOL0     C52622   9.768   3.805   8.637 -0.4633 -0.7008 -0.3966
  382MOL0    Cl52623   9.655   3.674   8.601 -0.2625 -0.4798 -0.0036
  382MOL0     C52624   9.560   4.843   8.284  0.5483  1.2416 -0.3704
  382MOL0     C52625   9.536   4.977   8.324 -0.2402 -0.6678 -0.7497
  382MOL0     O52626   9.629   5.204   8.491 -0.2562 -1.0101  0.3072
  382MOL0     C52627   9.528   5.406   8.660  1.2814 -0.1213 -0.4334
  382MOL0     C52628   9.494   5.532   8.718  0.0973 -0.0238  0.3801
  382MOL0     N52629   8.831   5.965   8.749  0.7890 -0.4880  0.1455
  382MOL0     N52630   8.814   6.068   8.823 -0.3637 -0.6749 -0.8485
  382MOL0     C52631   9.697   6.169   9.508 -0.8357 -0.5464 -1.1020
  382MOL0     C52632   9.741   6.167   9.637  0.0186 -0.8143 -0.1258
  382MOL0     C52633   9.832   6.286  10.073  0.5215 -0.3686  0.1234
  382MOL0     C52634   9.929   6.385  10.080  0.1417  0.6560 -0.3272
  382MOL0     C52635  10.004   6.403  10.196 -0.4063 -0.4855 -0.7356
  382MOL0     C52636  10.005   6.306  10.295  1.9489 -1.0416  0.1952
  382MOL0     O52637  10.082   6.304  10.405 -0.6409 -0.5780 -0.1484
  382MOL0     C52638  10.156   6.419  10.455  0.8061 -0.5220  0.4258
  382MOL0     C52639  10.221   6.386  10.597 -0.0903  1.1397  1.9114
  382MOL0     C52640  10.287   6.244  10.618  0.1635 -1.0995  0.6610
  382MOL0     C52641  10.395   6.195  10.527 -1.2457 -0.2699 -0.1878
  382MOL0     C52642  10.459   6.081  10.588 -0.5412  0.1090  0.8961
  382MOL0     C52643  10.499   5.979  10.635 -0.3249 -0.1662 -0.0501
  382MOL0     C52644   9.903   6.205  10.293  0.5040  0.8367 -0.2828
  382MOL0     C52645   9.821   6.190  10.174  0.6934 -0.6586 -1.1698
  382MOL0     C52646   9.732   6.074  10.175  0.5085 -0.1538 -0.8434
  382MOL0     H52647   9.670   6.493   9.722 -1.3893  0.0459  0.9061
  382MOL0     H52648   9.566   6.483   9.504  0.3238 -0.1440  0.4817
  382MOL0     H52649   9.570   6.470   9.271 -0.0944 -0.8349 -2.2814
  382MOL0     H52650   9.422   6.399   9.357  1.1142 -1.1236  1.4586
  382MOL0     H52651   9.362   6.423   9.117  0.6543  1.2448 -3.8355
  382MOL0     H52652   9.520   6.342   9.080  0.3115  1.3275  1.7001
  382MOL0     H52653   9.451   6.124   9.111 -0.8244  1.2648 -1.8938
  382MOL0     H52654   9.363   6.169   9.260  1.3527  0.1172  0.1089
  382MOL0     H52655   9.293   6.215   8.963  2.3136 -0.5045  0.2152
  382MOL0     H52656   9.256   6.072   9.044 -2.3359 -0.3327 -0.9614
  382MOL0     H52657   9.139   6.324   9.164  2.0887 -0.0880  0.4719
  382MOL0     H52658   9.117   6.158   9.212 -1.7196  2.9054  1.5530
  382MOL0     H52659   9.044   6.112   8.964  2.3217  0.5513 -0.8219
  382MOL0     H52660   8.931   6.181   9.090 -2.7736  3.2006 -3.3081
  382MOL0     H52661   9.096   6.302   8.867 -0.3237 -3.2789 -1.0224
  382MOL0     H52662   8.993   6.411   8.978 -1.6095 -2.2692  2.4179
  382MOL0     H52663   8.788   6.315   8.883  1.1177  0.0192  3.0169
  382MOL0     H52664   8.899   6.364   8.739  2.2456  1.3595  1.8280
  382MOL0     H52665   8.994   6.198   8.583 -1.8220 -0.9993 -2.2957
  382MOL0     H52666   8.901   5.964   8.444 -0.5403 -0.7106  0.9396
  382MOL0     H52667   8.906   5.819   8.549 -0.3395  0.2007 -0.5948
  382MOL0     H52668   9.125   5.831   8.435 -2.1987 -2.4332  0.2073
  382MOL0     H52669   9.148   6.001   8.512  0.2494  0.3216  2.5522
  382MOL0     H52670   9.133   5.874   8.737 -0.3652  1.6653 -0.4249
  382MOL0     H52671   9.112   5.723   8.657  0.1066 -0.4023  1.9285
  382MOL0     H52672   9.343   5.794   8.546 -1.3856 -1.2490 -0.9543
  382MOL0     H52673   9.331   5.923   8.671 -0.4212 -1.5672 -1.0957
  382MOL0     H52674   9.228   5.592   8.543  1.2441  0.8648 -1.5194
  382MOL0     H52675   9.293   5.291   8.340 -0.9212 -0.0359  0.3120
  382MOL0     H52676   9.245   5.456   8.333 -0.7866 -2.5971 -1.3976
  382MOL0     H52677   9.162   5.341   8.449 -3.4537  2.6013 -1.6039
  382MOL0     H52678   9.330   4.905   8.588 -0.4435  2.5025 -2.1010
  382MOL0     H52679   9.390   4.672   8.524 -0.2537 -0.6195 -1.2438
  382MOL0     H52680   9.405   4.495   8.435 -1.6563  1.7421 -0.2916
  382MOL0     H52681   9.359   4.498   8.265 -0.2230  0.0533  0.6856
  382MOL0     H52682   9.430   4.297   8.256  0.7491  0.9791 -1.7564
  382MOL0     H52683   9.575   4.387   8.211  1.4369  0.3519  0.7168
  382MOL0     H52684   9.551   4.335   8.500 -2.1425  1.8813 -1.9744
  382MOL0     H52685   9.705   4.336   8.405 -0.2905  0.9168  0.7623
  382MOL0     H52686   9.652   4.130   8.285 -0.2510  2.3524  0.6932
  382MOL0     H52687   9.510   4.094   8.388  0.0508 -0.1898  0.0923
  382MOL0     H52688   9.744   3.994   8.420 -0.2844  1.0462 -1.0962
  382MOL0     H52689   9.784   4.139   8.521 -0.5733 -0.6613  3.0366
  382MOL0     H52690   9.544   3.959   8.578 -1.5767  0.5492  0.9023
  382MOL0     H52691   9.583   4.104   8.651  1.7182  1.4798 -1.8018
  382MOL0     H52692   9.647   3.907   8.786 -0.8231 -0.6703 -1.3399
  382MOL0     H52693   9.795   4.000   8.743  0.1298  2.4658 -0.9023
  382MOL0     H52694   9.840   3.768   8.710 -0.9437 -0.3513  0.2594
  382MOL0     H52695   9.829   3.829   8.549  0.8363  1.0204  0.9103
  382MOL0     H52696   9.611   4.820   8.191 -1.3790  1.7666 -1.6307
  382MOL0     H52697   9.568   5.064   8.267  0.3323  0.5748  1.3301
  382MOL0     H52698   9.605   5.340   8.698 -0.1501 -1.2578  0.6030
  382MOL0     H52699   9.547   5.584   8.797 -2.1121 -2.1738  3.5463
  382MOL0     H52700   9.723   6.081   9.450  1.8766  0.1204 -1.0578
  382MOL0     H52701   9.800   6.081   9.666  0.4645 -0.5699 -0.3080
  382MOL0     H52702   9.942   6.462  10.005  1.8212 -0.3465 -1.1349
  382MOL0     H52703  10.075   6.485  10.198  1.6844 -2.2419  0.9561
  382MOL0     H52704  10.238   6.438  10.386  2.1100 -1.4496  1.6768
  382MOL0     H52705  10.088   6.505  10.460  0.0290 -1.0235 -1.0668
  382MOL0     H52706  10.149   6.408  10.677 -0.5811  2.9873  1.0197
  382MOL0     H52707  10.302   6.458  10.613  0.0620  1.2271  0.8493
  382MOL0     H52708  10.326   6.252  10.720 -2.2017 -1.4167  1.6598
  382MOL0     H52709  10.209   6.168  10.629  1.2970 -2.5885 -0.9726
  382MOL0     H52710  10.461   6.283  10.522 -1.0120 -0.2299  2.2860
  382MOL0     H52711  10.356   6.170  10.428 -3.0115  0.8319  0.1911
  382MOL0     H52712  10.531   5.881  10.667 -1.1901 -0.5173 -0.2255
  382MOL0     H52713   9.897   6.129  10.370 -1.8939  1.5879  0.3459
  382MOL0     H52714   9.659   6.064  10.256  1.1461  0.1860 -0.2252
  382MOL0     H52715   9.671   6.089  10.085  0.5867 -0.5557 -0.9657
  382MOL0     H52716   9.778   5.975  10.169 -0.1331 -0.5294  0.0782
  383MOL0     O52717   6.354   6.962  10.130  0.5067  0.1607  0.4301
  383MOL0     C52718   6.232   6.967  10.145 -0.3009  0.5153 -0.8458
  383MOL0     O52719   6.145   6.866  10.106 -0.8062  0.2417  0.0225
  383MOL0     C52720   6.189   6.783  10.005 -0.6858  0.0031  0.3939
  383MOL0     C52721   6.261   6.680  10.054 -0.4783  0.1806 -0.2988
  383MOL0     C52722   6.322   6.587   9.974 -0.8161  0.5141  0.4709
  383MOL0     C52723   6.308   6.596   9.835  0.7699 -0.6085 -0.5901
  383MOL0     O52724   6.375   6.506   9.748 -0.4933  0.1665 -0.7960
  383MOL0     C52725   6.311   6.478   9.622 -1.3149  0.4538  0.1983
  383MOL0     C52726   6.397   6.390   9.549 -0.2023  0.6549  0.3002
  383MOL0     C52727   6.443   6.266   9.634  0.1753 -0.6978  0.1780
  383MOL0     C52728   6.358   6.149   9.590 -0.4614 -0.3430 -0.0646
  383MOL0     C52729   6.390   6.015   9.651 -0.1056 -0.3867  0.2305
  383MOL0     C52730   6.331   5.902   9.565 -0.3384  0.1986 -0.9242
  383MOL0     C52731   6.330   5.764   9.639 -0.1076 -1.2155  0.4818
  383MOL0     C52732   6.239   5.662   9.583  0.6966  0.1183 -1.0435
  383MOL0     N52733   6.238   5.545   9.669  0.4966  0.9434 -0.1744
  383MOL0     C52734   6.125   5.514   9.741 -0.1505 -0.3519  0.3661
  383MOL0     C52735   6.133   5.380   9.758  0.1613 -0.3080 -1.2518
  383MOL0     C52736   6.033   5.276   9.815  0.2082 -1.3434  0.5468
  383MOL0     C52737   6.006   5.298   9.967 -0.1403  1.2552  0.5012
  383MOL0     C52738   5.957   5.183  10.042  0.1088 -1.0113 -0.1482
  383MOL0     C52739   5.935   5.226  10.183  0.5477 -0.0363  0.1010
  383MOL0     O52740   5.896   5.105  10.249  1.1051 -0.3855 -0.4386
  383MOL0     C52741   5.960   5.078  10.370  0.9601 -0.2994 -0.3228
  383MOL0     C52742   6.096   5.095  10.393  0.4212 -0.2540 -0.5198
  383MOL0     C52743   6.148   5.072  10.527  0.3984 -0.6287 -0.3591
  383MOL0     C52744   6.285   5.104  10.552  0.5262 -0.4790  0.4009
  383MOL0     C52745   6.070   5.016  10.621  0.4907  0.0519 -1.2837
  383MOL0     C52746   6.115   4.970  10.762  0.7757  0.1602 -0.6157
  383MOL0     O52747   6.094   5.064  10.860  0.2108  1.1183 -0.5235
  383MOL0     C52748   6.099   5.032  10.992 -0.3079  0.5989  0.9079
  383MOL0     C52749   5.979   5.001  11.057  0.5747  0.8625  0.3439
  383MOL0     C52750   5.974   4.994  11.195  0.6259 -0.2020 -0.0774
  383MOL0     C52751   6.100   4.983  11.268 -0.3521 -0.4339  0.4276
  383MOL0     O52752   6.076   4.976  11.400 -0.0604 -0.0248  0.3367
  383MOL0     C52753   6.198   4.949  11.476 -0.7770  0.0924  0.0297
  383MOL0     C52754   6.180   4.952  11.632 -0.0948 -0.3893  0.2614
  383MOL0     C52755   6.308   4.906  11.698  0.0101  0.7224 -0.5468
  383MOL0     C52756   6.396   5.026  11.741 -0.1939 -0.9853  0.1697
  383MOL0     C52757   6.520   4.976  11.801 -0.9265 -0.0962  0.7596
  383MOL0     C52758   6.609   5.089  11.861 -0.3694 -1.0916  0.2651
  383MOL0     C52759   6.753   5.046  11.891 -0.5396 -1.2685 -0.1825
  383MOL0     C52760   6.823   5.151  11.979  1.0804  0.6698  0.3178
  383MOL0    Cl52761   6.888   5.290  11.889  0.4141  0.1938 -0.1159
  383MOL0     C52762   6.222   4.986  11.194  0.5584 -0.5021  0.0664
  383MOL0     C52763   6.217   5.012  11.059  0.0829 -0.0352  0.4393
  383MOL0     O52764   6.166   4.858  10.772 -0.7252  0.3195  0.3012
  383MOL0     C52765   5.931   4.998  10.604  0.3194  0.2729 -0.0074
  383MOL0     C52766   5.878   5.035  10.480 -0.0910 -0.6046  1.2830
  383MOL0     N52767   6.258   5.340   9.720  1.0008  0.3158 -0.8082
  383MOL0     N52768   6.313   5.438   9.649  0.5866  0.4456  0.1926
  383MOL0     C52769   6.234   6.707   9.785 -0.6497  0.5268  0.1566
  383MOL0     C52770   6.168   6.796   9.866  0.7414 -0.2724 -0.5119
  383MOL0     C52771   6.166   7.082  10.228  0.4669  1.1049 -1.0866
  383MOL0     C52772   6.036   7.134  10.196 -1.2719 -0.3170 -0.6697
  383MOL0     C52773   5.974   7.227  10.277  0.0617  1.1187  0.9896
  383MOL0     C52774   6.030   7.254  10.396 -0.3408 -0.9974 -0.3181
  383MOL0     O52775   5.953   7.338  10.480 -0.6269 -0.2075  0.7539
  383MOL0     C52776   6.000   7.361  10.613  0.6432  0.7329 -0.6247
  383MOL0     C52777   5.975   7.227  10.682 -0.6449  0.0628 -0.7049
  383MOL0     C52778   5.836   7.203  10.727 -0.2045 -0.4096 -0.8735
  383MOL0     C52779   5.827   7.088  10.829  0.0154  0.5919 -0.4432
  383MOL0     C52780   5.923   7.078  10.941  0.1805  0.8948  0.5134
  383MOL0     C52781   5.999   7.064  11.034  0.3600 -0.6159 -0.3484
  383MOL0     C52782   6.163   7.214  10.429 -0.4850  1.2748 -0.1358
  383MOL0     C52783   6.234   7.125  10.343 -0.4931 -0.0211 -0.1759
  383MOL0     C52784   6.365   7.073  10.392  0.1319 -0.7823  0.5368
  383MOL0     H52785   6.267   6.665  10.162 -1.1499 -1.3108 -0.4394
  383MOL0     H52786   6.388   6.503   9.994 -2.3041 -0.5220  1.2273
  383MOL0     H52787   6.308   6.570   9.564 -2.0939 -0.7891 -1.8680
  383MOL0     H52788   6.212   6.432   9.633 -0.6641 -1.3494 -0.9022
  383MOL0     H52789   6.343   6.364   9.458 -2.1387  1.0116  1.3084
  383MOL0     H52790   6.489   6.440   9.516  0.1102 -0.6977 -0.9692
  383MOL0     H52791   6.549   6.249   9.611 -0.0858 -1.0768 -0.7839
  383MOL0     H52792   6.442   6.277   9.742 -1.5939 -2.4774  0.3847
  383MOL0     H52793   6.253   6.159   9.620  0.3159  0.4415  2.6453
  383MOL0     H52794   6.365   6.164   9.482 -2.3280  1.3272 -0.0168
  383MOL0     H52795   6.352   6.018   9.754  1.1276  1.3689  0.6891
  383MOL0     H52796   6.498   5.998   9.662  0.0135 -0.0548 -0.3901
  383MOL0     H52797   6.228   5.922   9.534 -0.9476 -2.1633 -0.5637
  383MOL0     H52798   6.393   5.885   9.477  0.5203 -4.9454  0.3823
  383MOL0     H52799   6.298   5.783   9.742  0.6883  2.0504  0.2134
  383MOL0     H52800   6.432   5.725   9.651 -0.3129 -1.3410  2.1459
  383MOL0     H52801   6.142   5.712   9.584  1.1634  1.1442  1.7996
  383MOL0     H52802   6.264   5.631   9.481 -0.1555 -0.4161 -1.1031
  383MOL0     H52803   6.045   5.586   9.754 -0.5453 -0.5866 -0.6412
  383MOL0     H52804   6.065   5.172   9.803 -1.2564 -1.8718  0.9947
  383MOL0     H52805   5.942   5.281   9.754  0.0494 -1.5485  0.7663
  383MOL0     H52806   6.101   5.329  10.013 -0.8589  0.0897  2.9475
  383MOL0     H52807   5.941   5.385   9.978  0.6192  2.0688 -1.1271
  383MOL0     H52808   5.861   5.151  10.001 -0.6832  0.6533  0.3297
  383MOL0     H52809   6.027   5.100  10.028 -0.1772 -0.7750 -4.6096
  383MOL0     H52810   6.019   5.274  10.234  0.7804 -1.7035  1.3397
  383MOL0     H52811   5.860   5.306  10.187  2.5942  1.9404  1.1677
  383MOL0     H52812   6.176   5.125  10.326  0.8052 -1.7754 -0.7824
  383MOL0     H52813   6.342   5.035  10.615  2.8577  0.0409 -0.9924
  383MOL0     H52814   6.293   5.200  10.603  1.1425  0.4918 -1.4108
  383MOL0     H52815   6.341   5.114  10.459 -1.2442 -1.2914 -0.8095
  383MOL0     H52816   5.891   4.990  10.994 -0.1325 -2.4281  1.6826
  383MOL0     H52817   5.878   5.001  11.245  0.8614 -1.9237  0.6673
  383MOL0     H52818   6.254   4.860  11.444 -0.8906 -1.5700  3.9837
  383MOL0     H52819   6.266   5.031  11.452  1.1584 -1.0954  1.1403
  383MOL0     H52820   6.141   5.048  11.666 -1.9588 -0.5427 -1.2606
  383MOL0     H52821   6.097   4.891  11.669 -2.0900  0.8189 -1.9035
  383MOL0     H52822   6.371   4.840  11.639 -0.9813 -0.5909 -0.1755
  383MOL0     H52823   6.283   4.848  11.787 -0.2551 -1.4722 -1.9836
  383MOL0     H52824   6.339   5.106  11.789 -0.0189  1.5007 -3.3752
  383MOL0     H52825   6.437   5.063  11.646  4.1264 -0.1827  2.1047
  383MOL0     H52826   6.490   4.904  11.878 -0.3185 -2.3555 -0.9708
  383MOL0     H52827   6.574   4.928  11.719 -3.2073 -1.6072  0.0186
  383MOL0     H52828   6.563   5.118  11.956 -1.5320 -1.3294 -0.2147
  383MOL0     H52829   6.623   5.172  11.791  1.9519  0.3830  2.3061
  383MOL0     H52830   6.814   5.032  11.802 -0.7277  1.9813 -0.9098
  383MOL0     H52831   6.751   4.959  11.959 -1.0720  0.3420  1.9794
  383MOL0     H52832   6.911   5.091  12.004 -0.0867 -1.6554 -0.8881
  383MOL0     H52833   6.761   5.172  12.068 -0.7538 -1.6528 -0.3158
  383MOL0     H52834   6.321   4.969  11.234  0.2013  0.9436  1.6708
  383MOL0     H52835   6.314   5.015  11.010  1.0374  0.9704  2.2936
  383MOL0     H52836   5.876   4.958  10.688  3.4059  0.8778  2.4865
  383MOL0     H52837   5.770   5.033  10.467  0.2547 -1.4277 -2.9769
  383MOL0     H52838   6.239   6.725   9.678  1.4018  1.5404  0.3652
  383MOL0     H52839   6.110   6.871   9.813  0.2226 -1.4140 -1.6104
  383MOL0     H52840   5.983   7.099  10.108 -0.2432 -0.2275 -1.3425
  383MOL0     H52841   5.871   7.260  10.267 -0.6686 -1.3700 -0.7708
  383MOL0     H52842   6.103   7.397  10.614  0.6181  1.5316 -4.8937
  383MOL0     H52843   5.931   7.422  10.671  1.0434  0.9107 -0.3328
  383MOL0     H52844   6.039   7.231  10.771 -1.2892 -0.1256 -0.2306
  383MOL0     H52845   6.003   7.136  10.628 -3.3212  1.2906 -4.5654
  383MOL0     H52846   5.793   7.289  10.780 -1.4241 -2.8381  2.3899
  383MOL0     H52847   5.772   7.171  10.644  2.4557 -1.4205 -2.6809
  383MOL0     H52848   5.844   6.997  10.771 -3.6065 -1.3628  1.2293
  383MOL0     H52849   5.734   7.073  10.885  1.0871 -1.3239  0.9303
  383MOL0     H52850   6.072   7.062  11.113 -0.2842  1.2702  0.3464
  383MOL0     H52851   6.213   7.245  10.520  1.1596 -1.8045  0.1531
  383MOL0     H52852   6.442   7.110  10.324  1.9243 -2.0732  1.7909
  383MOL0     H52853   6.388   7.102  10.495 -3.8934  2.4064  0.7913
  383MOL0     H52854   6.360   6.964  10.389 -0.6313 -1.0021  4.2148
  384MOL0     O52855   1.572   1.155   5.162  0.2101 -0.0189 -0.2631
  384MOL0     C52856   1.596   1.048   5.217 -0.2934  0.6696  0.0194
  384MOL0     O52857   1.605   0.928   5.153  0.3055 -0.1525 -0.0414
  384MOL0     C52858   1.539   0.919   5.029 -0.4331  0.5094 -1.0253
  384MOL0     C52859   1.624   0.927   4.922  0.2608  0.2829  0.4234
  384MOL0     C52860   1.573   0.933   4.794 -0.1497  0.2627  0.0988
  384MOL0     C52861   1.440   0.900   4.771 -0.2224 -1.2089 -0.6926
  384MOL0     O52862   1.406   0.888   4.640  0.5791 -0.0584  0.1820
  384MOL0     C52863   1.293   0.960   4.598 -1.0223 -0.5869 -0.2672
  384MOL0     C52864   1.267   0.949   4.441 -0.4464  0.2444 -0.2553
  384MOL0     C52865   1.116   0.963   4.413 -0.1029 -0.6422  0.1571
  384MOL0     C52866   1.082   0.969   4.268 -0.6510 -0.1197  0.2322
  384MOL0     C52867   0.938   0.943   4.238 -0.2060  0.1194 -0.1492
  384MOL0     C52868   0.910   0.959   4.100 -0.6904 -0.1222  0.7488
  384MOL0     C52869   0.770   0.901   4.061  0.5034  0.9643 -0.1512
  384MOL0     C52870   0.653   0.996   4.106  0.0125  0.1177  0.0728
  384MOL0     N52871   0.528   0.986   4.024  0.5759 -0.2617 -0.4408
  384MOL0     C52872   0.400   0.976   4.066  0.6725 -0.2059 -0.4208
  384MOL0     C52873   0.320   0.999   3.959  0.5851  0.3550  0.3413
  384MOL0     C52874   0.169   1.005   3.946 -0.3747  0.0393  0.3378
  384MOL0     C52875   0.113   0.853   3.930  0.3226 -0.3814 -0.7656
  384MOL0     C52876  -0.035   0.851   3.968  0.3301 -0.7403 -1.1122
  384MOL0     C52877  -0.115   0.726   3.918  0.2417  0.3341  0.4433
  384MOL0     O52878  -0.068   0.599   3.971 -0.7516 -0.3574 -0.5966
  384MOL0     C52879  -0.083   0.565   4.104  1.1787  0.5289  0.0547
  384MOL0     C52880  -0.002   0.471   4.146 -0.4624  0.6416  0.4257
  384MOL0     C52881  -0.012   0.406   4.272  0.9215 -0.3407 -0.2622
  384MOL0     C52882   0.079   0.286   4.297 -0.1171  0.1166  0.6204
  384MOL0     C52883  -0.105   0.457   4.366 -0.5235 -0.1007 -1.2174
  384MOL0     C52884  -0.125   0.397   4.498 -0.5531 -1.0910  0.4229
  384MOL0     O52885  -0.249   0.415   4.552  0.2605 -0.4783 -0.1423
  384MOL0     C52886  -0.258   0.382   4.684 -0.1814  0.5512  0.7559
  384MOL0     C52887  -0.229   0.264   4.752  0.3098 -0.5766 -0.1626
  384MOL0     C52888  -0.236   0.254   4.896  0.2267 -0.0466  0.1017
  384MOL0     C52889  -0.291   0.360   4.969  0.9279 -0.0713  0.2620
  384MOL0     O52890  -0.329   0.352   5.102 -0.4182 -0.0714 -0.0574
  384MOL0     C52891  -0.243   0.284   5.193  0.3178  0.1552 -0.1953
  384MOL0     C52892  -0.277   0.332   5.338  1.0487  0.0574  0.0869
  384MOL0     C52893  -0.423   0.304   5.382  0.0822 -0.3637 -0.6275
  384MOL0     C52894  -0.471   0.337   5.519 -0.3466 -0.4200 -0.5291
  384MOL0     C52895  -0.381   0.426   5.608  0.3504  0.3958 -0.1904
  384MOL0     C52896  -0.428   0.419   5.749  0.0833 -0.0665 -0.0820
  384MOL0     C52897  -0.561   0.498   5.768 -0.6574  0.1649 -0.3239
  384MOL0     C52898  -0.606   0.515   5.920 -0.2108  0.5436 -0.0874
  384MOL0    Cl52899  -0.730   0.626   5.940 -0.8572 -0.1980  0.5347
  384MOL0     C52900  -0.326   0.475   4.895  0.1593 -0.2112 -0.6992
  384MOL0     C52901  -0.295   0.488   4.762 -0.1752 -0.4263 -1.0376
  384MOL0     O52902  -0.030   0.335   4.545 -0.4781 -0.2045 -0.1795
  384MOL0     C52903  -0.194   0.554   4.318  0.1209 -0.4944  0.5737
  384MOL0     C52904  -0.188   0.610   4.188 -0.0681  0.0545  0.6733
  384MOL0     N52905   0.408   0.999   3.856 -0.2749 -0.0318  0.2800
  384MOL0     N52906   0.533   0.983   3.890  0.2696 -0.1859 -0.2241
  384MOL0     C52907   1.353   0.873   4.880 -0.3902  0.2488 -0.7848
  384MOL0     C52908   1.410   0.884   5.004 -0.0348  0.3494 -0.9837
  384MOL0     C52909   1.638   1.056   5.364  1.1379 -0.3438  0.6947
  384MOL0     C52910   1.701   0.948   5.424 -0.4008  0.0787 -0.2737
  384MOL0     C52911   1.757   0.948   5.551  0.5945 -0.0694 -0.4396
  384MOL0     C52912   1.734   1.061   5.625 -0.4522 -0.4874  0.3385
  384MOL0     O52913   1.807   1.046   5.744 -0.0450 -0.0961 -0.5372
  384MOL0     C52914   1.817   1.165   5.827  0.3676  0.0125 -0.0931
  384MOL0     C52915   1.953   1.235   5.811  0.1305  0.0164 -0.7669
  384MOL0     C52916   1.962   1.362   5.916 -0.3871  0.3567 -0.0753
  384MOL0     C52917   2.086   1.457   5.890 -0.5798 -0.7496 -0.2176
  384MOL0     C52918   2.065   1.592   5.935  0.1865 -0.5023 -0.1832
  384MOL0     C52919   2.044   1.706   5.977  0.3780  0.1697  1.1873
  384MOL0     C52920   1.650   1.165   5.579  0.2992  0.0744 -0.0318
  384MOL0     C52921   1.602   1.163   5.451  0.3528 -0.2320 -0.6315
  384MOL0     C52922   1.504   1.290   5.425 -0.2924  0.1109  0.7570
  384MOL0     H52923   1.730   0.948   4.936  1.3328 -1.7169 -3.2228
  384MOL0     H52924   1.640   0.948   4.710  2.2228 -1.3953  1.5625
  384MOL0     H52925   1.293   1.059   4.645 -0.0583 -2.1479  3.3853
  384MOL0     H52926   1.204   0.917   4.645 -1.5923  0.4359 -0.3853
  384MOL0     H52927   1.321   1.033   4.396  0.2684  0.5889  1.1957
  384MOL0     H52928   1.314   0.859   4.399 -0.7218 -1.4195  2.7543
  384MOL0     H52929   1.080   0.872   4.462 -0.9882 -0.8432 -0.8515
  384MOL0     H52930   1.075   1.054   4.458 -3.1282 -0.9599 -1.6935
  384MOL0     H52931   1.098   1.071   4.234 -2.7924  0.8365  1.8910
  384MOL0     H52932   1.143   0.898   4.211 -0.4333  2.7487 -3.4878
  384MOL0     H52933   0.873   0.996   4.309 -3.4855 -0.8506 -2.2102
  384MOL0     H52934   0.914   0.837   4.256  5.3177 -1.2807  0.7764
  384MOL0     H52935   0.917   1.065   4.072 -2.5829 -0.5405 -1.6872
  384MOL0     H52936   0.979   0.900   4.039  0.3974  2.5248 -0.7787
  384MOL0     H52937   0.759   0.806   4.115  2.4910  0.3594 -0.7279
  384MOL0     H52938   0.761   0.869   3.957  1.0622 -0.0438  0.0930
  384MOL0     H52939   0.613   0.973   4.205 -1.3967  0.1188 -0.4741
  384MOL0     H52940   0.696   1.097   4.112  0.8327 -0.3187  3.7643
  384MOL0     H52941   0.361   0.970   4.167 -0.4284  2.2784 -0.6219
  384MOL0     H52942   0.151   1.068   3.859  3.2516  1.6347  0.5481
  384MOL0     H52943   0.130   1.055   4.035 -1.0403 -1.8727  1.1800
  384MOL0     H52944   0.138   0.816   3.830  0.7679 -2.8265  0.1783
  384MOL0     H52945   0.168   0.783   3.994 -0.5359 -1.1963 -0.9123
  384MOL0     H52946  -0.039   0.855   4.077  1.9577 -0.5187 -1.0329
  384MOL0     H52947  -0.093   0.933   3.925  0.5604  1.9943  3.1680
  384MOL0     H52948  -0.215   0.743   3.957  0.2353 -2.9623  2.2181
  384MOL0     H52949  -0.120   0.715   3.809 -2.4375 -1.2120  0.6489
  384MOL0     H52950   0.077   0.439   4.079 -1.3384  0.8846 -0.7439
  384MOL0     H52951   0.107   0.237   4.203 -2.7868  0.3227 -0.3727
  384MOL0     H52952   0.033   0.206   4.356 -2.4651 -1.1263 -2.5707
  384MOL0     H52953   0.173   0.323   4.340  0.8849  0.1122 -1.4236
  384MOL0     H52954  -0.190   0.178   4.699  2.6192  0.8364 -0.9031
  384MOL0     H52955  -0.207   0.162   4.947 -2.1692 -1.2690 -0.5590
  384MOL0     H52956  -0.254   0.175   5.194 -0.0945  0.1391  2.8944
  384MOL0     H52957  -0.139   0.310   5.169 -0.5337  2.4658 -1.7483
  384MOL0     H52958  -0.216   0.274   5.408 -0.6874 -3.2190 -0.9019
  384MOL0     H52959  -0.263   0.440   5.333 -3.3114  0.7391 -2.3343
  384MOL0     H52960  -0.462   0.203   5.368  0.7728 -0.9871  1.5617
  384MOL0     H52961  -0.476   0.372   5.315  2.9707  2.7871  0.0105
  384MOL0     H52962  -0.484   0.244   5.575 -2.1066 -1.2967 -2.2665
  384MOL0     H52963  -0.573   0.378   5.514 -0.1026  0.0456 -2.1540
  384MOL0     H52964  -0.280   0.386   5.617  0.6690  1.4484  1.2418
  384MOL0     H52965  -0.370   0.529   5.572  2.5496  0.3465  0.2188
  384MOL0     H52966  -0.349   0.462   5.811  0.7101 -0.2760 -0.7218
  384MOL0     H52967  -0.441   0.315   5.778 -0.5275 -0.1728 -0.6911
  384MOL0     H52968  -0.650   0.446   5.731  0.3052 -2.9239  1.3513
  384MOL0     H52969  -0.547   0.599   5.730  1.4972  1.1374  2.6222
  384MOL0     H52970  -0.532   0.568   5.981  0.0465  0.1476 -0.0557
  384MOL0     H52971  -0.637   0.422   5.969  0.2920  0.0577 -0.6731
  384MOL0     H52972  -0.368   0.557   4.953  0.4058  0.1281 -0.9946
  384MOL0     H52973  -0.311   0.585   4.716  2.6342  0.2085 -0.8273
  384MOL0     H52974  -0.276   0.593   4.378 -2.1217 -0.1486 -2.4923
  384MOL0     H52975  -0.263   0.682   4.158 -0.0726 -0.3457 -0.3101
  384MOL0     H52976   1.249   0.848   4.863 -0.3385  0.3493 -1.2586
  384MOL0     H52977   1.349   0.873   5.093  2.9370  1.3906  1.3190
  384MOL0     H52978   1.729   0.860   5.367 -1.4780 -1.9413  2.1183
  384MOL0     H52979   1.811   0.866   5.597 -0.3001  0.7740  2.2949
  384MOL0     H52980   1.736   1.235   5.805  1.3225  1.5213  0.9519
  384MOL0     H52981   1.785   1.132   5.926  0.8514  2.7371  1.0664
  384MOL0     H52982   1.975   1.271   5.710 -1.0497 -1.3898 -1.5676
  384MOL0     H52983   2.023   1.160   5.848 -1.6968 -1.3963  0.0039
  384MOL0     H52984   1.870   1.422   5.909 -1.5947 -1.3727  0.1335
  384MOL0     H52985   1.957   1.321   6.018 -2.3965  0.0402 -0.2508
  384MOL0     H52986   2.099   1.480   5.783 -2.0844 -0.6582 -0.4038
  384MOL0     H52987   2.175   1.423   5.944 -1.1873  0.4210  1.5720
  384MOL0     H52988   2.032   1.812   5.987 -2.0596  0.5697 -3.5997
  384MOL0     H52989   1.632   1.256   5.635  1.2929  2.3244 -3.1570
  384MOL0     H52990   1.525   1.375   5.490 -1.4500 -0.8624  2.4997
  384MOL0     H52991   1.494   1.318   5.320  0.3855 -2.3688 -0.0443
  384MOL0     H52992   1.408   1.247   5.454  0.8449 -3.5214 -0.3197
  385MOL0     O52993   3.217  11.413   1.730 -0.6814 -0.7920 -0.9847
  385MOL0     C52994   3.268  11.527   1.741  0.8263  0.7263 -0.4417
  385MOL0     O52995   3.274  11.615   1.641 -1.3798 -0.8063 -0.5120
  385MOL0     C52996   3.216  11.589   1.518  0.3368  0.4652  1.4772
  385MOL0     C52997   3.075  11.598   1.506  0.2432  0.4730  0.1519
  385MOL0     C52998   3.008  11.585   1.380  0.7573 -0.1570 -0.8690
  385MOL0     C52999   3.082  11.554   1.263  0.3300  0.6404  0.8675
  385MOL0     O53000   3.004  11.523   1.151  1.1191  0.2734  0.1459
  385MOL0     C53001   3.023  11.406   1.076  0.0320  0.1304  0.2529
  385MOL0     C53002   2.919  11.382   0.967 -0.4853  0.7919 -0.2891
  385MOL0     C53003   2.788  11.338   1.031 -0.7874 -0.1393 -0.3789
  385MOL0     C53004   2.694  11.277   0.925 -0.1214 -0.6627  0.6802
  385MOL0     C53005   2.587  11.178   0.982 -0.8662  0.1484 -0.2744
  385MOL0     C53006   2.647  11.071   1.080 -0.2108  0.3773  0.5042
  385MOL0     C53007   2.756  10.981   1.014 -0.4079  0.3114 -0.6342
  385MOL0     C53008   2.788  10.860   1.109 -0.3685 -0.7920  0.3084
  385MOL0     N53009   2.889  10.780   1.046 -0.3626 -0.2001 -0.1971
  385MOL0     C53010   2.871  10.663   0.981  0.8185  0.2601  0.4464
  385MOL0     C53011   2.990  10.629   0.932 -0.2586  0.3014 -1.0801
  385MOL0     C53012   3.032  10.503   0.859  0.4518 -0.2060  0.5296
  385MOL0     C53013   2.938  10.461   0.753 -0.3916  0.1250  0.5849
  385MOL0     C53014   2.958  10.310   0.704  0.1044 -0.1280  0.1770
  385MOL0     C53015   3.089  10.287   0.634 -0.7632 -0.4066 -0.0128
  385MOL0     O53016   3.064  10.283   0.486  0.6969  0.6977  0.4636
  385MOL0     C53017   3.034  10.156   0.446  1.3016  0.2720  0.2850
  385MOL0     C53018   3.104  10.045   0.475 -1.1247 -0.1888  0.1008
  385MOL0     C53019   3.077   9.918   0.414 -0.0436 -0.0942 -0.8803
  385MOL0     C53020   3.167   9.807   0.444  0.6637  0.2771  1.2079
  385MOL0     C53021   2.962   9.902   0.330 -0.2860  0.7333 -0.2815
  385MOL0     C53022   2.922   9.776   0.254 -0.3035 -0.0500  0.8658
  385MOL0     O53023   2.845   9.806   0.135  0.3885  0.0319  0.3191
  385MOL0     C53024   2.833   9.715   0.034  0.2972  0.0671  0.1194
  385MOL0     C53025   2.805   9.582   0.054 -0.0499  0.4363 -0.9888
  385MOL0     C53026   2.786   9.503  -0.054 -0.4070 -0.0613  0.5635
  385MOL0     C53027   2.798   9.548  -0.181 -0.1337  0.1943 -0.1762
  385MOL0     O53028   2.795   9.450  -0.284 -0.1079 -0.2655 -0.0191
  385MOL0     C53029   2.762   9.511  -0.411  0.0187  0.1101 -0.4076
  385MOL0     C53030   2.728   9.397  -0.516 -0.1435 -0.0335 -0.1889
  385MOL0     C53031   2.840   9.297  -0.547 -0.4326  0.2094  0.8171
  385MOL0     C53032   2.960   9.377  -0.603  0.1340  0.2634  0.3867
  385MOL0     C53033   3.039   9.280  -0.692  0.1504  0.5592  0.0126
  385MOL0     C53034   3.010   9.256  -0.844  0.3343 -0.4826  0.5819
  385MOL0     C53035   3.028   9.377  -0.926  0.3407  0.2937  1.0000
  385MOL0     C53036   3.166   9.382  -0.985 -0.1691  0.2739  0.1462
  385MOL0    Cl53037   3.182   9.538  -1.062 -0.0600  0.1222  0.5333
  385MOL0     C53038   2.830   9.683  -0.208  0.1295  0.3962  0.5598
  385MOL0     C53039   2.838   9.773  -0.098 -0.7053  1.1362 -0.2477
  385MOL0     O53040   2.948   9.661   0.294 -0.0718 -0.2522  0.1316
  385MOL0     C53041   2.883  10.012   0.316 -0.0115 -0.3717 -0.0782
  385MOL0     C53042   2.917  10.137   0.369  0.8792  0.3478 -0.0339
  385MOL0     N53043   3.083  10.734   0.953  0.0433 -0.8291  0.1281
  385MOL0     N53044   3.015  10.827   1.017  1.1576 -0.3750 -1.1507
  385MOL0     C53045   3.226  11.544   1.279  0.1205 -0.3507  0.9845
  385MOL0     C53046   3.288  11.570   1.396  0.6083 -0.8198  0.0901
  385MOL0     C53047   3.339  11.554   1.866  1.2695 -0.4133  0.1857
  385MOL0     C53048   3.300  11.473   1.979 -0.8307  0.6512 -0.7557
  385MOL0     C53049   3.359  11.491   2.103  0.1502 -0.0188  0.5711
  385MOL0     C53050   3.467  11.578   2.122  0.3473 -0.3613 -0.0245
  385MOL0     O53051   3.514  11.591   2.241 -0.6765  0.2203 -0.1991
  385MOL0     C53052   3.577  11.477   2.295 -0.1677 -0.7554 -0.8285
  385MOL0     C53053   3.560  11.476   2.451  0.4718 -0.2539  0.5565
  385MOL0     C53054   3.634  11.364   2.524 -0.6405  0.3075  0.9265
  385MOL0     C53055   3.611  11.393   2.671  0.2929 -1.0888 -0.8052
  385MOL0     C53056   3.708  11.488   2.720 -1.0127  0.3861 -0.4705
  385MOL0     C53057   3.785  11.569   2.773 -0.2682  0.9749 -0.1510
  385MOL0     C53058   3.494  11.662   2.014  0.0729 -0.7448 -0.1253
  385MOL0     C53059   3.440  11.647   1.886  0.6314  0.5056  1.2107
  385MOL0     C53060   3.473  11.743   1.783 -0.9140  0.0282  0.7176
  385MOL0     H53061   3.016  11.643   1.585  0.6077  0.0834  0.6494
  385MOL0     H53062   2.902  11.609   1.385  1.0008  0.8610 -0.4489
  385MOL0     H53063   3.029  11.329   1.154  0.8851  0.8696  0.9437
  385MOL0     H53064   3.118  11.411   1.022 -0.1229 -2.0452 -0.3214
  385MOL0     H53065   2.903  11.470   0.904 -4.8006 -0.8185 -1.8201
  385MOL0     H53066   2.955  11.296   0.911 -0.0783  0.6479  0.1859
  385MOL0     H53067   2.820  11.268   1.109  3.6616  0.8983 -0.9987
  385MOL0     H53068   2.733  11.422   1.074 -1.6979 -0.9243  0.0245
  385MOL0     H53069   2.645  11.350   0.860  2.2873  0.1917 -0.2967
  385MOL0     H53070   2.747  11.218   0.850 -3.1678 -1.0361 -1.3531
  385MOL0     H53071   2.553  11.123   0.894 -1.2686 -1.0997  0.6328
  385MOL0     H53072   2.503  11.233   1.026 -1.9873 -2.2917  0.8217
  385MOL0     H53073   2.694  11.113   1.169 -1.0230 -0.5691  1.3975
  385MOL0     H53074   2.559  11.011   1.106 -0.1304 -0.0681 -0.2288
  385MOL0     H53075   2.847  11.036   0.992  0.5071 -0.2351  1.5186
  385MOL0     H53076   2.718  10.932   0.924  1.0950  0.0890 -1.1704
  385MOL0     H53077   2.834  10.907   1.197 -1.6127  2.0899 -0.4610
  385MOL0     H53078   2.693  10.807   1.126 -1.1863  1.2104  2.6159
  385MOL0     H53079   2.778  10.607   0.972 -0.3762  1.6848  2.8607
  385MOL0     H53080   3.041  10.429   0.939  0.9145 -0.9816 -0.2203
  385MOL0     H53081   3.127  10.512   0.805  0.0087  0.2302 -0.1853
  385MOL0     H53082   2.834  10.464   0.787 -0.9497  2.6101 -1.0628
  385MOL0     H53083   2.941  10.533   0.670  1.1682 -0.7162 -0.1336
  385MOL0     H53084   2.937  10.251   0.793 -1.8541  2.1518  1.3317
  385MOL0     H53085   2.879  10.296   0.629  0.4399 -0.5924 -0.0904
  385MOL0     H53086   3.160  10.370   0.643 -0.5821 -0.6286  0.6822
  385MOL0     H53087   3.143  10.201   0.674 -1.7788 -0.2930  1.7524
  385MOL0     H53088   3.193  10.063   0.534 -0.9805 -1.6903  0.3685
  385MOL0     H53089   3.208   9.773   0.349  1.0358 -0.0505  1.4800
  385MOL0     H53090   3.110   9.728   0.494  1.0594 -0.2570  0.8306
  385MOL0     H53091   3.258   9.833   0.499  2.2659 -0.4577 -1.0013
  385MOL0     H53092   2.781   9.547   0.154 -4.0894 -1.0830 -2.2608
  385MOL0     H53093   2.757   9.399  -0.040  0.3047 -0.1802  1.2318
  385MOL0     H53094   2.674   9.574  -0.398  0.7663  0.6100  3.1445
  385MOL0     H53095   2.843   9.572  -0.452 -1.0354  2.3685  0.7630
  385MOL0     H53096   2.638   9.340  -0.491 -0.6585  0.7363 -0.2452
  385MOL0     H53097   2.705   9.444  -0.612  0.2648 -1.6345 -1.1011
  385MOL0     H53098   2.794   9.233  -0.623  0.7137  0.5016 -0.1707
  385MOL0     H53099   2.855   9.224  -0.467 -0.7745 -1.4411 -0.5731
  385MOL0     H53100   3.013   9.415  -0.515  2.0998 -1.0218 -0.1751
  385MOL0     H53101   2.914   9.458  -0.660  0.5653  0.5436  0.4276
  385MOL0     H53102   3.135   9.332  -0.695  1.0464 -0.9352  1.3441
  385MOL0     H53103   3.058   9.180  -0.652  2.7797  0.3780 -1.4362
  385MOL0     H53104   2.908   9.217  -0.845  0.4700 -0.8511  0.8349
  385MOL0     H53105   3.070   9.171  -0.879  3.7007  1.6024  0.7718
  385MOL0     H53106   2.991   9.470  -0.883  0.8468  1.0754 -0.2001
  385MOL0     H53107   2.971   9.344  -1.014 -1.4349 -2.7425  3.0973
  385MOL0     H53108   3.193   9.304  -1.057 -2.6744  1.3107 -2.0656
  385MOL0     H53109   3.232   9.371  -0.899 -0.5533 -2.6987  0.1685
  385MOL0     H53110   2.834   9.726  -0.308  0.9061 -0.7142  0.0936
  385MOL0     H53111   2.855   9.879  -0.109 -1.4441  1.4786  1.6121
  385MOL0     H53112   2.792  10.010   0.257 -0.8098 -0.8822  1.1176
  385MOL0     H53113   2.866  10.231   0.356 -0.1805  0.1490  2.1628
  385MOL0     H53114   3.283  11.519   1.190  1.5063  0.5055  1.5938
  385MOL0     H53115   3.396  11.567   1.399  0.9119  2.9116  4.9462
  385MOL0     H53116   3.240  11.383   1.977  1.3325 -0.9620  1.2604
  385MOL0     H53117   3.338  11.418   2.181 -1.2446 -1.0365 -0.6942
  385MOL0     H53118   3.531  11.381   2.269  1.5730 -1.4351 -1.6065
  385MOL0     H53119   3.679  11.496   2.260 -0.2918  3.2317  0.4895
  385MOL0     H53120   3.454  11.460   2.472  0.6842 -2.3759  0.2786
  385MOL0     H53121   3.596  11.573   2.486  6.5355 -2.6425  2.1423
  385MOL0     H53122   3.586  11.273   2.486  0.8366  0.0078 -0.3602
  385MOL0     H53123   3.743  11.365   2.511 -0.4198 -0.2928  2.5084
  385MOL0     H53124   3.619  11.298   2.723  3.6623 -2.7005 -3.8157
  385MOL0     H53125   3.511  11.432   2.692  0.6612 -1.0776  1.0691
  385MOL0     H53126   3.857  11.642   2.804 -1.2617  1.4504  1.1623
  385MOL0     H53127   3.556  11.747   2.039 -0.7305  0.8099 -2.9893
  385MOL0     H53128   3.542  11.818   1.822 -1.1140 -0.0676  1.2649
  385MOL0     H53129   3.530  11.695   1.703 -0.1697  1.6549  0.2220
  385MOL0     H53130   3.383  11.788   1.739 -0.9811  1.1735  1.9727
  386MOL0     O53131  11.134   6.908   9.491  0.4593 -0.3478  0.3456
  386MOL0     C53132  11.191   6.829   9.423 -0.7685  0.7628 -0.2443
  386MOL0     O53133  11.279   6.865   9.318  0.2791 -0.2417  0.0040
  386MOL0     C53134  11.236   6.965   9.238  0.8604  1.3569  0.5407
  386MOL0     C53135  11.324   7.034   9.169 -0.2745  0.0966  0.7518
  386MOL0     C53136  11.296   7.154   9.108 -0.7621  0.0625  0.3001
  386MOL0     C53137  11.176   7.205   9.091 -0.3347  0.8528 -0.7170
  386MOL0     O53138  11.151   7.309   9.010 -0.0097  0.3958 -0.4851
  386MOL0     C53139  11.019   7.351   8.983 -0.1885  0.2495 -0.6237
  386MOL0     C53140  11.025   7.488   8.902 -0.4054  0.9640 -0.1363
  386MOL0     C53141  11.096   7.606   8.963  0.1762  0.3630  0.2194
  386MOL0     C53142  11.124   7.716   8.859  0.3944 -0.3690 -0.5824
  386MOL0     C53143  11.198   7.840   8.917 -0.0035  0.3739 -0.1397
  386MOL0     C53144  11.240   7.951   8.818  1.0785 -0.8060  0.4497
  386MOL0     C53145  11.127   8.026   8.744  0.1118  0.2266  0.1162
  386MOL0     C53146  11.074   8.133   8.845  0.5908  0.1110  0.4247
  386MOL0     N53147  11.169   8.237   8.872 -0.3387 -1.0329 -0.9719
  386MOL0     C53148  11.250   8.304   8.788 -0.1634  0.7920  0.6477
  386MOL0     C53149  11.338   8.376   8.862  0.7761 -0.1779  0.3779
  386MOL0     C53150  11.432   8.474   8.810  0.4640  0.4258 -0.3569
  386MOL0     C53151  11.370   8.607   8.790  0.0206 -0.3032  0.2668
  386MOL0     C53152  11.472   8.716   8.795 -0.3931 -0.6736  0.0354
  386MOL0     C53153  11.417   8.858   8.791  0.0835  1.1569  0.7230
  386MOL0     O53154  11.329   8.882   8.688 -0.2967 -0.1104  0.3737
  386MOL0     C53155  11.264   9.009   8.682 -1.3834 -0.4578  0.8693
  386MOL0     C53156  11.308   9.120   8.751  0.1108  0.3155 -0.4129
  386MOL0     C53157  11.240   9.241   8.747 -0.6364  0.6383 -1.2324
  386MOL0     C53158  11.290   9.371   8.823 -0.7589  1.2777  0.3413
  386MOL0     C53159  11.121   9.243   8.672 -0.2310 -0.4737  0.0817
  386MOL0     C53160  11.047   9.378   8.666 -1.0728  0.9124  0.0081
  386MOL0     O53161  11.123   9.482   8.628  0.1927  0.0722  0.3599
  386MOL0     C53162  11.093   9.609   8.657 -0.3711  0.6983 -0.3216
  386MOL0     C53163  11.148   9.708   8.569  0.7167  0.5206 -0.0614
  386MOL0     C53164  11.126   9.839   8.603 -0.8235 -0.5072 -0.5369
  386MOL0     C53165  11.067   9.887   8.714  0.9509 -0.5850  0.6371
  386MOL0     O53166  11.052  10.020   8.757 -0.1220  0.1390  0.4591
  386MOL0     C53167  11.173  10.107   8.722  0.6598 -0.0295  0.3467
  386MOL0     C53168  11.142  10.250   8.739  0.3672  0.5766  0.3274
  386MOL0     C53169  11.110  10.290   8.885  0.1700  0.1171 -0.2991
  386MOL0     C53170  11.054  10.429   8.896 -1.1750 -0.5687 -0.3934
  386MOL0     C53171  11.072  10.484   9.031  0.2715  0.1250  0.4663
  386MOL0     C53172  11.010  10.624   9.047  0.5134  0.1051  1.1010
  386MOL0     C53173  11.029  10.663   9.195  0.7946 -1.1038  0.1476
  386MOL0     C53174  11.031  10.811   9.221  0.6849 -0.1467 -0.9039
  386MOL0    Cl53175  11.185  10.856   9.152 -0.2382 -0.2539 -0.2815
  386MOL0     C53176  10.994   9.787   8.788 -1.0202 -0.0156 -0.0868
  386MOL0     C53177  11.018   9.655   8.765 -0.1294 -0.7062  0.6798
  386MOL0     O53178  10.926   9.376   8.686  0.8637  1.1396 -0.2039
  386MOL0     C53179  11.072   9.125   8.604  1.3695  0.2455  0.7904
  386MOL0     C53180  11.142   9.012   8.607  0.3149  0.4331  0.3752
  386MOL0     N53181  11.325   8.339   8.994  0.5758 -0.0638  0.0473
  386MOL0     N53182  11.223   8.261   8.993 -0.2564  0.0617  0.3388
  386MOL0     C53183  11.071   7.128   9.150 -0.0188  0.3386  0.4424
  386MOL0     C53184  11.101   7.006   9.221 -0.2451 -0.6794  0.2638
  386MOL0     C53185  11.191   6.688   9.463 -0.1905  0.4099 -0.4396
  386MOL0     C53186  11.247   6.596   9.367 -1.0810 -0.8664  0.1962
  386MOL0     C53187  11.261   6.461   9.398 -0.7149 -0.2511 -0.1569
  386MOL0     C53188  11.199   6.415   9.512  0.5517  1.1932  0.1113
  386MOL0     O53189  11.195   6.286   9.554 -0.3879 -0.1937  0.4734
  386MOL0     C53190  11.311   6.200   9.521  0.4244 -0.5875  0.0715
  386MOL0     C53191  11.432   6.226   9.617 -0.6935 -0.0235 -0.4861
  386MOL0     C53192  11.387   6.187   9.759 -0.7231  0.8377  0.0221
  386MOL0     C53193  11.505   6.187   9.853  0.7818 -1.1623  0.7525
  386MOL0     C53194  11.594   6.074   9.832 -1.2259  0.4140 -0.0999
  386MOL0     C53195  11.648   5.968   9.829 -0.4307  0.5160 -0.1568
  386MOL0     C53196  11.139   6.502   9.597  0.4618  0.9719 -0.1367
  386MOL0     C53197  11.134   6.636   9.578 -0.0493  0.2983  0.2317
  386MOL0     C53198  11.074   6.720   9.688 -0.3411  0.4792 -0.7553
  386MOL0     H53199  11.432   7.024   9.165 -0.3320 -0.8259 -3.5413
  386MOL0     H53200  11.376   7.197   9.049 -0.4487 -2.7723 -1.5636
  386MOL0     H53201  10.968   7.378   9.076  1.0446 -1.3668  0.5714
  386MOL0     H53202  10.965   7.279   8.921 -1.1605 -0.8811  1.4295
  386MOL0     H53203  11.084   7.467   8.812 -0.4387  4.5758 -1.1729
  386MOL0     H53204  10.925   7.517   8.870 -0.9244 -1.3204 -0.7508
  386MOL0     H53205  11.030   7.650   9.038  1.6647  0.6800  1.3959
  386MOL0     H53206  11.187   7.577   9.016 -1.0223 -1.2162  1.5060
  386MOL0     H53207  11.188   7.677   8.779  2.2871  0.7407  0.3351
  386MOL0     H53208  11.031   7.747   8.810 -0.1436 -1.1794 -0.0965
  386MOL0     H53209  11.278   7.784   8.966 -1.4364 -1.3378  0.3242
  386MOL0     H53210  11.134   7.888   8.992 -1.8552  2.9059 -3.0973
  386MOL0     H53211  11.319   8.007   8.869  0.4479 -0.3292  0.9059
  386MOL0     H53212  11.299   7.899   8.742 -0.9922 -0.2264 -1.6691
  386MOL0     H53213  11.044   7.963   8.711 -2.3278  1.7191  2.8846
  386MOL0     H53214  11.169   8.070   8.653 -1.4463  0.1480 -0.6742
  386MOL0     H53215  10.980   8.174   8.806  0.6441 -1.5752 -1.6593
  386MOL0     H53216  11.045   8.087   8.940  3.9895  0.8541  1.9711
  386MOL0     H53217  11.247   8.312   8.680  1.5642  2.2153  0.6706
  386MOL0     H53218  11.468   8.439   8.713 -0.1781  0.0791 -0.4758
  386MOL0     H53219  11.518   8.475   8.878 -1.8334 -2.3343  2.9579
  386MOL0     H53220  11.327   8.609   8.690 -2.8303 -1.6548  1.3394
  386MOL0     H53221  11.283   8.632   8.851 -0.1458  0.6639 -0.3489
  386MOL0     H53222  11.541   8.705   8.880 -0.9785  1.8171  0.9202
  386MOL0     H53223  11.545   8.705   8.714 -0.1523  3.1664 -0.4590
  386MOL0     H53224  11.360   8.874   8.883 -3.1841  1.1969 -1.1582
  386MOL0     H53225  11.501   8.927   8.788 -0.6396  2.0429  0.4948
  386MOL0     H53226  11.405   9.115   8.801 -0.7368 -4.9816  1.2991
  386MOL0     H53227  11.347   9.440   8.761  1.6209 -1.4123 -0.7218
  386MOL0     H53228  11.363   9.355   8.903  1.5539  1.5086 -1.6194
  386MOL0     H53229  11.212   9.412   8.888 -0.1881 -0.1520  2.0132
  386MOL0     H53230  11.206   9.687   8.480 -3.3577  0.2922 -2.8997
  386MOL0     H53231  11.171   9.912   8.536  0.3618 -0.4677  0.2632
  386MOL0     H53232  11.250  10.083   8.796  0.6021  0.1183  0.4560
  386MOL0     H53233  11.209  10.099   8.619  1.1668  3.0044  0.1944
  386MOL0     H53234  11.231  10.304   8.705  0.1312  1.2472  0.7495
  386MOL0     H53235  11.064  10.282   8.670  1.3063  1.2228 -0.4610
  386MOL0     H53236  11.203  10.277   8.942  0.2856 -2.0101 -0.8917
  386MOL0     H53237  11.027  10.229   8.920  0.0308  0.2835 -0.3359
  386MOL0     H53238  10.956  10.449   8.852 -1.6077  0.3164  0.9231
  386MOL0     H53239  11.121  10.495   8.838 -0.9009 -0.7451 -0.2775
  386MOL0     H53240  11.015  10.411   9.090 -1.0742 -0.2568 -1.2514
  386MOL0     H53241  11.180  10.486   9.052  0.5255  4.3193 -0.3720
  386MOL0     H53242  10.904  10.628   9.020  0.9804 -0.4739 -0.9869
  386MOL0     H53243  11.063  10.702   8.990  2.7802 -0.9376  1.6525
  386MOL0     H53244  11.122  10.625   9.239  1.2537 -0.2354 -0.0347
  386MOL0     H53245  10.955  10.623   9.265 -2.4835  2.5056 -0.8769
  386MOL0     H53246  11.019  10.838   9.326 -2.1769 -0.3453 -1.1018
  386MOL0     H53247  10.950  10.860   9.165 -0.3890 -1.3994 -0.4950
  386MOL0     H53248  10.948   9.820   8.881 -2.6621  0.0475 -0.8806
  386MOL0     H53249  10.981   9.582   8.836 -3.7340 -0.2753 -0.5610
  386MOL0     H53250  10.987   9.131   8.537  1.0155  3.6557  1.3675
  386MOL0     H53251  11.101   8.926   8.554  0.8329  0.2719  0.2328
  386MOL0     H53252  10.970   7.164   9.131  0.2703  3.5751  3.7548
  386MOL0     H53253  11.034   6.934   9.266 -1.8542  0.2745 -0.5345
  386MOL0     H53254  11.291   6.628   9.273  3.9538  0.4425  2.6289
  386MOL0     H53255  11.312   6.393   9.331  0.7324  1.8448 -1.2974
  386MOL0     H53256  11.255   6.107   9.535 -0.2192 -0.0074  1.5715
  386MOL0     H53257  11.318   6.213   9.413 -3.8457  1.1729 -0.2173
  386MOL0     H53258  11.467   6.329   9.611 -1.4204  0.4229  2.1148
  386MOL0     H53259  11.515   6.161   9.585 -1.7758 -0.9573 -1.4837
  386MOL0     H53260  11.327   6.271   9.795  2.0825  3.2833 -0.6964
  386MOL0     H53261  11.331   6.093   9.749  0.3208  0.1215  0.7046
  386MOL0     H53262  11.474   6.179   9.958 -0.0087  1.3451  0.7903
  386MOL0     H53263  11.564   6.277   9.836 -0.3334 -0.7730 -1.4299
  386MOL0     H53264  11.696   5.873   9.817  1.1251  1.0502  1.4548
  386MOL0     H53265  11.085   6.455   9.679  0.6576  0.1829 -0.4549
  386MOL0     H53266  11.114   6.821   9.695  1.0274  0.0208 -1.5117
  386MOL0     H53267  10.964   6.718   9.690 -0.3937 -3.1066 -0.7488
  386MOL0     H53268  11.091   6.665   9.781  0.2484 -2.8973 -2.6963
  387MOL0     O53269   6.439   9.034   7.957  0.6688  0.9858  0.4410
  387MOL0     C53270   6.503   9.132   7.963 -0.0244 -0.3077  0.1804
  387MOL0     O53271   6.559   9.200   7.862  0.0201 -0.5772  0.2697
  387MOL0     C53272   6.508   9.177   7.735  0.0663  0.3848  1.3191
  387MOL0     C53273   6.396   9.241   7.683  0.4446  0.6027 -0.7322
  387MOL0     C53274   6.352   9.208   7.552 -0.4569 -0.1660 -0.3996
  387MOL0     C53275   6.410   9.119   7.470 -0.1105  0.5912  0.1426
  387MOL0     O53276   6.367   9.082   7.348 -0.0434  0.4322 -0.0630
  387MOL0     C53277   6.233   9.111   7.306 -0.5881  0.3924 -0.1353
  387MOL0     C53278   6.206   9.002   7.192  0.1004 -0.3345 -0.2378
  387MOL0     C53279   6.277   8.864   7.211  0.2094 -0.0549 -1.1504
  387MOL0     C53280   6.237   8.794   7.342 -0.0730  0.9607 -0.2212
  387MOL0     C53281   6.354   8.739   7.429  0.1924  0.8864  0.1753
  387MOL0     C53282   6.307   8.708   7.565 -0.2803  0.1896 -0.4884
  387MOL0     C53283   6.276   8.830   7.661 -0.3363 -0.1552  0.5362
  387MOL0     C53284   6.270   8.777   7.811  0.0810 -0.1135  0.2579
  387MOL0     N53285   6.141   8.724   7.849 -0.0441  0.4894  0.4228
  387MOL0     C53286   6.085   8.602   7.813  1.0578  0.2423 -0.1011
  387MOL0     C53287   5.954   8.613   7.843  0.1426  1.2654 -1.2560
  387MOL0     C53288   5.834   8.511   7.832 -0.8102  0.0442  0.0296
  387MOL0     C53289   5.740   8.500   7.958  0.7632 -0.0998 -0.0115
  387MOL0     C53290   5.801   8.432   8.082 -0.4225 -0.9520  0.3297
  387MOL0     C53291   5.683   8.411   8.178 -0.3851  0.0602 -0.1898
  387MOL0     O53292   5.726   8.354   8.299 -0.5278  0.5791 -0.0994
  387MOL0     C53293   5.614   8.328   8.366  0.5316  0.1554  0.0557
  387MOL0     C53294   5.578   8.191   8.383  0.3668 -0.3343  0.4391
  387MOL0     C53295   5.472   8.156   8.473  0.8971  0.6937 -1.1961
  387MOL0     C53296   5.464   8.008   8.501  0.9665  1.0101 -0.6854
  387MOL0     C53297   5.404   8.259   8.542  0.3644  0.2546  0.5353
  387MOL0     C53298   5.293   8.233   8.638  0.3075  0.3119 -0.7517
  387MOL0     O53299   5.225   8.119   8.637  0.4073  0.5566  0.5068
  387MOL0     C53300   5.125   8.097   8.735 -0.2347 -0.9298  0.5527
  387MOL0     C53301   5.167   8.042   8.860  0.6276  0.3829 -0.3017
  387MOL0     C53302   5.076   8.028   8.965 -0.4635  0.4097 -0.3613
  387MOL0     C53303   4.941   8.066   8.943  0.3383  0.0315  0.3267
  387MOL0     O53304   4.862   8.076   9.060  0.1563 -0.4210 -0.2021
  387MOL0     C53305   4.716   8.088   9.054 -0.0169  1.2672  0.0501
  387MOL0     C53306   4.673   8.123   9.189 -0.2608  0.7671 -0.9597
  387MOL0     C53307   4.522   8.171   9.180  0.3026 -0.7953  0.8759
  387MOL0     C53308   4.447   8.169   9.318 -0.0400  0.4503 -0.1290
  387MOL0     C53309   4.480   8.278   9.410 -0.0811  0.7749 -0.7276
  387MOL0     C53310   4.397   8.276   9.541  0.5638 -0.7772 -0.1363
  387MOL0     C53311   4.437   8.379   9.653  0.0028  0.0682 -0.5109
  387MOL0     C53312   4.351   8.384   9.780 -0.2417  0.3443 -0.6861
  387MOL0    Cl53313   4.241   8.527   9.802  0.4417 -0.4436 -0.0241
  387MOL0     C53314   4.898   8.117   8.819 -0.3628 -0.1711 -0.2252
  387MOL0     C53315   4.987   8.129   8.716 -0.7720 -0.2814  0.4180
  387MOL0     O53316   5.273   8.324   8.718  0.6163 -0.4662 -0.1571
  387MOL0     C53317   5.438   8.400   8.528  0.4307  1.0126  0.5699
  387MOL0     C53318   5.542   8.431   8.442  0.4422  0.3875  0.4300
  387MOL0     N53319   5.930   8.739   7.895  0.8839 -0.1507 -0.2656
  387MOL0     N53320   6.041   8.796   7.911  0.1782  0.3493  0.5673
  387MOL0     C53321   6.530   9.064   7.521  0.0936 -0.0304 -0.6247
  387MOL0     C53322   6.576   9.087   7.654 -0.8622 -0.3220  0.6091
  387MOL0     C53323   6.538   9.170   8.101 -0.7042 -0.9327  0.0585
  387MOL0     C53324   6.650   9.255   8.105 -0.2010  0.0433 -0.6292
  387MOL0     C53325   6.687   9.294   8.231 -0.0009 -0.2065 -0.1122
  387MOL0     C53326   6.632   9.250   8.356 -0.0684 -0.2923 -0.0971
  387MOL0     O53327   6.710   9.270   8.465  0.8456 -0.4773 -0.0774
  387MOL0     C53328   6.671   9.216   8.594  0.1434  0.2610  0.2984
  387MOL0     C53329   6.780   9.234   8.703 -0.0513  0.4612  0.2100
  387MOL0     C53330   6.794   9.113   8.793  0.9773 -0.5525 -0.9993
  387MOL0     C53331   6.684   9.115   8.903  0.4376 -1.0399  0.5717
  387MOL0     C53332   6.708   9.005   8.999 -0.5963 -0.6705  0.2866
  387MOL0     C53333   6.721   8.912   9.076  0.0736 -0.0678  0.7406
  387MOL0     C53334   6.525   9.170   8.342  0.1927  0.3985 -0.3419
  387MOL0     C53335   6.473   9.128   8.226 -0.2088  0.7677  0.3958
  387MOL0     C53336   6.358   9.027   8.236  0.4166  1.0129  1.3390
  387MOL0     H53337   6.331   9.308   7.739  1.1896  0.9334 -0.2603
  387MOL0     H53338   6.267   9.269   7.522 -0.5980 -0.1650 -0.0101
  387MOL0     H53339   6.226   9.215   7.272  0.8541  1.9698  3.8399
  387MOL0     H53340   6.180   9.088   7.399  3.0469 -3.8753  1.2317
  387MOL0     H53341   6.098   8.990   7.179  0.1911  0.3642 -1.9235
  387MOL0     H53342   6.247   9.043   7.100  0.1804 -4.1562 -2.1296
  387MOL0     H53343   6.245   8.800   7.129 -0.9384 -1.7628  0.5355
  387MOL0     H53344   6.385   8.875   7.207  0.5217 -2.6112 -1.2004
  387MOL0     H53345   6.188   8.868   7.408 -2.3684 -2.7761  2.6861
  387MOL0     H53346   6.167   8.714   7.319  0.9899 -0.0695  0.0233
  387MOL0     H53347   6.429   8.818   7.433  0.0312  1.1259 -1.0808
  387MOL0     H53348   6.393   8.647   7.383 -4.1112 -0.6260 -0.9765
  387MOL0     H53349   6.208   8.665   7.549 -1.6153  2.9769 -0.2038
  387MOL0     H53350   6.364   8.627   7.613  0.2784  1.8960  1.9558
  387MOL0     H53351   6.185   8.885   7.638  0.4922  2.6273  3.1761
  387MOL0     H53352   6.362   8.896   7.645 -1.5243  1.0251 -1.5127
  387MOL0     H53353   6.347   8.700   7.826 -0.3692 -0.5901  0.1302
  387MOL0     H53354   6.288   8.858   7.883 -0.5214 -0.2400  0.5546
  387MOL0     H53355   6.121   8.510   7.768  1.6623  0.8096 -0.8037
  387MOL0     H53356   5.859   8.407   7.808  0.5099  0.1606  0.8138
  387MOL0     H53357   5.769   8.548   7.751  0.2343 -0.1679 -0.9376
  387MOL0     H53358   5.688   8.595   7.973  1.7598  0.3245  0.8678
  387MOL0     H53359   5.656   8.434   7.931  2.3857 -1.9932 -0.7047
  387MOL0     H53360   5.847   8.332   8.081  0.3891 -0.6143 -1.8897
  387MOL0     H53361   5.870   8.507   8.120 -1.3755 -0.0563  0.3233
  387MOL0     H53362   5.629   8.503   8.201  0.1452  0.1960  0.5767
  387MOL0     H53363   5.602   8.351   8.137 -2.6095  3.9376 -2.0356
  387MOL0     H53364   5.637   8.113   8.337 -1.3362 -1.6367  0.3621
  387MOL0     H53365   5.372   7.956   8.472  1.9432 -0.7948 -0.7182
  387MOL0     H53366   5.483   7.984   8.606 -2.8863  0.2943 -0.0156
  387MOL0     H53367   5.533   7.952   8.437 -0.3405 -3.0700  1.1545
  387MOL0     H53368   5.274   8.028   8.872  0.9590  2.7506  0.0125
  387MOL0     H53369   5.113   8.019   9.067 -2.0275 -3.0958  0.0307
  387MOL0     H53370   4.693   8.167   8.983 -0.1572  1.8874  0.7718
  387MOL0     H53371   4.672   7.992   9.024 -0.9038  1.5088  0.5325
  387MOL0     H53372   4.691   8.033   9.249  2.6169  1.1589 -1.0844
  387MOL0     H53373   4.738   8.199   9.233  2.3454 -2.6953  1.8148
  387MOL0     H53374   4.471   8.104   9.110  1.6315  2.3804 -3.6302
  387MOL0     H53375   4.525   8.270   9.133 -0.4379 -2.1024 -2.1886
  387MOL0     H53376   4.452   8.070   9.364  1.6916  1.0337  1.0411
  387MOL0     H53377   4.340   8.179   9.297 -0.2663  0.2004  0.8526
  387MOL0     H53378   4.588   8.276   9.427  0.1494  0.2453 -2.1297
  387MOL0     H53379   4.459   8.368   9.352 -0.1108  0.6840 -0.8574
  387MOL0     H53380   4.398   8.174   9.581 -3.1153 -1.0677 -0.4713
  387MOL0     H53381   4.289   8.285   9.525  0.0840 -1.5514  2.2147
  387MOL0     H53382   4.440   8.479   9.611  0.3364  0.3676  0.2030
  387MOL0     H53383   4.535   8.342   9.685  0.5151  0.5246 -1.5340
  387MOL0     H53384   4.410   8.380   9.872  0.1275  2.6341 -0.7635
  387MOL0     H53385   4.282   8.299   9.781  0.6562 -0.3937 -1.0262
  387MOL0     H53386   4.795   8.149   8.807 -1.0569 -1.5911  1.5862
  387MOL0     H53387   4.945   8.159   8.621 -1.8351  0.2347  1.0279
  387MOL0     H53388   5.386   8.484   8.574 -2.4066 -0.2832 -0.0695
  387MOL0     H53389   5.565   8.534   8.417  0.3294 -0.2724 -2.8930
  387MOL0     H53390   6.587   9.010   7.447 -0.2493 -0.4563 -0.5835
  387MOL0     H53391   6.664   9.033   7.687 -0.2051 -0.8992 -1.8851
  387MOL0     H53392   6.706   9.296   8.022 -0.3349 -0.6160 -1.0563
  387MOL0     H53393   6.764   9.368   8.250  0.8706 -1.3737  1.1575
  387MOL0     H53394   6.580   9.265   8.631  0.5807  0.2490  1.4238
  387MOL0     H53395   6.656   9.109   8.575 -0.9005  0.4102  0.2386
  387MOL0     H53396   6.759   9.329   8.753  0.2264 -0.9329  3.1152
  387MOL0     H53397   6.875   9.254   8.652  0.0561 -0.8216 -0.1195
  387MOL0     H53398   6.790   9.016   8.744 -0.8209 -0.9534 -0.1352
  387MOL0     H53399   6.893   9.126   8.838 -0.0324  1.0838  0.9000
  387MOL0     H53400   6.596   9.098   8.839  0.4245  1.6627 -0.2401
  387MOL0     H53401   6.677   9.214   8.949 -0.6624 -1.5516  1.5567
  387MOL0     H53402   6.727   8.836   9.152 -0.0632  0.2965  1.1213
  387MOL0     H53403   6.476   9.131   8.430  0.8393  0.8788  0.2450
  387MOL0     H53404   6.277   9.054   8.168 -0.3736  0.5833  2.0925
  387MOL0     H53405   6.392   8.926   8.212 -1.2876  0.3788  1.4099
  387MOL0     H53406   6.310   9.006   8.332 -0.3953 -5.0685  0.0092
  388MOL0     O53407   8.636   6.285   4.854  0.5204 -1.1114 -0.3119
  388MOL0     C53408   8.744   6.321   4.909 -1.1920  0.1848  1.0469
  388MOL0     O53409   8.872   6.262   4.888  1.3062 -0.3838 -0.3831
  388MOL0     C53410   8.884   6.143   4.825  1.1431  0.0234  0.1656
  388MOL0     C53411   8.795   6.083   4.732 -0.7089 -1.2699 -0.6745
  388MOL0     C53412   8.829   5.958   4.690 -0.1126  0.4470  0.4970
  388MOL0     C53413   8.957   5.898   4.724 -0.2223  0.2248  0.5690
  388MOL0     O53414   8.973   5.776   4.673 -0.2226  0.4440 -0.1082
  388MOL0     C53415   9.089   5.695   4.697  0.3744 -0.2996 -0.4415
  388MOL0     C53416   9.061   5.566   4.638  0.1211  0.0057  0.3638
  388MOL0     C53417   8.961   5.473   4.710 -0.3918 -0.9858 -0.7415
  388MOL0     C53418   8.984   5.459   4.858 -0.5010 -0.2294  0.0356
  388MOL0     C53419   8.928   5.322   4.897 -0.2315 -0.3330 -0.1337
  388MOL0     C53420   9.024   5.212   4.887  0.4307  1.2995  0.1335
  388MOL0     C53421   8.972   5.103   4.977  0.6276  0.8758  0.6154
  388MOL0     C53422   8.837   5.035   4.945 -0.1382  0.6665 -0.2275
  388MOL0     N53423   8.859   4.943   4.838  0.1876 -0.0054 -0.4042
  388MOL0     C53424   8.847   4.976   4.704  0.2561 -0.1556  0.2128
  388MOL0     C53425   8.889   4.866   4.639  0.0565 -0.4546  0.8743
  388MOL0     C53426   8.900   4.854   4.492 -0.7872  0.3521  0.2577
  388MOL0     C53427   8.773   4.793   4.424  0.2649  0.0007 -0.5467
  388MOL0     C53428   8.798   4.645   4.385  0.2081 -0.5561  0.2499
  388MOL0     C53429   8.756   4.549   4.490  0.4789 -0.6951 -0.1116
  388MOL0     O53430   8.740   4.420   4.428  0.1964  0.5556 -0.5310
  388MOL0     C53431   8.695   4.317   4.500 -0.0816  0.0529 -0.3482
  388MOL0     C53432   8.555   4.295   4.504 -0.9154 -0.3472 -0.2902
  388MOL0     C53433   8.516   4.167   4.556  0.4721 -0.3095  0.1489
  388MOL0     C53434   8.368   4.139   4.564  0.5189 -0.5128  0.3938
  388MOL0     C53435   8.611   4.071   4.611  0.2941  0.0251 -0.3997
  388MOL0     C53436   8.572   3.937   4.672 -0.5103 -0.0084  0.8692
  388MOL0     O53437   8.672   3.848   4.718  0.1596  0.1639  0.2581
  388MOL0     C53438   8.644   3.738   4.795  1.3245  1.1304 -1.0497
  388MOL0     C53439   8.702   3.612   4.767 -0.6314  0.3535  0.0727
  388MOL0     C53440   8.676   3.494   4.852 -0.0596  0.1097  0.1841
  388MOL0     C53441   8.591   3.508   4.962 -0.6607 -0.0855 -0.2264
  388MOL0     O53442   8.562   3.406   5.047  0.3025 -0.6666 -0.1217
  388MOL0     C53443   8.499   3.289   5.000  0.8060  0.2839  0.6101
  388MOL0     C53444   8.351   3.279   5.049 -0.4588 -0.3741  0.3993
  388MOL0     C53445   8.329   3.311   5.200 -0.1565  0.3045 -0.3751
  388MOL0     C53446   8.328   3.461   5.247 -0.2325  0.3329  0.4307
  388MOL0     C53447   8.278   3.500   5.388  0.1669 -0.2697 -0.6589
  388MOL0     C53448   8.365   3.451   5.505  0.2128  0.1902  0.0823
  388MOL0     C53449   8.297   3.491   5.633 -0.1579  0.1318  0.2090
  388MOL0     C53450   8.372   3.429   5.744  0.4749  0.2586  1.8311
  388MOL0    Cl53451   8.299   3.499   5.885  0.2115  0.5361  0.0625
  388MOL0     C53452   8.540   3.638   4.991 -0.5815  0.1430  0.8905
  388MOL0     C53453   8.566   3.750   4.909 -0.1130 -0.0473  0.2134
  388MOL0     O53454   8.456   3.912   4.673 -0.3268  1.0359  0.2580
  388MOL0     C53455   8.749   4.107   4.623  0.0001 -0.6762 -0.0017
  388MOL0     C53456   8.791   4.229   4.562 -0.6818 -0.3016  0.1936
  388MOL0     N53457   8.919   4.772   4.732  0.4297  0.4613 -0.3060
  388MOL0     N53458   8.895   4.814   4.849  0.8268  0.5186  0.1000
  388MOL0     C53459   9.050   5.978   4.789 -1.1913 -0.1549  0.7279
  388MOL0     C53460   9.015   6.098   4.855  0.3677 -0.7992  0.4327
  388MOL0     C53461   8.740   6.466   4.955  0.7363  0.2606 -0.2509
  388MOL0     C53462   8.867   6.533   4.953 -0.7934 -0.9509  0.4375
  388MOL0     C53463   8.876   6.671   4.994  0.3064  0.2454 -0.2665
  388MOL0     C53464   8.764   6.733   5.045  0.2318 -0.1106 -0.1892
  388MOL0     O53465   8.756   6.864   5.082 -0.6888  0.5700  0.1630
  388MOL0     C53466   8.875   6.939   5.075  0.3052 -0.7630  0.2639
  388MOL0     C53467   8.852   7.083   5.140 -0.1127 -0.0989 -0.0677
  388MOL0     C53468   8.981   7.154   5.101 -0.2200  0.0250  0.6219
  388MOL0     C53469   8.956   7.225   4.963  0.9165 -0.0068  0.3725
  388MOL0     C53470   8.859   7.338   4.963 -0.1083 -0.6470  0.6968
  388MOL0     C53471   8.761   7.407   4.948  0.4640 -0.3814 -0.7174
  388MOL0     C53472   8.645   6.660   5.055 -0.4156  0.8427 -0.1386
  388MOL0     C53473   8.624   6.533   5.014  0.5026 -0.3144  0.2608
  388MOL0     C53474   8.486   6.476   5.028  0.6100 -0.1007 -0.1923
  388MOL0     H53475   8.698   6.125   4.709  0.4031  1.6748 -0.4157
  388MOL0     H53476   8.769   5.897   4.624  0.2374  0.4182  0.2025
  388MOL0     H53477   9.094   5.681   4.805 -1.1729 -1.3682 -0.4626
  388MOL0     H53478   9.185   5.730   4.660  1.1291 -1.5084  0.2946
  388MOL0     H53479   9.020   5.577   4.537  0.1003  1.1270  0.4872
  388MOL0     H53480   9.158   5.515   4.648  0.7206  1.3851  1.9560
  388MOL0     H53481   8.867   5.529   4.703  0.5221  0.7521  0.1602
  388MOL0     H53482   8.964   5.375   4.662 -0.3787 -1.5223  0.3262
  388MOL0     H53483   9.084   5.458   4.902  0.3983 -0.2224 -1.8851
  388MOL0     H53484   8.921   5.537   4.900 -1.3585 -0.6709 -0.3863
  388MOL0     H53485   8.839   5.288   4.843 -0.1736 -0.7307  0.0198
  388MOL0     H53486   8.886   5.341   4.997 -1.5895  2.5980 -1.1643
  388MOL0     H53487   9.028   5.171   4.786  0.3704 -2.0999  1.3796
  388MOL0     H53488   9.122   5.235   4.929 -1.5770  2.6805  4.7534
  388MOL0     H53489   8.982   5.138   5.080 -0.8074 -1.2003  1.5484
  388MOL0     H53490   9.046   5.023   4.968  2.1776  2.2993  0.1740
  388MOL0     H53491   8.803   4.972   5.028 -5.0291  2.4604 -0.4954
  388MOL0     H53492   8.758   5.108   4.922  0.6787  1.0905 -1.8013
  388MOL0     H53493   8.799   5.059   4.654  0.7776 -0.1396 -0.2708
  388MOL0     H53494   8.999   4.810   4.475  1.0899  3.1551  2.9082
  388MOL0     H53495   8.922   4.952   4.451  0.8559 -0.4644 -0.9385
  388MOL0     H53496   8.687   4.812   4.489 -0.8654 -2.1618 -1.3058
  388MOL0     H53497   8.740   4.863   4.347 -0.0543  1.3261  0.7518
  388MOL0     H53498   8.731   4.624   4.301  0.7219 -3.1418  0.4217
  388MOL0     H53499   8.905   4.639   4.363  0.1809 -1.4531  0.3274
  388MOL0     H53500   8.839   4.542   4.562  1.0601  1.3586 -0.4977
  388MOL0     H53501   8.670   4.573   4.553  1.7502 -0.5949  1.6614
  388MOL0     H53502   8.495   4.365   4.447 -1.7339  1.1047  2.2104
  388MOL0     H53503   8.350   4.044   4.514 -0.0508 -0.3369  0.2639
  388MOL0     H53504   8.302   4.208   4.511  0.8578 -0.7517 -0.3424
  388MOL0     H53505   8.328   4.155   4.665 -1.2761  4.1067 -0.7834
  388MOL0     H53506   8.773   3.611   4.684 -0.7824  1.4016 -0.0934
  388MOL0     H53507   8.742   3.411   4.828  0.6300  1.0151 -1.2556
  388MOL0     H53508   8.491   3.295   4.891  1.0077 -0.5636  0.5443
  388MOL0     H53509   8.544   3.193   5.027 -0.2747  0.4401  3.3113
  388MOL0     H53510   8.281   3.327   4.980 -0.3691 -4.7867 -3.2421
  388MOL0     H53511   8.337   3.171   5.033 -1.9859  0.0883 -1.8173
  388MOL0     H53512   8.411   3.258   5.249 -1.0815  0.3670  1.3134
  388MOL0     H53513   8.234   3.263   5.226  0.1735  0.7265  1.7239
  388MOL0     H53514   8.262   3.517   5.180 -0.0540 -0.6435 -0.5957
  388MOL0     H53515   8.429   3.501   5.243  0.0174 -0.1225  1.8272
  388MOL0     H53516   8.258   3.608   5.387 -2.1489 -0.6575 -2.2630
  388MOL0     H53517   8.179   3.455   5.399 -0.3078  0.7500 -0.6283
  388MOL0     H53518   8.465   3.494   5.498  1.0278 -0.4693  4.6503
  388MOL0     H53519   8.361   3.342   5.516 -0.3628  0.3677  1.9915
  388MOL0     H53520   8.194   3.455   5.645  0.2251 -2.5198 -3.0472
  388MOL0     H53521   8.316   3.599   5.635 -2.6928  0.6691 -0.2377
  388MOL0     H53522   8.479   3.446   5.739  0.8607 -1.5464 -4.1886
  388MOL0     H53523   8.356   3.321   5.759 -0.0480  0.2522  1.2660
  388MOL0     H53524   8.474   3.652   5.076 -0.3229  2.3039  0.8028
  388MOL0     H53525   8.527   3.844   4.948 -0.0683 -0.5948  1.6316
  388MOL0     H53526   8.825   4.053   4.679  1.2290  2.2248  1.3291
  388MOL0     H53527   8.898   4.248   4.563 -0.5873 -0.7824  1.8939
  388MOL0     H53528   9.155   5.955   4.808 -1.2865  1.5327  3.9921
  388MOL0     H53529   9.078   6.162   4.915 -1.2646  1.5615 -0.2515
  388MOL0     H53530   8.958   6.480   4.925 -0.1537  0.5897 -0.5173
  388MOL0     H53531   8.960   6.724   4.951 -0.9807  2.1910 -0.4988
  388MOL0     H53532   8.960   6.886   5.121  0.8412 -0.1471  0.0046
  388MOL0     H53533   8.892   6.947   4.967  1.0856 -1.0270  0.3548
  388MOL0     H53534   8.846   7.065   5.247  0.1267 -3.3943 -0.5050
  388MOL0     H53535   8.757   7.131   5.115 -0.9132 -0.7221  1.6485
  388MOL0     H53536   9.003   7.229   5.178  1.7037 -0.8657  1.0089
  388MOL0     H53537   9.068   7.088   5.095  0.4875  0.9839 -0.1700
  388MOL0     H53538   8.918   7.154   4.889 -2.0980  1.8498  0.0018
  388MOL0     H53539   9.051   7.267   4.927 -0.8956  0.9492 -3.9558
  388MOL0     H53540   8.684   7.477   4.924  0.4326  0.4241  1.5116
  388MOL0     H53541   8.564   6.721   5.093 -1.3124 -0.3964  0.0000
  388MOL0     H53542   8.482   6.370   5.055 -1.9384 -0.2937 -1.0478
  388MOL0     H53543   8.419   6.530   5.095  1.5945  1.0621 -0.1246
  388MOL0     H53544   8.440   6.480   4.929  2.8799  2.6686 -1.2583
  389MOL0     O53545   4.984   1.058   2.398  0.1547 -0.5784 -0.1034
  389MOL0     C53546   5.065   0.975   2.366  1.2388 -0.6184 -0.1359
  389MOL0     O53547   5.186   0.998   2.309  0.0895  0.8284  0.1483
  389MOL0     C53548   5.220   1.128   2.274  0.0373 -0.2162 -0.3686
  389MOL0     C53549   5.252   1.171   2.145 -0.8028  0.3979 -0.0424
  389MOL0     C53550   5.303   1.304   2.112  0.5034  0.2076  0.2691
  389MOL0     C53551   5.303   1.401   2.216  0.3390  1.1155 -0.8135
  389MOL0     O53552   5.363   1.520   2.185 -0.7026 -0.6459  0.6179
  389MOL0     C53553   5.482   1.516   2.107 -0.7170  0.3535 -0.0452
  389MOL0     C53554   5.584   1.623   2.131  1.2657 -0.4319 -0.2992
  389MOL0     C53555   5.706   1.588   2.059  0.5567  0.2273  0.4049
  389MOL0     C53556   5.801   1.711   2.030  1.2421 -0.5924  0.8203
  389MOL0     C53557   5.836   1.816   2.144  0.4879  0.4808 -0.9504
  389MOL0     C53558   5.901   1.745   2.278 -0.9368 -1.0938  0.0734
  389MOL0     C53559   5.958   1.858   2.370  0.5726 -0.3098 -1.1042
  389MOL0     C53560   5.858   1.967   2.421  1.4057  0.2953 -0.0677
  389MOL0     N53561   5.937   2.073   2.484 -0.1932  0.6474  0.6301
  389MOL0     C53562   6.001   2.057   2.602  0.3955 -0.0040 -1.1137
  389MOL0     C53563   6.080   2.167   2.610 -0.1577  0.7185 -0.3155
  389MOL0     C53564   6.176   2.198   2.723  0.3034 -0.8730  0.1618
  389MOL0     C53565   6.282   2.091   2.710 -0.4393  0.0854 -0.7965
  389MOL0     C53566   6.370   2.076   2.848 -0.0486 -0.7572  0.2823
  389MOL0     C53567   6.461   2.197   2.870 -0.7796 -1.0092  0.4034
  389MOL0     O53568   6.567   2.182   2.781  0.2662  0.3322  0.1773
  389MOL0     C53569   6.642   2.292   2.759  0.3599  0.9793  0.0967
  389MOL0     C53570   6.754   2.304   2.842  0.6733 -1.2347 -1.3620
  389MOL0     C53571   6.836   2.406   2.814 -1.0947  0.0742 -0.2350
  389MOL0     C53572   6.951   2.428   2.908  0.7557  0.3313 -0.6073
  389MOL0     C53573   6.819   2.500   2.706  0.0131 -0.2831 -1.3127
  389MOL0     C53574   6.899   2.619   2.690  0.0533 -0.1860  0.4718
  389MOL0     O53575   6.937   2.688   2.799 -0.5559  0.7982 -0.0250
  389MOL0     C53576   7.043   2.770   2.793 -0.4775  0.3443  0.6516
  389MOL0     C53577   7.031   2.901   2.839 -1.0830  0.4028  0.6337
  389MOL0     C53578   7.141   2.993   2.841  0.4010  1.4352 -0.2055
  389MOL0     C53579   7.268   2.936   2.813 -0.7343  0.3451 -0.5345
  389MOL0     O53580   7.368   3.036   2.810  0.1274 -0.4628  1.1889
  389MOL0     C53581   7.508   2.992   2.804 -1.2324 -0.7085  1.2953
  389MOL0     C53582   7.546   2.928   2.942 -0.0229 -0.0870 -0.3546
  389MOL0     C53583   7.685   2.857   2.921  0.1493  0.3424 -0.1702
  389MOL0     C53584   7.733   2.813   3.058 -0.1529  0.1045 -0.6872
  389MOL0     C53585   7.875   2.735   3.061  0.8742  0.0258 -0.4798
  389MOL0     C53586   7.907   2.677   3.198 -0.5826 -0.4603  0.5466
  389MOL0     C53587   8.045   2.598   3.194  0.0772  0.3948 -0.1238
  389MOL0     C53588   8.086   2.585   3.344 -0.1330  0.2759 -0.3801
  389MOL0    Cl53589   8.235   2.487   3.335 -0.3756 -0.2228  0.1956
  389MOL0     C53590   7.283   2.795   2.790 -1.1065  0.4141 -0.2746
  389MOL0     C53591   7.165   2.715   2.772 -0.0668 -0.8639  0.2211
  389MOL0     O53592   6.931   2.651   2.578 -0.6649  0.2836  0.1207
  389MOL0     C53593   6.714   2.478   2.619 -0.0972  0.1976 -0.7485
  389MOL0     C53594   6.620   2.379   2.652 -0.0231 -0.0634  0.8844
  389MOL0     N53595   6.052   2.245   2.506  0.1543 -0.0146 -0.0331
  389MOL0     N53596   5.964   2.194   2.430 -0.3522  0.5812 -0.2563
  389MOL0     C53597   5.250   1.359   2.345 -1.2705 -0.2335  0.4576
  389MOL0     C53598   5.229   1.225   2.374  0.0902  0.1954  0.5195
  389MOL0     C53599   5.020   0.837   2.391  0.0946  0.2601 -0.3267
  389MOL0     C53600   4.899   0.818   2.471  0.2776 -0.1079  0.0089
  389MOL0     C53601   4.858   0.696   2.516  0.7458  0.1335 -0.4945
  389MOL0     C53602   4.932   0.583   2.483  0.3013 -0.7309 -0.0512
  389MOL0     O53603   4.892   0.457   2.511 -0.4820  0.2626  0.6258
  389MOL0     C53604   4.833   0.427   2.642 -0.7391 -0.0120 -0.0755
  389MOL0     C53605   4.814   0.273   2.656 -0.0976  0.6652  0.1295
  389MOL0     C53606   4.815   0.228   2.801 -0.5317 -0.5213 -1.1431
  389MOL0     C53607   4.829   0.073   2.806  0.8910 -0.1167 -0.5386
  389MOL0     C53608   4.810   0.017   2.939 -0.0361  0.4902 -0.1049
  389MOL0     C53609   4.786  -0.034   3.048  0.0282  0.8277 -0.6960
  389MOL0     C53610   5.041   0.592   2.398 -0.2289  0.0330  0.2129
  389MOL0     C53611   5.078   0.716   2.342 -0.1522 -0.6686 -1.1823
  389MOL0     C53612   5.179   0.727   2.240  0.0062 -0.9976  0.2101
  389MOL0     H53613   5.244   1.096   2.067  0.7316 -0.5694  0.6985
  389MOL0     H53614   5.342   1.335   2.016  0.8905  5.1559  1.7593
  389MOL0     H53615   5.448   1.516   2.003 -0.2896  0.1513 -0.1864
  389MOL0     H53616   5.536   1.423   2.128 -0.8041  0.0841 -0.9751
  389MOL0     H53617   5.553   1.717   2.085  0.0248 -1.3075 -1.2983
  389MOL0     H53618   5.587   1.635   2.240  2.3006 -2.5096 -0.0439
  389MOL0     H53619   5.759   1.511   2.116 -2.5832 -0.9953  1.9369
  389MOL0     H53620   5.670   1.548   1.964  0.9609 -0.7166  0.6400
  389MOL0     H53621   5.897   1.668   1.999  1.3510  0.8311 -1.0124
  389MOL0     H53622   5.764   1.764   1.942 -0.2371 -2.5081  0.2143
  389MOL0     H53623   5.745   1.871   2.170  0.2897 -0.1415 -0.3209
  389MOL0     H53624   5.900   1.898   2.110  0.2366  1.6727  1.2218
  389MOL0     H53625   5.826   1.677   2.320 -1.7589  1.2248  2.6392
  389MOL0     H53626   5.984   1.685   2.240 -0.0552 -1.6968  2.7796
  389MOL0     H53627   6.040   1.908   2.319 -0.4660  0.3064 -2.2317
  389MOL0     H53628   6.011   1.813   2.454  0.3601  1.2228 -0.1026
  389MOL0     H53629   5.803   2.019   2.342  0.3060  1.5840  1.4725
  389MOL0     H53630   5.781   1.929   2.488 -0.8809  0.6487 -2.3357
  389MOL0     H53631   5.983   1.982   2.679  1.7932  1.9245  1.2392
  389MOL0     H53632   6.117   2.206   2.814 -0.1898 -0.5144 -0.1850
  389MOL0     H53633   6.220   2.296   2.702  0.1555 -1.2994 -2.6238
  389MOL0     H53634   6.235   1.992   2.701  1.0018 -0.6439 -0.5017
  389MOL0     H53635   6.351   2.119   2.630  0.2071  0.6112 -0.0622
  389MOL0     H53636   6.305   2.075   2.936  0.2018 -2.5554  0.4917
  389MOL0     H53637   6.445   1.998   2.835  1.5143  0.8918 -1.0822
  389MOL0     H53638   6.414   2.294   2.852  3.7105  1.3415  0.0280
  389MOL0     H53639   6.507   2.182   2.968  1.1225 -0.7300 -0.4107
  389MOL0     H53640   6.776   2.228   2.916  1.6119 -1.2647 -1.6673
  389MOL0     H53641   6.937   2.525   2.955  0.5486  0.7328 -1.4732
  389MOL0     H53642   7.045   2.436   2.853  1.0171  0.4486 -0.1488
  389MOL0     H53643   6.962   2.346   2.979  1.5079  0.0717 -1.0033
  389MOL0     H53644   6.932   2.933   2.870 -0.9237  2.6691 -0.9218
  389MOL0     H53645   7.114   3.095   2.864 -0.5524  0.8795  1.3193
  389MOL0     H53646   7.546   2.925   2.726 -0.4249  0.6241  0.5222
  389MOL0     H53647   7.566   3.084   2.805  2.6490 -2.9579  2.2195
  389MOL0     H53648   7.547   3.003   3.022 -1.7692 -2.8434  2.5110
  389MOL0     H53649   7.461   2.862   2.967  0.0566 -0.2718 -0.5678
  389MOL0     H53650   7.760   2.918   2.870  0.2834  0.3425  0.0201
  389MOL0     H53651   7.650   2.778   2.854 -3.4516  0.9356  0.7819
  389MOL0     H53652   7.645   2.770   3.108 -0.9162  1.6378 -0.6579
  389MOL0     H53653   7.752   2.899   3.122  0.7244 -0.7868  0.2858
  389MOL0     H53654   7.855   2.655   2.989  1.0485  0.1984 -0.7203
  389MOL0     H53655   7.952   2.801   3.020 -1.0878 -0.2721 -5.3444
  389MOL0     H53656   7.827   2.605   3.216 -0.7451 -0.5837 -0.5865
  389MOL0     H53657   7.898   2.752   3.277  1.9495 -4.0121  4.7045
  389MOL0     H53658   8.126   2.642   3.135 -0.0268  0.5735 -0.1313
  389MOL0     H53659   8.026   2.495   3.163 -1.6572 -0.2816  2.7834
  389MOL0     H53660   8.012   2.526   3.399  1.4789 -0.7261  0.8041
  389MOL0     H53661   8.108   2.683   3.389  0.2732  0.2035 -0.4134
  389MOL0     H53662   7.386   2.764   2.782 -0.8630  1.2807 -0.7091
  389MOL0     H53663   7.177   2.610   2.750  0.7171 -1.1072  1.6837
  389MOL0     H53664   6.712   2.536   2.527  2.9068 -0.1772 -1.1491
  389MOL0     H53665   6.544   2.356   2.578  0.9082 -0.3782 -0.0024
  389MOL0     H53666   5.244   1.431   2.426 -0.9630 -0.1563  0.4143
  389MOL0     H53667   5.200   1.213   2.478 -1.2775  2.1971  0.4125
  389MOL0     H53668   4.834   0.902   2.488  1.9594  2.1132 -3.3525
  389MOL0     H53669   4.766   0.683   2.571 -1.2257  2.5183 -2.9398
  389MOL0     H53670   4.911   0.451   2.714 -1.5543 -0.8274  1.1104
  389MOL0     H53671   4.743   0.485   2.664  2.5761  4.9105  2.1334
  389MOL0     H53672   4.899   0.224   2.608  3.5047  3.1959  3.3400
  389MOL0     H53673   4.722   0.244   2.603  0.0360  0.3983  0.0403
  389MOL0     H53674   4.890   0.281   2.861 -0.8322  1.6887 -2.6299
  389MOL0     H53675   4.722   0.250   2.854 -0.4757  1.6952 -1.8728
  389MOL0     H53676   4.936   0.057   2.790  0.8446  1.2464 -2.5075
  389MOL0     H53677   4.769   0.023   2.730 -2.1624  3.1603 -0.5421
  389MOL0     H53678   4.769  -0.059   3.151 -3.2830 -2.4310 -1.7809
  389MOL0     H53679   5.073   0.494   2.364 -0.2000  0.0035  0.3243
  389MOL0     H53680   5.273   0.774   2.268  0.3072  0.8187 -3.2354
  389MOL0     H53681   5.190   0.626   2.200  3.0451 -0.4463 -0.5894
  389MOL0     H53682   5.140   0.799   2.166 -2.1368  0.7434  2.8199
  390MOL0     O53683   1.440   4.675  10.585 -0.0462 -0.9386 -1.0285
  390MOL0     C53684   1.463   4.776  10.507 -0.5566 -0.5099 -0.1774
  390MOL0     O53685   1.397   4.889  10.511 -0.2953 -0.0003 -0.1324
  390MOL0     C53686   1.278   4.887  10.581  0.8582 -1.2946  0.9753
  390MOL0     C53687   1.261   4.939  10.708  0.1187 -0.0354 -0.2102
  390MOL0     C53688   1.136   4.922  10.773  0.2972 -0.2348 -0.3273
  390MOL0     C53689   1.025   4.852  10.713 -0.1555 -1.3900 -0.1657
  390MOL0     O53690   0.924   4.827  10.793  0.3212 -0.3717 -0.4537
  390MOL0     C53691   0.854   4.699  10.807  0.7380  0.2767  0.6754
  390MOL0     C53692   0.812   4.695  10.953  0.3740  0.8822 -0.9184
  390MOL0     C53693   0.661   4.688  10.977  0.8486  0.3015  0.3835
  390MOL0     C53694   0.625   4.708  11.127  0.1287  0.0911  0.0919
  390MOL0     C53695   0.497   4.786  11.141  0.0960  0.3810  0.0186
  390MOL0     C53696   0.466   4.787  11.285  1.3230  0.3272 -0.3823
  390MOL0     C53697   0.320   4.848  11.304 -0.3603  0.7093  0.7022
  390MOL0     C53698   0.301   5.002  11.283  0.4979 -0.0522  0.1207
  390MOL0     N53699   0.289   5.056  11.141  0.0910 -0.2783 -0.2252
  390MOL0     C53700   0.178   5.034  11.060  0.1826  0.1508  0.7014
  390MOL0     C53701   0.196   5.117  10.955 -0.2333  0.2601  0.7598
  390MOL0     C53702   0.107   5.145  10.835  0.1339 -0.1870 -0.5711
  390MOL0     C53703   0.107   5.044  10.717  0.0368  0.5526 -0.1146
  390MOL0     C53704   0.002   4.933  10.740  0.5849  0.5217  0.2338
  390MOL0     C53705  -0.009   4.835  10.629 -0.6767  0.2964 -0.7501
  390MOL0     O53706   0.113   4.773  10.603 -0.3532 -0.0192  0.7387
  390MOL0     C53707   0.142   4.699  10.486  0.5848 -1.4037  0.0165
  390MOL0     C53708   0.047   4.665  10.386 -1.1506  0.5070 -0.5639
  390MOL0     C53709   0.092   4.604  10.266  0.2439 -0.3510  0.0669
  390MOL0     C53710  -0.014   4.582  10.151 -0.0138  1.2268 -0.0865
  390MOL0     C53711   0.229   4.568  10.255  0.6977 -0.2440  0.8825
  390MOL0     C53712   0.299   4.521  10.131 -0.0922 -0.3306  0.3540
  390MOL0     O53713   0.430   4.476  10.138  0.4964 -0.8726  0.8743
  390MOL0     C53714   0.500   4.441  10.027 -0.1985  0.5529  0.7039
  390MOL0     C53715   0.611   4.517   9.990 -0.3064  0.1109  0.1894
  390MOL0     C53716   0.674   4.482   9.872  0.1323 -0.1416  0.5303
  390MOL0     C53717   0.624   4.376   9.791  1.1026  0.8275 -0.9799
  390MOL0     O53718   0.693   4.345   9.675  0.3819 -0.8075 -0.1564
  390MOL0     C53719   0.705   4.207   9.638 -0.4546  0.3556  0.3011
  390MOL0     C53720   0.778   4.191   9.501  0.0857  0.2891  0.3975
  390MOL0     C53721   0.684   4.208   9.385 -0.3184  0.1529  0.5625
  390MOL0     C53722   0.764   4.245   9.266  0.0842 -0.5111  0.0403
  390MOL0     C53723   0.699   4.230   9.127 -0.4610 -0.2214 -0.3280
  390MOL0     C53724   0.583   4.321   9.101  0.9312 -0.2794  0.8868
  390MOL0     C53725   0.550   4.294   8.943  1.1034 -0.2584  0.1422
  390MOL0     C53726   0.428   4.196   8.930 -0.5970 -0.7541  0.4037
  390MOL0    Cl53727   0.381   4.201   8.753 -0.4749 -0.3137 -0.4763
  390MOL0     C53728   0.511   4.308   9.832  0.3346  0.3550  0.3502
  390MOL0     C53729   0.451   4.340   9.947 -0.6115 -0.1586 -0.4370
  390MOL0     O53730   0.232   4.522  10.026 -1.1785  0.0904 -0.2280
  390MOL0     C53731   0.316   4.594  10.366 -0.6740  0.7569  0.1636
  390MOL0     C53732   0.270   4.649  10.479 -0.5756 -0.7627 -0.3780
  390MOL0     N53733   0.312   5.190  10.979  0.1877 -0.5109 -0.2551
  390MOL0     N53734   0.369   5.159  11.091 -0.0954  0.8834  0.2665
  390MOL0     C53735   1.051   4.797  10.595 -0.4181 -0.7379  0.1669
  390MOL0     C53736   1.169   4.820  10.525  0.1100  0.7866  0.8735
  390MOL0     C53737   1.593   4.778  10.433 -0.0615  0.1036  0.4452
  390MOL0     C53738   1.616   4.896  10.344 -0.8601  0.3795 -0.1480
  390MOL0     C53739   1.725   4.910  10.261 -0.1057  1.7591 -0.0677
  390MOL0     C53740   1.828   4.815  10.279 -0.2083  0.3498  1.0569
  390MOL0     O53741   1.944   4.837  10.201 -0.2098  0.8593 -0.4390
  390MOL0     C53742   2.061   4.761  10.237 -0.2541 -0.0854  0.2769
  390MOL0     C53743   2.176   4.813  10.153  0.4421  0.0579  0.6488
  390MOL0     C53744   2.144   4.811  10.005 -0.0979 -0.2269 -0.5900
  390MOL0     C53745   2.274   4.841   9.929  0.6121 -0.1626  0.2293
  390MOL0     C53746   2.242   4.846   9.794 -0.0309 -0.7794 -0.3246
  390MOL0     C53747   2.201   4.872   9.685  1.2831 -0.1892  0.1964
  390MOL0     C53748   1.816   4.707  10.371  0.2702  0.2395  0.1362
  390MOL0     C53749   1.703   4.693  10.449  0.2655  0.4634  0.0284
  390MOL0     C53750   1.702   4.589  10.565 -0.1698 -1.1387  1.1431
  390MOL0     H53751   1.338   4.994  10.760  1.1535 -2.0304  0.4886
  390MOL0     H53752   1.129   4.982  10.864  2.5060 -1.4956  0.7668
  390MOL0     H53753   0.926   4.617  10.805  1.7781  1.1722 -0.5645
  390MOL0     H53754   0.772   4.681  10.737  1.7976  0.0124 -0.5420
  390MOL0     H53755   0.865   4.611  10.999 -0.8094  1.3590  1.4930
  390MOL0     H53756   0.849   4.785  11.002  0.7174  0.9169 -1.2350
  390MOL0     H53757   0.611   4.763  10.915  2.1154  0.6664 -0.2297
  390MOL0     H53758   0.622   4.587  10.962  4.7363 -1.4923  1.0647
  390MOL0     H53759   0.615   4.613  11.179 -1.0060  1.2504  2.1395
  390MOL0     H53760   0.702   4.765  11.182  0.4288 -0.7381  0.5441
  390MOL0     H53761   0.416   4.741  11.083  0.4488 -0.3604  0.0896
  390MOL0     H53762   0.506   4.880  11.086  0.8486 -0.6412 -1.6935
  390MOL0     H53763   0.468   4.688  11.330  1.3343  0.6879  0.4449
  390MOL0     H53764   0.552   4.840  11.329  5.4025 -3.9929 -2.2500
  390MOL0     H53765   0.297   4.820  11.407 -0.2277 -1.3903  0.1996
  390MOL0     H53766   0.262   4.790  11.232  1.3638 -1.0084  0.6265
  390MOL0     H53767   0.202   5.023  11.325  2.1410  2.7689  3.0042
  390MOL0     H53768   0.363   5.067  11.345 -0.7141  1.0158  0.2549
  390MOL0     H53769   0.099   4.961  11.074 -0.2086  0.0419 -1.7171
  390MOL0     H53770   0.149   5.241  10.805  1.1283  0.2252  1.9205
  390MOL0     H53771   0.007   5.178  10.865  0.5629  2.0888 -1.4538
  390MOL0     H53772   0.082   5.091  10.622  2.8301 -3.1713 -3.0170
  390MOL0     H53773   0.210   5.008  10.717  1.5401  4.3686  0.6192
  390MOL0     H53774   0.031   4.871  10.825  2.6121  2.6688  1.2489
  390MOL0     H53775  -0.090   4.991  10.751  1.5329  2.0640  0.4693
  390MOL0     H53776  -0.087   4.761  10.647  1.7137 -2.2299 -0.2507
  390MOL0     H53777  -0.051   4.882  10.540  1.2998  1.5935 -1.0690
  390MOL0     H53778  -0.057   4.697  10.394 -1.0497  0.9683 -1.0449
  390MOL0     H53779  -0.016   4.666  10.080 -5.1531 -0.2191 -2.0583
  390MOL0     H53780  -0.116   4.597  10.188 -0.4977  0.9276 -1.2622
  390MOL0     H53781  -0.008   4.495  10.085  0.7765  1.8991 -0.9285
  390MOL0     H53782   0.635   4.601  10.055 -1.3944  1.7725 -1.4302
  390MOL0     H53783   0.761   4.541   9.846 -0.5681  0.7671  0.2302
  390MOL0     H53784   0.777   4.169   9.711  1.0708  3.9248  0.8168
  390MOL0     H53785   0.608   4.156   9.630  0.8242 -2.5038  1.5536
  390MOL0     H53786   0.853   4.271   9.504 -1.3019  1.6863 -0.6486
  390MOL0     H53787   0.823   4.091   9.497 -0.9510 -0.1655 -2.5087
  390MOL0     H53788   0.602   4.277   9.408 -0.0161  0.7896 -0.2200
  390MOL0     H53789   0.645   4.111   9.352  3.0324 -0.5260 -1.9289
  390MOL0     H53790   0.856   4.186   9.273 -0.0304 -0.5490  1.6827
  390MOL0     H53791   0.778   4.350   9.292 -0.7743 -0.0630 -1.2194
  390MOL0     H53792   0.777   4.251   9.054 -1.3384 -0.3864 -1.3310
  390MOL0     H53793   0.669   4.128   9.103 -1.8594  0.8415 -3.6228
  390MOL0     H53794   0.600   4.428   9.118 -1.8595  1.4917 -4.8013
  390MOL0     H53795   0.493   4.296   9.158  1.5020  0.8461  2.3299
  390MOL0     H53796   0.632   4.260   8.880  0.4104 -3.1776  0.6268
  390MOL0     H53797   0.511   4.388   8.902 -1.6788  0.1450  3.2588
  390MOL0     H53798   0.347   4.234   8.993 -0.2618 -1.3552  1.2178
  390MOL0     H53799   0.446   4.092   8.958 -1.4879 -0.8905  0.4850
  390MOL0     H53800   0.464   4.237   9.766  0.7077  2.1070 -1.9229
  390MOL0     H53801   0.371   4.279   9.988 -1.2258  0.0465 -1.3081
  390MOL0     H53802   0.418   4.558  10.360 -1.5390 -2.4613  2.2060
  390MOL0     H53803   0.341   4.663  10.559  1.8049 -1.4953 -2.2467
  390MOL0     H53804   0.971   4.751  10.539 -0.7400  0.8689 -0.7788
  390MOL0     H53805   1.189   4.786  10.424  1.9138  1.8973  0.8220
  390MOL0     H53806   1.538   4.969  10.326 -1.0407 -0.4664 -3.3793
  390MOL0     H53807   1.749   4.994  10.196  1.2610 -0.4265 -2.5950
  390MOL0     H53808   2.082   4.764  10.344 -1.8496 -0.6418  0.6434
  390MOL0     H53809   2.033   4.657  10.215 -3.4722  0.3286  1.8174
  390MOL0     H53810   2.254   4.736  10.164 -2.7391 -3.4679  0.5403
  390MOL0     H53811   2.212   4.911  10.185  0.1788  0.1827  0.5573
  390MOL0     H53812   2.102   4.714   9.978 -0.0655 -0.3962 -0.0546
  390MOL0     H53813   2.071   4.890   9.985  0.4303  0.0581 -1.4282
  390MOL0     H53814   2.335   4.751   9.942  2.0819  0.0079 -3.9485
  390MOL0     H53815   2.325   4.932   9.962 -2.6701  1.4561  1.2554
  390MOL0     H53816   2.199   4.887   9.579  0.7292  0.3415  0.2766
  390MOL0     H53817   1.897   4.647  10.412 -2.5281 -2.2646  2.5254
  390MOL0     H53818   1.677   4.639  10.659 -1.1245 -0.4310  0.5328
  390MOL0     H53819   1.638   4.502  10.549  1.8600 -2.5934  0.5054
  390MOL0     H53820   1.795   4.538  10.592 -0.3094 -1.2177  1.4797
  391MOL0     O53821  10.132   2.979   1.796  0.1543 -0.2701 -0.3506
  391MOL0     C53822  10.044   2.938   1.875 -1.1183  0.2395 -0.1093
  391MOL0     O53823  10.062   2.921   2.010  0.3572  0.7136  0.8142
  391MOL0     C53824  10.171   2.950   2.085 -0.3240 -1.2913  0.2998
  391MOL0     C53825  10.296   2.886   2.068  0.9011 -1.5686  0.0989
  391MOL0     C53826  10.406   2.924   2.143  0.6943 -0.7196 -0.0321
  391MOL0     C53827  10.396   3.016   2.249  0.2584  0.7212  0.3673
  391MOL0     O53828  10.498   3.080   2.313 -0.4509 -0.3660 -0.1909
  391MOL0     C53829  10.629   3.026   2.279 -0.2869 -0.1055  0.8692
  391MOL0     C53830  10.737   3.083   2.376  0.5706 -0.8130 -0.6248
  391MOL0     C53831  10.737   3.003   2.510  1.5934 -0.0910  0.8561
  391MOL0     C53832  10.795   3.081   2.623 -0.3982 -0.3146 -0.0100
  391MOL0     C53833  10.821   2.998   2.745  0.2768 -0.3057 -0.0014
  391MOL0     C53834  10.883   3.076   2.851 -0.1999 -1.0082  0.3971
  391MOL0     C53835  10.909   3.005   2.983  0.6143  0.5848  0.0711
  391MOL0     C53836  10.954   3.086   3.100  0.1412 -0.9211  0.6501
  391MOL0     N53837  11.094   3.128   3.072 -0.1996 -0.9293  0.1901
  391MOL0     C53838  11.211   3.067   3.123  0.1349 -0.5802  1.2994
  391MOL0     C53839  11.309   3.151   3.086 -0.2225  0.4038 -0.2765
  391MOL0     C53840  11.448   3.102   3.118 -0.2074 -0.2376  0.3811
  391MOL0     C53841  11.531   3.212   3.173  0.1983 -0.6929  0.4265
  391MOL0     C53842  11.651   3.177   3.263 -0.1428  0.6352  0.1089
  391MOL0     C53843  11.707   3.298   3.326 -0.0087 -0.2172 -0.3774
  391MOL0     O53844  11.780   3.267   3.441  0.3745  0.7744 -0.5803
  391MOL0     C53845  11.847   3.374   3.507 -0.5540  0.2667  0.8182
  391MOL0     C53846  11.936   3.330   3.611  0.4852 -0.3292  0.0520
  391MOL0     C53847  12.013   3.424   3.677 -0.1971  0.6938 -0.4093
  391MOL0     C53848  12.102   3.360   3.782  0.0340 -0.8824  0.3130
  391MOL0     C53849  11.994   3.559   3.654 -0.2894 -0.0775 -0.0052
  391MOL0     C53850  12.075   3.658   3.735  0.1626 -0.8973 -0.9932
  391MOL0     O53851  12.089   3.790   3.690  0.3456  0.0736  0.7082
  391MOL0     C53852  12.126   3.882   3.774  0.8112 -0.3393 -0.6825
  391MOL0     C53853  12.063   3.994   3.732  0.6363 -0.1702 -0.2338
  391MOL0     C53854  12.090   4.121   3.799 -0.4342 -0.6264 -0.3449
  391MOL0     C53855  12.181   4.131   3.910 -0.0482 -0.0604 -0.0779
  391MOL0     O53856  12.186   4.259   3.972  0.2087  0.1906  0.4060
  391MOL0     C53857  12.250   4.262   4.100 -0.5468  0.3889 -0.8082
  391MOL0     C53858  12.175   4.204   4.222  0.5050 -0.0289 -0.5140
  391MOL0     C53859  12.223   4.251   4.360 -0.1001 -0.1091  0.3571
  391MOL0     C53860  12.160   4.377   4.420  1.4179 -0.5876  0.0140
  391MOL0     C53861  12.243   4.481   4.484  0.4567 -0.3026 -0.4685
  391MOL0     C53862  12.330   4.561   4.381 -0.1170 -0.2341 -0.6057
  391MOL0     C53863  12.405   4.668   4.467  0.2577 -0.0734  0.2652
  391MOL0     C53864  12.516   4.732   4.392 -0.7968 -0.1093 -0.4083
  391MOL0    Cl53865  12.468   4.809   4.235 -0.5351 -0.4786  0.4541
  391MOL0     C53866  12.239   4.012   3.952  0.9121  0.4734  0.0565
  391MOL0     C53867  12.205   3.886   3.893 -0.9797  0.9355  0.0483
  391MOL0     O53868  12.093   3.622   3.853  0.3181  0.2853  0.3896
  391MOL0     C53869  11.911   3.599   3.543  0.6062  0.1706 -0.2044
  391MOL0     C53870  11.827   3.507   3.479 -0.0068 -0.3457  0.3595
  391MOL0     N53871  11.256   3.262   3.022  0.4328  0.6154 -0.2844
  391MOL0     N53872  11.131   3.239   3.003  0.7133  0.1699  0.5093
  391MOL0     C53873  10.269   3.073   2.284 -0.5885 -0.6565  0.9782
  391MOL0     C53874  10.160   3.045   2.195 -0.7143  0.6422 -0.9498
  391MOL0     C53875   9.907   2.912   1.829  0.2688  0.2402 -0.5377
  391MOL0     C53876   9.884   2.820   1.730 -0.3687  0.5250 -0.1429
  391MOL0     C53877   9.747   2.781   1.695 -0.3448 -0.9087  0.6018
  391MOL0     C53878   9.636   2.846   1.756 -0.1565 -0.4641  0.8074
  391MOL0     O53879   9.505   2.806   1.725 -0.1810  0.4743 -0.6038
  391MOL0     C53880   9.490   2.671   1.703  0.0747 -0.1430 -0.1237
  391MOL0     C53881   9.343   2.648   1.739  0.6517 -0.0309 -0.0349
  391MOL0     C53882   9.294   2.503   1.747  0.4010  0.1504  0.8078
  391MOL0     C53883   9.172   2.481   1.823 -0.0957  0.4356  0.4381
  391MOL0     C53884   9.152   2.339   1.843 -0.2562 -0.1406 -0.1194
  391MOL0     C53885   9.123   2.220   1.865  0.8255 -0.2219 -0.1358
  391MOL0     C53886   9.657   2.943   1.852 -0.2918  0.2269  0.1482
  391MOL0     C53887   9.791   2.971   1.901  0.2229 -0.3889 -0.4260
  391MOL0     C53888   9.796   3.052   2.027  0.0130 -1.1243  0.0021
  391MOL0     H53889  10.305   2.816   1.986  1.7108 -0.0685 -1.1463
  391MOL0     H53890  10.493   2.875   2.099  2.3982  0.5188  1.8118
  391MOL0     H53891  10.667   3.048   2.179  2.0602  0.6468  1.8489
  391MOL0     H53892  10.626   2.917   2.293 -1.2466 -0.5661 -2.2050
  391MOL0     H53893  10.833   3.077   2.325  2.6205  0.8929  2.6284
  391MOL0     H53894  10.726   3.188   2.407  1.9089  0.0837 -2.9763
  391MOL0     H53895  10.638   2.960   2.524  0.3075  2.0453 -0.9439
  391MOL0     H53896  10.794   2.913   2.485 -1.5319 -2.1469  0.5664
  391MOL0     H53897  10.874   3.151   2.593 -1.0377  0.0530 -0.8622
  391MOL0     H53898  10.720   3.152   2.658  1.1202  0.4297  1.9839
  391MOL0     H53899  10.888   2.922   2.706  0.1441 -0.0312 -0.7691
  391MOL0     H53900  10.730   2.949   2.782 -1.9068  2.6063 -1.0841
  391MOL0     H53901  10.972   3.130   2.817 -0.8764 -0.2650 -0.2660
  391MOL0     H53902  10.820   3.159   2.886  0.6965 -1.0479  2.2442
  391MOL0     H53903  10.991   2.939   2.957  1.6371  0.7378  2.6103
  391MOL0     H53904  10.815   2.954   3.007  0.5982  1.6320  2.5651
  391MOL0     H53905  10.884   3.169   3.111  3.3566  2.1650 -0.1689
  391MOL0     H53906  10.964   3.021   3.188  0.9330 -0.7371  0.7075
  391MOL0     H53907  11.233   2.973   3.173  0.3519  0.9051  4.2299
  391MOL0     H53908  11.492   3.063   3.026 -1.1823 -0.1730 -0.1254
  391MOL0     H53909  11.451   3.014   3.184  2.9894  0.5991  1.5407
  391MOL0     H53910  11.567   3.275   3.091  0.2004 -1.6115 -0.2902
  391MOL0     H53911  11.465   3.275   3.234 -0.2090 -0.6216 -0.0740
  391MOL0     H53912  11.614   3.111   3.341  1.5742  1.7288  1.9260
  391MOL0     H53913  11.740   3.136   3.214 -1.0345  0.6104 -1.5679
  391MOL0     H53914  11.759   3.364   3.255  0.5367  0.6075  0.7482
  391MOL0     H53915  11.617   3.348   3.365  0.3727 -1.1301  1.7903
  391MOL0     H53916  11.968   3.227   3.617  4.1309  0.5158 -2.0389
  391MOL0     H53917  12.205   3.387   3.757  0.0929 -0.2374  1.1848
  391MOL0     H53918  12.107   3.251   3.783  0.8616 -0.9324 -2.6505
  391MOL0     H53919  12.066   3.389   3.882 -0.7712 -1.3820  0.1726
  391MOL0     H53920  11.993   3.981   3.650  0.7179 -0.5352 -0.2488
  391MOL0     H53921  12.037   4.209   3.762 -0.5068 -0.1108  0.9289
  391MOL0     H53922  12.354   4.229   4.111 -0.7210 -0.1509 -0.7538
  391MOL0     H53923  12.277   4.367   4.116  1.6287  0.5028 -4.1797
  391MOL0     H53924  12.066   4.217   4.216  0.6343  0.6697 -1.5173
  391MOL0     H53925  12.203   4.098   4.223  0.0409 -0.1697  1.2564
  391MOL0     H53926  12.332   4.259   4.358 -0.1087  0.7229  1.9076
  391MOL0     H53927  12.198   4.174   4.433 -2.2092  0.6738  0.5166
  391MOL0     H53928  12.103   4.330   4.500  1.2843 -1.1555 -0.4005
  391MOL0     H53929  12.095   4.422   4.345 -2.2178  0.8686  3.6742
  391MOL0     H53930  12.181   4.538   4.553  1.2507  0.4070 -0.3261
  391MOL0     H53931  12.325   4.434   4.540  3.0400  2.7930 -1.3404
  391MOL0     H53932  12.262   4.610   4.310  1.0104  3.7998  0.8351
  391MOL0     H53933  12.400   4.488   4.339 -0.5076  0.3142 -2.2892
  391MOL0     H53934  12.437   4.624   4.562 -0.9822  2.2102  1.8442
  391MOL0     H53935  12.326   4.740   4.492 -1.2611 -1.8517  0.8473
  391MOL0     H53936  12.580   4.646   4.369 -1.7869 -1.9937  3.0290
  391MOL0     H53937  12.565   4.803   4.460 -1.5661  0.2866 -0.2612
  391MOL0     H53938  12.301   4.012   4.041  2.4569 -4.1244 -0.7481
  391MOL0     H53939  12.250   3.800   3.941 -1.3593 -0.3580 -1.7898
  391MOL0     H53940  11.914   3.704   3.514 -2.3327  0.4741  0.2655
  391MOL0     H53941  11.757   3.550   3.408 -0.7235 -3.0792 -0.7422
  391MOL0     H53942  10.267   3.153   2.356  1.0833  1.5973 -1.2983
  391MOL0     H53943  10.064   3.091   2.219 -1.0844 -1.1383  1.3998
  391MOL0     H53944   9.979   2.780   1.695 -0.7797 -2.7899  2.1043
  391MOL0     H53945   9.732   2.703   1.622  0.1008 -1.6489  1.2809
  391MOL0     H53946   9.518   2.652   1.599  0.5762 -0.6286  0.0885
  391MOL0     H53947   9.563   2.619   1.767  3.5850  2.4083 -1.6992
  391MOL0     H53948   9.284   2.706   1.667  0.9138  0.2552 -0.0263
  391MOL0     H53949   9.326   2.685   1.841 -0.2054  0.1046 -0.2209
  391MOL0     H53950   9.283   2.473   1.642  1.8039  2.4141 -0.0634
  391MOL0     H53951   9.368   2.436   1.790 -0.5815 -0.0451  2.2726
  391MOL0     H53952   9.092   2.525   1.762 -1.6754  0.0750  2.1506
  391MOL0     H53953   9.178   2.545   1.911  3.0983  1.1010 -0.1706
  391MOL0     H53954   9.094   2.121   1.894 -1.8643  1.0231  1.8916
  391MOL0     H53955   9.566   2.965   1.908 -2.7650 -3.0381 -2.1690
  391MOL0     H53956   9.859   2.995   2.095 -2.0567 -1.5936  1.6394
  391MOL0     H53957   9.830   3.156   2.018 -0.9806 -0.6202  1.6136
  391MOL0     H53958   9.698   3.056   2.076 -0.0431  0.8049 -0.1868
  392MOL0     O53959   9.399  10.852   2.516  0.6957 -0.6389 -0.5216
  392MOL0     C53960   9.483  10.939   2.535  0.1562  0.3095  0.7479
  392MOL0     O53961   9.562  10.988   2.434  0.5669 -0.0666  0.1351
  392MOL0     C53962   9.534  10.957   2.303 -0.3699  0.4323  0.5501
  392MOL0     C53963   9.449  11.033   2.216 -0.1263  0.6970  0.0722
  392MOL0     C53964   9.447  11.001   2.077  0.3292  0.6419  0.1711
  392MOL0     C53965   9.515  10.894   2.019  0.1770 -0.9714 -0.2143
  392MOL0     O53966   9.518  10.877   1.880  0.1194 -0.5953  0.9682
  392MOL0     C53967   9.520  10.741   1.831  0.6739 -0.0963 -0.0060
  392MOL0     C53968   9.567  10.744   1.682  0.0257 -0.4457  0.7497
  392MOL0     C53969   9.616  10.608   1.636 -0.8810 -0.0788  0.1353
  392MOL0     C53970   9.513  10.505   1.615  0.4236 -0.3741 -0.8278
  392MOL0     C53971   9.584  10.359   1.610 -0.1336  0.1418  0.2346
  392MOL0     C53972   9.492  10.241   1.576  0.2790  0.5981 -0.3847
  392MOL0     C53973   9.371  10.213   1.670  0.0143  0.0299  0.7158
  392MOL0     C53974   9.397  10.186   1.822 -0.6969  0.3908 -0.0325
  392MOL0     N53975   9.262  10.160   1.882  0.4142  0.6866  0.8039
  392MOL0     C53976   9.212  10.038   1.909  0.2609  0.9842 -0.4275
  392MOL0     C53977   9.082  10.060   1.940  0.4449  0.0118 -1.2613
  392MOL0     C53978   8.971   9.963   1.973  1.1616  0.7927  0.1051
  392MOL0     C53979   8.893   9.901   1.856  0.4872  1.0808  0.9644
  392MOL0     C53980   8.995   9.809   1.766 -0.1784 -0.8716 -0.2647
  392MOL0     C53981   9.050   9.891   1.654  0.7569 -0.3466 -0.6060
  392MOL0     O53982   9.068   9.807   1.542  0.4728  0.3084 -0.5267
  392MOL0     C53983   9.114   9.863   1.423  0.7318 -0.3248  0.3610
  392MOL0     C53984   9.131   9.995   1.403 -0.2843 -0.9627 -0.8700
  392MOL0     C53985   9.196  10.037   1.282 -0.7967  0.4899 -0.2757
  392MOL0     C53986   9.196  10.183   1.254 -0.2888  0.4171  0.5574
  392MOL0     C53987   9.227   9.950   1.175  1.2833  0.2166 -1.3626
  392MOL0     C53988   9.270   9.990   1.037 -0.1688  0.4348  0.1817
  392MOL0     O53989   9.283   9.886   0.954  0.0847 -0.2277  0.2146
  392MOL0     C53990   9.299   9.912   0.821 -0.9046 -0.8041  0.1309
  392MOL0     C53991   9.415   9.884   0.758 -0.3672 -0.0866  1.1446
  392MOL0     C53992   9.454   9.932   0.630 -0.1298  0.8557 -1.0453
  392MOL0     C53993   9.370  10.024   0.571  0.6573  1.0255  0.7536
  392MOL0     O53994   9.414  10.087   0.460  1.3698  0.2863 -0.2779
  392MOL0     C53995   9.451   9.987   0.360 -0.1781  0.5588 -0.9495
  392MOL0     C53996   9.399  10.006   0.233 -0.9136  0.2706 -0.4768
  392MOL0     C53997   9.454   9.891   0.141  0.4377  0.0433 -0.8083
  392MOL0     C53998   9.396   9.902   0.005  0.5376  0.1238  0.4995
  392MOL0     C53999   9.454   9.812  -0.099 -0.4369 -1.0680  0.1052
  392MOL0     C54000   9.387   9.852  -0.237  0.1421  0.5091  0.3075
  392MOL0     C54001   9.458   9.790  -0.363  0.0135 -0.2684 -0.3001
  392MOL0     C54002   9.583   9.881  -0.398 -0.0010 -0.4424 -0.3304
  392MOL0    Cl54003   9.712   9.810  -0.499 -0.4388  0.2360 -0.1500
  392MOL0     C54004   9.238  10.044   0.620  0.7144  0.6461  0.8296
  392MOL0     C54005   9.202   9.988   0.744  0.6540  0.5770  0.1870
  392MOL0     O54006   9.301  10.109   1.013  0.3956 -0.2517 -0.2640
  392MOL0     C54007   9.200   9.817   1.207 -1.9907 -0.4788  0.7580
  392MOL0     C54008   9.146   9.772   1.324 -0.5006 -0.2450  0.4390
  392MOL0     N54009   9.054  10.197   1.946 -0.8107 -0.4605  0.3395
  392MOL0     N54010   9.168  10.255   1.912  1.1314  0.6326  0.6246
  392MOL0     C54011   9.583  10.808   2.108 -0.7643  0.0421  0.5270
  392MOL0     C54012   9.596  10.843   2.245 -0.9988 -0.9074 -0.4310
  392MOL0     C54013   9.526  10.970   2.679  1.1293 -0.2931 -0.1330
  392MOL0     C54014   9.649  11.042   2.685 -0.2137 -0.4575 -0.9833
  392MOL0     C54015   9.698  11.085   2.808  0.2583 -0.3955  0.7620
  392MOL0     C54016   9.635  11.055   2.929 -0.1557 -0.1331  0.7496
  392MOL0     O54017   9.689  11.099   3.044 -0.0710  0.2508  0.1691
  392MOL0     C54018   9.659  11.026   3.164 -0.1084  0.7130  0.3291
  392MOL0     C54019   9.773  11.049   3.261  0.4819 -0.0143  0.1423
  392MOL0     C54020   9.857  10.922   3.293  0.7057  0.4621 -0.3424
  392MOL0     C54021   9.926  10.865   3.172  0.7321  0.6967 -0.5295
  392MOL0     C54022   9.988  10.735   3.200  0.2638  0.0989  0.9246
  392MOL0     C54023  10.044  10.627   3.228  0.0022 -0.0401  0.2085
  392MOL0     C54024   9.515  10.990   2.922  0.1263  0.4432  0.0012
  392MOL0     C54025   9.464  10.938   2.802 -0.4197 -0.1173  1.1001
  392MOL0     C54026   9.335  10.852   2.812 -0.4391 -0.4456  0.4869
  392MOL0     H54027   9.405  11.127   2.249 -0.1814  0.5472  0.4351
  392MOL0     H54028   9.400  11.073   2.010  3.1977  2.6951  0.1896
  392MOL0     H54029   9.419  10.700   1.845  0.5718  0.9070  2.8738
  392MOL0     H54030   9.607  10.690   1.873 -0.6350 -3.0745 -0.6530
  392MOL0     H54031   9.488  10.776   1.614  2.4418  2.5994 -0.8911
  392MOL0     H54032   9.653  10.811   1.672  0.5714 -0.8491  2.3444
  392MOL0     H54033   9.673  10.623   1.544 -0.1296 -1.6569  0.3026
  392MOL0     H54034   9.683  10.570   1.714 -1.7639  0.6452  1.2864
  392MOL0     H54035   9.435  10.514   1.692  0.2949  1.6622 -1.1374
  392MOL0     H54036   9.468  10.524   1.518  0.2841 -1.0626 -0.9019
  392MOL0     H54037   9.639  10.349   1.703  0.7630 -0.7011 -0.3709
  392MOL0     H54038   9.663  10.350   1.534  2.5806 -1.3420  3.0059
  392MOL0     H54039   9.459  10.230   1.472 -1.8200 -1.4900  0.4068
  392MOL0     H54040   9.561  10.158   1.593  0.0849  0.6911  0.9475
  392MOL0     H54041   9.349  10.120   1.617 -1.8433  0.4888  0.6422
  392MOL0     H54042   9.289  10.281   1.646 -4.7097 -4.7673  1.2507
  392MOL0     H54043   9.455  10.096   1.843 -0.2189  0.9816  1.3001
  392MOL0     H54044   9.446  10.278   1.856 -0.7687  1.4986 -2.6684
  392MOL0     H54045   9.260   9.940   1.906 -0.4357  0.6132  0.2375
  392MOL0     H54046   8.893  10.008   2.035  0.2299 -2.4693  1.5181
  392MOL0     H54047   9.004   9.875   2.028  1.2258  0.1763 -0.8824
  392MOL0     H54048   8.820   9.832   1.898  0.3553 -0.8081 -2.0317
  392MOL0     H54049   8.840   9.975   1.796 -1.4281  0.1028  1.3603
  392MOL0     H54050   9.077   9.768   1.826 -0.1467  1.1401  1.1872
  392MOL0     H54051   8.934   9.734   1.716 -2.0076  0.2636  0.1799
  392MOL0     H54052   8.988   9.974   1.620 -0.1746 -2.1108 -3.6232
  392MOL0     H54053   9.149   9.920   1.689  1.2144 -1.5111 -0.8869
  392MOL0     H54054   9.109  10.081   1.466  1.1157 -0.6436 -0.7936
  392MOL0     H54055   9.125  10.219   1.180 -0.0276 -0.4970 -0.1608
  392MOL0     H54056   9.294  10.222   1.224  0.4408 -1.9788 -0.3916
  392MOL0     H54057   9.171  10.250   1.337  2.0359  1.6841  0.3059
  392MOL0     H54058   9.491   9.830   0.813 -0.9774 -3.2765 -0.9200
  392MOL0     H54059   9.549   9.893   0.595  0.8121  1.5803  0.6463
  392MOL0     H54060   9.560   9.986   0.368 -0.1143 -5.1259  3.0257
  392MOL0     H54061   9.410   9.890   0.390 -2.0184  2.0073  1.6684
  392MOL0     H54062   9.290   9.994   0.241 -0.8192  0.1812  1.0576
  392MOL0     H54063   9.434  10.103   0.196  0.5373 -0.9213 -2.4044
  392MOL0     H54064   9.432   9.795   0.187  3.7934  1.3185  4.2875
  392MOL0     H54065   9.563   9.900   0.143  0.5233 -1.0841  0.2273
  392MOL0     H54066   9.411  10.005  -0.028 -0.4877  0.7132  1.8010
  392MOL0     H54067   9.287   9.903   0.001  0.5682  1.4893 -0.5478
  392MOL0     H54068   9.562   9.830  -0.101 -0.7372  0.9901 -2.7406
  392MOL0     H54069   9.426   9.707  -0.080 -0.4934 -0.6296  2.9513
  392MOL0     H54070   9.374   9.958  -0.257 -0.0840  0.0646 -2.3351
  392MOL0     H54071   9.284   9.817  -0.226 -0.4858  1.9847 -0.5402
  392MOL0     H54072   9.386   9.799  -0.445 -0.1174 -0.1078 -0.1679
  392MOL0     H54073   9.482   9.685  -0.345 -2.7539 -1.0047 -0.4221
  392MOL0     H54074   9.624   9.920  -0.304  1.1657  1.1038 -1.4461
  392MOL0     H54075   9.548   9.969  -0.453 -2.3027 -0.4958  0.9191
  392MOL0     H54076   9.172  10.104   0.559  0.3977 -0.4362  0.0655
  392MOL0     H54077   9.105  10.016   0.784 -0.2526  2.6189 -3.0321
  392MOL0     H54078   9.208   9.741   1.130  0.6920  0.4285  0.0486
  392MOL0     H54079   9.128   9.666   1.341  0.0772 -0.6646 -1.3598
  392MOL0     H54080   9.644  10.729   2.065  0.8825  1.6175 -0.1782
  392MOL0     H54081   9.660  10.789   2.313 -0.0574  1.9174  1.1128
  392MOL0     H54082   9.721  11.058   2.606  7.5264 -1.7167  4.6153
  392MOL0     H54083   9.787  11.147   2.797  0.3975 -0.5496  1.0045
  392MOL0     H54084   9.562  11.058   3.204 -2.1843 -3.2812 -1.0123
  392MOL0     H54085   9.642  10.920   3.143  1.1674  0.5940 -0.1832
  392MOL0     H54086   9.729  11.069   3.359  2.8285 -0.0062  1.2503
  392MOL0     H54087   9.830  11.137   3.233 -0.5681  1.9916  3.6338
  392MOL0     H54088   9.942  10.932   3.361  0.1004 -3.5454  1.2713
  392MOL0     H54089   9.803  10.844   3.347 -0.4951  1.7817  0.4202
  392MOL0     H54090  10.003  10.938   3.145  0.5039  0.7607 -1.0035
  392MOL0     H54091   9.863  10.850   3.084 -0.4606 -1.0125  0.5608
  392MOL0     H54092  10.092  10.534   3.250  2.3455  1.4969  2.1200
  392MOL0     H54093   9.469  10.954   3.013  1.1514  0.4317  0.5311
  392MOL0     H54094   9.349  10.747   2.787  0.9462 -0.9437  2.9721
  392MOL0     H54095   9.304  10.864   2.917 -0.6620 -0.9255  0.4775
  392MOL0     H54096   9.249  10.895   2.761 -0.8813 -1.2262  0.5612
  393MOL0     O54097  10.015   2.160   8.027 -0.5635 -0.0292 -0.2981
  393MOL0     C54098   9.918   2.180   7.953 -0.1130  0.5941  0.0612
  393MOL0     O54099   9.908   2.116   7.829 -0.3584 -0.0524  0.6591
  393MOL0     C54100  10.006   2.030   7.780 -0.8272 -0.1047  0.8790
  393MOL0     C54101  10.040   2.026   7.648 -0.2161 -0.9133 -0.2430
  393MOL0     C54102  10.127   1.940   7.586  0.2338  0.0208 -0.2408
  393MOL0     C54103  10.182   1.843   7.671 -0.5614  0.5538 -0.3730
  393MOL0     O54104  10.279   1.750   7.636  0.4504 -0.1326  0.2802
  393MOL0     C54105  10.308   1.744   7.497 -0.1985 -0.0666 -0.6111
  393MOL0     C54106  10.335   1.587   7.470 -0.8187  0.1173  0.5051
  393MOL0     C54107  10.322   1.547   7.324 -0.0776  0.2612  0.0658
  393MOL0     C54108  10.300   1.394   7.325  0.2178  0.8000 -0.1356
  393MOL0     C54109  10.339   1.332   7.191 -0.5543 -1.0325 -0.9715
  393MOL0     C54110  10.298   1.188   7.171 -1.0816  0.1056  1.2284
  393MOL0     C54111  10.148   1.169   7.173  0.6866  0.1272  0.1387
  393MOL0     C54112  10.102   1.024   7.146 -0.2875 -0.2390 -0.8086
  393MOL0     N54113  10.146   0.977   7.020 -0.6891  1.2018 -0.0822
  393MOL0     C54114  10.094   1.013   6.900 -0.0233 -1.5150  0.3065
  393MOL0     C54115  10.168   0.953   6.815  0.5371 -0.1094 -0.5656
  393MOL0     C54116  10.148   0.967   6.662 -0.7376 -0.3146  1.0598
  393MOL0     C54117  10.078   0.845   6.609 -0.8229  0.3747  1.4119
  393MOL0     C54118  10.055   0.841   6.459  0.5783  0.4644  0.2212
  393MOL0     C54119  10.178   0.806   6.375 -0.4374  0.1656 -0.7480
  393MOL0     O54120  10.125   0.766   6.255  0.1385  0.3877  0.5916
  393MOL0     C54121  10.206   0.681   6.183 -0.7692 -0.2384  0.2280
  393MOL0     C54122  10.208   0.547   6.212 -0.4137 -0.1131 -0.3975
  393MOL0     C54123  10.290   0.460   6.144 -0.0075  0.5328 -0.7090
  393MOL0     C54124  10.297   0.313   6.188  0.1654  0.5203 -0.4905
  393MOL0     C54125  10.376   0.507   6.042 -0.6083 -0.4046 -0.9812
  393MOL0     C54126  10.483   0.430   5.965  0.3667 -0.9644  0.1830
  393MOL0     O54127  10.538   0.508   5.864  0.6498 -0.5277  0.2981
  393MOL0     C54128  10.577   0.458   5.744  0.6014  0.3045  0.2719
  393MOL0     C54129  10.666   0.540   5.674  0.0585 -0.0140  0.3181
  393MOL0     C54130  10.717   0.510   5.549 -0.4857  0.8253  0.3677
  393MOL0     C54131  10.669   0.396   5.481 -0.7611 -1.0799  0.2937
  393MOL0     O54132  10.726   0.378   5.361 -0.9250 -0.7344 -0.1816
  393MOL0     C54133  10.820   0.267   5.342 -0.4137  0.6408  0.7686
  393MOL0     C54134  10.742   0.139   5.314  0.9093 -0.1766 -0.3490
  393MOL0     C54135  10.825   0.030   5.255  0.6295  0.2469  0.5022
  393MOL0     C54136  10.885   0.053   5.110  0.0314 -0.0359 -0.0522
  393MOL0     C54137  10.967  -0.073   5.071 -0.8565  0.2061 -0.8412
  393MOL0     C54138  10.882  -0.202   5.046 -0.1148 -0.3023  0.1514
  393MOL0     C54139  10.960  -0.339   5.061  0.3886  0.3933 -0.1034
  393MOL0     C54140  10.913  -0.458   4.982  0.4403  0.7126 -0.2857
  393MOL0    Cl54141  11.018  -0.592   4.999 -0.4042  0.1050  0.1461
  393MOL0     C54142  10.577   0.313   5.544 -0.0494  0.1819 -0.2334
  393MOL0     C54143  10.528   0.343   5.667 -0.2753 -0.7263 -0.7466
  393MOL0     O54144  10.519   0.315   5.983 -0.6519 -0.8593 -0.0267
  393MOL0     C54145  10.370   0.645   6.012 -0.4459 -0.2003  0.7107
  393MOL0     C54146  10.294   0.729   6.081  0.6412  0.6128 -0.7068
  393MOL0     N54147  10.266   0.878   6.871 -0.8975  0.3795 -0.2818
  393MOL0     N54148  10.246   0.881   7.001 -0.9629 -0.0513  0.7104
  393MOL0     C54149  10.139   1.835   7.804 -0.0624  0.0101  0.1756
  393MOL0     C54150  10.066   1.927   7.857 -0.3556 -0.6922  0.4610
  393MOL0     C54151   9.784   2.244   7.997  0.0735 -0.9208 -0.7351
  393MOL0     C54152   9.668   2.220   7.922  0.2956  0.4469 -0.7700
  393MOL0     C54153   9.542   2.274   7.949 -0.5716 -1.3583 -1.0782
  393MOL0     C54154   9.518   2.371   8.042 -0.1231  0.8129 -0.8637
  393MOL0     O54155   9.387   2.418   8.080 -0.0608  0.1145 -0.1799
  393MOL0     C54156   9.273   2.360   8.030  0.5428 -1.3799  0.6675
  393MOL0     C54157   9.132   2.411   8.071 -0.8121  1.2398  0.1309
  393MOL0     C54158   9.139   2.563   8.056 -1.0212  0.6991 -0.0426
  393MOL0     C54159   9.138   2.640   8.186 -0.7221 -0.2420 -0.5484
  393MOL0     C54160   9.001   2.646   8.259 -0.2683 -0.4046  0.3089
  393MOL0     C54161   8.890   2.656   8.302  0.0574  0.3315 -0.4142
  393MOL0     C54162   9.632   2.411   8.112 -0.3445  1.0637 -0.0293
  393MOL0     C54163   9.757   2.349   8.098 -0.6730  0.6718  0.1372
  393MOL0     C54164   9.871   2.389   8.178 -0.0125  0.4925 -1.8222
  393MOL0     H54165   9.997   2.097   7.577 -0.1201 -0.7385 -0.1258
  393MOL0     H54166  10.142   1.957   7.480  1.2852  1.7255  0.1383
  393MOL0     H54167  10.396   1.807   7.482  0.8136 -0.5601  2.4816
  393MOL0     H54168  10.230   1.771   7.426 -0.4082 -0.7207 -0.6389
  393MOL0     H54169  10.429   1.547   7.510 -0.7452 -0.2836 -0.0547
  393MOL0     H54170  10.256   1.545   7.532 -1.2500  2.1393  1.3970
  393MOL0     H54171  10.241   1.586   7.261 -1.2451 -2.0730  0.0118
  393MOL0     H54172  10.415   1.576   7.276 -0.0542  0.3013  0.1352
  393MOL0     H54173  10.361   1.343   7.400 -0.4059 -0.3724 -0.4056
  393MOL0     H54174  10.193   1.374   7.335 -0.3841  2.0865 -2.9461
  393MOL0     H54175  10.447   1.343   7.188 -0.6760  1.2415  0.4660
  393MOL0     H54176  10.304   1.392   7.106  0.2845  0.1097 -0.5325
  393MOL0     H54177  10.339   1.152   7.076  0.6202  0.3686  1.8392
  393MOL0     H54178  10.349   1.119   7.239  2.0308 -0.4334 -1.4385
  393MOL0     H54179  10.103   1.230   7.093  0.3270 -0.4139 -0.0785
  393MOL0     H54180  10.113   1.206   7.269 -0.3330  0.1807 -0.2400
  393MOL0     H54181  10.149   0.963   7.224 -0.9654 -0.9609 -0.9546
  393MOL0     H54182   9.994   1.006   7.151 -0.7418  2.4606  2.2590
  393MOL0     H54183  10.011   1.080   6.880 -0.1495 -1.2515  1.6098
  393MOL0     H54184  10.245   0.993   6.620 -1.5093 -1.8887 -1.9154
  393MOL0     H54185  10.082   1.051   6.638 -3.0272 -3.1073 -3.7634
  393MOL0     H54186  10.148   0.765   6.634 -0.6380 -0.3240 -1.0764
  393MOL0     H54187   9.982   0.830   6.661 -0.8441 -3.7895  0.4857
  393MOL0     H54188   9.978   0.767   6.433 -0.1957  0.8357  1.4168
  393MOL0     H54189  10.024   0.939   6.423  1.0285  0.4783 -0.1290
  393MOL0     H54190  10.259   0.879   6.365  1.2790 -1.4094  0.9290
  393MOL0     H54191  10.219   0.725   6.435  0.7273  0.9138 -0.4865
  393MOL0     H54192  10.137   0.509   6.284 -1.0277  1.9031  0.1355
  393MOL0     H54193  10.394   0.295   6.235 -1.0868  0.0892  2.1132
  393MOL0     H54194  10.298   0.243   6.104  0.9805 -0.0571 -0.0207
  393MOL0     H54195  10.226   0.288   6.268 -0.3283  3.1185 -0.0191
  393MOL0     H54196  10.695   0.633   5.722 -1.8418  1.7407 -1.7440
  393MOL0     H54197  10.791   0.574   5.503  0.6386 -2.3336 -2.6364
  393MOL0     H54198  10.884   0.283   5.255 -0.8646  0.8539  0.4664
  393MOL0     H54199  10.883   0.254   5.430  0.7150  2.9709  0.3731
  393MOL0     H54200  10.699   0.112   5.410  2.1348 -2.5251 -0.3855
  393MOL0     H54201  10.663   0.164   5.242  1.3368 -0.8539 -1.0671
  393MOL0     H54202  10.769  -0.063   5.260 -1.0590  0.6059 -4.9800
  393MOL0     H54203  10.913   0.026   5.321  1.5667  3.4205 -0.3529
  393MOL0     H54204  10.963   0.130   5.123 -0.4902  0.5943 -0.6155
  393MOL0     H54205  10.816   0.092   5.036  0.0642  0.6924  0.2893
  393MOL0     H54206  11.033  -0.057   4.985  1.6807 -1.2198  0.7126
  393MOL0     H54207  11.041  -0.089   5.150 -2.5832  0.6410  0.9398
  393MOL0     H54208  10.844  -0.191   4.944  3.9452 -0.7296 -1.6033
  393MOL0     H54209  10.792  -0.187   5.107 -0.2008 -1.4718  0.3405
  393MOL0     H54210  10.973  -0.358   5.168 -0.9139 -0.9960 -0.1661
  393MOL0     H54211  11.063  -0.312   5.031  0.8702  0.9728  1.9346
  393MOL0     H54212  10.908  -0.414   4.882  2.8318  1.4142 -0.1628
  393MOL0     H54213  10.820  -0.483   5.034  2.0580 -2.0239  1.5506
  393MOL0     H54214  10.538   0.231   5.485 -1.2202 -0.0591  0.8237
  393MOL0     H54215  10.440   0.292   5.706 -0.6365  0.7825  0.5218
  393MOL0     H54216  10.435   0.690   5.937  2.0543 -2.9348  1.0494
  393MOL0     H54217  10.296   0.837   6.073 -0.7833  0.7590  0.4848
  393MOL0     H54218  10.180   1.766   7.877  1.0567  2.0680  1.5873
  393MOL0     H54219  10.033   1.908   7.959 -3.0914 -1.3772 -0.4663
  393MOL0     H54220   9.678   2.162   7.830  4.1151  0.8094 -0.7424
  393MOL0     H54221   9.461   2.266   7.877 -0.5647  2.6662 -1.7618
  393MOL0     H54222   9.274   2.379   7.923  3.5062 -0.5798  0.7530
  393MOL0     H54223   9.275   2.251   8.038  1.0011 -1.3891  0.4727
  393MOL0     H54224   9.118   2.391   8.177  0.3043  0.3279  0.1253
  393MOL0     H54225   9.055   2.377   8.001  2.6335 -3.0199 -2.0849
  393MOL0     H54226   9.209   2.600   7.980 -1.4857 -1.3359 -1.5344
  393MOL0     H54227   9.053   2.597   7.997  1.5081  2.7431 -2.9086
  393MOL0     H54228   9.151   2.747   8.167  1.0004 -0.0928  1.1847
  393MOL0     H54229   9.221   2.591   8.237  0.3939 -0.0686 -2.1202
  393MOL0     H54230   8.796   2.671   8.350 -0.6150 -2.8711 -0.4888
  393MOL0     H54231   9.620   2.472   8.200  1.5687 -1.8181  2.4288
  393MOL0     H54232   9.896   2.319   8.259 -1.1162  1.5927 -0.4719
  393MOL0     H54233   9.953   2.408   8.109  1.1179  1.4449 -0.2711
  393MOL0     H54234   9.850   2.484   8.229 -0.2206  0.6646 -2.2258
  394MOL0     O54235   9.025   8.313   9.478  0.9419  0.6052  0.0938
  394MOL0     C54236   9.148   8.289   9.480  0.4348  0.1500 -0.0907
  394MOL0     O54237   9.237   8.331   9.382 -0.4820 -0.7559 -0.2623
  394MOL0     C54238   9.196   8.438   9.304  0.0770 -0.5153  0.0129
  394MOL0     C54239   9.219   8.430   9.171 -0.0454  0.2047 -1.4418
  394MOL0     C54240   9.208   8.543   9.086 -0.3247 -0.4978 -0.6906
  394MOL0     C54241   9.166   8.673   9.138 -0.3830 -0.1665 -0.9703
  394MOL0     O54242   9.145   8.785   9.054 -1.1769 -0.2835 -0.1894
  394MOL0     C54243   9.140   8.917   9.119  0.6366  0.2496 -0.0579
  394MOL0     C54244   9.094   9.007   9.012 -0.2542 -0.4144 -0.2061
  394MOL0     C54245   9.198   9.048   8.916 -0.3626 -0.2613  0.2423
  394MOL0     C54246   9.131   9.134   8.799  0.7292  0.5627  0.6214
  394MOL0     C54247   9.242   9.233   8.780 -0.1376 -0.1598 -0.0787
  394MOL0     C54248   9.219   9.337   8.669 -0.8062  0.1234 -0.6060
  394MOL0     C54249   9.270   9.472   8.717  0.5590  0.1926 -0.0896
  394MOL0     C54250   9.251   9.592   8.616 -0.1248  0.9309 -1.0456
  394MOL0     N54251   9.172   9.708   8.679  0.5218  0.1346  0.1297
  394MOL0     C54252   9.045   9.702   8.731 -0.8452 -0.4253 -0.4247
  394MOL0     C54253   9.025   9.832   8.764 -0.5917 -0.4069 -0.2034
  394MOL0     C54254   8.899   9.890   8.827  0.5546  0.4046 -0.6449
  394MOL0     C54255   8.896   9.818   8.962  0.6745 -0.1934  0.9084
  394MOL0     C54256   8.782   9.882   9.045  0.0303 -0.3374  0.0430
  394MOL0     C54257   8.637   9.877   8.989  0.7015  0.3937 -0.1299
  394MOL0     O54258   8.620   9.740   8.938 -0.5898  0.5950  0.6395
  394MOL0     C54259   8.615   9.625   9.019  0.5286  0.5506 -0.4733
  394MOL0     C54260   8.659   9.502   8.974  0.6106 -0.0046 -0.3826
  394MOL0     C54261   8.636   9.385   9.052  0.1997 -0.8936 -0.1642
  394MOL0     C54262   8.685   9.254   9.001  0.3251 -0.1208  0.6496
  394MOL0     C54263   8.581   9.389   9.181 -0.5354  0.6452  0.0424
  394MOL0     C54264   8.571   9.275   9.283  0.8637 -0.3546 -0.2641
  394MOL0     O54265   8.478   9.300   9.384 -0.0424 -0.5049  0.1094
  394MOL0     C54266   8.455   9.197   9.467  1.0874  0.6344  0.8146
  394MOL0     C54267   8.438   9.062   9.421 -0.3428 -0.7482  0.1017
  394MOL0     C54268   8.423   8.960   9.524 -0.6128  0.3538 -0.5070
  394MOL0     C54269   8.425   8.980   9.657 -0.2035  0.2177  0.9575
  394MOL0     O54270   8.393   8.890   9.756  0.1640 -0.2664  0.3924
  394MOL0     C54271   8.416   8.752   9.713 -0.5789  0.0253 -0.2385
  394MOL0     C54272   8.433   8.673   9.843  0.0666 -0.5473  0.8609
  394MOL0     C54273   8.477   8.531   9.815 -0.1289 -1.1462 -0.2687
  394MOL0     C54274   8.486   8.444   9.946 -0.1170  0.0112 -0.3592
  394MOL0     C54275   8.535   8.301   9.912  0.8003  0.0705 -0.0071
  394MOL0     C54276   8.691   8.278   9.910  0.1526  0.5503  0.0245
  394MOL0     C54277   8.769   8.294  10.042  0.0608 -0.5212 -0.7126
  394MOL0     C54278   8.695   8.236  10.170  0.0649  0.9642  0.2383
  394MOL0    Cl54279   8.673   8.062  10.136  0.2896  0.3759 -0.2229
  394MOL0     C54280   8.437   9.115   9.685  0.3145 -0.0298  0.3199
  394MOL0     C54281   8.449   9.225   9.603  0.6699  0.2376 -0.0422
  394MOL0     O54282   8.640   9.176   9.276 -0.5920  0.5513  0.1063
  394MOL0     C54283   8.545   9.514   9.230 -0.7208 -0.0278 -0.2883
  394MOL0     C54284   8.554   9.626   9.143  0.2964  0.2602 -0.0088
  394MOL0     N54285   9.134   9.905   8.744 -0.1301  0.0049  0.5114
  394MOL0     N54286   9.229   9.831   8.694  1.0636  0.0613  0.5469
  394MOL0     C54287   9.130   8.672   9.280  0.4323 -0.3323 -0.1242
  394MOL0     C54288   9.148   8.562   9.352 -0.6594 -1.2588 -0.5047
  394MOL0     C54289   9.204   8.188   9.573  0.5265 -0.1110 -0.2730
  394MOL0     C54290   9.321   8.112   9.533  0.0905 -1.0281 -0.2268
  394MOL0     C54291   9.379   8.032   9.630  0.5727 -0.2971  0.4364
  394MOL0     C54292   9.323   8.020   9.762 -0.6018 -0.0975 -0.7874
  394MOL0     O54293   9.389   7.955   9.870  0.4896  0.5401  0.2902
  394MOL0     C54294   9.510   7.886   9.872 -0.1714 -0.7669  0.1622
  394MOL0     C54295   9.504   7.741   9.815  0.1351 -0.5012 -0.3030
  394MOL0     C54296   9.480   7.626   9.918 -0.2479 -0.3052  0.4286
  394MOL0     C54297   9.384   7.652  10.039 -0.4823 -0.3343  0.0763
  394MOL0     C54298   9.352   7.531  10.121  1.0739  0.4378 -0.4487
  394MOL0     C54299   9.312   7.426  10.178 -1.0985 -0.9341  0.6843
  394MOL0     C54300   9.207   8.073   9.796  0.2163  0.0851  0.3035
  394MOL0     C54301   9.147   8.168   9.708  0.5121 -0.5582  0.0406
  394MOL0     C54302   9.036   8.259   9.761  0.4335  0.2454 -0.2414
  394MOL0     H54303   9.252   8.339   9.123 -4.0768 -0.7911 -2.6818
  394MOL0     H54304   9.233   8.541   8.980  0.6947  4.6932 -0.8507
  394MOL0     H54305   9.227   8.964   9.165 -0.3015  0.9307  1.0611
  394MOL0     H54306   9.054   8.910   9.186 -1.0546 -0.1120 -2.1246
  394MOL0     H54307   9.006   8.965   8.962 -2.1013  2.3549  0.5063
  394MOL0     H54308   9.057   9.101   9.055 -1.9997 -1.0066 -0.3345
  394MOL0     H54309   9.273   9.099   8.977 -1.3866 -0.4968  1.7470
  394MOL0     H54310   9.227   8.952   8.872 -1.0287 -0.5783  0.4839
  394MOL0     H54311   9.112   9.081   8.705  2.8060 -0.8561  0.9148
  394MOL0     H54312   9.035   9.184   8.816 -1.5533 -1.7131 -3.9035
  394MOL0     H54313   9.337   9.188   8.749  0.4919  0.2086  1.2310
  394MOL0     H54314   9.266   9.291   8.871 -0.8231 -0.1024  0.0697
  394MOL0     H54315   9.256   9.287   8.579 -0.3690 -2.0042  0.7128
  394MOL0     H54316   9.114   9.361   8.646 -1.0836 -1.4629 -1.1588
  394MOL0     H54317   9.374   9.469   8.749  1.3019 -1.5446 -2.4029
  394MOL0     H54318   9.200   9.495   8.798  0.2787  5.8719 -1.5422
  394MOL0     H54319   9.350   9.634   8.594  0.8904  1.0540  2.9706
  394MOL0     H54320   9.182   9.561   8.537 -1.7433  1.1277  0.2314
  394MOL0     H54321   8.965   9.629   8.741  0.5262 -2.1794 -1.6098
  394MOL0     H54322   8.805   9.869   8.775 -0.0243 -0.3974  0.6812
  394MOL0     H54323   8.924   9.997   8.830  0.9503  0.3456 -1.5561
  394MOL0     H54324   8.886   9.709   8.964  1.6819 -0.2959  0.9354
  394MOL0     H54325   8.991   9.831   9.014  0.9930 -1.8849  0.7952
  394MOL0     H54326   8.793   9.840   9.145  4.5834  1.4421  0.5184
  394MOL0     H54327   8.793   9.989   9.063 -0.7149 -0.6634  2.7565
  394MOL0     H54328   8.570   9.904   9.071  2.4607  0.8674  1.2043
  394MOL0     H54329   8.619   9.949   8.909 -0.9367 -0.5691 -0.6862
  394MOL0     H54330   8.728   9.493   8.891 -0.6221  0.6000 -1.4909
  394MOL0     H54331   8.773   9.219   9.056 -0.5844  0.1534  2.3523
  394MOL0     H54332   8.704   9.250   8.893 -3.0323  1.1829 -0.1151
  394MOL0     H54333   8.611   9.177   9.022 -2.6563  2.4832  0.4196
  394MOL0     H54334   8.445   9.048   9.314 -0.5092  3.4533 -0.6270
  394MOL0     H54335   8.424   8.857   9.490 -0.7803  0.0449  0.3926
  394MOL0     H54336   8.326   8.714   9.664  0.0093 -1.0983 -0.4917
  394MOL0     H54337   8.504   8.729   9.652 -1.1702  0.1350 -1.1486
  394MOL0     H54338   8.494   8.726   9.917 -3.1792  0.2200  3.2124
  394MOL0     H54339   8.334   8.666   9.889  0.1986  1.8718  1.6529
  394MOL0     H54340   8.575   8.546   9.768 -0.0536  0.5116  0.3428
  394MOL0     H54341   8.400   8.481   9.757 -0.6674 -1.8751  1.0432
  394MOL0     H54342   8.398   8.446  10.011  0.7226 -3.8795  1.1766
  394MOL0     H54343   8.567   8.478  10.012  0.4045 -1.0860 -0.4071
  394MOL0     H54344   8.487   8.237   9.987  2.6330  0.6220  1.7544
  394MOL0     H54345   8.504   8.281   9.809 -0.6686  0.6327  0.3032
  394MOL0     H54346   8.739   8.336   9.830 -1.8957  0.6009 -1.2475
  394MOL0     H54347   8.704   8.179   9.866  0.3522  1.7564 -2.9174
  394MOL0     H54348   8.791   8.400  10.053  1.9459 -0.8436 -1.0694
  394MOL0     H54349   8.869   8.253  10.023 -0.3578 -1.7521 -0.3961
  394MOL0     H54350   8.596   8.280  10.180 -0.5357 -0.6063  1.3283
  394MOL0     H54351   8.730   8.267  10.269  0.1476  2.1396 -0.1369
  394MOL0     H54352   8.432   9.154   9.786  0.7193  1.8635 -0.3386
  394MOL0     H54353   8.436   9.326   9.639 -1.1769  0.5445 -1.3740
  394MOL0     H54354   8.500   9.510   9.329  2.1876 -1.2691  1.1119
  394MOL0     H54355   8.512   9.721   9.175 -0.6607  0.1255 -0.8130
  394MOL0     H54356   9.107   8.757   9.344  3.2586 -1.9151  3.3134
  394MOL0     H54357   9.122   8.563   9.458 -0.5866  0.6240 -0.4804
  394MOL0     H54358   9.373   8.127   9.439 -0.5716  0.9620 -0.3247
  394MOL0     H54359   9.476   7.986   9.610  0.1726 -1.6084  1.3596
  394MOL0     H54360   9.585   7.932   9.806  1.1372  0.0371  2.1329
  394MOL0     H54361   9.544   7.889   9.976 -3.9059 -0.0462  1.5196
  394MOL0     H54362   9.602   7.723   9.770  0.3242  2.1910 -1.1893
  394MOL0     H54363   9.420   7.742   9.744  0.7782  0.1067 -1.0738
  394MOL0     H54364   9.448   7.535   9.867  0.4085 -1.1314  1.4345
  394MOL0     H54365   9.581   7.611   9.959  0.3971 -0.9507 -1.3120
  394MOL0     H54366   9.297   7.698   9.992 -0.7977 -0.2090  0.7669
  394MOL0     H54367   9.431   7.721  10.110  2.0719  1.7638 -3.3639
  394MOL0     H54368   9.298   7.329  10.220  3.2757 -2.1571 -0.1425
  394MOL0     H54369   9.158   8.039   9.887  1.5710 -2.3926  0.2181
  394MOL0     H54370   9.067   8.357   9.724 -1.7970  0.7421 -0.9335
  394MOL0     H54371   8.939   8.240   9.716 -0.5037  4.2191 -0.2924
  394MOL0     H54372   9.038   8.268   9.870  0.3897  3.2580 -0.3922
  395MOL0     O54373  10.936   6.198   6.368 -0.0714  0.6856  0.5759
  395MOL0     C54374  11.012   6.282   6.414  0.3869  0.2535 -0.3011
  395MOL0     O54375  11.133   6.260   6.450 -1.3229 -0.6103  0.4976
  395MOL0     C54376  11.193   6.153   6.398  0.6927  0.5374  0.0884
  395MOL0     C54377  11.252   6.068   6.490  0.5732 -0.4232 -0.0261
  395MOL0     C54378  11.307   5.950   6.439 -0.1213  0.2907 -0.2691
  395MOL0     C54379  11.289   5.903   6.302  1.1614 -0.6804 -0.1855
  395MOL0     O54380  11.311   5.770   6.271 -1.0104  0.5660  0.5062
  395MOL0     C54381  11.202   5.713   6.204  0.3461 -0.6145  0.0257
  395MOL0     C54382  11.209   5.565   6.195  0.1065  0.2316  0.1777
  395MOL0     C54383  11.209   5.483   6.326 -0.0622  0.3270 -0.5769
  395MOL0     C54384  11.259   5.333   6.317 -0.3695 -1.6686  0.2306
  395MOL0     C54385  11.290   5.279   6.453  0.4821  0.6076  0.2802
  395MOL0     C54386  11.163   5.253   6.542 -0.5777  0.9342  0.3439
  395MOL0     C54387  11.192   5.221   6.694 -0.2924 -0.0100  0.6826
  395MOL0     C54388  11.261   5.098   6.726 -0.0741 -0.1940 -0.4060
  395MOL0     N54389  11.195   4.977   6.669 -0.6499 -0.6209  0.4840
  395MOL0     C54390  11.066   4.940   6.700  0.6272 -0.2481 -1.0503
  395MOL0     C54391  11.048   4.824   6.630  0.0454  0.0341  0.1306
  395MOL0     C54392  10.914   4.748   6.610  0.0789 -0.3697  0.7157
  395MOL0     C54393  10.927   4.606   6.573  0.2988 -0.2558 -1.0219
  395MOL0     C54394  11.015   4.516   6.671  0.5693  0.3560 -0.4875
  395MOL0     C54395  11.045   4.379   6.605  0.4203  0.2843 -0.9349
  395MOL0     O54396  11.085   4.275   6.696 -0.0998 -0.3077 -0.0560
  395MOL0     C54397  11.221   4.249   6.694  0.6712 -0.6726 -0.3128
  395MOL0     C54398  11.317   4.336   6.649 -0.6947 -0.0874 -0.2717
  395MOL0     C54399  11.455   4.316   6.667  0.6375  0.6750  0.0508
  395MOL0     C54400  11.537   4.419   6.603 -0.6430  0.3093 -0.1362
  395MOL0     C54401  11.505   4.194   6.717 -0.0714  0.0554  0.0602
  395MOL0     C54402  11.642   4.165   6.744  0.6170  0.3596 -0.9170
  395MOL0     O54403  11.685   4.032   6.747 -0.2157 -0.2499  0.6967
  395MOL0     C54404  11.806   4.001   6.796  0.6053  0.4649  0.1998
  395MOL0     C54405  11.922   4.013   6.716  0.2460  0.3665 -0.6506
  395MOL0     C54406  12.048   3.977   6.760 -0.4789  0.8682  0.2556
  395MOL0     C54407  12.060   3.940   6.891  1.1691 -0.6846 -0.0319
  395MOL0     O54408  12.180   3.921   6.966  0.7118 -0.0897  0.7492
  395MOL0     C54409  12.304   3.980   6.916  0.1328 -0.1572  0.5203
  395MOL0     C54410  12.409   3.965   7.034 -0.0060  0.5409 -0.5229
  395MOL0     C54411  12.480   3.827   7.026 -0.8557 -0.5228 -0.2456
  395MOL0     C54412  12.557   3.810   7.168  0.1709 -0.4201  0.7883
  395MOL0     C54413  12.609   3.665   7.179  0.7107 -0.3459  0.2176
  395MOL0     C54414  12.722   3.661   7.283  0.8399  0.5774 -0.2199
  395MOL0     C54415  12.660   3.646   7.413 -0.2582  0.2498  0.1929
  395MOL0     C54416  12.753   3.663   7.522  0.1172  0.1130 -0.4809
  395MOL0    Cl54417  12.850   3.508   7.540 -0.3773 -0.4722  0.1108
  395MOL0     C54418  11.950   3.941   6.983 -0.1329  0.5819  0.2118
  395MOL0     C54419  11.829   3.962   6.932  0.2008 -0.2278 -0.5165
  395MOL0     O54420  11.718   4.261   6.760  1.1508 -0.0378 -0.0124
  395MOL0     C54421  11.407   4.095   6.741 -0.5168  0.4828 -0.7043
  395MOL0     C54422  11.273   4.130   6.735  0.3461  0.2723 -0.7272
  395MOL0     N54423  11.166   4.807   6.556  0.7443  0.0120  0.5396
  395MOL0     N54424  11.259   4.888   6.578 -0.5425  0.1110 -0.1341
  395MOL0     C54425  11.238   5.999   6.208  0.0326  0.2226 -1.3081
  395MOL0     C54426  11.180   6.116   6.259 -0.6908  0.1602  1.1060
  395MOL0     C54427  10.952   6.401   6.449 -0.3428  0.3026  0.1118
  395MOL0     C54428  10.835   6.398   6.519 -0.3088  0.4436  0.0577
  395MOL0     C54429  10.774   6.519   6.549  0.2520 -0.5553 -0.2715
  395MOL0     C54430  10.824   6.641   6.513  0.0244 -0.5988 -0.1730
  395MOL0     O54431  10.760   6.749   6.574 -0.0514 -1.3365 -0.1437
  395MOL0     C54432  10.831   6.870   6.551 -0.0443 -0.0240  0.1883
  395MOL0     C54433  10.748   7.001   6.586 -0.0535  0.3003  0.2152
  395MOL0     C54434  10.598   7.017   6.544 -1.0105  0.7136  0.2137
  395MOL0     C54435  10.560   7.009   6.396 -0.2235  0.0788  0.2005
  395MOL0     C54436  10.595   7.136   6.330 -0.3362 -0.7301  0.1910
  395MOL0     C54437  10.626   7.237   6.275  0.7048 -0.1577  0.1584
  395MOL0     C54438  10.939   6.644   6.437 -0.1879  0.3883  0.7058
  395MOL0     C54439  11.007   6.527   6.415  0.1121  0.1121  0.6509
  395MOL0     C54440  11.150   6.522   6.345  0.2045 -0.2385  0.4572
  395MOL0     H54441  11.245   6.095   6.595 -0.9273  1.8929 -0.6510
  395MOL0     H54442  11.362   5.884   6.506 -4.1626 -0.2003  2.9564
  395MOL0     H54443  11.191   5.764   6.108 -0.7138 -1.6148 -0.4075
  395MOL0     H54444  11.110   5.735   6.260  1.5376  3.4992  0.7046
  395MOL0     H54445  11.127   5.531   6.131  2.7248 -2.2173 -2.1297
  395MOL0     H54446  11.295   5.533   6.135 -0.9716 -2.9921  0.1610
  395MOL0     H54447  11.263   5.541   6.401  4.8386 -2.8643 -1.2061
  395MOL0     H54448  11.103   5.469   6.351  0.5384 -2.4075  0.8137
  395MOL0     H54449  11.177   5.274   6.274 -1.1498 -1.5593  1.5063
  395MOL0     H54450  11.353   5.339   6.262  0.4319  0.3943  1.6743
  395MOL0     H54451  11.349   5.351   6.511  1.1454 -2.5497  3.8677
  395MOL0     H54452  11.355   5.192   6.446  0.4219  0.7068 -2.4839
  395MOL0     H54453  11.101   5.343   6.529 -0.6834  1.1612  2.1369
  395MOL0     H54454  11.109   5.169   6.499  0.5606  0.4586 -0.2012
  395MOL0     H54455  11.095   5.213   6.744 -1.1526  0.6828 -0.7842
  395MOL0     H54456  11.253   5.298   6.743 -1.5122  3.8988 -3.2221
  395MOL0     H54457  11.368   5.101   6.705  0.5472  1.4605  2.4076
  395MOL0     H54458  11.262   5.082   6.834 -2.4487 -0.5310 -0.3794
  395MOL0     H54459  10.997   4.995   6.762  0.3909 -1.6467 -0.0421
  395MOL0     H54460  10.878   4.799   6.520  0.1425  0.4636  1.1479
  395MOL0     H54461  10.841   4.771   6.689 -0.7759  1.2761 -0.4813
  395MOL0     H54462  10.827   4.563   6.565 -1.0543  2.2203  0.8842
  395MOL0     H54463  10.981   4.603   6.478 -0.1719  1.8597 -1.3948
  395MOL0     H54464  11.103   4.572   6.703 -0.3652  0.9894  1.0764
  395MOL0     H54465  10.962   4.479   6.759  2.2059 -4.6171 -1.2519
  395MOL0     H54466  10.950   4.336   6.573  0.5812 -2.2759  1.5833
  395MOL0     H54467  11.110   4.390   6.518  0.3758 -0.0771 -1.0179
  395MOL0     H54468  11.288   4.436   6.619 -1.3426  0.1427  1.0827
  395MOL0     H54469  11.607   4.385   6.526  1.7571  0.1544  1.9967
  395MOL0     H54470  11.599   4.466   6.679  0.4607  1.4933 -1.6963
  395MOL0     H54471  11.485   4.510   6.570 -3.3147 -1.1656 -0.2539
  395MOL0     H54472  11.903   4.053   6.617  1.4274 -1.0046 -1.4760
  395MOL0     H54473  12.134   3.984   6.693  1.3312 -1.0960  2.2223
  395MOL0     H54474  12.334   3.925   6.827  1.1166  1.5171 -0.2019
  395MOL0     H54475  12.275   4.084   6.900 -2.7167 -0.8782  0.3109
  395MOL0     H54476  12.492   4.036   7.043  0.7149 -0.3804  0.3767
  395MOL0     H54477  12.356   3.975   7.129  1.1005  2.0432 -0.0143
  395MOL0     H54478  12.546   3.831   6.939  0.0132  0.6630  0.4213
  395MOL0     H54479  12.405   3.749   7.020 -0.8925 -0.4449 -0.8118
  395MOL0     H54480  12.485   3.834   7.247 -2.0632 -0.3650 -1.1592
  395MOL0     H54481  12.631   3.889   7.182 -0.7190  0.4839  0.4463
  395MOL0     H54482  12.533   3.590   7.205 -0.8170  1.0357 -0.1097
  395MOL0     H54483  12.646   3.633   7.081 -1.5340 -2.2444 -0.1200
  395MOL0     H54484  12.786   3.748   7.265 -0.2674  1.5571  0.4893
  395MOL0     H54485  12.785   3.575   7.255 -0.7284 -1.6163  2.4960
  395MOL0     H54486  12.601   3.554   7.418 -1.0365 -0.0620 -6.0096
  395MOL0     H54487  12.601   3.737   7.429  0.2841  0.3514  1.7449
  395MOL0     H54488  12.689   3.665   7.611 -0.6705 -2.2956 -0.9341
  395MOL0     H54489  12.810   3.756   7.514 -3.0697  2.2196 -0.8095
  395MOL0     H54490  11.949   3.919   7.089  0.5644  0.1109  0.1280
  395MOL0     H54491  11.741   3.950   6.994 -0.5917  0.4416 -1.4733
  395MOL0     H54492  11.440   3.996   6.769  2.7183  2.3880  3.2748
  395MOL0     H54493  11.197   4.058   6.764  0.7683  0.2687  0.4156
  395MOL0     H54494  11.221   5.964   6.107  0.6817 -1.5716 -0.8213
  395MOL0     H54495  11.135   6.182   6.186  3.1793 -0.2417 -1.9721
  395MOL0     H54496  10.777   6.308   6.534 -3.0155  1.9730 -0.5301
  395MOL0     H54497  10.676   6.510   6.593 -0.5694 -3.0408 -2.3364
  395MOL0     H54498  10.930   6.858   6.596 -0.6254  2.0154  2.1915
  395MOL0     H54499  10.840   6.871   6.442  2.8238 -2.3729  0.2759
  395MOL0     H54500  10.804   7.080   6.535 -0.3788 -1.1833 -2.6272
  395MOL0     H54501  10.755   7.026   6.692 -2.3972  0.9332  0.2822
  395MOL0     H54502  10.549   6.931   6.591  0.0718 -0.3873 -0.6268
  395MOL0     H54503  10.562   7.117   6.571  1.4304  1.2146  1.8214
  395MOL0     H54504  10.452   6.998   6.382  0.1877 -2.9313 -1.5706
  395MOL0     H54505  10.615   6.924   6.354 -1.8867 -2.5269  2.8343
  395MOL0     H54506  10.647   7.328   6.222  0.8947 -0.0683  0.3872
  395MOL0     H54507  10.992   6.734   6.412 -1.2688  0.1856 -2.8076
  395MOL0     H54508  11.225   6.488   6.418  0.1841 -0.9666  0.1392
  395MOL0     H54509  11.158   6.464   6.253 -0.6671 -0.8429  0.7522
  395MOL0     H54510  11.180   6.624   6.319  0.6022  0.3436  2.9350
  396MOL0     O54511   4.602   7.150   3.674 -1.0147  0.3177 -0.5830
  396MOL0     C54512   4.668   7.137   3.778  0.4224  0.4136  0.7882
  396MOL0     O54513   4.657   7.209   3.889 -0.7170 -0.2516  0.1864
  396MOL0     C54514   4.590   7.327   3.904 -0.2712  0.4532 -0.4642
  396MOL0     C54515   4.596   7.378   4.034 -1.2534 -1.5474 -0.1217
  396MOL0     C54516   4.527   7.499   4.068 -0.7436 -0.0432 -0.2040
  396MOL0     C54517   4.444   7.558   3.976  0.3704  0.6132 -0.0621
  396MOL0     O54518   4.362   7.659   4.024  0.4454  0.1168 -0.0721
  396MOL0     C54519   4.219   7.633   4.011  0.9811 -0.4969 -0.5881
  396MOL0     C54520   4.148   7.742   4.090 -0.2458 -0.3597 -0.2178
  396MOL0     C54521   4.006   7.724   4.108  0.3668 -0.1321  0.7036
  396MOL0     C54522   3.935   7.747   3.970 -0.3474  0.8074 -1.1293
  396MOL0     C54523   3.782   7.759   3.988  0.6450  0.9372  1.2104
  396MOL0     C54524   3.703   7.645   4.063  0.4330 -0.1966  0.3174
  396MOL0     C54525   3.553   7.689   4.086 -0.1396 -0.3003  0.9880
  396MOL0     C54526   3.459   7.568   4.128  0.2399  0.4834  0.0790
  396MOL0     N54527   3.324   7.607   4.094 -0.4504  0.1996 -0.1380
  396MOL0     C54528   3.253   7.725   4.125  0.6874 -0.3457 -0.6360
  396MOL0     C54529   3.137   7.725   4.055 -0.6751 -0.2408 -0.1076
  396MOL0     C54530   3.026   7.836   4.085 -0.8121  0.9434 -0.0841
  396MOL0     C54531   2.920   7.852   3.969 -0.0968  0.1760 -0.2499
  396MOL0     C54532   2.779   7.916   4.009  0.8934 -0.1684  0.5728
  396MOL0     C54533   2.720   8.004   3.907 -0.5450  0.4322  0.1590
  396MOL0     O54534   2.782   8.137   3.911  0.3376  0.4974 -0.5561
  396MOL0     C54535   2.699   8.242   3.910 -0.5988  0.4561  0.5004
  396MOL0     C54536   2.696   8.330   4.010  0.0570 -0.3680 -0.3973
  396MOL0     C54537   2.589   8.425   4.011  0.1671 -1.1913 -0.0144
  396MOL0     C54538   2.581   8.513   4.131  0.0729 -0.1433  0.0764
  396MOL0     C54539   2.493   8.431   3.898 -1.2546 -0.3053 -1.0096
  396MOL0     C54540   2.386   8.530   3.892 -0.1505  0.1081 -0.2134
  396MOL0     O54541   2.266   8.505   3.947 -0.3286  0.2025 -0.1700
  396MOL0     C54542   2.211   8.378   3.937  0.1730 -1.5700  0.0819
  396MOL0     C54543   2.191   8.317   3.816  0.6088  0.5329  0.3158
  396MOL0     C54544   2.123   8.195   3.810 -0.6237  0.6090 -0.2188
  396MOL0     C54545   2.063   8.141   3.924  0.7187 -0.0534  0.6123
  396MOL0     O54546   1.982   8.026   3.902 -0.3462 -0.6388 -0.2291
  396MOL0     C54547   1.899   7.976   4.006  0.0434  0.0247  0.1470
  396MOL0     C54548   1.821   7.852   3.975  0.5811  0.3845 -0.1842
  396MOL0     C54549   1.725   7.874   3.863  1.2547 -0.3380 -0.2176
  396MOL0     C54550   1.686   7.744   3.801  0.2245 -0.2331 -0.0747
  396MOL0     C54551   1.606   7.763   3.678 -0.2060  0.0151  0.2343
  396MOL0     C54552   1.467   7.821   3.719 -1.1532  0.0317  0.3309
  396MOL0     C54553   1.363   7.782   3.611  0.4358  0.7044  0.1160
  396MOL0     C54554   1.220   7.818   3.639  0.3393 -0.1429 -0.4665
  396MOL0    Cl54555   1.167   7.711   3.772  0.1282  0.0692  0.0394
  396MOL0     C54556   2.080   8.204   4.048  0.1281  0.1072  0.1211
  396MOL0     C54557   2.158   8.323   4.055 -0.8362  0.3539  0.4067
  396MOL0     O54558   2.425   8.641   3.856 -0.1499 -0.5587  0.0876
  396MOL0     C54559   2.522   8.355   3.791 -0.8674  0.0423 -0.1067
  396MOL0     C54560   2.619   8.255   3.802  0.3403 -0.9409 -0.5626
  396MOL0     N54561   3.136   7.617   3.975  1.2372 -0.3035  0.0230
  396MOL0     N54562   3.246   7.552   3.992  0.7649 -0.2061 -1.2100
  396MOL0     C54563   4.438   7.509   3.844 -0.5509 -0.6375  0.8908
  396MOL0     C54564   4.510   7.396   3.804  0.1166 -0.9199 -0.5062
  396MOL0     C54565   4.765   7.023   3.771  0.2887  0.7511  0.2292
  396MOL0     C54566   4.871   7.044   3.859  0.2733  0.7220 -0.1142
  396MOL0     C54567   4.978   6.959   3.869  0.2330 -0.0443 -0.7778
  396MOL0     C54568   4.972   6.841   3.794  0.6744 -0.6339 -1.7788
  396MOL0     O54569   5.057   6.734   3.813  0.0488 -0.1536  0.3945
  396MOL0     C54570   5.174   6.758   3.899 -0.7145  0.0927  0.3519
  396MOL0     C54571   5.276   6.642   3.875 -0.0685 -0.2950  0.0786
  396MOL0     C54572   5.323   6.639   3.730 -0.3950 -0.0219 -0.0926
  396MOL0     C54573   5.417   6.518   3.701 -0.3472 -0.2055  0.2591
  396MOL0     C54574   5.345   6.382   3.696 -0.0421 -0.9848 -0.5063
  396MOL0     C54575   5.316   6.272   3.728  0.2125 -0.4046 -1.2359
  396MOL0     C54576   4.856   6.814   3.713 -0.5905  0.4017  0.1565
  396MOL0     C54577   4.755   6.907   3.693  1.1124  0.0479  0.1778
  396MOL0     C54578   4.648   6.890   3.583 -0.1438 -0.2317  0.2712
  396MOL0     H54579   4.653   7.330   4.112 -1.5162  2.5520  2.9192
  396MOL0     H54580   4.531   7.550   4.164 -0.3766  2.9684 -1.7038
  396MOL0     H54581   4.200   7.539   4.065 -1.3361  1.3761  2.1676
  396MOL0     H54582   4.196   7.632   3.904 -2.5726 -0.6640  0.0458
  396MOL0     H54583   4.204   7.756   4.183 -2.6647 -0.9764  1.4272
  396MOL0     H54584   4.154   7.838   4.038  0.7979  0.9379  2.1258
  396MOL0     H54585   3.996   7.625   4.154 -0.8363  0.8402  2.6774
  396MOL0     H54586   3.971   7.797   4.182 -4.2716 -0.4796 -0.8078
  396MOL0     H54587   3.954   7.847   3.932 -1.2850  1.6093  0.3975
  396MOL0     H54588   3.966   7.659   3.912  2.8458  0.2585  1.1068
  396MOL0     H54589   3.733   7.790   3.895  0.3060  3.0061  2.0322
  396MOL0     H54590   3.750   7.841   4.051 -3.3348  1.3857 -1.0822
  396MOL0     H54591   3.720   7.548   4.014 -0.6601 -2.1998  3.6091
  396MOL0     H54592   3.747   7.629   4.161  6.4401 -1.6349 -2.1569
  396MOL0     H54593   3.524   7.734   3.991  3.0688 -3.4214 -1.8131
  396MOL0     H54594   3.547   7.770   4.159 -1.2911  0.8603 -0.3364
  396MOL0     H54595   3.483   7.475   4.076 -0.7171  0.4963 -0.4113
  396MOL0     H54596   3.462   7.551   4.236  0.9655  0.2608  0.0291
  396MOL0     H54597   3.281   7.798   4.199 -2.0359 -0.1135  0.2693
  396MOL0     H54598   3.070   7.936   4.090 -3.4066  2.0992  2.3958
  396MOL0     H54599   2.983   7.805   4.181  0.6550 -1.2544 -0.0667
  396MOL0     H54600   2.961   7.919   3.893  0.5126  0.5298  0.3832
  396MOL0     H54601   2.896   7.756   3.921 -0.0608 -1.1473  2.2584
  396MOL0     H54602   2.701   7.841   4.025  1.0943 -0.6954 -0.7392
  396MOL0     H54603   2.784   7.967   4.106  0.1962 -0.0346  0.5405
  396MOL0     H54604   2.745   7.965   3.807  0.8819  1.5392  0.0561
  396MOL0     H54605   2.612   8.014   3.917 -0.4303  1.8538  0.2741
  396MOL0     H54606   2.765   8.306   4.089  1.5951  0.0470 -1.5706
  396MOL0     H54607   2.644   8.468   4.208  0.5008 -1.0382 -0.7759
  396MOL0     H54608   2.486   8.531   4.182 -0.4203 -0.7077 -0.6223
  396MOL0     H54609   2.636   8.603   4.101 -0.2951  0.6350  1.6329
  396MOL0     H54610   2.227   8.345   3.718  0.3997  1.3781  0.4737
  396MOL0     H54611   2.107   8.146   3.714  0.0728  1.7956 -0.9704
  396MOL0     H54612   1.960   7.949   4.093 -1.3117 -0.1853  1.0558
  396MOL0     H54613   1.839   8.060   4.042 -1.5384 -1.4536  1.0684
  396MOL0     H54614   1.896   7.778   3.945  2.5438  2.2307 -0.0697
  396MOL0     H54615   1.764   7.811   4.058 -1.8894  0.7095 -1.6305
  396MOL0     H54616   1.770   7.938   3.786  0.0437  0.6224 -0.1547
  396MOL0     H54617   1.646   7.940   3.900  1.7516  0.6696 -0.9067
  396MOL0     H54618   1.642   7.678   3.877  0.0751 -0.9906 -0.8115
  396MOL0     H54619   1.783   7.708   3.766  1.7415  2.9167  0.5225
  396MOL0     H54620   1.647   7.829   3.601  2.1516  1.1273  2.2868
  396MOL0     H54621   1.579   7.672   3.624 -1.8719  0.5705  0.0674
  396MOL0     H54622   1.469   7.928   3.741  1.1560 -0.0709  0.8733
  396MOL0     H54623   1.439   7.777   3.816  1.9342  0.1328  1.3792
  396MOL0     H54624   1.359   7.672   3.613  0.9805  0.5511 -2.6744
  396MOL0     H54625   1.392   7.823   3.513 -2.6660  1.2856 -0.6656
  396MOL0     H54626   1.159   7.799   3.550  0.4781 -2.9345 -0.0691
  396MOL0     H54627   1.226   7.925   3.662  3.9310 -0.5618  1.2554
  396MOL0     H54628   2.040   8.158   4.138  2.5571 -0.7891  0.8264
  396MOL0     H54629   2.183   8.367   4.151 -1.6600 -0.6123  1.0884
  396MOL0     H54630   2.464   8.350   3.699 -2.4108 -0.0174  0.8202
  396MOL0     H54631   2.643   8.173   3.735  1.0850 -0.8583 -0.4039
  396MOL0     H54632   4.371   7.569   3.783 -0.9988  0.0173  1.9947
  396MOL0     H54633   4.495   7.357   3.703 -3.3229 -2.3969  0.4267
  396MOL0     H54634   4.878   7.136   3.916 -0.5399  1.4395 -1.1056
  396MOL0     H54635   5.055   6.993   3.937  1.4542  0.0458 -2.1495
  396MOL0     H54636   5.220   6.847   3.857  1.4445 -0.1864  1.9554
  396MOL0     H54637   5.141   6.770   4.003 -0.3710 -0.2221  0.5025
  396MOL0     H54638   5.236   6.548   3.915  0.4899 -0.6079 -0.0903
  396MOL0     H54639   5.363   6.671   3.934 -0.0313  1.9987 -1.0034
  396MOL0     H54640   5.243   6.645   3.656  1.8977 -0.2086 -2.7225
  396MOL0     H54641   5.381   6.731   3.722 -0.2261 -0.1675 -0.5526
  396MOL0     H54642   5.478   6.508   3.791 -2.3237 -0.1529  1.6529
  396MOL0     H54643   5.465   6.532   3.604 -0.3795  5.4266  0.7422
  396MOL0     H54644   5.320   6.168   3.754  0.8214 -0.8754 -3.0856
  396MOL0     H54645   4.876   6.722   3.661 -0.3710  0.3510  0.3293
  396MOL0     H54646   4.644   6.781   3.583  5.0627 -0.6769  1.1494
  396MOL0     H54647   4.552   6.924   3.625 -0.0460  0.4998 -0.0745
  396MOL0     H54648   4.673   6.933   3.485  2.1589  0.1251  0.9665
  397MOL0     O54649   2.360   3.551   3.670  0.7566  0.6021 -0.0636
  397MOL0     C54650   2.239   3.576   3.670  0.6268  1.2030 -0.0998
  397MOL0     O54651   2.155   3.619   3.563 -0.4755 -0.4998  0.8637
  397MOL0     C54652   2.223   3.661   3.445  0.8972  0.0674 -0.0165
  397MOL0     C54653   2.326   3.591   3.382 -0.1755  0.3184  0.5829
  397MOL0     C54654   2.368   3.621   3.257  0.1077  0.3526  0.2251
  397MOL0     C54655   2.316   3.729   3.189 -0.3606 -0.0324  0.6430
  397MOL0     O54656   2.366   3.764   3.064  0.3694  0.5564  0.2843
  397MOL0     C54657   2.381   3.665   2.968  0.9796 -0.4750 -0.7694
  397MOL0     C54658   2.421   3.724   2.829 -0.5568  1.5190  0.2085
  397MOL0     C54659   2.299   3.796   2.767  1.1334 -0.5860  1.1376
  397MOL0     C54660   2.248   3.937   2.827  0.1496  0.0883  0.0615
  397MOL0     C54661   2.162   4.017   2.727  0.1160  0.2804  0.6990
  397MOL0     C54662   2.217   4.042   2.593 -0.4982  0.4050  0.1086
  397MOL0     C54663   2.145   4.151   2.510  0.3065  0.3468  0.4192
  397MOL0     C54664   2.134   4.288   2.581 -0.1694 -0.3058  0.9620
  397MOL0     N54665   2.268   4.352   2.621  0.3321 -1.4825  1.1371
  397MOL0     C54666   2.335   4.317   2.731 -0.6511  0.5503  0.2853
  397MOL0     C54667   2.457   4.379   2.703  0.8044  0.4845 -0.5731
  397MOL0     C54668   2.574   4.341   2.802  0.4630  0.6799  0.9829
  397MOL0     C54669   2.559   4.416   2.928  0.0887 -0.1934 -0.3995
  397MOL0     C54670   2.698   4.411   2.999 -1.0696  0.4872 -0.3111
  397MOL0     C54671   2.690   4.436   3.146 -0.8544 -0.1116 -0.1629
  397MOL0     O54672   2.672   4.572   3.174 -0.3019 -0.4448  1.1212
  397MOL0     C54673   2.621   4.621   3.291 -0.6257  0.4647 -0.6435
  397MOL0     C54674   2.621   4.763   3.310 -0.5040  0.7338  0.1127
  397MOL0     C54675   2.576   4.832   3.429 -0.7952  0.4740 -0.4097
  397MOL0     C54676   2.598   4.980   3.419  0.3173  0.2262  0.2307
  397MOL0     C54677   2.530   4.749   3.536 -0.1726  0.9913  0.1038
  397MOL0     C54678   2.490   4.803   3.675  0.0172 -0.4917 -0.2874
  397MOL0     O54679   2.506   4.936   3.704  0.4321  0.2427 -0.2403
  397MOL0     C54680   2.405   4.985   3.791  0.5101 -0.1033 -0.4112
  397MOL0     C54681   2.437   5.115   3.840 -0.6916  0.4967  0.3015
  397MOL0     C54682   2.352   5.189   3.922  0.6652  0.2456 -0.0098
  397MOL0     C54683   2.223   5.141   3.949  1.2463 -0.7221  1.0514
  397MOL0     O54684   2.130   5.196   4.030  0.1707  0.5429  0.2635
  397MOL0     C54685   2.132   5.319   4.091  0.0930 -0.2586 -0.0653
  397MOL0     C54686   2.032   5.309   4.202  0.8356 -0.8757 -0.5531
  397MOL0     C54687   1.957   5.441   4.238 -0.3794 -0.8276  0.7599
  397MOL0     C54688   1.849   5.423   4.353 -0.0023  0.7026  0.4558
  397MOL0     C54689   1.860   5.522   4.466  0.4047  0.0594  0.8846
  397MOL0     C54690   1.741   5.516   4.558  0.2919  0.5239 -0.3169
  397MOL0     C54691   1.729   5.616   4.673 -0.5151 -0.3395  0.2400
  397MOL0     C54692   1.640   5.574   4.795 -1.2334 -0.2249  0.1373
  397MOL0    Cl54693   1.476   5.615   4.756  0.7439 -0.1655 -0.2738
  397MOL0     C54694   2.186   5.016   3.901 -0.8428  0.7677 -0.5638
  397MOL0     C54695   2.278   4.932   3.826  0.0893 -0.0748  0.3134
  397MOL0     O54696   2.457   4.720   3.757 -0.0611 -0.8405 -0.6255
  397MOL0     C54697   2.535   4.610   3.520  0.2207 -0.3099  0.4041
  397MOL0     C54698   2.561   4.547   3.399  0.0313  0.0603 -0.0610
  397MOL0     N54699   2.447   4.461   2.599  0.5768  0.5464  1.3725
  397MOL0     N54700   2.333   4.443   2.540  0.1091  1.1948  0.5231
  397MOL0     C54701   2.221   3.809   3.253  0.5963 -0.6653  0.2922
  397MOL0     C54702   2.163   3.765   3.371 -0.3267  0.1519 -0.2487
  397MOL0     C54703   2.189   3.571   3.809 -0.4080 -0.7726 -1.1669
  397MOL0     C54704   2.263   3.504   3.905  0.4245  0.1362  0.0120
  397MOL0     C54705   2.207   3.476   4.035 -1.0809  0.8777 -0.4560
  397MOL0     C54706   2.099   3.544   4.087  0.3746  0.7069 -0.5661
  397MOL0     O54707   2.034   3.506   4.205  0.0009  0.2777 -0.3549
  397MOL0     C54708   1.989   3.611   4.297 -0.9005  1.1090 -0.5160
  397MOL0     C54709   1.928   3.567   4.438 -0.0105 -0.5069 -0.1636
  397MOL0     C54710   1.808   3.464   4.438  0.3306 -0.6610  0.1851
  397MOL0     C54711   1.776   3.404   4.572  0.4542  0.5331 -0.9915
  397MOL0     C54712   1.900   3.345   4.626  0.6274  0.0210 -0.0922
  397MOL0     C54713   2.000   3.306   4.682  1.0615  0.7918 -0.9345
  397MOL0     C54714   2.031   3.623   3.995 -0.1161  0.1583  0.5938
  397MOL0     C54715   2.072   3.635   3.857  0.5270  0.4225 -0.4859
  397MOL0     C54716   1.994   3.725   3.764  0.1116  0.2985  0.3669
  397MOL0     H54717   2.356   3.492   3.414 -0.1033  0.9776  2.7102
  397MOL0     H54718   2.428   3.545   3.207 -1.7356 -0.2055 -1.2727
  397MOL0     H54719   2.297   3.595   2.973 -1.6090  2.4986  0.4345
  397MOL0     H54720   2.466   3.605   3.001  2.1457  1.8313  0.6563
  397MOL0     H54721   2.510   3.786   2.841  1.3639 -1.1899  1.1966
  397MOL0     H54722   2.454   3.641   2.765  2.4948  0.9635  2.2767
  397MOL0     H54723   2.335   3.815   2.665 -0.2273 -1.4248  0.4753
  397MOL0     H54724   2.221   3.722   2.752 -0.2720  1.1276 -0.4689
  397MOL0     H54725   2.185   3.918   2.915 -1.2791  1.8353 -0.5298
  397MOL0     H54726   2.334   3.996   2.861  0.3403  0.4763 -1.0641
  397MOL0     H54727   2.140   4.109   2.781 -0.2620  0.2780  0.5528
  397MOL0     H54728   2.063   3.970   2.723 -0.2812  1.1579 -0.1467
  397MOL0     H54729   2.320   4.076   2.606  1.0424 -3.5660 -0.2086
  397MOL0     H54730   2.218   3.945   2.541 -0.4006  0.3812  0.1541
  397MOL0     H54731   2.046   4.109   2.489  1.0361 -0.4664 -1.7134
  397MOL0     H54732   2.189   4.169   2.411 -1.6381  2.6297 -0.1329
  397MOL0     H54733   2.081   4.353   2.511  2.1264 -2.1811 -2.8609
  397MOL0     H54734   2.074   4.271   2.671  1.2329  0.1819  2.0284
  397MOL0     H54735   2.307   4.254   2.815  1.8227  0.0268  0.8255
  397MOL0     H54736   2.670   4.350   2.750 -0.2636  3.2006 -0.0780
  397MOL0     H54737   2.569   4.232   2.810  0.4384  0.2570 -2.9807
  397MOL0     H54738   2.550   4.523   2.905  1.7238 -0.3467 -1.9555
  397MOL0     H54739   2.467   4.384   2.979  0.0166  1.0338  0.2847
  397MOL0     H54740   2.737   4.312   2.973 -2.3713 -0.4011  0.9782
  397MOL0     H54741   2.781   4.472   2.964  0.2000 -0.7786  0.3758
  397MOL0     H54742   2.599   4.385   3.178  0.7740 -2.4242  1.1090
  397MOL0     H54743   2.780   4.394   3.192  1.6164  2.7112 -2.0509
  397MOL0     H54744   2.661   4.823   3.229  1.0342 -0.6614 -0.2223
  397MOL0     H54745   2.527   5.024   3.489 -2.4937 -0.0839 -2.2548
  397MOL0     H54746   2.555   5.012   3.324 -3.5124  1.4745  2.1636
  397MOL0     H54747   2.703   5.010   3.434  1.1089 -2.5651  0.8580
  397MOL0     H54748   2.535   5.152   3.814  0.2564 -1.4622  0.8363
  397MOL0     H54749   2.384   5.286   3.958 -1.9799  0.3969  2.3327
  397MOL0     H54750   2.231   5.339   4.133  1.8241 -6.0795 -0.4465
  397MOL0     H54751   2.104   5.395   4.019  0.9664 -1.6243 -1.9266
  397MOL0     H54752   1.955   5.236   4.176  0.5394 -0.8950  0.3259
  397MOL0     H54753   2.077   5.279   4.297  1.0854 -0.9575 -0.6966
  397MOL0     H54754   1.915   5.488   4.149 -0.2308 -0.5461  0.8344
  397MOL0     H54755   2.041   5.504   4.268 -0.1785 -0.5614 -0.3425
  397MOL0     H54756   1.845   5.317   4.379 -0.0409  0.3021 -1.0765
  397MOL0     H54757   1.751   5.436   4.307 -0.1925 -1.2414  0.2179
  397MOL0     H54758   1.950   5.496   4.522  0.3946  3.2250  2.5933
  397MOL0     H54759   1.862   5.624   4.427 -1.1641  0.9179  2.8350
  397MOL0     H54760   1.740   5.415   4.599 -1.3398  1.1044  1.2357
  397MOL0     H54761   1.648   5.515   4.501  0.9855 -2.2867 -1.5818
  397MOL0     H54762   1.705   5.712   4.628 -0.2341  1.0682  2.9075
  397MOL0     H54763   1.832   5.623   4.708  0.2328  0.0637 -1.8823
  397MOL0     H54764   1.685   5.638   4.872  2.1476 -1.7314 -0.3750
  397MOL0     H54765   1.658   5.467   4.809  2.3871 -0.4355 -3.8670
  397MOL0     H54766   2.090   4.970   3.923  1.0573 -2.4377  1.8892
  397MOL0     H54767   2.236   4.843   3.782 -4.6471  1.3313  1.4059
  397MOL0     H54768   2.500   4.550   3.603  2.1885  0.7881  2.1323
  397MOL0     H54769   2.535   4.442   3.400  0.3264 -0.0250  1.7046
  397MOL0     H54770   2.181   3.894   3.198  3.0966 -0.4719 -1.4265
  397MOL0     H54771   2.087   3.817   3.429  3.7563  3.2622  2.9439
  397MOL0     H54772   2.360   3.456   3.895  0.7172  0.2364  1.8741
  397MOL0     H54773   2.253   3.403   4.100 -1.9616 -1.0629 -1.9138
  397MOL0     H54774   2.084   3.662   4.316  0.3792 -0.5387 -2.1741
  397MOL0     H54775   1.914   3.669   4.243 -1.9916 -2.3043 -3.0330
  397MOL0     H54776   1.885   3.658   4.480 -0.4476 -0.7281 -0.1265
  397MOL0     H54777   2.012   3.541   4.502 -0.5506  1.6808  1.5562
  397MOL0     H54778   1.718   3.503   4.390 -0.5957 -4.4509 -1.5583
  397MOL0     H54779   1.851   3.383   4.378 -0.4641 -0.8284 -0.1664
  397MOL0     H54780   1.696   3.330   4.582 -1.7002  3.0138  2.6863
  397MOL0     H54781   1.742   3.486   4.636 -2.1643  0.3440 -2.0119
  397MOL0     H54782   2.080   3.263   4.739  0.4407  1.4536  0.4693
  397MOL0     H54783   1.946   3.679   4.032 -2.3875 -3.0907  0.7092
  397MOL0     H54784   1.932   3.661   3.700 -0.8090  0.6047  0.9205
  397MOL0     H54785   1.937   3.804   3.815  2.6782  2.1134  0.6042
  397MOL0     H54786   2.076   3.771   3.709  0.1132  0.0428  0.1585
  398MOL0     O54787   5.090   3.124   1.871  0.3298  0.2606  0.1509
  398MOL0     C54788   5.170   3.038   1.832  0.3739 -1.1854  0.3021
  398MOL0     O54789   5.243   2.953   1.921 -0.8273 -0.5154 -0.2673
  398MOL0     C54790   5.213   2.966   2.052 -0.9898  0.2929  1.6469
  398MOL0     C54791   5.322   3.004   2.136 -0.6682  0.1627 -0.5506
  398MOL0     C54792   5.296   3.029   2.281 -0.7437  0.6293 -0.0598
  398MOL0     C54793   5.174   3.000   2.332 -0.8261  0.8847  0.0352
  398MOL0     O54794   5.151   3.012   2.469 -0.6397 -0.3925 -0.9165
  398MOL0     C54795   5.221   3.115   2.543  0.9348  0.8254 -0.0435
  398MOL0     C54796   5.167   3.118   2.684 -0.9962 -0.4724 -0.0314
  398MOL0     C54797   5.269   3.163   2.780 -0.8232 -0.4127 -0.6044
  398MOL0     C54798   5.335   3.294   2.738 -1.5629 -0.2150 -0.0968
  398MOL0     C54799   5.438   3.352   2.833 -1.0037  0.5307 -0.0223
  398MOL0     C54800   5.533   3.255   2.901 -0.6696 -0.3626 -0.1396
  398MOL0     C54801   5.633   3.166   2.817  0.3129  0.5971 -0.9442
  398MOL0     C54802   5.732   3.090   2.910  1.0295 -0.3478 -0.2848
  398MOL0     N54803   5.662   2.994   2.992 -0.4410 -0.0441 -0.1192
  398MOL0     C54804   5.673   2.990   3.133  0.0155  0.3061 -0.2116
  398MOL0     C54805   5.579   2.889   3.173 -0.3081  0.1411  0.6157
  398MOL0     C54806   5.545   2.832   3.311  1.4841 -0.5561 -0.0332
  398MOL0     C54807   5.672   2.808   3.391  0.8322 -0.2816  0.6479
  398MOL0     C54808   5.731   2.687   3.339 -0.1310  1.1111 -0.5461
  398MOL0     C54809   5.873   2.670   3.396  0.0507 -0.2090  0.0349
  398MOL0     O54810   5.952   2.771   3.335  0.2196  0.5611  0.2051
  398MOL0     C54811   6.087   2.750   3.360  0.0290  0.2983  0.1097
  398MOL0     C54812   6.144   2.660   3.457  0.3365 -1.0211 -0.4264
  398MOL0     C54813   6.283   2.653   3.463 -0.3408  0.8824  0.3829
  398MOL0     C54814   6.335   2.579   3.578  0.0634  0.1170  0.3694
  398MOL0     C54815   6.368   2.721   3.376  0.7080 -0.3418 -0.3695
  398MOL0     C54816   6.512   2.715   3.367  0.1170 -0.5378 -0.9863
  398MOL0     O54817   6.577   2.830   3.375  0.7598  0.3954 -0.3483
  398MOL0     C54818   6.705   2.817   3.359 -0.2062 -0.7950  0.0561
  398MOL0     C54819   6.754   2.790   3.230 -1.0856  0.9528  1.2794
  398MOL0     C54820   6.893   2.767   3.214  0.2412 -0.1996 -0.3425
  398MOL0     C54821   6.982   2.771   3.323  0.3396  0.5234  0.2787
  398MOL0     O54822   7.121   2.750   3.317 -0.0170  0.0281  0.9793
  398MOL0     C54823   7.183   2.696   3.198 -0.1655 -0.1672  0.1624
  398MOL0     C54824   7.308   2.629   3.246 -0.5758  0.3541  0.2988
  398MOL0     C54825   7.367   2.534   3.145  0.4732  0.7333 -0.1955
  398MOL0     C54826   7.493   2.482   3.193 -0.3098  0.3311  0.8897
  398MOL0     C54827   7.550   2.368   3.103  0.0182 -0.6542  0.2459
  398MOL0     C54828   7.664   2.275   3.161  0.5319 -1.4004 -0.0473
  398MOL0     C54829   7.654   2.139   3.108 -0.0919  0.3247  0.2999
  398MOL0     C54830   7.560   2.043   3.193 -0.3048 -0.1378  0.3849
  398MOL0    Cl54831   7.624   1.880   3.160  0.7910 -0.4328  0.2650
  398MOL0     C54832   6.934   2.805   3.450 -0.4021 -0.3978 -0.2795
  398MOL0     C54833   6.799   2.839   3.464  1.5009  0.2329  0.1979
  398MOL0     O54834   6.562   2.603   3.361  0.5496 -0.2962  0.8377
  398MOL0     C54835   6.306   2.813   3.286  0.6433 -0.2170 -0.0834
  398MOL0     C54836   6.170   2.826   3.281  1.5509  0.0952  0.0409
  398MOL0     N54837   5.514   2.848   3.052  0.8417 -0.9353 -0.9958
  398MOL0     N54838   5.573   2.900   2.951  0.4354 -0.3135 -0.1682
  398MOL0     C54839   5.077   2.956   2.249  0.3827 -0.8873  0.9824
  398MOL0     C54840   5.093   2.934   2.114 -0.7470 -0.2948  0.5259
  398MOL0     C54841   5.186   3.011   1.685  0.1692 -0.1532  0.6515
  398MOL0     C54842   5.219   2.882   1.641  0.1137  1.3727  0.4445
  398MOL0     C54843   5.204   2.845   1.510  0.0727  0.2500  1.0181
  398MOL0     C54844   5.175   2.938   1.413 -0.2441  0.1274  0.2343
  398MOL0     O54845   5.160   2.900   1.282 -0.7298 -0.5884 -0.1754
  398MOL0     C54846   5.035   2.840   1.243  0.6556 -0.0296  0.3049
  398MOL0     C54847   4.963   2.920   1.146 -0.5159 -0.2664  0.0081
  398MOL0     C54848   5.052   2.995   1.046 -0.1146  0.8464  0.6918
  398MOL0     C54849   5.093   3.141   1.074  0.0254  0.5484 -0.7686
  398MOL0     C54850   4.967   3.210   1.043 -1.0688 -0.0606  0.5168
  398MOL0     C54851   4.880   3.281   0.995  0.3106 -0.5505 -0.8965
  398MOL0     C54852   5.155   3.070   1.451 -0.1820 -0.3324 -0.0695
  398MOL0     C54853   5.163   3.109   1.586  1.6170  0.3429  0.3800
  398MOL0     C54854   5.165   3.262   1.614 -0.2391  1.1028  0.6801
  398MOL0     H54855   5.419   3.028   2.095 -0.3403 -1.1255 -0.5646
  398MOL0     H54856   5.389   3.053   2.332  2.3164 -2.7954 -3.3338
  398MOL0     H54857   5.205   3.213   2.497 -1.0962  0.0736 -1.0994
  398MOL0     H54858   5.323   3.076   2.540  1.0020  1.0370 -1.8842
  398MOL0     H54859   5.076   3.180   2.683 -0.8303 -0.1508 -2.7035
  398MOL0     H54860   5.125   3.021   2.713 -1.8547  0.0518  0.5323
  398MOL0     H54861   5.207   3.183   2.868  3.7684  0.3972  2.8232
  398MOL0     H54862   5.342   3.087   2.809 -0.9694  0.1257  1.2994
  398MOL0     H54863   5.376   3.289   2.636  1.3617  0.1768  0.9685
  398MOL0     H54864   5.260   3.371   2.717 -1.9073 -0.0594  1.5927
  398MOL0     H54865   5.388   3.408   2.912 -1.6875  0.5422 -0.4575
  398MOL0     H54866   5.496   3.427   2.779  1.4418 -0.6245  0.8631
  398MOL0     H54867   5.599   3.326   2.952  0.0179  1.0791 -2.8276
  398MOL0     H54868   5.483   3.186   2.970  0.2367  0.3607  1.3089
  398MOL0     H54869   5.693   3.240   2.763  2.4362  0.1122  0.6200
  398MOL0     H54870   5.587   3.098   2.745 -1.5654  1.1033 -0.2648
  398MOL0     H54871   5.810   3.049   2.845  0.6364  1.1337 -1.7500
  398MOL0     H54872   5.788   3.165   2.967  0.6904  1.1965 -1.9268
  398MOL0     H54873   5.748   3.030   3.199  0.4929 -1.9675  0.7321
  398MOL0     H54874   5.491   2.737   3.308 -0.3604  0.4443 -2.1689
  398MOL0     H54875   5.470   2.903   3.347 -1.1926 -2.0924 -2.1928
  398MOL0     H54876   5.734   2.898   3.385  0.0953  0.1474 -2.8632
  398MOL0     H54877   5.654   2.789   3.497 -0.3455 -0.6230  0.3967
  398MOL0     H54878   5.672   2.604   3.378  1.8987 -1.2289 -2.1106
  398MOL0     H54879   5.730   2.679   3.229 -0.6799 -0.5350 -0.4432
  398MOL0     H54880   5.864   2.679   3.504  2.1080  1.1423  0.1435
  398MOL0     H54881   5.908   2.571   3.365 -0.2289 -0.4739  0.5587
  398MOL0     H54882   6.090   2.586   3.516  3.1684 -2.1963  0.8792
  398MOL0     H54883   6.383   2.485   3.546 -0.1295  0.3807 -0.7327
  398MOL0     H54884   6.269   2.573   3.665 -0.4988 -1.0931 -0.1159
  398MOL0     H54885   6.409   2.645   3.624  1.1785 -0.8909  0.0985
  398MOL0     H54886   6.695   2.768   3.141  1.7520 -1.8981 -0.0705
  398MOL0     H54887   6.931   2.758   3.113  1.0868  0.3949 -0.0929
  398MOL0     H54888   7.110   2.626   3.156 -2.0025  0.1642  2.5527
  398MOL0     H54889   7.207   2.773   3.125  1.2920 -1.4573 -0.7843
  398MOL0     H54890   7.372   2.713   3.274  2.1666 -2.1613  2.2007
  398MOL0     H54891   7.288   2.576   3.340  1.8773  2.3333  2.0669
  398MOL0     H54892   7.378   2.579   3.046  0.6241  0.3473 -0.3574
  398MOL0     H54893   7.301   2.449   3.125 -0.7476  1.0881  1.9607
  398MOL0     H54894   7.477   2.432   3.289 -0.6459 -1.0669  0.1318
  398MOL0     H54895   7.568   2.558   3.218  0.9486 -0.7289  0.4782
  398MOL0     H54896   7.468   2.302   3.073 -2.0228  2.2281 -0.9063
  398MOL0     H54897   7.580   2.405   3.004 -1.4613  0.7654  0.2911
  398MOL0     H54898   7.659   2.270   3.271 -0.9890 -4.4808 -0.1242
  398MOL0     H54899   7.752   2.328   3.125 -1.1895  2.9726  1.5535
  398MOL0     H54900   7.753   2.093   3.109 -0.3354 -0.3368  3.3817
  398MOL0     H54901   7.615   2.141   3.006 -1.1963 -0.1215  0.6998
  398MOL0     H54902   7.457   2.049   3.155  0.4244  1.3068 -1.5082
  398MOL0     H54903   7.564   2.070   3.299  0.3242 -2.1108  0.9051
  398MOL0     H54904   6.989   2.826   3.541 -2.1698  1.3109  0.4787
  398MOL0     H54905   6.753   2.869   3.557 -1.5475  2.2902 -1.7818
  398MOL0     H54906   6.362   2.874   3.216 -2.0116 -0.9668 -3.1019
  398MOL0     H54907   6.134   2.907   3.218  2.1840  0.8373  0.6158
  398MOL0     H54908   4.979   2.927   2.285 -0.4420 -0.4127 -0.7668
  398MOL0     H54909   5.008   2.900   2.056 -1.5339 -1.6333  2.3567
  398MOL0     H54910   5.246   2.807   1.714 -1.8990 -0.8591 -0.9526
  398MOL0     H54911   5.211   2.742   1.478 -0.4447  0.5943 -0.2539
  398MOL0     H54912   5.058   2.743   1.199  0.9819 -0.1928  0.8206
  398MOL0     H54913   4.966   2.812   1.323 -3.3231  1.0727 -2.4232
  398MOL0     H54914   4.905   3.000   1.193 -2.9978  0.0484 -3.2708
  398MOL0     H54915   4.889   2.855   1.098 -1.9318  3.0460 -2.6530
  398MOL0     H54916   5.140   2.940   1.012 -1.4933  0.2485 -2.1279
  398MOL0     H54917   4.999   2.987   0.951  0.6674 -0.9909  0.3752
  398MOL0     H54918   5.172   3.178   1.009 -1.8748  2.0594 -2.3758
  398MOL0     H54919   5.121   3.163   1.177  0.1536 -0.8504 -0.4768
  398MOL0     H54920   4.802   3.334   0.943 -1.4811 -0.0235  2.0965
  398MOL0     H54921   5.140   3.151   1.380  1.8965 -0.4720 -0.7340
  398MOL0     H54922   5.114   3.320   1.536  2.6048  1.4144 -1.0857
  398MOL0     H54923   5.114   3.282   1.709 -0.8838 -0.0039  0.5884
  398MOL0     H54924   5.270   3.289   1.621  0.6479 -1.1806 -2.2083
  399MOL0     O54925   8.457   5.986   3.181  0.3323  0.6743 -0.2362
  399MOL0     C54926   8.515   6.088   3.214 -0.0235 -0.1025  0.1350
  399MOL0     O54927   8.530   6.137   3.345  0.0354  0.0525 -0.4492
  399MOL0     C54928   8.490   6.060   3.448 -0.1808 -0.1448 -1.0724
  399MOL0     C54929   8.437   6.130   3.559  0.1183 -0.3766 -0.5134
  399MOL0     C54930   8.384   6.061   3.673 -0.1921  0.0657 -0.7704
  399MOL0     C54931   8.377   5.918   3.674  0.1547 -0.4402  0.0771
  399MOL0     O54932   8.312   5.853   3.778  0.7973  0.5687 -0.0944
  399MOL0     C54933   8.277   5.709   3.787  0.3208  0.7659 -0.4182
  399MOL0     C54934   8.157   5.656   3.702 -0.4368  0.9260 -0.3154
  399MOL0     C54935   8.188   5.634   3.564 -0.3248  0.1543 -0.0413
  399MOL0     C54936   8.077   5.561   3.479  0.1499  0.9216  1.1428
  399MOL0     C54937   8.093   5.571   3.329 -0.2740  0.8468 -0.6777
  399MOL0     C54938   7.973   5.510   3.265 -0.3852  0.7578 -0.7526
  399MOL0     C54939   8.001   5.502   3.114 -0.2329 -0.2079 -0.0750
  399MOL0     C54940   7.881   5.457   3.038 -0.4319  0.3436 -0.2734
  399MOL0     N54941   7.881   5.486   2.887  1.0249 -0.6221 -0.5534
  399MOL0     C54942   7.877   5.606   2.827  0.4775 -0.1985  0.5419
  399MOL0     C54943   7.934   5.585   2.704  0.9925 -1.3805  0.7816
  399MOL0     C54944   7.965   5.689   2.600 -0.0086  0.1155 -0.1439
  399MOL0     C54945   8.116   5.723   2.605 -0.3185  0.3828 -0.7350
  399MOL0     C54946   8.165   5.784   2.742  0.6622  1.4312 -0.3083
  399MOL0     C54947   8.306   5.746   2.776  0.0715  0.8212 -0.3959
  399MOL0     O54948   8.388   5.766   2.661 -1.0549 -0.9266  0.0705
  399MOL0     C54949   8.518   5.732   2.651  0.0788  0.3055 -0.2157
  399MOL0     C54950   8.569   5.734   2.524 -0.3003  0.6694  0.5691
  399MOL0     C54951   8.694   5.687   2.480 -0.4458 -0.0051 -0.4420
  399MOL0     C54952   8.734   5.677   2.333 -0.5739  0.1186 -0.6710
  399MOL0     C54953   8.774   5.635   2.588 -0.3074 -0.9826  0.3067
  399MOL0     C54954   8.901   5.561   2.581 -0.7636  0.2720  0.4457
  399MOL0     O54955   8.948   5.491   2.681 -0.7676  0.0336 -0.1924
  399MOL0     C54956   9.076   5.446   2.676  0.2899 -0.3972 -0.6078
  399MOL0     C54957   9.103   5.315   2.630  0.7664 -0.5136  0.2933
  399MOL0     C54958   9.234   5.260   2.650  0.2951  0.1062  0.6651
  399MOL0     C54959   9.342   5.342   2.701  0.4246  0.4658 -0.0393
  399MOL0     O54960   9.474   5.302   2.691  0.4919  0.7191 -0.0428
  399MOL0     C54961   9.515   5.170   2.646  0.0862  0.1624 -0.7234
  399MOL0     C54962   9.491   5.049   2.742  1.1020 -0.0688 -0.0146
  399MOL0     C54963   9.573   5.052   2.858  0.4315 -0.3697  0.8960
  399MOL0     C54964   9.533   4.940   2.957 -0.1834  0.2278  0.7357
  399MOL0     C54965   9.598   4.957   3.096 -0.5787  0.0404 -0.0618
  399MOL0     C54966   9.555   4.834   3.182 -0.1526 -0.6880  0.0450
  399MOL0     C54967   9.595   4.853   3.331  0.5410 -0.4633 -0.0684
  399MOL0     C54968   9.740   4.810   3.361 -0.6888  0.7435 -0.2766
  399MOL0    Cl54969   9.734   4.639   3.409 -0.6280  0.1592  0.0983
  399MOL0     C54970   9.313   5.474   2.743 -0.5851 -0.4449  0.2035
  399MOL0     C54971   9.179   5.519   2.745  0.8628  0.3580  0.5396
  399MOL0     O54972   8.949   5.546   2.464  0.7945  0.2602 -0.1551
  399MOL0     C54973   8.732   5.649   2.721 -0.8734  0.1032 -0.4170
  399MOL0     C54974   8.602   5.682   2.756  0.2559 -0.4444  0.2339
  399MOL0     N54975   7.969   5.452   2.693  0.2543 -0.0861  0.4905
  399MOL0     N54976   7.942   5.401   2.805  0.2344 -0.3434  0.1441
  399MOL0     C54977   8.450   5.847   3.569 -0.2905 -0.3153 -0.5495
  399MOL0     C54978   8.495   5.912   3.461  0.1848  0.1374  0.0354
  399MOL0     C54979   8.600   6.164   3.130 -0.8633  0.3913  1.0574
  399MOL0     C54980   8.612   6.300   3.152  0.4517  0.1473  0.7638
  399MOL0     C54981   8.693   6.387   3.065 -0.3806  0.2443 -1.0809
  399MOL0     C54982   8.755   6.341   2.951  0.3716 -0.0283  0.5482
  399MOL0     O54983   8.833   6.421   2.875 -0.3212  0.0605  1.7088
  399MOL0     C54984   8.803   6.419   2.732 -0.3617 -0.0166 -0.7391
  399MOL0     C54985   8.911   6.485   2.657  1.0050  0.0647 -0.1575
  399MOL0     C54986   8.914   6.643   2.668  0.6994  0.0083 -0.2310
  399MOL0     C54987   8.994   6.688   2.789  0.7840  0.0100 -0.8807
  399MOL0     C54988   8.964   6.836   2.808 -0.6651  0.0844  0.1122
  399MOL0     C54989   8.958   6.956   2.832 -0.8133  0.4790 -0.2432
  399MOL0     C54990   8.746   6.200   2.927  0.8129 -0.3644  1.5165
  399MOL0     C54991   8.669   6.119   3.013 -0.6964  0.6962  0.5550
  399MOL0     C54992   8.676   5.971   2.996 -0.4442  0.5236 -0.0822
  399MOL0     H54993   8.438   6.238   3.569  0.0715 -0.4406  0.2026
  399MOL0     H54994   8.320   6.111   3.745 -0.7265 -2.5061  0.6606
  399MOL0     H54995   8.248   5.688   3.890 -0.0710  0.6650 -0.5467
  399MOL0     H54996   8.369   5.652   3.773  0.3083 -0.1379  2.5761
  399MOL0     H54997   8.126   5.559   3.742  3.4909  0.4382  2.0392
  399MOL0     H54998   8.081   5.734   3.714 -1.0814  0.3510 -0.6059
  399MOL0     H54999   8.217   5.729   3.518 -0.6235 -0.9343 -2.6656
  399MOL0     H55000   8.271   5.565   3.576 -0.8066 -0.4907 -0.3354
  399MOL0     H55001   8.078   5.453   3.495 -4.6295  0.7439  1.8664
  399MOL0     H55002   7.975   5.579   3.513 -0.1421 -1.3062  1.6163
  399MOL0     H55003   8.179   5.515   3.292 -2.0252 -3.7079  1.3420
  399MOL0     H55004   8.109   5.676   3.304  1.7769  0.9233  0.7181
  399MOL0     H55005   7.966   5.407   3.301  0.4662  1.6045  2.1389
  399MOL0     H55006   7.884   5.568   3.290 -1.1706 -1.0144  0.7514
  399MOL0     H55007   8.086   5.436   3.095 -0.9696 -1.8710  2.1141
  399MOL0     H55008   8.035   5.597   3.070  0.8335  0.0683  1.2576
  399MOL0     H55009   7.870   5.348   3.049 -0.2135  0.5544  2.7440
  399MOL0     H55010   7.796   5.504   3.087  0.9450  2.0685  0.5557
  399MOL0     H55011   7.832   5.697   2.864  0.3371 -0.1126  0.1610
  399MOL0     H55012   7.914   5.786   2.604  1.0024  0.8208 -2.5425
  399MOL0     H55013   7.935   5.649   2.502 -0.1741  1.0015 -0.4710
  399MOL0     H55014   8.169   5.631   2.577  0.4267 -0.1946  2.2399
  399MOL0     H55015   8.127   5.793   2.522 -1.7100  1.1845 -0.2715
  399MOL0     H55016   8.151   5.891   2.723 -1.0335  1.7047  2.0816
  399MOL0     H55017   8.104   5.756   2.828  1.3534  1.4614  0.2025
  399MOL0     H55018   8.336   5.790   2.871  0.5191  0.1358 -0.2129
  399MOL0     H55019   8.303   5.638   2.792 -0.4382  0.9154  0.1536
  399MOL0     H55020   8.504   5.781   2.451 -2.9691 -0.6100  1.9821
  399MOL0     H55021   8.816   5.739   2.298 -2.1422  2.1721 -0.9227
  399MOL0     H55022   8.650   5.726   2.281 -1.7738 -1.4524 -0.2919
  399MOL0     H55023   8.735   5.571   2.305  0.8285 -0.2588  0.6965
  399MOL0     H55024   9.030   5.250   2.582 -1.9951  2.5411 -0.0668
  399MOL0     H55025   9.255   5.158   2.621  1.5677  1.5738 -4.7946
  399MOL0     H55026   9.463   5.145   2.553 -1.5221 -2.4829  0.7523
  399MOL0     H55027   9.619   5.155   2.617  0.0693 -2.0320  0.1990
  399MOL0     H55028   9.386   5.072   2.764  1.4339  0.2277  1.3860
  399MOL0     H55029   9.487   4.950   2.696  2.5287 -0.4463  0.6039
  399MOL0     H55030   9.555   5.144   2.913 -0.2596 -0.9125  1.6043
  399MOL0     H55031   9.676   5.047   2.823  0.2712  1.1926  0.1058
  399MOL0     H55032   9.576   4.845   2.923  1.5351  0.2949  2.5022
  399MOL0     H55033   9.428   4.927   2.983 -1.1488  1.6535 -2.0718
  399MOL0     H55034   9.707   4.963   3.105 -0.6866  2.3474  0.2222
  399MOL0     H55035   9.565   5.053   3.136 -0.0918  0.3478 -0.3913
  399MOL0     H55036   9.602   4.743   3.143 -1.5949 -0.9838 -1.0906
  399MOL0     H55037   9.446   4.824   3.177 -0.1812 -1.0325  1.0546
  399MOL0     H55038   9.525   4.794   3.391  0.0817 -0.8586 -0.9772
  399MOL0     H55039   9.583   4.959   3.354 -0.3557 -0.7165  0.6862
  399MOL0     H55040   9.787   4.862   3.445 -1.1893 -3.6771  3.0424
  399MOL0     H55041   9.806   4.828   3.275  1.8407 -1.3167  1.1196
  399MOL0     H55042   9.394   5.541   2.770 -0.8241  0.9805 -2.2674
  399MOL0     H55043   9.164   5.614   2.797  1.7808 -0.1408  1.7676
  399MOL0     H55044   8.788   5.605   2.803  0.4861  0.5449 -1.0928
  399MOL0     H55045   8.555   5.639   2.845  1.9850  1.2433  2.0654
  399MOL0     H55046   8.450   5.739   3.570 -2.0649 -0.4245  2.6003
  399MOL0     H55047   8.530   5.859   3.373  0.3664 -1.1086  0.8353
  399MOL0     H55048   8.562   6.328   3.243 -0.7710 -1.8295  0.7651
  399MOL0     H55049   8.700   6.495   3.079 -0.8864  0.5108 -2.6606
  399MOL0     H55050   8.801   6.315   2.699 -1.7504 -0.6260  1.0945
  399MOL0     H55051   8.708   6.470   2.711 -1.1111  0.1606  2.4525
  399MOL0     H55052   8.912   6.459   2.551  2.1211 -0.2465 -0.0776
  399MOL0     H55053   9.008   6.443   2.685  2.0649  0.5967 -2.6865
  399MOL0     H55054   8.965   6.683   2.581 -1.0024 -0.8091 -1.6815
  399MOL0     H55055   8.813   6.686   2.663  0.8341  0.1427 -3.4881
  399MOL0     H55056   9.100   6.667   2.778  1.3589 -0.3951  3.4363
  399MOL0     H55057   8.955   6.619   2.865 -1.1861 -2.8366 -4.1928
  399MOL0     H55058   8.964   7.062   2.849 -2.1395  0.4018  0.8972
  399MOL0     H55059   8.796   6.151   2.844  0.3953 -0.7763  1.5058
  399MOL0     H55060   8.730   5.929   3.081 -1.2239  3.4787  1.9985
  399MOL0     H55061   8.580   5.925   2.972  1.0165 -2.3105 -1.0361
  399MOL0     H55062   8.738   5.939   2.912  0.1642  0.0446  0.5437
  400MOL0     O55063   8.098   4.415  10.048  0.7457 -0.2443  0.0521
  400MOL0     C55064   8.071   4.349  10.153 -0.2688 -0.4395  0.5399
  400MOL0     O55065   7.984   4.379  10.254  0.7025  0.7002  0.5059
  400MOL0     C55066   7.932   4.503  10.260  0.9136  0.1128 -0.4762
  400MOL0     C55067   8.012   4.619  10.259  0.1604 -0.3118  0.5164
  400MOL0     C55068   7.947   4.746  10.281 -0.8970 -0.2842  0.1748
  400MOL0     C55069   7.811   4.759  10.294 -0.0751  0.0996  0.1016
  400MOL0     O55070   7.731   4.873  10.305  0.5248  0.5568 -0.1518
  400MOL0     C55071   7.792   5.007  10.285  0.5588 -1.1798 -0.3654
  400MOL0     C55072   7.772   5.061  10.138 -0.6902  0.1212  0.6643
  400MOL0     C55073   7.614   5.074  10.112 -0.1857  0.0081 -0.0520
  400MOL0     C55074   7.591   5.097   9.965  0.3394  0.3816 -0.8632
  400MOL0     C55075   7.656   5.230   9.896 -0.5071  0.8469 -0.7143
  400MOL0     C55076   7.620   5.365   9.965  0.5224 -0.4504  0.1121
  400MOL0     C55077   7.692   5.482   9.892 -0.4191 -0.8583  0.8789
  400MOL0     C55078   7.830   5.515   9.955 -1.0575 -0.4851 -0.3040
  400MOL0     N55079   7.880   5.613   9.860 -0.1250  0.4243  0.6048
  400MOL0     C55080   7.920   5.740   9.903 -0.1596  0.0597  0.8271
  400MOL0     C55081   7.959   5.804   9.785 -0.5739  0.0761 -0.8317
  400MOL0     C55082   8.026   5.938   9.762  0.2891 -0.2237  0.2411
  400MOL0     C55083   8.135   5.967   9.862  0.1631 -0.6697  0.5303
  400MOL0     C55084   8.208   6.092   9.810  0.3710 -1.0813  0.5779
  400MOL0     C55085   8.166   6.230   9.874 -0.9935 -0.5489 -0.9633
  400MOL0     O55086   8.205   6.233  10.016  0.4816 -0.5697 -0.1720
  400MOL0     C55087   8.198   6.357  10.089  0.6670 -0.4997  0.9991
  400MOL0     C55088   8.134   6.477  10.037 -0.7967  0.1066 -0.5755
  400MOL0     C55089   8.111   6.595  10.113  0.2506  0.8277  0.1854
  400MOL0     C55090   8.055   6.713  10.047  0.3568  1.4337 -0.6358
  400MOL0     C55091   8.156   6.595  10.245 -0.2271 -0.4377 -0.5207
  400MOL0     C55092   8.144   6.701  10.347 -0.4591  0.4354  0.1169
  400MOL0     O55093   8.021   6.746  10.374 -0.4028 -0.2654  0.3877
  400MOL0     C55094   8.011   6.863  10.451  0.5382 -0.1589  0.1323
  400MOL0     C55095   7.961   6.981  10.389  0.4406  1.2442 -0.7518
  400MOL0     C55096   7.915   7.092  10.467  0.5971  0.4081 -0.0852
  400MOL0     C55097   7.907   7.093  10.607  0.5199  0.7871 -1.1888
  400MOL0     O55098   7.849   7.206  10.666 -0.4395  0.1196  0.2119
  400MOL0     C55099   7.894   7.229  10.798 -0.5434  0.3448 -0.8394
  400MOL0     C55100   7.837   7.363  10.844 -0.8020  0.4959 -0.6501
  400MOL0     C55101   7.878   7.399  10.982 -0.1631  0.1038 -0.6124
  400MOL0     C55102   7.857   7.547  10.992  0.2741  0.7868  0.3794
  400MOL0     C55103   7.886   7.603  11.136  0.6236  0.3790 -0.7657
  400MOL0     C55104   7.795   7.552  11.247  0.6866  1.0899 -0.6182
  400MOL0     C55105   7.854   7.558  11.395  0.3632  0.3348  0.1189
  400MOL0     C55106   7.890   7.699  11.440  0.6043  0.7333  0.2944
  400MOL0    Cl55107   7.742   7.796  11.437 -0.0167 -0.1180 -0.1587
  400MOL0     C55108   7.947   6.974  10.667 -0.0501 -0.0019 -1.0057
  400MOL0     C55109   7.994   6.860  10.591 -0.2485 -0.5925  0.4083
  400MOL0     O55110   8.248   6.744  10.404  0.7349  0.1933  0.6778
  400MOL0     C55111   8.223   6.481  10.295 -0.1659  1.4953  0.1617
  400MOL0     C55112   8.239   6.362  10.220 -0.2334  0.2012  0.0532
  400MOL0     N55113   7.942   5.718   9.679  0.4166  0.5831  0.5182
  400MOL0     N55114   7.905   5.603   9.732  0.4326  0.2617 -0.5224
  400MOL0     C55115   7.739   4.637  10.301 -0.1824 -0.3140 -0.4247
  400MOL0     C55116   7.799   4.510  10.307  0.0493  0.1083  0.4141
  400MOL0     C55117   8.136   4.215  10.181  0.5932 -0.5581  0.4938
  400MOL0     C55118   8.072   4.128  10.270 -0.5484  0.4422 -0.3350
  400MOL0     C55119   8.126   4.000  10.291 -0.4369  0.0629  0.3365
  400MOL0     C55120   8.240   3.957  10.221  1.2344 -0.2908  0.5360
  400MOL0     O55121   8.294   3.834  10.259  0.3573 -0.1525  0.0721
  400MOL0     C55122   8.359   3.760  10.148 -0.1045 -0.5196 -0.4205
  400MOL0     C55123   8.284   3.640  10.118 -0.2471  0.3058  0.2310
  400MOL0     C55124   8.321   3.581   9.981  0.4583  0.8897 -0.6984
  400MOL0     C55125   8.270   3.660   9.858  0.2934  0.5094 -0.3891
  400MOL0     C55126   8.126   3.657   9.841  0.8989  0.6094  0.3063
  400MOL0     C55127   8.004   3.680   9.822  1.1305  0.0526 -0.0498
  400MOL0     C55128   8.315   4.052  10.146 -0.1404 -0.4688  0.4915
  400MOL0     C55129   8.261   4.179  10.130 -0.5550  0.0851 -0.1864
  400MOL0     C55130   8.356   4.277  10.054 -0.0587 -0.4018  0.0930
  400MOL0     H55131   8.117   4.603  10.238 -0.1373 -1.0691 -0.4802
  400MOL0     H55132   8.012   4.832  10.285  1.8514 -2.2825  1.8316
  400MOL0     H55133   7.900   5.008  10.304  0.2468 -1.0591  1.5830
  400MOL0     H55134   7.750   5.070  10.363  0.3273 -0.9868 -0.6449
  400MOL0     H55135   7.815   5.161  10.138 -1.9212  0.6675  0.9642
  400MOL0     H55136   7.816   4.988  10.068 -0.0362  1.9620 -0.9395
  400MOL0     H55137   7.553   4.988  10.142 -0.8946 -0.7534 -3.3012
  400MOL0     H55138   7.579   5.167  10.158 -0.3840  0.8399 -1.8057
  400MOL0     H55139   7.632   5.005   9.924  0.2445 -0.7729  1.5166
  400MOL0     H55140   7.485   5.093   9.935  0.3922 -2.4207 -0.9462
  400MOL0     H55141   7.619   5.240   9.794  0.8342  1.2966 -1.1703
  400MOL0     H55142   7.765   5.226   9.892 -0.2494  1.9114  2.2077
  400MOL0     H55143   7.511   5.382   9.963  0.1429 -2.3002  1.8425
  400MOL0     H55144   7.648   5.350  10.069  1.2535 -0.2966 -0.0639
  400MOL0     H55145   7.620   5.565   9.894 -2.0740 -2.1209 -1.3319
  400MOL0     H55146   7.702   5.469   9.784  0.7576 -0.0734  0.8799
  400MOL0     H55147   7.801   5.558  10.052  3.9704  1.3108  0.6962
  400MOL0     H55148   7.906   5.438   9.969  1.0480  1.8592  2.4489
  400MOL0     H55149   7.925   5.788  10.000  1.4228  0.9528  0.3410
  400MOL0     H55150   7.945   6.011   9.762  1.1537  0.7496  0.6765
  400MOL0     H55151   8.060   5.947   9.658  1.7467  0.2337  0.7313
  400MOL0     H55152   8.088   5.998   9.956  1.4028  0.1249  0.9111
  400MOL0     H55153   8.197   5.879   9.880 -1.3709 -1.9627 -0.2634
  400MOL0     H55154   8.313   6.071   9.830 -0.2572 -1.2624  4.4511
  400MOL0     H55155   8.206   6.106   9.702  0.2669  3.6466  0.9751
  400MOL0     H55156   8.228   6.307   9.827  2.1321 -1.2168  1.6410
  400MOL0     H55157   8.063   6.261   9.854 -1.0296  1.2208  1.4987
  400MOL0     H55158   8.114   6.477   9.931 -2.0558  0.8762 -0.3590
  400MOL0     H55159   7.950   6.695  10.022  0.2473  1.6457 -0.3388
  400MOL0     H55160   8.107   6.742   9.956  2.0176  3.7138  0.9143
  400MOL0     H55161   8.054   6.804  10.109  2.3366 -0.5247  2.5734
  400MOL0     H55162   7.940   6.988  10.283 -0.5677 -1.4867 -0.8301
  400MOL0     H55163   7.870   7.175  10.413 -1.2129 -1.3130 -1.3288
  400MOL0     H55164   7.876   7.149  10.871 -1.0636 -0.4743 -1.8391
  400MOL0     H55165   8.002   7.246  10.793 -0.7964  2.9824  0.7946
  400MOL0     H55166   7.862   7.437  10.767 -1.3889  1.4086  0.0132
  400MOL0     H55167   7.729   7.347  10.845 -0.6283 -1.0537  1.2954
  400MOL0     H55168   7.985   7.386  10.998  0.2322  2.9584 -0.3909
  400MOL0     H55169   7.810   7.338  11.043 -0.0227 -0.9277 -1.4628
  400MOL0     H55170   7.755   7.569  10.961  0.5805  1.0552 -0.4945
  400MOL0     H55171   7.920   7.599  10.919 -0.9208  1.8533  0.0770
  400MOL0     H55172   7.986   7.567  11.162  1.6799  2.6427 -1.4057
  400MOL0     H55173   7.883   7.712  11.143 -0.3415  0.3058  0.2287
  400MOL0     H55174   7.765   7.452  11.214  0.8391  0.9680 -0.3949
  400MOL0     H55175   7.699   7.605  11.252 -0.0272 -0.2248  0.0541
  400MOL0     H55176   7.944   7.497  11.396 -0.4266 -0.8843 -0.8093
  400MOL0     H55177   7.789   7.499  11.460  1.2442  0.5251  1.2184
  400MOL0     H55178   7.965   7.735  11.368 -0.5152 -2.8030 -2.9429
  400MOL0     H55179   7.931   7.688  11.541  0.3861 -3.0390  0.0951
  400MOL0     H55180   7.957   6.960  10.774 -2.6032  0.7535 -0.6111
  400MOL0     H55181   8.025   6.773  10.649 -2.7362 -1.4327  0.6002
  400MOL0     H55182   8.259   6.472  10.398  1.6421  2.1897 -0.3767
  400MOL0     H55183   8.293   6.275  10.258  0.5652  1.3550  1.6959
  400MOL0     H55184   7.635   4.636  10.332 -0.2650 -0.2134 -0.6963
  400MOL0     H55185   7.749   4.416  10.328 -0.4958 -0.2245 -2.0557
  400MOL0     H55186   7.980   4.148  10.325 -0.2013 -0.3919  0.5825
  400MOL0     H55187   8.075   3.932  10.358  0.2099 -1.5055 -0.6918
  400MOL0     H55188   8.361   3.820  10.057 -0.8678 -0.2165 -0.2462
  400MOL0     H55189   8.463   3.731  10.169  0.3296  0.6408 -0.9147
  400MOL0     H55190   8.177   3.659  10.131  0.1199  3.1643 -0.3039
  400MOL0     H55191   8.299   3.563  10.195 -0.8154  1.2432  1.3145
  400MOL0     H55192   8.430   3.571   9.979  0.4429  0.3056  0.3732
  400MOL0     H55193   8.283   3.480   9.998  2.9449  0.4346  3.6896
  400MOL0     H55194   8.309   3.608   9.770  0.2392  1.1972 -0.8306
  400MOL0     H55195   8.304   3.764   9.866  1.4249  0.1472 -0.2846
  400MOL0     H55196   7.900   3.692   9.798  1.3655  1.8671 -0.3581
  400MOL0     H55197   8.418   4.050  10.112 -0.2942 -0.3926  0.0120
  400MOL0     H55198   8.369   4.369  10.111  1.3889 -0.3178 -0.3263
  400MOL0     H55199   8.456   4.235  10.047  0.5114  0.9787 -0.5622
  400MOL0     H55200   8.319   4.303   9.954  2.5013  2.8222 -0.1877
  401MOL0     O55201   0.745   7.151  11.000  0.2512 -0.4027  0.1172
  401MOL0     C55202   0.812   7.176  11.104  0.1701 -0.7095  0.4375
  401MOL0     O55203   0.778   7.129  11.231  0.2749 -0.4221 -0.2905
  401MOL0     C55204   0.691   7.022  11.231  0.4757 -1.1957 -0.6474
  401MOL0     C55205   0.735   6.900  11.271 -0.6031  0.2955  0.4891
  401MOL0     C55206   0.639   6.795  11.279 -0.3179 -0.4238 -0.4204
  401MOL0     C55207   0.504   6.818  11.245  0.6769  0.4774  0.2899
  401MOL0     O55208   0.404   6.725  11.263  0.7866  0.4324  0.3911
  401MOL0     C55209   0.441   6.587  11.264 -0.2977  0.6359 -1.7016
  401MOL0     C55210   0.317   6.497  11.244 -0.1017  0.2978 -0.3729
  401MOL0     C55211   0.177   6.533  11.311 -0.1488  0.2276  0.5929
  401MOL0     C55212   0.061   6.475  11.237 -0.9434 -0.0107 -0.7002
  401MOL0     C55213   0.019   6.552  11.105 -1.2294 -0.4549  0.1331
  401MOL0     C55214  -0.044   6.685  11.112  0.2352 -0.4960 -0.4174
  401MOL0     C55215  -0.076   6.756  10.982  0.3837  0.1354 -0.1716
  401MOL0     C55216  -0.135   6.892  11.003  0.6315  0.0732 -0.1236
  401MOL0     N55217  -0.257   6.894  11.094 -0.0181  0.2540  0.0698
  401MOL0     C55218  -0.257   6.940  11.225  0.4742  1.1905 -0.5559
  401MOL0     C55219  -0.392   6.959  11.254  0.3381 -0.3786  0.2177
  401MOL0     C55220  -0.435   7.007  11.388 -0.0115 -0.1395 -1.1287
  401MOL0     C55221  -0.558   6.941  11.454  0.8638 -0.8766 -0.8672
  401MOL0     C55222  -0.662   7.050  11.500 -0.2474  0.3930 -0.8401
  401MOL0     C55223  -0.787   6.988  11.572  0.0677  0.4239 -0.5486
  401MOL0     O55224  -0.882   7.094  11.586 -0.2744  0.1722  0.3841
  401MOL0     C55225  -0.867   7.205  11.657 -0.3025 -0.0012 -1.2760
  401MOL0     C55226  -0.939   7.311  11.612 -0.5999 -0.4392  0.0011
  401MOL0     C55227  -0.921   7.440  11.668 -0.3984 -0.4361 -0.5629
  401MOL0     C55228  -0.989   7.548  11.587  0.2484 -0.6116 -0.0012
  401MOL0     C55229  -0.842   7.451  11.787 -0.0192 -0.1664 -0.6493
  401MOL0     C55230  -0.825   7.572  11.878  0.3289  0.7463  0.3390
  401MOL0     O55231  -0.733   7.566  11.974 -0.0920  0.5342  0.3680
  401MOL0     C55232  -0.736   7.661  12.074  0.5392 -0.3682 -0.4139
  401MOL0     C55233  -0.643   7.767  12.086  0.3811  0.2657  0.5575
  401MOL0     C55234  -0.658   7.869  12.178  0.1389 -0.1435  0.3886
  401MOL0     C55235  -0.772   7.860  12.269  0.6700  0.5756 -0.0926
  401MOL0     O55236  -0.792   7.942  12.373 -0.7612 -0.8272 -0.3768
  401MOL0     C55237  -0.686   8.039  12.389 -0.2060 -0.1622 -0.2186
  401MOL0     C55238  -0.703   8.110  12.530 -0.5688  0.4745  0.1299
  401MOL0     C55239  -0.610   8.235  12.551  0.8284 -1.0708  1.0694
  401MOL0     C55240  -0.648   8.339  12.651  0.2276  0.6501 -0.7245
  401MOL0     C55241  -0.590   8.281  12.782  0.6863  0.0536 -0.2535
  401MOL0     C55242  -0.642   8.336  12.912 -0.1163 -0.0564 -0.3789
  401MOL0     C55243  -0.641   8.490  12.926  0.4167 -0.0693 -0.3828
  401MOL0     C55244  -0.772   8.557  12.965  0.4071 -0.3704 -0.2695
  401MOL0    Cl55245  -0.797   8.543  13.141  0.6670 -0.1746 -0.4846
  401MOL0     C55246  -0.855   7.754  12.260  0.1401  0.8098  0.4161
  401MOL0     C55247  -0.841   7.660  12.166 -0.0710 -0.0157  0.2269
  401MOL0     O55248  -0.901   7.665  11.846 -0.1109  0.1938 -0.4266
  401MOL0     C55249  -0.775   7.339  11.833  0.0083  0.1836  0.2723
  401MOL0     C55250  -0.781   7.218  11.764  0.1331 -0.5674  0.6765
  401MOL0     N55251  -0.467   6.941  11.142 -0.0874 -0.1677 -0.2502
  401MOL0     N55252  -0.384   6.912  11.044  0.0774 -0.4187 -0.0847
  401MOL0     C55253   0.464   6.946  11.221 -0.8403 -1.0159  0.1352
  401MOL0     C55254   0.557   7.048  11.212 -0.2817 -0.0700 -0.3188
  401MOL0     C55255   0.938   7.234  11.072 -0.3753 -0.3090 -0.8837
  401MOL0     C55256   0.944   7.356  10.999  0.0316  0.6327  0.0625
  401MOL0     C55257   1.068   7.411  10.968 -0.2852  0.3834 -0.7763
  401MOL0     C55258   1.189   7.348  11.003  0.4519 -0.4704 -0.1442
  401MOL0     O55259   1.316   7.391  10.965  0.5439 -0.3926  0.3566
  401MOL0     C55260   1.326   7.526  10.910 -0.5900 -0.1445 -0.7948
  401MOL0     C55261   1.484   7.545  10.892  0.5409  0.8136 -0.2119
  401MOL0     C55262   1.560   7.518  11.029 -0.2598 -0.1109  0.8018
  401MOL0     C55263   1.683   7.427  10.993 -0.1667  0.3626 -0.4348
  401MOL0     C55264   1.731   7.353  11.119  0.2353  0.2798 -0.0506
  401MOL0     C55265   1.787   7.289  11.212  1.1616  0.9091  0.7808
  401MOL0     C55266   1.184   7.226  11.077  0.0489 -0.2175  0.2838
  401MOL0     C55267   1.055   7.174  11.107  0.7901  1.0240 -0.4568
  401MOL0     C55268   1.058   7.033  11.167 -0.5574  0.2489  0.8413
  401MOL0     H55269   0.836   6.895  11.310 -1.1174  2.8309  2.4764
  401MOL0     H55270   0.663   6.694  11.310  2.6320  0.1764 -0.4871
  401MOL0     H55271   0.473   6.572  11.367  2.6179 -0.7928 -2.7115
  401MOL0     H55272   0.511   6.547  11.190  0.4848  1.2462 -1.3079
  401MOL0     H55273   0.306   6.490  11.136  0.3945  1.1229 -0.4843
  401MOL0     H55274   0.359   6.402  11.281  0.5708  0.5959 -0.3480
  401MOL0     H55275   0.170   6.494  11.413  0.4400 -0.6931  0.2904
  401MOL0     H55276   0.169   6.641  11.327  0.9871  0.3846  0.2110
  401MOL0     H55277   0.072   6.369  11.213 -4.3842 -1.3103  2.5334
  401MOL0     H55278  -0.027   6.477  11.302  0.3628 -1.8782  1.2809
  401MOL0     H55279  -0.048   6.489  11.045  0.0021  2.3360 -4.7438
  401MOL0     H55280   0.110   6.561  11.044 -1.2451  0.3327  0.2163
  401MOL0     H55281  -0.142   6.673  11.161 -0.4590 -2.4224 -2.1341
  401MOL0     H55282   0.020   6.756  11.165  0.0300 -0.3643 -0.3458
  401MOL0     H55283  -0.144   6.696  10.921 -1.1306  0.0768  1.4927
  401MOL0     H55284   0.018   6.760  10.925  2.7998 -2.6676  3.1498
  401MOL0     H55285  -0.054   6.955  11.041  0.8282  0.2240 -0.7917
  401MOL0     H55286  -0.169   6.932  10.907 -1.1069  2.9971  1.5668
  401MOL0     H55287  -0.170   6.963  11.285  1.2727  0.1434 -1.2859
  401MOL0     H55288  -0.455   7.113  11.371 -1.6695  0.1755  2.0401
  401MOL0     H55289  -0.348   6.998  11.455 -0.9863  0.8668  0.3405
  401MOL0     H55290  -0.606   6.888  11.371 -2.8728  1.2299 -0.2337
  401MOL0     H55291  -0.520   6.863  11.522  2.1954 -2.6855 -3.5195
  401MOL0     H55292  -0.615   7.139  11.543  0.2179  0.7714 -2.0881
  401MOL0     H55293  -0.698   7.092  11.406 -1.0884  1.8852  0.1132
  401MOL0     H55294  -0.837   6.903  11.525 -2.3458  1.1555  0.5396
  401MOL0     H55295  -0.750   6.956  11.670  0.3079  2.2300 -0.0126
  401MOL0     H55296  -1.000   7.296  11.523  0.0731 -5.7069  0.1143
  401MOL0     H55297  -1.076   7.516  11.528 -1.8146  1.5387  1.6740
  401MOL0     H55298  -0.922   7.606  11.522 -1.0363  0.4375 -0.4430
  401MOL0     H55299  -1.025   7.621  11.660 -0.1948 -0.2656 -0.5500
  401MOL0     H55300  -0.578   7.776  11.999 -1.0146 -2.4154 -0.8982
  401MOL0     H55301  -0.591   7.954  12.167 -1.2857  0.7927 -1.6730
  401MOL0     H55302  -0.585   7.999  12.377  1.0920  3.0102 -0.8410
  401MOL0     H55303  -0.708   8.119  12.318  1.4954  1.0394  0.5091
  401MOL0     H55304  -0.809   8.132  12.547 -1.5385 -3.2898 -0.2999
  401MOL0     H55305  -0.689   8.041  12.613  2.8366  2.6240  1.5559
  401MOL0     H55306  -0.614   8.278  12.450 -1.2908  0.3683  1.6911
  401MOL0     H55307  -0.508   8.201  12.569  0.7725 -1.4822  0.6281
  401MOL0     H55308  -0.757   8.347  12.656 -0.0172 -2.2243  1.8854
  401MOL0     H55309  -0.610   8.440  12.635  2.4203 -0.4411 -3.2745
  401MOL0     H55310  -0.590   8.172  12.784  0.8999  0.0231 -1.3422
  401MOL0     H55311  -0.483   8.303  12.777 -0.0657  4.2354 -3.2153
  401MOL0     H55312  -0.582   8.282  12.987 -0.9193  0.0395  0.3484
  401MOL0     H55313  -0.743   8.297  12.925 -0.4261  1.1476  1.1168
  401MOL0     H55314  -0.631   8.541  12.830 -3.1743 -0.0976 -0.9201
  401MOL0     H55315  -0.562   8.526  12.993  2.6142 -2.6591 -1.4533
  401MOL0     H55316  -0.861   8.518  12.915 -1.0773 -0.9345  2.5818
  401MOL0     H55317  -0.760   8.663  12.941  0.4005 -0.4079 -0.4409
  401MOL0     H55318  -0.943   7.751  12.325 -0.4463  2.4900 -0.2512
  401MOL0     H55319  -0.900   7.569  12.171  1.9509 -1.3759  0.5076
  401MOL0     H55320  -0.705   7.340  11.917 -0.0391  0.0919  0.3134
  401MOL0     H55321  -0.738   7.125  11.799  0.9856 -0.4557 -0.0378
  401MOL0     H55322   0.360   6.968  11.202 -0.6293 -0.8016 -0.8469
  401MOL0     H55323   0.527   7.147  11.179  0.0507  0.3736  0.6984
  401MOL0     H55324   0.847   7.402  10.984 -0.0634  0.3810 -0.0914
  401MOL0     H55325   1.071   7.502  10.910  2.4505  1.3839  0.7542
  401MOL0     H55326   1.284   7.540  10.810  3.1752  0.4899 -2.4738
  401MOL0     H55327   1.285   7.608  10.969  0.1947 -1.6101  2.0017
  401MOL0     H55328   1.509   7.647  10.862  2.6390  0.4902  0.3206
  401MOL0     H55329   1.514   7.478  10.811 -2.4866 -1.0370  0.0143
  401MOL0     H55330   1.583   7.618  11.068  0.2912  1.1070 -2.3722
  401MOL0     H55331   1.494   7.472  11.103 -0.4507  2.1847  2.1614
  401MOL0     H55332   1.762   7.486  10.945  2.2632 -2.2649  0.0288
  401MOL0     H55333   1.643   7.345  10.933 -1.8696 -0.3744  1.6068
  401MOL0     H55334   1.826   7.241  11.299  2.4954  0.5562  0.0083
  401MOL0     H55335   1.276   7.176  11.105 -1.3383 -1.8966  2.1062
  401MOL0     H55336   1.159   6.989  11.176 -0.9935 -0.7419  1.0532
  401MOL0     H55337   1.036   7.026  11.274  3.4143 -1.0109  1.7777
  401MOL0     H55338   0.993   6.963  11.114 -1.6606 -1.2866  3.9667
  402MOL0     O55339  11.524   3.717   4.110 -0.0151 -0.2407  0.7673
  402MOL0     C55340  11.594   3.674   4.018  0.3509  0.1937 -0.3509
  402MOL0     O55341  11.673   3.754   3.940  0.0859 -0.3487  0.4888
  402MOL0     C55342  11.660   3.889   3.960 -0.8149 -0.6176  0.4182
  402MOL0     C55343  11.774   3.961   4.005  0.6041  0.5280 -0.3865
  402MOL0     C55344  11.767   4.104   4.014  0.3573  0.2525 -0.7623
  402MOL0     C55345  11.653   4.172   3.979 -0.3700 -0.6228  0.0653
  402MOL0     O55346  11.665   4.307   4.003 -0.8351  0.4126  0.0024
  402MOL0     C55347  11.570   4.393   3.949 -1.2096 -0.8823 -0.1192
  402MOL0     C55348  11.453   4.405   4.042  0.2639 -0.0160  0.1795
  402MOL0     C55349  11.337   4.473   3.986 -0.0269  0.5449 -0.3558
  402MOL0     C55350  11.241   4.515   4.098  0.4872  0.0481  0.2094
  402MOL0     C55351  11.136   4.604   4.037 -0.0611 -0.9757 -0.0690
  402MOL0     C55352  11.047   4.541   3.922  0.0370 -0.9732 -0.4680
  402MOL0     C55353  10.933   4.651   3.886 -0.0628 -0.2921 -0.6318
  402MOL0     C55354  10.821   4.586   3.807 -0.7086  0.8388 -0.1837
  402MOL0     N55355  10.827   4.648   3.675 -0.3664  0.3260  0.0555
  402MOL0     C55356  10.714   4.677   3.604  0.7287 -1.0027  0.1923
  402MOL0     C55357  10.765   4.723   3.483  0.2284 -0.1331 -0.6334
  402MOL0     C55358  10.681   4.800   3.384 -0.0428 -1.4802  0.5364
  402MOL0     C55359  10.619   4.925   3.456 -0.4588  1.2456 -0.1479
  402MOL0     C55360  10.466   4.920   3.462  0.6967  0.1813 -0.1882
  402MOL0     C55361  10.383   4.958   3.330 -0.4461 -0.3426 -0.2343
  402MOL0     O55362  10.450   5.049   3.236  0.3346 -0.4957 -1.0232
  402MOL0     C55363  10.397   5.077   3.111  0.0195 -0.4835 -0.5984
  402MOL0     C55364  10.304   5.002   3.037  0.0722 -0.3123  0.6119
  402MOL0     C55365  10.253   5.038   2.912 -0.1375 -0.6480  0.1377
  402MOL0     C55366  10.139   4.963   2.857 -0.6578  0.6360  0.3462
  402MOL0     C55367  10.306   5.146   2.845 -0.5037 -1.8847  1.0710
  402MOL0     C55368  10.292   5.168   2.696 -0.2420 -0.0797  1.4150
  402MOL0     O55369  10.274   5.062   2.601 -0.0959 -0.7693 -0.8044
  402MOL0     C55370  10.306   5.083   2.471 -0.3145  1.1173  1.1287
  402MOL0     C55371  10.366   4.969   2.410  0.9288 -0.7511  0.3049
  402MOL0     C55372  10.410   4.972   2.276  0.3158 -0.7396 -0.4768
  402MOL0     C55373  10.383   5.087   2.201 -0.3706  0.5650  0.7170
  402MOL0     O55374  10.414   5.099   2.062  0.0248  0.0460  0.0680
  402MOL0     C55375  10.425   4.995   1.974 -0.2655  1.2842 -0.3100
  402MOL0     C55376  10.475   5.036   1.833 -0.6370 -0.3605  0.4546
  402MOL0     C55377  10.404   5.153   1.761  0.4444 -0.2325  0.2254
  402MOL0     C55378  10.280   5.117   1.670 -0.9032 -0.4348 -0.0722
  402MOL0     C55379  10.146   5.117   1.748  0.2844  0.4116  0.2965
  402MOL0     C55380  10.019   5.077   1.664 -0.7716 -0.3062 -0.1062
  402MOL0     C55381  10.024   4.930   1.629 -1.2977 -0.0272  0.3361
  402MOL0     C55382   9.894   4.876   1.568  0.2961 -0.1680 -0.7561
  402MOL0    Cl55383   9.923   4.855   1.395  0.6080 -0.0684 -0.2833
  402MOL0     C55384  10.303   5.194   2.253  0.4838 -0.2092  0.3746
  402MOL0     C55385  10.261   5.190   2.389  0.0544  0.8909  0.4302
  402MOL0     O55386  10.320   5.284   2.658 -0.2340 -0.2809  0.2558
  402MOL0     C55387  10.399   5.233   2.917  0.5612  0.7210 -0.0767
  402MOL0     C55388  10.448   5.186   3.039 -1.1812  0.4107  0.1603
  402MOL0     N55389  10.902   4.694   3.481 -0.6802  0.7515  0.3034
  402MOL0     N55390  10.937   4.642   3.598 -0.3378 -0.0869  0.6165
  402MOL0     C55391  11.542   4.102   3.928  0.0603 -0.3032  0.0947
  402MOL0     C55392  11.545   3.959   3.922 -1.4214 -0.0861  0.9488
  402MOL0     C55393  11.598   3.528   3.994  0.0011  1.0112 -0.5960
  402MOL0     C55394  11.716   3.465   3.936  0.7177  0.5265  0.3983
  402MOL0     C55395  11.731   3.325   3.906  0.7768  0.3138 -0.0709
  402MOL0     C55396  11.623   3.243   3.924  0.9501  0.0852  0.3624
  402MOL0     O55397  11.633   3.116   3.894  0.5545  0.3831  0.4034
  402MOL0     C55398  11.569   3.020   3.975 -0.3835  0.6725  0.6974
  402MOL0     C55399  11.678   2.952   4.075  0.9978  0.2930  0.6187
  402MOL0     C55400  11.727   3.039   4.188 -1.1930  0.0739  0.0966
  402MOL0     C55401  11.833   2.976   4.277  0.4456  0.0008  0.1544
  402MOL0     C55402  11.781   2.862   4.355 -0.8814 -0.1130  0.8186
  402MOL0     C55403  11.752   2.776   4.427 -0.1121 -0.3181 -0.3571
  402MOL0     C55404  11.499   3.304   3.979 -0.1245  0.4404 -0.3045
  402MOL0     C55405  11.490   3.438   4.019 -0.1464 -0.6001 -0.0425
  402MOL0     C55406  11.359   3.481   4.079  0.1493 -0.3042  0.0573
  402MOL0     H55407  11.862   3.904   4.031 -0.1834 -1.0615 -1.0101
  402MOL0     H55408  11.847   4.158   4.063 -0.9894  0.2731  1.6038
  402MOL0     H55409  11.534   4.375   3.847 -1.6526 -4.2382  0.4941
  402MOL0     H55410  11.621   4.490   3.949 -0.3411 -1.3293 -0.2425
  402MOL0     H55411  11.433   4.302   4.073  1.4834 -0.1968  0.4314
  402MOL0     H55412  11.479   4.463   4.130 -1.8033  0.4282  0.5215
  402MOL0     H55413  11.372   4.566   3.940 -1.0484 -0.2177 -2.8951
  402MOL0     H55414  11.291   4.405   3.914 -0.6073  0.3775  0.1681
  402MOL0     H55415  11.201   4.422   4.138 -0.9655  0.1289 -0.9698
  402MOL0     H55416  11.299   4.568   4.174  2.1697  1.5593 -1.9765
  402MOL0     H55417  11.184   4.693   3.997 -2.6957 -0.6722 -2.9029
  402MOL0     H55418  11.065   4.625   4.117  0.3818  1.1040 -0.1724
  402MOL0     H55419  11.108   4.527   3.832  0.5501 -1.8622  0.0055
  402MOL0     H55420  11.005   4.448   3.962  3.7580 -1.2574  3.6025
  402MOL0     H55421  10.966   4.743   3.837  0.4557  1.7918  3.2453
  402MOL0     H55422  10.892   4.686   3.982  2.3266 -0.7110  0.6187
  402MOL0     H55423  10.827   4.478   3.796  2.1290  0.8626  0.4786
  402MOL0     H55424  10.728   4.621   3.853 -0.8851  0.2025 -0.0503
  402MOL0     H55425  10.610   4.659   3.629  0.7759  0.7755  1.9783
  402MOL0     H55426  10.602   4.751   3.327 -0.4271 -2.4246  1.8530
  402MOL0     H55427  10.751   4.837   3.308 -2.0423 -1.9220 -1.6308
  402MOL0     H55428  10.649   4.941   3.560  1.8633  1.4405 -0.8042
  402MOL0     H55429  10.647   5.013   3.396 -2.9603  1.9126 -0.4640
  402MOL0     H55430  10.438   4.817   3.484 -0.4719 -0.4626 -4.0401
  402MOL0     H55431  10.423   4.978   3.544 -1.9332 -2.5381  0.5471
  402MOL0     H55432  10.351   4.874   3.268 -0.1105  0.3243 -1.3561
  402MOL0     H55433  10.297   5.025   3.342  0.3682  1.0379 -1.6774
  402MOL0     H55434  10.250   4.920   3.083  3.2396 -4.1465 -1.8516
  402MOL0     H55435  10.106   4.986   2.756 -0.4106  1.8147  0.5257
  402MOL0     H55436  10.053   4.961   2.926 -0.0368 -0.3302  1.1321
  402MOL0     H55437  10.165   4.857   2.844  0.9666  0.8485  1.6342
  402MOL0     H55438  10.389   4.876   2.462  1.6283 -0.7155  0.0644
  402MOL0     H55439  10.456   4.887   2.228 -2.0831 -1.5122 -1.5842
  402MOL0     H55440  10.492   4.916   2.011 -0.4983  1.3919  0.3600
  402MOL0     H55441  10.331   4.941   1.960  1.8794 -2.9163 -0.1318
  402MOL0     H55442  10.582   5.061   1.827 -1.0267  1.0564 -1.4136
  402MOL0     H55443  10.454   4.953   1.765 -1.5198  1.1668 -1.1910
  402MOL0     H55444  10.468   5.211   1.694  0.0401 -1.6141 -1.4343
  402MOL0     H55445  10.366   5.216   1.842 -1.2778  0.9173 -1.4146
  402MOL0     H55446  10.285   5.016   1.627 -3.1338 -0.3092 -0.7515
  402MOL0     H55447  10.279   5.180   1.581 -1.3917  0.1211  0.3192
  402MOL0     H55448  10.164   5.049   1.832 -1.5785 -0.2079  0.2405
  402MOL0     H55449  10.122   5.215   1.790 -2.1001  0.7157 -1.6051
  402MOL0     H55450  10.025   5.130   1.568 -2.3143  0.1973  0.0428
  402MOL0     H55451   9.925   5.090   1.718  0.1220 -2.6906  2.2879
  402MOL0     H55452  10.048   4.874   1.719  2.9644  4.3333  2.3230
  402MOL0     H55453  10.102   4.924   1.552 -3.5979 -1.5378 -2.0551
  402MOL0     H55454   9.810   4.946   1.577 -0.8080 -1.5592  0.0389
  402MOL0     H55455   9.865   4.784   1.618  0.6322  0.8213  1.3785
  402MOL0     H55456  10.283   5.279   2.189 -1.4060 -0.5441  0.4793
  402MOL0     H55457  10.201   5.268   2.434 -1.9345 -0.5420  0.3485
  402MOL0     H55458  10.447   5.316   2.865  2.2091 -1.1642 -1.7108
  402MOL0     H55459  10.535   5.230   3.086 -0.5865 -2.0085  1.4810
  402MOL0     H55460  11.453   4.150   3.888 -0.4461  0.2175  1.7939
  402MOL0     H55461  11.468   3.902   3.871 -1.9594  2.1698 -0.9901
  402MOL0     H55462  11.799   3.531   3.909 -1.3210  2.0557 -2.7429
  402MOL0     H55463  11.819   3.284   3.859  1.5103  3.9735 -2.2607
  402MOL0     H55464  11.482   3.053   4.032  0.9646  0.3752  3.0694
  402MOL0     H55465  11.525   2.955   3.899 -0.5198  4.1074 -2.3784
  402MOL0     H55466  11.762   2.911   4.018 -0.3472 -1.5384 -0.1502
  402MOL0     H55467  11.630   2.862   4.113  1.4078 -0.1250  0.1626
  402MOL0     H55468  11.759   3.135   4.147 -0.0488  0.2268  1.2793
  402MOL0     H55469  11.643   3.070   4.251  0.5555  1.5051  1.8490
  402MOL0     H55470  11.857   3.048   4.355 -1.5406 -1.1558  1.9750
  402MOL0     H55471  11.917   2.950   4.212 -1.8546  0.0030 -3.0509
  402MOL0     H55472  11.729   2.690   4.486 -2.3598  0.0769 -0.5315
  402MOL0     H55473  11.409   3.243   3.978 -1.5965  2.5148  0.0257
  402MOL0     H55474  11.315   3.574   4.042 -1.5307  0.8443  4.3690
  402MOL0     H55475  11.281   3.407   4.058  3.3992 -3.8593 -0.5515
  402MOL0     H55476  11.374   3.491   4.187  3.0142 -2.7434  0.0268
  403MOL0     O55477  10.838   2.717  10.896 -1.0905 -0.4081 -0.0903
  403MOL0     C55478  10.867   2.707  10.776  0.4356 -0.5917 -0.0438
  403MOL0     O55479  10.789   2.765  10.681  0.0195  0.5685  1.1987
  403MOL0     C55480  10.687   2.848  10.702  0.7528 -0.0660 -0.2932
  403MOL0     C55481  10.564   2.821  10.628 -0.5348  0.2944 -0.6541
  403MOL0     C55482  10.447   2.897  10.654  0.4383 -0.5043 -0.1897
  403MOL0     C55483  10.448   2.998  10.762  0.6187  0.1835 -0.1738
  403MOL0     O55484  10.332   3.057  10.806  0.1059  0.3722 -0.5282
  403MOL0     C55485  10.353   3.182  10.874 -0.2578  0.3004 -0.3499
  403MOL0     C55486  10.210   3.240  10.873  0.5930 -0.0212  0.0687
  403MOL0     C55487  10.207   3.372  10.946  0.7845 -0.0642  0.1646
  403MOL0     C55488  10.099   3.474  10.886  0.0671  0.8521 -0.4212
  403MOL0     C55489   9.984   3.392  10.812  0.2833  0.6699  0.2869
  403MOL0     C55490   9.870   3.491  10.768  0.5443  0.4066  0.3559
  403MOL0     C55491   9.753   3.408  10.717  0.8484 -0.2654 -0.0597
  403MOL0     C55492   9.778   3.362  10.576  0.2796 -0.2326 -0.0724
  403MOL0     N55493   9.663   3.292  10.507 -0.6571 -0.0554  0.5657
  403MOL0     C55494   9.641   3.160  10.528  0.8173 -0.9214 -0.6247
  403MOL0     C55495   9.525   3.131  10.464  0.3255 -1.3069  0.2836
  403MOL0     C55496   9.437   3.006  10.448 -0.5161 -0.9279 -0.3266
  403MOL0     C55497   9.320   3.011  10.555  0.3087  0.1354 -0.3615
  403MOL0     C55498   9.262   2.874  10.563 -1.3020 -0.0819  0.6442
  403MOL0     C55499   9.122   2.878  10.636  0.0184 -0.7961 -0.1527
  403MOL0     O55500   9.124   2.910  10.778 -0.5794 -0.0190 -0.4835
  403MOL0     C55501   9.131   2.808  10.868  0.6738  0.4767 -0.6392
  403MOL0     C55502   9.170   2.673  10.833  0.9452 -0.4095  0.1311
  403MOL0     C55503   9.184   2.575  10.926  1.1112 -0.2067 -0.8610
  403MOL0     C55504   9.236   2.439  10.878  0.3800  0.4943  0.3531
  403MOL0     C55505   9.148   2.601  11.063  0.7123  0.3161 -0.2043
  403MOL0     C55506   9.143   2.501  11.171  0.2005 -0.2563 -0.4645
  403MOL0     O55507   9.134   2.374  11.128 -0.1903 -0.2351 -0.3150
  403MOL0     C55508   9.169   2.279  11.221 -0.1193  0.3884 -0.7614
  403MOL0     C55509   9.100   2.163  11.211 -0.0098  0.5960  0.8536
  403MOL0     C55510   9.109   2.055  11.298 -1.1549 -0.0505 -0.3029
  403MOL0     C55511   9.204   2.060  11.401 -0.1663  0.0910 -0.1586
  403MOL0     O55512   9.233   1.948  11.480 -0.6836  0.2998  0.6043
  403MOL0     C55513   9.149   1.822  11.483  0.5281 -0.5363  1.4908
  403MOL0     C55514   9.123   1.799  11.635 -0.4865  0.1139  0.6489
  403MOL0     C55515   9.255   1.767  11.707  0.0987  0.6927 -0.0032
  403MOL0     C55516   9.334   1.643  11.668 -0.5581  1.0162 -0.2282
  403MOL0     C55517   9.463   1.639  11.742  0.4362  1.1510 -0.4104
  403MOL0     C55518   9.577   1.555  11.672 -0.4109 -0.5189 -0.1813
  403MOL0     C55519   9.590   1.408  11.712  0.8184  0.5742 -0.3590
  403MOL0     C55520   9.661   1.397  11.850 -1.0180 -0.1122 -0.3017
  403MOL0    Cl55521   9.638   1.229  11.919  0.1059 -0.1458  0.3592
  403MOL0     C55522   9.275   2.180  11.414  0.4899  0.0992  0.5660
  403MOL0     C55523   9.256   2.290  11.327  0.3871  0.8185 -0.4628
  403MOL0     O55524   9.120   2.537  11.287 -0.2195 -0.1917  0.0206
  403MOL0     C55525   9.115   2.733  11.101  0.1311  1.2753  0.7478
  403MOL0     C55526   9.108   2.832  11.005  0.1634  0.2291  0.3232
  403MOL0     N55527   9.489   3.262  10.404  0.4163  0.1548  0.2506
  403MOL0     N55528   9.575   3.353  10.434  0.5976 -0.5257  0.3645
  403MOL0     C55529  10.577   3.019  10.831 -0.2357 -0.1521  0.1518
  403MOL0     C55530  10.686   2.945  10.802 -0.0627  0.4674  0.8483
  403MOL0     C55531  10.999   2.645  10.737  1.4421 -0.1811 -0.6642
  403MOL0     C55532  11.085   2.615  10.846 -0.6936  0.8029 -1.3213
  403MOL0     C55533  11.212   2.558  10.829 -0.6464 -0.2812 -0.5246
  403MOL0     C55534  11.261   2.535  10.699  0.2680 -0.0006 -0.6908
  403MOL0     O55535  11.388   2.483  10.670 -0.0359 -0.6974  0.9039
  403MOL0     C55536  11.497   2.461  10.764 -0.3309 -0.0310 -0.6878
  403MOL0     C55537  11.504   2.326  10.834  0.1978  0.6534 -0.2913
  403MOL0     C55538  11.473   2.207  10.738 -0.5015 -0.2180  0.8791
  403MOL0     C55539  11.576   2.184  10.620  1.0820  0.5275  0.1428
  403MOL0     C55540  11.561   2.061  10.546  1.5508 -0.3259  0.1395
  403MOL0     C55541  11.533   1.965  10.479  0.2349 -0.5377  0.3428
  403MOL0     C55542  11.178   2.578  10.595 -0.9392  0.1800  0.3289
  403MOL0     C55543  11.046   2.621  10.605 -0.7126  0.0752 -0.2278
  403MOL0     C55544  10.961   2.649  10.479 -0.0888 -0.5728 -0.0412
  403MOL0     H55545  10.565   2.734  10.564 -2.8061 -0.9684  0.8594
  403MOL0     H55546  10.354   2.879  10.601  0.8037 -1.7009 -0.4727
  403MOL0     H55547  10.426   3.251  10.830  0.9072 -0.4952  0.2956
  403MOL0     H55548  10.387   3.163  10.976  1.2554  0.6900 -0.7510
  403MOL0     H55549  10.179   3.246  10.768 -2.9024 -1.8871  0.8379
  403MOL0     H55550  10.134   3.176  10.918 -2.3529  1.5808 -2.2145
  403MOL0     H55551  10.189   3.351  11.052  3.8195  0.4277  0.8676
  403MOL0     H55552  10.307   3.416  10.946  0.4943  0.6080 -0.1178
  403MOL0     H55553  10.048   3.499  10.980 -1.5322 -0.8233 -0.8018
  403MOL0     H55554  10.158   3.560  10.852  0.4496  2.0029  2.7442
  403MOL0     H55555   9.941   3.316  10.879 -1.2356  1.8887  0.7591
  403MOL0     H55556  10.030   3.354  10.720  2.7379  0.1811  1.6202
  403MOL0     H55557   9.836   3.562  10.843  0.8897  1.6556 -0.6407
  403MOL0     H55558   9.903   3.555  10.686 -0.3728 -0.0669 -0.4009
  403MOL0     H55559   9.666   3.475  10.727  2.4550  1.6642  2.5722
  403MOL0     H55560   9.743   3.326  10.788  5.6590 -1.6649 -0.6397
  403MOL0     H55561   9.791   3.448  10.509  0.4515  1.2263  1.7374
  403MOL0     H55562   9.867   3.299  10.562 -1.7984 -3.0919 -1.3554
  403MOL0     H55563   9.697   3.106  10.604  1.1184  1.6804  1.1132
  403MOL0     H55564   9.504   2.920  10.460 -0.9627 -1.2975 -0.4370
  403MOL0     H55565   9.406   2.994  10.343  0.8435  0.7046 -0.9543
  403MOL0     H55566   9.355   3.031  10.656 -1.6766 -2.3831  0.9501
  403MOL0     H55567   9.248   3.081  10.512  0.3507  0.0619 -0.5553
  403MOL0     H55568   9.229   2.846  10.463  0.3427  2.5101 -0.7473
  403MOL0     H55569   9.327   2.805  10.617  0.2099 -0.1679 -1.2062
  403MOL0     H55570   9.057   2.947  10.583  2.2645  0.1631 -1.8169
  403MOL0     H55571   9.072   2.781  10.634 -0.7591 -0.4427 -3.5944
  403MOL0     H55572   9.194   2.638  10.733  1.9614 -4.6828  1.6295
  403MOL0     H55573   9.158   2.363  10.878 -0.3295  1.2071 -0.9867
  403MOL0     H55574   9.315   2.404  10.946  0.4089  2.1284  1.1917
  403MOL0     H55575   9.290   2.441  10.783  0.8547 -0.2049  0.5915
  403MOL0     H55576   9.027   2.151  11.132  2.5287 -1.3054 -1.4013
  403MOL0     H55577   9.037   1.975  11.286  0.1316 -0.9692 -2.2242
  403MOL0     H55578   9.047   1.829  11.445  1.7130 -2.9695 -2.8818
  403MOL0     H55579   9.197   1.743  11.424 -0.8434 -2.5644  2.9731
  403MOL0     H55580   9.075   1.885  11.683 -1.8007  0.9093 -1.9120
  403MOL0     H55581   9.053   1.716  11.640  1.1884 -1.4727 -0.8343
  403MOL0     H55582   9.218   1.756  11.809 -1.4138 -0.5709 -0.6539
  403MOL0     H55583   9.320   1.856  11.706 -0.4802  1.1246 -1.3096
  403MOL0     H55584   9.353   1.642  11.560 -0.6187 -2.3195 -0.3205
  403MOL0     H55585   9.271   1.556  11.689  0.0249  0.3180 -1.2644
  403MOL0     H55586   9.496   1.743  11.731  2.9264  0.6592  1.5635
  403MOL0     H55587   9.445   1.630  11.849 -0.1029 -1.2635 -0.6443
  403MOL0     H55588   9.678   1.597  11.685 -0.3022 -0.0465 -2.1565
  403MOL0     H55589   9.579   1.565  11.563  0.7443 -2.4529 -0.3912
  403MOL0     H55590   9.647   1.345  11.644 -0.1831 -3.3483  2.1627
  403MOL0     H55591   9.487   1.371  11.716  1.1474 -0.2516  2.2085
  403MOL0     H55592   9.624   1.470  11.922 -1.7600  0.8474 -1.6096
  403MOL0     H55593   9.769   1.416  11.840 -0.4748 -2.7124 -0.1077
  403MOL0     H55594   9.342   2.191  11.499  0.5239 -0.1145  0.5673
  403MOL0     H55595   9.301   2.388  11.338 -1.3008  1.7990 -1.7334
  403MOL0     H55596   9.091   2.758  11.204  0.0636  0.9717  0.8066
  403MOL0     H55597   9.075   2.927  11.047 -0.2971  0.1579  0.1296
  403MOL0     H55598  10.578   3.086  10.917 -1.5136 -1.7760  1.5098
  403MOL0     H55599  10.778   2.955  10.859  0.3769  1.6226 -0.0336
  403MOL0     H55600  11.073   2.639  10.951  4.9750 -1.7942  0.2941
  403MOL0     H55601  11.262   2.519  10.917 -0.0478 -1.0578 -1.1936
  403MOL0     H55602  11.593   2.473  10.713 -0.1026  1.1469 -0.0211
  403MOL0     H55603  11.499   2.532  10.847 -1.4359  0.9031 -1.4253
  403MOL0     H55604  11.438   2.317  10.921 -0.9158  0.4278 -1.1419
  403MOL0     H55605  11.605   2.316  10.876 -0.9434  1.7010  3.0798
  403MOL0     H55606  11.485   2.120  10.803  4.4190 -0.8629 -0.4969
  403MOL0     H55607  11.370   2.217  10.704 -0.2711 -0.1221  0.2024
  403MOL0     H55608  11.675   2.188  10.667  0.5186  0.7777  1.3465
  403MOL0     H55609  11.569   2.271  10.553  0.7712 -0.3625 -1.0137
  403MOL0     H55610  11.498   1.881  10.421 -0.7706 -3.2352  4.3883
  403MOL0     H55611  11.224   2.587  10.497 -0.2411  1.9538  0.7895
  403MOL0     H55612  10.856   2.618  10.481  0.1290 -2.2062 -4.0711
  403MOL0     H55613  10.972   2.752  10.445 -3.3988 -0.4876 -1.2340
  403MOL0     H55614  10.998   2.595  10.391 -0.9870 -0.5672 -0.4321
  404MOL0     O55615   6.427   8.309  10.492 -0.9405 -0.7297 -0.6199
  404MOL0     C55616   6.303   8.313  10.513 -0.6852  0.7013  0.2145
  404MOL0     O55617   6.249   8.390  10.606  0.5265  0.7870 -0.3498
  404MOL0     C55618   6.337   8.438  10.701 -0.5476 -0.5724  0.5724
  404MOL0     C55619   6.367   8.570  10.681  0.8098  0.3015 -0.6280
  404MOL0     C55620   6.465   8.632  10.752 -0.0235 -0.3093  0.3659
  404MOL0     C55621   6.530   8.557  10.857 -0.8981  1.1986  0.2006
  404MOL0     O55622   6.618   8.621  10.932 -0.0301 -0.3531  0.0708
  404MOL0     C55623   6.721   8.538  10.995  0.8483 -0.1946 -0.0050
  404MOL0     C55624   6.787   8.643  11.090  0.0719  0.4069  0.1814
  404MOL0     C55625   6.683   8.673  11.204  0.2565 -1.0229  0.3393
  404MOL0     C55626   6.732   8.770  11.320  0.4636 -0.4569 -0.6497
  404MOL0     C55627   6.631   8.817  11.425 -0.5768  0.0997 -0.5510
  404MOL0     C55628   6.599   8.701  11.522 -0.7772 -0.9145 -0.5647
  404MOL0     C55629   6.529   8.725  11.651  0.7532 -0.1413  0.8155
  404MOL0     C55630   6.388   8.784  11.637  0.9795  0.4362  0.2485
  404MOL0     N55631   6.357   8.833  11.768  1.0621 -0.6463  0.1478
  404MOL0     C55632   6.383   8.780  11.896  0.6946  0.8792  1.1714
  404MOL0     C55633   6.364   8.881  11.982  1.2163 -0.2644  0.3906
  404MOL0     C55634   6.333   8.879  12.132  0.8201 -0.6357 -1.0206
  404MOL0     C55635   6.393   9.001  12.201  0.0983 -0.4837 -0.5389
  404MOL0     C55636   6.394   8.977  12.356 -0.2269  0.8908  0.2765
  404MOL0     C55637   6.463   9.099  12.422  0.6064  0.0808 -0.4125
  404MOL0     O55638   6.607   9.084  12.419  0.1952  0.0431  0.3582
  404MOL0     C55639   6.690   9.187  12.468  0.0171  0.4310  0.6716
  404MOL0     C55640   6.640   9.308  12.520 -0.4841 -0.0079 -0.5975
  404MOL0     C55641   6.717   9.396  12.586 -0.3185 -0.9963  0.5213
  404MOL0     C55642   6.649   9.530  12.612 -0.4893  0.5297  0.4695
  404MOL0     C55643   6.848   9.361  12.620  0.7813 -0.4825 -0.3479
  404MOL0     C55644   6.937   9.435  12.707  0.0543  0.9094  0.0092
  404MOL0     O55645   6.997   9.355  12.808  0.1157 -0.3146  0.0387
  404MOL0     C55646   7.101   9.397  12.888 -0.3832 -1.5200  0.6747
  404MOL0     C55647   7.140   9.306  12.977 -0.7951  0.4741  0.3593
  404MOL0     C55648   7.247   9.330  13.071  0.3335  0.3160 -0.9662
  404MOL0     C55649   7.287   9.466  13.091  1.1801  1.2365  1.5486
  404MOL0     O55650   7.383   9.477  13.180 -0.3016 -0.1362 -0.1150
  404MOL0     C55651   7.436   9.599  13.224 -0.4249  0.1405 -0.3727
  404MOL0     C55652   7.532   9.581  13.344  0.4521 -0.3441  0.3935
  404MOL0     C55653   7.651   9.502  13.296 -0.6008  0.2078  0.5393
  404MOL0     C55654   7.768   9.521  13.393  0.3069  0.2362 -0.3811
  404MOL0     C55655   7.889   9.426  13.377 -0.1445 -0.7914 -0.1120
  404MOL0     C55656   7.967   9.469  13.250  0.2898 -0.8714  0.0325
  404MOL0     C55657   8.102   9.404  13.236 -0.5705  0.1937  0.2948
  404MOL0     C55658   8.218   9.498  13.279  0.0839  0.3251 -0.4300
  404MOL0    Cl55659   8.383   9.430  13.258 -0.0123  0.0126 -0.2090
  404MOL0     C55660   7.243   9.562  13.003  1.2061  0.5414 -0.1233
  404MOL0     C55661   7.145   9.527  12.906 -0.4928 -0.5425  0.1689
  404MOL0     O55662   6.962   9.552  12.687 -0.1511  0.4890  0.7658
  404MOL0     C55663   6.883   9.222  12.594  0.3893  0.2400  0.9192
  404MOL0     C55664   6.811   9.140  12.513  0.6603 -0.1129 -0.2705
  404MOL0     N55665   6.335   8.997  11.904 -0.6627 -0.7352  0.2184
  404MOL0     N55666   6.335   8.968  11.784  0.0674  0.1272 -0.7824
  404MOL0     C55667   6.495   8.416  10.883  0.1927  0.6341  0.4147
  404MOL0     C55668   6.395   8.362  10.802  0.1574 -0.2582 -0.1877
  404MOL0     C55669   6.214   8.212  10.450 -0.3770  1.0432 -0.3079
  404MOL0     C55670   6.076   8.208  10.492 -0.5435  0.6466 -1.5609
  404MOL0     C55671   5.988   8.107  10.454 -0.2005  0.2120  0.0956
  404MOL0     C55672   6.022   8.004  10.356  0.2423  0.2635 -0.7630
  404MOL0     O55673   5.919   7.915  10.316  0.6674 -0.5901 -0.1650
  404MOL0     C55674   5.962   7.802  10.239  1.1292  0.8596 -1.1953
  404MOL0     C55675   5.845   7.703  10.197  0.8991 -0.8062 -0.0029
  404MOL0     C55676   5.892   7.568  10.150 -0.5999 -0.6938 -0.6364
  404MOL0     C55677   5.989   7.593  10.040  0.1353  0.3109  0.1340
  404MOL0     C55678   5.989   7.473   9.952 -0.6815 -0.5613 -0.6433
  404MOL0     C55679   5.982   7.375   9.889 -0.6505  1.0281  0.0983
  404MOL0     C55680   6.149   8.012  10.308  0.4068 -0.1110 -0.0772
  404MOL0     C55681   6.258   8.103  10.357  0.8817 -0.8451 -0.6360
  404MOL0     C55682   6.384   8.090  10.289 -0.0343  0.5233 -0.4188
  404MOL0     H55683   6.312   8.630  10.610  0.1711  1.6417  0.9323
  404MOL0     H55684   6.491   8.736  10.739  0.7439 -0.4334  0.8190
  404MOL0     H55685   6.792   8.498  10.922 -0.5122 -1.4726 -0.6874
  404MOL0     H55686   6.673   8.455  11.048 -2.3282  0.8858 -0.9726
  404MOL0     H55687   6.871   8.598  11.145 -1.7874 -0.2837  2.6802
  404MOL0     H55688   6.825   8.732  11.040  0.2601 -0.2802 -0.9121
  404MOL0     H55689   6.589   8.705  11.159 -0.8800 -0.9781  2.6064
  404MOL0     H55690   6.654   8.578  11.251 -2.6811  0.8901  2.7740
  404MOL0     H55691   6.813   8.720  11.373  0.8923  0.0483 -0.8244
  404MOL0     H55692   6.773   8.857  11.269  0.1635 -0.7843 -1.4705
  404MOL0     H55693   6.541   8.850  11.373 -1.8807  3.2990  3.2267
  404MOL0     H55694   6.672   8.895  11.490  1.3618 -1.1981 -0.1063
  404MOL0     H55695   6.553   8.622  11.463 -0.3765 -1.0310 -0.7269
  404MOL0     H55696   6.685   8.637  11.543 -1.6158 -1.7956  0.2819
  404MOL0     H55697   6.581   8.799  11.712 -2.4481  3.4989 -0.4616
  404MOL0     H55698   6.537   8.631  11.706 -1.7321 -0.4326  0.8053
  404MOL0     H55699   6.378   8.878  11.583  0.1153  2.2174  3.2871
  404MOL0     H55700   6.316   8.710  11.599  0.6680  1.6743 -1.7147
  404MOL0     H55701   6.395   8.674  11.916  0.3923  0.3332 -1.2930
  404MOL0     H55702   6.378   8.791  12.177 -0.0621 -1.4641 -1.7216
  404MOL0     H55703   6.224   8.883  12.142  0.9998  0.1297  0.9700
  404MOL0     H55704   6.491   9.022  12.158  0.3109  2.4565  1.1394
  404MOL0     H55705   6.334   9.084  12.161 -1.5122 -1.3496 -0.0620
  404MOL0     H55706   6.288   8.962  12.375 -0.6793  0.7247 -2.0372
  404MOL0     H55707   6.449   8.886  12.384 -0.4084  0.1914 -1.4852
  404MOL0     H55708   6.438   9.190  12.367 -0.1423 -0.5732 -1.1742
  404MOL0     H55709   6.415   9.110  12.520  0.6887 -2.5831  0.0171
  404MOL0     H55710   6.536   9.339  12.518 -0.3762  0.3803 -0.2838
  404MOL0     H55711   6.546   9.521  12.648 -0.3483 -1.8849  0.4473
  404MOL0     H55712   6.656   9.586  12.518  1.4714 -0.2569  0.1017
  404MOL0     H55713   6.712   9.593  12.675 -0.8508  0.2112  1.1573
  404MOL0     H55714   7.098   9.206  12.965  2.4147 -0.8717 -0.6570
  404MOL0     H55715   7.285   9.248  13.131 -0.8745 -0.2228 -0.9066
  404MOL0     H55716   7.491   9.655  13.148 -2.3501  1.9221 -0.5553
  404MOL0     H55717   7.360   9.668  13.261  0.8789  2.0925 -1.1751
  404MOL0     H55718   7.566   9.681  13.370  1.7304  0.2666 -3.0722
  404MOL0     H55719   7.480   9.528  13.425  0.1710  0.3776  0.6903
  404MOL0     H55720   7.674   9.530  13.193 -1.7082  0.4047  0.3325
  404MOL0     H55721   7.636   9.394  13.281  2.0487 -0.2524  0.8340
  404MOL0     H55722   7.736   9.505  13.497  1.1555  0.9054 -0.0102
  404MOL0     H55723   7.793   9.627  13.389 -3.5081  1.2838 -0.4126
  404MOL0     H55724   7.960   9.444  13.458 -1.1864  1.7975  0.3331
  404MOL0     H55725   7.848   9.325  13.377 -1.0899 -0.4453  1.1866
  404MOL0     H55726   7.977   9.578  13.253 -0.8139 -0.7054  4.4787
  404MOL0     H55727   7.916   9.440  13.158 -1.3541 -2.5690  1.4074
  404MOL0     H55728   8.133   9.382  13.134  2.2050  2.9650  0.3779
  404MOL0     H55729   8.114   9.311  13.293  1.7836  0.1219 -0.1871
  404MOL0     H55730   8.205   9.528  13.383 -0.9331 -0.8815 -0.1789
  404MOL0     H55731   8.206   9.591  13.224 -4.1048  1.0740  1.3695
  404MOL0     H55732   7.270   9.667  13.013  0.0864  1.0221 -1.6205
  404MOL0     H55733   7.091   9.606  12.854 -1.0623  0.2636  1.8977
  404MOL0     H55734   6.976   9.182  12.633  0.8102 -1.3027 -1.4362
  404MOL0     H55735   6.847   9.043  12.480 -1.3067 -0.5643 -1.2437
  404MOL0     H55736   6.535   8.352  10.961 -1.3956 -0.3725  0.4571
  404MOL0     H55737   6.357   8.261  10.817  0.2783 -0.8020 -3.0240
  404MOL0     H55738   6.051   8.282  10.567  0.8132 -1.7678  1.5026
  404MOL0     H55739   5.889   8.118  10.497  0.4853 -1.5854  2.3119
  404MOL0     H55740   5.994   7.844  10.144  0.8187  0.3873 -1.5140
  404MOL0     H55741   6.040   7.742  10.287  0.4706  0.0774 -1.0774
  404MOL0     H55742   5.780   7.752  10.124  1.5694  2.3173  1.3311
  404MOL0     H55743   5.792   7.694  10.292  0.0314  2.5544 -0.0479
  404MOL0     H55744   5.933   7.518  10.238  0.8501  1.4509 -0.0071
  404MOL0     H55745   5.805   7.509  10.119 -1.0765 -1.7454  2.4272
  404MOL0     H55746   6.092   7.603  10.077  0.3843 -1.9291  0.1952
  404MOL0     H55747   5.956   7.681   9.984 -0.9232  1.1021  1.8805
  404MOL0     H55748   5.995   7.283   9.835 -2.7918  0.6851  0.0500
  404MOL0     H55749   6.186   7.949  10.228  2.6007  1.3989 -0.3474
  404MOL0     H55750   6.449   8.012  10.330  2.1079  1.7296 -1.3433
  404MOL0     H55751   6.385   8.067  10.182  3.1891  0.7086 -0.5458
  404MOL0     H55752   6.450   8.178  10.290  3.6891 -2.0308  0.3304
  405MOL0     O55753   1.280  10.141  10.373  0.4605 -0.0806 -0.7290
  405MOL0     C55754   1.171  10.139  10.428 -0.4785 -0.2508 -0.8301
  405MOL0     O55755   1.122  10.242  10.503 -0.7539 -0.0651 -0.0015
  405MOL0     C55756   1.210  10.343  10.531 -1.0488 -0.5418  0.2597
  405MOL0     C55757   1.208  10.449  10.439 -0.7986  0.8610  0.2314
  405MOL0     C55758   1.294  10.554  10.467  0.4326 -0.7272  0.3055
  405MOL0     C55759   1.381  10.545  10.571 -0.3989  0.0021 -0.1187
  405MOL0     O55760   1.459  10.658  10.603 -0.0279  0.4390  0.2095
  405MOL0     C55761   1.602  10.646  10.611 -0.2619 -0.5511 -0.2116
  405MOL0     C55762   1.677  10.773  10.620 -0.6579 -0.4617 -0.7406
  405MOL0     C55763   1.604  10.890  10.689 -0.4349 -0.2459  0.2888
  405MOL0     C55764   1.654  10.917  10.828  0.3873 -0.1961  0.7587
  405MOL0     C55765   1.767  11.012  10.835  0.3220  0.2880  0.5301
  405MOL0     C55766   1.804  11.022  10.990  0.1329  0.8045 -0.5890
  405MOL0     C55767   1.701  11.070  11.090  0.9077 -0.3568  0.0533
  405MOL0     C55768   1.670  10.968  11.195 -0.4586 -0.6322 -0.3333
  405MOL0     N55769   1.567  11.013  11.286  0.4784 -0.5345 -0.1478
  405MOL0     C55770   1.439  11.032  11.243 -0.2752 -0.7443  0.7351
  405MOL0     C55771   1.378  11.114  11.336 -0.3377 -0.1190 -0.2245
  405MOL0     C55772   1.235  11.152  11.328 -0.1432 -0.0903  0.2451
  405MOL0     C55773   1.137  11.066  11.396  0.9373 -0.1265  0.5821
  405MOL0     C55774   1.007  11.050  11.321  0.5145  1.7394 -0.2678
  405MOL0     C55775   0.899  10.987  11.411 -0.5677  0.0125 -0.2712
  405MOL0     O55776   0.951  10.862  11.460 -0.1740  0.3554 -0.9710
  405MOL0     C55777   0.930  10.749  11.392 -0.2627  0.6253  0.1995
  405MOL0     C55778   0.823  10.720  11.308 -0.0776  0.1661 -0.9563
  405MOL0     C55779   0.817  10.611  11.223 -0.4792 -0.1694 -0.2142
  405MOL0     C55780   0.680  10.603  11.154 -0.3870  0.4054  0.1033
  405MOL0     C55781   0.910  10.507  11.236  1.3387 -0.3196 -0.4825
  405MOL0     C55782   0.886  10.379  11.167 -0.1081 -0.0389 -0.7729
  405MOL0     O55783   0.954  10.273  11.226  0.4282 -0.1721 -0.5635
  405MOL0     C55784   0.896  10.146  11.233 -0.0393 -0.0414 -0.5777
  405MOL0     C55785   0.955  10.067  11.325  0.0929 -0.9647  1.5322
  405MOL0     C55786   0.905   9.937  11.344  1.0844  0.4412 -0.1684
  405MOL0     C55787   0.797   9.874  11.277  1.7296 -1.1064  0.0668
  405MOL0     O55788   0.763   9.742  11.299 -0.1137 -0.3947 -0.6273
  405MOL0     C55789   0.623   9.714  11.349 -0.4415 -0.4150  0.3182
  405MOL0     C55790   0.568   9.568  11.334 -0.5457 -0.5714  0.4195
  405MOL0     C55791   0.426   9.554  11.387  0.7805  0.3711 -1.0467
  405MOL0     C55792   0.330   9.596  11.283  0.3677  0.4356 -0.0266
  405MOL0     C55793   0.194   9.638  11.347  0.1462 -0.7328 -0.1644
  405MOL0     C55794   0.079   9.639  11.251  0.3148  0.0543 -0.0622
  405MOL0     C55795   0.068   9.764  11.171  0.2964  1.1954  0.3696
  405MOL0     C55796  -0.067   9.750  11.106 -0.0320 -0.2812 -0.3516
  405MOL0    Cl55797  -0.077   9.876  10.992  0.2136  0.5352  0.0681
  405MOL0     C55798   0.755   9.952  11.173  1.1056 -0.2901  0.8199
  405MOL0     C55799   0.795  10.086  11.155  1.0763  0.4141 -0.2853
  405MOL0     O55800   0.797  10.373  11.078  0.6258  0.4281  1.2104
  405MOL0     C55801   1.018  10.532  11.327 -0.0047 -0.1919 -0.3552
  405MOL0     C55802   1.028  10.653  11.391 -0.4805  0.9567  0.0456
  405MOL0     N55803   1.480  11.149  11.436 -0.0090  0.9342  0.4306
  405MOL0     N55804   1.588  11.079  11.402 -0.6789  0.2464 -1.2599
  405MOL0     C55805   1.382  10.439  10.664 -0.5565  0.4285  0.6293
  405MOL0     C55806   1.291  10.333  10.637 -0.1719  0.7405 -1.2702
  405MOL0     C55807   1.079  10.030  10.392 -0.3645  0.4531 -0.6626
  405MOL0     C55808   0.959  10.078  10.320  0.0939 -0.3751  0.0408
  405MOL0     C55809   0.861   9.988  10.277  0.6573  0.5239  0.1455
  405MOL0     C55810   0.892   9.848  10.288 -0.0484 -0.9058 -0.3186
  405MOL0     O55811   0.797   9.759  10.237  0.7296  0.0770 -0.7188
  405MOL0     C55812   0.828   9.620  10.218 -0.8065 -0.3163  0.1425
  405MOL0     C55813   0.726   9.548  10.129 -0.3620 -0.0387 -0.1836
  405MOL0     C55814   0.787   9.480  10.004 -0.3923  0.0742  0.3200
  405MOL0     C55815   0.672   9.436   9.912 -0.0924  0.3642 -0.0156
  405MOL0     C55816   0.717   9.372   9.788  0.6648  0.2404 -0.5177
  405MOL0     C55817   0.755   9.348   9.677  0.2911  0.4525  0.7576
  405MOL0     C55818   1.016   9.810  10.351 -0.6990  0.4497  0.3301
  405MOL0     C55819   1.117   9.892  10.404  0.7515 -0.7348  0.1482
  405MOL0     C55820   1.237   9.843  10.462 -1.2416 -0.2252 -0.0930
  405MOL0     H55821   1.138  10.460  10.357  0.0298  1.2756 -0.4305
  405MOL0     H55822   1.297  10.634  10.394  1.3796 -1.9296 -1.0327
  405MOL0     H55823   1.637  10.589  10.525 -0.0085  0.5710 -0.8744
  405MOL0     H55824   1.625  10.588  10.701 -0.5839 -0.4947 -0.0945
  405MOL0     H55825   1.763  10.748  10.683 -0.5060  1.9749  0.1331
  405MOL0     H55826   1.716  10.790  10.519 -0.2650 -2.2740 -0.9276
  405MOL0     H55827   1.604  10.979  10.625 -0.2837 -1.2644 -1.1753
  405MOL0     H55828   1.499  10.862  10.692 -0.5526 -0.9998 -4.0312
  405MOL0     H55829   1.567  10.960  10.879 -0.2201  0.0710 -0.4749
  405MOL0     H55830   1.686  10.824  10.876  0.6220  0.6474  2.3201
  405MOL0     H55831   1.760  11.114  10.795  1.2818 -0.0315 -0.5164
  405MOL0     H55832   1.848  10.964  10.779  0.2903 -0.8080  1.4008
  405MOL0     H55833   1.825  10.916  11.012  0.0647  0.5765 -1.5802
  405MOL0     H55834   1.905  11.064  10.992 -0.0194  1.3617 -2.5538
  405MOL0     H55835   1.610  11.111  11.046  1.6960  3.0382  1.2480
  405MOL0     H55836   1.738  11.159  11.142 -2.8000  1.1473  0.3814
  405MOL0     H55837   1.632  10.878  11.146 -0.3949 -0.2217 -1.1579
  405MOL0     H55838   1.761  10.947  11.251  1.2638 -0.0138 -2.7182
  405MOL0     H55839   1.397  11.000  11.148  1.8413  3.1444 -1.8035
  405MOL0     H55840   1.201  11.156  11.224  0.5300 -1.9572 -0.0750
  405MOL0     H55841   1.230  11.255  11.364  0.0242  0.0169 -0.0402
  405MOL0     H55842   1.190  10.972  11.409  4.5202  1.7112  0.6386
  405MOL0     H55843   1.111  11.098  11.498 -1.4465 -1.7702  0.5623
  405MOL0     H55844   0.955  11.133  11.273 -0.3166  1.0205 -0.6497
  405MOL0     H55845   1.010  10.984  11.234 -3.9529 -0.4037  0.8704
  405MOL0     H55846   0.881  11.057  11.494  2.0345  3.2797 -2.2056
  405MOL0     H55847   0.802  10.980  11.361 -0.8684 -0.8888  0.3969
  405MOL0     H55848   0.733  10.780  11.315 -1.3204 -1.7307  0.1615
  405MOL0     H55849   0.628  10.698  11.144 -1.1545  0.0158  0.2942
  405MOL0     H55850   0.604  10.539  11.199  0.1925 -2.9835 -3.2250
  405MOL0     H55851   0.690  10.571  11.050 -0.5349 -0.8131  0.4460
  405MOL0     H55852   1.030  10.106  11.392  3.3645  1.8776 -3.1610
  405MOL0     H55853   0.953   9.872  11.416  2.2025 -1.2461 -2.3003
  405MOL0     H55854   0.624   9.729  11.458 -0.6905 -1.2121  0.4394
  405MOL0     H55855   0.545   9.782  11.313  0.7079  0.8245  0.0692
  405MOL0     H55856   0.576   9.538  11.229 -0.4741 -0.3561  0.3635
  405MOL0     H55857   0.626   9.503  11.399 -0.9343  0.1511  1.5091
  405MOL0     H55858   0.424   9.620  11.474 -0.6473 -0.9951  0.0213
  405MOL0     H55859   0.406   9.455  11.430 -0.2671  1.2433  0.5516
  405MOL0     H55860   0.322   9.528  11.198 -0.2902 -0.9545  1.1086
  405MOL0     H55861   0.367   9.690  11.241 -0.7281  1.8521  2.0130
  405MOL0     H55862   0.172   9.565  11.426  1.3250 -2.2137 -1.1483
  405MOL0     H55863   0.201   9.735  11.397 -2.3677 -0.8515  0.5770
  405MOL0     H55864  -0.009   9.626  11.314 -0.1656 -0.4224 -0.8159
  405MOL0     H55865   0.087   9.559  11.177 -1.3704 -1.4686  1.3211
  405MOL0     H55866   0.148   9.786  11.100 -1.3955  0.3549 -1.9047
  405MOL0     H55867   0.070   9.845  11.245  2.7339  0.9640  0.6233
  405MOL0     H55868  -0.159   9.772  11.163  0.2891  0.0776  0.0313
  405MOL0     H55869  -0.084   9.655  11.054 -3.1440 -0.2723  0.3979
  405MOL0     H55870   0.700   9.899  11.096  1.3301 -0.1479  0.5590
  405MOL0     H55871   0.769  10.142  11.065  1.2157  0.9020 -0.0284
  405MOL0     H55872   1.109  10.473  11.330 -0.5054 -1.0429 -1.2461
  405MOL0     H55873   1.113  10.680  11.453 -1.9872 -3.0626  4.5126
  405MOL0     H55874   1.437  10.439  10.758 -2.3853 -1.8343  1.8004
  405MOL0     H55875   1.299  10.252  10.709  0.6361 -1.6837 -3.8997
  405MOL0     H55876   0.941  10.183  10.304  1.4210 -0.4870 -2.9931
  405MOL0     H55877   0.765  10.013  10.233 -0.4352  1.0679  2.6727
  405MOL0     H55878   0.932   9.615  10.186 -0.3055 -3.4019  1.8958
  405MOL0     H55879   0.826   9.575  10.317 -0.4726  0.7601  0.6538
  405MOL0     H55880   0.657   9.625  10.092  1.3330  0.8243 -1.6770
  405MOL0     H55881   0.679   9.463  10.178 -0.0367 -0.3696 -0.4426
  405MOL0     H55882   0.859   9.537   9.944 -2.1171  1.7287 -0.2776
  405MOL0     H55883   0.833   9.386  10.038 -2.4443 -0.1380  2.7902
  405MOL0     H55884   0.617   9.528   9.888 -1.6337  1.2705  5.5928
  405MOL0     H55885   0.606   9.366   9.962 -0.0856 -0.8487 -1.6369
  405MOL0     H55886   0.806   9.349   9.582  0.4295  0.0578  0.8258
  405MOL0     H55887   1.053   9.709  10.340  1.0164  1.2030 -1.3310
  405MOL0     H55888   1.265   9.876  10.562  2.4849 -1.7804 -0.4800
  405MOL0     H55889   1.228   9.734  10.462  2.5160 -0.6594 -1.0637
  405MOL0     H55890   1.321   9.858  10.393 -1.1754  0.8768  0.2101
  406MOL0     O55891   1.190   5.808   0.080 -0.5621 -0.0466 -0.4577
  406MOL0     C55892   1.140   5.745   0.173 -0.4513 -0.5277 -0.3846
  406MOL0     O55893   1.045   5.652   0.162 -0.2481  0.0213 -0.5804
  406MOL0     C55894   0.980   5.641   0.044 -0.0770 -0.1519  0.3906
  406MOL0     C55895   0.849   5.602   0.048  1.0687  0.7258  0.8582
  406MOL0     C55896   0.769   5.584  -0.069 -0.2475 -0.6889 -0.0198
  406MOL0     C55897   0.832   5.594  -0.201 -0.0669 -0.0924  0.0502
  406MOL0     O55898   0.761   5.574  -0.321  0.0973  0.7163  0.1864
  406MOL0     C55899   0.642   5.493  -0.303 -0.3498 -0.3970  0.0233
  406MOL0     C55900   0.625   5.408  -0.434  0.3260 -0.2897 -0.4549
  406MOL0     C55901   0.736   5.301  -0.441  0.8960 -0.0926 -0.9495
  406MOL0     C55902   0.721   5.195  -0.539  0.3161  0.7582  0.5302
  406MOL0     C55903   0.669   5.242  -0.688 -0.3059  0.4738 -0.1550
  406MOL0     C55904   0.621   5.115  -0.755  0.8558  0.8423  0.6849
  406MOL0     C55905   0.536   5.143  -0.874 -0.9528 -0.4069  0.7859
  406MOL0     C55906   0.467   5.013  -0.942 -0.4105 -0.0954 -0.3442
  406MOL0     N55907   0.571   4.942  -1.017  1.0283  0.1209  0.6947
  406MOL0     C55908   0.595   4.971  -1.146  0.2957  0.5072  0.4469
  406MOL0     C55909   0.661   4.863  -1.187  0.3376  0.3858  1.2698
  406MOL0     C55910   0.722   4.837  -1.328  0.2143 -0.4824 -0.1365
  406MOL0     C55911   0.709   4.952  -1.426 -0.4557 -0.2064  0.4384
  406MOL0     C55912   0.805   5.072  -1.382  1.1470 -0.0513  0.3361
  406MOL0     C55913   0.848   5.150  -1.510  0.0838  0.1939  0.2918
  406MOL0     O55914   0.984   5.189  -1.486  0.7619 -0.0937  0.0971
  406MOL0     C55915   1.040   5.275  -1.570  0.2413  0.6117  0.5698
  406MOL0     C55916   1.106   5.228  -1.690 -0.2464 -0.2864 -0.6512
  406MOL0     C55917   1.164   5.324  -1.778  0.4497 -0.5741  1.7443
  406MOL0     C55918   1.240   5.266  -1.899 -0.6418 -0.2978  0.3202
  406MOL0     C55919   1.147   5.466  -1.752 -0.1154 -0.7762  0.2539
  406MOL0     C55920   1.209   5.578  -1.831 -0.5229  0.1486  0.4380
  406MOL0     O55921   1.261   5.539  -1.956  0.1173 -0.5067  0.0423
  406MOL0     C55922   1.316   5.626  -2.050  0.1191 -0.3487 -0.6678
  406MOL0     C55923   1.294   5.593  -2.181  0.0214  0.1792  0.1355
  406MOL0     C55924   1.355   5.676  -2.279  0.3531  0.2829  0.6961
  406MOL0     C55925   1.426   5.786  -2.255  0.3668 -0.3764 -0.0241
  406MOL0     O55926   1.478   5.853  -2.366  0.6422 -0.1724 -0.1403
  406MOL0     C55927   1.604   5.913  -2.347 -0.2168 -0.5759  0.3731
  406MOL0     C55928   1.728   5.827  -2.322 -0.0865  0.0063  0.1609
  406MOL0     C55929   1.805   5.772  -2.444  0.8015 -0.0041  0.9981
  406MOL0     C55930   1.726   5.669  -2.524 -0.6821  0.2484 -0.0839
  406MOL0     C55931   1.666   5.550  -2.446 -0.2914  0.4532 -0.7945
  406MOL0     C55932   1.645   5.419  -2.525  0.6634  0.0390  1.0231
  406MOL0     C55933   1.578   5.302  -2.449  0.9634 -0.0554 -0.5977
  406MOL0     C55934   1.419   5.320  -2.435  0.3303 -0.0398 -0.1717
  406MOL0    Cl55935   1.362   5.213  -2.298  0.1808  0.3283  0.2350
  406MOL0     C55936   1.450   5.819  -2.119  0.4175 -0.1592 -0.9419
  406MOL0     C55937   1.399   5.738  -2.015 -0.2817  0.4908  0.2760
  406MOL0     O55938   1.220   5.692  -1.787 -0.4253 -0.0568 -0.1441
  406MOL0     C55939   1.103   5.508  -1.618 -0.2614  0.2893  0.0607
  406MOL0     C55940   1.053   5.408  -1.527  0.5441 -0.8247  0.8117
  406MOL0     N55941   0.666   4.777  -1.088 -0.3182  0.2671  0.1061
  406MOL0     N55942   0.618   4.817  -0.981  0.3610 -0.5179 -0.1132
  406MOL0     C55943   0.965   5.631  -0.208  0.9094  0.5881  0.7776
  406MOL0     C55944   1.043   5.652  -0.093  0.0851 -0.7912 -0.2396
  406MOL0     C55945   1.167   5.805   0.303  0.7950  1.2315  0.8061
  406MOL0     C55946   1.302   5.797   0.353 -0.5849 -0.0802 -0.3524
  406MOL0     C55947   1.316   5.824   0.489 -0.1966  0.1240 -0.1742
  406MOL0     C55948   1.220   5.888   0.561  0.0280 -0.3137  0.1063
  406MOL0     O55949   1.241   5.933   0.691  0.7676 -0.0395  0.5259
  406MOL0     C55950   1.321   6.049   0.698 -0.5202 -0.4841  0.4472
  406MOL0     C55951   1.422   6.044   0.818 -0.7327 -0.6492  1.3731
  406MOL0     C55952   1.379   6.067   0.952  0.0410  0.1214  0.2163
  406MOL0     C55953   1.506   6.053   1.031 -0.8866  1.2975  0.5447
  406MOL0     C55954   1.494   6.092   1.169  1.0629  1.0016  0.5051
  406MOL0     C55955   1.499   6.108   1.292 -0.7903 -0.2928  0.6694
  406MOL0     C55956   1.093   5.893   0.514 -0.3901  0.6372  0.0430
  406MOL0     C55957   1.061   5.856   0.386 -1.1743 -0.2958 -0.0991
  406MOL0     C55958   0.915   5.860   0.341 -0.1687  0.6191 -0.8854
  406MOL0     H55959   0.795   5.605   0.142 -2.2887 -0.3966 -0.8302
  406MOL0     H55960   0.662   5.565  -0.065 -0.1200 -1.1791  2.1430
  406MOL0     H55961   0.555   5.557  -0.289 -0.8288 -1.1011  0.2996
  406MOL0     H55962   0.641   5.426  -0.217  0.5534 -0.9635 -0.3904
  406MOL0     H55963   0.526   5.360  -0.433  0.2402 -0.1141 -0.3585
  406MOL0     H55964   0.629   5.474  -0.521 -1.2548 -1.0890 -1.1904
  406MOL0     H55965   0.827   5.355  -0.468 -0.5756  1.1232 -3.8691
  406MOL0     H55966   0.750   5.261  -0.340 -3.7407  2.5648  1.1046
  406MOL0     H55967   0.821   5.150  -0.538  0.7290  1.4280 -2.3291
  406MOL0     H55968   0.650   5.119  -0.505 -1.1813  1.4638 -0.8522
  406MOL0     H55969   0.761   5.274  -0.738  0.2721  1.9268  1.7303
  406MOL0     H55970   0.588   5.315  -0.685 -0.0718  0.8950 -2.3749
  406MOL0     H55971   0.703   5.044  -0.765 -0.1998 -1.2488  4.7645
  406MOL0     H55972   0.552   5.070  -0.683 -0.8950  1.0594 -0.7689
  406MOL0     H55973   0.595   5.195  -0.950 -0.4672  0.1893  1.5626
  406MOL0     H55974   0.458   5.207  -0.832  0.8820  1.9187  0.8368
  406MOL0     H55975   0.430   4.952  -0.860  0.5787  0.7099  0.7527
  406MOL0     H55976   0.383   5.030  -1.009 -1.1428 -2.7932 -0.2166
  406MOL0     H55977   0.578   5.065  -1.199 -0.5703  1.4916  2.3655
  406MOL0     H55978   0.664   4.753  -1.367  0.3426 -1.2065  1.1760
  406MOL0     H55979   0.825   4.802  -1.314 -0.1884 -1.5483  0.2575
  406MOL0     H55980   0.735   4.918  -1.527  0.7104 -0.0427  0.6674
  406MOL0     H55981   0.604   4.982  -1.425 -0.5705 -0.6102  1.4634
  406MOL0     H55982   0.755   5.140  -1.312  0.3283 -0.1605 -0.1455
  406MOL0     H55983   0.893   5.032  -1.331  1.3291  1.1223  0.9939
  406MOL0     H55984   0.836   5.081  -1.595 -0.6697 -0.1197  0.6412
  406MOL0     H55985   0.784   5.239  -1.517  0.5681  0.4188 -1.9346
  406MOL0     H55986   1.111   5.123  -1.719 -1.1459 -0.1392 -1.3545
  406MOL0     H55987   1.347   5.286  -1.906 -0.8962  0.6634 -1.4893
  406MOL0     H55988   1.200   5.314  -1.989  1.1799  0.0109 -0.3626
  406MOL0     H55989   1.222   5.158  -1.899  2.3400 -0.8939 -0.1021
  406MOL0     H55990   1.247   5.500  -2.211  1.0311 -0.1562 -0.4857
  406MOL0     H55991   1.350   5.646  -2.383 -2.0859 -0.1923  0.9024
  406MOL0     H55992   1.633   5.982  -2.427  0.1104  0.3515  1.2742
  406MOL0     H55993   1.593   5.990  -2.270  1.6803  2.4578 -2.1551
  406MOL0     H55994   1.804   5.891  -2.275 -0.9607  0.8143  0.5171
  406MOL0     H55995   1.702   5.753  -2.246 -2.3313 -0.4694 -0.9871
  406MOL0     H55996   1.895   5.724  -2.405 -0.6691 -2.2762  1.7894
  406MOL0     H55997   1.840   5.849  -2.515  1.8336  0.0882  1.5856
  406MOL0     H55998   1.800   5.618  -2.586  3.0065 -0.0289  4.0624
  406MOL0     H55999   1.648   5.712  -2.588 -0.8820 -0.0791 -0.0618
  406MOL0     H56000   1.742   5.538  -2.368 -0.9790  1.3864  0.0517
  406MOL0     H56001   1.567   5.566  -2.401 -0.4297 -2.0235 -0.0867
  406MOL0     H56002   1.743   5.376  -2.548  0.3982 -0.0209 -0.0661
  406MOL0     H56003   1.599   5.443  -2.621 -2.0184 -0.2999  2.1419
  406MOL0     H56004   1.623   5.289  -2.350 -2.5381  3.9437  1.8938
  406MOL0     H56005   1.580   5.205  -2.499 -1.1376 -2.2680  3.1390
  406MOL0     H56006   1.382   5.268  -2.524  0.3959 -0.3649 -0.0114
  406MOL0     H56007   1.390   5.425  -2.427 -4.9602 -1.3507  1.7336
  406MOL0     H56008   1.501   5.911  -2.093 -2.7222  1.1113  1.2912
  406MOL0     H56009   1.427   5.768  -1.914  2.3890 -0.6092 -0.0715
  406MOL0     H56010   1.123   5.612  -1.593  1.2404 -0.0949  0.5518
  406MOL0     H56011   1.033   5.426  -1.422 -1.8810 -1.3095  0.4951
  406MOL0     H56012   1.007   5.615  -0.307 -2.5012 -5.2231 -0.1853
  406MOL0     H56013   1.148   5.678  -0.106  0.1266  0.4810  2.1400
  406MOL0     H56014   1.369   5.750   0.282 -0.4112  1.1976 -1.0706
  406MOL0     H56015   1.403   5.804   0.550 -2.0264 -0.7581  2.2808
  406MOL0     H56016   1.368   6.055   0.599 -1.2474  0.7935  0.1448
  406MOL0     H56017   1.269   6.146   0.707 -1.9933 -0.4136 -4.9513
  406MOL0     H56018   1.488   6.128   0.791 -0.2138 -1.6774 -0.7816
  406MOL0     H56019   1.491   5.960   0.805  2.9923  2.0328  2.0692
  406MOL0     H56020   1.339   6.168   0.959  2.4823  1.2615 -0.9532
  406MOL0     H56021   1.314   5.990   0.994  0.6083  1.0274  2.9616
  406MOL0     H56022   1.585   6.103   0.973 -2.9349  1.9705 -1.8254
  406MOL0     H56023   1.538   5.949   1.023 -2.7772  0.6888  0.4676
  406MOL0     H56024   1.476   6.126   1.395 -0.4302  1.3910  0.4895
  406MOL0     H56025   1.018   5.919   0.588 -0.1165  2.0017 -0.1358
  406MOL0     H56026   0.875   5.759   0.344  2.6572 -0.6278 -1.7587
  406MOL0     H56027   0.856   5.935   0.396  1.7317  1.7890 -0.3377
  406MOL0     H56028   0.906   5.898   0.239  1.8940  2.9282 -0.3178
  407MOL0     O56029   3.670   4.726   8.024  0.4507  0.9484  0.5359
  407MOL0     C56030   3.718   4.838   8.039 -0.4493 -0.0726  0.6950
  407MOL0     O56031   3.838   4.867   8.098  0.2827  0.6245 -0.0573
  407MOL0     C56032   3.918   4.776   8.162  1.1162 -0.0115 -0.3667
  407MOL0     C56033   3.965   4.667   8.103 -0.2269 -1.2415  0.2756
  407MOL0     C56034   4.058   4.587   8.172  0.6446 -0.3199  0.1046
  407MOL0     C56035   4.105   4.627   8.295  0.0033  0.6746  0.6194
  407MOL0     O56036   4.204   4.552   8.351  0.3038  0.1814  0.4597
  407MOL0     C56037   4.228   4.407   8.327 -0.4490  1.0424  0.2866
  407MOL0     C56038   4.114   4.320   8.390 -0.6857  0.4393  0.5160
  407MOL0     C56039   4.120   4.334   8.545  0.4184 -0.1734  0.0043
  407MOL0     C56040   4.003   4.257   8.611 -0.7356  0.0568 -0.1874
  407MOL0     C56041   4.009   4.259   8.766  0.2650 -0.5575  0.2734
  407MOL0     C56042   4.139   4.222   8.832  0.3686 -0.5275  0.1075
  407MOL0     C56043   4.098   4.155   8.967 -1.1406 -0.6400  0.9647
  407MOL0     C56044   4.228   4.130   9.049 -0.0453 -0.5384  0.8047
  407MOL0     N56045   4.333   4.053   8.976  0.5229 -0.0399 -0.2419
  407MOL0     C56046   4.308   3.917   8.957 -0.5866 -1.8078 -0.3236
  407MOL0     C56047   4.407   3.869   8.878 -0.5829 -0.0158  0.2037
  407MOL0     C56048   4.433   3.727   8.834  0.8415 -0.8470 -0.2850
  407MOL0     C56049   4.516   3.646   8.929 -0.4398 -0.0522 -0.2560
  407MOL0     C56050   4.668   3.666   8.923 -0.0275 -0.0641  0.2966
  407MOL0     C56051   4.754   3.563   8.993  0.0079  0.2812 -0.4341
  407MOL0     O56052   4.738   3.427   8.935 -0.1866 -0.4991 -0.0945
  407MOL0     C56053   4.823   3.400   8.827  0.4306 -0.2072 -0.4831
  407MOL0     C56054   4.903   3.492   8.757 -0.7441 -0.0102  0.6308
  407MOL0     C56055   4.983   3.458   8.648 -0.6385  0.4590  0.6739
  407MOL0     C56056   5.077   3.558   8.582  0.0518 -0.3844 -1.4729
  407MOL0     C56057   4.978   3.321   8.598  0.0501 -0.5686 -0.5632
  407MOL0     C56058   5.027   3.277   8.473  1.1193 -1.2570 -0.6132
  407MOL0     O56059   4.997   3.360   8.372  0.8205  0.8188  0.0614
  407MOL0     C56060   5.032   3.330   8.249 -0.1984  0.8397  0.4394
  407MOL0     C56061   4.925   3.292   8.170 -0.7309 -0.0435 -0.1777
  407MOL0     C56062   4.959   3.237   8.037 -0.0609 -0.4026 -0.4105
  407MOL0     C56063   5.089   3.213   8.000  1.0020  0.3724 -1.0085
  407MOL0     O56064   5.096   3.167   7.868  0.4495 -0.7302 -0.2454
  407MOL0     C56065   5.218   3.133   7.811 -0.1492  0.1972  0.1787
  407MOL0     C56066   5.189   3.107   7.661 -0.0755  0.2816  0.8168
  407MOL0     C56067   5.304   3.145   7.568  0.4116 -0.9095 -0.2048
  407MOL0     C56068   5.262   3.108   7.427  0.4489  0.7207  1.0112
  407MOL0     C56069   5.366   3.175   7.327  0.2910  0.3501  1.2521
  407MOL0     C56070   5.350   3.327   7.321 -0.1527 -0.6223  0.3168
  407MOL0     C56071   5.217   3.377   7.272 -0.0349 -0.7030  0.1059
  407MOL0     C56072   5.235   3.527   7.235  0.0545 -0.1355  0.4791
  407MOL0    Cl56073   5.316   3.638   7.364 -0.0074  0.2955  0.1008
  407MOL0     C56074   5.194   3.255   8.084 -0.2571  0.5774 -0.5070
  407MOL0     C56075   5.160   3.311   8.205 -0.4898  0.7616 -0.6099
  407MOL0     O56076   5.106   3.186   8.471  0.3115 -1.1433 -0.0436
  407MOL0     C56077   4.887   3.226   8.663 -0.0714 -0.1713  0.4890
  407MOL0     C56078   4.815   3.272   8.782  1.2267  0.4545  0.2368
  407MOL0     N56079   4.490   3.974   8.842 -0.1878 -1.0388 -1.1265
  407MOL0     N56080   4.451   4.083   8.912 -0.3289 -0.1320 -0.3500
  407MOL0     C56081   4.064   4.747   8.353  0.2733 -0.2166  0.9306
  407MOL0     C56082   3.960   4.815   8.286 -0.0941  0.6480 -0.2697
  407MOL0     C56083   3.649   4.959   7.981  0.4896 -0.0199 -0.5974
  407MOL0     C56084   3.660   5.079   8.052 -0.9851  0.6660  0.5132
  407MOL0     C56085   3.610   5.201   8.004 -0.3295  0.6710 -0.6057
  407MOL0     C56086   3.543   5.196   7.884 -0.3056 -0.5643 -0.6215
  407MOL0     O56087   3.488   5.303   7.813 -0.1089  0.4401 -0.2618
  407MOL0     C56088   3.447   5.415   7.887  0.6550 -0.0814 -0.0179
  407MOL0     C56089   3.323   5.387   7.975 -0.0694 -0.5585  0.2751
  407MOL0     C56090   3.205   5.351   7.883 -0.4552  0.3687  0.3142
  407MOL0     C56091   3.118   5.472   7.846  0.3505  0.3553 -0.7905
  407MOL0     C56092   3.048   5.549   7.953 -0.7573 -0.4093 -0.1004
  407MOL0     C56093   2.982   5.606   8.036  0.0314 -0.6578  0.0804
  407MOL0     C56094   3.505   5.071   7.827  0.2863  0.1984 -1.3590
  407MOL0     C56095   3.551   4.949   7.876  0.6639 -0.2701  0.0369
  407MOL0     C56096   3.489   4.820   7.823  0.2585 -0.9430 -0.2237
  407MOL0     H56097   3.929   4.643   8.003 -1.7230  1.1287  0.1651
  407MOL0     H56098   4.104   4.503   8.120  0.3071  1.0376 -2.5368
  407MOL0     H56099   4.323   4.383   8.377 -0.6524 -1.5964 -0.4441
  407MOL0     H56100   4.240   4.384   8.221  2.3585 -3.1387  1.2356
  407MOL0     H56101   4.014   4.348   8.355 -3.0972 -3.0809  3.7510
  407MOL0     H56102   4.132   4.216   8.360 -0.6968  0.5920 -0.0387
  407MOL0     H56103   4.211   4.280   8.574 -0.1884 -0.6696  1.0315
  407MOL0     H56104   4.111   4.440   8.568  2.3689 -0.2180  1.2214
  407MOL0     H56105   3.911   4.308   8.579 -1.0461 -1.2559 -1.4721
  407MOL0     H56106   4.019   4.156   8.573 -1.4544  0.2525 -1.0425
  407MOL0     H56107   3.928   4.195   8.802 -1.0163  0.5341 -0.6010
  407MOL0     H56108   3.982   4.359   8.800  1.9064  0.7665 -2.0077
  407MOL0     H56109   4.216   4.165   8.779  0.5545 -0.5070  0.3536
  407MOL0     H56110   4.186   4.315   8.865  2.2315 -2.2096  2.5584
  407MOL0     H56111   4.058   4.053   8.960 -0.1886 -1.0086  0.6633
  407MOL0     H56112   4.034   4.225   9.020  0.9733  2.1726  0.0256
  407MOL0     H56113   4.270   4.230   9.052  0.4839 -0.5699 -2.2264
  407MOL0     H56114   4.200   4.097   9.150 -4.5157 -1.0688 -0.3823
  407MOL0     H56115   4.236   3.863   9.018 -1.2548 -3.0125 -2.1229
  407MOL0     H56116   4.497   3.724   8.745  3.3502 -1.3258  1.4399
  407MOL0     H56117   4.336   3.692   8.799 -0.7040  1.2224  1.6369
  407MOL0     H56118   4.498   3.674   9.033 -1.4347 -0.5603 -0.2740
  407MOL0     H56119   4.486   3.542   8.915  1.5610 -0.6228 -0.5831
  407MOL0     H56120   4.691   3.660   8.816  2.0973 -2.2597  0.7716
  407MOL0     H56121   4.685   3.768   8.958  0.5640  1.6407 -4.2962
  407MOL0     H56122   4.857   3.601   8.987  0.6097 -0.7443  2.2230
  407MOL0     H56123   4.718   3.559   9.096 -0.2044  4.9978 -0.0916
  407MOL0     H56124   4.911   3.592   8.798 -1.5561 -0.7941  2.8237
  407MOL0     H56125   5.084   3.555   8.473  0.5573 -2.1179 -1.4208
  407MOL0     H56126   5.179   3.542   8.619 -0.5531 -1.0164 -0.0072
  407MOL0     H56127   5.044   3.654   8.623  4.4522 -0.4383  3.1668
  407MOL0     H56128   4.824   3.308   8.207 -0.3737  2.3019 -0.0568
  407MOL0     H56129   4.878   3.189   7.983 -0.0145 -0.9929  0.0323
  407MOL0     H56130   5.286   3.218   7.819 -0.5936  0.8995 -2.4128
  407MOL0     H56131   5.252   3.039   7.855 -3.9653 -1.0115  0.9074
  407MOL0     H56132   5.172   2.999   7.653 -0.5360  0.4675 -1.4606
  407MOL0     H56133   5.099   3.160   7.628  1.0393  0.7431 -1.7265
  407MOL0     H56134   5.390   3.085   7.601  0.7617  0.6543  1.9729
  407MOL0     H56135   5.340   3.245   7.592  0.0034 -1.1380  1.5299
  407MOL0     H56136   5.156   3.135   7.419  0.6989  1.4639  0.0109
  407MOL0     H56137   5.254   2.999   7.429  1.0783  0.6657  0.7105
  407MOL0     H56138   5.464   3.134   7.353  0.1391 -1.7322 -1.1044
  407MOL0     H56139   5.339   3.138   7.228  0.8226  2.8515  0.0982
  407MOL0     H56140   5.421   3.340   7.240  1.8583 -2.6255  1.6189
  407MOL0     H56141   5.381   3.375   7.414 -0.6521  0.6009 -0.1372
  407MOL0     H56142   5.141   3.380   7.350 -1.8210  0.1737 -1.5754
  407MOL0     H56143   5.179   3.322   7.185 -2.8948  2.8270 -1.1527
  407MOL0     H56144   5.133   3.558   7.212 -0.6901 -2.1494  0.7900
  407MOL0     H56145   5.299   3.530   7.147  0.9533  1.3573  1.1519
  407MOL0     H56146   5.294   3.230   8.053 -0.9234 -1.1014 -1.3970
  407MOL0     H56147   5.239   3.350   8.268  0.9292 -0.9143 -1.2682
  407MOL0     H56148   4.883   3.123   8.631  3.1076  0.2707 -1.8267
  407MOL0     H56149   4.744   3.203   8.827  2.6593 -2.4905 -1.7072
  407MOL0     H56150   4.100   4.781   8.449 -5.2551 -0.8857  3.6428
  407MOL0     H56151   3.907   4.894   8.338  0.2655 -0.3355  1.6598
  407MOL0     H56152   3.720   5.073   8.142 -1.7825 -0.0252  1.0119
  407MOL0     H56153   3.650   5.289   8.054 -1.4113  1.2802 -0.7816
  407MOL0     H56154   3.531   5.442   7.951  0.3481  0.6513  0.0819
  407MOL0     H56155   3.415   5.496   7.821  1.5089 -0.7945 -1.3614
  407MOL0     H56156   3.311   5.481   8.028  0.3088  1.6225 -3.2187
  407MOL0     H56157   3.348   5.302   8.039 -0.2942 -1.5534 -0.9098
  407MOL0     H56158   3.234   5.310   7.786 -0.0046 -0.2522  0.7025
  407MOL0     H56159   3.136   5.280   7.928 -1.4818  1.5198  0.6270
  407MOL0     H56160   3.043   5.428   7.779 -0.5064 -0.9868  0.9706
  407MOL0     H56161   3.176   5.543   7.787 -0.9258  2.4293  0.3425
  407MOL0     H56162   2.915   5.647   8.109 -0.6232 -1.0228 -0.2998
  407MOL0     H56163   3.442   5.076   7.739 -1.0362 -2.4247 -0.6718
  407MOL0     H56164   3.441   4.858   7.733 -1.9467 -0.1520  1.2069
  407MOL0     H56165   3.568   4.750   7.792 -0.5385 -1.6413 -0.7272
  407MOL0     H56166   3.407   4.768   7.875 -2.4456  1.0772 -2.2211
  408MOL0     O56167   5.759   6.261  11.149 -0.1676 -0.0413 -0.5817
  408MOL0     C56168   5.648   6.296  11.188  0.2147  0.9394  0.6217
  408MOL0     O56169   5.540   6.221  11.175  0.6180  0.4512 -0.3245
  408MOL0     C56170   5.538   6.084  11.182 -0.1029  0.5051  0.8044
  408MOL0     C56171   5.643   5.992  11.214 -0.1321  0.9118  1.6049
  408MOL0     C56172   5.623   5.856  11.168 -0.3558  0.2142 -0.2192
  408MOL0     C56173   5.516   5.807  11.097 -0.4643 -0.0342 -0.3496
  408MOL0     O56174   5.514   5.677  11.047  0.6909 -0.2137  1.1757
  408MOL0     C56175   5.472   5.647  10.917  1.3937  0.1680 -0.2054
  408MOL0     C56176   5.472   5.491  10.918  0.2205 -0.5025  0.3633
  408MOL0     C56177   5.419   5.432  10.784 -1.1758  0.2004 -0.4946
  408MOL0     C56178   5.521   5.464  10.670  0.2532  1.6071  0.0695
  408MOL0     C56179   5.486   5.373  10.559  0.5388 -0.1376  0.5002
  408MOL0     C56180   5.582   5.389  10.442 -0.0379 -0.0098  1.1475
  408MOL0     C56181   5.561   5.279  10.337 -0.3805 -0.7531 -0.0789
  408MOL0     C56182   5.464   5.319  10.225 -0.0337 -0.7987  0.2777
  408MOL0     N56183   5.507   5.418  10.121 -0.0735  0.1576  0.6680
  408MOL0     C56184   5.468   5.413   9.985  0.0409  0.1073 -0.2623
  408MOL0     C56185   5.575   5.453   9.911  0.6622  0.3491  0.2865
  408MOL0     C56186   5.589   5.446   9.760 -0.0621 -0.8593  0.3769
  408MOL0     C56187   5.526   5.575   9.703  0.5441 -0.5445  0.0593
  408MOL0     C56188   5.565   5.602   9.558 -0.1246  0.6319 -0.3719
  408MOL0     C56189   5.519   5.749   9.501  0.5671  0.0541 -0.5185
  408MOL0     O56190   5.611   5.791   9.393  0.7752 -0.0570  0.0931
  408MOL0     C56191   5.584   5.916   9.331  0.3508 -0.0825  0.4818
  408MOL0     C56192   5.685   5.965   9.251  0.8284  0.4240 -0.0006
  408MOL0     C56193   5.679   6.086   9.177 -0.6991  0.3594 -0.5346
  408MOL0     C56194   5.797   6.125   9.093 -1.0601  0.4358  0.6556
  408MOL0     C56195   5.574   6.170   9.204  0.2128 -1.0995  1.1039
  408MOL0     C56196   5.560   6.313   9.143 -0.4609 -0.1630 -0.1506
  408MOL0     O56197   5.667   6.398   9.149  0.4358 -0.0057 -0.2763
  408MOL0     C56198   5.662   6.500   9.059 -0.7808 -0.4237  0.5260
  408MOL0     C56199   5.632   6.631   9.105  1.0338 -0.2707  0.3047
  408MOL0     C56200   5.635   6.735   9.017  0.9605 -0.5571 -0.8377
  408MOL0     C56201   5.651   6.719   8.880 -0.1938 -0.4312 -0.0533
  408MOL0     O56202   5.647   6.823   8.801  0.6338 -0.1116  0.7585
  408MOL0     C56203   5.524   6.819   8.726  0.4075 -0.4300  0.3190
  408MOL0     C56204   5.546   6.893   8.591  0.1337  1.1537  0.6867
  408MOL0     C56205   5.682   6.866   8.511  0.2350 -0.5567 -0.0790
  408MOL0     C56206   5.691   6.934   8.375 -0.2815  0.6082 -0.9628
  408MOL0     C56207   5.712   6.818   8.273 -0.4094 -0.3195 -0.2572
  408MOL0     C56208   5.685   6.852   8.125 -0.1324 -0.5698  0.1480
  408MOL0     C56209   5.768   6.975   8.079 -0.0216 -0.1380  0.4491
  408MOL0     C56210   5.745   6.981   7.929 -0.5830  0.0819  0.4272
  408MOL0    Cl56211   5.841   6.863   7.857 -0.1139  0.7176  0.3965
  408MOL0     C56212   5.683   6.590   8.835  0.3397 -0.9564 -0.0644
  408MOL0     C56213   5.691   6.477   8.922  0.4707 -0.2360  0.9446
  408MOL0     O56214   5.462   6.330   9.077  0.4685 -0.2685  0.0699
  408MOL0     C56215   5.470   6.128   9.290  0.1570 -0.9187  0.6426
  408MOL0     C56216   5.477   6.001   9.349 -0.0504 -0.5133 -1.2146
  408MOL0     N56217   5.672   5.496   9.998 -0.1499 -0.5950  0.0028
  408MOL0     N56218   5.628   5.473  10.117  0.2502  0.3409  0.6854
  408MOL0     C56219   5.414   5.902  11.070 -0.6007  1.1409  0.3685
  408MOL0     C56220   5.424   6.038  11.109  0.0666  0.4667 -0.7636
  408MOL0     C56221   5.623   6.434  11.197 -0.9557 -0.7771 -0.7253
  408MOL0     C56222   5.714   6.531  11.141 -0.0535  0.3061  0.1193
  408MOL0     C56223   5.700   6.667  11.159  0.0874  0.1068 -0.2085
  408MOL0     C56224   5.581   6.723  11.213  0.1599 -0.5775 -1.2482
  408MOL0     O56225   5.568   6.863  11.220  0.6109  0.1220 -0.5399
  408MOL0     C56226   5.624   6.959  11.121 -1.0964 -0.6167  0.3561
  408MOL0     C56227   5.588   7.105  11.143  0.7291  0.4964 -0.0629
  408MOL0     C56228   5.644   7.145  11.276 -0.4195  0.2197  0.7647
  408MOL0     C56229   5.608   7.284  11.331  0.2342  0.8124  0.4057
  408MOL0     C56230   5.674   7.320  11.454 -0.0978  0.2090  0.2808
  408MOL0     C56231   5.725   7.354  11.559  0.5507 -0.2822  0.4283
  408MOL0     C56232   5.488   6.627  11.260  0.7163  0.0131 -0.1262
  408MOL0     C56233   5.501   6.489  11.252 -0.4144  0.1996 -0.7787
  408MOL0     C56234   5.392   6.408  11.319 -0.2887 -0.7451  0.4816
  408MOL0     H56235   5.733   6.023  11.266  1.3828  0.0997 -0.4009
  408MOL0     H56236   5.693   5.781  11.204 -2.2936 -1.0026  1.2231
  408MOL0     H56237   5.559   5.686  10.863  2.7228  0.5489  2.0889
  408MOL0     H56238   5.376   5.686  10.882 -0.7176 -4.6973 -0.6722
  408MOL0     H56239   5.567   5.450  10.953  2.5787  3.9232 -0.1673
  408MOL0     H56240   5.402   5.474  11.001 -0.8659  0.8978 -0.2100
  408MOL0     H56241   5.406   5.325  10.802  3.8800 -0.5738 -0.1651
  408MOL0     H56242   5.321   5.476  10.761 -1.7626 -1.2285 -0.8116
  408MOL0     H56243   5.515   5.567  10.634 -0.2148  1.4070 -0.4452
  408MOL0     H56244   5.623   5.449  10.706 -0.1752  1.0054  1.0580
  408MOL0     H56245   5.382   5.363  10.527  0.8327 -1.3451 -0.1404
  408MOL0     H56246   5.510   5.272  10.593  2.6009  0.8160  2.1093
  408MOL0     H56247   5.560   5.488  10.401 -0.4541 -0.4650  0.2606
  408MOL0     H56248   5.689   5.378  10.462  0.7335  0.8070 -2.0638
  408MOL0     H56249   5.506   5.194  10.379  0.9565 -2.9593 -2.5333
  408MOL0     H56250   5.656   5.248  10.295 -0.6121 -1.3156 -0.1959
  408MOL0     H56251   5.440   5.227  10.170  5.4204  0.8625 -6.1519
  408MOL0     H56252   5.371   5.361  10.264 -0.5621 -1.2516 -0.4735
  408MOL0     H56253   5.390   5.345   9.953  1.6572 -2.7001  1.3534
  408MOL0     H56254   5.540   5.362   9.709  2.1000 -0.3817 -2.8132
  408MOL0     H56255   5.695   5.452   9.736 -0.4094  0.2884 -1.0984
  408MOL0     H56256   5.422   5.572   9.734  0.2951  2.4805 -0.1819
  408MOL0     H56257   5.573   5.661   9.752  1.2154 -1.4811  1.1098
  408MOL0     H56258   5.671   5.579   9.546 -0.0126  0.0974  1.3827
  408MOL0     H56259   5.514   5.530   9.494 -1.8531  1.1788  0.3342
  408MOL0     H56260   5.420   5.737   9.458  0.6974  0.4258 -0.9258
  408MOL0     H56261   5.513   5.805   9.595 -3.2015 -3.2608  1.4679
  408MOL0     H56262   5.762   5.891   9.232 -0.4003 -1.2032  1.0782
  408MOL0     H56263   5.765   6.189   9.010 -5.6351  2.2945  3.4639
  408MOL0     H56264   5.816   6.034   9.035 -0.9381  0.1687  1.1106
  408MOL0     H56265   5.881   6.174   9.142  1.2126  1.8671 -4.0451
  408MOL0     H56266   5.616   6.638   9.212  3.0478 -0.8854  0.6796
  408MOL0     H56267   5.604   6.834   9.049 -1.0000 -2.2262  3.2857
  408MOL0     H56268   5.495   6.717   8.698  1.1331 -0.6789  0.4473
  408MOL0     H56269   5.444   6.874   8.777 -2.0655 -3.0043 -0.5290
  408MOL0     H56270   5.465   6.861   8.524 -1.4499 -1.1530  3.4779
  408MOL0     H56271   5.545   7.001   8.603  0.5362  0.9004  3.6665
  408MOL0     H56272   5.705   6.759   8.513 -1.7988 -1.0594 -0.8078
  408MOL0     H56273   5.755   6.916   8.575 -0.4856 -0.5358  0.7600
  408MOL0     H56274   5.782   6.995   8.368  0.6642 -0.7486 -0.7808
  408MOL0     H56275   5.600   6.988   8.347 -1.7356 -1.8190 -1.1502
  408MOL0     H56276   5.810   6.778   8.299 -1.9214 -4.9572 -0.8090
  408MOL0     H56277   5.635   6.742   8.292 -1.0907  1.1327  3.5701
  408MOL0     H56278   5.585   6.885   8.095  0.3033 -0.1968 -0.9274
  408MOL0     H56279   5.706   6.764   8.063 -2.2976 -1.0728  0.0116
  408MOL0     H56280   5.875   6.964   8.097 -0.0193  0.7208  1.0473
  408MOL0     H56281   5.742   7.071   8.124 -0.8106  0.7119 -1.6652
  408MOL0     H56282   5.777   7.079   7.892 -1.2492  0.6075  1.1943
  408MOL0     H56283   5.639   6.964   7.911 -0.4945 -2.2800  1.8013
  408MOL0     H56284   5.702   6.573   8.729 -2.1933  2.1192 -1.1874
  408MOL0     H56285   5.719   6.380   8.883 -0.1369 -0.5909  1.3707
  408MOL0     H56286   5.391   6.197   9.316 -0.7898  0.5059 -4.8223
  408MOL0     H56287   5.393   5.977   9.414  1.7189 -3.2903  0.2342
  408MOL0     H56288   5.329   5.864  11.014 -0.8590  0.6924  1.0478
  408MOL0     H56289   5.342   6.102  11.078  0.5634  0.2829 -2.5943
  408MOL0     H56290   5.806   6.486  11.104 -0.9609  1.0974 -3.4863
  408MOL0     H56291   5.786   6.726  11.130 -0.2267 -0.0653 -1.5550
  408MOL0     H56292   5.733   6.964  11.126 -1.1175  4.5938  0.7132
  408MOL0     H56293   5.587   6.917  11.027 -0.9833 -4.2741  1.7715
  408MOL0     H56294   5.479   7.112  11.149  0.6238 -1.4804  2.7018
  408MOL0     H56295   5.625   7.176  11.069  0.6232 -2.2241 -2.9199
  408MOL0     H56296   5.611   7.075  11.354 -0.8211 -0.1072  0.3098
  408MOL0     H56297   5.752   7.144  11.260 -0.4790  0.4862  0.3293
  408MOL0     H56298   5.502   7.287  11.357  0.0164 -0.3240 -0.2829
  408MOL0     H56299   5.615   7.362  11.255 -3.0976 -0.5384 -1.4776
  408MOL0     H56300   5.761   7.384  11.656 -0.4314  0.8839  0.4579
  408MOL0     H56301   5.401   6.661  11.315  0.2958  0.7521 -1.2176
  408MOL0     H56302   5.333   6.357  11.243 -0.1468  0.7145 -0.6362
  408MOL0     H56303   5.438   6.331  11.381 -0.8919  0.4690  2.5444
  408MOL0     H56304   5.329   6.467  11.387 -1.6198  0.9121 -2.0328
  409MOL0     O56305   6.181   8.400   2.801 -0.6078  0.6452 -0.1847
  409MOL0     C56306   6.091   8.417   2.722 -0.4121  0.5536  0.3988
  409MOL0     O56307   6.103   8.451   2.586  0.4721 -0.6334  0.3502
  409MOL0     C56308   6.227   8.451   2.523 -1.2898 -0.1923  0.2752
  409MOL0     C56309   6.324   8.354   2.556  0.2453 -0.9366  0.4829
  409MOL0     C56310   6.451   8.355   2.492  0.3248  0.0986 -0.4981
  409MOL0     C56311   6.488   8.459   2.408  0.3131 -0.3389  0.6864
  409MOL0     O56312   6.603   8.469   2.329 -0.1390 -0.4215 -0.1641
  409MOL0     C56313   6.690   8.356   2.317  0.0776  1.2049  0.3009
  409MOL0     C56314   6.821   8.384   2.398 -0.9083 -0.1985 -0.2576
  409MOL0     C56315   6.836   8.314   2.536 -0.2213  0.6761 -0.1896
  409MOL0     C56316   6.957   8.379   2.607  0.3303  1.2251 -0.4727
  409MOL0     C56317   6.982   8.337   2.751  0.0944 -0.0079  0.3057
  409MOL0     C56318   7.073   8.421   2.823 -0.2862 -0.4970  1.0371
  409MOL0     C56319   7.131   8.356   2.946 -0.1617 -0.0892  0.0774
  409MOL0     C56320   7.246   8.444   3.011 -0.1219  0.1436  0.9272
  409MOL0     N56321   7.247   8.402   3.145  1.3146  0.1803 -0.4161
  409MOL0     C56322   7.227   8.479   3.254  0.8035 -0.0050 -0.4225
  409MOL0     C56323   7.260   8.406   3.362 -0.2541 -0.9447  0.4290
  409MOL0     C56324   7.252   8.462   3.502  0.4183  0.8771  0.3254
  409MOL0     C56325   7.116   8.437   3.583 -0.8152  1.0530  0.4285
  409MOL0     C56326   7.005   8.524   3.536  0.0165  0.3265 -1.1826
  409MOL0     C56327   6.881   8.486   3.624  0.5046 -0.0860  0.3559
  409MOL0     O56328   6.845   8.348   3.607 -0.4956  0.1804 -0.3120
  409MOL0     C56329   6.716   8.320   3.652  1.0070  0.1360  0.7362
  409MOL0     C56330   6.634   8.384   3.742  0.6638 -1.4433 -0.1666
  409MOL0     C56331   6.499   8.351   3.772 -0.0502  0.2521 -0.0001
  409MOL0     C56332   6.419   8.448   3.857 -0.5530  0.1106  0.5536
  409MOL0     C56333   6.442   8.242   3.700  0.6112  0.1616  0.3515
  409MOL0     C56334   6.299   8.198   3.720 -0.0478 -0.0517 -0.3418
  409MOL0     O56335   6.268   8.080   3.658 -0.1400 -0.1019  0.2893
  409MOL0     C56336   6.133   8.047   3.641  0.3988 -0.4363 -0.2339
  409MOL0     C56337   6.050   8.127   3.558 -0.6665 -0.2637 -0.4488
  409MOL0     C56338   5.913   8.101   3.557 -0.0051 -0.1454 -0.6173
  409MOL0     C56339   5.854   7.989   3.637 -0.2479 -0.4033  0.1226
  409MOL0     O56340   5.713   7.970   3.638 -1.5047 -0.9134 -0.3436
  409MOL0     C56341   5.647   7.999   3.759  0.4978 -0.0753 -0.1516
  409MOL0     C56342   5.500   7.982   3.727 -0.2375  0.1020 -0.6942
  409MOL0     C56343   5.416   8.018   3.851  0.3312 -0.8414  0.5943
  409MOL0     C56344   5.431   8.169   3.903  0.1127  0.2667  0.6013
  409MOL0     C56345   5.426   8.267   3.781  0.6851  0.4301  0.0359
  409MOL0     C56346   5.418   8.411   3.838 -0.4828  0.7229  0.0362
  409MOL0     C56347   5.422   8.506   3.722 -0.1584  0.4901 -0.2590
  409MOL0     C56348   5.430   8.649   3.774 -0.6480 -1.4472 -0.2453
  409MOL0    Cl56349   5.483   8.765   3.638  0.3593 -0.2345 -0.1295
  409MOL0     C56350   5.941   7.916   3.713  0.2807 -0.3513 -0.1051
  409MOL0     C56351   6.083   7.946   3.715  0.5700 -0.4267  0.2725
  409MOL0     O56352   6.215   8.256   3.790 -0.6675 -0.4791 -0.8227
  409MOL0     C56353   6.510   8.180   3.602 -0.3189  0.8288  0.3644
  409MOL0     C56354   6.655   8.214   3.583  0.1749  0.0288 -0.4759
  409MOL0     N56355   7.309   8.285   3.322 -0.0866  0.5309  0.4370
  409MOL0     N56356   7.290   8.282   3.193  0.4227  0.1874 -1.0046
  409MOL0     C56357   6.395   8.564   2.382 -0.6846 -1.4115 -0.6427
  409MOL0     C56358   6.272   8.560   2.443 -0.5187 -0.6717 -0.0355
  409MOL0     C56359   5.956   8.407   2.790 -0.4605 -0.4818  0.0553
  409MOL0     C56360   5.878   8.302   2.746 -1.0218  0.5898 -0.2043
  409MOL0     C56361   5.745   8.302   2.779 -0.3146 -0.5016  1.4958
  409MOL0     C56362   5.685   8.406   2.838 -0.7460  0.7898 -0.1416
  409MOL0     O56363   5.551   8.382   2.857 -0.0321 -0.5581 -0.7418
  409MOL0     C56364   5.492   8.474   2.953  0.2799  0.2199  0.1261
  409MOL0     C56365   5.345   8.452   2.959  0.3191  0.0542 -0.0652
  409MOL0     C56366   5.276   8.525   3.084 -0.7903 -0.2954  0.2125
  409MOL0     C56367   5.340   8.657   3.129 -1.4364  0.0547  0.9272
  409MOL0     C56368   5.337   8.749   3.013  0.2228 -0.7047 -0.6947
  409MOL0     C56369   5.341   8.831   2.917  0.9237 -0.7956 -0.7389
  409MOL0     C56370   5.760   8.511   2.877 -0.1124 -0.3662 -0.5783
  409MOL0     C56371   5.898   8.515   2.857 -0.1322  0.1216  0.1157
  409MOL0     C56372   5.974   8.635   2.911  0.4754  1.1605  0.2996
  409MOL0     H56373   6.294   8.269   2.617  0.1313 -1.4745 -0.3211
  409MOL0     H56374   6.523   8.289   2.541 -2.1713 -1.2796  1.6019
  409MOL0     H56375   6.732   8.333   2.219  1.9656  0.6434  1.1931
  409MOL0     H56376   6.638   8.266   2.350  0.1858  1.8064  2.2242
  409MOL0     H56377   6.911   8.349   2.347  0.7555 -1.4083  3.1679
  409MOL0     H56378   6.827   8.492   2.414 -2.1506 -0.3542  1.7050
  409MOL0     H56379   6.742   8.313   2.592  0.5939  0.5505  1.2220
  409MOL0     H56380   6.867   8.211   2.515 -1.0322 -0.2932  2.8819
  409MOL0     H56381   7.046   8.365   2.545  0.3482  1.9382 -0.6203
  409MOL0     H56382   6.944   8.487   2.616  0.5284  1.0776  2.2673
  409MOL0     H56383   7.034   8.240   2.752  1.8922  0.9262  1.2406
  409MOL0     H56384   6.884   8.341   2.800 -0.7854  0.3230 -1.3811
  409MOL0     H56385   7.150   8.444   2.749  1.0454 -3.8737  1.1964
  409MOL0     H56386   7.016   8.512   2.843  1.9737  1.8235 -2.0755
  409MOL0     H56387   7.160   8.251   2.934 -2.2292 -0.7866  0.8596
  409MOL0     H56388   7.040   8.355   3.006 -0.9023  1.8973 -0.9271
  409MOL0     H56389   7.340   8.414   2.963 -1.7890 -2.4630 -0.9840
  409MOL0     H56390   7.220   8.549   2.994  0.3125 -0.2434 -3.1024
  409MOL0     H56391   7.193   8.582   3.259  2.5085  0.5459  0.7940
  409MOL0     H56392   7.279   8.567   3.496  0.4020  1.1879  3.7496
  409MOL0     H56393   7.325   8.418   3.570  0.9316  0.6618 -0.3518
  409MOL0     H56394   7.106   8.330   3.560 -1.1117  1.2966 -0.6487
  409MOL0     H56395   7.128   8.447   3.691 -2.0798  0.5210  0.6265
  409MOL0     H56396   7.028   8.630   3.551  0.8760 -0.2707  2.9480
  409MOL0     H56397   6.985   8.503   3.430  2.5470  0.1306 -1.6844
  409MOL0     H56398   6.898   8.503   3.731 -2.9203 -3.7842  1.7230
  409MOL0     H56399   6.798   8.553   3.602 -1.4839 -2.4115  0.3247
  409MOL0     H56400   6.677   8.469   3.794 -3.3509  1.1879 -0.7573
  409MOL0     H56401   6.377   8.415   3.953  0.1536  0.2631  0.9217
  409MOL0     H56402   6.339   8.490   3.796 -2.2961 -3.9182 -0.2475
  409MOL0     H56403   6.491   8.524   3.887  1.1683 -3.0651  5.8039
  409MOL0     H56404   6.085   8.208   3.494 -0.0888 -0.8694 -0.9123
  409MOL0     H56405   5.839   8.151   3.496  0.4513  0.2341 -0.8707
  409MOL0     H56406   5.681   7.932   3.839 -2.1764  0.5908  1.6800
  409MOL0     H56407   5.681   8.091   3.806  2.3473 -1.6050  1.7461
  409MOL0     H56408   5.475   8.048   3.643 -2.3733  1.2255  0.7333
  409MOL0     H56409   5.475   7.878   3.704  2.9524 -0.7747 -0.7848
  409MOL0     H56410   5.433   7.945   3.931  1.2751 -1.2982 -0.0076
  409MOL0     H56411   5.311   8.009   3.822  0.7115 -1.8162 -0.5842
  409MOL0     H56412   5.528   8.175   3.952  0.2450  0.0873  0.3672
  409MOL0     H56413   5.348   8.187   3.972  1.3463  3.0312  1.5107
  409MOL0     H56414   5.514   8.265   3.715  1.5911 -1.5578  1.2109
  409MOL0     H56415   5.338   8.239   3.722  0.0832  0.0981  1.0859
  409MOL0     H56416   5.493   8.441   3.911  1.1473 -2.1123 -0.3147
  409MOL0     H56417   5.323   8.435   3.887 -0.5783  2.2034 -0.8123
  409MOL0     H56418   5.328   8.493   3.668 -0.6691 -0.1065  0.7279
  409MOL0     H56419   5.497   8.476   3.649 -2.6567  0.2455 -2.8836
  409MOL0     H56420   5.504   8.669   3.852 -0.2246  2.9482 -1.5144
  409MOL0     H56421   5.333   8.682   3.811  0.8213  2.1347  0.8699
  409MOL0     H56422   5.901   7.842   3.781  2.4291 -1.0170  0.5117
  409MOL0     H56423   6.157   7.890   3.771 -1.8859 -3.5215  0.7024
  409MOL0     H56424   6.459   8.111   3.537 -3.7090  2.8234  0.6489
  409MOL0     H56425   6.719   8.157   3.516  1.4603 -0.0672  0.7603
  409MOL0     H56426   6.407   8.648   2.315 -4.1104  0.1582  0.5151
  409MOL0     H56427   6.194   8.629   2.413  0.6591  0.3462 -0.8227
  409MOL0     H56428   5.929   8.221   2.694 -0.2246  1.3464 -0.6288
  409MOL0     H56429   5.694   8.222   2.727  4.4677 -2.2392 -1.0331
  409MOL0     H56430   5.539   8.450   3.049  0.7579  0.7743  0.0340
  409MOL0     H56431   5.518   8.575   2.923 -0.4383 -0.2584 -2.3099
  409MOL0     H56432   5.331   8.344   2.950 -0.4746  0.2910 -2.5285
  409MOL0     H56433   5.303   8.488   2.864 -0.7392  1.2847  0.8341
  409MOL0     H56434   5.167   8.532   3.085 -0.7248  1.3858  1.8356
  409MOL0     H56435   5.293   8.464   3.172 -1.7733  0.3133  0.8520
  409MOL0     H56436   5.443   8.649   3.164 -2.0055  0.9509  2.9873
  409MOL0     H56437   5.288   8.682   3.222 -1.3328 -0.8627  1.2478
  409MOL0     H56438   5.348   8.920   2.858 -0.1547  0.4389  0.9231
  409MOL0     H56439   5.717   8.587   2.941 -0.9541  1.1592 -2.8341
  409MOL0     H56440   5.909   8.722   2.910 -0.7180  0.3517  2.2418
  409MOL0     H56441   6.007   8.624   3.015 -0.7137  3.2450  0.9506
  409MOL0     H56442   6.058   8.643   2.842  0.9600  0.2003  0.7563
  410MOL0     O56443   3.474  11.097   2.269  0.2387 -0.8645 -0.1030
  410MOL0     C56444   3.548  11.052   2.183  0.6343  0.1315  0.2880
  410MOL0     O56445   3.533  10.924   2.125  0.3129  0.0657  0.8763
  410MOL0     C56446   3.436  10.833   2.159  0.2992 -0.0384 -1.1776
  410MOL0     C56447   3.469  10.728   2.241  0.2833 -0.6111 -0.1794
  410MOL0     C56448   3.377  10.624   2.264  0.0611  0.2348 -0.3883
  410MOL0     C56449   3.249  10.613   2.194  0.2756  0.9221  0.1052
  410MOL0     O56450   3.152  10.519   2.207 -0.0453  0.7546 -0.6948
  410MOL0     C56451   3.168  10.428   2.317  1.0778  0.0370 -0.7563
  410MOL0     C56452   3.068  10.306   2.296 -0.4161  0.2655  0.1940
  410MOL0     C56453   2.924  10.337   2.323  0.0389  0.8881  0.2124
  410MOL0     C56454   2.866  10.271   2.451 -0.3253  0.9491  0.6534
  410MOL0     C56455   2.710  10.261   2.442  0.6531  0.1548  1.7483
  410MOL0     C56456   2.665  10.401   2.502  1.3564  0.4626 -0.4974
  410MOL0     C56457   2.511  10.410   2.531 -0.0703  0.4030  0.0533
  410MOL0     C56458   2.419  10.397   2.412  0.2773 -0.3285 -0.0480
  410MOL0     N56459   2.290  10.463   2.439 -0.0638 -0.7974 -0.4579
  410MOL0     C56460   2.203  10.421   2.527 -0.4122 -0.0180 -0.5019
  410MOL0     C56461   2.103  10.510   2.537  0.6392  0.8863  0.2796
  410MOL0     C56462   1.980  10.501   2.623  0.9913  0.5247  0.7012
  410MOL0     C56463   1.860  10.564   2.564  0.9360 -0.7256 -0.7135
  410MOL0     C56464   1.736  10.537   2.654  0.4397  0.6063  0.9928
  410MOL0     C56465   1.614  10.586   2.578 -0.2698  0.4524  0.7091
  410MOL0     O56466   1.565  10.488   2.487 -0.6392 -0.8235 -0.1185
  410MOL0     C56467   1.435  10.451   2.502 -0.2813  0.8357  0.8240
  410MOL0     C56468   1.329  10.540   2.480  0.4212 -0.1185 -0.1574
  410MOL0     C56469   1.196  10.514   2.492  0.0334  0.5082  0.3248
  410MOL0     C56470   1.102  10.631   2.451  0.7069  0.7193  0.7751
  410MOL0     C56471   1.156  10.380   2.523 -0.1011 -0.0491 -0.8452
  410MOL0     C56472   1.022  10.319   2.514 -0.5308 -0.6608  0.3469
  410MOL0     O56473   1.015  10.189   2.528 -0.1324 -0.7182 -0.4370
  410MOL0     C56474   0.908  10.118   2.496 -0.9027  0.7178 -1.0284
  410MOL0     C56475   0.879  10.016   2.589 -0.2976  0.8823  0.4920
  410MOL0     C56476   0.751   9.952   2.593  0.4257  0.7609  0.1896
  410MOL0     C56477   0.658   9.990   2.502  0.2415 -1.1998  0.0552
  410MOL0     O56478   0.532   9.945   2.527 -0.5495  0.2966  0.7770
  410MOL0     C56479   0.439   9.958   2.428  0.3756 -0.4693  1.5629
  410MOL0     C56480   0.314   9.882   2.482  0.2212 -0.0650  0.9587
  410MOL0     C56481   0.353   9.740   2.525 -0.9769  0.6119  0.1016
  410MOL0     C56482   0.228   9.666   2.550 -0.2850  0.3310 -0.2852
  410MOL0     C56483   0.241   9.530   2.631 -0.5503 -0.8767  0.0605
  410MOL0     C56484   0.320   9.425   2.567  0.9755  0.0545 -0.5299
  410MOL0     C56485   0.288   9.283   2.623 -0.2962 -0.1768  0.8316
  410MOL0     C56486   0.146   9.238   2.584  0.1505 -0.5844 -0.4728
  410MOL0    Cl56487   0.161   9.086   2.491  0.5301  0.5397  0.4105
  410MOL0     C56488   0.692  10.083   2.400  1.2713 -1.2228  1.1573
  410MOL0     C56489   0.818  10.145   2.390  0.1916 -0.0236  0.3408
  410MOL0     O56490   0.933  10.392   2.483  0.4862  0.0429  0.0682
  410MOL0     C56491   1.264  10.294   2.551  1.0709  0.1725  0.8815
  410MOL0     C56492   1.399  10.324   2.541 -0.1916 -0.3550  0.4530
  410MOL0     N56493   2.129  10.606   2.440  0.9953  0.0232 -0.4598
  410MOL0     N56494   2.248  10.580   2.388  0.7757 -0.1286 -0.9022
  410MOL0     C56495   3.218  10.722   2.104  0.5003  0.3011 -0.5979
  410MOL0     C56496   3.312  10.827   2.092  1.1290  0.5341 -0.5130
  410MOL0     C56497   3.653  11.140   2.124 -0.2901 -0.6929 -0.1588
  410MOL0     C56498   3.761  11.181   2.203  0.0101  0.5465 -1.0830
  410MOL0     C56499   3.861  11.269   2.161  0.0096  0.4959 -0.9325
  410MOL0     C56500   3.863  11.310   2.025  0.2215  0.5025 -0.5988
  410MOL0     O56501   3.961  11.387   1.966 -0.1426  0.0935  0.0662
  410MOL0     C56502   3.983  11.511   2.034  0.2196  1.2336 -0.3351
  410MOL0     C56503   3.875  11.614   1.976 -0.2376  0.2773 -0.4709
  410MOL0     C56504   3.909  11.759   1.995 -1.0546 -0.8826 -0.2733
  410MOL0     C56505   3.964  11.808   2.137  0.4599  0.5462 -0.5226
  410MOL0     C56506   3.889  11.758   2.258 -0.1467  0.3185 -0.5037
  410MOL0     C56507   3.826  11.712   2.350 -0.4624  0.1739 -0.0945
  410MOL0     C56508   3.752  11.278   1.941 -0.1440 -0.2343  0.1957
  410MOL0     C56509   3.655  11.187   1.993  0.1001 -0.3087  0.1152
  410MOL0     C56510   3.528  11.173   1.911 -0.1127  0.0950  0.9485
  410MOL0     H56511   3.566  10.735   2.290  0.7818 -1.3138 -1.0587
  410MOL0     H56512   3.410  10.546   2.332  2.8628 -0.0271 -1.9103
  410MOL0     H56513   3.136  10.464   2.415  1.3652 -0.2922 -0.5357
  410MOL0     H56514   3.272  10.395   2.331  0.9969  0.4368  1.0019
  410MOL0     H56515   3.086  10.270   2.195  0.9724 -0.1017  0.5519
  410MOL0     H56516   3.095  10.227   2.367 -1.6170  1.2393  1.8006
  410MOL0     H56517   2.907  10.445   2.334 -0.2093  0.8837 -0.1153
  410MOL0     H56518   2.863  10.311   2.235  0.7661 -0.0012 -0.0402
  410MOL0     H56519   2.898  10.167   2.463 -0.9399  0.9786  2.8610
  410MOL0     H56520   2.897  10.311   2.548  0.7284 -0.9658  1.1517
  410MOL0     H56521   2.675  10.195   2.522  0.3748  0.5034  1.9176
  410MOL0     H56522   2.672  10.238   2.342  3.6910 -1.5486  0.8569
  410MOL0     H56523   2.717  10.408   2.598  0.6662 -1.0817  0.0164
  410MOL0     H56524   2.692  10.486   2.438  2.6267  0.5637  0.1367
  410MOL0     H56525   2.498  10.508   2.578 -1.1666  0.1779  0.2374
  410MOL0     H56526   2.487  10.332   2.603  1.0590  0.1268  0.1445
  410MOL0     H56527   2.469  10.449   2.330 -0.2563 -1.0076 -0.8097
  410MOL0     H56528   2.397  10.295   2.381 -2.4918  0.2280 -0.1517
  410MOL0     H56529   2.216  10.336   2.594 -0.2767  1.1393  1.0049
  410MOL0     H56530   1.990  10.528   2.729 -1.0478  4.1312  0.1325
  410MOL0     H56531   1.961  10.393   2.624 -0.8463  0.8026  0.0013
  410MOL0     H56532   1.871  10.672   2.554 -2.0911 -0.4340 -1.6529
  410MOL0     H56533   1.845  10.525   2.463  1.9700 -1.0673 -0.7479
  410MOL0     H56534   1.730  10.433   2.685  0.6263  0.4102  0.3686
  410MOL0     H56535   1.747  10.602   2.742 -2.3561  1.8064  0.5859
  410MOL0     H56536   1.530  10.617   2.641 -1.2457 -0.6002 -0.0197
  410MOL0     H56537   1.645  10.667   2.511  2.1313 -0.9471 -0.0102
  410MOL0     H56538   1.353  10.643   2.454  0.1325 -0.2656 -1.0666
  410MOL0     H56539   1.053  10.600   2.358  0.8441 -1.6763  1.4352
  410MOL0     H56540   1.138  10.732   2.429  0.4184  0.4724 -1.0061
  410MOL0     H56541   1.023  10.644   2.526  0.2037  2.3196  0.0035
  410MOL0     H56542   0.950   9.990   2.667 -0.1261 -0.4830 -0.0906
  410MOL0     H56543   0.753   9.864   2.656  0.6639  1.2247  0.8320
  410MOL0     H56544   0.421  10.061   2.395  1.7312 -0.1383  1.7961
  410MOL0     H56545   0.475   9.896   2.346 -2.5517 -1.9319  1.2578
  410MOL0     H56546   0.277   9.932   2.572  0.2075  1.2300  0.2552
  410MOL0     H56547   0.248   9.876   2.395  2.3501 -2.6041 -0.6451
  410MOL0     H56548   0.419   9.742   2.613 -1.5618  0.5695  0.5428
  410MOL0     H56549   0.411   9.695   2.444  0.0208 -0.1543  1.1986
  410MOL0     H56550   0.173   9.652   2.456 -3.3560  0.7259  1.3263
  410MOL0     H56551   0.169   9.733   2.613 -2.3719 -0.4543 -1.3210
  410MOL0     H56552   0.272   9.548   2.734  0.0124  2.4068 -0.5767
  410MOL0     H56553   0.140   9.487   2.634 -1.5079  1.1208 -1.4573
  410MOL0     H56554   0.429   9.435   2.576  1.3410 -2.3947 -1.4200
  410MOL0     H56555   0.283   9.424   2.464 -1.6155 -0.0549  0.3360
  410MOL0     H56556   0.315   9.290   2.729  3.0619  1.8336 -0.0130
  410MOL0     H56557   0.358   9.210   2.581 -1.5340  0.2172 -2.1932
  410MOL0     H56558   0.099   9.313   2.519 -1.5218 -1.1691  0.0042
  410MOL0     H56559   0.080   9.221   2.670 -2.3129  1.7545 -1.7386
  410MOL0     H56560   0.613  10.114   2.333  0.5003  0.3238  2.7024
  410MOL0     H56561   0.835  10.226   2.320  0.7479 -1.3056 -1.0751
  410MOL0     H56562   1.246  10.192   2.586  0.0320  0.1247  0.2492
  410MOL0     H56563   1.475  10.248   2.554 -1.7802 -2.3365 -1.0261
  410MOL0     H56564   3.123  10.722   2.050  0.0685 -0.8404  0.1322
  410MOL0     H56565   3.293  10.916   2.032 -0.6340 -1.0569 -2.4786
  410MOL0     H56566   3.768  11.150   2.307  1.3231  4.6959  0.2540
  410MOL0     H56567   3.933  11.293   2.239 -0.1171  1.4627 -1.1047
  410MOL0     H56568   3.974  11.507   2.143 -1.5795  3.3033 -0.3145
  410MOL0     H56569   4.083  11.549   2.014  0.3322  1.5432  0.7223
  410MOL0     H56570   3.779  11.605   2.028 -1.5083  2.7378 -2.1820
  410MOL0     H56571   3.860  11.583   1.872 -2.0446 -0.3672 -0.0508
  410MOL0     H56572   3.969  11.795   1.911  0.2218 -1.0740  0.5159
  410MOL0     H56573   3.820  11.819   1.978 -1.6347 -0.9255  2.2032
  410MOL0     H56574   3.964  11.917   2.136  4.7920  0.8228  2.3644
  410MOL0     H56575   4.070  11.791   2.158  1.4562  5.1190 -0.9003
  410MOL0     H56576   3.777  11.664   2.433 -0.0415  0.8688  0.5760
  410MOL0     H56577   3.741  11.317   1.840 -1.0595 -1.2249 -0.1024
  410MOL0     H56578   3.460  11.102   1.958  0.4155 -0.9320  0.1824
  410MOL0     H56579   3.478  11.269   1.892  1.0632  0.9986  2.2233
  410MOL0     H56580   3.545  11.139   1.809 -3.0887 -1.6126  0.8993
  411MOL0     O56581   3.374   4.227   6.828  0.4130  0.0975 -0.4486
  411MOL0     C56582   3.334   4.151   6.921  0.3671 -0.8477  0.7748
  411MOL0     O56583   3.331   4.191   7.053 -0.4298 -0.8203  0.0604
  411MOL0     C56584   3.370   4.320   7.084 -1.4543 -0.5177  0.7029
  411MOL0     C56585   3.288   4.428   7.046  0.0982  1.2871  0.9868
  411MOL0     C56586   3.328   4.556   7.079  0.4022 -0.3683 -0.8311
  411MOL0     C56587   3.429   4.579   7.174 -0.6917 -0.0199 -0.1600
  411MOL0     O56588   3.455   4.702   7.211  0.3474 -1.3550 -0.9862
  411MOL0     C56589   3.481   4.719   7.351 -0.3814 -0.9277 -0.2439
  411MOL0     C56590   3.470   4.874   7.367 -0.1968 -0.0002 -0.6459
  411MOL0     C56591   3.562   4.963   7.285 -0.2469  0.0602  0.7247
  411MOL0     C56592   3.562   5.110   7.320  0.1658  0.6207  0.8045
  411MOL0     C56593   3.693   5.176   7.321 -0.8303  0.5041 -0.6219
  411MOL0     C56594   3.701   5.274   7.442 -0.2561 -0.3268 -0.0942
  411MOL0     C56595   3.846   5.328   7.469 -0.4099 -0.6429  0.5196
  411MOL0     C56596   3.840   5.406   7.600  0.1388 -0.4667  0.1151
  411MOL0     N56597   3.759   5.525   7.590 -0.6854 -0.2366 -0.1959
  411MOL0     C56598   3.785   5.645   7.516  0.8115 -0.5615  0.3148
  411MOL0     C56599   3.694   5.725   7.563  0.8455  0.3007 -0.6880
  411MOL0     C56600   3.681   5.868   7.513  0.0112 -0.2174  0.4754
  411MOL0     C56601   3.646   5.970   7.620 -0.2968 -0.7692 -0.4273
  411MOL0     C56602   3.761   6.010   7.711  0.1233 -0.5684  0.4362
  411MOL0     C56603   3.730   6.123   7.819 -0.7386  0.2012  1.0001
  411MOL0     O56604   3.746   6.261   7.759 -0.1422  0.1325 -0.1750
  411MOL0     C56605   3.733   6.357   7.855 -0.1724 -0.2065  0.3968
  411MOL0     C56606   3.733   6.484   7.800 -1.3583 -0.6392 -1.0777
  411MOL0     C56607   3.744   6.600   7.873  0.1170 -0.3328  0.0459
  411MOL0     C56608   3.742   6.726   7.795  0.1877  0.6174  0.0431
  411MOL0     C56609   3.758   6.597   8.014 -0.3790  0.7465  0.0618
  411MOL0     C56610   3.766   6.715   8.106 -0.3600  0.2149  0.8227
  411MOL0     O56611   3.825   6.693   8.227  0.0244  0.3623 -0.3310
  411MOL0     C56612   3.838   6.801   8.307  0.8983 -1.1065 -0.0624
  411MOL0     C56613   3.787   6.817   8.428 -0.0233  0.5703  0.9439
  411MOL0     C56614   3.791   6.941   8.492 -0.4381  0.6729 -0.3194
  411MOL0     C56615   3.862   7.042   8.430  0.3455 -0.8907  0.2776
  411MOL0     O56616   3.860   7.162   8.488  0.2488 -0.1982  0.7233
  411MOL0     C56617   3.932   7.160   8.616 -0.0110 -0.2809 -0.6332
  411MOL0     C56618   3.828   7.195   8.727  0.3424 -0.6260 -0.7607
  411MOL0     C56619   3.887   7.265   8.852  0.9176 -0.8664  0.0910
  411MOL0     C56620   3.951   7.405   8.839 -0.4155  0.3469  0.4116
  411MOL0     C56621   3.963   7.469   8.981  0.8091 -0.1473 -0.7489
  411MOL0     C56622   4.062   7.582   8.973 -0.9782 -1.0131  0.8144
  411MOL0     C56623   4.109   7.648   9.104 -0.6193  0.4077  0.4029
  411MOL0     C56624   4.245   7.718   9.078  0.2550 -0.5345  0.0348
  411MOL0    Cl56625   4.223   7.873   8.979 -0.2163  0.0310 -0.1077
  411MOL0     C56626   3.931   7.033   8.310 -0.3705 -0.7380  0.2102
  411MOL0     C56627   3.921   6.909   8.250 -1.0946  0.3281  0.6544
  411MOL0     O56628   3.720   6.824   8.070 -0.2275 -0.3088  0.2609
  411MOL0     C56629   3.756   6.467   8.072  0.2386 -0.2000 -0.0807
  411MOL0     C56630   3.728   6.346   7.997  0.4478  0.8819 -0.6194
  411MOL0     N56631   3.602   5.661   7.645 -0.3284 -1.2760  0.9669
  411MOL0     N56632   3.646   5.539   7.663 -0.3600  1.0303 -0.2144
  411MOL0     C56633   3.509   4.473   7.221  1.1802 -0.2489 -0.6013
  411MOL0     C56634   3.473   4.345   7.173 -0.5146 -0.9204 -0.4467
  411MOL0     C56635   3.291   4.010   6.887 -0.1821  0.0178  0.0707
  411MOL0     C56636   3.306   3.964   6.763  0.3107 -0.5246  0.2097
  411MOL0     C56637   3.262   3.839   6.715  0.1130 -0.2967  0.1190
  411MOL0     C56638   3.212   3.750   6.807  0.2839 -0.0278 -0.5305
  411MOL0     O56639   3.171   3.637   6.735  0.4353 -0.1738 -0.9629
  411MOL0     C56640   3.145   3.520   6.809  0.1694  0.1449 -0.2341
  411MOL0     C56641   3.269   3.438   6.808 -0.5496  0.0763 -0.0420
  411MOL0     C56642   3.276   3.288   6.854  0.5046 -0.4949 -0.5227
  411MOL0     C56643   3.203   3.252   6.986 -1.5048  0.0653  0.7485
  411MOL0     C56644   3.066   3.223   6.941  0.7637 -0.0502  0.0840
  411MOL0     C56645   2.951   3.199   6.920 -0.2608 -0.5039  0.0239
  411MOL0     C56646   3.209   3.778   6.940 -0.7298  0.0307  0.4838
  411MOL0     C56647   3.261   3.908   6.985 -0.5089 -0.2166 -0.6401
  411MOL0     C56648   3.287   3.933   7.131  0.2338 -0.4924  0.0584
  411MOL0     H56649   3.196   4.415   6.989 -0.0454 -0.4655  1.5602
  411MOL0     H56650   3.257   4.632   7.049  1.7167  0.4245 -2.0882
  411MOL0     H56651   3.587   4.698   7.366  0.1665 -0.5465 -3.0181
  411MOL0     H56652   3.412   4.656   7.409 -1.4509  1.1521  0.8649
  411MOL0     H56653   3.367   4.891   7.335 -0.3017 -1.1968 -0.9808
  411MOL0     H56654   3.485   4.893   7.474  1.3936 -0.4843 -0.7586
  411MOL0     H56655   3.667   4.934   7.298  0.5331  3.0968  2.4019
  411MOL0     H56656   3.538   4.946   7.180  1.3223 -0.8905  0.4866
  411MOL0     H56657   3.497   5.167   7.253 -0.7560  1.4876  2.3749
  411MOL0     H56658   3.530   5.114   7.425  2.6139 -0.0944  1.6569
  411MOL0     H56659   3.716   5.234   7.231  0.4671 -0.5085 -0.9808
  411MOL0     H56660   3.774   5.103   7.329  1.0092  1.9789 -3.7791
  411MOL0     H56661   3.635   5.356   7.413  2.4965  1.0481 -3.2331
  411MOL0     H56662   3.665   5.228   7.534 -1.1930  0.2488 -0.1652
  411MOL0     H56663   3.878   5.392   7.386  1.1820 -1.3163  0.5729
  411MOL0     H56664   3.919   5.246   7.466  1.3899  0.9137 -1.0678
  411MOL0     H56665   3.776   5.351   7.670 -1.6531  0.7702 -0.4464
  411MOL0     H56666   3.933   5.423   7.654 -0.1534  0.1910  0.4345
  411MOL0     H56667   3.870   5.661   7.450 -0.3797  0.4185 -1.0264
  411MOL0     H56668   3.619   5.856   7.424 -0.6128 -3.2186  1.2083
  411MOL0     H56669   3.778   5.889   7.467  0.6094 -4.2323 -0.4833
  411MOL0     H56670   3.591   6.054   7.578 -1.4401 -1.4032 -0.2193
  411MOL0     H56671   3.570   5.927   7.684 -0.7501 -0.8967 -1.0409
  411MOL0     H56672   3.798   5.922   7.765  0.1417 -0.1933  1.0487
  411MOL0     H56673   3.840   6.044   7.643  3.3357 -3.6314  2.3183
  411MOL0     H56674   3.626   6.113   7.852 -0.9594 -0.1587  0.2091
  411MOL0     H56675   3.803   6.091   7.894 -0.0154 -2.1920 -0.5984
  411MOL0     H56676   3.713   6.486   7.693 -0.1351 -1.3582 -1.3347
  411MOL0     H56677   3.637   6.743   7.769 -0.3539 -1.7554  0.4091
  411MOL0     H56678   3.795   6.704   7.702 -1.2066 -0.4835 -0.5344
  411MOL0     H56679   3.785   6.811   7.849 -0.4009  0.2407  1.1589
  411MOL0     H56680   3.741   6.731   8.475  1.1862 -1.3933 -1.2688
  411MOL0     H56681   3.737   6.952   8.585 -2.4186 -0.4454 -1.2740
  411MOL0     H56682   3.989   7.072   8.644  1.3098  1.8322  4.3726
  411MOL0     H56683   4.002   7.244   8.623 -3.3511  2.7145  0.3511
  411MOL0     H56684   3.755   7.267   8.689 -1.4471 -2.3017 -0.6266
  411MOL0     H56685   3.781   7.101   8.757 -0.5273 -0.8732 -2.7752
  411MOL0     H56686   3.954   7.193   8.900 -0.7485 -2.6186 -0.0703
  411MOL0     H56687   3.808   7.274   8.927  1.3473 -0.1958  0.4746
  411MOL0     H56688   3.895   7.463   8.765  1.6682 -0.5009 -1.9843
  411MOL0     H56689   4.050   7.391   8.793  0.2795  0.9388  1.6670
  411MOL0     H56690   3.871   7.508   9.026  1.3858 -0.0053  0.3301
  411MOL0     H56691   3.988   7.389   9.050 -2.4857  0.1129  0.9409
  411MOL0     H56692   4.015   7.664   8.918 -2.0628 -0.5300  2.3848
  411MOL0     H56693   4.141   7.536   8.913  0.4202  0.0708  1.7622
  411MOL0     H56694   4.133   7.577   9.183  0.1687  0.0270 -0.1599
  411MOL0     H56695   4.029   7.713   9.140 -0.1778 -0.3812  2.9624
  411MOL0     H56696   4.325   7.653   9.041  2.0864  1.0882  0.9494
  411MOL0     H56697   4.289   7.750   9.174  2.3374  2.4327 -1.7560
  411MOL0     H56698   3.982   7.113   8.258 -0.9172  0.6559  1.7271
  411MOL0     H56699   3.962   6.886   8.152  3.3843  0.5475  2.2445
  411MOL0     H56700   3.769   6.459   8.179  2.7229 -3.1811 -0.4953
  411MOL0     H56701   3.723   6.248   8.043 -1.7780  0.2461 -2.0846
  411MOL0     H56702   3.582   4.491   7.299  1.8789 -1.9746 -0.7988
  411MOL0     H56703   3.527   4.258   7.210 -1.0225 -0.3536  1.7798
  411MOL0     H56704   3.340   4.029   6.682 -0.7109 -0.3224 -0.0655
  411MOL0     H56705   3.278   3.829   6.608  3.3658  2.3076  0.2010
  411MOL0     H56706   3.120   3.545   6.913  2.4398 -0.9998  0.6504
  411MOL0     H56707   3.055   3.476   6.765 -0.6785 -0.5379  2.0054
  411MOL0     H56708   3.329   3.494   6.880  0.4950 -1.2785  0.1812
  411MOL0     H56709   3.313   3.461   6.710  1.0697  1.8298  1.0185
  411MOL0     H56710   3.239   3.223   6.774  1.8312 -0.4385 -1.2154
  411MOL0     H56711   3.382   3.263   6.866  0.3583 -0.0706  2.4982
  411MOL0     H56712   3.198   3.339   7.053 -2.0446 -0.4607  1.4115
  411MOL0     H56713   3.243   3.167   7.042 -1.2872 -1.6305 -1.8264
  411MOL0     H56714   2.857   3.154   6.895 -1.2935  0.6261  1.6605
  411MOL0     H56715   3.196   3.706   7.021 -3.2470 -1.3695 -1.0336
  411MOL0     H56716   3.210   4.009   7.150 -1.6637 -1.6956 -2.2250
  411MOL0     H56717   3.262   3.849   7.197 -3.9902  3.4918  4.3452
  411MOL0     H56718   3.389   3.967   7.151  0.6350 -1.9507  0.5820
  412MOL0     O56719   4.999   1.805   5.903 -0.6627 -0.3406 -0.6120
  412MOL0     C56720   5.043   1.768   5.797 -0.5989  0.1765  0.9375
  412MOL0     O56721   5.159   1.703   5.785 -0.9589 -0.1798  0.0278
  412MOL0     C56722   5.230   1.655   5.890 -0.6444 -0.4966 -0.4010
  412MOL0     C56723   5.344   1.728   5.938  0.5258  0.4519 -0.2852
  412MOL0     C56724   5.401   1.675   6.060  0.0985 -0.7514  0.2972
  412MOL0     C56725   5.356   1.559   6.131 -0.3940  0.8397 -0.1083
  412MOL0     O56726   5.407   1.499   6.243 -0.2446  0.2897 -0.4773
  412MOL0     C56727   5.475   1.573   6.348  0.8810 -0.3719 -0.9752
  412MOL0     C56728   5.378   1.605   6.463 -1.2406  0.0183 -0.1432
  412MOL0     C56729   5.333   1.487   6.536  0.5376 -0.1472  0.4183
  412MOL0     C56730   5.268   1.530   6.670 -0.7429 -0.1073  0.1457
  412MOL0     C56731   5.146   1.445   6.706 -0.1641 -0.4338 -0.0700
  412MOL0     C56732   5.185   1.311   6.780  0.4068  0.0804  0.0786
  412MOL0     C56733   5.261   1.322   6.912  0.1935 -0.6406  0.2021
  412MOL0     C56734   5.158   1.341   7.022 -0.3250 -0.4152 -0.1963
  412MOL0     N56735   5.201   1.276   7.142  0.1047  0.3483 -0.0057
  412MOL0     C56736   5.316   1.310   7.200  1.6682 -0.0668  0.3957
  412MOL0     C56737   5.339   1.219   7.298 -0.2195 -0.0913  0.8806
  412MOL0     C56738   5.448   1.217   7.400 -1.6461 -0.1569  0.1694
  412MOL0     C56739   5.545   1.102   7.375  0.2291  0.0257 -0.4098
  412MOL0     C56740   5.490   0.972   7.442  0.0971  0.4694 -1.4035
  412MOL0     C56741   5.610   0.868   7.451  0.3353  0.1404 -0.3168
  412MOL0     O56742   5.587   0.789   7.564 -0.2894  0.1219 -0.5050
  412MOL0     C56743   5.539   0.659   7.549  0.1068  0.2288 -0.1230
  412MOL0     C56744   5.548   0.575   7.659  0.7498  0.0137 -0.3048
  412MOL0     C56745   5.503   0.446   7.656 -0.2134  0.1482  0.5223
  412MOL0     C56746   5.494   0.352   7.781  0.2590 -0.2325  0.9153
  412MOL0     C56747   5.449   0.389   7.531  0.0126 -1.0791  0.1452
  412MOL0     C56748   5.397   0.252   7.507 -0.2978  0.9823  0.2442
  412MOL0     O56749   5.331   0.224   7.391 -0.8261  0.3322  0.2539
  412MOL0     C56750   5.290   0.091   7.360  0.1355  0.1005 -0.3801
  412MOL0     C56751   5.379  -0.012   7.325 -0.5164  0.8082 -0.6805
  412MOL0     C56752   5.334  -0.149   7.325  1.0503  0.2873 -0.1254
  412MOL0     C56753   5.198  -0.184   7.343 -1.2785  0.4753 -0.1323
  412MOL0     O56754   5.154  -0.313   7.339  0.2481  0.0058 -0.3278
  412MOL0     C56755   5.235  -0.414   7.398  0.0853 -0.9350  0.3006
  412MOL0     C56756   5.167  -0.548   7.393  0.3423  0.3070  0.1745
  412MOL0     C56757   5.024  -0.556   7.459  0.5038  1.4226  0.1149
  412MOL0     C56758   4.981  -0.705   7.461 -0.5587 -0.1285  0.5422
  412MOL0     C56759   4.844  -0.728   7.511  0.3768 -0.1127 -0.3427
  412MOL0     C56760   4.824  -0.744   7.662 -0.1262  0.6425 -0.9743
  412MOL0     C56761   4.675  -0.732   7.685 -0.0717 -0.1895 -0.2286
  412MOL0     C56762   4.644  -0.735   7.830 -0.1383 -0.7334 -0.8536
  412MOL0    Cl56763   4.726  -0.605   7.919 -0.4713 -0.3056 -0.4805
  412MOL0     C56764   5.116  -0.080   7.374 -0.0395 -0.1771 -0.9779
  412MOL0     C56765   5.157   0.051   7.382 -0.0008 -0.5031 -0.4161
  412MOL0     O56766   5.404   0.167   7.596  0.4047 -0.6964  0.1760
  412MOL0     C56767   5.441   0.475   7.428 -0.1613  0.6114 -0.2706
  412MOL0     C56768   5.493   0.609   7.427  1.3016 -0.0515  0.0311
  412MOL0     N56769   5.238   1.130   7.306  0.5615  0.9140  0.6719
  412MOL0     N56770   5.154   1.154   7.206  0.5177 -0.6464 -0.1607
  412MOL0     C56771   5.249   1.498   6.074  1.2252  0.4005  0.6200
  412MOL0     C56772   5.184   1.547   5.960 -0.4587  1.6097  0.4621
  412MOL0     C56773   4.970   1.797   5.665 -0.8635 -0.2477  1.1420
  412MOL0     C56774   4.843   1.865   5.665  0.2115 -0.3311  0.2698
  412MOL0     C56775   4.781   1.903   5.551 -0.2777  0.4106 -0.0102
  412MOL0     C56776   4.828   1.869   5.427  0.0004  0.6505 -0.5640
  412MOL0     O56777   4.759   1.906   5.317  0.1280  0.0814  0.1532
  412MOL0     C56778   4.654   2.002   5.309  0.0474 -0.0051  0.4282
  412MOL0     C56779   4.610   2.025   5.168 -0.3339  0.0679 -0.5192
  412MOL0     C56780   4.529   1.912   5.116  1.6212  1.1231  0.4359
  412MOL0     C56781   4.480   1.928   4.969 -1.1738 -0.7727 -0.3224
  412MOL0     C56782   4.398   2.048   4.949  0.6302  0.0320  0.4107
  412MOL0     C56783   4.340   2.152   4.920  0.0610 -0.2355  0.8557
  412MOL0     C56784   4.943   1.798   5.420  0.4731  0.0761  0.2380
  412MOL0     C56785   5.018   1.774   5.533 -0.8588 -0.0192  0.9324
  412MOL0     C56786   5.159   1.718   5.501 -0.2141  0.3023  0.5353
  412MOL0     H56787   5.379   1.822   5.895 -0.5922  1.8859  1.7613
  412MOL0     H56788   5.480   1.742   6.091 -0.1619 -0.7742  1.0120
  412MOL0     H56789   5.509   1.670   6.310 -1.4081  0.9497  0.0857
  412MOL0     H56790   5.556   1.511   6.386 -1.2625 -2.9433 -0.3128
  412MOL0     H56791   5.435   1.670   6.530 -0.3476 -1.1167  0.2227
  412MOL0     H56792   5.291   1.660   6.427  0.7781  4.8870  1.4592
  412MOL0     H56793   5.253   1.449   6.472 -0.1352  3.0541 -0.8792
  412MOL0     H56794   5.417   1.421   6.558  4.2203  3.8302 -0.2118
  412MOL0     H56795   5.338   1.535   6.754 -1.3969  1.4567  0.6420
  412MOL0     H56796   5.227   1.630   6.651 -1.1741 -0.3258 -0.0987
  412MOL0     H56797   5.079   1.421   6.623 -0.6097 -0.4945  0.3072
  412MOL0     H56798   5.099   1.507   6.782  1.0148 -0.0965  0.4124
  412MOL0     H56799   5.095   1.250   6.794  1.3255 -0.8762  2.4678
  412MOL0     H56800   5.240   1.251   6.707 -1.0501 -0.9180 -0.2445
  412MOL0     H56801   5.341   1.397   6.907 -1.0024  0.8444  1.8122
  412MOL0     H56802   5.316   1.228   6.921  0.9254 -0.1858  0.6046
  412MOL0     H56803   5.161   1.450   7.030  1.4110 -0.4519 -0.0239
  412MOL0     H56804   5.058   1.311   6.990 -0.2686  0.8523 -1.7034
  412MOL0     H56805   5.373   1.402   7.185 -0.1706  0.8399 -1.5490
  412MOL0     H56806   5.412   1.213   7.504  2.5178  0.1653  1.8353
  412MOL0     H56807   5.515   1.302   7.384 -0.9048 -1.0540 -1.8274
  412MOL0     H56808   5.548   1.086   7.267  0.1921  4.3965 -1.2377
  412MOL0     H56809   5.642   1.134   7.413 -0.2457  0.6318  0.3315
  412MOL0     H56810   5.475   1.014   7.542  1.1058  0.9074 -1.4275
  412MOL0     H56811   5.396   0.944   7.394 -0.5066 -0.5411  0.3138
  412MOL0     H56812   5.632   0.802   7.367 -1.8724 -0.7991 -0.2253
  412MOL0     H56813   5.701   0.915   7.488 -1.0538  1.7662  1.1831
  412MOL0     H56814   5.573   0.617   7.756  0.6726  1.0131 -0.7031
  412MOL0     H56815   5.503   0.402   7.878 -0.6811  0.2120  0.7877
  412MOL0     H56816   5.560   0.265   7.776  0.0606 -0.3091 -0.9328
  412MOL0     H56817   5.387   0.329   7.783 -0.2938  1.9262 -0.3319
  412MOL0     H56818   5.483   0.013   7.309  0.5660  0.7153  4.4233
  412MOL0     H56819   5.403  -0.233   7.322 -0.7160 -1.3165  1.3917
  412MOL0     H56820   5.337  -0.427   7.359 -0.0039  2.5087 -1.4367
  412MOL0     H56821   5.245  -0.393   7.505  0.6102 -0.3888  0.1544
  412MOL0     H56822   5.162  -0.569   7.286 -0.8170 -1.3507  0.5021
  412MOL0     H56823   5.235  -0.613   7.448  1.6334  0.8920 -0.7006
  412MOL0     H56824   4.948  -0.523   7.387  0.1504 -2.8957 -1.7956
  412MOL0     H56825   5.008  -0.516   7.559 -0.2325  0.1039  0.5455
  412MOL0     H56826   5.055  -0.746   7.530  1.2492  2.7704  0.4747
  412MOL0     H56827   4.999  -0.754   7.365 -2.7493  3.2998 -1.8503
  412MOL0     H56828   4.780  -0.649   7.472 -0.4883 -0.3298  0.5986
  412MOL0     H56829   4.811  -0.818   7.457  1.2199 -0.1250 -0.8601
  412MOL0     H56830   4.877  -0.664   7.714  1.7489 -1.7526  1.0540
  412MOL0     H56831   4.866  -0.839   7.697  0.8328  1.7127  0.9047
  412MOL0     H56832   4.610  -0.802   7.631  0.3029 -0.0952 -0.8158
  412MOL0     H56833   4.647  -0.631   7.652  1.3234  0.6660  1.0896
  412MOL0     H56834   4.680  -0.828   7.874  2.3226  1.7555  2.9704
  412MOL0     H56835   4.536  -0.718   7.836  0.2108  1.5164 -0.1722
  412MOL0     H56836   5.011  -0.098   7.397 -0.4932  3.3692  0.3351
  412MOL0     H56837   5.097   0.131   7.424 -1.6939 -0.6448 -2.4319
  412MOL0     H56838   5.434   0.435   7.327  4.1630  1.7889 -1.2296
  412MOL0     H56839   5.493   0.665   7.334 -2.2110 -0.2452 -0.2424
  412MOL0     H56840   5.202   1.418   6.130 -0.2924  0.6799 -0.2029
  412MOL0     H56841   5.107   1.483   5.919  1.8026 -1.0325 -0.0005
  412MOL0     H56842   4.803   1.894   5.762  2.2654  3.6148  0.1336
  412MOL0     H56843   4.683   1.949   5.556 -1.2738 -1.6736  0.7509
  412MOL0     H56844   4.572   1.971   5.375  1.2076 -0.2987  1.7647
  412MOL0     H56845   4.686   2.100   5.347 -1.8307 -0.4643  3.4980
  412MOL0     H56846   4.695   2.032   5.099 -0.6742 -2.2449 -1.2910
  412MOL0     H56847   4.547   2.112   5.146 -1.8088 -0.9124 -0.3299
  412MOL0     H56848   4.594   1.823   5.118 -0.0536 -0.5958 -4.9602
  412MOL0     H56849   4.437   1.899   5.173  0.4552 -0.0189 -1.6217
  412MOL0     H56850   4.423   1.845   4.927 -1.9239  0.3569 -1.6415
  412MOL0     H56851   4.574   1.933   4.913 -0.6103  0.8738  0.6986
  412MOL0     H56852   4.286   2.240   4.890 -0.0059  0.1667  2.0979
  412MOL0     H56853   4.985   1.784   5.321  0.3738  1.3202 -0.0011
  412MOL0     H56854   5.235   1.776   5.553  1.6366 -3.9192  3.1022
  412MOL0     H56855   5.188   1.617   5.530  2.1593  1.1037  1.1931
  412MOL0     H56856   5.173   1.710   5.393 -3.6073 -1.3380  0.0833
  413MOL0     O56857   4.905   9.848  10.132 -0.5463  0.0951  0.4748
  413MOL0     C56858   4.993   9.903  10.196 -0.0082 -0.1011 -0.4189
  413MOL0     O56859   4.970   9.985  10.298  0.0871  0.3586  0.5616
  413MOL0     C56860   4.844   9.976  10.360 -0.6691 -0.3496 -0.4814
  413MOL0     C56861   4.810   9.879  10.454  0.2728  0.4992  0.3100
  413MOL0     C56862   4.682   9.892  10.520  0.0350 -0.0535 -0.4173
  413MOL0     C56863   4.589   9.993  10.495 -0.6781 -0.6104  0.3049
  413MOL0     O56864   4.464   9.995  10.548  0.5405  0.3408 -0.1455
  413MOL0     C56865   4.439   9.978  10.687 -0.4789 -0.2583 -0.0497
  413MOL0     C56866   4.330   9.880  10.718  0.7516  0.0611 -0.2141
  413MOL0     C56867   4.206   9.896  10.646 -0.2231 -0.4765 -1.3252
  413MOL0     C56868   4.102   9.787  10.670 -0.3856  0.7085 -0.6690
  413MOL0     C56869   3.973   9.818  10.579 -0.8142 -0.7597  0.1711
  413MOL0     C56870   3.859   9.729  10.615 -0.7783 -0.2887  0.3254
  413MOL0     C56871   3.735   9.748  10.527  0.3465 -0.4731  0.4099
  413MOL0     C56872   3.735   9.673  10.389  0.0731 -0.3861 -0.1520
  413MOL0     N56873   3.610   9.697  10.309  0.7850 -0.6349  0.1846
  413MOL0     C56874   3.483   9.669  10.347  0.0541  0.5916  0.6879
  413MOL0     C56875   3.419   9.699  10.229  0.3006 -0.1141 -0.3521
  413MOL0     C56876   3.270   9.679  10.198 -0.8131  0.3681  0.2094
  413MOL0     C56877   3.185   9.816  10.163 -0.7230 -0.0561 -0.0361
  413MOL0     C56878   3.233   9.899  10.040 -0.4019  0.3700 -0.0929
  413MOL0     C56879   3.223   9.809   9.911  0.1693  0.9073 -0.8183
  413MOL0     O56880   3.077   9.778   9.906  0.1447 -0.0628  0.1721
  413MOL0     C56881   3.018   9.695   9.809  0.2985  0.0665 -0.1658
  413MOL0     C56882   2.884   9.655   9.831 -0.1529 -0.7256  0.1698
  413MOL0     C56883   2.816   9.570   9.742  0.1094 -0.2458  0.7857
  413MOL0     C56884   2.672   9.557   9.782  0.5471  0.5206  0.6425
  413MOL0     C56885   2.886   9.504   9.638 -0.0254 -0.1911  0.4005
  413MOL0     C56886   2.821   9.403   9.545  0.1697 -0.1511 -0.6101
  413MOL0     O56887   2.886   9.391   9.430  0.3017  0.6291  0.8464
  413MOL0     C56888   2.884   9.289   9.339 -0.7230 -0.1184 -1.0209
  413MOL0     C56889   2.920   9.327   9.208 -0.7137 -0.1118  1.7108
  413MOL0     C56890   2.899   9.224   9.104 -0.0500 -0.0970 -0.6186
  413MOL0     C56891   2.852   9.094   9.128  0.5163 -0.2591 -0.5019
  413MOL0     O56892   2.836   8.991   9.039  0.2044 -1.1588 -0.0356
  413MOL0     C56893   2.827   9.018   8.900 -0.4251  0.4195 -0.1991
  413MOL0     C56894   2.768   8.898   8.841 -0.0188  0.1223 -0.0674
  413MOL0     C56895   2.621   8.876   8.872  0.4204  0.0104 -0.2548
  413MOL0     C56896   2.580   8.729   8.853  0.2170 -1.0536  0.4230
  413MOL0     C56897   2.430   8.699   8.896 -0.1225  0.1056  0.2709
  413MOL0     C56898   2.335   8.715   8.776  0.9619 -0.3106  0.1920
  413MOL0     C56899   2.191   8.683   8.815 -0.9519  0.5256 -1.0583
  413MOL0     C56900   2.086   8.685   8.713  0.7226 -0.3562 -0.1844
  413MOL0    Cl56901   1.940   8.611   8.776 -0.4452 -0.1988 -0.3784
  413MOL0     C56902   2.833   9.062   9.265 -0.7727 -1.0567 -0.4625
  413MOL0     C56903   2.842   9.161   9.364  0.2105 -0.2736 -0.9237
  413MOL0     O56904   2.731   9.328   9.586  1.1084  0.4924 -0.6447
  413MOL0     C56905   3.020   9.532   9.619 -0.8744 -0.1006  0.1527
  413MOL0     C56906   3.091   9.629   9.704  0.8904 -0.1813 -0.0092
  413MOL0     N56907   3.504   9.770  10.141  0.5385 -0.1457  0.5001
  413MOL0     N56908   3.627   9.754  10.186  0.3399 -0.6398  0.0718
  413MOL0     C56909   4.624  10.087  10.399  0.5743  0.1511 -0.5199
  413MOL0     C56910   4.742  10.073  10.334 -0.2269  0.2000 -0.6647
  413MOL0     C56911   5.137   9.897  10.154 -0.2722 -0.8576  0.3450
  413MOL0     C56912   5.244   9.971  10.208 -0.6293  0.1153 -0.7579
  413MOL0     C56913   5.375   9.973  10.162  0.2882  0.3118  0.3460
  413MOL0     C56914   5.417   9.883  10.070  0.3662 -0.3385  1.5245
  413MOL0     O56915   5.549   9.872  10.025  0.6339 -0.7720 -0.4460
  413MOL0     C56916   5.661   9.906  10.106  0.1205 -0.6592  0.8417
  413MOL0     C56917   5.734  10.032  10.083  0.7128 -0.3692 -0.4094
  413MOL0     C56918   5.824  10.028   9.962  0.2898 -0.1453  0.8243
  413MOL0     C56919   5.898  10.157   9.932  0.4860  0.7135  0.3755
  413MOL0     C56920   6.028  10.130   9.860 -0.2556  0.4218  0.0242
  413MOL0     C56921   6.144  10.120   9.826 -0.6582 -0.1627  1.0273
  413MOL0     C56922   5.320   9.798  10.007  0.3818  0.4411 -0.6587
  413MOL0     C56923   5.188   9.799  10.058  0.5609 -0.0902 -0.1274
  413MOL0     C56924   5.095   9.698   9.981 -0.6259 -0.3946  0.8794
  413MOL0     H56925   4.880   9.796  10.464 -0.7519 -1.0166 -3.4205
  413MOL0     H56926   4.659   9.826  10.603  1.4004  2.8760  2.5084
  413MOL0     H56927   4.409  10.080  10.711 -3.2030 -0.2038 -3.0438
  413MOL0     H56928   4.527   9.951  10.745 -1.0926  0.0720  1.0719
  413MOL0     H56929   4.377   9.782  10.706  0.5829  0.1889 -2.3040
  413MOL0     H56930   4.308   9.898  10.824  0.3856 -0.3791 -0.2095
  413MOL0     H56931   4.157   9.990  10.671  0.7848 -0.1580 -0.4928
  413MOL0     H56932   4.236   9.892  10.541 -3.2751 -2.1888 -2.2808
  413MOL0     H56933   4.156   9.698  10.638 -0.1101 -0.0045  1.5890
  413MOL0     H56934   4.062   9.778  10.772  0.1324 -3.4422 -0.6761
  413MOL0     H56935   4.006   9.817  10.475  1.9737 -1.4602  0.9885
  413MOL0     H56936   3.941   9.918  10.607  0.1169 -0.7396  1.2382
  413MOL0     H56937   3.890   9.624  10.625 -0.2971 -0.1309  0.5194
  413MOL0     H56938   3.831   9.751  10.718  1.6815 -1.3780  1.3192
  413MOL0     H56939   3.710   9.852  10.505  0.0701 -0.6241 -0.0129
  413MOL0     H56940   3.647   9.703  10.576 -1.5031  0.5829 -1.7386
  413MOL0     H56941   3.818   9.703  10.323  0.1280  0.0356  0.1061
  413MOL0     H56942   3.755   9.567  10.406  0.0366 -0.5980 -1.3008
  413MOL0     H56943   3.461   9.615  10.438  2.0784 -1.4158  0.0751
  413MOL0     H56944   3.214   9.626  10.276 -4.2532 -0.0223 -2.3022
  413MOL0     H56945   3.263   9.621  10.106  0.4951  1.7161 -0.7796
  413MOL0     H56946   3.081   9.785  10.148 -0.6664 -0.2766  0.0198
  413MOL0     H56947   3.198   9.867  10.259  1.0941  0.8819 -0.7246
  413MOL0     H56948   3.174   9.991  10.029 -0.9757  0.1377  0.9660
  413MOL0     H56949   3.337   9.931  10.049 -0.2839 -0.3782  1.3823
  413MOL0     H56950   3.260   9.863   9.824  2.1457 -1.5027 -1.6113
  413MOL0     H56951   3.284   9.717   9.916 -0.6056  0.4425  2.7518
  413MOL0     H56952   2.830   9.717   9.902  1.9010  1.0322  0.2974
  413MOL0     H56953   2.609   9.507   9.708 -0.1022 -2.6113  3.1057
  413MOL0     H56954   2.625   9.656   9.784 -3.4941 -1.1888  0.4922
  413MOL0     H56955   2.661   9.511   9.880 -0.0708 -2.8782 -0.8687
  413MOL0     H56956   2.972   9.419   9.182 -1.1550 -0.2903  0.0496
  413MOL0     H56957   2.920   9.238   8.999 -2.5848 -0.5472 -1.2666
  413MOL0     H56958   2.759   9.101   8.880 -1.9006 -0.1500  2.0757
  413MOL0     H56959   2.926   9.043   8.859  0.6679  0.9968  2.6173
  413MOL0     H56960   2.787   8.906   8.734 -1.1895 -1.3207 -0.4195
  413MOL0     H56961   2.827   8.820   8.890 -0.4229 -1.6707 -2.2726
  413MOL0     H56962   2.550   8.938   8.815 -1.5507  0.4278  2.4816
  413MOL0     H56963   2.605   8.910   8.974 -4.5386  1.7174 -1.2973
  413MOL0     H56964   2.649   8.667   8.910  1.2677  0.0059  0.3632
  413MOL0     H56965   2.599   8.713   8.746  2.4106 -0.0180  0.5806
  413MOL0     H56966   2.414   8.595   8.927  0.2707 -0.7708 -2.2287
  413MOL0     H56967   2.393   8.765   8.975  1.0202  1.0869 -0.0009
  413MOL0     H56968   2.363   8.649   8.693 -2.5217 -0.7887 -0.7363
  413MOL0     H56969   2.336   8.821   8.751 -1.9034  0.7098  3.5984
  413MOL0     H56970   2.158   8.768   8.875 -1.5317  0.9832 -2.0000
  413MOL0     H56971   2.196   8.596   8.881  0.4618  2.3223  1.3440
  413MOL0     H56972   2.103   8.635   8.618  0.0698 -0.6961 -0.1268
  413MOL0     H56973   2.060   8.788   8.688 -3.8221 -0.7310  2.0842
  413MOL0     H56974   2.800   8.962   9.291 -2.2031 -1.0186 -1.9445
  413MOL0     H56975   2.796   9.129   9.457 -4.8682  0.6736 -2.7310
  413MOL0     H56976   3.078   9.499   9.534 -1.9674  1.7928 -1.4390
  413MOL0     H56977   3.196   9.639   9.680  0.5944  0.6139 -1.0402
  413MOL0     H56978   4.557  10.171  10.387  0.4155 -0.2760 -3.1725
  413MOL0     H56979   4.771  10.149  10.263 -4.3300 -0.0970 -2.9666
  413MOL0     H56980   5.218  10.034  10.293 -3.1891 -3.7912  1.7007
  413MOL0     H56981   5.437  10.046  10.212  2.4511 -1.1621 -0.0358
  413MOL0     H56982   5.627   9.920  10.209 -0.7987 -0.5037  0.5231
  413MOL0     H56983   5.730   9.821  10.109 -1.3136 -1.9438 -0.8341
  413MOL0     H56984   5.799  10.051  10.169  0.3034 -2.0482  0.3213
  413MOL0     H56985   5.677  10.125  10.074 -0.5358 -0.9541  1.0439
  413MOL0     H56986   5.896   9.946   9.966  2.6516  1.4011 -3.4896
  413MOL0     H56987   5.767  10.009   9.871  1.9831  4.5009 -1.5155
  413MOL0     H56988   5.920  10.203  10.029 -0.9456 -0.4512  1.3006
  413MOL0     H56989   5.835  10.207   9.858 -2.3287 -0.2610  1.9509
  413MOL0     H56990   6.248  10.117   9.799 -0.9640 -1.5925 -0.1072
  413MOL0     H56991   5.349   9.726   9.932  1.7081  2.0309 -1.7496
  413MOL0     H56992   5.148   9.635   9.909  0.4144 -1.3985  2.4582
  413MOL0     H56993   5.050   9.623  10.046  0.8504 -1.1728  1.0532
  413MOL0     H56994   5.013   9.744   9.926  0.8097  1.0664 -0.1291
  414MOL0     O56995  11.249  11.316  10.144  0.0893 -0.5640 -0.4340
  414MOL0     C56996  11.314  11.223  10.095  0.0844  0.0281  0.4572
  414MOL0     O56997  11.443  11.242  10.050  0.3541 -0.4786  0.2029
  414MOL0     C56998  11.519  11.355  10.081 -0.0550 -0.0927 -0.2678
  414MOL0     C56999  11.484  11.491  10.102  0.3065  0.3262 -1.0205
  414MOL0     C57000  11.570  11.600  10.121 -0.0324 -0.0628  0.6332
  414MOL0     C57001  11.709  11.583  10.118 -0.2057  0.0768 -0.0027
  414MOL0     O57002  11.803  11.679  10.143  0.1889  0.0959  0.0927
  414MOL0     C57003  11.770  11.811  10.185 -0.6685  1.1603 -0.9685
  414MOL0     C57004  11.905  11.866  10.215  0.0324  0.6067 -0.1409
  414MOL0     C57005  11.886  11.987  10.304  0.4658 -0.2425  0.4313
  414MOL0     C57006  11.813  12.110  10.235  0.6625 -0.1458  0.4793
  414MOL0     C57007  11.766  12.214  10.337 -0.6839  0.5049 -0.6026
  414MOL0     C57008  11.648  12.302  10.310  0.4045  0.4611  0.0227
  414MOL0     C57009  11.661  12.431  10.389 -0.0679  0.5512 -0.0938
  414MOL0     C57010  11.571  12.546  10.333  0.3978  0.6899 -0.0291
  414MOL0     N57011  11.430  12.514  10.337  0.3478 -0.2889 -0.0094
  414MOL0     C57012  11.354  12.439  10.248  0.0246  0.6781 -0.2204
  414MOL0     C57013  11.231  12.446  10.295 -0.8495  0.4788 -0.2857
  414MOL0     C57014  11.090  12.399  10.247 -0.0303  0.0481  0.4076
  414MOL0     C57015  10.981  12.508  10.244 -0.1861  0.2632 -0.2124
  414MOL0     C57016  10.837  12.446  10.230  0.7354 -0.4417  0.3250
  414MOL0     C57017  10.763  12.432  10.369  0.1860  0.0075  1.2141
  414MOL0     O57018  10.625  12.404  10.358 -0.7033  0.0567  0.3364
  414MOL0     C57019  10.591  12.276  10.326  0.4574  0.2309  1.3238
  414MOL0     C57020  10.457  12.249  10.326  0.6630  0.7885  0.1984
  414MOL0     C57021  10.401  12.123  10.300 -0.2868  0.2023  0.2276
  414MOL0     C57022  10.252  12.115  10.287  0.2973  0.6427 -0.2519
  414MOL0     C57023  10.491  12.010  10.278  0.3940  0.5657  0.2132
  414MOL0     C57024  10.457  11.861  10.259  0.5350 -0.0990  0.0884
  414MOL0     O57025  10.558  11.781  10.195 -0.5661 -0.2941 -0.1189
  414MOL0     C57026  10.514  11.663  10.136 -0.5227 -0.7831  0.3231
  414MOL0     C57027  10.416  11.670  10.035 -0.0109 -0.7086 -0.7824
  414MOL0     C57028  10.388  11.552   9.971 -0.0894 -0.4728  0.7154
  414MOL0     C57029  10.446  11.434   9.998 -0.2151 -0.1546  0.1786
  414MOL0     O57030  10.403  11.333   9.921 -0.1169  0.4562  0.3271
  414MOL0     C57031  10.444  11.191   9.924  0.8093 -0.7876  0.9086
  414MOL0     C57032  10.410  11.114   9.790  0.6683  0.3933 -0.5313
  414MOL0     C57033  10.437  10.962   9.793 -0.0736 -0.2788  0.4992
  414MOL0     C57034  10.570  10.915   9.768  0.2788 -0.5914  0.1735
  414MOL0     C57035  10.580  10.781   9.684  0.6242 -0.5434  0.5304
  414MOL0     C57036  10.722  10.730   9.683 -0.1246  0.3295 -0.4452
  414MOL0     C57037  10.751  10.654   9.559  0.1353  0.8153 -0.0748
  414MOL0     C57038  10.834  10.533   9.585  0.7582 -0.3112 -0.2069
  414MOL0    Cl57039  10.737  10.386   9.643 -0.2622  0.6936 -0.5890
  414MOL0     C57040  10.550  11.429  10.093  1.0272 -0.1904 -0.5860
  414MOL0     C57041  10.577  11.542  10.167  0.2976 -0.2175 -0.0745
  414MOL0     O57042  10.347  11.828  10.295 -0.7351 -0.0157 -0.6589
  414MOL0     C57043  10.627  12.039  10.272 -0.9500 -0.6934 -0.4822
  414MOL0     C57044  10.674  12.169  10.288  0.3186  0.5178  0.5647
  414MOL0     N57045  11.237  12.526  10.412 -0.4478  0.1720 -1.0388
  414MOL0     N57046  11.362  12.550  10.442 -0.4144 -0.3802 -0.4336
  414MOL0     C57047  11.753  11.445  10.103 -0.7683 -0.9345 -0.2696
  414MOL0     C57048  11.661  11.342  10.077 -0.7158  0.7494  0.2437
  414MOL0     C57049  11.242  11.097  10.055  0.1546 -0.6721 -0.7001
  414MOL0     C57050  11.249  11.040   9.928  0.1237  0.3900 -0.3312
  414MOL0     C57051  11.175  10.925   9.901  0.7821  1.1165 -0.4800
  414MOL0     C57052  11.086  10.860   9.993  0.4932  0.6414  0.7656
  414MOL0     O57053  11.015  10.746   9.961 -0.5070  0.0222  0.5512
  414MOL0     C57054  10.908  10.709  10.047  0.4664 -0.2580 -1.2542
  414MOL0     C57055  10.857  10.573  10.012 -1.1278  0.2826 -0.1163
  414MOL0     C57056  10.798  10.509  10.136  0.5860 -0.0229  0.3812
  414MOL0     C57057  10.903  10.416  10.195  0.6645  0.2076  0.7868
  414MOL0     C57058  10.852  10.324  10.290 -0.3374  0.2820  0.2690
  414MOL0     C57059  10.836  10.235  10.373  0.7855  0.7645  0.2280
  414MOL0     C57060  11.088  10.923  10.120  0.8365  0.3264 -0.9400
  414MOL0     C57061  11.171  11.029  10.157 -0.8069 -0.0945 -0.3992
  414MOL0     C57062  11.159  11.091  10.303  0.0080 -0.4565  0.9425
  414MOL0     H57063  11.379  11.519  10.098  0.0251 -0.7589 -1.5578
  414MOL0     H57064  11.523  11.695  10.142 -0.6960 -0.3479  0.4657
  414MOL0     H57065  11.717  11.799  10.280 -1.4757  2.2402 -1.2548
  414MOL0     H57066  11.698  11.859  10.117 -4.4633 -0.7900  1.2998
  414MOL0     H57067  11.965  11.790  10.267  1.3119  0.4579 -1.7389
  414MOL0     H57068  11.956  11.907  10.127  1.6425  2.7803  1.7064
  414MOL0     H57069  11.833  11.946  10.391 -0.5821  5.5824  2.9921
  414MOL0     H57070  11.983  12.019  10.343  2.0024 -1.0981 -2.3929
  414MOL0     H57071  11.874  12.154  10.156  1.2183 -1.6653  0.0255
  414MOL0     H57072  11.725  12.065  10.188  0.0104 -1.3130  2.6954
  414MOL0     H57073  11.856  12.277  10.342 -1.6452  1.9003 -0.4309
  414MOL0     H57074  11.753  12.168  10.436 -0.2828  0.1461 -0.7157
  414MOL0     H57075  11.628  12.317  10.203  0.0331 -2.0735 -0.3369
  414MOL0     H57076  11.562  12.240  10.340  2.1813 -1.8258  0.6972
  414MOL0     H57077  11.766  12.461  10.383  0.2895 -0.5206  0.6726
  414MOL0     H57078  11.639  12.420  10.495  2.2565  0.9958  0.5005
  414MOL0     H57079  11.582  12.631  10.400 -0.3849  1.1496 -0.4794
  414MOL0     H57080  11.600  12.571  10.231 -2.3837  0.3528 -0.9642
  414MOL0     H57081  11.398  12.391  10.161 -0.7994 -1.5976  0.5581
  414MOL0     H57082  11.054  12.321  10.315 -2.6611  1.9020  1.2856
  414MOL0     H57083  11.101  12.367  10.143  0.7685  3.4644 -0.6905
  414MOL0     H57084  10.993  12.563  10.337  2.2711 -1.4882  0.6151
  414MOL0     H57085  11.004  12.571  10.158  0.9103  0.8972  0.5238
  414MOL0     H57086  10.775  12.501  10.158  1.9707  2.2129  1.1700
  414MOL0     H57087  10.850  12.348  10.183  2.2290 -1.2901  2.3952
  414MOL0     H57088  10.813  12.356  10.430 -1.5015 -2.0586  0.1660
  414MOL0     H57089  10.773  12.535  10.406  0.6080  1.8624 -3.4043
  414MOL0     H57090  10.399  12.335  10.357 -0.1055  0.0204  0.9584
  414MOL0     H57091  10.210  12.048  10.211  1.2553  0.2113 -0.4117
  414MOL0     H57092  10.214  12.208  10.245  0.9686  0.3150 -1.6340
  414MOL0     H57093  10.200  12.092  10.381 -1.4020  0.4988 -1.1748
  414MOL0     H57094  10.377  11.765  10.000  1.4844  1.6209  3.2145
  414MOL0     H57095  10.306  11.551   9.899 -0.0227 -1.2928  0.6462
  414MOL0     H57096  10.548  11.172   9.952  1.8414  2.3892 -0.3099
  414MOL0     H57097  10.373  11.138   9.987 -0.5974 -1.2818 -0.9944
  414MOL0     H57098  10.302  11.128   9.775  0.8072  0.8476 -1.1682
  414MOL0     H57099  10.457  11.169   9.708 -1.1299 -0.6312 -2.3766
  414MOL0     H57100  10.372  10.919   9.716  0.4011  0.1399 -0.1389
  414MOL0     H57101  10.391  10.921   9.884 -1.6426  0.3998  0.0463
  414MOL0     H57102  10.619  10.899   9.864  1.2443  3.5357  0.5592
  414MOL0     H57103  10.628  10.989   9.712 -0.5211 -0.1473 -0.0811
  414MOL0     H57104  10.519  10.708   9.738  0.2400  1.1407  2.4943
  414MOL0     H57105  10.543  10.803   9.584  0.3920  0.0463  0.7387
  414MOL0     H57106  10.743  10.679   9.778 -1.9146 -1.5449 -0.9762
  414MOL0     H57107  10.792  10.814   9.683  0.0635  0.1811 -1.4212
  414MOL0     H57108  10.801  10.726   9.493 -1.8651  1.0546 -1.4500
  414MOL0     H57109  10.657  10.630   9.508 -0.9716  2.8592  0.8879
  414MOL0     H57110  10.915  10.547   9.657  1.6692 -3.3794 -0.4947
  414MOL0     H57111  10.884  10.491   9.497  3.5005 -2.0457  2.0171
  414MOL0     H57112  10.600  11.335  10.111  2.2240  0.7863  1.6481
  414MOL0     H57113  10.648  11.534  10.249  0.8114 -0.8581 -0.5775
  414MOL0     H57114  10.696  11.956  10.262  0.5620  0.3337  0.8733
  414MOL0     H57115  10.781  12.186  10.273 -0.0859  1.5619 -1.5943
  414MOL0     H57116  11.860  11.440  10.117 -0.6894  0.3473 -0.3045
  414MOL0     H57117  11.696  11.241  10.057 -2.1969  0.0118  1.1688
  414MOL0     H57118  11.297  11.100   9.850  0.1009  0.7197 -0.0935
  414MOL0     H57119  11.176  10.883   9.801 -0.4461 -0.9161  0.3193
  414MOL0     H57120  10.947  10.717  10.149 -2.8073  3.1063 -0.0367
  414MOL0     H57121  10.823  10.776  10.032 -0.9616 -1.1762  1.9392
  414MOL0     H57122  10.939  10.509   9.977 -1.5490 -1.8215  2.4040
  414MOL0     H57123  10.786  10.584   9.929 -0.8679  1.9772 -0.1396
  414MOL0     H57124  10.767  10.578  10.215 -0.0378 -2.8508  2.7867
  414MOL0     H57125  10.706  10.458  10.108  1.0143 -1.1529  0.9575
  414MOL0     H57126  10.986  10.472  10.239  2.7917 -2.1871  0.0817
  414MOL0     H57127  10.948  10.345  10.125  0.4797 -1.2171  2.0673
  414MOL0     H57128  10.834  10.163  10.452 -1.9724 -3.3174 -3.1712
  414MOL0     H57129  11.032  10.881  10.204  2.1752  1.9236  0.8423
  414MOL0     H57130  11.256  11.122  10.342  0.2189  1.5617 -0.9578
  414MOL0     H57131  11.083  11.170  10.302 -2.3443 -2.5298  2.3769
  414MOL0     H57132  11.120  11.028  10.384 -3.1696  0.2811  0.1581
  415MOL0     O57133   1.281   2.731   0.790  0.4129  0.0243 -0.0252
  415MOL0     C57134   1.323   2.646   0.869 -0.7727 -0.3114  0.0915
  415MOL0     O57135   1.279   2.623   0.998  0.6281 -0.1046 -0.2170
  415MOL0     C57136   1.197   2.722   1.068 -0.0204  1.3251 -0.0845
  415MOL0     C57137   1.122   2.685   1.186 -0.1946 -0.3302 -1.0021
  415MOL0     C57138   1.036   2.781   1.248 -0.9468 -0.1362 -0.0594
  415MOL0     C57139   1.037   2.919   1.216  1.0801 -0.2093 -0.5545
  415MOL0     O57140   0.951   3.004   1.284  0.4914 -0.0019 -0.2859
  415MOL0     C57141   0.918   3.141   1.241  0.6128  0.6775 -0.1282
  415MOL0     C57142   0.811   3.136   1.137  0.6756  0.2622 -0.1868
  415MOL0     C57143   0.739   3.268   1.106 -0.0646  1.3560  0.2508
  415MOL0     C57144   0.609   3.287   1.184  0.3059  0.4427  0.1405
  415MOL0     C57145   0.550   3.424   1.142  0.2059  1.0275 -0.0327
  415MOL0     C57146   0.408   3.435   1.201 -0.0555  0.4369  0.3684
  415MOL0     C57147   0.341   3.572   1.197 -1.1168  0.4012  0.1052
  415MOL0     C57148   0.348   3.615   1.051  1.1159 -0.4199  0.3236
  415MOL0     N57149   0.289   3.744   1.010 -0.0023  0.2123  0.4938
  415MOL0     C57150   0.172   3.796   1.067 -0.3127  0.6343  0.0014
  415MOL0     C57151   0.180   3.927   1.035 -0.0419 -0.3831  0.1126
  415MOL0     C57152   0.080   4.027   1.086 -0.0788  0.4338  0.5663
  415MOL0     C57153  -0.008   4.061   0.955  0.0538  0.5258 -0.1177
  415MOL0     C57154  -0.077   4.189   0.972 -0.5658  0.5822  0.4498
  415MOL0     C57155  -0.185   4.205   0.864 -0.4126  0.0711 -1.1774
  415MOL0     O57156  -0.289   4.109   0.898 -0.7589  0.0567  0.3450
  415MOL0     C57157  -0.385   4.168   0.974  0.5241  0.5061 -0.3793
  415MOL0     C57158  -0.405   4.132   1.099 -0.4169  0.9991 -0.6104
  415MOL0     C57159  -0.508   4.187   1.188  0.2171  0.3993 -0.5715
  415MOL0     C57160  -0.522   4.134   1.325  0.1157  0.5321  0.7825
  415MOL0     C57161  -0.589   4.291   1.134  1.0154 -0.5704 -0.2066
  415MOL0     C57162  -0.694   4.365   1.203  0.5568 -0.0493  0.0824
  415MOL0     O57163  -0.805   4.407   1.130 -0.4724  0.6640  0.8815
  415MOL0     C57164  -0.903   4.492   1.185 -0.0775 -0.0405 -0.2094
  415MOL0     C57165  -0.908   4.556   1.305  1.0804  1.1043 -0.0987
  415MOL0     C57166  -1.019   4.619   1.350 -0.2970 -0.2037  0.1378
  415MOL0     C57167  -1.140   4.616   1.275  0.5008 -0.5243 -0.5071
  415MOL0     O57168  -1.256   4.674   1.323  0.6043  0.3204  0.1529
  415MOL0     C57169  -1.285   4.662   1.463  1.1570  0.8483  0.5931
  415MOL0     C57170  -1.361   4.524   1.483  0.8002  1.0120  0.7069
  415MOL0     C57171  -1.407   4.517   1.622  0.4786  1.2001 -0.5641
  415MOL0     C57172  -1.485   4.380   1.630  0.4297 -0.3984 -0.2038
  415MOL0     C57173  -1.502   4.337   1.780  0.1031 -0.7817 -0.0157
  415MOL0     C57174  -1.575   4.205   1.793  0.8126  0.1943 -0.0139
  415MOL0     C57175  -1.627   4.186   1.936 -1.0047 -0.2435 -0.1798
  415MOL0     C57176  -1.653   4.034   1.964  0.6758 -1.1393  0.5251
  415MOL0    Cl57177  -1.505   3.944   1.949  0.0539 -0.2960  0.2764
  415MOL0     C57178  -1.145   4.545   1.157 -0.1848  0.7264 -0.4982
  415MOL0     C57179  -1.021   4.492   1.109 -0.7449  0.7601  0.7144
  415MOL0     O57180  -0.667   4.412   1.313  0.8610  0.4195 -0.4792
  415MOL0     C57181  -0.569   4.325   0.998 -0.6309 -0.8088  0.2979
  415MOL0     C57182  -0.462   4.265   0.917  1.3001  0.4076 -0.8189
  415MOL0     N57183   0.293   3.957   0.963  0.4538  0.4281  0.3413
  415MOL0     N57184   0.360   3.846   0.948  0.1653 -0.0612 -0.5989
  415MOL0     C57185   1.118   2.957   1.110  1.0875  0.0635  0.7914
  415MOL0     C57186   1.189   2.859   1.036  0.2675 -0.3166  0.3671
  415MOL0     C57187   1.438   2.566   0.830  0.2873  0.6113 -0.4548
  415MOL0     C57188   1.430   2.429   0.869  0.2070 -0.2417 -0.3812
  415MOL0     C57189   1.521   2.330   0.831  0.3571  0.3222 -0.1467
  415MOL0     C57190   1.629   2.374   0.741 -0.1279 -0.5630  0.3917
  415MOL0     O57191   1.725   2.287   0.695  0.0859  0.2531  0.5415
  415MOL0     C57192   1.666   2.167   0.631 -0.1963 -0.6174 -0.5648
  415MOL0     C57193   1.735   2.159   0.499 -0.2366  0.9846 -0.0732
  415MOL0     C57194   1.704   2.284   0.412 -0.5302  0.1344 -0.2366
  415MOL0     C57195   1.772   2.273   0.270 -0.2484  0.6826  0.3440
  415MOL0     C57196   1.778   2.390   0.181 -0.1511 -0.5460 -0.4934
  415MOL0     C57197   1.761   2.471   0.091  0.1182 -0.7559  1.1921
  415MOL0     C57198   1.640   2.512   0.720 -0.2164 -0.2970  0.4036
  415MOL0     C57199   1.557   2.610   0.759  0.5038  0.4416 -0.0290
  415MOL0     C57200   1.594   2.757   0.748 -0.6048 -0.0034  0.0407
  415MOL0     H57201   1.115   2.580   1.213 -1.4632 -0.6890 -2.5838
  415MOL0     H57202   0.962   2.738   1.316 -1.7679  2.7354  1.0345
  415MOL0     H57203   1.009   3.193   1.209  0.7447  0.3536 -0.2801
  415MOL0     H57204   0.873   3.190   1.328 -1.9757  0.2126 -1.1104
  415MOL0     H57205   0.855   3.097   1.044 -0.3878 -0.9824 -0.2081
  415MOL0     H57206   0.736   3.063   1.168  2.3253 -0.8291  1.4803
  415MOL0     H57207   0.814   3.341   1.140  0.8654  1.9553 -2.8052
  415MOL0     H57208   0.739   3.292   1.000  3.9522  0.1950 -0.1878
  415MOL0     H57209   0.532   3.213   1.160 -1.8103  2.5877 -0.0423
  415MOL0     H57210   0.636   3.282   1.290 -2.1839 -0.5778  0.7958
  415MOL0     H57211   0.542   3.426   1.033  1.4725 -0.1131 -0.1561
  415MOL0     H57212   0.614   3.508   1.171  2.6556 -0.9153  0.5052
  415MOL0     H57213   0.336   3.369   1.153  0.3420  0.6629 -0.5561
  415MOL0     H57214   0.407   3.404   1.306 -0.3818  0.7085  0.4490
  415MOL0     H57215   0.391   3.637   1.270  2.5582 -1.6836 -0.3028
  415MOL0     H57216   0.236   3.554   1.224 -1.3047  0.2714 -0.6990
  415MOL0     H57217   0.450   3.627   1.014  0.5490 -2.5048 -2.1892
  415MOL0     H57218   0.292   3.542   0.991  1.2737 -0.2189 -0.0730
  415MOL0     H57219   0.098   3.759   1.136 -1.4773  3.0165  0.1366
  415MOL0     H57220   0.120   4.113   1.140 -1.1770  0.7350  0.9304
  415MOL0     H57221   0.028   3.975   1.168  1.4735 -1.3082  0.5237
  415MOL0     H57222   0.058   4.070   0.869 -0.4033 -0.4916 -0.5988
  415MOL0     H57223  -0.074   3.982   0.918 -0.1233  2.1073 -3.6361
  415MOL0     H57224  -0.124   4.187   1.071  1.4740 -0.3305  1.4688
  415MOL0     H57225  -0.012   4.277   0.968 -0.5844  0.6714  1.6523
  415MOL0     H57226  -0.209   4.311   0.868  1.1446  0.4066  0.3638
  415MOL0     H57227  -0.142   4.180   0.767 -2.0222 -1.4225 -1.5600
  415MOL0     H57228  -0.338   4.054   1.133 -1.5527 -0.1729 -0.9902
  415MOL0     H57229  -0.451   4.188   1.388 -0.6368  2.6794 -0.1102
  415MOL0     H57230  -0.501   4.028   1.313  0.7068  0.5221  1.7853
  415MOL0     H57231  -0.620   4.143   1.373  0.1655 -1.8985  1.4516
  415MOL0     H57232  -0.823   4.563   1.372  0.7660  4.3649  0.1393
  415MOL0     H57233  -1.027   4.686   1.435 -0.4001 -0.0793  0.0318
  415MOL0     H57234  -1.194   4.658   1.524  1.1861  0.1871  0.5186
  415MOL0     H57235  -1.347   4.746   1.494 -0.0806  1.2836 -2.6778
  415MOL0     H57236  -1.451   4.541   1.422  0.8661  3.5046  1.1829
  415MOL0     H57237  -1.306   4.438   1.443  1.4350  1.3943  0.7444
  415MOL0     H57238  -1.473   4.602   1.641 -1.0800 -0.0628 -0.0232
  415MOL0     H57239  -1.313   4.522   1.678  0.3677  1.4492 -0.3991
  415MOL0     H57240  -1.431   4.301   1.577  0.1715 -1.3466  0.8990
  415MOL0     H57241  -1.576   4.383   1.569  3.0396  0.1015 -4.4446
  415MOL0     H57242  -1.403   4.320   1.822  1.5114 -1.1776 -3.1651
  415MOL0     H57243  -1.556   4.424   1.819 -0.3409 -0.1778 -1.8511
  415MOL0     H57244  -1.500   4.129   1.767  2.3405  1.1625  1.3418
  415MOL0     H57245  -1.650   4.200   1.713  1.0968  2.1849 -0.4629
  415MOL0     H57246  -1.716   4.247   1.954 -1.0933  0.2017 -1.9128
  415MOL0     H57247  -1.552   4.222   2.005  0.8403 -1.2985 -1.5338
  415MOL0     H57248  -1.739   4.010   1.901  0.9205 -1.4540  0.3069
  415MOL0     H57249  -1.678   4.025   2.070  2.1868  0.2520  1.0525
  415MOL0     H57250  -1.241   4.534   1.108  0.8128  1.4713 -2.7377
  415MOL0     H57251  -1.014   4.453   1.008 -1.9442  2.4458 -0.0627
  415MOL0     H57252  -0.623   4.409   0.954  0.0141  0.7296  2.2656
  415MOL0     H57253  -0.456   4.282   0.811 -4.5991  0.2621 -1.5027
  415MOL0     H57254   1.131   3.061   1.081  1.1858 -0.3348 -0.6556
  415MOL0     H57255   1.248   2.894   0.952  2.4678 -2.3120  0.9791
  415MOL0     H57256   1.340   2.392   0.917  0.2392 -0.5326 -0.5425
  415MOL0     H57257   1.505   2.225   0.856 -2.7470  0.9870  1.1980
  415MOL0     H57258   1.679   2.077   0.693 -0.9532 -0.4876 -0.2036
  415MOL0     H57259   1.559   2.186   0.617 -0.3985  2.9730  3.5145
  415MOL0     H57260   1.714   2.066   0.447  4.8514 -0.4928 -0.0906
  415MOL0     H57261   1.841   2.134   0.513 -0.3288  1.1292  0.9499
  415MOL0     H57262   1.598   2.301   0.395 -0.8007  0.5901  1.7303
  415MOL0     H57263   1.750   2.376   0.449  0.4129  0.8214 -2.8181
  415MOL0     H57264   1.717   2.199   0.211  0.0615 -0.7979  1.8230
  415MOL0     H57265   1.876   2.248   0.293  0.1188  0.4970 -1.4126
  415MOL0     H57266   1.765   2.535   0.005 -0.0074 -3.5090 -1.0125
  415MOL0     H57267   1.732   2.541   0.672  0.2251 -0.7710  0.9419
  415MOL0     H57268   1.649   2.783   0.658 -1.0550  1.6227  0.2174
  415MOL0     H57269   1.509   2.826   0.755  0.3243  1.2872 -1.0460
  415MOL0     H57270   1.664   2.768   0.831 -0.9155 -1.2738  0.5061
  416MOL0     O57271   3.295   4.878   1.147  0.6249 -0.6419  0.3374
  416MOL0     C57272   3.257   4.764   1.174  0.9056  0.7649  0.0698
  416MOL0     O57273   3.138   4.727   1.221  0.9983 -0.0133  0.5009
  416MOL0     C57274   3.041   4.825   1.236  0.0443 -0.1823  1.2450
  416MOL0     C57275   2.989   4.891   1.118 -1.1371 -0.1582 -0.9060
  416MOL0     C57276   2.888   4.993   1.130 -0.4780  0.3850  0.7235
  416MOL0     C57277   2.822   5.016   1.256 -0.0907 -0.1885  0.6600
  416MOL0     O57278   2.707   5.085   1.273 -0.2457 -0.5796  0.0840
  416MOL0     C57279   2.674   5.180   1.176 -0.0977 -0.0949  0.2002
  416MOL0     C57280   2.539   5.249   1.228 -1.5794  0.2981 -0.5422
  416MOL0     C57281   2.555   5.319   1.356 -0.2949  0.2196 -0.4511
  416MOL0     C57282   2.433   5.405   1.382 -0.6667  0.9673 -0.3817
  416MOL0     C57283   2.480   5.486   1.507 -0.0634 -0.8283  0.0911
  416MOL0     C57284   2.358   5.564   1.567  1.0343  0.8971  0.4925
  416MOL0     C57285   2.240   5.474   1.599  0.4911 -0.7068  0.3940
  416MOL0     C57286   2.129   5.567   1.646 -0.2720 -0.9277  0.0888
  416MOL0     N57287   2.000   5.506   1.662  0.4482 -0.5936  0.6267
  416MOL0     C57288   1.900   5.550   1.582 -0.2623 -0.1605 -0.0772
  416MOL0     C57289   1.800   5.468   1.628 -1.2542 -0.3602 -0.3385
  416MOL0     C57290   1.662   5.451   1.579  0.3927  0.4537 -0.2634
  416MOL0     C57291   1.555   5.494   1.679  0.4121  0.4248 -0.7076
  416MOL0     C57292   1.422   5.440   1.611 -0.0391 -0.0903 -1.0401
  416MOL0     C57293   1.317   5.465   1.719 -0.7231 -0.5360 -0.1997
  416MOL0     O57294   1.208   5.366   1.684  0.7098 -0.2668 -0.0959
  416MOL0     C57295   1.090   5.420   1.633 -0.5765  1.2611  1.0663
  416MOL0     C57296   0.972   5.359   1.645 -0.0084  0.4741 -0.9799
  416MOL0     C57297   0.855   5.420   1.621  0.5027  0.6560 -0.3666
  416MOL0     C57298   0.736   5.335   1.655 -0.1160  1.1499 -1.1468
  416MOL0     C57299   0.850   5.539   1.549 -0.3987  0.2829  0.4903
  416MOL0     C57300   0.731   5.607   1.505  0.5767 -0.1599 -0.0203
  416MOL0     O57301   0.740   5.700   1.400 -0.0518 -0.2415 -0.2089
  416MOL0     C57302   0.638   5.775   1.355  0.3299  0.0739  0.3089
  416MOL0     C57303   0.668   5.865   1.252  0.9159 -0.3360  0.3105
  416MOL0     C57304   0.585   5.969   1.208  0.3554  0.1882 -1.0165
  416MOL0     C57305   0.455   5.968   1.256  0.5082  0.0785  0.4090
  416MOL0     O57306   0.361   6.047   1.202 -0.5700  0.9950  0.8769
  416MOL0     C57307   0.401   6.187   1.171 -0.0163 -0.5802 -0.4322
  416MOL0     C57308   0.285   6.281   1.148 -0.0769  0.2135  0.6309
  416MOL0     C57309   0.346   6.408   1.078  0.7107 -0.5921  0.2280
  416MOL0     C57310   0.269   6.450   0.954  0.3820  0.3603 -0.1483
  416MOL0     C57311   0.333   6.557   0.870 -0.1827  0.2600  0.1392
  416MOL0     C57312   0.386   6.675   0.951 -0.6222 -0.5569  0.5620
  416MOL0     C57313   0.451   6.785   0.868  0.1390 -0.9704  0.5276
  416MOL0     C57314   0.350   6.852   0.772  0.4882 -0.1068  0.0008
  416MOL0    Cl57315   0.393   7.024   0.719  0.0071  0.1872  0.5006
  416MOL0     C57316   0.412   5.872   1.346  0.1617 -0.2082 -0.3238
  416MOL0     C57317   0.511   5.795   1.405  0.1526 -0.1388  0.5332
  416MOL0     O57318   0.631   5.587   1.563 -0.2043  0.1125 -0.2536
  416MOL0     C57319   0.966   5.598   1.514 -0.0706  0.4780  0.4454
  416MOL0     C57320   1.092   5.539   1.556 -0.1355  0.5959 -0.3453
  416MOL0     N57321   1.845   5.390   1.738  0.4089 -0.2570 -0.4134
  416MOL0     N57322   1.970   5.407   1.753 -0.8520  0.1831  0.3380
  416MOL0     C57323   2.873   4.956   1.370  0.1672 -0.3797  0.3897
  416MOL0     C57324   2.983   4.865   1.353 -0.7278  0.8587  0.2570
  416MOL0     C57325   3.337   4.651   1.122  0.1457  1.3693  0.6551
  416MOL0     C57326   3.415   4.574   1.209  0.3544 -0.6100 -0.4331
  416MOL0     C57327   3.488   4.467   1.165 -0.5064 -0.0729  0.8518
  416MOL0     C57328   3.485   4.428   1.031 -0.5254  0.8316 -0.2234
  416MOL0     O57329   3.559   4.321   0.982 -0.4618  1.0021 -0.0397
  416MOL0     C57330   3.605   4.211   1.068  0.3462 -0.6840 -0.7919
  416MOL0     C57331   3.490   4.109   1.115  0.4183 -1.1028  0.9025
  416MOL0     C57332   3.538   3.968   1.133  0.2178 -0.1606 -0.0977
  416MOL0     C57333   3.623   3.913   1.013 -0.1789 -0.6226 -1.8065
  416MOL0     C57334   3.645   3.770   1.029  1.2143 -0.1614 -0.5230
  416MOL0     C57335   3.678   3.663   1.067 -0.0836  0.5051  0.1853
  416MOL0     C57336   3.399   4.491   0.947 -0.4443  0.2144 -0.5382
  416MOL0     C57337   3.334   4.607   0.989  0.0170 -0.4110  0.0110
  416MOL0     C57338   3.268   4.685   0.881 -0.0146 -0.4255  0.0724
  416MOL0     H57339   3.018   4.872   1.015 -0.5671  1.7671 -1.1263
  416MOL0     H57340   2.846   5.045   1.044  0.1574 -1.5224 -0.8143
  416MOL0     H57341   2.655   5.144   1.074  3.5763 -1.6647 -0.0843
  416MOL0     H57342   2.750   5.259   1.168 -0.9870  0.6282 -1.7310
  416MOL0     H57343   2.498   5.316   1.152  1.1842 -0.3247 -2.7610
  416MOL0     H57344   2.460   5.175   1.244 -1.0790  0.2088  1.9762
  416MOL0     H57345   2.559   5.237   1.428 -0.2307  0.7610  0.1702
  416MOL0     H57346   2.642   5.386   1.356  0.6837 -0.8153  3.1757
  416MOL0     H57347   2.404   5.464   1.294 -1.8183 -1.2451 -1.5617
  416MOL0     H57348   2.360   5.324   1.383  0.8186 -0.5868 -3.2982
  416MOL0     H57349   2.556   5.561   1.485 -0.9558  0.0044 -0.2671
  416MOL0     H57350   2.514   5.433   1.596 -3.0223  0.9074  2.4388
  416MOL0     H57351   2.396   5.612   1.657  0.5150 -0.1134  1.2778
  416MOL0     H57352   2.336   5.635   1.487  0.8302 -3.1633 -3.4920
  416MOL0     H57353   2.266   5.406   1.681 -0.4311  0.7236  1.9351
  416MOL0     H57354   2.201   5.429   1.507  0.4156  2.0478 -1.0159
  416MOL0     H57355   2.151   5.601   1.747  0.4785  1.4338 -0.8035
  416MOL0     H57356   2.124   5.651   1.576  0.4131  1.8023  3.1283
  416MOL0     H57357   1.901   5.625   1.503 -0.4757  1.1048  1.0665
  416MOL0     H57358   1.650   5.343   1.584  0.3679  0.4330 -0.6696
  416MOL0     H57359   1.643   5.482   1.475  2.7626 -0.7343 -1.1457
  416MOL0     H57360   1.581   5.449   1.775  2.4424  0.7068 -1.0816
  416MOL0     H57361   1.570   5.602   1.672  0.5349  0.3288 -2.1927
  416MOL0     H57362   1.394   5.504   1.527 -2.4563  0.1188 -0.1629
  416MOL0     H57363   1.435   5.335   1.583 -5.3543 -0.0769 -5.1895
  416MOL0     H57364   1.360   5.429   1.813 -1.7077 -1.5033 -0.1009
  416MOL0     H57365   1.282   5.564   1.751 -2.0048 -1.1210  0.2777
  416MOL0     H57366   0.976   5.263   1.695  2.0054  1.1378  0.2418
  416MOL0     H57367   0.759   5.230   1.635 -0.6751  0.8339 -0.1925
  416MOL0     H57368   0.653   5.347   1.585 -0.0722  2.1921 -1.0348
  416MOL0     H57369   0.704   5.355   1.758 -0.4190 -1.7197 -0.5948
  416MOL0     H57370   0.767   5.874   1.208  0.8419  0.1672  0.2469
  416MOL0     H57371   0.632   6.051   1.154  1.3933 -1.9801 -3.6601
  416MOL0     H57372   0.474   6.218   1.247  0.2178  3.0594 -1.9398
  416MOL0     H57373   0.467   6.181   1.084 -0.0389  0.5801 -0.5544
  416MOL0     H57374   0.217   6.233   1.077  1.3379 -0.9028 -0.0095
  416MOL0     H57375   0.242   6.295   1.248 -0.3945  0.7030  0.4249
  416MOL0     H57376   0.452   6.403   1.053  0.6793  1.0001 -0.3375
  416MOL0     H57377   0.329   6.492   1.146 -1.1054  0.0519 -0.9478
  416MOL0     H57378   0.171   6.488   0.986 -0.6128  0.2835 -2.8650
  416MOL0     H57379   0.259   6.354   0.902  1.9675  0.8715 -1.4369
  416MOL0     H57380   0.405   6.523   0.794 -2.5796  0.4157 -2.3985
  416MOL0     H57381   0.242   6.600   0.827 -1.0034  2.4941  3.7866
  416MOL0     H57382   0.471   6.654   1.017 -2.3813 -0.1388  3.1455
  416MOL0     H57383   0.316   6.729   1.016  1.3148  1.8356  0.8003
  416MOL0     H57384   0.542   6.744   0.822 -0.7725 -2.2115 -0.2505
  416MOL0     H57385   0.478   6.861   0.941  0.1312 -1.6080  1.2077
  416MOL0     H57386   0.256   6.843   0.827  2.0145 -0.0459  2.8084
  416MOL0     H57387   0.355   6.792   0.681  0.2792  2.7384 -2.0319
  416MOL0     H57388   0.309   5.859   1.379 -1.0506  0.6596 -3.4082
  416MOL0     H57389   0.469   5.750   1.495  1.1166  0.8149  1.4928
  416MOL0     H57390   0.963   5.702   1.483 -0.5549  1.4147  3.3578
  416MOL0     H57391   1.183   5.599   1.557 -0.0131  0.4582  1.6760
  416MOL0     H57392   2.830   4.989   1.463 -2.2428 -1.7342 -0.1570
  416MOL0     H57393   3.008   4.801   1.437 -0.0610 -2.1659 -2.0252
  416MOL0     H57394   3.408   4.607   1.312 -4.0415  0.0487 -0.7725
  416MOL0     H57395   3.549   4.408   1.232  0.7456 -1.0397 -1.0715
  416MOL0     H57396   3.680   4.152   1.016 -0.9358 -2.6828 -0.4998
  416MOL0     H57397   3.654   4.252   1.156 -2.5078  2.9429 -0.6860
  416MOL0     H57398   3.414   4.098   1.037  2.7697  1.0261 -1.9500
  416MOL0     H57399   3.453   4.148   1.210  0.5776 -1.2219  1.0151
  416MOL0     H57400   3.589   3.976   1.229 -0.3795 -0.0499  0.2104
  416MOL0     H57401   3.447   3.909   1.140 -1.0044  1.4994 -1.3108
  416MOL0     H57402   3.720   3.963   1.021 -1.3212  1.3003  2.9175
  416MOL0     H57403   3.575   3.928   0.916 -0.7061  1.8104 -1.2349
  416MOL0     H57404   3.720   3.574   1.108 -3.5325 -1.5593 -0.4269
  416MOL0     H57405   3.398   4.461   0.843 -0.8579 -1.5733 -0.0648
  416MOL0     H57406   3.297   4.790   0.886  4.9867 -1.6363  2.2156
  416MOL0     H57407   3.277   4.640   0.781  0.5823  2.3703 -1.2219
  416MOL0     H57408   3.164   4.696   0.914  0.7726  1.4093  2.1359
  417MOL0     O57409   4.811   3.377   6.548 -0.1272 -0.1520 -0.0561
  417MOL0     C57410   4.738   3.410   6.638 -0.5780 -0.5680  0.4033
  417MOL0     O57411   4.744   3.359   6.766 -0.5868  0.0733 -0.5000
  417MOL0     C57412   4.864   3.310   6.823 -0.6284 -0.4234  0.4080
  417MOL0     C57413   4.870   3.232   6.939  0.6138  0.6345 -0.1751
  417MOL0     C57414   4.989   3.194   7.004  0.1169  0.3283 -0.0888
  417MOL0     C57415   5.110   3.213   6.940 -0.7763  1.2427 -0.7284
  417MOL0     O57416   5.229   3.166   6.995  0.0599  1.0152  0.0166
  417MOL0     C57417   5.306   3.098   6.893 -0.5525 -0.5721 -0.2319
  417MOL0     C57418   5.389   2.991   6.956 -0.1763  0.2103 -0.3402
  417MOL0     C57419   5.290   2.898   7.031 -0.6343  0.2020 -0.4105
  417MOL0     C57420   5.329   2.760   6.998  0.2138 -0.7361  1.2750
  417MOL0     C57421   5.260   2.660   7.103 -0.6330 -0.5225  0.2302
  417MOL0     C57422   5.265   2.509   7.065  0.7171 -0.7772  0.3588
  417MOL0     C57423   5.221   2.473   6.911  0.8430 -0.0591 -0.7212
  417MOL0     C57424   5.066   2.495   6.893  0.7108 -0.3456 -0.1001
  417MOL0     N57425   4.980   2.435   7.004 -0.0519  0.6836  0.1590
  417MOL0     C57426   4.990   2.304   7.041  0.4904  0.6466 -0.5589
  417MOL0     C57427   4.894   2.287   7.135 -0.6772 -0.0291 -0.6061
  417MOL0     C57428   4.864   2.178   7.234  0.2283 -0.0823  0.0571
  417MOL0     C57429   4.726   2.205   7.285  1.0435  0.4102  0.5119
  417MOL0     C57430   4.695   2.108   7.400  0.0085  0.0152  0.1179
  417MOL0     C57431   4.578   2.171   7.491  0.7326  0.2297 -0.3465
  417MOL0     O57432   4.460   2.189   7.406  0.2989 -0.2016 -0.8201
  417MOL0     C57433   4.342   2.153   7.465  1.0272  0.0043  0.6915
  417MOL0     C57434   4.271   2.051   7.407  0.0358 -0.4822 -0.9208
  417MOL0     C57435   4.155   2.010   7.460 -0.1082 -0.0934 -0.0614
  417MOL0     C57436   4.088   1.905   7.385  0.2511 -0.2334  0.3431
  417MOL0     C57437   4.111   2.061   7.589  0.3812  0.5813 -0.3608
  417MOL0     C57438   3.980   2.026   7.658  0.0258  1.4249 -0.6678
  417MOL0     O57439   3.870   2.018   7.576  0.7565  0.8077  0.0298
  417MOL0     C57440   3.749   1.973   7.629  1.6141 -0.6591 -0.0899
  417MOL0     C57441   3.740   1.835   7.665 -0.4744 -0.5570  0.2756
  417MOL0     C57442   3.623   1.777   7.709 -0.3144  1.2937 -0.3541
  417MOL0     C57443   3.512   1.858   7.735 -0.6482  0.1537 -0.1066
  417MOL0     O57444   3.402   1.801   7.786  0.7562 -0.4108  0.3137
  417MOL0     C57445   3.277   1.809   7.716 -0.9951  0.4403 -0.8187
  417MOL0     C57446   3.273   1.777   7.563 -0.0759 -1.2831  0.3977
  417MOL0     C57447   3.326   1.637   7.523 -0.4031  0.4019 -0.5954
  417MOL0     C57448   3.300   1.608   7.379  0.1383 -0.3464 -0.3727
  417MOL0     C57449   3.322   1.459   7.339 -0.3504 -0.4437  0.0652
  417MOL0     C57450   3.298   1.450   7.185 -0.1396 -0.2969  0.0403
  417MOL0     C57451   3.360   1.325   7.130 -0.3030  0.6762 -0.1295
  417MOL0     C57452   3.240   1.232   7.090  0.1226  0.3879 -0.6325
  417MOL0    Cl57453   3.161   1.276   6.928 -0.2071  0.8983 -0.4570
  417MOL0     C57454   3.523   1.992   7.714  0.8935 -0.0200 -0.0107
  417MOL0     C57455   3.636   2.048   7.658  0.1029  0.4526  0.1091
  417MOL0     O57456   3.973   2.013   7.780  0.0873 -0.2636  0.3624
  417MOL0     C57457   4.179   2.177   7.637  0.8563  0.5708 -0.7825
  417MOL0     C57458   4.296   2.215   7.581  0.4310 -0.0888 -0.1639
  417MOL0     N57459   4.828   2.409   7.146  0.0180  0.6628  0.0170
  417MOL0     N57460   4.877   2.497   7.065  0.5954 -0.2406 -1.0022
  417MOL0     C57461   5.116   3.300   6.827 -0.3021  0.5069 -0.1393
  417MOL0     C57462   4.992   3.352   6.774  0.0002  0.3230 -0.1529
  417MOL0     C57463   4.608   3.469   6.598  0.2944 -0.2246  0.1350
  417MOL0     C57464   4.496   3.429   6.678  0.5490  0.0716 -0.0038
  417MOL0     C57465   4.367   3.470   6.630 -0.6948  0.5648 -0.4142
  417MOL0     C57466   4.349   3.533   6.512  0.0315 -1.3704 -0.8689
  417MOL0     O57467   4.215   3.560   6.478 -0.1261 -0.2266 -0.3643
  417MOL0     C57468   4.189   3.612   6.347 -0.2743  0.2159 -0.3350
  417MOL0     C57469   4.048   3.668   6.339  0.3783  0.0841 -0.0211
  417MOL0     C57470   4.021   3.728   6.204 -0.7493 -0.2403 -0.1726
  417MOL0     C57471   4.037   3.874   6.217  0.0290  0.0224 -0.6818
  417MOL0     C57472   4.033   3.923   6.087 -0.6699 -0.6788 -0.1261
  417MOL0     C57473   4.040   3.949   5.978  0.2554  0.0366  1.5014
  417MOL0     C57474   4.457   3.564   6.439 -0.2806  0.3448  0.8531
  417MOL0     C57475   4.587   3.534   6.478  0.2473 -0.8411  0.4686
  417MOL0     C57476   4.697   3.575   6.390 -0.0950 -0.9042  0.1603
  417MOL0     H57477   4.776   3.197   6.982 -0.5409  2.7221 -0.8371
  417MOL0     H57478   4.983   3.140   7.098  6.8771  1.3020  1.4187
  417MOL0     H57479   5.374   3.167   6.842 -0.4258  0.2079  0.9301
  417MOL0     H57480   5.248   3.048   6.815  1.5196 -2.5822 -0.5970
  417MOL0     H57481   5.458   2.944   6.885  2.6694  1.2854  1.5279
  417MOL0     H57482   5.457   3.038   7.028  0.6844  0.8385 -1.5274
  417MOL0     H57483   5.285   2.915   7.139 -0.0373 -0.2675 -0.3057
  417MOL0     H57484   5.189   2.910   6.990  0.3639 -2.3462 -4.1332
  417MOL0     H57485   5.290   2.744   6.897 -1.2517 -0.7613  1.8295
  417MOL0     H57486   5.437   2.743   7.004  0.4556 -1.3581 -2.5148
  417MOL0     H57487   5.156   2.693   7.107 -1.0844 -1.9655  1.3581
  417MOL0     H57488   5.307   2.685   7.198 -0.1387  0.5160 -0.2660
  417MOL0     H57489   5.366   2.472   7.083  2.2289  2.4226 -0.7612
  417MOL0     H57490   5.193   2.453   7.126 -0.5758  0.3980 -0.0424
  417MOL0     H57491   5.261   2.375   6.885  1.6683 -1.0191  3.4090
  417MOL0     H57492   5.278   2.531   6.839  1.3250 -2.1626 -2.1321
  417MOL0     H57493   5.056   2.604   6.900  1.0602 -0.3845  1.3229
  417MOL0     H57494   5.034   2.455   6.797 -1.5619 -1.4610  1.0350
  417MOL0     H57495   5.059   2.227   7.009  0.0811  0.3354 -0.7058
  417MOL0     H57496   4.935   2.192   7.316  0.6348  1.3420 -0.5067
  417MOL0     H57497   4.862   2.087   7.174 -2.8922  0.6112 -1.0818
  417MOL0     H57498   4.710   2.308   7.318 -1.6087 -0.0361  0.8450
  417MOL0     H57499   4.652   2.181   7.207  1.9314 -1.8756  0.3146
  417MOL0     H57500   4.663   2.007   7.372 -4.8931  0.5768  2.5786
  417MOL0     H57501   4.782   2.098   7.464  0.3340 -1.3395 -0.4912
  417MOL0     H57502   4.561   2.099   7.571 -2.2714  0.7797 -0.3644
  417MOL0     H57503   4.597   2.271   7.532 -0.7962  1.2554 -1.9559
  417MOL0     H57504   4.306   2.005   7.315 -2.3818 -0.0073 -2.1634
  417MOL0     H57505   3.989   1.936   7.352  0.4602 -0.3703 -0.4464
  417MOL0     H57506   4.065   1.828   7.460 -2.7981  0.2539  0.0306
  417MOL0     H57507   4.143   1.862   7.301  0.7265 -0.8374  0.9459
  417MOL0     H57508   3.827   1.776   7.637 -1.6607 -1.0259 -2.8808
  417MOL0     H57509   3.617   1.671   7.730 -0.8220  1.8135  2.3971
  417MOL0     H57510   3.212   1.735   7.763  1.7150  0.0893  2.7766
  417MOL0     H57511   3.230   1.907   7.730  0.9910  1.0856  2.3649
  417MOL0     H57512   3.166   1.788   7.539 -0.1619 -1.4692  0.6871
  417MOL0     H57513   3.325   1.856   7.509 -3.4514  1.3487  0.6190
  417MOL0     H57514   3.273   1.562   7.582 -0.8407  0.4838 -0.8766
  417MOL0     H57515   3.430   1.633   7.556 -0.9288 -3.2029  1.1293
  417MOL0     H57516   3.373   1.674   7.332  4.4217 -2.2144  3.0423
  417MOL0     H57517   3.198   1.643   7.356  0.2760  0.6324  0.4257
  417MOL0     H57518   3.417   1.417   7.372  0.0558 -1.0909 -1.8103
  417MOL0     H57519   3.244   1.394   7.379 -3.2256  2.9004  0.4384
  417MOL0     H57520   3.340   1.541   7.141  0.2904  0.3826  1.7734
  417MOL0     H57521   3.189   1.449   7.179 -0.1134 -0.6611 -0.4304
  417MOL0     H57522   3.398   1.267   7.214  2.2329  0.3856 -1.3948
  417MOL0     H57523   3.429   1.341   7.046 -1.4002  6.5243 -0.3476
  417MOL0     H57524   3.172   1.222   7.175  1.5571 -0.3692  0.4798
  417MOL0     H57525   3.289   1.135   7.079 -0.6059 -0.7329  3.8347
  417MOL0     H57526   3.432   2.048   7.734  1.7923  2.6031 -2.4976
  417MOL0     H57527   3.636   2.156   7.655  0.3367  0.5196  1.6581
  417MOL0     H57528   4.137   2.217   7.729 -0.4773 -1.0868 -0.6118
  417MOL0     H57529   4.361   2.284   7.633 -0.8788  0.2678  1.0704
  417MOL0     H57530   5.211   3.326   6.782  0.0865 -1.2621 -0.4178
  417MOL0     H57531   4.997   3.424   6.693 -1.7164  1.1382  0.4247
  417MOL0     H57532   4.490   3.382   6.775  1.7776  1.0269  0.5607
  417MOL0     H57533   4.284   3.436   6.691  0.8746  0.2362  1.6643
  417MOL0     H57534   4.256   3.694   6.322  1.6888 -0.2918  2.7756
  417MOL0     H57535   4.186   3.529   6.275 -2.1676 -1.9935  2.0792
  417MOL0     H57536   4.031   3.745   6.414 -0.7644  0.5707 -0.7441
  417MOL0     H57537   3.968   3.593   6.349 -0.7652  1.2935  0.2227
  417MOL0     H57538   4.102   3.700   6.137  0.9002  0.6197  1.3586
  417MOL0     H57539   3.923   3.706   6.162  0.3531  0.7007 -3.5380
  417MOL0     H57540   4.132   3.913   6.254 -0.9839  0.9361  1.0719
  417MOL0     H57541   3.954   3.911   6.279  1.2517  1.7076  0.0043
  417MOL0     H57542   4.060   3.976   5.877  2.2186 -0.7315  1.6514
  417MOL0     H57543   4.449   3.637   6.360 -0.1290  0.2310  0.7318
  417MOL0     H57544   4.778   3.622   6.447 -1.4156 -0.1599  1.4844
  417MOL0     H57545   4.736   3.495   6.326  1.4231  0.5666 -0.8672
  417MOL0     H57546   4.664   3.644   6.312 -0.3373 -0.2187  0.8631
  418MOL0     O57547  11.194   2.250   4.691 -0.0188  0.3639 -0.7033
  418MOL0     C57548  11.233   2.334   4.772 -0.0154  0.0021  0.4874
  418MOL0     O57549  11.165   2.391   4.881  0.8226 -0.0005  0.5776
  418MOL0     C57550  11.068   2.317   4.935  0.1524 -0.2345  0.8290
  418MOL0     C57551  11.089   2.236   5.047  0.3174 -0.7055  0.1952
  418MOL0     C57552  10.973   2.168   5.099 -0.0554  0.4665 -0.3850
  418MOL0     C57553  10.841   2.186   5.048 -0.5675 -0.0842  0.1627
  418MOL0     O57554  10.726   2.134   5.099  0.1200  0.4379 -0.2504
  418MOL0     C57555  10.730   2.041   5.210  0.0992  0.1437 -0.6222
  418MOL0     C57556  10.769   1.899   5.185  0.3581  1.1175 -1.1730
  418MOL0     C57557  10.704   1.828   5.057 -0.3291 -1.1758 -0.0453
  418MOL0     C57558  10.801   1.802   4.936  0.5095 -0.2495 -0.0861
  418MOL0     C57559  10.748   1.718   4.827 -0.0184  0.1956  0.4455
  418MOL0     C57560  10.722   1.570   4.845 -0.4325 -1.1306 -0.0020
  418MOL0     C57561  10.695   1.499   4.712  1.1362  0.3238 -0.5699
  418MOL0     C57562  10.554   1.547   4.650 -0.1465  0.1806  0.9225
  418MOL0     N57563  10.534   1.503   4.510  0.6039  0.2467 -0.5681
  418MOL0     C57564  10.622   1.469   4.403  0.2827  0.6287  0.5106
  418MOL0     C57565  10.538   1.437   4.302  0.5270 -0.1295  0.7430
  418MOL0     C57566  10.581   1.398   4.156  0.6651  0.2043  0.2265
  418MOL0     C57567  10.572   1.248   4.143 -0.0701  1.0510 -0.3268
  418MOL0     C57568  10.420   1.182   4.139  0.3730 -0.8148 -0.6549
  418MOL0     C57569  10.330   1.263   4.044  0.3644 -0.1080 -0.4903
  418MOL0     O57570  10.405   1.285   3.920 -0.8471  0.0676  0.6541
  418MOL0     C57571  10.378   1.389   3.837  0.3586 -0.4365  0.2275
  418MOL0     C57572  10.472   1.406   3.737  0.2532  0.6984  0.3505
  418MOL0     C57573  10.460   1.508   3.640 -0.2191  0.1441 -0.5729
  418MOL0     C57574  10.584   1.528   3.553  0.1547 -0.1867 -0.4113
  418MOL0     C57575  10.342   1.589   3.639  0.3631  1.5445  0.6928
  418MOL0     C57576  10.319   1.698   3.543  0.2609  0.8211 -0.1598
  418MOL0     O57577  10.196   1.750   3.553 -0.2322  0.1969 -0.1851
  418MOL0     C57578  10.157   1.857   3.473  0.3083  0.0948 -0.1263
  418MOL0     C57579  10.214   1.978   3.460 -0.5715 -0.2613  0.1532
  418MOL0     C57580  10.155   2.085   3.394 -0.4560  0.2235  0.4360
  418MOL0     C57581  10.025   2.066   3.343  0.0773 -1.2862 -0.1704
  418MOL0     O57582   9.966   2.171   3.272 -0.2974 -0.7672 -0.3871
  418MOL0     C57583   9.831   2.203   3.292 -0.2778  0.0305 -0.0053
  418MOL0     C57584   9.799   2.347   3.284 -0.1884 -0.0705 -0.8027
  418MOL0     C57585   9.878   2.426   3.389  0.0530 -0.1825  0.3348
  418MOL0     C57586   9.925   2.562   3.323  0.1960  0.8932 -0.1380
  418MOL0     C57587  10.003   2.648   3.426  0.4526  0.1639 -0.2866
  418MOL0     C57588  10.059   2.782   3.376  0.3282  0.5871  1.1629
  418MOL0     C57589  10.185   2.833   3.459  1.0291 -0.1609  0.1666
  418MOL0     C57590  10.175   2.970   3.533  1.1400 -0.3769  0.0777
  418MOL0    Cl57591  10.034   2.977   3.645 -0.1706  0.1160  0.1166
  418MOL0     C57592   9.955   1.941   3.355 -0.6939  0.7565  0.6591
  418MOL0     C57593  10.029   1.836   3.416 -0.1912  0.2631  0.0152
  418MOL0     O57594  10.413   1.737   3.476  0.2368  0.2626  0.2726
  418MOL0     C57595  10.242   1.555   3.728 -0.9143  0.0857 -0.4571
  418MOL0     C57596  10.260   1.462   3.835 -0.3987 -0.3008 -0.8053
  418MOL0     N57597  10.405   1.463   4.337  0.0335  0.2279  0.3679
  418MOL0     N57598  10.404   1.507   4.462  0.2267 -0.6635  0.5041
  418MOL0     C57599  10.826   2.267   4.929 -0.0488  0.7402 -0.5818
  418MOL0     C57600  10.940   2.330   4.880  0.1928 -0.2506  0.6015
  418MOL0     C57601  11.378   2.369   4.759 -0.5222 -0.1173 -0.9549
  418MOL0     C57602  11.424   2.419   4.640 -0.3471 -1.3660  0.5784
  418MOL0     C57603  11.559   2.465   4.612  0.3819 -0.4218 -0.9495
  418MOL0     C57604  11.652   2.452   4.716  1.0601 -1.2231  0.0822
  418MOL0     O57605  11.781   2.472   4.672 -0.7236  0.3043 -0.1911
  418MOL0     C57606  11.885   2.513   4.774  0.1451  0.0369  0.1153
  418MOL0     C57607  11.979   2.398   4.803 -0.3877  1.6231  0.1964
  418MOL0     C57608  12.034   2.408   4.947  0.0452  0.1789 -0.6023
  418MOL0     C57609  12.121   2.282   4.968  0.7677  0.4062 -0.9541
  418MOL0     C57610  12.244   2.281   4.887 -0.5634  0.6397  0.1581
  418MOL0     C57611  12.345   2.244   4.823 -0.6895  0.2776 -0.6258
  418MOL0     C57612  11.612   2.399   4.845  0.1815  0.0726 -0.4955
  418MOL0     C57613  11.474   2.360   4.860 -1.1636 -0.7924 -0.3319
  418MOL0     C57614  11.440   2.293   4.983  0.2374 -0.8715 -0.8005
  418MOL0     H57615  11.179   2.216   5.105  2.4580 -2.3530 -3.3518
  418MOL0     H57616  10.997   2.111   5.188 -0.2349 -1.8758 -1.7337
  418MOL0     H57617  10.630   2.044   5.256  0.3571 -1.3325  0.0848
  418MOL0     H57618  10.805   2.088   5.274 -0.7524  1.8394 -0.8199
  418MOL0     H57619  10.878   1.893   5.183  0.4878  2.2293  0.2749
  418MOL0     H57620  10.742   1.838   5.271  1.4518 -1.3134 -2.4675
  418MOL0     H57621  10.649   1.739   5.088 -0.6233 -0.1170  2.8545
  418MOL0     H57622  10.643   1.908   5.014  1.2165  1.2199  1.8862
  418MOL0     H57623  10.829   1.903   4.905 -1.9848 -0.0651 -2.0329
  418MOL0     H57624  10.890   1.749   4.972 -0.4563 -2.3259 -0.6052
  418MOL0     H57625  10.821   1.727   4.745 -0.7049  0.8876 -0.1057
  418MOL0     H57626  10.657   1.769   4.794  0.1614  0.6806  0.6939
  418MOL0     H57627  10.809   1.525   4.893  0.3463 -1.2973 -1.4933
  418MOL0     H57628  10.638   1.540   4.908  1.9686 -0.1720  3.9976
  418MOL0     H57629  10.706   1.392   4.732  0.1405 -0.2487 -2.7722
  418MOL0     H57630  10.773   1.520   4.639 -0.7959 -0.4290 -3.0027
  418MOL0     H57631  10.478   1.508   4.718 -3.1783 -1.9042 -3.2466
  418MOL0     H57632  10.550   1.656   4.659  1.5240  0.5002 -1.4264
  418MOL0     H57633  10.727   1.441   4.401 -0.0459 -0.7080  0.7932
  418MOL0     H57634  10.685   1.424   4.133  0.6115  0.4787  0.2945
  418MOL0     H57635  10.522   1.454   4.083 -0.3807 -0.7189  0.3212
  418MOL0     H57636  10.621   1.222   4.048  2.1961  1.8127  0.5637
  418MOL0     H57637  10.620   1.200   4.229 -2.2300  0.8330  0.8223
  418MOL0     H57638  10.422   1.077   4.107  1.2507  0.2202 -4.4603
  418MOL0     H57639  10.377   1.176   4.239  2.1719 -5.1846  0.1145
  418MOL0     H57640  10.237   1.206   4.027 -0.7165  0.4156  2.9583
  418MOL0     H57641  10.312   1.361   4.088  0.2653  0.6814 -2.1899
  418MOL0     H57642  10.552   1.333   3.737  2.3809  2.8749 -0.1747
  418MOL0     H57643  10.563   1.506   3.448 -0.2322  1.1302 -0.6319
  418MOL0     H57644  10.670   1.463   3.571  1.9471  2.1241 -0.1000
  418MOL0     H57645  10.627   1.627   3.569  0.4683 -0.3165 -0.4383
  418MOL0     H57646  10.312   2.009   3.495 -0.8620  2.4884 -1.2113
  418MOL0     H57647  10.209   2.179   3.392  1.1025 -0.6340  0.6920
  418MOL0     H57648   9.763   2.149   3.226  0.4315  0.5460 -1.1809
  418MOL0     H57649   9.813   2.176   3.397  0.6966  1.5240  0.5780
  418MOL0     H57650   9.830   2.377   3.184  1.7696  0.8045  0.0019
  418MOL0     H57651   9.696   2.367   3.313  0.4352  1.9907  0.1876
  418MOL0     H57652   9.963   2.370   3.428  2.7205  1.2703 -2.9323
  418MOL0     H57653   9.804   2.456   3.464 -0.0001  0.8376 -0.1045
  418MOL0     H57654   9.841   2.622   3.290  0.9498  1.2698 -1.4769
  418MOL0     H57655   9.983   2.532   3.235  1.6880 -3.9884  2.1394
  418MOL0     H57656   9.938   2.661   3.513  1.4770 -0.6704  0.6277
  418MOL0     H57657  10.089   2.587   3.456 -0.9464 -0.5767  2.6619
  418MOL0     H57658   9.980   2.858   3.386  2.1834  2.6921  0.5938
  418MOL0     H57659  10.089   2.765   3.273  0.8344  0.5098  1.3210
  418MOL0     H57660  10.263   2.851   3.384  0.4892  4.5012  0.3855
  418MOL0     H57661  10.215   2.758   3.531 -1.8214  0.5214  2.2572
  418MOL0     H57662  10.154   3.040   3.452 -0.8851 -0.2530  0.6645
  418MOL0     H57663  10.271   3.004   3.574  1.5634 -1.8768  0.4058
  418MOL0     H57664   9.850   1.932   3.328 -1.1170  5.3061 -0.0253
  418MOL0     H57665   9.983   1.741   3.440  2.1925 -1.3362 -1.3928
  418MOL0     H57666  10.150   1.612   3.738 -0.3529  0.5120  4.4648
  418MOL0     H57667  10.179   1.446   3.905 -2.5810 -0.9332 -3.3442
  418MOL0     H57668  10.732   2.298   4.885 -0.3320  2.1962  0.9172
  418MOL0     H57669  10.945   2.393   4.792  3.1005  0.9517  1.5135
  418MOL0     H57670  11.371   2.438   4.547  2.2739  0.8674 -0.5748
  418MOL0     H57671  11.597   2.508   4.521  3.0707 -1.0715 -0.2100
  418MOL0     H57672  11.941   2.596   4.730  0.7740 -0.0808  0.6846
  418MOL0     H57673  11.838   2.540   4.870  1.7850 -1.9141  1.5590
  418MOL0     H57674  12.054   2.401   4.724  0.5469  0.0542  0.9837
  418MOL0     H57675  11.913   2.312   4.790  1.9595 -0.1364 -0.6638
  418MOL0     H57676  12.094   2.497   4.969  1.4054 -0.9516  0.4327
  418MOL0     H57677  11.954   2.405   5.022  1.0388 -1.1066  0.4471
  418MOL0     H57678  12.065   2.190   4.951  2.4686 -0.5667 -1.4961
  418MOL0     H57679  12.154   2.282   5.072 -0.6061  1.1780 -0.4954
  418MOL0     H57680  12.423   2.215   4.756  0.0993  0.5284  0.1615
  418MOL0     H57681  11.678   2.390   4.931 -1.6366 -3.0344  0.7318
  418MOL0     H57682  11.400   2.360   5.060 -1.0856 -0.3017 -1.9585
  418MOL0     H57683  11.355   2.224   4.976 -1.1143  0.6374  0.2068
  418MOL0     H57684  11.526   2.250   5.036 -2.0747 -0.9759  3.2789
  419MOL0     O57685   1.798   8.942   9.589  0.1641 -0.0985 -1.1757
  419MOL0     C57686   1.842   8.955   9.701  0.1259  0.3159 -0.2809
  419MOL0     O57687   1.969   8.912   9.739  0.1986 -1.0170 -0.7608
  419MOL0     C57688   2.072   8.873   9.653 -1.1007  0.0275 -1.0054
  419MOL0     C57689   2.064   8.836   9.520 -0.3062 -1.0214 -0.5066
  419MOL0     C57690   2.181   8.790   9.445 -0.5482  0.1780 -0.7047
  419MOL0     C57691   2.311   8.806   9.503  0.3041  0.0282  0.1742
  419MOL0     O57692   2.428   8.788   9.437 -0.2444 -0.4886 -0.4070
  419MOL0     C57693   2.429   8.746   9.306 -0.6010 -0.7896  0.2973
  419MOL0     C57694   2.580   8.707   9.259  0.3037  0.2147 -0.3460
  419MOL0     C57695   2.625   8.583   9.338 -0.6786  0.4574  0.6375
  419MOL0     C57696   2.571   8.451   9.307  0.6401  1.0092  0.0425
  419MOL0     C57697   2.632   8.384   9.188  0.1247  1.0423 -0.3417
  419MOL0     C57698   2.535   8.274   9.138 -0.0357 -0.4499  0.1673
  419MOL0     C57699   2.513   8.159   9.230 -0.8625  0.2510  0.1626
  419MOL0     C57700   2.484   8.021   9.159 -0.0152 -0.3398 -0.6475
  419MOL0     N57701   2.599   7.969   9.092  0.2904 -0.2790  1.3222
  419MOL0     C57702   2.724   7.959   9.139  0.1059 -0.1380  0.0119
  419MOL0     C57703   2.795   7.912   9.034 -0.1134  0.0228 -0.9845
  419MOL0     C57704   2.939   7.890   9.044 -0.7239 -0.6790  1.1376
  419MOL0     C57705   2.999   7.961   8.916  0.5684 -0.0483 -1.2831
  419MOL0     C57706   3.149   7.976   8.925 -0.1240 -0.1505 -1.0264
  419MOL0     C57707   3.221   8.051   8.810 -0.5159  0.0609 -0.8877
  419MOL0     O57708   3.357   8.074   8.853  0.1220  0.1778 -0.4904
  419MOL0     C57709   3.430   8.168   8.794  0.4675 -0.2535  0.5793
  419MOL0     C57710   3.446   8.160   8.659  0.2968  0.3496 -0.2968
  419MOL0     C57711   3.534   8.269   8.603 -0.1012  0.5427 -0.3750
  419MOL0     C57712   3.552   8.247   8.456  0.1045 -0.2818  0.3222
  419MOL0     C57713   3.594   8.362   8.690  0.1889 -0.2611 -0.0965
  419MOL0     C57714   3.686   8.467   8.643  0.0149 -0.2292  0.5873
  419MOL0     O57715   3.764   8.421   8.548 -0.6855  0.3417  0.3380
  419MOL0     C57716   3.857   8.516   8.501 -0.9176  0.3747  0.3631
  419MOL0     C57717   3.826   8.594   8.381 -0.5712  0.0410  0.1026
  419MOL0     C57718   3.918   8.687   8.336  0.4922 -0.0404  0.8055
  419MOL0     C57719   4.043   8.703   8.395  0.0546  0.0248 -0.7019
  419MOL0     O57720   4.142   8.786   8.350  0.4805  0.2977 -0.0904
  419MOL0     C57721   4.226   8.728   8.246 -0.3611  0.0372 -0.4573
  419MOL0     C57722   4.296   8.839   8.179  1.1850  0.1148 -0.1057
  419MOL0     C57723   4.419   8.886   8.266 -0.3551  0.9227  0.2003
  419MOL0     C57724   4.481   9.004   8.187  0.6348  1.3849 -0.1055
  419MOL0     C57725   4.616   9.054   8.227 -0.0078  1.0087  0.8546
  419MOL0     C57726   4.612   9.130   8.353 -0.1893 -0.5704 -0.5719
  419MOL0     C57727   4.746   9.198   8.374 -0.7244  0.2999 -0.5384
  419MOL0     C57728   4.866   9.101   8.394 -0.3105 -0.9090 -0.3178
  419MOL0    Cl57729   5.009   9.190   8.437  0.1832 -0.3142  0.0631
  419MOL0     C57730   4.072   8.628   8.512  0.0868  1.1315 -0.2796
  419MOL0     C57731   3.984   8.527   8.558 -0.0784 -0.7383  0.5370
  419MOL0     O57732   3.691   8.576   8.700 -0.4307  0.3452  0.8989
  419MOL0     C57733   3.574   8.364   8.829  0.0624  0.7261 -0.4572
  419MOL0     C57734   3.483   8.272   8.872  0.7006  1.2039 -0.2358
  419MOL0     N57735   2.718   7.895   8.924 -0.3797 -0.0261 -0.3527
  419MOL0     N57736   2.603   7.943   8.954 -0.2163  0.2329 -0.1455
  419MOL0     C57737   2.318   8.847   9.635 -1.0606  0.0649 -0.2015
  419MOL0     C57738   2.204   8.869   9.706  1.0132 -0.0768 -0.7612
  419MOL0     C57739   1.760   8.988   9.817 -0.6124  0.6217 -0.4902
  419MOL0     C57740   1.821   9.074   9.914  0.6607  0.0454 -0.0646
  419MOL0     C57741   1.748   9.131  10.016  0.4565  0.3139 -0.0643
  419MOL0     C57742   1.614   9.095  10.036  1.3202 -0.3523 -0.3565
  419MOL0     O57743   1.543   9.132  10.146  0.5046  0.1212 -0.1610
  419MOL0     C57744   1.601   9.187  10.263 -0.0149 -1.2131 -0.3043
  419MOL0     C57745   1.531   9.151  10.391  0.2340 -0.4081 -0.0411
  419MOL0     C57746   1.534   9.003  10.440 -0.0096 -0.9340  0.5245
  419MOL0     C57747   1.488   8.906  10.328 -0.1940 -0.6289  0.3657
  419MOL0     C57748   1.451   8.773  10.378 -0.0382  0.7712 -0.1353
  419MOL0     C57749   1.426   8.660  10.426 -0.6656  0.2232 -0.0779
  419MOL0     C57750   1.556   9.005   9.949  0.5035 -0.1588  0.1249
  419MOL0     C57751   1.633   8.954   9.845  0.7716  0.1858 -0.0301
  419MOL0     C57752   1.562   8.850   9.749  0.4024 -0.2432  0.7509
  419MOL0     H57753   1.971   8.815   9.468 -2.9043  2.6116  2.1492
  419MOL0     H57754   2.168   8.737   9.351  0.7855  0.1394 -0.8900
  419MOL0     H57755   2.380   8.814   9.236 -1.8621 -1.7236  0.2372
  419MOL0     H57756   2.373   8.653   9.293 -1.7082 -0.1564  0.3835
  419MOL0     H57757   2.592   8.688   9.151  4.0135  0.4502 -0.0872
  419MOL0     H57758   2.653   8.787   9.271 -1.3130  1.4845  1.6389
  419MOL0     H57759   2.732   8.567   9.320 -1.0238 -2.0282  0.4637
  419MOL0     H57760   2.608   8.597   9.445 -1.9251 -0.7575  0.6164
  419MOL0     H57761   2.581   8.377   9.387 -1.0643  2.8633  2.0835
  419MOL0     H57762   2.464   8.453   9.287  0.4032 -1.7321  0.6752
  419MOL0     H57763   2.725   8.331   9.212 -0.4702 -1.0065 -2.2239
  419MOL0     H57764   2.661   8.454   9.109  2.6639  3.2796  2.2785
  419MOL0     H57765   2.439   8.323   9.117 -0.6188 -1.1792  1.0749
  419MOL0     H57766   2.584   8.242   9.046 -0.4955  0.0943 -0.2773
  419MOL0     H57767   2.428   8.174   9.297  0.1349 -0.6669  1.7214
  419MOL0     H57768   2.592   8.154   9.305 -1.2810  2.8845  0.8539
  419MOL0     H57769   2.450   7.946   9.230  0.0698  0.9978  0.8770
  419MOL0     H57770   2.399   8.038   9.093 -0.5275 -0.8642 -0.1281
  419MOL0     H57771   2.754   8.005   9.232  0.2886  1.3761 -0.7608
  419MOL0     H57772   2.952   7.782   9.043  0.3300 -0.5636  0.7476
  419MOL0     H57773   2.982   7.934   9.135 -0.5064 -0.1653  0.7969
  419MOL0     H57774   2.974   7.905   8.825  0.9417 -3.0144  0.3260
  419MOL0     H57775   2.954   8.060   8.906  3.1019  1.5210  1.3954
  419MOL0     H57776   3.159   8.036   9.016  0.3169 -1.8598  0.0899
  419MOL0     H57777   3.198   7.879   8.938  1.9544  1.0170  0.5291
  419MOL0     H57778   3.214   7.997   8.715 -3.5177 -0.3019 -0.5504
  419MOL0     H57779   3.184   8.154   8.814 -2.2633 -0.4532 -2.4338
  419MOL0     H57780   3.387   8.094   8.596 -1.8097 -0.8779  2.7432
  419MOL0     H57781   3.461   8.274   8.402  1.1247 -2.4774 -2.7696
  419MOL0     H57782   3.565   8.143   8.426 -1.1404  0.5944 -4.0283
  419MOL0     H57783   3.643   8.293   8.415 -1.9241  3.5567 -0.3688
  419MOL0     H57784   3.737   8.580   8.321  0.6185  1.2939 -2.1095
  419MOL0     H57785   3.888   8.758   8.260 -4.8696 -0.1158  2.4426
  419MOL0     H57786   4.302   8.675   8.303 -0.3563  0.5028 -0.0247
  419MOL0     H57787   4.170   8.660   8.180 -3.4546  1.9323 -0.0074
  419MOL0     H57788   4.336   8.795   8.088  0.5442  1.5416 -1.1088
  419MOL0     H57789   4.223   8.916   8.151  1.6809  0.4340 -0.5256
  419MOL0     H57790   4.500   8.812   8.272  0.5875  1.6478 -2.4393
  419MOL0     H57791   4.394   8.927   8.364  5.3402  2.3306  1.4182
  419MOL0     H57792   4.408   9.085   8.181  0.2224  0.9389 -1.5166
  419MOL0     H57793   4.484   8.983   8.079  0.1074 -3.3422  0.6084
  419MOL0     H57794   4.684   8.969   8.233 -0.1532  0.9132  1.1938
  419MOL0     H57795   4.646   9.117   8.143 -1.1942  2.4653  1.4585
  419MOL0     H57796   4.586   9.065   8.437  1.2598 -1.0501 -0.4653
  419MOL0     H57797   4.529   9.201   8.344 -2.2796 -2.7800  0.0099
  419MOL0     H57798   4.744   9.261   8.463 -1.8056 -1.2953  0.6406
  419MOL0     H57799   4.761   9.264   8.288  0.7649 -0.6989 -1.0724
  419MOL0     H57800   4.892   9.049   8.301  0.4492 -0.6698 -0.2466
  419MOL0     H57801   4.855   9.025   8.472  3.1204  0.7902  2.0686
  419MOL0     H57802   4.166   8.633   8.565 -1.4612 -0.2267  2.8750
  419MOL0     H57803   4.011   8.454   8.634  0.8252 -1.7191 -0.6799
  419MOL0     H57804   3.615   8.438   8.898  4.0877  3.2109 -4.8454
  419MOL0     H57805   3.456   8.273   8.977 -1.0984 -1.6052 -0.5666
  419MOL0     H57806   2.418   8.855   9.676 -0.3643 -3.4430 -0.8808
  419MOL0     H57807   2.206   8.885   9.813 -3.7947  0.2990 -0.5060
  419MOL0     H57808   1.929   9.087   9.913  0.4195  2.5525 -1.6236
  419MOL0     H57809   1.811   9.193  10.080  3.1391  1.6360 -3.6372
  419MOL0     H57810   1.698   9.149  10.297  0.3290 -0.6840 -0.6858
  419MOL0     H57811   1.628   9.290  10.240 -2.2243 -0.8870 -1.7253
  419MOL0     H57812   1.428   9.188  10.401 -0.2607 -1.9844  1.0162
  419MOL0     H57813   1.596   9.199  10.464  1.3863 -1.4415 -0.3447
  419MOL0     H57814   1.639   8.976  10.456 -0.4652 -1.7648  2.4050
  419MOL0     H57815   1.469   8.985  10.526 -0.1426  2.6982  1.3280
  419MOL0     H57816   1.559   8.893  10.245 -2.6499 -1.0360 -1.8294
  419MOL0     H57817   1.398   8.954  10.288  1.1025  3.4330  1.8430
  419MOL0     H57818   1.398   8.570  10.476  0.2182  1.7360  3.4986
  419MOL0     H57819   1.462   8.956   9.970  0.5646 -0.2498  0.1860
  419MOL0     H57820   1.632   8.773   9.714 -0.2549  1.0313 -4.0948
  419MOL0     H57821   1.470   8.807   9.788  1.0139 -1.3091  1.0683
  419MOL0     H57822   1.526   8.908   9.663 -0.3912  1.9272  2.4649
  420MOL0     O57823   5.107  10.343   5.419 -0.0159  0.8079 -0.6353
  420MOL0     C57824   5.039  10.286   5.334 -0.1631 -0.6204 -0.3936
  420MOL0     O57825   5.075  10.262   5.213  0.1590 -0.1380  0.3066
  420MOL0     C57826   5.205  10.268   5.156  0.1041  0.0080 -0.4385
  420MOL0     C57827   5.229  10.266   5.018 -0.1017  0.4599 -0.3664
  420MOL0     C57828   5.355  10.258   4.962 -0.2732  0.5444  0.0249
  420MOL0     C57829   5.465  10.265   5.049 -0.0562 -0.2200 -0.1070
  420MOL0     O57830   5.594  10.270   4.998  0.4288  0.2309  0.0376
  420MOL0     C57831   5.619  10.300   4.858 -0.3353  0.2017 -0.1066
  420MOL0     C57832   5.759  10.333   4.830  0.5476 -0.8108 -0.9207
  420MOL0     C57833   5.788  10.455   4.915 -1.3920 -0.3542 -0.2311
  420MOL0     C57834   5.923  10.512   4.873  0.2719  0.2164  1.2595
  420MOL0     C57835   5.987  10.591   4.991  0.1661 -0.1015  0.7999
  420MOL0     C57836   6.104  10.680   4.960 -0.1676  0.6873 -0.0866
  420MOL0     C57837   6.213  10.614   4.873  1.0853 -0.7688  0.1309
  420MOL0     C57838   6.172  10.600   4.723  0.4666  0.1970  0.9546
  420MOL0     N57839   6.279  10.647   4.632  0.3302 -0.8973 -0.8001
  420MOL0     C57840   6.389  10.580   4.586 -0.5259  0.7141  0.0135
  420MOL0     C57841   6.465  10.671   4.517 -0.2520 -0.3097  0.9086
  420MOL0     C57842   6.589  10.648   4.440 -0.7907 -0.2986  0.8393
  420MOL0     C57843   6.681  10.768   4.422 -0.4883 -0.1179  0.3103
  420MOL0     C57844   6.732  10.818   4.550  0.6932 -0.7632 -0.3304
  420MOL0     C57845   6.815  10.941   4.521  0.8327  0.0076  0.2778
  420MOL0     O57846   6.736  11.039   4.448  0.2224 -0.0439 -0.1936
  420MOL0     C57847   6.809  11.155   4.407  0.8269  0.6161 -0.5923
  420MOL0     C57848   6.853  11.257   4.496 -0.0931 -0.4099  0.4447
  420MOL0     C57849   6.916  11.372   4.451 -0.0898  0.3378  0.5465
  420MOL0     C57850   6.947  11.489   4.548 -0.1154  0.5855 -0.2344
  420MOL0     C57851   6.943  11.384   4.311 -0.4787 -0.1065  0.3256
  420MOL0     C57852   7.015  11.500   4.260 -0.3520 -0.3001  0.1008
  420MOL0     O57853   6.959  11.560   4.146 -0.7898 -0.1464 -0.7963
  420MOL0     C57854   7.004  11.677   4.088 -0.1219 -0.0536 -0.5910
  420MOL0     C57855   7.122  11.677   4.012  0.1668  0.2016  1.2536
  420MOL0     C57856   7.149  11.801   3.949 -0.6352 -0.1039  0.6098
  420MOL0     C57857   7.060  11.906   3.947  0.2895  0.1242 -0.0822
  420MOL0     O57858   7.092  12.023   3.882  0.5329 -0.7283 -0.1755
  420MOL0     C57859   7.151  12.016   3.751  0.5429 -0.5987  0.2136
  420MOL0     C57860   7.050  11.977   3.648  0.1795  0.0503  0.5600
  420MOL0     C57861   7.104  11.889   3.540 -0.2785 -0.4689 -0.3121
  420MOL0     C57862   6.993  11.857   3.428 -0.9833 -0.1924  0.6039
  420MOL0     C57863   7.045  11.771   3.310  0.2095 -0.8126  0.6145
  420MOL0     C57864   7.137  11.840   3.211  0.7396  0.0409  0.6724
  420MOL0     C57865   7.154  11.750   3.089  0.2322 -0.3121  0.8200
  420MOL0     C57866   7.219  11.838   2.987  0.9637  0.1482  0.5109
  420MOL0    Cl57867   7.135  11.981   2.929  0.0188  0.0597 -0.5287
  420MOL0     C57868   6.943  11.901   4.030 -1.2135 -0.2775  0.2167
  420MOL0     C57869   6.915  11.778   4.093 -0.1694  0.4059 -0.8552
  420MOL0     O57870   7.120  11.537   4.310 -0.0830 -0.1985 -0.3970
  420MOL0     C57871   6.900  11.282   4.223 -0.6429  0.1877 -0.7687
  420MOL0     C57872   6.835  11.171   4.267  0.4639  0.1988 -1.1297
  420MOL0     N57873   6.389  10.784   4.524 -1.0912  0.1100 -0.2864
  420MOL0     N57874   6.279  10.779   4.596  0.6241  0.9404  0.3936
  420MOL0     C57875   5.447  10.268   5.184 -0.0518 -0.3496 -0.3044
  420MOL0     C57876   5.318  10.260   5.238  0.0731 -0.0338 -0.0207
  420MOL0     C57877   4.896  10.241   5.372 -0.3414  0.0939  0.5516
  420MOL0     C57878   4.819  10.311   5.465  0.1421 -0.3056 -0.8736
  420MOL0     C57879   4.689  10.277   5.506  0.3882 -0.1974 -0.4620
  420MOL0     C57880   4.633  10.169   5.436  1.2091  0.5911  0.2314
  420MOL0     O57881   4.498  10.135   5.470 -0.6358  0.5725  0.4628
  420MOL0     C57882   4.485  10.017   5.556 -1.0847 -0.1286 -1.0935
  420MOL0     C57883   4.342  10.007   5.615  0.4827  0.2695  1.0675
  420MOL0     C57884   4.292  10.129   5.692  0.0609 -0.8391  0.2531
  420MOL0     C57885   4.354  10.162   5.832 -0.2447 -0.3702 -0.2135
  420MOL0     C57886   4.300  10.072   5.932 -0.9521  0.2731  0.3463
  420MOL0     C57887   4.242   9.988   5.999 -0.2991 -0.7343 -0.2664
  420MOL0     C57888   4.705  10.098   5.340 -0.1894  0.1519 -0.2872
  420MOL0     C57889   4.836  10.131   5.309 -0.4773  0.2198  0.4416
  420MOL0     C57890   4.910  10.037   5.214 -0.4763  0.2719  0.1242
  420MOL0     H57891   5.146  10.266   4.948 -2.4807 -4.5362  1.9453
  420MOL0     H57892   5.372  10.240   4.857 -0.1577 -0.9192  0.2689
  420MOL0     H57893   5.546  10.377   4.828 -1.7577 -1.3259 -0.7180
  420MOL0     H57894   5.604  10.202   4.813  5.1799 -0.9568 -0.0703
  420MOL0     H57895   5.824  10.252   4.864  0.3932 -0.3730  0.4629
  420MOL0     H57896   5.779  10.357   4.725  0.7878 -0.9284 -0.9032
  420MOL0     H57897   5.718  10.538   4.910  0.7196  1.5824  0.6693
  420MOL0     H57898   5.784  10.418   5.018 -1.5910 -1.9202 -0.7678
  420MOL0     H57899   5.991  10.430   4.845  0.3885  1.0370 -1.0865
  420MOL0     H57900   5.910  10.576   4.786 -2.6869 -0.5381  1.0560
  420MOL0     H57901   6.008  10.528   5.078 -1.5740 -1.5109  0.2463
  420MOL0     H57902   5.908  10.664   5.010 -0.3178 -0.0748 -1.1098
  420MOL0     H57903   6.074  10.770   4.907  2.0530  4.4452  4.3284
  420MOL0     H57904   6.135  10.721   5.056  1.0827 -1.8185  0.6847
  420MOL0     H57905   6.242  10.514   4.909  0.6575 -1.3835 -1.1765
  420MOL0     H57906   6.301  10.677   4.887 -1.1172  1.8622  4.3634
  420MOL0     H57907   6.154  10.494   4.703 -0.9934  0.9805 -2.5330
  420MOL0     H57908   6.083  10.658   4.698  1.5601  1.1337 -0.9709
  420MOL0     H57909   6.418  10.478   4.610 -1.2509  1.1657  3.2910
  420MOL0     H57910   6.547  10.609   4.346  0.3584  0.2337  0.0754
  420MOL0     H57911   6.643  10.565   4.488 -2.0540 -1.7915 -0.2050
  420MOL0     H57912   6.768  10.747   4.359 -0.7889 -0.9609  0.1505
  420MOL0     H57913   6.633  10.833   4.349  3.4609  1.4737 -1.1020
  420MOL0     H57914   6.640  10.845   4.603  0.9620 -1.0460  0.2843
  420MOL0     H57915   6.791  10.745   4.606 -0.3413 -1.9118 -0.6905
  420MOL0     H57916   6.845  10.975   4.621  3.2363 -1.2507  0.0644
  420MOL0     H57917   6.899  10.905   4.462 -0.5782 -0.1609 -1.7001
  420MOL0     H57918   6.840  11.240   4.603 -0.6834 -2.1915  0.1122
  420MOL0     H57919   6.911  11.570   4.484  2.8614  1.1560 -1.3262
  420MOL0     H57920   7.054  11.497   4.567  0.3332  0.5595 -2.5592
  420MOL0     H57921   6.886  11.483   4.639  1.1047 -1.3189  0.5215
  420MOL0     H57922   7.174  11.583   3.994  0.8000  0.6891  0.3960
  420MOL0     H57923   7.246  11.811   3.901  1.6205 -1.2868  4.4828
  420MOL0     H57924   7.188  12.114   3.720  2.9734 -1.9106 -1.3429
  420MOL0     H57925   7.241  11.955   3.743  0.1742 -1.3979  1.7311
  420MOL0     H57926   6.969  11.919   3.694  1.1777  0.5025  3.0429
  420MOL0     H57927   7.010  12.071   3.610 -0.4665  1.3321  4.0889
  420MOL0     H57928   7.142  11.796   3.584 -0.4019 -0.1546  0.4908
  420MOL0     H57929   7.189  11.937   3.491  0.5759 -0.1094  1.4265
  420MOL0     H57930   6.949  11.947   3.385  0.3097  0.4020  0.4701
  420MOL0     H57931   6.900  11.808   3.460 -2.1353  0.9060 -0.9277
  420MOL0     H57932   7.090  11.677   3.344 -0.6781 -1.3236  0.4109
  420MOL0     H57933   6.956  11.741   3.254  1.3961  1.1201 -2.5678
  420MOL0     H57934   7.226  11.880   3.262 -1.8834  4.0308  2.6520
  420MOL0     H57935   7.076  11.924   3.175 -2.8477 -1.9934  1.5516
  420MOL0     H57936   7.061  11.711   3.047  1.7680 -1.2302 -1.9975
  420MOL0     H57937   7.222  11.667   3.107  0.3644 -0.6363 -0.9554
  420MOL0     H57938   7.236  11.772   2.902 -0.4558 -2.8272  2.3606
  420MOL0     H57939   7.310  11.879   3.032  0.7793  1.0940  0.0446
  420MOL0     H57940   6.877  11.987   4.034  0.7776  1.4782 -1.8069
  420MOL0     H57941   6.831  11.769   4.161  0.0482  1.5965 -0.4030
  420MOL0     H57942   6.942  11.301   4.124  0.7857 -1.1977 -0.4810
  420MOL0     H57943   6.803  11.094   4.198 -3.9587  1.8637 -1.2318
  420MOL0     H57944   5.524  10.264   5.260 -2.9113 -1.9941  2.7570
  420MOL0     H57945   5.309  10.246   5.346  1.5181 -4.0029 -0.2369
  420MOL0     H57946   4.866  10.396   5.513 -0.5567 -1.2999  1.7660
  420MOL0     H57947   4.631  10.335   5.577 -0.6567  1.3677 -2.5029
  420MOL0     H57948   4.505   9.928   5.495 -0.0639 -0.6114 -0.0926
  420MOL0     H57949   4.545  10.030   5.646 -1.4550 -2.0014 -0.5214
  420MOL0     H57950   4.326   9.918   5.676  0.0401  0.6922  1.5857
  420MOL0     H57951   4.273   9.995   5.531  0.5256  1.3444  0.8548
  420MOL0     H57952   4.313  10.223   5.639  0.3569 -0.1677  1.5297
  420MOL0     H57953   4.183  10.126   5.700  0.1401 -1.0429  1.4486
  420MOL0     H57954   4.319  10.264   5.853 -1.3680 -0.9992  1.0955
  420MOL0     H57955   4.463  10.160   5.822 -0.3382  1.7496 -3.0481
  420MOL0     H57956   4.182   9.931   6.068  2.1282 -1.9898  0.9291
  420MOL0     H57957   4.662  10.014   5.286 -2.7323  0.7754  0.6592
  420MOL0     H57958   4.861   9.939   5.205  1.0460 -0.4559 -0.5365
  420MOL0     H57959   4.935  10.075   5.115 -1.7875  0.0605 -0.3149
  420MOL0     H57960   4.999   9.998   5.264 -0.2120  1.6347  0.7610
  421MOL0     O57961   8.488   8.268   6.265 -0.3116 -0.1329 -0.4839
  421MOL0     C57962   8.399   8.280   6.352 -0.4033  0.0073  0.2309
  421MOL0     O57963   8.420   8.273   6.485 -0.1409  0.4144 -0.2533
  421MOL0     C57964   8.542   8.253   6.545 -0.3391 -0.5597  1.0601
  421MOL0     C57965   8.670   8.294   6.499  0.9437 -0.1643  0.0932
  421MOL0     C57966   8.785   8.291   6.570  0.1498  0.1646  0.1150
  421MOL0     C57967   8.774   8.239   6.696 -0.1859  0.6552  0.1830
  421MOL0     O57968   8.899   8.234   6.764 -0.0377  0.3314  0.6989
  421MOL0     C57969   8.912   8.350   6.855 -1.3726  0.2168 -0.2209
  421MOL0     C57970   9.040   8.340   6.925  0.3618 -0.1126 -0.5109
  421MOL0     C57971   9.079   8.460   7.021 -0.3307  0.6549 -0.0618
  421MOL0     C57972   9.158   8.399   7.141  0.0737  0.8861  0.5462
  421MOL0     C57973   9.219   8.502   7.231 -0.0293 -0.6798  0.0739
  421MOL0     C57974   9.321   8.431   7.316  0.2557 -1.1218 -0.3642
  421MOL0     C57975   9.380   8.519   7.425 -0.6221  0.5001  0.7447
  421MOL0     C57976   9.455   8.434   7.531 -0.0654 -0.2223  0.1829
  421MOL0     N57977   9.603   8.445   7.515 -0.4139  0.4463 -0.3220
  421MOL0     C57978   9.680   8.337   7.474  0.8425  0.1347  0.5449
  421MOL0     C57979   9.804   8.376   7.510 -0.1340  0.0053  0.1665
  421MOL0     C57980   9.928   8.299   7.508 -0.3073  0.9125 -0.3814
  421MOL0     C57981   9.993   8.263   7.375  0.5680 -0.7406  0.0602
  421MOL0     C57982  10.073   8.361   7.302 -1.0518  0.1017  0.3014
  421MOL0     C57983  10.018   8.503   7.295 -0.2779 -0.5014  0.2846
  421MOL0     O57984   9.893   8.507   7.243  0.1417 -0.1004 -0.0520
  421MOL0     C57985   9.850   8.603   7.158  0.1496  0.2990 -0.2642
  421MOL0     C57986   9.714   8.595   7.110 -1.7211 -0.2139 -0.3749
  421MOL0     C57987   9.667   8.681   7.006  0.0395 -0.1035 -0.4486
  421MOL0     C57988   9.520   8.654   6.957 -0.0157  0.3789  0.3751
  421MOL0     C57989   9.743   8.794   6.966  0.2232 -0.6526 -0.3371
  421MOL0     C57990   9.704   8.898   6.873  0.2308 -1.3177  0.2489
  421MOL0     O57991   9.796   9.001   6.853  0.0667 -0.5164  0.2865
  421MOL0     C57992   9.786   9.094   6.746 -0.0644  0.3687 -0.4094
  421MOL0     C57993   9.769   9.048   6.613  0.4459 -0.8486  1.1495
  421MOL0     C57994   9.760   9.146   6.509 -0.1407 -0.6878  0.4544
  421MOL0     C57995   9.760   9.284   6.535  0.0609  0.1638 -0.3201
  421MOL0     O57996   9.763   9.388   6.439  0.7137 -0.0320 -0.3224
  421MOL0     C57997   9.763   9.347   6.304  0.7565 -0.2069  1.2625
  421MOL0     C57998   9.760   9.469   6.212  0.5826  0.0726 -0.6364
  421MOL0     C57999   9.891   9.555   6.213 -0.2421  0.1403  0.0580
  421MOL0     C58000  10.015   9.475   6.144 -0.3418 -0.3959 -0.5734
  421MOL0     C58001  10.162   9.538   6.182 -0.5395 -0.1725 -0.5768
  421MOL0     C58002  10.215   9.527   6.327 -0.4149 -0.2364  0.1462
  421MOL0     C58003  10.379   9.528   6.328 -0.7637  0.1782 -0.5650
  421MOL0     C58004  10.430   9.662   6.266  1.2284 -0.6888 -0.1956
  421MOL0    Cl58005  10.369   9.800   6.366 -0.4198 -0.3788  0.3426
  421MOL0     C58006   9.771   9.323   6.670  0.8548 -0.9184  0.3278
  421MOL0     C58007   9.791   9.232   6.777 -0.3621  0.7028 -1.5247
  421MOL0     O58008   9.587   8.890   6.824  0.0719  0.1579 -0.1760
  421MOL0     C58009   9.869   8.816   7.024 -0.1542  0.3879  0.3389
  421MOL0     C58010   9.920   8.719   7.119 -0.6490  0.1212  0.3119
  421MOL0     N58011   9.807   8.506   7.556 -0.3258 -0.8545 -0.9668
  421MOL0     N58012   9.686   8.545   7.551  0.2155 -0.0682  0.4409
  421MOL0     C58013   8.656   8.181   6.754  0.3447 -0.1402 -0.3874
  421MOL0     C58014   8.546   8.204   6.675 -0.1031  0.2833 -0.6117
  421MOL0     C58015   8.263   8.318   6.304 -0.0651 -0.3632  0.2720
  421MOL0     C58016   8.195   8.420   6.374  0.2162  0.3088  0.0985
  421MOL0     C58017   8.064   8.447   6.347  1.2632  0.1139 -0.1570
  421MOL0     C58018   7.992   8.374   6.241 -1.0483 -0.7255 -0.0173
  421MOL0     O58019   7.862   8.394   6.212 -0.1624  0.7466  0.4878
  421MOL0     C58020   7.839   8.483   6.101 -0.7684 -0.9586  0.4306
  421MOL0     C58021   7.909   8.628   6.125  0.6810  0.3890  0.1616
  421MOL0     C58022   7.880   8.732   6.020  0.2669  0.3845  0.1585
  421MOL0     C58023   7.934   8.691   5.887 -0.1365  0.0634 -0.1624
  421MOL0     C58024   7.844   8.616   5.806  0.6158 -0.0554  0.0990
  421MOL0     C58025   7.763   8.541   5.747  0.2634  0.2118 -0.2786
  421MOL0     C58026   8.060   8.281   6.169 -1.5100 -0.6900 -0.3226
  421MOL0     C58027   8.192   8.248   6.202 -0.1494 -0.6795  0.1135
  421MOL0     C58028   8.254   8.142   6.120 -0.1042  0.4718 -0.1710
  421MOL0     H58029   8.698   8.316   6.397  2.6602  2.3871  0.9891
  421MOL0     H58030   8.880   8.318   6.526  0.0085 -1.7222 -1.4980
  421MOL0     H58031   8.835   8.347   6.932 -1.6678 -3.4448 -0.4776
  421MOL0     H58032   8.917   8.450   6.810  1.6392  0.0899 -0.4167
  421MOL0     H58033   9.046   8.246   6.982  1.5049  0.5173  0.4505
  421MOL0     H58034   9.113   8.344   6.844 -1.0303 -0.1545 -1.7998
  421MOL0     H58035   9.136   8.542   6.978 -0.0081  0.0013 -0.9064
  421MOL0     H58036   8.981   8.496   7.053  0.2500  1.4745  0.8187
  421MOL0     H58037   9.106   8.327   7.204  0.4003 -0.4740 -0.6929
  421MOL0     H58038   9.244   8.338   7.110 -0.1576  0.2018  1.2164
  421MOL0     H58039   9.141   8.551   7.291  1.5421  1.9964  0.0971
  421MOL0     H58040   9.262   8.590   7.183 -3.9634  2.9042  2.3669
  421MOL0     H58041   9.263   8.355   7.369  0.8861 -0.2628  1.6763
  421MOL0     H58042   9.397   8.381   7.255  1.6461  1.0464 -0.5541
  421MOL0     H58043   9.293   8.558   7.478 -0.8714 -2.5779  2.9376
  421MOL0     H58044   9.436   8.605   7.389  0.8530 -1.5755 -2.3203
  421MOL0     H58045   9.444   8.478   7.630  0.1421 -0.6520  0.4029
  421MOL0     H58046   9.422   8.331   7.511 -2.6815  0.5109  0.4284
  421MOL0     H58047   9.655   8.246   7.421 -1.4340  0.0889  1.6248
  421MOL0     H58048   9.904   8.195   7.534  0.6461  0.2935 -1.8454
  421MOL0     H58049  10.005   8.333   7.577 -0.2538 -3.5540  2.1385
  421MOL0     H58050  10.064   8.179   7.382  1.0673 -0.4787 -1.5389
  421MOL0     H58051   9.915   8.226   7.308 -0.4532  3.3236 -1.2945
  421MOL0     H58052  10.172   8.363   7.349 -0.9794 -1.0039  0.2163
  421MOL0     H58053  10.096   8.319   7.203  1.7472 -1.4513  1.4967
  421MOL0     H58054  10.018   8.539   7.398 -0.1963  0.6904 -0.1233
  421MOL0     H58055  10.092   8.553   7.233 -0.0929 -1.8485 -0.6164
  421MOL0     H58056   9.649   8.514   7.143  0.7385 -2.1122  0.0709
  421MOL0     H58057   9.519   8.662   6.848 -1.2555 -0.1332  0.3276
  421MOL0     H58058   9.455   8.728   7.005 -1.6630 -0.7745  0.0150
  421MOL0     H58059   9.496   8.555   6.997 -1.1753  0.0170 -1.1187
  421MOL0     H58060   9.759   8.941   6.595  1.6778 -0.8493  0.3218
  421MOL0     H58061   9.736   9.108   6.410 -0.2973 -0.2316  0.3146
  421MOL0     H58062   9.845   9.278   6.283  0.4172  0.1415 -1.6268
  421MOL0     H58063   9.671   9.290   6.289 -0.7075  2.6900 -2.4611
  421MOL0     H58064   9.746   9.427   6.112  0.6466  0.3499 -0.7632
  421MOL0     H58065   9.671   9.530   6.231 -1.1924 -1.1855 -4.0680
  421MOL0     H58066   9.894   9.567   6.321 -1.4378  0.0638  0.1159
  421MOL0     H58067   9.879   9.651   6.161 -0.0502 -1.7720 -3.9645
  421MOL0     H58068  10.014   9.475   6.035 -2.5017  0.7937 -0.6122
  421MOL0     H58069  10.011   9.370   6.171 -3.0641 -0.4067 -0.8171
  421MOL0     H58070  10.235   9.486   6.120 -0.3266 -0.4906 -0.0661
  421MOL0     H58071  10.174   9.643   6.156 -2.6189 -0.0811 -1.3941
  421MOL0     H58072  10.179   9.430   6.363  2.9992 -0.8253  2.4322
  421MOL0     H58073  10.181   9.604   6.398  0.5576  0.7520 -0.4217
  421MOL0     H58074  10.413   9.436   6.280 -0.3757  0.1594 -0.2610
  421MOL0     H58075  10.418   9.523   6.430  2.4048 -2.9578 -1.7429
  421MOL0     H58076  10.395   9.665   6.162 -1.4982 -0.5454  0.6549
  421MOL0     H58077  10.538   9.672   6.252  0.9845 -0.1198 -1.9704
  421MOL0     H58078   9.764   9.428   6.696 -0.8521 -1.6109  3.1575
  421MOL0     H58079   9.810   9.270   6.877 -1.8638 -0.5977 -0.6967
  421MOL0     H58080   9.933   8.903   7.014 -3.7443  3.2871  0.3915
  421MOL0     H58081  10.016   8.741   7.164 -0.7177  3.1032 -0.7354
  421MOL0     H58082   8.656   8.141   6.855 -2.3249 -2.0613 -1.0468
  421MOL0     H58083   8.451   8.180   6.721 -0.3319 -3.8703 -2.8268
  421MOL0     H58084   8.252   8.472   6.449 -1.2124  0.3426  1.2017
  421MOL0     H58085   8.008   8.510   6.416  2.3776  1.9271 -0.8224
  421MOL0     H58086   7.894   8.442   6.015 -1.1768  0.9889 -0.8353
  421MOL0     H58087   7.731   8.485   6.085 -0.8211  0.9357  0.7397
  421MOL0     H58088   8.013   8.597   6.126 -0.3777 -4.0727 -2.1073
  421MOL0     H58089   7.875   8.671   6.220 -2.9748  3.5358 -2.2567
  421MOL0     H58090   7.772   8.750   6.014  0.1881  0.8935  2.3110
  421MOL0     H58091   7.928   8.825   6.051  4.7979 -1.6399 -0.0141
  421MOL0     H58092   8.021   8.627   5.907 -2.6455 -3.2338  1.2473
  421MOL0     H58093   7.952   8.785   5.835 -1.9957  1.6043  1.7835
  421MOL0     H58094   7.704   8.472   5.691  0.5125 -0.3419  0.1342
  421MOL0     H58095   7.997   8.232   6.096 -0.6117  0.6678 -2.1151
  421MOL0     H58096   8.306   8.192   6.037 -0.3433  0.1682 -0.5033
  421MOL0     H58097   8.315   8.077   6.183 -0.6911  0.3079  0.2309
  421MOL0     H58098   8.172   8.084   6.078 -1.4463  1.1452  1.4390
  422MOL0     O58099   0.388  11.534  11.057  0.0889 -0.2397 -0.4783
  422MOL0     C58100   0.438  11.567  10.951  0.0217 -0.0959 -1.5081
  422MOL0     O58101   0.369  11.614  10.845  0.3286  0.0382  0.0931
  422MOL0     C58102   0.239  11.650  10.856  1.2458 -0.3346  0.5257
  422MOL0     C58103   0.145  11.569  10.927 -0.1616  0.0471 -0.2264
  422MOL0     C58104   0.013  11.613  10.924  0.1623 -0.5425 -0.7964
  422MOL0     C58105  -0.029  11.738  10.873  2.1972  0.9226 -0.2592
  422MOL0     O58106  -0.166  11.792  10.889  0.2477 -0.1708  0.3742
  422MOL0     C58107  -0.249  11.743  10.998  0.9267  0.4173 -0.0400
  422MOL0     C58108  -0.386  11.806  10.968 -0.5268 -0.1840 -0.0617
  422MOL0     C58109  -0.388  11.958  10.976  0.0003  0.0315 -0.1160
  422MOL0     C58110  -0.531  12.007  10.988  0.6700  0.1220 -0.3740
  422MOL0     C58111  -0.563  12.144  11.051  0.4421  0.1784 -0.1460
  422MOL0     C58112  -0.465  12.255  11.015 -0.8079  0.3998  0.3213
  422MOL0     C58113  -0.487  12.391  11.081  1.0810 -0.0251  0.4562
  422MOL0     C58114  -0.473  12.382  11.240  0.9051 -0.4542 -0.0781
  422MOL0     N58115  -0.517  12.503  11.316  0.8336 -0.8154  0.6557
  422MOL0     C58116  -0.532  12.630  11.265 -0.4430  0.0482 -0.1564
  422MOL0     C58117  -0.599  12.696  11.363  0.1921 -0.4658 -0.1277
  422MOL0     C58118  -0.644  12.836  11.348  0.4475 -0.4784  0.5643
  422MOL0     C58119  -0.790  12.853  11.295  0.9795  0.6808  0.7732
  422MOL0     C58120  -0.816  13.005  11.316 -0.4562 -0.9613 -0.6915
  422MOL0     C58121  -0.945  13.058  11.258  0.3817 -0.1552  0.5839
  422MOL0     O58122  -0.946  13.199  11.235 -0.1858 -1.1107  0.1251
  422MOL0     C58123  -1.041  13.273  11.297 -0.3856 -0.3479  0.5032
  422MOL0     C58124  -1.060  13.404  11.253  0.5116 -0.3098  0.0058
  422MOL0     C58125  -1.146  13.498  11.313 -0.4681 -0.2415  0.0724
  422MOL0     C58126  -1.126  13.641  11.252  0.6359 -0.5585  0.4079
  422MOL0     C58127  -1.220  13.453  11.428 -0.7364 -0.4207 -0.0616
  422MOL0     C58128  -1.302  13.541  11.507 -0.5360 -0.4635  0.1460
  422MOL0     O58129  -1.306  13.676  11.468  0.8757 -0.1542  0.2547
  422MOL0     C58130  -1.374  13.766  11.551  0.5886  0.2491  1.4477
  422MOL0     C58131  -1.354  13.783  11.686 -0.3411 -0.2402 -0.3793
  422MOL0     C58132  -1.425  13.885  11.749  0.3427 -0.3970 -0.3327
  422MOL0     C58133  -1.508  13.976  11.682  0.1869 -0.1729  0.9768
  422MOL0     O58134  -1.555  14.090  11.738  0.1734  0.2955 -0.0492
  422MOL0     C58135  -1.662  14.155  11.664 -0.0033 -0.2081 -0.3810
  422MOL0     C58136  -1.797  14.073  11.672 -0.0276  1.5176  0.2540
  422MOL0     C58137  -1.925  14.153  11.701 -0.8314 -0.1811 -0.1970
  422MOL0     C58138  -1.919  14.197  11.853  0.5576 -0.0357  1.0877
  422MOL0     C58139  -2.044  14.271  11.893  0.9179 -0.1403  0.2278
  422MOL0     C58140  -2.037  14.341  12.036 -0.1306  0.2910 -0.9289
  422MOL0     C58141  -1.998  14.488  12.026  0.4376 -0.6001 -0.0258
  422MOL0     C58142  -2.052  14.568  12.154 -0.4563 -0.7080 -0.3293
  422MOL0    Cl58143  -2.074  14.741  12.124  0.1157 -0.1146  0.2200
  422MOL0     C58144  -1.521  13.946  11.537  0.2211 -0.9872 -0.6658
  422MOL0     C58145  -1.453  13.841  11.479  0.8133  0.9113  0.2277
  422MOL0     O58146  -1.355  13.493  11.605 -0.2896  0.2258  0.3935
  422MOL0     C58147  -1.201  13.320  11.470  0.0673  0.1627  1.1950
  422MOL0     C58148  -1.117  13.227  11.404  0.4527 -0.6260 -0.0711
  422MOL0     N58149  -0.615  12.617  11.471  0.0320  0.2038 -0.5774
  422MOL0     N58150  -0.565  12.501  11.441 -0.2147 -0.2352 -0.1071
  422MOL0     C58151   0.065  11.815  10.812 -0.0029 -0.1472 -0.3948
  422MOL0     C58152   0.202  11.781  10.818 -0.3813  0.6865  0.3045
  422MOL0     C58153   0.584  11.574  10.947 -0.9985  0.7953 -0.0001
  422MOL0     C58154   0.646  11.538  10.833 -0.7211  0.2690  0.8976
  422MOL0     C58155   0.783  11.569  10.815 -1.1212 -0.0701 -0.4605
  422MOL0     C58156   0.863  11.626  10.916  0.4745  0.6538 -0.1792
  422MOL0     O58157   0.997  11.644  10.884 -0.4031  0.1924  0.4103
  422MOL0     C58158   1.080  11.698  10.991 -0.4668  0.2117  0.4855
  422MOL0     C58159   1.225  11.691  10.950 -1.2422 -0.5455  0.1223
  422MOL0     C58160   1.271  11.548  10.911 -0.0081 -0.3396 -0.9309
  422MOL0     C58161   1.268  11.446  11.037 -0.6433 -0.4612  0.2189
  422MOL0     C58162   1.314  11.317  10.999 -0.5136 -0.2059 -0.7547
  422MOL0     C58163   1.340  11.205  10.957 -0.7873 -0.2291 -0.3253
  422MOL0     C58164   0.809  11.637  11.043  0.6923 -0.0584  0.2291
  422MOL0     C58165   0.665  11.628  11.059 -0.1397  0.2964 -0.0704
  422MOL0     C58166   0.591  11.692  11.180 -0.1646 -0.6009  0.2049
  422MOL0     H58167   0.161  11.475  10.978  0.5062  1.3200  2.0432
  422MOL0     H58168  -0.057  11.551  10.980  1.5108  0.2032  1.8309
  422MOL0     H58169  -0.213  11.762  11.099 -0.4898 -3.6986  1.4624
  422MOL0     H58170  -0.263  11.635  10.988  0.2064  0.5325 -0.3168
  422MOL0     H58171  -0.424  11.764  10.875 -1.4642 -3.4214  1.6242
  422MOL0     H58172  -0.450  11.767  11.048 -0.8152  4.7909  2.5196
  422MOL0     H58173  -0.316  12.002  11.046  0.3429  0.6314 -0.8305
  422MOL0     H58174  -0.340  11.994  10.885 -0.8913 -1.7602 -1.3517
  422MOL0     H58175  -0.564  12.029  10.886  0.5861 -0.4866 -0.4866
  422MOL0     H58176  -0.601  11.935  11.033  2.2532 -0.3724  1.4267
  422MOL0     H58177  -0.576  12.130  11.159 -0.8204  1.6551 -0.0761
  422MOL0     H58178  -0.659  12.175  11.009  0.9365 -1.8989 -3.0733
  422MOL0     H58179  -0.365  12.218  11.038 -0.9207  0.3617  0.7575
  422MOL0     H58180  -0.463  12.256  10.906 -2.6005 -2.7322  0.1486
  422MOL0     H58181  -0.585  12.433  11.057  1.7665 -0.2968 -3.4693
  422MOL0     H58182  -0.412  12.460  11.041  0.4563  0.8230  0.7018
  422MOL0     H58183  -0.538  12.305  11.285  0.0342 -0.0907 -0.6833
  422MOL0     H58184  -0.370  12.353  11.259  1.7223  2.0919 -0.2747
  422MOL0     H58185  -0.514  12.656  11.161 -0.3735  0.3047 -0.0784
  422MOL0     H58186  -0.581  12.888  11.275 -1.0705 -0.9753 -1.1912
  422MOL0     H58187  -0.629  12.879  11.447 -0.2158 -0.3944  0.6352
  422MOL0     H58188  -0.790  12.818  11.191  0.2631  2.0100  0.3123
  422MOL0     H58189  -0.863  12.798  11.355  1.3757 -1.3772 -0.5250
  422MOL0     H58190  -0.816  13.035  11.422 -1.8995  2.6102 -1.5418
  422MOL0     H58191  -0.732  13.064  11.278 -2.9021  3.4846  0.0993
  422MOL0     H58192  -0.961  13.017  11.158 -2.7294 -0.2381  1.0216
  422MOL0     H58193  -1.026  13.017  11.319  1.1537  2.2161  3.3734
  422MOL0     H58194  -0.992  13.435  11.175 -0.4831  2.0220 -0.0053
  422MOL0     H58195  -1.091  13.641  11.148 -0.2202  2.1393  0.0304
  422MOL0     H58196  -1.057  13.699  11.314 -1.8781  2.3026  0.8059
  422MOL0     H58197  -1.216  13.702  11.240  1.1170  0.0426 -0.2502
  422MOL0     H58198  -1.278  13.721  11.731  2.0214  1.0917 -2.2715
  422MOL0     H58199  -1.412  13.906  11.855  1.9136  1.9506 -0.9122
  422MOL0     H58200  -1.666  14.253  11.713  2.2975  0.7533 -1.9759
  422MOL0     H58201  -1.643  14.173  11.558  0.5420 -0.7126 -0.3773
  422MOL0     H58202  -1.806  14.012  11.581  5.1351  0.9377 -0.2074
  422MOL0     H58203  -1.792  14.005  11.757  0.1197  0.8459 -0.2825
  422MOL0     H58204  -2.014  14.096  11.673 -0.3534 -0.9382 -0.2051
  422MOL0     H58205  -1.917  14.246  11.645 -1.4189 -0.0378 -0.0445
  422MOL0     H58206  -1.846  14.272  11.884 -1.4551  0.7564  4.3795
  422MOL0     H58207  -1.919  14.112  11.920 -2.4918 -1.0312  0.0192
  422MOL0     H58208  -2.061  14.350  11.819  1.7164 -1.4111 -1.3677
  422MOL0     H58209  -2.139  14.217  11.895  0.8074 -0.2436 -3.1936
  422MOL0     H58210  -1.972  14.288  12.106 -1.1438 -0.9322 -0.8596
  422MOL0     H58211  -2.142  14.336  12.068 -0.6173  1.8263 -2.1454
  422MOL0     H58212  -2.041  14.537  11.937 -1.0062  1.0436  1.4975
  422MOL0     H58213  -1.889  14.499  12.022  0.4175 -0.5900 -0.7284
  422MOL0     H58214  -1.980  14.554  12.235  0.6231  1.1237 -0.9181
  422MOL0     H58215  -2.146  14.523  12.189 -1.6276  0.4307 -1.8427
  422MOL0     H58216  -1.577  14.011  11.470 -1.0447  0.6499  1.8446
  422MOL0     H58217  -1.477  13.819  11.376  2.2855 -0.3021  0.1108
  422MOL0     H58218  -1.246  13.286  11.562 -0.4472  1.4955  1.4647
  422MOL0     H58219  -1.120  13.129  11.452 -3.9368 -0.2775  0.7285
  422MOL0     H58220   0.033  11.916  10.792  0.0942  0.3161  1.5284
  422MOL0     H58221   0.276  11.841  10.767 -1.6836 -2.2862 -6.0460
  422MOL0     H58222   0.606  11.495  10.741  3.0304  0.5208 -1.0541
  422MOL0     H58223   0.834  11.554  10.720 -2.1420  0.1774 -1.0577
  422MOL0     H58224   1.056  11.797  11.031 -0.9383 -1.2324  4.1245
  422MOL0     H58225   1.063  11.624  11.069  0.8690 -0.5127  0.1204
  422MOL0     H58226   1.286  11.732  11.031  1.6568  1.5194 -2.8217
  422MOL0     H58227   1.232  11.763  10.868 -3.2650  3.5406  3.1895
  422MOL0     H58228   1.218  11.522  10.819 -1.2618  0.4535 -0.4645
  422MOL0     H58229   1.376  11.556  10.882  0.8095  0.8295  1.9336
  422MOL0     H58230   1.162  11.430  11.060 -0.6290  0.4517  0.9659
  422MOL0     H58231   1.318  11.478  11.129  2.3766 -0.2433 -1.3793
  422MOL0     H58232   1.371  11.109  10.919  0.7149 -0.8254  2.1434
  422MOL0     H58233   0.859  11.646  11.138 -1.7083 -3.0861  1.9747
  422MOL0     H58234   0.652  11.770  11.227 -1.3077  1.5100 -1.6149
  422MOL0     H58235   0.513  11.757  11.140 -0.6472 -1.3831 -0.1436
  422MOL0     H58236   0.557  11.616  11.252 -1.6034 -3.9445 -3.6227
  423MOL0     O58237   6.944   2.251   7.125  0.1044 -0.3169 -0.6707
  423MOL0     C58238   6.968   2.271   7.248 -0.3041  0.5414  1.1615
  423MOL0     O58239   7.059   2.197   7.332 -0.4092  0.0296  0.4175
  423MOL0     C58240   7.147   2.115   7.275  0.2943 -0.8655  0.2300
  423MOL0     C58241   7.236   2.154   7.175  0.0966  0.2391 -0.2268
  423MOL0     C58242   7.320   2.071   7.105 -0.8847 -0.7688  0.3809
  423MOL0     C58243   7.342   1.938   7.150  0.7467 -0.1743  0.2107
  423MOL0     O58244   7.436   1.870   7.080  0.7806  0.5841  0.6187
  423MOL0     C58245   7.463   1.728   7.077  0.1437 -0.2830  0.0537
  423MOL0     C58246   7.598   1.711   7.009 -0.4388 -0.1459 -0.4559
  423MOL0     C58247   7.719   1.759   7.106  0.3785 -0.2908  0.3834
  423MOL0     C58248   7.755   1.666   7.221 -0.3446  0.2037 -0.1924
  423MOL0     C58249   7.822   1.739   7.334 -0.3323  0.1125  0.4277
  423MOL0     C58250   7.864   1.633   7.437  0.0657 -0.0201  0.0950
  423MOL0     C58251   7.888   1.690   7.573 -0.2611  0.5700  0.1483
  423MOL0     C58252   7.929   1.582   7.675 -0.5142  0.1328  0.3875
  423MOL0     N58253   8.002   1.630   7.798 -0.5396 -0.4763  0.3200
  423MOL0     C58254   8.123   1.704   7.793  0.6965  0.4174 -0.5315
  423MOL0     C58255   8.141   1.738   7.920  0.5344 -0.4126  0.1212
  423MOL0     C58256   8.259   1.817   7.971  0.1226  0.9353 -1.0214
  423MOL0     C58257   8.291   1.940   7.900 -0.3387  0.6525  0.6066
  423MOL0     C58258   8.438   1.982   7.900  0.3246  0.0973 -0.2958
  423MOL0     C58259   8.529   1.885   7.819  0.6640  0.0770  0.1249
  423MOL0     O58260   8.487   1.839   7.685  0.0510  0.0945 -0.6649
  423MOL0     C58261   8.574   1.768   7.609 -0.7295 -0.5062  1.0937
  423MOL0     C58262   8.592   1.644   7.652  0.6847 -0.5144  0.1737
  423MOL0     C58263   8.699   1.560   7.595  0.8640 -0.3368  0.1092
  423MOL0     C58264   8.738   1.426   7.652 -0.9743 -0.1201 -0.1570
  423MOL0     C58265   8.790   1.616   7.499 -0.0336 -1.2848  0.5471
  423MOL0     C58266   8.904   1.546   7.421 -0.4944 -0.5537 -1.2240
  423MOL0     O58267   8.954   1.440   7.481  0.3134  1.3626  0.0958
  423MOL0     C58268   9.069   1.374   7.430 -0.1010 -0.2926  0.2720
  423MOL0     C58269   9.180   1.355   7.510  0.3659  0.2599 -0.3481
  423MOL0     C58270   9.304   1.321   7.462  1.1102 -0.7898  0.0806
  423MOL0     C58271   9.316   1.264   7.329 -1.0156 -0.3527  0.3732
  423MOL0     O58272   9.436   1.228   7.261 -0.1470  0.2626  0.3373
  423MOL0     C58273   9.552   1.191   7.337 -0.2614 -0.1607 -0.2259
  423MOL0     C58274   9.655   1.307   7.353  0.4519 -0.2952 -1.7161
  423MOL0     C58275   9.775   1.281   7.455 -0.0751 -0.1093 -0.0613
  423MOL0     C58276   9.849   1.156   7.394  0.1674 -0.2032  0.4001
  423MOL0     C58277   9.940   1.098   7.508  0.1355  0.6775 -0.1500
  423MOL0     C58278   9.865   1.005   7.605 -0.4733  0.8316  0.1650
  423MOL0     C58279   9.959   0.883   7.660  0.0087 -0.0194  0.1567
  423MOL0     C58280   9.879   0.791   7.758  0.4044 -0.0111 -0.7261
  423MOL0    Cl58281   9.980   0.657   7.816 -0.0739  0.0145 -0.3013
  423MOL0     C58282   9.195   1.260   7.250 -0.6064  0.4147 -0.1994
  423MOL0     C58283   9.074   1.314   7.303 -0.1835 -1.2858  0.1454
  423MOL0     O58284   8.942   1.590   7.311  0.0555  0.3063 -0.0285
  423MOL0     C58285   8.769   1.755   7.465  0.7513  0.5573 -1.1363
  423MOL0     C58286   8.667   1.831   7.518  0.6744  0.4380 -0.6946
  423MOL0     N58287   8.036   1.711   8.000 -0.0318 -0.9293 -0.6234
  423MOL0     N58288   7.952   1.652   7.919  0.0056 -0.6132 -0.5490
  423MOL0     C58289   7.261   1.890   7.251 -0.1339  0.1126 -0.4181
  423MOL0     C58290   7.164   1.978   7.316 -0.3558 -0.0986  0.0799
  423MOL0     C58291   6.919   2.395   7.306  0.7331 -0.7298 -0.7776
  423MOL0     C58292   7.004   2.455   7.402  0.1356  0.6241 -0.2756
  423MOL0     C58293   6.943   2.567   7.466  0.2147 -0.1658 -0.2380
  423MOL0     C58294   6.833   2.632   7.426 -1.0074 -1.3467 -0.7800
  423MOL0     O58295   6.777   2.741   7.493  0.2751  0.3443  0.0729
  423MOL0     C58296   6.832   2.797   7.618  0.1556  0.7013 -0.5703
  423MOL0     C58297   6.805   2.713   7.741  0.5748  0.5864 -0.4807
  423MOL0     C58298   6.647   2.726   7.765 -0.1520  0.5403  0.0690
  423MOL0     C58299   6.604   2.620   7.868  0.3480  0.2656 -0.3072
  423MOL0     C58300   6.460   2.618   7.895 -0.1971 -0.7340  1.0287
  423MOL0     C58301   6.341   2.612   7.904 -0.1027 -0.2372  0.0322
  423MOL0     C58302   6.765   2.585   7.313 -0.4566  0.3519 -0.5223
  423MOL0     C58303   6.799   2.456   7.262 -0.1970 -0.9173  0.2229
  423MOL0     C58304   6.700   2.388   7.166  0.1005 -0.6560  0.1355
  423MOL0     H58305   7.247   2.259   7.147  3.8118 -0.6228 -2.8687
  423MOL0     H58306   7.381   2.113   7.026 -1.8795  0.4051  0.2038
  423MOL0     H58307   7.396   1.683   7.003  2.7484  0.1978 -2.7936
  423MOL0     H58308   7.469   1.680   7.175  1.3870 -1.9985 -0.8162
  423MOL0     H58309   7.615   1.606   6.985 -3.3438 -0.1065 -3.2549
  423MOL0     H58310   7.587   1.769   6.917 -2.8855  0.6529  0.2710
  423MOL0     H58311   7.800   1.771   7.034 -2.5781  0.7931 -3.0707
  423MOL0     H58312   7.694   1.860   7.138 -0.8938  0.3186 -2.2033
  423MOL0     H58313   7.658   1.624   7.250 -1.8998  1.3361 -3.2729
  423MOL0     H58314   7.819   1.592   7.173  2.9125  1.1080  2.4216
  423MOL0     H58315   7.741   1.797   7.381 -1.8203 -0.4185 -1.3393
  423MOL0     H58316   7.906   1.797   7.294 -0.5097 -1.5083 -2.6196
  423MOL0     H58317   7.784   1.558   7.446  0.8796 -0.7707  1.3156
  423MOL0     H58318   7.946   1.580   7.387 -0.3021 -0.9148  0.4049
  423MOL0     H58319   7.796   1.733   7.613  0.4792  1.7062  0.6747
  423MOL0     H58320   7.970   1.763   7.572  0.3803 -0.1381 -0.4389
  423MOL0     H58321   7.842   1.525   7.711 -1.9343 -0.7163 -3.7898
  423MOL0     H58322   7.999   1.517   7.623  0.4025 -1.3245  3.2539
  423MOL0     H58323   8.188   1.724   7.708 -0.3656  0.6638 -1.3192
  423MOL0     H58324   8.343   1.748   7.958  0.9882  2.3324 -3.3082
  423MOL0     H58325   8.250   1.834   8.079 -1.0431 -0.2739 -0.8959
  423MOL0     H58326   8.260   1.921   7.797  0.1801  0.3741  0.4935
  423MOL0     H58327   8.229   2.026   7.928 -2.1832 -0.6993  0.8576
  423MOL0     H58328   8.448   2.078   7.849 -1.1785 -0.3676 -1.5491
  423MOL0     H58329   8.491   1.993   7.995  0.9317  2.4944 -0.8512
  423MOL0     H58330   8.623   1.938   7.800 -0.2257  1.4189 -0.6667
  423MOL0     H58331   8.541   1.804   7.892 -4.9407 -1.0210  0.3011
  423MOL0     H58332   8.528   1.602   7.730 -1.9413  0.6901 -1.1909
  423MOL0     H58333   8.829   1.439   7.710  1.0986 -0.2702 -3.1920
  423MOL0     H58334   8.759   1.357   7.570  0.1392 -3.0233  2.3473
  423MOL0     H58335   8.662   1.384   7.720 -1.2766  1.2274  0.3794
  423MOL0     H58336   9.190   1.382   7.614  2.3115 -0.8740 -0.1773
  423MOL0     H58337   9.386   1.316   7.533  0.7405 -0.3557  0.5511
  423MOL0     H58338   9.521   1.155   7.436  0.2419  3.5865  1.4778
  423MOL0     H58339   9.594   1.108   7.281  0.2022 -0.4729  0.5669
  423MOL0     H58340   9.690   1.331   7.253 -0.0796 -1.2393 -2.1357
  423MOL0     H58341   9.587   1.386   7.390 -2.4277 -2.3194 -2.3306
  423MOL0     H58342   9.735   1.277   7.557 -0.4455 -0.0235 -0.2022
  423MOL0     H58343   9.841   1.367   7.455 -2.9366  2.2438 -0.1645
  423MOL0     H58344   9.910   1.195   7.312  0.2007 -1.8887 -0.4299
  423MOL0     H58345   9.787   1.073   7.359 -0.0502  0.1568 -0.0906
  423MOL0     H58346  10.027   1.049   7.465 -0.5449  0.7509 -1.6695
  423MOL0     H58347   9.979   1.174   7.576  0.1482  2.2183 -1.8216
  423MOL0     H58348   9.787   0.957   7.544  1.0247 -1.0793 -0.3701
  423MOL0     H58349   9.819   1.060   7.687 -1.8215  2.5422 -1.6296
  423MOL0     H58350  10.047   0.921   7.714  0.3519 -1.9883  1.0741
  423MOL0     H58351  10.009   0.836   7.575 -1.0748  2.6002 -2.0647
  423MOL0     H58352   9.787   0.755   7.711 -1.3791 -0.2518  2.6253
  423MOL0     H58353   9.856   0.857   7.842  0.2292 -0.9768  0.0054
  423MOL0     H58354   9.208   1.234   7.146 -1.4245 -2.6644  0.3776
  423MOL0     H58355   8.992   1.321   7.233 -0.1152  1.9304  0.2296
  423MOL0     H58356   8.850   1.792   7.403  0.9725 -2.3241 -2.7411
  423MOL0     H58357   8.669   1.939   7.518  4.6632  0.4986 -0.7673
  423MOL0     H58358   7.257   1.786   7.282 -1.0810 -0.0121 -0.9327
  423MOL0     H58359   7.103   1.941   7.398 -0.4574  1.1715  0.6166
  423MOL0     H58360   7.103   2.420   7.431 -0.5503 -0.4539  0.8734
  423MOL0     H58361   6.998   2.616   7.546 -0.0339 -1.3892  0.7162
  423MOL0     H58362   6.939   2.820   7.614  0.7257 -1.7610 -1.8015
  423MOL0     H58363   6.794   2.897   7.638 -0.1692  0.4030  0.3532
  423MOL0     H58364   6.857   2.752   7.829  1.1688  0.4561 -0.7682
  423MOL0     H58365   6.833   2.608   7.726 -0.4873  0.4745 -1.9068
  423MOL0     H58366   6.625   2.826   7.805  1.1902  0.1855  1.8197
  423MOL0     H58367   6.590   2.715   7.672  3.2809  0.0973 -2.1882
  423MOL0     H58368   6.646   2.647   7.965 -2.2187  0.9631  0.6662
  423MOL0     H58369   6.653   2.523   7.852  0.6002  0.2512  0.5051
  423MOL0     H58370   6.235   2.605   7.916 -0.0969 -2.4080 -0.7214
  423MOL0     H58371   6.680   2.639   7.271  2.0774  2.7305 -3.0198
  423MOL0     H58372   6.682   2.283   7.190 -1.0619 -1.6876 -4.3201
  423MOL0     H58373   6.601   2.432   7.185  1.7071  2.0047  3.3098
  423MOL0     H58374   6.720   2.410   7.060 -0.4975 -0.2521  0.1008
  424MOL0     O58375   9.995   4.558   4.916  0.2736 -0.5488 -0.0372
  424MOL0     C58376   9.876   4.574   4.937 -0.6308 -0.0616  1.4520
  424MOL0     O58377   9.785   4.614   4.841  0.0255  0.0826 -0.1956
  424MOL0     C58378   9.822   4.647   4.716  0.9777  0.3446  0.7204
  424MOL0     C58379   9.803   4.778   4.667  0.6222  1.1620 -0.4949
  424MOL0     C58380   9.835   4.813   4.540 -0.6866  1.0762 -1.2678
  424MOL0     C58381   9.885   4.726   4.449 -0.0221  0.6112  0.4736
  424MOL0     O58382   9.944   4.766   4.328 -0.4050 -0.8553 -0.5940
  424MOL0     C58383   9.996   4.905   4.337 -0.9343 -0.2158 -0.1618
  424MOL0     C58384  10.108   4.905   4.229  0.1839  0.1703 -0.5977
  424MOL0     C58385  10.195   5.033   4.221  0.3512  0.3514  0.0365
  424MOL0     C58386  10.138   5.150   4.135 -0.0532 -0.4907  0.3082
  424MOL0     C58387  10.257   5.236   4.076  0.3466 -0.2982 -0.5861
  424MOL0     C58388  10.195   5.362   4.016 -0.4399  1.2907  0.1988
  424MOL0     C58389  10.215   5.361   3.868 -0.0802 -0.3769  0.6440
  424MOL0     C58390  10.124   5.473   3.797  0.2269 -0.2748 -0.4053
  424MOL0     N58391  10.139   5.604   3.867  0.8757 -1.0732 -0.6739
  424MOL0     C58392  10.255   5.680   3.879 -0.5413 -0.8485  0.6432
  424MOL0     C58393  10.231   5.768   3.978  0.1437 -0.3990  0.1296
  424MOL0     C58394  10.337   5.865   4.027 -0.9215 -0.3544 -0.7022
  424MOL0     C58395  10.411   5.956   3.921 -0.3145 -0.7476  1.0247
  424MOL0     C58396  10.523   6.055   3.973  0.9207  0.7873  0.0098
  424MOL0     C58397  10.543   6.175   3.876  0.0946  0.6263 -0.2146
  424MOL0     O58398  10.677   6.191   3.843 -0.5291  0.0753  0.0602
  424MOL0     C58399  10.723   6.300   3.779 -0.7694 -0.1956 -0.0907
  424MOL0     C58400  10.644   6.418   3.758  0.0443  0.4442 -0.1838
  424MOL0     C58401  10.692   6.525   3.689  0.2143 -0.5880  1.1442
  424MOL0     C58402  10.585   6.629   3.667  0.4646 -0.3353 -1.0036
  424MOL0     C58403  10.812   6.523   3.623  0.4762  0.0859 -0.4217
  424MOL0     C58404  10.866   6.638   3.549  0.0200  0.3303  0.6454
  424MOL0     O58405  10.981   6.603   3.491  0.3988  0.8106 -0.0204
  424MOL0     C58406  11.044   6.692   3.405 -0.2559  0.1929 -0.1303
  424MOL0     C58407  10.978   6.780   3.321  0.7697 -0.5179  0.0392
  424MOL0     C58408  11.052   6.869   3.239 -0.1520 -0.5668 -0.4924
  424MOL0     C58409  11.196   6.862   3.230 -0.3877 -0.3307 -0.1519
  424MOL0     O58410  11.267   6.942   3.147  0.7212 -0.3630 -0.4629
  424MOL0     C58411  11.220   7.069   3.132 -0.7575  0.2295  0.1278
  424MOL0     C58412  11.213   7.150   3.269  0.8284  0.7660  0.2874
  424MOL0     C58413  11.189   7.297   3.245 -0.1508  0.0082 -0.7816
  424MOL0     C58414  11.145   7.374   3.377 -0.0494 -0.0858 -0.0385
  424MOL0     C58415  11.190   7.519   3.372 -0.4100  0.2355  1.0518
  424MOL0     C58416  11.112   7.608   3.265 -1.0131 -0.1979  0.8467
  424MOL0     C58417  11.142   7.762   3.281 -0.0362  0.5385  1.1748
  424MOL0     C58418  11.219   7.803   3.157  0.9852 -0.3240 -0.2510
  424MOL0    Cl58419  11.116   7.762   3.015 -0.3744 -0.3102 -0.0050
  424MOL0     C58420  11.259   6.772   3.311  0.4867 -0.1508  0.7534
  424MOL0     C58421  11.190   6.701   3.399 -0.5017  0.0788  0.0681
  424MOL0     O58422  10.833   6.751   3.581  0.1499 -0.4768  0.1062
  424MOL0     C58423  10.894   6.407   3.636 -0.2648 -0.4983 -0.1435
  424MOL0     C58424  10.850   6.301   3.712 -0.5993  0.3994 -0.4240
  424MOL0     N58425  10.100   5.762   4.012  0.2478  0.6957 -0.0839
  424MOL0     N58426  10.041   5.670   3.940 -0.6382 -0.0123  0.0745
  424MOL0     C58427   9.911   4.596   4.490  0.0223  0.2908  0.7116
  424MOL0     C58428   9.880   4.557   4.626  0.2023 -0.4214 -0.2282
  424MOL0     C58429   9.827   4.575   5.075  0.7643 -0.4617 -1.5702
  424MOL0     C58430   9.692   4.609   5.097  0.9619 -0.4779  0.0800
  424MOL0     C58431   9.646   4.632   5.226 -0.4883 -0.7932  1.0029
  424MOL0     C58432   9.730   4.612   5.333 -0.0222  0.3998 -0.1887
  424MOL0     O58433   9.705   4.646   5.467 -0.8073 -0.1860  0.0645
  424MOL0     C58434   9.589   4.731   5.493  0.4745  0.0091 -0.6502
  424MOL0     C58435   9.459   4.652   5.500  0.2436  0.6004  0.2524
  424MOL0     C58436   9.351   4.675   5.602 -0.7129 -1.0144  0.3028
  424MOL0     C58437   9.228   4.751   5.554  0.4079 -0.6653  0.3921
  424MOL0     C58438   9.150   4.676   5.450 -0.5702  1.2358 -0.1264
  424MOL0     C58439   9.094   4.611   5.366 -0.4018  0.2129  0.6220
  424MOL0     C58440   9.856   4.574   5.315  0.0438 -0.9533 -0.6664
  424MOL0     C58441   9.914   4.563   5.192  0.2864  1.0816 -0.1262
  424MOL0     C58442  10.057   4.517   5.191  0.7796 -0.5795  0.8005
  424MOL0     H58443   9.775   4.859   4.734 -0.4244 -1.6024  2.7816
  424MOL0     H58444   9.817   4.916   4.513 -0.4712  1.2209 -0.8734
  424MOL0     H58445  10.038   4.923   4.437 -1.7383  0.3372  0.0890
  424MOL0     H58446   9.919   4.977   4.308  0.0856  0.8501 -0.2904
  424MOL0     H58447  10.171   4.818   4.251  1.7424  1.1348 -1.0880
  424MOL0     H58448  10.064   4.890   4.130  0.5186 -0.1783 -0.6993
  424MOL0     H58449  10.224   5.066   4.321 -0.6946 -0.3135  0.5754
  424MOL0     H58450  10.279   4.989   4.168 -0.9428 -0.3753 -1.4874
  424MOL0     H58451  10.077   5.112   4.053  2.1449  2.2030 -2.7893
  424MOL0     H58452  10.078   5.218   4.196 -0.6388  1.4320 -2.2567
  424MOL0     H58453  10.321   5.181   4.007  1.7871  1.6483 -0.8954
  424MOL0     H58454  10.316   5.274   4.161  0.3725 -2.3738  0.3980
  424MOL0     H58455  10.090   5.378   4.040 -1.8442 -1.3903 -3.3999
  424MOL0     H58456  10.235   5.454   4.061  1.2456  0.6266  0.1321
  424MOL0     H58457  10.179   5.268   3.824 -4.3610  1.0151  0.6844
  424MOL0     H58458  10.321   5.375   3.844 -0.1250 -2.3163 -0.9253
  424MOL0     H58459  10.168   5.484   3.697  2.4217 -3.3047  0.0551
  424MOL0     H58460  10.019   5.446   3.792  0.0312  0.5730 -3.6650
  424MOL0     H58461  10.357   5.672   3.842  0.4128 -0.6108  3.0392
  424MOL0     H58462  10.421   5.817   4.077 -0.2442  1.1440 -0.3282
  424MOL0     H58463  10.295   5.930   4.104  0.8720  1.3610 -1.0805
  424MOL0     H58464  10.455   5.905   3.836 -2.8115  1.7712 -2.0404
  424MOL0     H58465  10.345   6.016   3.858  1.7861  0.1726 -0.4091
  424MOL0     H58466  10.498   6.095   4.072 -1.1375  1.7078 -0.8233
  424MOL0     H58467  10.609   5.988   3.989  2.2017  1.9655 -1.6498
  424MOL0     H58468  10.491   6.164   3.780  2.8256 -3.8159 -1.5278
  424MOL0     H58469  10.504   6.266   3.921  2.5535  0.4133  2.6684
  424MOL0     H58470  10.542   6.423   3.797  0.8107 -3.2029  2.8509
  424MOL0     H58471  10.609   6.708   3.739  2.1733  1.1625 -3.1176
  424MOL0     H58472  10.482   6.596   3.687  0.6637  1.1763  3.9326
  424MOL0     H58473  10.591   6.663   3.563 -1.3837  0.1028 -1.0052
  424MOL0     H58474  10.871   6.783   3.337  0.6430 -0.7942 -0.7543
  424MOL0     H58475  10.996   6.934   3.173 -1.0778  1.2889  1.9426
  424MOL0     H58476  11.296   7.122   3.074  0.2944  0.0997  1.3197
  424MOL0     H58477  11.129   7.067   3.072 -1.2859  0.1759  0.9096
  424MOL0     H58478  11.137   7.099   3.328  0.7131  0.5378 -0.0528
  424MOL0     H58479  11.303   7.124   3.325  0.0650 -3.0031  0.0596
  424MOL0     H58480  11.125   7.322   3.161  0.1006  3.0379 -0.2114
  424MOL0     H58481  11.286   7.344   3.224 -0.2058 -0.4259 -2.0843
  424MOL0     H58482  11.179   7.326   3.470 -3.3075  1.1033  1.9237
  424MOL0     H58483  11.036   7.373   3.374 -0.0620  0.5761  0.1931
  424MOL0     H58484  11.191   7.574   3.467  0.1267  0.0320  1.1703
  424MOL0     H58485  11.296   7.512   3.343 -0.1120  0.8313  1.9711
  424MOL0     H58486  11.003   7.608   3.279 -1.0881  3.1364  1.0224
  424MOL0     H58487  11.133   7.577   3.163 -0.7491 -2.4723  1.5344
  424MOL0     H58488  11.205   7.801   3.362  2.9159 -0.1277 -0.6616
  424MOL0     H58489  11.042   7.806   3.289 -0.3208  0.1561 -0.1213
  424MOL0     H58490  11.316   7.754   3.152  0.2752 -1.6621 -1.8081
  424MOL0     H58491  11.233   7.911   3.172 -0.2206 -0.3914  1.7540
  424MOL0     H58492  11.367   6.766   3.297  0.4633 -0.6316  0.7900
  424MOL0     H58493  11.242   6.643   3.475 -1.1535 -0.4973  0.0778
  424MOL0     H58494  10.998   6.407   3.606  0.1850 -0.2079  1.3002
  424MOL0     H58495  10.910   6.211   3.723  1.0426  1.7484  3.5905
  424MOL0     H58496   9.940   4.516   4.422 -0.9290  0.9825 -0.5368
  424MOL0     H58497   9.896   4.454   4.657 -0.8031 -0.0727  1.5918
  424MOL0     H58498   9.628   4.623   5.010 -1.6987 -3.7777  1.2745
  424MOL0     H58499   9.542   4.663   5.232 -0.0170  1.9375 -1.9603
  424MOL0     H58500   9.602   4.751   5.599  2.4308 -5.2064  0.4051
  424MOL0     H58501   9.583   4.825   5.437  2.0020  3.8533  4.8387
  424MOL0     H58502   9.482   4.546   5.513 -1.9498  0.2377  1.8628
  424MOL0     H58503   9.416   4.666   5.400 -1.6851  0.4318  1.0013
  424MOL0     H58504   9.323   4.579   5.646 -1.5582 -0.5704  0.7648
  424MOL0     H58505   9.398   4.730   5.685 -0.4205  2.9906 -2.2312
  424MOL0     H58506   9.260   4.842   5.503 -0.5451 -1.3148 -1.4553
  424MOL0     H58507   9.159   4.769   5.638 -0.3402 -1.1867 -0.0948
  424MOL0     H58508   9.034   4.556   5.297 -2.0851  1.4371  1.0367
  424MOL0     H58509   9.925   4.569   5.399  2.9510  5.0081 -2.1524
  424MOL0     H58510  10.118   4.601   5.157 -0.9046  0.6806  0.8007
  424MOL0     H58511  10.068   4.478   5.292 -5.3657  0.6357  2.3272
  424MOL0     H58512  10.080   4.448   5.109 -2.2166 -2.3180  1.2788
  425MOL0     O58513  10.059   8.380   2.804 -0.4079  0.7696  0.0338
  425MOL0     C58514  10.123   8.474   2.762 -0.6459 -0.1181 -0.4657
  425MOL0     O58515  10.140   8.587   2.826  1.1205  0.0908  0.1398
  425MOL0     C58516  10.125   8.604   2.963 -0.1770 -0.1869 -0.4410
  425MOL0     C58517  10.064   8.515   3.062 -0.1320 -0.1314 -0.4460
  425MOL0     C58518  10.080   8.550   3.198  0.5581  0.6050  0.6594
  425MOL0     C58519  10.147   8.657   3.248 -0.7755 -0.3994 -0.3835
  425MOL0     O58520  10.146   8.684   3.385 -0.2949  0.0853  0.6400
  425MOL0     C58521  10.037   8.641   3.471  0.8382 -0.6280  0.1131
  425MOL0     C58522  10.005   8.708   3.603 -0.8384 -0.4051  0.7060
  425MOL0     C58523   9.958   8.860   3.571  0.5869  1.5206 -0.5427
  425MOL0     C58524   9.816   8.884   3.515  0.4382 -0.0163 -0.3479
  425MOL0     C58525   9.713   8.805   3.586  0.0036  0.8806 -0.5037
  425MOL0     C58526   9.662   8.684   3.508 -0.2883 -0.2249  0.0533
  425MOL0     C58527   9.516   8.638   3.555 -0.6145 -0.5667  0.5352
  425MOL0     C58528   9.495   8.620   3.708  0.2077  0.1216  0.7468
  425MOL0     N58529   9.595   8.517   3.752  0.5203 -0.0448 -0.7683
  425MOL0     C58530   9.598   8.389   3.711 -0.3643 -0.7404 -0.0495
  425MOL0     C58531   9.706   8.329   3.779  1.1885  0.9164 -0.1478
  425MOL0     C58532   9.744   8.184   3.754  0.1561 -0.6827  0.0951
  425MOL0     C58533   9.875   8.168   3.675 -0.0091  0.0092  0.0310
  425MOL0     C58534   9.860   8.190   3.534  0.9636  1.1361  0.0813
  425MOL0     C58535   9.990   8.234   3.467 -0.1243  1.1668 -0.5877
  425MOL0     O58536  10.099   8.141   3.506 -0.6783 -0.4052  0.5484
  425MOL0     C58537  10.223   8.208   3.511 -1.6678  0.2184  1.1144
  425MOL0     C58538  10.263   8.306   3.422  0.1552 -0.4496  1.1832
  425MOL0     C58539  10.391   8.362   3.431  0.3208  0.1397  0.6463
  425MOL0     C58540  10.426   8.469   3.332 -0.4586  0.8993 -0.1101
  425MOL0     C58541  10.479   8.307   3.528 -0.5831 -0.7093  0.8620
  425MOL0     C58542  10.616   8.363   3.540  1.0247 -0.2026 -0.6699
  425MOL0     O58543  10.636   8.492   3.534 -0.0511 -0.1332 -0.0710
  425MOL0     C58544  10.761   8.551   3.540  0.1223  0.2974 -1.4852
  425MOL0     C58545  10.799   8.636   3.651 -0.4470 -0.2113 -0.0645
  425MOL0     C58546  10.926   8.698   3.660 -0.5034 -0.5509  1.2283
  425MOL0     C58547  11.022   8.671   3.556  0.7905 -0.0794 -0.1334
  425MOL0     O58548  11.148   8.734   3.561 -0.1732 -0.2414 -0.1527
  425MOL0     C58549  11.258   8.655   3.526 -1.1875 -0.1196  0.0137
  425MOL0     C58550  11.391   8.736   3.553 -0.0644  0.8155  0.0389
  425MOL0     C58551  11.384   8.874   3.497 -0.1943  1.0315 -0.2258
  425MOL0     C58552  11.457   8.979   3.574 -0.6199  0.3980  0.4371
  425MOL0     C58553  11.600   8.934   3.622  0.1665 -0.1096  0.0238
  425MOL0     C58554  11.697   8.904   3.511  0.5403  0.9526  0.1613
  425MOL0     C58555  11.831   8.858   3.566 -0.6049  0.1711 -0.2765
  425MOL0     C58556  11.821   8.713   3.631  0.8274  0.1515  1.3966
  425MOL0    Cl58557  11.806   8.592   3.504 -0.1912 -0.1965  0.0878
  425MOL0     C58558  10.985   8.591   3.449 -1.0979 -0.7808  0.0353
  425MOL0     C58559  10.858   8.529   3.444  0.1386 -0.8350  0.0766
  425MOL0     O58560  10.704   8.281   3.571  0.4656 -0.1354 -0.0256
  425MOL0     C58561  10.444   8.204   3.614 -1.0547  1.4569  0.7914
  425MOL0     C58562  10.316   8.150   3.602  0.0164  0.4532 -0.0545
  425MOL0     N58563   9.770   8.429   3.851 -0.1577  0.1066  0.1496
  425MOL0     N58564   9.707   8.542   3.840  0.0227  0.1025  0.0574
  425MOL0     C58565  10.197   8.746   3.149  0.4457  0.0773 -0.8498
  425MOL0     C58566  10.184   8.721   3.017 -0.0821  1.2062 -0.3448
  425MOL0     C58567  10.188   8.467   2.627  0.4317  0.2412  0.2591
  425MOL0     C58568  10.289   8.555   2.590 -0.7381  0.0092  0.0788
  425MOL0     C58569  10.362   8.554   2.471 -0.3867 -0.9110  0.1603
  425MOL0     C58570  10.334   8.456   2.376  0.5514 -0.3804  0.3774
  425MOL0     O58571  10.413   8.424   2.259 -0.0283 -0.4390  0.0320
  425MOL0     C58572  10.506   8.529   2.224 -0.3577  0.4477  0.0807
  425MOL0     C58573  10.451   8.667   2.179 -0.4806 -0.5996  0.3976
  425MOL0     C58574  10.557   8.757   2.118 -0.0042 -0.9997  0.1091
  425MOL0     C58575  10.630   8.697   1.989 -0.6222 -0.1733 -0.4323
  425MOL0     C58576  10.695   8.801   1.911 -1.2955 -0.4070  0.0350
  425MOL0     C58577  10.737   8.887   1.839 -0.1786  0.5088  0.5640
  425MOL0     C58578  10.234   8.368   2.405 -0.1962 -0.6216 -0.8079
  425MOL0     C58579  10.163   8.373   2.524  0.4963 -0.5601  0.3924
  425MOL0     C58580  10.048   8.272   2.527 -0.1411 -0.6833 -0.6340
  425MOL0     H58581  10.014   8.420   3.047 -2.1583  0.0736  3.4827
  425MOL0     H58582  10.044   8.477   3.270  0.1122  0.0174 -0.1409
  425MOL0     H58583  10.033   8.533   3.488  1.4551 -0.2525  3.2204
  425MOL0     H58584   9.957   8.684   3.410  1.7401  0.7276 -0.1732
  425MOL0     H58585   9.938   8.639   3.655  0.5697 -1.8022  0.7601
  425MOL0     H58586  10.097   8.731   3.659 -0.8477  1.1786  0.1252
  425MOL0     H58587   9.947   8.902   3.671 -2.7665 -1.3535  0.5182
  425MOL0     H58588  10.028   8.913   3.506  0.5400  1.7906 -0.3738
  425MOL0     H58589   9.794   8.991   3.515 -1.9781 -0.4504  0.5990
  425MOL0     H58590   9.826   8.852   3.410  0.4566  1.8017 -0.9408
  425MOL0     H58591   9.625   8.870   3.592 -2.1696 -1.9928  1.9492
  425MOL0     H58592   9.728   8.781   3.692 -1.8981  2.4363  0.1767
  425MOL0     H58593   9.641   8.706   3.403 -1.3073 -1.8044 -0.1144
  425MOL0     H58594   9.731   8.599   3.507 -3.2607 -2.8749 -0.4153
  425MOL0     H58595   9.496   8.543   3.505 -3.9094  0.3779 -0.1626
  425MOL0     H58596   9.437   8.704   3.517 -0.3634 -1.5435 -1.8951
  425MOL0     H58597   9.490   8.714   3.765 -2.6510 -0.6975  2.0394
  425MOL0     H58598   9.396   8.575   3.720 -0.8670  1.4639 -2.2862
  425MOL0     H58599   9.520   8.353   3.645  0.7201 -1.5505 -0.9167
  425MOL0     H58600   9.661   8.128   3.710 -0.6548 -3.3585  4.3763
  425MOL0     H58601   9.758   8.138   3.853 -1.0538 -0.7442  0.2523
  425MOL0     H58602   9.940   8.244   3.721  0.8674 -0.6730 -0.0486
  425MOL0     H58603   9.914   8.066   3.687 -3.6669 -1.6637 -1.0193
  425MOL0     H58604   9.823   8.098   3.486  0.8378 -0.1396  2.4529
  425MOL0     H58605   9.784   8.268   3.527  1.6467  2.3272  3.6965
  425MOL0     H58606   9.976   8.252   3.360 -1.4441  1.7429 -0.3392
  425MOL0     H58607  10.019   8.329   3.513 -1.3836  3.4568 -4.1080
  425MOL0     H58608  10.197   8.349   3.348  0.6282 -1.9600 -0.1881
  425MOL0     H58609  10.394   8.459   3.228  0.1968 -0.7069 -0.1878
  425MOL0     H58610  10.531   8.497   3.325 -0.5446  2.3504  2.7269
  425MOL0     H58611  10.384   8.559   3.379  3.3764  2.8131  0.0155
  425MOL0     H58612  10.724   8.663   3.725 -0.6396  1.0148 -0.6922
  425MOL0     H58613  10.947   8.767   3.740  0.8519 -1.4991  1.7188
  425MOL0     H58614  11.256   8.557   3.576  1.4934  0.8389  2.2722
  425MOL0     H58615  11.261   8.637   3.418  2.1919 -2.0597  0.2683
  425MOL0     H58616  11.395   8.739   3.663 -2.8757 -4.3563  0.6094
  425MOL0     H58617  11.481   8.687   3.514 -0.6778 -1.5371  1.3466
  425MOL0     H58618  11.282   8.904   3.475  0.6737  1.5692 -4.4155
  425MOL0     H58619  11.437   8.873   3.401  2.5843 -0.7301  1.1924
  425MOL0     H58620  11.400   9.017   3.659  0.7697  2.3108  0.5785
  425MOL0     H58621  11.464   9.069   3.511 -2.0945 -0.9322 -1.7774
  425MOL0     H58622  11.630   9.013   3.691  4.3391 -1.5378  0.0932
  425MOL0     H58623  11.586   8.846   3.685  0.1964 -2.0102 -2.4549
  425MOL0     H58624  11.704   8.994   3.449 -0.3993  0.9761  0.0720
  425MOL0     H58625  11.654   8.827   3.446 -1.8650 -0.3032  3.0232
  425MOL0     H58626  11.861   8.924   3.648  0.0143 -0.7387  0.2420
  425MOL0     H58627  11.912   8.861   3.493  3.1657 -0.6147  3.5135
  425MOL0     H58628  11.730   8.711   3.692 -0.6170  0.3738 -0.6340
  425MOL0     H58629  11.911   8.680   3.684  1.4844 -3.9715 -1.7344
  425MOL0     H58630  11.059   8.560   3.376  0.0471  0.1337  0.7613
  425MOL0     H58631  10.840   8.461   3.361  0.0398 -1.0908  0.3057
  425MOL0     H58632  10.518   8.170   3.686  2.5283  2.3411 -2.2175
  425MOL0     H58633  10.293   8.063   3.663  0.0911  1.9526  2.2436
  425MOL0     H58634  10.233   8.838   3.192 -0.8114 -0.2810  1.1329
  425MOL0     H58635  10.232   8.799   2.959 -1.3726  1.5273 -1.0170
  425MOL0     H58636  10.318   8.638   2.654  0.4006  1.4888 -2.2194
  425MOL0     H58637  10.443   8.627   2.470 -1.0457 -0.1779 -0.4921
  425MOL0     H58638  10.574   8.546   2.308 -0.9819  1.3587  0.4161
  425MOL0     H58639  10.574   8.483   2.151  0.5857  3.3827 -1.0382
  425MOL0     H58640  10.406   8.712   2.268  0.4668 -0.4682  0.8177
  425MOL0     H58641  10.380   8.638   2.101  0.4707 -0.8452 -0.3932
  425MOL0     H58642  10.506   8.849   2.086 -2.9640 -2.6370 -0.2438
  425MOL0     H58643  10.634   8.775   2.193  0.3520  0.5101 -0.5696
  425MOL0     H58644  10.556   8.648   1.924  0.2962 -1.9680 -0.1647
  425MOL0     H58645  10.700   8.625   2.030 -0.6048 -0.1404 -0.4060
  425MOL0     H58646  10.769   8.967   1.775  0.4555  1.0051  1.4894
  425MOL0     H58647  10.222   8.286   2.336 -0.2411 -1.5263  0.2439
  425MOL0     H58648  10.041   8.223   2.624 -1.5924  3.4667  1.5966
  425MOL0     H58649   9.958   8.333   2.519  0.6328  0.3516 -1.8662
  425MOL0     H58650  10.057   8.199   2.446 -0.2503 -0.4945 -0.8171
  426MOL0     O58651   5.568   8.146   0.583  0.3098 -0.1779  0.0839
  426MOL0     C58652   5.692   8.130   0.602 -0.5176 -0.3500  0.9804
  426MOL0     O58653   5.745   8.029   0.679 -0.3228 -0.3140  1.0959
  426MOL0     C58654   5.661   7.931   0.735 -0.4765 -0.4313 -0.9409
  426MOL0     C58655   5.716   7.800   0.761  0.4817  0.1779  0.0316
  426MOL0     C58656   5.653   7.705   0.848 -0.1655  0.7518 -1.0542
  426MOL0     C58657   5.530   7.743   0.911 -0.1688 -0.5697  0.8788
  426MOL0     O58658   5.479   7.657   1.003 -0.1650  0.1885 -0.0012
  426MOL0     C58659   5.339   7.648   1.004 -1.2831 -0.1837 -0.0941
  426MOL0     C58660   5.302   7.520   1.076  0.2556  0.9469  0.5618
  426MOL0     C58661   5.338   7.405   0.980 -0.0524 -0.3597 -0.1508
  426MOL0     C58662   5.220   7.382   0.883 -0.1859  0.8730  0.5514
  426MOL0     C58663   5.237   7.232   0.834 -0.3865  0.4159 -0.2747
  426MOL0     C58664   5.103   7.179   0.775 -0.1754 -0.0001  0.0867
  426MOL0     C58665   5.055   7.268   0.657  0.6357  0.5263  0.0435
  426MOL0     C58666   4.911   7.227   0.597  0.0343 -0.0428  0.0027
  426MOL0     N58667   4.888   7.082   0.594 -0.1556  0.3028 -0.1494
  426MOL0     C58668   4.791   7.015   0.669 -0.2226  0.1336  0.2793
  426MOL0     C58669   4.805   6.884   0.628  0.1021  0.2141  0.1769
  426MOL0     C58670   4.702   6.786   0.660  0.5319  0.5171  0.5575
  426MOL0     C58671   4.719   6.734   0.800  0.3771 -0.5546 -0.6227
  426MOL0     C58672   4.581   6.684   0.857 -0.5017 -0.0044  0.6234
  426MOL0     C58673   4.605   6.596   0.979  0.3168 -0.0462 -0.3586
  426MOL0     O58674   4.469   6.559   1.022  0.3128 -0.4200  0.0063
  426MOL0     C58675   4.410   6.643   1.117 -0.5769 -0.9407 -0.2678
  426MOL0     C58676   4.463   6.679   1.237 -0.2751 -0.0138 -0.3322
  426MOL0     C58677   4.407   6.776   1.328 -0.5934  0.1949  1.0274
  426MOL0     C58678   4.474   6.787   1.466  0.5822  0.0966 -0.3904
  426MOL0     C58679   4.288   6.842   1.283  0.8926 -0.0106  0.5864
  426MOL0     C58680   4.228   6.943   1.376  0.4458  0.4489 -0.5189
  426MOL0     O58681   4.310   7.041   1.419  0.3617 -0.1466 -0.2169
  426MOL0     C58682   4.259   7.117   1.521 -0.4718  0.2720 -0.5897
  426MOL0     C58683   4.331   7.130   1.649 -0.4920  0.3375 -0.5778
  426MOL0     C58684   4.281   7.203   1.753  0.4147 -0.2459 -0.4639
  426MOL0     C58685   4.157   7.271   1.738 -0.0789  0.5056  0.4722
  426MOL0     O58686   4.088   7.346   1.828  0.2590 -0.1967  0.2002
  426MOL0     C58687   4.136   7.361   1.966  0.2338 -0.2880  0.0177
  426MOL0     C58688   4.166   7.505   1.999  0.1412 -0.5944  0.0007
  426MOL0     C58689   4.250   7.529   2.116  0.2318  0.6157 -0.6370
  426MOL0     C58690   4.251   7.684   2.138  0.0606 -0.2231 -0.4111
  426MOL0     C58691   4.338   7.739   2.251  0.6522 -0.2096  0.1157
  426MOL0     C58692   4.479   7.676   2.247 -0.0648  0.2649 -0.4468
  426MOL0     C58693   4.559   7.699   2.114 -0.3641  0.1971  0.4431
  426MOL0     C58694   4.684   7.613   2.123  0.4652  0.0145  0.2301
  426MOL0    Cl58695   4.626   7.440   2.130 -0.2876  0.2812  0.3202
  426MOL0     C58696   4.091   7.266   1.617 -0.6605 -1.2762 -0.2487
  426MOL0     C58697   4.136   7.187   1.514  0.4011  0.3186 -0.3310
  426MOL0     O58698   4.104   6.943   1.372  0.1419  0.1466  0.1311
  426MOL0     C58699   4.220   6.788   1.168  0.3026  0.5165  0.0042
  426MOL0     C58700   4.282   6.690   1.086 -0.6536  0.6742 -0.1010
  426MOL0     N58701   4.909   6.872   0.539  0.6928  0.2655 -0.3458
  426MOL0     N58702   4.960   6.993   0.526  0.0009  0.3827 -0.3805
  426MOL0     C58703   5.472   7.873   0.895 -0.3644  0.6074  0.1832
  426MOL0     C58704   5.537   7.955   0.803 -0.7577 -0.1583 -0.1179
  426MOL0     C58705   5.778   8.234   0.573  1.3146  0.6391  0.4972
  426MOL0     C58706   5.908   8.207   0.529  0.0516  0.2296  0.0769
  426MOL0     C58707   5.992   8.304   0.485  0.5591  0.6874 -0.4902
  426MOL0     C58708   5.950   8.441   0.484  0.4798  0.5515 -0.1941
  426MOL0     O58709   6.044   8.527   0.431  0.0700 -0.4479  0.0557
  426MOL0     C58710   6.054   8.537   0.290 -0.1868 -0.4367 -0.8308
  426MOL0     C58711   5.961   8.650   0.255  0.5116  0.5704  0.3356
  426MOL0     C58712   6.021   8.785   0.300 -0.6034  0.2010 -0.4598
  426MOL0     C58713   5.920   8.902   0.306 -0.4915 -0.1232  0.1264
  426MOL0     C58714   5.871   8.935   0.170 -0.0509  1.8625 -0.9351
  426MOL0     C58715   5.828   8.935   0.056  0.6464 -0.3301 -1.2006
  426MOL0     C58716   5.817   8.477   0.519 -0.6605 -0.0780  0.1089
  426MOL0     C58717   5.733   8.371   0.570 -0.2166  0.1850  0.1564
  426MOL0     C58718   5.602   8.424   0.621 -0.3047 -0.5804 -0.0390
  426MOL0     H58719   5.816   7.775   0.726  1.6824 -0.7076  3.6925
  426MOL0     H58720   5.701   7.610   0.865  1.7987  1.5505 -1.8197
  426MOL0     H58721   5.306   7.649   0.900  0.1818  2.1230 -0.6353
  426MOL0     H58722   5.297   7.733   1.058  0.2554 -0.1219  1.0970
  426MOL0     H58723   5.359   7.521   1.169  1.9680 -2.8044 -0.2708
  426MOL0     H58724   5.194   7.534   1.091  0.2094  3.6480 -1.4606
  426MOL0     H58725   5.432   7.424   0.927 -0.6798  1.1638 -0.7843
  426MOL0     H58726   5.346   7.313   1.039 -1.6507  0.2974  1.1681
  426MOL0     H58727   5.120   7.391   0.926 -2.5744 -3.0228 -3.4004
  426MOL0     H58728   5.231   7.457   0.804  1.9650  0.2252  0.1613
  426MOL0     H58729   5.258   7.163   0.916 -0.3420  1.1246  0.3150
  426MOL0     H58730   5.314   7.223   0.757  0.4594 -5.4415  0.7575
  426MOL0     H58731   5.105   7.074   0.744 -3.3277  0.0282 -0.5422
  426MOL0     H58732   5.033   7.184   0.859 -0.5769  3.2119 -0.3193
  426MOL0     H58733   5.134   7.238   0.587 -1.0852 -1.8335 -1.0079
  426MOL0     H58734   5.064   7.376   0.674  3.1980  0.5261 -0.8033
  426MOL0     H58735   4.835   7.271   0.662 -1.4421  0.5601 -2.0011
  426MOL0     H58736   4.905   7.270   0.496  0.3283 -0.5885 -0.2497
  426MOL0     H58737   4.713   7.054   0.734 -0.3730 -1.2705  0.9678
  426MOL0     H58738   4.687   6.702   0.591 -3.1663  0.5864  1.0962
  426MOL0     H58739   4.605   6.838   0.660 -0.3072 -0.7810 -2.9733
  426MOL0     H58740   4.801   6.662   0.800  0.7815 -0.1008 -1.3007
  426MOL0     H58741   4.739   6.819   0.867 -0.6093 -1.2746  0.6221
  426MOL0     H58742   4.519   6.769   0.884  0.6780  1.4478 -1.0198
  426MOL0     H58743   4.519   6.621   0.793 -0.3366 -3.1791  3.3031
  426MOL0     H58744   4.650   6.499   0.955  0.7553 -0.2958  1.3975
  426MOL0     H58745   4.657   6.639   1.064 -3.1584  0.8056  1.5078
  426MOL0     H58746   4.557   6.641   1.275 -0.0018  1.4384  0.5475
  426MOL0     H58747   4.566   6.846   1.457 -0.9949  2.7246 -0.2742
  426MOL0     H58748   4.502   6.690   1.510 -1.4164 -1.6208 -2.6433
  426MOL0     H58749   4.407   6.833   1.539 -2.0090  0.2485 -2.7294
  426MOL0     H58750   4.435   7.103   1.669 -0.6984 -0.1114 -0.0866
  426MOL0     H58751   4.333   7.216   1.847  2.4473 -0.7629 -1.4474
  426MOL0     H58752   4.050   7.343   2.031 -1.4555  3.2639 -1.0094
  426MOL0     H58753   4.223   7.299   1.994  2.3452  2.8340  0.9022
  426MOL0     H58754   4.218   7.538   1.908  0.7828  3.7167  1.6994
  426MOL0     H58755   4.077   7.566   2.011  0.6925  0.0801  0.7238
  426MOL0     H58756   4.352   7.498   2.091  0.7817  2.0130 -0.2418
  426MOL0     H58757   4.204   7.483   2.204 -1.5927  0.1838 -1.7847
  426MOL0     H58758   4.148   7.714   2.159  0.2481  1.2826 -1.4853
  426MOL0     H58759   4.293   7.724   2.045  0.8477  0.7798  0.3502
  426MOL0     H58760   4.339   7.848   2.244 -2.0543  0.1383  2.9927
  426MOL0     H58761   4.304   7.720   2.353  1.0241 -2.1612 -0.0769
  426MOL0     H58762   4.476   7.567   2.256 -1.0186 -0.0234 -3.2001
  426MOL0     H58763   4.527   7.719   2.335 -0.9494 -0.6004  0.4885
  426MOL0     H58764   4.588   7.804   2.121 -0.5142  0.3256 -0.5990
  426MOL0     H58765   4.515   7.667   2.019  0.7591 -2.7882  0.8368
  426MOL0     H58766   4.735   7.638   2.216  2.2376  2.9208 -1.3433
  426MOL0     H58767   4.753   7.630   2.039 -1.4891 -1.6259 -1.8378
  426MOL0     H58768   3.992   7.309   1.610  0.6937  2.3663  0.6606
  426MOL0     H58769   4.065   7.175   1.432 -0.9199 -0.2278  0.8567
  426MOL0     H58770   4.131   6.838   1.133 -0.6113  0.7495  2.4250
  426MOL0     H58771   4.242   6.638   1.000 -3.3943  2.7249 -0.1745
  426MOL0     H58772   5.378   7.889   0.947  0.1008 -0.2518  1.3517
  426MOL0     H58773   5.500   8.057   0.800 -1.0357 -0.1599  1.6978
  426MOL0     H58774   5.939   8.105   0.548 -1.0855  0.1477  1.6726
  426MOL0     H58775   6.097   8.285   0.465  0.9254  0.2806  1.5614
  426MOL0     H58776   6.153   8.545   0.246 -0.4804 -3.0324 -2.1475
  426MOL0     H58777   6.007   8.443   0.260  0.0682 -1.1848  0.9952
  426MOL0     H58778   5.862   8.640   0.299 -0.6420  0.2862 -2.1324
  426MOL0     H58779   5.953   8.657   0.146 -0.1038 -3.0420  0.0068
  426MOL0     H58780   6.065   8.781   0.400 -2.1451  1.2872  0.2879
  426MOL0     H58781   6.098   8.796   0.222 -1.3817 -1.3736 -1.5019
  426MOL0     H58782   5.973   8.989   0.345  3.1738  0.1402 -4.5447
  426MOL0     H58783   5.838   8.864   0.369  0.4944 -1.7429  0.4846
  426MOL0     H58784   5.797   8.941  -0.046  0.9212  1.3013 -1.2106
  426MOL0     H58785   5.808   8.584   0.511 -1.5076 -0.1506  0.0582
  426MOL0     H58786   5.580   8.531   0.614 -2.6193 -0.7739  2.6909
  426MOL0     H58787   5.506   8.390   0.581  0.5513  0.6938 -3.4906
  426MOL0     H58788   5.605   8.395   0.727  4.8029  0.8754  0.5123
  427MOL0     O58789   6.249   7.739  10.613 -0.0720 -0.2431 -0.3056
  427MOL0     C58790   6.356   7.802  10.589  0.5526  0.5765  0.1805
  427MOL0     O58791   6.419   7.804  10.465  0.7355 -0.3362 -0.8769
  427MOL0     C58792   6.390   7.709  10.368 -0.3902 -0.0706  0.2545
  427MOL0     C58793   6.315   7.586  10.383  0.3894 -0.1406  0.4748
  427MOL0     C58794   6.285   7.503  10.266  1.2320 -0.2407  0.7666
  427MOL0     C58795   6.347   7.521  10.145  0.5841  0.5322 -0.2849
  427MOL0     O58796   6.319   7.430  10.049  0.4351  0.7999 -0.0222
  427MOL0     C58797   6.423   7.405   9.959  0.0054  0.1678  1.0045
  427MOL0     C58798   6.552   7.356  10.021 -0.5729 -0.0331 -0.2032
  427MOL0     C58799   6.646   7.287   9.922  0.2556 -0.3907  0.0834
  427MOL0     C58800   6.616   7.143   9.890 -0.0643 -1.1212 -0.5721
  427MOL0     C58801   6.686   7.103   9.765 -0.8466  0.2493  0.0925
  427MOL0     C58802   6.644   6.957   9.718 -0.3190 -0.3939 -0.3914
  427MOL0     C58803   6.696   6.852   9.828 -1.1645  0.5283  0.4782
  427MOL0     C58804   6.647   6.707   9.784  0.0973 -0.8495 -0.2606
  427MOL0     N58805   6.677   6.591   9.864 -0.3105 -0.0165 -0.0982
  427MOL0     C58806   6.711   6.458   9.822 -0.7522  0.3180  0.5833
  427MOL0     C58807   6.705   6.380   9.928 -0.7358  0.7887  0.1228
  427MOL0     C58808   6.757   6.233   9.936  0.6361 -0.4234  0.1312
  427MOL0     C58809   6.645   6.134   9.946 -0.3001  1.0037  0.2449
  427MOL0     C58810   6.701   6.002   9.906 -0.5729  0.6073  0.1669
  427MOL0     C58811   6.606   5.873   9.922 -0.1842  0.5172  0.2041
  427MOL0     O58812   6.594   5.825  10.059  0.0473  0.0089 -0.1532
  427MOL0     C58813   6.547   5.703  10.081 -0.0140  0.7367 -0.3973
  427MOL0     C58814   6.571   5.658  10.217 -0.6488  0.5570 -0.7246
  427MOL0     C58815   6.544   5.520  10.249 -0.4026 -0.3496 -0.7463
  427MOL0     C58816   6.609   5.466  10.377  0.7785  0.9238  0.8603
  427MOL0     C58817   6.476   5.440  10.163  0.0580 -0.6789  0.8596
  427MOL0     C58818   6.464   5.289  10.171 -0.2669  0.2834 -0.0399
  427MOL0     O58819   6.401   5.231  10.057  0.1721  0.5134 -0.4699
  427MOL0     C58820   6.402   5.095  10.030 -0.4534  0.2969 -0.2558
  427MOL0     C58821   6.320   5.051   9.922  0.7759 -0.2597 -0.6612
  427MOL0     C58822   6.330   4.914   9.881  0.2884 -0.3075  0.2845
  427MOL0     C58823   6.424   4.821   9.942  0.1592 -0.3144  0.2799
  427MOL0     O58824   6.424   4.690   9.903 -0.9109 -0.1583  0.6118
  427MOL0     C58825   6.434   4.589   9.999  0.3197 -0.6505  0.2032
  427MOL0     C58826   6.356   4.456   9.960 -0.2576  0.2125 -0.6396
  427MOL0     C58827   6.371   4.437   9.802  0.8023 -1.3402  0.0319
  427MOL0     C58828   6.287   4.323   9.742 -0.4301  0.7023  0.0109
  427MOL0     C58829   6.301   4.193   9.822  0.2477  0.5719  0.4120
  427MOL0     C58830   6.248   4.051   9.769 -0.5211  0.8645 -0.6765
  427MOL0     C58831   6.101   4.037   9.761  0.1287 -0.2041 -0.3122
  427MOL0     C58832   6.054   3.930   9.658  1.2477 -0.5168  0.7439
  427MOL0    Cl58833   6.012   3.997   9.495 -0.0196  0.1427  0.1023
  427MOL0     C58834   6.496   4.868  10.052 -0.3108  0.1399  0.4006
  427MOL0     C58835   6.490   5.000  10.094  0.3809 -0.3236  0.5270
  427MOL0     O58836   6.509   5.228  10.267 -0.2051 -0.4729 -0.9232
  427MOL0     C58837   6.430   5.490  10.038 -0.6938 -0.9963 -0.6964
  427MOL0     C58838   6.474   5.619   9.993 -1.6269  0.3250  1.0462
  427MOL0     N58839   6.674   6.461  10.036 -0.3530  0.1665  1.1657
  427MOL0     N58840   6.647   6.582   9.994 -0.3453 -0.0303  0.3232
  427MOL0     C58841   6.414   7.636  10.130 -0.5072 -0.1828 -0.2575
  427MOL0     C58842   6.439   7.734  10.240 -0.1820  0.0967  0.1070
  427MOL0     C58843   6.428   7.872  10.695  0.5112  0.9693  0.7888
  427MOL0     C58844   6.488   7.997  10.655  0.1893  0.1355 -0.2292
  427MOL0     C58845   6.562   8.078  10.740 -0.6345  0.6800 -0.9837
  427MOL0     C58846   6.587   8.028  10.878  0.4575  0.2987  0.6919
  427MOL0     O58847   6.674   8.102  10.957  1.4525 -0.0461  0.7726
  427MOL0     C58848   6.692   8.070  11.090  0.2326  0.0657  0.0874
  427MOL0     C58849   6.808   8.153  11.131 -0.0370 -0.1593  0.0665
  427MOL0     C58850   6.957   8.121  11.065 -0.0923  0.0908  0.2754
  427MOL0     C58851   7.063   8.218  11.120  0.8533  0.2396  1.3131
  427MOL0     C58852   7.063   8.343  11.040 -0.3304  0.2392  0.4183
  427MOL0     C58853   7.077   8.457  11.001 -0.9812 -0.0196  0.0602
  427MOL0     C58854   6.516   7.918  10.915  0.3471 -0.3034 -0.6414
  427MOL0     C58855   6.442   7.838  10.830  0.6277 -0.9358  0.5722
  427MOL0     C58856   6.389   7.710  10.893 -0.7957  0.0110  0.6120
  427MOL0     H58857   6.268   7.555  10.476  0.6026  0.7724  0.9017
  427MOL0     H58858   6.247   7.406  10.297 -3.0763  0.7679 -0.6829
  427MOL0     H58859   6.438   7.497   9.901 -0.4888  0.1137  0.7882
  427MOL0     H58860   6.370   7.336   9.893  0.4225  0.8199 -0.0366
  427MOL0     H58861   6.607   7.442  10.061  0.6879 -0.5780 -0.6982
  427MOL0     H58862   6.534   7.283  10.100  2.2252 -1.2698 -0.5969
  427MOL0     H58863   6.647   7.338   9.825  0.3850 -0.6432 -0.0500
  427MOL0     H58864   6.742   7.279   9.973 -0.3529  1.7571  1.7216
  427MOL0     H58865   6.654   7.087   9.976  0.7460  0.9165  0.4834
  427MOL0     H58866   6.508   7.128   9.878 -0.7250  3.1206 -1.4080
  427MOL0     H58867   6.794   7.109   9.781 -0.5286  1.0347 -2.0481
  427MOL0     H58868   6.684   7.167   9.676  2.4049 -2.4463 -2.1561
  427MOL0     H58869   6.535   6.963   9.706 -0.2474  2.0078 -0.3634
  427MOL0     H58870   6.680   6.933   9.618  0.9120  0.0796 -0.0825
  427MOL0     H58871   6.673   6.874   9.932  1.8312  0.4418  1.2378
  427MOL0     H58872   6.804   6.868   9.815 -1.3390 -0.6915 -4.2898
  427MOL0     H58873   6.538   6.712   9.782  0.0864  0.3951  1.4683
  427MOL0     H58874   6.685   6.690   9.683  2.1021 -1.2754  0.5168
  427MOL0     H58875   6.744   6.432   9.722 -2.3480 -0.4731  0.2355
  427MOL0     H58876   6.824   6.210  10.020  0.7529 -0.7767 -0.0587
  427MOL0     H58877   6.807   6.214   9.841 -0.9014 -0.4407 -0.6948
  427MOL0     H58878   6.604   6.132  10.047 -1.9225  1.6288 -0.3622
  427MOL0     H58879   6.566   6.169   9.879 -1.9268  3.0944  3.0378
  427MOL0     H58880   6.707   6.012   9.797 -1.3922  2.6038  0.2641
  427MOL0     H58881   6.791   5.974   9.962  0.0428  0.5516 -0.8379
  427MOL0     H58882   6.502   5.893   9.895 -0.7388  0.8154  2.3790
  427MOL0     H58883   6.642   5.796   9.852  1.6056  1.4210  0.0651
  427MOL0     H58884   6.638   5.719  10.277 -1.3954  0.6499  0.0264
  427MOL0     H58885   6.660   5.372  10.354 -4.0261 -2.1865  1.3967
  427MOL0     H58886   6.529   5.438  10.446  2.1617  0.5575  2.3865
  427MOL0     H58887   6.672   5.542  10.425 -1.5139  1.8232  2.6178
  427MOL0     H58888   6.256   5.129   9.883  2.7296  1.9019  0.2465
  427MOL0     H58889   6.270   4.878   9.798 -1.9975  1.7609  0.9372
  427MOL0     H58890   6.535   4.548  10.010 -1.1259 -4.3671  1.1508
  427MOL0     H58891   6.400   4.615  10.100 -1.5330 -0.6843 -0.3670
  427MOL0     H58892   6.394   4.371  10.018  1.9191  2.0632  0.8183
  427MOL0     H58893   6.252   4.459   9.994  0.2180 -0.1718  0.9418
  427MOL0     H58894   6.478   4.419   9.789  1.5552 -0.1507  3.6048
  427MOL0     H58895   6.349   4.530   9.750 -0.9244 -2.9473 -2.3483
  427MOL0     H58896   6.317   4.306   9.638 -0.8587  0.0395 -0.0038
  427MOL0     H58897   6.180   4.342   9.740 -0.6290 -0.2370  0.8676
  427MOL0     H58898   6.407   4.176   9.845 -0.2766  2.9043  6.2693
  427MOL0     H58899   6.257   4.216   9.920 -1.4044 -0.4550 -0.0459
  427MOL0     H58900   6.265   3.967   9.837 -2.8379  0.6027 -0.3436
  427MOL0     H58901   6.299   4.039   9.673 -1.2909  0.6211 -1.0593
  427MOL0     H58902   6.045   4.126   9.732 -1.7679 -1.6592 -1.3210
  427MOL0     H58903   6.068   4.014   9.863 -4.0048  2.8367 -0.7605
  427MOL0     H58904   5.973   3.869   9.699  0.9940  0.6190  2.0202
  427MOL0     H58905   6.138   3.865   9.633  1.5658  0.3230 -0.4672
  427MOL0     H58906   6.562   4.797  10.102 -1.1032  0.6749  2.3112
  427MOL0     H58907   6.559   5.024  10.174  1.6889  0.8615 -0.9013
  427MOL0     H58908   6.353   5.444   9.976 -1.8039 -0.6004  0.3389
  427MOL0     H58909   6.446   5.649   9.892  0.2102 -1.5588 -0.1189
  427MOL0     H58910   6.443   7.668  10.030 -0.1588  0.0080 -0.0953
  427MOL0     H58911   6.501   7.819  10.215 -1.0187  0.9107  0.7614
  427MOL0     H58912   6.475   8.039  10.556  0.0756 -0.0235 -0.2823
  427MOL0     H58913   6.608   8.169  10.702 -2.6497  1.6251 -1.3139
  427MOL0     H58914   6.603   8.095  11.148 -1.5118 -1.8176 -1.6172
  427MOL0     H58915   6.709   7.963  11.109  0.0733 -0.1190 -0.7681
  427MOL0     H58916   6.817   8.137  11.239 -4.6367 -2.8461  0.3225
  427MOL0     H58917   6.789   8.260  11.115 -2.9530 -0.5719  0.2062
  427MOL0     H58918   6.975   8.022  11.106 -1.3899 -0.3338 -0.1295
  427MOL0     H58919   6.960   8.119  10.956 -1.4412 -0.6815  0.2283
  427MOL0     H58920   7.151   8.158  11.095 -0.3883 -0.4953 -1.8184
  427MOL0     H58921   7.058   8.237  11.227  1.8367  2.4213  1.0147
  427MOL0     H58922   7.093   8.560  10.980  1.4515 -0.0529  1.3841
  427MOL0     H58923   6.532   7.877  11.014 -0.9383  0.7148  0.0148
  427MOL0     H58924   6.318   7.725  10.975 -0.6282  1.7534  0.4654
  427MOL0     H58925   6.332   7.647  10.824 -3.2997 -0.4202  2.9044
  427MOL0     H58926   6.473   7.650  10.930  1.9279  2.2782 -1.3787
  428MOL0     O58927   5.905  11.316  11.375  0.4097  0.0577 -0.2695
  428MOL0     C58928   5.952  11.295  11.261  0.2975 -0.3443 -0.3697
  428MOL0     O58929   6.033  11.193  11.233 -0.6577 -0.0530  0.5914
  428MOL0     C58930   6.058  11.091  11.324 -0.1713  0.1164  0.3287
  428MOL0     C58931   6.144  11.104  11.436  0.1695 -0.5653  1.1863
  428MOL0     C58932   6.165  11.003  11.533  0.4529 -0.3342 -0.0480
  428MOL0     C58933   6.090  10.884  11.522  0.2559 -1.2208 -0.3341
  428MOL0     O58934   6.128  10.786  11.610  0.2101  0.4636 -0.6290
  428MOL0     C58935   6.039  10.679  11.638 -0.7081  0.2949 -0.3543
  428MOL0     C58936   5.905  10.717  11.716  0.4752  0.3689 -0.5716
  428MOL0     C58937   5.939  10.757  11.860  0.2451  0.4525 -0.4655
  428MOL0     C58938   5.808  10.805  11.930 -0.1929 -0.4047 -0.3417
  428MOL0     C58939   5.842  10.848  12.068 -0.2263 -0.3635 -0.3979
  428MOL0     C58940   5.725  10.917  12.139  0.5543 -0.3830 -0.2876
  428MOL0     C58941   5.589  10.868  12.101 -0.0278 -0.6727  0.1984
  428MOL0     C58942   5.480  10.911  12.205 -0.5319  0.5770  0.2835
  428MOL0     N58943   5.343  10.868  12.170 -0.4851 -0.1798  0.4480
  428MOL0     C58944   5.230  10.923  12.220  0.8839 -0.3677 -1.0312
  428MOL0     C58945   5.122  10.866  12.162 -0.4827  0.7772 -0.2182
  428MOL0     C58946   4.978  10.909  12.186 -0.3557  0.1462 -0.7815
  428MOL0     C58947   4.908  10.947  12.050 -0.7492  0.1134 -0.4830
  428MOL0     C58948   4.799  10.845  12.003  0.0833  0.2019  0.2581
  428MOL0     C58949   4.712  10.780  12.118  0.6003  0.1485 -0.3841
  428MOL0     O58950   4.642  10.876  12.198 -0.1708  0.2336 -0.1814
  428MOL0     C58951   4.563  10.822  12.293 -0.0764  0.2936 -0.2987
  428MOL0     C58952   4.440  10.762  12.258  0.4337 -0.0337 -0.1986
  428MOL0     C58953   4.347  10.713  12.351  0.3932  0.7430  1.2268
  428MOL0     C58954   4.232  10.639  12.302  0.3980 -0.0837 -0.4557
  428MOL0     C58955   4.382  10.706  12.491 -0.1881  0.0367  0.2062
  428MOL0     C58956   4.305  10.662  12.610 -1.0164  1.3237 -0.4917
  428MOL0     O58957   4.168  10.646  12.597 -0.0777  0.4681 -0.7193
  428MOL0     C58958   4.089  10.619  12.707 -1.4936  0.4077 -0.5257
  428MOL0     C58959   3.959  10.670  12.701  0.3371 -0.2385 -0.5155
  428MOL0     C58960   3.876  10.647  12.811  0.3924 -0.3557  0.1963
  428MOL0     C58961   3.904  10.558  12.917  0.4098 -0.0925 -0.2642
  428MOL0     O58962   3.803  10.525  13.007  0.6769  0.1288 -0.1382
  428MOL0     C58963   3.827  10.478  13.144  0.3015  0.2644 -0.4446
  428MOL0     C58964   3.908  10.574  13.226  0.8836  0.9403  0.1888
  428MOL0     C58965   3.880  10.727  13.197 -0.5605  0.9414  0.9460
  428MOL0     C58966   3.966  10.811  13.290  0.1829  0.2168  0.5318
  428MOL0     C58967   3.898  10.848  13.421  0.1412  0.2003 -0.3944
  428MOL0     C58968   3.983  10.799  13.542  0.3473 -0.2222 -0.4773
  428MOL0     C58969   3.901  10.799  13.672 -0.1050 -0.2507 -0.8755
  428MOL0     C58970   4.003  10.807  13.796  0.3955  0.2386  0.3864
  428MOL0    Cl58971   4.070  10.641  13.819 -0.2480  0.6014 -0.1697
  428MOL0     C58972   4.031  10.492  12.911  1.0888 -0.6657  0.4397
  428MOL0     C58973   4.121  10.527  12.813 -0.2944  0.1119  0.4486
  428MOL0     O58974   4.372  10.645  12.712  0.9400  0.8411  0.3031
  428MOL0     C58975   4.511  10.766  12.518  0.0394 -0.1319 -0.7659
  428MOL0     C58976   4.600  10.813  12.424  0.5384  0.0198 -0.8737
  428MOL0     N58977   5.172  10.781  12.063 -0.2792  0.5253 -0.8226
  428MOL0     N58978   5.308  10.783  12.069  0.6770  0.5121  0.5008
  428MOL0     C58979   5.991  10.871  11.412  0.0910 -1.0034 -0.9943
  428MOL0     C58980   5.978  10.977  11.313 -0.2345  0.7244 -0.3383
  428MOL0     C58981   5.941  11.400  11.150 -0.2888 -0.0113  0.6171
  428MOL0     C58982   6.030  11.396  11.039 -0.3292  0.4763 -0.9216
  428MOL0     C58983   6.023  11.476  10.933 -1.2167 -0.1858 -0.2175
  428MOL0     C58984   5.923  11.573  10.931  0.1683 -0.0858 -0.2430
  428MOL0     O58985   5.895  11.645  10.820 -0.6480  0.1615  0.1005
  428MOL0     C58986   5.949  11.776  10.832 -0.3924  0.2583  0.9261
  428MOL0     C58987   5.914  11.836  10.692 -0.4082  0.8320 -0.7636
  428MOL0     C58988   5.778  11.903  10.672 -0.0871 -0.2145 -0.1388
  428MOL0     C58989   5.763  11.955  10.531  0.6815 -0.1259 -0.3831
  428MOL0     C58990   5.742  11.847  10.436  0.2092 -0.8063  1.1248
  428MOL0     C58991   5.714  11.754  10.361  0.2636 -0.2183 -0.3768
  428MOL0     C58992   5.838  11.592  11.035 -0.6479  0.5283 -0.4286
  428MOL0     C58993   5.838  11.499  11.146 -0.6106 -1.1310  0.1554
  428MOL0     C58994   5.715  11.510  11.238 -0.6369  0.6271 -0.0684
  428MOL0     H58995   6.194  11.200  11.446 -2.6058  1.0233  0.8888
  428MOL0     H58996   6.248  11.016  11.603  0.0497 -0.0544  0.3843
  428MOL0     H58997   6.098  10.604  11.691  0.0049  2.0632  1.4480
  428MOL0     H58998   6.022  10.630  11.541  1.8456 -3.2483  0.7980
  428MOL0     H58999   5.856  10.803  11.670 -2.4489 -0.7599  0.2232
  428MOL0     H59000   5.832  10.636  11.724 -4.0701  4.2139  0.6359
  428MOL0     H59001   5.992  10.681  11.917 -0.3988  0.6015  0.3403
  428MOL0     H59002   5.998  10.849  11.857 -1.0082  1.3064  0.3169
  428MOL0     H59003   5.758  10.893  11.889  1.1677  0.3957 -0.3572
  428MOL0     H59004   5.743  10.718  11.919 -0.9065 -0.5169  3.4414
  428MOL0     H59005   5.925  10.918  12.082  1.5931 -2.3394 -0.8682
  428MOL0     H59006   5.868  10.760  12.127 -2.4562 -0.7554  0.0766
  428MOL0     H59007   5.731  10.894  12.246 -2.1633  2.7798  0.6887
  428MOL0     H59008   5.724  11.025  12.121 -1.5001 -0.4524 -0.8406
  428MOL0     H59009   5.589  10.759  12.091 -1.4520 -0.6578 -0.2011
  428MOL0     H59010   5.565  10.914  12.005 -3.5315 -1.4175  0.5834
  428MOL0     H59011   5.514  10.865  12.299 -1.9471 -2.6271 -0.6190
  428MOL0     H59012   5.479  11.017  12.230 -0.1440  0.6098  0.1641
  428MOL0     H59013   5.218  10.996  12.299 -2.8503 -2.1095  0.2927
  428MOL0     H59014   4.978  11.004  12.240 -1.7641 -1.2512  1.9253
  428MOL0     H59015   4.919  10.843  12.251 -0.5119  1.2936  0.2717
  428MOL0     H59016   4.858  11.042  12.070  0.5751  0.1111  3.8401
  428MOL0     H59017   4.986  10.980  11.980  0.7038  0.4119  1.1974
  428MOL0     H59018   4.736  10.915  11.947  1.8766  3.2895  1.8122
  428MOL0     H59019   4.840  10.767  11.939 -1.1607 -1.2855  1.1936
  428MOL0     H59020   4.638  10.719  12.066 -0.3928  0.3963  0.6887
  428MOL0     H59021   4.770  10.711  12.179  0.2201 -1.8181 -2.1604
  428MOL0     H59022   4.423  10.750  12.152  3.9450 -1.2741 -0.7726
  428MOL0     H59023   4.233  10.636  12.193  1.6305 -1.8472 -0.4429
  428MOL0     H59024   4.140  10.680  12.343  0.3757 -0.2015 -0.3875
  428MOL0     H59025   4.256  10.540  12.342  0.4271  0.8320  1.9332
  428MOL0     H59026   3.932  10.736  12.620  0.3824  0.2026 -0.1761
  428MOL0     H59027   3.778  10.692  12.806  1.5183  2.1966 -0.3145
  428MOL0     H59028   3.725  10.460  13.179  0.2906  1.0214 -0.0664
  428MOL0     H59029   3.876  10.381  13.161 -1.5646 -0.6600  0.0471
  428MOL0     H59030   3.884  10.553  13.331 -1.2989 -0.1228 -0.4583
  428MOL0     H59031   4.011  10.547  13.201  0.7499  1.3110 -0.8145
  428MOL0     H59032   3.773  10.750  13.195 -0.5561  0.9274  0.1674
  428MOL0     H59033   3.914  10.746  13.095  1.0014  3.1755  1.8241
  428MOL0     H59034   4.000  10.896  13.229  5.4876 -3.8622 -3.1112
  428MOL0     H59035   4.064  10.767  13.312  0.3042 -0.9482 -2.0008
  428MOL0     H59036   3.909  10.956  13.422  0.0551  0.2538 -2.3236
  428MOL0     H59037   3.797  10.806  13.429 -0.0653  0.3505 -1.9693
  428MOL0     H59038   4.076  10.856  13.548  0.3745 -0.2643 -0.4981
  428MOL0     H59039   4.015  10.694  13.530  0.3141 -0.2807 -0.0498
  428MOL0     H59040   3.841  10.708  13.682 -0.6927  0.2912  0.9926
  428MOL0     H59041   3.849  10.895  13.665  2.5049  1.2627 -0.9719
  428MOL0     H59042   3.946  10.833  13.886 -0.3199  0.7998 -0.2205
  428MOL0     H59043   4.080  10.884  13.784  1.8413 -1.3783 -1.4184
  428MOL0     H59044   4.054  10.406  12.973  2.0149  2.0010  4.1400
  428MOL0     H59045   4.217  10.476  12.818  0.2598  1.2201  1.6708
  428MOL0     H59046   4.563  10.760  12.613  0.7927 -3.4196 -1.2817
  428MOL0     H59047   4.695  10.848  12.463  0.0317 -0.1426  0.5837
  428MOL0     H59048   5.923  10.786  11.411 -0.2660 -0.7879  1.0609
  428MOL0     H59049   5.903  10.974  11.235 -0.0494  1.1120 -0.5368
  428MOL0     H59050   6.103  11.318  11.056  0.0320  0.9154 -0.4365
  428MOL0     H59051   6.098  11.468  10.855  0.7393 -1.1951  1.6604
  428MOL0     H59052   5.917  11.834  10.918  0.6733  2.3041  0.0127
  428MOL0     H59053   6.057  11.768  10.849 -0.4932 -0.1948  1.3785
  428MOL0     H59054   5.934  11.753  10.624 -0.5959  1.3916 -1.5178
  428MOL0     H59055   6.001  11.902  10.684  0.3478  0.0446  0.5836
  428MOL0     H59056   5.698  11.831  10.693 -0.4136 -0.6815 -2.6576
  428MOL0     H59057   5.767  11.981  10.747  2.7309  1.4839 -1.3447
  428MOL0     H59058   5.844  12.018  10.492  0.3128 -1.7019 -4.1255
  428MOL0     H59059   5.678  12.020  10.551  0.0531 -1.3305  1.0577
  428MOL0     H59060   5.688  11.684  10.284  1.9820  1.9122 -3.0950
  428MOL0     H59061   5.769  11.671  11.006  1.2393  1.9960 -1.1629
  428MOL0     H59062   5.744  11.568  11.327  2.0221 -0.4027 -0.1730
  428MOL0     H59063   5.638  11.565  11.183  0.1270  2.8767  0.9406
  428MOL0     H59064   5.686  11.410  11.270  0.8311 -0.0613 -0.8101
  429MOL0     O59065   6.035   2.175   7.988 -0.1580  0.3932 -0.6069
  429MOL0     C59066   6.077   2.121   8.087  0.4518  0.8187  0.1399
  429MOL0     O59067   6.011   2.026   8.162 -0.6050  0.1864  0.0381
  429MOL0     C59068   5.882   1.981   8.133 -0.6773 -0.6273  0.2580
  429MOL0     C59069   5.789   1.950   8.231 -0.7048  0.0835 -0.4325
  429MOL0     C59070   5.661   1.903   8.204  0.2074  0.5532  0.1557
  429MOL0     C59071   5.625   1.890   8.065  0.4153  0.2034 -0.5481
  429MOL0     O59072   5.499   1.848   8.023  0.2635 -0.1114 -0.8906
  429MOL0     C59073   5.462   1.727   8.093  0.3187  0.2201 -0.5617
  429MOL0     C59074   5.351   1.656   8.014  0.6594  0.0888 -0.0975
  429MOL0     C59075   5.212   1.720   8.046  0.0326  1.7438 -0.1625
  429MOL0     C59076   5.102   1.630   7.991 -0.0405 -0.3711 -0.3922
  429MOL0     C59077   4.967   1.693   8.027  0.3682  0.0308 -0.5116
  429MOL0     C59078   4.855   1.594   8.045 -0.1814  0.2576  0.0514
  429MOL0     C59079   4.801   1.531   7.911  0.1629  0.3879  0.0266
  429MOL0     C59080   4.679   1.443   7.923  0.2511  0.7421 -0.0672
  429MOL0     N59081   4.707   1.327   7.996  0.1232  0.9433 -0.6416
  429MOL0     C59082   4.773   1.211   7.963 -0.3943  0.2102 -1.0176
  429MOL0     C59083   4.766   1.125   8.064 -1.0956 -0.6619  0.7037
  429MOL0     C59084   4.842   0.995   8.070 -0.4726  0.5766  0.3250
  429MOL0     C59085   4.750   0.886   8.137 -0.4509 -1.2963 -0.5760
  429MOL0     C59086   4.792   0.738   8.110  0.6241 -0.3835  0.4669
  429MOL0     C59087   4.922   0.695   8.185  0.4755 -0.3406  0.1296
  429MOL0     O59088   4.884   0.573   8.261  0.0486 -0.0857 -0.2057
  429MOL0     C59089   4.982   0.479   8.269 -0.2938  1.1687  0.5776
  429MOL0     C59090   5.056   0.444   8.151  0.3316 -1.0902 -0.0313
  429MOL0     C59091   5.162   0.347   8.149 -0.4710  0.0791  0.0871
  429MOL0     C59092   5.256   0.304   8.038  0.3097 -0.1137  0.7770
  429MOL0     C59093   5.185   0.288   8.279 -0.4063 -0.4998  0.3357
  429MOL0     C59094   5.296   0.192   8.308 -0.2779  0.5399 -0.4549
  429MOL0     O59095   5.258   0.059   8.330  0.1356 -0.5197 -0.5347
  429MOL0     C59096   5.359  -0.035   8.353  0.6722  0.6623 -0.0807
  429MOL0     C59097   5.468  -0.046   8.275  1.1641  0.1918  0.0904
  429MOL0     C59098   5.567  -0.147   8.304 -0.2615 -0.9930 -0.6746
  429MOL0     C59099   5.541  -0.242   8.404 -0.3318 -0.0055  0.4603
  429MOL0     O59100   5.635  -0.339   8.428  0.0595 -0.0314  0.1214
  429MOL0     C59101   5.629  -0.410   8.558  0.3579  0.2855  0.4934
  429MOL0     C59102   5.766  -0.450   8.626  0.6494  0.9602  0.0706
  429MOL0     C59103   5.829  -0.555   8.527 -0.6168 -0.1128 -1.0422
  429MOL0     C59104   5.945  -0.622   8.600  0.0616  0.9572 -0.3897
  429MOL0     C59105   6.035  -0.708   8.519  0.3668 -0.2597 -0.3371
  429MOL0     C59106   5.964  -0.834   8.483  1.5249  0.6370  0.1790
  429MOL0     C59107   6.074  -0.938   8.464 -0.1106  0.6342  0.7174
  429MOL0     C59108   6.021  -1.075   8.419  0.1790 -0.1597 -1.0140
  429MOL0    Cl59109   5.974  -1.104   8.250  0.3249 -0.2715 -0.0471
  429MOL0     C59110   5.426  -0.225   8.479 -0.0816  0.3824  0.2198
  429MOL0     C59111   5.331  -0.133   8.450 -0.6058 -0.9730 -0.2648
  429MOL0     O59112   5.407   0.238   8.318  0.5652  0.5441  0.2160
  429MOL0     C59113   5.098   0.302   8.389 -0.5498 -0.5066 -0.8041
  429MOL0     C59114   5.010   0.408   8.383  0.0804  0.2174 -0.1694
  429MOL0     N59115   4.688   1.184   8.161  0.1627 -0.1238 -0.2610
  429MOL0     N59116   4.647   1.300   8.118  0.4827 -0.0925 -0.1273
  429MOL0     C59117   5.708   1.929   7.959 -1.0385 -0.5755  0.3098
  429MOL0     C59118   5.839   1.968   7.999  0.0777 -0.4827  0.0224
  429MOL0     C59119   6.215   2.161   8.124  0.2480  1.1002 -1.4287
  429MOL0     C59120   6.289   2.255   8.053 -0.7330 -0.9532 -0.0203
  429MOL0     C59121   6.421   2.291   8.087  0.9246  0.2750  0.9413
  429MOL0     C59122   6.482   2.233   8.197  0.1801 -0.5561  0.0182
  429MOL0     O59123   6.604   2.296   8.227  0.7927  0.3536 -0.8619
  429MOL0     C59124   6.676   2.227   8.338  0.2226  0.3644  0.3816
  429MOL0     C59125   6.818   2.274   8.335 -0.2663 -0.1408  0.0278
  429MOL0     C59126   6.919   2.195   8.414 -0.7680  0.5486 -0.3657
  429MOL0     C59127   7.071   2.235   8.382 -0.2867  0.0580  0.5676
  429MOL0     C59128   7.101   2.365   8.440  0.2606  0.9216 -0.3769
  429MOL0     C59129   7.085   2.477   8.483 -0.5467 -0.3038  0.1631
  429MOL0     C59130   6.417   2.131   8.255 -0.0442  0.5491 -0.2051
  429MOL0     C59131   6.285   2.089   8.226 -0.1539  0.4348  0.7715
  429MOL0     C59132   6.231   1.959   8.300  0.9834  0.2703  0.2607
  429MOL0     H59133   5.826   1.953   8.333 -0.6138 -2.7141 -0.3051
  429MOL0     H59134   5.587   1.878   8.279 -3.1975  3.4625 -1.9315
  429MOL0     H59135   5.418   1.749   8.191  3.0213 -0.2094  0.8371
  429MOL0     H59136   5.547   1.658   8.102 -0.1852 -0.5000 -1.1773
  429MOL0     H59137   5.361   1.668   7.906  1.1398 -2.3992 -0.3834
  429MOL0     H59138   5.355   1.551   8.046  2.5371  0.7620  2.1923
  429MOL0     H59139   5.193   1.725   8.154  0.3131  3.2887 -0.1554
  429MOL0     H59140   5.207   1.817   7.995  1.6338  2.4273  0.8912
  429MOL0     H59141   5.118   1.637   7.883 -0.0326  0.1905 -0.3612
  429MOL0     H59142   5.095   1.526   8.024  1.5675 -0.0767  1.0363
  429MOL0     H59143   4.951   1.761   7.943  2.2102 -1.1678 -1.9048
  429MOL0     H59144   4.980   1.753   8.118 -3.2971  0.7612 -0.3105
  429MOL0     H59145   4.875   1.516   8.119  3.0202  0.5360 -0.3766
  429MOL0     H59146   4.773   1.655   8.085 -3.1226 -3.4842  0.1969
  429MOL0     H59147   4.881   1.483   7.854 -0.5424  0.9481 -1.4851
  429MOL0     H59148   4.773   1.623   7.858  0.8426 -0.2149 -1.4342
  429MOL0     H59149   4.587   1.487   7.963 -0.4395 -0.8292  0.1817
  429MOL0     H59150   4.633   1.410   7.830 -1.8741  0.3532  1.0508
  429MOL0     H59151   4.840   1.198   7.879  4.6511  0.7985  2.4862
  429MOL0     H59152   4.936   1.006   8.124 -0.9127 -2.1710  1.8284
  429MOL0     H59153   4.866   0.966   7.967 -2.8296  0.3136 -0.2000
  429MOL0     H59154   4.746   0.905   8.245 -0.3964  2.3556 -1.0696
  429MOL0     H59155   4.646   0.891   8.103 -0.1156 -0.6900 -1.5710
  429MOL0     H59156   4.704   0.681   8.141 -2.2377  2.3788 -1.9684
  429MOL0     H59157   4.803   0.739   8.002 -0.8994  1.0700  0.2788
  429MOL0     H59158   4.998   0.674   8.109  0.1195  2.4865 -1.1333
  429MOL0     H59159   4.965   0.775   8.244 -1.0834  1.4395 -1.0151
  429MOL0     H59160   5.035   0.487   8.053 -1.7209 -1.0619  0.3715
  429MOL0     H59161   5.223   0.352   7.945 -0.1008 -1.1345  0.3735
  429MOL0     H59162   5.269   0.197   8.020  3.4730  0.4466 -1.0007
  429MOL0     H59163   5.356   0.346   8.054  1.1566 -1.7503  0.0499
  429MOL0     H59164   5.475   0.012   8.183  1.8743 -0.8490 -0.5397
  429MOL0     H59165   5.662  -0.149   8.251  0.0424  1.3071 -0.3255
  429MOL0     H59166   5.571  -0.361   8.637 -0.9473  1.1257 -0.9170
  429MOL0     H59167   5.570  -0.494   8.521 -0.8585  0.5597  1.7120
  429MOL0     H59168   5.835  -0.369   8.652  0.4344  1.0564  0.3622
  429MOL0     H59169   5.732  -0.502   8.716 -3.5655  1.3386 -1.1153
  429MOL0     H59170   5.854  -0.497   8.438 -0.5898 -0.6136 -1.3681
  429MOL0     H59171   5.762  -0.634   8.492  0.2930  0.1404 -3.5632
  429MOL0     H59172   5.898  -0.683   8.678  1.9057 -0.9654 -0.7063
  429MOL0     H59173   6.009  -0.544   8.642  0.9927  0.8436 -1.5331
  429MOL0     H59174   6.067  -0.644   8.436 -0.5189 -0.4336 -0.8293
  429MOL0     H59175   6.116  -0.733   8.588  1.6256  1.6114 -1.0602
  429MOL0     H59176   5.910  -0.824   8.388 -0.2052 -3.9258  0.4239
  429MOL0     H59177   5.895  -0.873   8.559 -1.9031 -1.2086 -3.5114
  429MOL0     H59178   6.126  -0.959   8.558 -0.9358 -0.0523  1.0376
  429MOL0     H59179   6.140  -0.918   8.379 -0.2204 -2.4578 -0.2120
  429MOL0     H59180   5.927  -1.091   8.473  0.5275  1.9654  0.3243
  429MOL0     H59181   6.080  -1.164   8.445 -1.1880 -1.3526 -1.7934
  429MOL0     H59182   5.392  -0.302   8.547  0.2233  0.9172  0.9940
  429MOL0     H59183   5.245  -0.118   8.515 -1.1757  0.8057 -1.3608
  429MOL0     H59184   5.102   0.233   8.473  0.4205  2.0590  1.3934
  429MOL0     H59185   4.946   0.427   8.469 -0.5247  0.1566 -0.6011
  429MOL0     H59186   5.678   1.949   7.856  1.1785 -3.7839 -1.1648
  429MOL0     H59187   5.891   1.996   7.908 -1.4721  0.1468 -0.7083
  429MOL0     H59188   6.247   2.301   7.965 -1.4713 -0.6541  0.4848
  429MOL0     H59189   6.460   2.377   8.033  1.9019 -0.1667  0.9272
  429MOL0     H59190   6.629   2.246   8.435 -0.6649 -1.8483  0.4629
  429MOL0     H59191   6.680   2.119   8.321 -1.6130  0.0251  1.8034
  429MOL0     H59192   6.814   2.379   8.365 -4.3712  0.1191 -0.7578
  429MOL0     H59193   6.852   2.257   8.232  2.1147  0.4978  0.6493
  429MOL0     H59194   6.896   2.210   8.519  0.1099  2.2339 -0.3817
  429MOL0     H59195   6.908   2.089   8.389  2.9324 -0.3083  0.9989
  429MOL0     H59196   7.090   2.229   8.274 -1.4949  2.1499  0.1940
  429MOL0     H59197   7.131   2.156   8.429  3.6952  1.1083 -2.1796
  429MOL0     H59198   7.096   2.568   8.539  2.0071 -0.6498  0.3748
  429MOL0     H59199   6.460   2.072   8.336  0.0505  1.3137  0.3127
  429MOL0     H59200   6.309   1.910   8.359  1.1256 -0.1506 -0.2708
  429MOL0     H59201   6.143   1.986   8.358 -1.1364  3.2017 -3.7962
  429MOL0     H59202   6.209   1.885   8.222  0.4662  0.0003  0.6603
  430MOL0     O59203   4.818   4.082   0.443  0.6715  0.1565  0.5276
  430MOL0     C59204   4.770   4.147   0.533 -0.1303  0.0198  0.5649
  430MOL0     O59205   4.646   4.128   0.585  0.8868 -0.3997 -0.3649
  430MOL0     C59206   4.567   4.040   0.515 -0.3552 -0.4912  0.5075
  430MOL0     C59207   4.563   3.905   0.558 -0.5185  0.6326  0.9649
  430MOL0     C59208   4.473   3.820   0.482 -0.9499 -0.2683  0.0563
  430MOL0     C59209   4.391   3.864   0.381  0.6491  0.4347 -0.1374
  430MOL0     O59210   4.301   3.768   0.338  0.1955  0.0772  0.0112
  430MOL0     C59211   4.207   3.807   0.240 -0.4731  0.5282  0.2219
  430MOL0     C59212   4.129   3.687   0.194  0.1023 -0.1495  0.0243
  430MOL0     C59213   4.058   3.601   0.292  1.0370 -0.6902 -0.2353
  430MOL0     C59214   3.950   3.678   0.381  0.6936 -0.1512  0.1210
  430MOL0     C59215   3.832   3.742   0.296  0.0176 -0.3901  0.2209
  430MOL0     C59216   3.748   3.823   0.408 -0.9048  0.4376 -0.0827
  430MOL0     C59217   3.805   3.959   0.438 -0.1038 -0.5697 -0.7488
  430MOL0     C59218   3.728   4.036   0.550  0.4262 -0.3516 -0.0893
  430MOL0     N59219   3.761   4.168   0.575  0.2808 -1.0512  0.0681
  430MOL0     C59220   3.735   4.245   0.681 -0.7465 -0.1929  0.0944
  430MOL0     C59221   3.781   4.369   0.647 -0.8390  0.9222  0.7914
  430MOL0     C59222   3.775   4.497   0.739 -1.2944  1.4068  0.1066
  430MOL0     C59223   3.904   4.520   0.824  0.5362 -0.1310 -0.0736
  430MOL0     C59224   3.904   4.656   0.894 -0.2207  0.7174 -0.0705
  430MOL0     C59225   4.029   4.661   0.983  0.2592  1.0147  0.2034
  430MOL0     O59226   4.145   4.668   0.900 -0.2618 -0.3231  0.1264
  430MOL0     C59227   4.255   4.664   0.976  0.7280  0.9082  0.1450
  430MOL0     C59228   4.283   4.728   1.097  0.2283  0.7357  0.4000
  430MOL0     C59229   4.407   4.711   1.167  0.6131 -0.3834  0.7760
  430MOL0     C59230   4.418   4.775   1.313 -0.2764 -0.2301  0.8444
  430MOL0     C59231   4.507   4.629   1.117  0.3972  0.3526  0.7787
  430MOL0     C59232   4.637   4.587   1.190  0.1815  0.9271 -0.5446
  430MOL0     O59233   4.737   4.544   1.112  0.2142 -0.5558 -1.0783
  430MOL0     C59234   4.836   4.475   1.178  0.2796  0.5055 -0.1538
  430MOL0     C59235   4.946   4.547   1.223 -0.4100  0.2907 -0.5277
  430MOL0     C59236   5.060   4.476   1.277 -0.4052  0.0831  0.0670
  430MOL0     C59237   5.054   4.336   1.292 -0.0971  0.6101 -0.1685
  430MOL0     O59238   5.154   4.261   1.354  0.9776 -0.5598  0.4498
  430MOL0     C59239   5.255   4.331   1.425 -0.0611  1.0981  0.2129
  430MOL0     C59240   5.343   4.223   1.502  0.1710 -0.0089 -0.6973
  430MOL0     C59241   5.477   4.270   1.568  0.1107  0.7517 -0.3512
  430MOL0     C59242   5.540   4.159   1.649 -0.4201 -0.7123  0.5335
  430MOL0     C59243   5.674   4.210   1.699  0.2285  0.0641  0.7454
  430MOL0     C59244   5.780   4.205   1.586  1.1459  1.0714  0.4555
  430MOL0     C59245   5.924   4.209   1.634  0.4181  1.1266  0.8649
  430MOL0     C59246   6.015   4.204   1.514 -0.2824 -0.0280 -0.9365
  430MOL0    Cl59247   6.169   4.133   1.566  0.3465  0.2911  0.6378
  430MOL0     C59248   4.941   4.272   1.245 -0.7980  0.0498 -0.3884
  430MOL0     C59249   4.841   4.338   1.169 -0.0860 -0.0697 -0.1835
  430MOL0     O59250   4.629   4.567   1.307  0.1549 -0.8297 -1.0726
  430MOL0     C59251   4.478   4.573   0.986  0.0466 -0.1627 -0.1092
  430MOL0     C59252   4.356   4.593   0.923  0.4412 -0.3562  0.0999
  430MOL0     N59253   3.829   4.363   0.518 -0.8339 -0.2523  0.3173
  430MOL0     N59254   3.829   4.241   0.480  0.9782  0.1771  0.6160
  430MOL0     C59255   4.398   3.997   0.332  0.3038  0.5240  0.0432
  430MOL0     C59256   4.490   4.081   0.404  0.1445 -0.7351  0.3904
  430MOL0     C59257   4.855   4.250   0.608 -0.4060  0.6750  0.8001
  430MOL0     C59258   4.980   4.300   0.544  0.1139  0.4347 -0.0985
  430MOL0     C59259   5.065   4.382   0.617 -0.0894 -0.8461 -0.0876
  430MOL0     C59260   5.034   4.434   0.740 -0.3273 -0.2470 -0.5470
  430MOL0     O59261   5.123   4.519   0.800 -0.8494  0.1755  0.0164
  430MOL0     C59262   5.097   4.575   0.928 -0.7632 -0.3682 -0.2730
  430MOL0     C59263   5.234   4.654   0.969  0.0092  0.3055  0.5902
  430MOL0     C59264   5.341   4.553   1.025  0.4211  0.7638  0.6942
  430MOL0     C59265   5.410   4.595   1.157  0.3446 -0.0436  0.4353
  430MOL0     C59266   5.517   4.503   1.186  0.6602 -0.1182 -0.5547
  430MOL0     C59267   5.604   4.424   1.197 -0.7557  0.4217 -0.4479
  430MOL0     C59268   4.906   4.397   0.803 -0.5276 -1.0545  0.9048
  430MOL0     C59269   4.821   4.306   0.737  0.8348  0.3719 -0.1243
  430MOL0     C59270   4.698   4.266   0.824 -0.0960 -0.4304  0.2974
  430MOL0     H59271   4.630   3.861   0.631  0.8277 -0.4178 -0.8012
  430MOL0     H59272   4.454   3.717   0.511 -0.8421 -0.3566 -0.1877
  430MOL0     H59273   4.252   3.862   0.157  1.1045 -0.3851  0.4264
  430MOL0     H59274   4.144   3.879   0.292  0.9584  1.7468  0.3469
  430MOL0     H59275   4.053   3.703   0.117 -0.1604 -2.3464 -0.2567
  430MOL0     H59276   4.195   3.616   0.143 -0.7917  0.0151 -1.4448
  430MOL0     H59277   4.015   3.519   0.234 -0.6535 -1.3273  1.7840
  430MOL0     H59278   4.133   3.552   0.353  2.8297 -0.2820 -2.0171
  430MOL0     H59279   3.912   3.602   0.449 -0.0193 -0.3365 -0.4725
  430MOL0     H59280   4.001   3.760   0.433 -2.1554  0.6372  1.8589
  430MOL0     H59281   3.757   3.678   0.250 -2.0902  2.3490 -0.4464
  430MOL0     H59282   3.878   3.809   0.223  0.1296 -0.3662  0.3134
  430MOL0     H59283   3.647   3.847   0.371 -0.7824 -1.2385 -1.6276
  430MOL0     H59284   3.749   3.762   0.498 -2.3895  1.8717  0.9818
  430MOL0     H59285   3.797   4.016   0.345  1.5110 -0.2831 -0.7511
  430MOL0     H59286   3.907   3.967   0.477 -0.3337  4.2185 -0.5629
  430MOL0     H59287   3.627   4.051   0.510  0.3568  0.4937  0.3940
  430MOL0     H59288   3.710   3.984   0.645 -1.8326  1.5204  0.5941
  430MOL0     H59289   3.697   4.222   0.780  0.4286  1.2463  0.9250
  430MOL0     H59290   3.680   4.500   0.793 -0.3906  1.6183  1.7373
  430MOL0     H59291   3.776   4.587   0.677 -0.5205  2.1913  1.2179
  430MOL0     H59292   3.931   4.445   0.898 -1.7499  1.7134  2.8840
  430MOL0     H59293   3.980   4.534   0.747 -1.0254  4.0619 -1.1418
  430MOL0     H59294   3.908   4.737   0.820  2.3162  1.2159  0.5183
  430MOL0     H59295   3.819   4.667   0.962  0.4041  1.4669  0.6142
  430MOL0     H59296   4.019   4.751   1.044 -0.9880  1.6314 -0.8600
  430MOL0     H59297   4.038   4.567   1.038  3.2680 -1.0875 -3.3837
  430MOL0     H59298   4.205   4.761   1.165 -0.9304 -4.1126  1.7970
  430MOL0     H59299   4.367   4.708   1.382  0.2873 -2.9470 -1.2167
  430MOL0     H59300   4.368   4.872   1.315  0.6211  0.2388  1.7438
  430MOL0     H59301   4.524   4.783   1.342  0.0657 -1.4500  0.0249
  430MOL0     H59302   4.943   4.655   1.211 -3.2128  0.3600  0.2141
  430MOL0     H59303   5.133   4.554   1.301 -0.4826  1.7618 -4.1840
  430MOL0     H59304   5.325   4.380   1.356  1.6374 -1.3790  0.0605
  430MOL0     H59305   5.209   4.408   1.487 -1.3714  1.5132 -1.2232
  430MOL0     H59306   5.274   4.189   1.580  0.6667  0.7655  0.1013
  430MOL0     H59307   5.383   4.152   1.428  0.6061 -0.0337 -0.4421
  430MOL0     H59308   5.448   4.358   1.627 -0.6773 -0.4591  1.1270
  430MOL0     H59309   5.543   4.300   1.486 -2.2375  4.3556 -1.1361
  430MOL0     H59310   5.555   4.072   1.585  0.2287 -0.4909  0.3814
  430MOL0     H59311   5.478   4.127   1.733 -0.4314 -2.8299 -0.2179
  430MOL0     H59312   5.658   4.312   1.735 -0.7592 -0.2212  1.1370
  430MOL0     H59313   5.704   4.149   1.784 -0.1675 -2.6395 -0.9373
  430MOL0     H59314   5.767   4.285   1.514  0.5082 -1.8259 -2.9330
  430MOL0     H59315   5.772   4.104   1.543 -1.6107  2.2445 -2.0918
  430MOL0     H59316   5.934   4.123   1.701 -1.3570 -3.4027 -3.9618
  430MOL0     H59317   5.957   4.300   1.685  4.2376 -0.7646  2.1318
  430MOL0     H59318   6.037   4.304   1.477  2.1923  0.4057  1.3999
  430MOL0     H59319   5.982   4.137   1.433  1.8529 -2.9827  0.4480
  430MOL0     H59320   4.935   4.164   1.252  3.3890 -0.3513 -0.5120
  430MOL0     H59321   4.764   4.285   1.113 -1.3377  2.2937 -0.8290
  430MOL0     H59322   4.550   4.506   0.941  0.8137  1.2815 -1.0855
  430MOL0     H59323   4.336   4.547   0.826 -4.2567 -0.3286  0.8207
  430MOL0     H59324   4.330   4.043   0.261  2.4503  2.7826 -0.6703
  430MOL0     H59325   4.501   4.187   0.381 -0.9973 -0.7695 -0.4036
  430MOL0     H59326   4.996   4.287   0.437 -0.8072  0.9311 -0.3121
  430MOL0     H59327   5.165   4.407   0.583 -0.4054  2.2915  0.8862
  430MOL0     H59328   5.019   4.652   0.921 -1.4891 -1.1160 -0.6207
  430MOL0     H59329   5.071   4.494   0.996 -0.6964 -0.7005 -0.6381
  430MOL0     H59330   5.207   4.719   1.054 -2.6238 -0.4841  0.4232
  430MOL0     H59331   5.268   4.716   0.886  1.7651 -1.0428  0.2551
  430MOL0     H59332   5.289   4.457   1.030 -0.0063  0.7755 -1.8907
  430MOL0     H59333   5.424   4.539   0.955 -2.2530 -0.9944 -2.4157
  430MOL0     H59334   5.335   4.603   1.237 -0.9003 -4.0476 -0.0920
  430MOL0     H59335   5.453   4.695   1.143 -0.9443  0.9041  2.6807
  430MOL0     H59336   5.682   4.350   1.194  0.9418  2.1057  0.1731
  430MOL0     H59337   4.873   4.433   0.900  0.1927 -2.6749  1.7863
  430MOL0     H59338   4.702   4.157   0.836  2.7000 -0.5838 -1.2104
  430MOL0     H59339   4.703   4.319   0.919 -1.4119 -1.3551  0.9187
  430MOL0     H59340   4.600   4.301   0.790  0.2134  0.6869  0.5210
  431MOL0     O59341   4.390  11.214   8.860 -0.1935 -1.0502 -0.4594
  431MOL0     C59342   4.512  11.225   8.863  0.1331  0.3029  1.0226
  431MOL0     O59343   4.589  11.335   8.906 -0.0308 -0.3435  0.2417
  431MOL0     C59344   4.525  11.429   8.969 -0.0584  0.9801  0.7336
  431MOL0     C59345   4.453  11.536   8.903 -0.0841 -0.7770 -0.2519
  431MOL0     C59346   4.394  11.646   8.985  0.1647 -0.5438  0.7646
  431MOL0     C59347   4.392  11.643   9.120 -0.6403  0.3071 -0.0497
  431MOL0     O59348   4.341  11.755   9.193 -0.3262  0.2554  1.0450
  431MOL0     C59349   4.367  11.761   9.333  0.2097  0.5133  0.5649
  431MOL0     C59350   4.391  11.908   9.380  0.7394 -0.2972  0.2334
  431MOL0     C59351   4.413  11.901   9.533 -0.2277 -0.8110 -0.0865
  431MOL0     C59352   4.557  11.925   9.581 -0.2755  0.8854  0.3176
  431MOL0     C59353   4.570  11.882   9.728 -0.0484  0.3886  1.3263
  431MOL0     C59354   4.520  11.989   9.814  0.3469 -0.0974 -0.5315
  431MOL0     C59355   4.619  12.006   9.933  0.8113  0.0794 -0.7646
  431MOL0     C59356   4.579  12.109  10.045  0.1679 -1.1166  0.1131
  431MOL0     N59357   4.686  12.126  10.140 -0.2309 -0.7000  0.3107
  431MOL0     C59358   4.704  12.030  10.233 -0.1874 -0.4574 -0.3947
  431MOL0     C59359   4.779  12.088  10.334 -0.0227 -1.3049  0.2535
  431MOL0     C59360   4.826  12.010  10.456  0.1320  0.3823 -0.5598
  431MOL0     C59361   4.778  12.053  10.597 -0.2528  0.9555 -0.3910
  431MOL0     C59362   4.838  11.969  10.708  0.3470 -0.1724  0.0990
  431MOL0     C59363   4.825  12.013  10.857  0.8035 -0.0417 -0.1388
  431MOL0     O59364   4.909  12.128  10.880 -0.4974  0.0622  0.2295
  431MOL0     C59365   5.034  12.101  10.937 -0.6651  0.3006 -0.2785
  431MOL0     C59366   5.094  11.971  10.941  0.3921  0.6948  0.3094
  431MOL0     C59367   5.228  11.949  10.985 -0.4393  0.0655  0.2981
  431MOL0     C59368   5.302  11.814  10.985  1.2257  0.1724 -0.6149
  431MOL0     C59369   5.301  12.064  11.026 -1.0023 -0.0944  0.3727
  431MOL0     C59370   5.448  12.045  11.060 -0.1443 -0.0196 -0.2119
  431MOL0     O59371   5.489  12.074  11.187  0.0026  0.1718 -0.5528
  431MOL0     C59372   5.625  12.089  11.202 -0.7067 -0.1183  0.6035
  431MOL0     C59373   5.714  11.977  11.182 -0.9508  0.2527 -0.5148
  431MOL0     C59374   5.853  12.001  11.175 -0.9230  0.1869 -1.0337
  431MOL0     C59375   5.895  12.130  11.198 -0.4423 -0.6950  0.4556
  431MOL0     O59376   6.030  12.149  11.204  0.5091  0.4676  0.5910
  431MOL0     C59377   6.077  12.223  11.313 -0.6350 -0.6619 -0.1752
  431MOL0     C59378   6.055  12.161  11.450  0.5136  0.0534 -0.7526
  431MOL0     C59379   6.140  12.042  11.499  0.0342  0.2837 -0.3938
  431MOL0     C59380   6.109  11.923  11.407  0.0774  0.0985 -0.0794
  431MOL0     C59381   6.214  11.818  11.451  0.1392  0.3976 -0.0265
  431MOL0     C59382   6.199  11.688  11.373  1.5767 -0.0307  1.3432
  431MOL0     C59383   6.292  11.575  11.415 -0.5328 -0.3579 -0.4654
  431MOL0     C59384   6.312  11.454  11.315 -1.0024 -0.4978  0.6722
  431MOL0    Cl59385   6.453  11.363  11.373 -0.0123 -0.0881 -0.1676
  431MOL0     C59386   5.811  12.237  11.240 -0.2666  0.1491  1.0316
  431MOL0     C59387   5.674  12.215  11.232  0.0139 -0.5882 -0.3232
  431MOL0     O59388   5.521  12.013  10.966  0.0375 -0.4895  0.2469
  431MOL0     C59389   5.238  12.187  11.031  0.2996  0.1255  0.0741
  431MOL0     C59390   5.107  12.207  10.986  0.4564 -0.5105  0.8234
  431MOL0     N59391   4.803  12.220  10.296  0.7539 -0.1164  0.7625
  431MOL0     N59392   4.745  12.236  10.179 -0.4545 -0.0333  0.6586
  431MOL0     C59393   4.454  11.528   9.183  0.1319 -0.2688  0.1689
  431MOL0     C59394   4.511  11.425   9.110 -0.0450 -0.4363  0.3423
  431MOL0     C59395   4.586  11.107   8.813  0.1534  0.4748 -0.1355
  431MOL0     C59396   4.705  11.144   8.740 -0.2318 -0.1796 -0.6206
  431MOL0     C59397   4.791  11.035   8.695 -0.2337  0.1665  0.6711
  431MOL0     C59398   4.752  10.905   8.708 -0.8905  0.2625 -0.7918
  431MOL0     O59399   4.841  10.815   8.668 -0.0210 -0.0284 -0.1182
  431MOL0     C59400   4.839  10.792   8.522 -0.3570  0.1538  0.3059
  431MOL0     C59401   4.967  10.704   8.483 -0.0291 -0.0104  0.6651
  431MOL0     C59402   4.996  10.584   8.562  0.4203 -0.2913  0.0653
  431MOL0     C59403   5.144  10.533   8.533 -0.5634 -0.9081 -0.6105
  431MOL0     C59404   5.136  10.465   8.402 -0.3124  0.6089 -0.3699
  431MOL0     C59405   5.139  10.413   8.293  1.6203  0.2117 -1.6452
  431MOL0     C59406   4.638  10.869   8.777  0.5957  0.2082 -0.1311
  431MOL0     C59407   4.546  10.966   8.830 -0.0934  0.4639  0.6288
  431MOL0     C59408   4.417  10.912   8.886 -0.2607  0.3526  0.3289
  431MOL0     H59409   4.478  11.537   8.797  3.2727  2.4721  0.3514
  431MOL0     H59410   4.356  11.738   8.943  1.4014 -0.9744 -1.4235
  431MOL0     H59411   4.468  11.724   9.353 -0.0098 -2.3461 -2.6822
  431MOL0     H59412   4.288  11.704   9.384  1.8071 -1.8276  0.5804
  431MOL0     H59413   4.480  11.960   9.344  0.0185 -0.0127 -1.2547
  431MOL0     H59414   4.300  11.958   9.344  1.3648  0.6162 -0.0814
  431MOL0     H59415   4.353  11.982   9.576 -0.1598 -1.7450  1.9055
  431MOL0     H59416   4.383  11.800   9.561 -0.6943 -1.9455 -4.0751
  431MOL0     H59417   4.615  11.855   9.521  2.4787  2.2181  1.2684
  431MOL0     H59418   4.586  12.028   9.556 -1.1849  0.3164 -3.8018
  431MOL0     H59419   4.676  11.871   9.751  0.5189  2.4203 -0.0030
  431MOL0     H59420   4.526  11.786   9.755 -2.5750  1.1177  0.1566
  431MOL0     H59421   4.501  12.082   9.760  1.2847  1.3806  1.5539
  431MOL0     H59422   4.420  11.966   9.854  0.0820  2.6955  0.6589
  431MOL0     H59423   4.708  12.059   9.899  1.0335 -0.9884 -1.9380
  431MOL0     H59424   4.645  11.907   9.971  0.1210 -0.8486 -2.5667
  431MOL0     H59425   4.551  12.200   9.991  1.4974  1.3524  3.2653
  431MOL0     H59426   4.494  12.074  10.104  2.2454 -0.7719  3.5817
  431MOL0     H59427   4.651  11.936  10.249  2.7106 -2.4267 -1.5173
  431MOL0     H59428   4.936  12.005  10.459  0.1577  0.9640  1.8217
  431MOL0     H59429   4.791  11.906  10.456 -1.4584  0.6067  4.8913
  431MOL0     H59430   4.798  12.159  10.611  0.0753  1.0564 -1.5224
  431MOL0     H59431   4.670  12.041  10.599 -0.0564 -1.7431  2.7553
  431MOL0     H59432   4.786  11.872  10.703 -0.8200  0.3445  1.5632
  431MOL0     H59433   4.947  11.969  10.699  0.3752  0.5766  0.4100
  431MOL0     H59434   4.723  12.050  10.871  1.1264  0.6263  0.4871
  431MOL0     H59435   4.844  11.927  10.921  2.7740 -0.3588 -1.0675
  431MOL0     H59436   5.033  11.884  10.918  3.0527 -2.0358  2.6567
  431MOL0     H59437   5.357  11.797  11.078  1.8728  0.5570 -0.9207
  431MOL0     H59438   5.375  11.800  10.904  2.0937 -0.5373  0.2744
  431MOL0     H59439   5.226  11.737  10.969  0.9039  0.9578 -3.3880
  431MOL0     H59440   5.673  11.877  11.173  0.8818 -0.9488  2.6451
  431MOL0     H59441   5.931  11.928  11.157 -1.9538 -1.3553  0.3785
  431MOL0     H59442   6.186  12.226  11.304 -0.7458  0.9121 -1.4658
  431MOL0     H59443   6.051  12.329  11.310  0.5919 -0.2933  1.1760
  431MOL0     H59444   6.085  12.241  11.519 -0.6622  0.5168 -0.7545
  431MOL0     H59445   5.949  12.139  11.461  0.3099  0.6649 -1.4046
  431MOL0     H59446   6.116  12.028  11.605 -0.2158 -0.5277 -0.5525
  431MOL0     H59447   6.245  12.071  11.490 -0.0012  0.6081  0.2085
  431MOL0     H59448   6.138  11.955  11.307 -1.1722  2.7728  0.3235
  431MOL0     H59449   6.007  11.885  11.407 -1.2720  3.2752  2.2271
  431MOL0     H59450   6.320  11.843  11.436  0.2709 -1.3280 -2.4537
  431MOL0     H59451   6.203  11.793  11.557 -0.4586 -0.3713 -0.2695
  431MOL0     H59452   6.209  11.721  11.269 -1.2682 -0.3056  0.8889
  431MOL0     H59453   6.097  11.650  11.365  0.9906  1.7817 -1.1035
  431MOL0     H59454   6.260  11.534  11.511 -1.4314  0.2926 -0.4712
  431MOL0     H59455   6.393  11.615  11.431 -0.4732 -1.3372  1.9651
  431MOL0     H59456   6.321  11.488  11.212 -3.9339 -0.3911  0.3732
  431MOL0     H59457   6.223  11.391  11.311 -3.0025  2.1116  1.0695
  431MOL0     H59458   5.847  12.338  11.256  1.3243 -0.7432  3.7065
  431MOL0     H59459   5.613  12.303  11.251  0.1325 -0.6911  0.5828
  431MOL0     H59460   5.292  12.278  11.060 -1.3017  1.2373 -0.3209
  431MOL0     H59461   5.074  12.309  10.973 -0.2044 -0.8939 -0.7011
  431MOL0     H59462   4.463  11.519   9.291 -0.9199 -0.1418  0.2744
  431MOL0     H59463   4.568  11.351   9.166  0.4248 -0.3400 -0.0062
  431MOL0     H59464   4.731  11.247   8.720  0.8665 -0.9352 -3.6644
  431MOL0     H59465   4.874  11.058   8.629  0.1202 -0.3395  0.9418
  431MOL0     H59466   4.744  10.747   8.494  0.6447 -1.2037 -1.1170
  431MOL0     H59467   4.837  10.886   8.466 -1.5439 -0.7749 -1.2920
  431MOL0     H59468   5.054  10.770   8.493 -0.1590  0.0683  1.3422
  431MOL0     H59469   4.963  10.668   8.380  0.2027 -1.0342  1.0034
  431MOL0     H59470   4.983  10.613   8.667 -0.4591 -0.5891  0.0419
  431MOL0     H59471   4.921  10.508   8.541  0.6962 -0.7591  0.7567
  431MOL0     H59472   5.166  10.466   8.617  2.8579 -1.7840 -2.0398
  431MOL0     H59473   5.219  10.610   8.518 -0.8037 -0.7253 -0.8806
  431MOL0     H59474   5.149  10.375   8.193 -2.1587  1.2659 -2.5885
  431MOL0     H59475   4.618  10.763   8.791 -3.8325  0.9627  0.6462
  431MOL0     H59476   4.341  10.931   8.810 -0.6585 -1.0428  0.3691
  431MOL0     H59477   4.416  10.803   8.892  0.6539  0.3698  1.1126
  431MOL0     H59478   4.390  10.958   8.982 -0.4300  1.4218 -0.2163
  432MOL0     O59479   8.816   1.647   4.001 -0.3563 -0.3618 -1.0880
  432MOL0     C59480   8.872   1.542   4.037 -0.5409  0.3505 -0.5402
  432MOL0     O59481   8.803   1.432   4.084  0.5418 -0.4618 -0.6835
  432MOL0     C59482   8.680   1.395   4.031 -0.3739  0.2115 -1.1105
  432MOL0     C59483   8.634   1.440   3.904 -0.4075  0.1868 -1.1353
  432MOL0     C59484   8.511   1.398   3.854  0.7986  0.2414 -0.2180
  432MOL0     C59485   8.441   1.303   3.927  0.5737 -0.7482 -0.1198
  432MOL0     O59486   8.319   1.254   3.891  0.3900 -1.0259 -0.2191
  432MOL0     C59487   8.254   1.313   3.775 -1.0202  0.7574 -0.0060
  432MOL0     C59488   8.119   1.248   3.741  0.0164  0.0930 -0.1308
  432MOL0     C59489   8.102   1.102   3.771  1.1270 -0.5494 -0.4181
  432MOL0     C59490   7.991   1.024   3.683 -0.2314  0.0404  0.5532
  432MOL0     C59491   8.017   0.874   3.681  0.5188 -0.1156  0.6113
  432MOL0     C59492   7.904   0.801   3.593 -0.6692  0.4850  0.1159
  432MOL0     C59493   7.949   0.660   3.550  0.1734  1.1187  0.4302
  432MOL0     C59494   7.915   0.548   3.662 -0.7397  0.0987  0.2688
  432MOL0     N59495   7.904   0.415   3.604 -0.1800  0.3228  1.0671
  432MOL0     C59496   8.008   0.343   3.535  0.2830  0.2412 -0.6882
  432MOL0     C59497   7.945   0.229   3.499  0.0547  0.3408  1.2809
  432MOL0     C59498   7.995   0.109   3.428 -0.2997 -0.2470  1.0166
  432MOL0     C59499   8.103   0.024   3.506 -0.6752 -0.0155 -0.6990
  432MOL0     C59500   8.021  -0.031   3.626 -0.6644 -0.5837 -0.5314
  432MOL0     C59501   8.127  -0.104   3.710 -0.3657  0.2622 -0.3122
  432MOL0     O59502   8.072  -0.155   3.836  0.2910  0.0698  0.0197
  432MOL0     C59503   7.982  -0.264   3.826 -0.5454 -0.5915  0.1864
  432MOL0     C59504   8.037  -0.387   3.843 -0.0810  0.0438  0.1296
  432MOL0     C59505   7.953  -0.506   3.846  0.0056  0.7396  0.2370
  432MOL0     C59506   8.029  -0.642   3.846  0.6158  0.7417 -0.2130
  432MOL0     C59507   7.810  -0.487   3.839  0.2648  0.9733 -0.7758
  432MOL0     C59508   7.706  -0.592   3.852  0.7117 -0.3209  0.6387
  432MOL0     O59509   7.581  -0.556   3.824 -0.1717 -0.1804  0.1733
  432MOL0     C59510   7.487  -0.650   3.836 -0.3646  0.1206  0.1882
  432MOL0     C59511   7.435  -0.706   3.717  0.3634  0.3450 -0.1298
  432MOL0     C59512   7.333  -0.802   3.732 -0.0487 -0.4588  0.7292
  432MOL0     C59513   7.279  -0.836   3.857 -0.3126  0.2117  0.0346
  432MOL0     O59514   7.191  -0.938   3.888 -0.2906 -0.2830 -0.0737
  432MOL0     C59515   7.126  -0.990   3.774 -0.1214  0.4150  0.2801
  432MOL0     C59516   7.026  -1.100   3.816  0.6003  1.4101  0.6453
  432MOL0     C59517   6.965  -1.177   3.696 -0.5476 -0.2207 -0.4451
  432MOL0     C59518   6.826  -1.117   3.664  1.1599  0.3283  0.6783
  432MOL0     C59519   6.741  -1.223   3.585  0.1001 -0.4389  0.5420
  432MOL0     C59520   6.592  -1.206   3.542  0.3956  0.3615  1.1395
  432MOL0     C59521   6.517  -1.303   3.446 -0.7460  0.1749 -0.7240
  432MOL0     C59522   6.528  -1.453   3.471  0.5756  0.1408 -0.4954
  432MOL0    Cl59523   6.391  -1.532   3.370 -0.0174 -0.0257 -0.2783
  432MOL0     C59524   7.339  -0.778   3.973  0.2394  0.0203  0.6576
  432MOL0     C59525   7.441  -0.688   3.963  0.6823 -0.5639 -1.1305
  432MOL0     O59526   7.741  -0.701   3.891 -0.1074  0.3281 -0.6109
  432MOL0     C59527   7.758  -0.355   3.815  1.1192  0.6594 -0.9036
  432MOL0     C59528   7.846  -0.247   3.810  0.1235 -0.6953  0.1340
  432MOL0     N59529   7.810   0.239   3.529 -0.5806  0.1744  0.7440
  432MOL0     N59530   7.791   0.352   3.586 -0.8882  0.3294 -0.7313
  432MOL0     C59531   8.489   1.255   4.048  0.2923  0.3502 -0.7080
  432MOL0     C59532   8.605   1.303   4.105 -0.5259  0.6307 -0.1444
  432MOL0     C59533   9.017   1.554   4.061  0.0355  0.6703  1.0989
  432MOL0     C59534   9.071   1.533   4.191  0.0239 -0.4615  0.0875
  432MOL0     C59535   9.204   1.559   4.214 -0.0194  0.0931  0.4003
  432MOL0     C59536   9.290   1.599   4.118  0.4224  0.0178 -0.8134
  432MOL0     O59537   9.415   1.612   4.170  0.3018 -0.2888 -0.6848
  432MOL0     C59538   9.493   1.715   4.130 -1.0865 -0.5215 -0.6060
  432MOL0     C59539   9.570   1.760   4.257  0.0453 -1.2225  0.5453
  432MOL0     C59540   9.672   1.871   4.203  0.0161  0.6497 -0.8723
  432MOL0     C59541   9.778   1.916   4.313 -0.2302  0.6154  0.4167
  432MOL0     C59542   9.846   2.043   4.285  0.2364  0.4170 -0.0715
  432MOL0     C59543   9.886   2.154   4.266 -0.4871 -0.1079 -0.1476
  432MOL0     C59544   9.241   1.615   3.982 -1.1028  0.2236 -0.4016
  432MOL0     C59545   9.104   1.599   3.949 -2.0219 -0.1762  0.2692
  432MOL0     C59546   9.056   1.638   3.814  0.0396  0.2524  0.1566
  432MOL0     H59547   8.690   1.511   3.845 -1.2401  0.7075 -1.3116
  432MOL0     H59548   8.474   1.454   3.768 -1.1286  2.3783  1.8209
  432MOL0     H59549   8.312   1.323   3.683 -1.5822  2.0983 -0.2395
  432MOL0     H59550   8.234   1.418   3.800  1.0276  1.5235 -1.3199
  432MOL0     H59551   8.043   1.296   3.804  0.8176  0.0721  0.8885
  432MOL0     H59552   8.089   1.264   3.638 -1.3929  1.9239  0.5152
  432MOL0     H59553   8.202   1.063   3.748  1.5156  1.9074 -3.5356
  432MOL0     H59554   8.096   1.089   3.879  1.4023  1.6068 -0.0826
  432MOL0     H59555   7.896   1.048   3.732 -0.7520 -3.6054  1.5723
  432MOL0     H59556   7.973   1.073   3.587 -0.9923  2.0556  1.6658
  432MOL0     H59557   8.012   0.835   3.783 -0.3664 -1.1737  0.1959
  432MOL0     H59558   8.117   0.847   3.645 -0.4427 -1.0104 -1.5819
  432MOL0     H59559   7.814   0.798   3.655 -0.8978 -0.7190 -0.2510
  432MOL0     H59560   7.899   0.854   3.497  2.0274 -1.8946 -1.4572
  432MOL0     H59561   8.053   0.666   3.519 -0.6806  2.7943 -2.5318
  432MOL0     H59562   7.902   0.628   3.457  0.6530  0.3499  0.4466
  432MOL0     H59563   7.984   0.545   3.747  0.4529  0.1565 -0.6839
  432MOL0     H59564   7.815   0.565   3.704 -2.1741 -2.8915 -1.5998
  432MOL0     H59565   8.110   0.373   3.514  0.7003 -1.6149 -1.5764
  432MOL0     H59566   8.045   0.125   3.332  0.0724 -1.6234  0.9568
  432MOL0     H59567   7.912   0.042   3.405 -0.1371 -1.3749  3.4287
  432MOL0     H59568   8.150  -0.058   3.452 -3.4862 -2.9501  0.9470
  432MOL0     H59569   8.183   0.089   3.542  1.4558 -2.7420 -0.2052
  432MOL0     H59570   7.983   0.048   3.691 -0.5616 -0.7569 -0.2574
  432MOL0     H59571   7.942  -0.102   3.600 -1.2498  0.5727 -2.0301
  432MOL0     H59572   8.157  -0.192   3.651  0.2661  2.4521 -3.4768
  432MOL0     H59573   8.205  -0.032   3.738 -0.7235  1.2918 -1.8722
  432MOL0     H59574   8.145  -0.390   3.856  0.9504  1.3427 -5.6465
  432MOL0     H59575   8.137  -0.631   3.846  0.7419 -0.3699  0.0662
  432MOL0     H59576   8.007  -0.699   3.755  2.7053  1.9532 -1.5732
  432MOL0     H59577   8.005  -0.702   3.934  3.6735  0.8284  0.7799
  432MOL0     H59578   7.466  -0.686   3.615  0.1593  2.7212  0.2276
  432MOL0     H59579   7.290  -0.850   3.645  0.5763 -0.5851  0.4856
  432MOL0     H59580   7.063  -0.914   3.726 -1.1050 -1.2697 -1.2567
  432MOL0     H59581   7.192  -1.034   3.698 -2.4247  3.9424 -4.2812
  432MOL0     H59582   7.063  -1.169   3.893  3.3375  1.9969 -0.0519
  432MOL0     H59583   6.939  -1.054   3.864 -2.9823 -0.5678 -3.2386
  432MOL0     H59584   6.955  -1.285   3.713  2.2639 -1.2694 -4.0519
  432MOL0     H59585   7.031  -1.170   3.609  0.1329 -0.8080  0.0126
  432MOL0     H59586   6.840  -1.025   3.606  1.5740  0.2222  0.6134
  432MOL0     H59587   6.762  -1.085   3.748  0.3865  0.5544  0.0163
  432MOL0     H59588   6.792  -1.235   3.489  1.0803  1.1015  0.8207
  432MOL0     H59589   6.745  -1.318   3.640 -0.4442 -0.0731  1.2353
  432MOL0     H59590   6.592  -1.111   3.488 -0.2422  1.9980  3.8114
  432MOL0     H59591   6.530  -1.182   3.629 -0.3175  0.0532  0.7229
  432MOL0     H59592   6.542  -1.286   3.341  1.6648 -2.4240 -0.7083
  432MOL0     H59593   6.414  -1.270   3.461  0.1658  2.4471  1.3323
  432MOL0     H59594   6.522  -1.476   3.578 -0.1116  0.0977 -0.5399
  432MOL0     H59595   6.628  -1.490   3.445  0.3375  0.0527 -1.3058
  432MOL0     H59596   7.295  -0.826   4.059  0.5138 -0.7634  0.3757
  432MOL0     H59597   7.496  -0.678   4.057 -0.2486  1.6490 -0.7470
  432MOL0     H59598   7.651  -0.334   3.815  0.4430 -2.2565  0.3503
  432MOL0     H59599   7.798  -0.150   3.808 -0.3576 -0.9220 -1.9900
  432MOL0     H59600   8.433   1.176   4.096 -1.5290  1.2221 -1.3202
  432MOL0     H59601   8.635   1.246   4.193  0.4670 -2.1215 -2.1148
  432MOL0     H59602   9.011   1.497   4.273  2.5680 -0.7180  1.9425
  432MOL0     H59603   9.243   1.557   4.316  2.1637  0.6779 -0.3777
  432MOL0     H59604   9.568   1.679   4.058  2.2982  0.8527  1.9609
  432MOL0     H59605   9.442   1.800   4.083 -3.0781 -2.5316 -2.2884
  432MOL0     H59606   9.631   1.680   4.299  1.5623 -0.4413 -0.0878
  432MOL0     H59607   9.498   1.796   4.332  1.2136 -1.1540  1.6755
  432MOL0     H59608   9.720   1.820   4.119 -0.4443  0.8922 -1.2901
  432MOL0     H59609   9.618   1.959   4.167  1.8501  1.1281 -2.5824
  432MOL0     H59610   9.850   1.838   4.340 -1.2638 -0.1055  1.1710
  432MOL0     H59611   9.719   1.951   4.398 -0.9741 -0.1143  0.2222
  432MOL0     H59612   9.922   2.252   4.244  1.9437 -1.2371 -1.5888
  432MOL0     H59613   9.324   1.637   3.916  0.6804  0.3674  1.7962
  432MOL0     H59614   9.123   1.627   3.728  0.7985 -0.7686  0.8570
  432MOL0     H59615   8.973   1.577   3.776  0.2441 -0.1351  0.3236
  432MOL0     H59616   9.006   1.735   3.811 -1.7690 -0.5729  1.1157
  433MOL0     O59617   7.295   9.889   8.137 -0.7916  0.5630  0.7067
  433MOL0     C59618   7.306   9.765   8.099  0.2784  0.1322 -0.6270
  433MOL0     O59619   7.338   9.726   7.974 -0.2358  0.1556 -0.9507
  433MOL0     C59620   7.403   9.824   7.903 -0.5228  0.2031 -0.7507
  433MOL0     C59621   7.542   9.833   7.907  0.1424  0.2403  0.2553
  433MOL0     C59622   7.609   9.930   7.840 -0.3131 -0.3814  0.0533
  433MOL0     C59623   7.540  10.022   7.757  1.1906 -1.0841 -1.3188
  433MOL0     O59624   7.593  10.117   7.680  0.6251 -0.6308  0.2784
  433MOL0     C59625   7.663  10.216   7.755 -0.0998  0.2997  0.7636
  433MOL0     C59626   7.665  10.336   7.657  0.0628  0.2126 -0.2933
  433MOL0     C59627   7.545  10.434   7.684 -0.5231 -0.5477  0.3181
  433MOL0     C59628   7.408  10.368   7.658 -0.0888 -0.4070  0.0447
  433MOL0     C59629   7.394  10.314   7.505 -0.3978 -0.1346  0.4990
  433MOL0     C59630   7.248  10.271   7.494  0.1329  0.8320  0.3596
  433MOL0     C59631   7.202  10.213   7.358  0.7440  0.8689 -0.3935
  433MOL0     C59632   7.191  10.325   7.248 -0.3783  0.7057 -0.5648
  433MOL0     N59633   7.143  10.251   7.127  0.2796  0.1606 -0.3673
  433MOL0     C59634   7.012  10.257   7.091  0.7525 -0.2054  0.3268
  433MOL0     C59635   7.012  10.238   6.949 -0.1106 -0.7316 -0.2959
  433MOL0     C59636   6.886  10.249   6.861  1.0424  0.5846  0.0819
  433MOL0     C59637   6.816  10.124   6.838  0.8397 -0.1004  0.2693
  433MOL0     C59638   6.869  10.023   6.731 -0.0491 -0.1467 -0.1620
  433MOL0     C59639   6.939   9.902   6.804 -0.8136 -0.0993  0.4550
  433MOL0     O59640   7.001   9.815   6.709  0.8251  0.1324  0.0476
  433MOL0     C59641   6.957   9.685   6.686 -0.4871  0.1694  1.5800
  433MOL0     C59642   6.859   9.607   6.755 -0.2445 -0.9915  0.7470
  433MOL0     C59643   6.816   9.483   6.717 -0.3123 -0.6669 -0.0141
  433MOL0     C59644   6.700   9.424   6.793 -0.0580 -0.4199  0.4683
  433MOL0     C59645   6.881   9.415   6.614 -1.0467  0.9645 -0.9057
  433MOL0     C59646   6.835   9.283   6.561 -0.0277 -0.4923  0.9389
  433MOL0     O59647   6.819   9.270   6.421 -0.2276  0.7766  0.0250
  433MOL0     C59648   6.785   9.146   6.367 -0.2373 -0.3483 -0.4363
  433MOL0     C59649   6.667   9.085   6.403 -0.1924 -0.1085  0.5037
  433MOL0     C59650   6.635   8.955   6.356 -0.6123  0.6839  0.1079
  433MOL0     C59651   6.734   8.878   6.282  0.2641 -0.3138 -0.4507
  433MOL0     O59652   6.722   8.747   6.224  0.3903 -0.0927  0.0846
  433MOL0     C59653   6.636   8.647   6.269  0.6702  0.2664  0.2781
  433MOL0     C59654   6.642   8.529   6.169 -0.1293 -0.3569 -0.6924
  433MOL0     C59655   6.522   8.441   6.194 -0.3532  0.0631  0.4130
  433MOL0     C59656   6.549   8.310   6.137  0.1086 -0.1177  0.1429
  433MOL0     C59657   6.441   8.218   6.193  0.6322 -1.4790  0.0286
  433MOL0     C59658   6.455   8.072   6.134  0.1918  0.1692 -0.2793
  433MOL0     C59659   6.320   8.014   6.089  0.4999 -0.6756 -0.4532
  433MOL0     C59660   6.325   7.859   6.095 -0.4015 -0.3537 -0.2860
  433MOL0    Cl59661   6.453   7.800   5.976 -0.3484  0.3640  0.3644
  433MOL0     C59662   6.860   8.948   6.249  0.4953 -1.2692  0.9306
  433MOL0     C59663   6.883   9.079   6.300  0.4228  0.2443  0.2945
  433MOL0     O59664   6.819   9.188   6.637  0.4558 -0.4562  0.0475
  433MOL0     C59665   6.985   9.487   6.540 -0.4691  1.2439  0.2493
  433MOL0     C59666   7.015   9.624   6.574  0.1226  0.6468 -0.0892
  433MOL0     N59667   7.145  10.212   6.910 -0.7508  0.1143  0.6734
  433MOL0     N59668   7.223  10.231   7.021  0.3104 -0.4159  0.5434
  433MOL0     C59669   7.398  10.012   7.750  0.0140  0.1331 -1.2883
  433MOL0     C59670   7.336   9.907   7.820 -0.3431 -0.7586 -0.1311
  433MOL0     C59671   7.299   9.654   8.194 -0.6901  0.0572 -0.1035
  433MOL0     C59672   7.289   9.525   8.136 -0.9605  0.0843 -0.1503
  433MOL0     C59673   7.294   9.410   8.210  0.8530 -0.1304  0.2056
  433MOL0     C59674   7.264   9.415   8.343  0.1478 -0.4306 -0.5247
  433MOL0     O59675   7.249   9.291   8.404 -0.3315 -0.8605 -0.7294
  433MOL0     C59676   7.139   9.287   8.502  0.0732  0.5266  0.4593
  433MOL0     C59677   7.125   9.132   8.520  0.1221  0.5709  0.8259
  433MOL0     C59678   7.052   9.075   8.394 -0.4129 -0.6847  1.1079
  433MOL0     C59679   7.009   8.928   8.403 -0.3186  1.1489 -0.0818
  433MOL0     C59680   7.116   8.842   8.458 -0.0017  0.2790  0.2202
  433MOL0     C59681   7.195   8.770   8.508 -0.2426 -0.4124  0.5440
  433MOL0     C59682   7.260   9.540   8.414  0.1555  0.1158 -0.4463
  433MOL0     C59683   7.276   9.661   8.340  0.1479  0.1167  0.8051
  433MOL0     C59684   7.278   9.795   8.423 -0.3465  0.4992 -0.8601
  433MOL0     H59685   7.593   9.754   7.961 -1.0519  0.2767  1.4962
  433MOL0     H59686   7.716   9.912   7.833 -0.0025  1.2963  0.0527
  433MOL0     H59687   7.755  10.156   7.751 -1.2697 -1.5626 -2.8434
  433MOL0     H59688   7.637  10.231   7.860  3.0792 -1.4823  1.9450
  433MOL0     H59689   7.763  10.381   7.675  1.7075 -3.1379 -0.0713
  433MOL0     H59690   7.671  10.310   7.551 -0.7531  1.6670 -0.7123
  433MOL0     H59691   7.552  10.468   7.788 -2.5441 -1.3775  0.7856
  433MOL0     H59692   7.560  10.528   7.631  3.8438 -0.1028  1.9293
  433MOL0     H59693   7.400  10.280   7.724  3.5363 -0.8823  0.0669
  433MOL0     H59694   7.343  10.450   7.690  2.0910  2.2284 -1.8227
  433MOL0     H59695   7.463  10.233   7.480  1.3638  0.6620  2.4636
  433MOL0     H59696   7.411  10.396   7.435 -0.5560 -0.2021  0.3814
  433MOL0     H59697   7.222  10.188   7.561  0.9972  1.3646  1.3746
  433MOL0     H59698   7.189  10.361   7.514 -0.1376  1.2102 -1.8152
  433MOL0     H59699   7.101  10.172   7.366  1.1892  0.0989  2.0918
  433MOL0     H59700   7.271  10.130   7.339  0.2291  0.5621 -0.9499
  433MOL0     H59701   7.113  10.391   7.288 -0.3484 -0.6180  1.8600
  433MOL0     H59702   7.286  10.377   7.232  1.1674 -1.0626  2.0835
  433MOL0     H59703   6.925  10.283   7.150 -1.0626 -1.4809 -1.6404
  433MOL0     H59704   6.901  10.303   6.768  0.7600  0.6980  0.1007
  433MOL0     H59705   6.817  10.314   6.916  2.5168  1.4037  1.0609
  433MOL0     H59706   6.802  10.069   6.932 -2.0211 -1.6151 -0.9078
  433MOL0     H59707   6.721  10.151   6.791  2.1301  1.0310 -1.8473
  433MOL0     H59708   6.783   9.992   6.671 -0.5025  1.4307 -0.3656
  433MOL0     H59709   6.942  10.061   6.660 -0.0608 -0.1162 -0.1581
  433MOL0     H59710   7.020   9.943   6.865 -1.1108 -0.8726  1.3893
  433MOL0     H59711   6.868   9.859   6.875 -1.4714  0.6821  0.2884
  433MOL0     H59712   6.813   9.654   6.841  2.4132 -1.1438  2.3630
  433MOL0     H59713   6.740   9.343   6.856 -0.2276 -1.7388 -1.0466
  433MOL0     H59714   6.624   9.378   6.729 -2.6694  0.9884  2.3927
  433MOL0     H59715   6.648   9.503   6.846  3.5732  2.1714  0.5545
  433MOL0     H59716   6.600   9.138   6.470  1.6136  0.9044  1.5738
  433MOL0     H59717   6.536   8.915   6.376 -0.4318  0.3020  0.2572
  433MOL0     H59718   6.666   8.611   6.368  4.4926  0.2206 -0.7345
  433MOL0     H59719   6.535   8.687   6.257  0.8257  0.0109 -2.3441
  433MOL0     H59720   6.639   8.559   6.064  1.2547 -1.6376 -1.1383
  433MOL0     H59721   6.741   8.482   6.179 -0.4582 -1.6862 -3.0466
  433MOL0     H59722   6.436   8.484   6.143  0.5562  0.4262 -0.8784
  433MOL0     H59723   6.520   8.430   6.303 -1.9745  2.2765  0.6686
  433MOL0     H59724   6.648   8.275   6.168  0.2685 -2.1683 -2.3629
  433MOL0     H59725   6.556   8.322   6.028  0.5632  0.0071  0.1836
  433MOL0     H59726   6.441   8.215   6.302 -0.1478 -2.2476  0.0175
  433MOL0     H59727   6.342   8.257   6.166  0.7241 -1.9262 -0.9844
  433MOL0     H59728   6.493   8.013   6.218  2.9009  1.9318 -0.1505
  433MOL0     H59729   6.524   8.074   6.049 -0.4590  5.6490 -1.0489
  433MOL0     H59730   6.272   8.061   6.002  0.1917  0.1013  0.1303
  433MOL0     H59731   6.251   8.040   6.169 -2.3191  0.2782 -2.9796
  433MOL0     H59732   6.227   7.821   6.065 -1.6550  1.8844  0.6694
  433MOL0     H59733   6.348   7.823   6.196  0.0205  1.2750  0.2386
  433MOL0     H59734   6.931   8.898   6.185 -1.1044 -2.5316  0.0509
  433MOL0     H59735   6.977   9.126   6.273  0.1293  0.8151  0.2316
  433MOL0     H59736   7.046   9.436   6.466  1.8412 -0.1367  2.9097
  433MOL0     H59737   7.090   9.683   6.522  0.0568  1.6162  0.8695
  433MOL0     H59738   7.328  10.075   7.694 -1.8941 -0.8960 -0.1864
  433MOL0     H59739   7.229   9.921   7.806  0.2935  3.0304 -2.6638
  433MOL0     H59740   7.308   9.513   8.029 -1.4795 -1.0632 -0.1248
  433MOL0     H59741   7.303   9.319   8.152 -1.6290 -0.0282 -0.4568
  433MOL0     H59742   7.149   9.329   8.603  0.6903  2.4458 -0.3598
  433MOL0     H59743   7.051   9.331   8.455  1.2725  0.5636 -1.9057
  433MOL0     H59744   7.066   9.113   8.610 -1.4445 -1.8881 -0.5952
  433MOL0     H59745   7.219   9.081   8.545 -0.9330 -2.8005 -1.3664
  433MOL0     H59746   6.968   9.139   8.368 -0.1371  0.5264  3.0674
  433MOL0     H59747   7.124   9.079   8.311  0.7239 -2.2020  1.9791
  433MOL0     H59748   6.982   8.905   8.299 -2.7690  0.4953  0.6439
  433MOL0     H59749   6.924   8.938   8.471 -0.8160 -0.6481 -0.3891
  433MOL0     H59750   7.261   8.698   8.552  2.5453  0.8624 -1.2901
  433MOL0     H59751   7.248   9.537   8.522  3.9231 -3.3921  0.0977
  433MOL0     H59752   7.221   9.875   8.377  2.8286  2.0854 -2.3695
  433MOL0     H59753   7.232   9.774   8.520 -0.0814 -0.5475 -0.9492
  433MOL0     H59754   7.383   9.822   8.440  0.0836 -1.1236 -0.7171
  434MOL0     O59755   9.642   7.404   5.962  0.2185  0.4020 -0.3549
  434MOL0     C59756   9.750   7.447   5.919 -0.3116  0.9863  0.4649
  434MOL0     O59757   9.851   7.488   5.993 -0.2107  0.7007  0.1166
  434MOL0     C59758   9.849   7.473   6.133  0.6232  0.6283  0.0691
  434MOL0     C59759   9.828   7.582   6.212 -0.8804 -0.3510  1.3471
  434MOL0     C59760   9.809   7.568   6.347  0.2960 -0.9883 -0.5571
  434MOL0     C59761   9.795   7.451   6.411 -1.0154  0.7259 -0.1664
  434MOL0     O59762   9.796   7.431   6.546  1.0858 -1.0226  0.3897
  434MOL0     C59763   9.828   7.534   6.649  0.4927  0.7593  0.2361
  434MOL0     C59764   9.885   7.466   6.771  0.2301 -0.3843 -0.1558
  434MOL0     C59765   9.796   7.352   6.829 -0.7456  0.0566 -0.1435
  434MOL0     C59766   9.859   7.301   6.958  0.6557  0.0152 -0.3249
  434MOL0     C59767   9.789   7.182   7.010  0.5040  1.1330 -0.2432
  434MOL0     C59768   9.635   7.194   7.024 -0.3104  0.3496 -0.3069
  434MOL0     C59769   9.589   7.292   7.134 -1.2876  0.5533  1.0384
  434MOL0     C59770   9.443   7.290   7.136  0.2324  0.1706 -1.1376
  434MOL0     N59771   9.374   7.362   7.243  0.5827 -0.2463 -0.9775
  434MOL0     C59772   9.379   7.503   7.268 -0.4820 -0.0824 -0.1639
  434MOL0     C59773   9.285   7.524   7.370 -1.0353  0.7434  1.0100
  434MOL0     C59774   9.258   7.670   7.409 -0.4807  0.1015 -0.1721
  434MOL0     C59775   9.342   7.722   7.524  0.8937 -0.8255 -0.3897
  434MOL0     C59776   9.294   7.666   7.664  0.0751  0.4681  0.2616
  434MOL0     C59777   9.233   7.767   7.757 -0.2135  0.6568  0.2910
  434MOL0     O59778   9.114   7.816   7.692  0.4570  0.9279 -0.7860
  434MOL0     C59779   9.003   7.740   7.738  0.2740 -0.1506  0.4330
  434MOL0     C59780   8.941   7.648   7.656 -0.1136  0.5104 -0.0816
  434MOL0     C59781   8.829   7.586   7.699  1.0726 -0.4018 -0.6990
  434MOL0     C59782   8.780   7.477   7.606  0.2679 -0.5991  0.0003
  434MOL0     C59783   8.781   7.602   7.837  0.4859 -0.7586  0.1415
  434MOL0     C59784   8.670   7.527   7.888  0.6062  0.0247  0.3893
  434MOL0     O59785   8.580   7.586   7.976 -0.3823  0.7718 -0.4203
  434MOL0     C59786   8.448   7.541   7.998  0.2751 -0.0256  0.1769
  434MOL0     C59787   8.372   7.458   7.914  0.3935 -0.5675  0.2026
  434MOL0     C59788   8.244   7.412   7.943  0.6135 -0.7922 -1.0042
  434MOL0     C59789   8.195   7.452   8.072 -0.5800 -0.4673 -0.2944
  434MOL0     O59790   8.068   7.424   8.120 -0.4133  0.1910 -0.0209
  434MOL0     C59791   8.022   7.291   8.109  0.0339 -0.1849 -1.0290
  434MOL0     C59792   7.881   7.301   8.173  0.4643  0.3800 -0.1605
  434MOL0     C59793   7.817   7.160   8.198  0.0087 -0.0524  0.4375
  434MOL0     C59794   7.680   7.167   8.277  0.1760  0.5658 -0.2196
  434MOL0     C59795   7.638   7.024   8.329 -0.2406 -0.1798 -0.1517
  434MOL0     C59796   7.482   7.029   8.353  0.4834 -0.5393 -0.1354
  434MOL0     C59797   7.429   6.906   8.429 -0.0523  0.1523 -0.2929
  434MOL0     C59798   7.448   6.768   8.365 -0.8902  0.4460  0.1626
  434MOL0    Cl59799   7.308   6.662   8.406 -0.1764 -0.1192  0.0462
  434MOL0     C59800   8.273   7.533   8.159 -0.7004  0.8082 -1.0710
  434MOL0     C59801   8.394   7.591   8.114 -0.0230 -0.5576 -0.0621
  434MOL0     O59802   8.672   7.408   7.858  0.5977  0.4776 -0.0843
  434MOL0     C59803   8.839   7.696   7.919 -0.3311 -0.3698  0.7531
  434MOL0     C59804   8.950   7.764   7.864  0.1593  0.8124 -0.4942
  434MOL0     N59805   9.246   7.397   7.419 -0.1411 -0.4584  0.0467
  434MOL0     N59806   9.311   7.308   7.346  0.6263  0.8651  0.5399
  434MOL0     C59807   9.811   7.332   6.337  0.2160  0.6638  0.0344
  434MOL0     C59808   9.842   7.347   6.198 -0.2670  0.5920  0.1355
  434MOL0     C59809   9.761   7.491   5.778  0.3953 -0.1170  0.2709
  434MOL0     C59810   9.867   7.577   5.743 -0.0741  0.5943  0.4401
  434MOL0     C59811   9.895   7.620   5.612  0.7674  0.3992  0.7074
  434MOL0     C59812   9.797   7.600   5.517 -0.0430 -0.3515  0.0013
  434MOL0     O59813   9.807   7.642   5.391 -0.0030  0.0961  0.7573
  434MOL0     C59814   9.839   7.532   5.310 -0.0078  0.0127  0.6157
  434MOL0     C59815   9.992   7.543   5.265 -1.1346 -0.3304  0.3666
  434MOL0     C59816   9.990   7.631   5.140 -0.9870 -0.4540  0.0996
  434MOL0     C59817   9.977   7.781   5.179 -0.7716 -0.0931  0.2381
  434MOL0     C59818   9.985   7.862   5.066  0.6702  0.2567 -0.7873
  434MOL0     C59819   9.994   7.931   4.970  0.4099 -0.1985  0.0603
  434MOL0     C59820   9.690   7.511   5.548  0.5703  0.5287 -0.8814
  434MOL0     C59821   9.667   7.457   5.678 -0.3593  0.9242  0.1097
  434MOL0     C59822   9.542   7.368   5.703 -0.7389  0.2073 -0.2820
  434MOL0     H59823   9.839   7.680   6.165  0.9985 -0.6140  1.1500
  434MOL0     H59824   9.802   7.657   6.409  1.1905  1.0560 -3.1685
  434MOL0     H59825   9.742   7.597   6.676 -2.5585 -2.2759 -1.5255
  434MOL0     H59826   9.911   7.600   6.622  0.4464  0.7409  0.0453
  434MOL0     H59827   9.977   7.412   6.748 -1.6759 -2.8830 -2.6878
  434MOL0     H59828   9.904   7.540   6.849  0.2534 -1.3671  0.7945
  434MOL0     H59829   9.692   7.383   6.836 -0.9760  0.3046 -3.2876
  434MOL0     H59830   9.790   7.274   6.753 -2.6444 -1.0979  1.1085
  434MOL0     H59831   9.965   7.278   6.946  0.7015 -1.7163  2.4316
  434MOL0     H59832   9.842   7.373   7.039 -0.5449 -1.5983  0.9391
  434MOL0     H59833   9.816   7.166   7.115 -1.7008  3.5101  0.7932
  434MOL0     H59834   9.820   7.096   6.950  0.3799 -0.2879  1.6308
  434MOL0     H59835   9.594   7.245   6.937 -0.7823  0.3022 -0.1140
  434MOL0     H59836   9.588   7.096   7.038 -1.8373  0.9447 -1.0314
  434MOL0     H59837   9.622   7.395   7.117  0.7117  0.1156  1.9640
  434MOL0     H59838   9.616   7.258   7.234 -2.8934  0.0042  1.3144
  434MOL0     H59839   9.401   7.340   7.048 -1.4529  2.4330  0.8392
  434MOL0     H59840   9.406   7.187   7.136 -2.5228  0.9712  2.5011
  434MOL0     H59841   9.421   7.587   7.213 -3.4409  2.2387  0.8363
  434MOL0     H59842   9.153   7.694   7.430 -0.2920  0.3885  0.4489
  434MOL0     H59843   9.291   7.727   7.322 -0.9087  0.3116 -0.1994
  434MOL0     H59844   9.446   7.690   7.508  0.9168  0.4641 -3.5195
  434MOL0     H59845   9.334   7.831   7.536 -2.6823 -1.0415  0.1886
  434MOL0     H59846   9.220   7.589   7.642  0.7841  0.2685 -1.6181
  434MOL0     H59847   9.383   7.635   7.719 -1.3049  2.1026  3.7134
  434MOL0     H59848   9.209   7.732   7.858 -0.9491 -1.4519 -0.5668
  434MOL0     H59849   9.300   7.849   7.785 -0.2883  0.3250  1.5060
  434MOL0     H59850   8.969   7.642   7.552  1.4042 -1.2553  0.3747
  434MOL0     H59851   8.672   7.489   7.611  0.1770 -1.5575  0.7242
  434MOL0     H59852   8.800   7.379   7.650  0.0029 -0.5000  0.3450
  434MOL0     H59853   8.820   7.493   7.506 -0.4563 -1.0567 -0.3658
  434MOL0     H59854   8.407   7.423   7.817  0.0489 -1.1771  0.2941
  434MOL0     H59855   8.187   7.346   7.878  2.3093 -3.2752 -0.0887
  434MOL0     H59856   8.031   7.250   8.008  0.0448 -1.3265 -0.5755
  434MOL0     H59857   8.081   7.221   8.168  0.1240  1.4747  0.9466
  434MOL0     H59858   7.901   7.359   8.264  0.2061 -2.1025  1.5938
  434MOL0     H59859   7.809   7.354   8.110  0.8960 -0.8521 -1.7637
  434MOL0     H59860   7.895   7.101   8.248 -0.8236 -0.9286  0.7274
  434MOL0     H59861   7.791   7.112   8.103 -3.8009  1.8174  0.3729
  434MOL0     H59862   7.608   7.187   8.198 -1.6698 -0.8486  1.0260
  434MOL0     H59863   7.675   7.246   8.352 -1.1666  0.7977 -0.5398
  434MOL0     H59864   7.661   6.941   8.262  1.9943  1.4868 -1.5442
  434MOL0     H59865   7.700   7.009   8.418  0.8214  0.8707 -0.6935
  434MOL0     H59866   7.447   7.046   8.251 -0.9104  1.6108  0.6309
  434MOL0     H59867   7.466   7.120   8.412  0.5761  1.3545 -2.8640
  434MOL0     H59868   7.323   6.933   8.431 -1.8079 -5.4611 -0.6067
  434MOL0     H59869   7.461   6.914   8.533 -2.0077 -1.6319  0.5282
  434MOL0     H59870   7.537   6.727   8.414  0.2970  4.5305  1.8233
  434MOL0     H59871   7.464   6.776   8.257 -1.1988  0.6353  0.1286
  434MOL0     H59872   8.248   7.560   8.262 -0.3122 -0.5847 -0.5981
  434MOL0     H59873   8.461   7.649   8.177 -0.8568 -1.4755  1.7363
  434MOL0     H59874   8.809   7.704   8.023 -2.5741 -1.3446  0.2573
  434MOL0     H59875   8.994   7.840   7.927 -0.1074  0.7272 -0.2015
  434MOL0     H59876   9.816   7.231   6.375  2.4930  0.5085 -0.4900
  434MOL0     H59877   9.840   7.271   6.121 -0.5529  1.3183 -0.5884
  434MOL0     H59878   9.942   7.608   5.815  0.0044  1.6568 -0.0853
  434MOL0     H59879   9.974   7.692   5.596 -0.9367  2.5718  1.4556
  434MOL0     H59880   9.821   7.433   5.354 -1.5859  0.2925  0.6640
  434MOL0     H59881   9.769   7.533   5.226  0.1339 -0.7984  0.4795
  434MOL0     H59882  10.042   7.448   5.247 -2.4401 -1.2120  1.2306
  434MOL0     H59883  10.036   7.589   5.354 -1.8571  1.0111  0.0603
  434MOL0     H59884  10.086   7.608   5.095 -2.0084 -2.2495 -1.2993
  434MOL0     H59885   9.909   7.607   5.071 -3.1813  3.7532  0.8440
  434MOL0     H59886  10.059   7.816   5.243  1.1817  0.5891 -2.4783
  434MOL0     H59887   9.873   7.791   5.211 -1.0608  2.7155 -1.3125
  434MOL0     H59888   9.976   7.990   4.882 -1.5673  1.5604  1.5487
  434MOL0     H59889   9.604   7.491   5.484  0.6369  2.0210 -1.4791
  434MOL0     H59890   9.485   7.338   5.615 -0.6992  3.3295 -1.5260
  434MOL0     H59891   9.570   7.285   5.768 -0.5608  1.7230  1.6442
  434MOL0     H59892   9.466   7.423   5.758 -0.1624  1.0301 -0.2766
  435MOL0     O59893  10.367   8.550   9.701  0.6563  0.5468  1.0794
  435MOL0     C59894  10.360   8.428   9.674  0.8401  0.2110  0.6878
  435MOL0     O59895  10.354   8.373   9.547  0.3386 -0.0072 -0.1799
  435MOL0     C59896  10.285   8.439   9.448 -0.2488  0.6871  0.0382
  435MOL0     C59897  10.170   8.511   9.485  0.2595  0.4158  0.3702
  435MOL0     C59898  10.086   8.558   9.378  0.5250 -0.3217 -0.8181
  435MOL0     C59899  10.127   8.546   9.246  1.5376 -1.2665  0.0544
  435MOL0     O59900  10.043   8.578   9.140  0.0916  0.4416 -0.1671
  435MOL0     C59901   9.975   8.701   9.149  0.0586 -0.5142  0.4837
  435MOL0     C59902   9.996   8.798   9.037  0.2748  0.2477  0.3377
  435MOL0     C59903  10.131   8.797   8.967 -0.0384 -0.1068  1.3273
  435MOL0     C59904  10.256   8.845   9.032  0.7071 -0.1214  0.6227
  435MOL0     C59905  10.254   8.998   9.048  0.4105 -0.0136  0.6178
  435MOL0     C59906  10.367   9.048   9.142  0.2634 -0.2702 -0.3337
  435MOL0     C59907  10.385   9.200   9.133  0.5638  0.1651 -0.1309
  435MOL0     C59908  10.498   9.256   9.221 -0.0077  1.1668 -0.2704
  435MOL0     N59909  10.510   9.404   9.197 -0.0124 -0.8602  0.1683
  435MOL0     C59910  10.566   9.477   9.089 -0.2692  0.0473  0.9621
  435MOL0     C59911  10.557   9.611   9.127  0.3108  1.0779  0.3909
  435MOL0     C59912  10.603   9.725   9.040 -0.9356 -0.0689 -0.6256
  435MOL0     C59913  10.724   9.808   9.104  1.2417 -0.2958 -0.0694
  435MOL0     C59914  10.835   9.733   9.190  0.2457 -0.4253 -0.5379
  435MOL0     C59915  10.896   9.822   9.303 -0.4619 -0.2541  0.1117
  435MOL0     O59916  11.002   9.904   9.244  0.6364  0.4813  0.0971
  435MOL0     C59917  11.027  10.018   9.313 -0.9535  0.5649  0.2059
  435MOL0     C59918  10.986  10.041   9.447 -0.1237  0.2452  0.3503
  435MOL0     C59919  11.024  10.159   9.516  0.5428 -0.2876 -0.4615
  435MOL0     C59920  10.975  10.177   9.665 -0.6392  0.1401 -0.4601
  435MOL0     C59921  11.099  10.258   9.445  1.3403 -0.0759  0.6805
  435MOL0     C59922  11.144  10.379   9.513  0.1298 -0.1498  0.0813
  435MOL0     O59923  11.228  10.358   9.616 -0.3429  0.6820  0.2809
  435MOL0     C59924  11.283  10.451   9.694  0.8830  0.2310  0.4344
  435MOL0     C59925  11.416  10.488   9.669 -0.4453 -0.5236 -0.3949
  435MOL0     C59926  11.483  10.581   9.747  0.4493  0.6415  0.4626
  435MOL0     C59927  11.416  10.635   9.856  0.4767  0.2347 -0.0820
  435MOL0     O59928  11.471  10.732   9.936 -0.2611 -0.2381  0.3121
  435MOL0     C59929  11.583  10.680  10.004  0.6760  0.0405 -0.7274
  435MOL0     C59930  11.641  10.784  10.089 -0.2826 -0.1331  0.5936
  435MOL0     C59931  11.545  10.870  10.172 -0.4391 -0.3238 -0.3676
  435MOL0     C59932  11.634  10.966  10.262  0.7602  0.3332 -0.0753
  435MOL0     C59933  11.552  11.050  10.368 -0.8183 -0.2335  0.8627
  435MOL0     C59934  11.487  10.968  10.478  0.2073  0.9059  0.6865
  435MOL0     C59935  11.581  10.860  10.533 -0.2874  0.0859  0.9525
  435MOL0     C59936  11.542  10.792  10.666  0.7137  0.2367  0.2748
  435MOL0    Cl59937  11.684  10.686  10.712 -0.3731  0.4542  0.0032
  435MOL0     C59938  11.285  10.591   9.890 -0.2777 -0.0209  0.2222
  435MOL0     C59939  11.220  10.508   9.801 -0.6706  0.5578  0.0792
  435MOL0     O59940  11.120  10.491   9.465  1.1506  1.1850  0.0829
  435MOL0     C59941  11.119  10.244   9.307 -0.0092  0.8953  0.0563
  435MOL0     C59942  11.093  10.121   9.246 -0.1856  0.5576 -0.9341
  435MOL0     N59943  10.499   9.628   9.245  0.9702  0.0259  0.0582
  435MOL0     N59944  10.467   9.503   9.279 -0.0781  0.3708  0.2345
  435MOL0     C59945  10.244   8.471   9.210 -0.0813  0.0196 -1.0937
  435MOL0     C59946  10.328   8.428   9.316 -0.1715 -0.4438 -0.1475
  435MOL0     C59947  10.364   8.324   9.780 -0.3838  0.4954 -1.5057
  435MOL0     C59948  10.481   8.249   9.802  0.0631  0.5192  0.5922
  435MOL0     C59949  10.488   8.155   9.899  0.1983  0.3413  0.4448
  435MOL0     C59950  10.381   8.138   9.996 -0.4359  0.0920  0.3386
  435MOL0     O59951  10.392   8.046  10.102 -0.1988  0.2468 -0.1077
  435MOL0     C59952  10.502   8.059  10.195  0.0382  0.2884 -0.3988
  435MOL0     C59953  10.513   8.197  10.261  0.0200  0.1819  0.4316
  435MOL0     C59954  10.611   8.206  10.371 -0.0798 -0.1028 -0.7765
  435MOL0     C59955  10.761   8.185  10.331 -1.1376  0.8447  0.3720
  435MOL0     C59956  10.791   8.043  10.334 -0.0758  0.6761 -0.2021
  435MOL0     C59957  10.834   7.929  10.317 -0.1607 -1.3994  0.3002
  435MOL0     C59958  10.268   8.211   9.987  0.1855 -0.1404  1.0737
  435MOL0     C59959  10.252   8.299   9.870  0.0811  0.3190 -0.4608
  435MOL0     C59960  10.107   8.347   9.859  0.7531 -0.3959  1.4290
  435MOL0     H59961  10.139   8.508   9.589  0.7716  0.3363  0.5247
  435MOL0     H59962   9.998   8.616   9.403  0.6831  1.3987 -3.8088
  435MOL0     H59963  10.028   8.750   9.231 -0.1283  0.3461  0.1002
  435MOL0     H59964   9.870   8.683   9.175 -0.3555  1.7280  0.4911
  435MOL0     H59965   9.925   8.777   8.957  1.6234  0.1254 -0.8666
  435MOL0     H59966   9.978   8.899   9.073  1.2005  0.4845  0.1662
  435MOL0     H59967  10.157   8.691   8.955 -0.6065 -0.0801 -0.5451
  435MOL0     H59968  10.113   8.836   8.866 -0.4526 -3.1345  0.1309
  435MOL0     H59969  10.277   8.799   9.129 -1.4957 -1.3463  0.5916
  435MOL0     H59970  10.341   8.816   8.969  0.4639  2.5883 -1.1208
  435MOL0     H59971  10.156   9.025   9.090  0.3852 -0.6341  0.9726
  435MOL0     H59972  10.273   9.042   8.950 -1.5654  0.1425  0.2611
  435MOL0     H59973  10.339   9.018   9.244  2.4208 -0.7092  0.1759
  435MOL0     H59974  10.465   9.002   9.129 -0.5408 -2.6470  1.2922
  435MOL0     H59975  10.293   9.258   9.141  2.5325  3.7138 -1.0684
  435MOL0     H59976  10.411   9.224   9.030  2.6302  1.2269  0.5691
  435MOL0     H59977  10.474   9.233   9.325  0.3272  1.4656 -0.1259
  435MOL0     H59978  10.589   9.211   9.180 -2.1968 -2.5360 -1.5486
  435MOL0     H59979  10.608   9.447   8.994  0.4886  2.2435  0.5601
  435MOL0     H59980  10.527   9.800   9.015 -0.7659  0.5087  0.5450
  435MOL0     H59981  10.631   9.680   8.944 -0.5052 -0.4368 -0.3304
  435MOL0     H59982  10.768   9.873   9.028 -1.7446  0.1119 -1.5940
  435MOL0     H59983  10.674   9.879   9.170  0.0571  0.2453 -1.5073
  435MOL0     H59984  10.794   9.643   9.237 -1.5081  0.5303 -0.1582
  435MOL0     H59985  10.909   9.718   9.111  0.4148  4.0848 -1.4873
  435MOL0     H59986  10.813   9.881   9.344  0.9275  2.5752 -0.8721
  435MOL0     H59987  10.953   9.769   9.380  1.2425 -0.7247 -1.3968
  435MOL0     H59988  10.939   9.965   9.508 -0.3521  0.7758  0.8328
  435MOL0     H59989  11.051  10.143   9.736 -1.6722  2.1843  1.7927
  435MOL0     H59990  10.886  10.114   9.673 -1.2940  0.4135 -4.1553
  435MOL0     H59991  10.950  10.279   9.696 -2.0211 -0.5123  0.7241
  435MOL0     H59992  11.468  10.454   9.581  4.1979 -0.0632  1.8753
  435MOL0     H59993  11.580  10.611   9.707  0.6921 -2.1127 -1.2250
  435MOL0     H59994  11.545  10.595  10.061  0.8299  0.3732 -0.1195
  435MOL0     H59995  11.651  10.645   9.926 -0.0650  2.4068 -2.5409
  435MOL0     H59996  11.705  10.729  10.159  2.2720  2.8380  0.8053
  435MOL0     H59997  11.714  10.838  10.028 -1.8751 -0.8385 -2.1460
  435MOL0     H59998  11.468  10.810  10.221  0.3534  0.9115  2.6149
  435MOL0     H59999  11.491  10.939  10.106 -2.1913 -2.8922 -1.7829
  435MOL0     H60000  11.680  11.039  10.196 -1.0885 -1.4597 -3.6152
  435MOL0     H60001  11.718  10.916  10.312  0.7836 -0.7220 -1.1385
  435MOL0     H60002  11.619  11.123  10.414 -1.2597  3.1450 -3.2603
  435MOL0     H60003  11.474  11.108  10.319 -1.9131  0.2232  3.0230
  435MOL0     H60004  11.406  10.915  10.427  0.3653  1.4978 -0.2152
  435MOL0     H60005  11.443  11.028  10.558  1.7869  0.6097  1.8121
  435MOL0     H60006  11.683  10.899  10.538  0.7963 -2.6687  2.7349
  435MOL0     H60007  11.592  10.780  10.458 -1.7084 -1.0871  1.9424
  435MOL0     H60008  11.454  10.736  10.633  0.7675  2.0007 -3.4294
  435MOL0     H60009  11.526  10.866  10.745  0.1105  0.0013  0.3810
  435MOL0     H60010  11.223  10.616   9.975  1.1614 -0.4305  1.4489
  435MOL0     H60011  11.121  10.482   9.837  0.7868  0.8405  4.9951
  435MOL0     H60012  11.162  10.326   9.250 -0.5228  0.3962 -1.0760
  435MOL0     H60013  11.115  10.102   9.141  0.7882  1.9874 -1.0185
  435MOL0     H60014  10.279   8.444   9.110  1.4339 -1.2441 -0.2672
  435MOL0     H60015  10.426   8.382   9.301  0.1647  1.1037 -3.4841
  435MOL0     H60016  10.557   8.262   9.726 -0.8576 -1.6311 -0.7791
  435MOL0     H60017  10.586   8.108   9.912  0.6459  0.9909 -0.5042
  435MOL0     H60018  10.486   7.987  10.276  0.7296  0.1693 -0.3673
  435MOL0     H60019  10.599   8.050  10.144  1.1101  1.0513  1.4277
  435MOL0     H60020  10.413   8.238  10.280 -1.0942 -2.0945 -0.0932
  435MOL0     H60021  10.550   8.255  10.177 -1.6119 -0.5250 -0.8385
  435MOL0     H60022  10.612   8.300  10.426  1.6460 -0.1472 -0.6511
  435MOL0     H60023  10.590   8.119  10.434  1.3005  1.0292  1.3826
  435MOL0     H60024  10.838   8.235  10.391 -1.4572 -0.0516  1.5635
  435MOL0     H60025  10.777   8.234  10.234  1.9149 -0.5964  0.0325
  435MOL0     H60026  10.893   7.839  10.311  0.4316 -0.9242 -1.8609
  435MOL0     H60027  10.188   8.191  10.058 -2.0416  3.5789 -0.0992
  435MOL0     H60028  10.082   8.389   9.761 -3.5793 -1.3281  1.9359
  435MOL0     H60029  10.037   8.265   9.876  0.4212 -0.4014  0.1256
  435MOL0     H60030  10.093   8.425   9.934 -0.5386  0.4500  0.3450
  436MOL0     O60031   2.290   2.773  10.577 -0.0434  0.4688  0.3673
  436MOL0     C60032   2.381   2.691  10.565  2.1576 -0.4170 -0.3231
  436MOL0     O60033   2.397   2.577  10.651  0.4202 -0.3724 -0.6918
  436MOL0     C60034   2.329   2.568  10.773  0.2438  0.8515  0.7165
  436MOL0     C60035   2.294   2.676  10.859  0.8648  0.0451  1.4611
  436MOL0     C60036   2.235   2.653  10.991  1.0872 -0.3844  0.4020
  436MOL0     C60037   2.201   2.529  11.032 -0.7701  0.4226  0.1927
  436MOL0     O60038   2.151   2.498  11.151  0.9821 -0.7940  0.4069
  436MOL0     C60039   2.168   2.591  11.262 -0.0054  0.6892  0.3192
  436MOL0     C60040   2.047   2.677  11.278 -0.5003 -1.3105 -0.2098
  436MOL0     C60041   1.913   2.593  11.281 -0.5053  0.5259  0.6577
  436MOL0     C60042   1.797   2.676  11.305 -0.2429 -0.2251  1.4494
  436MOL0     C60043   1.665   2.601  11.300  0.2724 -0.4802  0.1928
  436MOL0     C60044   1.612   2.546  11.167  0.6707  0.1676 -0.6421
  436MOL0     C60045   1.499   2.442  11.193 -0.3282 -0.2184 -0.2750
  436MOL0     C60046   1.399   2.442  11.082 -0.2726  0.5316 -0.1635
  436MOL0     N60047   1.320   2.563  11.061 -0.0444 -0.3520  0.4039
  436MOL0     C60048   1.345   2.643  10.947  0.0581  0.2254 -0.4508
  436MOL0     C60049   1.228   2.707  10.928  1.0967  0.8365  0.0182
  436MOL0     C60050   1.198   2.810  10.823 -0.6892 -0.3699  0.2000
  436MOL0     C60051   1.075   2.893  10.836  0.8163  0.1034  0.4483
  436MOL0     C60052   0.943   2.834  10.782  0.3184  0.2293  1.3834
  436MOL0     C60053   0.821   2.926  10.831  0.0314 -0.3244  1.4534
  436MOL0     O60054   0.711   2.843  10.857 -0.8727  0.3501  0.0866
  436MOL0     C60055   0.597   2.903  10.908  0.3115  0.7168  0.2772
  436MOL0     C60056   0.580   3.038  10.919  0.0145 -0.1519 -0.2814
  436MOL0     C60057   0.469   3.091  10.986  0.6738  0.0570  0.1853
  436MOL0     C60058   0.484   3.238  11.031 -0.4840  0.5960  0.4652
  436MOL0     C60059   0.365   3.005  11.034 -0.5260 -0.4174 -0.6323
  436MOL0     C60060   0.251   3.048  11.112  0.1635 -0.8003 -0.2012
  436MOL0     O60061   0.244   2.985  11.231 -0.3206 -0.5787 -0.3189
  436MOL0     C60062   0.157   3.019  11.323  0.9418 -0.7746 -0.3194
  436MOL0     C60063   0.105   2.913  11.394 -0.1587  0.2625  0.6401
  436MOL0     C60064   0.004   2.926  11.490 -0.8987 -0.3108  0.0735
  436MOL0     C60065  -0.026   3.060  11.533 -0.1990  0.8582 -0.3123
  436MOL0     O60066  -0.121   3.059  11.635 -0.2962 -0.8412 -0.2757
  436MOL0     C60067  -0.228   3.152  11.625 -0.5551  0.1579 -0.4895
  436MOL0     C60068  -0.339   3.088  11.712  0.0409 -1.0104 -1.0531
  436MOL0     C60069  -0.339   3.137  11.859  0.6915  0.1495 -1.0144
  436MOL0     C60070  -0.445   3.078  11.962  0.1263 -0.1016 -0.0430
  436MOL0     C60071  -0.410   3.095  12.105 -0.2237 -0.1689 -0.6885
  436MOL0     C60072  -0.536   3.094  12.200 -0.0972  0.8421  1.0991
  436MOL0     C60073  -0.494   3.149  12.333  1.2119 -0.1398  0.6059
  436MOL0     C60074  -0.592   3.096  12.428 -0.4537  0.7309  0.1187
  436MOL0    Cl60075  -0.521   3.120  12.594 -0.2081  0.3260 -0.5651
  436MOL0     C60076   0.031   3.164  11.477 -0.6476 -0.3476  0.3788
  436MOL0     C60077   0.123   3.150  11.372 -0.8013  0.3801 -0.9576
  436MOL0     O60078   0.163   3.122  11.063 -0.3903  0.0662 -0.2904
  436MOL0     C60079   0.384   2.872  11.009  1.0962  0.0686  0.1433
  436MOL0     C60080   0.496   2.820  10.953 -0.0170  0.3277  0.3385
  436MOL0     N60081   1.133   2.660  11.023 -0.3570 -0.0940 -0.6671
  436MOL0     N60082   1.191   2.578  11.107 -0.3652 -0.4046  1.1643
  436MOL0     C60083   2.223   2.427  10.937  0.2736 -0.4044 -0.2989
  436MOL0     C60084   2.300   2.443  10.818 -0.4974  0.0202  0.5776
  436MOL0     C60085   2.469   2.710  10.454  0.2966  0.5051  0.1587
  436MOL0     C60086   2.431   2.791  10.348 -0.4975  0.6184 -0.4016
  436MOL0     C60087   2.506   2.813  10.234 -0.3488  0.6273  0.8144
  436MOL0     C60088   2.629   2.749  10.219  0.3379 -0.3352 -0.3269
  436MOL0     O60089   2.705   2.748  10.108 -1.0950 -0.0557  0.3334
  436MOL0     C60090   2.658   2.812   9.985 -0.6575 -0.0045  0.3977
  436MOL0     C60091   2.663   2.716   9.870 -0.0281 -0.1690  1.4142
  436MOL0     C60092   2.636   2.806   9.745  0.1190 -0.7825  0.4786
  436MOL0     C60093   2.674   2.718   9.623 -0.1239  0.5669  0.4749
  436MOL0     C60094   2.608   2.583   9.620 -0.3992 -0.5133  0.0394
  436MOL0     C60095   2.560   2.469   9.594  0.1410 -0.2058  0.1986
  436MOL0     C60096   2.673   2.679  10.335  0.5912 -0.3790  0.1331
  436MOL0     C60097   2.594   2.652  10.445  0.0869  0.1719 -0.5605
  436MOL0     C60098   2.662   2.578  10.560  0.2923  0.7672  1.2449
  436MOL0     H60099   2.327   2.773  10.824 -2.1807  0.1230 -1.6420
  436MOL0     H60100   2.235   2.737  11.058  0.2734  0.5448 -0.7243
  436MOL0     H60101   2.261   2.648  11.254  1.7251 -1.4303  3.4108
  436MOL0     H60102   2.175   2.531  11.353 -1.3919 -0.0772 -0.0517
  436MOL0     H60103   2.054   2.734  11.372 -1.4271  0.8427 -1.3844
  436MOL0     H60104   2.043   2.755  11.202 -0.4511  2.1977  3.1136
  436MOL0     H60105   1.896   2.529  11.194 -2.1302  0.2451  1.1410
  436MOL0     H60106   1.923   2.525  11.366 -0.5359  0.1932  0.3992
  436MOL0     H60107   1.809   2.720  11.404  0.7945  0.2498  1.1257
  436MOL0     H60108   1.796   2.762  11.237 -0.0737 -0.2542  1.4096
  436MOL0     H60109   1.586   2.672  11.326  0.1677 -0.3629 -0.4386
  436MOL0     H60110   1.655   2.528  11.380 -1.2523 -1.3900 -0.7749
  436MOL0     H60111   1.579   2.628  11.103 -1.2764  1.3129  1.7101
  436MOL0     H60112   1.698   2.504  11.113  2.1333  0.2217  1.5150
  436MOL0     H60113   1.442   2.461  11.284  0.3677  0.2240  0.0693
  436MOL0     H60114   1.545   2.346  11.216 -2.1064 -1.0527 -0.0018
  436MOL0     H60115   1.450   2.406  10.993 -1.5321 -1.2631 -0.2215
  436MOL0     H60116   1.331   2.360  11.107 -0.3162 -0.0466 -2.0605
  436MOL0     H60117   1.434   2.643  10.884 -0.3922  0.0839 -1.1005
  436MOL0     H60118   1.187   2.764  10.724 -0.9970 -0.1799  0.1464
  436MOL0     H60119   1.285   2.875  10.809 -0.2001 -1.3490 -1.8685
  436MOL0     H60120   1.057   2.911  10.943 -0.9402 -1.1662  0.4002
  436MOL0     H60121   1.098   2.987  10.785 -0.2181  1.7343  2.7638
  436MOL0     H60122   0.941   2.851  10.674 -1.5694 -2.8949  0.8190
  436MOL0     H60123   0.928   2.728  10.804 -1.3284 -0.0627 -0.8039
  436MOL0     H60124   0.843   2.978  10.925  0.7833  0.1030  1.0549
  436MOL0     H60125   0.804   3.012  10.765 -1.5676 -0.1977  1.9883
  436MOL0     H60126   0.655   3.112  10.895  0.2336 -0.3863 -0.3109
  436MOL0     H60127   0.441   3.308  10.959 -1.3137 -0.0243  0.3365
  436MOL0     H60128   0.590   3.266  11.030 -1.0215  2.8297 -0.3650
  436MOL0     H60129   0.447   3.258  11.132 -1.1781  1.1441  0.1091
  436MOL0     H60130   0.131   2.820  11.347 -1.0721  0.1068  0.4230
  436MOL0     H60131  -0.044   2.846  11.546  1.3731 -0.7100  1.5926
  436MOL0     H60132  -0.209   3.247  11.675 -0.0690  0.0352 -0.4379
  436MOL0     H60133  -0.250   3.189  11.524  2.5132 -1.5002 -1.8990
  436MOL0     H60134  -0.435   3.123  11.672  0.0975  0.7002  0.1938
  436MOL0     H60135  -0.331   2.979  11.715 -0.5675 -1.1874  4.6962
  436MOL0     H60136  -0.354   3.246  11.862 -0.3863  0.0261 -1.5087
  436MOL0     H60137  -0.243   3.117  11.906  0.6447 -1.4756 -1.5391
  436MOL0     H60138  -0.453   2.972  11.937  0.1133  0.7829 -4.7108
  436MOL0     H60139  -0.542   3.126  11.946 -1.6347 -4.0237 -2.5001
  436MOL0     H60140  -0.352   3.007  12.133  1.1658  0.4840 -1.3870
  436MOL0     H60141  -0.366   3.194  12.122 -3.4365  1.2548  0.1240
  436MOL0     H60142  -0.572   2.991  12.201  1.9692  0.0892  0.9918
  436MOL0     H60143  -0.617   3.162  12.173  1.6624  3.3191  1.6606
  436MOL0     H60144  -0.487   3.258  12.332 -0.6751  0.0492 -2.0633
  436MOL0     H60145  -0.395   3.108  12.357  1.1762 -0.7789 -0.2935
  436MOL0     H60146  -0.612   2.989  12.416  0.6995  0.5851 -0.6402
  436MOL0     H60147  -0.687   3.150  12.419  0.1757  1.7461 -0.5155
  436MOL0     H60148   0.010   3.266  11.507 -0.1117  0.5047 -1.9082
  436MOL0     H60149   0.163   3.235  11.319  0.5796  0.0105 -0.5427
  436MOL0     H60150   0.316   2.799  11.052 -0.5078 -0.2225 -2.6006
  436MOL0     H60151   0.511   2.712  10.954 -1.4919  0.0607 -1.0479
  436MOL0     H60152   2.195   2.323  10.952  0.3494 -0.3576  0.1636
  436MOL0     H60153   2.326   2.356  10.759 -0.6578 -0.8549  1.7535
  436MOL0     H60154   2.346   2.855  10.366 -1.8473 -1.2231  0.1044
  436MOL0     H60155   2.461   2.891  10.174  0.4590  1.0474  0.7470
  436MOL0     H60156   2.557   2.852   9.994 -0.3586  0.5382  1.5768
  436MOL0     H60157   2.730   2.893   9.976 -2.0019  1.6624  3.2233
  436MOL0     H60158   2.574   2.655   9.888 -0.7384  1.5275  4.3914
  436MOL0     H60159   2.757   2.661   9.864  0.2322  0.1795  2.1262
  436MOL0     H60160   2.536   2.850   9.748  1.8789  3.5882  0.9513
  436MOL0     H60161   2.701   2.893   9.743  1.4276 -1.7152  0.9738
  436MOL0     H60162   2.782   2.703   9.610 -0.3432 -2.2176  1.1284
  436MOL0     H60163   2.629   2.781   9.546 -0.8664 -1.6445 -1.0099
  436MOL0     H60164   2.519   2.371   9.583  2.3487 -1.3087  1.1401
  436MOL0     H60165   2.770   2.630  10.326  1.0962  0.2108  1.9705
  436MOL0     H60166   2.769   2.553  10.551  0.9116  3.5310 -0.0886
  436MOL0     H60167   2.668   2.636  10.652  2.5020  1.0293  0.9971
  436MOL0     H60168   2.605   2.485  10.567 -2.6983  2.3144 -0.4743
  437MOL0     O60169   5.438   9.974   4.744 -0.5846 -0.0019 -0.2934
  437MOL0     C60170   5.382   9.923   4.643 -1.0609  0.6371 -0.1356
  437MOL0     O60171   5.411   9.950   4.508 -0.0112  0.3271 -0.7362
  437MOL0     C60172   5.502  10.048   4.497 -0.5252 -1.2090  0.6837
  437MOL0     C60173   5.631  10.015   4.458  0.2184  0.5395 -0.4478
  437MOL0     C60174   5.727  10.118   4.445 -0.1719  0.1787 -0.1667
  437MOL0     C60175   5.693  10.258   4.462 -0.0376  0.0888  0.4263
  437MOL0     O60176   5.789  10.352   4.457  0.3189 -0.1230  0.4807
  437MOL0     C60177   5.745  10.491   4.456  0.2085  0.7081  0.2114
  437MOL0     C60178   5.863  10.583   4.451  0.3101  0.4208  0.4575
  437MOL0     C60179   5.975  10.544   4.360  0.3305  0.1459 -0.1605
  437MOL0     C60180   5.935  10.521   4.210 -0.3776  0.2294  0.7179
  437MOL0     C60181   6.063  10.491   4.130 -0.3191  0.4450 -0.8738
  437MOL0     C60182   6.058  10.485   3.974 -0.5807 -0.4198 -0.7262
  437MOL0     C60183   5.969  10.368   3.926  0.9308 -1.6343  0.0819
  437MOL0     C60184   5.945  10.349   3.769  0.4237 -0.2679  0.2593
  437MOL0     N60185   5.834  10.428   3.722  0.7317  0.6811 -0.1348
  437MOL0     C60186   5.716  10.383   3.670 -0.1778 -0.1609 -0.4335
  437MOL0     C60187   5.648  10.505   3.652 -0.4249 -0.1961  0.5544
  437MOL0     C60188   5.500  10.504   3.607 -0.0628 -0.7705 -0.3148
  437MOL0     C60189   5.480  10.537   3.458  0.6477  0.2461  1.3245
  437MOL0     C60190   5.348  10.624   3.443  0.7369 -0.0223  0.1162
  437MOL0     C60191   5.229  10.567   3.355  0.1551 -0.2472 -0.1902
  437MOL0     O60192   5.242  10.604   3.221 -0.5893 -1.2750  0.7970
  437MOL0     C60193   5.180  10.508   3.143  0.3808  0.0650  0.5379
  437MOL0     C60194   5.035  10.495   3.144 -0.2352 -0.0514 -0.0328
  437MOL0     C60195   4.980  10.380   3.087 -0.0006 -0.4227 -0.2425
  437MOL0     C60196   4.827  10.381   3.086 -0.4094  1.0960 -0.0756
  437MOL0     C60197   5.061  10.279   3.025 -0.1905 -0.8895  0.4703
  437MOL0     C60198   5.007  10.151   2.982 -0.8162  0.2457  0.6598
  437MOL0     O60199   5.071  10.088   2.880  0.4115 -0.3307 -0.2028
  437MOL0     C60200   5.015   9.979   2.823 -0.5827 -0.7029  0.4817
  437MOL0     C60201   4.973   9.992   2.690  0.0203  0.0445  0.8686
  437MOL0     C60202   4.907   9.879   2.626  0.2053  0.4354 -0.7531
  437MOL0     C60203   4.888   9.759   2.699 -0.0573  0.6147  0.4706
  437MOL0     O60204   4.835   9.657   2.627 -0.3787 -0.4650  0.4568
  437MOL0     C60205   4.853   9.524   2.668 -0.7926  0.7017  0.8604
  437MOL0     C60206   4.782   9.431   2.574 -0.1564  0.2508  0.7281
  437MOL0     C60207   4.826   9.285   2.592 -0.7880 -0.8741  1.5211
  437MOL0     C60208   4.730   9.191   2.516  0.2967 -0.3862 -0.4987
  437MOL0     C60209   4.777   9.041   2.545 -0.5122  0.2839 -0.4327
  437MOL0     C60210   4.658   8.944   2.564  0.0102 -0.6301  0.8506
  437MOL0     C60211   4.705   8.803   2.591  0.2393  0.1524 -0.1752
  437MOL0     C60212   4.617   8.685   2.541 -0.5646 -0.2116 -0.0708
  437MOL0    Cl60213   4.474   8.693   2.628  0.7051  0.3973 -0.1877
  437MOL0     C60214   4.922   9.752   2.837 -0.0048  0.7566  0.2307
  437MOL0     C60215   4.999   9.857   2.893 -0.2630  0.6002 -0.3284
  437MOL0     O60216   4.913  10.102   3.046  0.6740  0.5162  0.0325
  437MOL0     C60217   5.197  10.307   3.019  0.1325  0.3544 -0.4981
  437MOL0     C60218   5.258  10.410   3.075 -0.1007  0.3627 -0.5444
  437MOL0     N60219   5.729  10.611   3.682  1.6087 -0.1269 -0.3464
  437MOL0     N60220   5.837  10.566   3.728 -0.6294 -0.0199  0.6911
  437MOL0     C60221   5.552  10.288   4.482  0.8617 -0.6055  0.2095
  437MOL0     C60222   5.460  10.183   4.493 -1.0279  0.5517  0.1176
  437MOL0     C60223   5.282   9.811   4.672  0.6865  0.5236  0.0431
  437MOL0     C60224   5.259   9.711   4.575  0.7252 -0.3901  1.3175
  437MOL0     C60225   5.173   9.603   4.587 -0.0038 -0.8651 -0.4152
  437MOL0     C60226   5.088   9.602   4.703 -0.9632  0.1310  0.4689
  437MOL0     O60227   4.987   9.513   4.725  0.1262  0.2790 -0.5973
  437MOL0     C60228   4.925   9.435   4.621 -0.4159  1.4407 -0.6105
  437MOL0     C60229   4.809   9.512   4.552  0.5856  0.8034 -0.7927
  437MOL0     C60230   4.851   9.588   4.423 -0.3448 -0.0111 -0.1576
  437MOL0     C60231   4.753   9.610   4.308 -0.9340  0.2865 -0.0809
  437MOL0     C60232   4.618   9.616   4.365 -0.9981  0.6425 -0.7435
  437MOL0     C60233   4.503   9.591   4.389  0.3766  0.2718 -0.0000
  437MOL0     C60234   5.109   9.697   4.799  1.1386  0.1863 -0.7772
  437MOL0     C60235   5.203   9.800   4.793 -0.3659 -0.4170  0.3635
  437MOL0     C60236   5.212   9.903   4.910 -0.2978 -0.4723  0.4415
  437MOL0     H60237   5.665   9.912   4.456 -0.6568  0.2540 -1.3499
  437MOL0     H60238   5.830  10.088   4.429 -0.1236 -1.1667  2.2295
  437MOL0     H60239   5.668  10.506   4.532 -2.0167 -2.2092 -1.2707
  437MOL0     H60240   5.702  10.500   4.356  1.2259 -0.9935 -0.4244
  437MOL0     H60241   5.817  10.679   4.425  0.0530 -0.3175 -2.0851
  437MOL0     H60242   5.906  10.583   4.551 -1.8872 -1.1120  1.4783
  437MOL0     H60243   6.041  10.628   4.386 -0.7001  0.1287  2.9363
  437MOL0     H60244   6.030  10.457   4.397 -1.0065  0.2364  2.2348
  437MOL0     H60245   5.859  10.444   4.198 -2.6304  2.5564 -1.3182
  437MOL0     H60246   5.894  10.616   4.173  2.5490  0.7487 -1.6158
  437MOL0     H60247   6.106  10.394   4.155 -0.3651  0.9385  1.3482
  437MOL0     H60248   6.131  10.570   4.161  2.0805 -2.2115  1.1618
  437MOL0     H60249   6.007  10.573   3.934 -0.6616 -0.4207 -0.6249
  437MOL0     H60250   6.155  10.475   3.925 -0.7468 -0.3181 -1.0788
  437MOL0     H60251   5.871  10.376   3.975  0.0682 -2.4288 -1.4632
  437MOL0     H60252   6.007  10.275   3.968 -3.1571 -2.3225  2.9338
  437MOL0     H60253   6.034  10.393   3.724 -0.8419  2.7549  0.4196
  437MOL0     H60254   5.934  10.242   3.752  0.9443  0.0810 -2.9535
  437MOL0     H60255   5.686  10.279   3.663  0.9675 -0.9987  4.1251
  437MOL0     H60256   5.450  10.581   3.667 -2.5180 -1.7235 -1.0104
  437MOL0     H60257   5.454  10.404   3.612  0.4490 -1.1745 -2.4338
  437MOL0     H60258   5.570  10.589   3.424 -0.4238  2.0219  1.1172
  437MOL0     H60259   5.466  10.447   3.397 -2.0913 -0.0928  2.3211
  437MOL0     H60260   5.308  10.646   3.542  2.7832  1.2175  0.7240
  437MOL0     H60261   5.371  10.728   3.417 -2.0503  0.5867 -0.2253
  437MOL0     H60262   5.234  10.459   3.371 -1.6546  0.0384  3.4513
  437MOL0     H60263   5.133  10.595   3.399 -0.3579  1.3092 -2.1806
  437MOL0     H60264   4.974  10.576   3.182 -0.9869 -1.7157  2.5717
  437MOL0     H60265   4.786  10.468   3.138  2.1075  0.5025  3.2385
  437MOL0     H60266   4.784  10.293   3.135 -0.9095  0.2162 -1.9877
  437MOL0     H60267   4.805  10.373   2.979 -3.4708  0.3603  0.5024
  437MOL0     H60268   4.981  10.090   2.644  0.2909 -0.3707  0.0047
  437MOL0     H60269   4.875   9.886   2.522 -2.2049  0.9499 -0.0412
  437MOL0     H60270   4.960   9.503   2.671 -0.3321  2.6930  0.3401
  437MOL0     H60271   4.804   9.515   2.765  0.8048  3.0926  1.9997
  437MOL0     H60272   4.680   9.438   2.613 -0.7650 -1.5717 -0.4083
  437MOL0     H60273   4.791   9.460   2.469  3.8513 -3.3535 -0.2425
  437MOL0     H60274   4.828   9.260   2.699  2.3844  2.3916  2.4325
  437MOL0     H60275   4.926   9.273   2.550 -1.6604 -2.3490 -0.2751
  437MOL0     H60276   4.729   9.215   2.409  0.2467  0.2392 -0.3630
  437MOL0     H60277   4.634   9.221   2.559 -0.1765 -0.2441 -1.6148
  437MOL0     H60278   4.842   9.015   2.460 -0.6801 -1.6127 -0.0246
  437MOL0     H60279   4.839   9.037   2.634  1.6537 -3.5472 -1.8772
  437MOL0     H60280   4.605   8.957   2.469  3.1278  0.8507 -0.8620
  437MOL0     H60281   4.590   8.978   2.642  0.8931 -0.3936  1.5381
  437MOL0     H60282   4.716   8.785   2.698 -4.1611 -1.8346  0.1726
  437MOL0     H60283   4.804   8.789   2.546  1.5319  0.0554  2.5077
  437MOL0     H60284   4.662   8.588   2.562  2.1591  1.2111  1.1772
  437MOL0     H60285   4.603   8.694   2.433  2.4767  1.8542 -0.3990
  437MOL0     H60286   4.904   9.662   2.894  0.7274  0.3181 -0.2095
  437MOL0     H60287   5.045   9.834   2.988  2.2792  3.6871 -0.6559
  437MOL0     H60288   5.262  10.237   2.967  2.7291  0.1713  2.7014
  437MOL0     H60289   5.366  10.406   3.086  0.0316 -0.3596 -1.8480
  437MOL0     H60290   5.513  10.386   4.506 -0.0266 -0.6215 -1.0757
  437MOL0     H60291   5.355  10.200   4.513 -0.8950  0.5856  0.8076
  437MOL0     H60292   5.302   9.718   4.475 -2.7774 -0.6088 -0.3640
  437MOL0     H60293   5.164   9.524   4.514 -1.6318 -1.4980  0.4366
  437MOL0     H60294   5.001   9.406   4.548  0.0352 -3.4494  1.3934
  437MOL0     H60295   4.887   9.344   4.668  1.1103  1.3660  0.5916
  437MOL0     H60296   4.761   9.583   4.620 -4.7007 -1.3272 -1.7710
  437MOL0     H60297   4.735   9.439   4.518 -1.4647  1.1706  2.4239
  437MOL0     H60298   4.879   9.687   4.458  0.4932 -0.9727  2.0786
  437MOL0     H60299   4.935   9.536   4.376 -0.8187 -1.5244  0.6019
  437MOL0     H60300   4.763   9.524   4.241 -1.5529  0.8525 -0.9154
  437MOL0     H60301   4.780   9.702   4.256 -0.2757  0.4567  0.5254
  437MOL0     H60302   4.407   9.547   4.406  0.7137 -0.3703  0.2867
  437MOL0     H60303   5.035   9.710   4.877  2.3766  2.3845  0.1251
  437MOL0     H60304   5.173  10.001   4.882 -1.1900 -1.0271 -0.2961
  437MOL0     H60305   5.153   9.878   4.999 -0.7895 -1.5642 -0.1630
  437MOL0     H60306   5.315   9.928   4.936  0.3101  1.4988 -3.1900
  438MOL0     O60307   3.947   1.185   9.976 -0.4176  0.3800  0.4550
  438MOL0     C60308   3.992   1.266  10.059 -0.6716 -1.2104 -0.4577
  438MOL0     O60309   4.017   1.406  10.039 -0.3921  0.2618 -0.6314
  438MOL0     C60310   3.986   1.466   9.919 -0.2527 -0.4536 -0.0821
  438MOL0     C60311   4.080   1.543   9.854  0.0121  0.3447 -0.2947
  438MOL0     C60312   4.048   1.607   9.730  0.1409 -1.5485 -0.8225
  438MOL0     C60313   3.918   1.594   9.672 -0.7848  0.8085 -0.1628
  438MOL0     O60314   3.881   1.669   9.554  0.0305 -0.3667  0.2870
  438MOL0     C60315   3.975   1.755   9.485  1.5183  1.0105  0.3232
  438MOL0     C60316   4.016   1.886   9.550 -0.7179  0.4267  0.5707
  438MOL0     C60317   4.111   1.964   9.460  0.2149  0.5103  0.3621
  438MOL0     C60318   4.176   2.078   9.533  0.5107  0.2880  0.7185
  438MOL0     C60319   4.257   2.178   9.448  0.1010 -0.6608  0.6069
  438MOL0     C60320   4.307   2.293   9.535 -0.8474  0.3484 -0.0759
  438MOL0     C60321   4.403   2.249   9.651  0.1379  0.5543  0.1841
  438MOL0     C60322   4.447   2.371   9.738 -0.2431 -0.3125 -0.6363
  438MOL0     N60323   4.354   2.396   9.849  0.2678  0.8769 -0.0988
  438MOL0     C60324   4.331   2.316   9.954  0.5980 -0.0351  0.1438
  438MOL0     C60325   4.239   2.383  10.033  0.0407 -0.0308 -0.4477
  438MOL0     C60326   4.159   2.356  10.162  0.1489  0.3278 -0.4128
  438MOL0     C60327   4.239   2.342  10.295  0.6122  0.3513 -0.5692
  438MOL0     C60328   4.346   2.221  10.300 -0.3502 -0.8549 -0.3233
  438MOL0     C60329   4.275   2.083  10.309  0.6203 -0.2633  0.3891
  438MOL0     O60330   4.214   2.063  10.433 -0.3748  0.0704 -0.1973
  438MOL0     C60331   4.296   2.040  10.546  0.5754  0.3228  0.8273
  438MOL0     C60332   4.426   2.002  10.539 -1.0160 -0.0397 -0.2571
  438MOL0     C60333   4.499   1.993  10.660  0.2012  0.4196  0.1921
  438MOL0     C60334   4.644   1.971  10.636  0.6039 -0.3418  0.2885
  438MOL0     C60335   4.432   2.035  10.780  0.4062  0.1900  0.1036
  438MOL0     C60336   4.504   2.013  10.904 -0.3923 -0.2038 -0.9736
  438MOL0     O60337   4.570   1.894  10.923  0.0627 -0.4183 -0.3762
  438MOL0     C60338   4.620   1.858  11.049 -0.8157  0.0567  0.1077
  438MOL0     C60339   4.520   1.848  11.149 -0.9163  0.1688  0.3731
  438MOL0     C60340   4.559   1.814  11.278  0.2022 -0.7793  0.2229
  438MOL0     C60341   4.679   1.754  11.312 -0.4710  0.5920  1.1458
  438MOL0     O60342   4.714   1.697  11.429  0.0348  0.7555 -0.6015
  438MOL0     C60343   4.618   1.639  11.518 -0.3466  0.6040 -0.3198
  438MOL0     C60344   4.566   1.737  11.621 -0.2133 -0.4392  0.1606
  438MOL0     C60345   4.462   1.679  11.717 -0.2554 -0.1361  0.7108
  438MOL0     C60346   4.405   1.784  11.810 -0.2685 -0.5113  0.4522
  438MOL0     C60347   4.327   1.714  11.926  0.8604  0.2367  1.1640
  438MOL0     C60348   4.237   1.800  12.018  0.6533 -0.2945  0.3410
  438MOL0     C60349   4.216   1.729  12.149 -0.6978  0.1681 -0.8223
  438MOL0     C60350   4.117   1.786  12.252 -0.8463 -0.5699  0.0286
  438MOL0    Cl60351   4.134   1.714  12.412  0.2196  0.5305  0.0114
  438MOL0     C60352   4.778   1.761  11.209 -1.1907 -0.1325 -0.0022
  438MOL0     C60353   4.758   1.813  11.081 -0.1328  0.1901  0.3105
  438MOL0     O60354   4.473   2.093  10.993 -0.3445 -0.3856 -0.4033
  438MOL0     C60355   4.300   2.070  10.788  0.9674  0.5989 -0.0277
  438MOL0     C60356   4.223   2.066  10.672 -0.4677 -0.1395 -0.4404
  438MOL0     N60357   4.228   2.505   9.972  0.0024 -0.4975  0.3160
  438MOL0     N60358   4.296   2.512   9.865  0.7251  0.3929 -0.6060
  438MOL0     C60359   3.824   1.515   9.746 -0.1756 -0.5704 -0.7525
  438MOL0     C60360   3.859   1.456   9.869  0.2010  0.7662  0.4342
  438MOL0     C60361   4.013   1.220  10.193  0.0493 -1.1484  0.5979
  438MOL0     C60362   4.133   1.260  10.254 -0.1296  0.7863  0.1427
  438MOL0     C60363   4.172   1.228  10.385 -0.0254 -0.9491 -0.0366
  438MOL0     C60364   4.085   1.162  10.463 -0.2458  0.0912 -0.2005
  438MOL0     O60365   4.096   1.134  10.599  0.3429 -0.2823 -0.0999
  438MOL0     C60366   4.206   1.173  10.673 -0.0948 -0.0911 -0.1045
  438MOL0     C60367   4.203   1.149  10.825  0.2650 -0.2101 -0.5957
  438MOL0     C60368   4.129   1.254  10.899  0.2534  0.0033  0.3720
  438MOL0     C60369   4.150   1.232  11.052  0.8445 -0.9326 -0.0506
  438MOL0     C60370   4.046   1.320  11.118  0.4068 -0.6082  0.0087
  438MOL0     C60371   3.959   1.386  11.171 -0.0030  0.4669 -0.5794
  438MOL0     C60372   3.975   1.093  10.402  0.7260  0.3407 -0.3425
  438MOL0     C60373   3.943   1.119  10.269 -0.2833 -0.3414  0.8845
  438MOL0     C60374   3.812   1.055  10.213 -1.2299  1.1221  0.2333
  438MOL0     H60375   4.179   1.548   9.900 -0.7173 -1.3849  1.6296
  438MOL0     H60376   4.121   1.673   9.685 -1.3319  1.4316  0.8767
  438MOL0     H60377   3.922   1.778   9.392  3.6239 -1.5581 -1.6714
  438MOL0     H60378   4.057   1.689   9.456 -1.2139 -1.5269 -2.3392
  438MOL0     H60379   3.920   1.937   9.560 -0.8718  0.0073  1.2944
  438MOL0     H60380   4.057   1.870   9.650  1.7696  0.7465 -0.3239
  438MOL0     H60381   4.190   1.897   9.425 -1.7806 -0.3467 -2.9610
  438MOL0     H60382   4.051   2.000   9.376 -0.7209 -0.9745  0.3482
  438MOL0     H60383   4.099   2.129   9.592 -0.0632  1.9902 -1.3912
  438MOL0     H60384   4.234   2.023   9.608  1.8135  0.4766 -0.1309
  438MOL0     H60385   4.199   2.227   9.369  1.9883 -1.6547 -1.5086
  438MOL0     H60386   4.339   2.125   9.399  0.1774 -0.3533  0.3972
  438MOL0     H60387   4.365   2.366   9.478  0.3124  2.7546  3.8098
  438MOL0     H60388   4.221   2.347   9.576 -1.0977 -0.0372 -0.0911
  438MOL0     H60389   4.490   2.207   9.601  0.4464  0.1760  1.0093
  438MOL0     H60390   4.359   2.166   9.706 -1.5505  0.8691 -0.6397
  438MOL0     H60391   4.553   2.356   9.762  0.5647  2.1882 -2.2345
  438MOL0     H60392   4.455   2.466   9.685 -0.4134  2.2102  3.4529
  438MOL0     H60393   4.378   2.218   9.961  2.8651  0.6073 -3.3182
  438MOL0     H60394   4.099   2.265  10.159 -0.7282  0.7142  2.5504
  438MOL0     H60395   4.082   2.433  10.173 -0.8286 -0.4948 -1.3096
  438MOL0     H60396   4.308   2.426  10.307  0.8458  0.2781 -1.3415
  438MOL0     H60397   4.176   2.331  10.384 -0.6098  0.6298 -1.3922
  438MOL0     H60398   4.405   2.228  10.209  0.8462 -2.1632  0.3137
  438MOL0     H60399   4.429   2.239  10.369 -0.8900  3.8308 -0.5799
  438MOL0     H60400   4.193   2.079  10.237 -1.6841 -2.2679  2.9071
  438MOL0     H60401   4.344   2.005  10.277  3.0117  1.2443  1.5928
  438MOL0     H60402   4.481   1.981  10.447  1.4658 -1.9927  1.5256
  438MOL0     H60403   4.663   1.977  10.529 -1.7160 -0.9795 -0.2167
  438MOL0     H60404   4.660   1.872  10.678 -3.4710 -0.6397  1.5932
  438MOL0     H60405   4.703   2.050  10.684  1.4628  0.9964 -2.7226
  438MOL0     H60406   4.425   1.888  11.117 -0.5419 -0.2967 -1.4136
  438MOL0     H60407   4.469   1.827  11.338 -1.2839  1.2316 -2.2493
  438MOL0     H60408   4.533   1.608  11.456  1.0024  2.3977 -3.2656
  438MOL0     H60409   4.652   1.546  11.564 -2.3134  1.4407  3.1990
  438MOL0     H60410   4.639   1.777  11.692  0.2593  0.9278 -1.0492
  438MOL0     H60411   4.527   1.820  11.563 -1.9546 -0.9744  0.5161
  438MOL0     H60412   4.520   1.606  11.775  1.9653 -0.0804 -1.3107
  438MOL0     H60413   4.382   1.626  11.664 -0.9942 -0.4130  2.0577
  438MOL0     H60414   4.338   1.847  11.752  0.6759 -1.3264 -1.5998
  438MOL0     H60415   4.485   1.852  11.839  0.7671 -0.2179 -2.7184
  438MOL0     H60416   4.251   1.642  11.894 -3.1332  5.0231 -1.3792
  438MOL0     H60417   4.408   1.668  11.984  2.1852 -1.6398 -1.9414
  438MOL0     H60418   4.141   1.812  11.965  0.1942 -0.4787  1.1204
  438MOL0     H60419   4.276   1.899  12.042  3.6776 -1.7807  2.0606
  438MOL0     H60420   4.315   1.728  12.194 -0.0762 -0.7462 -2.1393
  438MOL0     H60421   4.194   1.622  12.138  1.2931 -0.5032  1.1984
  438MOL0     H60422   4.018   1.770  12.207 -0.5064  0.8599 -1.3440
  438MOL0     H60423   4.128   1.894  12.243  0.9635 -0.7995 -1.0589
  438MOL0     H60424   4.873   1.715  11.234 -1.4672 -0.4761  0.4420
  438MOL0     H60425   4.835   1.829  11.006 -1.4134  0.5828 -0.9821
  438MOL0     H60426   4.248   2.111  10.874  2.0231  2.3207 -0.1701
  438MOL0     H60427   4.115   2.072  10.678 -0.4679  0.6902 -1.1526
  438MOL0     H60428   3.718   1.508   9.724 -1.1367  1.4277  2.6436
  438MOL0     H60429   3.789   1.387   9.915  1.3859 -1.0889 -0.4218
  438MOL0     H60430   4.198   1.332  10.206  3.3161 -0.2328  2.8799
  438MOL0     H60431   4.264   1.274  10.419 -1.0924  0.4291  1.0924
  438MOL0     H60432   4.297   1.121  10.642 -0.3193 -0.2439 -0.5154
  438MOL0     H60433   4.225   1.279  10.655  0.0062  0.0571  0.8291
  438MOL0     H60434   4.306   1.138  10.858  0.5291  3.0765  0.0004
  438MOL0     H60435   4.166   1.046  10.835  0.6887 -0.5014 -1.7842
  438MOL0     H60436   4.186   1.341  10.864  1.5401 -1.8397 -2.5528
  438MOL0     H60437   4.025   1.272  10.871  0.0240 -4.0109 -2.1139
  438MOL0     H60438   4.250   1.263  11.083  0.3837  4.0771 -2.5677
  438MOL0     H60439   4.124   1.129  11.080 -1.9477 -0.3359 -0.1555
  438MOL0     H60440   3.886   1.450  11.215  1.0507  0.4200  1.3688
  438MOL0     H60441   3.899   1.045  10.463 -0.9531  0.9355 -1.8710
  438MOL0     H60442   3.761   1.120  10.142  1.0333  0.8368 -1.7837
  438MOL0     H60443   3.847   0.983  10.138 -0.3215  2.2864 -0.4994
  438MOL0     H60444   3.751   1.006  10.289 -1.3220 -0.1982 -0.6561
  439MOL0     O60445   6.741  10.532   4.170 -0.1693 -0.5005 -0.1837
  439MOL0     C60446   6.851  10.580   4.155 -0.8015  0.3982  0.4903
  439MOL0     O60447   6.965  10.526   4.205 -0.0780  0.6700  0.4102
  439MOL0     C60448   6.949  10.400   4.256 -0.2818 -0.1134 -0.0945
  439MOL0     C60449   6.925  10.380   4.389 -0.5062  0.9793  0.0395
  439MOL0     C60450   6.898  10.246   4.429 -1.1789  0.5117  0.0123
  439MOL0     C60451   6.900  10.143   4.342  0.0815  0.6736 -0.4044
  439MOL0     O60452   6.880  10.013   4.386 -0.3532 -0.1745 -0.2699
  439MOL0     C60453   6.865   9.976   4.520 -0.3024 -0.2617  0.5310
  439MOL0     C60454   6.857   9.826   4.554 -0.0198 -0.2515 -0.1602
  439MOL0     C60455   6.994   9.756   4.536  0.5445  0.4643  0.0355
  439MOL0     C60456   7.053   9.723   4.672 -0.4835  0.0029 -0.2071
  439MOL0     C60457   7.200   9.694   4.689 -0.2749 -0.0572 -0.0265
  439MOL0     C60458   7.247   9.565   4.623  0.7735  0.3098  0.5553
  439MOL0     C60459   7.399   9.551   4.594 -0.1806  0.4079  0.8484
  439MOL0     C60460   7.415   9.447   4.491 -0.2433  0.9135  0.0085
  439MOL0     N60461   7.560   9.409   4.504  0.7422 -0.7442 -0.7062
  439MOL0     C60462   7.610   9.337   4.605 -1.2451  0.2605 -0.2301
  439MOL0     C60463   7.746   9.360   4.589 -0.1945  1.1492 -0.1321
  439MOL0     C60464   7.844   9.305   4.680  0.7457 -0.1759  0.2145
  439MOL0     C60465   7.857   9.151   4.681 -0.3243  0.5106  0.1032
  439MOL0     C60466   7.952   9.102   4.795  0.6667 -0.9312  0.7386
  439MOL0     C60467   7.907   9.162   4.937 -0.5595  1.1503  0.1236
  439MOL0     O60468   7.773   9.136   4.982 -0.6883  0.0623 -0.0973
  439MOL0     C60469   7.781   9.105   5.118 -0.1904  0.6302  0.5539
  439MOL0     C60470   7.804   8.972   5.162  0.8829  0.7404 -0.6112
  439MOL0     C60471   7.821   8.935   5.294  0.4063  1.4460 -0.2862
  439MOL0     C60472   7.835   8.779   5.326  0.4268 -0.4663 -0.7455
  439MOL0     C60473   7.807   9.034   5.391 -0.5437  0.8538 -0.7518
  439MOL0     C60474   7.806   9.001   5.540  1.1649 -0.0963 -1.1003
  439MOL0     O60475   7.816   9.110   5.629 -0.8467  0.0459 -0.4289
  439MOL0     C60476   7.797   9.112   5.766 -0.8641 -0.6063  0.0021
  439MOL0     C60477   7.853   9.221   5.829  0.1683 -0.1016  0.0685
  439MOL0     C60478   7.822   9.254   5.962  0.0533  0.5007 -0.0225
  439MOL0     C60479   7.734   9.167   6.037 -0.2548  1.0705  0.6032
  439MOL0     O60480   7.703   9.197   6.166  0.4928  0.6118 -0.3370
  439MOL0     C60481   7.657   9.332   6.188  0.5897  0.0133  0.6087
  439MOL0     C60482   7.768   9.427   6.240 -0.5438 -1.2156  0.0246
  439MOL0     C60483   7.863   9.381   6.347  0.1594 -0.5369 -0.1894
  439MOL0     C60484   7.973   9.488   6.363 -0.5465 -0.4875 -0.0149
  439MOL0     C60485   8.070   9.465   6.480  0.1943 -0.2069  0.2960
  439MOL0     C60486   8.177   9.571   6.472 -0.0892  0.3329  1.1393
  439MOL0     C60487   8.280   9.534   6.583 -0.6181 -0.5125  0.4487
  439MOL0     C60488   8.418   9.587   6.550  0.1342  0.3735 -0.8482
  439MOL0    Cl60489   8.513   9.556   6.701 -0.6080 -0.1117 -0.2692
  439MOL0     C60490   7.694   9.049   5.963  1.7837  0.0266 -0.2135
  439MOL0     C60491   7.734   9.014   5.840 -0.3912  0.1310 -0.8011
  439MOL0     O60492   7.799   8.888   5.579 -0.0253 -0.1890 -0.8201
  439MOL0     C60493   7.790   9.171   5.350  0.0974 -0.2939 -1.2018
  439MOL0     C60494   7.779   9.202   5.215  0.5528  1.0215 -0.7235
  439MOL0     N60495   7.769   9.432   4.476  0.2525 -0.7447  0.5639
  439MOL0     N60496   7.659   9.457   4.421 -0.0756  0.3876 -0.2700
  439MOL0     C60497   6.918  10.166   4.201 -0.2949  0.5362  0.1990
  439MOL0     C60498   6.942  10.299   4.162 -0.2522  0.4699  0.5346
  439MOL0     C60499   6.856  10.703   4.088  0.2788  0.2704 -0.4056
  439MOL0     C60500   6.966  10.787   4.103  0.4181  0.3063  0.0710
  439MOL0     C60501   6.981  10.905   4.030  0.7063 -0.6739 -0.4300
  439MOL0     C60502   6.877  10.948   3.945  0.7915 -0.1542  0.8011
  439MOL0     O60503   6.876  11.063   3.876 -0.1068  0.1689 -0.0858
  439MOL0     C60504   7.008  11.110   3.841  0.0324 -1.4968  0.5965
  439MOL0     C60505   6.984  11.195   3.713  0.2104 -0.0654  0.3463
  439MOL0     C60506   7.098  11.297   3.680 -0.0525  0.3482 -0.0153
  439MOL0     C60507   7.112  11.403   3.787  0.5837  0.3742 -0.8106
  439MOL0     C60508   7.218  11.368   3.881 -0.9232  1.7358  0.5258
  439MOL0     C60509   7.304  11.358   3.966  0.4992  0.6108  0.1991
  439MOL0     C60510   6.761  10.868   3.936 -0.2915  0.4971  0.3463
  439MOL0     C60511   6.755  10.750   3.999 -0.9501  0.7810  0.5863
  439MOL0     C60512   6.648  10.652   3.941 -0.4745 -0.4238 -0.6220
  439MOL0     H60513   6.940  10.461   4.460  2.9841 -0.8866  1.7113
  439MOL0     H60514   6.891  10.229   4.535 -1.1849  0.7613  0.0521
  439MOL0     H60515   6.778  10.027   4.563  1.6826  2.6956  1.4224
  439MOL0     H60516   6.951  10.011   4.578 -1.4256  1.2759  1.3444
  439MOL0     H60517   6.811   9.805   4.651  1.1939 -2.3436  0.0119
  439MOL0     H60518   6.789   9.791   4.476 -1.0120  3.5139 -1.2206
  439MOL0     H60519   6.983   9.661   4.483 -0.6300  1.2185 -1.1469
  439MOL0     H60520   7.073   9.815   4.487 -0.4482  3.7916  2.1116
  439MOL0     H60521   7.031   9.805   4.742  0.5838 -1.0472  1.4055
  439MOL0     H60522   6.993   9.638   4.706  1.0075 -0.1558  2.2507
  439MOL0     H60523   7.232   9.687   4.793  1.2868 -0.9591 -0.5457
  439MOL0     H60524   7.258   9.771   4.637  0.4394  0.4398  1.4571
  439MOL0     H60525   7.209   9.481   4.682 -2.5920  1.6419  0.5121
  439MOL0     H60526   7.191   9.572   4.529  1.8699  2.2662  0.0018
  439MOL0     H60527   7.450   9.521   4.685  0.4112  0.9532  0.7004
  439MOL0     H60528   7.446   9.639   4.550  0.2353 -0.6246 -0.8867
  439MOL0     H60529   7.354   9.359   4.514  2.0188 -0.2878  1.7873
  439MOL0     H60530   7.377   9.484   4.396 -1.9926 -2.6577 -0.8736
  439MOL0     H60531   7.567   9.287   4.691  0.4115 -1.1836 -0.1833
  439MOL0     H60532   7.822   9.334   4.783  2.8748  1.2374  0.3360
  439MOL0     H60533   7.933   9.364   4.660 -0.6204  1.8818 -0.1499
  439MOL0     H60534   7.754   9.116   4.690  0.2320 -1.8657 -1.5637
  439MOL0     H60535   7.897   9.112   4.586  1.6354  0.5781  0.8521
  439MOL0     H60536   7.967   8.994   4.793 -0.1435 -1.1902  3.5973
  439MOL0     H60537   8.048   9.154   4.779 -0.0760 -0.1935 -1.7227
  439MOL0     H60538   7.984   9.124   5.005 -0.0514  0.4029 -0.8421
  439MOL0     H60539   7.931   9.268   4.950 -0.0435  0.9674  0.6813
  439MOL0     H60540   7.803   8.894   5.087 -6.0526 -0.5317  0.1627
  439MOL0     H60541   7.910   8.752   5.401  1.1242  0.2748 -1.1553
  439MOL0     H60542   7.870   8.721   5.241 -0.1071 -2.7565  0.5215
  439MOL0     H60543   7.737   8.740   5.356  0.3303 -0.7016 -1.3570
  439MOL0     H60544   7.926   9.277   5.772  1.9892  1.2694  3.4451
  439MOL0     H60545   7.868   9.342   6.007 -0.3449 -0.8887  3.4209
  439MOL0     H60546   7.600   9.384   6.110  0.6547 -0.6749  0.0878
  439MOL0     H60547   7.585   9.324   6.270  0.6153  1.2190  0.7676
  439MOL0     H60548   7.836   9.455   6.159  0.1448 -0.1336  0.9347
  439MOL0     H60549   7.725   9.519   6.280  1.3082  0.9678 -2.6122
  439MOL0     H60550   7.916   9.292   6.311  0.9464 -0.7205  1.3304
  439MOL0     H60551   7.804   9.375   6.439 -1.8884  2.4984 -1.1624
  439MOL0     H60552   7.928   9.587   6.372 -2.3207 -1.4230  3.0232
  439MOL0     H60553   8.032   9.490   6.271  2.2138  0.8024  1.6644
  439MOL0     H60554   8.026   9.473   6.580 -0.7115 -2.1115  0.1093
  439MOL0     H60555   8.114   9.365   6.471 -2.2003 -1.4780  1.8095
  439MOL0     H60556   8.140   9.673   6.464 -0.8483  0.0958  1.4950
  439MOL0     H60557   8.242   9.562   6.384 -0.7871 -1.0240  0.7235
  439MOL0     H60558   8.285   9.425   6.588 -1.4303 -0.5347  0.9612
  439MOL0     H60559   8.237   9.559   6.681  2.3072  1.5757  1.3644
  439MOL0     H60560   8.407   9.692   6.520  1.3115  1.0287  0.8356
  439MOL0     H60561   8.450   9.518   6.471 -1.5023 -1.1957 -0.2052
  439MOL0     H60562   7.630   8.982   6.020  2.7824 -1.0561 -0.3363
  439MOL0     H60563   7.701   8.916   5.806  0.0602 -1.2744  2.4868
  439MOL0     H60564   7.795   9.249   5.425  2.4778 -0.3988 -1.1775
  439MOL0     H60565   7.764   9.307   5.195 -0.2552  1.9703  3.7681
  439MOL0     H60566   6.913  10.084   4.130  2.6086  1.3186 -1.0650
  439MOL0     H60567   6.941  10.334   4.059 -0.1150  0.5411  0.5585
  439MOL0     H60568   7.055  10.755   4.155  0.8222  2.5912  0.8963
  439MOL0     H60569   7.072  10.964   4.022  1.2491 -1.7324 -3.6641
  439MOL0     H60570   7.046  11.157   3.931  0.5772  2.4366 -1.4523
  439MOL0     H60571   7.075  11.029   3.809  2.8246  1.3127 -1.2173
  439MOL0     H60572   6.903  11.267   3.728  2.2045  3.0373 -2.5210
  439MOL0     H60573   6.970  11.134   3.624  0.0424  1.3666 -0.6412
  439MOL0     H60574   7.193  11.246   3.663 -0.4508  0.3706 -2.7176
  439MOL0     H60575   7.076  11.339   3.582  0.8569 -1.7652 -1.1829
  439MOL0     H60576   7.021  11.417   3.847  0.3412  1.4601 -1.3950
  439MOL0     H60577   7.132  11.496   3.733  1.5836 -0.5858 -2.1398
  439MOL0     H60578   7.377  11.349   4.043 -0.3494 -2.4115  0.7790
  439MOL0     H60579   6.683  10.892   3.864  3.9528  1.0765 -4.7308
  439MOL0     H60580   6.702  10.557   3.930 -0.3403 -0.5698  0.9502
  439MOL0     H60581   6.567  10.636   4.012  0.9097 -1.4419  0.8153
  439MOL0     H60582   6.617  10.667   3.838  0.1903 -2.4216 -1.1635
  440MOL0     O60583   4.849   9.304   6.078  0.5522  0.3309 -0.2771
  440MOL0     C60584   4.735   9.351   6.103 -0.3632  0.1377 -0.0769
  440MOL0     O60585   4.628   9.355   6.016  0.3811 -1.0002 -0.5580
  440MOL0     C60586   4.651   9.318   5.889 -0.4480 -0.4307 -1.1374
  440MOL0     C60587   4.588   9.205   5.838  0.4767  0.0784 -0.0644
  440MOL0     C60588   4.599   9.182   5.703  0.5922 -0.6885 -0.3588
  440MOL0     C60589   4.689   9.252   5.617 -1.0115  0.1227 -0.7559
  440MOL0     O60590   4.726   9.215   5.489 -0.6416 -0.0388 -0.1879
  440MOL0     C60591   4.687   9.096   5.434  0.4763  0.2568 -0.5936
  440MOL0     C60592   4.721   9.086   5.283 -0.1070  0.3544 -0.3888
  440MOL0     C60593   4.653   9.207   5.210 -0.4911 -0.1768  0.9822
  440MOL0     C60594   4.708   9.222   5.070 -0.0538  0.1683  0.9574
  440MOL0     C60595   4.702   9.374   5.041 -0.3095 -0.5325 -0.0664
  440MOL0     C60596   4.674   9.405   4.891  0.1184 -0.2334  0.6418
  440MOL0     C60597   4.534   9.380   4.845  0.4779  0.1334  1.5523
  440MOL0     C60598   4.487   9.453   4.709  0.0163  0.0661 -0.3323
  440MOL0     N60599   4.387   9.373   4.630 -0.3826 -1.0090  0.0082
  440MOL0     C60600   4.254   9.356   4.656  0.2911  0.7666  0.6691
  440MOL0     C60601   4.209   9.294   4.546 -0.2060 -0.1414  0.0034
  440MOL0     C60602   4.069   9.261   4.511  0.1342 -0.2309 -0.9574
  440MOL0     C60603   4.053   9.144   4.415 -0.2575  0.4527  0.3592
  440MOL0     C60604   3.904   9.106   4.399  0.5098 -1.0859  0.2723
  440MOL0     C60605   3.818   9.220   4.335 -0.5761  0.3017  1.4597
  440MOL0     O60606   3.700   9.154   4.279  0.3411 -0.0225  0.0207
  440MOL0     C60607   3.614   9.216   4.200  0.4470  0.3105 -0.0443
  440MOL0     C60608   3.603   9.352   4.175 -0.1527 -0.8531 -0.5630
  440MOL0     C60609   3.506   9.406   4.094  0.0081  0.1589 -0.6743
  440MOL0     C60610   3.497   9.557   4.081 -0.5370  0.3611  0.3079
  440MOL0     C60611   3.426   9.329   4.015 -0.4361  1.0881 -0.3471
  440MOL0     C60612   3.344   9.373   3.904  0.7187 -0.4371 -0.8702
  440MOL0     O60613   3.215   9.325   3.908  0.1690  0.4994  0.0215
  440MOL0     C60614   3.125   9.353   3.807  0.3082  0.0016 -0.1230
  440MOL0     C60615   3.152   9.356   3.670 -0.0060 -0.1219  0.4713
  440MOL0     C60616   3.055   9.352   3.577 -0.5643  0.1085 -0.7435
  440MOL0     C60617   2.917   9.345   3.606  0.9559  0.3295 -0.4800
  440MOL0     O60618   2.810   9.352   3.515  0.0271 -0.0766  0.2850
  440MOL0     C60619   2.846   9.399   3.387  0.3122  0.0478  0.3982
  440MOL0     C60620   2.721   9.417   3.300  0.2767  0.2008  0.2388
  440MOL0     C60621   2.641   9.288   3.278  0.0290 -0.0934 -0.1849
  440MOL0     C60622   2.510   9.292   3.198 -0.2070 -0.1400  0.3065
  440MOL0     C60623   2.420   9.414   3.233 -0.4627 -0.4608 -0.0184
  440MOL0     C60624   2.273   9.387   3.239 -0.2311  0.1639  0.2293
  440MOL0     C60625   2.181   9.508   3.219  0.2806  0.3072  0.8498
  440MOL0     C60626   2.192   9.630   3.310 -0.1067  0.0290  0.3485
  440MOL0    Cl60627   2.085   9.748   3.233 -0.2992 -0.2192 -0.2591
  440MOL0     C60628   2.884   9.345   3.748 -0.9204  0.1593  0.5847
  440MOL0     C60629   2.987   9.355   3.849  0.9194 -1.2708 -0.2326
  440MOL0     O60630   3.393   9.455   3.829 -0.1809 -0.1228  1.0103
  440MOL0     C60631   3.430   9.190   4.036 -0.7232  0.0829 -0.0963
  440MOL0     C60632   3.523   9.131   4.125 -0.3890 -0.1059  0.0018
  440MOL0     N60633   4.316   9.266   4.465 -0.2456  0.8693  0.0985
  440MOL0     N60634   4.416   9.311   4.517 -0.1266 -0.0926  0.2910
  440MOL0     C60635   4.751   9.357   5.674 -0.5354 -0.0008  0.2828
  440MOL0     C60636   4.741   9.394   5.808 -0.1851  0.7629  0.3198
  440MOL0     C60637   4.711   9.395   6.249  0.4331  0.2320 -0.7687
  440MOL0     C60638   4.606   9.350   6.321  0.6550 -0.2985  0.7485
  440MOL0     C60639   4.580   9.381   6.450  1.0065  0.3307 -0.0190
  440MOL0     C60640   4.665   9.468   6.520  0.5694 -0.5311  0.4171
  440MOL0     O60641   4.632   9.494   6.648 -0.2397 -0.7415 -0.0145
  440MOL0     C60642   4.678   9.614   6.714  0.1950 -0.9467 -0.0313
  440MOL0     C60643   4.581   9.637   6.835 -0.2993  0.6598  0.4187
  440MOL0     C60644   4.451   9.703   6.789 -0.8617  0.0843  0.0110
  440MOL0     C60645   4.344   9.685   6.889 -0.8394  0.7056  0.6072
  440MOL0     C60646   4.275   9.551   6.863 -0.2283 -0.1127  0.3225
  440MOL0     C60647   4.210   9.451   6.849 -0.3516  0.7321 -0.3204
  440MOL0     C60648   4.769   9.524   6.443 -0.2771  0.1930 -0.8148
  440MOL0     C60649   4.788   9.502   6.305  1.0237 -0.2757 -0.4364
  440MOL0     C60650   4.906   9.579   6.226 -0.4623 -0.1411  0.3993
  440MOL0     H60651   4.525   9.156   5.912  2.8243 -3.6427 -0.2439
  440MOL0     H60652   4.545   9.097   5.664 -1.5343 -0.7505  2.3818
  440MOL0     H60653   4.578   9.088   5.438  0.5135 -0.1293  2.9750
  440MOL0     H60654   4.733   9.017   5.495 -0.9658 -0.6604 -0.6686
  440MOL0     H60655   4.828   9.104   5.270  0.1453 -1.4590 -1.1256
  440MOL0     H60656   4.684   8.992   5.241 -1.3029  0.5849  0.1061
  440MOL0     H60657   4.547   9.187   5.188 -0.4040  0.4004 -0.0046
  440MOL0     H60658   4.654   9.298   5.271 -1.1728  0.4161  0.1420
  440MOL0     H60659   4.808   9.183   5.047  0.5715  0.8532  2.3443
  440MOL0     H60660   4.640   9.169   5.004  0.3300 -3.6615  3.3137
  440MOL0     H60661   4.805   9.406   5.056  0.1679 -2.3439  0.8659
  440MOL0     H60662   4.628   9.421   5.106 -1.5612 -0.9000 -1.1856
  440MOL0     H60663   4.690   9.511   4.870  1.6016 -1.0815 -3.2824
  440MOL0     H60664   4.742   9.355   4.822 -1.4277 -0.1777 -0.9757
  440MOL0     H60665   4.462   9.424   4.915 -2.7550 -1.1624 -0.6824
  440MOL0     H60666   4.520   9.272   4.839 -0.0859  0.2568  0.4009
  440MOL0     H60667   4.448   9.554   4.725  0.2516  0.2686 -0.9701
  440MOL0     H60668   4.572   9.476   4.643 -1.1407  3.0922 -0.9407
  440MOL0     H60669   4.188   9.403   4.729 -2.3707 -0.5581 -0.7544
  440MOL0     H60670   4.010   9.349   4.487  0.7326  1.1221  2.0435
  440MOL0     H60671   4.018   9.232   4.603 -1.6493  2.5604 -0.9425
  440MOL0     H60672   4.094   9.165   4.316 -5.2477 -1.2173 -2.4222
  440MOL0     H60673   4.093   9.048   4.451 -1.5972 -1.1732 -2.1857
  440MOL0     H60674   3.905   9.017   4.336 -0.8301  0.9660 -2.9113
  440MOL0     H60675   3.854   9.075   4.491 -0.5752  1.9267  0.8195
  440MOL0     H60676   3.776   9.278   4.417 -2.2506 -1.3673  1.8551
  440MOL0     H60677   3.866   9.283   4.259 -3.1021  0.5868 -0.0242
  440MOL0     H60678   3.659   9.428   4.229 -5.3384  2.9578  0.2017
  440MOL0     H60679   3.399   9.592   4.048 -0.7300 -0.2596  0.2173
  440MOL0     H60680   3.553   9.600   3.997 -1.9709  1.2163 -0.2545
  440MOL0     H60681   3.543   9.612   4.164 -0.3579 -1.1371  1.2397
  440MOL0     H60682   3.254   9.352   3.633 -0.1888  1.7237 -0.3431
  440MOL0     H60683   3.088   9.350   3.473 -0.4217 -1.6707 -0.6942
  440MOL0     H60684   2.881   9.502   3.401 -3.5094  1.9245 -2.0153
  440MOL0     H60685   2.912   9.325   3.342 -1.3501 -0.9376 -0.5171
  440MOL0     H60686   2.662   9.497   3.347  1.0225  1.5229 -0.9854
  440MOL0     H60687   2.775   9.439   3.208 -0.2548 -2.5795 -0.8059
  440MOL0     H60688   2.624   9.254   3.381  2.9380 -0.1668  0.3555
  440MOL0     H60689   2.703   9.218   3.222 -0.7403 -0.0421 -1.1252
  440MOL0     H60690   2.458   9.198   3.214  3.2432 -2.4275 -0.8020
  440MOL0     H60691   2.531   9.291   3.091  0.2517 -0.4824  0.3957
  440MOL0     H60692   2.455   9.455   3.329  1.7038  1.6128 -1.5706
  440MOL0     H60693   2.442   9.496   3.164  1.1199 -0.3426  0.5647
  440MOL0     H60694   2.244   9.340   3.333  1.0345  0.0758  0.6035
  440MOL0     H60695   2.243   9.313   3.165 -4.8221  0.0933  1.8180
  440MOL0     H60696   2.076   9.481   3.201  0.5529  0.9805 -2.3518
  440MOL0     H60697   2.206   9.555   3.123 -2.9863  2.8802  1.0521
  440MOL0     H60698   2.294   9.668   3.319  0.0087 -0.4922  1.3666
  440MOL0     H60699   2.167   9.596   3.411  3.0783  1.6021  1.8073
  440MOL0     H60700   2.778   9.350   3.771 -0.8129  2.6718  0.8010
  440MOL0     H60701   2.972   9.364   3.957  1.1160 -3.1788 -0.0020
  440MOL0     H60702   3.371   9.123   3.973 -0.1110  0.9910 -1.6988
  440MOL0     H60703   3.545   9.025   4.135  0.2207  0.0231  0.0552
  440MOL0     H60704   4.811   9.427   5.617  0.0141 -1.8405 -1.5428
  440MOL0     H60705   4.796   9.481   5.842  0.0703  0.0049  1.9331
  440MOL0     H60706   4.528   9.292   6.274 -2.3242  3.6484  0.3463
  440MOL0     H60707   4.494   9.336   6.497  0.3379  2.8351  1.3472
  440MOL0     H60708   4.782   9.591   6.742  0.7731  0.4592 -0.9397
  440MOL0     H60709   4.676   9.702   6.649  1.2472  2.1440  3.7717
  440MOL0     H60710   4.635   9.693   6.912 -2.7096  2.6625  0.7669
  440MOL0     H60711   4.557   9.541   6.883  0.8864 -0.3743 -0.9503
  440MOL0     H60712   4.475   9.808   6.772 -3.4203  0.6599 -0.4032
  440MOL0     H60713   4.417   9.653   6.697  4.4892 -1.8965 -1.2671
  440MOL0     H60714   4.276   9.770   6.877 -1.6596  0.3861  2.5888
  440MOL0     H60715   4.382   9.682   6.991  0.8355  0.0763 -0.0025
  440MOL0     H60716   4.136   9.374   6.846 -1.6809  1.9718 -2.3692
  440MOL0     H60717   4.844   9.581   6.499  0.1487 -1.2339  0.1136
  440MOL0     H60718   4.877   9.592   6.122 -0.1230 -6.7382 -0.9234
  440MOL0     H60719   4.941   9.662   6.289  1.2189 -2.0415  2.1126
  440MOL0     H60720   4.989   9.508   6.225 -0.6357 -0.3502 -1.0289
  441MOL0     O60721   9.884   0.030   4.452  0.5938 -0.1683  0.1263
  441MOL0     C60722   9.815   0.005   4.551 -0.9537 -0.4507 -0.9477
  441MOL0     O60723   9.764  -0.116   4.584 -1.1658 -0.3234 -0.1250
  441MOL0     C60724   9.772  -0.224   4.496  0.5740  0.3286 -0.1968
  441MOL0     C60725   9.841  -0.341   4.513  0.6937  0.4912 -0.4567
  441MOL0     C60726   9.827  -0.457   4.426  0.1994  0.5520  0.4244
  441MOL0     C60727   9.772  -0.444   4.294  0.3675  0.4174 -0.7956
  441MOL0     O60728   9.772  -0.539   4.196 -0.9799 -0.0152  0.3176
  441MOL0     C60729   9.652  -0.618   4.201 -0.3513 -0.1699 -0.0791
  441MOL0     C60730   9.687  -0.746   4.266  0.4529 -0.0761 -0.7185
  441MOL0     C60731   9.824  -0.796   4.197 -0.3425 -0.4646 -0.6022
  441MOL0     C60732   9.830  -0.951   4.209 -0.4560 -0.2587  0.0236
  441MOL0     C60733   9.946  -1.029   4.150  0.9440  0.0440 -0.5890
  441MOL0     C60734  10.073  -1.009   4.228 -0.5612  0.5347  0.4703
  441MOL0     C60735  10.200  -1.068   4.162 -0.7954  1.0094 -0.5185
  441MOL0     C60736  10.317  -1.053   4.245  0.3079 -0.9431 -0.1811
  441MOL0     N60737  10.430  -1.136   4.211 -0.3802  0.4144 -0.3319
  441MOL0     C60738  10.511  -1.130   4.092 -0.8173 -0.2565  0.1690
  441MOL0     C60739  10.583  -1.246   4.090 -0.3960  0.0722  0.0409
  441MOL0     C60740  10.677  -1.294   3.982  0.3163 -0.8088  0.3420
  441MOL0     C60741  10.755  -1.425   3.998  0.6737 -0.6083 -0.5261
  441MOL0     C60742  10.894  -1.437   3.946 -1.4929 -0.8678  0.7030
  441MOL0     C60743  10.894  -1.439   3.791 -0.9119  0.4393  0.2467
  441MOL0     O60744  11.041  -1.440   3.750 -0.3646  0.0944 -0.0330
  441MOL0     C60745  11.082  -1.410   3.617  0.0742  0.5392 -0.2177
  441MOL0     C60746  11.219  -1.426   3.609 -0.2541  0.6427  0.2376
  441MOL0     C60747  11.280  -1.432   3.481 -0.0116 -0.0859 -0.1592
  441MOL0     C60748  11.436  -1.465   3.485 -0.0027  0.2526 -0.4620
  441MOL0     C60749  11.200  -1.415   3.369 -0.8195  0.4236  0.7651
  441MOL0     C60750  11.254  -1.384   3.233  0.4989  0.2057  0.0150
  441MOL0     O60751  11.166  -1.363   3.132 -0.1474 -0.4380 -0.6429
  441MOL0     C60752  11.216  -1.339   3.001 -0.3665  0.2097  0.8828
  441MOL0     C60753  11.106  -1.304   2.923 -1.7112  0.0091  0.1349
  441MOL0     C60754  11.125  -1.305   2.783  0.3103  0.4120  0.2810
  441MOL0     C60755  11.251  -1.320   2.728  0.3627 -0.1930  0.2804
  441MOL0     O60756  11.270  -1.337   2.592 -0.4301 -0.2894  0.0812
  441MOL0     C60757  11.176  -1.272   2.500 -1.2130  0.1553  0.7989
  441MOL0     C60758  11.197  -1.323   2.352 -0.4524  0.6494 -0.4739
  441MOL0     C60759  11.120  -1.235   2.248  0.2603  1.2546 -0.6335
  441MOL0     C60760  11.131  -1.309   2.117 -0.6271 -0.1774  0.4516
  441MOL0     C60761  11.066  -1.222   2.015 -0.2545 -0.6634 -0.2600
  441MOL0     C60762  11.067  -1.292   1.878 -0.0938 -0.9433  0.0146
  441MOL0     C60763  11.015  -1.202   1.756  0.7375 -1.1509  0.1670
  441MOL0     C60764  11.034  -1.258   1.624  0.4511 -0.4778 -0.5394
  441MOL0    Cl60765  11.204  -1.285   1.606  0.1741  0.3641 -0.5484
  441MOL0     C60766  11.367  -1.352   2.806  0.3837 -0.5044  0.4372
  441MOL0     C60767  11.347  -1.350   2.941  0.1698  0.3514 -0.4413
  441MOL0     O60768  11.377  -1.357   3.226 -0.7569  1.0545 -0.6044
  441MOL0     C60769  11.059  -1.413   3.391  0.5362 -0.6852 -0.7817
  441MOL0     C60770  11.001  -1.407   3.511 -0.2783 -0.0480 -0.5908
  441MOL0     N60771  10.548  -1.321   4.200  0.3875  0.4898 -0.8623
  441MOL0     N60772  10.442  -1.265   4.258  1.0916  0.3686 -0.3555
  441MOL0     C60773   9.715  -0.318   4.272  0.0659  0.0415 -0.1826
  441MOL0     C60774   9.715  -0.211   4.365 -1.0459  0.4278 -0.1203
  441MOL0     C60775   9.765   0.116   4.637  1.4392 -0.1826 -0.2886
  441MOL0     C60776   9.648   0.104   4.712 -0.9998 -0.2893 -0.3517
  441MOL0     C60777   9.621   0.204   4.796  0.3985  0.3357 -0.1797
  441MOL0     C60778   9.684   0.326   4.815 -0.7029 -0.5987 -0.2869
  441MOL0     O60779   9.652   0.432   4.904 -0.0745  0.3838 -0.7253
  441MOL0     C60780   9.572   0.400   5.017 -0.4499 -0.2983 -0.2848
  441MOL0     C60781   9.560   0.524   5.108 -0.2386  0.5560  0.8899
  441MOL0     C60782   9.555   0.661   5.032  0.2987  0.2160 -0.5418
  441MOL0     C60783   9.430   0.671   4.942 -0.5319  0.5089  0.7904
  441MOL0     C60784   9.315   0.692   5.026 -0.1532 -0.8902  0.1260
  441MOL0     C60785   9.214   0.721   5.091 -0.0953 -0.0700  0.1020
  441MOL0     C60786   9.804   0.341   4.742  0.3889 -1.8118 -0.1936
  441MOL0     C60787   9.845   0.236   4.658  0.4624 -0.4682  1.6556
  441MOL0     C60788   9.989   0.246   4.603  0.2450 -0.1820  0.7223
  441MOL0     H60789   9.898  -0.345   4.605  0.4330 -3.6937 -0.3047
  441MOL0     H60790   9.874  -0.548   4.461 -1.7091 -0.7476 -0.2707
  441MOL0     H60791   9.626  -0.641   4.097 -0.2212  1.0937 -0.4025
  441MOL0     H60792   9.558  -0.577   4.240  0.6595  1.4199  0.7337
  441MOL0     H60793   9.698  -0.723   4.372 -1.5883  0.2360 -0.5292
  441MOL0     H60794   9.612  -0.823   4.246  0.0677  0.7169 -2.5367
  441MOL0     H60795   9.816  -0.775   4.090  0.8102 -0.1512 -0.6350
  441MOL0     H60796   9.913  -0.744   4.232 -0.8359 -0.5056  0.8244
  441MOL0     H60797   9.832  -0.978   4.315 -0.3099  0.2047  0.1390
  441MOL0     H60798   9.730  -0.985   4.177 -2.1614  2.6061  1.8589
  441MOL0     H60799   9.948  -1.005   4.043 -1.9307  0.0014 -0.7316
  441MOL0     H60800   9.929  -1.137   4.155 -0.9056  0.2999 -0.6699
  441MOL0     H60801  10.097  -0.904   4.249  1.0548  0.7543 -2.0520
  441MOL0     H60802  10.056  -1.060   4.323 -1.9609  2.1987  1.1691
  441MOL0     H60803  10.218  -1.025   4.063 -0.3333  0.9185 -0.4742
  441MOL0     H60804  10.182  -1.175   4.148  4.0196  0.2428 -2.9083
  441MOL0     H60805  10.344  -0.948   4.252  2.4707 -1.4700  0.3388
  441MOL0     H60806  10.301  -1.080   4.350  3.1895 -2.0318  0.0688
  441MOL0     H60807  10.506  -1.053   4.015 -1.6659 -1.3976 -0.9555
  441MOL0     H60808  10.738  -1.205   3.962 -0.5563 -0.4296 -0.7640
  441MOL0     H60809  10.620  -1.296   3.888  1.4094  1.9247 -0.4755
  441MOL0     H60810  10.774  -1.433   4.105  0.4743 -0.7345 -0.4991
  441MOL0     H60811  10.690  -1.500   3.952  0.3083  0.7977 -2.4104
  441MOL0     H60812  10.959  -1.357   3.982 -2.9844  0.0783  1.4025
  441MOL0     H60813  10.931  -1.530   3.990 -2.0159  0.6381  4.7820
  441MOL0     H60814  10.864  -1.541   3.768  1.4982 -0.2191 -0.2852
  441MOL0     H60815  10.842  -1.351   3.752 -2.8036 -1.4746 -1.8701
  441MOL0     H60816  11.274  -1.450   3.699  0.4468  1.9226  0.1708
  441MOL0     H60817  11.476  -1.506   3.579 -1.7416  0.1555  0.2632
  441MOL0     H60818  11.490  -1.370   3.474 -0.4706  0.4977 -0.6268
  441MOL0     H60819  11.471  -1.533   3.407  2.3992  0.5239  0.2774
  441MOL0     H60820  11.010  -1.302   2.973 -1.6606  2.0825  0.2288
  441MOL0     H60821  11.037  -1.294   2.720  2.8982 -1.2294 -4.0427
  441MOL0     H60822  11.070  -1.274   2.528 -1.6134  0.5137 -0.6417
  441MOL0     H60823  11.196  -1.164   2.498 -1.1441  0.2503 -3.6756
  441MOL0     H60824  11.303  -1.336   2.329 -1.1901 -1.5969 -3.3286
  441MOL0     H60825  11.164  -1.424   2.324  0.4192  0.5735 -1.2865
  441MOL0     H60826  11.159  -1.132   2.252  2.6683  0.5672 -3.0672
  441MOL0     H60827  11.015  -1.239   2.278  0.3240 -1.2507 -0.5435
  441MOL0     H60828  11.090  -1.411   2.123  2.0170 -1.3738 -0.2054
  441MOL0     H60829  11.239  -1.321   2.103 -0.7660 -0.3757 -0.4986
  441MOL0     H60830  10.963  -1.204   2.048 -0.7616 -2.3965 -0.8105
  441MOL0     H60831  11.104  -1.120   2.010  0.5296 -0.7670  2.0750
  441MOL0     H60832  11.025  -1.391   1.900 -0.6197 -0.4941  1.1559
  441MOL0     H60833  11.176  -1.295   1.867 -0.2677  0.4519 -3.0702
  441MOL0     H60834  11.060  -1.102   1.765 -2.5150  0.5203 -0.7470
  441MOL0     H60835  10.909  -1.186   1.773  0.3649 -1.6646 -1.4897
  441MOL0     H60836  10.994  -1.186   1.552 -0.7297  1.8568  2.2261
  441MOL0     H60837  10.969  -1.344   1.603 -3.1407  1.6015  0.9874
  441MOL0     H60838  11.463  -1.364   2.758  1.3274  2.1026  1.5413
  441MOL0     H60839  11.436  -1.371   2.999 -0.0484  1.2610  0.2593
  441MOL0     H60840  10.987  -1.386   3.315  0.9570  0.2302 -0.8706
  441MOL0     H60841  10.894  -1.427   3.511 -0.2089 -0.9213 -3.5090
  441MOL0     H60842   9.670  -0.320   4.174  2.5795  1.7819 -1.4569
  441MOL0     H60843   9.668  -0.118   4.337  1.7405  1.7504 -0.8162
  441MOL0     H60844   9.568   0.035   4.686 -1.8827 -0.0765  1.6591
  441MOL0     H60845   9.535   0.182   4.859  0.0594  1.6804 -0.1342
  441MOL0     H60846   9.478   0.368   4.971  0.1818  1.0836 -2.7399
  441MOL0     H60847   9.609   0.322   5.084 -2.7371  0.1507  1.6184
  441MOL0     H60848   9.646   0.508   5.173  0.3913 -1.0729 -0.2694
  441MOL0     H60849   9.471   0.516   5.171 -0.0050 -1.0403  1.0560
  441MOL0     H60850   9.563   0.743   5.103 -4.4190  2.0912 -1.8293
  441MOL0     H60851   9.643   0.671   4.967 -0.1012  0.8116 -0.9986
  441MOL0     H60852   9.403   0.591   4.873 -1.0253  2.5853 -1.5436
  441MOL0     H60853   9.457   0.750   4.872  1.2119 -0.9950 -0.3278
  441MOL0     H60854   9.124   0.740   5.146  0.6668  0.0321  1.3604
  441MOL0     H60855   9.848   0.440   4.749 -1.5444 -0.6926 -2.4656
  441MOL0     H60856  10.043   0.334   4.639 -0.4818  0.7562 -0.4510
  441MOL0     H60857  10.050   0.158   4.626 -0.4570 -0.4462  1.6102
  441MOL0     H60858   9.990   0.250   4.494  1.6761 -0.3875  0.7098
  442MOL0     O60859  10.355   8.264   0.196 -0.6049  0.1402  0.2470
  442MOL0     C60860  10.274   8.196   0.130 -0.7161 -0.5732 -0.0675
  442MOL0     O60861  10.139   8.192   0.147  0.6583 -0.1265  0.4877
  442MOL0     C60862  10.062   8.189   0.262  0.2222 -0.0693  0.3581
  442MOL0     C60863  10.118   8.229   0.386  0.7873 -0.8562  0.7519
  442MOL0     C60864  10.040   8.210   0.501  0.5409 -0.9210 -0.5062
  442MOL0     C60865   9.912   8.161   0.507  0.1721  0.2327  0.8824
  442MOL0     O60866   9.823   8.149   0.609  0.1625  0.3979  0.2648
  442MOL0     C60867   9.839   8.224   0.728 -0.6437  0.0387  0.4859
  442MOL0     C60868   9.732   8.205   0.831 -0.1794  0.4104 -0.1147
  442MOL0     C60869   9.791   8.230   0.970 -0.1374 -0.8777  0.1903
  442MOL0     C60870   9.826   8.375   0.995  0.4021 -0.0743  0.0001
  442MOL0     C60871   9.873   8.408   1.141  0.1347 -0.7021 -0.5514
  442MOL0     C60872   9.946   8.543   1.135  0.0920  0.3437  0.3198
  442MOL0     C60873   9.985   8.596   1.279 -0.4766  0.1510  1.2096
  442MOL0     C60874  10.004   8.753   1.286 -0.3024 -0.1223  0.6347
  442MOL0     N60875   9.889   8.825   1.238 -0.3562  0.1075 -0.1567
  442MOL0     C60876   9.761   8.813   1.298  0.0845 -1.0908 -0.1018
  442MOL0     C60877   9.682   8.886   1.214 -1.3714 -0.1659 -0.5329
  442MOL0     C60878   9.533   8.886   1.213  0.2900  0.3293  0.3260
  442MOL0     C60879   9.466   8.740   1.219 -0.9103  0.3977  0.8178
  442MOL0     C60880   9.310   8.763   1.196 -0.6179  0.7461  0.5081
  442MOL0     C60881   9.218   8.641   1.231  1.0757  0.1419 -1.1079
  442MOL0     O60882   9.209   8.623   1.373 -0.0720 -0.0357 -0.5201
  442MOL0     C60883   9.146   8.505   1.403 -0.1143  0.1130 -0.6236
  442MOL0     C60884   9.224   8.422   1.489  0.4608  1.3680 -0.0340
  442MOL0     C60885   9.178   8.287   1.499 -0.1061 -0.4382  0.0654
  442MOL0     C60886   9.276   8.194   1.568 -0.8472  0.2626 -0.7814
  442MOL0     C60887   9.049   8.253   1.433 -0.9043 -0.0808  0.0988
  442MOL0     C60888   9.008   8.107   1.420 -0.2805 -0.3230  0.1811
  442MOL0     O60889   8.878   8.081   1.376 -0.0578  0.5882  0.0541
  442MOL0     C60890   8.840   7.948   1.361  0.8028  0.1739 -0.7661
  442MOL0     C60891   8.786   7.882   1.480  0.5483  0.2064  0.8661
  442MOL0     C60892   8.732   7.754   1.462 -0.0491 -0.5000 -0.7425
  442MOL0     C60893   8.727   7.692   1.342  0.1726 -0.6166  0.3780
  442MOL0     O60894   8.673   7.561   1.346 -0.1382 -0.3583  0.2184
  442MOL0     C60895   8.715   7.467   1.238 -0.1955 -0.0014  0.7890
  442MOL0     C60896   8.854   7.402   1.267  1.0845 -0.5965  0.2596
  442MOL0     C60897   8.851   7.361   1.419 -0.4143 -0.0679  0.0289
  442MOL0     C60898   8.959   7.263   1.469 -0.2495 -1.0095  0.0254
  442MOL0     C60899   8.957   7.129   1.405  0.0325 -0.0320 -0.1389
  442MOL0     C60900   9.067   7.027   1.448 -0.2444 -0.5473  0.7887
  442MOL0     C60901   9.054   6.901   1.356  0.4120 -0.3053 -1.0266
  442MOL0     C60902   9.178   6.810   1.369 -0.0037 -0.4433  0.0797
  442MOL0    Cl60903   9.203   6.740   1.531 -0.1363  0.2175 -0.0208
  442MOL0     C60904   8.759   7.763   1.224 -0.5081  0.2473  0.4241
  442MOL0     C60905   8.824   7.883   1.236 -0.6963 -0.6391 -0.1381
  442MOL0     O60906   9.088   8.022   1.445  0.0576 -0.3724  0.4518
  442MOL0     C60907   8.979   8.346   1.356 -0.7010  0.4188 -0.2544
  442MOL0     C60908   9.019   8.477   1.352  0.5666 -0.0088 -0.8174
  442MOL0     N60909   9.762   8.954   1.123  0.5077 -0.0656  0.0873
  442MOL0     N60910   9.880   8.918   1.140 -0.6255  1.3976 -0.5088
  442MOL0     C60911   9.867   8.108   0.381 -1.7446  0.3593 -0.4573
  442MOL0     C60912   9.941   8.120   0.263 -1.2293 -0.6625 -1.0794
  442MOL0     C60913  10.327   8.110   0.030  0.5094  0.3906  0.0462
  442MOL0     C60914  10.313   7.976   0.062  0.4644 -0.2245  0.4772
  442MOL0     C60915  10.372   7.883  -0.022  0.0126 -1.0651 -0.1218
  442MOL0     C60916  10.455   7.918  -0.133  0.6702  0.2319  0.0504
  442MOL0     O60917  10.504   7.811  -0.198 -0.1047  0.9252  0.8851
  442MOL0     C60918  10.602   7.829  -0.297 -0.6814  1.0670  0.2260
  442MOL0     C60919  10.598   7.697  -0.380 -0.1506 -0.1751 -0.2272
  442MOL0     C60920  10.473   7.724  -0.478 -0.4213  0.8274  0.1561
  442MOL0     C60921  10.490   7.615  -0.589  0.4139  0.8957 -0.1539
  442MOL0     C60922  10.369   7.599  -0.677 -1.0379 -0.4211  0.4718
  442MOL0     C60923  10.283   7.565  -0.751 -0.0950  0.5867 -0.8139
  442MOL0     C60924  10.450   8.050  -0.180  0.4977  0.5119 -0.6531
  442MOL0     C60925  10.383   8.144  -0.095  0.8223  0.0774 -0.5259
  442MOL0     C60926  10.353   8.286  -0.151 -0.7087  0.6017  0.0990
  442MOL0     H60927  10.219   8.271   0.386  0.0702  0.9386  1.0032
  442MOL0     H60928  10.075   8.258   0.592  0.4878 -2.1002  0.1445
  442MOL0     H60929   9.843   8.329   0.695  2.0086  0.1104  0.8810
  442MOL0     H60930   9.937   8.199   0.769  1.2873  3.2620 -1.6912
  442MOL0     H60931   9.658   8.281   0.803  0.3596  0.3338 -1.9035
  442MOL0     H60932   9.695   8.103   0.815  0.3199  0.3386 -0.8681
  442MOL0     H60933   9.711   8.202   1.039 -1.1467  3.2386  0.9390
  442MOL0     H60934   9.884   8.176   0.987  1.4500  0.8184 -2.3369
  442MOL0     H60935   9.904   8.397   0.922  0.9998 -1.5471  0.1463
  442MOL0     H60936   9.740   8.436   0.969 -2.1159 -3.2539  0.2467
  442MOL0     H60937   9.949   8.338   1.176  0.4151  1.0538  2.6721
  442MOL0     H60938   9.796   8.396   1.217 -1.0282  1.2881 -1.3299
  442MOL0     H60939  10.038   8.527   1.078  1.2158  3.7428  0.9335
  442MOL0     H60940   9.873   8.610   1.090 -1.8248  0.8346  3.8300
  442MOL0     H60941  10.079   8.553   1.313  0.2179  0.1862 -0.5635
  442MOL0     H60942   9.910   8.564   1.352 -0.5362 -1.1170  0.6156
  442MOL0     H60943  10.023   8.789   1.388 -3.8676  0.7350  1.1340
  442MOL0     H60944  10.078   8.784   1.211  0.6975  0.5957  1.8696
  442MOL0     H60945   9.717   8.749   1.374  0.3171 -0.3268  0.6922
  442MOL0     H60946   9.507   8.943   1.123 -0.5348  0.7664  0.8255
  442MOL0     H60947   9.515   8.938   1.308  1.5166 -0.1467  0.8477
  442MOL0     H60948   9.514   8.677   1.143 -2.6165  0.1637 -0.1377
  442MOL0     H60949   9.482   8.696   1.318  1.2970  0.3466  0.4836
  442MOL0     H60950   9.268   8.841   1.260 -1.2069  0.6089  0.2981
  442MOL0     H60951   9.293   8.781   1.090 -3.0056 -1.2481  0.4654
  442MOL0     H60952   9.114   8.664   1.206 -0.8070 -4.1794  1.6259
  442MOL0     H60953   9.251   8.553   1.175  0.5310 -0.3924 -0.6054
  442MOL0     H60954   9.318   8.451   1.535  0.1317  1.1032  0.8200
  442MOL0     H60955   9.354   8.247   1.624 -2.7047 -1.1865  3.6425
  442MOL0     H60956   9.324   8.123   1.499  0.6765  2.8789 -2.6080
  442MOL0     H60957   9.231   8.139   1.651  1.1946 -1.2470 -0.5759
  442MOL0     H60958   8.808   7.934   1.573 -1.4124  3.5457 -0.3411
  442MOL0     H60959   8.702   7.709   1.556  1.8814  1.7324  1.0995
  442MOL0     H60960   8.635   7.393   1.249  0.2612 -0.4877  0.9040
  442MOL0     H60961   8.728   7.505   1.136  2.3090 -1.3881  0.4956
  442MOL0     H60962   8.858   7.318   1.198 -0.3808 -0.2510 -0.2693
  442MOL0     H60963   8.938   7.471   1.253 -3.4529  5.9404  0.3928
  442MOL0     H60964   8.755   7.313   1.442 -2.2764  2.6557 -1.5204
  442MOL0     H60965   8.863   7.437   1.496  1.9905 -0.4642  0.1232
  442MOL0     H60966   8.942   7.251   1.576 -0.1905  2.3425  0.5247
  442MOL0     H60967   9.060   7.299   1.444 -1.1399  0.1264 -2.1915
  442MOL0     H60968   8.857   7.090   1.427  0.0566 -0.1867 -0.3102
  442MOL0     H60969   8.976   7.156   1.300  3.0895  2.2437  0.8367
  442MOL0     H60970   9.063   6.998   1.554  1.8483  0.0115  1.0594
  442MOL0     H60971   9.166   7.073   1.438  0.0531 -0.4891  3.3306
  442MOL0     H60972   9.035   6.921   1.250 -1.3812 -0.2628 -0.7239
  442MOL0     H60973   8.975   6.833   1.389  2.2218 -1.2704  1.6553
  442MOL0     H60974   9.270   6.866   1.347 -1.0161  0.9495 -0.8107
  442MOL0     H60975   9.163   6.718   1.312  0.3240 -1.3434  1.4005
  442MOL0     H60976   8.758   7.721   1.124 -0.5427  1.7208 -0.2305
  442MOL0     H60977   8.874   7.930   1.152 -1.2289  3.0020  1.4211
  442MOL0     H60978   8.887   8.324   1.302 -1.7280  0.4192  1.4140
  442MOL0     H60979   8.956   8.556   1.312 -0.6291  0.5177  1.8953
  442MOL0     H60980   9.771   8.060   0.366 -0.7161 -2.3341  0.8895
  442MOL0     H60981   9.898   8.077   0.173 -2.2327  2.2353 -2.0922
  442MOL0     H60982  10.254   7.958   0.151 -0.1183  2.0444  0.6044
  442MOL0     H60983  10.381   7.784   0.023 -0.4274 -1.2964 -0.5314
  442MOL0     H60984  10.576   7.919  -0.355 -1.4898  0.7667  0.1097
  442MOL0     H60985  10.699   7.823  -0.248 -1.0391  0.6748  0.8957
  442MOL0     H60986  10.588   7.601  -0.329 -3.5900 -1.0852 -2.2635
  442MOL0     H60987  10.686   7.693  -0.445  0.6772  0.0781  0.8632
  442MOL0     H60988  10.381   7.712  -0.419  0.0615 -0.5922  0.6758
  442MOL0     H60989  10.475   7.827  -0.515 -1.8447  0.8941  0.1786
  442MOL0     H60990  10.510   7.525  -0.531 -1.6164  0.4739 -0.0210
  442MOL0     H60991  10.583   7.636  -0.644 -0.1488  1.6795 -0.8342
  442MOL0     H60992  10.218   7.524  -0.827 -0.8966  1.7029 -0.7630
  442MOL0     H60993  10.480   8.086  -0.278  2.4994  0.3990 -0.1239
  442MOL0     H60994  10.391   8.359  -0.078 -0.0775 -1.1368  1.5904
  442MOL0     H60995  10.408   8.308  -0.243  0.3720 -1.0541  0.3084
  442MOL0     H60996  10.249   8.309  -0.174 -0.7140  0.7797  0.2954
  443MOL0     O60997   5.701  10.492   9.638  0.4002 -0.2015 -0.2390
  443MOL0     C60998   5.801  10.477   9.567 -0.1278  0.2376  0.0996
  443MOL0     O60999   5.835  10.361   9.503 -0.3290 -0.0675  0.1889
  443MOL0     C61000   5.759  10.251   9.538 -0.6690  1.3170 -0.3428
  443MOL0     C61001   5.838  10.133   9.554 -0.2201 -0.4075  0.7909
  443MOL0     C61002   5.774  10.008   9.564 -0.3049  0.0501  0.7480
  443MOL0     C61003   5.634  10.002   9.545  0.6936  0.1215  0.6293
  443MOL0     O61004   5.575   9.881   9.552 -0.6058 -0.0213 -0.0363
  443MOL0     C61005   5.560   9.824   9.680 -0.1171  1.4198 -0.9810
  443MOL0     C61006   5.504   9.686   9.673  0.0549 -0.9044  1.2945
  443MOL0     C61007   5.358   9.683   9.613  0.8852 -0.9906  0.2291
  443MOL0     C61008   5.311   9.540   9.587 -0.3355 -0.0183  0.5588
  443MOL0     C61009   5.172   9.530   9.525  0.6195 -0.7222  0.2628
  443MOL0     C61010   5.053   9.586   9.618  0.0653  0.6336 -0.2076
  443MOL0     C61011   5.010   9.478   9.719  0.4628 -0.0277  0.0966
  443MOL0     C61012   4.885   9.517   9.794 -1.0451  0.5962 -0.0411
  443MOL0     N61013   4.854   9.430   9.904 -0.6597  0.0506 -0.7432
  443MOL0     C61014   4.945   9.373   9.994  0.8165  0.0230 -0.9427
  443MOL0     C61015   4.869   9.302  10.075  0.3490  0.0752 -0.3595
  443MOL0     C61016   4.918   9.206  10.185 -0.8719  0.6236  1.2558
  443MOL0     C61017   4.902   9.257  10.328  0.2937 -0.6108  0.3902
  443MOL0     C61018   4.756   9.294  10.373  1.0968 -0.5463 -0.2635
  443MOL0     C61019   4.741   9.322  10.521  0.3874  0.2026  0.1204
  443MOL0     O61020   4.824   9.433  10.559  0.1250 -0.8727  0.2047
  443MOL0     C61021   4.824   9.452  10.686 -0.7532 -0.2943 -1.0287
  443MOL0     C61022   4.756   9.561  10.736 -0.1405 -0.3728 -0.5782
  443MOL0     C61023   4.762   9.585  10.874  0.5419 -0.5517  0.4169
  443MOL0     C61024   4.662   9.684  10.933  0.2882  0.7347 -0.4407
  443MOL0     C61025   4.844   9.506  10.955  0.5514 -0.0722  0.2116
  443MOL0     C61026   4.869   9.537  11.096 -0.9007  0.1357 -0.0107
  443MOL0     O61027   4.863   9.674  11.140  0.2702 -0.0605 -0.4712
  443MOL0     C61028   4.901   9.716  11.269 -0.1351 -0.4134  1.3053
  443MOL0     C61029   4.947   9.634  11.372 -1.1391  0.8955 -0.9202
  443MOL0     C61030   4.980   9.681  11.500 -1.6945 -0.5092  0.1769
  443MOL0     C61031   4.982   9.826  11.525 -0.3639  0.0083 -0.5019
  443MOL0     O61032   5.019   9.880  11.642  0.3721  0.8100 -0.5589
  443MOL0     C61033   5.142   9.819  11.689 -0.4228  0.3152  0.3036
  443MOL0     C61034   5.265   9.816  11.596  0.1145 -1.1374  0.7029
  443MOL0     C61035   5.312   9.952  11.537  0.6124 -0.1188 -0.6540
  443MOL0     C61036   5.448   9.942  11.465  0.1638  0.3509 -1.1333
  443MOL0     C61037   5.492  10.077  11.425  0.1016  0.3780  0.0721
  443MOL0     C61038   5.549  10.157  11.539  0.0254 -0.3034  1.3628
  443MOL0     C61039   5.604  10.290  11.476  0.4804  0.2924 -0.3044
  443MOL0     C61040   5.699  10.352  11.573  0.7961  0.7184  0.5186
  443MOL0    Cl61041   5.661  10.349  11.749 -0.4005 -0.4396  0.2931
  443MOL0     C61042   4.935   9.907  11.423 -0.3889  0.2529 -0.5746
  443MOL0     C61043   4.898   9.850  11.296  1.2736  0.2876  0.0013
  443MOL0     O61044   4.885   9.432  11.165  0.3332 -0.1581  0.0400
  443MOL0     C61045   4.910   9.394  10.905  0.0488 -0.7110  0.4768
  443MOL0     C61046   4.903   9.369  10.769 -0.4369 -0.9082  0.1921
  443MOL0     N61047   4.732   9.303  10.032 -0.1618 -0.7880  0.2977
  443MOL0     N61048   4.728   9.383   9.937 -0.3815  0.0852  1.0606
  443MOL0     C61049   5.557  10.116   9.528  0.8819 -0.5908 -0.9387
  443MOL0     C61050   5.623  10.237   9.527  0.3086 -0.2388  0.3211
  443MOL0     C61051   5.873  10.599   9.537 -0.5455 -0.7303  0.9252
  443MOL0     C61052   5.813  10.719   9.512  0.7816  0.1484 -1.0720
  443MOL0     C61053   5.893  10.829   9.481  0.1597  0.4936  0.0819
  443MOL0     C61054   6.028  10.810   9.474  0.1621  0.4887 -0.4423
  443MOL0     O61055   6.091  10.919   9.419 -0.1117 -0.6962 -0.3079
  443MOL0     C61056   6.173  10.901   9.302  1.0659 -0.4456 -0.4138
  443MOL0     C61057   6.166  11.035   9.219  0.1054 -0.2358  0.5219
  443MOL0     C61058   6.212  11.014   9.075 -0.1713 -0.5057 -0.5367
  443MOL0     C61059   6.236  11.148   9.012 -0.2017  0.1779 -0.9020
  443MOL0     C61060   6.125  11.224   8.957 -0.3130  0.4606  0.9545
  443MOL0     C61061   6.042  11.303   8.899 -1.9105 -0.6903 -0.1992
  443MOL0     C61062   6.093  10.702   9.521  0.2752  0.2459 -0.4143
  443MOL0     C61063   6.009  10.594   9.555  0.4946  0.0631 -1.3473
  443MOL0     C61064   6.080  10.479   9.623 -0.7737 -0.0609  0.6841
  443MOL0     H61065   5.945  10.146   9.537  0.0164 -1.5758  1.2784
  443MOL0     H61066   5.817   9.909   9.571 -0.3244  0.1030  1.8145
  443MOL0     H61067   5.486   9.890   9.726 -0.3304  1.1307 -0.9083
  443MOL0     H61068   5.652   9.827   9.738 -0.0001 -1.2768 -0.9178
  443MOL0     H61069   5.573   9.634   9.605  0.9713  1.8238 -0.0065
  443MOL0     H61070   5.499   9.634   9.769 -0.7847 -0.5604  1.4491
  443MOL0     H61071   5.297   9.735   9.688  0.1545  0.2799 -1.2046
  443MOL0     H61072   5.347   9.748   9.526  1.1321 -0.3681  0.6499
  443MOL0     H61073   5.385   9.504   9.514  2.9020  3.7049  1.6542
  443MOL0     H61074   5.312   9.481   9.679 -0.5422  0.2970  0.7647
  443MOL0     H61075   5.161   9.422   9.507 -2.7904 -0.5908  0.8762
  443MOL0     H61076   5.152   9.576   9.429  0.2650 -1.6629 -0.1263
  443MOL0     H61077   5.074   9.678   9.674 -1.4535 -0.0732  1.6281
  443MOL0     H61078   4.966   9.611   9.557 -1.8782 -1.3094  1.6051
  443MOL0     H61079   5.094   9.445   9.781 -0.5794 -0.9502  1.0616
  443MOL0     H61080   4.989   9.387   9.662 -0.6780  0.8397 -0.9330
  443MOL0     H61081   4.884   9.619   9.834 -0.2646  0.5035  0.2232
  443MOL0     H61082   4.800   9.499   9.727 -0.6550 -3.5920  0.3200
  443MOL0     H61083   5.053   9.377   9.984  0.8463  0.2734 -0.5170
  443MOL0     H61084   5.027   9.206  10.185 -0.7561 -2.9505  0.0201
  443MOL0     H61085   4.874   9.108  10.164 -0.7574  1.0998 -1.5584
  443MOL0     H61086   4.945   9.175  10.386  0.9916 -3.2111 -3.4613
  443MOL0     H61087   4.954   9.353  10.340 -0.7778  0.1768 -0.9850
  443MOL0     H61088   4.718   9.378  10.315  1.7221  0.3208  0.5537
  443MOL0     H61089   4.685   9.212  10.360 -0.0921  0.1939  1.2940
  443MOL0     H61090   4.634   9.335  10.541  0.2782  1.3766 -1.1038
  443MOL0     H61091   4.774   9.232  10.574  1.7815  1.0114  0.6862
  443MOL0     H61092   4.699   9.615  10.660  1.6308 -0.9081 -2.3641
  443MOL0     H61093   4.601   9.733  10.856  3.4447  1.1733 -2.8985
  443MOL0     H61094   4.710   9.770  10.979  0.2546 -0.8334  2.8153
  443MOL0     H61095   4.599   9.633  11.007  3.5797 -1.6859  0.9661
  443MOL0     H61096   4.975   9.532  11.344 -1.3002 -0.2038  2.4633
  443MOL0     H61097   5.000   9.608  11.578 -1.2601 -1.0940 -0.4775
  443MOL0     H61098   5.176   9.861  11.784 -2.6764 -1.1862  1.8673
  443MOL0     H61099   5.128   9.716  11.723  1.4235  0.2229  0.9128
  443MOL0     H61100   5.348   9.767  11.648  2.5814 -0.6542 -2.4385
  443MOL0     H61101   5.237   9.751  11.512  0.6597  2.0279 -2.1743
  443MOL0     H61102   5.314  10.023  11.620 -0.5796 -1.2168  0.3502
  443MOL0     H61103   5.239   9.982  11.461  0.4726  0.9495 -0.1194
  443MOL0     H61104   5.436   9.882  11.375  0.1703 -0.8493 -0.3473
  443MOL0     H61105   5.531   9.896  11.519  1.2527  0.3849 -2.7117
  443MOL0     H61106   5.567  10.065  11.346 -0.4500 -2.4533 -0.1333
  443MOL0     H61107   5.409  10.133  11.380  0.5249  0.4274 -0.6678
  443MOL0     H61108   5.639  10.108  11.576 -0.1378 -2.3939 -0.7872
  443MOL0     H61109   5.473  10.189  11.612 -1.4240  2.2819 -1.0517
  443MOL0     H61110   5.531  10.368  11.450  1.4573  1.4906  0.4504
  443MOL0     H61111   5.653  10.277  11.379 -0.0861  3.5323 -1.1663
  443MOL0     H61112   5.715  10.457  11.547  1.7164  0.5603  0.3840
  443MOL0     H61113   5.795  10.303  11.550 -0.1489 -0.6345 -0.7074
  443MOL0     H61114   4.934  10.014  11.441  1.3150 -0.0449  1.5655
  443MOL0     H61115   4.883   9.924  11.219  0.9120  0.6664  0.4277
  443MOL0     H61116   4.967   9.321  10.961  0.1324 -1.1692 -0.1969
  443MOL0     H61117   4.967   9.298  10.718  1.3728  2.0356 -1.9375
  443MOL0     H61118   5.450  10.116   9.508  0.3054  1.3409  1.6648
  443MOL0     H61119   5.570  10.330   9.505 -1.2336 -1.7660 -3.3247
  443MOL0     H61120   5.706  10.741   9.509  0.6212 -0.3653  0.0785
  443MOL0     H61121   5.847  10.925   9.463 -0.1071  0.1633 -1.1073
  443MOL0     H61122   6.272  10.870   9.338 -0.0939 -2.5402  1.2297
  443MOL0     H61123   6.123  10.817   9.253  1.8665 -1.5500  0.5808
  443MOL0     H61124   6.224  11.107   9.278  0.9989  3.1252 -3.9368
  443MOL0     H61125   6.066  11.081   9.221  1.0855  2.1149 -0.5544
  443MOL0     H61126   6.311  10.968   9.069 -0.5621 -1.2202 -1.8821
  443MOL0     H61127   6.133  10.965   9.016 -1.1979  0.1528  0.2506
  443MOL0     H61128   6.297  11.114   8.928 -0.6528 -0.1725 -1.0916
  443MOL0     H61129   6.296  11.211   9.078 -1.7344  0.9054 -0.1342
  443MOL0     H61130   5.964  11.370   8.870  0.1564  2.4489  0.9879
  443MOL0     H61131   6.201  10.699   9.532  0.0276 -0.8067  2.5261
  443MOL0     H61132   6.171  10.511   9.673 -1.5674  1.1202  1.4391
  443MOL0     H61133   6.016  10.434   9.699  3.3483 -1.8493  3.3645
  443MOL0     H61134   6.085  10.403   9.544  0.6958  1.6136 -0.9441
  444MOL0     O61135  10.560   8.962   9.398 -0.8659  0.4484 -0.0440
  444MOL0     C61136  10.587   8.910   9.506  0.6632 -0.1667 -0.1006
  444MOL0     O61137  10.605   8.986   9.618 -0.3032 -0.2035 -0.4199
  444MOL0     C61138  10.627   9.122   9.625 -0.0301  0.7220 -0.6335
  444MOL0     C61139  10.664   9.197   9.510 -0.0429  0.3039 -1.2159
  444MOL0     C61140  10.680   9.339   9.512  0.4370 -0.0268 -0.8649
  444MOL0     C61141  10.630   9.405   9.625 -0.5877  0.1337 -0.6376
  444MOL0     O61142  10.630   9.542   9.630  0.4521 -0.1810 -0.3255
  444MOL0     C61143  10.502   9.586   9.599 -0.1004  0.3669  0.2178
  444MOL0     C61144  10.456   9.687   9.709  0.4080  0.1482  0.0341
  444MOL0     C61145  10.566   9.788   9.759  0.0100 -0.0231 -0.6285
  444MOL0     C61146  10.614   9.888   9.661 -0.2178  0.1657 -0.2897
  444MOL0     C61147  10.507   9.990   9.627  0.8848 -0.6234 -0.2925
  444MOL0     C61148  10.453   9.975   9.478  1.4415 -0.2954 -0.5423
  444MOL0     C61149  10.538  10.047   9.371  1.0804  0.2273  0.2600
  444MOL0     C61150  10.521  10.194   9.369 -0.5854 -0.6054 -0.6189
  444MOL0     N61151  10.568  10.256   9.250 -0.8801 -0.6122  0.1239
  444MOL0     C61152  10.498  10.240   9.127  0.5938  0.7317  0.4785
  444MOL0     C61153  10.550  10.328   9.040  0.2670 -0.7315  0.4629
  444MOL0     C61154  10.506  10.363   8.900 -1.2369  0.3562  0.3921
  444MOL0     C61155  10.635  10.367   8.799 -0.2720 -0.2593 -0.9686
  444MOL0     C61156  10.750  10.269   8.822 -0.0030  0.4492  0.4820
  444MOL0     C61157  10.709  10.129   8.835 -0.1708  0.5516  0.2645
  444MOL0     O61158  10.651  10.088   8.712  0.2258  0.0005  0.2117
  444MOL0     C61159  10.614   9.961   8.706 -0.0073 -0.0444  0.6191
  444MOL0     C61160  10.486   9.925   8.740 -0.0332 -0.0031 -0.2038
  444MOL0     C61161  10.442   9.789   8.728  0.6507 -0.3392 -0.1026
  444MOL0     C61162  10.294   9.765   8.759 -0.0502 -0.5666  0.1910
  444MOL0     C61163  10.526   9.686   8.676  1.0952  0.7764 -0.6342
  444MOL0     C61164  10.474   9.542   8.679  0.2977  0.0042  0.1573
  444MOL0     O61165  10.540   9.470   8.577 -0.2136  0.3236 -0.5555
  444MOL0     C61166  10.521   9.332   8.570 -0.3118  0.5758 -0.8230
  444MOL0     C61167  10.595   9.254   8.662  0.1688 -0.4506 -0.2689
  444MOL0     C61168  10.592   9.115   8.651 -0.1490 -0.5503  0.7759
  444MOL0     C61169  10.509   9.059   8.548  0.2778 -0.1459 -0.6865
  444MOL0     O61170  10.492   8.920   8.548 -0.0795 -0.0873  0.2793
  444MOL0     C61171  10.519   8.854   8.419  0.4132 -0.6401 -0.4503
  444MOL0     C61172  10.537   8.697   8.428 -1.0381 -0.4655  0.0937
  444MOL0     C61173  10.636   8.643   8.527  0.1107 -0.2254 -0.5782
  444MOL0     C61174  10.656   8.497   8.505 -0.8342 -0.0788  0.2140
  444MOL0     C61175  10.743   8.436   8.618  0.5003 -0.4092 -1.0024
  444MOL0     C61176  10.890   8.482   8.630  0.1095  0.2508 -0.9996
  444MOL0     C61177  10.981   8.467   8.520  0.0153 -0.1810 -0.0172
  444MOL0     C61178  11.133   8.528   8.519  0.0414  0.7918 -0.6567
  444MOL0    Cl61179  11.138   8.694   8.455  0.0387 -0.2184 -0.0679
  444MOL0     C61180  10.422   9.139   8.468 -0.9563 -0.1406  0.1878
  444MOL0     C61181  10.440   9.276   8.476 -0.1932  0.4878  0.2489
  444MOL0     O61182  10.428   9.496   8.782  0.5967  0.1663 -0.8368
  444MOL0     C61183  10.657   9.712   8.655 -0.2788 -0.5945 -0.1591
  444MOL0     C61184  10.698   9.849   8.680 -0.4404 -0.1576 -0.1310
  444MOL0     N61185  10.652  10.395   9.115  0.0215 -0.2098 -0.4176
  444MOL0     N61186  10.659  10.353   9.238  0.5135  0.6273 -0.5690
  444MOL0     C61187  10.582   9.328   9.731  0.6324 -0.8656  0.0532
  444MOL0     C61188  10.573   9.190   9.730 -0.9786  0.5198 -0.2869
  444MOL0     C61189  10.612   8.769   9.520  0.6112  0.6552  0.2719
  444MOL0     C61190  10.659   8.712   9.639 -0.5320  0.4840  0.3275
  444MOL0     C61191  10.676   8.579   9.666  1.0698  0.2669 -1.3069
  444MOL0     C61192  10.686   8.488   9.561 -0.1774  0.1083 -0.0313
  444MOL0     O61193  10.716   8.355   9.589  0.2267 -0.1594  0.2120
  444MOL0     C61194  10.832   8.310   9.523 -0.4305 -0.3559  0.0718
  444MOL0     C61195  10.861   8.166   9.565 -1.1407 -0.4350 -1.1745
  444MOL0     C61196  10.894   8.160   9.703 -0.4068 -0.7858  0.4394
  444MOL0     C61197  10.984   8.039   9.725  0.0795  0.4509 -0.2879
  444MOL0     C61198  10.965   7.976   9.854  0.1335  0.3197 -0.9931
  444MOL0     C61199  10.950   7.919   9.963 -0.1468  0.1236 -1.0434
  444MOL0     C61200  10.649   8.537   9.434  1.1301 -0.1824 -1.0973
  444MOL0     C61201  10.606   8.672   9.408 -0.0184 -0.1919 -0.8628
  444MOL0     C61202  10.567   8.701   9.260 -1.2042 -0.0700 -0.2584
  444MOL0     H61203  10.714   9.153   9.425  1.2764 -0.8570  0.1161
  444MOL0     H61204  10.734   9.393   9.436  1.5374  0.1035 -0.0272
  444MOL0     H61205  10.431   9.505   9.581 -1.9226  0.6384  4.8317
  444MOL0     H61206  10.511   9.648   9.509  0.9762  0.0046  0.0662
  444MOL0     H61207  10.369   9.751   9.688 -0.4195 -0.5559  1.1872
  444MOL0     H61208  10.410   9.622   9.784 -2.0698  0.7805 -0.8201
  444MOL0     H61209  10.518   9.838   9.844  0.0486 -0.0526 -0.5894
  444MOL0     H61210  10.659   9.740   9.790  0.5919 -0.0358 -2.2828
  444MOL0     H61211  10.705   9.934   9.699  0.2896  0.8625 -2.2285
  444MOL0     H61212  10.648   9.848   9.565  0.1014 -1.7894  0.6046
  444MOL0     H61213  10.523  10.097   9.636  1.4259 -0.5747 -1.5882
  444MOL0     H61214  10.435   9.959   9.704  2.3465 -0.9754  0.9696
  444MOL0     H61215  10.443   9.872   9.443  1.7594 -0.8560  0.9161
  444MOL0     H61216  10.349  10.006   9.483  1.2312 -1.1100  2.5096
  444MOL0     H61217  10.497  10.016   9.275 -0.0407  1.2389  0.3810
  444MOL0     H61218  10.641  10.012   9.377  0.6637 -1.0671  0.1269
  444MOL0     H61219  10.415  10.215   9.384 -1.0517 -3.3014  0.4737
  444MOL0     H61220  10.588  10.236   9.445 -0.9605 -0.0959 -0.5618
  444MOL0     H61221  10.412  10.177   9.109  2.5653 -2.1906  0.5947
  444MOL0     H61222  10.451  10.457   8.904 -1.9953  0.0047 -1.1001
  444MOL0     H61223  10.446  10.283   8.857 -1.7862  0.2174  1.3935
  444MOL0     H61224  10.608  10.356   8.693  2.2335 -0.2667 -1.6870
  444MOL0     H61225  10.689  10.461   8.811 -0.1983 -0.3017 -0.9705
  444MOL0     H61226  10.817  10.279   8.735 -0.1463  2.0208  0.5178
  444MOL0     H61227  10.812  10.292   8.909  2.6200 -0.2531 -1.0583
  444MOL0     H61228  10.798  10.068   8.850  0.2367 -0.0436 -3.6591
  444MOL0     H61229  10.634  10.113   8.914  0.8343 -0.2287  1.0876
  444MOL0     H61230  10.419  10.004   8.773 -1.2434 -0.8010 -0.7026
  444MOL0     H61231  10.285   9.703   8.849  1.2822 -0.2920  0.5462
  444MOL0     H61232  10.246   9.716   8.675  2.7351 -0.3393 -1.6679
  444MOL0     H61233  10.240   9.859   8.773  3.1694  1.3893  0.4926
  444MOL0     H61234  10.663   9.311   8.724 -1.3336 -1.0617  2.0973
  444MOL0     H61235  10.658   9.056   8.714  3.5245  1.3436 -0.9984
  444MOL0     H61236  10.427   8.874   8.364  0.4668  1.4551  0.1050
  444MOL0     H61237  10.600   8.913   8.373  0.7071 -0.1219  0.6618
  444MOL0     H61238  10.440   8.654   8.451 -1.9071  1.3700  0.0243
  444MOL0     H61239  10.570   8.663   8.329 -2.0703 -2.3087  0.3317
  444MOL0     H61240  10.608   8.669   8.630 -0.3592 -3.0868  0.0950
  444MOL0     H61241  10.733   8.692   8.510  2.2703 -1.8059  4.9232
  444MOL0     H61242  10.710   8.489   8.410 -0.7785 -1.0190  0.3110
  444MOL0     H61243  10.567   8.433   8.496 -1.6309  1.2644 -2.5347
  444MOL0     H61244  10.692   8.459   8.712 -1.1939 -0.3825 -1.8761
  444MOL0     H61245  10.733   8.327   8.619 -1.8415 -0.2538  0.3846
  444MOL0     H61246  10.926   8.435   8.722  3.2932  4.0967 -0.0091
  444MOL0     H61247  10.902   8.586   8.660  0.4722 -0.0895  0.0621
  444MOL0     H61248  10.932   8.488   8.425  0.9891 -1.2831 -0.7976
  444MOL0     H61249  11.016   8.363   8.519 -0.0833 -0.2448  1.3922
  444MOL0     H61250  11.195   8.462   8.458 -0.0022 -0.4807  0.6192
  444MOL0     H61251  11.158   8.528   8.625  1.0701 -0.6836 -0.8567
  444MOL0     H61252  10.358   9.092   8.394 -0.6813  0.4135 -0.4131
  444MOL0     H61253  10.381   9.345   8.415 -0.3052 -0.8827 -1.2569
  444MOL0     H61254  10.732   9.637   8.631 -1.6477 -1.6821 -1.2260
  444MOL0     H61255  10.799   9.889   8.676 -1.1172  2.0771  2.4509
  444MOL0     H61256  10.553   9.392   9.814  2.4688  3.5628 -2.3799
  444MOL0     H61257  10.525   9.139   9.813  0.0140 -1.5414 -0.9162
  444MOL0     H61258  10.663   8.784   9.720 -0.5897  3.2930 -2.0171
  444MOL0     H61259  10.692   8.530   9.761 -2.0725 -0.6477 -1.1348
  444MOL0     H61260  10.831   8.327   9.415 -1.2852  2.4450  0.4288
  444MOL0     H61261  10.915   8.370   9.562 -0.7347 -0.3173  0.6795
  444MOL0     H61262  10.939   8.119   9.503  0.4009  2.6502 -1.7420
  444MOL0     H61263  10.763   8.120   9.545 -0.5209 -1.9628 -0.8822
  444MOL0     H61264  10.921   8.258   9.742 -2.5675 -0.0601  0.2467
  444MOL0     H61265  10.800   8.137   9.755 -1.8071 -1.1472 -2.1004
  444MOL0     H61266  11.088   8.072   9.717 -0.2240  2.3532  2.2929
  444MOL0     H61267  10.957   7.963   9.651  2.4368 -0.0150 -0.7345
  444MOL0     H61268  10.932   7.861  10.051  2.2128  1.9675  0.7904
  444MOL0     H61269  10.648   8.451   9.369  0.7884  0.4767 -1.9817
  444MOL0     H61270  10.630   8.638   9.197 -1.1851 -0.2221 -0.0873
  444MOL0     H61271  10.464   8.663   9.260 -0.9340 -0.8724  1.2744
  444MOL0     H61272  10.562   8.805   9.226 -0.7827 -0.9725 -3.3716
  445MOL0     O61273   5.365   6.009  10.800  0.8253 -0.2317  0.1601
  445MOL0     C61274   5.392   6.055  10.690 -0.5715 -0.5581 -0.5058
  445MOL0     O61275   5.512   6.064  10.634 -0.5378 -0.0671  0.1277
  445MOL0     C61276   5.612   5.984  10.687 -0.1100  0.7562  0.0375
  445MOL0     C61277   5.649   5.996  10.818 -0.2145 -0.1128 -0.5916
  445MOL0     C61278   5.733   5.898  10.874  0.8203 -0.3759 -0.2519
  445MOL0     C61279   5.779   5.792  10.799 -0.2738 -0.7172 -0.0460
  445MOL0     O61280   5.857   5.690  10.851 -1.0152 -1.2016 -0.6224
  445MOL0     C61281   5.912   5.716  10.980 -0.7100  0.0490  0.0225
  445MOL0     C61282   6.019   5.615  11.016  0.2133 -0.9627  0.5637
  445MOL0     C61283   5.966   5.474  11.034 -0.2027 -0.7440 -0.0486
  445MOL0     C61284   5.890   5.462  11.159 -0.5235  0.1736  0.5202
  445MOL0     C61285   5.870   5.321  11.206 -0.5246  0.4599  0.2781
  445MOL0     C61286   5.780   5.309  11.323  0.3175 -0.2747 -0.1073
  445MOL0     C61287   5.634   5.380  11.303  0.2535 -0.4226  0.0897
  445MOL0     C61288   5.536   5.353  11.417  0.5111 -0.2416 -0.2741
  445MOL0     N61289   5.557   5.438  11.530 -0.6282 -0.0400 -0.3593
  445MOL0     C61290   5.493   5.564  11.551  0.5471  0.4011 -0.6777
  445MOL0     C61291   5.571   5.625  11.645  0.4202 -0.6722 -0.5718
  445MOL0     C61292   5.541   5.749  11.729  0.5826  0.4427  0.3106
  445MOL0     C61293   5.634   5.873  11.711 -0.0630 -0.2902 -0.6819
  445MOL0     C61294   5.581   5.998  11.801  0.7114 -0.5730 -0.3537
  445MOL0     C61295   5.430   6.005  11.836  0.4656 -0.2441  0.7368
  445MOL0     O61296   5.386   5.929  11.946 -0.6155 -0.6040 -0.1091
  445MOL0     C61297   5.257   5.938  11.977  0.8029 -0.7649  0.5849
  445MOL0     C61298   5.211   5.827  12.051  0.3976  0.6961  0.4313
  445MOL0     C61299   5.073   5.809  12.087  0.4179 -0.0634  1.1842
  445MOL0     C61300   5.050   5.683  12.178 -0.4527 -0.3594  0.6985
  445MOL0     C61301   4.982   5.913  12.059 -0.2983 -0.4062 -0.4312
  445MOL0     C61302   4.846   5.912  12.114  0.2268  0.8504 -0.0923
  445MOL0     O61303   4.801   5.807  12.181  0.4449 -0.5968 -0.3852
  445MOL0     C61304   4.683   5.808  12.251  0.1946  0.1919  0.5960
  445MOL0     C61305   4.683   5.775  12.381 -0.9647 -0.1378 -0.2054
  445MOL0     C61306   4.565   5.770  12.450  0.4623  0.8504 -0.2137
  445MOL0     C61307   4.433   5.789  12.393  0.0761 -0.3308 -0.2896
  445MOL0     O61308   4.321   5.765  12.473  0.0551 -1.1000 -0.4137
  445MOL0     C61309   4.205   5.842  12.435  0.5094  0.0545 -0.6821
  445MOL0     C61310   4.090   5.806  12.533 -0.8617  0.2001  0.1905
  445MOL0     C61311   3.956   5.844  12.473  0.2259 -0.1162  0.2950
  445MOL0     C61312   3.828   5.813  12.551 -0.2483  0.5576  0.0961
  445MOL0     C61313   3.701   5.863  12.486 -0.8295 -0.4838  0.0185
  445MOL0     C61314   3.720   6.013  12.457  0.7449  0.0305 -0.3161
  445MOL0     C61315   3.579   6.076  12.432  0.3562 -0.3343 -0.4567
  445MOL0     C61316   3.503   6.096  12.566  0.0534  0.2646  0.4069
  445MOL0    Cl61317   3.350   6.184  12.538  0.0689 -0.1310 -0.2656
  445MOL0     C61318   4.437   5.816  12.254 -0.7175  0.4899 -0.2731
  445MOL0     C61319   4.563   5.831  12.188  1.6474  0.4689  0.0236
  445MOL0     O61320   4.791   6.023  12.109  0.1269  0.0806  0.1130
  445MOL0     C61321   5.031   6.027  11.987  0.0665 -0.1588 -0.4448
  445MOL0     C61322   5.164   6.037  11.947  0.3254  0.0863 -0.9747
  445MOL0     N61323   5.677   5.551  11.678  0.0194  0.3774 -0.3441
  445MOL0     N61324   5.669   5.440  11.614  0.0533  0.0221  0.1380
  445MOL0     C61325   5.747   5.791  10.655 -0.4127  0.7052 -1.1213
  445MOL0     C61326   5.654   5.882  10.599 -0.1453 -0.4701  0.1273
  445MOL0     C61327   5.282   6.095  10.598 -0.2902 -0.6313 -0.2842
  445MOL0     C61328   5.295   6.213  10.518 -1.0290 -0.8696 -0.3609
  445MOL0     C61329   5.196   6.252  10.426 -0.6637 -0.5929 -0.1445
  445MOL0     C61330   5.078   6.182  10.414  0.1908 -0.2986 -0.1397
  445MOL0     O61331   4.975   6.213  10.328 -0.6288  0.1937  0.0255
  445MOL0     C61332   4.981   6.330  10.250  0.0367 -0.3614 -0.5047
  445MOL0     C61333   4.837   6.375  10.231  0.3768 -0.1979 -0.9696
  445MOL0     C61334   4.816   6.458  10.106  0.6049  0.9871  0.9867
  445MOL0     C61335   4.879   6.605  10.108  0.1632  0.7873  0.5429
  445MOL0     C61336   4.838   6.673  10.235 -0.0910  0.4830 -0.0242
  445MOL0     C61337   4.803   6.730  10.336  0.0978  0.9021 -0.3023
  445MOL0     C61338   5.070   6.062  10.488 -0.5007 -1.5079 -0.3297
  445MOL0     C61339   5.168   6.015  10.577 -0.1766  0.2617  0.5594
  445MOL0     C61340   5.146   5.887  10.638  0.1165 -0.8410  0.3689
  445MOL0     H61341   5.617   6.070  10.891  2.8259  0.2417  0.5398
  445MOL0     H61342   5.774   5.924  10.971  2.0972 -2.9930  0.0092
  445MOL0     H61343   5.828   5.714  11.050 -2.1232  3.5824 -1.3488
  445MOL0     H61344   5.950   5.818  10.991 -3.1185  0.9641  0.7471
  445MOL0     H61345   6.095   5.623  10.937 -0.6506  0.7206 -0.1389
  445MOL0     H61346   6.060   5.650  11.112 -2.7671 -1.0241  1.9805
  445MOL0     H61347   5.907   5.443  10.947  0.0424  1.3634 -1.0269
  445MOL0     H61348   6.049   5.404  11.024  1.9582  1.9704 -7.2858
  445MOL0     H61349   5.923   5.532  11.237 -3.2732 -1.4169  3.3186
  445MOL0     H61350   5.791   5.503  11.137  1.0018  3.0251 -1.7332
  445MOL0     H61351   5.965   5.269  11.223  0.6285  2.5425  0.5200
  445MOL0     H61352   5.817   5.270  11.125 -1.3538  0.3498  0.8682
  445MOL0     H61353   5.758   5.208  11.358  3.4844 -0.0701  3.0482
  445MOL0     H61354   5.825   5.365  11.405  1.4554 -0.6444 -0.4577
  445MOL0     H61355   5.583   5.343  11.214 -0.2859 -0.6793  0.5027
  445MOL0     H61356   5.648   5.488  11.296  1.2344 -0.5797 -0.5954
  445MOL0     H61357   5.428   5.349  11.401  0.1767  1.0370  1.3885
  445MOL0     H61358   5.560   5.252  11.450  0.2073 -0.2894 -0.2028
  445MOL0     H61359   5.393   5.583  11.515 -0.6530  1.0618  2.6450
  445MOL0     H61360   5.534   5.734  11.838  1.2556  0.8429  0.4182
  445MOL0     H61361   5.444   5.775  11.687 -1.1316 -1.3058  2.8630
  445MOL0     H61362   5.734   5.846  11.745  1.2855  3.7914 -0.8826
  445MOL0     H61363   5.631   5.911  11.608 -0.1481  1.9865  0.1061
  445MOL0     H61364   5.632   6.007  11.897 -1.6614  2.3681  0.8157
  445MOL0     H61365   5.604   6.088  11.742 -1.3557 -1.6807 -3.0452
  445MOL0     H61366   5.405   6.111  11.841 -3.2184 -0.8701 -1.0845
  445MOL0     H61367   5.379   5.973  11.744  0.3707 -2.3915  1.4706
  445MOL0     H61368   5.283   5.756  12.089  0.3401  1.1469  1.4063
  445MOL0     H61369   4.967   5.625  12.134 -0.9230  0.1132  0.9500
  445MOL0     H61370   5.024   5.720  12.278 -3.6645  5.4335 -1.7619
  445MOL0     H61371   5.140   5.621  12.184  0.7053  1.4004  4.0880
  445MOL0     H61372   4.777   5.766  12.435 -1.3914  1.8445  0.9500
  445MOL0     H61373   4.571   5.754  12.557  1.8678  0.3999 -0.3446
  445MOL0     H61374   4.225   5.949  12.443  1.0121 -0.1453  1.0169
  445MOL0     H61375   4.171   5.808  12.336  2.2656 -0.9574 -0.9658
  445MOL0     H61376   4.091   5.698  12.547 -2.6511  0.0480 -0.6436
  445MOL0     H61377   4.099   5.850  12.633  1.6978 -0.3781  0.2811
  445MOL0     H61378   3.946   5.788  12.380  0.1063 -1.8470  1.3025
  445MOL0     H61379   3.955   5.952  12.455 -3.4213  0.3952  2.6068
  445MOL0     H61380   3.836   5.841  12.656  0.0110  1.0972 -0.0646
  445MOL0     H61381   3.809   5.705  12.553 -1.3465  0.7312 -0.0403
  445MOL0     H61382   3.672   5.810  12.395  1.7354 -2.4460  0.2471
  445MOL0     H61383   3.623   5.841  12.560 -1.3903 -3.1008 -1.2346
  445MOL0     H61384   3.780   6.040  12.370 -0.3742  0.8586 -0.8589
  445MOL0     H61385   3.764   6.060  12.545 -0.1504 -1.7861  1.1716
  445MOL0     H61386   3.520   6.013  12.365 -0.6824  0.3742 -0.2308
  445MOL0     H61387   3.588   6.174  12.385  0.9076  0.6283  1.5248
  445MOL0     H61388   3.564   6.160  12.631  1.6211  0.8768 -1.5740
  445MOL0     H61389   3.491   6.006  12.627  3.0018 -2.1909 -2.3128
  445MOL0     H61390   4.361   5.834  12.179  0.7254  3.5659 -1.1821
  445MOL0     H61391   4.549   5.849  12.082  1.3232 -1.4138 -0.2813
  445MOL0     H61392   4.970   6.114  11.965 -0.0279 -0.1562 -0.1704
  445MOL0     H61393   5.194   6.130  11.898  3.5864  0.4041  1.2628
  445MOL0     H61394   5.778   5.706  10.596  0.0314  1.6324 -2.2697
  445MOL0     H61395   5.620   5.871  10.497 -2.2959  0.0238  0.7426
  445MOL0     H61396   5.377   6.284  10.527 -3.2592  1.7635  0.5847
  445MOL0     H61397   5.205   6.349  10.379 -0.4759 -0.1400  0.7909
  445MOL0     H61398   5.037   6.410  10.300  0.6355 -1.6828  1.0493
  445MOL0     H61399   5.016   6.311  10.148 -2.4156  1.5592 -1.7963
  445MOL0     H61400   4.793   6.412  10.323 -0.5723 -5.0569  0.8068
  445MOL0     H61401   4.786   6.278  10.225 -1.4337  0.6742 -0.3375
  445MOL0     H61402   4.857   6.397  10.025 -3.1485  0.3622 -0.6065
  445MOL0     H61403   4.713   6.471  10.075  1.2504 -0.8440 -2.3201
  445MOL0     H61404   4.849   6.656  10.016 -1.9070 -2.3509 -0.6716
  445MOL0     H61405   4.988   6.601  10.102  0.4917  3.6683  2.5055
  445MOL0     H61406   4.757   6.780  10.420  0.3319 -1.4120  1.2994
  445MOL0     H61407   4.977   6.008  10.478 -2.3633  1.6818 -2.0779
  445MOL0     H61408   5.050   5.891  10.691  0.7065  1.3885  1.3992
  445MOL0     H61409   5.153   5.814  10.557  1.5841  0.8487 -1.0991
  445MOL0     H61410   5.217   5.861  10.717 -0.7094 -1.3772  0.9489
  446MOL0     O61411   2.175   6.832   8.720 -0.7936 -0.4106  0.6155
  446MOL0     C61412   2.127   6.848   8.609 -0.5206 -0.5612 -0.5600
  446MOL0     O61413   2.006   6.805   8.573 -0.3703  0.2661  0.1772
  446MOL0     C61414   1.935   6.707   8.637  0.5240 -0.2579  0.6219
  446MOL0     C61415   1.889   6.731   8.772 -0.1781  0.7074  1.0028
  446MOL0     C61416   1.798   6.647   8.830 -0.1298  0.1399  0.4833
  446MOL0     C61417   1.780   6.517   8.770  0.1641  0.6462 -0.2700
  446MOL0     O61418   1.711   6.415   8.822  0.3508 -0.6603 -0.0277
  446MOL0     C61419   1.740   6.373   8.959 -0.2158 -0.0861 -0.5536
  446MOL0     C61420   1.882   6.302   8.973  0.1438 -0.5450 -0.4249
  446MOL0     C61421   1.891   6.261   9.122 -0.3790  0.7107 -0.7521
  446MOL0     C61422   2.037   6.240   9.160  0.4175  0.2128  1.0078
  446MOL0     C61423   2.092   6.321   9.280  0.4889  0.5153 -0.4342
  446MOL0     C61424   2.124   6.467   9.242  0.7072 -0.0687  0.8574
  446MOL0     C61425   2.166   6.543   9.372  0.8149  0.2689  0.1719
  446MOL0     C61426   2.051   6.570   9.470  0.4276 -0.3620  1.3260
  446MOL0     N61427   1.931   6.620   9.405  0.6877  0.7321 -0.6316
  446MOL0     C61428   1.902   6.751   9.376 -0.0149  0.4715  0.8779
  446MOL0     C61429   1.781   6.757   9.333  0.7153  0.3787 -0.0462
  446MOL0     C61430   1.714   6.879   9.282 -1.3048  0.6713 -0.8174
  446MOL0     C61431   1.746   6.891   9.129 -0.5545 -0.2135 -0.4475
  446MOL0     C61432   1.633   6.966   9.054 -0.4572  0.8189  0.2317
  446MOL0     C61433   1.609   7.108   9.087  0.0439 -0.0845  0.2977
  446MOL0     O61434   1.514   7.151   8.987  0.0531 -0.2548  0.5460
  446MOL0     C61435   1.526   7.285   8.956 -0.1963 -1.2670  0.1250
  446MOL0     C61436   1.625   7.325   8.863  0.1255  0.2434 -1.0887
  446MOL0     C61437   1.644   7.464   8.841  0.8844 -0.7589  0.0575
  446MOL0     C61438   1.763   7.491   8.746  0.8496  0.1597 -0.4233
  446MOL0     C61439   1.567   7.559   8.914  0.3372  0.2128  1.0176
  446MOL0     C61440   1.587   7.708   8.904  0.3879  0.8137 -0.4970
  446MOL0     O61441   1.707   7.745   8.898  0.2197  0.2919 -0.8167
  446MOL0     C61442   1.731   7.872   8.930  0.4296  0.1833  1.0586
  446MOL0     C61443   1.688   7.980   8.841 -0.9448  0.2878 -0.4057
  446MOL0     C61444   1.719   8.111   8.875 -0.2700 -0.1228 -0.5460
  446MOL0     C61445   1.799   8.135   8.986  0.3455 -0.2067  1.0667
  446MOL0     O61446   1.856   8.268   8.994 -0.5001  0.0295 -0.7649
  446MOL0     C61447   1.998   8.282   9.000 -0.2919 -0.3520 -0.6287
  446MOL0     C61448   2.071   8.240   8.870 -0.2808 -0.0437 -0.2396
  446MOL0     C61449   2.227   8.262   8.874  0.2941 -0.3490 -0.0923
  446MOL0     C61450   2.276   8.243   8.732  0.3175  0.0029  0.3097
  446MOL0     C61451   2.424   8.200   8.720  0.2963 -0.1599  0.3191
  446MOL0     C61452   2.451   8.182   8.564 -0.1003  0.1643 -1.4736
  446MOL0     C61453   2.595   8.115   8.576  0.0578 -1.0997 -0.5258
  446MOL0     C61454   2.665   8.114   8.437 -0.0359 -0.1492 -0.1722
  446MOL0    Cl61455   2.562   8.019   8.315  0.1043 -0.2888  0.4007
  446MOL0     C61456   1.836   8.037   9.071 -0.2869 -0.5020  0.4047
  446MOL0     C61457   1.793   7.903   9.051 -0.8996 -0.8487  0.0627
  446MOL0     O61458   1.485   7.776   8.913 -0.0850 -0.8549  0.6025
  446MOL0     C61459   1.449   7.513   8.983  1.4593  0.2151 -0.0023
  446MOL0     C61460   1.432   7.380   9.007 -0.1059  0.6516 -0.3723
  446MOL0     N61461   1.731   6.627   9.328 -1.2587 -0.0963  0.4546
  446MOL0     N61462   1.820   6.550   9.379  0.7029 -0.2672 -0.2537
  446MOL0     C61463   1.846   6.479   8.649  1.1553  0.2584  0.1956
  446MOL0     C61464   1.916   6.578   8.579 -0.3458  0.7525 -0.4953
  446MOL0     C61465   2.203   6.930   8.506  0.1882 -0.1295 -0.1482
  446MOL0     C61466   2.269   7.051   8.535 -0.6069  0.2078 -0.0315
  446MOL0     C61467   2.348   7.121   8.438 -0.4645  0.1280 -0.4780
  446MOL0     C61468   2.354   7.072   8.307 -0.4922  0.0168 -0.6663
  446MOL0     O61469   2.445   7.117   8.210 -0.9334  0.7191  0.9814
  446MOL0     C61470   2.544   7.225   8.226  0.0398  0.5563  0.4649
  446MOL0     C61471   2.466   7.362   8.249 -0.3119  0.1536  0.9398
  446MOL0     C61472   2.560   7.478   8.279 -0.4722 -0.0563  0.4875
  446MOL0     C61473   2.493   7.615   8.316 -0.1174 -0.4123 -0.2738
  446MOL0     C61474   2.387   7.654   8.217 -0.3184  0.3512 -1.2454
  446MOL0     C61475   2.302   7.700   8.144  1.1728  0.4550 -0.4461
  446MOL0     C61476   2.291   6.956   8.276  0.4386 -0.3231 -0.2638
  446MOL0     C61477   2.210   6.892   8.374 -0.2184  0.5057  0.7320
  446MOL0     C61478   2.139   6.764   8.336 -0.6621  0.6225  0.5670
  446MOL0     H61479   1.916   6.826   8.817 -2.3186  3.3584 -2.6678
  446MOL0     H61480   1.743   6.664   8.922  0.7242  0.3932  0.9511
  446MOL0     H61481   1.669   6.291   8.971 -0.1580 -0.7371 -3.7576
  446MOL0     H61482   1.721   6.456   9.027  1.8934  2.7870 -3.1456
  446MOL0     H61483   1.882   6.211   8.913 -1.5673 -0.8760  0.0080
  446MOL0     H61484   1.955   6.375   8.938 -0.4082 -0.5772 -1.6864
  446MOL0     H61485   1.860   6.348   9.180 -0.2101 -0.6793  1.5737
  446MOL0     H61486   1.838   6.169   9.150  0.9607  0.7439  2.3128
  446MOL0     H61487   2.047   6.132   9.177  1.9150  0.5326  2.4514
  446MOL0     H61488   2.100   6.261   9.073  0.6888  2.2035  1.6390
  446MOL0     H61489   2.190   6.280   9.306 -0.2701 -1.1096 -0.0610
  446MOL0     H61490   2.012   6.323   9.355 -2.9629  2.7376 -3.8041
  446MOL0     H61491   2.199   6.472   9.162 -0.7913  0.9506 -0.5526
  446MOL0     H61492   2.029   6.503   9.202  1.1082  1.2892  1.0798
  446MOL0     H61493   2.221   6.634   9.346  1.3371  1.1361  3.7472
  446MOL0     H61494   2.241   6.489   9.430 -1.4682 -1.0394  2.0931
  446MOL0     H61495   2.042   6.477   9.527  2.2460 -1.9787 -0.8338
  446MOL0     H61496   2.087   6.645   9.542  1.3686  1.2014 -0.6531
  446MOL0     H61497   1.965   6.836   9.401 -1.0419  0.7138  2.8362
  446MOL0     H61498   1.748   6.965   9.340  2.4479  0.6590 -2.7162
  446MOL0     H61499   1.605   6.865   9.286 -1.0760 -1.8540  3.7940
  446MOL0     H61500   1.845   6.936   9.124 -1.0746  0.8487 -2.1190
  446MOL0     H61501   1.764   6.787   9.099  0.6117 -1.0649  2.7504
  446MOL0     H61502   1.667   6.959   8.951  3.6002  0.6234  1.4288
  446MOL0     H61503   1.539   6.910   9.059  0.8565 -1.5432 -0.0704
  446MOL0     H61504   1.578   7.125   9.191  0.7126  0.1114  0.4705
  446MOL0     H61505   1.702   7.165   9.075  0.2891 -0.7770 -1.3518
  446MOL0     H61506   1.676   7.246   8.809  0.1544 -0.1303 -0.5162
  446MOL0     H61507   1.783   7.598   8.748 -2.6118  0.9240  0.1319
  446MOL0     H61508   1.751   7.450   8.645  0.9283 -2.1275  0.4327
  446MOL0     H61509   1.845   7.433   8.788  1.2387 -0.7780 -2.3665
  446MOL0     H61510   1.619   7.963   8.759  2.1900 -0.7907 -3.0427
  446MOL0     H61511   1.698   8.192   8.806 -4.0816 -0.0765  0.4538
  446MOL0     H61512   2.017   8.389   9.010  0.3819 -0.2410 -2.7241
  446MOL0     H61513   2.043   8.228   9.084  0.7867 -0.3017 -1.1652
  446MOL0     H61514   2.054   8.135   8.845  3.1105 -0.8042  0.1558
  446MOL0     H61515   2.020   8.301   8.795 -0.7336  0.6454  0.6035
  446MOL0     H61516   2.267   8.181   8.936 -2.0696 -0.3653  1.5801
  446MOL0     H61517   2.266   8.354   8.919  3.4778 -0.9925 -1.3275
  446MOL0     H61518   2.267   8.340   8.682  1.5501 -0.1374 -0.2292
  446MOL0     H61519   2.216   8.174   8.672  2.0730 -1.8814  0.5895
  446MOL0     H61520   2.494   8.266   8.773 -0.8573  2.7530 -1.5529
  446MOL0     H61521   2.435   8.099   8.760  2.3507  0.5489  1.7276
  446MOL0     H61522   2.458   8.277   8.511 -0.4712  0.5318 -0.8815
  446MOL0     H61523   2.385   8.110   8.515  1.0763 -0.5006 -2.1213
  446MOL0     H61524   2.595   8.016   8.621 -1.7960 -0.8446  0.1497
  446MOL0     H61525   2.653   8.170   8.651 -0.9800 -0.5260 -0.1216
  446MOL0     H61526   2.762   8.064   8.449 -1.0962 -2.5194 -0.8692
  446MOL0     H61527   2.675   8.220   8.410 -2.7033  0.6180  1.4108
  446MOL0     H61528   1.867   8.061   9.172 -0.4531  0.0615  0.3260
  446MOL0     H61529   1.809   7.825   9.126 -0.4291  0.2476  1.1348
  446MOL0     H61530   1.375   7.583   9.021  4.1918  1.7464  3.0277
  446MOL0     H61531   1.345   7.336   9.053  0.9514 -2.3352 -1.0183
  446MOL0     H61532   1.839   6.375   8.618 -0.5186 -0.1543  1.8138
  446MOL0     H61533   1.965   6.548   8.487  0.7190  0.6573  0.0881
  446MOL0     H61534   2.258   7.087   8.637 -2.9602  2.5747 -1.0060
  446MOL0     H61535   2.407   7.209   8.463 -1.0650 -0.1090  2.0218
  446MOL0     H61536   2.610   7.213   8.312  1.2146  2.1689 -0.1564
  446MOL0     H61537   2.604   7.231   8.135 -0.4810  1.9402  0.1849
  446MOL0     H61538   2.378   7.361   8.314 -1.3575  0.2892 -0.4420
  446MOL0     H61539   2.429   7.381   8.148  4.0789 -0.3194 -0.9821
  446MOL0     H61540   2.631   7.443   8.354 -0.4830 -3.0098 -0.7595
  446MOL0     H61541   2.617   7.490   8.186  3.2611  0.7430  2.6384
  446MOL0     H61542   2.562   7.699   8.305 -2.1608  1.2821 -0.9358
  446MOL0     H61543   2.470   7.609   8.423  0.3717 -1.6860 -0.2285
  446MOL0     H61544   2.235   7.728   8.066 -2.0845 -0.4286  1.8445
  446MOL0     H61545   2.307   6.926   8.173  2.0259  0.2081 -0.1941
  446MOL0     H61546   2.032   6.784   8.346 -0.8871  0.0930 -0.6499
  446MOL0     H61547   2.165   6.737   8.233  1.4320 -0.2614  1.2765
  446MOL0     H61548   2.163   6.678   8.398 -1.0753  0.7745  0.9438
  447MOL0     O61549   2.624   0.708   2.020 -0.2119  0.1590  0.1987
  447MOL0     C61550   2.699   0.792   2.071  0.0172 -0.3547 -0.2035
  447MOL0     O61551   2.788   0.871   2.000 -0.6964 -0.7267  0.4305
  447MOL0     C61552   2.782   0.883   1.866 -0.0393  0.4789  0.8941
  447MOL0     C61553   2.658   0.897   1.785  0.7660  0.7517 -0.0708
  447MOL0     C61554   2.671   0.908   1.646 -0.1366  0.0313  0.0211
  447MOL0     C61555   2.795   0.906   1.582 -0.1259 -0.2561 -0.6326
  447MOL0     O61556   2.797   0.895   1.443  0.1324  0.4863  0.4120
  447MOL0     C61557   2.902   0.967   1.380 -0.0809 -0.4563 -0.8573
  447MOL0     C61558   2.867   0.957   1.230  1.1578  0.2144  0.2939
  447MOL0     C61559   2.978   1.014   1.135  0.3363  0.4358 -0.2077
  447MOL0     C61560   2.919   0.999   1.006  0.4984 -0.1368  0.7003
  447MOL0     C61561   3.001   1.063   0.890 -1.0573  0.2756  0.6724
  447MOL0     C61562   3.150   1.032   0.881 -0.6865  0.3837 -0.3802
  447MOL0     C61563   3.203   1.099   0.747 -1.2358 -0.8418  0.1005
  447MOL0     C61564   3.204   1.254   0.754 -0.0488  0.4916 -0.1261
  447MOL0     N61565   3.314   1.308   0.678  0.4619 -0.0426  0.0475
  447MOL0     C61566   3.324   1.329   0.541  0.0600  0.5432  0.1691
  447MOL0     C61567   3.426   1.417   0.523 -0.4242  0.1988 -0.1358
  447MOL0     C61568   3.467   1.497   0.398 -0.1856 -0.2891  0.5015
  447MOL0     C61569   3.433   1.651   0.403 -0.9185 -0.3535 -0.3431
  447MOL0     C61570   3.290   1.688   0.428 -0.7598 -0.1613  0.4271
  447MOL0     C61571   3.263   1.842   0.432 -0.1689 -0.5479 -0.8253
  447MOL0     O61572   3.123   1.872   0.461  0.2679  0.4609  0.2613
  447MOL0     C61573   3.066   1.820   0.578 -0.7524 -0.9889 -0.2931
  447MOL0     C61574   3.145   1.800   0.698  0.9562  0.2901 -0.6440
  447MOL0     C61575   3.092   1.756   0.818 -1.1945 -0.3003  0.4178
  447MOL0     C61576   3.200   1.687   0.903 -0.1310  2.4943  0.0533
  447MOL0     C61577   2.953   1.742   0.834 -0.5292 -0.3119  0.1149
  447MOL0     C61578   2.884   1.679   0.950 -0.8152 -0.2800 -1.0527
  447MOL0     O61579   2.756   1.626   0.926 -0.1343 -0.0010 -0.5152
  447MOL0     C61580   2.704   1.571   1.042  0.0562  0.7362 -0.1633
  447MOL0     C61581   2.611   1.644   1.110 -0.9480 -0.1429 -1.0761
  447MOL0     C61582   2.536   1.607   1.222  0.3090 -0.1722 -0.2882
  447MOL0     C61583   2.563   1.469   1.264  0.7193  0.4570 -0.0174
  447MOL0     O61584   2.498   1.411   1.375  0.0147  0.4785 -0.2361
  447MOL0     C61585   2.370   1.445   1.404  0.1631  0.8554  0.2790
  447MOL0     C61586   2.310   1.345   1.501  0.1899 -0.4381 -0.4512
  447MOL0     C61587   2.162   1.374   1.524 -0.0095 -0.2567 -0.4743
  447MOL0     C61588   2.132   1.481   1.636  0.4836 -0.1064  0.3427
  447MOL0     C61589   1.995   1.546   1.621  0.3007 -0.3943 -0.3726
  447MOL0     C61590   1.996   1.691   1.683  0.5436 -0.0181 -0.8324
  447MOL0     C61591   1.969   1.685   1.829 -0.7413 -0.2757  0.1892
  447MOL0     C61592   1.914   1.818   1.879 -0.1267  0.4984 -0.3562
  447MOL0    Cl61593   2.033   1.949   1.919  0.0456 -0.1531 -0.1012
  447MOL0     C61594   2.656   1.392   1.198  0.9190  0.5639  0.5299
  447MOL0     C61595   2.723   1.436   1.086  0.6814 -0.6430  0.8669
  447MOL0     O61596   2.937   1.691   1.058 -1.0379  0.2330 -0.6937
  447MOL0     C61597   2.870   1.778   0.718 -0.1136  0.1646 -0.9134
  447MOL0     C61598   2.927   1.795   0.584 -0.2633  0.4646 -0.2560
  447MOL0     N61599   3.485   1.435   0.647 -0.3154 -0.1680 -0.2103
  447MOL0     N61600   3.421   1.374   0.731  0.0018  0.8082 -0.5852
  447MOL0     C61601   2.909   0.904   1.663 -0.4746 -0.1251  0.6346
  447MOL0     C61602   2.906   0.891   1.803 -0.1938  0.6834  0.3470
  447MOL0     C61603   2.695   0.819   2.220  0.4649 -0.9664  0.2413
  447MOL0     C61604   2.746   0.933   2.261 -0.6909 -0.2096 -1.0049
  447MOL0     C61605   2.755   0.959   2.400 -1.2480  0.3914 -0.9390
  447MOL0     C61606   2.706   0.857   2.496 -0.7183 -0.3910 -1.3144
  447MOL0     O61607   2.723   0.873   2.635 -0.6446  0.2790 -0.0534
  447MOL0     C61608   2.844   0.831   2.688 -0.4357 -0.6915 -0.3243
  447MOL0     C61609   2.951   0.945   2.696  0.3192  0.2789 -0.5765
  447MOL0     C61610   2.964   0.993   2.843  0.3042 -0.3195 -0.0207
  447MOL0     C61611   3.055   0.908   2.924 -0.4697 -0.4837  0.1667
  447MOL0     C61612   3.058   0.960   3.065 -0.0017  0.0687 -0.3343
  447MOL0     C61613   3.040   0.991   3.182  0.5282 -0.5261  0.0949
  447MOL0     C61614   2.647   0.747   2.450 -0.3813  0.3997 -0.4349
  447MOL0     C61615   2.641   0.722   2.316 -0.2503  0.2372  0.4756
  447MOL0     C61616   2.579   0.586   2.288 -0.4377 -0.1417  0.6944
  447MOL0     H61617   2.560   0.873   1.825 -0.4423 -2.4675 -4.2812
  447MOL0     H61618   2.587   0.923   1.580  0.6184  3.2998 -0.3761
  447MOL0     H61619   2.998   0.918   1.397 -0.6513 -1.5920 -0.7740
  447MOL0     H61620   2.919   1.066   1.422  3.7675 -0.0550 -2.9128
  447MOL0     H61621   2.855   0.849   1.213  0.0676  0.2361  0.8447
  447MOL0     H61622   2.770   1.002   1.210  0.7055 -1.0024 -0.3802
  447MOL0     H61623   2.991   1.119   1.164 -3.0713  2.1874 -3.9905
  447MOL0     H61624   3.070   0.960   1.155  0.5864  0.5002 -1.1351
  447MOL0     H61625   2.907   0.893   0.985  2.5561 -0.5907  1.5262
  447MOL0     H61626   2.819   1.042   1.002  0.9497  1.3360  3.0899
  447MOL0     H61627   3.000   1.172   0.898 -1.6939  0.1512  3.2881
  447MOL0     H61628   2.958   1.027   0.796  1.8825 -0.0593 -0.6610
  447MOL0     H61629   3.202   1.078   0.965 -0.6964  0.9693 -0.6846
  447MOL0     H61630   3.174   0.926   0.878  1.8233  0.7102  2.7197
  447MOL0     H61631   3.139   1.065   0.664 -2.0261 -2.4224  1.2856
  447MOL0     H61632   3.305   1.064   0.728 -0.9688 -0.1525  0.2473
  447MOL0     H61633   3.112   1.292   0.710 -0.3589  0.2965  0.3351
  447MOL0     H61634   3.202   1.295   0.856  0.8498 -1.5297  0.7650
  447MOL0     H61635   3.248   1.298   0.470 -2.5646  3.1213  1.6432
  447MOL0     H61636   3.416   1.462   0.307  0.8050  0.4713 -0.3733
  447MOL0     H61637   3.572   1.481   0.370 -0.2349  4.0349 -3.3671
  447MOL0     H61638   3.512   1.699   0.462 -0.7281  2.3045 -2.5699
  447MOL0     H61639   3.439   1.684   0.299 -0.5296 -2.9458 -1.2193
  447MOL0     H61640   3.246   1.646   0.336 -0.4922 -0.4664  0.4364
  447MOL0     H61641   3.267   1.637   0.521  0.2921  1.3028  1.5308
  447MOL0     H61642   3.317   1.882   0.518 -0.3006 -0.2927 -0.8609
  447MOL0     H61643   3.302   1.891   0.342  1.5594  1.5803  0.9609
  447MOL0     H61644   3.254   1.802   0.701  1.0530 -2.4074  0.5638
  447MOL0     H61645   3.302   1.681   0.864  0.4904 -0.5634  1.8377
  447MOL0     H61646   3.163   1.586   0.921 -3.1494  3.9158  2.7207
  447MOL0     H61647   3.206   1.720   1.007  1.7432 -0.9829  1.2384
  447MOL0     H61648   2.584   1.740   1.068 -2.5021 -0.5627 -1.0842
  447MOL0     H61649   2.467   1.675   1.271 -1.0658 -0.8822 -1.1651
  447MOL0     H61650   2.352   1.544   1.446  0.4872  0.5727  1.1299
  447MOL0     H61651   2.308   1.442   1.315 -0.1295 -3.2567  0.4199
  447MOL0     H61652   2.332   1.245   1.461  3.6769  1.1656 -3.1809
  447MOL0     H61653   2.372   1.360   1.590 -1.2490 -0.1150  0.5181
  447MOL0     H61654   2.102   1.285   1.543 -1.7006  0.8590 -0.3426
  447MOL0     H61655   2.125   1.405   1.426  0.6515 -0.2344 -0.7270
  447MOL0     H61656   2.207   1.561   1.634  1.7638 -1.2733 -0.7273
  447MOL0     H61657   2.142   1.439   1.737  0.7945  3.6509  2.0652
  447MOL0     H61658   1.968   1.553   1.515 -0.1338 -0.7368 -0.2812
  447MOL0     H61659   1.925   1.481   1.673  0.9848 -0.6055  0.3022
  447MOL0     H61660   1.908   1.742   1.642  0.7994  3.4575  2.3980
  447MOL0     H61661   2.089   1.740   1.655  0.2201  0.7617 -0.5804
  447MOL0     H61662   2.054   1.651   1.888 -0.4872 -2.2858 -1.2150
  447MOL0     H61663   1.897   1.603   1.841  0.0776 -1.2770 -1.3438
  447MOL0     H61664   1.852   1.795   1.966 -0.8304 -0.4231 -1.0802
  447MOL0     H61665   1.848   1.865   1.806 -0.6647 -1.2217 -1.0112
  447MOL0     H61666   2.654   1.287   1.226 -5.4406  0.4624  1.1461
  447MOL0     H61667   2.799   1.372   1.041  1.2314  0.2705  0.4612
  447MOL0     H61668   2.762   1.767   0.728  0.1223 -0.3466  2.2133
  447MOL0     H61669   2.868   1.806   0.494 -1.8112  1.5847  0.8305
  447MOL0     H61670   2.994   0.878   1.602 -2.3743 -2.8032 -1.0895
  447MOL0     H61671   2.991   0.880   1.869 -0.8315  0.6881  1.1884
  447MOL0     H61672   2.773   1.015   2.195 -0.2128  0.1714 -0.3541
  447MOL0     H61673   2.804   1.051   2.431  1.6977 -1.0148 -1.1203
  447MOL0     H61674   2.837   0.786   2.787  2.0719 -0.3981  0.0557
  447MOL0     H61675   2.887   0.747   2.632  0.1129 -2.8275  3.0089
  447MOL0     H61676   2.910   1.027   2.637 -1.2826  0.0317  0.1198
  447MOL0     H61677   3.047   0.906   2.662  0.6614 -0.1572  0.8453
  447MOL0     H61678   2.992   1.098   2.835 -1.1136 -0.0203 -5.5197
  447MOL0     H61679   2.873   0.986   2.903  0.7216 -2.7681  0.4226
  447MOL0     H61680   3.156   0.891   2.884 -0.8991 -1.9702 -0.3524
  447MOL0     H61681   3.009   0.809   2.932 -1.0304 -0.1038  5.6348
  447MOL0     H61682   3.029   1.015   3.286  2.1334 -2.3702  0.7583
  447MOL0     H61683   2.613   0.668   2.516 -1.2994  0.1885 -1.1288
  447MOL0     H61684   2.643   0.501   2.263  0.5743  0.1533  2.1729
  447MOL0     H61685   2.527   0.541   2.373 -2.3161  0.2819 -0.1853
  447MOL0     H61686   2.502   0.587   2.210 -0.5472  1.1013  0.8048
  448MOL0     O61687   7.485   4.830   4.248 -0.4636  0.4750 -0.3593
  448MOL0     C61688   7.587   4.803   4.303 -0.0120  0.2737 -1.0684
  448MOL0     O61689   7.658   4.884   4.385 -0.1100 -0.5707 -0.0067
  448MOL0     C61690   7.599   5.008   4.402  1.7249 -0.6620 -0.4217
  448MOL0     C61691   7.552   5.026   4.531 -0.9706  0.2408 -0.9028
  448MOL0     C61692   7.469   5.131   4.582  0.1489  0.0069  0.3532
  448MOL0     C61693   7.411   5.221   4.495 -0.2851  0.4373  0.4927
  448MOL0     O61694   7.325   5.314   4.544  0.5169  0.3069 -0.1506
  448MOL0     C61695   7.247   5.400   4.453  0.1219  0.7511 -0.0038
  448MOL0     C61696   7.317   5.528   4.407 -0.6628  0.2805 -0.5506
  448MOL0     C61697   7.371   5.605   4.525  0.0985 -0.1171  0.3773
  448MOL0     C61698   7.320   5.750   4.536 -0.1931 -0.9952  0.0233
  448MOL0     C61699   7.361   5.812   4.662  0.2552 -0.3006 -0.0793
  448MOL0     C61700   7.300   5.948   4.703 -0.1512 -1.0384 -0.6299
  448MOL0     C61701   7.344   5.991   4.842  0.5825  0.3149 -1.3767
  448MOL0     C61702   7.240   6.081   4.915 -0.6422  0.2952  1.0136
  448MOL0     N61703   7.275   6.222   4.934 -0.4085  0.3514 -0.3901
  448MOL0     C61704   7.251   6.336   4.863  0.9964  0.0519  1.0520
  448MOL0     C61705   7.306   6.434   4.944  1.3134 -0.4920  0.3187
  448MOL0     C61706   7.292   6.580   4.911 -0.5224  0.3515  0.5803
  448MOL0     C61707   7.152   6.644   4.916  0.5465  0.5857 -0.8987
  448MOL0     C61708   7.097   6.659   5.064  0.7499  0.7163 -0.1429
  448MOL0     C61709   7.039   6.527   5.119 -0.6240  0.3611 -0.3508
  448MOL0     O61710   6.957   6.457   5.028 -0.7381 -0.1401 -0.4366
  448MOL0     C61711   6.826   6.435   5.059 -0.7249  0.1463 -1.1854
  448MOL0     C61712   6.740   6.536   5.115  0.0494  0.9221  0.3774
  448MOL0     C61713   6.603   6.522   5.143 -0.5887 -0.2608  0.5445
  448MOL0     C61714   6.536   6.648   5.202 -0.0769  0.2035  0.0221
  448MOL0     C61715   6.545   6.402   5.106 -0.9381  0.2621  1.8447
  448MOL0     C61716   6.403   6.372   5.134  0.9544 -0.0243 -0.2992
  448MOL0     O61717   6.317   6.470   5.187 -0.8207 -0.8268 -0.1148
  448MOL0     C61718   6.201   6.447   5.249 -0.3000  0.6121  0.2291
  448MOL0     C61719   6.196   6.335   5.338  0.2422 -0.4835  0.3454
  448MOL0     C61720   6.070   6.306   5.398 -0.8964  0.3359  0.3298
  448MOL0     C61721   5.953   6.365   5.353 -0.6404 -0.2649 -0.1791
  448MOL0     O61722   5.829   6.333   5.393  1.1592 -0.4929 -0.8984
  448MOL0     C61723   5.807   6.222   5.483  0.1599  0.0993  0.7696
  448MOL0     C61724   5.656   6.177   5.487 -0.9838  0.7622 -0.0417
  448MOL0     C61725   5.604   6.097   5.363  0.7227 -0.9886  0.5476
  448MOL0     C61726   5.677   5.962   5.349  0.1557  0.1104  0.9580
  448MOL0     C61727   5.608   5.870   5.241 -0.9307  0.0528  0.7049
  448MOL0     C61728   5.685   5.734   5.233  0.8940  0.0084 -0.0264
  448MOL0     C61729   5.627   5.652   5.119 -0.4885 -0.6541  0.1041
  448MOL0     C61730   5.715   5.536   5.078  0.7075 -0.2302  0.2766
  448MOL0    Cl61731   5.734   5.411   5.214 -0.5551 -0.5848  0.1374
  448MOL0     C61732   5.961   6.460   5.251 -0.6665  0.3710 -1.0779
  448MOL0     C61733   6.082   6.507   5.203  0.0789  0.2514 -0.0861
  448MOL0     O61734   6.371   6.256   5.117 -0.6090 -0.5375  0.7604
  448MOL0     C61735   6.633   6.295   5.056 -0.9799  0.4905 -0.4467
  448MOL0     C61736   6.769   6.307   5.028  0.5497 -0.2256  0.6114
  448MOL0     N61737   7.375   6.386   5.046 -1.2054  0.4920 -0.0718
  448MOL0     N61738   7.361   6.265   5.035  1.0198  0.9187 -0.5095
  448MOL0     C61739   7.449   5.202   4.354 -0.2715  0.3753  0.2951
  448MOL0     C61740   7.545   5.103   4.316 -0.0350  0.3210  0.3874
  448MOL0     C61741   7.644   4.667   4.285 -0.5641  0.2065 -0.0292
  448MOL0     C61742   7.787   4.655   4.284  0.2640 -0.8967  0.3988
  448MOL0     C61743   7.857   4.541   4.260  0.4090 -0.3822  0.1156
  448MOL0     C61744   7.793   4.425   4.249 -0.7125 -0.0463  0.0807
  448MOL0     O61745   7.884   4.329   4.229  0.1672  0.4126  0.5335
  448MOL0     C61746   7.828   4.188   4.213 -0.2256 -0.0927 -0.3766
  448MOL0     C61747   7.826   4.129   4.350 -1.0683 -0.4493 -0.6259
  448MOL0     C61748   7.974   4.116   4.401 -0.0160 -0.9165  0.0459
  448MOL0     C61749   7.980   4.036   4.537  0.7822  0.2585 -0.2527
  448MOL0     C61750   7.924   3.899   4.525  0.5163 -0.9781  0.4869
  448MOL0     C61751   7.897   3.789   4.497 -0.5950 -0.5023 -0.0043
  448MOL0     C61752   7.655   4.422   4.265 -0.1736  0.0903  0.0262
  448MOL0     C61753   7.584   4.541   4.273  0.3228  0.3475 -0.3036
  448MOL0     C61754   7.439   4.529   4.285  0.5006  0.2473  0.5062
  448MOL0     H61755   7.584   4.958   4.610 -0.7381  0.4855 -0.7879
  448MOL0     H61756   7.431   5.139   4.683 -0.2865  1.7213  0.0894
  448MOL0     H61757   7.157   5.424   4.510 -0.5235 -1.6332  0.0909
  448MOL0     H61758   7.214   5.342   4.366  1.7410  0.4491 -0.4455
  448MOL0     H61759   7.403   5.496   4.348 -1.0164  0.8443 -1.4062
  448MOL0     H61760   7.253   5.584   4.338  1.5397  2.2915 -1.0982
  448MOL0     H61761   7.335   5.553   4.614  0.3273 -0.1281  0.4629
  448MOL0     H61762   7.480   5.613   4.528 -0.0506  3.1683  0.5609
  448MOL0     H61763   7.348   5.816   4.454 -1.2346  1.8781  1.8391
  448MOL0     H61764   7.211   5.747   4.535 -0.5056  1.2843  3.9928
  448MOL0     H61765   7.470   5.816   4.673  0.1472  2.3877  0.6616
  448MOL0     H61766   7.327   5.740   4.737 -1.8425  0.6728 -0.0080
  448MOL0     H61767   7.323   6.019   4.622 -2.0260  0.9198  0.4664
  448MOL0     H61768   7.192   5.958   4.697 -0.3182 -0.7995  1.9018
  448MOL0     H61769   7.440   6.041   4.826  0.6978 -0.3137 -2.7840
  448MOL0     H61770   7.353   5.902   4.905  1.8829  0.5110 -1.2665
  448MOL0     H61771   7.149   6.073   4.855  0.4808 -3.1994 -0.4966
  448MOL0     H61772   7.213   6.031   5.009  0.0993  0.7932  1.5051
  448MOL0     H61773   7.201   6.348   4.768 -0.5652  1.1935  1.9748
  448MOL0     H61774   7.342   6.590   4.814  1.1335 -0.0709  1.3697
  448MOL0     H61775   7.350   6.639   4.982  0.3541 -0.9688  0.9903
  448MOL0     H61776   7.161   6.743   4.869 -2.2718  0.2007 -2.4910
  448MOL0     H61777   7.081   6.593   4.850  0.9721 -3.4253  1.4466
  448MOL0     H61778   7.171   6.696   5.135 -0.7389 -0.2060  2.0220
  448MOL0     H61779   7.019   6.735   5.060  0.9931  0.9168 -1.5962
  448MOL0     H61780   7.125   6.466   5.147 -1.8157 -0.3007  2.1474
  448MOL0     H61781   6.995   6.560   5.214 -2.3846  4.7604 -2.3745
  448MOL0     H61782   6.781   6.636   5.130  2.0124  0.9386 -3.7505
  448MOL0     H61783   6.482   6.630   5.295  0.2325  3.5847  0.9690
  448MOL0     H61784   6.476   6.704   5.130 -1.6710 -2.1923 -0.6609
  448MOL0     H61785   6.621   6.710   5.232 -1.1608  1.4916  0.5074
  448MOL0     H61786   6.287   6.286   5.370 -0.2338 -1.6946 -0.1202
  448MOL0     H61787   6.061   6.245   5.487 -0.2794 -1.7560 -0.9388
  448MOL0     H61788   5.871   6.136   5.465  1.5272  1.5250 -1.6801
  448MOL0     H61789   5.828   6.251   5.586 -3.5537  1.0193  1.4307
  448MOL0     H61790   5.652   6.106   5.569 -4.2799  2.4346  1.4087
  448MOL0     H61791   5.588   6.260   5.507  0.8040  3.0641 -2.6453
  448MOL0     H61792   5.625   6.157   5.274  1.3650 -1.7044  0.2092
  448MOL0     H61793   5.501   6.084   5.395  1.2442 -1.2294  2.2523
  448MOL0     H61794   5.670   5.896   5.436 -2.3146  0.7860  1.3472
  448MOL0     H61795   5.779   5.985   5.319 -1.1145  3.9230 -1.1463
  448MOL0     H61796   5.501   5.857   5.260 -0.5660 -3.0663  1.1850
  448MOL0     H61797   5.606   5.925   5.147 -1.9270  0.2238  0.8142
  448MOL0     H61798   5.666   5.676   5.323  0.9681  1.8486  1.2275
  448MOL0     H61799   5.792   5.757   5.226  0.9773  0.0758  1.2465
  448MOL0     H61800   5.629   5.717   5.031  0.9019 -1.7752 -0.7425
  448MOL0     H61801   5.524   5.627   5.147 -2.0335  1.5106 -2.9723
  448MOL0     H61802   5.814   5.568   5.047  1.2955 -2.3285 -0.1950
  448MOL0     H61803   5.677   5.476   4.994  1.0227 -2.2014  1.4612
  448MOL0     H61804   5.876   6.508   5.205 -0.4647  1.5478 -0.2564
  448MOL0     H61805   6.073   6.590   5.134 -1.4042  1.7756  1.8400
  448MOL0     H61806   6.596   6.196   5.029 -0.9169  0.6735 -1.1990
  448MOL0     H61807   6.817   6.216   4.994 -1.0006 -1.0909  0.6450
  448MOL0     H61808   7.409   5.267   4.276 -0.3948 -1.6047 -1.3611
  448MOL0     H61809   7.573   5.086   4.213 -2.6081 -0.6323 -0.2344
  448MOL0     H61810   7.831   4.752   4.310 -2.5120  0.9933 -1.4290
  448MOL0     H61811   7.965   4.544   4.263  0.5948 -1.8527 -2.1488
  448MOL0     H61812   7.725   4.188   4.178 -0.3189  0.7983 -0.1251
  448MOL0     H61813   7.891   4.131   4.143 -0.4761 -0.2977 -0.4329
  448MOL0     H61814   7.767   4.037   4.356 -1.0650 -0.4009  0.4249
  448MOL0     H61815   7.766   4.196   4.413  0.5137 -0.0448  0.5250
  448MOL0     H61816   8.041   4.075   4.325 -1.0254  2.0136 -2.6491
  448MOL0     H61817   8.012   4.216   4.423  0.3259 -1.5356  2.5940
  448MOL0     H61818   7.917   4.097   4.602 -5.3289  0.8929 -5.6625
  448MOL0     H61819   8.088   4.030   4.556  1.0248 -1.0750 -1.7932
  448MOL0     H61820   7.859   3.692   4.472  2.2857 -2.0645  1.1936
  448MOL0     H61821   7.614   4.325   4.289  3.3692 -1.2646  1.3244
  448MOL0     H61822   7.398   4.603   4.215  0.3507 -1.5924 -1.4589
  448MOL0     H61823   7.418   4.428   4.250  1.1635  0.2091  0.1992
  448MOL0     H61824   7.394   4.531   4.385 -0.8437  1.9705 -0.0728
  449MOL0     O61825   3.462   1.999   2.556 -0.6248  0.4987 -0.3539
  449MOL0     C61826   3.564   1.930   2.553  0.3308  0.6345 -0.3864
  449MOL0     O61827   3.613   1.878   2.437 -0.7408 -0.2707  0.3505
  449MOL0     C61828   3.576   1.908   2.303 -0.6010 -0.1223 -0.0032
  449MOL0     C61829   3.598   1.809   2.200 -0.0015  0.3408  0.5055
  449MOL0     C61830   3.566   1.833   2.067  0.3447 -0.0372  0.5366
  449MOL0     C61831   3.502   1.951   2.029  0.0298 -0.1360  0.6134
  449MOL0     O61832   3.448   1.954   1.902 -0.3175 -0.3221 -0.4721
  449MOL0     C61833   3.311   1.991   1.878  0.3036  0.3899 -0.5944
  449MOL0     C61834   3.221   1.872   1.919  0.3523  0.8982 -0.3058
  449MOL0     C61835   3.218   1.782   1.805 -0.2180  0.4259  0.2458
  449MOL0     C61836   3.142   1.654   1.850  0.6402 -1.1548  0.4295
  449MOL0     C61837   3.224   1.543   1.930 -0.0244 -1.0560  1.4664
  449MOL0     C61838   3.317   1.476   1.831  0.3519  0.4681 -0.1942
  449MOL0     C61839   3.414   1.381   1.913 -0.4279 -0.0479  0.2564
  449MOL0     C61840   3.467   1.272   1.830  0.3487 -0.5160  0.1046
  449MOL0     N61841   3.565   1.320   1.725  0.2678  0.2649  0.1905
  449MOL0     C61842   3.527   1.350   1.601  0.4080  0.3987 -0.1156
  449MOL0     C61843   3.643   1.366   1.539 -1.2000 -0.4255 -0.9633
  449MOL0     C61844   3.654   1.400   1.390 -0.8213 -1.5434 -0.4571
  449MOL0     C61845   3.623   1.557   1.384 -0.7582 -0.4804  0.1333
  449MOL0     C61846   3.580   1.605   1.234 -0.1372 -0.1888 -0.2959
  449MOL0     C61847   3.626   1.517   1.121 -0.1406  0.6285  0.4664
  449MOL0     O61848   3.769   1.517   1.112  1.1678 -0.0362  0.5910
  449MOL0     C61849   3.835   1.474   0.998 -0.1617  0.1347 -0.6199
  449MOL0     C61850   3.775   1.460   0.879  0.1166  0.3222 -0.5513
  449MOL0     C61851   3.858   1.429   0.759 -0.4930  0.2802 -0.2660
  449MOL0     C61852   3.799   1.463   0.625  0.7204 -0.4242 -0.0598
  449MOL0     C61853   3.997   1.393   0.780  0.3468 -0.0804  0.3395
  449MOL0     C61854   4.092   1.359   0.671  0.8147 -1.6974  0.1851
  449MOL0     O61855   4.229   1.369   0.710  0.1318  0.5736 -0.4520
  449MOL0     C61856   4.325   1.336   0.616 -0.6455  0.8347  0.8423
  449MOL0     C61857   4.331   1.382   0.482 -0.3010  0.1260  0.5303
  449MOL0     C61858   4.436   1.333   0.393 -0.1295 -0.2832  0.1519
  449MOL0     C61859   4.525   1.234   0.434  0.8840  1.3043 -0.7710
  449MOL0     O61860   4.617   1.177   0.340  0.7035 -0.1279 -1.1361
  449MOL0     C61861   4.747   1.138   0.384 -0.0545 -0.3147  0.0504
  449MOL0     C61862   4.842   1.145   0.269 -0.4825 -0.5694 -0.2257
  449MOL0     C61863   4.977   1.075   0.301 -0.0064 -0.7181 -0.4962
  449MOL0     C61864   5.069   1.099   0.185 -0.3435  0.5285  0.0478
  449MOL0     C61865   5.204   1.031   0.204 -0.5626 -0.3023 -0.4609
  449MOL0     C61866   5.294   1.018   0.081  0.0638 -0.6355 -0.2198
  449MOL0     C61867   5.245   0.920  -0.031  0.0589  0.0511 -0.1339
  449MOL0     C61868   5.330   0.945  -0.152  0.1594 -0.2864 -0.6449
  449MOL0    Cl61869   5.381   0.796  -0.233  0.0454  0.0255  0.2408
  449MOL0     C61870   4.528   1.198   0.568 -0.1201 -0.7892 -0.3161
  449MOL0     C61871   4.430   1.252   0.655  0.1787 -0.4704 -0.5362
  449MOL0     O61872   4.048   1.345   0.559 -0.3925 -0.6715  0.1449
  449MOL0     C61873   4.048   1.401   0.908  0.0623  0.4149 -0.0521
  449MOL0     C61874   3.969   1.453   1.015 -0.9975  0.3224 -0.2906
  449MOL0     N61875   3.744   1.346   1.632 -0.4386 -0.3950 -0.0194
  449MOL0     N61876   3.702   1.312   1.745  0.6885 -0.7771 -0.6411
  449MOL0     C61877   3.477   2.051   2.129 -0.1530 -0.1701 -0.6454
  449MOL0     C61878   3.519   2.034   2.267  1.0670 -0.0784 -0.3573
  449MOL0     C61879   3.622   1.895   2.690  0.5860 -0.2959  0.3524
  449MOL0     C61880   3.634   2.004   2.781  0.1442  1.5908  0.2077
  449MOL0     C61881   3.705   1.969   2.898 -0.1269  0.4552 -0.4940
  449MOL0     C61882   3.749   1.838   2.936 -0.3607 -0.3518 -0.6571
  449MOL0     O61883   3.822   1.822   3.059  0.2671  0.0102 -0.3871
  449MOL0     C61884   3.842   1.691   3.104  0.0449  0.4218 -0.7184
  449MOL0     C61885   3.722   1.639   3.184 -0.7606 -0.7960  0.7500
  449MOL0     C61886   3.751   1.511   3.257 -0.9643  0.4354  0.0369
  449MOL0     C61887   3.796   1.543   3.396  0.7826 -0.4108  0.2282
  449MOL0     C61888   3.821   1.415   3.467  0.1959  0.5395  0.0809
  449MOL0     C61889   3.845   1.325   3.542 -0.2278 -0.0826 -0.4125
  449MOL0     C61890   3.727   1.733   2.851 -0.0238  0.2364  0.1958
  449MOL0     C61891   3.663   1.759   2.724  0.3739 -0.1508  0.6977
  449MOL0     C61892   3.608   1.642   2.645 -0.8313  0.6842 -0.4884
  449MOL0     H61893   3.638   1.717   2.241  0.8375  0.6782  0.4684
  449MOL0     H61894   3.576   1.761   1.986 -0.8457  1.4740 -1.0317
  449MOL0     H61895   3.297   2.011   1.772  0.1368 -0.8448 -0.8257
  449MOL0     H61896   3.277   2.083   1.925  2.5458  0.5780  0.8197
  449MOL0     H61897   3.267   1.820   2.003  1.8565  2.4688 -0.1079
  449MOL0     H61898   3.123   1.907   1.952 -1.3076  0.0659 -3.8958
  449MOL0     H61899   3.177   1.819   1.711 -0.1047 -1.4771 -0.6007
  449MOL0     H61900   3.321   1.751   1.783 -0.5372 -0.7272  0.3142
  449MOL0     H61901   3.051   1.693   1.896 -0.0562 -0.3920 -1.5118
  449MOL0     H61902   3.108   1.607   1.758  2.6373 -0.1637 -0.8877
  449MOL0     H61903   3.154   1.465   1.961 -0.9896 -0.2316  1.4134
  449MOL0     H61904   3.279   1.578   2.018 -0.9905 -0.0537  1.7034
  449MOL0     H61905   3.268   1.424   1.749  0.0660  2.0025 -1.0278
  449MOL0     H61906   3.384   1.547   1.780 -2.8714  2.0223 -2.6188
  449MOL0     H61907   3.354   1.337   1.993 -0.5195 -1.3544 -0.5045
  449MOL0     H61908   3.498   1.440   1.952 -3.1904  3.6671  1.0409
  449MOL0     H61909   3.516   1.206   1.902 -0.9781 -1.0042  0.5847
  449MOL0     H61910   3.379   1.232   1.780 -2.3963  2.9161  1.6944
  449MOL0     H61911   3.425   1.354   1.566  0.1875  0.5071  0.5179
  449MOL0     H61912   3.587   1.339   1.329 -1.8104 -2.0104  1.0643
  449MOL0     H61913   3.754   1.384   1.348 -0.4807 -3.5024  0.9797
  449MOL0     H61914   3.548   1.589   1.457  1.2280  1.8612  1.2519
  449MOL0     H61915   3.711   1.614   1.412 -1.7580  0.1533  2.2053
  449MOL0     H61916   3.472   1.618   1.239  0.1766  2.2496  1.6350
  449MOL0     H61917   3.625   1.704   1.222  0.9187 -0.3428  1.8459
  449MOL0     H61918   3.586   1.418   1.147 -1.2543  1.0374  0.3687
  449MOL0     H61919   3.571   1.531   1.027 -0.0680 -0.4864  0.2414
  449MOL0     H61920   3.670   1.478   0.860 -0.1118  3.0483  2.4101
  449MOL0     H61921   3.870   1.509   0.556 -1.9625 -0.1046 -2.8299
  449MOL0     H61922   3.726   1.541   0.649  1.6475  0.8564 -1.2409
  449MOL0     H61923   3.756   1.368   0.592 -2.6414  1.1210 -0.5713
  449MOL0     H61924   4.257   1.452   0.445  2.6395  0.2675 -6.7148
  449MOL0     H61925   4.446   1.364   0.290  0.0320  0.0125  0.2551
  449MOL0     H61926   4.781   1.202   0.467  1.5929 -0.2643 -0.6150
  449MOL0     H61927   4.736   1.037   0.425 -2.2733  0.3165  1.1410
  449MOL0     H61928   4.794   1.092   0.187 -1.0342  1.0045 -0.9519
  449MOL0     H61929   4.852   1.248   0.235 -2.1736  0.1397  1.2413
  449MOL0     H61930   4.956   0.973   0.334  0.3186 -0.6830 -0.1800
  449MOL0     H61931   5.025   1.128   0.384  0.1938 -1.7067  0.0303
  449MOL0     H61932   5.089   1.206   0.174  0.7983  0.5154  1.6819
  449MOL0     H61933   5.032   1.070   0.086 -0.5041  2.1911 -0.4177
  449MOL0     H61934   5.250   1.081   0.289 -4.1007  4.5666 -0.9809
  449MOL0     H61935   5.183   0.926   0.224  0.8324 -0.6398 -0.6942
  449MOL0     H61936   5.395   0.990   0.110 -0.9180 -0.8189  3.5650
  449MOL0     H61937   5.306   1.115   0.033  3.8003 -0.8252  0.0818
  449MOL0     H61938   5.140   0.933  -0.061 -0.0928 -0.3464  0.2263
  449MOL0     H61939   5.257   0.817   0.004  1.2031  0.1081 -0.3364
  449MOL0     H61940   5.417   1.005  -0.122 -0.7474  0.5610  0.3730
  449MOL0     H61941   5.276   1.007  -0.225  0.9380  1.0018 -0.1659
  449MOL0     H61942   4.591   1.125   0.618 -1.4319 -0.3689  2.0973
  449MOL0     H61943   4.428   1.224   0.761  0.0415  0.4474 -0.2920
  449MOL0     H61944   4.145   1.360   0.934 -0.0628  0.9886  1.4406
  449MOL0     H61945   4.009   1.464   1.115  2.1546 -0.5588 -1.3234
  449MOL0     H61946   3.428   2.141   2.093 -1.4337 -0.8668 -0.7098
  449MOL0     H61947   3.505   2.120   2.331  0.0776 -1.2734  1.1175
  449MOL0     H61948   3.611   2.105   2.749 -0.7748  1.5316  0.6534
  449MOL0     H61949   3.704   2.049   2.972  0.7159  1.6366 -1.7249
  449MOL0     H61950   3.868   1.621   3.024 -2.7470 -1.7468  0.1173
  449MOL0     H61951   3.933   1.699   3.165 -0.1308  1.1701 -0.5421
  449MOL0     H61952   3.646   1.618   3.108  0.2840  1.1125 -0.9306
  449MOL0     H61953   3.684   1.720   3.247 -1.6898  0.1762 -0.9892
  449MOL0     H61954   3.666   1.442   3.264  0.4994 -1.3831  0.7126
  449MOL0     H61955   3.825   1.458   3.197 -0.8892  0.0513  0.4688
  449MOL0     H61956   3.720   1.609   3.440  2.2323  1.3148  0.2693
  449MOL0     H61957   3.885   1.606   3.393 -0.3379  1.3066  1.4349
  449MOL0     H61958   3.862   1.240   3.605  2.6717  0.9601  0.3200
  449MOL0     H61959   3.750   1.629   2.870  2.0330  0.6783  0.4165
  449MOL0     H61960   3.706   1.594   2.635  0.9409  3.6741  1.1085
  449MOL0     H61961   3.546   1.572   2.702  2.2218 -1.4723  0.4457
  449MOL0     H61962   3.558   1.665   2.551  0.0459  3.2020 -0.4244
  450MOL0     O61963   6.501  11.542   5.161 -0.5801  0.0234  0.1601
  450MOL0     C61964   6.452  11.637   5.108  1.0283  0.2980  0.1440
  450MOL0     O61965   6.407  11.637   4.980 -0.8043  0.4826 -0.3515
  450MOL0     C61966   6.456  11.540   4.903 -0.2705 -0.6346  0.2127
  450MOL0     C61967   6.362  11.440   4.888  0.1914  0.3282 -0.0873
  450MOL0     C61968   6.394  11.331   4.804 -0.8773 -0.8467 -0.7044
  450MOL0     C61969   6.514  11.333   4.730  0.5823 -0.3775 -0.4763
  450MOL0     O61970   6.542  11.250   4.626 -0.1847 -0.1610  0.1035
  450MOL0     C61971   6.439  11.156   4.570  0.2461 -0.4123  0.5290
  450MOL0     C61972   6.368  11.221   4.451 -0.4451  0.9108  0.2136
  450MOL0     C61973   6.333  11.116   4.341 -0.1612  0.2638  0.6240
  450MOL0     C61974   6.444  11.061   4.256  0.4678 -0.8516 -0.4945
  450MOL0     C61975   6.405  10.989   4.130 -0.1564  0.4317  0.4076
  450MOL0     C61976   6.307  10.873   4.146  0.6591 -0.6643  0.4910
  450MOL0     C61977   6.247  10.809   4.015 -0.4155  0.1347  0.1784
  450MOL0     C61978   6.334  10.851   3.885  0.6918 -0.7974 -0.3956
  450MOL0     N61979   6.297  10.742   3.787  0.3300  0.4320 -0.2268
  450MOL0     C61980   6.182  10.745   3.714  0.0047  0.4840  0.7783
  450MOL0     C61981   6.215  10.668   3.605 -0.0500 -0.3527  0.6148
  450MOL0     C61982   6.133  10.635   3.483 -0.0225 -0.2005  0.5425
  450MOL0     C61983   6.182  10.715   3.362 -0.0380  0.1419  0.6764
  450MOL0     C61984   6.315  10.666   3.301  0.6969  0.0815  0.0220
  450MOL0     C61985   6.288  10.526   3.234  0.1072 -0.2426  0.4289
  450MOL0     O61986   6.305  10.530   3.091  0.1554  0.3006  0.2088
  450MOL0     C61987   6.197  10.557   3.007  0.3472  1.0940 -0.3895
  450MOL0     C61988   6.231  10.607   2.885 -0.9089 -0.8918  0.0696
  450MOL0     C61989   6.133  10.642   2.794  0.9814  0.2235  0.6842
  450MOL0     C61990   6.185  10.695   2.658 -0.6687 -0.2787 -0.5741
  450MOL0     C61991   6.000  10.628   2.830  0.2928  0.6517  0.1563
  450MOL0     C61992   5.886  10.647   2.735  0.1832 -0.1921  0.5516
  450MOL0     O61993   5.892  10.572   2.623 -0.8529 -0.8594 -0.1964
  450MOL0     C61994   5.802  10.579   2.516  0.2415  0.6033 -0.2626
  450MOL0     C61995   5.670  10.631   2.509  0.0489 -0.0684 -0.4947
  450MOL0     C61996   5.594  10.626   2.393  0.2549  0.0802  0.3389
  450MOL0     C61997   5.651  10.576   2.279 -1.0512 -0.1111  0.7846
  450MOL0     O61998   5.586  10.583   2.164  0.1525 -0.5878  0.3437
  450MOL0     C61999   5.608  10.704   2.084 -0.0015  0.0199  0.0997
  450MOL0     C62000   5.584  10.684   1.937 -0.8529  0.0934  0.1655
  450MOL0     C62001   5.509  10.800   1.871 -0.3326 -0.0840 -0.1963
  450MOL0     C62002   5.600  10.929   1.887 -0.1122 -0.4362  0.4218
  450MOL0     C62003   5.544  11.035   1.788 -0.1243  0.5086  0.4797
  450MOL0     C62004   5.584  11.181   1.815 -0.3136  0.3160 -0.6743
  450MOL0     C62005   5.510  11.265   1.713  0.0638  0.1096 -0.0521
  450MOL0     C62006   5.547  11.405   1.733  0.0286  0.3876  0.5080
  450MOL0    Cl62007   5.469  11.507   1.605  0.0652  0.2392 -0.7355
  450MOL0     C62008   5.787  10.539   2.280  0.3713 -0.5057 -0.0297
  450MOL0     C62009   5.861  10.530   2.396 -0.4564 -1.1026  0.3939
  450MOL0     O62010   5.785  10.708   2.771  0.0883  0.0205  0.4217
  450MOL0     C62011   5.960  10.576   2.959 -0.5968  0.1291 -0.0681
  450MOL0     C62012   6.061  10.551   3.048  0.6957 -1.5069  0.8737
  450MOL0     N62013   6.338  10.621   3.629 -0.0253  0.1188 -0.3534
  450MOL0     N62014   6.396  10.664   3.738  0.3567 -0.3123  0.3306
  450MOL0     C62015   6.597  11.446   4.743 -0.1523  1.1726  0.2221
  450MOL0     C62016   6.574  11.554   4.826  0.0421  0.2579 -0.1274
  450MOL0     C62017   6.408  11.760   5.191  0.5247  0.4498 -0.3901
  450MOL0     C62018   6.456  11.876   5.129  0.2899 -0.6276  0.1321
  450MOL0     C62019   6.426  11.989   5.188  0.0984 -0.5749  0.4966
  450MOL0     C62020   6.354  11.997   5.314 -0.6852 -0.1022  0.7729
  450MOL0     O62021   6.333  12.116   5.366 -0.0250 -0.4251 -0.6442
  450MOL0     C62022   6.222  12.192   5.317  0.7349 -0.5473  0.5575
  450MOL0     C62023   6.233  12.347   5.368 -0.1656  0.6640  0.4004
  450MOL0     C62024   6.194  12.344   5.517  0.3951 -0.5459 -1.8007
  450MOL0     C62025   6.208  12.495   5.562 -1.0238 -0.3300  0.5730
  450MOL0     C62026   6.075  12.560   5.532  0.0249  0.2576  0.0354
  450MOL0     C62027   5.974  12.602   5.475  0.0883 -0.8397  0.0112
  450MOL0     C62028   6.323  11.879   5.382 -0.0524 -0.4780  0.5691
  450MOL0     C62029   6.351  11.752   5.320 -0.5315  0.4047  0.8867
  450MOL0     C62030   6.311  11.624   5.388  0.1675 -0.6553  0.2075
  450MOL0     H62031   6.264  11.452   4.934  0.8011 -1.7962  1.9351
  450MOL0     H62032   6.321  11.252   4.802 -4.4142  2.1089  0.7173
  450MOL0     H62033   6.370  11.116   4.645  1.6237 -2.5759  0.7351
  450MOL0     H62034   6.480  11.063   4.530 -0.2474  0.5466 -2.4152
  450MOL0     H62035   6.275  11.263   4.490 -0.5954 -0.2776  1.1973
  450MOL0     H62036   6.423  11.309   4.417 -0.9584  1.4502  0.7670
  450MOL0     H62037   6.282  11.031   4.389  0.9506 -1.4400 -1.1054
  450MOL0     H62038   6.261  11.167   4.276  0.3158 -0.5010 -0.5177
  450MOL0     H62039   6.506  11.144   4.220 -0.8395  0.3245 -0.1135
  450MOL0     H62040   6.496  11.002   4.332 -1.6290 -0.0458  1.7115
  450MOL0     H62041   6.487  10.940   4.076 -1.9282  0.4567 -2.5921
  450MOL0     H62042   6.348  11.057   4.066 -0.0056  0.3067  0.1404
  450MOL0     H62043   6.365  10.800   4.203  1.9706 -1.5116 -1.7858
  450MOL0     H62044   6.225  10.901   4.213  0.7413  4.6291 -1.1613
  450MOL0     H62045   6.143  10.843   4.004 -1.1283 -1.6300  1.1924
  450MOL0     H62046   6.249  10.703   4.041 -3.8659 -0.5031 -1.5001
  450MOL0     H62047   6.315  10.950   3.843  1.1107 -0.4537  0.2121
  450MOL0     H62048   6.440  10.863   3.906  0.4372  2.1222 -0.3145
  450MOL0     H62049   6.087  10.797   3.721 -1.8908 -1.9383 -3.2534
  450MOL0     H62050   6.032  10.670   3.509  0.7519  0.3847  3.1477
  450MOL0     H62051   6.129  10.528   3.461 -1.8710 -0.1995  0.6757
  450MOL0     H62052   6.107  10.698   3.284  1.9839 -0.8366 -1.1574
  450MOL0     H62053   6.191  10.821   3.387 -3.6398  1.4278 -2.4497
  450MOL0     H62054   6.352  10.740   3.229  0.1394  0.9358  0.5922
  450MOL0     H62055   6.392  10.661   3.378  1.5990  0.8296 -0.7986
  450MOL0     H62056   6.367  10.458   3.267  1.6499  1.4890  0.4926
  450MOL0     H62057   6.191  10.486   3.263  0.0192 -0.9353 -0.7632
  450MOL0     H62058   6.335  10.610   2.853  0.5612 -0.3909  4.3029
  450MOL0     H62059   6.103  10.736   2.598 -1.6104 -2.1891 -0.6666
  450MOL0     H62060   6.239  10.623   2.596 -0.3590 -0.2628 -0.3245
  450MOL0     H62061   6.245  10.783   2.685  2.4186 -1.8534 -1.8263
  450MOL0     H62062   5.623  10.664   2.601 -1.7410 -1.8406 -0.6928
  450MOL0     H62063   5.487  10.639   2.400 -0.1795 -0.9713 -2.6977
  450MOL0     H62064   5.539  10.782   2.117  0.4592  1.0277 -1.2126
  450MOL0     H62065   5.711  10.735   2.103 -0.0816  1.4309 -1.5199
  450MOL0     H62066   5.683  10.668   1.894  0.3315  1.1853  2.2718
  450MOL0     H62067   5.533  10.589   1.921  0.3893 -0.6914  0.7164
  450MOL0     H62068   5.410  10.811   1.916 -2.3343 -2.5451 -3.4808
  450MOL0     H62069   5.468  10.779   1.771 -2.1661 -0.7810  0.6581
  450MOL0     H62070   5.702  10.902   1.858 -1.4153 -4.6187 -1.1488
  450MOL0     H62071   5.587  10.952   1.993  5.5607  1.1760  1.0661
  450MOL0     H62072   5.574  11.007   1.686 -3.4822  0.3765 -0.5859
  450MOL0     H62073   5.436  11.026   1.802 -0.0724 -1.1384 -0.0583
  450MOL0     H62074   5.693  11.180   1.802 -0.2700 -1.5005 -0.4289
  450MOL0     H62075   5.567  11.208   1.920  4.3014  0.1854  0.3450
  450MOL0     H62076   5.401  11.255   1.719  0.1584 -1.3047 -0.3674
  450MOL0     H62077   5.539  11.244   1.610 -0.1413  0.2351 -0.1376
  450MOL0     H62078   5.655  11.426   1.727  0.2614 -1.0224 -0.6636
  450MOL0     H62079   5.526  11.436   1.836 -0.1717 -1.0313  0.9059
  450MOL0     H62080   5.818  10.511   2.180 -3.0368 -0.1245 -1.3312
  450MOL0     H62081   5.965  10.500   2.392  0.2524  1.0576  1.2578
  450MOL0     H62082   5.856  10.562   2.986 -0.3518 -1.0700  0.3400
  450MOL0     H62083   6.031  10.505   3.141 -2.1748  1.2839  1.4679
  450MOL0     H62084   6.674  11.468   4.670  0.3395 -0.6375  0.1421
  450MOL0     H62085   6.645  11.636   4.821  0.5887 -0.1255  1.0462
  450MOL0     H62086   6.499  11.879   5.029 -0.8010  0.0262 -0.3370
  450MOL0     H62087   6.448  12.088   5.148 -0.1575  0.2937  2.3461
  450MOL0     H62088   6.223  12.188   5.207  0.6209 -0.4716  0.5547
  450MOL0     H62089   6.124  12.152   5.346  0.6154 -1.1751 -0.6374
  450MOL0     H62090   6.170  12.419   5.316  0.9584  1.2374 -0.2068
  450MOL0     H62091   6.338  12.375   5.361  0.0300  1.6015  4.4716
  450MOL0     H62092   6.098  12.305   5.551  1.3009 -1.0038  0.4224
  450MOL0     H62093   6.269  12.285   5.571  0.5854  0.6273 -0.7411
  450MOL0     H62094   6.270  12.551   5.491 -0.1736  0.4276  1.8548
  450MOL0     H62095   6.249  12.511   5.662  0.2167  0.8732 -0.0909
  450MOL0     H62096   5.897  12.651   5.419  0.6411  1.0310  0.8169
  450MOL0     H62097   6.286  11.882   5.484  1.1707  0.1447  1.0083
  450MOL0     H62098   6.335  11.534   5.330 -0.5267 -0.2616 -0.7044
  450MOL0     H62099   6.368  11.617   5.481 -0.3943  0.8386  0.6891
  450MOL0     H62100   6.207  11.619   5.419 -0.2139 -2.2397 -1.1320
  451MOL0     O62101   8.417   3.140   2.483 -0.0997 -0.5403  0.8479
  451MOL0     C62102   8.515   3.121   2.549 -0.3649 -0.1609 -0.0645
  451MOL0     O62103   8.550   3.000   2.602 -0.3710  0.0338 -0.4356
  451MOL0     C62104   8.523   2.881   2.537  0.1036  0.4571  0.3939
  451MOL0     C62105   8.400   2.822   2.511 -0.3826 -1.3304  0.2808
  451MOL0     C62106   8.382   2.699   2.451 -1.0501  0.3209 -0.9681
  451MOL0     C62107   8.497   2.620   2.423  0.6898  0.2684 -0.7707
  451MOL0     O62108   8.504   2.493   2.387 -0.2893  0.0694  0.3645
  451MOL0     C62109   8.418   2.448   2.280  1.0593  0.3544 -0.6521
  451MOL0     C62110   8.310   2.362   2.342 -1.1190 -0.0976  0.3063
  451MOL0     C62111   8.370   2.214   2.355  0.0366  0.5044  0.6941
  451MOL0     C62112   8.291   2.129   2.456  0.1000  0.2938  0.2114
  451MOL0     C62113   8.134   2.128   2.441  0.4475 -0.5621 -0.3522
  451MOL0     C62114   8.060   2.010   2.507 -0.0446 -1.5768  0.8525
  451MOL0     C62115   8.049   1.894   2.406 -0.4998 -0.3860 -0.6921
  451MOL0     C62116   7.942   1.930   2.304 -0.0192 -0.0071  0.9369
  451MOL0     N62117   7.877   1.808   2.258 -0.5492  1.0006  0.7656
  451MOL0     C62118   7.946   1.698   2.196  1.0884 -0.0771 -1.5992
  451MOL0     C62119   7.859   1.602   2.181 -0.2217  0.3926  0.1522
  451MOL0     C62120   7.901   1.465   2.134  0.0337  0.9559 -0.4856
  451MOL0     C62121   7.940   1.468   1.989  0.3529 -0.6166 -1.3980
  451MOL0     C62122   7.835   1.518   1.895  0.2153 -0.2712  0.9074
  451MOL0     C62123   7.869   1.495   1.752 -0.6216 -1.2479 -0.4676
  451MOL0     O62124   7.757   1.553   1.678  0.5710  0.1109 -0.3352
  451MOL0     C62125   7.744   1.535   1.543  0.4858 -0.1741  0.6152
  451MOL0     C62126   7.848   1.485   1.469  0.5534 -1.1720  0.4328
  451MOL0     C62127   7.834   1.445   1.336  0.1341 -0.9339  0.4456
  451MOL0     C62128   7.959   1.399   1.271 -0.0742 -0.0226 -0.3791
  451MOL0     C62129   7.709   1.458   1.261 -0.2901  0.9017  0.2005
  451MOL0     C62130   7.695   1.441   1.111 -0.3233 -0.6361 -0.8197
  451MOL0     O62131   7.567   1.415   1.064 -0.2958 -0.3699  0.4417
  451MOL0     C62132   7.523   1.444   0.934 -0.9412  0.7857 -0.8752
  451MOL0     C62133   7.539   1.572   0.882  0.5892  0.0121  0.0760
  451MOL0     C62134   7.499   1.600   0.752  0.5713 -0.4165  0.4865
  451MOL0     C62135   7.441   1.504   0.668 -0.4926  0.9365 -0.2112
  451MOL0     O62136   7.420   1.546   0.535 -0.0693  0.9183 -0.1996
  451MOL0     C62137   7.338   1.447   0.456 -0.5900 -0.0170 -0.4914
  451MOL0     C62138   7.294   1.505   0.319 -0.2791  0.2552  0.2719
  451MOL0     C62139   7.144   1.551   0.340  1.0720  0.4386  0.4469
  451MOL0     C62140   7.062   1.528   0.210  0.7684  0.0021  0.0631
  451MOL0     C62141   6.925   1.595   0.217  0.6426 -0.2400  0.5339
  451MOL0     C62142   6.819   1.536   0.313  0.5118  0.4137  0.0362
  451MOL0     C62143   6.798   1.389   0.282 -0.3563 -0.0701 -0.4899
  451MOL0     C62144   6.657   1.340   0.292 -0.4761  0.2300  0.3295
  451MOL0    Cl62145   6.654   1.163   0.250 -0.4078  0.1063  0.0768
  451MOL0     C62146   7.422   1.381   0.726  0.0799  0.2562  0.2695
  451MOL0     C62147   7.463   1.350   0.853  0.8306  0.1579 -0.2362
  451MOL0     O62148   7.786   1.479   1.040 -0.4513  0.2911 -0.3597
  451MOL0     C62149   7.604   1.513   1.341  0.4615 -0.6895 -0.4740
  451MOL0     C62150   7.621   1.551   1.478 -0.2870  0.4295 -0.4077
  451MOL0     N62151   7.731   1.642   2.230 -0.4669  0.2837  0.3374
  451MOL0     N62152   7.750   1.762   2.280  0.0845  0.2185 -0.0165
  451MOL0     C62153   8.621   2.671   2.456  0.0825 -0.0197 -0.0191
  451MOL0     C62154   8.628   2.799   2.510 -0.3833  0.7576 -0.5918
  451MOL0     C62155   8.602   3.236   2.598  1.2871  0.2328 -0.2361
  451MOL0     C62156   8.722   3.206   2.661  0.9003  0.3328  1.0057
  451MOL0     C62157   8.805   3.313   2.717  0.6185  0.2449  1.3158
  451MOL0     C62158   8.753   3.439   2.739  0.6915 -0.1584  0.2916
  451MOL0     O62159   8.835   3.516   2.816  1.1373 -0.0754 -0.4327
  451MOL0     C62160   8.797   3.651   2.825 -0.1775 -0.5371  0.3237
  451MOL0     C62161   8.890   3.727   2.919  0.8196  0.7658  0.6788
  451MOL0     C62162   9.021   3.737   2.847  0.3398  1.0083 -0.0315
  451MOL0     C62163   9.146   3.771   2.930  0.1385 -0.6188 -0.4420
  451MOL0     C62164   9.170   3.659   3.025 -0.8875 -0.0477  0.3856
  451MOL0     C62165   9.178   3.571   3.098 -0.0209  0.1920 -0.0952
  451MOL0     C62166   8.632   3.478   2.679 -0.5512  0.3214 -0.5594
  451MOL0     C62167   8.559   3.380   2.609 -0.9252 -1.0960 -0.4245
  451MOL0     C62168   8.424   3.439   2.564  0.1340 -0.1337 -0.2474
  451MOL0     H62169   8.315   2.883   2.540  1.5951  0.7922  2.0992
  451MOL0     H62170   8.283   2.660   2.430 -0.4892 -1.2392 -0.8815
  451MOL0     H62171   8.465   2.395   2.197 -1.0566 -4.8865  1.1115
  451MOL0     H62172   8.364   2.534   2.239 -3.3578 -1.7058  0.3203
  451MOL0     H62173   8.300   2.406   2.442 -0.3337  1.8332 -0.4202
  451MOL0     H62174   8.225   2.353   2.274  0.1204 -2.0105 -1.1014
  451MOL0     H62175   8.364   2.171   2.254  0.1144 -1.1018  1.3490
  451MOL0     H62176   8.475   2.233   2.381  1.5327  1.8558 -4.8939
  451MOL0     H62177   8.336   2.030   2.449  1.8617  1.0413  0.3012
  451MOL0     H62178   8.320   2.160   2.558  0.9000 -1.7198  0.6482
  451MOL0     H62179   8.104   2.117   2.336 -0.0784  0.6075 -0.3396
  451MOL0     H62180   8.092   2.221   2.479 -0.4729 -1.0378 -0.1762
  451MOL0     H62181   8.122   1.987   2.594  0.1740 -1.3495  0.7591
  451MOL0     H62182   7.960   2.038   2.541 -0.2753  0.4073 -1.2350
  451MOL0     H62183   8.017   1.805   2.461 -1.1740 -0.5612 -1.3507
  451MOL0     H62184   8.144   1.870   2.358  1.0392  1.2145  1.3729
  451MOL0     H62185   7.869   2.003   2.341  1.4674  2.7070 -1.0673
  451MOL0     H62186   7.985   1.979   2.216 -2.2323 -0.0049 -0.2232
  451MOL0     H62187   8.050   1.684   2.167  0.8230 -1.9708 -1.7419
  451MOL0     H62188   7.818   1.396   2.149  0.4007  0.8300  1.0612
  451MOL0     H62189   7.991   1.448   2.194 -0.2636  0.9742 -0.0339
  451MOL0     H62190   8.030   1.530   1.981  0.7073 -0.8265  0.4314
  451MOL0     H62191   7.963   1.366   1.955  1.0381 -0.4259 -1.5285
  451MOL0     H62192   7.743   1.466   1.921  1.1300 -0.9834  2.9632
  451MOL0     H62193   7.813   1.624   1.913  2.3778  1.0497 -3.0694
  451MOL0     H62194   7.966   1.541   1.732 -0.4004 -1.8693 -0.8455
  451MOL0     H62195   7.880   1.388   1.736  0.4182 -1.1003 -0.8286
  451MOL0     H62196   7.945   1.488   1.517  2.1762  0.2072 -2.6752
  451MOL0     H62197   7.997   1.480   1.209 -0.8051  1.0668  0.5519
  451MOL0     H62198   7.941   1.308   1.212  2.1156 -1.0444  0.4571
  451MOL0     H62199   8.035   1.375   1.345  1.0034  1.1589 -1.0698
  451MOL0     H62200   7.578   1.652   0.944 -2.3021 -0.0778  2.2347
  451MOL0     H62201   7.515   1.694   0.700  0.8886  0.2199  1.7022
  451MOL0     H62202   7.399   1.357   0.447 -3.2805 -2.1222  0.7132
  451MOL0     H62203   7.254   1.415   0.519 -0.4412  0.1403 -0.2113
  451MOL0     H62204   7.341   1.597   0.283  0.1921 -0.8213 -2.0540
  451MOL0     H62205   7.314   1.429   0.243 -2.6116 -0.5388  0.3488
  451MOL0     H62206   7.133   1.648   0.389 -2.7720  1.3891 -1.8371
  451MOL0     H62207   7.096   1.470   0.396  1.5047 -1.9461 -2.3732
  451MOL0     H62208   7.042   1.424   0.182  0.3266  0.3581 -1.0199
  451MOL0     H62209   7.117   1.566   0.124  3.5810 -1.9483  0.8785
  451MOL0     H62210   6.940   1.700   0.242  3.2048 -0.5445  0.5579
  451MOL0     H62211   6.880   1.597   0.117 -1.6473  0.4377  1.5227
  451MOL0     H62212   6.729   1.595   0.292 -1.7830 -3.0659 -0.8331
  451MOL0     H62213   6.860   1.558   0.411  2.1527  2.3172 -1.0094
  451MOL0     H62214   6.858   1.336   0.356 -2.2775  0.3213  1.4199
  451MOL0     H62215   6.847   1.370   0.186  2.5409  3.2441  0.0976
  451MOL0     H62216   6.600   1.406   0.226 -0.7951  3.3609  3.4603
  451MOL0     H62217   6.622   1.347   0.396 -0.1011 -0.1810  0.4859
  451MOL0     H62218   7.394   1.305   0.655 -0.6606  1.1898 -0.4669
  451MOL0     H62219   7.457   1.247   0.888 -0.7804 -0.2571 -1.6207
  451MOL0     H62220   7.502   1.519   1.305  0.5893 -1.5421 -0.9918
  451MOL0     H62221   7.540   1.585   1.542 -0.3247 -1.6097  0.6837
  451MOL0     H62222   8.712   2.611   2.451  0.5015  0.2572  2.6161
  451MOL0     H62223   8.720   2.851   2.537  1.4063 -1.1683 -2.5623
  451MOL0     H62224   8.755   3.103   2.661  1.5320  0.4907 -1.0789
  451MOL0     H62225   8.908   3.301   2.749  1.6685  4.4179  0.0771
  451MOL0     H62226   8.802   3.692   2.724  3.0732 -0.9856  0.2072
  451MOL0     H62227   8.698   3.656   2.871  0.0761 -2.0616  1.0866
  451MOL0     H62228   8.900   3.669   3.011  0.8612  1.3465  1.0404
  451MOL0     H62229   8.850   3.823   2.953 -2.5487 -1.2017  2.8605
  451MOL0     H62230   9.039   3.650   2.784  0.0816 -0.6041  2.0132
  451MOL0     H62231   9.005   3.828   2.789  0.9829 -0.3400 -2.4366
  451MOL0     H62232   9.134   3.863   2.986 -1.7180 -2.7171  2.9323
  451MOL0     H62233   9.236   3.783   2.869 -1.0491  0.1624 -2.1177
  451MOL0     H62234   9.165   3.493   3.171  0.4768  1.7156  1.6950
  451MOL0     H62235   8.582   3.571   2.706 -1.9195 -1.2617  2.8928
  451MOL0     H62236   8.430   3.536   2.514 -1.4046 -1.7591 -3.9697
  451MOL0     H62237   8.393   3.386   2.473 -1.2243  1.9450 -1.0638
  451MOL0     H62238   8.354   3.435   2.648  1.7387  0.5610  1.1928
  452MOL0     O62239   6.345   8.952   5.907  0.2179 -0.5562  0.5711
  452MOL0     C62240   6.266   8.995   5.993  0.5875 -0.0888 -0.2442
  452MOL0     O62241   6.174   8.923   6.064 -0.6924  0.9153 -0.0869
  452MOL0     C62242   6.127   8.806   6.015  0.6420  0.1036  0.7318
  452MOL0     C62243   5.986   8.790   5.982  0.1505  0.0130 -0.3077
  452MOL0     C62244   5.941   8.674   5.929  1.1315  0.2038  0.7775
  452MOL0     C62245   6.022   8.563   5.908 -0.2043 -0.4119 -0.8709
  452MOL0     O62246   5.989   8.440   5.859 -0.1141  0.2617 -0.1272
  452MOL0     C62247   5.879   8.422   5.778  1.0228 -0.6372  0.0827
  452MOL0     C62248   5.874   8.267   5.755  0.3521  0.2428 -0.4210
  452MOL0     C62249   5.979   8.227   5.662  1.3337 -0.2042 -0.3372
  452MOL0     C62250   5.985   8.074   5.634 -0.0528 -1.5527 -0.7712
  452MOL0     C62251   6.054   8.060   5.497  0.1065  0.1077 -0.0494
  452MOL0     C62252   6.202   8.100   5.491 -0.6310 -0.7357  0.0075
  452MOL0     C62253   6.249   8.096   5.346  0.0587 -0.5600 -0.7292
  452MOL0     C62254   6.405   8.128   5.357  0.5231 -1.2746  0.4030
  452MOL0     N62255   6.443   8.143   5.212 -0.5974  0.5604  0.1866
  452MOL0     C62256   6.420   8.254   5.137 -0.3119 -0.3290  0.4603
  452MOL0     C62257   6.476   8.229   5.010 -0.4009 -0.0439 -0.4586
  452MOL0     C62258   6.491   8.318   4.893 -0.3525  0.0744  0.1444
  452MOL0     C62259   6.350   8.379   4.880  0.6479 -0.6512 -0.2561
  452MOL0     C62260   6.243   8.283   4.846 -0.0974  0.0430  0.4659
  452MOL0     C62261   6.106   8.344   4.821  0.3486  0.3305 -1.2930
  452MOL0     O62262   6.038   8.391   4.942  0.4036  0.7592  0.0716
  452MOL0     C62263   6.007   8.519   4.970 -0.8310 -1.3196 -0.4554
  452MOL0     C62264   5.899   8.539   5.058 -0.3095 -0.4217 -0.5578
  452MOL0     C62265   5.858   8.670   5.095  0.4909  0.1435 -0.5661
  452MOL0     C62266   5.721   8.679   5.160  0.1201  0.2193 -0.1034
  452MOL0     C62267   5.932   8.780   5.054  0.8458 -0.3143 -0.6373
  452MOL0     C62268   5.898   8.925   5.098 -0.1567  0.3753 -0.0779
  452MOL0     O62269   6.003   9.011   5.059  0.3792  0.0267 -0.5807
  452MOL0     C62270   5.995   9.139   5.104  0.2714 -1.0020 -0.3148
  452MOL0     C62271   6.036   9.172   5.232  0.1024 -1.2474  0.0558
  452MOL0     C62272   6.026   9.311   5.275 -0.2582 -0.3139  0.6437
  452MOL0     C62273   5.969   9.406   5.193 -0.0896  0.3784 -0.3799
  452MOL0     O62274   5.960   9.537   5.219  0.1765  0.0435  0.6559
  452MOL0     C62275   6.052   9.590   5.322  0.1899  0.2986 -0.4586
  452MOL0     C62276   6.070   9.732   5.312  0.1711  0.0044 -0.1618
  452MOL0     C62277   6.165   9.762   5.192  0.3791  0.2463  0.2386
  452MOL0     C62278   6.314   9.763   5.223 -0.6781  0.1604  1.2263
  452MOL0     C62279   6.356   9.895   5.311  0.2662 -0.5000 -0.3817
  452MOL0     C62280   6.354  10.031   5.251  0.3948 -1.3349  0.5780
  452MOL0     C62281   6.468  10.059   5.155 -0.3929  0.6503  0.2255
  452MOL0     C62282   6.464  10.203   5.101  0.2736  0.5462  0.1886
  452MOL0    Cl62283   6.293  10.238   5.043  0.0272 -0.0868  0.0754
  452MOL0     C62284   5.923   9.366   5.070  0.4933  0.5079 -0.2663
  452MOL0     C62285   5.928   9.227   5.023 -1.0674 -0.6047 -0.6247
  452MOL0     O62286   5.795   8.957   5.153  0.1384  0.3167 -0.4051
  452MOL0     C62287   6.030   8.763   4.958 -0.4799  0.1942 -0.2543
  452MOL0     C62288   6.072   8.629   4.915 -0.4868 -0.3635 -0.0906
  452MOL0     N62289   6.529   8.102   5.021 -0.2778 -1.2691  0.3073
  452MOL0     N62290   6.502   8.052   5.135  0.1544  0.0575  0.7745
  452MOL0     C62291   6.156   8.578   5.940 -0.8721  0.5790  0.3952
  452MOL0     C62292   6.207   8.690   6.006 -0.0247 -0.2156  0.3167
  452MOL0     C62293   6.278   9.136   6.049 -0.6327  0.1278 -0.9034
  452MOL0     C62294   6.402   9.166   6.099  0.6106  1.2761 -0.3278
  452MOL0     C62295   6.424   9.291   6.159 -1.1044 -0.2513 -0.2843
  452MOL0     C62296   6.325   9.379   6.171 -0.0159 -0.4085 -0.3668
  452MOL0     O62297   6.341   9.510   6.221  0.0343 -0.1167 -0.0620
  452MOL0     C62298   6.475   9.564   6.255  0.5795 -0.7954 -0.2293
  452MOL0     C62299   6.492   9.539   6.407  0.0851 -0.6894 -0.2137
  452MOL0     C62300   6.616   9.593   6.481  0.1504 -0.6655 -0.6669
  452MOL0     C62301   6.633   9.740   6.456  0.5092  0.0941 -0.5357
  452MOL0     C62302   6.518   9.825   6.492 -1.2445 -0.5626 -0.4832
  452MOL0     C62303   6.434   9.910   6.509  1.5432  1.0322 -0.2028
  452MOL0     C62304   6.206   9.361   6.108 -0.8296  0.4072 -0.4076
  452MOL0     C62305   6.179   9.234   6.048  0.0969 -0.9080  0.9202
  452MOL0     C62306   6.046   9.218   5.984 -0.5406  1.2666 -0.0759
  452MOL0     H62307   5.917   8.871   6.002 -0.6066 -0.8831  0.8726
  452MOL0     H62308   5.835   8.663   5.906  0.6540 -0.2923  2.9926
  452MOL0     H62309   5.889   8.471   5.681 -2.5034 -1.3581 -0.7854
  452MOL0     H62310   5.790   8.458   5.832  1.3096 -1.9797  1.5147
  452MOL0     H62311   5.892   8.206   5.844 -0.6410 -1.1443 -1.1408
  452MOL0     H62312   5.779   8.230   5.717  0.8425 -2.5526  0.8248
  452MOL0     H62313   5.950   8.277   5.569  0.0641 -1.3611 -0.5891
  452MOL0     H62314   6.073   8.268   5.700  2.6233 -0.1282 -3.2947
  452MOL0     H62315   6.047   8.021   5.708 -1.1462 -1.7506  0.0203
  452MOL0     H62316   5.888   8.027   5.652  0.0419 -1.5085 -0.1015
  452MOL0     H62317   5.994   8.114   5.424  1.6166 -1.3795 -2.5169
  452MOL0     H62318   6.054   7.957   5.462  4.2065  0.2736 -0.9939
  452MOL0     H62319   6.203   8.202   5.531 -0.2379 -0.6909 -0.1126
  452MOL0     H62320   6.271   8.045   5.555  3.0385 -1.1755 -3.9121
  452MOL0     H62321   6.191   8.170   5.291 -0.6395  0.9807  1.9101
  452MOL0     H62322   6.231   7.993   5.312  0.2171 -0.8368  0.0091
  452MOL0     H62323   6.432   8.210   5.423 -3.3211  0.1543  0.3966
  452MOL0     H62324   6.455   8.041   5.400  0.1218 -0.4843  2.5588
  452MOL0     H62325   6.366   8.340   5.172 -0.9013 -0.2065 -0.7062
  452MOL0     H62326   6.525   8.272   4.800 -0.9472  0.9452 -0.5237
  452MOL0     H62327   6.559   8.400   4.917  0.7092 -0.7514  0.0071
  452MOL0     H62328   6.317   8.437   4.967  0.1250 -4.2451  2.1329
  452MOL0     H62329   6.356   8.454   4.800  0.7734  2.1501  2.2096
  452MOL0     H62330   6.280   8.229   4.759  1.3592 -1.4914  1.9797
  452MOL0     H62331   6.230   8.214   4.930  2.6478 -3.2779 -1.5728
  452MOL0     H62332   6.115   8.431   4.755  2.6280  1.6048  0.5063
  452MOL0     H62333   6.046   8.264   4.777 -0.0452  0.0194 -0.2361
  452MOL0     H62334   5.853   8.446   5.089  2.5078 -1.0777  2.1898
  452MOL0     H62335   5.730   8.738   5.252 -1.6494  3.0989 -1.6193
  452MOL0     H62336   5.675   8.582   5.179  0.3477  0.1989  0.3781
  452MOL0     H62337   5.649   8.730   5.095  3.5416  2.5445 -2.4280
  452MOL0     H62338   6.087   9.097   5.292  3.8063 -0.8543 -2.2874
  452MOL0     H62339   6.039   9.333   5.381  0.2454  2.8789  0.0251
  452MOL0     H62340   6.009   9.564   5.419 -2.6921 -0.2877 -1.7620
  452MOL0     H62341   6.153   9.549   5.326  0.4752  0.6880 -2.5082
  452MOL0     H62342   5.976   9.779   5.281 -0.7541 -2.1308 -0.8130
  452MOL0     H62343   6.110   9.774   5.405 -0.7039 -0.5488  0.4904
  452MOL0     H62344   6.137   9.856   5.145  1.4312  0.8178  0.7301
  452MOL0     H62345   6.137   9.692   5.112 -0.7460  1.7848 -0.7621
  452MOL0     H62346   6.367   9.752   5.128 -0.2703  0.0535  1.4642
  452MOL0     H62347   6.337   9.672   5.279  1.6069 -0.3122 -0.3278
  452MOL0     H62348   6.289   9.899   5.396 -1.5696 -0.0526 -1.7914
  452MOL0     H62349   6.460   9.873   5.339  0.5907  1.5835  0.1670
  452MOL0     H62350   6.348  10.098   5.338  0.6648 -4.5904  3.2940
  452MOL0     H62351   6.264  10.041   5.190  0.6329 -1.3771  0.2180
  452MOL0     H62352   6.448   9.991   5.072  0.0042 -2.2225  2.3525
  452MOL0     H62353   6.562  10.032   5.205  0.6032  0.3877 -1.6868
  452MOL0     H62354   6.538  10.216   5.021  0.4211 -2.6241 -0.3118
  452MOL0     H62355   6.493  10.272   5.181 -0.8032  0.8025  0.3740
  452MOL0     H62356   5.882   9.435   4.997  0.6549  1.4446  0.5014
  452MOL0     H62357   5.895   9.197   4.924 -0.4014  1.3785 -1.5120
  452MOL0     H62358   6.091   8.837   4.906  1.1373  0.0957  1.4004
  452MOL0     H62359   6.154   8.620   4.844 -1.7873 -1.7815 -1.4978
  452MOL0     H62360   6.221   8.495   5.913 -1.8794  0.1367 -0.7603
  452MOL0     H62361   6.311   8.698   6.036  0.0501 -0.5867  0.1543
  452MOL0     H62362   6.487   9.098   6.106 -0.4950 -0.0582  0.7184
  452MOL0     H62363   6.524   9.297   6.200  0.3248 -5.8170 -2.0189
  452MOL0     H62364   6.553   9.523   6.190 -0.5194 -1.3831 -1.2177
  452MOL0     H62365   6.468   9.673   6.254 -0.8129 -0.8324  0.9684
  452MOL0     H62366   6.492   9.431   6.424 -0.9613 -0.6704 -0.0378
  452MOL0     H62367   6.397   9.578   6.445 -3.2819 -6.8158 -0.9233
  452MOL0     H62368   6.599   9.572   6.587 -2.0293 -0.7271 -0.9927
  452MOL0     H62369   6.706   9.544   6.442  0.3707  0.8968 -2.2657
  452MOL0     H62370   6.664   9.740   6.351 -1.6734 -1.7278 -1.2481
  452MOL0     H62371   6.724   9.775   6.506  0.8190  0.7030 -1.5019
  452MOL0     H62372   6.357   9.983   6.526 -0.3037 -0.9758  0.5082
  452MOL0     H62373   6.130   9.438   6.108  1.0233  2.4173  1.6732
  452MOL0     H62374   6.019   9.309   5.929 -1.1615  0.3654 -1.2963
  452MOL0     H62375   6.046   9.137   5.912 -1.2181  0.8524  0.3754
  452MOL0     H62376   5.970   9.199   6.061 -0.2898 -1.1657 -0.3538
  453MOL0     O62377   5.352   8.510   4.451  0.0488  0.0722  0.7471
  453MOL0     C62378   5.297   8.399   4.450 -0.6442 -1.0024  0.0609
  453MOL0     O62379   5.162   8.387   4.468  0.9443  0.2550 -0.1369
  453MOL0     C62380   5.090   8.496   4.477  0.3954  0.2341 -1.1703
  453MOL0     C62381   5.047   8.567   4.370 -0.2162 -0.8153  0.1857
  453MOL0     C62382   4.973   8.683   4.384 -1.2048 -0.0752  0.9381
  453MOL0     C62383   4.935   8.730   4.507 -2.0083  0.2019  1.1564
  453MOL0     O62384   4.877   8.851   4.518  0.0153 -0.8621 -0.4524
  453MOL0     C62385   4.845   8.913   4.644 -0.4196 -0.0560 -0.1376
  453MOL0     C62386   4.839   9.071   4.646  0.0408 -0.4925 -0.2941
  453MOL0     C62387   4.731   9.127   4.565 -0.8664  0.4413  0.7253
  453MOL0     C62388   4.765   9.121   4.423 -0.3261 -0.4693  0.4706
  453MOL0     C62389   4.647   9.091   4.329  0.1448 -0.4785  0.0148
  453MOL0     C62390   4.700   9.074   4.180 -0.3099  0.0479  0.2206
  453MOL0     C62391   4.786   8.947   4.166  0.0736 -0.3062 -0.3660
  453MOL0     C62392   4.855   8.949   4.030  0.1390 -1.2211 -0.5608
  453MOL0     N62393   4.949   8.831   4.006 -0.2982  0.7919 -0.8205
  453MOL0     C62394   4.899   8.699   4.019 -0.2505 -0.3670  0.4724
  453MOL0     C62395   5.011   8.621   4.026  0.2648  1.4658 -0.7439
  453MOL0     C62396   5.000   8.471   4.025  0.0908  0.1962 -0.6423
  453MOL0     C62397   4.963   8.427   3.883 -0.3326 -0.3542  0.4730
  453MOL0     C62398   4.960   8.266   3.877 -0.0097 -0.5981 -0.2727
  453MOL0     C62399   4.851   8.205   3.973  0.3208  0.7591 -0.2762
  453MOL0     O62400   4.897   8.158   4.100  0.2178 -0.0241 -0.1593
  453MOL0     C62401   4.993   8.057   4.111  0.4367  0.1870 -0.4273
  453MOL0     C62402   5.065   8.037   4.227 -0.6310  0.2696 -0.3205
  453MOL0     C62403   5.163   7.939   4.245 -0.4010 -0.8614  0.2788
  453MOL0     C62404   5.231   7.930   4.381  0.1425  0.0012  0.0918
  453MOL0     C62405   5.185   7.851   4.141  0.3621 -0.5802  0.3135
  453MOL0     C62406   5.312   7.767   4.131 -0.5846  0.4423 -0.2889
  453MOL0     O62407   5.320   7.680   4.028 -0.5198 -0.0827 -0.2520
  453MOL0     C62408   5.430   7.667   3.953  0.6866  0.9199  0.3272
  453MOL0     C62409   5.565   7.704   3.981 -0.1106 -0.4679 -0.4465
  453MOL0     C62410   5.675   7.662   3.901 -0.3409 -0.5861  0.1956
  453MOL0     C62411   5.665   7.578   3.795 -0.1468 -0.8428  0.0802
  453MOL0     O62412   5.766   7.536   3.722  0.3194  0.2605  0.1777
  453MOL0     C62413   5.872   7.457   3.762 -0.7634  0.8710  0.6842
  453MOL0     C62414   5.984   7.533   3.829  0.3161  0.4226  0.1493
  453MOL0     C62415   6.082   7.444   3.903  0.2762 -0.7326  0.6896
  453MOL0     C62416   6.182   7.374   3.805 -0.1416 -0.6086 -0.9824
  453MOL0     C62417   6.233   7.255   3.877 -0.4388 -0.3915 -0.9609
  453MOL0     C62418   6.387   7.228   3.855  0.0651  0.3984  0.1658
  453MOL0     C62419   6.475   7.352   3.900 -0.2957 -0.0755 -0.1894
  453MOL0     C62420   6.635   7.336   3.882 -0.1767 -0.5711  0.6803
  453MOL0    Cl62421   6.691   7.226   4.015 -0.5642 -0.1540  0.1188
  453MOL0     C62422   5.536   7.535   3.763  0.1308 -0.3272  0.5579
  453MOL0     C62423   5.416   7.581   3.842  0.2140  0.3408 -0.2638
  453MOL0     O62424   5.405   7.807   4.197 -0.3372 -0.3618  0.2392
  453MOL0     C62425   5.106   7.855   4.026 -0.2103 -0.7485 -0.3519
  453MOL0     C62426   5.011   7.954   4.012 -0.4607 -0.5390 -0.1702
  453MOL0     N62427   5.126   8.699   4.023 -0.3541 -0.6143  0.2209
  453MOL0     N62428   5.086   8.828   4.001 -0.4370  0.2075  0.0680
  453MOL0     C62429   4.987   8.658   4.622  0.3384 -0.0644 -0.1297
  453MOL0     C62430   5.062   8.542   4.608  0.3113 -0.0581 -0.0119
  453MOL0     C62431   5.380   8.287   4.449 -0.8989 -0.4367  0.9537
  453MOL0     C62432   5.392   8.211   4.566  0.0777 -0.0154  0.1813
  453MOL0     C62433   5.481   8.109   4.579  0.5213 -0.0701  0.2785
  453MOL0     C62434   5.574   8.084   4.473  0.2494  1.1451 -0.4020
  453MOL0     O62435   5.668   7.978   4.460  0.3546 -0.9519  0.5954
  453MOL0     C62436   5.669   7.868   4.554  0.5174 -0.3940 -0.8433
  453MOL0     C62437   5.688   7.733   4.489 -0.6819  0.3864  0.1690
  453MOL0     C62438   5.654   7.599   4.561  0.3590 -0.4465  1.4267
  453MOL0     C62439   5.755   7.563   4.667 -0.4720 -0.8927 -0.1623
  453MOL0     C62440   5.740   7.664   4.776  0.3084 -0.2506 -0.9811
  453MOL0     C62441   5.717   7.747   4.865 -0.1392 -0.1249  0.9540
  453MOL0     C62442   5.575   8.164   4.357  0.7361 -0.7721 -0.1317
  453MOL0     C62443   5.480   8.274   4.349  0.2115  0.9844  0.8997
  453MOL0     C62444   5.453   8.348   4.213 -0.3935  0.7407 -0.5638
  453MOL0     H62445   5.084   8.526   4.276  0.3282 -3.5607  1.5181
  453MOL0     H62446   4.951   8.739   4.293  1.8079 -1.4446 -0.7534
  453MOL0     H62447   4.913   8.879   4.723 -2.6597 -0.8764  1.5557
  453MOL0     H62448   4.744   8.877   4.666  0.1666 -0.9863  1.1884
  453MOL0     H62449   4.809   9.086   4.750  0.5028  1.0972 -0.3743
  453MOL0     H62450   4.933   9.119   4.617 -1.6641  1.2922 -3.3271
  453MOL0     H62451   4.635   9.076   4.580 -2.6923  2.1926 -3.6605
  453MOL0     H62452   4.721   9.232   4.594 -0.1172  0.0311  2.6581
  453MOL0     H62453   4.797   9.223   4.400  0.6922 -1.0264 -0.7069
  453MOL0     H62454   4.843   9.047   4.404 -2.3542 -2.0788 -2.4355
  453MOL0     H62455   4.580   9.177   4.333 -0.2308 -0.6737 -1.5180
  453MOL0     H62456   4.605   8.998   4.367  0.8992 -1.3540 -1.2031
  453MOL0     H62457   4.610   9.068   4.118 -1.2550  0.2008  1.5307
  453MOL0     H62458   4.765   9.162   4.171  0.9671 -0.6260  2.2329
  453MOL0     H62459   4.712   8.867   4.160 -1.8439  1.4473 -1.3062
  453MOL0     H62460   4.861   8.922   4.242  0.4460 -1.0729 -0.9675
  453MOL0     H62461   4.785   8.954   3.946  0.5379  0.0345 -0.8457
  453MOL0     H62462   4.919   9.038   4.021  1.8385 -1.9542  2.7655
  453MOL0     H62463   4.800   8.660   3.997 -1.1316  2.5091 -1.1252
  453MOL0     H62464   4.922   8.423   4.085  1.8606 -1.6593  0.2819
  453MOL0     H62465   5.103   8.440   4.045 -0.6482 -3.8407 -2.0694
  453MOL0     H62466   4.869   8.471   3.850 -1.1133 -1.8423  0.6498
  453MOL0     H62467   5.040   8.458   3.811 -0.3686 -1.6050 -0.1215
  453MOL0     H62468   4.941   8.238   3.773  1.0761  1.8366 -1.2050
  453MOL0     H62469   5.057   8.220   3.897  1.4386  2.4832  0.3482
  453MOL0     H62470   4.774   8.279   3.994  0.8138  0.8283  1.4580
  453MOL0     H62471   4.798   8.127   3.918 -1.5724  2.0680 -0.4057
  453MOL0     H62472   5.047   8.118   4.298 -1.0875  0.3011 -0.4672
  453MOL0     H62473   5.182   7.998   4.452 -1.4937 -3.0085  2.0377
  453MOL0     H62474   5.335   7.964   4.378 -0.3702  2.6624  4.2353
  453MOL0     H62475   5.227   7.826   4.414  0.2064 -0.7308 -2.0721
  453MOL0     H62476   5.597   7.760   4.068  3.7794  0.0795 -2.0384
  453MOL0     H62477   5.763   7.708   3.942  2.0281 -2.2865 -2.5666
  453MOL0     H62478   5.844   7.378   3.832 -0.9586  0.5610  0.2598
  453MOL0     H62479   5.904   7.402   3.673 -0.6711  2.7398 -0.4997
  453MOL0     H62480   6.028   7.606   3.760  0.1328  0.2832 -0.1123
  453MOL0     H62481   5.929   7.591   3.904  1.2056 -0.3038  1.4255
  453MOL0     H62482   6.028   7.367   3.959  0.8743 -3.7123 -2.5005
  453MOL0     H62483   6.140   7.497   3.979  1.1110 -1.9481  0.9225
  453MOL0     H62484   6.251   7.453   3.775 -1.8037  0.8926 -1.0474
  453MOL0     H62485   6.133   7.339   3.714  1.3311 -1.4140 -1.4927
  453MOL0     H62486   6.218   7.278   3.983 -1.0540  0.0825 -1.1456
  453MOL0     H62487   6.186   7.157   3.861  3.2725 -2.3319 -1.2277
  453MOL0     H62488   6.396   7.189   3.754 -2.8040  0.9064 -0.3528
  453MOL0     H62489   6.418   7.153   3.928 -1.6635 -0.9393 -0.4333
  453MOL0     H62490   6.471   7.384   4.004  0.9891  1.7904 -0.6534
  453MOL0     H62491   6.446   7.441   3.842 -0.4837  0.2735  0.4346
  453MOL0     H62492   6.683   7.431   3.909 -1.8878  1.1731 -1.9617
  453MOL0     H62493   6.660   7.302   3.781 -1.7884 -0.2042  0.1381
  453MOL0     H62494   5.511   7.469   3.681 -2.3038 -2.1902  2.6395
  453MOL0     H62495   5.314   7.543   3.841  1.4335 -3.3592  0.5455
  453MOL0     H62496   5.127   7.782   3.948 -0.1035  0.6939 -1.7183
  453MOL0     H62497   4.933   7.952   3.937 -0.8147  1.7612  0.0779
  453MOL0     H62498   4.968   8.697   4.722 -3.3703  1.7904 -1.3683
  453MOL0     H62499   5.100   8.491   4.696  0.1734  0.8206  0.5694
  453MOL0     H62500   5.328   8.226   4.652 -0.5325  0.1479 -0.2914
  453MOL0     H62501   5.485   8.052   4.671 -0.4407 -0.0898  0.3212
  453MOL0     H62502   5.747   7.887   4.628  0.3113  3.7800 -1.4591
  453MOL0     H62503   5.580   7.867   4.617  0.7307 -2.4671 -0.4932
  453MOL0     H62504   5.789   7.725   4.449 -0.5767  1.8121  0.1211
  453MOL0     H62505   5.627   7.741   4.398 -0.5766 -0.9231 -0.0444
  453MOL0     H62506   5.554   7.608   4.605 -0.0506 -2.6202  1.0181
  453MOL0     H62507   5.654   7.516   4.491 -0.4041 -0.9728  2.0364
  453MOL0     H62508   5.853   7.529   4.632  0.8946  1.8054  0.7946
  453MOL0     H62509   5.717   7.466   4.700  1.0191 -1.7712 -0.9013
  453MOL0     H62510   5.709   7.830   4.933 -2.1052  0.4115  0.1594
  453MOL0     H62511   5.648   8.140   4.280 -1.0591 -2.5764 -1.3811
  453MOL0     H62512   5.547   8.346   4.158 -0.9768 -0.8691 -1.5912
  453MOL0     H62513   5.378   8.286   4.163  0.8976 -0.2196 -1.3825
  453MOL0     H62514   5.409   8.447   4.225 -3.3905 -0.6527  1.1919
  454MOL0     O62515  11.563   9.920   1.031  0.3710  0.3029 -0.2834
  454MOL0     C62516  11.498  10.025   1.051 -0.4765  0.7234  0.2124
  454MOL0     O62517  11.537  10.146   0.999  0.3057 -0.1732  1.2799
  454MOL0     C62518  11.666  10.170   0.982 -0.0089 -0.1416 -0.6853
  454MOL0     C62519  11.756  10.150   1.094 -0.2665 -0.9501  0.7210
  454MOL0     C62520  11.886  10.181   1.079  0.3414  0.9901 -0.1864
  454MOL0     C62521  11.918  10.263   0.968 -0.3732  0.1010 -0.4590
  454MOL0     O62522  12.048  10.290   0.968 -0.6648  0.5585  0.1832
  454MOL0     C62523  12.078  10.407   0.890 -0.2286 -0.2644 -0.7532
  454MOL0     C62524  12.197  10.484   0.938 -0.2336  0.0276 -0.6651
  454MOL0     C62525  12.315  10.392   0.971  0.2257  0.8048  0.2960
  454MOL0     C62526  12.431  10.475   1.028 -0.0054 -0.5601  0.0230
  454MOL0     C62527  12.546  10.376   1.051 -0.6104 -1.3073  1.1657
  454MOL0     C62528  12.666  10.456   1.098 -0.0476  0.2353  1.5536
  454MOL0     C62529  12.792  10.371   1.119  0.5977 -0.0088  0.1599
  454MOL0     C62530  12.799  10.299   1.253  0.0138  0.5699  0.5311
  454MOL0     N62531  12.935  10.230   1.279 -0.0225 -1.0717  0.4066
  454MOL0     C62532  13.015  10.186   1.174  0.0300 -0.5706 -0.3226
  454MOL0     C62533  13.123  10.138   1.251 -0.5029  0.9335 -0.4711
  454MOL0     C62534  13.239  10.062   1.192  0.7321 -0.1313  0.0053
  454MOL0     C62535  13.186   9.938   1.120 -0.3160  0.0687 -0.3658
  454MOL0     C62536  13.273   9.819   1.141 -0.4416 -0.4436 -0.7409
  454MOL0     C62537  13.207   9.698   1.062  1.2016 -0.8814 -0.5532
  454MOL0     O62538  13.307   9.592   1.063 -0.1978  0.1995 -0.4794
  454MOL0     C62539  13.414   9.601   0.972 -0.8355  0.5439  0.0373
  454MOL0     C62540  13.436   9.690   0.866  0.0087  0.4792  0.2846
  454MOL0     C62541  13.546   9.679   0.775 -0.1435  1.5473  0.1967
  454MOL0     C62542  13.549   9.763   0.658 -0.2712  0.0930 -0.1314
  454MOL0     C62543  13.644   9.579   0.792  0.9136  0.6400  0.4282
  454MOL0     C62544  13.746   9.544   0.684 -0.5834  0.5005  0.1551
  454MOL0     O62545  13.879   9.519   0.702  0.0644 -0.3987 -0.7584
  454MOL0     C62546  13.942   9.570   0.820  0.1879  0.6174  0.1570
  454MOL0     C62547  13.927   9.698   0.872 -0.4792 -0.1681 -0.1112
  454MOL0     C62548  14.010   9.744   0.979 -0.1738  0.7053  0.5028
  454MOL0     C62549  14.107   9.658   1.039  0.7058 -0.0101  1.1321
  454MOL0     O62550  14.198   9.692   1.138 -0.1997  0.7392  0.2935
  454MOL0     C62551  14.213   9.827   1.172 -0.3644 -0.6519  0.0283
  454MOL0     C62552  14.324   9.862   1.279  0.5849  0.7489 -0.2462
  454MOL0     C62553  14.327   9.760   1.401  0.0194  0.3033 -0.7217
  454MOL0     C62554  14.199   9.725   1.470 -0.4085  0.3120  0.9921
  454MOL0     C62555  14.206   9.649   1.599 -0.3723 -0.8427  0.4214
  454MOL0     C62556  14.073   9.593   1.656 -0.4571 -0.0518  0.6878
  454MOL0     C62557  14.091   9.497   1.763  0.1583 -0.2906 -0.3782
  454MOL0     C62558  14.150   9.357   1.732  1.0389 -1.3030 -0.9719
  454MOL0    Cl62559  14.018   9.269   1.635  0.4903  0.1392  0.7380
  454MOL0     C62560  14.101   9.522   1.003 -0.1610 -0.4428 -0.0349
  454MOL0     C62561  14.021   9.482   0.895 -0.9085  0.2882 -0.7557
  454MOL0     O62562  13.695   9.541   0.573 -0.0881  0.6252  0.9783
  454MOL0     C62563  13.633   9.498   0.907  0.1473 -1.0555  0.4494
  454MOL0     C62564  13.518   9.507   0.993 -0.1725 -0.5372  0.4883
  454MOL0     N62565  13.117  10.170   1.382  0.5641  0.3759 -0.0260
  454MOL0     N62566  12.999  10.234   1.394  0.1973  0.2385  0.0990
  454MOL0     C62567  11.832  10.290   0.858 -0.6212  0.4375 -0.7122
  454MOL0     C62568  11.706  10.239   0.866  0.2534 -0.7892  0.2605
  454MOL0     C62569  11.376  10.007   1.129  0.2413  0.3809 -0.2241
  454MOL0     C62570  11.326   9.877   1.141 -0.2847  0.0748 -0.0216
  454MOL0     C62571  11.210   9.865   1.211  0.3577  0.0111 -0.5731
  454MOL0     C62572  11.141   9.974   1.266  0.5565  0.0783 -1.0747
  454MOL0     O62573  11.044   9.947   1.357  0.6377  0.6882 -0.6633
  454MOL0     C62574  11.093   9.933   1.496  1.2035  0.5617  0.2837
  454MOL0     C62575  10.967   9.939   1.577 -0.2741 -0.2967 -0.4320
  454MOL0     C62576  10.888   9.804   1.558  1.7117 -0.7041 -0.1056
  454MOL0     C62577  10.769   9.796   1.647 -0.4948 -0.2328 -0.0369
  454MOL0     C62578  10.681   9.689   1.597  0.2784 -0.9471  0.4403
  454MOL0     C62579  10.600   9.606   1.577  0.3212  0.6103 -0.2272
  454MOL0     C62580  11.205  10.096   1.270  0.4503 -0.5452 -0.3670
  454MOL0     C62581  11.326  10.112   1.205 -0.7141 -0.3700  0.0281
  454MOL0     C62582  11.391  10.257   1.224  0.0262  0.4590  0.0054
  454MOL0     H62583  11.726  10.098   1.184  1.7765  0.8901  2.5887
  454MOL0     H62584  11.956  10.141   1.152  0.3125  2.5214  0.7255
  454MOL0     H62585  11.996  10.479   0.884  0.6406  0.6548 -2.2223
  454MOL0     H62586  12.097  10.384   0.785  0.5955  2.3913 -1.2647
  454MOL0     H62587  12.219  10.564   0.866 -0.3026  3.5930  2.9032
  454MOL0     H62588  12.158  10.539   1.024 -3.2001 -0.7153 -1.3979
  454MOL0     H62589  12.287  10.330   1.057  1.4097 -2.7132 -1.6584
  454MOL0     H62590  12.334  10.322   0.890 -4.0354  0.1053 -0.3541
  454MOL0     H62591  12.451  10.541   0.943  2.8227 -0.7746  0.4253
  454MOL0     H62592  12.409  10.529   1.121 -1.8017 -1.5557  0.2257
  454MOL0     H62593  12.568  10.315   0.963 -0.1091  0.3175  0.1162
  454MOL0     H62594  12.523  10.306   1.132  0.9094 -2.1546  0.9050
  454MOL0     H62595  12.676  10.533   1.022 -0.0241 -0.2387  1.0685
  454MOL0     H62596  12.654  10.512   1.191 -1.2844  1.1186  0.8961
  454MOL0     H62597  12.875  10.442   1.111 -2.9109  4.3791 -0.5843
  454MOL0     H62598  12.811  10.296   1.041  0.0929 -0.8764  0.8450
  454MOL0     H62599  12.796  10.379   1.328  2.5192 -1.4487  3.0267
  454MOL0     H62600  12.715  10.232   1.270  0.0578  0.3687 -0.0359
  454MOL0     H62601  13.016  10.180   1.066 -1.3336  0.4312 -0.4104
  454MOL0     H62602  13.303  10.035   1.277  1.2149  0.6489 -0.1024
  454MOL0     H62603  13.295  10.129   1.126  0.5570  0.2525  0.2419
  454MOL0     H62604  13.094   9.909   1.171  0.1692  3.2807  2.7390
  454MOL0     H62605  13.171   9.965   1.015  0.4277  0.6446 -0.3318
  454MOL0     H62606  13.381   9.834   1.135  0.1697 -0.1494  5.2814
  454MOL0     H62607  13.258   9.796   1.247  3.3061 -0.9534 -0.1885
  454MOL0     H62608  13.122   9.661   1.121  2.6758 -1.2243  1.4661
  454MOL0     H62609  13.174   9.713   0.959 -0.7404 -4.7972 -0.6884
  454MOL0     H62610  13.346   9.745   0.839  0.6103  1.0225 -0.6645
  454MOL0     H62611  13.653   9.795   0.644 -0.3304  0.4549  0.2212
  454MOL0     H62612  13.489   9.852   0.681 -0.2880 -0.0039  0.2141
  454MOL0     H62613  13.523   9.707   0.568 -0.4279 -3.1043  1.7418
  454MOL0     H62614  13.860   9.767   0.821 -0.0021  2.3352  2.3805
  454MOL0     H62615  14.001   9.850   0.999  2.0006  0.9988  0.1259
  454MOL0     H62616  14.244   9.876   1.079 -1.9136  1.4004  0.5210
  454MOL0     H62617  14.120   9.868   1.214  1.5497  1.5852  2.4450
  454MOL0     H62618  14.423   9.846   1.235  1.9070  0.2363  2.6745
  454MOL0     H62619  14.299   9.964   1.307  0.5923  0.9845 -1.0804
  454MOL0     H62620  14.387   9.805   1.481  3.5587 -0.4686 -2.7189
  454MOL0     H62621  14.377   9.669   1.367 -1.1069 -0.3558 -0.6642
  454MOL0     H62622  14.150   9.659   1.398  0.1447  2.3990 -1.4665
  454MOL0     H62623  14.139   9.815   1.483  0.4533  0.4778  5.2459
  454MOL0     H62624  14.276   9.568   1.583  2.3623  1.5128 -0.4007
  454MOL0     H62625  14.238   9.726   1.670 -1.2545  1.2186 -1.2955
  454MOL0     H62626  14.012   9.532   1.587  0.6722 -2.7700  1.9431
  454MOL0     H62627  14.005   9.669   1.695  1.1323  2.5645 -1.3287
  454MOL0     H62628  14.000   9.467   1.816  1.1890 -3.3050 -0.1572
  454MOL0     H62629  14.155   9.541   1.841 -1.6646  0.2183  0.8943
  454MOL0     H62630  14.164   9.302   1.825  0.3447 -0.7883 -0.5571
  454MOL0     H62631  14.249   9.366   1.684  0.1441 -2.5984 -3.2307
  454MOL0     H62632  14.178   9.457   1.045  2.5169  1.6640 -1.3701
  454MOL0     H62633  14.014   9.375   0.874 -1.9144  0.1816  0.0495
  454MOL0     H62634  13.695   9.412   0.932  1.2572  0.0323  1.6425
  454MOL0     H62635  13.499   9.426   1.063 -0.4063  0.5244  1.6835
  454MOL0     H62636  11.867  10.340   0.768 -0.6806 -1.5604 -1.9281
  454MOL0     H62637  11.632  10.262   0.789  0.2894 -0.0292  0.4503
  454MOL0     H62638  11.375   9.792   1.094  1.3679  0.5251  0.7959
  454MOL0     H62639  11.178   9.764   1.233  2.1511 -0.5394 -0.3531
  454MOL0     H62640  11.162   9.848   1.503  0.2010 -0.2274  0.8467
  454MOL0     H62641  11.155  10.022   1.515  3.2480 -0.7214 -0.0411
  454MOL0     H62642  10.909  10.029   1.555 -0.4279  0.5546  2.8706
  454MOL0     H62643  10.972   9.952   1.685 -1.9937  4.1662 -0.6871
  454MOL0     H62644  10.841   9.798   1.459  3.9653 -0.3404 -1.2536
  454MOL0     H62645  10.961   9.724   1.570  3.0389  0.1811 -1.7224
  454MOL0     H62646  10.718   9.893   1.647  2.0911  1.2243  0.8644
  454MOL0     H62647  10.800   9.775   1.749  0.1107 -3.2480 -0.7444
  454MOL0     H62648  10.529   9.526   1.570 -2.7003  3.2709 -3.5438
  454MOL0     H62649  11.151  10.168   1.329  0.2646  0.5625 -1.8183
  454MOL0     H62650  11.333  10.295   1.309 -3.7147 -1.4889 -1.4483
  454MOL0     H62651  11.499  10.259   1.239 -0.0533 -2.4887  1.7504
  454MOL0     H62652  11.362  10.315   1.135  4.1796  2.4124 -0.2752
  455MOL0     O62653   7.643   2.550   7.571  0.2954 -0.5339 -0.1190
  455MOL0     C62654   7.701   2.529   7.678 -0.6203  0.1876 -0.2048
  455MOL0     O62655   7.660   2.571   7.804  0.3168 -0.3758 -0.8818
  455MOL0     C62656   7.545   2.640   7.800 -0.6259  0.0031  0.2154
  455MOL0     C62657   7.418   2.583   7.801  0.7212  1.1214  0.3593
  455MOL0     C62658   7.305   2.666   7.810 -0.3180 -0.9941 -0.3753
  455MOL0     C62659   7.324   2.807   7.809 -0.3986 -0.0405  0.1026
  455MOL0     O62660   7.217   2.884   7.832 -0.2661 -1.2010  0.9763
  455MOL0     C62661   7.235   3.017   7.893  0.0939  0.5651  0.1914
  455MOL0     C62662   7.098   3.080   7.874  0.4034  1.0197 -0.0581
  455MOL0     C62663   7.000   3.033   7.979 -0.3004  0.2997  0.6561
  455MOL0     C62664   6.856   3.083   7.940 -0.5375  0.0325 -0.1090
  455MOL0     C62665   6.749   3.037   8.037 -0.2230  0.0142  0.1706
  455MOL0     C62666   6.630   3.111   7.985 -0.5787 -0.0932  0.1345
  455MOL0     C62667   6.501   3.074   8.056  0.6918  0.6520  0.4547
  455MOL0     C62668   6.391   3.181   8.031 -0.4794  0.0094 -0.2444
  455MOL0     N62669   6.425   3.324   8.059  0.7092  0.9051 -0.0445
  455MOL0     C62670   6.400   3.425   7.974  1.5066 -0.5084 -0.0364
  455MOL0     C62671   6.408   3.542   8.054  0.5598 -0.1169  0.7955
  455MOL0     C62672   6.372   3.682   8.010  0.8172 -0.6816  0.2925
  455MOL0     C62673   6.236   3.684   7.959  0.1903 -0.4655  0.6416
  455MOL0     C62674   6.191   3.831   7.934 -0.6634  0.3277  0.1230
  455MOL0     C62675   6.055   3.833   7.865 -0.0638  1.0062 -0.3891
  455MOL0     O62676   5.991   3.957   7.863  0.5346 -0.3713  0.0598
  455MOL0     C62677   6.030   4.049   7.755 -0.4343  0.3924  0.3796
  455MOL0     C62678   6.002   4.182   7.786 -0.7097 -0.0842 -0.0550
  455MOL0     C62679   6.053   4.285   7.701  0.7996  0.3378 -1.4309
  455MOL0     C62680   5.981   4.417   7.739 -1.4738 -0.1091  0.0533
  455MOL0     C62681   6.138   4.261   7.594 -1.0160  1.2556  0.0273
  455MOL0     C62682   6.180   4.364   7.496 -0.2375  0.1607 -1.0062
  455MOL0     O62683   6.124   4.486   7.503  0.5174 -0.0011 -0.0655
  455MOL0     C62684   6.159   4.575   7.409  0.4109 -0.2880 -0.0726
  455MOL0     C62685   6.084   4.580   7.291 -0.5820 -0.5907  0.3160
  455MOL0     C62686   6.102   4.683   7.201  0.4764  0.6965  0.5896
  455MOL0     C62687   6.204   4.777   7.225  0.2380 -0.3285  0.5600
  455MOL0     O62688   6.235   4.880   7.132 -0.3761 -0.1686 -0.3408
  455MOL0     C62689   6.348   4.974   7.153  1.0131 -0.4285  0.2263
  455MOL0     C62690   6.362   5.066   7.032 -0.5492  0.0050 -0.4371
  455MOL0     C62691   6.483   5.162   7.048  0.2225 -0.7806 -0.7306
  455MOL0     C62692   6.622   5.093   7.039 -0.1878 -0.7429  1.9109
  455MOL0     C62693   6.741   5.193   7.032 -0.1413  1.4268 -0.9542
  455MOL0     C62694   6.868   5.120   7.072 -1.2691  0.6295  0.2536
  455MOL0     C62695   6.918   5.021   6.961  0.2204 -0.7290 -0.1075
  455MOL0     C62696   7.068   5.008   6.979 -0.2486  0.5157 -0.6876
  455MOL0    Cl62697   7.120   4.925   7.136 -0.6331 -0.3767  0.4054
  455MOL0     C62698   6.291   4.760   7.333 -0.0144 -0.2264 -0.0440
  455MOL0     C62699   6.270   4.660   7.432 -0.2259 -1.0766  0.2665
  455MOL0     O62700   6.269   4.330   7.413 -0.3238 -0.0829 -0.7248
  455MOL0     C62701   6.169   4.128   7.573  0.0598 -0.5719  0.8346
  455MOL0     C62702   6.126   4.025   7.657 -0.2297  0.2636  0.8515
  455MOL0     N62703   6.438   3.499   8.186 -0.7798  0.4761 -0.1159
  455MOL0     N62704   6.454   3.368   8.183  1.4320  0.3085 -0.4196
  455MOL0     C62705   7.451   2.857   7.805  0.3366 -0.1418  0.4742
  455MOL0     C62706   7.556   2.776   7.789 -0.4316 -0.2152 -0.2638
  455MOL0     C62707   7.817   2.438   7.664 -1.0052  0.7410 -0.0476
  455MOL0     C62708   7.864   2.401   7.534 -0.2581 -0.7382 -0.3923
  455MOL0     C62709   7.956   2.307   7.520 -0.4951  0.4500 -0.5120
  455MOL0     C62710   8.000   2.236   7.635 -0.1112 -0.2200 -0.5575
  455MOL0     O62711   8.097   2.134   7.633 -0.6311  0.3229  0.5287
  455MOL0     C62712   8.114   2.065   7.511 -0.1116  0.4698  0.1879
  455MOL0     C62713   8.223   1.962   7.513  0.4880  0.2124 -0.7687
  455MOL0     C62714   8.248   1.908   7.371 -0.9652  0.2986 -0.5433
  455MOL0     C62715   8.229   1.757   7.365 -0.3166  0.7096  0.6426
  455MOL0     C62716   8.198   1.704   7.228 -1.0621  0.0897 -0.6356
  455MOL0     C62717   8.159   1.657   7.124  0.4763  0.0671 -0.0427
  455MOL0     C62718   7.949   2.260   7.759  0.4821 -0.3118 -0.3413
  455MOL0     C62719   7.873   2.373   7.783 -0.4049  0.0124 -0.5353
  455MOL0     C62720   7.835   2.392   7.928 -0.8365 -0.1226 -0.5383
  455MOL0     H62721   7.412   2.475   7.811  3.0250  0.5246 -3.1566
  455MOL0     H62722   7.208   2.618   7.809 -2.1577  2.3419  1.3278
  455MOL0     H62723   7.301   3.066   7.821 -0.8717  0.5250 -0.7548
  455MOL0     H62724   7.263   3.017   7.999  2.2367  1.2595 -0.3259
  455MOL0     H62725   7.102   3.189   7.876  0.5996  1.0197  2.5723
  455MOL0     H62726   7.056   3.054   7.776  0.2454  3.2686 -0.6263
  455MOL0     H62727   7.006   2.924   7.976 -0.7597  0.2289  1.9090
  455MOL0     H62728   7.024   3.065   8.081  0.6835  0.9211  0.2438
  455MOL0     H62729   6.872   3.191   7.935  1.0450 -0.2232 -1.4387
  455MOL0     H62730   6.821   3.049   7.842 -1.7707 -1.4874  0.8043
  455MOL0     H62731   6.781   3.074   8.135  2.7616 -0.3955 -0.5518
  455MOL0     H62732   6.734   2.929   8.038 -1.5651  0.0814 -2.5505
  455MOL0     H62733   6.640   3.220   7.982 -1.0750 -0.0484 -3.0390
  455MOL0     H62734   6.625   3.086   7.879  1.0017  1.5987 -0.4147
  455MOL0     H62735   6.527   3.052   8.160  0.5052 -2.7270 -0.1010
  455MOL0     H62736   6.475   2.984   8.000  2.7642  0.5340 -0.3951
  455MOL0     H62737   6.342   3.178   7.933 -0.4482  2.1523 -0.3705
  455MOL0     H62738   6.311   3.158   8.102 -2.2503 -3.1442 -2.9537
  455MOL0     H62739   6.370   3.414   7.871  2.7627 -0.8570 -0.3855
  455MOL0     H62740   6.441   3.712   7.930 -0.6683  2.9106  0.2031
  455MOL0     H62741   6.396   3.754   8.088 -0.1937 -0.3958  0.3505
  455MOL0     H62742   6.233   3.625   7.867  0.6417  0.6615 -0.1081
  455MOL0     H62743   6.171   3.632   8.030  0.8920  1.5233  2.8822
  455MOL0     H62744   6.181   3.885   8.029 -1.9076 -1.8720  1.3294
  455MOL0     H62745   6.263   3.885   7.872 -1.1221  0.7646 -0.0291
  455MOL0     H62746   6.062   3.783   7.768  2.6685 -4.8195  2.3485
  455MOL0     H62747   5.998   3.773   7.936  0.6431 -0.4439 -1.0096
  455MOL0     H62748   5.927   4.199   7.864 -0.7346  0.0533 -0.1086
  455MOL0     H62749   6.065   4.487   7.742 -0.4836 -1.2847  2.0592
  455MOL0     H62750   5.936   4.423   7.839 -0.1423 -0.6288  0.7078
  455MOL0     H62751   5.907   4.441   7.662 -1.8389  1.9089  0.9497
  455MOL0     H62752   6.009   4.506   7.267 -0.4189 -0.6634  0.0321
  455MOL0     H62753   6.043   4.694   7.111 -1.6247  3.2713  2.1330
  455MOL0     H62754   6.335   5.028   7.248 -0.3269  1.0859 -0.7634
  455MOL0     H62755   6.445   4.923   7.158  1.1132 -0.1840  1.0594
  455MOL0     H62756   6.372   5.013   6.937 -0.5605 -3.0463  1.1576
  455MOL0     H62757   6.275   5.132   7.022  1.4139  2.6547 -1.1499
  455MOL0     H62758   6.480   5.208   7.148 -1.5228  0.5914 -1.3555
  455MOL0     H62759   6.474   5.236   6.968 -3.0900 -0.7264 -0.4222
  455MOL0     H62760   6.606   5.056   6.938 -0.6455  1.0758  1.2735
  455MOL0     H62761   6.641   5.021   7.119 -0.7332  1.3429  4.0654
  455MOL0     H62762   6.743   5.241   6.934  1.7226 -1.3173 -2.4030
  455MOL0     H62763   6.727   5.267   7.111 -0.5074  1.6242 -1.2030
  455MOL0     H62764   6.867   5.076   7.172  1.5168  2.1584  1.0570
  455MOL0     H62765   6.940   5.198   7.099 -0.4618 -0.2907  0.8220
  455MOL0     H62766   6.906   5.076   6.867  0.9872 -1.9600 -0.9499
  455MOL0     H62767   6.863   4.928   6.971  0.6946 -0.8472  1.8894
  455MOL0     H62768   7.117   5.107   6.973 -3.3244  2.0703 -2.3429
  455MOL0     H62769   7.104   4.945   6.897  0.6256 -0.6343  0.5283
  455MOL0     H62770   6.368   4.832   7.359 -0.8391  1.3103 -1.6577
  455MOL0     H62771   6.330   4.634   7.518  0.8531  2.0096  0.5571
  455MOL0     H62772   6.234   4.099   7.491  1.4943  0.2512  1.6443
  455MOL0     H62773   6.153   3.925   7.625  3.1755  1.7707 -1.6232
  455MOL0     H62774   7.469   2.964   7.806 -0.4709  0.2340 -3.8429
  455MOL0     H62775   7.649   2.829   7.803 -1.8251  2.4580 -0.4698
  455MOL0     H62776   7.815   2.443   7.447  0.1421  2.8396  0.9769
  455MOL0     H62777   7.999   2.295   7.421  3.4356  0.4371  1.0246
  455MOL0     H62778   8.026   2.008   7.480  1.3555 -0.7877 -1.8982
  455MOL0     H62779   8.128   2.135   7.428 -1.8477  0.1615 -0.4233
  455MOL0     H62780   8.216   1.885   7.590  4.8418 -3.7793 -3.8685
  455MOL0     H62781   8.309   2.018   7.550 -1.2127  0.6865  3.0083
  455MOL0     H62782   8.182   1.958   7.299 -1.7840 -0.7043 -0.5053
  455MOL0     H62783   8.354   1.928   7.353 -0.9504 -1.3911 -2.7082
  455MOL0     H62784   8.141   1.735   7.426 -1.7000 -1.7293 -1.9268
  455MOL0     H62785   8.316   1.710   7.412 -2.4999 -0.0240  4.3040
  455MOL0     H62786   8.113   1.627   7.032  0.6207  2.2895 -0.8954
  455MOL0     H62787   7.973   2.202   7.848  0.2417  2.0328  1.3633
  455MOL0     H62788   7.731   2.358   7.933 -0.4289 -1.4249 -0.5245
  455MOL0     H62789   7.898   2.328   7.990 -2.7988 -2.9023 -1.1813
  455MOL0     H62790   7.846   2.497   7.955  1.7372 -0.6411  0.6955
  456MOL0     O62791   8.692  11.366   1.141 -0.1217  0.8914  0.9679
  456MOL0     C62792   8.702  11.460   1.065  1.0558  0.2863  0.0571
  456MOL0     O62793   8.817  11.499   1.004  0.2501  0.0928  0.9640
  456MOL0     C62794   8.920  11.408   0.992 -0.8964 -0.0548 -0.4662
  456MOL0     C62795   9.045  11.464   1.030  0.4206 -0.0915  0.3809
  456MOL0     C62796   9.163  11.395   1.017  0.9961  0.0975 -0.7491
  456MOL0     C62797   9.159  11.260   0.987  0.0119 -0.4299 -0.2705
  456MOL0     O62798   9.278  11.195   0.980  0.8633  0.7393 -0.3720
  456MOL0     C62799   9.334  11.205   0.849 -0.3844 -0.0640  1.0970
  456MOL0     C62800   9.426  11.086   0.824  0.6929 -0.3343 -0.5094
  456MOL0     C62801   9.331  10.966   0.766 -0.7669  0.4569  0.2641
  456MOL0     C62802   9.421  10.843   0.730 -0.2854  0.0852  0.6302
  456MOL0     C62803   9.347  10.753   0.627 -0.5198 -0.6241 -0.4951
  456MOL0     C62804   9.427  10.624   0.627 -0.5452  0.9744  0.3615
  456MOL0     C62805   9.357  10.520   0.530 -0.8705 -0.3811 -0.3396
  456MOL0     C62806   9.398  10.549   0.386  0.1913 -0.8933  0.3216
  456MOL0     N62807   9.295  10.508   0.302 -0.2334  0.7272  0.3199
  456MOL0     C62808   9.235  10.388   0.313  0.2497  0.4453  0.3028
  456MOL0     C62809   9.135  10.387   0.222  0.8444 -1.0753  0.9613
  456MOL0     C62810   9.050  10.266   0.213 -0.2657  0.5545  0.5181
  456MOL0     C62811   9.055  10.214   0.075  0.4321  0.7144  0.6330
  456MOL0     C62812   8.975  10.297  -0.027  0.6886 -0.3851  0.7028
  456MOL0     C62813   8.961  10.234  -0.159 -0.8202  0.3538  0.3954
  456MOL0     O62814   9.080  10.199  -0.224  0.2675  0.6416  0.3464
  456MOL0     C62815   9.080  10.125  -0.333 -0.8142  0.2281 -1.0899
  456MOL0     C62816   9.187  10.119  -0.413  0.3224  0.1366  0.2759
  456MOL0     C62817   9.192  10.059  -0.540  0.5253 -0.6921  0.7614
  456MOL0     C62818   9.323  10.066  -0.613 -0.5862  0.1922  0.3226
  456MOL0     C62819   9.079   9.998  -0.594  0.0334  0.7864 -1.2275
  456MOL0     C62820   9.071   9.937  -0.728  0.2086  0.2767  0.1903
  456MOL0     O62821   8.944   9.896  -0.778  0.1620 -0.3724  0.3895
  456MOL0     C62822   8.939   9.855  -0.910 -0.2771 -0.0934 -0.0649
  456MOL0     C62823   8.918   9.724  -0.936  1.0550 -0.1728  0.4813
  456MOL0     C62824   8.915   9.676  -1.066  0.4121 -0.8935 -0.1458
  456MOL0     C62825   8.940   9.764  -1.173  0.6142  0.4928  0.5661
  456MOL0     O62826   8.926   9.719  -1.307 -0.0685  0.5630  0.7571
  456MOL0     C62827   8.812   9.644  -1.338 -0.5280 -0.3067 -0.6538
  456MOL0     C62828   8.693   9.736  -1.374 -0.4399  0.3241 -0.7277
  456MOL0     C62829   8.717   9.832  -1.494 -0.2366  0.2942 -0.5042
  456MOL0     C62830   8.603   9.939  -1.506  0.4267 -1.5140 -0.2104
  456MOL0     C62831   8.623  10.029  -1.622  0.8311 -0.5349 -0.0359
  456MOL0     C62832   8.735  10.125  -1.582  0.2421 -0.3541 -0.3989
  456MOL0     C62833   8.697  10.242  -1.479  0.3392 -0.1568 -1.4088
  456MOL0     C62834   8.762  10.371  -1.517 -0.5031  0.2989  0.5961
  456MOL0    Cl62835   8.942  10.351  -1.509 -0.0674 -0.1419 -0.1977
  456MOL0     C62836   8.963   9.897  -1.145  0.8600 -1.7105  0.6965
  456MOL0     C62837   8.964   9.946  -1.011  0.5429 -0.8105  0.5396
  456MOL0     O62838   9.170   9.915  -0.792 -0.5737  0.4681  0.8262
  456MOL0     C62839   8.965   9.989  -0.508  0.7806  0.1608  1.0319
  456MOL0     C62840   8.971  10.052  -0.384  0.4481  0.8079 -0.0247
  456MOL0     N62841   9.130  10.505   0.157  0.3158 -0.0834  0.7010
  456MOL0     N62842   9.230  10.573   0.200  0.8162  0.3465 -0.1450
  456MOL0     C62843   9.038  11.208   0.941  0.1233 -0.2716  0.4801
  456MOL0     C62844   8.913  11.281   0.946  0.1427 -0.0428 -0.0839
  456MOL0     C62845   8.577  11.550   1.047  0.1848  0.2314  0.5266
  456MOL0     C62846   8.589  11.663   0.971  0.4967 -0.7894  0.9108
  456MOL0     C62847   8.471  11.751   0.947  0.2462  0.1625 -0.2601
  456MOL0     C62848   8.345  11.712   1.006 -0.1615  0.1568  0.1789
  456MOL0     O62849   8.223  11.782   0.994  0.7211  0.0996 -1.0318
  456MOL0     C62850   8.225  11.923   0.973 -0.0859  0.1831  0.6404
  456MOL0     C62851   8.086  11.978   0.994 -0.3899  0.2958  0.7524
  456MOL0     C62852   7.977  11.937   0.899  1.1879  0.1284  0.8005
  456MOL0     C62853   7.847  12.019   0.944 -1.0012 -0.1192 -0.6340
  456MOL0     C62854   7.726  11.990   0.872 -0.4977  0.0267 -0.3264
  456MOL0     C62855   7.626  11.975   0.805  0.1552  0.6943  0.3074
  456MOL0     C62856   8.334  11.587   1.077 -0.3676  1.0053  0.4893
  456MOL0     C62857   8.449  11.507   1.098 -0.0757 -0.1006 -0.3272
  456MOL0     C62858   8.415  11.382   1.170 -0.2099 -0.8046 -0.9824
  456MOL0     H62859   9.054  11.564   1.071  0.5549  0.9638 -2.0808
  456MOL0     H62860   9.254  11.446   1.049 -0.3905  0.6222  2.7986
  456MOL0     H62861   9.396  11.295   0.846 -0.3225 -0.0572  2.2099
  456MOL0     H62862   9.259  11.211   0.769  0.8507  0.1373 -0.0956
  456MOL0     H62863   9.504  11.122   0.757 -1.7906  3.7721 -1.5984
  456MOL0     H62864   9.478  11.048   0.912 -0.0008  0.2866  0.1880
  456MOL0     H62865   9.253  10.943   0.840  2.6004 -0.8272  3.7478
  456MOL0     H62866   9.288  11.002   0.672  1.7264  0.3481 -0.9948
  456MOL0     H62867   9.509  10.882   0.678 -2.7915  1.8776 -2.6254
  456MOL0     H62868   9.439  10.793   0.826 -4.7261  0.2782  1.7621
  456MOL0     H62869   9.338  10.804   0.530 -1.6179  4.0218  1.7553
  456MOL0     H62870   9.249  10.735   0.672 -0.0332 -0.6699  0.5669
  456MOL0     H62871   9.531  10.637   0.598  0.0056 -1.1156  1.1724
  456MOL0     H62872   9.434  10.586   0.730  0.3329 -1.7838 -0.6388
  456MOL0     H62873   9.249  10.529   0.547 -0.8905 -0.4260 -0.4452
  456MOL0     H62874   9.396  10.419   0.545  2.7806  1.1394  1.5902
  456MOL0     H62875   9.416  10.656   0.377 -2.4337 -0.4628 -0.4029
  456MOL0     H62876   9.492  10.498   0.364  0.1543 -1.3526  1.1589
  456MOL0     H62877   9.259  10.319   0.393  3.1617  3.3063  2.1171
  456MOL0     H62878   8.950  10.287   0.252 -0.4843 -0.0235  0.2747
  456MOL0     H62879   9.091  10.190   0.281 -1.9494 -0.6836  0.2231
  456MOL0     H62880   9.162  10.200   0.053  0.3234 -0.3143  0.6823
  456MOL0     H62881   9.029  10.108   0.070 -0.9936  1.0982 -0.9631
  456MOL0     H62882   8.873  10.314   0.007  1.2646  0.9366  1.8281
  456MOL0     H62883   9.006  10.401  -0.034 -1.5506  0.2615 -1.2108
  456MOL0     H62884   8.904  10.142  -0.142  0.0174 -0.2315  0.0890
  456MOL0     H62885   8.902  10.293  -0.230 -0.2736  0.1313 -0.2557
  456MOL0     H62886   9.274  10.177  -0.385 -0.5098  2.6167 -1.8737
  456MOL0     H62887   9.384  10.146  -0.571 -0.6016 -0.3782  1.4718
  456MOL0     H62888   9.304  10.107  -0.712  0.1554  0.3042  0.2175
  456MOL0     H62889   9.375   9.969  -0.611 -0.4492  0.2681  0.5940
  456MOL0     H62890   8.899   9.646  -0.863  0.0436  0.3118  0.7634
  456MOL0     H62891   8.912   9.569  -1.082 -0.7520 -1.3789  2.7045
  456MOL0     H62892   8.842   9.584  -1.424  2.0472 -2.4744  1.5825
  456MOL0     H62893   8.781   9.568  -1.266 -2.0016 -1.6740 -2.6346
  456MOL0     H62894   8.603   9.677  -1.396  0.4578 -1.1085 -0.6910
  456MOL0     H62895   8.674   9.793  -1.283 -1.5502  0.3570 -0.9622
  456MOL0     H62896   8.729   9.780  -1.589 -2.4438  0.1470 -0.7588
  456MOL0     H62897   8.812   9.885  -1.480 -0.6287  1.1996 -1.2182
  456MOL0     H62898   8.604   9.991  -1.409  1.4794 -0.1810 -0.8992
  456MOL0     H62899   8.506   9.892  -1.522 -0.0591 -0.2816 -1.0275
  456MOL0     H62900   8.645   9.968  -1.711  1.2157 -1.2381  0.5355
  456MOL0     H62901   8.532  10.085  -1.646 -0.8590 -1.9560  2.5461
  456MOL0     H62902   8.766  10.181  -1.671  1.8687  0.8816  0.8695
  456MOL0     H62903   8.822  10.067  -1.550  1.3262  1.3097 -0.1601
  456MOL0     H62904   8.732  10.209  -1.381 -3.1165  1.3318  0.5069
  456MOL0     H62905   8.589  10.251  -1.465  0.7467 -1.0593  5.1685
  456MOL0     H62906   8.739  10.449  -1.444 -2.1317 -1.5647  2.1903
  456MOL0     H62907   8.735  10.400  -1.619 -3.0330  1.1571  1.4102
  456MOL0     H62908   8.977   9.965  -1.228 -3.9483 -1.6130 -0.3469
  456MOL0     H62909   8.977  10.050  -0.983 -2.4953 -0.3392  0.4568
  456MOL0     H62910   8.872   9.943  -0.539  0.6470  1.1805 -0.1664
  456MOL0     H62911   8.877  10.035  -0.333  1.5956 -2.1683  1.3451
  456MOL0     H62912   9.031  11.103   0.914  2.3892 -0.0027 -1.5194
  456MOL0     H62913   8.817  11.234   0.927  0.4461 -0.8758  0.3918
  456MOL0     H62914   8.677  11.692   0.915  0.9739 -3.1430  0.3461
  456MOL0     H62915   8.489  11.842   0.890 -2.8722 -0.5548 -2.6886
  456MOL0     H62916   8.291  11.967   1.049  2.8957 -2.2464 -0.3031
  456MOL0     H62917   8.259  11.944   0.871 -1.0124  0.1350  0.3171
  456MOL0     H62918   8.104  12.085   0.990  2.8385 -0.1882 -2.2873
  456MOL0     H62919   8.050  11.936   1.089  0.8221 -1.8172  0.3502
  456MOL0     H62920   8.016  11.961   0.799  0.5648  1.3551  0.8394
  456MOL0     H62921   7.951  11.830   0.899  4.4709 -0.7807  1.7322
  456MOL0     H62922   7.873  12.124   0.923  0.6973 -0.1200  1.1569
  456MOL0     H62923   7.826  12.021   1.051 -1.9778  1.0993 -0.8294
  456MOL0     H62924   7.532  11.949   0.760 -1.3401  2.5298  2.1557
  456MOL0     H62925   8.241  11.548   1.116  0.1260 -1.9531 -1.0332
  456MOL0     H62926   8.463  11.299   1.118  1.9002 -0.7412  0.7197
  456MOL0     H62927   8.465  11.396   1.267 -1.4731  0.4921 -0.4674
  456MOL0     H62928   8.310  11.361   1.192 -0.1766  0.1277  0.2183
  457MOL0     O62929   0.679   6.856  10.632  0.1066  0.0932 -0.6046
  457MOL0     C62930   0.772   6.779  10.603  1.0372 -0.1043  0.0350
  457MOL0     O62931   0.767   6.673  10.514 -0.2277 -0.2401 -0.3431
  457MOL0     C62932   0.652   6.617  10.466 -0.2733 -0.4673  1.0843
  457MOL0     C62933   0.603   6.664  10.347  0.3652 -0.4296  0.2304
  457MOL0     C62934   0.512   6.581  10.276 -0.4858  0.0256 -0.3738
  457MOL0     C62935   0.473   6.459  10.318 -0.0061  0.1660 -0.1485
  457MOL0     O62936   0.377   6.378  10.248  0.2913 -0.3980 -0.6735
  457MOL0     C62937   0.238   6.419  10.267  0.6836  0.6601  0.0706
  457MOL0     C62938   0.174   6.487  10.147  0.5441 -0.1539  0.1255
  457MOL0     C62939   0.160   6.392  10.028  0.0160  0.0828  0.4332
  457MOL0     C62940   0.283   6.399   9.930 -0.9932  0.0986 -0.4658
  457MOL0     C62941   0.286   6.273   9.848 -0.5789 -0.2152  0.3899
  457MOL0     C62942   0.407   6.243   9.756 -1.3824 -0.5345 -0.0471
  457MOL0     C62943   0.364   6.173   9.613  0.8495  0.6397 -1.0555
  457MOL0     C62944   0.250   6.221   9.517  0.4462 -0.4732 -0.8882
  457MOL0     N62945   0.253   6.374   9.499 -0.4955 -0.3572 -0.0233
  457MOL0     C62946   0.369   6.451   9.505  0.5890 -0.2228  0.3642
  457MOL0     C62947   0.312   6.578   9.494  0.0258 -1.0894  0.0198
  457MOL0     C62948   0.393   6.706   9.505  0.2349  0.6976 -0.1545
  457MOL0     C62949   0.402   6.782   9.374 -0.5185  0.1302 -0.5222
  457MOL0     C62950   0.264   6.835   9.333 -0.0287  0.2849  0.3821
  457MOL0     C62951   0.267   6.972   9.259 -0.6893  0.1859 -0.1914
  457MOL0     O62952   0.362   6.955   9.146 -0.3092  0.9928  0.2908
  457MOL0     C62953   0.384   7.081   9.086 -0.4460  0.9852 -0.2120
  457MOL0     C62954   0.500   7.091   9.019  1.1748  0.5697  0.0566
  457MOL0     C62955   0.540   7.195   8.945 -0.0037 -1.2105 -0.6167
  457MOL0     C62956   0.686   7.187   8.895  0.2325 -0.5108  0.2870
  457MOL0     C62957   0.454   7.307   8.926  0.1423  0.5076  0.1863
  457MOL0     C62958   0.486   7.430   8.844  0.9036 -0.0544  0.1343
  457MOL0     O62959   0.402   7.535   8.849 -0.5305 -0.3229 -0.5725
  457MOL0     C62960   0.447   7.659   8.804 -0.2993 -0.0985 -0.0689
  457MOL0     C62961   0.349   7.734   8.753  0.3769  0.0310  0.1324
  457MOL0     C62962   0.392   7.865   8.705  0.3320  0.1437 -0.7349
  457MOL0     C62963   0.518   7.913   8.728 -0.0643 -0.0171 -0.4192
  457MOL0     O62964   0.549   8.042   8.690 -0.3937 -0.6125 -0.5807
  457MOL0     C62965   0.563   8.132   8.804 -0.2819  0.1808  0.0543
  457MOL0     C62966   0.702   8.202   8.784 -0.2215  0.5130 -1.0952
  457MOL0     C62967   0.699   8.320   8.688  0.3681 -0.5084  0.5259
  457MOL0     C62968   0.576   8.424   8.694 -0.9716  0.5010 -1.1086
  457MOL0     C62969   0.602   8.539   8.595 -0.1570 -0.0842  0.0394
  457MOL0     C62970   0.501   8.657   8.619 -0.0934  0.1256 -0.2605
  457MOL0     C62971   0.512   8.763   8.505 -0.0356 -0.2763  0.2592
  457MOL0     C62972   0.623   8.864   8.527  0.3611 -0.2794  0.1529
  457MOL0    Cl62973   0.645   8.965   8.387  0.2056  0.0005  0.0059
  457MOL0     C62974   0.614   7.834   8.796 -0.1876  0.9048 -1.0292
  457MOL0     C62975   0.573   7.706   8.840 -0.1171 -0.4061  0.5385
  457MOL0     O62976   0.601   7.428   8.789 -0.3010 -0.2815 -0.2492
  457MOL0     C62977   0.326   7.293   8.994 -1.6647  0.3638  0.3569
  457MOL0     C62978   0.290   7.177   9.066 -0.5459  0.0842 -0.0364
  457MOL0     N62979   0.177   6.573   9.464  0.4591  0.2181  0.1021
  457MOL0     N62980   0.137   6.453   9.487 -0.3270  0.1479  0.3595
  457MOL0     C62981   0.515   6.425  10.449  0.1066  0.4681 -0.1727
  457MOL0     C62982   0.598   6.508  10.524 -0.0562  0.5093 -0.5231
  457MOL0     C62983   0.897   6.816  10.664 -0.6240  0.6531 -0.6232
  457MOL0     C62984   0.969   6.708  10.717  0.4330 -0.0320  0.4505
  457MOL0     C62985   1.086   6.725  10.794 -0.5454  0.6805  0.4252
  457MOL0     C62986   1.138   6.856  10.811 -1.5597  0.2132 -0.9888
  457MOL0     O62987   1.252   6.893  10.880  0.1517  0.2600  0.6559
  457MOL0     C62988   1.338   6.788  10.929  0.5844  0.2698 -0.4086
  457MOL0     C62989   1.435   6.843  11.032  0.4950 -0.4476 -0.7506
  457MOL0     C62990   1.523   6.953  10.975 -0.2893 -1.0725  0.1340
  457MOL0     C62991   1.623   6.994  11.077  0.5925  0.2538 -0.5985
  457MOL0     C62992   1.707   6.881  11.106  0.5747  0.6255  0.1276
  457MOL0     C62993   1.784   6.788  11.118 -0.5258 -0.4601 -0.0208
  457MOL0     C62994   1.056   6.966  10.775 -0.3214  0.0473 -0.2589
  457MOL0     C62995   0.943   6.945  10.697 -0.0216  1.0371 -0.4552
  457MOL0     C62996   0.884   7.072  10.649 -0.8842  0.4229 -0.6030
  457MOL0     H62997   0.641   6.755  10.301  0.3798 -1.2138 -1.3762
  457MOL0     H62998   0.470   6.621  10.184  0.6326  3.7977  0.5895
  457MOL0     H62999   0.224   6.492  10.347 -3.1210  3.1531 -2.5235
  457MOL0     H63000   0.183   6.327  10.289 -3.8769  2.9646 -0.6201
  457MOL0     H63001   0.073   6.514  10.178  0.2541  0.2666 -1.1084
  457MOL0     H63002   0.231   6.579  10.134  1.6967 -0.9577 -0.7095
  457MOL0     H63003   0.149   6.295  10.077 -0.9934  0.1728  0.3996
  457MOL0     H63004   0.070   6.422   9.975 -0.1899  0.8823  1.2023
  457MOL0     H63005   0.288   6.492   9.873  1.8848  0.6708  0.5233
  457MOL0     H63006   0.379   6.403   9.983  0.3579 -0.6297 -2.7039
  457MOL0     H63007   0.204   6.285   9.777 -1.1953 -0.8023  0.9879
  457MOL0     H63008   0.272   6.179   9.902  3.2404 -1.4810 -0.4788
  457MOL0     H63009   0.467   6.330   9.728 -1.0704  0.1288  2.3922
  457MOL0     H63010   0.483   6.178   9.801  2.2435  2.3569 -1.5117
  457MOL0     H63011   0.326   6.077   9.648  0.1042  1.0692 -0.6493
  457MOL0     H63012   0.454   6.151   9.555  1.8441  2.0183 -0.1025
  457MOL0     H63013   0.259   6.166   9.423  0.1955 -2.9399  0.4368
  457MOL0     H63014   0.150   6.202   9.556  0.7814  0.7558  0.6686
  457MOL0     H63015   0.470   6.413   9.510  0.9087  0.5281 -0.3422
  457MOL0     H63016   0.496   6.691   9.539  0.1104 -1.0915 -0.4529
  457MOL0     H63017   0.349   6.779   9.574 -2.2191 -2.0769  1.4730
  457MOL0     H63018   0.481   6.857   9.386  1.8679 -2.3450  0.2035
  457MOL0     H63019   0.449   6.720   9.297  4.2762  0.5862  1.6430
  457MOL0     H63020   0.233   6.754   9.266 -1.2508  1.1426 -0.1290
  457MOL0     H63021   0.182   6.840   9.405 -2.2178  2.7284 -2.0485
  457MOL0     H63022   0.164   6.992   9.227 -2.6687 -3.9880  2.6653
  457MOL0     H63023   0.301   7.057   9.319  1.6839  0.6141 -1.9890
  457MOL0     H63024   0.563   7.003   9.025 -1.9446 -1.8702 -0.4112
  457MOL0     H63025   0.740   7.099   8.930 -0.8358 -1.1445  0.3704
  457MOL0     H63026   0.737   7.278   8.928  0.5969 -0.5226 -0.2322
  457MOL0     H63027   0.689   7.183   8.785  0.6833 -3.5776  0.3266
  457MOL0     H63028   0.248   7.694   8.746 -0.2047  1.1764  1.5752
  457MOL0     H63029   0.318   7.928   8.656 -0.9287  1.4559  2.5424
  457MOL0     H63030   0.486   8.210   8.808  0.6548  1.1146  0.8092
  457MOL0     H63031   0.550   8.068   8.891 -2.4795 -1.3120 -1.2677
  457MOL0     H63032   0.735   8.230   8.884 -0.5491 -1.8485 -0.2442
  457MOL0     H63033   0.772   8.124   8.754  2.1174  1.8798  0.5051
  457MOL0     H63034   0.704   8.276   8.587  1.9315  1.1928 -0.1921
  457MOL0     H63035   0.790   8.376   8.713 -1.4204  1.9414  1.9547
  457MOL0     H63036   0.581   8.459   8.798 -1.9006 -3.8487  0.5989
  457MOL0     H63037   0.481   8.379   8.668  0.4431 -1.3664 -3.4713
  457MOL0     H63038   0.704   8.577   8.592  0.7269 -2.3680 -1.0930
  457MOL0     H63039   0.579   8.491   8.499  0.2384 -4.1745  1.7635
  457MOL0     H63040   0.511   8.689   8.722 -0.3185  0.8847 -0.4688
  457MOL0     H63041   0.404   8.607   8.619  0.0101 -0.1078 -1.3481
  457MOL0     H63042   0.419   8.820   8.512 -0.0878 -0.2792 -0.3648
  457MOL0     H63043   0.507   8.715   8.407 -3.0171 -0.7524  0.5727
  457MOL0     H63044   0.720   8.820   8.554 -0.4818 -0.6063  2.9324
  457MOL0     H63045   0.591   8.926   8.611  1.6684 -1.8079  1.8622
  457MOL0     H63046   0.710   7.878   8.819 -0.1019  0.1732  0.0814
  457MOL0     H63047   0.649   7.654   8.897 -2.1218 -4.4593 -0.1320
  457MOL0     H63048   0.255   7.375   9.001 -1.7964  0.5414 -2.1936
  457MOL0     H63049   0.188   7.168   9.100 -0.5725 -1.9785 -0.5036
  457MOL0     H63050   0.483   6.335  10.500  0.7031  0.5573  0.3859
  457MOL0     H63051   0.631   6.494  10.626  3.2996 -1.7096 -1.7597
  457MOL0     H63052   0.925   6.610  10.708 -1.9998  1.1321 -1.3537
  457MOL0     H63053   1.129   6.636  10.840 -2.5921  0.4926  2.1508
  457MOL0     H63054   1.280   6.702  10.965  1.2038 -0.1304 -0.3342
  457MOL0     H63055   1.402   6.745  10.852 -1.2135 -0.4563 -1.5565
  457MOL0     H63056   1.496   6.756  11.060 -1.7635 -1.4031  1.6315
  457MOL0     H63057   1.380   6.872  11.122  0.0614 -2.0845 -0.4497
  457MOL0     H63058   1.568   6.916  10.883 -1.2331  1.2102 -1.3191
  457MOL0     H63059   1.465   7.042  10.949  1.1290 -0.3268 -0.5456
  457MOL0     H63060   1.568   7.033  11.163 -2.9073  0.6496 -2.8377
  457MOL0     H63061   1.689   7.080  11.062  2.3299 -0.7749  0.6954
  457MOL0     H63062   1.851   6.705  11.129 -0.4152 -0.1753  1.9860
  457MOL0     H63063   1.101   7.062  10.798 -0.6181  0.7072 -2.2760
  457MOL0     H63064   0.813   7.054  10.568 -1.9272  0.8292  0.1887
  457MOL0     H63065   0.845   7.122  10.739  1.4025  4.8678 -1.7794
  457MOL0     H63066   0.943   7.143  10.591  1.1716 -1.6217 -1.1571
  458MOL0     O63067   0.441   1.411   8.369  0.1588 -0.1448 -0.4025
  458MOL0     C63068   0.375   1.339   8.293  0.2225 -0.5236 -0.1645
  458MOL0     O63069   0.266   1.264   8.329 -0.3370  0.0437 -0.4083
  458MOL0     C63070   0.238   1.277   8.464 -0.4824  0.1648 -0.2045
  458MOL0     C63071   0.212   1.399   8.532 -0.2913 -0.2658  0.4571
  458MOL0     C63072   0.176   1.398   8.656 -0.5011 -0.1518  0.8628
  458MOL0     C63073   0.168   1.279   8.735  0.0311 -0.4230  0.1281
  458MOL0     O63074   0.168   1.277   8.874  0.0187 -0.6118  0.2124
  458MOL0     C63075   0.162   1.397   8.945  1.4021  0.3086  0.9804
  458MOL0     C63076   0.296   1.445   9.013  0.5312 -0.7509  1.0249
  458MOL0     C63077   0.312   1.596   9.021 -0.0895  0.1383  0.2187
  458MOL0     C63078   0.291   1.667   9.159  0.3285  0.4991  0.4406
  458MOL0     C63079   0.326   1.811   9.130 -0.4680  0.1233  0.4775
  458MOL0     C63080   0.288   1.892   9.258 -0.4976  0.3646 -0.3963
  458MOL0     C63081   0.319   2.041   9.253 -0.9539  0.3704 -0.0745
  458MOL0     C63082   0.279   2.108   9.375 -0.1084  0.8814 -0.0017
  458MOL0     N63083   0.310   2.254   9.385 -0.0358  0.3242  0.8240
  458MOL0     C63084   0.375   2.330   9.292 -0.8661 -0.2944  0.1052
  458MOL0     C63085   0.366   2.459   9.330 -0.5286 -1.3702 -0.5461
  458MOL0     C63086   0.406   2.585   9.253  0.0937 -0.6417 -0.2026
  458MOL0     C63087   0.333   2.713   9.309 -0.0808 -0.1692 -0.3134
  458MOL0     C63088   0.413   2.780   9.426  0.6163  0.1876  0.1082
  458MOL0     C63089   0.338   2.902   9.475  0.0080 -0.5278  0.7614
  458MOL0     O63090   0.344   3.007   9.371  0.8550 -0.5110 -0.5470
  458MOL0     C63091   0.341   3.139   9.417 -0.4450 -0.7336  0.0797
  458MOL0     C63092   0.374   3.244   9.333  0.0458  0.0810  0.1764
  458MOL0     C63093   0.345   3.381   9.367  0.1073 -0.7230  0.5983
  458MOL0     C63094   0.363   3.486   9.262  0.4148 -0.2397 -0.2417
  458MOL0     C63095   0.301   3.421   9.491  0.3174 -0.3603 -0.6409
  458MOL0     C63096   0.276   3.558   9.532  0.5132 -0.7393 -0.3161
  458MOL0     O63097   0.149   3.608   9.501  0.5438 -0.0351  0.0847
  458MOL0     C63098   0.118   3.736   9.543 -0.5867 -0.1855  0.0887
  458MOL0     C63099   0.023   3.755   9.647 -0.1570 -0.1459  0.6280
  458MOL0     C63100  -0.016   3.876   9.686  0.8198  0.0286  0.4124
  458MOL0     C63101   0.046   3.994   9.635  1.0761 -0.2085 -1.5360
  458MOL0     O63102  -0.004   4.112   9.682  0.0949  0.3232  0.2885
  458MOL0     C63103   0.097   4.213   9.722 -0.4034  0.4215 -0.3035
  458MOL0     C63104   0.045   4.338   9.794  0.3791  0.0993 -0.4817
  458MOL0     C63105  -0.084   4.397   9.730  0.5411 -0.2493  0.7697
  458MOL0     C63106  -0.052   4.441   9.589 -0.3890 -0.1119 -0.8057
  458MOL0     C63107  -0.174   4.517   9.515 -0.5321 -0.3310 -0.0072
  458MOL0     C63108  -0.192   4.658   9.565  0.0530 -0.4273 -0.0782
  458MOL0     C63109  -0.332   4.703   9.505 -0.2042 -0.7043  0.5737
  458MOL0     C63110  -0.325   4.858   9.466 -0.2635  0.4035  1.3566
  458MOL0    Cl63111  -0.223   4.879   9.318 -0.0380 -0.2585 -0.1248
  458MOL0     C63112   0.153   3.978   9.539 -1.4065  0.7676 -0.4118
  458MOL0     C63113   0.185   3.847   9.494  0.0294  0.1941  0.4971
  458MOL0     O63114   0.356   3.609   9.615  0.2005  0.1745 -0.0572
  458MOL0     C63115   0.271   3.316   9.579 -0.6234 -1.0631 -0.4415
  458MOL0     C63116   0.292   3.181   9.537 -0.7923 -0.3819 -0.2375
  458MOL0     N63117   0.316   2.458   9.467 -0.5741  0.4044  0.6124
  458MOL0     N63118   0.274   2.339   9.487  0.1329 -0.5169 -0.6177
  458MOL0     C63119   0.189   1.153   8.667  0.4869  0.1202  0.0309
  458MOL0     C63120   0.226   1.157   8.534  0.9060 -0.7588  1.3766
  458MOL0     C63121   0.442   1.319   8.159  0.3039  0.2761 -0.7407
  458MOL0     C63122   0.584   1.328   8.158  0.9022  0.9380 -0.2355
  458MOL0     C63123   0.645   1.294   8.043 -0.2676  0.8376  0.6766
  458MOL0     C63124   0.582   1.258   7.921 -0.8283 -0.0489 -0.7287
  458MOL0     O63125   0.658   1.213   7.814  0.6884 -0.1310 -0.1628
  458MOL0     C63126   0.590   1.199   7.688  0.5201 -0.1906 -0.3535
  458MOL0     C63127   0.545   1.054   7.668  0.1381  0.6840 -0.2424
  458MOL0     C63128   0.650   0.968   7.593  0.0487 -0.0123  0.0251
  458MOL0     C63129   0.669   0.992   7.433 -0.6208  0.4365  1.2378
  458MOL0     C63130   0.799   0.953   7.378  0.4959 -0.2272 -0.0084
  458MOL0     C63131   0.895   0.920   7.318  0.7529  0.1020 -0.3746
  458MOL0     C63132   0.445   1.262   7.925 -0.1893 -0.1571  0.3261
  458MOL0     C63133   0.374   1.299   8.045 -0.7589 -0.0256 -0.8302
  458MOL0     C63134   0.224   1.293   8.036 -0.2662 -0.4313  0.7240
  458MOL0     H63135   0.227   1.500   8.495 -0.2718 -0.5672 -0.3900
  458MOL0     H63136   0.172   1.498   8.697 -0.8082  0.2194 -0.0499
  458MOL0     H63137   0.105   1.366   9.033 -2.3710 -1.6346 -1.8499
  458MOL0     H63138   0.108   1.469   8.883 -1.1875 -1.4972  0.9988
  458MOL0     H63139   0.322   1.394   9.105  1.0399 -2.3977  0.0077
  458MOL0     H63140   0.371   1.403   8.945  1.9683  1.2096  1.2886
  458MOL0     H63141   0.407   1.618   8.971 -0.3421  1.3266  0.2304
  458MOL0     H63142   0.235   1.637   8.955  1.3478 -0.8827 -2.1957
  458MOL0     H63143   0.186   1.654   9.188  0.3259 -0.8056 -0.0960
  458MOL0     H63144   0.356   1.621   9.234 -0.6390  1.4467  1.9143
  458MOL0     H63145   0.271   1.837   9.039  2.4858  1.7234 -1.0027
  458MOL0     H63146   0.430   1.826   9.102 -0.1487  0.2618  1.6635
  458MOL0     H63147   0.180   1.885   9.276 -0.3224  0.8640  0.9174
  458MOL0     H63148   0.335   1.841   9.343 -1.1057 -0.8464 -0.7617
  458MOL0     H63149   0.265   2.090   9.171 -0.8812 -0.5263 -0.6720
  458MOL0     H63150   0.428   2.047   9.242 -0.5718  0.3598  2.9944
  458MOL0     H63151   0.171   2.101   9.391 -0.4224 -1.4390 -2.5453
  458MOL0     H63152   0.330   2.066   9.463  0.3182  1.9985  0.3042
  458MOL0     H63153   0.414   2.283   9.202  2.8228 -2.2888  2.5073
  458MOL0     H63154   0.365   2.567   9.153 -1.9235 -1.2928  0.6788
  458MOL0     H63155   0.515   2.595   9.253  0.2031 -0.9971 -2.9723
  458MOL0     H63156   0.334   2.789   9.231 -0.3842  1.5271  1.2620
  458MOL0     H63157   0.230   2.683   9.333 -0.2213  0.5378 -0.0189
  458MOL0     H63158   0.410   2.716   9.514 -1.5499  2.6153  1.9682
  458MOL0     H63159   0.515   2.796   9.392  0.1733  0.3320 -1.2502
  458MOL0     H63160   0.236   2.869   9.499  0.7529 -3.6674 -0.0194
  458MOL0     H63161   0.404   2.945   9.550 -0.5099  2.0220 -0.1392
  458MOL0     H63162   0.393   3.227   9.227 -2.1846  2.6915 -0.7582
  458MOL0     H63163   0.284   3.562   9.259  0.4544  0.2980  4.6872
  458MOL0     H63164   0.380   3.441   9.164  4.7993 -1.9246  1.0328
  458MOL0     H63165   0.449   3.552   9.281  0.1653 -0.2293  0.9243
  458MOL0     H63166  -0.032   3.666   9.676 -1.4853  0.4355 -0.0024
  458MOL0     H63167  -0.096   3.868   9.759 -1.3474 -0.0381 -1.8715
  458MOL0     H63168   0.174   4.171   9.789  0.6082  0.5822 -1.3328
  458MOL0     H63169   0.149   4.249   9.633 -3.1561  0.8320 -1.8483
  458MOL0     H63170   0.023   4.317   9.899  0.9426  2.2595  0.1093
  458MOL0     H63171   0.134   4.398   9.817  0.6951  0.2218 -1.9422
  458MOL0     H63172  -0.124   4.472   9.799  0.0281 -1.1218  1.4454
  458MOL0     H63173  -0.149   4.310   9.726  1.9436 -1.3421  0.8223
  458MOL0     H63174  -0.020   4.355   9.529  0.4189 -2.0182  2.1765
  458MOL0     H63175   0.028   4.516   9.593 -1.0029  0.5187  2.7544
  458MOL0     H63176  -0.140   4.512   9.411  1.0590 -1.1694  0.5164
  458MOL0     H63177  -0.259   4.448   9.517  0.5971 -1.7485  1.8164
  458MOL0     H63178  -0.109   4.717   9.526 -0.6583 -0.7243 -2.1793
  458MOL0     H63179  -0.197   4.661   9.675 -4.6745  1.7674 -0.0680
  458MOL0     H63180  -0.404   4.693   9.587  0.3180  0.7736  1.2507
  458MOL0     H63181  -0.363   4.645   9.417 -1.0867  1.7159 -0.8212
  458MOL0     H63182  -0.283   4.911   9.552 -2.1550  0.9471  1.9832
  458MOL0     H63183  -0.426   4.894   9.446 -0.8668 -2.7766 -2.6682
  458MOL0     H63184   0.213   4.059   9.497 -0.3044 -0.7445 -1.8858
  458MOL0     H63185   0.258   3.837   9.415 -1.8021 -0.2872 -1.2201
  458MOL0     H63186   0.234   3.337   9.679  0.8192 -1.5871  0.2289
  458MOL0     H63187   0.247   3.123   9.618 -0.8877  0.8504  0.6276
  458MOL0     H63188   0.192   1.053   8.708  1.5038 -0.9928 -2.5146
  458MOL0     H63189   0.243   1.063   8.482  3.9083 -0.5463  1.8097
  458MOL0     H63190   0.643   1.360   8.243 -0.4633  5.2347 -0.6799
  458MOL0     H63191   0.754   1.290   8.045 -0.2792  0.3258  0.3794
  458MOL0     H63192   0.504   1.267   7.688  1.0282  0.7835  3.9050
  458MOL0     H63193   0.650   1.225   7.601 -1.0218  2.4458 -0.7428
  458MOL0     H63194   0.448   1.043   7.619 -0.4913 -2.9886  1.4699
  458MOL0     H63195   0.533   1.006   7.765  1.3000  0.3478 -0.2388
  458MOL0     H63196   0.742   0.999   7.644  0.1713  1.5904 -1.0886
  458MOL0     H63197   0.623   0.862   7.598  0.5947 -0.4612 -3.6036
  458MOL0     H63198   0.653   1.095   7.401 -1.8677 -0.6627 -2.0086
  458MOL0     H63199   0.593   0.928   7.389 -2.5563  2.9267  0.7328
  458MOL0     H63200   0.976   0.895   7.253  0.2900  0.7268 -1.2041
  458MOL0     H63201   0.384   1.218   7.846  0.1417  2.1835 -1.3352
  458MOL0     H63202   0.181   1.376   8.093  1.4963 -1.4236  3.7763
  458MOL0     H63203   0.186   1.287   7.934 -0.6985  1.3447  0.7585
  458MOL0     H63204   0.188   1.205   8.091  2.3768 -1.9506  0.2385
  459MOL0     O63205   9.742   8.611   1.564  0.9452  0.5249 -0.1499
  459MOL0     C63206   9.680   8.571   1.664 -0.1508 -0.5424 -0.0279
  459MOL0     O63207   9.633   8.448   1.682  0.6495 -0.3904 -0.1860
  459MOL0     C63208   9.618   8.362   1.570  0.5512  1.1336 -0.1356
  459MOL0     C63209   9.552   8.403   1.451 -0.3882  0.1512 -0.0395
  459MOL0     C63210   9.535   8.316   1.342 -0.8703  1.5642  1.2888
  459MOL0     C63211   9.563   8.187   1.346  0.2042  0.0243  0.4195
  459MOL0     O63212   9.558   8.109   1.232  0.2048  0.4438 -0.9087
  459MOL0     C63213   9.561   7.965   1.244  0.7938  0.8286  0.5222
  459MOL0     C63214   9.556   7.910   1.107 -0.6440 -0.1825  0.3123
  459MOL0     C63215   9.553   7.755   1.092  0.6426 -0.0458  0.1484
  459MOL0     C63216   9.542   7.713   0.944  0.0144  0.0899  0.4096
  459MOL0     C63217   9.512   7.572   0.937  0.4679  0.4271  0.5794
  459MOL0     C63218   9.468   7.538   0.792  0.1642 -0.3217  0.0803
  459MOL0     C63219   9.458   7.387   0.772 -0.8328  1.6299  0.5619
  459MOL0     C63220   9.347   7.311   0.845  0.3558  0.4618  0.2516
  459MOL0     N63221   9.216   7.360   0.797 -0.5657 -0.0119 -0.1963
  459MOL0     C63222   9.152   7.473   0.842  0.2196  1.1785 -0.1109
  459MOL0     C63223   9.031   7.463   0.798  0.2658 -0.4147 -0.7930
  459MOL0     C63224   8.925   7.551   0.862 -0.3886 -0.0178  1.4951
  459MOL0     C63225   8.883   7.646   0.745  0.1778  0.5866 -0.5551
  459MOL0     C63226   8.782   7.754   0.782  0.7010 -0.6714 -0.2160
  459MOL0     C63227   8.851   7.874   0.852  0.3738  0.0573  0.5689
  459MOL0     O63228   8.839   7.990   0.766  0.3052 -0.2523  0.4550
  459MOL0     C63229   8.912   8.104   0.788  1.0763 -0.5720  0.3812
  459MOL0     C63230   8.984   8.132   0.905  0.1542  0.2691 -0.3357
  459MOL0     C63231   9.066   8.248   0.933  0.2111  0.0571 -0.2916
  459MOL0     C63232   9.149   8.236   1.059  0.1035  0.5794 -0.2217
  459MOL0     C63233   9.070   8.344   0.831 -0.5769  0.1100 -0.8739
  459MOL0     C63234   9.148   8.464   0.858 -0.8198  0.7004 -0.4345
  459MOL0     O63235   9.217   8.509   0.757 -0.4103 -0.2140 -0.0617
  459MOL0     C63236   9.303   8.614   0.779  0.6582 -0.5032  1.2287
  459MOL0     C63237   9.443   8.602   0.783  1.0168  0.3666 -0.5888
  459MOL0     C63238   9.527   8.711   0.779  0.0914  0.3963 -0.5163
  459MOL0     C63239   9.482   8.839   0.789 -1.0395  0.2863  1.5661
  459MOL0     O63240   9.551   8.952   0.762  0.0519 -0.5270  0.6173
  459MOL0     C63241   9.696   8.952   0.754 -0.2822  0.6142 -0.0399
  459MOL0     C63242   9.750   9.083   0.706  0.0242 -0.0613 -0.1457
  459MOL0     C63243   9.722   9.199   0.799  1.4707  0.8779 -0.4579
  459MOL0     C63244   9.824   9.313   0.806 -0.0428 -0.0273 -0.0237
  459MOL0     C63245   9.952   9.275   0.874 -0.4519  0.6486 -0.9245
  459MOL0     C63246  10.069   9.365   0.826 -0.0364 -0.2867  0.3205
  459MOL0     C63247  10.041   9.516   0.832  0.3317  0.2778  0.3685
  459MOL0     C63248  10.183   9.585   0.820 -0.7931  0.5029 -0.5021
  459MOL0    Cl63249  10.258   9.510   0.674  0.3530 -0.3619 -0.0649
  459MOL0     C63250   9.337   8.854   0.801 -0.3255  0.9603 -0.3141
  459MOL0     C63251   9.247   8.745   0.792  0.0949 -0.7705 -0.3633
  459MOL0     O63252   9.137   8.518   0.967 -0.7054 -0.3957 -0.1307
  459MOL0     C63253   8.995   8.326   0.716  0.3918 -0.3862 -0.4333
  459MOL0     C63254   8.914   8.211   0.694 -0.9131 -0.5881 -0.7132
  459MOL0     N63255   9.035   7.357   0.705  0.3706 -0.1869  0.1879
  459MOL0     N63256   9.139   7.288   0.719  0.1028 -0.0175 -0.0437
  459MOL0     C63257   9.625   8.143   1.470 -0.6308 -0.8351  0.7426
  459MOL0     C63258   9.645   8.224   1.577 -0.5966 -0.6962  0.2421
  459MOL0     C63259   9.634   8.673   1.755  0.0999 -0.6597 -0.0429
  459MOL0     C63260   9.550   8.626   1.857  1.0564 -0.5780 -0.0287
  459MOL0     C63261   9.510   8.705   1.967 -0.4537  0.5962 -0.4126
  459MOL0     C63262   9.553   8.837   1.975  0.8088  0.1942 -0.5680
  459MOL0     O63263   9.495   8.904   2.079  0.4758 -1.0960 -0.5020
  459MOL0     C63264   9.542   9.039   2.122  0.5118 -0.4930  0.0348
  459MOL0     C63265   9.569   9.034   2.273 -0.4110 -1.0313 -0.4072
  459MOL0     C63266   9.718   9.010   2.325 -0.4848 -0.5520  0.0017
  459MOL0     C63267   9.729   8.987   2.476  0.0298 -0.8570  0.4104
  459MOL0     C63268   9.830   8.884   2.499 -0.2619 -0.2876  0.7673
  459MOL0     C63269   9.927   8.808   2.506  0.2254 -0.3284  0.6184
  459MOL0     C63270   9.634   8.887   1.872 -0.1981  0.8246  0.2704
  459MOL0     C63271   9.670   8.809   1.763  0.9163 -0.7252 -0.3099
  459MOL0     C63272   9.761   8.878   1.671 -0.0766  0.1929 -0.4545
  459MOL0     H63273   9.507   8.502   1.442 -2.5748 -0.5975  1.7640
  459MOL0     H63274   9.477   8.344   1.255  0.2948  0.7615  0.2248
  459MOL0     H63275   9.473   7.929   1.299  2.2718  1.0217  3.1843
  459MOL0     H63276   9.653   7.928   1.291  1.6148  0.9099 -0.9626
  459MOL0     H63277   9.474   7.954   1.048 -0.7509  1.8294  1.8427
  459MOL0     H63278   9.649   7.951   1.067  0.8435 -2.2657  1.4769
  459MOL0     H63279   9.650   7.725   1.132  0.2047  0.8230  1.9853
  459MOL0     H63280   9.472   7.709   1.150 -1.1207  1.8989 -0.6212
  459MOL0     H63281   9.459   7.776   0.912 -0.0623  0.2574  0.9230
  459MOL0     H63282   9.624   7.743   0.879 -0.3124 -1.0485 -0.5581
  459MOL0     H63283   9.434   7.540   1.006 -1.2538  2.0185 -0.5543
  459MOL0     H63284   9.603   7.519   0.968  0.2848 -0.8589 -0.9256
  459MOL0     H63285   9.371   7.579   0.761  1.5452  1.1393 -2.5975
  459MOL0     H63286   9.534   7.586   0.719 -0.3207 -0.0506 -0.1887
  459MOL0     H63287   9.551   7.347   0.813 -1.5106 -1.6708 -0.8533
  459MOL0     H63288   9.449   7.359   0.667  1.7908 -2.3903  1.1863
  459MOL0     H63289   9.351   7.202   0.831  1.4190  0.4469  0.5905
  459MOL0     H63290   9.361   7.325   0.953  0.3516  0.4613  0.2522
  459MOL0     H63291   9.189   7.549   0.910  2.7221  0.9237 -1.0774
  459MOL0     H63292   8.970   7.606   0.946  0.2136 -1.6980  2.3092
  459MOL0     H63293   8.845   7.492   0.909  0.4068 -2.9285 -0.5454
  459MOL0     H63294   8.966   7.698   0.697 -0.5955  3.0760  0.6524
  459MOL0     H63295   8.842   7.585   0.664  2.2112  0.7984 -1.8107
  459MOL0     H63296   8.734   7.787   0.689 -1.4473 -0.3281  0.9662
  459MOL0     H63297   8.699   7.720   0.845 -0.2862  0.0802 -1.0644
  459MOL0     H63298   8.808   7.903   0.948 -0.2601  5.3580 -1.0226
  459MOL0     H63299   8.956   7.847   0.865  0.4988  1.4287  2.8345
  459MOL0     H63300   8.981   8.060   0.987 -1.9161  1.1987  0.4811
  459MOL0     H63301   9.231   8.165   1.045 -0.0523  0.6800 -1.7728
  459MOL0     H63302   9.078   8.213   1.140 -0.5311 -4.3402 -1.8744
  459MOL0     H63303   9.200   8.328   1.090 -1.2745 -0.0064  4.7296
  459MOL0     H63304   9.501   8.511   0.777 -0.8227 -0.9342  0.2848
  459MOL0     H63305   9.634   8.692   0.768  1.5219  2.8598  5.3553
  459MOL0     H63306   9.723   8.945   0.860 -1.8620 -1.0654  0.3229
  459MOL0     H63307   9.737   8.881   0.682 -2.2802  0.1725 -0.8161
  459MOL0     H63308   9.858   9.080   0.693  0.7307  1.7281  3.8052
  459MOL0     H63309   9.714   9.109   0.606  2.1576  3.2599 -0.1722
  459MOL0     H63310   9.713   9.166   0.903  1.7290  2.4581  0.1008
  459MOL0     H63311   9.626   9.239   0.766  1.5115 -0.2170 -1.9789
  459MOL0     H63312   9.779   9.391   0.867 -1.2322  1.3151 -2.4524
  459MOL0     H63313   9.849   9.354   0.707 -0.4990 -2.9204 -1.4487
  459MOL0     H63314   9.949   9.268   0.983 -0.2663 -2.2090 -1.0304
  459MOL0     H63315   9.985   9.173   0.855 -0.1692  0.8097 -1.3177
  459MOL0     H63316  10.086   9.346   0.719  0.0676 -1.2499  0.4993
  459MOL0     H63317  10.158   9.327   0.877 -1.0972 -3.6823 -0.0721
  459MOL0     H63318  10.005   9.551   0.929  1.0664 -4.3622  2.5471
  459MOL0     H63319   9.986   9.554   0.745 -0.7912  0.7339  1.2557
  459MOL0     H63320  10.237   9.560   0.912  0.1288 -2.1336 -1.6467
  459MOL0     H63321  10.182   9.694   0.810  1.7485  0.5692 -0.8242
  459MOL0     H63322   9.309   8.959   0.810 -1.0204  0.7131  0.5858
  459MOL0     H63323   9.146   8.770   0.823  1.6234  2.0061  3.1244
  459MOL0     H63324   8.992   8.408   0.645  0.4064  1.0766  1.1992
  459MOL0     H63325   8.860   8.206   0.600  0.0456 -3.1283 -1.2133
  459MOL0     H63326   9.658   8.041   1.488  0.7334 -0.0391  3.2609
  459MOL0     H63327   9.696   8.187   1.666  5.2807 -0.9746 -2.7165
  459MOL0     H63328   9.519   8.523   1.864  1.4298 -0.7775 -1.1444
  459MOL0     H63329   9.441   8.664   2.040  0.5717  0.7045  0.6516
  459MOL0     H63330   9.627   9.067   2.058  0.0791  0.6982 -0.0311
  459MOL0     H63331   9.465   9.115   2.104  1.0918  0.5775  1.8400
  459MOL0     H63332   9.497   8.965   2.319 -0.3494  0.4238  2.0622
  459MOL0     H63333   9.530   9.128   2.315  0.7107  0.0114 -1.6252
  459MOL0     H63334   9.745   8.921   2.268  0.4935  0.1282 -0.6430
  459MOL0     H63335   9.785   9.096   2.310 -0.9218  0.0390  1.3461
  459MOL0     H63336   9.629   8.955   2.508  0.4956 -1.4096  1.3796
  459MOL0     H63337   9.747   9.077   2.535 -2.7672  1.2997 -1.7529
  459MOL0     H63338  10.013   8.746   2.488  2.3971  2.8785 -1.1034
  459MOL0     H63339   9.671   8.989   1.880 -0.3415  1.0383 -1.4987
  459MOL0     H63340   9.714   8.879   1.572  3.6436  5.5081 -2.6027
  459MOL0     H63341   9.780   8.984   1.687  0.8134  0.3236 -2.1998
  459MOL0     H63342   9.860   8.833   1.663 -0.4821 -0.7372 -0.4475
  460MOL0     O63343  10.196  11.421   5.104  0.0197  0.6014 -0.1972
  460MOL0     C63344  10.187  11.509   5.017 -0.2302 -0.6869  0.5969
  460MOL0     O63345  10.098  11.520   4.913 -0.2163 -0.6160 -0.5970
  460MOL0     C63346   9.979  11.456   4.927  0.8203  0.6828 -1.0052
  460MOL0     C63347   9.865  11.535   4.923 -0.1924  0.5122 -0.5221
  460MOL0     C63348   9.740  11.473   4.938 -0.2652 -0.8088 -0.0771
  460MOL0     C63349   9.723  11.335   4.933  0.6077 -0.2745  1.1668
  460MOL0     O63350   9.600  11.283   4.922  0.7916  0.1174 -0.4773
  460MOL0     C63351   9.567  11.200   4.806  0.5861  1.1120 -0.9949
  460MOL0     C63352   9.469  11.093   4.849 -0.1520 -0.1929 -0.1950
  460MOL0     C63353   9.543  11.005   4.952  0.9838  0.0588 -0.2732
  460MOL0     C63354   9.463  10.871   4.983 -0.2115  0.5958 -0.1862
  460MOL0     C63355   9.378  10.871   5.109 -0.0351  0.0091  0.1938
  460MOL0     C63356   9.241  10.933   5.089 -0.1839  0.0192  0.0312
  460MOL0     C63357   9.150  10.891   5.204 -0.8956  0.3399  0.2903
  460MOL0     C63358   9.187  10.931   5.349  0.2719 -0.0447  0.1577
  460MOL0     N63359   9.184  11.081   5.373  0.4543 -0.1653  0.9032
  460MOL0     C63360   9.076  11.177   5.360  0.1803 -0.1578  0.6261
  460MOL0     C63361   9.121  11.302   5.395 -0.9381  0.3725 -0.6043
  460MOL0     C63362   9.038  11.423   5.419  0.3370 -0.7270  1.3281
  460MOL0     C63363   8.957  11.409   5.544  0.0028  0.1771 -0.1129
  460MOL0     C63364   8.884  11.545   5.572 -0.4906 -0.1992  0.3093
  460MOL0     C63365   8.791  11.534   5.689  1.0373  0.2293  0.5082
  460MOL0     O63366   8.870  11.504   5.806 -0.1504 -0.8826 -0.5482
  460MOL0     C63367   8.821  11.406   5.889  0.1871 -1.0100 -0.5710
  460MOL0     C63368   8.791  11.278   5.852  0.0934  0.5064  0.3686
  460MOL0     C63369   8.747  11.178   5.941 -0.9478 -0.2186  0.0486
  460MOL0     C63370   8.711  11.045   5.876  0.2700 -0.1493  0.3147
  460MOL0     C63371   8.704  11.222   6.073 -1.3719  0.4550  0.4413
  460MOL0     C63372   8.656  11.134   6.172  0.3121  0.8774  0.3239
  460MOL0     O63373   8.561  11.191   6.255  0.9361  0.4786 -0.0709
  460MOL0     C63374   8.531  11.125   6.367  0.6062  1.4087 -0.3639
  460MOL0     C63375   8.413  11.052   6.357  0.7522  0.5773 -0.5661
  460MOL0     C63376   8.384  10.956   6.461  0.7078  0.0369 -0.4483
  460MOL0     C63377   8.468  10.949   6.581 -0.7063  0.4143  0.2907
  460MOL0     O63378   8.447  10.856   6.676  0.8470 -0.5690  0.4224
  460MOL0     C63379   8.314  10.830   6.716  0.0791  0.4179  0.6568
  460MOL0     C63380   8.302  10.737   6.834 -0.6254  0.4807 -0.5314
  460MOL0     C63381   8.377  10.794   6.960  1.1150 -0.0195 -0.9332
  460MOL0     C63382   8.312  10.928   7.001 -1.2506 -0.7587  0.0013
  460MOL0     C63383   8.335  10.961   7.153  0.0613  0.3696  0.7228
  460MOL0     C63384   8.264  11.092   7.182  0.3462  0.9423 -0.7480
  460MOL0     C63385   8.139  11.071   7.274  0.6563 -0.0724  0.3896
  460MOL0     C63386   8.080  11.216   7.306 -0.4019 -0.2655  0.4170
  460MOL0    Cl63387   7.941  11.215   7.428  0.2294 -0.1836  0.0979
  460MOL0     C63388   8.589  11.029   6.584  0.4339 -0.6771 -0.0642
  460MOL0     C63389   8.617  11.115   6.480  0.6113 -0.1757  0.2968
  460MOL0     O63390   8.715  11.025   6.188  0.4532  0.6364 -0.0415
  460MOL0     C63391   8.739  11.351   6.113 -1.0831  0.4856  0.5975
  460MOL0     C63392   8.795  11.438   6.027  0.1589 -0.6190  0.9309
  460MOL0     N63393   9.257  11.284   5.415  0.5122 -0.1469 -0.4843
  460MOL0     N63394   9.289  11.162   5.406 -0.2629  0.0739  0.0415
  460MOL0     C63395   9.835  11.250   4.930  0.1404 -0.2641 -0.5144
  460MOL0     C63396   9.965  11.312   4.927 -0.8067 -0.4496 -0.9885
  460MOL0     C63397  10.299  11.594   5.009  0.7325 -0.3241 -0.5304
  460MOL0     C63398  10.307  11.699   5.109 -0.1161  0.5110  0.4026
  460MOL0     C63399  10.416  11.788   5.097 -0.2528 -1.0892  0.0238
  460MOL0     C63400  10.518  11.771   4.996 -0.1249 -0.1299  0.3393
  460MOL0     O63401  10.609  11.862   4.955 -0.5207  0.1620  0.4337
  460MOL0     C63402  10.620  11.991   5.011  0.1020 -0.3222  0.2974
  460MOL0     C63403  10.731  12.069   4.950 -0.6096  0.1240  0.4573
  460MOL0     C63404  10.803  12.188   5.027  0.1022  0.7912  0.2836
  460MOL0     C63405  10.720  12.312   5.048  0.6293  0.6557  0.6746
  460MOL0     C63406  10.807  12.431   5.057  0.0825  0.0376  0.7315
  460MOL0     C63407  10.890  12.523   5.081  0.1625  0.1944 -0.1025
  460MOL0     C63408  10.511  11.657   4.918  0.1286  0.9718 -0.5872
  460MOL0     C63409  10.401  11.568   4.919 -0.3011  0.7955  0.4924
  460MOL0     C63410  10.412  11.441   4.835  0.1601 -1.0047 -0.4088
  460MOL0     H63411   9.877  11.642   4.907  0.0871  0.2916 -1.9052
  460MOL0     H63412   9.643  11.521   4.937 -1.6832 -3.4352  0.6956
  460MOL0     H63413   9.652  11.173   4.743  0.6162  1.7885 -1.2511
  460MOL0     H63414   9.512  11.282   4.759  0.1073  2.6563  1.9845
  460MOL0     H63415   9.388  11.146   4.900 -1.2058 -0.8096 -1.1800
  460MOL0     H63416   9.421  11.046   4.763  2.3849 -5.2980  0.7687
  460MOL0     H63417   9.631  10.969   4.898 -1.1887  0.4431 -4.4249
  460MOL0     H63418   9.571  11.057   5.045  0.8312 -2.2949  1.1821
  460MOL0     H63419   9.398  10.853   4.897 -1.4324  5.0489 -0.4794
  460MOL0     H63420   9.528  10.785   4.997 -1.3904 -0.1215  1.1104
  460MOL0     H63421   9.434  10.912   5.193  3.5810 -0.0467 -1.9637
  460MOL0     H63422   9.375  10.763   5.125 -0.0449 -0.1192 -0.6284
  460MOL0     H63423   9.252  11.042   5.082 -3.1310  0.4377  0.5293
  460MOL0     H63424   9.196  10.909   4.992 -0.0158 -1.2034  0.2391
  460MOL0     H63425   9.141  10.783   5.193 -1.2437  0.4134 -0.1683
  460MOL0     H63426   9.057  10.947   5.189  0.2296  2.5776  1.1114
  460MOL0     H63427   9.111  10.881   5.409 -1.8203  0.3680 -2.0190
  460MOL0     H63428   9.291  10.907   5.375  0.8883  1.6960 -0.5375
  460MOL0     H63429   8.972  11.148   5.349 -0.4061  1.8384  0.3739
  460MOL0     H63430   8.978  11.441   5.329  2.2647 -0.7150 -0.0336
  460MOL0     H63431   9.112  11.501   5.437 -1.2098  0.5047  2.6495
  460MOL0     H63432   8.872  11.341   5.532  0.3785 -0.8604  2.4330
  460MOL0     H63433   9.014  11.380   5.633 -1.0175 -1.0332  0.1847
  460MOL0     H63434   8.951  11.627   5.601 -0.5756 -1.1446  3.6446
  460MOL0     H63435   8.832  11.572   5.479 -0.5243 -0.2230  0.3214
  460MOL0     H63436   8.751  11.634   5.708  3.8104  1.8425 -1.4093
  460MOL0     H63437   8.718  11.457   5.660  1.5963 -0.0251 -0.2311
  460MOL0     H63438   8.801  11.276   5.744  0.2684 -0.3019  0.3957
  460MOL0     H63439   8.654  10.984   5.948 -0.7748  0.3093 -0.1006
  460MOL0     H63440   8.811  11.003   5.863 -0.1818 -1.1199 -0.1946
  460MOL0     H63441   8.665  11.055   5.778  2.0786 -2.8196 -0.9214
  460MOL0     H63442   8.355  11.063   6.266  1.1749  2.8134 -0.6249
  460MOL0     H63443   8.290  10.904   6.446 -0.6932  2.5674 -1.1713
  460MOL0     H63444   8.275  10.930   6.737 -1.2373  0.1771 -0.5304
  460MOL0     H63445   8.255  10.787   6.635  0.1407  0.9675  0.3170
  460MOL0     H63446   8.199  10.713   6.861 -0.7717  1.4218 -0.2295
  460MOL0     H63447   8.346  10.638   6.821 -2.2146 -0.2977 -0.2618
  460MOL0     H63448   8.481  10.813   6.934  0.8797  0.7731 -1.3174
  460MOL0     H63449   8.379  10.725   7.045  1.4117  1.4712  0.3189
  460MOL0     H63450   8.204  10.929   6.981 -1.0252  0.9681 -1.3718
  460MOL0     H63451   8.348  11.006   6.934 -2.3613 -2.0753 -2.2177
  460MOL0     H63452   8.307  10.882   7.224 -1.0088  1.3644  1.4236
  460MOL0     H63453   8.443  10.967   7.170 -0.4771  1.9574  4.2904
  460MOL0     H63454   8.241  11.148   7.090 -2.3446  0.2923 -0.5711
  460MOL0     H63455   8.326  11.162   7.239  0.2881  0.3478  0.0468
  460MOL0     H63456   8.175  11.019   7.363 -0.6735 -2.6354 -0.4540
  460MOL0     H63457   8.062  11.005   7.232 -2.5545  4.5719 -1.9325
  460MOL0     H63458   8.062  11.267   7.211 -2.1106 -1.0286  0.2908
  460MOL0     H63459   8.168  11.254   7.359 -0.4138 -0.0268  0.2670
  460MOL0     H63460   8.650  11.034   6.674 -1.2229  2.0333  1.0403
  460MOL0     H63461   8.711  11.169   6.482  0.1576  0.6871 -0.5249
  460MOL0     H63462   8.713  11.380   6.214 -2.4929 -0.3311  0.5026
  460MOL0     H63463   8.811  11.542   6.051  0.5247 -0.0240 -1.6549
  460MOL0     H63464   9.817  11.143   4.931  0.2877 -0.2936 -0.8810
  460MOL0     H63465  10.054  11.252   4.912  1.5200  2.0870  1.4687
  460MOL0     H63466  10.231  11.703   5.186  1.1727  2.7639  1.6797
  460MOL0     H63467  10.424  11.868   5.170 -1.0919 -3.2434  2.6125
  460MOL0     H63468  10.529  12.041   4.975 -0.6281 -1.7422  0.0875
  460MOL0     H63469  10.604  12.000   5.118 -1.6048 -0.7656  0.1094
  460MOL0     H63470  10.709  12.110   4.851  0.7334 -4.0130 -1.7766
  460MOL0     H63471  10.817  12.002   4.948  1.8564  2.8506  3.5217
  460MOL0     H63472  10.834  12.155   5.126  3.2873  0.2693 -0.7562
  460MOL0     H63473  10.885  12.221   4.962 -1.1758  0.3367 -1.6213
  460MOL0     H63474  10.668  12.295   5.143  2.0401 -2.7240  0.9808
  460MOL0     H63475  10.648  12.326   4.967  1.8435  1.2982 -0.3358
  460MOL0     H63476  10.967  12.597   5.087  0.6101 -0.2576 -0.1952
  460MOL0     H63477  10.586  11.634   4.843  1.4403  1.7781  0.4469
  460MOL0     H63478  10.503  11.390   4.868 -0.6360 -1.6947  0.7971
  460MOL0     H63479  10.329  11.372   4.855 -1.8187  1.4240  0.2106
  460MOL0     H63480  10.404  11.469   4.730  0.4500  1.0638  0.0931
  461MOL0     O63481   0.566   9.944   1.890  0.2147  0.7700  0.3100
  461MOL0     C63482   0.577   9.829   1.839  0.1638 -0.3274 -0.2907
  461MOL0     O63483   0.620   9.800   1.717 -0.5760 -0.0455  0.1696
  461MOL0     C63484   0.694   9.892   1.656 -0.3700 -0.0450  0.6762
  461MOL0     C63485   0.644   9.987   1.565  0.4591 -0.3572  0.1271
  461MOL0     C63486   0.726  10.082   1.511  0.0588  0.2509  1.1136
  461MOL0     C63487   0.865  10.087   1.547 -0.4623 -0.1467 -0.9331
  461MOL0     O63488   0.956  10.169   1.484 -0.2954 -0.5392  0.7472
  461MOL0     C63489   1.007  10.279   1.563 -0.5099 -0.0180  0.0167
  461MOL0     C63490   0.965  10.410   1.492 -0.1144  0.1959 -0.4844
  461MOL0     C63491   0.842  10.453   1.569  0.5591  0.9267 -1.0360
  461MOL0     C63492   0.790  10.590   1.534  0.0692  0.5010  0.0569
  461MOL0     C63493   0.903  10.701   1.539 -0.1016  0.1098 -0.9186
  461MOL0     C63494   0.838  10.838   1.494 -0.2713  0.0024 -0.2918
  461MOL0     C63495   0.943  10.950   1.477  1.4656 -0.0380  0.1973
  461MOL0     C63496   1.021  10.989   1.599  0.2127 -0.4841  0.3758
  461MOL0     N63497   1.165  10.963   1.606 -0.4961  0.3914 -0.0747
  461MOL0     C63498   1.262  11.065   1.595 -0.0697  0.9931 -0.3472
  461MOL0     C63499   1.374  10.999   1.644 -0.9503  0.2412 -0.7020
  461MOL0     C63500   1.518  11.057   1.647  0.0148  0.6683  0.8541
  461MOL0     C63501   1.545  11.090   1.791 -0.4418  0.7609 -0.7952
  461MOL0     C63502   1.688  11.149   1.801 -0.6909  0.3313  0.4495
  461MOL0     C63503   1.704  11.235   1.925 -0.2258  0.7316 -0.4633
  461MOL0     O63504   1.833  11.295   1.933 -0.5268  1.5281  0.1066
  461MOL0     C63505   1.934  11.200   1.957  0.8189 -0.0816  0.3805
  461MOL0     C63506   2.059  11.252   1.944 -0.1436 -0.8737  0.7155
  461MOL0     C63507   2.173  11.182   1.968 -0.3079  0.6480 -0.1626
  461MOL0     C63508   2.298  11.270   1.937  0.3206 -0.3204 -0.7868
  461MOL0     C63509   2.155  11.048   2.018 -0.3262 -0.4573  0.5665
  461MOL0     C63510   2.268  10.954   2.045  0.0117 -0.2606 -0.8674
  461MOL0     O63511   2.263  10.819   2.012 -0.3542 -0.3707 -0.2787
  461MOL0     C63512   2.381  10.755   2.003 -0.7628  0.6758  0.3577
  461MOL0     C63513   2.497  10.795   1.932 -0.1498 -0.3882 -0.4919
  461MOL0     C63514   2.605  10.717   1.919 -0.3951  0.1737  0.1877
  461MOL0     C63515   2.600  10.579   1.958  0.2610  1.0828 -0.9575
  461MOL0     O63516   2.711  10.510   1.927  0.6607 -0.7800  0.6563
  461MOL0     C63517   2.706  10.371   1.915  0.0323  0.3884 -0.4430
  461MOL0     C63518   2.825  10.337   1.813  0.2108  0.4525  0.1615
  461MOL0     C63519   2.970  10.369   1.865 -0.9014  0.5545 -0.5607
  461MOL0     C63520   3.090  10.336   1.772  0.8104  0.4719  0.3177
  461MOL0     C63521   3.215  10.403   1.831  0.5665 -0.3891  0.4194
  461MOL0     C63522   3.341  10.399   1.755  0.3931  0.2591  0.2513
  461MOL0     C63523   3.458  10.471   1.816  0.9496  0.6702 -0.4285
  461MOL0     C63524   3.471  10.623   1.791  0.3865 -0.1856  0.3774
  461MOL0    Cl63525   3.465  10.683   1.619  0.1039  0.2140 -0.5267
  461MOL0     C63526   2.482  10.524   2.010  0.4836 -0.5457 -0.0412
  461MOL0     C63527   2.374  10.615   2.032  0.9949  0.2407  0.1033
  461MOL0     O63528   2.365  11.009   2.093 -0.5038 -0.2942 -0.5875
  461MOL0     C63529   2.029  10.988   2.029  1.0673 -2.1980  0.9285
  461MOL0     C63530   1.916  11.062   1.996 -0.1649 -0.1198  0.2384
  461MOL0     N63531   1.349  10.862   1.671  0.4457 -1.0940 -0.7266
  461MOL0     N63532   1.225  10.848   1.651  0.7354 -0.4196  0.2883
  461MOL0     C63533   0.917   9.987   1.629  0.2038 -1.2898 -0.0964
  461MOL0     C63534   0.831   9.905   1.690  0.1481 -0.1979 -0.6303
  461MOL0     C63535   0.568   9.714   1.933  0.2428  0.3663  0.3676
  461MOL0     C63536   0.647   9.598   1.906 -0.4825 -0.2106  0.0909
  461MOL0     C63537   0.619   9.488   1.970 -0.0063  1.1528  0.1601
  461MOL0     C63538   0.536   9.470   2.080 -0.1478  0.3754  0.5289
  461MOL0     O63539   0.517   9.345   2.132  0.5204 -0.1122  1.1557
  461MOL0     C63540   0.426   9.324   2.239  0.1360 -0.1314  0.1096
  461MOL0     C63541   0.442   9.182   2.285  0.4963 -0.2273 -0.4426
  461MOL0     C63542   0.385   9.073   2.190  0.5911  0.3490 -0.1554
  461MOL0     C63543   0.458   8.939   2.188  0.0132 -0.9840  0.0761
  461MOL0     C63544   0.418   8.858   2.082  0.0382 -0.7163  0.5987
  461MOL0     C63545   0.365   8.800   1.987 -0.1168  0.3618 -0.7607
  461MOL0     C63546   0.458   9.581   2.105  0.1114 -0.3712  0.9311
  461MOL0     C63547   0.470   9.704   2.036 -0.7671  0.3765  1.2792
  461MOL0     C63548   0.379   9.811   2.075 -0.1551  0.5750  0.0643
  461MOL0     H63549   0.544   9.973   1.526  0.2485 -2.6881  1.3401
  461MOL0     H63550   0.708  10.143   1.424 -0.7878 -1.9237 -0.3163
  461MOL0     H63551   1.116  10.276   1.555 -0.3610 -2.4963  1.6618
  461MOL0     H63552   0.969  10.282   1.665 -0.0234  1.7348  0.1796
  461MOL0     H63553   1.048  10.481   1.498  0.4220 -0.5080  0.6185
  461MOL0     H63554   0.931  10.406   1.388 -0.3242  1.0652 -0.4558
  461MOL0     H63555   0.764  10.379   1.550  2.1968 -1.3603  0.5379
  461MOL0     H63556   0.858  10.461   1.676 -2.3808  0.2666 -0.4700
  461MOL0     H63557   0.747  10.601   1.434 -0.2447  0.5861  0.2006
  461MOL0     H63558   0.712  10.609   1.608 -1.2487 -2.7965 -0.3118
  461MOL0     H63559   0.961  10.669   1.453 -0.4847  0.8208 -1.4510
  461MOL0     H63560   0.949  10.708   1.638 -0.3691 -0.0099 -0.7856
  461MOL0     H63561   0.787  10.821   1.399 -0.9834 -0.9377  0.2445
  461MOL0     H63562   0.770  10.888   1.563  1.7617  3.0637 -0.2895
  461MOL0     H63563   0.885  11.035   1.440 -2.8775 -1.9842  1.8736
  461MOL0     H63564   1.005  10.917   1.393  1.1975  0.9787 -0.4134
  461MOL0     H63565   1.002  11.090   1.637  0.6193 -0.3912  0.3404
  461MOL0     H63566   0.969  10.934   1.678 -4.6546  3.5626  0.4728
  461MOL0     H63567   1.243  11.163   1.552 -0.4683  1.7846  1.5319
  461MOL0     H63568   1.522  11.152   1.593 -1.2399  0.7971  0.9558
  461MOL0     H63569   1.597  10.990   1.612 -1.6111  0.2791 -2.4207
  461MOL0     H63570   1.479  11.173   1.819 -0.0835  1.0126 -0.6866
  461MOL0     H63571   1.538  10.999   1.851 -1.3384  1.8155  0.7653
  461MOL0     H63572   1.752  11.061   1.789  0.2663  1.2927 -2.3771
  461MOL0     H63573   1.722  11.212   1.718 -1.1409 -2.1744 -1.7764
  461MOL0     H63574   1.644  11.326   1.928  1.0071  1.5566  1.6762
  461MOL0     H63575   1.677  11.179   2.015 -0.9078  1.5549 -0.1464
  461MOL0     H63576   2.050  11.356   1.913 -0.4201 -1.6696 -2.1849
  461MOL0     H63577   2.372  11.257   2.017  1.8272 -0.0553 -2.0878
  461MOL0     H63578   2.265  11.374   1.933 -0.9072 -0.6127  0.7000
  461MOL0     H63579   2.339  11.243   1.839  0.8911  0.9539 -0.9169
  461MOL0     H63580   2.510  10.893   1.886 -0.5112 -0.5221 -0.8897
  461MOL0     H63581   2.690  10.771   1.881 -2.9181  1.5720 -4.2973
  461MOL0     H63582   2.735  10.332   2.013  1.9631 -0.2773 -1.2309
  461MOL0     H63583   2.605  10.348   1.882 -0.3331  1.1620  0.0940
  461MOL0     H63584   2.816  10.234   1.775  0.3637  0.4480  0.1378
  461MOL0     H63585   2.809  10.404   1.729  1.7187  1.9153  0.9915
  461MOL0     H63586   2.986  10.328   1.965  2.1745 -2.0255 -1.9058
  461MOL0     H63587   2.979  10.476   1.885 -0.3164  0.2276  1.1535
  461MOL0     H63588   3.060  10.376   1.675  3.7378  2.8669  0.2670
  461MOL0     H63589   3.109  10.229   1.764 -1.1777  0.1858 -1.4260
  461MOL0     H63590   3.195  10.509   1.850 -2.2370 -0.2410 -2.5908
  461MOL0     H63591   3.237  10.350   1.925 -0.4775  0.8794  1.4071
  461MOL0     H63592   3.332  10.446   1.657 -1.1801  3.0161  1.5888
  461MOL0     H63593   3.373  10.295   1.739 -1.2364 -0.3626  0.8250
  461MOL0     H63594   3.547  10.424   1.771 -1.5804 -2.5644 -2.4751
  461MOL0     H63595   3.470  10.453   1.923  0.9453  0.9249 -0.3851
  461MOL0     H63596   3.569  10.649   1.831  0.9766  0.3606 -1.3523
  461MOL0     H63597   3.397  10.672   1.856  1.0809 -0.1676  1.1678
  461MOL0     H63598   2.463  10.423   2.044 -0.9264 -0.3192 -0.0736
  461MOL0     H63599   2.284  10.572   2.074  1.0690  1.8621  2.0640
  461MOL0     H63600   2.033  10.885   2.063  2.5905 -3.7827 -3.3044
  461MOL0     H63601   1.821  11.011   2.011  0.0491 -0.6994 -0.3022
  461MOL0     H63602   1.022   9.981   1.657  0.1669 -1.1441  0.0769
  461MOL0     H63603   0.871   9.834   1.762  1.8975  0.4375 -0.9280
  461MOL0     H63604   0.712   9.595   1.820 -0.7662  0.2166 -0.1443
  461MOL0     H63605   0.674   9.403   1.930 -1.8562 -1.7084  3.1697
  461MOL0     H63606   0.440   9.386   2.328 -2.4468 -1.4213  1.5332
  461MOL0     H63607   0.324   9.337   2.201  0.0291  0.4349  0.5649
  461MOL0     H63608   0.381   9.171   2.375 -0.0878 -1.5077 -0.9545
  461MOL0     H63609   0.547   9.167   2.310  0.3304  0.5729  0.8149
  461MOL0     H63610   0.281   9.051   2.214 -0.1756 -0.1795 -3.4298
  461MOL0     H63611   0.378   9.121   2.092  1.5279  0.3925 -0.2123
  461MOL0     H63612   0.422   8.880   2.273 -0.4366 -2.6045 -1.1959
  461MOL0     H63613   0.565   8.938   2.207  0.2561 -1.0846 -1.2028
  461MOL0     H63614   0.338   8.734   1.907  3.3159 -3.4063  0.7914
  461MOL0     H63615   0.393   9.578   2.192  0.6745  3.9937  1.7499
  461MOL0     H63616   0.447   9.892   2.102  3.6464 -2.1412 -0.4782
  461MOL0     H63617   0.312   9.835   1.992 -0.5971  1.9880  0.8077
  461MOL0     H63618   0.305   9.791   2.153 -2.2421  0.7001 -1.7822
  462MOL0     O63619   1.555   8.003   3.293 -0.5930  0.1027  0.2139
  462MOL0     C63620   1.646   8.073   3.330  0.6716  0.8526  0.5857
  462MOL0     O63621   1.622   8.198   3.399  0.3592  0.7919  0.0561
  462MOL0     C63622   1.500   8.207   3.448  0.0702 -0.4874 -0.9424
  462MOL0     C63623   1.381   8.226   3.374  0.0010 -1.3646 -0.2011
  462MOL0     C63624   1.257   8.219   3.428 -0.8463 -0.1507 -0.1777
  462MOL0     C63625   1.248   8.211   3.566  0.2003  0.3224 -0.2339
  462MOL0     O63626   1.127   8.197   3.628  0.6694 -0.4197  0.0185
  462MOL0     C63627   1.001   8.183   3.561  0.3729  0.8367  0.1815
  462MOL0     C63628   0.892   8.143   3.656  0.1548 -1.2681  0.4134
  462MOL0     C63629   0.918   8.019   3.736 -0.8449 -0.0967 -0.4216
  462MOL0     C63630   0.792   7.963   3.810 -0.0258 -0.8379 -0.2366
  462MOL0     C63631   0.831   7.830   3.876  0.1597 -0.2329  0.4024
  462MOL0     C63632   0.886   7.846   4.015  0.5046 -0.0780 -0.4913
  462MOL0     C63633   0.923   7.716   4.105  0.1521  0.3468  0.7520
  462MOL0     C63634   0.807   7.639   4.169  0.1630 -0.2486 -0.0398
  462MOL0     N63635   0.737   7.722   4.262  0.0302  0.3535 -0.4624
  462MOL0     C63636   0.793   7.770   4.380 -0.8262 -0.8867 -0.3330
  462MOL0     C63637   0.698   7.857   4.423  0.2889 -0.5967 -0.4249
  462MOL0     C63638   0.708   7.953   4.533 -0.3736 -0.4212 -0.5422
  462MOL0     C63639   0.652   7.903   4.670  0.2561  0.0528  1.2377
  462MOL0     C63640   0.658   7.989   4.793 -0.8362 -0.3025 -0.1515
  462MOL0     C63641   0.793   8.049   4.839  0.5616  0.1412  0.1001
  462MOL0     O63642   0.902   7.955   4.838  0.3635  0.4230  0.4444
  462MOL0     C63643   0.903   7.861   4.939  0.2899 -0.7182  0.1296
  462MOL0     C63644   1.009   7.773   4.924 -0.2240  0.5881  0.6437
  462MOL0     C63645   1.030   7.673   5.016  0.4768  0.2168  0.4192
  462MOL0     C63646   1.133   7.581   4.981 -0.2131  0.9467 -0.1732
  462MOL0     C63647   0.947   7.669   5.137 -0.4367 -0.0448 -0.4198
  462MOL0     C63648   0.950   7.556   5.242 -0.1954  0.6759  0.7916
  462MOL0     O63649   0.843   7.551   5.324  0.1624  0.3381  0.4582
  462MOL0     C63650   0.823   7.458   5.430 -0.1895 -1.1091  0.0674
  462MOL0     C63651   0.911   7.370   5.483  0.6099  0.2707  0.2118
  462MOL0     C63652   0.863   7.268   5.572  0.1272  0.3708 -0.5586
  462MOL0     C63653   0.727   7.261   5.607  0.1053  0.7873  0.3584
  462MOL0     O63654   0.683   7.159   5.691 -0.3256 -0.0600 -0.0486
  462MOL0     C63655   0.549   7.142   5.729  0.0604  0.0389 -0.4199
  462MOL0     C63656   0.515   6.998   5.771  0.1009  0.8083  0.1058
  462MOL0     C63657   0.594   6.966   5.896  0.4872 -0.2469  1.1798
  462MOL0     C63658   0.558   6.821   5.932  0.1355 -0.2165 -0.1954
  462MOL0     C63659   0.552   6.709   5.819 -0.1386  0.5743 -0.3413
  462MOL0     C63660   0.527   6.573   5.897 -0.0306 -0.0274  0.7716
  462MOL0     C63661   0.510   6.456   5.797 -0.4210  0.7453  0.3899
  462MOL0     C63662   0.383   6.450   5.725 -0.1881 -0.2124 -0.1916
  462MOL0    Cl63663   0.244   6.434   5.830  0.6338 -0.0758  0.0711
  462MOL0     C63664   0.641   7.367   5.563 -0.4173 -0.9585  0.8931
  462MOL0     C63665   0.694   7.465   5.471 -0.2371  0.5371 -0.2207
  462MOL0     O63666   1.053   7.484   5.253 -0.8790 -0.1815  0.7605
  462MOL0     C63667   0.836   7.754   5.143  0.6062  1.3387  0.6048
  462MOL0     C63668   0.819   7.856   5.051  0.5581  0.2080 -0.1229
  462MOL0     N63669   0.585   7.844   4.339 -0.6731  0.4787 -0.5136
  462MOL0     N63670   0.606   7.759   4.244  0.4129  0.6733 -0.0764
  462MOL0     C63671   1.357   8.210   3.655  0.6938  0.3148  0.1882
  462MOL0     C63672   1.483   8.209   3.595  0.2405  0.9695 -0.9465
  462MOL0     C63673   1.788   8.042   3.289  0.2749 -0.7572  0.0435
  462MOL0     C63674   1.886   8.126   3.350 -1.0385 -0.2888 -0.1146
  462MOL0     C63675   2.026   8.126   3.325  0.0260  0.1932  0.0191
  462MOL0     C63676   2.069   8.031   3.239  0.7126 -0.3867  0.3056
  462MOL0     O63677   2.201   8.038   3.228 -0.6111  0.2203  0.5643
  462MOL0     C63678   2.246   7.921   3.153  0.1884  0.6032  0.3266
  462MOL0     C63679   2.396   7.943   3.108 -0.3487  0.1714  0.3041
  462MOL0     C63680   2.413   7.852   2.981 -1.0015  0.4356  0.1455
  462MOL0     C63681   2.571   7.811   2.977 -0.2293 -0.7757  0.5993
  462MOL0     C63682   2.625   7.719   3.080  0.4741  0.4282 -0.5582
  462MOL0     C63683   2.673   7.635   3.154  0.5794  1.1687 -0.0137
  462MOL0     C63684   1.976   7.943   3.181 -0.9136  1.2918  0.1250
  462MOL0     C63685   1.840   7.943   3.199 -0.0591 -0.5377 -0.5010
  462MOL0     C63686   1.746   7.845   3.125  0.0863  0.4512  0.3940
  462MOL0     H63687   1.377   8.234   3.265 -0.2124 -0.9234 -0.1630
  462MOL0     H63688   1.173   8.226   3.360 -0.0381  3.1492 -0.9972
  462MOL0     H63689   0.995   8.109   3.481 -0.6007  1.6492 -0.5305
  462MOL0     H63690   0.977   8.274   3.505  0.5060  0.4859 -0.4585
  462MOL0     H63691   0.873   8.226   3.724  2.5315 -2.3245  2.5199
  462MOL0     H63692   0.799   8.130   3.599  0.8427 -2.1705 -0.5234
  462MOL0     H63693   0.954   7.950   3.658  1.9033  1.3427 -0.5530
  462MOL0     H63694   0.996   8.038   3.810  0.3446  1.0333 -1.8934
  462MOL0     H63695   0.750   8.033   3.883  3.6203  2.1513 -0.7264
  462MOL0     H63696   0.711   7.937   3.741 -1.0181  1.0401  0.1457
  462MOL0     H63697   0.899   7.773   3.812  2.4595  3.4307 -0.7316
  462MOL0     H63698   0.737   7.775   3.883  0.7526 -2.0405 -3.1972
  462MOL0     H63699   0.982   7.900   4.011 -0.2171  1.3192  0.3027
  462MOL0     H63700   0.823   7.920   4.065 -1.6055  0.1964 -3.3159
  462MOL0     H63701   0.997   7.738   4.183  3.2728  1.5329 -2.2756
  462MOL0     H63702   0.981   7.638   4.056  1.3400  2.4114 -1.3348
  462MOL0     H63703   0.750   7.580   4.096  1.3713 -3.1457  1.1775
  462MOL0     H63704   0.849   7.556   4.228  1.6787  1.7155  1.7951
  462MOL0     H63705   0.892   7.762   4.424 -1.7739  2.7491  3.1865
  462MOL0     H63706   0.658   8.045   4.500 -0.3745 -1.1199 -2.6316
  462MOL0     H63707   0.813   7.978   4.552 -0.0746 -2.4195  0.6338
  462MOL0     H63708   0.549   7.873   4.653  0.3536  0.5752 -0.4728
  462MOL0     H63709   0.716   7.816   4.686 -0.3930 -0.6541  0.0859
  462MOL0     H63710   0.581   8.066   4.782 -0.4712  0.3091  1.3589
  462MOL0     H63711   0.606   7.934   4.872 -2.7116 -0.2985 -1.3098
  462MOL0     H63712   0.822   8.123   4.763  2.1168 -0.1638  0.3497
  462MOL0     H63713   0.793   8.111   4.929  1.6160  1.9277 -1.0629
  462MOL0     H63714   1.056   7.786   4.826 -0.7963  1.6993  0.4915
  462MOL0     H63715   1.190   7.598   4.890  1.0067 -1.5169  0.0428
  462MOL0     H63716   1.081   7.486   4.961 -3.4015  2.3434  0.7976
  462MOL0     H63717   1.209   7.569   5.059 -0.8013  0.0762  0.2887
  462MOL0     H63718   1.010   7.375   5.439 -0.5040  2.9550 -2.3047
  462MOL0     H63719   0.929   7.190   5.608  0.2985  0.9961  0.5233
  462MOL0     H63720   0.523   7.209   5.811 -2.0419  1.0147 -1.7911
  462MOL0     H63721   0.483   7.161   5.644 -2.4894  1.2249  1.6766
  462MOL0     H63722   0.410   6.988   5.800  0.1031  1.8011  0.4818
  462MOL0     H63723   0.532   6.932   5.685 -1.1297  0.6411 -0.0244
  462MOL0     H63724   0.577   7.037   5.978  2.2022 -0.1405  1.4946
  462MOL0     H63725   0.700   6.984   5.873  0.4884 -0.1217  1.2800
  462MOL0     H63726   0.463   6.829   5.985  0.0941 -0.6291 -0.2069
  462MOL0     H63727   0.633   6.801   6.008 -0.3608  1.8349  0.9248
  462MOL0     H63728   0.478   6.728   5.741  1.6870  0.4501 -2.1590
  462MOL0     H63729   0.653   6.719   5.778  0.5836  4.3705  1.8659
  462MOL0     H63730   0.447   6.575   5.972 -3.8548  2.2234 -2.8718
  462MOL0     H63731   0.620   6.547   5.947 -0.1038 -1.9939 -0.0163
  462MOL0     H63732   0.503   6.371   5.865  0.6219  0.7238  0.4892
  462MOL0     H63733   0.602   6.464   5.738 -0.2106  1.6184  0.8169
  462MOL0     H63734   0.363   6.366   5.658 -2.6795  0.7612 -0.7842
  462MOL0     H63735   0.365   6.541   5.666 -1.9658 -1.6710 -2.0549
  462MOL0     H63736   0.539   7.375   5.599 -0.1289  2.8294  1.3238
  462MOL0     H63737   0.620   7.533   5.430 -4.8628 -2.4227  2.2882
  462MOL0     H63738   0.762   7.734   5.221 -0.7403 -1.8763 -1.3070
  462MOL0     H63739   0.744   7.931   5.076  0.3725  0.3563 -1.1046
  462MOL0     H63740   1.344   8.220   3.763  0.5530 -1.5818  0.3764
  462MOL0     H63741   1.574   8.220   3.653 -0.5990  1.7157  0.2774
  462MOL0     H63742   1.845   8.195   3.424 -2.5322 -0.3534 -0.8390
  462MOL0     H63743   2.102   8.201   3.342  0.4231  0.0590 -1.0756
  462MOL0     H63744   2.235   7.825   3.202 -0.8465  1.6334  2.2173
  462MOL0     H63745   2.196   7.918   3.056 -1.0876  1.1502  0.9536
  462MOL0     H63746   2.468   7.908   3.182  2.7391 -1.2660 -3.0849
  462MOL0     H63747   2.407   8.049   3.084  0.2982  0.4511  1.7512
  462MOL0     H63748   2.343   7.769   2.982 -1.1198  0.4491  3.3193
  462MOL0     H63749   2.383   7.895   2.885  0.5650 -1.3938 -1.2432
  462MOL0     H63750   2.618   7.907   3.000  3.2517 -1.2332 -3.4748
  462MOL0     H63751   2.621   7.784   2.884  2.3036 -0.6906  1.8656
  462MOL0     H63752   2.731   7.561   3.206 -0.8682  1.8161  2.7256
  462MOL0     H63753   1.999   7.874   3.100  1.7652  0.6149  1.3570
  462MOL0     H63754   1.804   7.791   3.049  2.6588  0.1109  2.4732
  462MOL0     H63755   1.692   7.773   3.187 -0.5728 -1.1069 -1.8384
  462MOL0     H63756   1.671   7.901   3.069  0.6165  0.5031 -0.2776
  463MOL0     O63757   5.072   3.074   9.951 -0.6211 -0.6802 -0.4102
  463MOL0     C63758   5.172   3.137   9.894 -1.0862  0.3208  0.4056
  463MOL0     O63759   5.224   3.118   9.763  0.1309  0.2550  0.2766
  463MOL0     C63760   5.148   3.066   9.661 -0.2101 -0.3629  0.1616
  463MOL0     C63761   5.170   2.940   9.611 -0.7751  0.0286 -0.9908
  463MOL0     C63762   5.087   2.894   9.497 -0.7633  0.4468 -0.0564
  463MOL0     C63763   4.990   2.973   9.438 -0.5037  0.1318 -0.3069
  463MOL0     O63764   4.911   2.935   9.335 -0.1667  0.3061  0.5048
  463MOL0     C63765   4.973   2.886   9.215 -0.9399  0.3995  0.6154
  463MOL0     C63766   4.961   2.740   9.184  0.7913 -0.6634 -0.4537
  463MOL0     C63767   4.822   2.672   9.182 -0.4253 -1.3535 -0.8010
  463MOL0     C63768   4.804   2.574   9.077 -0.0117  0.0813 -0.4685
  463MOL0     C63769   4.891   2.440   9.106 -0.0725 -0.1468 -0.4714
  463MOL0     C63770   4.843   2.329   9.008 -0.6270 -0.1001  0.3543
  463MOL0     C63771   4.897   2.193   9.029 -1.0491  0.0942 -0.6857
  463MOL0     C63772   4.808   2.081   8.981 -0.3922  0.0515 -0.0046
  463MOL0     N63773   4.888   1.958   9.000 -0.9410  0.6510 -0.2553
  463MOL0     C63774   4.968   1.906   8.906 -0.9697  0.1935 -0.5751
  463MOL0     C63775   5.016   1.789   8.952  0.4538 -0.1667  0.0672
  463MOL0     C63776   5.107   1.688   8.869 -0.7242  0.3543 -0.5499
  463MOL0     C63777   5.223   1.627   8.962  0.0092 -0.2830 -0.0780
  463MOL0     C63778   5.315   1.560   8.862  0.4976  0.4677  0.9370
  463MOL0     C63779   5.421   1.477   8.916 -0.3548  0.3287 -0.9172
  463MOL0     O63780   5.499   1.547   9.008  0.1466 -0.0458  0.1812
  463MOL0     C63781   5.478   1.547   9.142 -0.6425 -0.0383 -1.1243
  463MOL0     C63782   5.541   1.653   9.212  0.1753  0.3435  0.3036
  463MOL0     C63783   5.543   1.654   9.359 -0.7875  0.1511 -0.5022
  463MOL0     C63784   5.633   1.757   9.422 -0.1540 -0.0221  0.2858
  463MOL0     C63785   5.459   1.565   9.434 -0.8666  0.8722  0.4674
  463MOL0     C63786   5.451   1.570   9.588  0.7777 -0.5709  0.9540
  463MOL0     O63787   5.442   1.449   9.648 -0.2723 -0.4784  0.1543
  463MOL0     C63788   5.442   1.461   9.787  0.5559  0.8740  0.5835
  463MOL0     C63789   5.330   1.490   9.863  0.6867 -0.4557 -0.2353
  463MOL0     C63790   5.331   1.497  10.005  0.9440 -0.7565 -0.3702
  463MOL0     C63791   5.448   1.481  10.074  0.4329  0.5234 -0.0795
  463MOL0     O63792   5.449   1.494  10.209  0.3272 -0.3926 -0.4534
  463MOL0     C63793   5.553   1.429  10.291 -1.4633 -0.0762 -0.4325
  463MOL0     C63794   5.492   1.389  10.420  0.2312  0.5587  0.5560
  463MOL0     C63795   5.370   1.294  10.403 -0.2760  0.2070 -0.9939
  463MOL0     C63796   5.435   1.156  10.390 -0.0418 -0.6494 -1.0264
  463MOL0     C63797   5.317   1.060  10.363  0.1932 -0.3590  0.7314
  463MOL0     C63798   5.215   1.080  10.247  0.1142 -0.3110 -0.7608
  463MOL0     C63799   5.113   0.967  10.232  0.5680 -0.8109 -0.4780
  463MOL0     C63800   4.992   0.976  10.326 -0.3061  0.5046 -0.6659
  463MOL0    Cl63801   4.875   1.097  10.254 -0.1197 -0.0361 -0.1805
  463MOL0     C63802   5.567   1.450  10.001 -0.1371 -0.1061 -0.2662
  463MOL0     C63803   5.567   1.439   9.859 -0.1879  0.0897  1.2848
  463MOL0     O63804   5.423   1.684   9.634  0.3301 -0.2203 -0.5255
  463MOL0     C63805   5.401   1.460   9.361  1.4841 -0.5035 -1.2842
  463MOL0     C63806   5.410   1.451   9.218 -0.4818 -1.1661 -1.1426
  463MOL0     N63807   4.973   1.777   9.081  0.8229 -0.0211  0.0393
  463MOL0     N63808   4.894   1.874   9.110  0.0780  1.1897  0.1195
  463MOL0     C63809   4.965   3.098   9.498  0.0480  0.0217 -0.1115
  463MOL0     C63810   5.045   3.140   9.609  0.5419 -0.9344 -0.4375
  463MOL0     C63811   5.245   3.233   9.985 -0.8029 -0.1867 -0.3762
  463MOL0     C63812   5.383   3.242   9.965  0.0638 -0.7236  0.5008
  463MOL0     C63813   5.468   3.328  10.036  0.6605  0.0295  0.8863
  463MOL0     C63814   5.404   3.432  10.120 -0.6626  0.8458  0.1295
  463MOL0     O63815   5.485   3.511  10.189 -0.0911 -0.1852 -0.3221
  463MOL0     C63816   5.594   3.579  10.120  0.8974 -0.2422 -0.0381
  463MOL0     C63817   5.726   3.550  10.196 -0.1750 -0.3502 -0.3327
  463MOL0     C63818   5.857   3.609  10.135 -0.8070  0.3531  0.3609
  463MOL0     C63819   5.890   3.757  10.174 -0.2628  1.2094  0.1059
  463MOL0     C63820   5.781   3.851  10.148 -0.3775  0.2927 -0.4232
  463MOL0     C63821   5.691   3.922  10.115 -0.2164 -0.0833 -0.0847
  463MOL0     C63822   5.267   3.416  10.147 -0.4859  0.0066  0.0621
  463MOL0     C63823   5.187   3.317  10.083  0.8226 -0.0028 -0.3808
  463MOL0     C63824   5.040   3.332  10.113 -0.0447  0.5288  0.4107
  463MOL0     H63825   5.246   2.878   9.656 -2.5005  0.6912  3.3263
  463MOL0     H63826   5.119   2.801   9.449  1.6980 -0.0066  2.2057
  463MOL0     H63827   5.078   2.920   9.219 -0.5646 -0.4987 -0.8047
  463MOL0     H63828   4.925   2.939   9.132 -1.2608  1.0108  1.1849
  463MOL0     H63829   5.002   2.732   9.083 -1.6958  0.9331 -1.6840
  463MOL0     H63830   5.019   2.683   9.257  1.7735 -0.2490 -0.8953
  463MOL0     H63831   4.795   2.634   9.281  0.9969 -0.1812  0.0850
  463MOL0     H63832   4.753   2.753   9.158 -0.4921 -0.7371  1.3051
  463MOL0     H63833   4.698   2.545   9.074  0.0487 -0.1182 -0.6894
  463MOL0     H63834   4.820   2.614   8.977 -0.5494 -0.2204 -0.6817
  463MOL0     H63835   4.889   2.406   9.210  0.9054 -2.6019 -1.1804
  463MOL0     H63836   4.993   2.465   9.075 -0.2393 -1.0715 -1.8343
  463MOL0     H63837   4.735   2.309   9.012 -0.5629 -0.4538  0.3944
  463MOL0     H63838   4.868   2.363   8.907  3.2604  0.1979  1.2418
  463MOL0     H63839   4.913   2.183   9.137  0.1309 -0.4717 -0.8978
  463MOL0     H63840   4.998   2.186   8.987 -0.6285 -1.0098  0.4392
  463MOL0     H63841   4.718   2.084   9.042  0.6022  0.6288  1.4889
  463MOL0     H63842   4.792   2.090   8.873 -0.2505 -0.5432 -0.0791
  463MOL0     H63843   4.975   1.960   8.813 -3.4986  0.5791 -0.6008
  463MOL0     H63844   5.145   1.740   8.781 -1.1949  0.9668 -0.3968
  463MOL0     H63845   5.047   1.601   8.841  1.3298 -0.5574 -2.4177
  463MOL0     H63846   5.272   1.711   9.012  0.9600  0.8975 -2.7876
  463MOL0     H63847   5.176   1.549   9.023 -0.3402  1.5329  2.1019
  463MOL0     H63848   5.263   1.492   8.794  0.1975  2.2749 -0.7454
  463MOL0     H63849   5.355   1.638   8.796  0.8979  2.5819  3.5307
  463MOL0     H63850   5.401   1.384   8.971  4.9378  1.1050  3.1598
  463MOL0     H63851   5.490   1.458   8.834  1.0577 -1.1518  0.5467
  463MOL0     H63852   5.573   1.737   9.152  1.3594  1.9386  2.9785
  463MOL0     H63853   5.582   1.842   9.469  1.3504  0.8918  0.3150
  463MOL0     H63854   5.710   1.788   9.350 -0.5212 -2.7860 -1.4531
  463MOL0     H63855   5.700   1.717   9.497  2.1871  2.8418 -0.0876
  463MOL0     H63856   5.236   1.512   9.815 -0.3433 -1.2197  1.3284
  463MOL0     H63857   5.237   1.508  10.059 -0.1877  3.9070 -2.7694
  463MOL0     H63858   5.606   1.348  10.240  1.7475  1.4691  0.2632
  463MOL0     H63859   5.643   1.489  10.302  0.9393 -3.0988 -1.9443
  463MOL0     H63860   5.565   1.341  10.486  0.3498 -2.2075 -1.4258
  463MOL0     H63861   5.440   1.471  10.471  1.2035  0.1880  2.1988
  463MOL0     H63862   5.313   1.313  10.311  0.7620 -1.0481 -1.9183
  463MOL0     H63863   5.311   1.308  10.494  1.9161  1.4618  0.3210
  463MOL0     H63864   5.485   1.122  10.481  0.1568  2.7608  0.3156
  463MOL0     H63865   5.506   1.153  10.307  2.7191  1.6133  1.0318
  463MOL0     H63866   5.368   0.965  10.341 -1.4457 -0.7310 -1.9529
  463MOL0     H63867   5.253   1.055  10.451 -2.7293  1.6795 -1.1136
  463MOL0     H63868   5.270   1.099  10.154  0.0611  1.2018 -0.5062
  463MOL0     H63869   5.169   1.178  10.261  0.2380 -0.4134  0.4925
  463MOL0     H63870   5.164   0.873  10.253  4.8860  0.6871 -2.9487
  463MOL0     H63871   5.102   0.960  10.124  1.1318 -2.4140 -0.4642
  463MOL0     H63872   5.018   1.024  10.420 -1.9322 -0.4964  0.3523
  463MOL0     H63873   4.943   0.880  10.348 -1.4205  1.6723  2.3772
  463MOL0     H63874   5.658   1.437  10.059  0.9901  1.1940 -1.6437
  463MOL0     H63875   5.657   1.421   9.802 -1.2041 -0.2356 -0.3087
  463MOL0     H63876   5.331   1.400   9.420  0.6898  0.6293 -1.0425
  463MOL0     H63877   5.345   1.377   9.174 -3.5536  0.0158  1.0317
  463MOL0     H63878   4.892   3.164   9.454 -3.1712 -1.0330  3.0848
  463MOL0     H63879   5.027   3.239   9.649 -1.4259 -1.5644  0.3470
  463MOL0     H63880   5.435   3.168   9.906  0.2500  0.6144 -1.0825
  463MOL0     H63881   5.573   3.340  10.009  0.0080  3.5061 -0.7884
  463MOL0     H63882   5.606   3.555  10.014  0.9232 -1.2891  0.1910
  463MOL0     H63883   5.571   3.685  10.131  1.5685 -0.1722  0.7781
  463MOL0     H63884   5.748   3.443  10.191  3.4939  0.3262 -2.4470
  463MOL0     H63885   5.714   3.579  10.300  2.1907  0.7478 -0.2883
  463MOL0     H63886   5.939   3.543  10.165 -1.0398  0.4940  1.3439
  463MOL0     H63887   5.842   3.597  10.028 -1.3441  0.8754  0.3740
  463MOL0     H63888   5.973   3.796  10.114  0.6472  1.3171  1.3982
  463MOL0     H63889   5.923   3.758  10.278 -0.3600  0.7424  0.1443
  463MOL0     H63890   5.614   3.985  10.076 -0.3276  0.5388  1.0667
  463MOL0     H63891   5.227   3.486  10.220 -2.3525  0.4010 -1.2639
  463MOL0     H63892   5.016   3.366  10.214 -2.3338 -1.1566  0.5178
  463MOL0     H63893   5.000   3.395  10.034 -0.0129 -2.3937 -2.1538
  463MOL0     H63894   4.985   3.238  10.102  1.1971  0.0515 -2.8960
  464MOL0     O63895   2.355   0.159  11.544 -0.3297  0.5754 -0.1590
  464MOL0     C63896   2.462   0.186  11.500 -1.0071 -0.8565  0.0854
  464MOL0     O63897   2.564   0.247  11.574 -0.3204 -0.4183 -0.3506
  464MOL0     C63898   2.544   0.297  11.708  1.1520 -0.3256 -0.7083
  464MOL0     C63899   2.424   0.369  11.750 -0.1103  0.0365 -0.7902
  464MOL0     C63900   2.412   0.426  11.877  0.1707 -0.3290 -0.8702
  464MOL0     C63901   2.505   0.385  11.972 -0.3978  0.3055 -0.0536
  464MOL0     O63902   2.494   0.414  12.112 -0.1850  0.0671  0.6620
  464MOL0     C63903   2.407   0.525  12.145  0.9026  0.8031 -0.4485
  464MOL0     C63904   2.440   0.586  12.282 -0.3193  0.2298  0.9995
  464MOL0     C63905   2.377   0.526  12.409  0.0909  0.7457 -0.2821
  464MOL0     C63906   2.435   0.384  12.430 -0.4319 -0.2510  0.3485
  464MOL0     C63907   2.365   0.325  12.555 -0.4255  0.3259  0.0365
  464MOL0     C63908   2.448   0.202  12.591  0.5412 -0.7279  0.1806
  464MOL0     C63909   2.423   0.151  12.731 -0.0081  0.1306 -0.0651
  464MOL0     C63910   2.507   0.024  12.773  0.2500  0.1163 -0.3573
  464MOL0     N63911   2.514   0.003  12.923  0.1781  0.7420  0.5179
  464MOL0     C63912   2.450   0.078  13.017  0.4324  0.0175  0.1528
  464MOL0     C63913   2.503   0.034  13.135 -0.0858  0.4612  0.8525
  464MOL0     C63914   2.444   0.074  13.266  0.0270  0.0064  0.0195
  464MOL0     C63915   2.348  -0.037  13.325 -0.5642 -0.3932 -0.4589
  464MOL0     C63916   2.200  -0.010  13.317  0.5319  0.5488  0.0662
  464MOL0     C63917   2.144   0.090  13.418  0.6552 -0.3163 -0.6844
  464MOL0     O63918   2.179   0.223  13.374 -1.4961 -0.5615 -0.9362
  464MOL0     C63919   2.184   0.320  13.472  0.8780  0.1085  0.4016
  464MOL0     C63920   2.127   0.318  13.604  0.0354 -0.9500 -0.8640
  464MOL0     C63921   2.115   0.439  13.685  0.1083 -0.0482  0.3932
  464MOL0     C63922   2.043   0.436  13.814 -0.5265 -0.0356 -0.1202
  464MOL0     C63923   2.176   0.561  13.642  0.0150 -0.2455 -0.4364
  464MOL0     C63924   2.198   0.673  13.736  0.1448 -0.6013  0.2594
  464MOL0     O63925   2.175   0.800  13.683 -0.2724 -0.1235 -0.0742
  464MOL0     C63926   2.212   0.918  13.747  0.2041 -0.0662  0.0446
  464MOL0     C63927   2.348   0.952  13.765 -0.2969 -0.3607  0.5762
  464MOL0     C63928   2.371   1.072  13.838  0.1268 -1.3689  0.7531
  464MOL0     C63929   2.273   1.159  13.896  0.2450  0.4313  0.0564
  464MOL0     O63930   2.322   1.263  13.966  0.2035 -0.3405 -0.0946
  464MOL0     C63931   2.237   1.376  13.994  0.9064 -0.0221 -0.9036
  464MOL0     C63932   2.296   1.503  13.932  0.0400  0.6202 -0.0397
  464MOL0     C63933   2.429   1.533  13.983  0.0351 -0.3008  0.3212
  464MOL0     C63934   2.427   1.647  14.086 -0.1326  0.0129  1.8931
  464MOL0     C63935   2.563   1.651  14.152  0.8384  1.1749  1.3639
  464MOL0     C63936   2.546   1.777  14.238 -0.3809 -0.7049 -0.4121
  464MOL0     C63937   2.665   1.758  14.339  0.1840  0.5467  0.5038
  464MOL0     C63938   2.695   1.877  14.434 -0.6479  1.1976  0.3199
  464MOL0    Cl63939   2.861   1.848  14.498 -0.2378 -0.3702  0.3034
  464MOL0     C63940   2.144   1.113  13.892 -0.8971 -0.4351 -0.3357
  464MOL0     C63941   2.113   0.992  13.819  0.0713  1.4077 -0.3690
  464MOL0     O63942   2.248   0.650  13.845  0.6183 -0.1469  0.7085
  464MOL0     C63943   2.238   0.557  13.516  0.6606 -0.9504  0.2582
  464MOL0     C63944   2.241   0.445  13.431 -0.9448 -0.0964  0.6803
  464MOL0     N63945   2.601  -0.069  13.111 -0.4998 -1.2395 -0.3805
  464MOL0     N63946   2.614  -0.069  12.978  0.7463  0.1309  0.5041
  464MOL0     C63947   2.618   0.314  11.933  0.2065  0.2644 -0.6641
  464MOL0     C63948   2.644   0.275  11.804  1.1747  0.5542  0.8853
  464MOL0     C63949   2.492   0.153  11.358 -0.7110 -0.0327 -0.0973
  464MOL0     C63950   2.619   0.108  11.325 -0.3980 -0.0010  0.1465
  464MOL0     C63951   2.658   0.072  11.197  0.1444 -0.0350 -0.0597
  464MOL0     C63952   2.569   0.074  11.096  0.3689 -0.1681  0.0228
  464MOL0     O63953   2.619   0.043  10.968  0.7673  0.2298  0.5464
  464MOL0     C63954   2.522   0.044  10.862  0.6778  0.5291 -0.1217
  464MOL0     C63955   2.464   0.184  10.825 -0.4409  0.0011 -0.3405
  464MOL0     C63956   2.577   0.269  10.761 -0.4844  0.1164 -0.2382
  464MOL0     C63957   2.527   0.400  10.700 -0.0581 -1.0068  0.1074
  464MOL0     C63958   2.638   0.494  10.689 -0.3578 -0.5755  0.3679
  464MOL0     C63959   2.738   0.569  10.694  0.3301  0.5665  0.5702
  464MOL0     C63960   2.429   0.101  11.130 -0.7943  0.7582  0.5072
  464MOL0     C63961   2.394   0.151  11.254 -0.6105 -0.1855  0.0765
  464MOL0     C63962   2.252   0.206  11.273 -0.6451 -0.8703  0.5264
  464MOL0     H63963   2.350   0.381  11.671  0.9837  4.3955 -1.3788
  464MOL0     H63964   2.333   0.489  11.916  0.4805 -0.6863  0.3740
  464MOL0     H63965   2.301   0.501  12.158  1.5634 -2.2066  0.1009
  464MOL0     H63966   2.404   0.604  12.069  0.6567  2.5459  1.2814
  464MOL0     H63967   2.549   0.578  12.288 -0.3414 -1.1361  0.1305
  464MOL0     H63968   2.411   0.691  12.272  0.6242  0.4008 -0.1601
  464MOL0     H63969   2.399   0.588  12.496 -0.2661  1.1148 -0.4542
  464MOL0     H63970   2.268   0.527  12.408  0.0633  1.0889  1.0399
  464MOL0     H63971   2.403   0.324  12.344  0.7676  0.6526 -0.7626
  464MOL0     H63972   2.544   0.379  12.426 -0.3912  0.8678 -0.2068
  464MOL0     H63973   2.260   0.304  12.535 -0.1854  0.8492 -2.0091
  464MOL0     H63974   2.358   0.394  12.640 -1.9032 -0.0786  0.2754
  464MOL0     H63975   2.408   0.130  12.519 -2.4210  0.2011  0.7312
  464MOL0     H63976   2.552   0.233  12.581 -0.5448  4.0116  1.1005
  464MOL0     H63977   2.320   0.115  12.738  1.3524 -4.4371 -0.1651
  464MOL0     H63978   2.447   0.236  12.794  0.5384  0.5517 -0.8232
  464MOL0     H63979   2.466  -0.064  12.724 -1.6582  0.2212  0.9417
  464MOL0     H63980   2.610   0.026  12.736 -0.2201 -0.5913 -1.7571
  464MOL0     H63981   2.371   0.149  12.996  0.1898  0.0541  1.1123
  464MOL0     H63982   2.397   0.173  13.265 -1.2316 -0.4664  3.0576
  464MOL0     H63983   2.532   0.081  13.329  0.3004  0.1857 -0.3754
  464MOL0     H63984   2.361  -0.131  13.271  1.0178 -1.0748  1.0174
  464MOL0     H63985   2.375  -0.066  13.426  0.7634 -0.9143 -0.9430
  464MOL0     H63986   2.170   0.008  13.213  0.0910  0.6217  0.2012
  464MOL0     H63987   2.151  -0.107  13.325 -1.0013  1.3755  1.1860
  464MOL0     H63988   2.035   0.082  13.414  0.5051 -0.3271  1.9975
  464MOL0     H63989   2.174   0.070  13.521 -1.8472  1.7964  0.5740
  464MOL0     H63990   2.092   0.226  13.649  0.9441 -2.3410 -2.8865
  464MOL0     H63991   2.001   0.536  13.827  0.3405  0.5359 -1.4597
  464MOL0     H63992   2.110   0.431  13.900  1.3977  0.8419 -1.4744
  464MOL0     H63993   1.954   0.372  13.812 -1.0156  0.5511 -3.5241
  464MOL0     H63994   2.429   0.892  13.725 -0.1237 -0.5122  1.1428
  464MOL0     H63995   2.473   1.100  13.860  0.1245 -0.1789 -0.6601
  464MOL0     H63996   2.133   1.368  13.962  0.3716 -0.9567  0.9178
  464MOL0     H63997   2.227   1.383  14.103 -0.5609 -2.1482 -0.8436
  464MOL0     H63998   2.312   1.479  13.827  2.0410  0.7069  0.2148
  464MOL0     H63999   2.221   1.583  13.940  0.4756  0.8333  3.2541
  464MOL0     H64000   2.488   1.574  13.900 -0.9544 -0.1585 -0.3215
  464MOL0     H64001   2.476   1.447  14.032 -3.7879 -1.5541  2.2014
  464MOL0     H64002   2.355   1.620  14.165  0.0957 -1.4163  1.6392
  464MOL0     H64003   2.416   1.747  14.043 -1.9432 -0.7609  0.4358
  464MOL0     H64004   2.578   1.561  14.213 -0.8952 -0.6677 -0.7420
  464MOL0     H64005   2.643   1.664  14.079 -2.0366  3.8831 -1.6374
  464MOL0     H64006   2.451   1.783  14.292 -0.1066  0.7999 -0.0341
  464MOL0     H64007   2.566   1.867  14.178 -0.9791  0.5678  1.1999
  464MOL0     H64008   2.763   1.736  14.296 -0.6679 -0.9258 -0.8194
  464MOL0     H64009   2.647   1.669  14.399 -0.6990  0.0861 -0.4042
  464MOL0     H64010   2.616   1.891  14.509 -1.7505  0.3247 -0.6415
  464MOL0     H64011   2.714   1.971  14.380  0.9607  0.4082 -0.5607
  464MOL0     H64012   2.071   1.176  13.941  2.7226  3.0131  1.1499
  464MOL0     H64013   2.017   0.942  13.811  2.5808 -4.2525 -0.0950
  464MOL0     H64014   2.281   0.643  13.466 -1.2363  0.0898  0.2936
  464MOL0     H64015   2.290   0.455  13.335  1.8354  1.5396  2.1514
  464MOL0     H64016   2.686   0.288  12.013 -1.3413 -2.3387 -0.0765
  464MOL0     H64017   2.729   0.212  11.780 -0.0212 -0.7902 -0.0297
  464MOL0     H64018   2.691   0.103  11.407  1.0526 -1.3178 -1.1373
  464MOL0     H64019   2.758   0.043  11.166  0.3473 -1.2662  1.6183
  464MOL0     H64020   2.562   0.000  10.770 -0.0825 -2.0680  0.6997
  464MOL0     H64021   2.435  -0.016  10.889 -0.2880  1.4370 -1.0655
  464MOL0     H64022   2.421   0.239  10.909 -2.2495 -1.2050 -0.4300
  464MOL0     H64023   2.392   0.173  10.743  1.0203  0.8200 -1.7873
  464MOL0     H64024   2.646   0.298  10.841  0.5592  0.1655 -1.1509
  464MOL0     H64025   2.633   0.210  10.688 -1.0131 -1.7193  0.7605
  464MOL0     H64026   2.440   0.450  10.744  0.3498 -0.1701 -0.0196
  464MOL0     H64027   2.497   0.384  10.596  1.5705 -1.5144 -0.3167
  464MOL0     H64028   2.827   0.628  10.700  0.2518  0.8420 -0.6580
  464MOL0     H64029   2.363   0.093  11.045  0.4130  0.2537 -0.4127
  464MOL0     H64030   2.268   0.308  11.310  0.5018 -0.2955 -1.4053
  464MOL0     H64031   2.188   0.207  11.184 -1.5312 -0.1215  1.1497
  464MOL0     H64032   2.208   0.137  11.346 -0.4485 -0.9413  0.5771
  465MOL0     O64033  11.133   2.255   1.426  0.7502  0.2768 -0.7733
  465MOL0     C64034  11.236   2.253   1.360 -0.4635 -0.4548 -1.1848
  465MOL0     O64035  11.366   2.275   1.410 -0.1695 -0.5132 -0.4764
  465MOL0     C64036  11.394   2.271   1.543  0.4753 -0.7899  0.0659
  465MOL0     C64037  11.508   2.341   1.581  0.6432 -0.7500 -0.3127
  465MOL0     C64038  11.557   2.334   1.709  0.1383  0.5264 -0.6076
  465MOL0     C64039  11.479   2.271   1.821  0.5243  0.3321 -0.0511
  465MOL0     O64040  11.529   2.269   1.936 -0.6851 -0.8628 -0.5137
  465MOL0     C64041  11.519   2.137   2.003  0.8366  0.6346 -0.0766
  465MOL0     C64042  11.408   2.135   2.108  0.1620  0.8399 -0.0007
  465MOL0     C64043  11.424   2.240   2.217  0.5417  0.2034 -0.2465
  465MOL0     C64044  11.306   2.249   2.322  0.6832 -0.0364  0.4693
  465MOL0     C64045  11.291   2.387   2.405  0.7571 -0.3759 -0.0555
  465MOL0     C64046  11.249   2.505   2.316 -0.3674  0.3237 -0.5580
  465MOL0     C64047  11.236   2.633   2.390  0.7490  0.7154 -0.0318
  465MOL0     C64048  11.225   2.752   2.295  0.3692  0.9535 -0.3715
  465MOL0     N64049  11.098   2.771   2.240 -0.2883  0.5677  0.4988
  465MOL0     C64050  11.055   2.727   2.110  0.6149 -0.6580 -0.4176
  465MOL0     C64051  10.927   2.770   2.103  0.0999 -0.4044  0.5804
  465MOL0     C64052  10.833   2.715   2.001 -0.5197  0.5444 -0.8203
  465MOL0     C64053  10.737   2.622   2.073  0.4397 -0.1492  0.7060
  465MOL0     C64054  10.651   2.537   1.966  0.5554  0.4524 -1.3627
  465MOL0     C64055  10.509   2.594   1.951 -0.6045  0.1212  0.7765
  465MOL0     O64056  10.422   2.573   2.059  0.8716 -0.3193 -0.7647
  465MOL0     C64057  10.284   2.555   2.041 -0.9173  0.1312 -1.0866
  465MOL0     C64058  10.220   2.527   1.923  1.3561 -0.0956  1.0632
  465MOL0     C64059  10.080   2.501   1.918  0.3915 -0.0076  0.3166
  465MOL0     C64060  10.028   2.445   1.786 -0.0237  0.1651  0.1256
  465MOL0     C64061  10.008   2.510   2.040 -0.0246  0.6353 -0.6494
  465MOL0     C64062   9.857   2.496   2.043  0.5449  0.2153  0.8234
  465MOL0     O64063   9.794   2.478   2.161  0.5051  0.2253 -0.0730
  465MOL0     C64064   9.658   2.516   2.174  0.5076  0.4096  1.7005
  465MOL0     C64065   9.573   2.437   2.241 -0.3679  0.2363  0.0663
  465MOL0     C64066   9.439   2.471   2.253  0.3016  0.0820  0.6644
  465MOL0     C64067   9.382   2.591   2.197 -0.3606 -0.0934 -0.2207
  465MOL0     O64068   9.248   2.635   2.210 -0.3094 -0.5417 -1.0448
  465MOL0     C64069   9.173   2.547   2.285  0.5102  0.1728 -1.0103
  465MOL0     C64070   9.044   2.618   2.331 -0.1650 -0.1790 -0.4578
  465MOL0     C64071   8.955   2.686   2.223  0.4014  0.7482  0.1246
  465MOL0     C64072   8.878   2.578   2.139  0.3050 -0.0589  0.5051
  465MOL0     C64073   8.781   2.648   2.045  0.0492  0.7546  0.7272
  465MOL0     C64074   8.843   2.707   1.917 -0.3853 -0.2020  0.6292
  465MOL0     C64075   8.746   2.796   1.828  0.0548  0.5893 -0.7191
  465MOL0     C64076   8.828   2.887   1.736 -0.6749  0.5014 -0.0920
  465MOL0    Cl64077   8.914   2.767   1.623  0.1281  0.4532  0.0858
  465MOL0     C64078   9.467   2.669   2.114 -0.1201 -0.0896 -0.5528
  465MOL0     C64079   9.601   2.637   2.106  0.0955  1.7770 -0.1821
  465MOL0     O64080   9.790   2.497   1.932 -0.0544  0.0330 -0.2358
  465MOL0     C64081  10.078   2.543   2.163 -0.0568  0.1819  0.0835
  465MOL0     C64082  10.213   2.552   2.163 -0.5346  0.6232  0.1948
  465MOL0     N64083  10.889   2.824   2.223 -0.5226  0.5075 -0.3055
  465MOL0     N64084  10.991   2.833   2.299 -1.1936  0.6838  0.0709
  465MOL0     C64085  11.365   2.203   1.778  0.2125 -0.1303 -0.2746
  465MOL0     C64086  11.315   2.206   1.644  0.8019 -0.6706 -0.4530
  465MOL0     C64087  11.224   2.228   1.218 -0.2895  0.4933  1.2408
  465MOL0     C64088  11.334   2.165   1.154  0.5066  0.5987  0.2232
  465MOL0     C64089  11.334   2.152   1.017  0.2559  0.9389  0.4260
  465MOL0     C64090  11.224   2.177   0.942  0.1904 -0.2646  0.1861
  465MOL0     O64091  11.225   2.130   0.811  0.2177  0.0586 -0.2799
  465MOL0     C64092  11.346   2.159   0.730  0.5103  0.5430  0.1819
  465MOL0     C64093  11.323   2.176   0.583  0.1153 -0.1554  0.8554
  465MOL0     C64094  11.460   2.180   0.509  0.1482  0.7253 -0.6253
  465MOL0     C64095  11.554   2.299   0.538 -0.1485 -0.0153 -0.6371
  465MOL0     C64096  11.678   2.312   0.459  0.1660 -0.0555 -0.0277
  465MOL0     C64097  11.772   2.340   0.390  1.0300  1.3350  1.0132
  465MOL0     C64098  11.112   2.236   0.996  0.3897 -0.2996  0.5046
  465MOL0     C64099  11.116   2.274   1.132  0.6537  0.2527 -0.6605
  465MOL0     C64100  10.992   2.354   1.186 -0.1497  0.9439  0.7974
  465MOL0     H64101  11.574   2.387   1.508 -1.8817  0.0946 -2.2420
  465MOL0     H64102  11.653   2.379   1.730  1.7617 -2.0273 -1.9683
  465MOL0     H64103  11.612   2.102   2.049  1.0574  1.4344  0.1000
  465MOL0     H64104  11.496   2.060   1.929 -1.0092  2.3887 -1.4238
  465MOL0     H64105  11.308   2.138   2.062  1.1208 -2.3470 -2.7099
  465MOL0     H64106  11.396   2.037   2.154 -3.5120 -0.7360 -3.6847
  465MOL0     H64107  11.518   2.228   2.273  0.7065 -2.3611 -0.9622
  465MOL0     H64108  11.427   2.339   2.171 -0.8601 -0.2633 -1.4037
  465MOL0     H64109  11.210   2.247   2.270 -0.7086  3.5949  2.5193
  465MOL0     H64110  11.308   2.164   2.391 -1.2862  1.5010  2.5559
  465MOL0     H64111  11.387   2.403   2.455  0.3962  0.1907  0.4739
  465MOL0     H64112  11.219   2.376   2.487  0.3616 -0.4783 -0.4089
  465MOL0     H64113  11.316   2.525   2.232 -0.2328  1.0550 -0.2821
  465MOL0     H64114  11.153   2.482   2.268 -1.4038  0.9606  1.1208
  465MOL0     H64115  11.312   2.635   2.469 -0.0409  3.7861  0.7948
  465MOL0     H64116  11.137   2.636   2.436  0.4844 -1.9242 -0.2586
  465MOL0     H64117  11.241   2.839   2.359  2.0463 -0.5164  1.3059
  465MOL0     H64118  11.303   2.758   2.219  2.3978  2.7876  1.7029
  465MOL0     H64119  11.103   2.655   2.045  0.3010 -0.9014 -0.3822
  465MOL0     H64120  10.889   2.663   1.923  0.8583  0.5680  0.1357
  465MOL0     H64121  10.759   2.785   1.960 -2.6515 -0.6691  0.7272
  465MOL0     H64122  10.794   2.556   2.139  4.3875  1.1492 -1.0477
  465MOL0     H64123  10.662   2.673   2.133 -0.3437  0.7373 -0.9409
  465MOL0     H64124  10.705   2.529   1.871  1.8139 -4.8605 -0.4787
  465MOL0     H64125  10.634   2.431   1.986 -5.1628  1.3080 -0.0194
  465MOL0     H64126  10.515   2.700   1.924 -1.6888 -0.0897 -0.4030
  465MOL0     H64127  10.468   2.539   1.866 -0.7246  1.8419 -0.3324
  465MOL0     H64128  10.268   2.519   1.826  1.5331  2.4388  0.8950
  465MOL0     H64129   9.963   2.361   1.811  1.5738 -0.7253  1.5280
  465MOL0     H64130  10.119   2.416   1.732  1.0164  0.9123  1.4237
  465MOL0     H64131   9.965   2.517   1.733 -0.7975 -0.0029  0.7986
  465MOL0     H64132   9.612   2.340   2.269 -3.8534 -2.2329 -2.6813
  465MOL0     H64133   9.383   2.400   2.312 -0.4929 -1.1116 -1.4119
  465MOL0     H64134   9.144   2.456   2.232 -0.2177  0.3112 -0.8633
  465MOL0     H64135   9.216   2.523   2.383 -0.2730  4.7313  0.6943
  465MOL0     H64136   8.981   2.548   2.387  1.8182 -1.3027  0.4398
  465MOL0     H64137   9.073   2.695   2.402  0.1210  0.0968 -0.8726
  465MOL0     H64138   9.018   2.751   2.163 -1.3706  2.8929  0.4645
  465MOL0     H64139   8.876   2.745   2.271 -2.2555  0.4518 -3.4287
  465MOL0     H64140   8.823   2.512   2.207  1.2989 -0.9164  0.4962
  465MOL0     H64141   8.953   2.522   2.082  0.4521  3.2141 -2.8594
  465MOL0     H64142   8.702   2.579   2.015  1.2242 -0.8635  1.1949
  465MOL0     H64143   8.735   2.731   2.100  2.9279  1.3044  2.4933
  465MOL0     H64144   8.878   2.621   1.857 -1.8308 -2.0469  2.2964
  465MOL0     H64145   8.927   2.770   1.947 -0.7211  0.9746 -0.7953
  465MOL0     H64146   8.671   2.848   1.888  2.2262  0.9612  1.8565
  465MOL0     H64147   8.692   2.722   1.769 -1.1329 -0.1316  1.1914
  465MOL0     H64148   8.906   2.935   1.796  1.1930  0.0443 -2.0496
  465MOL0     H64149   8.769   2.966   1.689 -3.1029 -0.1507  1.6682
  465MOL0     H64150   9.423   2.761   2.076 -0.8993 -0.3455 -0.2981
  465MOL0     H64151   9.671   2.710   2.066  0.7674  1.4428  0.3630
  465MOL0     H64152  10.028   2.560   2.258 -0.3943 -3.1142  0.5973
  465MOL0     H64153  10.251   2.575   2.262 -2.0392  2.3261  0.4331
  465MOL0     H64154  11.304   2.161   1.857 -1.7851  1.0591 -1.0940
  465MOL0     H64155  11.228   2.145   1.620 -0.2996  0.0600  1.4486
  465MOL0     H64156  11.421   2.129   1.208  0.1105 -0.1489  0.3763
  465MOL0     H64157  11.416   2.097   0.971 -1.7490 -1.6042 -0.4329
  465MOL0     H64158  11.371   2.260   0.764  0.4624  0.6210 -0.0173
  465MOL0     H64159  11.429   2.093   0.759  0.2616 -0.0860 -0.5090
  465MOL0     H64160  11.258   2.259   0.554  0.6829  0.7494  2.0914
  465MOL0     H64161  11.284   2.076   0.564  1.5074 -0.9797  2.1080
  465MOL0     H64162  11.513   2.088   0.537 -0.8208  0.9988  2.4914
  465MOL0     H64163  11.439   2.184   0.402 -0.0451  0.9466 -0.5793
  465MOL0     H64164  11.584   2.275   0.640  0.2998  0.2149 -0.7133
  465MOL0     H64165  11.507   2.398   0.529  2.1356  1.4759  2.2234
  465MOL0     H64166  11.846   2.371   0.319 -0.4980 -2.2052 -2.5374
  465MOL0     H64167  11.022   2.247   0.937  0.3160 -1.1162  0.4520
  465MOL0     H64168  11.030   2.439   1.244  4.6497 -1.5765  1.9267
  465MOL0     H64169  10.927   2.383   1.103  1.3015  0.3829 -0.5847
  465MOL0     H64170  10.926   2.309   1.260  1.6047  1.3980  2.7232
  466MOL0     O64171   7.463  10.212   2.447  0.1216  0.7024  0.0785
  466MOL0     C64172   7.563  10.210   2.521 -0.3069  0.8064  0.3578
  466MOL0     O64173   7.685  10.257   2.485  0.0859 -0.1374  0.1531
  466MOL0     C64174   7.688  10.309   2.355 -0.0493 -0.1677  0.1829
  466MOL0     C64175   7.748  10.215   2.262 -0.3439  0.6381  0.3504
  466MOL0     C64176   7.787  10.249   2.134 -1.2819 -0.1474  0.1157
  466MOL0     C64177   7.748  10.377   2.089 -1.4773  0.5625  0.6148
  466MOL0     O64178   7.776  10.417   1.967 -0.6846  0.0778  0.6226
  466MOL0     C64179   7.714  10.354   1.854 -0.3582  0.6041  0.5461
  466MOL0     C64180   7.579  10.405   1.820 -0.0409  1.2889  0.3248
  466MOL0     C64181   7.569  10.554   1.790 -0.0949 -0.1545 -0.9130
  466MOL0     C64182   7.418  10.586   1.797 -0.2490 -0.2757  0.2780
  466MOL0     C64183   7.404  10.717   1.722  0.6174 -0.2504 -0.0126
  466MOL0     C64184   7.263  10.776   1.710  0.1326  0.7470 -0.1924
  466MOL0     C64185   7.181  10.759   1.838  1.1952 -0.3507 -0.3602
  466MOL0     C64186   7.037  10.826   1.830 -0.4888  0.1322 -0.0325
  466MOL0     N64187   6.940  10.734   1.773  0.1143 -0.3658  1.0187
  466MOL0     C64188   6.899  10.745   1.645 -0.4234  0.0899  0.7636
  466MOL0     C64189   6.795  10.651   1.624 -0.8206  0.1245 -0.5405
  466MOL0     C64190   6.732  10.618   1.499 -0.4237 -0.5895  0.3726
  466MOL0     C64191   6.718  10.465   1.481  0.8145 -0.5616 -0.4496
  466MOL0     C64192   6.596  10.429   1.390  0.2339 -0.0905  1.2777
  466MOL0     C64193   6.576  10.279   1.372  0.8640 -1.0779 -0.3654
  466MOL0     O64194   6.435  10.260   1.337  0.2546 -0.1589  0.3317
  466MOL0     C64195   6.383  10.144   1.285 -0.0824 -0.1488  0.4978
  466MOL0     C64196   6.465  10.041   1.256 -0.7648 -0.6974  0.4625
  466MOL0     C64197   6.407   9.918   1.213 -0.0108 -0.2519  0.2084
  466MOL0     C64198   6.491   9.796   1.212 -1.0237  0.2677 -0.4519
  466MOL0     C64199   6.273   9.916   1.179 -0.1331  0.1559  0.7754
  466MOL0     C64200   6.212   9.801   1.113 -0.5645  0.1506  0.8497
  466MOL0     O64201   6.169   9.825   0.981  0.2718  0.9516 -0.3548
  466MOL0     C64202   6.157   9.732   0.879 -0.3084 -0.7320 -0.2857
  466MOL0     C64203   6.039   9.729   0.802  0.5354 -0.8537 -0.8258
  466MOL0     C64204   6.015   9.603   0.729 -0.0007 -0.5773  0.3167
  466MOL0     C64205   6.116   9.508   0.709  0.2466 -0.1591  0.0637
  466MOL0     O64206   6.090   9.407   0.610 -0.1853 -0.4557  0.1652
  466MOL0     C64207   6.183   9.307   0.582  0.1802  0.2717  0.3285
  466MOL0     C64208   6.280   9.353   0.470 -0.3652  0.2016 -0.1943
  466MOL0     C64209   6.211   9.404   0.345 -0.5804 -0.7012  0.7510
  466MOL0     C64210   6.306   9.465   0.234 -0.2163  0.2554  0.4861
  466MOL0     C64211   6.229   9.532   0.116 -0.1030  0.6363  0.3659
  466MOL0     C64212   6.321   9.563  -0.001  0.3006 -0.6249 -0.2039
  466MOL0     C64213   6.428   9.668   0.032 -0.2229  1.3541  0.0517
  466MOL0     C64214   6.497   9.714  -0.100  1.0210 -0.3961 -1.1305
  466MOL0    Cl64215   6.563   9.575  -0.194  0.3000  0.2950  0.3864
  466MOL0     C64216   6.235   9.520   0.777  0.7261 -0.2143  0.9644
  466MOL0     C64217   6.257   9.634   0.860  0.0306 -0.5084  0.5414
  466MOL0     O64218   6.210   9.685   1.158 -1.0153 -0.0486 -0.5014
  466MOL0     C64219   6.191  10.024   1.203 -0.1821 -0.9868  0.6809
  466MOL0     C64220   6.244  10.145   1.260  0.0045  0.3220  1.2183
  466MOL0     N64221   6.776  10.604   1.751  0.2821 -0.1839 -0.6191
  466MOL0     N64222   6.860  10.651   1.839 -0.3270 -0.3861 -0.0021
  466MOL0     C64223   7.679  10.470   2.173  0.2592  1.0145  0.1283
  466MOL0     C64224   7.645  10.432   2.306  0.2295 -0.0652 -0.0426
  466MOL0     C64225   7.543  10.131   2.646  0.5834 -0.5086 -0.2475
  466MOL0     C64226   7.433  10.165   2.729 -0.6003 -0.4713 -0.6324
  466MOL0     C64227   7.403  10.079   2.841  1.6768  0.0571  0.2141
  466MOL0     C64228   7.455   9.951   2.838 -0.0233  0.7282 -0.3185
  466MOL0     O64229   7.422   9.845   2.927 -0.3630 -0.3539  0.0385
  466MOL0     C64230   7.337   9.878   3.030 -0.3241 -0.4188 -1.0700
  466MOL0     C64231   7.357   9.774   3.145  0.1023  0.3193  0.8396
  466MOL0     C64232   7.315   9.634   3.115 -0.1081  0.4612 -0.4391
  466MOL0     C64233   7.160   9.623   3.127 -0.4688 -0.2266 -0.0179
  466MOL0     C64234   7.109   9.489   3.077 -0.6230 -0.2733 -0.2459
  466MOL0     C64235   7.062   9.385   3.038 -1.1539  0.7114  1.1064
  466MOL0     C64236   7.563   9.920   2.753  0.8617  0.3793 -0.2618
  466MOL0     C64237   7.620  10.010   2.658  0.3774  0.3382  0.5747
  466MOL0     C64238   7.740   9.984   2.568  0.3584  0.2991 -0.0757
  466MOL0     H64239   7.785  10.124   2.310  1.2743  1.4687  0.7319
  466MOL0     H64240   7.849  10.184   2.073 -1.4180 -4.4302  4.0626
  466MOL0     H64241   7.712  10.248   1.879 -0.4626  0.2090 -1.0351
  466MOL0     H64242   7.782  10.369   1.769 -0.6104 -0.3745  0.1607
  466MOL0     H64243   7.542  10.346   1.736 -0.9978 -0.7065  2.0707
  466MOL0     H64244   7.518  10.385   1.908  0.9898  1.0432  1.0107
  466MOL0     H64245   7.628  10.618   1.857  0.4391 -2.0523  0.5315
  466MOL0     H64246   7.610  10.564   1.689  0.0830  1.9423 -0.6857
  466MOL0     H64247   7.351  10.509   1.758  1.2735 -0.7258 -1.5896
  466MOL0     H64248   7.385  10.603   1.900 -1.1267 -0.9669  0.1225
  466MOL0     H64249   7.451  10.698   1.625 -0.4360 -3.9342  0.0590
  466MOL0     H64250   7.458  10.793   1.780 -0.5007  1.0236 -0.5827
  466MOL0     H64251   7.266  10.883   1.687 -0.8809  0.5734 -1.2192
  466MOL0     H64252   7.225  10.721   1.623  1.2601 -1.4818  0.6418
  466MOL0     H64253   7.238  10.805   1.918  1.5785 -2.9509  0.9892
  466MOL0     H64254   7.175  10.650   1.851  0.7740 -0.1630  1.2122
  466MOL0     H64255   7.003  10.833   1.934 -0.7728 -0.8823 -0.0452
  466MOL0     H64256   7.055  10.923   1.782 -1.8195 -0.4949 -1.9066
  466MOL0     H64257   6.930  10.815   1.568 -2.1353 -1.9232 -1.9056
  466MOL0     H64258   6.781  10.660   1.411  0.6849 -3.9921 -0.7914
  466MOL0     H64259   6.633  10.663   1.505 -1.1960 -2.1003 -0.6821
  466MOL0     H64260   6.812  10.432   1.437  0.8847  2.2011 -2.6378
  466MOL0     H64261   6.708  10.413   1.577  2.5473 -0.3006 -0.1029
  466MOL0     H64262   6.501  10.469   1.428  1.0804  0.5844  2.8184
  466MOL0     H64263   6.605  10.468   1.288 -1.1905  0.9359  1.5166
  466MOL0     H64264   6.642  10.242   1.293  1.1340 -3.3815  0.8630
  466MOL0     H64265   6.594  10.214   1.457 -3.3355  0.0752  1.6918
  466MOL0     H64266   6.568  10.040   1.288 -0.9287  0.1127  1.0361
  466MOL0     H64267   6.459   9.716   1.280  0.2014  0.0721 -0.0885
  466MOL0     H64268   6.594   9.812   1.243 -1.7719 -0.7024  2.9593
  466MOL0     H64269   6.482   9.756   1.110  1.1055 -2.9460  0.4584
  466MOL0     H64270   5.954   9.795   0.813  1.4395  0.4058 -1.0970
  466MOL0     H64271   5.918   9.585   0.683 -0.7997  2.4373  0.5532
  466MOL0     H64272   6.234   9.262   0.668  1.6143 -2.4584 -1.7956
  466MOL0     H64273   6.117   9.231   0.541 -0.7524  1.1413  0.1750
  466MOL0     H64274   6.349   9.429   0.508 -0.4495  0.4762 -0.5790
  466MOL0     H64275   6.337   9.264   0.442 -1.8005 -1.9456  3.1289
  466MOL0     H64276   6.131   9.472   0.373  0.1002  1.1223 -1.4377
  466MOL0     H64277   6.163   9.322   0.290  0.4515 -0.1995 -0.9960
  466MOL0     H64278   6.361   9.390   0.177 -2.2966 -2.3050  1.6127
  466MOL0     H64279   6.361   9.547   0.282  1.0625  0.6807 -1.5757
  466MOL0     H64280   6.150   9.466   0.080 -0.8860  1.5649  0.3513
  466MOL0     H64281   6.172   9.616   0.157 -2.5938 -0.3630 -0.8581
  466MOL0     H64282   6.264   9.603  -0.085  1.9560  1.2731 -0.5244
  466MOL0     H64283   6.371   9.473  -0.039 -0.0171  0.2230 -2.8137
  466MOL0     H64284   6.510   9.614   0.080 -0.2462  0.3439 -0.9955
  466MOL0     H64285   6.392   9.742   0.104  1.6499 -0.9907  3.6894
  466MOL0     H64286   6.577   9.780  -0.066  0.4734 -0.8238  1.1555
  466MOL0     H64287   6.429   9.771  -0.165 -1.3857 -1.2974  0.4412
  466MOL0     H64288   6.325   9.459   0.778  3.8087  3.8416  1.1005
  466MOL0     H64289   6.352   9.649   0.911  0.7169 -1.3212 -0.4614
  466MOL0     H64290   6.087  10.035   1.174 -0.0813 -1.3805  0.1541
  466MOL0     H64291   6.194  10.238   1.285 -0.7723  1.5456 -3.7278
  466MOL0     H64292   7.653  10.568   2.134 -1.8816  0.5917  0.3739
  466MOL0     H64293   7.619  10.508   2.380  3.9065 -0.0917  1.4766
  466MOL0     H64294   7.378  10.258   2.742  0.6905  0.3201 -0.6925
  466MOL0     H64295   7.326  10.099   2.915  2.4184  1.6042  0.5991
  466MOL0     H64296   7.367   9.971   3.078 -0.1452  0.1323 -2.2094
  466MOL0     H64297   7.235   9.878   2.990  0.8095 -0.3902 -4.2786
  466MOL0     H64298   7.307   9.809   3.236 -1.5833 -1.8176  0.8155
  466MOL0     H64299   7.464   9.762   3.164  0.6282 -1.4881 -2.5430
  466MOL0     H64300   7.346   9.602   3.015  0.5866 -0.6438  0.1114
  466MOL0     H64301   7.366   9.574   3.191 -2.2626 -0.0013  0.7229
  466MOL0     H64302   7.111   9.706   3.075  2.0800  2.2383  1.2445
  466MOL0     H64303   7.131   9.641   3.231 -0.6327  0.0358 -0.1077
  466MOL0     H64304   7.022   9.294   3.000  0.2943  1.0536 -1.4889
  466MOL0     H64305   7.602   9.820   2.771 -0.5166  0.0428  1.1439
  466MOL0     H64306   7.818  10.060   2.572 -0.1089  0.8366  5.2106
  466MOL0     H64307   7.786   9.891   2.603 -2.7218 -0.4551  2.3468
  466MOL0     H64308   7.716   9.957   2.464  1.2555  0.0946 -0.2388
  467MOL0     O64309   3.848  10.344   3.823  0.1354  0.3576  0.4915
  467MOL0     C64310   3.908  10.452   3.847  0.5172 -0.3746  0.3068
  467MOL0     O64311   4.000  10.459   3.946 -0.4690 -0.2454  0.2416
  467MOL0     C64312   4.015  10.581   4.020 -0.2993 -0.0173 -0.0749
  467MOL0     C64313   4.141  10.601   4.070  0.4017  0.1284 -0.4766
  467MOL0     C64314   4.166  10.712   4.148 -1.0087  0.4493 -0.4901
  467MOL0     C64315   4.067  10.811   4.173 -0.4717  1.1329  0.8994
  467MOL0     O64316   4.088  10.913   4.258  0.0571  0.2918 -0.6953
  467MOL0     C64317   4.013  11.036   4.245 -0.9454 -0.1884  0.2628
  467MOL0     C64318   4.091  11.149   4.328  0.7618 -0.0078 -0.9585
  467MOL0     C64319   4.207  11.213   4.253 -0.0984 -0.9059 -0.6616
  467MOL0     C64320   4.286  11.310   4.348  1.6669  0.3930  0.1821
  467MOL0     C64321   4.403  11.372   4.271  0.4534 -0.8690 -1.2374
  467MOL0     C64322   4.476  11.471   4.365  0.6786  0.0166  0.4204
  467MOL0     C64323   4.581  11.557   4.290 -0.5988 -0.0883  0.6334
  467MOL0     C64324   4.659  11.661   4.378 -0.2574  0.8704 -0.5427
  467MOL0     N64325   4.719  11.762   4.286 -0.2844 -0.5405 -0.7762
  467MOL0     C64326   4.775  11.751   4.161  0.1378  0.0860 -0.2421
  467MOL0     C64327   4.787  11.877   4.114  0.1397  0.9526 -0.4289
  467MOL0     C64328   4.841  11.914   3.982  0.3418  0.5678 -1.1812
  467MOL0     C64329   4.798  11.841   3.862 -0.4313  1.5642  0.6867
  467MOL0     C64330   4.889  11.719   3.826 -0.0661 -0.1047 -0.8690
  467MOL0     C64331   4.878  11.646   3.695 -0.3231 -0.6708  1.4940
  467MOL0     O64332   4.872  11.725   3.576  0.1178  0.0539  0.0945
  467MOL0     C64333   4.938  11.667   3.461  0.4080  0.2537 -0.8122
  467MOL0     C64334   4.899  11.535   3.422 -1.2717 -0.6611  0.5170
  467MOL0     C64335   4.958  11.467   3.313  0.7951 -0.0477  0.5789
  467MOL0     C64336   4.908  11.333   3.280  0.1095 -0.0439 -1.0914
  467MOL0     C64337   5.064  11.536   3.244  0.6936  0.1446 -0.5785
  467MOL0     C64338   5.162  11.472   3.160  0.4149  0.9082 -0.2120
  467MOL0     O64339   5.192  11.342   3.177 -0.1994  0.0109 -0.1548
  467MOL0     C64340   5.276  11.292   3.081  0.9383 -0.3831 -0.1562
  467MOL0     C64341   5.212  11.250   2.961 -0.1862  1.0555  0.6005
  467MOL0     C64342   5.285  11.158   2.882 -0.1431  0.7125  0.4004
  467MOL0     C64343   5.427  11.155   2.890  0.0295 -0.5491  0.2472
  467MOL0     O64344   5.493  11.093   2.794 -0.2592  0.3354 -0.0335
  467MOL0     C64345   5.614  11.016   2.828 -0.1495 -0.4555  0.9278
  467MOL0     C64346   5.744  11.103   2.793  0.1861  1.1115 -0.8424
  467MOL0     C64347   5.865  11.025   2.866 -0.8151  0.5796 -0.2981
  467MOL0     C64348   6.005  11.070   2.813 -1.0002  0.2025  0.3781
  467MOL0     C64349   6.128  11.021   2.898 -0.0999  0.5385 -0.5366
  467MOL0     C64350   6.121  11.081   3.043  0.3720 -1.0137  0.7440
  467MOL0     C64351   6.253  11.075   3.128 -0.4518  1.3643  0.6573
  467MOL0     C64352   6.367  11.177   3.087 -0.0466  0.0522  0.1783
  467MOL0    Cl64353   6.467  11.217   3.220  0.4754 -0.3305 -0.3809
  467MOL0     C64354   5.493  11.202   3.006 -0.1389  0.3644  0.7959
  467MOL0     C64355   5.407  11.255   3.108  1.0150  0.3071 -1.0830
  467MOL0     O64356   5.224  11.549   3.085  0.2656 -0.2382 -0.5251
  467MOL0     C64357   5.089  11.669   3.278 -1.5048 -0.0238 -0.2376
  467MOL0     C64358   5.038  11.730   3.385  1.2426  0.9254 -0.6027
  467MOL0     N64359   4.740  11.959   4.213  0.7707 -0.2184 -1.0412
  467MOL0     N64360   4.689  11.897   4.313 -0.2297 -0.1377  0.4046
  467MOL0     C64361   3.944  10.790   4.115 -0.2594  0.4953  0.4047
  467MOL0     C64362   3.916  10.676   4.039 -0.6161  0.9022 -0.0930
  467MOL0     C64363   3.866  10.564   3.760  0.7719 -1.0835 -0.0628
  467MOL0     C64364   3.973  10.637   3.708  0.4478 -0.8917  0.4081
  467MOL0     C64365   3.944  10.735   3.621  0.1307 -0.3373  0.0926
  467MOL0     C64366   3.820  10.764   3.585  0.9849 -0.7749  0.2589
  467MOL0     O64367   3.824  10.866   3.487  1.2308 -0.4041 -0.3382
  467MOL0     C64368   3.700  10.932   3.435 -0.3455  0.5037  0.0872
  467MOL0     C64369   3.734  10.985   3.296  0.1167 -0.1204  0.2807
  467MOL0     C64370   3.830  11.109   3.290  0.2052 -0.9576  0.2902
  467MOL0     C64371   3.952  11.097   3.382 -0.3209 -0.0397  0.8392
  467MOL0     C64372   4.058  11.192   3.337  0.4615 -0.1899  0.6103
  467MOL0     C64373   4.139  11.279   3.307  0.0348  0.9835 -0.0824
  467MOL0     C64374   3.711  10.702   3.646  0.0744  0.2352 -0.0605
  467MOL0     C64375   3.730  10.599   3.737  0.2263 -0.3957  0.2063
  467MOL0     C64376   3.603  10.532   3.796 -0.0410 -0.0471 -0.0076
  467MOL0     H64377   4.217  10.526   4.052  0.5919  0.4869 -1.2349
  467MOL0     H64378   4.262  10.718   4.198 -1.9344 -0.0018  1.4611
  467MOL0     H64379   3.911  11.018   4.280 -1.5004 -0.3591 -1.3620
  467MOL0     H64380   4.016  11.065   4.139 -0.6949  0.9899  0.5751
  467MOL0     H64381   4.018  11.227   4.354  2.4529  1.3944 -0.2268
  467MOL0     H64382   4.125  11.109   4.424 -2.1480  1.5664  0.8772
  467MOL0     H64383   4.270  11.128   4.225  0.8609 -0.4463  0.0600
  467MOL0     H64384   4.174  11.273   4.169 -0.5784  1.0536  0.8598
  467MOL0     H64385   4.224  11.386   4.396  1.8740 -1.0092  2.8645
  467MOL0     H64386   4.327  11.251   4.431  3.0110 -0.8354 -1.2958
  467MOL0     H64387   4.359  11.437   4.195 -1.9391  1.2782  1.7389
  467MOL0     H64388   4.475  11.298   4.236  3.3977 -0.6881  3.6516
  467MOL0     H64389   4.401  11.541   4.402 -2.3657 -2.9793  0.3836
  467MOL0     H64390   4.525  11.437   4.457  0.2492  0.4560  0.8180
  467MOL0     H64391   4.545  11.610   4.201  1.3219  0.2403 -0.0040
  467MOL0     H64392   4.660  11.484   4.269 -1.3730 -2.3855  4.6437
  467MOL0     H64393   4.586  11.700   4.449  1.6439  0.5020  1.7285
  467MOL0     H64394   4.739  11.612   4.435 -0.2819  0.4538 -0.8598
  467MOL0     H64395   4.798  11.655   4.116  0.4649 -0.2342  0.5781
  467MOL0     H64396   4.950  11.914   3.975  0.3879  3.4350 -1.6933
  467MOL0     H64397   4.811  12.018   3.966 -1.4254  0.3133  0.1302
  467MOL0     H64398   4.696  11.807   3.879  0.0348 -0.7833 -0.7376
  467MOL0     H64399   4.804  11.915   3.782  0.3293  1.6267  0.7876
  467MOL0     H64400   4.992  11.756   3.826 -1.4124  4.1836 -1.4410
  467MOL0     H64401   4.888  11.646   3.907  1.2529  0.9373  0.1283
  467MOL0     H64402   4.962  11.576   3.693 -0.2991 -0.6440  1.5699
  467MOL0     H64403   4.788  11.586   3.684 -2.5310  2.2797  2.2284
  467MOL0     H64404   4.837  11.481   3.493 -0.8145  2.0337  3.1465
  467MOL0     H64405   4.958  11.288   3.194 -0.0199  3.4559 -3.2103
  467MOL0     H64406   4.801  11.344   3.262 -0.2208 -0.7789  0.3014
  467MOL0     H64407   4.909  11.268   3.368 -2.2823 -1.1302 -1.7800
  467MOL0     H64408   5.107  11.268   2.941  0.2301  2.0319 -0.8273
  467MOL0     H64409   5.256  11.113   2.787  1.7633  1.1155 -0.4150
  467MOL0     H64410   5.607  10.988   2.934  2.0465  2.1094  1.8479
  467MOL0     H64411   5.619  10.931   2.760 -1.1406  1.8482 -2.2258
  467MOL0     H64412   5.770  11.116   2.688 -0.2901  0.3849 -1.0628
  467MOL0     H64413   5.747  11.197   2.850  0.0291  1.3981 -1.3009
  467MOL0     H64414   5.855  10.918   2.844 -4.5046  0.1784  2.4666
  467MOL0     H64415   5.862  11.048   2.973  2.9676  2.6129 -0.4453
  467MOL0     H64416   6.011  11.177   2.788 -0.2785  0.2509  0.7321
  467MOL0     H64417   6.013  11.032   2.711 -2.4037  4.6683 -1.6713
  467MOL0     H64418   6.116  10.915   2.920 -0.1533  0.2892 -1.6976
  467MOL0     H64419   6.226  11.037   2.852  0.2491 -0.0240 -0.0098
  467MOL0     H64420   6.043  11.047   3.112 -0.1764  3.3948  2.6300
  467MOL0     H64421   6.087  11.185   3.042 -2.5122 -1.8629 -0.2998
  467MOL0     H64422   6.287  10.972   3.111 -0.8139  1.8044 -4.3401
  467MOL0     H64423   6.232  11.084   3.235 -0.6075  0.3103  0.7199
  467MOL0     H64424   6.324  11.273   3.058 -2.8942 -1.2906 -0.4430
  467MOL0     H64425   6.430  11.135   3.008 -0.5065  0.0017 -0.1674
  467MOL0     H64426   5.599  11.197   3.030 -0.1045  1.2758  0.8420
  467MOL0     H64427   5.447  11.272   3.207 -1.0755 -0.3408 -0.0622
  467MOL0     H64428   5.168  11.730   3.234 -1.8945 -0.7315 -2.0165
  467MOL0     H64429   5.068  11.826   3.425  3.7120 -0.1750  0.3554
  467MOL0     H64430   3.873  10.871   4.123 -0.3209  0.6129 -1.0503
  467MOL0     H64431   3.813  10.663   4.006 -0.1405 -1.6017 -0.8781
  467MOL0     H64432   4.077  10.609   3.718  1.1124  0.8517 -1.1295
  467MOL0     H64433   4.024  10.790   3.572  0.2555  1.2270  1.9549
  467MOL0     H64434   3.626  10.852   3.436  2.3073 -2.1451 -0.9626
  467MOL0     H64435   3.657  11.011   3.498  0.9863  0.3318  1.2582
  467MOL0     H64436   3.654  11.016   3.228  1.9918  2.6361 -0.8635
  467MOL0     H64437   3.781  10.901   3.243 -5.3316 -2.1550 -2.1302
  467MOL0     H64438   3.855  11.106   3.184 -1.8422  2.2127 -0.4215
  467MOL0     H64439   3.783  11.206   3.309 -0.3015 -1.5079  2.0767
  467MOL0     H64440   3.984  10.993   3.384  0.5522  0.2206  0.6181
  467MOL0     H64441   3.915  11.115   3.484 -2.3965  3.0297 -0.3051
  467MOL0     H64442   4.214  11.355   3.296 -0.4108  1.1175 -2.9964
  467MOL0     H64443   3.607  10.728   3.625 -1.3763 -2.7180  2.6154
  467MOL0     H64444   3.611  10.541   3.905  0.7801 -0.0023 -0.0609
  467MOL0     H64445   3.512  10.589   3.774  1.2240  2.1974  0.2210
  467MOL0     H64446   3.602  10.428   3.764 -1.1434 -0.1264  0.2384
  468MOL0     O64447   9.664   1.459   4.697  0.2036  0.7227  0.0631
  468MOL0     C64448   9.771   1.509   4.671  0.1311  0.1796  0.5215
  468MOL0     O64449   9.799   1.643   4.657  0.6223  0.1191  0.5011
  468MOL0     C64450   9.699   1.733   4.657  0.1916  0.4969 -1.3167
  468MOL0     C64451   9.734   1.861   4.694  0.3992  0.7208 -0.7494
  468MOL0     C64452   9.636   1.965   4.696  0.2898  0.0643  0.7255
  468MOL0     C64453   9.497   1.938   4.657 -0.5570  0.3057  0.8552
  468MOL0     O64454   9.399   2.037   4.647 -0.1364  0.8901  0.4761
  468MOL0     C64455   9.419   2.166   4.701 -1.1160 -0.2875  0.1460
  468MOL0     C64456   9.284   2.236   4.731 -0.3923 -0.4323  0.0439
  468MOL0     C64457   9.296   2.346   4.837  1.3339 -0.9748  0.2575
  468MOL0     C64458   9.418   2.443   4.798 -0.3805  0.0790  0.4193
  468MOL0     C64459   9.427   2.560   4.904 -0.6866  0.8252  0.3179
  468MOL0     C64460   9.543   2.653   4.875  0.2457  0.3483 -0.3763
  468MOL0     C64461   9.579   2.731   5.001 -0.2625 -0.0505  0.4779
  468MOL0     C64462   9.722   2.785   4.985 -0.3672 -1.0064 -0.2123
  468MOL0     N64463   9.751   2.892   5.089  0.3320 -0.6122 -0.0998
  468MOL0     C64464   9.759   2.892   5.225  0.5973  0.3656 -0.0177
  468MOL0     C64465   9.787   3.018   5.263  0.0234 -0.1833 -0.0657
  468MOL0     C64466   9.826   3.069   5.398  0.6065 -0.0637 -0.5858
  468MOL0     C64467   9.716   3.039   5.507  0.0103  0.4264 -0.4145
  468MOL0     C64468   9.756   3.062   5.661 -0.3736  0.0270 -0.5550
  468MOL0     C64469   9.877   2.965   5.710 -0.7480  0.5649 -0.3449
  468MOL0     O64470   9.857   2.832   5.671 -0.1319 -0.2134 -0.0225
  468MOL0     C64471   9.964   2.745   5.662  0.4417 -0.1916 -0.6627
  468MOL0     C64472   9.928   2.614   5.661  0.0983 -0.7006  0.8482
  468MOL0     C64473  10.021   2.518   5.666  0.4127  0.1262  0.4842
  468MOL0     C64474   9.959   2.385   5.670 -0.0170  0.3990 -0.1246
  468MOL0     C64475  10.166   2.540   5.677 -0.2249 -0.4799 -0.2120
  468MOL0     C64476  10.267   2.432   5.669 -0.3533  0.0685  0.1795
  468MOL0     O64477  10.233   2.309   5.710  0.2173 -0.0343 -0.1739
  468MOL0     C64478  10.331   2.218   5.733  0.6878  0.8978  0.5355
  468MOL0     C64479  10.429   2.232   5.832  0.4964  0.4122 -0.6798
  468MOL0     C64480  10.531   2.139   5.849 -0.3800 -0.0014 -1.0373
  468MOL0     C64481  10.535   2.024   5.763  0.0348  0.6452  0.2217
  468MOL0     O64482  10.633   1.935   5.792 -0.7306 -0.5149  0.0472
  468MOL0     C64483  10.709   1.884   5.691 -0.1863  0.3563 -0.3089
  468MOL0     C64484  10.826   1.812   5.761 -0.3886 -0.1613 -0.0865
  468MOL0     C64485  10.926   1.745   5.661  0.2098  0.7357  0.4269
  468MOL0     C64486  10.965   1.835   5.532  0.6467  0.0141 -0.1287
  468MOL0     C64487  11.058   1.756   5.436 -0.4544  0.3072  0.4769
  468MOL0     C64488  11.198   1.699   5.480 -1.0990  0.4357  0.1474
  468MOL0     C64489  11.296   1.814   5.520  0.0184  0.0080 -0.1992
  468MOL0     C64490  11.399   1.761   5.628 -0.5363 -0.0245 -0.1307
  468MOL0    Cl64491  11.504   1.621   5.568  0.1744 -0.3191  0.6177
  468MOL0     C64492  10.435   2.007   5.663  0.7229 -0.4799  0.0734
  468MOL0     C64493  10.334   2.105   5.651 -0.3676 -0.4715  0.0374
  468MOL0     O64494  10.373   2.467   5.629  0.7160  0.6511 -0.6710
  468MOL0     C64495  10.207   2.673   5.680 -0.1689  0.5397 -0.6229
  468MOL0     C64496  10.106   2.779   5.662  0.5117  0.1329 -0.3249
  468MOL0     N64497   9.773   3.100   5.152 -0.4930 -0.2017 -0.7158
  468MOL0     N64498   9.752   3.022   5.051  0.0490 -0.1924  0.0412
  468MOL0     C64499   9.475   1.811   4.617  0.1471  0.5266 -0.5122
  468MOL0     C64500   9.566   1.705   4.616 -0.4166 -1.0424 -0.0227
  468MOL0     C64501   9.888   1.418   4.647  0.5804 -0.0270 -0.3155
  468MOL0     C64502   9.983   1.464   4.554 -0.1829 -0.1344  0.0247
  468MOL0     C64503  10.083   1.384   4.506  0.0953  0.8091  0.2854
  468MOL0     C64504  10.094   1.242   4.554  0.4764 -0.2447  0.3064
  468MOL0     O64505  10.187   1.164   4.490 -0.2865 -0.1215  0.5062
  468MOL0     C64506  10.251   1.060   4.579 -0.2407  0.3823  0.3360
  468MOL0     C64507  10.384   1.014   4.516  0.1864 -0.5399  0.0681
  468MOL0     C64508  10.481   1.132   4.532 -0.3378 -1.0064  0.9915
  468MOL0     C64509  10.624   1.100   4.572  0.1510 -0.0770 -0.1735
  468MOL0     C64510  10.639   1.100   4.720 -0.3803 -0.2922  0.6371
  468MOL0     C64511  10.650   1.096   4.836 -0.0840  0.3443  0.2755
  468MOL0     C64512   9.997   1.196   4.636  0.2776 -0.0443  0.1199
  468MOL0     C64513   9.900   1.276   4.689  0.7552 -0.0588  0.0379
  468MOL0     C64514   9.814   1.206   4.792  0.3961 -1.2531 -0.0587
  468MOL0     H64515   9.830   1.881   4.741 -1.1683 -1.9916  4.3669
  468MOL0     H64516   9.664   2.065   4.728 -2.5841  1.5436 -1.0524
  468MOL0     H64517   9.482   2.225   4.635  0.8916 -3.6782 -1.2262
  468MOL0     H64518   9.480   2.152   4.790  2.7918  3.0548 -1.6948
  468MOL0     H64519   9.251   2.291   4.642  2.3816 -0.0865 -0.8468
  468MOL0     H64520   9.202   2.166   4.747 -2.2528  1.5422 -0.2775
  468MOL0     H64521   9.200   2.399   4.839  1.1394 -1.1906 -1.6016
  468MOL0     H64522   9.321   2.313   4.938 -3.3285 -3.1333  0.9540
  468MOL0     H64523   9.512   2.387   4.804 -0.2403  0.4336  2.6606
  468MOL0     H64524   9.406   2.474   4.694  3.8442 -0.9658 -0.5634
  468MOL0     H64525   9.427   2.521   5.006  2.7398 -1.9488 -0.5392
  468MOL0     H64526   9.333   2.616   4.892 -1.4858 -0.7968 -1.6390
  468MOL0     H64527   9.635   2.597   4.851  0.2713  0.0374  0.4059
  468MOL0     H64528   9.527   2.725   4.795 -3.0766  0.5760  0.3642
  468MOL0     H64529   9.582   2.653   5.078 -0.0146 -2.1825 -1.6103
  468MOL0     H64530   9.502   2.805   5.025 -3.2867 -2.2273 -1.7920
  468MOL0     H64531   9.806   2.715   4.981 -0.8741 -1.6238 -0.3367
  468MOL0     H64532   9.725   2.842   4.892  4.4049 -0.1288  0.2253
  468MOL0     H64533   9.765   2.803   5.287 -2.3339  0.8874  1.1778
  468MOL0     H64534   9.859   3.173   5.391  3.6937 -1.0356 -2.1650
  468MOL0     H64535   9.920   3.022   5.428 -0.4129 -1.3421  0.7141
  468MOL0     H64536   9.622   3.089   5.482  0.6121 -0.2301 -4.6669
  468MOL0     H64537   9.693   2.933   5.491  0.5825  0.0587  1.0295
  468MOL0     H64538   9.788   3.166   5.675 -1.3227  0.8601 -3.6010
  468MOL0     H64539   9.669   3.027   5.716 -1.5548 -2.0723 -3.5018
  468MOL0     H64540   9.971   2.995   5.664  0.4383 -0.9346  0.9481
  468MOL0     H64541   9.897   2.963   5.818  2.5451 -0.4927 -0.8719
  468MOL0     H64542   9.820   2.600   5.669  0.4621 -3.4168  2.4515
  468MOL0     H64543   9.856   2.386   5.706 -0.0867  0.0324 -0.3159
  468MOL0     H64544  10.012   2.314   5.733  1.2636  3.5219  2.6189
  468MOL0     H64545   9.950   2.348   5.567 -0.5716  0.8646 -0.2534
  468MOL0     H64546  10.418   2.325   5.888 -1.7734  1.6920 -2.9942
  468MOL0     H64547  10.603   2.148   5.929 -2.2013 -2.7608  1.0959
  468MOL0     H64548  10.651   1.817   5.627 -2.4043 -0.8644  2.7554
  468MOL0     H64549  10.765   1.961   5.638  0.1704 -0.4434 -1.1171
  468MOL0     H64550  10.875   1.889   5.821  1.1296 -1.0388 -0.1269
  468MOL0     H64551  10.797   1.736   5.834  4.7923 -2.5707 -0.0432
  468MOL0     H64552  10.866   1.662   5.622  2.1244  0.0699 -1.2854
  468MOL0     H64553  11.017   1.705   5.708 -0.6628 -1.1449  0.5931
  468MOL0     H64554  10.994   1.933   5.571 -0.4601 -0.9072  3.4541
  468MOL0     H64555  10.874   1.856   5.474  0.0729 -0.4957  0.5645
  468MOL0     H64556  11.006   1.672   5.389  2.1759 -0.9062 -0.5287
  468MOL0     H64557  11.080   1.824   5.352 -0.1549  1.1869  1.2515
  468MOL0     H64558  11.243   1.648   5.394  2.7524  0.5771  1.8831
  468MOL0     H64559  11.189   1.626   5.561 -0.6219  0.2780  0.0607
  468MOL0     H64560  11.226   1.884   5.566 -0.3563  1.5259 -2.8671
  468MOL0     H64561  11.342   1.866   5.435 -0.5612  1.9292  0.6156
  468MOL0     H64562  11.343   1.729   5.716  1.6880 -3.4709  0.2365
  468MOL0     H64563  11.456   1.851   5.651 -1.3616  0.6612 -0.7109
  468MOL0     H64564  10.439   1.927   5.590 -3.0930 -0.3946 -0.4281
  468MOL0     H64565  10.251   2.096   5.582 -1.5122 -0.7168  1.3948
  468MOL0     H64566  10.309   2.699   5.705 -0.6693  0.6259  1.4963
  468MOL0     H64567  10.150   2.877   5.679  1.4895 -0.7948  3.4390
  468MOL0     H64568   9.377   1.785   4.577  0.1781  1.5055 -1.2470
  468MOL0     H64569   9.536   1.609   4.575  0.4652 -0.6556 -1.6675
  468MOL0     H64570   9.975   1.567   4.520 -0.7524 -1.1396 -3.1914
  468MOL0     H64571  10.146   1.426   4.428 -0.2237  0.3498 -0.2239
  468MOL0     H64572  10.269   1.103   4.678  1.1008 -1.6656  1.0522
  468MOL0     H64573  10.192   0.968   4.584  0.5154 -0.1345 -0.0124
  468MOL0     H64574  10.373   0.987   4.411 -1.9095 -0.5861  0.2565
  468MOL0     H64575  10.416   0.921   4.565 -4.1499 -1.6993  1.1379
  468MOL0     H64576  10.468   1.179   4.434  0.6531 -0.3163  1.1743
  468MOL0     H64577  10.453   1.215   4.599 -0.7281 -1.3513  1.2622
  468MOL0     H64578  10.698   1.165   4.525  2.3967 -2.5563 -0.3097
  468MOL0     H64579  10.636   1.000   4.530 -4.8840 -1.0251 -0.0041
  468MOL0     H64580  10.682   1.089   4.939  1.0122 -2.3894 -0.1567
  468MOL0     H64581  10.011   1.096   4.675 -0.8892 -0.5889 -0.7987
  468MOL0     H64582   9.876   1.177   4.877 -0.5841 -0.4986  0.9425
  468MOL0     H64583   9.728   1.262   4.831  2.5465 -0.3392  3.7976
  468MOL0     H64584   9.768   1.117   4.747  2.5128 -1.2161 -2.5482
  469MOL0     O64585   9.329   0.446   7.517 -0.0318  0.2953  0.4020
  469MOL0     C64586   9.403   0.352   7.532  0.3448  0.2508 -0.1202
  469MOL0     O64587   9.524   0.347   7.469  0.5820  0.2940  0.2579
  469MOL0     C64588   9.570   0.469   7.407 -0.5416 -0.3719 -0.1266
  469MOL0     C64589   9.655   0.550   7.484 -0.2536  0.5759 -0.1008
  469MOL0     C64590   9.727   0.660   7.425 -0.1026  0.2883 -0.8422
  469MOL0     C64591   9.704   0.693   7.290  1.4576  0.5466 -0.0483
  469MOL0     O64592   9.764   0.806   7.243  0.3300 -0.1551  0.5506
  469MOL0     C64593   9.747   0.844   7.102 -1.3055 -0.3379  0.6888
  469MOL0     C64594   9.824   0.753   6.998 -0.1684 -0.1182 -0.5284
  469MOL0     C64595   9.911   0.629   7.053  0.6457 -0.3852 -0.2630
  469MOL0     C64596   9.983   0.556   6.935 -1.6290 -0.3587  0.3455
  469MOL0     C64597  10.056   0.426   6.978  0.9069  0.7927  0.0658
  469MOL0     C64598  10.180   0.378   6.906 -0.6056  0.2741  0.7319
  469MOL0     C64599  10.318   0.458   6.946  0.5023  0.2000 -0.6074
  469MOL0     C64600  10.396   0.364   7.031 -0.2771  0.9039  0.0512
  469MOL0     N64601  10.414   0.410   7.171 -0.1224  0.4969 -0.6226
  469MOL0     C64602  10.430   0.539   7.212 -0.2927 -0.6509 -0.7264
  469MOL0     C64603  10.465   0.516   7.345  1.1914  0.7140  1.0854
  469MOL0     C64604  10.531   0.619   7.428 -0.1514 -0.3052 -0.6018
  469MOL0     C64605  10.442   0.657   7.546 -0.1173  0.1167  0.1601
  469MOL0     C64606  10.496   0.768   7.643 -0.9116 -0.5791 -0.5334
  469MOL0     C64607  10.388   0.797   7.748  0.2157  0.4620 -1.1345
  469MOL0     O64608  10.437   0.902   7.838  0.4619 -0.2572 -0.1459
  469MOL0     C64609  10.368   0.929   7.951 -0.0940 -0.0969 -0.0127
  469MOL0     C64610  10.251   0.868   7.999  0.1239  0.1794 -0.8390
  469MOL0     C64611  10.191   0.911   8.115  1.3997 -0.3272 -1.1690
  469MOL0     C64612  10.065   0.833   8.162  0.1751  0.0306 -1.0166
  469MOL0     C64613  10.257   1.003   8.208 -0.2437 -0.5406 -0.0290
  469MOL0     C64614  10.216   1.037   8.346  0.1137 -0.0379  0.0507
  469MOL0     O64615  10.085   1.009   8.373  0.0549 -0.0381 -1.1888
  469MOL0     C64616  10.021   1.074   8.477  0.7971  0.7123  0.3818
  469MOL0     C64617   9.900   1.023   8.529 -1.3442 -0.6288  0.3894
  469MOL0     C64618   9.829   1.095   8.625  1.2021 -0.9676  0.3667
  469MOL0     C64619   9.863   1.215   8.670  0.1108 -1.1221  0.5946
  469MOL0     O64620   9.793   1.297   8.756 -0.2622  0.0839 -0.8679
  469MOL0     C64621   9.692   1.243   8.842  0.6526  0.3185 -1.0533
  469MOL0     C64622   9.617   1.353   8.904  0.1105 -0.2945  0.1325
  469MOL0     C64623   9.562   1.458   8.807  0.2629  0.1095 -0.9887
  469MOL0     C64624   9.508   1.589   8.877 -0.0175  0.3524  0.9250
  469MOL0     C64625   9.381   1.551   8.954  0.2257 -0.4828  0.7954
  469MOL0     C64626   9.292   1.674   8.985 -0.1198 -0.1062 -0.9014
  469MOL0     C64627   9.163   1.642   9.054  0.1087 -0.6061  0.2047
  469MOL0     C64628   9.081   1.759   9.107 -0.2906 -0.2221 -0.9368
  469MOL0    Cl64629   9.021   1.850   8.956  0.4069  0.1741 -0.0548
  469MOL0     C64630   9.974   1.271   8.621 -0.6467  0.3703 -0.2020
  469MOL0     C64631  10.046   1.206   8.517  0.1434 -0.9025  0.0467
  469MOL0     O64632  10.298   1.082   8.424 -0.4314  0.0569  0.4646
  469MOL0     C64633  10.368   1.064   8.152 -1.3758  0.1711  0.4172
  469MOL0     C64634  10.422   1.029   8.032  0.5223  0.2185  0.1311
  469MOL0     N64635  10.458   0.392   7.383  0.0315  0.1939  0.0679
  469MOL0     N64636  10.421   0.327   7.277  0.3470 -0.6738 -0.2465
  469MOL0     C64637   9.616   0.617   7.219 -0.3887 -0.5001  0.8069
  469MOL0     C64638   9.547   0.508   7.276 -0.4267  1.0484  0.6162
  469MOL0     C64639   9.358   0.232   7.604  0.3573 -0.8630 -0.8124
  469MOL0     C64640   9.457   0.133   7.631  0.2644  0.4890  0.6254
  469MOL0     C64641   9.434   0.018   7.701 -0.0315  0.3861  0.4809
  469MOL0     C64642   9.314  -0.006   7.761 -0.7180  0.2489 -0.3348
  469MOL0     O64643   9.280  -0.127   7.829 -0.7208 -0.1783  0.1625
  469MOL0     C64644   9.381  -0.222   7.852 -0.0851  1.2720  1.0240
  469MOL0     C64645   9.333  -0.349   7.930 -0.6067 -0.1065  0.8658
  469MOL0     C64646   9.280  -0.310   8.065 -0.0811 -0.3152  0.7074
  469MOL0     C64647   9.376  -0.252   8.174 -1.0801  0.2120 -0.2919
  469MOL0     C64648   9.312  -0.186   8.287 -0.8606 -0.7380 -0.7883
  469MOL0     C64649   9.253  -0.142   8.386  0.7276  0.9223 -0.0216
  469MOL0     C64650   9.213   0.089   7.742 -0.5803 -0.6375  0.2453
  469MOL0     C64651   9.231   0.216   7.672 -0.9744  0.3429 -0.5116
  469MOL0     C64652   9.126   0.318   7.679  0.0888  0.6978 -0.0748
  469MOL0     H64653   9.675   0.524   7.587  0.1542 -0.4556 -0.4279
  469MOL0     H64654   9.788   0.727   7.485  2.3831 -2.2350 -0.3169
  469MOL0     H64655   9.796   0.941   7.102 -0.2315 -0.8583  0.9060
  469MOL0     H64656   9.643   0.854   7.072 -0.9413 -2.2808 -1.4568
  469MOL0     H64657   9.737   0.709   6.948 -2.2666 -0.0716  2.8016
  469MOL0     H64658   9.884   0.815   6.931  1.2288 -2.2236 -1.3382
  469MOL0     H64659   9.985   0.654   7.129  2.5552  1.4335 -2.5634
  469MOL0     H64660   9.843   0.552   7.091 -1.2530  1.7288  0.8180
  469MOL0     H64661   9.898   0.523   6.874 -3.1549 -1.8058  3.0892
  469MOL0     H64662  10.050   0.622   6.879 -0.7911  0.7604  2.5394
  469MOL0     H64663   9.974   0.358   6.953 -0.8001  3.3800 -2.0882
  469MOL0     H64664  10.071   0.435   7.086  0.2751 -1.4127  0.3837
  469MOL0     H64665  10.191   0.270   6.908  2.0837  0.4417 -0.6273
  469MOL0     H64666  10.157   0.400   6.801 -1.5948  0.9728  1.0697
  469MOL0     H64667  10.291   0.548   7.002 -1.9646 -1.4002  0.9875
  469MOL0     H64668  10.375   0.475   6.854  0.1288  0.3164 -0.8196
  469MOL0     H64669  10.355   0.262   7.032 -2.5095  1.7533  1.0047
  469MOL0     H64670  10.495   0.347   6.988  0.0402 -3.5178  1.9227
  469MOL0     H64671  10.434   0.625   7.146  1.2058 -0.2854 -0.2068
  469MOL0     H64672  10.566   0.707   7.372  1.5965  0.6354  1.8099
  469MOL0     H64673  10.621   0.574   7.469 -1.2267 -0.0407  2.2461
  469MOL0     H64674  10.347   0.680   7.497  2.1465  0.5278 -4.5918
  469MOL0     H64675  10.416   0.568   7.604  1.8526 -2.5875 -2.7542
  469MOL0     H64676  10.588   0.754   7.700 -1.1804  0.2748  0.1344
  469MOL0     H64677  10.506   0.858   7.583 -0.2653  1.8140  2.8739
  469MOL0     H64678  10.290   0.823   7.706 -0.7078 -0.5580  0.3063
  469MOL0     H64679  10.379   0.703   7.804  3.8236  0.3489 -0.4952
  469MOL0     H64680  10.194   0.800   7.937 -4.4201  1.7736  1.1904
  469MOL0     H64681  10.076   0.781   8.258  0.6944  3.4113  0.9240
  469MOL0     H64682  10.043   0.757   8.086  1.1362  0.0608 -1.3402
  469MOL0     H64683   9.983   0.904   8.166  0.9983  1.1847 -2.9352
  469MOL0     H64684   9.873   0.927   8.487  2.5833 -1.1915 -1.3701
  469MOL0     H64685   9.742   1.047   8.668  2.7673 -4.3893  0.0357
  469MOL0     H64686   9.628   1.162   8.805  0.3568 -1.3284  2.6166
  469MOL0     H64687   9.717   1.183   8.930 -3.0217  0.0077 -0.0554
  469MOL0     H64688   9.535   1.308   8.962  0.0708 -1.0563 -0.5053
  469MOL0     H64689   9.693   1.398   8.968  0.5419  1.0323 -1.2592
  469MOL0     H64690   9.475   1.418   8.754 -1.1554  1.5536  0.1086
  469MOL0     H64691   9.633   1.484   8.728  0.5450  2.9824  0.0816
  469MOL0     H64692   9.483   1.662   8.799 -4.1638 -1.3788  0.3356
  469MOL0     H64693   9.578   1.634   8.947 -2.1739  0.4529  3.1300
  469MOL0     H64694   9.322   1.477   8.900 -1.1310  0.2463  1.2173
  469MOL0     H64695   9.401   1.511   9.054 -2.0591 -2.4361  0.5659
  469MOL0     H64696   9.265   1.716   8.888 -1.2483 -1.3878 -1.1698
  469MOL0     H64697   9.343   1.746   9.049 -1.4116  3.1296 -3.2629
  469MOL0     H64698   9.172   1.576   9.141 -2.0421  0.9329  1.7075
  469MOL0     H64699   9.112   1.587   8.974  0.3385  2.0242 -1.8666
  469MOL0     H64700   9.142   1.823   9.172 -0.7870 -0.8829  0.2073
  469MOL0     H64701   8.994   1.725   9.164 -0.2556  0.8616 -0.2007
  469MOL0     H64702  10.005   1.373   8.646  0.0975  0.7163 -2.3602
  469MOL0     H64703  10.125   1.268   8.475 -1.7677  1.5313 -0.2003
  469MOL0     H64704  10.433   1.135   8.200 -0.8461  1.2294 -1.7633
  469MOL0     H64705  10.510   1.084   8.000  1.0089 -0.7264 -0.2127
  469MOL0     H64706   9.596   0.633   7.114 -3.4271 -1.8819  1.0697
  469MOL0     H64707   9.488   0.446   7.209 -1.5798 -0.2271  2.6939
  469MOL0     H64708   9.556   0.127   7.587 -0.0366 -0.2222  0.0167
  469MOL0     H64709   9.512  -0.058   7.699  0.7472  1.1673 -1.0530
  469MOL0     H64710   9.417  -0.268   7.759 -0.8652  0.3976  1.1416
  469MOL0     H64711   9.473  -0.180   7.892 -0.5553  2.0193  1.3423
  469MOL0     H64712   9.407  -0.429   7.931 -0.7348 -0.2546 -0.2972
  469MOL0     H64713   9.245  -0.378   7.873  0.7332  0.1624 -1.4907
  469MOL0     H64714   9.208  -0.230   8.049 -3.2987 -3.4140 -1.6931
  469MOL0     H64715   9.228  -0.398   8.103  2.7714 -3.7016 -2.5623
  469MOL0     H64716   9.461  -0.194   8.135 -0.5985 -0.2200  0.0977
  469MOL0     H64717   9.423  -0.342   8.216 -1.7240  1.5037  3.6219
  469MOL0     H64718   9.183  -0.096   8.454 -0.9449 -0.3000 -0.8676
  469MOL0     H64719   9.119   0.093   7.795  0.3739 -1.8609  2.0934
  469MOL0     H64720   9.027   0.274   7.689  0.8140 -0.6987  1.3898
  469MOL0     H64721   9.161   0.379   7.763  1.6982 -1.6783  1.0950
  469MOL0     H64722   9.110   0.359   7.579 -3.7051 -0.5853 -0.1336
  470MOL0     O64723   0.976   6.254   5.647 -0.3300 -0.6397  0.3340
  470MOL0     C64724   0.862   6.225   5.675 -0.1954 -0.1482  0.5628
  470MOL0     O64725   0.775   6.150   5.596 -0.5723  0.6604  0.3314
  470MOL0     C64726   0.828   6.093   5.479 -0.6067 -0.2333 -0.0628
  470MOL0     C64727   0.784   5.969   5.438 -0.1285 -0.8156 -0.6667
  470MOL0     C64728   0.837   5.910   5.323 -0.6071 -0.3347  0.1005
  470MOL0     C64729   0.917   5.990   5.230 -0.2299  0.8806 -0.6924
  470MOL0     O64730   0.952   5.943   5.107  0.3957  0.4412  0.4715
  470MOL0     C64731   0.850   5.950   5.002  0.0495 -0.3351 -0.3763
  470MOL0     C64732   0.829   6.079   4.939  0.3638  0.3685  0.5050
  470MOL0     C64733   0.963   6.126   4.866 -0.0798  0.2500  0.7540
  470MOL0     C64734   0.963   6.081   4.710 -0.1626 -0.2922 -1.1759
  470MOL0     C64735   0.867   6.145   4.602  0.3519 -0.6046 -0.3737
  470MOL0     C64736   0.844   6.296   4.631 -0.6084 -0.4882 -0.5680
  470MOL0     C64737   0.754   6.378   4.545  0.5245 -0.6474  0.2647
  470MOL0     C64738   0.783   6.362   4.388  0.4580 -0.3318  0.8642
  470MOL0     N64739   0.758   6.479   4.316 -0.1051 -0.7107 -0.1690
  470MOL0     C64740   0.643   6.542   4.325  0.2692 -0.4573  0.4232
  470MOL0     C64741   0.642   6.627   4.219 -0.0713  0.1244 -0.6719
  470MOL0     C64742   0.519   6.699   4.161 -1.3669 -0.4021  0.6598
  470MOL0     C64743   0.477   6.626   4.035 -0.4842  0.2369 -0.4501
  470MOL0     C64744   0.554   6.669   3.916 -1.0056 -0.6109 -0.4839
  470MOL0     C64745   0.530   6.821   3.872  0.1510 -0.4177  0.1219
  470MOL0     O64746   0.568   6.838   3.734  0.8798  0.1972  0.2802
  470MOL0     C64747   0.702   6.856   3.697 -0.4796  0.0409  0.3785
  470MOL0     C64748   0.806   6.870   3.785  0.5372  0.6079  0.0123
  470MOL0     C64749   0.944   6.881   3.743 -0.5630  0.4411  0.9273
  470MOL0     C64750   1.060   6.903   3.844  0.5621  0.0780  0.3540
  470MOL0     C64751   0.976   6.890   3.603  0.1741 -0.0045  0.8624
  470MOL0     C64752   1.114   6.894   3.539 -0.5296 -0.4767  0.7279
  470MOL0     O64753   1.121   6.931   3.407 -0.2662  0.3132 -0.4251
  470MOL0     C64754   1.218   7.009   3.361 -0.1910  0.6626 -0.2580
  470MOL0     C64755   1.322   6.956   3.289  0.4826 -0.1896  0.9836
  470MOL0     C64756   1.432   7.028   3.250 -0.4227 -0.5544 -0.3281
  470MOL0     C64757   1.447   7.167   3.285  0.4707  0.1943 -0.9169
  470MOL0     O64758   1.552   7.237   3.239 -0.2059 -0.3774 -0.0168
  470MOL0     C64759   1.594   7.338   3.324 -0.5647  0.6443 -0.2260
  470MOL0     C64760   1.732   7.386   3.308  0.0355 -0.2893  0.3420
  470MOL0     C64761   1.779   7.458   3.435 -0.1047 -0.3928  0.1794
  470MOL0     C64762   1.879   7.572   3.398 -0.1247 -0.5293 -0.0263
  470MOL0     C64763   1.985   7.599   3.508 -0.0718  0.5069 -0.2495
  470MOL0     C64764   2.050   7.736   3.476 -0.7842 -0.8010  0.1038
  470MOL0     C64765   2.113   7.798   3.600  0.0902  1.1495 -0.1955
  470MOL0     C64766   2.244   7.878   3.572 -0.3360 -0.7614  0.1647
  470MOL0    Cl64767   2.321   7.938   3.715 -0.3325  0.0149  0.1736
  470MOL0     C64768   1.332   7.218   3.357  0.3897  0.0568 -0.4301
  470MOL0     C64769   1.225   7.147   3.400 -0.6504  0.4771  0.6792
  470MOL0     O64770   1.212   6.843   3.600 -0.4287 -0.7674 -0.2673
  470MOL0     C64771   0.864   6.879   3.512  0.2601  0.0693  0.1157
  470MOL0     C64772   0.732   6.859   3.558 -0.1771 -0.1357 -0.0124
  470MOL0     N64773   0.766   6.617   4.162 -0.5498  0.7184  0.8469
  470MOL0     N64774   0.843   6.539   4.229 -0.1367 -0.3591  0.1670
  470MOL0     C64775   0.947   6.118   5.268 -0.8433  0.2083 -0.0088
  470MOL0     C64776   0.906   6.171   5.387 -0.1097 -0.1423 -0.2758
  470MOL0     C64777   0.821   6.264   5.808  0.3313 -0.6902 -0.5067
  470MOL0     C64778   0.752   6.161   5.878  0.7336 -0.2744  0.9439
  470MOL0     C64779   0.719   6.173   6.014  0.3523 -0.7650  0.1468
  470MOL0     C64780   0.741   6.295   6.080 -0.0584 -0.4031  0.2129
  470MOL0     O64781   0.707   6.306   6.207  0.3292  0.2675  0.0923
  470MOL0     C64782   0.814   6.269   6.287  1.0437 -0.0452 -0.2081
  470MOL0     C64783   0.779   6.264   6.432 -0.7481 -0.0302 -0.5278
  470MOL0     C64784   0.707   6.388   6.497 -0.3481  0.7266  0.0626
  470MOL0     C64785   0.792   6.517   6.522  0.1358  0.2124 -0.4155
  470MOL0     C64786   0.899   6.501   6.615 -0.5991  0.3239 -0.0369
  470MOL0     C64787   0.992   6.483   6.691 -0.0217 -0.5276 -0.4810
  470MOL0     C64788   0.822   6.390   6.018 -0.1417 -0.4007  0.3985
  470MOL0     C64789   0.857   6.375   5.882  0.6572 -0.4272  0.3695
  470MOL0     C64790   0.935   6.491   5.824  0.3220  0.5972 -0.2349
  470MOL0     H64791   0.703   5.912   5.484 -0.3075 -0.2183 -0.2393
  470MOL0     H64792   0.825   5.813   5.276 -0.7721  0.4365 -1.4924
  470MOL0     H64793   0.758   5.921   5.053 -0.5883  4.5955  1.8602
  470MOL0     H64794   0.891   5.882   4.927  0.9609  0.7770 -0.9222
  470MOL0     H64795   0.747   6.071   4.867  0.7242  0.9305  0.0181
  470MOL0     H64796   0.795   6.154   5.011 -0.5777  2.1685 -1.6928
  470MOL0     H64797   0.978   6.234   4.865 -2.3483  0.6503 -1.5807
  470MOL0     H64798   1.053   6.093   4.919  0.6096  3.5884  1.9060
  470MOL0     H64799   1.065   6.091   4.671  0.2532  0.5703  0.0814
  470MOL0     H64800   0.936   5.975   4.705 -0.5265 -0.5749  3.3377
  470MOL0     H64801   0.773   6.092   4.617 -0.0852 -0.3835 -2.1023
  470MOL0     H64802   0.909   6.126   4.502  1.1358 -1.9769  0.1751
  470MOL0     H64803   0.821   6.308   4.737  0.2582 -0.0294 -0.4193
  470MOL0     H64804   0.947   6.333   4.618 -1.0261  0.1476 -2.4324
  470MOL0     H64805   0.766   6.487   4.555  0.2331 -0.5181 -0.6590
  470MOL0     H64806   0.649   6.350   4.557  0.9634 -3.5078 -1.6321
  470MOL0     H64807   0.885   6.330   4.371  0.8934  1.0944  0.6254
  470MOL0     H64808   0.724   6.292   4.328  0.2666 -0.4952  1.2407
  470MOL0     H64809   0.554   6.530   4.385 -0.5509  1.1719 -0.3830
  470MOL0     H64810   0.546   6.804   4.147 -0.2201 -0.6786  0.6742
  470MOL0     H64811   0.449   6.704   4.245  2.1022  1.9503  3.7599
  470MOL0     H64812   0.502   6.520   4.046 -1.4883 -0.1113 -1.3803
  470MOL0     H64813   0.371   6.632   4.009 -0.9468 -0.5960  1.1300
  470MOL0     H64814   0.659   6.648   3.937 -0.7406  1.0667 -0.0009
  470MOL0     H64815   0.535   6.604   3.830  0.0894 -0.5019 -0.8230
  470MOL0     H64816   0.423   6.845   3.880 -0.0813  0.5556 -3.8825
  470MOL0     H64817   0.592   6.887   3.934 -2.2876 -0.0016  2.3130
  470MOL0     H64818   0.800   6.875   3.893 -0.8499  1.4366 -0.0912
  470MOL0     H64819   1.015   6.948   3.933  0.3096 -0.4434  0.4915
  470MOL0     H64820   1.124   6.984   3.807  1.4086 -1.9913 -3.1188
  470MOL0     H64821   1.110   6.808   3.866  3.8070  1.3274 -0.9728
  470MOL0     H64822   1.320   6.852   3.257  4.1052 -0.9613  2.7675
  470MOL0     H64823   1.512   6.975   3.199 -1.9514 -0.7809 -2.6427
  470MOL0     H64824   1.522   7.420   3.332  1.8438  3.1741 -2.1592
  470MOL0     H64825   1.598   7.290   3.422  1.1569 -1.3450 -1.1780
  470MOL0     H64826   1.798   7.300   3.293  0.3210 -0.0098 -0.0080
  470MOL0     H64827   1.739   7.452   3.221  0.7795 -0.8047 -0.0062
  470MOL0     H64828   1.830   7.383   3.496  1.2290  2.2264  2.4922
  470MOL0     H64829   1.701   7.511   3.490 -2.1975  1.8339 -4.3390
  470MOL0     H64830   1.817   7.658   3.373  1.8798  1.2079  0.6222
  470MOL0     H64831   1.936   7.545   3.309 -0.1149 -4.3740  0.9594
  470MOL0     H64832   1.929   7.600   3.602  1.9701  1.2963  1.0227
  470MOL0     H64833   2.061   7.521   3.517 -2.0754 -1.4535  0.8418
  470MOL0     H64834   1.972   7.797   3.430  0.2627 -0.9478 -1.9522
  470MOL0     H64835   2.123   7.717   3.397 -1.4373 -0.0463 -0.6915
  470MOL0     H64836   2.149   7.716   3.663  1.4063  0.4794 -1.7644
  470MOL0     H64837   2.039   7.856   3.656  1.1620  3.8282 -1.4046
  470MOL0     H64838   2.215   7.958   3.503  3.2195 -0.5480 -1.2914
  470MOL0     H64839   2.320   7.826   3.514 -0.3639 -0.0101 -0.5730
  470MOL0     H64840   1.325   7.327   3.362 -2.5387 -0.1068  0.8564
  470MOL0     H64841   1.141   7.195   3.447 -1.2359 -1.5069  1.7810
  470MOL0     H64842   0.875   6.878   3.404  1.4843  1.2106  0.1951
  470MOL0     H64843   0.643   6.850   3.497 -0.9305 -0.6738  1.1399
  470MOL0     H64844   1.017   6.152   5.192 -1.1242 -0.3521 -0.5331
  470MOL0     H64845   0.920   6.276   5.408  1.1247 -0.5951  1.3663
  470MOL0     H64846   0.718   6.081   5.813  2.9745 -0.5033 -0.0441
  470MOL0     H64847   0.658   6.099   6.066 -0.5361 -0.4147 -0.3677
  470MOL0     H64848   0.852   6.171   6.257 -2.7540 -1.6953 -0.0944
  470MOL0     H64849   0.889   6.345   6.262  1.1760 -0.4739 -1.1648
  470MOL0     H64850   0.868   6.235   6.490 -1.6150 -0.6113  0.5371
  470MOL0     H64851   0.718   6.173   6.435  1.6885 -1.7619  1.5763
  470MOL0     H64852   0.618   6.407   6.435 -2.7554 -1.3657  2.5916
  470MOL0     H64853   0.665   6.368   6.596  0.5622  0.4352  0.3953
  470MOL0     H64854   0.718   6.591   6.551 -2.4042 -2.0244 -0.8518
  470MOL0     H64855   0.851   6.542   6.433  6.6195 -1.9344  2.6496
  470MOL0     H64856   1.074   6.446   6.750  1.0036 -0.7591 -1.9696
  470MOL0     H64857   0.849   6.485   6.063  1.6422  1.1046 -3.3867
  470MOL0     H64858   0.888   6.589   5.828  0.6523  0.8446 -1.8052
  470MOL0     H64859   1.029   6.500   5.880  0.7023  0.6559 -0.8705
  470MOL0     H64860   0.977   6.469   5.725 -0.4299  1.6261 -0.7905
  471MOL0     O64861   8.271   8.903   7.439 -0.4129  0.0791  0.7382
  471MOL0     C64862   8.174   8.897   7.363 -0.2349 -0.0436 -0.3148
  471MOL0     O64863   8.183   8.936   7.236 -0.0741 -0.5499 -0.1460
  471MOL0     C64864   8.300   8.995   7.185  0.1430  0.9926 -0.3912
  471MOL0     C64865   8.293   9.089   7.081 -0.1853  0.3395  0.9326
  471MOL0     C64866   8.407   9.146   7.021 -0.0707  0.7724  0.8625
  471MOL0     C64867   8.538   9.092   7.052 -0.2989  0.4016 -0.8944
  471MOL0     O64868   8.645   9.149   6.989  0.3675 -0.2712  0.4789
  471MOL0     C64869   8.710   9.065   6.896 -0.1767 -0.1016 -0.1253
  471MOL0     C64870   8.628   9.047   6.764 -0.5428  0.7692  0.2588
  471MOL0     C64871   8.616   9.174   6.682  0.5786  0.0999  0.2346
  471MOL0     C64872   8.753   9.206   6.616 -0.0994 -0.3087 -0.3711
  471MOL0     C64873   8.750   9.328   6.530 -0.2645 -0.0977  0.3555
  471MOL0     C64874   8.882   9.348   6.449 -0.5128 -0.5338 -0.1785
  471MOL0     C64875   8.854   9.429   6.318 -0.7532  0.3592 -0.1886
  471MOL0     C64876   8.949   9.452   6.196 -0.2648  0.1175 -0.0022
  471MOL0     N64877   8.904   9.550   6.093  0.8644  0.7150 -0.2919
  471MOL0     C64878   8.928   9.683   6.117 -0.3324 -0.0121  0.4628
  471MOL0     C64879   8.827   9.749   6.046 -0.0739 -0.1898  0.2627
  471MOL0     C64880   8.798   9.900   6.052 -0.0417 -0.6015  1.0513
  471MOL0     C64881   8.654   9.943   6.048  0.0448 -0.7179 -0.5589
  471MOL0     C64882   8.597   9.884   6.184  0.3481 -0.5013 -0.3885
  471MOL0     C64883   8.475   9.949   6.234 -0.4593 -0.0154  0.7507
  471MOL0     O64884   8.392   9.984   6.118  0.0139 -0.2880 -0.1712
  471MOL0     C64885   8.256   9.957   6.119 -0.4606  0.2327  0.0335
  471MOL0     C64886   8.180   9.968   6.230  0.3719  0.2700 -0.0443
  471MOL0     C64887   8.042   9.964   6.224 -0.7927 -0.2370  0.5091
  471MOL0     C64888   7.964   9.959   6.348 -1.3593 -0.0041 -0.5411
  471MOL0     C64889   7.980   9.931   6.094 -0.1552  0.2419  0.0333
  471MOL0     C64890   7.836   9.908   6.075 -1.1490  0.6982 -0.4526
  471MOL0     O64891   7.800   9.806   5.996 -0.4639 -0.3864  0.8785
  471MOL0     C64892   7.671   9.777   5.982  0.2980 -0.7018  1.1093
  471MOL0     C64893   7.644   9.642   5.974  0.1332 -0.1009  1.0145
  471MOL0     C64894   7.520   9.598   5.937  0.1796  0.6739 -0.3291
  471MOL0     C64895   7.414   9.681   5.899  0.3378 -0.2283  0.6294
  471MOL0     O64896   7.291   9.653   5.863  0.5813 -0.1295 -0.1011
  471MOL0     C64897   7.234   9.520   5.876 -0.8050 -0.8579  0.3599
  471MOL0     C64898   7.280   9.430   5.767  0.2026 -1.0531 -0.3901
  471MOL0     C64899   7.275   9.287   5.811  0.1139 -0.0767 -0.0017
  471MOL0     C64900   7.131   9.227   5.797 -0.0172  0.1533 -0.8225
  471MOL0     C64901   7.142   9.077   5.836  0.9215 -1.0476  0.3213
  471MOL0     C64902   7.174   9.041   5.978  0.7100  0.7754 -0.5445
  471MOL0     C64903   7.234   8.906   5.988 -0.2578 -0.2039 -1.1800
  471MOL0     C64904   7.366   8.890   5.904  0.7477  0.1190  0.6770
  471MOL0    Cl64905   7.448   8.738   5.962 -0.0271 -0.2444 -0.2179
  471MOL0     C64906   7.440   9.818   5.899 -0.7896 -0.4843 -0.5811
  471MOL0     C64907   7.569   9.871   5.933  0.4829  0.6621  0.7667
  471MOL0     O64908   7.765  10.000   6.112 -0.2124  0.3833 -0.1546
  471MOL0     C64909   8.062   9.934   5.981  0.6597 -0.1146  0.0080
  471MOL0     C64910   8.199   9.953   5.999 -0.9257  0.0968  0.6415
  471MOL0     N64911   8.758   9.649   5.971 -0.0017  0.3276 -0.4000
  471MOL0     N64912   8.797   9.529   6.004  0.1658 -0.2522 -0.6779
  471MOL0     C64913   8.540   8.981   7.140  0.6707  0.0351 -0.6292
  471MOL0     C64914   8.423   8.942   7.210 -0.2324  0.3840 -0.0661
  471MOL0     C64915   8.061   8.826   7.423 -0.3015  0.5679  1.0516
  471MOL0     C64916   8.048   8.847   7.564  0.3856 -1.0471 -0.6280
  471MOL0     C64917   7.932   8.794   7.625  0.7848 -0.1392 -0.6316
  471MOL0     C64918   7.849   8.714   7.556 -0.4547  0.2014 -0.2383
  471MOL0     O64919   7.725   8.662   7.606 -0.0073  0.4497 -0.1844
  471MOL0     C64920   7.722   8.595   7.738 -0.0812  0.4052 -0.2909
  471MOL0     C64921   7.806   8.464   7.711 -0.7009  0.2151 -0.5694
  471MOL0     C64922   7.732   8.362   7.626 -0.6270 -0.4512 -0.0525
  471MOL0     C64923   7.777   8.218   7.644 -0.0123  0.5654 -0.2101
  471MOL0     C64924   7.918   8.218   7.587 -0.1860 -0.1902 -0.0146
  471MOL0     C64925   8.035   8.209   7.548  0.2763  0.1614  0.1138
  471MOL0     C64926   7.868   8.680   7.422 -0.0830  0.2199  0.3103
  471MOL0     C64927   7.974   8.742   7.349 -0.3565 -0.3619 -0.2698
  471MOL0     C64928   7.987   8.732   7.194  0.4458  0.2621  0.0127
  471MOL0     H64929   8.194   9.132   7.068 -0.0014  0.9016  1.3590
  471MOL0     H64930   8.393   9.217   6.940 -1.0457 -4.4089 -4.1188
  471MOL0     H64931   8.728   8.960   6.922 -0.4480 -0.0692  0.2045
  471MOL0     H64932   8.811   9.103   6.883 -0.0224 -0.7399 -0.8928
  471MOL0     H64933   8.681   8.972   6.704 -0.3289  1.2211 -0.1284
  471MOL0     H64934   8.537   8.993   6.789  1.1406 -1.6017  1.6878
  471MOL0     H64935   8.542   9.159   6.603  0.8465 -2.7498  0.4422
  471MOL0     H64936   8.578   9.260   6.737 -1.3415  1.3262 -2.7599
  471MOL0     H64937   8.828   9.230   6.692  0.6457 -0.3320 -1.0897
  471MOL0     H64938   8.775   9.118   6.555 -0.2633  0.1475 -1.1024
  471MOL0     H64939   8.719   9.420   6.580 -1.2582  1.1047 -2.2729
  471MOL0     H64940   8.670   9.306   6.458 -1.7528  2.0367  1.2531
  471MOL0     H64941   8.956   9.403   6.508 -2.8158  2.8362 -0.1623
  471MOL0     H64942   8.915   9.246   6.428  0.9842 -1.0875  3.9450
  471MOL0     H64943   8.833   9.525   6.365 -0.6021 -0.6780  2.1289
  471MOL0     H64944   8.765   9.380   6.277 -0.3110 -1.1740  0.5897
  471MOL0     H64945   9.042   9.488   6.241  0.6233 -0.1680 -1.5666
  471MOL0     H64946   8.963   9.356   6.145 -0.1923 -0.9495  1.9062
  471MOL0     H64947   9.005   9.726   6.180 -1.9110  2.2861  0.9153
  471MOL0     H64948   8.850   9.965   5.980 -0.2876 -2.2733 -0.7441
  471MOL0     H64949   8.839   9.938   6.146 -0.4524  1.6974  0.3715
  471MOL0     H64950   8.649  10.052   6.057  1.6176 -0.6466 -0.1809
  471MOL0     H64951   8.606   9.923   5.952  0.6885  0.5634 -1.1797
  471MOL0     H64952   8.580   9.777   6.171  3.9634 -1.7386  3.1290
  471MOL0     H64953   8.673   9.885   6.263  1.3930  0.9384 -1.3534
  471MOL0     H64954   8.428   9.888   6.311  2.1685 -0.8661  1.7981
  471MOL0     H64955   8.508  10.037   6.290 -2.8902 -0.4232  3.0164
  471MOL0     H64956   8.233   9.996   6.321 -1.2665  1.2079  0.6605
  471MOL0     H64957   7.936   9.856   6.370 -0.0979 -0.2921 -0.2085
  471MOL0     H64958   7.869  10.009   6.325 -2.5803 -3.5251 -4.3512
  471MOL0     H64959   8.022  10.009   6.426  2.7066 -1.1940 -2.5298
  471MOL0     H64960   7.723   9.567   5.982  1.0147  0.5869 -0.7142
  471MOL0     H64961   7.499   9.492   5.923 -2.1031  0.9744  0.5156
  471MOL0     H64962   7.269   9.479   5.972  0.6178 -0.8070 -0.1145
  471MOL0     H64963   7.126   9.526   5.889 -0.9024  1.2671 -0.8804
  471MOL0     H64964   7.199   9.434   5.694 -0.3485 -0.2615  0.2555
  471MOL0     H64965   7.379   9.451   5.726  1.3268 -1.5924  1.8472
  471MOL0     H64966   7.311   9.280   5.914 -0.7129  0.6326  0.3466
  471MOL0     H64967   7.343   9.231   5.746 -4.0570 -3.5718 -1.8792
  471MOL0     H64968   7.094   9.237   5.695 -1.7356  3.8183  0.0132
  471MOL0     H64969   7.056   9.279   5.857 -2.4427 -2.0747 -1.7144
  471MOL0     H64970   7.050   9.025   5.808 -0.2280  1.9990 -2.2935
  471MOL0     H64971   7.218   9.039   5.767  2.0579  0.7493  0.5061
  471MOL0     H64972   7.082   9.050   6.035  1.5526  0.4226  0.9155
  471MOL0     H64973   7.238   9.116   6.026  0.8333 -1.2605  2.7276
  471MOL0     H64974   7.159   8.830   5.964 -1.1147 -0.5985  2.2379
  471MOL0     H64975   7.268   8.890   6.091 -2.7763  0.4055 -0.1878
  471MOL0     H64976   7.442   8.969   5.914 -0.9433  1.6411  2.4556
  471MOL0     H64977   7.339   8.886   5.798  2.1224 -0.1395  0.3187
  471MOL0     H64978   7.361   9.881   5.861 -1.0619  0.2251  1.0897
  471MOL0     H64979   7.594   9.975   5.912  2.1724  0.2130  0.3878
  471MOL0     H64980   8.011   9.921   5.886  1.6926  0.8007 -0.6891
  471MOL0     H64981   8.257   9.966   5.908  0.1012 -0.3507  1.2178
  471MOL0     H64982   8.633   8.946   7.182 -0.6127 -0.2258  2.2734
  471MOL0     H64983   8.445   8.860   7.278  0.3998  0.9926  0.4766
  471MOL0     H64984   8.108   8.911   7.628 -0.9796  2.4420 -2.5425
  471MOL0     H64985   7.887   8.822   7.720  2.2511  0.1393  0.0153
  471MOL0     H64986   7.774   8.651   7.817 -0.8198 -0.1082  0.5885
  471MOL0     H64987   7.619   8.574   7.768 -0.9664  1.6290 -2.3052
  471MOL0     H64988   7.825   8.419   7.808 -1.1155 -0.4598 -0.7924
  471MOL0     H64989   7.902   8.477   7.659  0.5353 -2.2727  0.9346
  471MOL0     H64990   7.625   8.375   7.643 -0.6059 -0.3741  0.0237
  471MOL0     H64991   7.750   8.401   7.526 -0.0908  2.2996  1.0286
  471MOL0     H64992   7.715   8.147   7.589 -0.0466 -0.3029  0.9186
  471MOL0     H64993   7.768   8.179   7.746  0.6828  1.2915  0.1441
  471MOL0     H64994   8.131   8.221   7.501 -0.1481  0.8776 -0.5966
  471MOL0     H64995   7.810   8.612   7.361 -0.1443  0.4383  0.1273
  471MOL0     H64996   7.975   8.835   7.161  0.2377  1.0547  2.3357
  471MOL0     H64997   8.079   8.685   7.158  0.4497  2.7274 -3.6884
  471MOL0     H64998   7.905   8.672   7.154 -0.3254  1.8527 -0.8921
  472MOL0     O64999   7.004   0.448   0.151 -0.7908  0.1922  0.0386
  472MOL0     C65000   6.896   0.496   0.177  0.2757  0.4498 -0.8164
  472MOL0     O65001   6.831   0.574   0.096  1.0909  0.9796  0.1448
  472MOL0     C65002   6.894   0.632  -0.007  0.1821  0.0249 -0.0975
  472MOL0     C65003   6.937   0.573  -0.126  0.4239 -0.1287 -0.1760
  472MOL0     C65004   7.027   0.640  -0.202 -0.4215 -0.2065  0.5639
  472MOL0     C65005   7.047   0.777  -0.184 -0.7142 -0.3138  0.4328
  472MOL0     O65006   7.117   0.848  -0.283 -0.3239 -0.4038 -0.4641
  472MOL0     C65007   7.204   0.953  -0.230 -0.2833 -0.4528  0.3792
  472MOL0     C65008   7.307   0.993  -0.341 -0.6763 -0.0365 -0.6244
  472MOL0     C65009   7.246   0.979  -0.479 -1.1791 -0.6139  0.0176
  472MOL0     C65010   7.142   1.094  -0.522 -0.1251  0.5415  0.1445
  472MOL0     C65011   7.111   1.060  -0.672 -0.0461  0.0818  0.6193
  472MOL0     C65012   7.046   1.185  -0.725  0.2121 -0.9067  1.1117
  472MOL0     C65013   7.034   1.179  -0.885  0.0721  0.4578  0.7142
  472MOL0     C65014   6.933   1.084  -0.941 -0.3150 -0.6471 -0.4004
  472MOL0     N65015   6.972   0.935  -0.954  0.5131  0.5867  1.0529
  472MOL0     C65016   7.082   0.879  -1.026 -0.3681 -0.4551  0.0557
  472MOL0     C65017   7.049   0.748  -1.027 -0.7764 -0.6523  0.7127
  472MOL0     C65018   7.144   0.639  -1.059 -0.3584 -0.2346  0.8484
  472MOL0     C65019   7.273   0.651  -0.975  0.4769  1.0388 -0.0415
  472MOL0     C65020   7.239   0.619  -0.820 -0.7206  0.3320  0.5135
  472MOL0     C65021   7.333   0.534  -0.739 -0.4244 -0.0785 -0.1137
  472MOL0     O65022   7.322   0.408  -0.796 -0.0574 -0.1164 -0.2840
  472MOL0     C65023   7.370   0.295  -0.716 -0.9134 -0.5557 -0.2695
  472MOL0     C65024   7.458   0.323  -0.601  0.4781  0.0519  0.1520
  472MOL0     C65025   7.495   0.217  -0.523  0.3433  0.5118 -0.1770
  472MOL0     C65026   7.583   0.258  -0.400  1.0998  0.1980 -0.0161
  472MOL0     C65027   7.462   0.079  -0.553  0.7970  0.6281 -0.3553
  472MOL0     C65028   7.497  -0.037  -0.467  0.1925 -0.8907 -0.4799
  472MOL0     O65029   7.607  -0.049  -0.395 -0.3536 -0.2133 -0.1107
  472MOL0     C65030   7.731  -0.078  -0.463  0.5841  0.0413  0.1377
  472MOL0     C65031   7.847  -0.059  -0.391  0.4008  0.3603  0.2866
  472MOL0     C65032   7.978  -0.088  -0.453  0.7060 -0.1955  0.2145
  472MOL0     C65033   7.982  -0.157  -0.580 -0.3992 -0.8293 -0.9534
  472MOL0     O65034   8.097  -0.210  -0.626 -1.1049  0.1549 -0.0531
  472MOL0     C65035   8.215  -0.175  -0.550 -0.5599 -0.0071 -0.1798
  472MOL0     C65036   8.319  -0.254  -0.631 -1.0698 -1.0623  1.0328
  472MOL0     C65037   8.342  -0.191  -0.771 -0.4104 -0.4923  0.4696
  472MOL0     C65038   8.472  -0.244  -0.844 -0.1170  0.0184 -0.0164
  472MOL0     C65039   8.491  -0.181  -0.983 -0.1999 -1.1387  0.4985
  472MOL0     C65040   8.526  -0.032  -0.983 -0.0679 -0.3013 -0.1256
  472MOL0     C65041   8.531   0.029  -1.123 -0.1713  0.2065  0.8348
  472MOL0     C65042   8.586   0.169  -1.118 -0.0496  0.1307 -0.1488
  472MOL0    Cl65043   8.466   0.273  -1.045 -0.1488  0.0045  0.1287
  472MOL0     C65044   7.859  -0.190  -0.632 -0.3105  0.3540 -0.1813
  472MOL0     C65045   7.736  -0.149  -0.581  0.3180  1.3221 -0.2307
  472MOL0     O65046   7.411  -0.124  -0.454 -0.6190 -0.2078  0.2989
  472MOL0     C65047   7.391   0.058  -0.672 -0.6741 -0.2629 -0.5897
  472MOL0     C65048   7.341   0.165  -0.751 -0.5588  0.4718 -0.1096
  472MOL0     N65049   6.938   0.719  -0.953  0.6450  0.3337 -0.6969
  472MOL0     N65050   6.890   0.827  -0.919 -0.6348  0.6494  0.7253
  472MOL0     C65051   6.985   0.835  -0.077  0.0919 -0.5572  0.2146
  472MOL0     C65052   6.909   0.769   0.015 -0.6441 -0.3466  0.7832
  472MOL0     C65053   6.836   0.470   0.309 -0.3972 -0.4954  1.0708
  472MOL0     C65054   6.743   0.566   0.345  0.5684 -0.4514 -0.0345
  472MOL0     C65055   6.671   0.547   0.465  0.0505  0.6799  0.3019
  472MOL0     C65056   6.699   0.445   0.555  0.4788 -0.2313 -0.4800
  472MOL0     O65057   6.629   0.433   0.674 -0.3851  1.4479  0.0683
  472MOL0     C65058   6.685   0.465   0.804  0.2106 -1.1612 -0.2364
  472MOL0     C65059   6.653   0.346   0.888 -0.5069 -0.0793  0.0503
  472MOL0     C65060   6.508   0.344   0.947  0.4971 -0.7734  0.2295
  472MOL0     C65061   6.436   0.214   0.915 -0.9400 -0.1417  0.4678
  472MOL0     C65062   6.318   0.208   0.996 -0.2816  1.0935  0.4399
  472MOL0     C65063   6.224   0.204   1.074  0.2866  0.2523 -0.4223
  472MOL0     C65064   6.801   0.355   0.520  0.7720  0.8940 -0.0133
  472MOL0     C65065   6.864   0.363   0.398 -0.4592  0.4889  0.7268
  472MOL0     C65066   6.979   0.256   0.373  0.1303 -0.4182 -0.4607
  472MOL0     H65067   6.900   0.472  -0.142 -1.1199  0.4420 -0.3830
  472MOL0     H65068   7.071   0.588  -0.287 -0.6521  0.4446  0.0383
  472MOL0     H65069   7.270   0.924  -0.148  3.1899 -3.6214 -3.0975
  472MOL0     H65070   7.139   1.039  -0.210  2.4504  1.7326  0.5209
  472MOL0     H65071   7.351   1.091  -0.322 -0.2595 -0.3456  0.0444
  472MOL0     H65072   7.400   0.935  -0.344  0.2461  1.3346  0.3278
  472MOL0     H65073   7.332   0.992  -0.546 -1.6545 -1.3152 -0.7528
  472MOL0     H65074   7.202   0.881  -0.502 -0.9138 -0.3156 -1.9426
  472MOL0     H65075   7.053   1.088  -0.458  0.7654 -0.3999  1.3324
  472MOL0     H65076   7.190   1.192  -0.517 -1.2440  1.4327 -3.4803
  472MOL0     H65077   7.033   0.983  -0.677 -0.1053  0.2324 -1.3140
  472MOL0     H65078   7.201   1.039  -0.730  1.0722 -0.4551  2.4639
  472MOL0     H65079   6.945   1.196  -0.687 -0.8078 -1.3998 -1.2484
  472MOL0     H65080   7.102   1.275  -0.702 -2.9566  1.2322  1.0180
  472MOL0     H65081   7.128   1.150  -0.933 -0.9534  0.9847 -1.7957
  472MOL0     H65082   7.017   1.283  -0.911 -0.3557  0.4509  0.9623
  472MOL0     H65083   6.848   1.082  -0.872 -0.3209  0.2781 -0.3727
  472MOL0     H65084   6.899   1.127  -1.036 -0.0310 -0.2412 -0.3210
  472MOL0     H65085   7.161   0.934  -1.075  0.6225 -1.5449  0.3966
  472MOL0     H65086   7.182   0.641  -1.162 -1.1439 -2.6652  0.4598
  472MOL0     H65087   7.087   0.546  -1.061 -1.9462  0.6760  1.9904
  472MOL0     H65088   7.340   0.578  -1.022  0.5355 -0.1049  1.7141
  472MOL0     H65089   7.316   0.752  -0.978 -2.3016  2.3267  0.4964
  472MOL0     H65090   7.222   0.710  -0.762  0.6720 -0.3154  2.0389
  472MOL0     H65091   7.144   0.566  -0.808 -0.6648  0.7221  3.3555
  472MOL0     H65092   7.431   0.580  -0.756 -0.6726  0.4596 -0.0895
  472MOL0     H65093   7.303   0.544  -0.635 -0.9088  0.7127 -0.3183
  472MOL0     H65094   7.490   0.425  -0.578 -1.4240  1.2255 -1.9799
  472MOL0     H65095   7.522   0.231  -0.313  0.2234 -0.0146 -0.6719
  472MOL0     H65096   7.599   0.366  -0.391 -1.7173  0.8172 -1.2997
  472MOL0     H65097   7.674   0.202  -0.379  0.4280  0.1024  2.9875
  472MOL0     H65098   7.852  -0.025  -0.288 -0.6509  1.4411  0.0022
  472MOL0     H65099   8.062  -0.057  -0.392  0.2764 -0.8340  1.1467
  472MOL0     H65100   8.248  -0.071  -0.555  1.9150 -0.6336  1.4411
  472MOL0     H65101   8.212  -0.205  -0.445 -2.0235  0.0181 -0.1931
  472MOL0     H65102   8.415  -0.243  -0.579 -0.1239 -2.6577 -0.3051
  472MOL0     H65103   8.299  -0.359  -0.653 -1.3610 -0.1167 -4.5575
  472MOL0     H65104   8.358  -0.083  -0.765 -2.1278 -0.1987  0.3733
  472MOL0     H65105   8.254  -0.213  -0.832 -1.0290 -0.2496  1.2456
  472MOL0     H65106   8.470  -0.352  -0.860 -0.4931  0.1038 -0.5605
  472MOL0     H65107   8.561  -0.227  -0.783  1.5734  0.3416 -2.4300
  472MOL0     H65108   8.573  -0.234  -1.032 -1.1690 -1.8152 -0.4388
  472MOL0     H65109   8.401  -0.194  -1.044 -0.0205  0.8504 -0.2445
  472MOL0     H65110   8.621  -0.014  -0.931  0.2848  1.8600 -1.3973
  472MOL0     H65111   8.446   0.008  -0.920 -0.8743 -2.8148  0.5525
  472MOL0     H65112   8.429   0.022  -1.160 -0.2053 -3.7882  1.2626
  472MOL0     H65113   8.597  -0.024  -1.193 -0.2316  0.0876  0.8681
  472MOL0     H65114   8.623   0.217  -1.209  0.9337  2.3503  1.3234
  472MOL0     H65115   8.672   0.168  -1.051 -1.1661  0.1393  1.3574
  472MOL0     H65116   7.853  -0.252  -0.720  1.8082 -0.5525  0.2540
  472MOL0     H65117   7.641  -0.168  -0.628  0.2339  1.2778 -0.0423
  472MOL0     H65118   7.374  -0.043  -0.707  0.7481 -1.3460  1.6029
  472MOL0     H65119   7.269   0.139  -0.828  0.3088 -0.2616 -0.7037
  472MOL0     H65120   6.992   0.943  -0.063 -0.9316 -0.5519  0.7381
  472MOL0     H65121   6.865   0.807   0.106  0.1398 -2.8356  2.3090
  472MOL0     H65122   6.715   0.649   0.282  1.1992  1.5801  2.2357
  472MOL0     H65123   6.596   0.619   0.496 -0.9823  0.4545 -1.5322
  472MOL0     H65124   6.793   0.480   0.806  0.3298 -2.0053  1.2352
  472MOL0     H65125   6.628   0.551   0.841 -2.3339 -2.6471 -0.4668
  472MOL0     H65126   6.727   0.350   0.969 -0.8908 -0.8666  0.4531
  472MOL0     H65127   6.671   0.250   0.838  1.8430  0.5857 -0.4761
  472MOL0     H65128   6.512   0.360   1.056 -0.6012  0.3542  0.1279
  472MOL0     H65129   6.448   0.430   0.916 -0.4984 -0.8493  1.8352
  472MOL0     H65130   6.490   0.119   0.923 -3.2173 -1.4386  1.4484
  472MOL0     H65131   6.404   0.212   0.810  0.4871  0.8441 -0.0100
  472MOL0     H65132   6.148   0.211   1.149 -0.6602 -4.2216 -0.6706
  472MOL0     H65133   6.830   0.285   0.598 -0.2093  0.1643 -0.2917
  472MOL0     H65134   6.999   0.218   0.272  2.9861 -2.1080  0.6260
  472MOL0     H65135   7.074   0.286   0.418  0.5922  0.3206 -1.8637
  472MOL0     H65136   6.939   0.166   0.421  1.2530 -0.8013 -0.2199
  473MOL0     O65137  10.717   5.485  10.722  0.6584 -0.1746 -0.4284
  473MOL0     C65138  10.699   5.565  10.816 -0.2052 -1.1786 -0.0526
  473MOL0     O65139  10.726   5.694  10.819  0.2199  0.2097  0.8246
  473MOL0     C65140  10.836   5.728  10.745  0.7537  0.3130 -1.1303
  473MOL0     C65141  10.821   5.788  10.619  0.6036 -0.2405 -0.1728
  473MOL0     C65142  10.935   5.841  10.548  0.1767 -0.4733  0.3617
  473MOL0     C65143  11.067   5.828  10.590  1.1714 -0.2531  0.1656
  473MOL0     O65144  11.177   5.884  10.523 -0.1822 -0.1850 -0.6654
  473MOL0     C65145  11.305   5.901  10.596 -0.6199 -0.2541  0.3484
  473MOL0     C65146  11.380   5.990  10.505  0.0828 -0.8837 -0.0142
  473MOL0     C65147  11.362   6.135  10.544 -0.1959 -0.4866 -1.7101
  473MOL0     C65148  11.443   6.228  10.454  0.4129 -0.2349 -0.0429
  473MOL0     C65149  11.374   6.225  10.313  0.0449 -0.8893 -0.5172
  473MOL0     C65150  11.372   6.368  10.261  0.8465 -0.1479  0.1316
  473MOL0     C65151  11.260   6.386  10.150 -0.3517 -0.9317  0.2236
  473MOL0     C65152  11.249   6.530  10.109 -0.5637 -0.9873 -0.7109
  473MOL0     N65153  11.362   6.569  10.033 -0.3191 -0.5136  0.6040
  473MOL0     C65154  11.377   6.542   9.896  0.3473  0.5944  0.4089
  473MOL0     C65155  11.477   6.615   9.850 -0.2295  0.2975 -0.0531
  473MOL0     C65156  11.546   6.622   9.714  0.4901  0.2784 -0.6305
  473MOL0     C65157  11.564   6.766   9.659  0.4581  0.3963  0.3711
  473MOL0     C65158  11.450   6.858   9.674  0.6824 -0.5933  0.3863
  473MOL0     C65159  11.443   6.973   9.574  0.0496  0.2391  0.3134
  473MOL0     O65160  11.523   7.081   9.611  0.2284  0.2811 -0.7816
  473MOL0     C65161  11.540   7.181   9.515 -0.2068 -0.0827 -0.4260
  473MOL0     C65162  11.655   7.247   9.518 -0.4589  0.2858  0.1370
  473MOL0     C65163  11.694   7.348   9.431  0.4756  0.1675  0.6415
  473MOL0     C65164  11.833   7.410   9.452 -0.1346  0.2686 -1.0855
  473MOL0     C65165  11.594   7.389   9.328  0.2613 -0.3545  0.3454
  473MOL0     C65166  11.629   7.493   9.225  0.6894 -1.0699 -0.6962
  473MOL0     O65167  11.517   7.556   9.171  0.3277 -0.2247  0.5742
  473MOL0     C65168  11.535   7.672   9.097 -0.1163  0.6442  0.9367
  473MOL0     C65169  11.547   7.671   8.967 -0.4177  0.4763 -0.4883
  473MOL0     C65170  11.555   7.786   8.879 -0.6379 -0.8844  0.2291
  473MOL0     C65171  11.560   7.910   8.944  0.0767  0.4834 -0.0417
  473MOL0     O65172  11.568   8.020   8.864  0.8241 -0.1410  0.8447
  473MOL0     C65173  11.649   8.134   8.901 -0.1991 -0.3437  0.1060
  473MOL0     C65174  11.643   8.234   8.790  0.3297 -0.0137 -0.2313
  473MOL0     C65175  11.716   8.182   8.666 -1.0487 -0.5247  0.0568
  473MOL0     C65176  11.765   8.290   8.569  0.0298 -0.6227  0.9190
  473MOL0     C65177  11.804   8.225   8.441  0.3293 -0.7442 -0.2919
  473MOL0     C65178  11.942   8.144   8.455 -0.2947  0.6036  0.4396
  473MOL0     C65179  11.986   8.076   8.317 -0.2112  0.3710 -0.4443
  473MOL0     C65180  12.010   7.925   8.327  0.1775 -0.0265  0.7905
  473MOL0    Cl65181  11.859   7.830   8.342 -0.4583  0.0463 -0.0828
  473MOL0     C65182  11.553   7.909   9.082  0.8299  0.2162  0.2161
  473MOL0     C65183  11.533   7.792   9.154 -0.7116 -0.0040 -1.0595
  473MOL0     O65184  11.746   7.526   9.208 -0.5436 -0.3952 -0.3331
  473MOL0     C65185  11.466   7.332   9.342 -0.0999 -0.0096  0.2316
  473MOL0     C65186  11.435   7.230   9.430 -1.0338  0.1919  0.2253
  473MOL0     N65187  11.515   6.702   9.951 -0.6704  0.8776 -0.2248
  473MOL0     N65188  11.458   6.659  10.055  0.8548  0.1407  0.9358
  473MOL0     C65189  11.085   5.749  10.708  0.6354 -0.1982 -0.2745
  473MOL0     C65190  10.967   5.701  10.787  0.6498  0.0666 -0.1031
  473MOL0     C65191  10.610   5.524  10.924 -0.6328 -1.0240 -0.0914
  473MOL0     C65192  10.493   5.598  10.941  0.2803 -0.2551  0.2216
  473MOL0     C65193  10.404   5.561  11.043  0.0150 -0.6250 -0.1153
  473MOL0     C65194  10.428   5.448  11.125 -0.1525 -0.2261  0.5923
  473MOL0     O65195  10.341   5.419  11.226  0.9911 -0.2923  1.1829
  473MOL0     C65196  10.324   5.291  11.269  0.4481  0.2309 -0.6063
  473MOL0     C65197  10.180   5.258  11.302  0.3594  0.2826 -1.0240
  473MOL0     C65198  10.148   5.108  11.307  0.4108  0.7217  0.4377
  473MOL0     C65199  10.212   5.027  11.413 -0.7144 -0.5369 -1.2248
  473MOL0     C65200  10.363   5.023  11.397  0.1187  0.9404  0.8263
  473MOL0     C65201  10.485   5.030  11.404 -0.1763  0.4921  0.4333
  473MOL0     C65202  10.555   5.397  11.117 -0.5421 -0.0866  0.3637
  473MOL0     C65203  10.653   5.430  11.027  0.6764 -0.2161  0.7996
  473MOL0     C65204  10.789   5.370  11.050  0.7122 -0.0322  0.0647
  473MOL0     H65205  10.722   5.817  10.586 -0.4866 -0.0411  3.0055
  473MOL0     H65206  10.930   5.908  10.463  0.9781 -0.1104  0.5877
  473MOL0     H65207  11.358   5.809  10.619  0.1625  0.9367  3.9417
  473MOL0     H65208  11.289   5.955  10.690  0.5872  2.9016 -1.1139
  473MOL0     H65209  11.484   5.957  10.495  0.5946  0.9217 -1.0872
  473MOL0     H65210  11.346   5.979  10.402  0.8624  3.7841 -1.0038
  473MOL0     H65211  11.255   6.156  10.531 -0.6218 -1.7343 -0.5349
  473MOL0     H65212  11.397   6.151  10.646 -0.8067 -0.0863 -1.5591
  473MOL0     H65213  11.437   6.323  10.508 -2.8636 -1.4773  2.0959
  473MOL0     H65214  11.546   6.193  10.449  0.7800  0.5084  1.5339
  473MOL0     H65215  11.270   6.197  10.331 -0.2983 -0.0034 -1.0710
  473MOL0     H65216  11.419   6.157  10.240 -0.4264 -2.0597  0.2525
  473MOL0     H65217  11.348   6.425  10.351 -0.0288  1.0750 -0.8330
  473MOL0     H65218  11.473   6.391  10.226  0.4367 -4.3302 -5.1795
  473MOL0     H65219  11.164   6.353  10.190 -0.5799 -0.7762 -0.1968
  473MOL0     H65220  11.277   6.321  10.064  0.9989  0.9407 -1.0145
  473MOL0     H65221  11.155   6.532  10.052 -0.6824  1.5656 -0.5349
  473MOL0     H65222  11.231   6.597  10.194  1.1875  0.9212 -1.7556
  473MOL0     H65223  11.321   6.475   9.832  0.2600  2.0909 -1.1467
  473MOL0     H65224  11.479   6.566   9.649  2.3670 -2.5077 -0.3219
  473MOL0     H65225  11.636   6.560   9.719 -1.0612 -2.0005  1.6875
  473MOL0     H65226  11.652   6.806   9.710 -0.4463 -0.0059  2.3107
  473MOL0     H65227  11.601   6.757   9.556  1.1671 -2.1533  0.7699
  473MOL0     H65228  11.369   6.786   9.655  0.5843 -1.1563  2.6261
  473MOL0     H65229  11.435   6.895   9.776 -2.5731 -2.9687  0.9416
  473MOL0     H65230  11.459   6.944   9.470 -0.0548  1.8574 -0.1778
  473MOL0     H65231  11.337   7.000   9.575 -0.5419 -1.2375 -3.7802
  473MOL0     H65232  11.726   7.212   9.593  1.8528  1.7351 -1.2618
  473MOL0     H65233  11.901   7.408   9.366  0.8671 -0.0824 -0.3017
  473MOL0     H65234  11.876   7.347   9.531 -4.1568 -0.2682  0.9386
  473MOL0     H65235  11.815   7.511   9.488  1.3193  0.3998 -0.6697
  473MOL0     H65236  11.575   7.578   8.919  0.7265 -0.3365  1.6151
  473MOL0     H65237  11.575   7.775   8.773 -2.3684  1.4931 -0.4383
  473MOL0     H65238  11.591   8.179   8.982 -0.0115  0.6064 -0.2744
  473MOL0     H65239  11.750   8.107   8.933  1.2168  0.5633 -3.1691
  473MOL0     H65240  11.537   8.249   8.764  1.2079 -0.0641 -4.6393
  473MOL0     H65241  11.671   8.332   8.829 -3.9300  0.5399  2.0272
  473MOL0     H65242  11.649   8.113   8.614 -3.1241  1.8653 -0.6233
  473MOL0     H65243  11.808   8.127   8.686 -0.2859 -0.0190 -1.8207
  473MOL0     H65244  11.853   8.341   8.608  0.5968  2.5748 -3.6532
  473MOL0     H65245  11.692   8.368   8.547  2.8254  1.9845  0.2824
  473MOL0     H65246  11.727   8.159   8.401  0.8790 -1.5736 -0.0119
  473MOL0     H65247  11.831   8.295   8.362 -1.7250  0.6393  0.1693
  473MOL0     H65248  11.944   8.073   8.538  3.9250 -2.1297 -1.6486
  473MOL0     H65249  12.037   8.196   8.474  1.0094 -1.8541  1.0684
  473MOL0     H65250  12.074   8.127   8.278 -0.8410  1.4504 -0.4878
  473MOL0     H65251  11.904   8.094   8.246  1.6512  0.7484 -2.6135
  473MOL0     H65252  12.077   7.912   8.413 -2.1582  2.6315  3.2109
  473MOL0     H65253  12.063   7.891   8.238  0.3965  1.6697  0.2302
  473MOL0     H65254  11.565   7.996   9.145  1.2611 -0.6215  1.3342
  473MOL0     H65255  11.534   7.793   9.262 -1.9493 -2.0645 -0.9697
  473MOL0     H65256  11.384   7.360   9.276  1.0289  2.2275 -0.3170
  473MOL0     H65257  11.336   7.188   9.445 -0.2402 -3.1983 -2.5922
  473MOL0     H65258  11.182   5.722  10.748 -0.0300 -1.1835  0.7523
  473MOL0     H65259  10.982   5.627  10.865 -0.2642  0.0634  0.0841
  473MOL0     H65260  10.473   5.691  10.889 -2.4024  1.0462  3.2601
  473MOL0     H65261  10.325   5.635  11.051  0.1790 -0.0631 -2.8692
  473MOL0     H65262  10.348   5.219  11.190  0.6550 -3.3619  2.4753
  473MOL0     H65263  10.391   5.274  11.353  1.3570 -0.4067 -1.4338
  473MOL0     H65264  10.116   5.288  11.219  0.5172  1.1800 -0.8299
  473MOL0     H65265  10.157   5.308  11.396 -1.2582 -1.3215 -0.5004
  473MOL0     H65266  10.039   5.102  11.315  0.4977  0.9797  2.2271
  473MOL0     H65267  10.181   5.065  11.212  2.2453 -0.3534  1.5073
  473MOL0     H65268  10.174   4.925  11.422 -1.4373 -0.0872  3.3398
  473MOL0     H65269  10.175   5.072  11.506 -1.8246  0.7958 -2.2685
  473MOL0     H65270  10.591   5.050  11.402 -0.2954  1.0976 -0.8563
  473MOL0     H65271  10.576   5.326  11.197 -2.3067  1.3267  2.1854
  473MOL0     H65272  10.866   5.443  11.076 -0.7590  0.6481  2.8980
  473MOL0     H65273  10.778   5.299  11.132  1.8149 -0.5534 -0.2216
  473MOL0     H65274  10.816   5.326  10.954 -0.1454  1.5383 -0.9485
  474MOL0     O65275   4.342   7.549   6.600  0.5116 -0.5512 -0.0047
  474MOL0     C65276   4.358   7.537   6.721  0.4382  0.4889 -0.2893
  474MOL0     O65277   4.322   7.628   6.800 -0.2580  0.6966 -0.3743
  474MOL0     C65278   4.297   7.755   6.756 -0.2990  0.2524  0.4371
  474MOL0     C65279   4.387   7.838   6.687 -0.1219 -0.2245  0.7651
  474MOL0     C65280   4.351   7.963   6.644  0.3066 -0.2218  0.1793
  474MOL0     C65281   4.216   8.013   6.662  0.6684 -0.1575 -0.0021
  474MOL0     O65282   4.169   8.127   6.617 -0.6426 -0.9213 -0.7647
  474MOL0     C65283   4.256   8.241   6.633 -1.2736  1.5263 -0.2500
  474MOL0     C65284   4.174   8.371   6.638  0.0825 -0.0976  0.8542
  474MOL0     C65285   4.104   8.402   6.508  0.1607 -0.6559  0.0602
  474MOL0     C65286   4.028   8.537   6.504  0.1796  0.4390  0.1429
  474MOL0     C65287   4.122   8.657   6.481  0.7025 -0.3280  1.2231
  474MOL0     C65288   4.163   8.659   6.329 -0.2935 -0.2764 -0.1939
  474MOL0     C65289   4.258   8.764   6.281 -0.3972 -0.3472 -0.1196
  474MOL0     C65290   4.415   8.723   6.317  0.1144 -0.5528  0.6866
  474MOL0     N65291   4.512   8.798   6.232  0.6722 -0.2996 -0.6541
  474MOL0     C65292   4.646   8.795   6.251 -0.3455 -0.8392  0.0302
  474MOL0     C65293   4.700   8.895   6.178 -0.1832  0.7747  0.1949
  474MOL0     C65294   4.841   8.945   6.155  0.3077  0.3515  1.0859
  474MOL0     C65295   4.875   8.976   6.008  0.7787 -0.1413 -1.1074
  474MOL0     C65296   5.023   9.014   5.999  0.3521 -1.5006 -0.0007
  474MOL0     C65297   5.059   9.059   5.857  1.2711  0.5304 -0.6571
  474MOL0     O65298   5.201   9.090   5.843 -0.4000  0.3428 -0.0255
  474MOL0     C65299   5.229   9.216   5.790  0.0034 -0.1884 -0.9833
  474MOL0     C65300   5.171   9.340   5.818 -0.4652 -0.1535 -0.2950
  474MOL0     C65301   5.238   9.461   5.777 -0.0957  0.7305  0.2347
  474MOL0     C65302   5.179   9.586   5.815  0.5603 -0.0699 -0.4884
  474MOL0     C65303   5.359   9.462   5.701  0.1046 -0.0110 -0.8015
  474MOL0     C65304   5.426   9.585   5.647 -0.2225  0.8075 -0.5052
  474MOL0     O65305   5.497   9.564   5.521  0.0440 -0.6016 -1.0973
  474MOL0     C65306   5.536   9.671   5.451  1.5386 -0.4945 -0.0748
  474MOL0     C65307   5.650   9.664   5.379 -0.3578 -0.3354  0.1469
  474MOL0     C65308   5.692   9.780   5.292  0.5032 -0.2321  0.2155
  474MOL0     C65309   5.618   9.897   5.287  0.2938 -0.1434 -0.3786
  474MOL0     O65310   5.639  10.014   5.214  0.3731  0.2254 -0.8840
  474MOL0     C65311   5.737   9.999   5.107 -0.5657 -1.0352  0.5183
  474MOL0     C65312   5.686   9.924   4.990 -0.0486  0.5234 -0.2175
  474MOL0     C65313   5.785   9.918   4.873  0.3929  0.7228 -0.3285
  474MOL0     C65314   5.899   9.820   4.921  0.6205 -0.3156 -0.5046
  474MOL0     C65315   5.987   9.773   4.801 -0.0665 -0.2032 -0.4027
  474MOL0     C65316   5.979   9.623   4.799 -0.0948 -0.6231 -0.2223
  474MOL0     C65317   6.074   9.566   4.696 -1.0346 -0.3109  0.3604
  474MOL0     C65318   6.080   9.406   4.682 -0.0731  0.4726 -0.5463
  474MOL0    Cl65319   5.935   9.341   4.598  0.6550  0.6595  0.5648
  474MOL0     C65320   5.491   9.895   5.346  0.6791  0.6783  0.3421
  474MOL0     C65321   5.455   9.784   5.425 -0.1412  0.3231  0.8105
  474MOL0     O65322   5.418   9.690   5.709  0.1803  0.1429  0.3203
  474MOL0     C65323   5.411   9.341   5.662  0.5148 -0.4910 -0.4307
  474MOL0     C65324   5.349   9.221   5.720  0.2837  1.0782  0.1662
  474MOL0     N65325   4.595   8.949   6.112 -0.5490 -0.6639 -0.2239
  474MOL0     N65326   4.481   8.895   6.145  0.5197 -0.4355 -0.0325
  474MOL0     C65327   4.125   7.927   6.729 -0.2142 -0.3419 -0.0718
  474MOL0     C65328   4.168   7.799   6.774 -0.3268 -0.3929 -0.4008
  474MOL0     C65329   4.387   7.391   6.762  0.4422  0.0388 -0.7593
  474MOL0     C65330   4.377   7.291   6.671 -0.3223 -0.0582 -0.5147
  474MOL0     C65331   4.422   7.160   6.697 -1.4703 -0.7517  0.2030
  474MOL0     C65332   4.472   7.129   6.828  0.7005  0.4012  0.2586
  474MOL0     O65333   4.488   7.002   6.880 -0.2270 -0.3361 -0.0819
  474MOL0     C65334   4.390   6.911   6.839 -0.0787 -0.1555  0.1859
  474MOL0     C65335   4.459   6.815   6.733  0.2620 -0.4004  0.2655
  474MOL0     C65336   4.593   6.765   6.791  0.5798 -0.1394  0.5816
  474MOL0     C65337   4.675   6.676   6.696 -0.2630 -1.2350 -0.0144
  474MOL0     C65338   4.739   6.763   6.593  0.6624  0.0184 -0.7516
  474MOL0     C65339   4.804   6.844   6.529 -0.2566 -0.3990  1.2462
  474MOL0     C65340   4.488   7.234   6.917  0.1269 -0.0276 -0.4510
  474MOL0     C65341   4.455   7.371   6.886  0.6904 -0.4314 -0.2008
  474MOL0     C65342   4.487   7.481   6.989 -0.0055 -0.2905  0.8378
  474MOL0     H65343   4.493   7.813   6.686 -0.0829 -0.2379 -2.0196
  474MOL0     H65344   4.433   8.012   6.593  0.7985 -3.9852 -3.2274
  474MOL0     H65345   4.325   8.250   6.548  1.4943 -1.3274  1.4844
  474MOL0     H65346   4.317   8.234   6.723  0.1631  1.3768 -1.1958
  474MOL0     H65347   4.096   8.368   6.714  0.7044 -0.6364  1.4824
  474MOL0     H65348   4.242   8.451   6.667  2.1376 -0.9690 -1.2053
  474MOL0     H65349   4.177   8.404   6.427  0.4262  0.8915  0.3097
  474MOL0     H65350   4.033   8.319   6.498  2.2838 -2.7907  1.4416
  474MOL0     H65351   3.954   8.535   6.424 -1.6415  3.7359  1.5489
  474MOL0     H65352   3.978   8.556   6.599  1.6605  0.8449  0.8769
  474MOL0     H65353   4.218   8.638   6.529  0.0085 -1.5963  2.1569
  474MOL0     H65354   4.063   8.748   6.495 -2.7893 -0.9829 -5.3318
  474MOL0     H65355   4.200   8.565   6.289 -3.0896 -2.0997  1.1732
  474MOL0     H65356   4.072   8.686   6.275  0.9228  0.2899 -2.0702
  474MOL0     H65357   4.246   8.865   6.322  1.8057  0.3180 -0.9680
  474MOL0     H65358   4.248   8.768   6.172  2.0958 -3.6476 -0.6322
  474MOL0     H65359   4.437   8.756   6.419  2.4451  3.2194 -0.8241
  474MOL0     H65360   4.425   8.616   6.300  0.4048 -0.7247  1.8727
  474MOL0     H65361   4.707   8.723   6.304  1.3950 -0.7213 -1.6892
  474MOL0     H65362   4.911   8.869   6.191  0.3020  0.4112  1.2246
  474MOL0     H65363   4.862   9.033   6.217  0.8705  0.8449  0.2291
  474MOL0     H65364   4.849   8.894   5.940  2.8154  0.8916 -3.2607
  474MOL0     H65365   4.826   9.071   5.985  2.0059  0.7134 -0.2713
  474MOL0     H65366   5.042   9.106   6.055  1.9757 -1.2815 -0.8411
  474MOL0     H65367   5.080   8.932   6.044 -0.4366 -2.5825 -0.9081
  474MOL0     H65368   5.033   8.977   5.789 -0.0770  0.9475 -0.6540
  474MOL0     H65369   4.988   9.131   5.818 -4.2704 -3.7715  0.2527
  474MOL0     H65370   5.082   9.346   5.880 -2.3303 -2.9327 -2.4576
  474MOL0     H65371   5.080   9.570   5.858 -0.3822 -0.2941 -2.5984
  474MOL0     H65372   5.153   9.653   5.732  1.1243 -1.4495 -1.8113
  474MOL0     H65373   5.258   9.625   5.880  1.6465 -3.4398  0.4059
  474MOL0     H65374   5.725   9.585   5.389  1.9263  1.4926 -1.3614
  474MOL0     H65375   5.773   9.762   5.222  0.9965  2.0866  0.0981
  474MOL0     H65376   5.770  10.097   5.071  0.8321 -0.3235  3.4256
  474MOL0     H65377   5.827   9.953   5.150  0.4632  1.1390  0.8185
  474MOL0     H65378   5.658   9.822   5.015 -0.8278 -0.4360 -4.2415
  474MOL0     H65379   5.599   9.970   4.942 -1.1375 -2.1447 -0.9571
  474MOL0     H65380   5.814  10.017   4.837 -1.7825  1.7121  0.4943
  474MOL0     H65381   5.736   9.874   4.785  0.4364  1.1455 -0.5686
  474MOL0     H65382   5.851   9.733   4.966  1.6537 -0.3948  0.4847
  474MOL0     H65383   5.965   9.872   4.991 -0.4904  1.4232 -0.6843
  474MOL0     H65384   5.936   9.815   4.714  0.0179  0.9137  0.0676
  474MOL0     H65385   6.089   9.810   4.816  0.2613 -2.0488  2.9617
  474MOL0     H65386   5.880   9.584   4.772  1.1300 -2.2259 -2.7596
  474MOL0     H65387   6.005   9.594   4.901 -2.2349  1.3402  0.9820
  474MOL0     H65388   6.171   9.613   4.715 -0.2016 -2.5721  2.1720
  474MOL0     H65389   6.044   9.613   4.602  2.7090  0.5306 -0.5635
  474MOL0     H65390   6.085   9.359   4.781 -3.7225 -2.2886 -1.4450
  474MOL0     H65391   6.167   9.383   4.620 -0.5611 -0.2180 -0.9892
  474MOL0     H65392   5.419   9.975   5.328  0.7531  1.0574  1.6468
  474MOL0     H65393   5.351   9.786   5.458  0.2523 -0.2534  2.1602
  474MOL0     H65394   5.493   9.333   5.592  0.1126 -1.8081 -0.7894
  474MOL0     H65395   5.410   9.133   5.706 -0.6188  0.8052 -2.6807
  474MOL0     H65396   4.025   7.963   6.750 -1.2634 -2.1841 -1.5745
  474MOL0     H65397   4.094   7.739   6.825  0.2403 -0.8225 -0.0602
  474MOL0     H65398   4.328   7.310   6.576 -1.7739 -0.1204  0.1962
  474MOL0     H65399   4.418   7.085   6.618  1.3404 -1.1293  0.3388
  474MOL0     H65400   4.371   6.853   6.929  1.1601  0.0337  0.5838
  474MOL0     H65401   4.299   6.959   6.799 -1.5574 -2.1956  0.9354
  474MOL0     H65402   4.477   6.880   6.647 -3.1776  1.0845  0.5121
  474MOL0     H65403   4.391   6.731   6.716  0.4746 -0.7597  1.1209
  474MOL0     H65404   4.663   6.843   6.824 -0.9344  0.5988  2.2415
  474MOL0     H65405   4.562   6.707   6.878  2.5218 -1.7555  0.2626
  474MOL0     H65406   4.607   6.603   6.651  0.0217  0.3449 -3.2683
  474MOL0     H65407   4.746   6.625   6.763  1.5486  0.9675 -0.1408
  474MOL0     H65408   4.871   6.913   6.482  0.2004  0.6647  3.3189
  474MOL0     H65409   4.523   7.212   7.018 -0.2744  0.8751 -0.1005
  474MOL0     H65410   4.548   7.463   7.078 -0.2459 -1.4815  0.7732
  474MOL0     H65411   4.528   7.569   6.939  1.1878 -1.0293  0.4823
  474MOL0     H65412   4.395   7.522   7.033 -1.1526 -1.0131 -0.7961
  475MOL0     O65413  10.529   4.752   7.973  0.6769  0.0360  0.0878
  475MOL0     C65414  10.538   4.758   7.851 -0.5285 -0.7041  0.6175
  475MOL0     O65415  10.444   4.803   7.770  0.9216  0.4970  0.3341
  475MOL0     C65416  10.335   4.875   7.811 -0.4203  0.1126  0.5125
  475MOL0     C65417  10.280   4.963   7.715  0.6644 -0.5168 -0.2506
  475MOL0     C65418  10.188   5.063   7.751 -0.7766  1.0026  0.3545
  475MOL0     C65419  10.146   5.071   7.889 -0.1182 -0.4225 -0.0463
  475MOL0     O65420  10.052   5.157   7.926  0.5524 -0.3720  0.0868
  475MOL0     C65421  10.051   5.292   7.885 -0.0572 -0.0912 -0.6277
  475MOL0     C65422   9.921   5.313   7.818  1.2459 -0.1800  0.1712
  475MOL0     C65423   9.892   5.454   7.776 -0.0359 -0.6021  0.4324
  475MOL0     C65424   9.746   5.495   7.755 -1.2185  0.1052  0.7088
  475MOL0     C65425   9.665   5.395   7.663 -0.7801 -0.3210 -0.5654
  475MOL0     C65426   9.542   5.471   7.625 -0.0140  1.2923 -0.7814
  475MOL0     C65427   9.452   5.367   7.558  0.1210  0.1909  1.4794
  475MOL0     C65428   9.328   5.432   7.515  1.0890 -0.4405  1.0811
  475MOL0     N65429   9.339   5.536   7.403 -1.3778  1.2356  0.1100
  475MOL0     C65430   9.317   5.507   7.270  0.6307 -0.5354 -0.1459
  475MOL0     C65431   9.334   5.623   7.204 -0.1353 -0.4036  0.6159
  475MOL0     C65432   9.337   5.655   7.051  0.3314 -0.3985 -0.2943
  475MOL0     C65433   9.232   5.750   7.000  1.3991  0.2267 -0.1450
  475MOL0     C65434   9.297   5.818   6.873  0.3503  0.2900  0.7928
  475MOL0     C65435   9.200   5.874   6.776  1.1794 -0.2964 -0.4445
  475MOL0     O65436   9.260   5.903   6.648 -1.1052  0.5682  0.1028
  475MOL0     C65437   9.174   5.954   6.552 -0.6846 -0.4135 -0.1056
  475MOL0     C65438   9.041   5.985   6.576 -0.0460 -0.4976  0.5196
  475MOL0     C65439   8.946   6.013   6.470 -0.4286  0.3407 -1.3774
  475MOL0     C65440   8.800   6.021   6.493  0.9783  0.0698 -0.4261
  475MOL0     C65441   9.002   6.024   6.340  0.6047 -0.4113  0.3064
  475MOL0     C65442   8.919   6.049   6.219  2.0287 -0.4912 -0.5143
  475MOL0     O65443   8.978   6.134   6.132 -0.7777 -0.1098  1.0478
  475MOL0     C65444   8.902   6.175   6.021 -0.0973 -0.0264 -0.0360
  475MOL0     C65445   8.964   6.168   5.897  0.6577  0.4121  0.2495
  475MOL0     C65446   8.923   6.232   5.780  0.9506 -0.2670 -0.3092
  475MOL0     C65447   8.810   6.307   5.788 -0.5348  0.1705  0.7686
  475MOL0     O65448   8.762   6.390   5.691  0.5891  0.5072 -0.4058
  475MOL0     C65449   8.808   6.371   5.560 -0.0952 -0.0507  0.0273
  475MOL0     C65450   8.742   6.250   5.488 -0.1155  0.1026 -0.2573
  475MOL0     C65451   8.768   6.241   5.338  0.8686 -0.0389  0.5297
  475MOL0     C65452   8.715   6.121   5.264 -0.1141 -0.8237 -0.0389
  475MOL0     C65453   8.830   6.032   5.225  0.1564 -0.0104 -0.7380
  475MOL0     C65454   8.765   5.903   5.161  0.3300  0.7444 -0.4862
  475MOL0     C65455   8.871   5.820   5.097 -0.1687  0.5389 -0.4002
  475MOL0     C65456   8.997   5.784   5.186  0.5808  0.7211  0.3383
  475MOL0    Cl65457   9.107   5.686   5.097 -0.0322 -0.4876  0.1784
  475MOL0     C65458   8.754   6.322   5.917  0.5158 -1.0392 -0.1516
  475MOL0     C65459   8.791   6.250   6.030  0.1303 -0.6728  0.9219
  475MOL0     O65460   8.816   5.985   6.202 -0.1483 -0.5246 -0.2571
  475MOL0     C65461   9.142   6.007   6.324 -0.6636  0.8612  0.7672
  475MOL0     C65462   9.231   5.972   6.428  0.0491 -0.1506 -0.0741
  475MOL0     N65463   9.365   5.716   7.300 -0.6127  1.1924  0.0819
  475MOL0     N65464   9.378   5.660   7.418  0.3335 -0.2281 -0.1009
  475MOL0     C65465  10.191   4.976   7.978 -0.0368 -1.2710  0.2427
  475MOL0     C65466  10.281   4.879   7.938 -0.6938  0.5132 -0.1951
  475MOL0     C65467  10.656   4.695   7.791 -0.2467 -0.4433 -0.3895
  475MOL0     C65468  10.634   4.620   7.665 -0.5948 -0.7245  0.8794
  475MOL0     C65469  10.746   4.567   7.596  0.8882 -0.2222  0.6018
  475MOL0     C65470  10.870   4.577   7.650 -0.6571 -0.2670  0.0439
  475MOL0     O65471  10.988   4.517   7.594 -0.1090  0.4496  0.0549
  475MOL0     C65472  10.974   4.448   7.474 -0.2152 -0.0330  0.6102
  475MOL0     C65473  10.978   4.548   7.364 -0.0501 -0.0225  0.6762
  475MOL0     C65474  11.104   4.628   7.360  0.3279 -0.8443  0.0582
  475MOL0     C65475  11.139   4.710   7.231  0.3774 -0.1975  0.2725
  475MOL0     C65476  11.066   4.836   7.212 -0.3441  0.8864  0.4187
  475MOL0     C65477  11.015   4.948   7.203 -0.2922 -0.4990  0.1563
  475MOL0     C65478  10.892   4.631   7.776 -0.5239 -0.1361  0.4283
  475MOL0     C65479  10.785   4.686   7.855 -0.1831 -0.5081  0.4063
  475MOL0     C65480  10.818   4.758   7.972 -0.5393 -1.0272 -0.3598
  475MOL0     H65481  10.301   4.953   7.609  2.2381 -0.0837 -0.0029
  475MOL0     H65482  10.147   5.130   7.676 -0.9046  1.7447  1.0648
  475MOL0     H65483  10.135   5.317   7.820 -0.7253  1.6409 -0.8938
  475MOL0     H65484  10.066   5.361   7.969 -1.0225  1.1348 -1.4136
  475MOL0     H65485   9.909   5.246   7.733 -1.5539  2.5684 -1.8108
  475MOL0     H65486   9.847   5.278   7.890  1.2266 -1.1656 -0.3210
  475MOL0     H65487   9.932   5.526   7.847 -2.5711  1.3445  0.0488
  475MOL0     H65488   9.934   5.489   7.681  0.2317  0.1162  0.8113
  475MOL0     H65489   9.685   5.489   7.846 -0.8647 -2.9328  0.8668
  475MOL0     H65490   9.738   5.591   7.704 -2.1819 -0.0794  0.4936
  475MOL0     H65491   9.637   5.310   7.726 -0.6352  0.2599  0.2982
  475MOL0     H65492   9.724   5.365   7.576  1.9811  0.8722  0.7686
  475MOL0     H65493   9.490   5.508   7.714 -2.9127  1.7143 -2.5268
  475MOL0     H65494   9.573   5.555   7.562  1.6266  0.4813 -1.1134
  475MOL0     H65495   9.424   5.279   7.616 -3.0004 -0.0961 -0.2384
  475MOL0     H65496   9.499   5.331   7.466 -1.0557 -0.6179  1.1763
  475MOL0     H65497   9.256   5.355   7.485  1.1002  0.2724 -0.8931
  475MOL0     H65498   9.288   5.487   7.601  3.5657  1.9678  0.8263
  475MOL0     H65499   9.297   5.413   7.220  0.1725  0.0499 -1.0931
  475MOL0     H65500   9.325   5.562   6.995 -0.3076  0.3799 -1.4815
  475MOL0     H65501   9.439   5.693   7.044 -0.3810  2.3658  2.1475
  475MOL0     H65502   9.138   5.698   6.978  0.4817  1.6692  0.2131
  475MOL0     H65503   9.216   5.819   7.083  0.2860 -1.2154  0.8932
  475MOL0     H65504   9.376   5.890   6.895  1.0376 -0.9460  2.5072
  475MOL0     H65505   9.351   5.742   6.817 -1.1539 -0.6541  0.5714
  475MOL0     H65506   9.120   5.800   6.764 -1.4595  2.6692 -2.6240
  475MOL0     H65507   9.157   5.966   6.815  0.8378 -0.3507 -0.6898
  475MOL0     H65508   8.994   5.975   6.674 -1.2906  0.9361  0.1118
  475MOL0     H65509   8.756   5.930   6.452 -0.2510 -0.2068  1.4106
  475MOL0     H65510   8.762   6.109   6.441  1.4806  0.2155 -0.5562
  475MOL0     H65511   8.777   6.033   6.599 -1.7943  1.2115 -1.0723
  475MOL0     H65512   9.059   6.115   5.903  1.7531  2.3207  0.3931
  475MOL0     H65513   8.983   6.219   5.690  0.0915 -1.6898 -0.7011
  475MOL0     H65514   8.779   6.463   5.509  0.2514  2.4645  3.9603
  475MOL0     H65515   8.917   6.359   5.558 -0.1301 -0.3339 -1.6812
  475MOL0     H65516   8.784   6.159   5.531 -1.5680 -1.0046 -1.0760
  475MOL0     H65517   8.634   6.250   5.507 -0.0662 -2.5983  0.3093
  475MOL0     H65518   8.877   6.239   5.335  0.8317 -0.8827 -0.8672
  475MOL0     H65519   8.719   6.321   5.281  0.9494 -1.3162 -1.4001
  475MOL0     H65520   8.662   6.156   5.175  0.5522  1.9497  0.5660
  475MOL0     H65521   8.634   6.077   5.323  1.4581 -0.2692  2.6902
  475MOL0     H65522   8.896   6.089   5.159 -2.5049  0.4737 -3.1954
  475MOL0     H65523   8.887   6.015   5.317 -1.1178  3.9545  1.0077
  475MOL0     H65524   8.684   5.937   5.096 -1.5839 -0.9531  0.9018
  475MOL0     H65525   8.703   5.852   5.236 -0.5865 -0.6837 -2.1575
  475MOL0     H65526   8.895   5.891   5.016  0.7149  2.2947  1.3235
  475MOL0     H65527   8.833   5.728   5.051  1.6522 -1.5092  1.9422
  475MOL0     H65528   8.966   5.720   5.269 -1.1219 -1.8870 -2.1118
  475MOL0     H65529   9.053   5.872   5.217 -0.6637  1.8250 -0.4130
  475MOL0     H65530   8.663   6.380   5.929  0.5823 -1.2405  1.6578
  475MOL0     H65531   8.738   6.267   6.123  0.3952  1.3539  0.7448
  475MOL0     H65532   9.181   6.032   6.226 -2.9067 -0.8353 -0.6548
  475MOL0     H65533   9.335   5.962   6.402  0.7940  4.0299  0.7229
  475MOL0     H65534  10.169   5.003   8.081 -0.6683  0.2125 -0.2570
  475MOL0     H65535  10.307   4.809   8.017  3.5330  1.0362 -0.8780
  475MOL0     H65536  10.543   4.619   7.606 -0.7443  0.7089  1.0364
  475MOL0     H65537  10.725   4.516   7.502  0.3860 -1.8501  1.5619
  475MOL0     H65538  11.066   4.390   7.481 -1.3689 -2.0802 -0.1945
  475MOL0     H65539  10.890   4.378   7.465 -0.2130  0.0883 -0.5001
  475MOL0     H65540  10.890   4.613   7.369  0.3160  0.5043  0.3712
  475MOL0     H65541  10.973   4.489   7.272 -2.5676 -0.3205  0.9402
  475MOL0     H65542  11.113   4.698   7.443 -1.0345  1.0511 -1.3226
  475MOL0     H65543  11.184   4.554   7.367  1.4084  0.0010 -2.3934
  475MOL0     H65544  11.111   4.636   7.155  0.8061  0.2592 -0.3424
  475MOL0     H65545  11.246   4.732   7.227  0.1155  1.6061  1.7689
  475MOL0     H65546  10.974   5.045   7.184  0.1463 -0.6125 -1.4853
  475MOL0     H65547  10.997   4.634   7.801  0.6515  1.2672 -3.7372
  475MOL0     H65548  10.803   4.863   7.949 -1.9259 -1.1571 -0.1354
  475MOL0     H65549  10.759   4.722   8.057 -2.1430 -1.5078 -1.6236
  475MOL0     H65550  10.923   4.741   7.999 -1.2652 -2.5528  1.7383
  476MOL0     O65551   8.055   5.383  10.157 -0.7582  0.0256  0.3500
  476MOL0     C65552   8.131   5.472  10.124 -0.7952 -0.5468 -0.1834
  476MOL0     O65553   8.224   5.477  10.016  0.4758  0.0208 -0.5397
  476MOL0     C65554   8.246   5.359   9.951  0.8040  0.6443  0.7798
  476MOL0     C65555   8.324   5.254  10.002  0.2886  0.2073  0.4109
  476MOL0     C65556   8.345   5.147   9.933 -0.3922  0.0549  0.6750
  476MOL0     C65557   8.288   5.117   9.806  1.2732 -0.5266  0.1023
  476MOL0     O65558   8.317   5.002   9.748  0.5402 -0.2340  0.0749
  476MOL0     C65559   8.378   5.012   9.619 -0.7839 -0.6039 -0.2633
  476MOL0     C65560   8.508   5.091   9.614  0.1888  0.1774  0.0384
  476MOL0     C65561   8.626   5.017   9.676  0.2300  0.1360 -0.1318
  476MOL0     C65562   8.752   5.102   9.656 -1.9232  0.1916 -1.0439
  476MOL0     C65563   8.764   5.231   9.744 -1.3157 -0.1896  0.6988
  476MOL0     C65564   8.899   5.295   9.765  1.1039 -0.1032  0.5675
  476MOL0     C65565   8.901   5.389   9.883 -0.4216 -0.1236 -0.4690
  476MOL0     C65566   9.029   5.463   9.916 -0.1313  0.0302 -0.7499
  476MOL0     N65567   9.002   5.527  10.042  0.6835  0.7306  0.7989
  476MOL0     C65568   8.935   5.648  10.049 -0.1638  0.4109 -0.1083
  476MOL0     C65569   8.945   5.673  10.184 -0.8828 -0.1999 -0.0204
  476MOL0     C65570   8.887   5.783  10.267 -0.3934 -0.7067 -0.4956
  476MOL0     C65571   8.936   5.783  10.414  1.1069 -0.7434 -0.6043
  476MOL0     C65572   8.863   5.902  10.487  0.6447  0.2884 -0.2797
  476MOL0     C65573   8.851   5.881  10.647 -0.8457 -0.5725 -0.2540
  476MOL0     O65574   8.791   5.993  10.718  0.2078 -0.8674  0.3315
  476MOL0     C65575   8.882   6.079  10.767  0.1093  0.0201 -0.2003
  476MOL0     C65576   8.950   6.046  10.887  0.7147  0.5275  0.0819
  476MOL0     C65577   9.066   6.117  10.920  0.8607  0.4077 -0.2567
  476MOL0     C65578   9.138   6.070  11.044 -0.6996  0.1632 -0.9193
  476MOL0     C65579   9.110   6.224  10.834 -0.1525 -0.4388 -0.7114
  476MOL0     C65580   9.228   6.316  10.865  0.1724  0.0258  0.3471
  476MOL0     O65581   9.263   6.422  10.779  0.7439 -0.2284  0.0091
  476MOL0     C65582   9.377   6.497  10.801 -0.4350 -1.1358 -0.0113
  476MOL0     C65583   9.391   6.625  10.746 -0.0119  0.1058 -0.2045
  476MOL0     C65584   9.495   6.711  10.769 -0.4963  0.1639 -0.3549
  476MOL0     C65585   9.603   6.667  10.851 -0.4892  0.0480 -0.1772
  476MOL0     O65586   9.717   6.744  10.869  0.2940 -0.4628 -0.0559
  476MOL0     C65587   9.690   6.887  10.838 -0.8994  0.0511 -0.2177
  476MOL0     C65588   9.798   6.992  10.887  0.1185  1.1178 -0.7358
  476MOL0     C65589   9.759   7.133  10.861 -0.5321 -1.1455  0.8001
  476MOL0     C65590   9.795   7.197  10.722 -0.1863  0.1734  0.4021
  476MOL0     C65591   9.715   7.320  10.696  0.2050 -0.8857 -0.1410
  476MOL0     C65592   9.701   7.424  10.810  0.8204 -0.5249  0.6666
  476MOL0     C65593   9.835   7.482  10.861  0.7109 -0.8552 -0.3842
  476MOL0     C65594   9.852   7.470  11.016  0.0946 -0.7031  0.4530
  476MOL0    Cl65595   9.951   7.600  11.083  0.1917 -0.0988  0.1227
  476MOL0     C65596   9.608   6.532  10.884 -0.4949 -0.1223 -0.3131
  476MOL0     C65597   9.493   6.447  10.859  0.1213  0.0894  0.0117
  476MOL0     O65598   9.286   6.291  10.966  0.3566 -0.3685  0.2302
  476MOL0     C65599   9.040   6.242  10.711  0.6058 -1.2713 -0.2476
  476MOL0     C65600   8.928   6.182  10.687 -0.2914 -0.7138  1.1252
  476MOL0     N65601   9.049   5.601  10.239  1.2537  0.6037  0.2481
  476MOL0     N65602   9.082   5.511  10.150 -0.9010 -0.3145  0.3699
  476MOL0     C65603   8.214   5.226   9.738 -0.5658 -0.1785 -1.0327
  476MOL0     C65604   8.192   5.345   9.818  0.1379  1.1204  0.2308
  476MOL0     C65605   8.114   5.596  10.207 -1.4637 -0.0435  0.4837
  476MOL0     C65606   8.188   5.712  10.158 -0.2469 -0.3628 -0.6818
  476MOL0     C65607   8.200   5.825  10.236 -0.0253  0.1316 -0.0376
  476MOL0     C65608   8.149   5.830  10.360  0.3557 -1.3548  0.2047
  476MOL0     O65609   8.154   5.942  10.424  1.1392 -0.0408  0.3817
  476MOL0     C65610   8.127   5.968  10.558 -0.7471 -0.9470 -0.3196
  476MOL0     C65611   8.242   5.916  10.654  0.5227 -0.1084  0.6496
  476MOL0     C65612   8.205   5.955  10.800  0.1843 -0.4467 -0.3806
  476MOL0     C65613   8.329   5.956  10.891  0.5573 -0.1289  0.7362
  476MOL0     C65614   8.396   5.825  10.899  0.7965 -0.1381  0.0380
  476MOL0     C65615   8.438   5.715  10.899  0.5292  1.3709  0.0319
  476MOL0     C65616   8.069   5.724  10.408  0.0831  0.3055 -0.5186
  476MOL0     C65617   8.049   5.602  10.332  0.0408  0.4031  0.7722
  476MOL0     C65618   7.958   5.512  10.398  0.4542  0.7367  1.0373
  476MOL0     H65619   8.374   5.276  10.096 -1.1080  0.3176  1.1612
  476MOL0     H65620   8.418   5.074   9.965  2.4655  2.1936 -0.4804
  476MOL0     H65621   8.308   5.061   9.550  1.0709  1.0452 -1.0692
  476MOL0     H65622   8.392   4.909   9.585  0.1625 -0.0048 -1.7897
  476MOL0     H65623   8.527   5.109   9.508 -1.7967  0.0577 -0.3814
  476MOL0     H65624   8.487   5.187   9.663 -4.1925  0.1629 -1.3072
  476MOL0     H65625   8.606   5.003   9.782 -1.3782 -0.2331 -0.4561
  476MOL0     H65626   8.641   4.921   9.627  2.2334 -1.2707  2.9419
  476MOL0     H65627   8.840   5.039   9.669 -1.0084  0.9018 -3.2868
  476MOL0     H65628   8.753   5.140   9.553  0.7717 -0.9783 -1.5291
  476MOL0     H65629   8.731   5.189   9.840 -2.9249  0.3495  0.4194
  476MOL0     H65630   8.700   5.315   9.716 -1.3500 -0.2894  0.4730
  476MOL0     H65631   8.974   5.216   9.771 -1.1534 -2.5811 -1.2531
  476MOL0     H65632   8.930   5.347   9.674 -2.9066  0.6138 -0.5655
  476MOL0     H65633   8.871   5.335   9.973  2.1563  1.0394  1.2158
  476MOL0     H65634   8.830   5.469   9.863 -1.3916 -0.6041  0.8752
  476MOL0     H65635   9.119   5.401   9.921 -0.0065  0.3109  1.5273
  476MOL0     H65636   9.048   5.542   9.842 -3.9816  1.0004 -0.9275
  476MOL0     H65637   8.870   5.711   9.990  0.6297 -0.9539 -2.5838
  476MOL0     H65638   8.778   5.773  10.257 -0.3657 -1.5110 -0.0873
  476MOL0     H65639   8.921   5.880  10.230  4.4240 -1.0932  2.1421
  476MOL0     H65640   8.896   5.688  10.450  1.5028 -0.3817  0.8413
  476MOL0     H65641   9.044   5.789  10.427  1.0955 -1.9233  0.1662
  476MOL0     H65642   8.912   5.996  10.464  1.9218 -0.6721 -1.7108
  476MOL0     H65643   8.761   5.893  10.450 -0.1718  2.4037  1.2772
  476MOL0     H65644   8.778   5.799  10.651  0.1611 -1.4636  0.4957
  476MOL0     H65645   8.944   5.840  10.686 -0.9074 -0.2940  0.1883
  476MOL0     H65646   8.925   5.958  10.944  1.6000  0.6712  0.7102
  476MOL0     H65647   9.244   6.057  11.021 -0.3519 -1.3499  1.2034
  476MOL0     H65648   9.092   5.976  11.077 -0.2086  0.4327  0.6352
  476MOL0     H65649   9.121   6.139  11.128  2.2850  1.2031 -1.0553
  476MOL0     H65650   9.306   6.657  10.687 -0.2603  1.4697  0.8314
  476MOL0     H65651   9.488   6.808  10.721  3.7546  0.7659 -0.1436
  476MOL0     H65652   9.713   6.890  10.731  3.1619 -0.4242  0.4739
  476MOL0     H65653   9.591   6.918  10.871 -0.5386 -0.2565  1.2096
  476MOL0     H65654   9.812   6.975  10.994 -1.9699 -1.4933 -0.7729
  476MOL0     H65655   9.899   6.966  10.853  0.0164 -0.1627 -0.1094
  476MOL0     H65656   9.806   7.203  10.931 -1.7109  0.4944  0.0254
  476MOL0     H65657   9.654   7.138  10.890  0.5787  0.4608  5.3221
  476MOL0     H65658   9.767   7.115  10.656  0.2491 -0.6826  1.2541
  476MOL0     H65659   9.901   7.223  10.714 -0.2816  0.1168 -1.4302
  476MOL0     H65660   9.770   7.369  10.615  0.2766  2.1743  1.6076
  476MOL0     H65661   9.616   7.298  10.655 -0.5729  2.4243 -0.3624
  476MOL0     H65662   9.638   7.394  10.895 -0.8798  1.9410  0.3915
  476MOL0     H65663   9.633   7.505  10.782 -1.8978 -1.4288  3.8944
  476MOL0     H65664   9.843   7.589  10.846 -1.5215 -0.5288  0.2993
  476MOL0     H65665   9.921   7.448  10.802 -0.0942  0.0097 -2.1191
  476MOL0     H65666   9.909   7.379  11.036  1.8719 -0.0830 -1.4235
  476MOL0     H65667   9.750   7.471  11.055 -1.7932 -2.9816 -3.7879
  476MOL0     H65668   9.701   6.514  10.936 -0.5429  3.7886  1.4619
  476MOL0     H65669   9.501   6.343  10.890  0.6147  0.2817  0.5421
  476MOL0     H65670   9.064   6.327  10.648 -1.4042  1.8415  2.7945
  476MOL0     H65671   8.879   6.202  10.592  0.2548  1.0778  1.1916
  476MOL0     H65672   8.178   5.212   9.636 -2.3020 -0.3258 -0.4303
  476MOL0     H65673   8.133   5.421   9.767 -1.4711 -0.5649 -0.5411
  476MOL0     H65674   8.237   5.706  10.061 -2.2534 -0.5919 -1.7503
  476MOL0     H65675   8.244   5.916  10.197  2.6617  0.5482  3.4806
  476MOL0     H65676   8.117   6.076  10.549 -0.3910 -1.0005 -1.5243
  476MOL0     H65677   8.040   5.915  10.600 -1.3300  0.8636  0.8503
  476MOL0     H65678   8.333   5.962  10.614  1.8062 -1.3518  2.0215
  476MOL0     H65679   8.252   5.807  10.646 -0.6762 -0.1800 -0.1768
  476MOL0     H65680   8.174   6.059  10.813  3.3538  0.5182  0.3647
  476MOL0     H65681   8.127   5.896  10.849 -2.1186  2.5484 -0.1803
  476MOL0     H65682   8.304   5.984  10.994  0.4527 -0.1531  0.7187
  476MOL0     H65683   8.400   6.033  10.861 -0.6407  1.1059  0.9440
  476MOL0     H65684   8.462   5.611  10.894 -0.4199  1.1182  0.4069
  476MOL0     H65685   8.019   5.735  10.503 -2.6664  5.3883 -2.1697
  476MOL0     H65686   7.999   5.411  10.384  2.1037  1.3606  1.1003
  476MOL0     H65687   7.964   5.515  10.507 -0.6447 -0.0290  1.1281
  476MOL0     H65688   7.852   5.516  10.371 -0.4751 -2.9414  3.3677
  477MOL0     O65689   8.225  10.020   3.013  0.1104  0.7408  0.8837
  477MOL0     C65690   8.186   9.904   2.997 -0.4081 -0.1045 -0.1296
  477MOL0     O65691   8.238   9.816   2.909  0.0781  0.1176 -0.3493
  477MOL0     C65692   8.332   9.847   2.812 -0.4504 -1.9255 -0.5197
  477MOL0     C65693   8.360   9.731   2.731  0.5831 -0.7347  0.3786
  477MOL0     C65694   8.439   9.743   2.611 -0.2660 -0.1126 -0.9411
  477MOL0     C65695   8.501   9.866   2.579 -0.2217  0.6761 -0.1825
  477MOL0     O65696   8.592   9.895   2.479  0.0370  0.7212  0.0388
  477MOL0     C65697   8.578   9.808   2.364 -0.0890  0.1804  0.0984
  477MOL0     C65698   8.632   9.868   2.236 -0.3059 -0.2822  0.3278
  477MOL0     C65699   8.540   9.968   2.163 -0.0729 -0.4446 -0.0686
  477MOL0     C65700   8.617  10.052   2.068 -0.3313 -0.2366 -0.6203
  477MOL0     C65701   8.523  10.155   2.003  0.2874  0.8780 -0.3928
  477MOL0     C65702   8.596  10.195   1.872  0.2461 -0.5450  0.3227
  477MOL0     C65703   8.493  10.259   1.774  0.7694  1.0530  0.3538
  477MOL0     C65704   8.513  10.248   1.619  0.6264  0.0306  0.1161
  477MOL0     N65705   8.642  10.290   1.593 -0.0396  0.1445 -0.0568
  477MOL0     C65706   8.692  10.418   1.609  0.4289  0.4535  0.0268
  477MOL0     C65707   8.809  10.426   1.530 -0.2618  0.3512  0.1010
  477MOL0     C65708   8.902  10.546   1.523 -0.0195  0.8519  0.7147
  477MOL0     C65709   9.005  10.535   1.631 -1.1892 -1.7492  1.2252
  477MOL0     C65710   9.144  10.593   1.580  0.6927  0.7230 -0.5433
  477MOL0     C65711   9.145  10.732   1.523  0.8788  0.0998 -0.5362
  477MOL0     O65712   9.099  10.820   1.632 -0.8155  1.1026  0.0238
  477MOL0     C65713   9.100  10.951   1.596  0.3090  0.1071 -0.2359
  477MOL0     C65714   8.996  10.985   1.512  0.4059 -0.1680 -0.6388
  477MOL0     C65715   9.012  11.116   1.453 -0.4350  0.4801  0.7281
  477MOL0     C65716   8.903  11.158   1.355  0.1488  0.5161 -0.3536
  477MOL0     C65717   9.111  11.204   1.508 -0.0907 -0.2911 -0.6798
  477MOL0     C65718   9.131  11.334   1.453 -0.0603 -0.7433  0.0778
  477MOL0     O65719   9.020  11.402   1.412  0.0874  0.3445 -0.2553
  477MOL0     C65720   9.007  11.529   1.369 -0.4900 -0.3643 -0.3597
  477MOL0     C65721   8.871  11.570   1.375 -0.3295 -0.6512  0.2471
  477MOL0     C65722   8.836  11.699   1.336  0.9784  0.5485  0.4442
  477MOL0     C65723   8.922  11.785   1.274  0.5811  0.3128  0.7788
  477MOL0     O65724   8.867  11.905   1.235 -0.1273  0.1212 -0.2395
  477MOL0     C65725   8.961  12.004   1.191  0.1438 -1.6316  0.5877
  477MOL0     C65726   8.991  12.104   1.301 -0.0522  0.8588  0.2075
  477MOL0     C65727   9.108  12.202   1.274  0.8457  0.2195  0.1975
  477MOL0     C65728   9.086  12.329   1.350  0.2264 -0.0777 -0.0995
  477MOL0     C65729   9.175  12.453   1.323 -0.2249  0.6546 -1.0839
  477MOL0     C65730   9.196  12.473   1.168 -0.2874 -0.1504  0.5971
  477MOL0     C65731   9.264  12.607   1.131  0.5213  0.5167 -0.0162
  477MOL0     C65732   9.270  12.629   0.973  0.2902 -0.1222  0.2381
  477MOL0    Cl65733   9.392  12.507   0.909 -0.3024  0.2958  0.3847
  477MOL0     C65734   9.058  11.750   1.274  0.0568 -0.3634 -0.8044
  477MOL0     C65735   9.108  11.621   1.325  0.1476  0.2044 -0.2773
  477MOL0     O65736   9.244  11.386   1.457 -0.6608 -0.0712  0.1862
  477MOL0     C65737   9.196  11.167   1.609  0.8006  0.6514  0.1375
  477MOL0     C65738   9.205  11.034   1.647  0.7106  0.1030  0.4037
  477MOL0     N65739   8.822  10.303   1.457 -0.3374  0.1542  0.3190
  477MOL0     N65740   8.724  10.219   1.499  0.5241 -0.4318  0.2543
  477MOL0     C65741   8.480   9.972   2.670  0.0174  0.0430 -0.1689
  477MOL0     C65742   8.404   9.969   2.786 -1.7690 -0.5254 -0.0254
  477MOL0     C65743   8.075   9.856   3.082 -0.5005  0.4649 -0.5342
  477MOL0     C65744   8.074   9.852   3.218 -0.8082  0.2447  0.4565
  477MOL0     C65745   7.964   9.802   3.286  0.6033 -0.5169 -0.9069
  477MOL0     C65746   7.853   9.758   3.219  0.7756  0.6928  0.4314
  477MOL0     O65747   7.740   9.724   3.285  0.4941  0.4922 -0.2068
  477MOL0     C65748   7.684   9.587   3.256  0.0100  0.0994 -0.5053
  477MOL0     C65749   7.756   9.467   3.326 -0.4414 -0.6356  0.4580
  477MOL0     C65750   7.791   9.510   3.473  1.3355  0.4927  0.0891
  477MOL0     C65751   7.660   9.535   3.548 -0.3461  0.1316  0.7628
  477MOL0     C65752   7.678   9.547   3.689 -0.2274 -0.8068 -0.0277
  477MOL0     C65753   7.699   9.539   3.812  0.3458  0.1619  0.2287
  477MOL0     C65754   7.849   9.770   3.080  0.3974  0.4879  0.7986
  477MOL0     C65755   7.956   9.816   3.006 -0.1859  0.5365 -0.4688
  477MOL0     C65756   7.952   9.820   2.853 -0.1447  0.9193  0.2314
  477MOL0     H65757   8.318   9.633   2.750  0.8386 -1.3995 -2.1406
  477MOL0     H65758   8.463   9.659   2.546  0.0903  1.8945 -3.5468
  477MOL0     H65759   8.471   9.794   2.349 -0.3267  2.0358 -0.1268
  477MOL0     H65760   8.633   9.718   2.393  0.3830  0.3270 -0.3120
  477MOL0     H65761   8.728   9.913   2.267  0.5612 -1.1081 -1.0671
  477MOL0     H65762   8.670   9.796   2.163  0.9216  2.7401 -2.2467
  477MOL0     H65763   8.465   9.904   2.116  0.2761 -0.5378 -0.5197
  477MOL0     H65764   8.488  10.036   2.230  1.2279  0.6732 -0.1331
  477MOL0     H65765   8.701  10.111   2.107 -0.2220 -0.7100 -0.1227
  477MOL0     H65766   8.645   9.984   1.987  1.2922  0.5804 -0.7883
  477MOL0     H65767   8.502  10.238   2.071  0.7404  0.2221  0.5880
  477MOL0     H65768   8.425  10.109   1.988  1.8285 -2.7595 -0.4976
  477MOL0     H65769   8.674  10.268   1.894  0.8059 -1.1615  0.3922
  477MOL0     H65770   8.641  10.114   1.814  0.9909  1.7265 -2.5773
  477MOL0     H65771   8.486  10.367   1.793  1.5989  0.9330  1.4698
  477MOL0     H65772   8.395  10.216   1.796 -0.1372  1.9079 -1.7646
  477MOL0     H65773   8.504  10.146   1.580 -2.7031 -0.7027  2.3720
  477MOL0     H65774   8.434  10.308   1.573 -0.9990 -1.0195  1.4164
  477MOL0     H65775   8.643  10.490   1.674 -1.7659 -0.2652 -0.7653
  477MOL0     H65776   8.829  10.626   1.542 -1.4524 -0.7717  2.5042
  477MOL0     H65777   8.935  10.559   1.420 -1.6464 -0.1887  0.0212
  477MOL0     H65778   8.980  10.600   1.716  0.6567  0.1146  0.4427
  477MOL0     H65779   9.032  10.435   1.666  4.0367 -1.4597 -1.0826
  477MOL0     H65780   9.221  10.581   1.656  0.1327  0.3063 -0.0300
  477MOL0     H65781   9.177  10.535   1.494 -1.1966  1.4908 -1.8804
  477MOL0     H65782   9.248  10.744   1.490  2.8493  0.4202  4.6821
  477MOL0     H65783   9.065  10.726   1.448 -0.7312  3.1670  0.7422
  477MOL0     H65784   8.909  10.922   1.500 -0.2358  0.2483  1.5220
  477MOL0     H65785   8.816  11.193   1.410  0.7998  2.4126 -0.4731
  477MOL0     H65786   8.872  11.063   1.309  1.2747  0.9716 -2.1444
  477MOL0     H65787   8.925  11.218   1.267  0.8624  0.6153 -0.1187
  477MOL0     H65788   8.806  11.490   1.409  3.9629 -4.8410 -0.3818
  477MOL0     H65789   8.729  11.717   1.347  0.6395 -0.9078 -0.2376
  477MOL0     H65790   9.058  11.962   1.163 -1.4959 -3.2449 -3.3982
  477MOL0     H65791   8.922  12.057   1.104 -0.0469 -1.2584  0.8992
  477MOL0     H65792   8.897  12.150   1.332 -0.1581  0.3838  0.6161
  477MOL0     H65793   9.014  12.038   1.385  2.3660 -1.5905 -2.1778
  477MOL0     H65794   9.103  12.220   1.166 -2.5260  0.4318  0.2876
  477MOL0     H65795   9.203  12.158   1.307 -0.0999 -0.8136  1.6497
  477MOL0     H65796   9.069  12.323   1.458 -4.0988  1.1685 -0.5157
  477MOL0     H65797   8.986  12.356   1.316 -0.1297 -0.8045  0.3442
  477MOL0     H65798   9.134  12.540   1.375 -0.1832  0.6498 -1.0434
  477MOL0     H65799   9.277  12.443   1.360 -0.3532 -0.6493 -1.0560
  477MOL0     H65800   9.103  12.458   1.111  0.9060  1.6879 -2.0267
  477MOL0     H65801   9.265  12.397   1.130 -0.8822 -3.1833  4.9491
  477MOL0     H65802   9.360  12.611   1.183  0.5793  0.9939 -0.1552
  477MOL0     H65803   9.203  12.686   1.176 -0.0491 -0.4746  1.0140
  477MOL0     H65804   9.292  12.734   0.950  0.1021 -0.9281 -4.5848
  477MOL0     H65805   9.173  12.600   0.932 -1.0248  2.0835  1.5489
  477MOL0     H65806   9.140  11.817   1.248 -0.1595 -0.1313 -0.8946
  477MOL0     H65807   9.207  11.578   1.316 -0.2073 -0.5401 -0.8611
  477MOL0     H65808   9.268  11.237   1.650  0.9543  1.2422 -1.1006
  477MOL0     H65809   9.276  10.992   1.717  1.1120 -0.1746 -0.1689
  477MOL0     H65810   8.556  10.048   2.651  1.0854 -0.9708 -0.0468
  477MOL0     H65811   8.376  10.062   2.835 -0.4084  0.0885 -0.3724
  477MOL0     H65812   8.164   9.889   3.267  1.2663 -0.7517 -2.3571
  477MOL0     H65813   7.969   9.796   3.394  0.1821  4.3307 -0.3986
  477MOL0     H65814   7.584   9.598   3.298  1.1808  1.3627  2.1805
  477MOL0     H65815   7.685   9.570   3.148  4.5177 -1.7379 -0.4117
  477MOL0     H65816   7.846   9.450   3.267 -0.7190 -2.1062  0.4208
  477MOL0     H65817   7.685   9.385   3.312 -0.2970 -0.5951 -0.5768
  477MOL0     H65818   7.836   9.423   3.520  3.0422  1.4354  0.2764
  477MOL0     H65819   7.857   9.597   3.475 -2.5642  3.8069 -0.2368
  477MOL0     H65820   7.592   9.452   3.523 -0.1742  0.8392 -2.5213
  477MOL0     H65821   7.614   9.626   3.507  0.5141 -0.2519 -1.1694
  477MOL0     H65822   7.719   9.539   3.917 -0.0191  2.3902  0.3517
  477MOL0     H65823   7.758   9.752   3.024 -0.5179  1.1835  1.9961
  477MOL0     H65824   8.020   9.754   2.799 -0.1224  2.3604 -1.5938
  477MOL0     H65825   7.849   9.790   2.833  0.9263 -4.2563  1.0500
  477MOL0     H65826   7.979   9.921   2.819 -0.8579  0.5635 -1.4826
  478MOL0     O65827   0.539   2.606   5.648 -0.1634 -0.4784 -0.1928
  478MOL0     C65828   0.643   2.563   5.700 -0.1302  1.4059  0.0239
  478MOL0     O65829   0.745   2.632   5.757 -0.1136  0.5831  0.2375
  478MOL0     C65830   0.739   2.761   5.799 -0.2951 -0.7432 -1.1175
  478MOL0     C65831   0.625   2.833   5.841  0.5307 -0.5713 -0.1806
  478MOL0     C65832   0.644   2.961   5.890  0.3246  0.2593 -0.1528
  478MOL0     C65833   0.762   3.025   5.905 -0.0790  0.1667 -0.5957
  478MOL0     O65834   0.762   3.153   5.953  0.7356 -0.7628 -0.3129
  478MOL0     C65835   0.882   3.236   5.940 -0.0496  0.0409  0.1503
  478MOL0     C65836   0.860   3.354   6.035 -0.2419 -0.4091  0.0482
  478MOL0     C65837   0.793   3.477   5.949  0.3186 -0.5225  0.0859
  478MOL0     C65838   0.639   3.467   5.945  0.1085  0.0319  0.2793
  478MOL0     C65839   0.590   3.510   6.090  0.0915  0.0645 -0.3073
  478MOL0     C65840   0.443   3.545   6.091  0.2672  0.2872 -0.3441
  478MOL0     C65841   0.362   3.420   6.048 -0.7388 -0.8497  0.1615
  478MOL0     C65842   0.374   3.291   6.134  0.2223 -0.9162  0.4344
  478MOL0     N65843   0.251   3.215   6.114  0.3155  0.6240 -0.0263
  478MOL0     C65844   0.218   3.119   6.022 -0.6435  0.5674 -0.7698
  478MOL0     C65845   0.097   3.083   6.047 -0.1433 -0.0155  0.5657
  478MOL0     C65846  -0.004   3.008   5.961 -0.1372 -0.2028 -0.3137
  478MOL0     C65847  -0.081   3.097   5.858  0.5301 -0.4404  0.1396
  478MOL0     C65848  -0.220   3.039   5.818 -0.1257 -0.6294 -0.2730
  478MOL0     C65849  -0.289   3.137   5.722 -0.4090 -0.8436  0.7375
  478MOL0     O65850  -0.353   3.255   5.785 -0.4452 -0.6828 -0.1733
  478MOL0     C65851  -0.401   3.357   5.696 -0.0146 -0.1765 -1.6976
  478MOL0     C65852  -0.441   3.327   5.569  0.7367 -0.1401  0.3536
  478MOL0     C65853  -0.487   3.428   5.487 -0.3759  1.1581 -0.5274
  478MOL0     C65854  -0.534   3.377   5.341  0.3502 -1.3662  0.5698
  478MOL0     C65855  -0.481   3.560   5.517 -1.1695  0.1227  0.2708
  478MOL0     C65856  -0.536   3.660   5.423 -1.3709 -0.5215  0.0176
  478MOL0     O65857  -0.458   3.774   5.417  0.2080 -0.0311 -0.2251
  478MOL0     C65858  -0.513   3.899   5.392  0.8902 -0.6453  0.0759
  478MOL0     C65859  -0.428   3.992   5.316  0.5043  0.3279 -0.3044
  478MOL0     C65860  -0.480   4.116   5.275 -0.2203  0.1196  0.0733
  478MOL0     C65861  -0.601   4.158   5.326 -0.3190 -0.8336  0.8164
  478MOL0     O65862  -0.674   4.271   5.280 -0.5177  0.4170  0.0925
  478MOL0     C65863  -0.597   4.393   5.267  0.5125 -0.3710  0.3750
  478MOL0     C65864  -0.614   4.447   5.121  0.0702 -0.3648 -0.6005
  478MOL0     C65865  -0.756   4.486   5.083  0.2477 -0.3465 -0.0110
  478MOL0     C65866  -0.774   4.527   4.933 -0.7286  0.4032  0.6093
  478MOL0     C65867  -0.763   4.405   4.841  0.4737 -0.7211  1.0090
  478MOL0     C65868  -0.794   4.431   4.692  0.4252 -0.2817 -0.2234
  478MOL0     C65869  -0.701   4.539   4.645  0.6021  0.3452  0.7889
  478MOL0     C65870  -0.665   4.507   4.493  0.1885  0.3424 -0.3373
  478MOL0    Cl65871  -0.807   4.461   4.386  0.0048 -0.3665 -0.8171
  478MOL0     C65872  -0.675   4.074   5.399 -0.0166 -1.4563 -0.0467
  478MOL0     C65873  -0.640   3.946   5.427  0.0196  0.4929 -0.3334
  478MOL0     O65874  -0.657   3.653   5.391  0.7784  0.1223  0.3249
  478MOL0     C65875  -0.430   3.590   5.651 -0.9675 -1.0064  0.3739
  478MOL0     C65876  -0.389   3.487   5.735  0.6275 -0.8297  0.9346
  478MOL0     N65877   0.046   3.153   6.152  0.2152 -0.3247  0.4431
  478MOL0     N65878   0.145   3.223   6.193 -0.3727 -0.0959 -0.5481
  478MOL0     C65879   0.880   2.961   5.851 -0.7951  0.0225  0.0030
  478MOL0     C65880   0.870   2.827   5.815 -0.1623  0.6480  0.3945
  478MOL0     C65881   0.680   2.425   5.662  0.5661 -0.0072 -0.4510
  478MOL0     C65882   0.813   2.385   5.665 -0.6310 -0.1560 -0.0285
  478MOL0     C65883   0.858   2.262   5.624 -0.4592  0.4818  0.0071
  478MOL0     C65884   0.774   2.166   5.565 -1.4770  0.3126  0.8870
  478MOL0     O65885   0.835   2.052   5.526  0.6632  0.3693  0.1241
  478MOL0     C65886   0.751   1.955   5.456  0.3027 -0.1122 -0.0585
  478MOL0     C65887   0.827   1.824   5.403 -0.2637  0.1885 -0.5213
  478MOL0     C65888   0.898   1.731   5.503 -0.3521 -0.5619 -0.9341
  478MOL0     C65889   0.995   1.815   5.591 -0.5764  0.6732  0.8659
  478MOL0     C65890   1.101   1.733   5.652  0.0087  0.6251 -0.3211
  478MOL0     C65891   1.182   1.661   5.691  0.3671  0.8231 -0.3088
  478MOL0     C65892   0.636   2.203   5.558 -0.6154  0.1613  0.3671
  478MOL0     C65893   0.584   2.319   5.621 -0.3265 -0.1089 -1.0913
  478MOL0     C65894   0.432   2.318   5.638  0.4062 -0.8567 -0.4327
  478MOL0     H65895   0.524   2.793   5.841 -2.1306  5.1547 -1.4523
  478MOL0     H65896   0.557   3.018   5.922 -0.8406 -1.6793  0.3148
  478MOL0     H65897   0.886   3.274   5.837  1.5672 -1.2030 -0.2942
  478MOL0     H65898   0.975   3.178   5.951 -0.7415 -1.3522 -0.9098
  478MOL0     H65899   0.795   3.317   6.114 -1.1605  3.4549  1.3342
  478MOL0     H65900   0.958   3.381   6.076 -0.5002 -0.1649  0.5095
  478MOL0     H65901   0.822   3.562   6.011 -0.5124  0.2987 -0.6310
  478MOL0     H65902   0.828   3.476   5.845  0.2145 -1.0301  0.0494
  478MOL0     H65903   0.605   3.539   5.870  1.4814  2.7520  2.1167
  478MOL0     H65904   0.603   3.368   5.917 -1.4706  0.5365  0.4110
  478MOL0     H65905   0.639   3.603   6.119 -0.1512  0.7404 -1.9304
  478MOL0     H65906   0.614   3.427   6.157  0.2099  0.4449  0.1303
  478MOL0     H65907   0.419   3.568   6.195  0.2592 -3.0439  0.5083
  478MOL0     H65908   0.411   3.624   6.023  2.0240  0.2552 -1.2579
  478MOL0     H65909   0.373   3.406   5.940  1.7948  2.3772 -0.1406
  478MOL0     H65910   0.265   3.466   6.071 -0.0100 -0.6466  3.1835
  478MOL0     H65911   0.457   3.237   6.087  0.2803  0.3084 -0.8970
  478MOL0     H65912   0.385   3.310   6.242  0.2175  2.7995 -0.0981
  478MOL0     H65913   0.277   3.083   5.938  2.1459 -2.9973  2.3452
  478MOL0     H65914  -0.076   2.968   6.032  2.8131 -1.1879  2.3288
  478MOL0     H65915   0.049   2.928   5.909  1.7797  0.3467  0.6827
  478MOL0     H65916  -0.089   3.198   5.900 -1.5740 -0.0478 -1.0466
  478MOL0     H65917  -0.019   3.111   5.769 -1.5781  1.5425 -1.1329
  478MOL0     H65918  -0.219   2.942   5.767 -1.3504 -1.3891  1.0955
  478MOL0     H65919  -0.290   3.014   5.897 -1.4912 -2.8711 -2.0667
  478MOL0     H65920  -0.233   3.170   5.634  0.1852  0.7403  1.6722
  478MOL0     H65921  -0.373   3.080   5.681 -0.6572  3.0322 -5.4076
  478MOL0     H65922  -0.448   3.226   5.530 -2.5651 -0.0231  0.3609
  478MOL0     H65923  -0.641   3.402   5.338  0.3673 -1.3589 -0.3675
  478MOL0     H65924  -0.516   3.270   5.329  1.4615 -1.2576  1.1751
  478MOL0     H65925  -0.487   3.432   5.259 -0.1100  0.2574  1.3536
  478MOL0     H65926  -0.338   3.957   5.268  0.8177  1.0461 -0.2624
  478MOL0     H65927  -0.420   4.180   5.212  2.0208 -0.5245  1.4386
  478MOL0     H65928  -0.627   4.468   5.341  0.1454 -1.0787  0.9594
  478MOL0     H65929  -0.496   4.375   5.305  0.4733  2.1102  1.8536
  478MOL0     H65930  -0.557   4.539   5.107 -1.9115  1.3027  1.4961
  478MOL0     H65931  -0.579   4.374   5.047 -2.7343 -0.1468 -2.2943
  478MOL0     H65932  -0.772   4.576   5.143 -0.7749 -0.3343 -0.2938
  478MOL0     H65933  -0.831   4.409   5.103  0.4091  0.0921  2.6234
  478MOL0     H65934  -0.712   4.612   4.901  1.8805 -1.4886  0.3625
  478MOL0     H65935  -0.882   4.548   4.934 -0.5049  1.7878  2.3689
  478MOL0     H65936  -0.657   4.379   4.835  1.0672  1.6695  0.2770
  478MOL0     H65937  -0.839   4.330   4.867 -2.2278  0.7856 -1.7579
  478MOL0     H65938  -0.900   4.457   4.684  0.4037 -0.4813 -0.6482
  478MOL0     H65939  -0.797   4.336   4.638 -2.0947  0.6060 -1.8296
  478MOL0     H65940  -0.602   4.539   4.691  0.3087 -0.4415  1.4490
  478MOL0     H65941  -0.740   4.640   4.655  0.5316  0.8674 -3.1828
  478MOL0     H65942  -0.615   4.409   4.486 -0.6105  0.0602 -3.5276
  478MOL0     H65943  -0.595   4.579   4.450 -1.0213  0.3580 -2.3802
  478MOL0     H65944  -0.770   4.115   5.433  2.0240 -1.1771  6.5466
  478MOL0     H65945  -0.716   3.888   5.479 -0.9231  0.4685 -1.6723
  478MOL0     H65946  -0.434   3.687   5.699 -2.1347 -2.2085  2.9223
  478MOL0     H65947  -0.357   3.509   5.837 -1.2550  1.0233  1.1932
  478MOL0     H65948   0.982   2.997   5.846 -0.1694 -1.6973 -0.4632
  478MOL0     H65949   0.957   2.763   5.808 -0.6526 -0.1379  1.2068
  478MOL0     H65950   0.892   2.454   5.693  1.7188 -2.2768 -1.0347
  478MOL0     H65951   0.958   2.224   5.642 -0.8936  0.5026  2.8660
  478MOL0     H65952   0.687   1.925   5.540  0.5263  0.6517  0.3927
  478MOL0     H65953   0.684   2.009   5.388 -1.7557 -0.3461  1.6518
  478MOL0     H65954   0.905   1.861   5.335 -0.7658 -1.9482 -2.4128
  478MOL0     H65955   0.767   1.756   5.342  1.3804  0.5380 -2.6853
  478MOL0     H65956   0.826   1.675   5.563 -1.2330  2.5681  1.1790
  478MOL0     H65957   0.967   1.659   5.457  0.8383 -2.2426  3.0365
  478MOL0     H65958   0.928   1.853   5.668 -1.3965  1.0906 -0.0341
  478MOL0     H65959   1.040   1.895   5.532 -0.7906  0.0439 -0.1690
  478MOL0     H65960   1.253   1.598   5.741 -0.2442  1.5153  1.4917
  478MOL0     H65961   0.567   2.125   5.526  1.0542 -1.9935  1.6944
  478MOL0     H65962   0.397   2.215   5.641 -1.3350 -0.2856  0.1342
  478MOL0     H65963   0.413   2.373   5.732  2.3147  0.6739 -0.8783
  478MOL0     H65964   0.392   2.365   5.548  0.7601  0.5870  0.1332
  479MOL0     O65965   3.773   7.957   6.498  0.1109  0.2594  0.2460
  479MOL0     C65966   3.752   7.980   6.614  1.5771  0.3529 -0.2414
  479MOL0     O65967   3.730   7.889   6.706 -1.0037  0.3432  0.5176
  479MOL0     C65968   3.764   7.756   6.685  0.7194 -0.4160 -0.7376
  479MOL0     C65969   3.686   7.656   6.741  0.5889 -0.3587 -0.9703
  479MOL0     C65970   3.721   7.526   6.748  0.0223 -0.1720 -0.0324
  479MOL0     C65971   3.839   7.483   6.685 -0.9198 -0.1596  0.0758
  479MOL0     O65972   3.864   7.348   6.701  0.2024 -0.3139 -1.3500
  479MOL0     C65973   3.985   7.287   6.642 -0.0879 -0.2156 -0.1109
  479MOL0     C65974   3.958   7.140   6.657  0.6434 -0.0279 -0.5703
  479MOL0     C65975   4.000   7.081   6.793 -0.5311 -0.5468  0.1489
  479MOL0     C65976   3.973   6.924   6.811 -0.9225 -0.2155 -0.4765
  479MOL0     C65977   4.026   6.875   6.949  0.2914 -0.5655 -0.3761
  479MOL0     C65978   4.070   6.723   6.942 -0.4303 -0.6045 -0.2741
  479MOL0     C65979   3.942   6.635   6.925 -0.0982 -0.2100 -0.4207
  479MOL0     C65980   3.841   6.637   7.030  0.6620  0.1481  0.6775
  479MOL0     N65981   3.758   6.513   7.049  0.2840 -0.3492 -0.1460
  479MOL0     C65982   3.810   6.386   7.077 -0.3815  0.2217  0.6879
  479MOL0     C65983   3.694   6.312   7.067 -0.3312  1.1452  0.1920
  479MOL0     C65984   3.674   6.172   7.078  0.3194  0.8029 -0.3529
  479MOL0     C65985   3.642   6.133   6.936 -0.4451  1.1147  0.1601
  479MOL0     C65986   3.637   5.976   6.935  0.2993 -0.3085  0.1652
  479MOL0     C65987   3.543   5.930   6.821 -0.0514  0.8469  0.1956
  479MOL0     O65988   3.576   5.796   6.793 -0.2145 -0.0328 -0.5656
  479MOL0     C65989   3.475   5.719   6.735 -0.0403 -1.3756 -0.3732
  479MOL0     C65990   3.482   5.586   6.746 -0.9840 -0.2718  0.4034
  479MOL0     C65991   3.379   5.503   6.696 -0.2207 -0.1829 -0.6193
  479MOL0     C65992   3.375   5.356   6.734  0.5177 -0.0973  0.9256
  479MOL0     C65993   3.279   5.563   6.615  0.6191 -0.4792  0.0758
  479MOL0     C65994   3.170   5.491   6.565 -0.2764 -0.0885  0.1792
  479MOL0     O65995   3.101   5.425   6.661 -0.3427  0.3252  0.0359
  479MOL0     C65996   2.998   5.337   6.621 -0.1523 -0.4164  0.6217
  479MOL0     C65997   3.040   5.213   6.598  0.7513 -0.0852  0.7030
  479MOL0     C65998   2.952   5.124   6.520  0.1046  0.0214 -0.0484
  479MOL0     C65999   2.819   5.161   6.490  0.4534 -0.6482 -0.5708
  479MOL0     O66000   2.717   5.083   6.445  0.0925  0.5234 -0.1456
  479MOL0     C66001   2.730   4.941   6.469 -0.2441  1.0154  0.3181
  479MOL0     C66002   2.589   4.879   6.465  0.0560  0.0190 -0.0580
  479MOL0     C66003   2.560   4.853   6.608  0.5328 -0.5175 -0.0379
  479MOL0     C66004   2.580   4.971   6.706  0.5218  0.0011  0.0308
  479MOL0     C66005   2.522   4.944   6.850  0.1497  0.5942  0.3494
  479MOL0     C66006   2.560   5.062   6.942 -0.4218  0.3945  1.0345
  479MOL0     C66007   2.517   5.063   7.089 -0.4638  0.3616  0.2141
  479MOL0     C66008   2.573   5.182   7.153  0.2977  0.6611 -0.4723
  479MOL0    Cl66009   2.496   5.342   7.086  0.2203  0.0256  0.2430
  479MOL0     C66010   2.780   5.292   6.531 -0.1423  0.1055  0.5303
  479MOL0     C66011   2.876   5.379   6.582  0.5382  0.6397 -0.4313
  479MOL0     O66012   3.154   5.487   6.447  0.1763 -0.1605  0.0122
  479MOL0     C66013   3.286   5.702   6.593  0.2867  0.8194  0.3815
  479MOL0     C66014   3.373   5.782   6.650 -0.7602 -0.3209 -0.4736
  479MOL0     N66015   3.580   6.384   7.053 -0.1484 -0.9905 -1.0484
  479MOL0     N66016   3.624   6.512   7.035  0.2696  0.3326 -0.2360
  479MOL0     C66017   3.913   7.581   6.615 -0.5099 -0.2786 -0.8338
  479MOL0     C66018   3.881   7.720   6.630 -0.9223 -0.0627  0.5400
  479MOL0     C66019   3.697   8.114   6.646 -0.9958  0.0236  0.2439
  479MOL0     C66020   3.786   8.215   6.677 -0.9158 -0.4150 -0.5718
  479MOL0     C66021   3.739   8.345   6.686 -0.6316  0.1495 -0.0942
  479MOL0     C66022   3.608   8.385   6.672 -0.9485 -0.1585  0.5721
  479MOL0     O66023   3.569   8.512   6.711  0.7744  1.4177 -0.2133
  479MOL0     C66024   3.559   8.601   6.606 -0.4250  0.7441 -0.6285
  479MOL0     C66025   3.570   8.731   6.677  0.9311  0.5107  0.0794
  479MOL0     C66026   3.586   8.857   6.590  0.2254 -0.2344 -0.5068
  479MOL0     C66027   3.457   8.880   6.511  0.7348 -0.0694 -0.3010
  479MOL0     C66028   3.331   8.909   6.595  0.4140  0.2790 -0.4916
  479MOL0     C66029   3.236   8.941   6.673 -1.1802 -0.2978  0.1211
  479MOL0     C66030   3.518   8.278   6.643  0.2205 -0.3956 -0.0555
  479MOL0     C66031   3.563   8.146   6.639  0.6759 -0.6069 -0.5189
  479MOL0     C66032   3.456   8.048   6.602 -0.7121  0.0632  0.1242
  479MOL0     H66033   3.596   7.692   6.791 -1.6647 -1.2250 -4.0573
  479MOL0     H66034   3.662   7.459   6.810 -2.0491  2.9782  1.6958
  479MOL0     H66035   4.078   7.313   6.693  0.0261 -2.1795  0.7829
  479MOL0     H66036   3.991   7.306   6.535 -1.9923 -0.6598 -0.3341
  479MOL0     H66037   3.854   7.117   6.632  0.8448  0.2501 -1.7367
  479MOL0     H66038   4.024   7.095   6.581 -0.2587  0.1864 -1.4986
  479MOL0     H66039   4.105   7.110   6.808 -0.8418  0.9105 -0.3018
  479MOL0     H66040   3.945   7.134   6.871  2.1051  1.7522  0.6181
  479MOL0     H66041   3.867   6.902   6.799 -1.2019  0.5989  0.4342
  479MOL0     H66042   4.032   6.864   6.742 -0.9699 -0.9684  0.1272
  479MOL0     H66043   3.953   6.890   7.029 -0.6903 -0.4472 -1.2764
  479MOL0     H66044   4.117   6.925   6.984  0.0769 -0.7599  0.4952
  479MOL0     H66045   4.132   6.700   6.855  0.2162  0.8708 -0.2436
  479MOL0     H66046   4.126   6.695   7.032  0.3043  0.1432 -0.4772
  479MOL0     H66047   3.975   6.532   6.904 -0.8723 -0.4930 -0.3113
  479MOL0     H66048   3.889   6.656   6.831  0.0433  1.4335 -0.1470
  479MOL0     H66049   3.886   6.664   7.126  2.1521 -0.1094  0.0718
  479MOL0     H66050   3.769   6.716   7.006  0.8634 -0.4106 -2.0970
  479MOL0     H66051   3.911   6.355   7.101  0.1778  1.0996 -0.4220
  479MOL0     H66052   3.589   6.141   7.141  1.7191 -1.1144  0.7265
  479MOL0     H66053   3.767   6.129   7.118 -1.2983 -1.2191  1.5175
  479MOL0     H66054   3.551   6.185   6.905 -0.5049  0.8007 -0.1985
  479MOL0     H66055   3.711   6.166   6.859  1.0665 -3.7996 -0.9917
  479MOL0     H66056   3.733   5.924   6.936 -1.0658 -3.0244 -0.1428
  479MOL0     H66057   3.576   5.952   7.022 -1.4741  0.3966 -0.8380
  479MOL0     H66058   3.446   5.941   6.869 -1.1864 -1.3710 -1.4499
  479MOL0     H66059   3.557   5.984   6.726  0.0851 -1.2564 -1.0254
  479MOL0     H66060   3.557   5.538   6.809 -0.9483  0.1901  0.7195
  479MOL0     H66061   3.297   5.297   6.684 -1.4178  1.9899  1.3098
  479MOL0     H66062   3.357   5.351   6.842  2.0303 -0.4669  1.1759
  479MOL0     H66063   3.470   5.308   6.708  1.3462  1.4780  0.9215
  479MOL0     H66064   3.146   5.191   6.603  1.7158  2.8847 -2.6744
  479MOL0     H66065   2.972   5.026   6.478 -0.4048  0.0599 -0.3885
  479MOL0     H66066   2.794   4.897   6.391 -1.5557  1.1491 -0.8589
  479MOL0     H66067   2.785   4.912   6.560 -3.6814  0.5051  2.3949
  479MOL0     H66068   2.516   4.948   6.421  1.5198  0.4363 -1.9636
  479MOL0     H66069   2.597   4.789   6.403 -0.3695  0.5409 -0.8906
  479MOL0     H66070   2.617   4.763   6.634 -2.7083 -4.1489 -4.0559
  479MOL0     H66071   2.457   4.819   6.616  0.8837 -1.1899  2.2095
  479MOL0     H66072   2.546   5.065   6.661  0.1284  0.8047  1.8738
  479MOL0     H66073   2.686   4.987   6.726  0.1587 -0.3047  2.5415
  479MOL0     H66074   2.413   4.932   6.846  0.0201  1.5746 -4.3509
  479MOL0     H66075   2.575   4.859   6.892 -1.5456 -1.2025 -0.9957
  479MOL0     H66076   2.521   5.158   6.906 -1.2727  1.3816  4.2771
  479MOL0     H66077   2.669   5.071   6.942 -0.3864 -0.0018  1.6327
  479MOL0     H66078   2.569   4.976   7.130  1.6716  0.1307 -2.6377
  479MOL0     H66079   2.408   5.067   7.102 -0.6210  1.4250 -1.2123
  479MOL0     H66080   2.682   5.184   7.151  0.3666 -1.4035 -0.5970
  479MOL0     H66081   2.553   5.177   7.261  2.8413 -0.1298  0.0133
  479MOL0     H66082   2.682   5.338   6.524 -1.0607 -1.9407 -3.4419
  479MOL0     H66083   2.837   5.478   6.601 -0.6069  0.7691 -2.9469
  479MOL0     H66084   3.213   5.739   6.522  1.1549 -1.2411 -1.7447
  479MOL0     H66085   3.396   5.885   6.626  3.4664 -1.0383 -0.2333
  479MOL0     H66086   3.997   7.534   6.564  1.4818 -0.2386  2.1434
  479MOL0     H66087   3.944   7.801   6.595  0.6717 -1.6953 -0.5032
  479MOL0     H66088   3.893   8.201   6.665 -1.0993 -2.2256 -0.5130
  479MOL0     H66089   3.822   8.405   6.722  1.4577 -2.5660 -0.0410
  479MOL0     H66090   3.646   8.592   6.540 -0.9846 -1.1624 -1.1764
  479MOL0     H66091   3.464   8.592   6.554 -0.2116 -3.3393 -0.6137
  479MOL0     H66092   3.664   8.724   6.733  2.7178 -1.6683 -2.8943
  479MOL0     H66093   3.483   8.736   6.743  1.2155 -1.7586  0.7015
  479MOL0     H66094   3.592   8.940   6.660  0.1366 -0.9427  0.3628
  479MOL0     H66095   3.680   8.851   6.534  1.6975 -1.4581  1.8977
  479MOL0     H66096   3.442   8.789   6.453  0.6270 -0.6674  0.6488
  479MOL0     H66097   3.462   8.960   6.437 -0.9361 -1.2141 -1.7415
  479MOL0     H66098   3.165   8.975   6.745 -0.5306 -1.7574  1.5223
  479MOL0     H66099   3.418   8.312   6.617  0.7848  2.1726  0.7848
  479MOL0     H66100   3.480   7.952   6.648  3.2077  0.4486 -0.6908
  479MOL0     H66101   3.357   8.079   6.636 -0.9769  0.1061 -0.6621
  479MOL0     H66102   3.448   8.044   6.493  0.9910  2.4686 -0.1645
  480MOL0     O66103   7.817   7.313   8.686 -0.4997 -1.0608  0.0039
  480MOL0     C66104   7.832   7.198   8.637 -0.4530 -0.8291 -0.6353
  480MOL0     O66105   7.741   7.099   8.652  0.3764 -1.5589 -0.2199
  480MOL0     C66106   7.611   7.141   8.708 -0.6546 -0.3713 -0.0640
  480MOL0     C66107   7.558   7.047   8.790  0.2195  0.3392 -0.8078
  480MOL0     C66108   7.435   7.075   8.858  0.5484 -0.8471 -0.0622
  480MOL0     C66109   7.348   7.179   8.817 -0.2366 -0.1878  0.1934
  480MOL0     O66110   7.215   7.194   8.851  0.1165 -0.1461  0.3461
  480MOL0     C66111   7.155   7.086   8.920  0.3488 -0.7974 -0.3697
  480MOL0     C66112   7.028   7.133   9.000  0.1559  0.0655  0.2224
  480MOL0     C66113   6.905   7.184   8.915  0.8530  0.6844 -0.0563
  480MOL0     C66114   6.850   7.088   8.811 -0.5356 -0.5452  0.1000
  480MOL0     C66115   6.732   7.156   8.733  0.8909  0.7404  0.8701
  480MOL0     C66116   6.674   7.077   8.612  0.3904 -0.4150 -0.1889
  480MOL0     C66117   6.792   7.045   8.512  0.4978  0.2522  0.5319
  480MOL0     C66118   6.721   6.976   8.391  0.0964  0.3305  0.2310
  480MOL0     N66119   6.794   6.980   8.265  0.8570  0.4042  0.4628
  480MOL0     C66120   6.785   7.086   8.175  0.1515 -0.7120 -0.0642
  480MOL0     C66121   6.877   7.050   8.078  0.3094 -0.3846  0.4694
  480MOL0     C66122   6.938   7.147   7.981  0.6389  0.9546  0.1077
  480MOL0     C66123   6.941   7.085   7.841  0.2956  0.8785 -0.5582
  480MOL0     C66124   6.800   7.048   7.781 -0.0816  0.1835  0.4364
  480MOL0     C66125   6.819   6.996   7.639  0.5042  0.2435 -0.0011
  480MOL0     O66126   6.788   7.110   7.554 -0.4162  0.4306 -0.1832
  480MOL0     C66127   6.831   7.107   7.419 -0.4583  0.9344 -0.3764
  480MOL0     C66128   6.867   7.219   7.355 -0.1065  0.3043  0.1367
  480MOL0     C66129   6.897   7.220   7.222 -0.1998 -0.2000 -0.0480
  480MOL0     C66130   6.939   7.359   7.172  0.4445 -0.4265  0.0594
  480MOL0     C66131   6.888   7.106   7.140  0.0898  0.3890  0.4579
  480MOL0     C66132   6.915   7.095   6.996 -0.6988  0.8926  0.1605
  480MOL0     O66133   6.933   6.972   6.934 -0.3104  0.3806  0.1492
  480MOL0     C66134   6.963   6.961   6.798  0.4990 -0.0965 -0.0538
  480MOL0     C66135   6.893   6.874   6.713 -0.6319  0.5800  0.0414
  480MOL0     C66136   6.927   6.841   6.583  0.2631  0.5241  0.5804
  480MOL0     C66137   7.038   6.906   6.524 -0.1648 -1.1685  0.2905
  480MOL0     O66138   7.065   6.890   6.384 -0.5475 -0.0381  0.3896
  480MOL0     C66139   7.198   6.902   6.341 -0.3206  0.4620 -0.2590
  480MOL0     C66140   7.220   6.816   6.228  0.0036 -0.1025  0.5786
  480MOL0     C66141   7.178   6.884   6.093 -0.4472 -0.2709 -0.1588
  480MOL0     C66142   7.300   6.948   6.024 -1.2568  0.5987  0.7716
  480MOL0     C66143   7.271   7.055   5.920 -0.4012 -0.1241  0.1117
  480MOL0     C66144   7.396   7.112   5.846  0.2428  0.5310  0.1268
  480MOL0     C66145   7.450   7.012   5.746  0.2563  0.4954  0.2953
  480MOL0     C66146   7.598   7.047   5.710  0.2458  0.3507  1.1694
  480MOL0    Cl66147   7.653   6.966   5.557 -0.1713 -0.5475 -0.3334
  480MOL0     C66148   7.103   7.000   6.602 -0.7352  0.3621 -0.1219
  480MOL0     C66149   7.076   7.024   6.737  0.1037  0.3706  0.7375
  480MOL0     O66150   6.927   7.202   6.941 -0.4114 -0.1157  0.5109
  480MOL0     C66151   6.864   6.988   7.210  0.4423  0.0714 -0.4062
  480MOL0     C66152   6.839   6.987   7.349 -0.1571 -0.5693  0.0389
  480MOL0     N66153   6.927   6.922   8.114  0.3790  0.0488 -0.6575
  480MOL0     N66154   6.870   6.881   8.215  0.0763  0.0688 -0.8330
  480MOL0     C66155   7.400   7.260   8.716 -0.3470  0.3110  0.4420
  480MOL0     C66156   7.530   7.250   8.667 -0.5337  0.0198  0.5135
  480MOL0     C66157   7.952   7.169   8.557 -0.0848  0.3990 -0.5416
  480MOL0     C66158   7.970   7.033   8.516  0.3954 -0.7871  0.9928
  480MOL0     C66159   8.084   7.001   8.440 -0.2727 -0.1965 -0.1612
  480MOL0     C66160   8.176   7.097   8.410 -0.2746  0.7098  0.2447
  480MOL0     O66161   8.286   7.044   8.334  0.6999 -0.3920  0.6206
  480MOL0     C66162   8.408   7.121   8.309 -0.2930 -0.6046  0.2503
  480MOL0     C66163   8.389   7.205   8.177  0.2112  0.8194  0.2285
  480MOL0     C66164   8.462   7.135   8.062 -0.1611 -0.8475 -0.3989
  480MOL0     C66165   8.414   7.000   8.037  1.4680 -0.0443  0.0898
  480MOL0     C66166   8.281   6.990   7.978 -0.1040 -0.0498  0.6238
  480MOL0     C66167   8.160   6.990   7.941  0.0665  0.5547 -0.5912
  480MOL0     C66168   8.167   7.224   8.455 -0.7423 -0.0129  0.4367
  480MOL0     C66169   8.056   7.265   8.526  0.2297 -0.6748 -0.3750
  480MOL0     C66170   8.055   7.413   8.581 -0.4629 -0.6153 -0.2250
  480MOL0     H66171   7.599   6.948   8.811  1.3180  0.5152 -1.9994
  480MOL0     H66172   7.418   6.993   8.928  3.3877  0.3771  2.3134
  480MOL0     H66173   7.210   7.046   9.006 -0.3133 -3.1577 -0.9719
  480MOL0     H66174   7.129   7.011   8.845  0.5952 -2.8028  1.4708
  480MOL0     H66175   6.991   7.047   9.055  1.4166 -0.6745 -0.0281
  480MOL0     H66176   7.051   7.208   9.076 -1.8081  0.6677  0.2514
  480MOL0     H66177   6.822   7.195   8.987  0.0608 -0.2837 -0.8012
  480MOL0     H66178   6.926   7.283   8.873 -0.3996  1.2948  0.6689
  480MOL0     H66179   6.931   7.079   8.738 -0.5024  1.1836 -0.1046
  480MOL0     H66180   6.824   6.990   8.853 -0.6353 -0.3718  0.4486
  480MOL0     H66181   6.773   7.249   8.692 -1.1347  0.6918 -1.4805
  480MOL0     H66182   6.643   7.176   8.793  0.7678 -0.3837  1.0860
  480MOL0     H66183   6.634   6.985   8.656 -3.6330  0.9861 -0.4234
  480MOL0     H66184   6.590   7.136   8.574  0.0763 -0.9041 -0.2653
  480MOL0     H66185   6.875   6.987   8.553  1.2181 -0.0213 -1.2182
  480MOL0     H66186   6.836   7.140   8.481  0.8824  0.5704  2.0120
  480MOL0     H66187   6.709   6.870   8.418 -0.0417  0.2919  0.0179
  480MOL0     H66188   6.622   7.019   8.375 -0.5792 -0.8712  0.9855
  480MOL0     H66189   6.742   7.185   8.184  0.7617 -0.4102 -0.3784
  480MOL0     H66190   7.036   7.190   8.003  1.0530  1.7366 -2.8093
  480MOL0     H66191   6.888   7.244   7.974 -3.4934 -1.0734 -3.4989
  480MOL0     H66192   6.994   7.158   7.778  0.1197 -1.2717 -3.4056
  480MOL0     H66193   6.992   6.988   7.835 -0.2668  0.6653 -2.8170
  480MOL0     H66194   6.761   6.970   7.847 -1.9472 -0.0590 -0.8909
  480MOL0     H66195   6.723   7.124   7.801  1.1754  0.9680  2.7324
  480MOL0     H66196   6.920   6.957   7.627  0.9158  1.5505 -1.0791
  480MOL0     H66197   6.753   6.914   7.610  1.8320 -1.5674  1.7849
  480MOL0     H66198   6.846   7.302   7.422  0.2747  0.4459  0.0837
  480MOL0     H66199   7.040   7.361   7.130  0.3894 -1.2972 -0.1450
  480MOL0     H66200   6.931   7.426   7.258  0.1017  0.0777 -0.3564
  480MOL0     H66201   6.869   7.403   7.101  1.1564 -2.0454 -1.7351
  480MOL0     H66202   6.804   6.829   6.755  0.4764 -0.6214  1.2108
  480MOL0     H66203   6.873   6.761   6.534  1.1654  0.0669  0.2967
  480MOL0     H66204   7.218   7.007   6.319  2.7649 -0.7685 -4.9543
  480MOL0     H66205   7.264   6.864   6.419  1.4012  2.0340 -0.8878
  480MOL0     H66206   7.329   6.804   6.226 -0.1166 -1.5551 -2.2213
  480MOL0     H66207   7.178   6.716   6.233 -1.3793  0.0466 -3.6007
  480MOL0     H66208   7.112   6.966   6.122 -2.6496 -1.7532 -0.7316
  480MOL0     H66209   7.117   6.814   6.034 -0.7475  1.3966 -1.9172
  480MOL0     H66210   7.334   6.864   5.963 -1.3469  1.3104 -0.2810
  480MOL0     H66211   7.371   6.977   6.102  0.3764  0.4164 -0.5933
  480MOL0     H66212   7.210   7.011   5.841 -1.3599 -1.0996  1.3556
  480MOL0     H66213   7.220   7.136   5.973  0.7643  0.3518  0.5599
  480MOL0     H66214   7.467   7.134   5.926  1.4218 -0.5251 -0.5981
  480MOL0     H66215   7.375   7.210   5.802 -0.5903  0.9645  1.4413
  480MOL0     H66216   7.378   7.024   5.664 -0.8647 -4.3862  0.2377
  480MOL0     H66217   7.440   6.908   5.778  0.4943  0.1706 -0.6402
  480MOL0     H66218   7.653   7.013   5.798  1.5135 -0.5495  0.0686
  480MOL0     H66219   7.610   7.155   5.700 -0.6483  0.2901 -1.2389
  480MOL0     H66220   7.180   7.060   6.557 -1.7861  0.2174 -2.2380
  480MOL0     H66221   7.125   7.105   6.789  0.4115 -0.4284  1.7250
  480MOL0     H66222   6.854   6.900   7.147  2.5244 -0.2187 -0.4073
  480MOL0     H66223   6.829   6.891   7.399 -2.0252 -0.7944 -0.6970
  480MOL0     H66224   7.343   7.335   8.663  1.0523  0.0646 -1.5599
  480MOL0     H66225   7.588   7.320   8.608  0.2513 -1.1915 -0.1995
  480MOL0     H66226   7.885   6.968   8.539 -2.8133  2.1438 -1.4453
  480MOL0     H66227   8.111   6.899   8.413  2.7402  1.3856 -4.1070
  480MOL0     H66228   8.429   7.187   8.393  1.2299 -1.8055  0.8662
  480MOL0     H66229   8.496   7.056   8.306 -1.1784 -1.8616  0.5247
  480MOL0     H66230   8.432   7.305   8.188  2.0075  0.6538 -3.6025
  480MOL0     H66231   8.284   7.218   8.150  0.9377  3.3016 -1.8158
  480MOL0     H66232   8.448   7.196   7.973 -2.6794 -0.0669  0.4709
  480MOL0     H66233   8.567   7.134   8.094  0.2583 -0.8053 -1.7093
  480MOL0     H66234   8.422   6.945   8.131 -2.9292 -1.2200 -0.0097
  480MOL0     H66235   8.477   6.943   7.968  1.0139 -0.7628  0.2586
  480MOL0     H66236   8.055   6.994   7.919 -0.3251  1.4616  1.2040
  480MOL0     H66237   8.243   7.298   8.432 -1.7058  1.0753  0.6117
  480MOL0     H66238   8.046   7.419   8.690 -0.2415  0.5987 -0.2584
  480MOL0     H66239   8.140   7.470   8.542  0.6953 -2.0627  0.0635
  480MOL0     H66240   7.969   7.472   8.551  1.5024  3.3468  1.1782
  481MOL0     O66241  10.147   3.701   3.839  0.7189  1.4682 -0.0740
  481MOL0     C66242  10.093   3.790   3.905  0.3220  0.0700 -0.9626
  481MOL0     O66243   9.990   3.864   3.871  1.0270 -0.8972 -0.2667
  481MOL0     C66244   9.910   3.839   3.762  0.7413 -0.1451  0.7005
  481MOL0     C66245   9.953   3.872   3.635  0.1462 -0.3134  1.0207
  481MOL0     C66246   9.893   3.840   3.514  0.3386  0.6333  0.9078
  481MOL0     C66247   9.767   3.788   3.520  0.2423 -0.2934  0.4407
  481MOL0     O66248   9.711   3.773   3.395  0.4013 -0.0723 -0.6309
  481MOL0     C66249   9.569   3.752   3.378 -1.0930  0.4285 -0.3318
  481MOL0     C66250   9.530   3.740   3.226  0.1708  0.1002 -0.2627
  481MOL0     C66251   9.644   3.677   3.136  0.4621  0.5104 -0.3867
  481MOL0     C66252   9.625   3.665   2.988 -0.1094 -0.6521  0.5367
  481MOL0     C66253   9.764   3.659   2.909 -0.0862 -0.5483  0.3218
  481MOL0     C66254   9.829   3.523   2.901  0.7692 -0.1187  0.2478
  481MOL0     C66255   9.885   3.459   3.026 -0.4481  0.6156 -0.0498
  481MOL0     C66256  10.011   3.516   3.083  0.9292 -1.0293 -0.4315
  481MOL0     N66257  10.042   3.441   3.202  0.6896 -0.6629 -0.8797
  481MOL0     C66258   9.988   3.477   3.324  0.1870 -0.8398  0.6753
  481MOL0     C66259  10.037   3.376   3.406  0.5370 -1.0892  0.3388
  481MOL0     C66260   9.990   3.348   3.550  0.1533  1.0010 -0.0205
  481MOL0     C66261   9.977   3.476   3.637  0.1585  0.3811  0.2634
  481MOL0     C66262   9.933   3.454   3.779 -0.3732 -0.6826  1.4786
  481MOL0     C66263  10.012   3.364   3.865 -0.2235 -0.6545 -0.0901
  481MOL0     O66264   9.974   3.362   4.006 -0.0481 -0.2660  0.1394
  481MOL0     C66265   9.858   3.316   4.055  0.8428  0.4265  0.7259
  481MOL0     C66266   9.768   3.249   3.975 -0.0366  0.3575 -0.3687
  481MOL0     C66267   9.642   3.195   4.033 -0.5864 -0.1622  0.3389
  481MOL0     C66268   9.558   3.118   3.945 -0.5552 -0.1060 -0.1442
  481MOL0     C66269   9.626   3.205   4.174  0.9380  1.4103 -0.5436
  481MOL0     C66270   9.523   3.127   4.245  0.1954  0.2198  0.0862
  481MOL0     O66271   9.476   3.019   4.182 -0.1574 -0.7382 -0.5550
  481MOL0     C66272   9.402   2.919   4.242  0.2673  0.1296  0.0264
  481MOL0     C66273   9.373   2.911   4.384  1.0360  0.6479  0.4554
  481MOL0     C66274   9.285   2.803   4.422 -0.1646  0.1708  0.2550
  481MOL0     C66275   9.225   2.711   4.333  0.2149 -0.0517 -0.4478
  481MOL0     O66276   9.144   2.614   4.370  0.3420 -0.2744 -0.7246
  481MOL0     C66277   9.032   2.633   4.454 -0.3475  1.4425  0.5616
  481MOL0     C66278   8.929   2.741   4.413  0.5251 -0.5857  1.0506
  481MOL0     C66279   8.854   2.692   4.289 -0.0538 -0.3150  0.3139
  481MOL0     C66280   8.718   2.631   4.331  0.5495  0.6508 -0.1167
  481MOL0     C66281   8.655   2.570   4.210  0.6822  0.1234  0.2116
  481MOL0     C66282   8.524   2.504   4.233  0.1184 -0.7974 -0.6946
  481MOL0     C66283   8.419   2.534   4.129  0.0598  0.4740  0.3275
  481MOL0     C66284   8.298   2.446   4.131  0.9255  0.2910 -1.2077
  481MOL0    Cl66285   8.238   2.447   4.304 -0.3567  0.1566 -0.0044
  481MOL0     C66286   9.256   2.719   4.202 -0.5543 -1.1948 -0.2547
  481MOL0     C66287   9.352   2.815   4.156  0.0224  0.8526  1.3815
  481MOL0     O66288   9.476   3.172   4.350  0.6354  0.2002 -0.6259
  481MOL0     C66289   9.718   3.279   4.252 -0.3593  0.1784  0.2457
  481MOL0     C66290   9.832   3.339   4.190 -0.5299  0.0627 -0.1994
  481MOL0     N66291  10.109   3.286   3.330 -0.2626 -0.1916 -0.8748
  481MOL0     N66292  10.109   3.326   3.201  0.1319 -0.1060 -0.4451
  481MOL0     C66293   9.706   3.769   3.641  0.0763  0.9293  0.1297
  481MOL0     C66294   9.774   3.789   3.757 -0.0846  0.0576 -0.6660
  481MOL0     C66295  10.148   3.837   4.036 -1.0988 -0.5236  0.6496
  481MOL0     C66296  10.262   3.922   4.029 -0.4629  1.3204 -0.3578
  481MOL0     C66297  10.314   3.965   4.149 -0.5142 -0.4323  0.4590
  481MOL0     C66298  10.238   3.951   4.274  0.2860  0.0656  0.1390
  481MOL0     O66299  10.283   3.997   4.398 -1.1318 -0.4803 -0.2517
  481MOL0     C66300  10.392   4.102   4.399  0.1926  0.5639 -0.4607
  481MOL0     C66301  10.530   4.030   4.416 -0.0931 -0.0110  0.1086
  481MOL0     C66302  10.657   4.121   4.408  0.5801 -0.1383 -0.3866
  481MOL0     C66303  10.782   4.035   4.378 -0.0201  0.8564  0.1458
  481MOL0     C66304  10.814   3.953   4.500  0.9279  0.0356 -0.2726
  481MOL0     C66305  10.842   3.880   4.595  0.4284  0.0941 -0.2945
  481MOL0     C66306  10.124   3.870   4.274 -0.2113  0.1033 -0.7710
  481MOL0     C66307  10.079   3.809   4.153  0.9962 -0.3049 -0.7482
  481MOL0     C66308   9.967   3.701   4.161 -0.1761 -0.3940 -0.5580
  481MOL0     H66309  10.049   3.922   3.636  0.5070 -0.9749  0.3505
  481MOL0     H66310   9.934   3.856   3.415  0.0907  1.5847  0.9470
  481MOL0     H66311   9.504   3.827   3.423  1.2948  2.3593  0.1137
  481MOL0     H66312   9.555   3.651   3.419  2.6355 -0.9840 -2.0245
  481MOL0     H66313   9.430   3.698   3.215 -0.3085  1.2569 -0.4464
  481MOL0     H66314   9.507   3.841   3.189 -1.4443 -1.1897 -3.1198
  481MOL0     H66315   9.732   3.739   3.155  0.8719 -0.0290 -0.4913
  481MOL0     H66316   9.667   3.576   3.174  3.6023  0.8565 -1.1019
  481MOL0     H66317   9.551   3.588   2.964 -3.4099  1.9828  1.3494
  481MOL0     H66318   9.579   3.762   2.964 -3.3120 -2.3297 -0.7810
  481MOL0     H66319   9.839   3.726   2.952  0.1866  0.9865 -2.3466
  481MOL0     H66320   9.747   3.687   2.805  0.5362  3.8548  1.2380
  481MOL0     H66321   9.748   3.453   2.879 -1.5387  1.2101  3.6812
  481MOL0     H66322   9.907   3.528   2.824 -0.4014 -1.4285 -1.0729
  481MOL0     H66323   9.903   3.361   2.981 -0.2310  2.5275 -4.6560
  481MOL0     H66324   9.812   3.459   3.107  0.5774  0.3610  0.8967
  481MOL0     H66325  10.083   3.510   3.001 -0.3711  2.2169 -2.0056
  481MOL0     H66326  10.009   3.624   3.103  1.9477 -1.2655  1.1328
  481MOL0     H66327   9.921   3.555   3.357  3.3018  3.2091 -1.6691
  481MOL0     H66328  10.062   3.287   3.606 -1.5178  0.1031  1.2395
  481MOL0     H66329   9.895   3.296   3.536 -0.9995  3.0022 -0.0590
  481MOL0     H66330  10.069   3.535   3.639  0.4077 -0.0239  1.0547
  481MOL0     H66331   9.901   3.532   3.581  0.3132 -0.8254 -1.1907
  481MOL0     H66332   9.921   3.548   3.834 -3.7600 -0.4592  0.5849
  481MOL0     H66333   9.832   3.414   3.764 -0.6375  0.0414  1.2830
  481MOL0     H66334  10.022   3.261   3.829 -1.4686  0.2526 -3.3141
  481MOL0     H66335  10.116   3.397   3.855  0.2357 -1.1676  2.2469
  481MOL0     H66336   9.789   3.234   3.870  1.2014 -2.9005  0.2345
  481MOL0     H66337   9.569   3.011   3.962 -2.0678 -0.6386 -2.1617
  481MOL0     H66338   9.602   3.130   3.846  0.5303 -1.4765  0.1514
  481MOL0     H66339   9.455   3.153   3.931 -0.1680  0.4119 -1.9421
  481MOL0     H66340   9.407   2.967   4.470 -2.9334 -0.1954  2.8213
  481MOL0     H66341   9.267   2.778   4.526  0.9892 -3.4341 -0.2766
  481MOL0     H66342   8.974   2.542   4.473 -2.0678  1.6481 -2.8228
  481MOL0     H66343   9.065   2.667   4.552 -1.0259  0.8090  1.0194
  481MOL0     H66344   8.855   2.765   4.490 -3.3155  2.5990 -3.1214
  481MOL0     H66345   8.978   2.839   4.410  0.8334 -0.7492  0.6850
  481MOL0     H66346   8.918   2.625   4.231  2.0910  0.9474  1.0863
  481MOL0     H66347   8.843   2.784   4.231  1.7122 -1.4975 -2.0334
  481MOL0     H66348   8.654   2.712   4.368 -1.3272 -0.3187 -1.0795
  481MOL0     H66349   8.742   2.557   4.407  0.7876 -0.3204 -1.1119
  481MOL0     H66350   8.642   2.655   4.142 -0.7704 -1.8584 -2.1538
  481MOL0     H66351   8.722   2.495   4.166 -0.0238  0.6017 -1.7556
  481MOL0     H66352   8.486   2.540   4.330 -0.1815 -0.7844 -0.8164
  481MOL0     H66353   8.541   2.396   4.229  1.3577 -0.5933 -1.7457
  481MOL0     H66354   8.452   2.532   4.025 -2.9185  0.8834 -0.7414
  481MOL0     H66355   8.392   2.636   4.159  3.3151  0.4677  4.0476
  481MOL0     H66356   8.321   2.341   4.111  0.3793  0.2278 -1.5307
  481MOL0     H66357   8.220   2.479   4.062 -2.0170 -0.0711  1.7279
  481MOL0     H66358   9.206   2.651   4.134  0.6820 -0.0007 -2.4704
  481MOL0     H66359   9.384   2.812   4.052  0.2884 -2.4411  1.4642
  481MOL0     H66360   9.705   3.291   4.359 -1.1971  0.5632  0.1139
  481MOL0     H66361   9.901   3.394   4.253  3.4806 -1.7241 -2.6246
  481MOL0     H66362   9.607   3.732   3.662  0.0615  0.8936  0.0007
  481MOL0     H66363   9.721   3.772   3.850  0.2942  1.2238 -0.2179
  481MOL0     H66364  10.303   3.941   3.930  2.9163  0.1910  0.7012
  481MOL0     H66365  10.415   4.004   4.144 -0.2291 -1.2900 -0.8022
  481MOL0     H66366  10.394   4.167   4.311 -0.0102  0.5993 -0.4406
  481MOL0     H66367  10.366   4.156   4.490 -2.2900  0.5265 -1.0643
  481MOL0     H66368  10.539   3.961   4.332 -1.6192  1.2326 -1.1345
  481MOL0     H66369  10.522   3.966   4.504  1.0597 -2.8018 -1.6814
  481MOL0     H66370  10.652   4.187   4.321  1.6031  0.2810 -0.1482
  481MOL0     H66371  10.664   4.177   4.503 -1.3487 -0.4295 -0.0427
  481MOL0     H66372  10.866   4.100   4.353 -1.9186  3.3199 -0.1285
  481MOL0     H66373  10.768   3.963   4.297  0.2932 -1.3320  1.9161
  481MOL0     H66374  10.867   3.829   4.685  0.6175 -0.1356 -0.4763
  481MOL0     H66375  10.067   3.856   4.365 -4.0074 -0.5829 -3.0142
  481MOL0     H66376  10.003   3.598   4.151 -3.1885 -1.3686 -2.4941
  481MOL0     H66377   9.910   3.713   4.254 -1.2668  0.9043 -1.3603
  481MOL0     H66378   9.895   3.715   4.080  0.9759  0.5227 -1.4612
  482MOL0     O66379   5.829  10.375   1.889  1.0480  0.6653  0.1710
  482MOL0     C66380   5.855  10.296   1.802  0.2833  0.0289  0.7863
  482MOL0     O66381   5.865  10.332   1.669  0.2114  0.1544  0.0792
  482MOL0     C66382   5.796  10.449   1.624 -0.2296  0.4230  0.1732
  482MOL0     C66383   5.878  10.554   1.579  0.4231  0.3631 -0.0802
  482MOL0     C66384   5.811  10.667   1.520  0.2482  0.4942 -0.5854
  482MOL0     C66385   5.671  10.666   1.507  0.3126 -0.8566 -0.8648
  482MOL0     O66386   5.599  10.760   1.436  0.2934 -0.3729 -0.9044
  482MOL0     C66387   5.659  10.893   1.419 -0.2877 -0.2405  0.7901
  482MOL0     C66388   5.545  10.979   1.369 -0.6847  0.1367 -1.0613
  482MOL0     C66389   5.594  11.126   1.336  0.3179 -0.7500 -0.1662
  482MOL0     C66390   5.486  11.206   1.279 -0.0468 -0.6079  0.0052
  482MOL0     C66391   5.528  11.356   1.273 -0.1848  0.7760 -0.7953
  482MOL0     C66392   5.640  11.379   1.171 -1.0504  0.0193  0.6551
  482MOL0     C66393   5.663  11.540   1.177  0.5632 -0.1271 -0.0980
  482MOL0     C66394   5.766  11.570   1.066  0.7881 -0.3036 -0.4641
  482MOL0     N66395   5.786  11.719   1.061  0.1633 -0.4109 -0.1823
  482MOL0     C66396   5.861  11.785   1.151 -0.5477  0.2894 -0.1219
  482MOL0     C66397   5.872  11.913   1.105  0.3176 -0.7167  0.1523
  482MOL0     C66398   5.965  12.023   1.166  0.4760 -0.5237 -0.4144
  482MOL0     C66399   5.876  12.146   1.202 -0.1727 -0.2718 -0.2691
  482MOL0     C66400   5.965  12.267   1.234 -0.5293 -0.0607 -0.5301
  482MOL0     C66401   5.908  12.363   1.350 -0.4880  0.9500 -0.0829
  482MOL0     O66402   5.864  12.300   1.474  0.0349  0.1403  0.3580
  482MOL0     C66403   5.938  12.316   1.590 -0.7574 -0.3865  1.1408
  482MOL0     C66404   6.011  12.436   1.636  0.1240 -0.5870  0.2541
  482MOL0     C66405   6.071  12.439   1.763  0.2199 -0.2213  0.3199
  482MOL0     C66406   6.146  12.569   1.797  0.7255  1.2134  0.3790
  482MOL0     C66407   6.052  12.333   1.854 -0.3054 -1.1492 -0.2685
  482MOL0     C66408   6.113  12.337   1.983 -0.6593  1.0527  0.2144
  482MOL0     O66409   6.034  12.272   2.081  0.7269  0.1434 -0.9474
  482MOL0     C66410   6.066  12.247   2.212  0.1277 -0.2726  0.2722
  482MOL0     C66411   6.188  12.266   2.277  0.1895 -0.7038  0.0051
  482MOL0     C66412   6.204  12.224   2.409 -0.1544  0.4107  0.5673
  482MOL0     C66413   6.100  12.153   2.481  0.0402  0.0564  0.1191
  482MOL0     O66414   6.125  12.132   2.620 -0.3714  0.1310  0.2982
  482MOL0     C66415   6.030  12.075   2.705  0.0045  0.0352  1.0244
  482MOL0     C66416   6.096  12.050   2.839  0.9353  0.1097 -0.4902
  482MOL0     C66417   6.104  12.186   2.916  0.6234  0.6076 -0.1528
  482MOL0     C66418   6.175  12.187   3.050  0.4315 -0.0545  0.1476
  482MOL0     C66419   6.235  12.327   3.091 -0.2280 -0.0423  0.0351
  482MOL0     C66420   6.295  12.322   3.230  0.3573 -0.2018  0.1936
  482MOL0     C66421   6.358  12.454   3.283 -0.0425  0.4034  0.4883
  482MOL0     C66422   6.260  12.568   3.328 -0.1472  0.4938  1.0918
  482MOL0    Cl66423   6.172  12.503   3.466 -0.1327 -0.3912  1.0654
  482MOL0     C66424   5.976  12.137   2.416 -0.3840 -0.3793 -0.0149
  482MOL0     C66425   5.964  12.191   2.290  0.7026  0.3846 -0.6844
  482MOL0     O66426   6.223  12.375   2.010  0.1853  0.9700  0.0910
  482MOL0     C66427   5.994  12.212   1.807 -0.0226 -0.2593 -0.7508
  482MOL0     C66428   5.935  12.205   1.678 -0.4604  0.7721 -0.4001
  482MOL0     N66429   5.811  11.926   0.983  0.2382 -0.0112  0.7163
  482MOL0     N66430   5.761  11.806   0.959 -0.0206  0.1397 -0.4223
  482MOL0     C66431   5.591  10.576   1.575 -0.5521  0.1439  0.5670
  482MOL0     C66432   5.654  10.467   1.642  0.9100 -0.2541  1.0279
  482MOL0     C66433   5.885  10.153   1.836 -0.5205  0.2382  0.0950
  482MOL0     C66434   5.967  10.089   1.737 -1.4029 -0.2623 -0.6509
  482MOL0     C66435   6.020   9.966   1.757 -0.9767 -0.1523  0.1131
  482MOL0     C66436   5.989   9.894   1.874  0.2169  0.2115  0.1289
  482MOL0     O66437   6.056   9.773   1.888 -0.2108  0.0943  0.0259
  482MOL0     C66438   6.080   9.722   2.017 -0.2851 -0.5449  0.1981
  482MOL0     C66439   6.132   9.572   1.992  1.1569 -0.5225 -0.4811
  482MOL0     C66440   6.038   9.471   2.066  0.4055 -0.5794 -0.2266
  482MOL0     C66441   6.070   9.324   2.039 -0.8398 -0.8085 -0.7420
  482MOL0     C66442   6.188   9.279   2.121 -0.1581  0.0354  0.4180
  482MOL0     C66443   6.275   9.240   2.193  0.0347 -0.3458  0.5696
  482MOL0     C66444   5.888   9.954   1.962 -0.3994  0.1249  0.4444
  482MOL0     C66445   5.848  10.084   1.954  0.5984 -0.1625  0.5088
  482MOL0     C66446   5.777  10.152   2.064 -0.0288  0.6638 -0.1414
  482MOL0     H66447   5.986  10.549   1.572  0.4461 -0.5601  0.7686
  482MOL0     H66448   5.886  10.738   1.486 -1.0090  0.4713 -3.8230
  482MOL0     H66449   5.740  10.889   1.345  0.0891  1.7070  1.0619
  482MOL0     H66450   5.697  10.923   1.517 -1.1988  0.4887  0.9343
  482MOL0     H66451   5.508  10.931   1.279  0.6710  1.6307 -2.4890
  482MOL0     H66452   5.467  10.983   1.446 -1.9447 -0.1114 -2.2918
  482MOL0     H66453   5.633  11.163   1.431  0.1294  1.9096 -1.0242
  482MOL0     H66454   5.682  11.129   1.271 -0.2808  3.0744 -1.0855
  482MOL0     H66455   5.441  11.162   1.189 -0.2499 -1.6988  0.6145
  482MOL0     H66456   5.398  11.205   1.344 -0.4751  2.5744 -0.3931
  482MOL0     H66457   5.558  11.385   1.374  0.5945 -0.5160 -0.6246
  482MOL0     H66458   5.439  11.410   1.242 -0.4105  0.8520 -0.0373
  482MOL0     H66459   5.729  11.333   1.214 -1.4528 -0.6608  0.7673
  482MOL0     H66460   5.613  11.341   1.072  1.1067 -0.5735  0.2327
  482MOL0     H66461   5.705  11.568   1.274  1.2225 -0.8584 -0.1658
  482MOL0     H66462   5.575  11.604   1.170  1.8467  1.6676 -0.4777
  482MOL0     H66463   5.853  11.504   1.074  0.8739 -0.1082  0.3018
  482MOL0     H66464   5.721  11.535   0.973  0.2562 -0.5613 -0.1122
  482MOL0     H66465   5.917  11.754   1.239  2.6530  0.5910 -1.8889
  482MOL0     H66466   6.042  12.047   1.093 -0.4836 -2.0663 -2.0276
  482MOL0     H66467   6.023  11.992   1.253  1.6424  3.1551  0.2700
  482MOL0     H66468   5.810  12.172   1.119  1.1846  2.4644 -0.6193
  482MOL0     H66469   5.812  12.120   1.287  1.5950 -0.9359  0.9259
  482MOL0     H66470   6.064  12.231   1.265 -0.9948 -3.6933 -2.7332
  482MOL0     H66471   5.973  12.334   1.149  0.8341  0.0454 -0.3354
  482MOL0     H66472   5.977  12.447   1.364  4.2270 -2.7531  1.7362
  482MOL0     H66473   5.816  12.406   1.310 -1.1938  0.3310  0.8261
  482MOL0     H66474   6.011  12.529   1.580  0.2520 -0.4467  0.4891
  482MOL0     H66475   6.090  12.639   1.734 -0.2992  0.3247  0.2665
  482MOL0     H66476   6.249  12.552   1.764 -0.3600 -3.4768 -1.4987
  482MOL0     H66477   6.140  12.607   1.900  4.4680  3.3370 -0.0040
  482MOL0     H66478   6.276  12.317   2.240  0.1603  0.1821  1.1120
  482MOL0     H66479   6.297  12.262   2.447  0.3374  3.2829 -2.9465
  482MOL0     H66480   5.948  12.146   2.714 -0.5585 -0.4937  0.1484
  482MOL0     H66481   5.992  11.982   2.662  3.0678 -0.4139 -1.0712
  482MOL0     H66482   6.034  11.981   2.896 -1.4949 -0.0346 -3.0408
  482MOL0     H66483   6.198  12.017   2.819  1.4644  1.8072 -0.8037
  482MOL0     H66484   6.005  12.227   2.938  0.5073 -1.1611  3.1756
  482MOL0     H66485   6.159  12.253   2.849  0.3914 -1.7696 -2.9049
  482MOL0     H66486   6.251  12.110   3.032 -0.2122 -1.1272  1.7619
  482MOL0     H66487   6.121  12.157   3.141 -1.6625  1.0946 -0.6691
  482MOL0     H66488   6.319  12.347   3.024 -1.9394 -2.0437 -2.9593
  482MOL0     H66489   6.158  12.404   3.088  2.0085  2.4336  1.7598
  482MOL0     H66490   6.373  12.246   3.235  0.1006 -0.6305 -1.7386
  482MOL0     H66491   6.209  12.289   3.290 -0.8524 -1.1340 -1.9477
  482MOL0     H66492   6.425  12.491   3.205  1.3398  0.7819  1.8073
  482MOL0     H66493   6.433  12.424   3.357  0.3471  1.7487  0.6640
  482MOL0     H66494   6.197  12.588   3.242 -1.2822 -1.5121  1.3804
  482MOL0     H66495   6.320  12.651   3.367  2.8727 -1.0610  0.0588
  482MOL0     H66496   5.893  12.081   2.457 -0.3973 -0.5635 -0.2910
  482MOL0     H66497   5.871  12.180   2.234  1.2079  0.3603 -1.5360
  482MOL0     H66498   6.005  12.127   1.874 -1.9711  0.7598  0.9583
  482MOL0     H66499   5.878  12.115   1.662  1.1370 -0.9823  2.7222
  482MOL0     H66500   5.483  10.591   1.578 -0.4491  1.4555 -1.0502
  482MOL0     H66501   5.597  10.385   1.684  1.0763 -1.5867 -1.1483
  482MOL0     H66502   5.999  10.133   1.643  0.0224 -2.5634 -1.3429
  482MOL0     H66503   6.069   9.913   1.677  0.3892  0.6700  0.3747
  482MOL0     H66504   6.153   9.783   2.069  0.4283  1.0696 -2.4899
  482MOL0     H66505   5.991   9.723   2.081  0.3539  0.1911  1.0948
  482MOL0     H66506   6.233   9.565   2.034  2.4013 -0.4677 -3.2425
  482MOL0     H66507   6.146   9.557   1.885 -1.2302  0.5826 -0.9983
  482MOL0     H66508   6.048   9.490   2.173  2.2452 -3.3064  0.2163
  482MOL0     H66509   5.938   9.503   2.037 -0.1635 -0.7387  1.4401
  482MOL0     H66510   6.088   9.315   1.931  0.7770  2.6243 -0.8791
  482MOL0     H66511   5.989   9.268   2.087 -0.8475 -0.3857 -0.2602
  482MOL0     H66512   6.362   9.209   2.247  2.0201  0.8468 -1.7092
  482MOL0     H66513   5.852   9.902   2.051  0.1113 -1.3651 -0.1793
  482MOL0     H66514   5.727  10.081   2.132 -1.4243  0.5745 -1.2235
  482MOL0     H66515   5.855  10.206   2.118  0.6484 -0.4994  0.0918
  482MOL0     H66516   5.693  10.217   2.037 -1.8152 -1.1597  0.7280
  483MOL0     O66517   0.384   2.155   0.875  0.0610  0.5338  0.0476
  483MOL0     C66518   0.272   2.166   0.817 -0.2966 -0.1341  0.2945
  483MOL0     O66519   0.224   2.282   0.745 -0.4884  0.3922 -0.3425
  483MOL0     C66520   0.317   2.369   0.702 -0.1536  0.7327  1.0233
  483MOL0     C66521   0.278   2.503   0.698  0.2446 -0.0700 -0.5549
  483MOL0     C66522   0.365   2.595   0.649  0.3738 -0.1677 -0.4596
  483MOL0     C66523   0.491   2.554   0.598 -0.7603 -0.7151  0.6536
  483MOL0     O66524   0.591   2.637   0.559  0.8494  0.4001  0.2345
  483MOL0     C66525   0.569   2.765   0.502 -0.1958  0.4075 -0.0029
  483MOL0     C66526   0.710   2.821   0.498  0.4485  0.0367  0.4488
  483MOL0     C66527   0.757   2.891   0.629 -0.4661 -0.2622 -0.0622
  483MOL0     C66528   0.905   2.871   0.663 -0.2357 -0.2094  0.2425
  483MOL0     C66529   0.953   2.982   0.758  0.9425  0.8961 -0.0402
  483MOL0     C66530   0.959   3.118   0.681 -1.0519  1.0680 -0.7299
  483MOL0     C66531   0.996   3.232   0.774  0.0373  0.1317  0.8830
  483MOL0     C66532   1.013   3.373   0.707 -0.6535 -0.0118  0.0395
  483MOL0     N66533   1.028   3.477   0.810 -0.6517  0.4902  0.7166
  483MOL0     C66534   1.114   3.476   0.919  0.0191  0.1513 -0.3125
  483MOL0     C66535   1.107   3.605   0.960  0.1051 -0.3625 -0.1139
  483MOL0     C66536   1.175   3.653   1.091 -0.2326 -0.7990  1.1188
  483MOL0     C66537   1.182   3.550   1.202  1.6319  0.6071 -0.6803
  483MOL0     C66538   1.043   3.554   1.271  0.3527 -0.1164 -0.5821
  483MOL0     C66539   1.047   3.476   1.398  1.1541  0.6841 -1.2484
  483MOL0     O66540   0.915   3.478   1.472 -0.5096 -0.3799  0.7650
  483MOL0     C66541   0.915   3.416   1.590 -0.0959  1.0420  0.1115
  483MOL0     C66542   0.806   3.470   1.666 -0.7520  0.7428  0.8061
  483MOL0     C66543   0.791   3.441   1.799 -0.3254 -0.7588  0.3535
  483MOL0     C66544   0.664   3.486   1.873 -0.3018  0.5896 -0.1418
  483MOL0     C66545   0.885   3.351   1.854 -0.2471  1.3613 -0.2901
  483MOL0     C66546   0.871   3.290   1.988 -0.2313 -0.0263 -0.8520
  483MOL0     O66547   0.894   3.160   1.993  0.2068  0.2007 -0.6197
  483MOL0     C66548   0.912   3.096   2.112 -0.9569  0.7510  0.3864
  483MOL0     C66549   0.826   3.001   2.163  0.5497 -0.2046  0.9227
  483MOL0     C66550   0.862   2.922   2.277  0.0576  1.0435  0.3454
  483MOL0     C66551   1.000   2.918   2.317 -0.4694 -0.1022  0.5182
  483MOL0     O66552   1.051   2.841   2.415 -0.0822  0.1963 -0.0215
  483MOL0     C66553   0.957   2.763   2.492  0.2418  0.6009  0.7651
  483MOL0     C66554   1.024   2.720   2.620 -0.7586 -0.9650  0.1692
  483MOL0     C66555   0.937   2.628   2.710 -0.5233  1.1742  0.4700
  483MOL0     C66556   0.948   2.650   2.861  0.0938  0.5549  0.8882
  483MOL0     C66557   0.826   2.581   2.919  0.4768 -0.6251  0.5268
  483MOL0     C66558   0.819   2.561   3.076 -0.1761 -0.7111 -0.3881
  483MOL0     C66559   0.802   2.693   3.156 -1.0394  0.6308 -0.2712
  483MOL0     C66560   0.785   2.677   3.303 -0.2405  0.2904  0.4815
  483MOL0    Cl66561   0.935   2.643   3.397 -0.3832  0.3576 -0.0068
  483MOL0     C66562   1.087   2.996   2.252 -0.1006 -0.1065  0.3727
  483MOL0     C66563   1.048   3.091   2.160 -0.5772 -0.4179  0.0151
  483MOL0     O66564   0.839   3.362   2.082 -0.0973 -0.2906  0.0564
  483MOL0     C66565   0.998   3.292   1.780  0.5064 -0.0724  0.1755
  483MOL0     C66566   1.010   3.332   1.646  0.4314  0.1070  1.1201
  483MOL0     N66567   1.038   3.680   0.864  0.8190 -0.5890 -0.8017
  483MOL0     N66568   0.990   3.599   0.774 -0.8092  0.1103  0.3207
  483MOL0     C66569   0.524   2.419   0.590  0.1198 -0.8475 -0.1167
  483MOL0     C66570   0.433   2.329   0.636 -0.1835 -0.1620 -0.8720
  483MOL0     C66571   0.193   2.051   0.794  1.1078  0.6152 -0.2388
  483MOL0     C66572   0.175   2.009   0.661 -0.3007  0.9542  0.3518
  483MOL0     C66573   0.116   1.889   0.631  0.2190 -0.2234 -0.9770
  483MOL0     C66574   0.040   1.831   0.735  0.1161  0.5170  0.4532
  483MOL0     O66575  -0.061   1.729   0.719 -0.7654 -0.0506 -0.0937
  483MOL0     C66576  -0.150   1.741   0.615  0.1096  0.6193  1.1421
  483MOL0     C66577  -0.267   1.635   0.629 -0.5229 -0.9645  0.0315
  483MOL0     C66578  -0.370   1.651   0.737  0.3349 -0.4487 -0.0477
  483MOL0     C66579  -0.475   1.544   0.732 -0.2787  0.0142  0.1062
  483MOL0     C66580  -0.434   1.419   0.805  0.4656  0.2020  0.3043
  483MOL0     C66581  -0.415   1.320   0.867  0.0159 -0.3602 -0.3966
  483MOL0     C66582   0.050   1.885   0.872 -0.2917  0.1150 -0.0509
  483MOL0     C66583   0.124   1.994   0.903 -0.3754  0.2409  0.0164
  483MOL0     C66584   0.138   2.033   1.045 -0.5479  0.0944  0.2482
  483MOL0     H66585   0.182   2.533   0.740  0.4780  1.2692 -0.9430
  483MOL0     H66586   0.359   2.703   0.660  3.4162  0.2280 -1.5845
  483MOL0     H66587   0.519   2.832   0.573  0.8247 -2.0591  3.2741
  483MOL0     H66588   0.522   2.748   0.405  3.1730 -0.7037 -1.5963
  483MOL0     H66589   0.784   2.745   0.473  0.3120  0.5910 -1.8359
  483MOL0     H66590   0.699   2.895   0.418 -0.9236  0.4799  1.0146
  483MOL0     H66591   0.732   2.996   0.616  2.3535  0.5058  0.2219
  483MOL0     H66592   0.708   2.851   0.719  2.8958 -2.1767  1.1190
  483MOL0     H66593   0.905   2.779   0.721 -0.6638  0.4433  1.3128
  483MOL0     H66594   0.973   2.855   0.578  1.5955  0.0800  1.5753
  483MOL0     H66595   1.057   2.972   0.790  1.7992  2.8241 -1.9485
  483MOL0     H66596   0.878   3.005   0.833  1.7189  1.9335  0.4490
  483MOL0     H66597   1.031   3.121   0.599 -1.8511  1.0635 -1.4479
  483MOL0     H66598   0.864   3.153   0.638 -0.4800 -2.5998 -5.9353
  483MOL0     H66599   1.087   3.194   0.821  1.0318  0.2528 -0.8474
  483MOL0     H66600   0.906   3.243   0.836  0.8283  3.0688  1.6490
  483MOL0     H66601   1.095   3.388   0.636 -2.8334 -2.1354 -3.1956
  483MOL0     H66602   0.923   3.387   0.646  0.3781  0.2117 -1.4939
  483MOL0     H66603   1.166   3.390   0.959  1.6169  0.8732 -0.7557
  483MOL0     H66604   1.116   3.736   1.131  2.4265  0.4650  2.6970
  483MOL0     H66605   1.277   3.681   1.064 -0.4833  0.6109  1.5486
  483MOL0     H66606   1.206   3.446   1.179 -2.1748 -0.1782 -1.9019
  483MOL0     H66607   1.257   3.581   1.276  1.7334 -0.1288 -0.4693
  483MOL0     H66608   1.000   3.651   1.296  0.2444 -0.1622 -0.5884
  483MOL0     H66609   0.968   3.509   1.205  0.8981 -2.4495  0.2805
  483MOL0     H66610   1.057   3.371   1.368  0.5052  0.3913 -0.4897
  483MOL0     H66611   1.129   3.491   1.469  0.7586 -2.7924  0.1848
  483MOL0     H66612   0.737   3.525   1.603 -1.8986  0.0437  1.4072
  483MOL0     H66613   0.688   3.515   1.976 -0.5622  1.5664 -0.3402
  483MOL0     H66614   0.591   3.405   1.877  1.6309 -1.2162  0.3265
  483MOL0     H66615   0.621   3.563   1.808  2.4835 -1.2706 -4.6728
  483MOL0     H66616   0.734   2.974   2.112  2.4334 -2.8095 -1.4017
  483MOL0     H66617   0.781   2.860   2.314 -0.0451  1.6847  1.2395
  483MOL0     H66618   0.859   2.810   2.506  0.5035  2.3154 -2.3296
  483MOL0     H66619   0.940   2.669   2.438  2.4197  1.2967 -1.2958
  483MOL0     H66620   1.120   2.675   2.593  0.8227  2.1574  0.1262
  483MOL0     H66621   1.039   2.814   2.675  2.0132 -0.6250 -0.9692
  483MOL0     H66622   0.984   2.531   2.690  1.7462  2.1546  0.8291
  483MOL0     H66623   0.835   2.620   2.672 -0.6997 -1.8354  1.3377
  483MOL0     H66624   0.947   2.760   2.865  0.9183  0.6428 -0.4034
  483MOL0     H66625   1.040   2.609   2.904 -0.3754  0.5591  1.8961
  483MOL0     H66626   0.734   2.622   2.878  0.9255 -1.1707 -1.1340
  483MOL0     H66627   0.824   2.480   2.876  0.7629  0.0843 -1.2708
  483MOL0     H66628   0.905   2.499   3.103 -1.3865 -2.6597 -0.7760
  483MOL0     H66629   0.726   2.507   3.097 -1.2741 -0.2154 -3.3887
  483MOL0     H66630   0.706   2.739   3.130 -1.7069 -1.5208 -1.9040
  483MOL0     H66631   0.893   2.752   3.140  1.8083 -3.2592  0.1103
  483MOL0     H66632   0.714   2.596   3.324  0.6534 -0.7883 -0.4971
  483MOL0     H66633   0.749   2.770   3.347 -1.4598 -1.5286  3.6239
  483MOL0     H66634   1.189   2.984   2.287 -0.4474  1.2054  1.9459
  483MOL0     H66635   1.128   3.143   2.108  2.0573 -4.1049 -0.0166
  483MOL0     H66636   1.069   3.222   1.820  1.8706  0.0701 -1.8092
  483MOL0     H66637   1.094   3.288   1.594  0.5875  1.4917  0.1523
  483MOL0     H66638   0.622   2.396   0.549  1.1590  0.5841  1.4005
  483MOL0     H66639   0.448   2.224   0.615  0.5372 -0.0294 -1.0293
  483MOL0     H66640   0.212   2.075   0.583 -0.6450  0.6457 -0.0774
  483MOL0     H66641   0.100   1.852   0.530  0.7190 -3.9493  0.1454
  483MOL0     H66642  -0.191   1.841   0.604  0.0726  0.7203  2.0902
  483MOL0     H66643  -0.104   1.714   0.519  2.4328 -1.2611  2.6433
  483MOL0     H66644  -0.226   1.534   0.627 -1.3396 -1.3590  1.6944
  483MOL0     H66645  -0.314   1.633   0.530  1.0039  0.5546 -0.7837
  483MOL0     H66646  -0.316   1.653   0.833  0.8290  0.7624 -0.3336
  483MOL0     H66647  -0.424   1.746   0.726 -0.2634 -0.6909  0.7039
  483MOL0     H66648  -0.497   1.511   0.630 -1.9783 -0.6535  0.6550
  483MOL0     H66649  -0.568   1.594   0.761 -1.6157 -0.3086 -3.1754
  483MOL0     H66650  -0.418   1.228   0.921 -2.0749  0.4842  1.0861
  483MOL0     H66651  -0.007   1.828   0.945 -0.6032  0.4507 -0.0268
  483MOL0     H66652   0.146   1.948   1.113  2.0469 -0.1230 -0.2105
  483MOL0     H66653   0.232   2.089   1.059  0.7701 -1.9485  0.0269
  483MOL0     H66654   0.055   2.099   1.070 -1.2566 -1.1374  1.2037
  484MOL0     O66655   4.881   3.948  11.015 -0.5713 -0.2992 -0.0315
  484MOL0     C66656   4.860   3.838  11.055 -0.4872  0.0215 -0.1483
  484MOL0     O66657   4.739   3.777  11.068  0.1297  0.2292 -0.0090
  484MOL0     C66658   4.630   3.863  11.088  0.2847 -0.6252  0.1522
  484MOL0     C66659   4.603   3.921  11.204 -0.4367 -0.7651  0.0293
  484MOL0     C66660   4.505   4.015  11.222 -0.6685 -0.8604  0.5470
  484MOL0     C66661   4.430   4.047  11.112 -0.0560  0.2780  0.4723
  484MOL0     O66662   4.321   4.126  11.114  0.1088 -0.6617 -0.8610
  484MOL0     C66663   4.261   4.173  11.240  0.3222 -0.2920 -0.0332
  484MOL0     C66664   4.142   4.258  11.202  0.3989  0.2622 -0.8361
  484MOL0     C66665   4.032   4.186  11.130  0.9126  0.2397  0.8462
  484MOL0     C66666   3.903   4.257  11.110  0.3988 -0.9217  0.2282
  484MOL0     C66667   3.788   4.177  11.054 -0.0000 -0.0717  0.4004
  484MOL0     C66668   3.801   4.104  10.923 -0.6216 -0.2608 -0.6894
  484MOL0     C66669   3.669   4.022  10.896 -0.6758 -0.7236 -0.5375
  484MOL0     C66670   3.644   3.915  11.012 -0.2454  0.3380 -0.2854
  484MOL0     N66671   3.523   3.831  10.986  0.1487  0.0847  0.0750
  484MOL0     C66672   3.508   3.752  10.880  0.5164  0.3358  0.7181
  484MOL0     C66673   3.396   3.677  10.906 -0.6497 -0.0898 -0.0630
  484MOL0     C66674   3.316   3.592  10.813 -0.4195 -1.2713 -0.3334
  484MOL0     C66675   3.214   3.669  10.732 -0.0756  0.2814 -0.4437
  484MOL0     C66676   3.272   3.783  10.646 -0.3365  0.1407  1.1065
  484MOL0     C66677   3.337   3.747  10.509 -0.2015 -0.1800  0.4444
  484MOL0     O66678   3.418   3.634  10.529  0.3913  0.0469  0.5013
  484MOL0     C66679   3.537   3.603  10.472 -0.6388  0.0664 -0.6199
  484MOL0     C66680   3.618   3.508  10.535 -0.7014  0.5797  1.0415
  484MOL0     C66681   3.744   3.460  10.483 -0.1178 -0.0105  1.2058
  484MOL0     C66682   3.825   3.346  10.557  0.2245  0.7802  0.3235
  484MOL0     C66683   3.784   3.519  10.356  0.2010  0.2754 -0.3535
  484MOL0     C66684   3.914   3.494  10.286 -0.2017 -0.5102  0.4662
  484MOL0     O66685   3.933   3.565  10.173 -0.3904 -0.0627 -0.1925
  484MOL0     C66686   4.039   3.543  10.083  0.1579 -1.5039 -0.6109
  484MOL0     C66687   4.058   3.657  10.007 -0.4894 -0.0093  0.1572
  484MOL0     C66688   4.160   3.667   9.907  0.4358  0.1318 -0.7870
  484MOL0     C66689   4.228   3.542   9.885 -0.4223 -0.3826 -0.3559
  484MOL0     O66690   4.315   3.559   9.782 -0.5507 -0.7909  0.5055
  484MOL0     C66691   4.388   3.450   9.722 -0.0154  0.2661 -0.2395
  484MOL0     C66692   4.344   3.452   9.576 -0.6491  0.0945 -0.0049
  484MOL0     C66693   4.388   3.318   9.500 -0.3507  0.5796  0.2430
  484MOL0     C66694   4.546   3.323   9.475 -1.2097  0.2589 -0.7676
  484MOL0     C66695   4.596   3.237   9.371  0.0809  0.2441 -0.8598
  484MOL0     C66696   4.572   3.301   9.235  0.1993 -0.5893  0.2845
  484MOL0     C66697   4.631   3.215   9.124 -0.0476 -1.0215 -0.3506
  484MOL0     C66698   4.568   3.074   9.117  0.2502  0.9871 -0.1259
  484MOL0    Cl66699   4.590   3.013   8.948  0.2324  0.0628  0.4867
  484MOL0     C66700   4.211   3.424   9.958  0.3528  0.7778 -0.1617
  484MOL0     C66701   4.112   3.430  10.054 -0.0323 -0.5024 -0.0955
  484MOL0     O66702   3.990   3.409  10.327  0.4447 -0.2658  0.5776
  484MOL0     C66703   3.699   3.621  10.308 -0.5411  0.0121 -0.1328
  484MOL0     C66704   3.583   3.658  10.358 -0.3720 -0.1986  0.5639
  484MOL0     N66705   3.342   3.716  11.022  0.2945 -0.2772  0.4540
  484MOL0     N66706   3.417   3.801  11.078 -0.2752 -0.2059 -0.2256
  484MOL0     C66707   4.461   3.987  10.980  0.0691  0.5052  0.1109
  484MOL0     C66708   4.566   3.902  10.974 -0.8153 -0.5475 -0.2767
  484MOL0     C66709   4.982   3.742  11.067  0.3782 -0.1770 -0.8835
  484MOL0     C66710   5.066   3.738  10.951 -0.5104  0.5841  0.7338
  484MOL0     C66711   5.186   3.653  10.951 -0.5297 -0.0359  0.4421
  484MOL0     C66712   5.195   3.561  11.053  0.1288  0.0883  0.0496
  484MOL0     O66713   5.287   3.460  11.052 -0.6428 -0.0107  0.4806
  484MOL0     C66714   5.428   3.497  11.028 -0.3181  0.7187 -0.3792
  484MOL0     C66715   5.494   3.366  10.962  0.6382 -0.6713 -0.5071
  484MOL0     C66716   5.447   3.338  10.826  0.5516 -0.4615  0.0158
  484MOL0     C66717   5.553   3.354  10.716  0.4753 -0.4648 -0.0528
  484MOL0     C66718   5.551   3.490  10.680  1.0717 -1.1134 -0.1867
  484MOL0     C66719   5.575   3.606  10.649 -0.1251  0.0418 -0.2395
  484MOL0     C66720   5.109   3.562  11.158 -0.1299  0.0031  0.0839
  484MOL0     C66721   5.003   3.647  11.171 -0.8017  1.0639  1.1468
  484MOL0     C66722   4.904   3.636  11.282 -0.2875  0.2784 -0.1893
  484MOL0     H66723   4.662   3.900  11.293 -0.2493  0.2822  0.1600
  484MOL0     H66724   4.500   4.059  11.321  1.0844 -0.6555  0.5748
  484MOL0     H66725   4.333   4.233  11.296  0.2882 -0.1915 -0.0971
  484MOL0     H66726   4.228   4.087  11.301  1.3158 -0.0349  0.9009
  484MOL0     H66727   4.097   4.289  11.297  2.2200 -0.4372  0.2942
  484MOL0     H66728   4.177   4.348  11.149 -0.4736  0.8970 -0.3706
  484MOL0     H66729   4.063   4.160  11.028 -1.3523 -0.6326  0.3055
  484MOL0     H66730   4.017   4.094  11.188  0.7560 -1.3058 -1.4985
  484MOL0     H66731   3.872   4.296  11.207  0.2682 -0.6723  0.0856
  484MOL0     H66732   3.927   4.333  11.035  0.1257 -0.9671  0.0927
  484MOL0     H66733   3.697   4.236  11.046  0.6353  1.2188  1.9208
  484MOL0     H66734   3.765   4.104  11.133  1.7577 -1.5205 -0.3345
  484MOL0     H66735   3.812   4.171  10.837 -0.5713 -1.8879 -2.0050
  484MOL0     H66736   3.890   4.040  10.923 -0.9016 -0.7431  1.9671
  484MOL0     H66737   3.670   3.976  10.796 -1.4159 -0.2515 -0.7724
  484MOL0     H66738   3.591   4.098  10.893 -0.0246 -0.0489 -0.7989
  484MOL0     H66739   3.732   3.850  11.014  0.1577  0.8712  2.0222
  484MOL0     H66740   3.622   3.972  11.103  2.7645  0.1817  0.6438
  484MOL0     H66741   3.553   3.765  10.783 -4.1531  0.1222 -1.7518
  484MOL0     H66742   3.270   3.511  10.871 -0.2028 -2.9232 -2.3426
  484MOL0     H66743   3.385   3.549  10.739 -2.4286 -2.0671 -1.8325
  484MOL0     H66744   3.163   3.603  10.662 -0.1785  0.5063 -0.5818
  484MOL0     H66745   3.143   3.711  10.805 -0.6284  0.1917 -0.9230
  484MOL0     H66746   3.197   3.859  10.623 -0.1987 -0.0423 -0.0225
  484MOL0     H66747   3.350   3.834  10.704 -0.5059  4.0052 -1.6544
  484MOL0     H66748   3.272   3.735  10.422  0.1587 -3.9658  0.5333
  484MOL0     H66749   3.413   3.824  10.493 -1.3015  0.7114 -0.6602
  484MOL0     H66750   3.572   3.463  10.623 -1.1938 -2.9760 -0.8402
  484MOL0     H66751   3.768   3.316  10.646 -2.6729  1.4814 -1.1665
  484MOL0     H66752   3.920   3.387  10.593  2.7264 -2.1325 -2.3888
  484MOL0     H66753   3.839   3.267  10.483  0.1738  2.2752 -1.3657
  484MOL0     H66754   3.987   3.737  10.028  1.3451  1.1262  2.4971
  484MOL0     H66755   4.157   3.752   9.839 -2.7056  3.4353  2.9730
  484MOL0     H66756   4.496   3.464   9.735  0.3296 -0.1442 -2.3012
  484MOL0     H66757   4.360   3.353   9.764  1.5088 -0.6807 -1.2919
  484MOL0     H66758   4.240   3.474   9.553 -0.3626  1.2962 -0.2153
  484MOL0     H66759   4.408   3.532   9.537 -0.0024  0.1935  1.2113
  484MOL0     H66760   4.337   3.302   9.405  0.0004  0.6148  0.0478
  484MOL0     H66761   4.361   3.238   9.570 -3.2698  0.2342 -1.1557
  484MOL0     H66762   4.596   3.298   9.569 -0.3476  0.3265 -1.1965
  484MOL0     H66763   4.582   3.421   9.443  2.8491 -0.2558  1.4241
  484MOL0     H66764   4.704   3.218   9.378 -0.2348 -1.5478 -0.3690
  484MOL0     H66765   4.546   3.145   9.399 -3.9393  3.4712  4.6758
  484MOL0     H66766   4.625   3.396   9.231 -0.8441  0.0212  0.4728
  484MOL0     H66767   4.468   3.326   9.211  0.7073  0.3784 -1.0308
  484MOL0     H66768   4.740   3.213   9.129  0.0247  0.3938 -0.7908
  484MOL0     H66769   4.605   3.276   9.037  1.6586  1.8560  1.0000
  484MOL0     H66770   4.466   3.084   9.154  0.4994 -0.5410  1.1025
  484MOL0     H66771   4.611   3.013   9.197  1.8500  2.6205  0.3364
  484MOL0     H66772   4.264   3.330   9.952 -3.4576 -2.0892  4.0163
  484MOL0     H66773   4.088   3.344  10.116  1.1655  1.2128  3.0072
  484MOL0     H66774   3.716   3.658  10.208 -1.7424  3.1411  0.6899
  484MOL0     H66775   3.517   3.726  10.305 -0.7229 -0.0394  1.2032
  484MOL0     H66776   4.418   4.024  10.888 -0.9053  0.1435  0.4065
  484MOL0     H66777   4.605   3.859  10.882  2.3180  0.0245  0.6426
  484MOL0     H66778   5.048   3.800  10.863 -1.3576 -2.0468 -1.0760
  484MOL0     H66779   5.258   3.645  10.871 -0.5227  3.1875 -0.0041
  484MOL0     H66780   5.451   3.586  10.969  0.6674  0.9283  0.2924
  484MOL0     H66781   5.468   3.522  11.127  1.6514 -0.8270 -0.7297
  484MOL0     H66782   5.466   3.278  11.021 -0.1969  0.3799  0.7069
  484MOL0     H66783   5.598   3.400  10.951  0.9211 -2.1250 -3.1955
  484MOL0     H66784   5.409   3.239  10.801 -2.0205  0.8546 -1.7275
  484MOL0     H66785   5.360   3.401  10.806 -0.5130 -1.7268  0.5098
  484MOL0     H66786   5.534   3.292  10.628 -1.7064  0.6109 -0.4185
  484MOL0     H66787   5.654   3.339  10.754  0.7657 -0.6326 -0.8788
  484MOL0     H66788   5.590   3.701  10.602 -0.8066 -0.2491 -1.0776
  484MOL0     H66789   5.135   3.484  11.229 -2.0518  0.1195  0.9767
  484MOL0     H66790   4.922   3.558  11.357  0.3272 -1.0294 -1.6557
  484MOL0     H66791   4.876   3.726  11.338  3.9730  1.3056  0.6896
  484MOL0     H66792   4.821   3.586  11.232 -0.7385 -1.0722  1.7915
  485MOL0     O66793  10.809  10.872   3.687  0.0848  0.3270 -0.5899
  485MOL0     C66794  10.900  10.905   3.766  0.1496 -0.1209 -0.1476
  485MOL0     O66795  11.031  10.929   3.739 -0.6882 -0.0034  0.3297
  485MOL0     C66796  11.092  10.856   3.635  0.6086 -0.8451 -0.4097
  485MOL0     C66797  11.116  10.721   3.636  0.2381  0.2888  0.3046
  485MOL0     C66798  11.161  10.660   3.516 -0.6213  0.2210  0.3398
  485MOL0     C66799  11.227  10.739   3.425  0.0964 -0.1304  0.2204
  485MOL0     O66800  11.287  10.701   3.312 -1.2722  0.2129  0.2710
  485MOL0     C66801  11.335  10.565   3.292 -0.5449  1.2332  0.5798
  485MOL0     C66802  11.433  10.571   3.171 -0.1347  0.2498 -0.1649
  485MOL0     C66803  11.383  10.597   3.031 -0.0648  0.8539  0.2801
  485MOL0     C66804  11.494  10.648   2.935  0.1095  0.9775  1.5467
  485MOL0     C66805  11.428  10.711   2.809 -1.0355 -0.4554  0.0566
  485MOL0     C66806  11.348  10.617   2.717 -0.0636  0.1405 -0.6773
  485MOL0     C66807  11.294  10.689   2.588 -0.3124  0.9403  0.1604
  485MOL0     C66808  11.162  10.761   2.602  1.2133  1.1554 -0.0964
  485MOL0     N66809  11.035  10.679   2.624 -0.2542  0.2015  0.2624
  485MOL0     C66810  10.986  10.633   2.738  0.3732 -0.0900 -0.6111
  485MOL0     C66811  10.863  10.576   2.711 -0.2626  0.3190 -0.0601
  485MOL0     C66812  10.774  10.526   2.817 -0.3169  0.7554 -0.0422
  485MOL0     C66813  10.740  10.606   2.945 -0.0155 -0.2689  0.3151
  485MOL0     C66814  10.593  10.610   2.982  0.1786  0.0754  0.8248
  485MOL0     C66815  10.542  10.472   3.037  0.6797  0.7022 -0.4339
  485MOL0     O66816  10.614  10.425   3.147  0.1747 -0.5905 -0.4759
  485MOL0     C66817  10.590  10.481   3.266 -0.1580 -0.4076  0.2042
  485MOL0     C66818  10.669  10.464   3.374 -0.6884 -0.4190 -0.6751
  485MOL0     C66819  10.659  10.522   3.496 -0.5649  0.1592  0.9425
  485MOL0     C66820  10.774  10.499   3.599 -0.1988 -0.3858 -0.1772
  485MOL0     C66821  10.549  10.608   3.519  0.6453  1.5674 -0.1440
  485MOL0     C66822  10.522  10.676   3.654  0.7934  0.0711  0.2540
  485MOL0     O66823  10.436  10.786   3.638 -0.1550 -0.1614 -0.9660
  485MOL0     C66824  10.380  10.825   3.761 -0.0797  0.7727  0.3659
  485MOL0     C66825  10.252  10.774   3.786 -0.1691 -0.1779  0.6494
  485MOL0     C66826  10.183  10.807   3.903 -0.2012  0.1294 -0.7218
  485MOL0     C66827  10.241  10.896   3.996  0.0757 -0.7292  0.5442
  485MOL0     O66828  10.164  10.924   4.098 -0.8804 -0.7505 -0.5231
  485MOL0     C66829  10.197  11.039   4.179  0.4172  0.0796  0.6161
  485MOL0     C66830  10.251  10.992   4.314 -0.2453 -0.4382 -0.6199
  485MOL0     C66831  10.309  11.118   4.396 -1.5217  0.1389 -0.8004
  485MOL0     C66832  10.376  11.057   4.529  0.3175 -0.1594  0.2545
  485MOL0     C66833  10.511  10.985   4.519  0.2000  0.3264 -0.3800
  485MOL0     C66834  10.504  10.831   4.538  0.0383  0.3520  0.4967
  485MOL0     C66835  10.625  10.746   4.510 -0.5862  0.0315  0.1440
  485MOL0     C66836  10.746  10.788   4.591 -0.0776 -0.1217  0.3960
  485MOL0    Cl66837  10.865  10.659   4.606  0.1176  0.0101  0.3732
  485MOL0     C66838  10.377  10.942   3.971  0.2641 -0.5404 -0.0850
  485MOL0     C66839  10.444  10.901   3.859 -0.5860  0.2646  0.3506
  485MOL0     O66840  10.557  10.619   3.761  0.8887  0.1133  0.1028
  485MOL0     C66841  10.457  10.627   3.410  0.6854 -0.7470 -1.3840
  485MOL0     C66842  10.481  10.562   3.296 -0.2784  0.1228  0.6305
  485MOL0     N66843  10.846  10.569   2.576  0.0402 -0.1849  0.0038
  485MOL0     N66844  10.940  10.651   2.530 -1.1513 -0.6860  0.1774
  485MOL0     C66845  11.232  10.872   3.448 -0.9000  0.1487  0.0258
  485MOL0     C66846  11.149  10.930   3.538 -0.6067  0.0513  1.1545
  485MOL0     C66847  10.863  10.964   3.895  0.4195  0.6340  0.3514
  485MOL0     C66848  10.868  11.101   3.924  0.4141  0.1028 -0.0062
  485MOL0     C66849  10.826  11.157   4.048  0.5387  0.8213  0.2696
  485MOL0     C66850  10.774  11.073   4.148 -0.4408  0.9093  0.6256
  485MOL0     O66851  10.746  11.110   4.272  0.5947 -0.0828 -0.1235
  485MOL0     C66852  10.755  11.250   4.306  0.0673  0.1938 -0.5684
  485MOL0     C66853  10.722  11.257   4.455  0.6697  0.6784 -0.9658
  485MOL0     C66854  10.721  11.409   4.502  0.0072  0.2840 -0.6182
  485MOL0     C66855  10.863  11.474   4.518 -0.3967  0.6552 -0.8289
  485MOL0     C66856  10.865  11.587   4.612  0.8956  0.3602  1.8903
  485MOL0     C66857  10.870  11.680   4.688 -0.1344 -0.2254  0.5889
  485MOL0     C66858  10.762  10.937   4.119 -0.1047 -0.8595 -0.2467
  485MOL0     C66859  10.801  10.882   3.998 -0.0057 -0.3808  0.2409
  485MOL0     C66860  10.773  10.735   3.999 -0.4313 -0.9290 -0.1266
  485MOL0     H66861  11.085  10.666   3.724  1.3248 -2.3371 -0.8613
  485MOL0     H66862  11.145  10.553   3.509 -2.9837  0.5248  0.2738
  485MOL0     H66863  11.250  10.504   3.259 -1.8012  2.4386  1.4651
  485MOL0     H66864  11.382  10.510   3.374 -0.7801 -1.6970 -1.1245
  485MOL0     H66865  11.495  10.656   3.199  0.2995 -0.0059 -0.3481
  485MOL0     H66866  11.503  10.487   3.177  1.1308  1.3851  1.9882
  485MOL0     H66867  11.348  10.505   2.983  0.3408  2.0610 -2.5635
  485MOL0     H66868  11.297  10.663   3.040 -1.4033 -0.4069 -2.2558
  485MOL0     H66869  11.553  10.729   2.979 -0.1991  1.4727  1.0587
  485MOL0     H66870  11.556  10.562   2.906 -0.9932  1.7615 -4.6307
  485MOL0     H66871  11.507  10.751   2.745 -2.3274  0.8882 -0.7546
  485MOL0     H66872  11.366  10.797   2.833  0.9253  0.5231  1.9117
  485MOL0     H66873  11.402  10.527   2.686 -2.2399 -1.0069 -1.3570
  485MOL0     H66874  11.263  10.578   2.773 -0.3475  1.1854 -0.3453
  485MOL0     H66875  11.270  10.615   2.512  0.2338  1.1875 -0.2619
  485MOL0     H66876  11.367  10.750   2.535  0.0920  1.1107  0.9016
  485MOL0     H66877  11.162  10.816   2.697 -1.7164  0.3031  0.4952
  485MOL0     H66878  11.162  10.819   2.510  1.2752 -0.4737 -1.1604
  485MOL0     H66879  11.016  10.647   2.842 -2.6675  0.4211  0.3061
  485MOL0     H66880  10.837  10.438   2.836  3.1624  2.8382 -1.0743
  485MOL0     H66881  10.684  10.478   2.777 -0.9870  0.8037  1.3349
  485MOL0     H66882  10.796  10.558   3.025 -3.9097 -3.1870  1.6078
  485MOL0     H66883  10.768  10.712   2.945 -4.6474  1.2523 -1.8834
  485MOL0     H66884  10.565  10.689   3.052  1.8548  1.7189 -0.2780
  485MOL0     H66885  10.533  10.620   2.891 -2.3957 -2.1419  2.1337
  485MOL0     H66886  10.432  10.475   3.044  0.5707 -1.0036 -1.0648
  485MOL0     H66887  10.562  10.404   2.955 -0.2749 -0.4123  0.2276
  485MOL0     H66888  10.757  10.401   3.377 -0.5761 -0.2601 -0.6294
  485MOL0     H66889  10.730  10.473   3.695  1.3315 -1.0683  0.3807
  485MOL0     H66890  10.854  10.574   3.611 -1.1145  0.5287  0.3783
  485MOL0     H66891  10.831  10.413   3.563 -0.7548 -0.4582 -0.8826
  485MOL0     H66892  10.197  10.718   3.710 -1.3254 -1.3451  2.2721
  485MOL0     H66893  10.083  10.770   3.922 -0.2760 -0.3838 -2.0096
  485MOL0     H66894  10.263  11.109   4.127  0.8437 -0.7199  0.0475
  485MOL0     H66895  10.112  11.106   4.196 -0.3344 -0.9532  1.0445
  485MOL0     H66896  10.176  10.933   4.367 -0.6850  0.8729  0.2599
  485MOL0     H66897  10.333  10.923   4.290 -0.1752  0.0667 -1.9167
  485MOL0     H66898  10.237  11.194   4.424 -1.8396 -0.0225 -1.1686
  485MOL0     H66899  10.394  11.155   4.336  1.9804 -3.0393  1.7170
  485MOL0     H66900  10.306  11.001   4.592 -0.0171  1.4311  1.3782
  485MOL0     H66901  10.395  11.152   4.581  0.2027 -0.6873  1.2839
  485MOL0     H66902  10.570  11.009   4.430  5.4061  1.1060  2.8824
  485MOL0     H66903  10.564  11.025   4.606 -1.5353  1.0795  0.3735
  485MOL0     H66904  10.430  10.787   4.470  1.5527 -1.8418  0.1536
  485MOL0     H66905  10.471  10.820   4.641 -2.0962  1.4524 -0.0136
  485MOL0     H66906  10.647  10.759   4.404 -0.6585  3.2581  0.4377
  485MOL0     H66907  10.609  10.641   4.536 -0.3194 -0.3808 -1.2729
  485MOL0     H66908  10.713  10.818   4.691  1.2726  5.2560 -0.4840
  485MOL0     H66909  10.799  10.875   4.551 -1.8681  1.4981  1.3874
  485MOL0     H66910  10.435  11.010   4.032 -0.8725 -0.3582  0.8353
  485MOL0     H66911  10.544  10.933   3.832 -0.3695 -0.7927 -0.1313
  485MOL0     H66912  10.374  10.696   3.415  1.9693  0.9451 -2.2679
  485MOL0     H66913  10.412  10.585   3.216 -0.8592  0.0089  1.0879
  485MOL0     H66914  11.293  10.945   3.395 -0.0582 -1.0705 -0.7402
  485MOL0     H66915  11.147  11.038   3.531  3.9071  0.2180 -1.2289
  485MOL0     H66916  10.897  11.167   3.843  2.1753 -2.5516 -1.7294
  485MOL0     H66917  10.827  11.264   4.067 -0.5910  0.4933  2.4911
  485MOL0     H66918  10.860  11.278   4.293 -0.1506  3.2585  2.9474
  485MOL0     H66919  10.691  11.311   4.241  1.0266  2.3681  0.4570
  485MOL0     H66920  10.782  11.186   4.512  0.2618 -1.8650 -3.4383
  485MOL0     H66921  10.617  11.231   4.470  1.3880 -1.8635  0.1224
  485MOL0     H66922  10.669  11.460   4.421 -0.1605 -0.7464 -1.1754
  485MOL0     H66923  10.678  11.414   4.603  0.8279  1.9782 -0.3243
  485MOL0     H66924  10.903  11.504   4.421 -1.4603 -0.4814 -1.6367
  485MOL0     H66925  10.934  11.400   4.556 -1.2165 -0.4428 -1.3743
  485MOL0     H66926  10.875  11.769   4.747 -1.8719  1.7655 -2.0695
  485MOL0     H66927  10.698  10.874   4.180  2.5528 -2.3866  1.2021
  485MOL0     H66928  10.668  10.705   3.994 -1.2379  1.5627  0.6428
  485MOL0     H66929  10.821  10.702   3.906 -1.4153  1.1663 -1.4655
  485MOL0     H66930  10.824  10.683   4.080 -1.8075  2.5813  3.3205
  486MOL0     O66931  10.905   6.573   5.709 -0.0768 -0.9321  0.2808
  486MOL0     C66932  10.923   6.466   5.767 -0.2232  0.3639  0.3853
  486MOL0     O66933  10.832   6.360   5.777 -0.0357 -0.0457 -0.0126
  486MOL0     C66934  10.730   6.346   5.689  0.5906 -0.8655  0.3379
  486MOL0     C66935  10.612   6.309   5.742 -0.2150  0.1911 -0.0343
  486MOL0     C66936  10.495   6.285   5.658  0.0678 -0.4405  0.2565
  486MOL0     C66937  10.506   6.288   5.520 -0.1110  0.2285  0.1300
  486MOL0     O66938  10.396   6.261   5.436  0.3610 -0.0391 -0.0831
  486MOL0     C66939  10.425   6.243   5.299  0.6272 -0.4528  0.8589
  486MOL0     C66940  10.294   6.202   5.228 -0.7440  0.1846  0.3172
  486MOL0     C66941  10.187   6.314   5.228 -0.2795 -0.5014 -0.1736
  486MOL0     C66942  10.053   6.270   5.172 -0.3390 -0.0926 -0.3921
  486MOL0     C66943   9.957   6.389   5.147  0.3602  0.8462  0.6435
  486MOL0     C66944   9.997   6.440   5.011  0.7160 -0.2250 -0.1393
  486MOL0     C66945   9.899   6.540   4.952  0.9210 -0.0607 -0.2866
  486MOL0     C66946   9.953   6.633   4.840  0.5170 -0.3805  0.2753
  486MOL0     N66947   9.854   6.725   4.799  0.3734  0.2417 -0.3040
  486MOL0     C66948   9.842   6.852   4.837  0.4607  0.6424 -0.2991
  486MOL0     C66949   9.743   6.901   4.757  0.5645 -0.6808  0.1216
  486MOL0     C66950   9.696   7.047   4.754  0.2208  0.1515 -0.4097
  486MOL0     C66951   9.620   7.079   4.629 -0.3059 -0.1212  0.3759
  486MOL0     C66952   9.579   7.227   4.632  0.9037  0.1716  1.0124
  486MOL0     C66953   9.503   7.264   4.496 -0.8630 -0.1118  0.4649
  486MOL0     O66954   9.492   7.412   4.489  0.1791 -0.4749  0.4865
  486MOL0     C66955   9.394   7.467   4.406  0.3607  0.1851  0.3860
  486MOL0     C66956   9.328   7.385   4.318  0.6781 -0.0811  0.1462
  486MOL0     C66957   9.223   7.440   4.243  0.6187 -0.0287 -1.3002
  486MOL0     C66958   9.129   7.338   4.183  0.7088  0.7453 -0.4766
  486MOL0     C66959   9.194   7.582   4.244 -0.2503  0.4442  0.0187
  486MOL0     C66960   9.084   7.640   4.171  0.3237 -0.4862 -0.5396
  486MOL0     O66961   8.975   7.561   4.147  0.4196  0.9988  0.0698
  486MOL0     C66962   8.871   7.617   4.084 -0.1597  0.2662  1.2383
  486MOL0     C66963   8.748   7.640   4.144 -0.1334 -0.8440  0.7553
  486MOL0     C66964   8.643   7.687   4.062  0.2341  0.2161 -0.1905
  486MOL0     C66965   8.646   7.685   3.920  0.9565 -1.1084 -0.1953
  486MOL0     O66966   8.530   7.712   3.846  0.2764 -0.1506  0.1971
  486MOL0     C66967   8.528   7.742   3.710  0.5102 -0.2036  0.2055
  486MOL0     C66968   8.396   7.797   3.657 -0.4983  0.1429  0.4760
  486MOL0     C66969   8.285   7.695   3.700  0.3222  0.1420  0.7570
  486MOL0     C66970   8.167   7.722   3.608 -0.0242  0.2515  0.1493
  486MOL0     C66971   8.043   7.628   3.629  0.4954 -1.3883  0.7334
  486MOL0     C66972   7.966   7.596   3.501 -0.6112 -0.4494  0.0130
  486MOL0     C66973   7.853   7.497   3.528  0.0688  0.1939 -0.6287
  486MOL0     C66974   7.773   7.478   3.404  0.3958 -0.2371 -0.1580
  486MOL0    Cl66975   7.733   7.305   3.413 -0.3422 -0.2685  0.0406
  486MOL0     C66976   8.773   7.664   3.866  0.3600  0.2503  0.4617
  486MOL0     C66977   8.885   7.628   3.949 -0.4475  0.0128 -0.1452
  486MOL0     O66978   9.100   7.747   4.119  0.1651 -0.3870 -0.3087
  486MOL0     C66979   9.281   7.663   4.318  0.6842 -0.7218  0.0695
  486MOL0     C66980   9.372   7.609   4.409 -0.1962 -0.4565  0.7969
  486MOL0     N66981   9.685   6.795   4.693 -0.0783 -0.4220  0.4818
  486MOL0     N66982   9.754   6.686   4.720 -0.2233  0.7699  0.2821
  486MOL0     C66983  10.635   6.316   5.471  0.8124  0.1876 -0.4626
  486MOL0     C66984  10.746   6.342   5.549  0.1781  0.0182 -0.8471
  486MOL0     C66985  11.058   6.443   5.829  0.1898  0.7089  0.5320
  486MOL0     C66986  11.152   6.545   5.814  0.1649  0.1531 -0.1987
  486MOL0     C66987  11.273   6.522   5.874  0.4476 -0.0811  0.0507
  486MOL0     C66988  11.317   6.402   5.923  0.3764 -0.2970  0.0823
  486MOL0     O66989  11.432   6.385   5.993  0.4109 -0.6440 -0.6723
  486MOL0     C66990  11.518   6.290   5.953 -0.4226  0.3338 -0.6119
  486MOL0     C66991  11.618   6.271   6.065 -1.0775  0.1378 -0.5180
  486MOL0     C66992  11.571   6.190   6.185 -0.1717 -0.4188  0.5088
  486MOL0     C66993  11.655   6.192   6.313  0.3083  0.3476  1.4182
  486MOL0     C66994  11.781   6.128   6.289 -0.3847 -0.8829 -0.2492
  486MOL0     C66995  11.880   6.069   6.250 -0.3421 -0.7657 -0.1788
  486MOL0     C66996  11.223   6.301   5.936  0.2741 -0.4323  0.4348
  486MOL0     C66997  11.093   6.324   5.903 -0.1300 -0.1845  0.2532
  486MOL0     C66998  11.009   6.200   5.913  0.4324 -0.5402 -0.3115
  486MOL0     H66999  10.607   6.295   5.850  3.5260 -0.9298  0.1325
  486MOL0     H67000  10.398   6.263   5.701 -0.3365  3.2086  1.5354
  486MOL0     H67001  10.496   6.161   5.286  2.1071  0.7084  1.3502
  486MOL0     H67002  10.460   6.335   5.253 -1.0652  0.7878  1.8836
  486MOL0     H67003  10.315   6.182   5.123 -0.1947  1.4811  0.1533
  486MOL0     H67004  10.265   6.113   5.284  4.0619 -0.7382  1.8112
  486MOL0     H67005  10.183   6.352   5.331  0.1337  1.7579 -0.9390
  486MOL0     H67006  10.215   6.402   5.169 -0.8327  0.9335  1.5904
  486MOL0     H67007  10.066   6.202   5.088 -0.7117 -2.6934  1.5107
  486MOL0     H67008  10.011   6.208   5.252  0.9003  2.2010  2.2023
  486MOL0     H67009   9.956   6.468   5.223 -4.5838  0.1135  1.6456
  486MOL0     H67010   9.854   6.356   5.140 -0.1786  2.4123  0.6998
  486MOL0     H67011  10.090   6.494   5.027  0.6440  0.1659 -0.9904
  486MOL0     H67012  10.010   6.357   4.941  1.3146 -0.2764  0.0342
  486MOL0     H67013   9.880   6.609   5.035  0.5574  0.1498 -0.5461
  486MOL0     H67014   9.816   6.477   4.917  0.0648  0.7242  0.2805
  486MOL0     H67015  10.030   6.698   4.884  1.0917 -1.2297  0.5566
  486MOL0     H67016   9.991   6.573   4.756  0.1129 -0.0711 -0.1316
  486MOL0     H67017   9.898   6.912   4.909 -1.2198  0.5251  1.1788
  486MOL0     H67018   9.776   7.114   4.785 -0.9935  1.7135 -0.5063
  486MOL0     H67019   9.627   7.045   4.839  2.1151  0.6896  1.1848
  486MOL0     H67020   9.694   7.061   4.551  0.5473  3.9661  0.0273
  486MOL0     H67021   9.532   7.016   4.613  0.0179 -1.5320  3.3417
  486MOL0     H67022   9.500   7.244   4.705  2.3476  3.6700  1.9907
  486MOL0     H67023   9.663   7.297   4.637  1.0902  0.6745 -3.7890
  486MOL0     H67024   9.555   7.235   4.404 -0.7579  1.8775 -0.1668
  486MOL0     H67025   9.409   7.208   4.490 -2.2985  2.3130 -2.4202
  486MOL0     H67026   9.348   7.279   4.306 -0.8627 -0.4717  0.8022
  486MOL0     H67027   9.095   7.363   4.082  1.0558 -2.3145 -1.4519
  486MOL0     H67028   9.051   7.331   4.259  1.4692 -1.0565  0.1981
  486MOL0     H67029   9.173   7.238   4.180  0.3243  0.5024  1.0403
  486MOL0     H67030   8.720   7.623   4.248  2.4389 -0.6277  1.5392
  486MOL0     H67031   8.550   7.705   4.115  1.2537  0.0610  1.7653
  486MOL0     H67032   8.601   7.821   3.691 -1.6289  1.2556 -2.7234
  486MOL0     H67033   8.566   7.648   3.670 -2.6928 -2.4464  1.9417
  486MOL0     H67034   8.381   7.892   3.708 -0.0249  0.6257 -0.2532
  486MOL0     H67035   8.410   7.802   3.548  2.7229 -1.1723  0.7011
  486MOL0     H67036   8.260   7.716   3.804 -1.7134  2.2696 -0.0764
  486MOL0     H67037   8.326   7.594   3.687 -1.6546 -0.5565 -0.4559
  486MOL0     H67038   8.203   7.688   3.510 -0.9108 -0.0135 -0.0958
  486MOL0     H67039   8.138   7.827   3.599 -3.0306 -0.2118  2.6986
  486MOL0     H67040   8.093   7.532   3.645  2.1984 -0.9972 -1.6269
  486MOL0     H67041   7.979   7.664   3.710  0.3452  3.4645 -1.1836
  486MOL0     H67042   8.028   7.576   3.412  2.9219  1.2725  1.8634
  486MOL0     H67043   7.916   7.690   3.477 -1.2265 -0.7855 -0.0431
  486MOL0     H67044   7.796   7.517   3.620  0.2684  3.0748 -1.0293
  486MOL0     H67045   7.901   7.406   3.563 -0.7403  0.3696  1.0665
  486MOL0     H67046   7.829   7.516   3.318  2.0039 -0.0322  0.9317
  486MOL0     H67047   7.687   7.544   3.417  0.3649 -0.1457 -0.8060
  486MOL0     H67048   8.797   7.669   3.760 -1.0118  3.1513  0.2013
  486MOL0     H67049   8.984   7.612   3.907 -0.6640  1.6078 -1.3719
  486MOL0     H67050   9.279   7.771   4.306  0.4086 -1.0606 -4.7969
  486MOL0     H67051   9.448   7.672   4.455 -0.8005  0.9305 -0.0301
  486MOL0     H67052  10.648   6.312   5.364 -3.1989 -0.4498 -1.0820
  486MOL0     H67053  10.848   6.349   5.512  0.4400 -1.6568 -0.5372
  486MOL0     H67054  11.120   6.633   5.759 -1.9225 -0.3375  0.1450
  486MOL0     H67055  11.328   6.615   5.878 -2.1749  1.8040 -3.3430
  486MOL0     H67056  11.474   6.190   5.946 -1.4086  0.6146  1.0412
  486MOL0     H67057  11.563   6.318   5.857  0.0309 -0.8054 -0.7435
  486MOL0     H67058  11.652   6.370   6.097 -0.5835  0.1843 -1.1614
  486MOL0     H67059  11.710   6.223   6.031 -0.4149 -0.6058  2.0498
  486MOL0     H67060  11.470   6.219   6.216  0.8400 -0.4786  4.4154
  486MOL0     H67061  11.560   6.086   6.153 -0.3221  0.4275 -2.4978
  486MOL0     H67062  11.598   6.135   6.387  0.2436  0.4107  1.4176
  486MOL0     H67063  11.675   6.294   6.346  1.9167  0.2866  0.6969
  486MOL0     H67064  11.963   6.005   6.228 -2.4857 -3.3446 -1.3137
  486MOL0     H67065  11.249   6.208   5.986  1.2163 -2.3557 -3.2868
  486MOL0     H67066  11.059   6.114   5.959  1.7837  1.9596  3.3606
  486MOL0     H67067  10.928   6.229   5.980  0.3271  1.7238 -1.3262
  486MOL0     H67068  10.967   6.171   5.817  4.3590 -4.7767 -1.1454
  487MOL0     O67069   2.527   6.753   8.138  0.4421 -0.0331 -0.5779
  487MOL0     C67070   2.563   6.643   8.183  0.4129  0.4342  0.5616
  487MOL0     O67071   2.628   6.546   8.105 -0.2393  0.2911 -0.1130
  487MOL0     C67072   2.712   6.594   8.005  0.0870 -1.0527 -0.7601
  487MOL0     C67073   2.840   6.626   8.038 -0.6993 -0.0247 -0.5460
  487MOL0     C67074   2.925   6.685   7.944  0.7888 -0.3834 -0.7628
  487MOL0     C67075   2.878   6.709   7.808  0.0931  0.3546 -0.0142
  487MOL0     O67076   2.970   6.764   7.721 -0.0888 -0.1385  0.4397
  487MOL0     C67077   3.004   6.691   7.598  0.3411  0.0961  0.7011
  487MOL0     C67078   3.142   6.639   7.600 -0.3313 -0.4442 -0.5630
  487MOL0     C67079   3.135   6.509   7.691 -0.1815 -0.6963  1.1668
  487MOL0     C67080   3.270   6.447   7.721  0.4775  0.0638 -0.8079
  487MOL0     C67081   3.352   6.526   7.818  0.1845 -0.0274  0.2240
  487MOL0     C67082   3.300   6.529   7.957  0.4383  0.3733  0.2371
  487MOL0     C67083   3.359   6.645   8.033 -0.7525 -0.3522  0.2694
  487MOL0     C67084   3.302   6.654   8.176 -0.4520 -1.1309 -0.0049
  487MOL0     N67085   3.369   6.546   8.255 -0.3090  0.8043 -0.0801
  487MOL0     C67086   3.465   6.568   8.355 -0.1669  0.3838 -0.0031
  487MOL0     C67087   3.489   6.455   8.409 -0.1276  0.3361 -0.0719
  487MOL0     C67088   3.578   6.429   8.529 -0.0894 -0.1769  0.8485
  487MOL0     C67089   3.731   6.404   8.497 -0.2114 -0.4797 -0.3891
  487MOL0     C67090   3.821   6.398   8.626  0.5457 -0.5618  0.8995
  487MOL0     C67091   3.804   6.280   8.718 -0.1951  0.4278  0.0640
  487MOL0     O67092   3.934   6.218   8.745 -0.1049 -0.0452  0.4141
  487MOL0     C67093   3.928   6.080   8.769  0.1114 -0.3438 -0.5120
  487MOL0     C67094   4.056   6.022   8.791  0.0808  0.9805 -0.1529
  487MOL0     C67095   4.079   5.883   8.811  1.0652 -0.1396 -1.2147
  487MOL0     C67096   4.224   5.840   8.800  0.1938 -0.2432 -0.6486
  487MOL0     C67097   3.965   5.795   8.805  1.4504  0.0265 -0.2161
  487MOL0     C67098   3.978   5.646   8.817 -0.8725 -0.4058  0.3778
  487MOL0     O67099   3.857   5.580   8.831 -0.8881 -0.0471  0.0347
  487MOL0     C67100   3.862   5.443   8.837  0.5134  0.3213  0.4582
  487MOL0     C67101   3.917   5.372   8.946  0.4815  0.4797  0.1569
  487MOL0     C67102   3.902   5.235   8.953 -0.6820 -0.4196  0.2969
  487MOL0     C67103   3.827   5.166   8.863 -0.2073  0.4791  0.0010
  487MOL0     O67104   3.809   5.035   8.889  0.2777 -0.4675 -0.2326
  487MOL0     C67105   3.819   4.952   8.772 -0.3260 -0.2179 -0.2152
  487MOL0     C67106   3.823   4.809   8.829  0.7541 -0.6848  0.6671
  487MOL0     C67107   3.677   4.779   8.885  0.5726 -0.4692  0.8412
  487MOL0     C67108   3.601   4.703   8.770 -0.1680 -0.0191  0.3885
  487MOL0     C67109   3.476   4.633   8.814  0.2568  0.0867 -0.1424
  487MOL0     C67110   3.405   4.566   8.696  0.0348 -0.5853 -0.6165
  487MOL0     C67111   3.294   4.461   8.742 -0.0983  0.2587 -0.8765
  487MOL0     C67112   3.318   4.323   8.681 -0.0578 -0.9039 -0.4639
  487MOL0    Cl67113   3.478   4.241   8.707  0.0060  0.1809  0.3826
  487MOL0     C67114   3.776   5.233   8.750 -0.8499 -0.7734 -0.4842
  487MOL0     C67115   3.798   5.372   8.739  0.3971  1.1849 -0.1057
  487MOL0     O67116   4.086   5.595   8.786  1.6076  0.1527 -0.4689
  487MOL0     C67117   3.838   5.855   8.791  0.1788  1.0770  0.5838
  487MOL0     C67118   3.819   5.996   8.775 -0.0922  0.0091  0.3689
  487MOL0     N67119   3.411   6.356   8.350  0.7805 -0.3972  0.3361
  487MOL0     N67120   3.335   6.414   8.261  0.0764  0.8159 -0.5619
  487MOL0     C67121   2.748   6.677   7.772  0.3340 -0.2742  0.6289
  487MOL0     C67122   2.666   6.610   7.870 -0.9393 -0.8399  0.6739
  487MOL0     C67123   2.511   6.587   8.313  0.7452 -1.2727  0.2189
  487MOL0     C67124   2.461   6.683   8.402 -1.5138 -0.7922  0.1031
  487MOL0     C67125   2.407   6.638   8.518  0.6238 -0.1278  0.7537
  487MOL0     C67126   2.404   6.505   8.553 -0.6057  0.1771 -0.3599
  487MOL0     O67127   2.367   6.464   8.684  0.3092 -0.3393  0.6662
  487MOL0     C67128   2.435   6.539   8.795 -0.4734 -0.4739  0.9247
  487MOL0     C67129   2.454   6.454   8.926  0.2704  0.0419 -0.7814
  487MOL0     C67130   2.589   6.374   8.941 -0.5363  0.2968  0.3238
  487MOL0     C67131   2.561   6.234   8.995 -0.4024  0.8514 -0.1086
  487MOL0     C67132   2.514   6.146   8.887  0.1576  0.0410  0.3795
  487MOL0     C67133   2.487   6.072   8.798 -0.0000  0.9898  0.7509
  487MOL0     C67134   2.452   6.411   8.464 -0.1882  0.3472 -0.1488
  487MOL0     C67135   2.506   6.447   8.342  0.2349 -0.1861 -0.9892
  487MOL0     C67136   2.549   6.326   8.258 -0.1940  0.4133 -0.3713
  487MOL0     H67137   2.872   6.601   8.138  3.6241 -0.4847 -1.8591
  487MOL0     H67138   3.029   6.709   7.961  0.5044 -0.9022  2.3411
  487MOL0     H67139   3.024   6.760   7.516  1.0377 -2.0944 -1.0784
  487MOL0     H67140   2.926   6.623   7.562  1.4958 -1.4302  0.9918
  487MOL0     H67141   3.174   6.621   7.497 -0.3177 -0.3115 -0.5818
  487MOL0     H67142   3.207   6.709   7.654 -1.5995 -0.2330  0.7406
  487MOL0     H67143   3.086   6.533   7.785 -0.1405  0.5854  0.8732
  487MOL0     H67144   3.080   6.425   7.647  0.8826 -0.2876 -1.1007
  487MOL0     H67145   3.249   6.350   7.768  1.8639  0.2656  0.2868
  487MOL0     H67146   3.317   6.437   7.623 -2.7681  4.5600 -3.1677
  487MOL0     H67147   3.364   6.631   7.789 -1.4711  0.3781  0.8887
  487MOL0     H67148   3.450   6.477   7.819  0.0919 -0.2223  1.1144
  487MOL0     H67149   3.191   6.540   7.959  0.3319 -0.5836  0.4049
  487MOL0     H67150   3.320   6.436   8.010 -2.4293 -1.3176 -1.3470
  487MOL0     H67151   3.333   6.735   7.976  0.4186 -0.6633 -0.7980
  487MOL0     H67152   3.467   6.647   8.050 -0.6443  2.3796 -0.1882
  487MOL0     H67153   3.332   6.744   8.231  1.3547 -3.8374  3.9291
  487MOL0     H67154   3.193   6.650   8.170 -0.3483 -3.8083 -1.6824
  487MOL0     H67155   3.507   6.664   8.381  3.5164 -0.8390 -0.8350
  487MOL0     H67156   3.536   6.345   8.585  0.5638  0.3277  2.1175
  487MOL0     H67157   3.571   6.503   8.609 -1.3083 -1.5620  2.0742
  487MOL0     H67158   3.740   6.308   8.445  0.7472 -0.4595 -0.2778
  487MOL0     H67159   3.771   6.482   8.432 -1.8931 -1.1461 -2.3427
  487MOL0     H67160   3.922   6.398   8.583  0.7405 -0.5686  1.3523
  487MOL0     H67161   3.805   6.487   8.687 -0.2885 -0.8763  1.1554
  487MOL0     H67162   3.752   6.301   8.811  0.2509  0.4746  0.3044
  487MOL0     H67163   3.745   6.203   8.668 -0.7565  0.1888  1.0820
  487MOL0     H67164   4.138   6.093   8.791 -1.7408  3.2821  2.1327
  487MOL0     H67165   4.281   5.933   8.810  1.6429 -1.0745 -0.9471
  487MOL0     H67166   4.244   5.786   8.707  4.8948 -3.1275  1.6905
  487MOL0     H67167   4.256   5.774   8.881  0.9824  0.3452 -0.4753
  487MOL0     H67168   3.970   5.415   9.031  0.2393 -1.8081  1.5307
  487MOL0     H67169   3.957   5.185   9.032 -0.5301  1.8599  1.7373
  487MOL0     H67170   3.729   4.964   8.712  0.5473  0.0496 -1.5085
  487MOL0     H67171   3.900   4.982   8.705  0.5222  0.1688  0.9660
  487MOL0     H67172   3.858   4.748   8.745  2.2344  3.4881 -2.0349
  487MOL0     H67173   3.893   4.806   8.912 -0.2762 -1.5656  1.5307
  487MOL0     H67174   3.617   4.866   8.912 -0.6846 -1.4185  1.1916
  487MOL0     H67175   3.698   4.728   8.980 -0.8754  1.3415  2.2059
  487MOL0     H67176   3.657   4.622   8.721  0.3579  2.6258 -3.8829
  487MOL0     H67177   3.563   4.765   8.689 -2.4814  0.4249  1.7318
  487MOL0     H67178   3.498   4.560   8.893  2.1489  3.8835  3.2070
  487MOL0     H67179   3.411   4.696   8.875 -0.9136 -1.4083  0.1999
  487MOL0     H67180   3.482   4.515   8.637  0.9235 -3.3105  2.5500
  487MOL0     H67181   3.359   4.646   8.638 -0.7108 -0.2860  0.3625
  487MOL0     H67182   3.198   4.497   8.704  0.2409 -0.3592 -2.3711
  487MOL0     H67183   3.297   4.469   8.851  1.3379  1.4049 -0.9772
  487MOL0     H67184   3.303   4.323   8.572  0.3833 -1.2879 -0.5258
  487MOL0     H67185   3.238   4.260   8.720 -1.6119  0.2598 -1.6167
  487MOL0     H67186   3.706   5.182   8.685 -2.1726  0.1640  0.1626
  487MOL0     H67187   3.758   5.438   8.662  3.1148  2.6340 -0.4035
  487MOL0     H67188   3.753   5.789   8.779  2.3060 -2.0795  1.5003
  487MOL0     H67189   3.716   6.028   8.770 -0.4150 -1.1322 -0.9005
  487MOL0     H67190   2.714   6.711   7.675  0.9742  0.3280  0.6071
  487MOL0     H67191   2.562   6.589   7.847 -1.6222 -0.8771  3.4253
  487MOL0     H67192   2.470   6.788   8.375 -1.1269 -1.1178 -1.0961
  487MOL0     H67193   2.373   6.707   8.595  1.7185  0.1855  0.9781
  487MOL0     H67194   2.523   6.596   8.764  0.1580 -0.1210  3.2032
  487MOL0     H67195   2.361   6.618   8.813 -1.4695 -0.6643 -1.8521
  487MOL0     H67196   2.368   6.388   8.940  0.5221 -0.0493  0.4402
  487MOL0     H67197   2.447   6.528   9.007 -2.3470  0.3443 -1.1962
  487MOL0     H67198   2.645   6.378   8.847 -0.0607  0.4379  0.6137
  487MOL0     H67199   2.654   6.410   9.021 -3.2219  0.4500  2.5781
  487MOL0     H67200   2.493   6.234   9.080  0.3527 -2.6693  0.6537
  487MOL0     H67201   2.661   6.203   9.029 -0.0638 -0.0681 -1.8166
  487MOL0     H67202   2.449   6.022   8.711 -5.4163  2.9748  1.5801
  487MOL0     H67203   2.464   6.312   8.508  0.1211  1.0827  1.4655
  487MOL0     H67204   2.658   6.324   8.249  0.0460  0.5591  1.7895
  487MOL0     H67205   2.519   6.229   8.300  2.4429 -0.3534 -0.0737
  487MOL0     H67206   2.498   6.329   8.161  0.5282  2.7110 -0.7383
  488MOL0     O67207   7.396   3.799   5.165 -0.6234  0.3077 -0.1415
  488MOL0     C67208   7.501   3.770   5.105  0.1221 -0.0025  0.7588
  488MOL0     O67209   7.557   3.652   5.120  0.4178  0.1151  0.3699
  488MOL0     C67210   7.557   3.570   5.232 -0.5851 -0.3582 -0.4969
  488MOL0     C67211   7.556   3.434   5.214  0.3731  1.8745 -0.7366
  488MOL0     C67212   7.538   3.352   5.321  0.4344 -0.3108  0.0216
  488MOL0     C67213   7.526   3.404   5.451 -0.1496  0.6181 -0.3105
  488MOL0     O67214   7.528   3.326   5.572 -0.0948 -0.0813 -0.1119
  488MOL0     C67215   7.534   3.181   5.572  0.3230 -0.5477  0.3469
  488MOL0     C67216   7.670   3.120   5.606  0.1353  0.1402 -0.6015
  488MOL0     C67217   7.768   3.162   5.497  1.2903  0.0365 -0.7242
  488MOL0     C67218   7.906   3.092   5.486 -0.0516  0.3594 -0.1713
  488MOL0     C67219   7.964   3.111   5.358  0.6849 -0.6988  0.2402
  488MOL0     C67220   8.078   3.018   5.322  0.3653 -0.8514 -0.6537
  488MOL0     C67221   8.185   2.999   5.438 -0.1021  1.0027  0.5629
  488MOL0     C67222   8.329   2.953   5.387 -0.0067 -0.9197  0.4510
  488MOL0     N67223   8.355   2.826   5.321  0.0880 -0.3108  0.3023
  488MOL0     C67224   8.270   2.755   5.237 -0.7733 -0.1108 -0.2529
  488MOL0     C67225   8.340   2.667   5.170  0.7559 -0.0605 -0.2683
  488MOL0     C67226   8.295   2.558   5.077 -0.5153 -0.0239  0.6994
  488MOL0     C67227   8.410   2.453   5.057  0.7298  1.1031  0.2445
  488MOL0     C67228   8.368   2.355   4.943 -0.7774  0.4486  0.4212
  488MOL0     C67229   8.286   2.243   4.999  0.3894  0.0233 -0.5887
  488MOL0     O67230   8.345   2.168   5.109 -0.1331 -0.9342  0.0513
  488MOL0     C67231   8.454   2.090   5.089 -0.2476  0.3681  0.1750
  488MOL0     C67232   8.529   2.071   5.202 -0.7761 -0.0768 -0.2389
  488MOL0     C67233   8.653   2.002   5.188 -0.5865  0.3744 -0.1923
  488MOL0     C67234   8.758   2.028   5.300  1.2859 -0.4995  0.3786
  488MOL0     C67235   8.689   1.935   5.066 -0.4304 -0.0350  0.0401
  488MOL0     C67236   8.819   1.857   5.031 -0.3341 -0.1173 -0.8016
  488MOL0     O67237   8.906   1.836   5.135  0.6441  0.1504 -0.3745
  488MOL0     C67238   9.018   1.766   5.102  0.4291 -0.0805 -0.7056
  488MOL0     C67239   9.042   1.652   5.180 -0.4620  0.8886 -1.1122
  488MOL0     C67240   9.153   1.566   5.155  0.9643  0.1723  1.3168
  488MOL0     C67241   9.253   1.623   5.070 -0.2613 -0.9233  0.6577
  488MOL0     O67242   9.370   1.560   5.037 -1.1443  0.3264 -0.2697
  488MOL0     C67243   9.385   1.428   5.090 -0.3762  0.1341 -0.0754
  488MOL0     C67244   9.503   1.363   5.014  0.1923  1.1167 -0.0950
  488MOL0     C67245   9.552   1.237   5.081  0.2809 -0.2543 -0.1412
  488MOL0     C67246   9.435   1.159   5.150 -0.2756  0.3525  0.5136
  488MOL0     C67247   9.481   1.021   5.197 -0.9157 -0.7168 -0.0246
  488MOL0     C67248   9.576   1.035   5.320  0.4069  0.7356  0.0661
  488MOL0     C67249   9.600   0.900   5.381  1.2981  0.4201 -0.7278
  488MOL0     C67250   9.696   0.891   5.493  0.3859  0.0060 -0.0125
  488MOL0    Cl67251   9.823   1.012   5.506 -0.2401 -0.2149  0.4003
  488MOL0     C67252   9.233   1.740   4.995  0.1876 -1.7497  0.5451
  488MOL0     C67253   9.112   1.810   5.009  0.5223  0.0394  0.1273
  488MOL0     O67254   8.841   1.827   4.912 -0.1889 -0.2452 -0.0630
  488MOL0     C67255   8.599   1.939   4.961 -0.3933 -0.0622  0.5011
  488MOL0     C67256   8.486   2.022   4.975 -0.2215  0.1223  0.0382
  488MOL0     N67257   8.468   2.690   5.208 -0.3826  0.3333 -0.1802
  488MOL0     N67258   8.477   2.787   5.295 -1.0187 -0.7503 -0.1832
  488MOL0     C67259   7.526   3.541   5.473  0.2728 -1.0007  0.1802
  488MOL0     C67260   7.544   3.626   5.360 -0.3630  0.8723 -0.4294
  488MOL0     C67261   7.575   3.865   5.035  0.7823 -0.0945 -0.3851
  488MOL0     C67262   7.574   4.002   5.076 -0.3323  0.0802  0.0701
  488MOL0     C67263   7.650   4.095   5.007 -0.3294  1.3343  0.2569
  488MOL0     C67264   7.731   4.061   4.895 -0.3966 -0.1392  0.4227
  488MOL0     O67265   7.819   4.144   4.830  0.9266 -0.4254  0.5082
  488MOL0     C67266   7.859   4.257   4.900 -0.7699 -0.5084 -0.8601
  488MOL0     C67267   7.943   4.354   4.807  0.7365  0.8183  0.0674
  488MOL0     C67268   8.086   4.311   4.776  0.6189  0.8013 -0.0029
  488MOL0     C67269   8.170   4.430   4.717 -0.4820 -0.3103 -0.6797
  488MOL0     C67270   8.099   4.530   4.637  0.2148 -0.1236 -1.1679
  488MOL0     C67271   8.045   4.621   4.582  0.4533  0.4465 -0.4703
  488MOL0     C67272   7.719   3.930   4.846  0.0984  0.0380 -0.3161
  488MOL0     C67273   7.643   3.829   4.915 -0.3206 -0.3259  0.8638
  488MOL0     C67274   7.619   3.692   4.849 -0.2646  0.2737 -0.3148
  488MOL0     H67275   7.560   3.382   5.119 -2.3192 -0.7003  0.4100
  488MOL0     H67276   7.530   3.245   5.311  1.3570 -0.5436  1.4740
  488MOL0     H67277   7.497   3.147   5.475 -1.7114  0.2327  0.7981
  488MOL0     H67278   7.461   3.139   5.642 -0.5725  1.8507  0.9670
  488MOL0     H67279   7.717   3.159   5.696  0.0756 -1.8838  0.3658
  488MOL0     H67280   7.662   3.011   5.618 -3.6745  0.6101  4.3681
  488MOL0     H67281   7.704   3.145   5.410  0.1357  0.3146  0.0408
  488MOL0     H67282   7.785   3.270   5.496 -2.3860  0.7950  1.4389
  488MOL0     H67283   7.965   3.134   5.567 -0.3973  1.0223 -0.2509
  488MOL0     H67284   7.899   2.985   5.505 -0.5809  0.5102  0.5414
  488MOL0     H67285   8.004   3.213   5.356  0.2923 -0.5429  0.2959
  488MOL0     H67286   7.884   3.104   5.283  0.7542 -0.5158  0.1474
  488MOL0     H67287   8.033   2.924   5.288 -2.0952 -0.0459  0.2112
  488MOL0     H67288   8.135   3.063   5.240  1.8240  0.9008  1.2149
  488MOL0     H67289   8.159   2.923   5.513 -3.4072  2.0248  0.6187
  488MOL0     H67290   8.193   3.096   5.488  1.9800  1.3257 -0.3101
  488MOL0     H67291   8.350   3.031   5.313  0.3696 -1.2340  0.2215
  488MOL0     H67292   8.408   2.968   5.461  1.4361  0.0096 -1.2016
  488MOL0     H67293   8.165   2.769   5.214 -0.6066  2.1914  0.2052
  488MOL0     H67294   8.275   2.609   4.982 -1.7500  0.3958  1.1635
  488MOL0     H67295   8.210   2.499   5.113 -0.1375  0.3609  2.3133
  488MOL0     H67296   8.498   2.508   5.022  1.4569  0.9492  1.7548
  488MOL0     H67297   8.426   2.391   5.145  1.0313  0.6274 -0.1428
  488MOL0     H67298   8.306   2.409   4.871 -1.6039  0.7089  1.3090
  488MOL0     H67299   8.466   2.317   4.913 -1.0084 -1.4157  1.8544
  488MOL0     H67300   8.197   2.285   5.048  0.3311 -1.6485  0.8527
  488MOL0     H67301   8.245   2.176   4.924 -2.7846  1.2225 -0.0960
  488MOL0     H67302   8.502   2.113   5.298  1.3816  3.3598 -0.9769
  488MOL0     H67303   8.851   2.050   5.248  2.3809  0.9265  2.8028
  488MOL0     H67304   8.787   1.942   5.361 -0.3773 -0.7888  0.8094
  488MOL0     H67305   8.739   2.122   5.352  0.4495 -0.3350 -0.1955
  488MOL0     H67306   8.971   1.606   5.248 -0.1263  0.7807 -0.8323
  488MOL0     H67307   9.151   1.470   5.204 -0.4416  0.9573  2.8987
  488MOL0     H67308   9.387   1.444   5.198 -1.4083  2.0382 -0.2919
  488MOL0     H67309   9.298   1.367   5.065  1.1500 -1.9094 -0.6125
  488MOL0     H67310   9.461   1.327   4.920 -2.5297 -0.2421  1.5028
  488MOL0     H67311   9.588   1.431   5.003  0.7946  0.6976  1.5911
  488MOL0     H67312   9.634   1.263   5.148  1.1267  2.6974 -2.0967
  488MOL0     H67313   9.598   1.171   5.006 -1.0333 -2.3988  0.8380
  488MOL0     H67314   9.368   1.139   5.065  1.8024 -0.1198 -1.1162
  488MOL0     H67315   9.396   1.215   5.234 -0.2314  0.8906  0.1794
  488MOL0     H67316   9.387   0.974   5.227 -1.6439 -0.9194 -2.4219
  488MOL0     H67317   9.534   0.962   5.121  1.0898 -0.2249  0.9267
  488MOL0     H67318   9.532   1.099   5.397 -0.5156  0.7738 -0.4672
  488MOL0     H67319   9.672   1.073   5.285 -0.4232  0.8214 -2.3473
  488MOL0     H67320   9.620   0.823   5.305  0.7754 -0.7197  0.2651
  488MOL0     H67321   9.500   0.867   5.407  0.2485  1.7966 -2.7245
  488MOL0     H67322   9.739   0.791   5.493  1.3498  0.3719 -1.9432
  488MOL0     H67323   9.645   0.904   5.589 -0.9095 -1.2477 -0.4967
  488MOL0     H67324   9.319   1.780   4.942  0.7339 -0.1004  2.5888
  488MOL0     H67325   9.098   1.907   4.962 -2.4242 -2.1841 -4.3468
  488MOL0     H67326   8.599   1.891   4.864 -1.8224  1.5232 -0.3322
  488MOL0     H67327   8.420   2.034   4.890  0.8248 -0.5838 -0.9082
  488MOL0     H67328   7.509   3.585   5.571 -0.1938 -1.7774  0.4586
  488MOL0     H67329   7.544   3.734   5.362 -2.8424  0.9230  0.4084
  488MOL0     H67330   7.507   4.032   5.155 -1.8048 -1.2481 -0.5981
  488MOL0     H67331   7.640   4.196   5.046  0.3238  1.0009  1.3193
  488MOL0     H67332   7.768   4.308   4.932  0.1110  2.3513 -2.5051
  488MOL0     H67333   7.921   4.230   4.987  1.6789  1.6823 -1.7652
  488MOL0     H67334   7.940   4.447   4.864  1.9744  0.1612  1.2704
  488MOL0     H67335   7.889   4.352   4.712  1.0114  1.2024 -0.0998
  488MOL0     H67336   8.117   4.292   4.879 -1.1278 -0.0303  0.4009
  488MOL0     H67337   8.093   4.225   4.709 -2.8075  2.4432 -2.7842
  488MOL0     H67338   8.239   4.379   4.649  1.9470  1.2436  0.4833
  488MOL0     H67339   8.232   4.481   4.790 -1.0915  0.8600 -0.9582
  488MOL0     H67340   7.995   4.708   4.546  1.2609  0.8616 -0.6055
  488MOL0     H67341   7.765   3.900   4.752  0.2611 -0.4785 -0.0769
  488MOL0     H67342   7.514   3.662   4.863  0.8600 -3.7529  0.6717
  488MOL0     H67343   7.648   3.702   4.744  1.2147 -0.8827 -0.0551
  488MOL0     H67344   7.693   3.624   4.892  0.5726  1.4191  0.0872
  489MOL0     O67345   7.932   0.159   2.483  0.0991  0.4649  0.9276
  489MOL0     C67346   7.925   0.042   2.514 -0.7922 -0.2446  0.6005
  489MOL0     O67347   7.960  -0.004   2.637  0.5083 -0.1653 -0.1117
  489MOL0     C67348   7.971   0.083   2.742 -0.6628  0.0369 -0.5788
  489MOL0     C67349   7.869   0.172   2.787  1.1043  0.0673 -0.0061
  489MOL0     C67350   7.887   0.257   2.893 -0.0534 -0.2947  0.0491
  489MOL0     C67351   8.011   0.269   2.963  1.0294  1.1734 -0.0616
  489MOL0     O67352   8.025   0.348   3.076  0.7958 -0.0743 -0.0305
  489MOL0     C67353   8.154   0.340   3.145 -0.3928 -0.4424 -0.1855
  489MOL0     C67354   8.150   0.466   3.234  0.1517  0.3891  0.4974
  489MOL0     C67355   8.171   0.610   3.162  0.7244  0.4231 -0.0906
  489MOL0     C67356   8.163   0.726   3.266  0.0529 -0.0018 -0.4430
  489MOL0     C67357   8.229   0.848   3.210 -0.3796  0.3179  0.9798
  489MOL0     C67358   8.201   0.955   3.315 -0.4101  0.1487  0.0529
  489MOL0     C67359   8.273   1.087   3.274  0.4685  0.3351  0.7269
  489MOL0     C67360   8.278   1.179   3.404 -0.4753  0.0301 -0.1680
  489MOL0     N67361   8.369   1.295   3.389 -0.4303 -0.5607  0.4986
  489MOL0     C67362   8.358   1.382   3.291  0.4019 -1.0437  1.3591
  489MOL0     C67363   8.442   1.484   3.307 -0.7325 -0.8913  0.1950
  489MOL0     C67364   8.437   1.624   3.234  0.0506 -0.0824 -0.0882
  489MOL0     C67365   8.514   1.625   3.094  0.2444 -1.1628 -0.1447
  489MOL0     C67366   8.498   1.759   3.018  1.2545  0.5704 -0.2474
  489MOL0     C67367   8.621   1.843   2.990 -0.1063  0.7293  0.9702
  489MOL0     O67368   8.703   1.761   2.911 -0.3797 -0.0711 -0.1724
  489MOL0     C67369   8.830   1.817   2.883  0.7874  0.3550  0.0433
  489MOL0     C67370   8.876   1.941   2.935  0.6837 -0.4165  1.3257
  489MOL0     C67371   9.000   1.990   2.901 -0.5856  0.9806  1.3061
  489MOL0     C67372   9.054   2.120   2.963  0.5606  0.8073 -1.1359
  489MOL0     C67373   9.081   1.915   2.801  0.2109  0.2291 -0.6942
  489MOL0     C67374   9.214   1.957   2.769 -0.0289  1.0420 -0.3402
  489MOL0     O67375   9.235   2.002   2.647 -0.7349 -0.6937 -0.5145
  489MOL0     C67376   9.348   2.077   2.610  0.0254  0.2048  0.1628
  489MOL0     C67377   9.324   2.209   2.588 -0.4770 -0.7650 -0.0107
  489MOL0     C67378   9.439   2.289   2.559  0.3794  0.3035  0.8755
  489MOL0     C67379   9.569   2.243   2.548  0.2838 -0.4777 -0.1724
  489MOL0     O67380   9.672   2.330   2.508  0.0993 -0.4083  1.0300
  489MOL0     C67381   9.803   2.289   2.531  0.4296  0.0504 -0.4709
  489MOL0     C67382   9.901   2.392   2.496 -0.0947 -0.0605 -0.1408
  489MOL0     C67383  10.044   2.336   2.454  0.0242  0.2999  0.1521
  489MOL0     C67384  10.101   2.221   2.548 -0.6049 -0.7247 -0.3428
  489MOL0     C67385  10.184   2.282   2.660 -0.0260 -0.4601 -0.3955
  489MOL0     C67386  10.277   2.164   2.698 -1.0485  0.7157  0.1112
  489MOL0     C67387  10.357   2.208   2.820 -0.3384  0.1043  0.7883
  489MOL0     C67388  10.481   2.121   2.829 -0.1696  0.5233  0.1838
  489MOL0    Cl67389  10.598   2.169   2.705 -0.1899  0.2015 -0.1001
  489MOL0     C67390   9.586   2.110   2.591 -0.3835  0.2528 -0.1896
  489MOL0     C67391   9.479   2.032   2.614  0.0799  0.2802 -0.1042
  489MOL0     O67392   9.295   1.952   2.864  0.2822 -0.1053  0.4410
  489MOL0     C67393   9.032   1.789   2.759  0.3962  0.3296 -0.1755
  489MOL0     C67394   8.910   1.745   2.794  0.0685 -0.0611 -0.0960
  489MOL0     N67395   8.516   1.456   3.428  0.6186 -0.7833  0.3987
  489MOL0     N67396   8.471   1.340   3.475  0.0487 -0.7071  0.0210
  489MOL0     C67397   8.102   0.170   2.930 -0.5593 -0.1228 -0.1682
  489MOL0     C67398   8.086   0.080   2.824 -0.5309  0.2381 -0.3262
  489MOL0     C67399   7.910  -0.056   2.403 -0.7788 -0.0586 -1.1571
  489MOL0     C67400   7.966  -0.184   2.414 -0.5131  0.5630 -0.7724
  489MOL0     C67401   7.949  -0.279   2.316  0.0926 -0.0307 -0.5487
  489MOL0     C67402   7.885  -0.243   2.196 -0.4799 -0.0583 -0.8257
  489MOL0     O67403   7.877  -0.340   2.098  0.3118 -0.2608 -0.0641
  489MOL0     C67404   7.799  -0.323   1.977  0.1850  0.5709 -0.6661
  489MOL0     C67405   7.653  -0.337   2.003  1.1728 -1.2573 -0.0523
  489MOL0     C67406   7.594  -0.463   2.072 -0.7397 -1.2379  0.6554
  489MOL0     C67407   7.620  -0.591   1.988  0.0294  1.6825  0.5223
  489MOL0     C67408   7.547  -0.711   2.036 -0.4892 -0.8623  0.6319
  489MOL0     C67409   7.496  -0.811   2.080  0.1182 -0.7795 -0.4357
  489MOL0     C67410   7.830  -0.121   2.183 -0.2766 -0.2103  0.5226
  489MOL0     C67411   7.840  -0.023   2.282 -0.2532  0.2444  0.9730
  489MOL0     C67412   7.787   0.118   2.240  0.1838 -0.1643 -1.4367
  489MOL0     H67413   7.767   0.169   2.750  1.0634  0.6191  0.0548
  489MOL0     H67414   7.805   0.321   2.923  0.2109  1.0369 -1.9357
  489MOL0     H67415   8.238   0.342   3.076  0.0022  0.9911  0.2977
  489MOL0     H67416   8.157   0.252   3.211  0.7898  1.2704  2.2194
  489MOL0     H67417   8.047   0.466   3.272 -0.3980 -1.3660 -0.8629
  489MOL0     H67418   8.214   0.451   3.321  0.6421  0.6969  0.1939
  489MOL0     H67419   8.272   0.614   3.121  1.6482 -0.3929  1.9842
  489MOL0     H67420   8.100   0.628   3.080 -4.3513 -0.5083  3.5753
  489MOL0     H67421   8.058   0.744   3.292 -0.1109 -0.0133 -1.0923
  489MOL0     H67422   8.217   0.697   3.357  2.7745 -1.1012 -2.2843
  489MOL0     H67423   8.169   0.871   3.121  2.9139 -0.4017 -1.6391
  489MOL0     H67424   8.332   0.832   3.179 -0.7999 -3.4454  1.0202
  489MOL0     H67425   8.092   0.967   3.310 -0.7693 -2.4450  0.2450
  489MOL0     H67426   8.237   0.929   3.414  0.1094  3.8155  0.9845
  489MOL0     H67427   8.221   1.126   3.186  2.3228 -0.1288 -0.6390
  489MOL0     H67428   8.374   1.084   3.233 -0.1942  3.4247 -1.4869
  489MOL0     H67429   8.181   1.224   3.428 -0.0672  2.6829 -2.9144
  489MOL0     H67430   8.311   1.124   3.493  1.4003  1.8933  0.3678
  489MOL0     H67431   8.287   1.374   3.209 -0.1434 -2.4882  1.9327
  489MOL0     H67432   8.485   1.689   3.307  1.9600 -2.0594  0.5116
  489MOL0     H67433   8.336   1.662   3.217 -0.0841  0.6792  2.1404
  489MOL0     H67434   8.622   1.609   3.100  0.5842  0.4891 -1.2142
  489MOL0     H67435   8.470   1.546   3.032 -0.2863 -1.5376  0.6812
  489MOL0     H67436   8.464   1.733   2.917 -0.0901  3.2762 -0.5831
  489MOL0     H67437   8.416   1.826   3.045  1.7917  0.6610  1.2389
  489MOL0     H67438   8.594   1.932   2.932 -1.1172  1.3863  2.3873
  489MOL0     H67439   8.664   1.873   3.086  0.6237 -0.9274  1.1935
  489MOL0     H67440   8.812   2.009   2.991  0.8782  1.2908 -0.3900
  489MOL0     H67441   9.109   2.172   2.884 -0.0134  0.2324 -1.9302
  489MOL0     H67442   9.108   2.090   3.053 -0.5552 -3.0829 -1.5735
  489MOL0     H67443   8.973   2.188   2.992 -0.8707 -1.8760  1.7322
  489MOL0     H67444   9.239   2.277   2.594  0.6988  0.7702  0.0836
  489MOL0     H67445   9.422   2.393   2.534  0.2765 -0.1692 -1.1535
  489MOL0     H67446   9.815   2.276   2.639  1.6855  1.9992 -0.3187
  489MOL0     H67447   9.831   2.197   2.479  0.1422 -1.4592  1.8683
  489MOL0     H67448   9.864   2.450   2.411  0.8841 -0.5390 -0.9213
  489MOL0     H67449   9.907   2.453   2.587 -1.5162 -0.2925  0.1247
  489MOL0     H67450  10.112   2.421   2.437  0.2882  0.7120  2.8368
  489MOL0     H67451  10.030   2.277   2.363  4.8408 -2.5594  0.8818
  489MOL0     H67452  10.162   2.151   2.491 -0.6706 -1.1095  0.0602
  489MOL0     H67453  10.024   2.157   2.592 -2.0941 -0.1274 -1.9415
  489MOL0     H67454  10.230   2.377   2.632  2.4017 -1.5151 -0.2345
  489MOL0     H67455  10.114   2.286   2.743  0.8231  0.9095  0.2778
  489MOL0     H67456  10.346   2.139   2.616  0.9599 -0.8012  2.1540
  489MOL0     H67457  10.224   2.073   2.726  0.1942  0.8980  3.4143
  489MOL0     H67458  10.284   2.185   2.899 -1.0819 -2.0420 -0.4614
  489MOL0     H67459  10.385   2.312   2.803 -0.5405  0.3217  1.7314
  489MOL0     H67460  10.469   2.013   2.813  0.3019  0.1742  1.9277
  489MOL0     H67461  10.515   2.130   2.932 -3.2342  0.3935  1.3014
  489MOL0     H67462   9.683   2.061   2.594 -0.8037 -0.5635  1.0231
  489MOL0     H67463   9.508   1.929   2.629 -2.5499 -1.1896 -3.4866
  489MOL0     H67464   9.085   1.736   2.681  1.4252 -0.3521  0.9524
  489MOL0     H67465   8.870   1.660   2.739 -2.8237  0.7585  0.5418
  489MOL0     H67466   8.183   0.150   3.000 -0.5139 -0.6979 -0.3805
  489MOL0     H67467   8.156  -0.001   2.806 -0.3771  0.6142 -1.5129
  489MOL0     H67468   8.017  -0.207   2.507 -0.8692  0.8725 -0.4915
  489MOL0     H67469   7.985  -0.381   2.313 -0.5675 -0.2511 -1.2450
  489MOL0     H67470   7.821  -0.226   1.932  0.7171  0.2672 -1.0662
  489MOL0     H67471   7.818  -0.390   1.893 -1.4283  0.4800 -0.9913
  489MOL0     H67472   7.602  -0.317   1.908  2.4460  1.8215 -0.2187
  489MOL0     H67473   7.609  -0.259   2.066 -0.1891 -2.3553  0.3838
  489MOL0     H67474   7.645  -0.480   2.168 -0.2987 -3.1224  0.1324
  489MOL0     H67475   7.489  -0.449   2.098 -0.1781 -0.6680  2.8942
  489MOL0     H67476   7.729  -0.604   1.983 -0.3981 -3.3317 -3.6887
  489MOL0     H67477   7.590  -0.585   1.883 -0.3654 -0.6689  0.4482
  489MOL0     H67478   7.432  -0.893   2.105 -4.0424  1.4198 -2.8251
  489MOL0     H67479   7.780  -0.089   2.092  1.2138  0.3387 -0.1317
  489MOL0     H67480   7.734   0.156   2.327 -2.0196 -1.5873 -2.0853
  489MOL0     H67481   7.872   0.180   2.210 -0.6411  0.5194 -2.4438
  489MOL0     H67482   7.714   0.133   2.160 -1.5492  2.8251  0.5294
  490MOL0     O67483   3.134   6.276   4.481  0.3017 -0.5796  0.1294
  490MOL0     C67484   3.158   6.160   4.517 -0.5038 -0.0752  0.2453
  490MOL0     O67485   3.146   6.047   4.438 -0.4519  0.6751 -0.3443
  490MOL0     C67486   3.115   6.042   4.306 -0.7043 -0.8758 -0.5984
  490MOL0     C67487   3.038   6.140   4.246 -0.2390  0.1492 -0.6157
  490MOL0     C67488   3.013   6.126   4.108 -0.1049 -0.2072 -0.1217
  490MOL0     C67489   3.045   6.012   4.034  0.1835  0.6509 -0.3297
  490MOL0     O67490   3.004   5.992   3.903  0.3030 -0.5491  0.1476
  490MOL0     C67491   2.936   5.867   3.867  0.3648  0.0513 -0.3206
  490MOL0     C67492   2.846   5.877   3.744  0.6803  0.3967  0.1201
  490MOL0     C67493   2.755   5.751   3.704 -0.3742  0.4770 -1.3353
  490MOL0     C67494   2.692   5.776   3.573 -0.4643 -0.2758  0.5419
  490MOL0     C67495   2.782   5.741   3.457  0.1061  0.0565 -0.7741
  490MOL0     C67496   2.780   5.851   3.352  0.4327 -0.6543 -0.8384
  490MOL0     C67497   2.825   5.801   3.212  0.0410 -0.1183 -0.1573
  490MOL0     C67498   2.823   5.915   3.120 -0.1274  0.4317 -0.2374
  490MOL0     N67499   2.868   5.882   2.979 -0.0758  0.0667  0.5380
  490MOL0     C67500   3.000   5.883   2.931 -0.7358  0.4199  0.4915
  490MOL0     C67501   3.005   5.849   2.795 -0.9172 -0.5068 -0.3305
  490MOL0     C67502   3.125   5.832   2.699 -0.2756  0.0176 -0.2543
  490MOL0     C67503   3.213   5.714   2.749  0.5398 -0.0643 -0.4290
  490MOL0     C67504   3.336   5.694   2.666 -0.0786  0.2097  0.1106
  490MOL0     C67505   3.305   5.635   2.526 -0.3783  0.1689 -0.6369
  490MOL0     O67506   3.263   5.739   2.432  0.7568  0.3312 -0.8443
  490MOL0     C67507   3.266   5.709   2.296 -0.3684  0.2697  0.7653
  490MOL0     C67508   3.235   5.820   2.222 -0.6200  0.7955 -1.2794
  490MOL0     C67509   3.180   5.811   2.097  0.4271  0.7416  0.3183
  490MOL0     C67510   3.154   5.935   2.018  0.1201  0.5351  0.6409
  490MOL0     C67511   3.201   5.692   2.026  0.1160  0.5338 -0.7386
  490MOL0     C67512   3.184   5.681   1.877  0.8528  0.5471  0.2620
  490MOL0     O67513   3.287   5.622   1.815 -0.0087 -0.3920  0.4860
  490MOL0     C67514   3.257   5.555   1.704  0.2905  0.6835  0.3978
  490MOL0     C67515   3.227   5.624   1.582  0.3644 -0.2914 -0.7281
  490MOL0     C67516   3.199   5.556   1.457 -0.0583  0.5916 -0.0806
  490MOL0     C67517   3.192   5.416   1.460 -0.0921 -0.3581  0.1009
  490MOL0     O67518   3.172   5.340   1.352  1.2723  0.5825 -0.2049
  490MOL0     C67519   3.189   5.387   1.215 -1.3620 -0.4188 -0.5690
  490MOL0     C67520   3.140   5.287   1.115  0.9096  0.7464 -0.3344
  490MOL0     C67521   3.204   5.300   0.980 -1.2230  0.1884 -0.0470
  490MOL0     C67522   3.180   5.191   0.885 -0.9593  0.1381 -0.4034
  490MOL0     C67523   3.174   5.230   0.746  0.0985  0.1374  0.5080
  490MOL0     C67524   3.151   5.100   0.664 -0.6369 -0.8333  1.8665
  490MOL0     C67525   3.009   5.035   0.662 -1.1330 -0.4115 -0.3753
  490MOL0     C67526   2.995   4.887   0.680  1.2925 -0.6716  0.7753
  490MOL0    Cl67527   3.118   4.804   0.574 -0.1018  0.2765 -0.3202
  490MOL0     C67528   3.219   5.349   1.583 -0.2181  0.0793  0.5527
  490MOL0     C67529   3.246   5.417   1.700 -0.3633  1.1433 -0.3982
  490MOL0     O67530   3.085   5.728   1.811  0.0063 -0.3279 -0.8624
  490MOL0     C67531   3.243   5.574   2.097  0.6991 -0.3571 -0.0342
  490MOL0     C67532   3.268   5.582   2.233 -0.5563 -0.1186  0.0381
  490MOL0     N67533   2.875   5.814   2.770  0.2602  0.4177 -0.5667
  490MOL0     N67534   2.794   5.838   2.873  1.2431  0.0975  0.5525
  490MOL0     C67535   3.106   5.900   4.101 -0.0264 -0.1234  0.1043
  490MOL0     C67536   3.150   5.923   4.239  0.3087 -0.2885 -1.2624
  490MOL0     C67537   3.185   6.138   4.662 -1.1513  0.6746 -0.3990
  490MOL0     C67538   3.248   6.014   4.686  0.0341 -0.3919 -0.0024
  490MOL0     C67539   3.293   5.991   4.813 -0.3137  0.0344  0.7868
  490MOL0     C67540   3.257   6.074   4.923  0.2661  0.3800  0.2324
  490MOL0     O67541   3.297   6.029   5.036 -0.7320  0.2094  0.1211
  490MOL0     C67542   3.344   6.112   5.143 -0.2297  0.8039 -0.4632
  490MOL0     C67543   3.457   6.200   5.124 -1.1811 -0.6668  0.7205
  490MOL0     C67544   3.586   6.121   5.098 -0.3380 -0.3586  0.1822
  490MOL0     C67545   3.705   6.200   5.062 -1.2429 -0.2795 -0.2168
  490MOL0     C67546   3.746   6.303   5.162 -0.6770  0.2084  0.1375
  490MOL0     C67547   3.767   6.368   5.261  0.3984 -0.1148  0.1022
  490MOL0     C67548   3.203   6.193   4.900  1.0423 -0.6705 -0.2129
  490MOL0     C67549   3.170   6.235   4.768  0.1460  0.6274 -0.8372
  490MOL0     C67550   3.138   6.382   4.763 -0.0137 -1.0675  0.1456
  490MOL0     H67551   3.008   6.234   4.290  1.9752  0.7911 -0.3967
  490MOL0     H67552   2.969   6.211   4.058 -1.8201  1.1265  3.2762
  490MOL0     H67553   2.865   5.838   3.944  1.5343  1.1997  1.2516
  490MOL0     H67554   3.016   5.795   3.852 -1.0109 -1.6878  0.4042
  490MOL0     H67555   2.782   5.965   3.755 -0.2466 -0.3368  0.7770
  490MOL0     H67556   2.927   5.889   3.672  1.5971 -0.9312  0.8791
  490MOL0     H67557   2.819   5.664   3.720 -0.7710  0.4881  0.5530
  490MOL0     H67558   2.670   5.742   3.772 -0.4760 -0.0191 -1.5266
  490MOL0     H67559   2.598   5.720   3.566  0.7915 -2.6071  1.4004
  490MOL0     H67560   2.665   5.881   3.562 -1.7115 -0.5016  1.2143
  490MOL0     H67561   2.748   5.648   3.411 -0.6116  0.8009 -1.7980
  490MOL0     H67562   2.884   5.728   3.493 -0.1072  0.2714 -0.0716
  490MOL0     H67563   2.682   5.897   3.346  0.4561 -0.3987  0.4848
  490MOL0     H67564   2.848   5.929   3.388  0.7177  0.1212 -2.8886
  490MOL0     H67565   2.756   5.720   3.187  1.5852 -2.1788  1.8144
  490MOL0     H67566   2.926   5.760   3.222 -1.3804 -3.6915  1.4331
  490MOL0     H67567   2.723   5.960   3.115 -2.9520 -4.9627 -0.8862
  490MOL0     H67568   2.890   5.986   3.169  2.0748 -1.4962 -0.2662
  490MOL0     H67569   3.090   5.905   2.987  0.4865 -0.4988 -1.0272
  490MOL0     H67570   3.188   5.921   2.698  0.8318 -0.7395  0.1976
  490MOL0     H67571   3.103   5.809   2.594  3.2213 -1.0547 -0.8679
  490MOL0     H67572   3.248   5.728   2.852  0.1735  0.2574 -0.3448
  490MOL0     H67573   3.151   5.625   2.743 -0.4083  0.3521  1.8876
  490MOL0     H67574   3.377   5.795   2.653 -0.1028  0.3997  1.3742
  490MOL0     H67575   3.401   5.620   2.713 -1.1248  0.8643  2.7654
  490MOL0     H67576   3.386   5.574   2.484  0.7346 -0.1635  1.8169
  490MOL0     H67577   3.224   5.562   2.536  0.0987 -0.4152 -0.9289
  490MOL0     H67578   3.224   5.918   2.268 -0.8826 -0.3160  1.1721
  490MOL0     H67579   3.064   5.924   1.958  0.7742  0.9943 -0.4480
  490MOL0     H67580   3.230   5.938   1.939 -0.2178 -0.9213  0.2255
  490MOL0     H67581   3.155   6.030   2.071  2.9548 -0.1960  2.1018
  490MOL0     H67582   3.230   5.733   1.576 -1.3498 -0.2356 -1.1649
  490MOL0     H67583   3.164   5.610   1.369 -1.6628 -3.5986 -2.2844
  490MOL0     H67584   3.149   5.488   1.198  1.6468  1.7274  3.2555
  490MOL0     H67585   3.295   5.403   1.192 -1.5709 -0.2576 -1.4229
  490MOL0     H67586   3.162   5.190   1.159 -1.4705  0.3370  0.0409
  490MOL0     H67587   3.032   5.298   1.106  0.3432 -2.3620  1.2807
  490MOL0     H67588   3.312   5.317   0.983 -1.3120  2.6001 -3.8409
  490MOL0     H67589   3.168   5.388   0.926 -0.2760  0.9238  0.4740
  490MOL0     H67590   3.084   5.147   0.913 -1.0838 -0.7361 -2.0424
  490MOL0     H67591   3.252   5.109   0.898 -2.4074 -0.7620  2.6881
  490MOL0     H67592   3.096   5.300   0.713  0.2885 -0.4746 -1.3575
  490MOL0     H67593   3.270   5.278   0.727 -1.7235  3.2515 -1.7081
  490MOL0     H67594   3.225   5.030   0.704  0.9760 -0.3980 -0.1877
  490MOL0     H67595   3.184   5.110   0.560 -1.0997  1.9592  1.9130
  490MOL0     H67596   2.963   5.060   0.565 -0.1309 -1.2671 -1.0875
  490MOL0     H67597   2.948   5.071   0.745 -0.2723 -1.2995  0.6613
  490MOL0     H67598   2.892   4.863   0.653  0.7836  1.1448  0.9775
  490MOL0     H67599   3.008   4.852   0.782  2.4437 -2.4626  0.0680
  490MOL0     H67600   3.209   5.241   1.578 -1.8709  0.2121  0.2831
  490MOL0     H67601   3.250   5.346   1.782 -4.1148 -0.3882 -1.3195
  490MOL0     H67602   3.254   5.475   2.053  1.4504  0.8914 -2.8668
  490MOL0     H67603   3.282   5.498   2.300 -0.8630 -3.2657 -3.5110
  490MOL0     H67604   3.129   5.806   4.052  0.6867 -0.1985  0.5604
  490MOL0     H67605   3.191   5.848   4.306 -1.1884 -0.0711 -0.0685
  490MOL0     H67606   3.284   5.958   4.600  1.3950  2.1802 -1.2230
  490MOL0     H67607   3.365   5.911   4.827 -2.5732 -2.0249  1.1426
  490MOL0     H67608   3.256   6.172   5.172 -3.8309 -3.4824 -1.3956
  490MOL0     H67609   3.360   6.050   5.232  2.5311  1.6573 -0.2851
  490MOL0     H67610   3.468   6.253   5.219 -1.0765  1.2684 -0.3126
  490MOL0     H67611   3.436   6.272   5.044 -0.9984  0.4189  1.6152
  490MOL0     H67612   3.607   6.080   5.197 -1.1567  1.0470  0.9657
  490MOL0     H67613   3.570   6.049   5.017 -0.1192  0.5066 -0.6475
  490MOL0     H67614   3.687   6.260   4.972 -2.0881 -4.4720 -3.1222
  490MOL0     H67615   3.786   6.129   5.045 -0.3378  0.7117 -0.1674
  490MOL0     H67616   3.801   6.425   5.345  2.4183  0.1998 -0.8695
  490MOL0     H67617   3.191   6.263   4.981 -1.0201  1.3703 -2.1327
  490MOL0     H67618   3.168   6.431   4.856 -2.6271  1.2749 -0.1318
  490MOL0     H67619   3.195   6.428   4.682 -0.8109 -2.6993 -1.4070
  490MOL0     H67620   3.032   6.401   4.745  0.6833  0.9630 -2.3470
  491MOL0     O67621   6.436   4.854   8.540  0.4083  0.6173 -0.1054
  491MOL0     C67622   6.547   4.902   8.520  0.0835 -0.4594  0.3543
  491MOL0     O67623   6.571   5.032   8.467  0.1442 -0.4408  0.1563
  491MOL0     C67624   6.476   5.132   8.448  0.1829  0.4166  0.8588
  491MOL0     C67625   6.343   5.132   8.495 -0.3973  1.2938  0.5654
  491MOL0     C67626   6.246   5.228   8.452 -0.0519 -0.7292 -0.3280
  491MOL0     C67627   6.284   5.312   8.342 -0.2736 -0.5405 -1.1515
  491MOL0     O67628   6.187   5.387   8.281 -0.2549  0.1158  0.6205
  491MOL0     C67629   6.060   5.389   8.347 -0.4524 -0.4091 -0.1044
  491MOL0     C67630   5.965   5.494   8.297  1.0026 -0.4105 -0.1471
  491MOL0     C67631   6.032   5.628   8.286 -0.3055  0.5778 -0.7064
  491MOL0     C67632   5.950   5.752   8.245  0.8125  0.6313 -0.5573
  491MOL0     C67633   6.025   5.885   8.249 -0.4566 -0.1796 -0.5459
  491MOL0     C67634   6.131   5.894   8.138 -0.0735 -0.0138 -0.1811
  491MOL0     C67635   6.276   5.877   8.179 -0.3984  0.0489 -0.2647
  491MOL0     C67636   6.370   5.900   8.061  0.7963  0.9867  0.3701
  491MOL0     N67637   6.493   5.980   8.096 -0.0656  1.4049  0.3064
  491MOL0     C67638   6.618   5.929   8.058  0.2686 -0.9467  0.5532
  491MOL0     C67639   6.698   6.014   8.110 -0.3367 -0.6038  0.1098
  491MOL0     C67640   6.845   6.002   8.111 -0.2778 -0.2989 -0.5666
  491MOL0     C67641   6.910   6.084   7.999 -0.7143 -0.4317  0.7048
  491MOL0     C67642   6.927   6.223   8.044 -0.0008 -0.7742 -0.2316
  491MOL0     C67643   7.000   6.299   7.927  0.3430 -0.2368 -0.5061
  491MOL0     O67644   7.028   6.426   7.989  0.4903 -1.0310  0.5365
  491MOL0     C67645   7.084   6.526   7.909  0.1203  0.2044  0.6332
  491MOL0     C67646   7.152   6.625   7.970  0.2639 -0.0946  0.0058
  491MOL0     C67647   7.212   6.729   7.897  1.4563 -0.3242  0.0990
  491MOL0     C67648   7.277   6.835   7.976 -0.5272 -0.4427  0.2395
  491MOL0     C67649   7.210   6.738   7.760  0.3444  1.8500 -0.2333
  491MOL0     C67650   7.265   6.852   7.682 -0.2805  0.3796 -0.6036
  491MOL0     O67651   7.236   6.848   7.547  0.3328 -0.0323  0.3094
  491MOL0     C67652   7.248   6.953   7.456  0.0232  0.2307  0.5782
  491MOL0     C67653   7.260   7.090   7.492 -0.0896  0.7217  0.0778
  491MOL0     C67654   7.302   7.185   7.394  0.7946  0.5541  0.1337
  491MOL0     C67655   7.315   7.147   7.264 -0.1084 -0.2372  1.0372
  491MOL0     O67656   7.340   7.244   7.167  0.0372 -0.5543 -0.3653
  491MOL0     C67657   7.358   7.387   7.200 -0.3815 -0.3424  0.2996
  491MOL0     C67658   7.474   7.439   7.124 -1.0309  0.4969  0.0212
  491MOL0     C67659   7.480   7.421   6.962 -0.0403  0.6598  0.1121
  491MOL0     C67660   7.354   7.467   6.896 -0.2268  0.3491 -0.7197
  491MOL0     C67661   7.358   7.475   6.749  0.2770  0.4278 -0.2644
  491MOL0     C67662   7.401   7.620   6.693 -0.3813  0.9486 -0.6483
  491MOL0     C67663   7.349   7.629   6.552 -0.6875 -0.3263  1.0364
  491MOL0     C67664   7.409   7.757   6.486 -0.0485 -0.3586 -0.7471
  491MOL0    Cl67665   7.348   7.788   6.310 -0.5483 -0.0328  0.1632
  491MOL0     C67666   7.288   7.015   7.226  0.0026  0.6066 -0.5253
  491MOL0     C67667   7.258   6.920   7.326 -0.1116  0.8212 -0.3819
  491MOL0     O67668   7.351   6.925   7.720 -0.0280  0.0881 -0.5977
  491MOL0     C67669   7.125   6.646   7.697  0.0038  0.0113 -1.0673
  491MOL0     C67670   7.075   6.538   7.768  0.9309 -0.3029  0.3802
  491MOL0     N67671   6.621   6.128   8.155 -0.0351 -0.1882 -0.4904
  491MOL0     N67672   6.498   6.097   8.157 -0.4176  0.0028 -0.2380
  491MOL0     C67673   6.409   5.305   8.290 -0.2341 -0.0540 -0.2285
  491MOL0     C67674   6.504   5.221   8.347 -0.2418 -0.0210 -0.0119
  491MOL0     C67675   6.664   4.814   8.547  1.0819  0.1183 -0.9515
  491MOL0     C67676   6.636   4.681   8.537  0.0596 -0.1064 -0.4055
  491MOL0     C67677   6.735   4.582   8.547 -0.0749 -0.1528 -0.7888
  491MOL0     C67678   6.863   4.617   8.578  0.1450 -0.0309 -1.3890
  491MOL0     O67679   6.957   4.517   8.604 -0.6211 -0.1785 -0.8536
  491MOL0     C67680   7.090   4.519   8.541 -0.1517 -0.1280  0.0504
  491MOL0     C67681   7.084   4.451   8.401  0.0112 -0.6418 -0.4067
  491MOL0     C67682   7.209   4.488   8.327 -0.1925 -0.3662 -0.3716
  491MOL0     C67683   7.215   4.389   8.208 -0.0572  0.2584  0.8947
  491MOL0     C67684   7.295   4.264   8.249  0.8370 -0.1476  0.2701
  491MOL0     C67685   7.350   4.174   8.302  0.5830  0.1345  0.0774
  491MOL0     C67686   6.894   4.756   8.579  0.3395 -0.3748 -0.6293
  491MOL0     C67687   6.800   4.855   8.568  0.0257  0.8497 -0.0533
  491MOL0     C67688   6.855   4.990   8.567 -0.1928 -0.3951 -0.2175
  491MOL0     H67689   6.322   5.067   8.579 -0.8475  0.1988 -0.3575
  491MOL0     H67690   6.159   5.231   8.517  2.0943 -2.5391  2.9236
  491MOL0     H67691   6.074   5.428   8.448  2.2500 -2.5343  0.4482
  491MOL0     H67692   6.004   5.295   8.345  0.7970 -1.1868 -1.8993
  491MOL0     H67693   5.942   5.456   8.197  0.7845 -1.7675  0.3967
  491MOL0     H67694   5.872   5.497   8.354  1.6419  0.6697  0.8816
  491MOL0     H67695   6.084   5.647   8.380 -0.4557 -0.8719 -0.3074
  491MOL0     H67696   6.109   5.613   8.209 -1.3331  0.0986 -1.6716
  491MOL0     H67697   5.920   5.735   8.141 -1.9146 -1.4497  0.4427
  491MOL0     H67698   5.859   5.758   8.305  0.8997  0.7332 -0.4355
  491MOL0     H67699   6.080   5.894   8.344  1.4206 -0.9414 -1.5097
  491MOL0     H67700   5.950   5.963   8.237 -0.3753 -0.1772 -1.0266
  491MOL0     H67701   6.121   5.812   8.067  3.0751 -2.9821  2.4148
  491MOL0     H67702   6.124   5.992   8.090 -0.7678 -1.6780 -3.7414
  491MOL0     H67703   6.279   5.772   8.210 -0.0104  0.2358  0.3554
  491MOL0     H67704   6.302   5.952   8.254  1.4312  0.7054 -1.4775
  491MOL0     H67705   6.392   5.805   8.011 -3.8460  0.1817 -0.5784
  491MOL0     H67706   6.309   5.952   7.987 -7.2200 -1.1345  4.3430
  491MOL0     H67707   6.643   5.836   8.008  1.6106 -0.6443  0.6393
  491MOL0     H67708   6.867   5.898   8.085 -1.0711 -0.6190 -0.0031
  491MOL0     H67709   6.886   6.017   8.211  1.9796  1.3642 -1.6615
  491MOL0     H67710   7.007   6.037   7.980 -0.7814 -0.6798  0.9662
  491MOL0     H67711   6.859   6.076   7.902  3.5719 -1.4295 -1.7427
  491MOL0     H67712   6.823   6.255   8.061 -0.8979 -4.3425  2.0779
  491MOL0     H67713   6.976   6.217   8.141 -1.0731  0.0961  0.3938
  491MOL0     H67714   7.088   6.243   7.896 -1.1229 -2.5694 -0.6682
  491MOL0     H67715   6.936   6.315   7.840 -0.9129  2.4028  0.7751
  491MOL0     H67716   7.153   6.614   8.078 -0.2561 -2.8391 -0.1824
  491MOL0     H67717   7.233   6.924   7.931 -0.7481 -0.6520  0.0404
  491MOL0     H67718   7.385   6.849   7.961 -0.6375  2.2178  1.2916
  491MOL0     H67719   7.257   6.845   8.083  0.2019 -1.2626  0.4684
  491MOL0     H67720   7.268   7.112   7.598  1.7095  2.8822 -0.4391
  491MOL0     H67721   7.308   7.282   7.444  2.0875  0.1815  0.7434
  491MOL0     H67722   7.269   7.444   7.173 -1.8060 -2.5923  0.0009
  491MOL0     H67723   7.378   7.412   7.304 -0.9238  1.0404  0.0973
  491MOL0     H67724   7.492   7.544   7.150  0.3461  0.1546  0.5453
  491MOL0     H67725   7.560   7.384   7.164  0.5971  1.7914 -1.4994
  491MOL0     H67726   7.500   7.315   6.942  0.8773  0.7426  0.5654
  491MOL0     H67727   7.571   7.474   6.932  0.6494 -0.8223 -0.5210
  491MOL0     H67728   7.342   7.564   6.945  0.8009 -0.0955  0.4789
  491MOL0     H67729   7.272   7.399   6.919 -2.8112  3.3356 -0.4665
  491MOL0     H67730   7.419   7.396   6.706 -0.1401 -0.0104 -0.0613
  491MOL0     H67731   7.249   7.464   6.743  0.0494  0.4035  2.6224
  491MOL0     H67732   7.507   7.645   6.680 -0.5732  2.2307  0.0693
  491MOL0     H67733   7.364   7.700   6.758  0.4647  1.9991 -1.4220
  491MOL0     H67734   7.241   7.644   6.563 -0.5228  1.5405  0.4616
  491MOL0     H67735   7.374   7.536   6.501  2.0806  1.7342 -1.8427
  491MOL0     H67736   7.518   7.746   6.483  0.2289  1.2120  1.1496
  491MOL0     H67737   7.399   7.846   6.549  3.3194  0.5226 -1.2770
  491MOL0     H67738   7.298   6.988   7.122  0.7504  1.1178 -0.5994
  491MOL0     H67739   7.239   6.815   7.308 -0.8780  0.8546  0.2009
  491MOL0     H67740   7.127   6.647   7.589  3.7785 -0.4493 -1.1278
  491MOL0     H67741   7.034   6.466   7.697  0.3211  0.7517 -0.3527
  491MOL0     H67742   6.432   5.348   8.193 -0.8257  1.2679  0.1911
  491MOL0     H67743   6.599   5.204   8.297  0.1957  3.2025 -0.4966
  491MOL0     H67744   6.541   4.643   8.500 -0.3904  0.2606  0.3485
  491MOL0     H67745   6.707   4.477   8.546  2.5837 -1.1013  2.8864
  491MOL0     H67746   7.128   4.620   8.525 -0.2697  0.1057  1.1203
  491MOL0     H67747   7.161   4.458   8.597  0.5841  0.6242 -0.0565
  491MOL0     H67748   6.994   4.481   8.347  2.0886  2.5724 -2.3998
  491MOL0     H67749   7.079   4.343   8.415  1.2134 -0.5166  1.2388
  491MOL0     H67750   7.220   4.591   8.291  2.6264 -0.3770  0.2518
  491MOL0     H67751   7.295   4.468   8.392  0.4252  1.0393 -0.7124
  491MOL0     H67752   7.270   4.437   8.126  0.2230 -1.2218  0.1764
  491MOL0     H67753   7.121   4.352   8.168 -0.2570 -0.2552  1.8166
  491MOL0     H67754   7.398   4.094   8.355 -0.3977  0.1353  0.9901
  491MOL0     H67755   7.000   4.774   8.597  0.2865 -0.6732  0.0047
  491MOL0     H67756   6.916   4.995   8.658 -1.9093 -0.8206  1.0238
  491MOL0     H67757   6.919   5.001   8.479 -1.0459  0.3667 -0.7684
  491MOL0     H67758   6.774   5.064   8.565 -0.4306 -0.6651 -1.5319
  492MOL0     O67759   4.308   2.383   0.562 -0.5189 -0.0508 -0.1375
  492MOL0     C67760   4.213   2.445   0.604 -0.6993  0.2026 -0.4042
  492MOL0     O67761   4.188   2.571   0.574 -0.5912 -0.3615  0.5922
  492MOL0     C67762   4.282   2.645   0.505  0.2573  0.1701 -0.8222
  492MOL0     C67763   4.344   2.750   0.574 -0.4354  0.0340  0.3155
  492MOL0     C67764   4.446   2.820   0.518  0.6090 -0.8716  0.2451
  492MOL0     C67765   4.503   2.792   0.390 -0.2816  0.0207  0.4611
  492MOL0     O67766   4.632   2.842   0.353 -0.4135  0.4056  0.0418
  492MOL0     C67767   4.751   2.756   0.389 -0.2087 -0.4827  0.0220
  492MOL0     C67768   4.875   2.834   0.344  0.4376  0.2201 -0.7538
  492MOL0     C67769   4.913   2.969   0.416  0.0204  0.1479 -0.4010
  492MOL0     C67770   4.912   3.095   0.324  0.2032  0.4000 -0.0658
  492MOL0     C67771   4.919   3.221   0.400  0.2181 -0.3529  1.4255
  492MOL0     C67772   4.904   3.342   0.301  1.4293  0.0126 -0.6704
  492MOL0     C67773   4.949   3.468   0.370  0.9529  0.4593 -0.7568
  492MOL0     C67774   4.884   3.509   0.492  0.6187  0.2351  0.4513
  492MOL0     N67775   4.964   3.610   0.563 -0.0762 -0.9977 -0.1853
  492MOL0     C67776   4.967   3.748   0.537  0.3618  0.7613  0.0848
  492MOL0     C67777   5.068   3.792   0.611  0.0482 -0.2997  0.9653
  492MOL0     C67778   5.129   3.926   0.604 -0.8699  0.4115  0.6008
  492MOL0     C67779   5.265   3.941   0.528 -0.4535 -0.3536  1.0934
  492MOL0     C67780   5.336   4.081   0.548 -0.6703 -0.1189  0.5675
  492MOL0     C67781   5.487   4.095   0.520 -1.0455  0.0202  0.0685
  492MOL0     O67782   5.537   4.209   0.600 -0.2599 -0.1618 -0.1161
  492MOL0     C67783   5.486   4.326   0.553 -0.4862 -0.6059  0.4750
  492MOL0     C67784   5.468   4.363   0.418  0.6790  0.2929  0.0751
  492MOL0     C67785   5.412   4.491   0.381  0.7544 -0.1567 -0.4212
  492MOL0     C67786   5.407   4.526   0.233 -0.5119 -0.7366 -0.3253
  492MOL0     C67787   5.362   4.575   0.489 -0.2688 -0.3377  0.0976
  492MOL0     C67788   5.277   4.693   0.465  0.0954  0.3694  0.3378
  492MOL0     O67789   5.230   4.758   0.574  0.4564 -0.3163 -0.0973
  492MOL0     C67790   5.155   4.874   0.569  0.1274  0.4013  0.5838
  492MOL0     C67791   5.147   4.957   0.456  0.1630  1.5716 -1.0421
  492MOL0     C67792   5.053   5.057   0.458  0.2759  0.0363  0.2058
  492MOL0     C67793   4.989   5.112   0.572 -0.3542 -0.2294  0.3626
  492MOL0     O67794   4.916   5.232   0.572  0.0259  0.7784 -0.6385
  492MOL0     C67795   4.803   5.258   0.657  0.9243  0.1345 -0.0433
  492MOL0     C67796   4.829   5.331   0.789 -0.4955 -0.0410  0.3067
  492MOL0     C67797   4.705   5.356   0.871 -0.1973  0.8488  0.9103
  492MOL0     C67798   4.579   5.392   0.786 -0.0375  0.1808 -0.4658
  492MOL0     C67799   4.464   5.412   0.890 -0.0724  0.0403  0.2205
  492MOL0     C67800   4.327   5.439   0.827  0.3094 -0.6913 -0.3637
  492MOL0     C67801   4.219   5.399   0.933 -0.2181 -0.8453  0.0284
  492MOL0     C67802   4.085   5.409   0.862  0.8214  0.3522 -0.4475
  492MOL0    Cl67803   4.044   5.263   0.771  0.2972 -0.4428 -0.0508
  492MOL0     C67804   5.009   5.038   0.690  0.0724 -0.1093  0.3607
  492MOL0     C67805   5.087   4.918   0.688  0.0558 -0.0317  1.3760
  492MOL0     O67806   5.230   4.706   0.356 -0.6214  0.0414  0.3106
  492MOL0     C67807   5.393   4.537   0.611 -0.3007 -0.0675 -0.8750
  492MOL0     C67808   5.447   4.419   0.649 -0.6942  0.0033 -0.7870
  492MOL0     N67809   5.114   3.691   0.689 -0.1375 -0.8725 -0.2285
  492MOL0     N67810   5.057   3.587   0.657  0.4004  0.5495  0.2026
  492MOL0     C67811   4.430   2.694   0.316 -0.3512  0.2902  0.3964
  492MOL0     C67812   4.318   2.623   0.366 -0.2266  0.3706 -0.7829
  492MOL0     C67813   4.111   2.364   0.686  0.4695 -0.5813 -0.3439
  492MOL0     C67814   4.076   2.412   0.813  0.4924  0.0086 -0.0613
  492MOL0     C67815   3.991   2.328   0.889 -0.6834 -1.1408  0.2616
  492MOL0     C67816   3.951   2.205   0.843  0.7624 -0.2512 -0.5934
  492MOL0     O67817   3.878   2.136   0.934 -0.2379  0.0553 -0.0480
  492MOL0     C67818   3.851   2.000   0.902 -0.1015  0.2697 -0.0050
  492MOL0     C67819   3.771   1.936   1.026 -0.4589  0.0046  0.1536
  492MOL0     C67820   3.628   1.985   1.041  0.7801  0.3047  0.2762
  492MOL0     C67821   3.543   1.999   0.918 -0.1074  0.3901  0.6465
  492MOL0     C67822   3.532   1.868   0.848 -0.2678  0.9391  0.3830
  492MOL0     C67823   3.513   1.765   0.775  0.1226  0.9245 -0.4772
  492MOL0     C67824   3.974   2.160   0.708  0.1664  0.1690 -0.7549
  492MOL0     C67825   4.052   2.245   0.634  0.0019  0.5615  1.0811
  492MOL0     C67826   4.083   2.203   0.494  0.7326  1.1303 -0.4042
  492MOL0     H67827   4.326   2.765   0.681  0.1118  0.7995  0.3049
  492MOL0     H67828   4.508   2.881   0.583  0.2397 -0.0183 -0.1765
  492MOL0     H67829   4.748   2.657   0.343  1.0938  0.2257 -1.7129
  492MOL0     H67830   4.746   2.742   0.498  2.9705  2.5115  0.7539
  492MOL0     H67831   4.952   2.760   0.367 -0.4403 -0.6150 -0.4131
  492MOL0     H67832   4.859   2.849   0.237 -6.6637  0.2886 -0.2033
  492MOL0     H67833   4.852   2.980   0.506  0.9719 -2.7849  0.7220
  492MOL0     H67834   5.014   2.952   0.457  0.9448 -0.0990 -2.6612
  492MOL0     H67835   5.003   3.089   0.264  0.2022  0.7424 -0.1023
  492MOL0     H67836   4.824   3.107   0.259 -1.3147  1.2042  2.0358
  492MOL0     H67837   5.017   3.214   0.449  1.8587 -3.0828 -1.8359
  492MOL0     H67838   4.848   3.232   0.483 -0.6289  4.1528  0.3657
  492MOL0     H67839   4.972   3.318   0.219 -1.0551 -2.5503 -2.1453
  492MOL0     H67840   4.805   3.349   0.256  0.1247 -0.4885  1.8900
  492MOL0     H67841   4.942   3.547   0.294  1.5801 -1.2529 -2.7033
  492MOL0     H67842   5.056   3.463   0.392  0.6768  1.0924  0.8267
  492MOL0     H67843   4.783   3.542   0.467  1.6499  1.6653 -2.3218
  492MOL0     H67844   4.880   3.426   0.563 -1.5638  0.0906  0.2009
  492MOL0     H67845   4.899   3.801   0.472  0.1579 -0.2907 -0.5857
  492MOL0     H67846   5.146   3.966   0.705  3.2739  3.0805 -0.8838
  492MOL0     H67847   5.052   3.985   0.552  0.7772  0.9612 -1.3250
  492MOL0     H67848   5.335   3.859   0.542  0.5545 -0.2789 -2.4955
  492MOL0     H67849   5.248   3.934   0.420 -0.3471  0.6020  1.0041
  492MOL0     H67850   5.280   4.156   0.490  1.3580  0.9206 -0.1585
  492MOL0     H67851   5.344   4.104   0.655 -0.3282  1.8004  0.1787
  492MOL0     H67852   5.545   4.008   0.551 -0.7611 -0.5454 -1.9248
  492MOL0     H67853   5.507   4.110   0.413  0.0026 -1.8607 -0.0244
  492MOL0     H67854   5.497   4.295   0.339 -2.0267 -1.7800  0.7270
  492MOL0     H67855   5.451   4.625   0.225  0.4668 -1.0750  0.6385
  492MOL0     H67856   5.305   4.522   0.193 -1.0531  2.8088  0.4004
  492MOL0     H67857   5.467   4.452   0.179 -1.4531 -0.0798 -2.3729
  492MOL0     H67858   5.191   4.938   0.358 -0.8164  0.3860 -1.2875
  492MOL0     H67859   5.019   5.102   0.365 -3.2632 -1.3665  0.6497
  492MOL0     H67860   4.738   5.327   0.602 -3.9085 -1.5935  2.8004
  492MOL0     H67861   4.741   5.168   0.671  0.4856  0.5482  0.7566
  492MOL0     H67862   4.905   5.279   0.847 -0.0258  0.7319  0.3988
  492MOL0     H67863   4.883   5.422   0.760  0.4352 -0.4444  0.7389
  492MOL0     H67864   4.724   5.421   0.956  0.4848  0.3847  1.1206
  492MOL0     H67865   4.685   5.259   0.918 -0.4356  0.4910  0.1018
  492MOL0     H67866   4.560   5.320   0.705  0.8820  0.7871 -1.2384
  492MOL0     H67867   4.587   5.488   0.734 -0.3550 -0.3724 -1.5764
  492MOL0     H67868   4.451   5.326   0.956 -2.6128  0.9521  1.0217
  492MOL0     H67869   4.488   5.493   0.960 -0.8318 -1.5641  2.4479
  492MOL0     H67870   4.322   5.375   0.739  0.9948 -3.2684  1.3470
  492MOL0     H67871   4.319   5.538   0.780 -0.5797 -0.6773 -0.2031
  492MOL0     H67872   4.226   5.456   1.025 -0.3344 -2.1850  0.8977
  492MOL0     H67873   4.230   5.294   0.962 -1.1617 -1.1989 -0.8273
  492MOL0     H67874   4.104   5.490   0.791  2.7468  1.9433  1.7297
  492MOL0     H67875   3.999   5.441   0.920 -0.9169 -3.9141 -0.3437
  492MOL0     H67876   4.968   5.076   0.783  2.0613  2.5063  0.2838
  492MOL0     H67877   5.094   4.861   0.779 -1.3484 -2.2053  0.2090
  492MOL0     H67878   5.365   4.588   0.703  0.5581  1.3097 -1.3347
  492MOL0     H67879   5.462   4.395   0.753 -0.7024 -2.0103 -1.2114
  492MOL0     H67880   4.470   2.683   0.216 -1.3765 -0.0519  0.0074
  492MOL0     H67881   4.265   2.549   0.307  1.1798 -0.3178 -1.2379
  492MOL0     H67882   4.118   2.501   0.859 -2.4872  0.2544  2.5625
  492MOL0     H67883   3.967   2.348   0.993  3.5632 -1.4246  1.4479
  492MOL0     H67884   3.797   1.995   0.807  3.8028 -2.6878 -2.3765
  492MOL0     H67885   3.947   1.957   0.870  1.5681  5.9448 -4.2749
  492MOL0     H67886   3.839   1.972   1.104  1.1938  1.6180 -1.9084
  492MOL0     H67887   3.780   1.827   1.013  0.0098  0.3849 -4.1815
  492MOL0     H67888   3.586   1.910   1.109  1.4642 -0.2394  0.1114
  492MOL0     H67889   3.633   2.083   1.090 -1.6572 -0.0240  1.2893
  492MOL0     H67890   3.587   2.085   0.867 -0.2072  2.6600  4.0987
  492MOL0     H67891   3.445   2.033   0.953  0.4898 -0.0013  2.8084
  492MOL0     H67892   3.497   1.670   0.728 -0.1676 -1.3055  3.7092
  492MOL0     H67893   3.938   2.065   0.671  1.2307 -0.4185 -0.3071
  492MOL0     H67894   4.020   2.115   0.481  0.5926  0.8490  1.7828
  492MOL0     H67895   4.035   2.271   0.424 -1.3019  0.2936  0.1191
  492MOL0     H67896   4.187   2.179   0.470  0.9200  0.0810  1.3052
  493MOL0     O67897   5.890   5.743   1.917 -0.3171 -0.0447  0.3125
  493MOL0     C67898   5.866   5.810   2.017  0.3221 -0.1166 -0.5938
  493MOL0     O67899   5.897   5.939   2.032  0.2703  0.0003  0.6191
  493MOL0     C67900   5.981   5.995   1.939  1.0177  1.0898  0.5215
  493MOL0     C67901   5.956   6.120   1.876 -0.1806  0.3660  0.1461
  493MOL0     C67902   6.048   6.185   1.808  0.3568  0.7649  0.9507
  493MOL0     C67903   6.174   6.120   1.781  0.2934  0.4479  1.1265
  493MOL0     O67904   6.275   6.182   1.708 -0.6983  0.0795 -0.3587
  493MOL0     C67905   6.310   6.304   1.783  0.5142 -0.3355  0.3102
  493MOL0     C67906   6.424   6.381   1.719 -0.6315 -0.4633  0.1130
  493MOL0     C67907   6.531   6.277   1.668  0.3909  0.1256 -0.1651
  493MOL0     C67908   6.669   6.324   1.673  0.3914  0.0601  1.1185
  493MOL0     C67909   6.737   6.365   1.807 -0.4165 -0.2096  0.2539
  493MOL0     C67910   6.712   6.262   1.918  0.0113 -1.0183 -0.6375
  493MOL0     C67911   6.811   6.306   2.027  0.0906  0.8925  0.2219
  493MOL0     C67912   6.777   6.425   2.121 -0.2765  0.7313  0.5151
  493MOL0     N67913   6.847   6.550   2.086 -0.0982 -0.7175 -0.5040
  493MOL0     C67914   6.817   6.663   2.155 -0.3417 -0.7195 -0.6842
  493MOL0     C67915   6.895   6.763   2.092  0.0308  0.7735  0.5011
  493MOL0     C67916   6.881   6.910   2.133 -0.7456  0.0277 -0.9865
  493MOL0     C67917   6.747   6.975   2.110 -0.1236 -0.2015 -0.5393
  493MOL0     C67918   6.731   7.098   2.198  1.1885 -0.0161  0.6656
  493MOL0     C67919   6.593   7.166   2.159  0.9009  0.0549  0.2593
  493MOL0     O67920   6.589   7.283   2.240  0.1214  0.2229  0.1175
  493MOL0     C67921   6.475   7.360   2.233 -0.9120  0.1221  0.0709
  493MOL0     C67922   6.423   7.402   2.113  0.8717 -0.6355  0.0591
  493MOL0     C67923   6.295   7.459   2.111  0.4183 -0.4180  0.5220
  493MOL0     C67924   6.210   7.477   1.988 -0.0542  0.8916 -0.0734
  493MOL0     C67925   6.233   7.496   2.246 -0.4810 -0.0172  0.3165
  493MOL0     C67926   6.103   7.569   2.257  0.7682  0.7654  0.4694
  493MOL0     O67927   5.992   7.507   2.202  0.6054 -0.2090 -0.4818
  493MOL0     C67928   5.876   7.573   2.168  1.1427 -1.0825  0.0382
  493MOL0     C67929   5.858   7.708   2.123 -0.4617  0.5935 -0.7984
  493MOL0     C67930   5.740   7.768   2.079  0.5388  0.4567  0.3620
  493MOL0     C67931   5.620   7.694   2.108 -0.4620 -0.1092  0.7180
  493MOL0     O67932   5.491   7.747   2.103  0.3864  0.2590 -0.7282
  493MOL0     C67933   5.466   7.890   2.077 -0.1853 -0.1106 -0.3744
  493MOL0     C67934   5.324   7.936   2.101  0.3954  1.4660 -1.1466
  493MOL0     C67935   5.268   7.908   2.251  0.1174  0.1000  0.8297
  493MOL0     C67936   5.217   7.761   2.269 -0.0396  0.3296  0.0428
  493MOL0     C67937   5.145   7.739   2.405  0.4984  0.7376  0.5942
  493MOL0     C67938   5.118   7.596   2.420 -0.9268  0.5980  1.0599
  493MOL0     C67939   5.000   7.542   2.335 -0.3820 -0.3522 -0.0847
  493MOL0     C67940   5.052   7.435   2.243  0.3739  1.2665  0.8569
  493MOL0    Cl67941   5.076   7.271   2.296  0.2086  0.0690 -0.1367
  493MOL0     C67942   5.632   7.567   2.158  0.0780  0.1607  0.4403
  493MOL0     C67943   5.759   7.517   2.193  0.8720  1.4736  0.5684
  493MOL0     O67944   6.098   7.673   2.326  0.6415  0.2696  0.4033
  493MOL0     C67945   6.300   7.470   2.369 -0.4613 -0.5211 -0.1165
  493MOL0     C67946   6.418   7.393   2.357  0.2327 -0.5412  0.0098
  493MOL0     N67947   6.961   6.704   1.983 -0.1367  0.3857 -0.2484
  493MOL0     N67948   6.918   6.582   1.975  0.4126  0.4117 -0.3633
  493MOL0     C67949   6.207   6.006   1.840 -0.9994 -0.4310  0.1217
  493MOL0     C67950   6.108   5.944   1.916 -0.7957 -0.3922  1.0147
  493MOL0     C67951   5.787   5.743   2.119 -0.5969  0.8407 -0.9188
  493MOL0     C67952   5.646   5.747   2.118 -0.7618 -0.1574 -0.5350
  493MOL0     C67953   5.577   5.694   2.225  0.1554  0.0785  0.3193
  493MOL0     C67954   5.631   5.631   2.340 -0.1321  0.2108  0.7970
  493MOL0     O67955   5.563   5.583   2.452 -0.1953 -0.0191  0.2587
  493MOL0     C67956   5.423   5.593   2.457  0.2623  0.6403 -0.0422
  493MOL0     C67957   5.376   5.529   2.589 -0.5211 -0.0120  0.4772
  493MOL0     C67958   5.448   5.598   2.718  0.2984 -0.9178  0.7116
  493MOL0     C67959   5.431   5.748   2.722  0.0116 -1.1222  0.0781
  493MOL0     C67960   5.552   5.810   2.663  0.6886  0.1786 -0.4365
  493MOL0     C67961   5.643   5.861   2.595  0.1378  0.0174  0.0282
  493MOL0     C67962   5.773   5.610   2.329  0.3578  0.2140 -0.1094
  493MOL0     C67963   5.846   5.674   2.222  0.4084  0.6910  0.4119
  493MOL0     C67964   6.000   5.651   2.211  0.4175  0.1756  0.3319
  493MOL0     H67965   5.856   6.162   1.867 -1.1889 -1.3235  2.4392
  493MOL0     H67966   6.029   6.269   1.742  3.1686  1.3173  0.6863
  493MOL0     H67967   6.342   6.280   1.885 -1.3049  0.9588  1.2191
  493MOL0     H67968   6.237   6.382   1.801  1.0853  0.6296 -1.2849
  493MOL0     H67969   6.378   6.442   1.640 -0.6774 -0.3341  0.2394
  493MOL0     H67970   6.462   6.458   1.786 -1.1905  1.9794 -2.2261
  493MOL0     H67971   6.520   6.189   1.731  0.9411  1.4556  1.8740
  493MOL0     H67972   6.509   6.260   1.562  0.9729  3.9905 -1.0429
  493MOL0     H67973   6.721   6.237   1.632  1.0359  0.1582  1.6951
  493MOL0     H67974   6.675   6.408   1.603  0.1601  0.2945  1.3792
  493MOL0     H67975   6.703   6.462   1.843  0.4349 -1.0564  3.7298
  493MOL0     H67976   6.845   6.371   1.795 -0.3014 -0.5289  1.0324
  493MOL0     H67977   6.617   6.261   1.972  2.0813  0.3894  3.4995
  493MOL0     H67978   6.739   6.160   1.889 -0.5771 -1.2013 -0.5396
  493MOL0     H67979   6.906   6.330   1.977 -1.2077  2.6087 -1.5832
  493MOL0     H67980   6.842   6.221   2.088 -2.0345  0.1551  0.3414
  493MOL0     H67981   6.671   6.450   2.115  0.7790  6.0273 -1.7622
  493MOL0     H67982   6.799   6.389   2.221  4.1081  0.0900 -0.4724
  493MOL0     H67983   6.745   6.666   2.235 -0.1063 -3.6964 -0.2376
  493MOL0     H67984   6.954   6.969   2.076 -1.6578 -0.2405 -2.4785
  493MOL0     H67985   6.902   6.924   2.239 -2.5348  3.1642 -0.9319
  493MOL0     H67986   6.734   7.002   2.005 -1.7365 -3.0171 -1.1830
  493MOL0     H67987   6.675   6.898   2.142  1.6867 -1.0460  1.8154
  493MOL0     H67988   6.722   7.069   2.303 -3.4188 -3.2713 -0.3509
  493MOL0     H67989   6.803   7.177   2.175 -0.7658  1.6270 -0.1135
  493MOL0     H67990   6.603   7.193   2.053 -1.4950 -2.9257 -0.8668
  493MOL0     H67991   6.501   7.108   2.167  0.5910 -0.4158 -4.2308
  493MOL0     H67992   6.456   7.379   2.012 -0.6092 -2.7779  0.0074
  493MOL0     H67993   6.111   7.519   2.003  0.6194  1.9224  1.8883
  493MOL0     H67994   6.201   7.377   1.944  3.8127 -1.6518  4.0756
  493MOL0     H67995   6.255   7.537   1.908  0.3643  1.5053  0.6076
  493MOL0     H67996   5.946   7.769   2.106 -0.0687 -0.1096 -1.3826
  493MOL0     H67997   5.743   7.871   2.045  4.4348  1.3638  2.7826
  493MOL0     H67998   5.530   7.951   2.142 -0.6447 -0.4072  0.3685
  493MOL0     H67999   5.500   7.923   1.979 -0.9678  2.3111  0.1107
  493MOL0     H68000   5.324   8.044   2.085 -5.1111  1.7720 -1.1072
  493MOL0     H68001   5.257   7.895   2.025 -0.2948  3.1907 -1.5133
  493MOL0     H68002   5.176   7.967   2.251 -1.1209 -1.6674 -1.1919
  493MOL0     H68003   5.331   7.944   2.333 -0.9509  1.2172  1.1970
  493MOL0     H68004   5.302   7.692   2.267 -0.7254 -0.5122 -0.3985
  493MOL0     H68005   5.145   7.731   2.193  1.6279 -3.1836 -0.3427
  493MOL0     H68006   5.202   7.775   2.490  0.7310 -2.3698  1.8933
  493MOL0     H68007   5.051   7.796   2.403  0.7629  1.2192  1.5015
  493MOL0     H68008   5.077   7.579   2.521 -1.9986 -0.3396  0.4878
  493MOL0     H68009   5.209   7.541   2.395 -2.3258 -1.2796 -0.2090
  493MOL0     H68010   4.947   7.628   2.293 -1.1675  1.5781  4.2591
  493MOL0     H68011   4.932   7.485   2.398 -0.4412  0.6839  0.8159
  493MOL0     H68012   5.147   7.474   2.204  1.7625  1.2762  3.9781
  493MOL0     H68013   4.977   7.421   2.165  0.7253 -0.8925  0.8433
  493MOL0     H68014   5.537   7.531   2.194 -0.9293  2.9251  0.7869
  493MOL0     H68015   5.761   7.412   2.222 -0.5364  0.5209 -2.4307
  493MOL0     H68016   6.254   7.499   2.462  1.6697  0.3156  0.7422
  493MOL0     H68017   6.469   7.365   2.448  0.6922  0.4956  0.0884
  493MOL0     H68018   6.308   5.967   1.843 -0.9491 -0.2969  0.2088
  493MOL0     H68019   6.148   5.859   1.969  1.9966  1.7155  2.5781
  493MOL0     H68020   5.600   5.795   2.032  0.3940  0.4492 -0.8441
  493MOL0     H68021   5.469   5.703   2.215 -0.1570 -0.4674  2.6181
  493MOL0     H68022   5.383   5.694   2.459 -0.8167  0.2205  0.5309
  493MOL0     H68023   5.394   5.533   2.370  1.5918  1.8014 -1.3344
  493MOL0     H68024   5.395   5.423   2.576  3.3985  0.6543 -0.7705
  493MOL0     H68025   5.267   5.536   2.591 -0.7898 -1.5055 -2.8785
  493MOL0     H68026   5.390   5.560   2.803  1.1831 -0.9063  1.3385
  493MOL0     H68027   5.555   5.574   2.721 -0.0119 -2.3320  1.1895
  493MOL0     H68028   5.419   5.787   2.824 -1.2190 -0.3955 -0.3121
  493MOL0     H68029   5.345   5.786   2.666  2.2198  1.8431 -1.6017
  493MOL0     H68030   5.728   5.889   2.535  2.0922 -1.3185  1.9996
  493MOL0     H68031   5.822   5.556   2.410 -1.4144  0.9936  1.5480
  493MOL0     H68032   6.037   5.597   2.124  1.9571 -0.9820  1.6504
  493MOL0     H68033   6.051   5.748   2.214 -2.9475  2.0980  0.7037
  493MOL0     H68034   6.029   5.591   2.297 -1.0114 -2.3554 -0.8268
  494MOL0     O68035   4.131  10.938   0.622 -0.0689  0.7077 -0.6007
  494MOL0     C68036   4.062  10.986   0.536  0.3677 -0.2712 -0.2226
  494MOL0     O68037   4.109  11.069   0.443 -0.0415  0.1255 -0.6753
  494MOL0     C68038   4.234  11.119   0.416  0.2383  0.0414 -0.1076
  494MOL0     C68039   4.354  11.092   0.489  0.8072  0.2973  0.0504
  494MOL0     C68040   4.478  11.128   0.440 -0.0444 -0.1244  0.1175
  494MOL0     C68041   4.484  11.225   0.332  0.9329 -0.6587  0.1093
  494MOL0     O68042   4.595  11.278   0.263 -0.3385  0.2375  0.4386
  494MOL0     C68043   4.715  11.315   0.328  0.1383  0.0990 -0.5429
  494MOL0     C68044   4.837  11.260   0.257  0.1480  0.5884 -0.6242
  494MOL0     C68045   4.973  11.309   0.310  0.6409  0.5284 -0.2483
  494MOL0     C68046   5.093  11.259   0.229  0.3765  0.2718 -0.6048
  494MOL0     C68047   5.227  11.296   0.292  1.0233  0.3335  0.8112
  494MOL0     C68048   5.255  11.198   0.409 -0.6992 -1.0284  0.0563
  494MOL0     C68049   5.363  11.257   0.506 -0.3852 -0.3729  0.9030
  494MOL0     C68050   5.510  11.261   0.457 -0.5162 -0.9694  0.8845
  494MOL0     N68051   5.597  11.333   0.552 -0.0770  0.5476  0.2659
  494MOL0     C68052   5.710  11.404   0.518  0.6491  0.2158  1.1691
  494MOL0     C68053   5.768  11.442   0.634 -1.8125  1.4449  0.1243
  494MOL0     C68054   5.912  11.504   0.627  1.0993 -0.8343  0.3875
  494MOL0     C68055   5.925  11.613   0.731 -0.7607 -0.9305 -0.3363
  494MOL0     C68056   6.067  11.656   0.762 -0.1642  0.4904 -0.5118
  494MOL0     C68057   6.123  11.756   0.660 -0.2802 -0.4732  0.1097
  494MOL0     O68058   6.061  11.884   0.680 -0.0752 -0.8944 -0.2111
  494MOL0     C68059   6.138  12.003   0.681  0.1418  0.5446  0.0193
  494MOL0     C68060   6.102  12.106   0.758  0.3577  0.3723 -0.0665
  494MOL0     C68061   6.162  12.233   0.771  0.6174  0.2742  0.1561
  494MOL0     C68062   6.088  12.316   0.866  0.8924  0.1532 -0.4422
  494MOL0     C68063   6.285  12.241   0.711 -0.3020  0.3847  0.6694
  494MOL0     C68064   6.379  12.348   0.729  0.2835 -0.3151  0.1800
  494MOL0     O68065   6.493  12.350   0.654 -0.7132 -0.4762 -0.6741
  494MOL0     C68066   6.564  12.470   0.649  0.5517  0.9808 -0.2501
  494MOL0     C68067   6.676  12.488   0.729 -0.7999  0.1826 -1.0514
  494MOL0     C68068   6.755  12.600   0.722 -0.6566 -0.7120  0.3793
  494MOL0     C68069   6.708  12.708   0.644 -0.6847 -0.3430 -1.0425
  494MOL0     O68070   6.770  12.830   0.616  0.0831 -0.0674 -0.2274
  494MOL0     C68071   6.880  12.863   0.697  0.3298  0.3919 -0.5862
  494MOL0     C68072   6.916  13.007   0.685 -0.2219 -0.3261  0.6453
  494MOL0     C68073   7.035  13.042   0.779 -0.5646 -0.6365  0.5621
  494MOL0     C68074   7.099  13.178   0.759 -0.5931  0.3330 -0.7661
  494MOL0     C68075   7.016  13.283   0.816  0.7202  0.1571 -0.6173
  494MOL0     C68076   6.927  13.351   0.702 -0.7320  0.4962 -0.1171
  494MOL0     C68077   6.826  13.456   0.765  0.4150  0.0723  0.2754
  494MOL0     C68078   6.707  13.383   0.822 -0.2632 -0.1790 -0.1366
  494MOL0    Cl68079   6.610  13.297   0.699  0.0337  0.1318 -0.3182
  494MOL0     C68080   6.589  12.692   0.575  1.1013  0.0961 -0.4208
  494MOL0     C68081   6.521  12.574   0.571  0.2642  0.0318  0.6675
  494MOL0     O68082   6.346  12.434   0.816  0.4204 -0.6079  0.2235
  494MOL0     C68083   6.320  12.133   0.620 -0.2778 -0.4286 -0.4768
  494MOL0     C68084   6.257  12.015   0.618 -0.3086  0.1557 -0.9500
  494MOL0     N68085   5.694  11.399   0.737  0.6855  0.2286  0.4071
  494MOL0     N68086   5.590  11.337   0.688 -0.1843 -0.0356  0.0292
  494MOL0     C68087   4.366  11.268   0.270  0.9101  0.3540  0.4508
  494MOL0     C68088   4.245  11.215   0.310 -0.1718  0.8920 -0.4966
  494MOL0     C68089   3.923  10.947   0.521  0.5672 -0.1875 -0.3857
  494MOL0     C68090   3.848  10.918   0.633 -0.2974  0.0194  0.5418
  494MOL0     C68091   3.712  10.878   0.622 -0.7420  0.0786  0.3036
  494MOL0     C68092   3.663  10.847   0.494  0.7136  0.0395  0.8629
  494MOL0     O68093   3.537  10.789   0.493  0.0210 -0.5271 -0.0094
  494MOL0     C68094   3.519  10.646   0.443 -0.6719 -0.4311  0.1074
  494MOL0     C68095   3.377  10.599   0.474 -0.8530  0.1206 -0.3515
  494MOL0     C68096   3.273  10.700   0.422  0.7128  0.1941  0.1309
  494MOL0     C68097   3.150  10.627   0.360  0.9643  0.2608  0.0465
  494MOL0     C68098   3.180  10.546   0.239  0.0538 -0.3593  0.6088
  494MOL0     C68099   3.193  10.478   0.140 -0.4962 -0.2389  0.4251
  494MOL0     C68100   3.729  10.882   0.385 -0.4655  0.3036  0.3773
  494MOL0     C68101   3.856  10.939   0.397 -0.7600  0.3935  0.6068
  494MOL0     C68102   3.932  10.940   0.261  0.2190  0.4428  1.0100
  494MOL0     H68103   4.351  11.025   0.574  2.8343 -1.1117 -0.8882
  494MOL0     H68104   4.564  11.090   0.494 -0.2784 -0.9063 -0.0465
  494MOL0     H68105   4.715  11.280   0.432 -2.4517  0.1674 -0.4372
  494MOL0     H68106   4.734  11.422   0.326  3.5528 -0.3383  1.2359
  494MOL0     H68107   4.842  11.151   0.262  0.0644  0.5050 -2.0572
  494MOL0     H68108   4.847  11.291   0.153  2.4079  2.1157 -0.0335
  494MOL0     H68109   4.959  11.418   0.310 -2.1456  0.2654 -1.5596
  494MOL0     H68110   4.984  11.283   0.416 -3.5835  1.5732  0.6253
  494MOL0     H68111   5.082  11.151   0.218  1.6828  0.2271 -1.8273
  494MOL0     H68112   5.072  11.311   0.135 -2.4001  1.2306  0.4326
  494MOL0     H68113   5.221  11.399   0.328 -3.4916  0.4234  0.3460
  494MOL0     H68114   5.301  11.283   0.213  1.7878  1.3900  1.3257
  494MOL0     H68115   5.162  11.175   0.462 -0.8361 -1.4878 -0.3707
  494MOL0     H68116   5.305  11.109   0.369  2.7881 -0.8701  3.4774
  494MOL0     H68117   5.368  11.201   0.600  4.7671 -2.4837 -0.2933
  494MOL0     H68118   5.332  11.358   0.533  0.9140  1.0556 -2.3550
  494MOL0     H68119   5.557  11.163   0.448  2.4448  0.1741  2.5714
  494MOL0     H68120   5.513  11.307   0.358 -3.0875 -0.7949  0.8006
  494MOL0     H68121   5.756  11.415   0.420  1.2257 -2.9419  0.9711
  494MOL0     H68122   5.930  11.544   0.527 -3.5028 -0.9608 -0.6930
  494MOL0     H68123   5.986  11.428   0.651  0.6842 -1.4852 -0.3469
  494MOL0     H68124   5.868  11.703   0.707 -0.1872  0.0520  1.8194
  494MOL0     H68125   5.874  11.570   0.818  0.5883 -0.6661  0.6067
  494MOL0     H68126   6.082  11.703   0.859  2.4889 -0.3231 -0.4700
  494MOL0     H68127   6.138  11.573   0.759  0.7255  1.2468 -0.5981
  494MOL0     H68128   6.230  11.773   0.670 -0.4514  2.0980 -1.6199
  494MOL0     H68129   6.106  11.712   0.561 -1.4662  1.7616 -0.7554
  494MOL0     H68130   6.013  12.085   0.816 -0.9195  4.0221 -0.4473
  494MOL0     H68131   5.982  12.295   0.884  1.1215  0.1085  1.0319
  494MOL0     H68132   6.091  12.420   0.830  2.0328  0.8317  1.4270
  494MOL0     H68133   6.134  12.310   0.966  2.0922  1.6523 -0.8468
  494MOL0     H68134   6.719  12.404   0.785 -0.2914  1.2181  0.1715
  494MOL0     H68135   6.847  12.607   0.778 -1.9027  0.9602  2.3738
  494MOL0     H68136   6.837  12.866   0.797 -3.9491  0.9026 -2.2243
  494MOL0     H68137   6.970  12.802   0.684  0.3665  0.6735 -1.7726
  494MOL0     H68138   6.957  13.013   0.584  2.5759 -2.8466  1.4955
  494MOL0     H68139   6.829  13.072   0.698  0.2182  0.2468  0.7990
  494MOL0     H68140   7.115  12.968   0.769  1.7993  1.4941  2.4835
  494MOL0     H68141   7.004  13.037   0.884 -0.0412 -1.3860  0.6922
  494MOL0     H68142   7.128  13.209   0.658  1.1575 -0.6290 -0.5861
  494MOL0     H68143   7.189  13.167   0.819 -0.6963 -4.4456 -1.1585
  494MOL0     H68144   6.962  13.232   0.897  4.5878 -1.8342  0.9832
  494MOL0     H68145   7.082  13.355   0.865 -0.2471 -0.2204  1.3483
  494MOL0     H68146   6.866  13.292   0.632  0.7173 -0.2118 -0.8278
  494MOL0     H68147   6.996  13.412   0.643 -0.1210 -2.7231 -3.1134
  494MOL0     H68148   6.790  13.527   0.690 -1.4669 -0.8683  0.2308
  494MOL0     H68149   6.874  13.514   0.845  0.2305  1.9059 -0.8703
  494MOL0     H68150   6.645  13.458   0.873  0.8845  0.3397  0.5350
  494MOL0     H68151   6.741  13.318   0.903  1.1596  0.1970 -0.3942
  494MOL0     H68152   6.549  12.777   0.522  0.3904  0.3526  0.4885
  494MOL0     H68153   6.440  12.569   0.499  2.8453  0.8601 -2.5014
  494MOL0     H68154   6.407  12.142   0.555  0.1002 -0.2683  0.0396
  494MOL0     H68155   6.290  11.939   0.547 -1.0592 -0.9580 -0.1506
  494MOL0     H68156   4.372  11.336   0.186  1.2691  0.8936  0.9041
  494MOL0     H68157   4.159  11.267   0.268 -1.0783  0.5195  0.8130
  494MOL0     H68158   3.891  10.937   0.731 -0.0940  0.6265  0.3389
  494MOL0     H68159   3.650  10.849   0.706 -0.8872  0.4555  0.3246
  494MOL0     H68160   3.533  10.641   0.334  1.4599 -0.0048  0.3165
  494MOL0     H68161   3.591  10.578   0.490  0.9365  1.0671 -0.0890
  494MOL0     H68162   3.363  10.587   0.582  1.1824 -0.0245 -0.0674
  494MOL0     H68163   3.370  10.508   0.413 -1.0367  0.9505 -1.6193
  494MOL0     H68164   3.235  10.772   0.496 -2.8169  1.0454 -2.2731
  494MOL0     H68165   3.311  10.769   0.346 -1.8113  0.9943 -0.4967
  494MOL0     H68166   3.080  10.701   0.321  2.9173  2.5082  0.5932
  494MOL0     H68167   3.105  10.560   0.434  2.3165 -1.2493 -0.4357
  494MOL0     H68168   3.205  10.412   0.057  0.2719  0.0067  0.3348
  494MOL0     H68169   3.690  10.856   0.287  0.8817 -0.9031  0.1283
  494MOL0     H68170   3.871  10.901   0.179  1.9531 -2.0031  0.7650
  494MOL0     H68171   3.952  11.046   0.243  1.1005 -0.3351 -4.1164
  494MOL0     H68172   4.021  10.876   0.264 -1.2828 -1.7548  1.7731
  495MOL0     O68173   8.722  10.824   3.947 -0.6753 -0.5722 -0.5415
  495MOL0     C68174   8.627  10.886   3.993 -0.3221 -0.6221 -0.0351
  495MOL0     O68175   8.519  10.826   4.062 -0.7985 -0.1552 -0.4720
  495MOL0     C68176   8.547  10.691   4.081  0.0289  0.0198  0.1773
  495MOL0     C68177   8.470  10.604   4.005  0.6880  0.5699 -0.2951
  495MOL0     C68178   8.487  10.466   4.029  0.2482  0.8424  0.5884
  495MOL0     C68179   8.577  10.404   4.118 -0.4851 -0.4142  0.3759
  495MOL0     O68180   8.570  10.267   4.133 -0.2690 -0.4629  0.2331
  495MOL0     C68181   8.685  10.201   4.184 -0.7774  0.4695  0.6815
  495MOL0     C68182   8.669  10.060   4.126  0.0925 -0.9036  0.2736
  495MOL0     C68183   8.793   9.989   4.113  0.6361 -0.2945  0.2276
  495MOL0     C68184   8.786   9.845   4.070 -0.1613  0.4104 -0.1443
  495MOL0     C68185   8.730   9.823   3.933 -0.8308 -1.1427 -0.0531
  495MOL0     C68186   8.785   9.694   3.874  1.0493  0.5987  0.4595
  495MOL0     C68187   8.714   9.657   3.746  0.4950  0.3482  1.1699
  495MOL0     C68188   8.579   9.583   3.765  0.5012 -0.9347 -0.4372
  495MOL0     N68189   8.485   9.586   3.654 -0.3429  0.0951  0.5591
  495MOL0     C68190   8.493   9.501   3.544 -0.4104 -0.6934  0.0028
  495MOL0     C68191   8.404   9.548   3.448  0.7850 -1.3924 -0.0914
  495MOL0     C68192   8.400   9.518   3.301  0.3310 -0.3013  0.1545
  495MOL0     C68193   8.255   9.493   3.260  1.1436  0.1773  0.8476
  495MOL0     C68194   8.236   9.477   3.115 -0.1672  1.4628  0.4760
  495MOL0     C68195   8.100   9.445   3.071  0.5164  0.0455  0.9913
  495MOL0     O68196   8.075   9.317   3.117 -0.5185  0.4042 -0.2664
  495MOL0     C68197   7.948   9.269   3.078  0.2718 -0.5475 -0.4668
  495MOL0     C68198   7.864   9.328   2.985 -0.0642  0.1389  1.7167
  495MOL0     C68199   7.740   9.271   2.937  0.4098 -0.1064 -1.0990
  495MOL0     C68200   7.652   9.348   2.838  0.0799 -0.2951  0.0468
  495MOL0     C68201   7.686   9.156   3.005 -0.6195 -0.2656 -0.2589
  495MOL0     C68202   7.559   9.101   2.966  0.6456 -0.0115  0.1461
  495MOL0     O68203   7.448   9.098   3.048  0.2242 -0.4353  0.3220
  495MOL0     C68204   7.334   9.033   3.014  0.6084  0.5640 -0.7056
  495MOL0     C68205   7.284   8.937   3.114  0.9012 -0.7573 -0.2047
  495MOL0     C68206   7.178   8.848   3.081 -0.2885 -0.2866 -0.3394
  495MOL0     C68207   7.113   8.857   2.957  0.6496 -0.0753 -0.1929
  495MOL0     O68208   7.000   8.777   2.949 -0.0291 -0.1767  0.3753
  495MOL0     C68209   6.905   8.790   2.834  0.2040  0.3396 -0.9887
  495MOL0     C68210   6.786   8.700   2.882  0.3834 -0.8722 -0.7497
  495MOL0     C68211   6.691   8.684   2.764  0.0452 -0.5038  0.0675
  495MOL0     C68212   6.593   8.570   2.779  0.3178 -0.9482 -1.0481
  495MOL0     C68213   6.499   8.593   2.898 -0.3885 -0.7334 -0.2630
  495MOL0     C68214   6.436   8.742   2.909  0.5247 -0.0798  0.3024
  495MOL0     C68215   6.332   8.749   3.025 -1.2090  0.3143 -0.2891
  495MOL0     C68216   6.394   8.724   3.164  0.3354 -0.8930 -0.6805
  495MOL0    Cl68217   6.270   8.772   3.278  0.5897  0.1084  0.1993
  495MOL0     C68218   7.150   8.959   2.863  0.3513 -0.9794 -0.9914
  495MOL0     C68219   7.264   9.041   2.895  0.7695 -0.1023 -0.1189
  495MOL0     O68220   7.557   9.040   2.859  0.4270 -0.3917  0.7213
  495MOL0     C68221   7.766   9.086   3.104  0.2264  0.2346  0.3558
  495MOL0     C68222   7.896   9.143   3.127 -1.2757  0.0130 -0.7021
  495MOL0     N68223   8.339   9.654   3.520  0.5151  0.0821 -0.3592
  495MOL0     N68224   8.393   9.685   3.630 -0.5912 -0.0285 -0.5293
  495MOL0     C68225   8.659  10.499   4.188 -0.3937  0.5341 -0.2907
  495MOL0     C68226   8.646  10.635   4.169  0.3212 -0.3449 -0.2408
  495MOL0     C68227   8.624  11.035   3.979  0.9441  0.7961 -0.8374
  495MOL0     C68228   8.514  11.097   4.037  0.3173  0.5221 -0.5944
  495MOL0     C68229   8.500  11.238   4.048  0.4190  0.1035  0.0999
  495MOL0     C68230   8.587  11.320   3.979  0.0596 -0.2915  0.5927
  495MOL0     O68231   8.553  11.457   3.981 -0.1846  0.3017  1.1416
  495MOL0     C68232   8.665  11.548   3.982  0.3341  0.2724  0.6897
  495MOL0     C68233   8.615  11.696   3.978 -0.1457  0.0063 -0.8157
  495MOL0     C68234   8.538  11.713   3.847  1.1201  0.0004 -0.1131
  495MOL0     C68235   8.391  11.741   3.876 -0.3079 -0.5625  0.1062
  495MOL0     C68236   8.346  11.818   3.765  0.0812 -0.0628  0.5898
  495MOL0     C68237   8.324  11.892   3.670 -0.2754 -0.9468 -0.0448
  495MOL0     C68238   8.719  11.264   3.942  0.4616  0.2133  0.1870
  495MOL0     C68239   8.728  11.118   3.925  0.0486 -0.1459 -0.1805
  495MOL0     C68240   8.860  11.062   3.878 -0.1176 -0.0550  0.0404
  495MOL0     H68241   8.392  10.640   3.938 -0.6031 -1.8123 -0.1725
  495MOL0     H68242   8.420  10.396   3.981  1.0182  0.3334  0.2438
  495MOL0     H68243   8.693  10.203   4.293  1.7843 -0.2028  0.5820
  495MOL0     H68244   8.779  10.244   4.148  0.4491 -0.3595  2.7354
  495MOL0     H68245   8.594  10.004   4.184  0.0200 -4.5437 -2.9205
  495MOL0     H68246   8.629  10.066   4.024  0.8298  2.2466  0.0776
  495MOL0     H68247   8.854  10.043   4.040  1.3392 -2.2032 -0.6635
  495MOL0     H68248   8.848   9.995   4.207  2.2868 -1.5010 -0.6154
  495MOL0     H68249   8.890   9.811   4.074  0.3650  1.4339 -2.7462
  495MOL0     H68250   8.721   9.787   4.136 -0.6847  2.1915  0.9666
  495MOL0     H68251   8.744   9.910   3.867 -1.5318 -1.3923 -0.5445
  495MOL0     H68252   8.622   9.813   3.943 -0.8362 -0.4186  0.7345
  495MOL0     H68253   8.893   9.701   3.859  0.9472 -0.7421 -1.3084
  495MOL0     H68254   8.770   9.608   3.939 -3.3730  0.3319 -0.6302
  495MOL0     H68255   8.776   9.602   3.674 -0.9196  0.2544 -0.0226
  495MOL0     H68256   8.690   9.745   3.686  2.1537  0.1982  0.2093
  495MOL0     H68257   8.591   9.483   3.807  2.8323 -0.6467 -0.3186
  495MOL0     H68258   8.533   9.646   3.842  2.9988  0.8880 -0.3265
  495MOL0     H68259   8.563   9.419   3.533  1.8839  0.8871  1.7111
  495MOL0     H68260   8.447   9.429   3.259 -0.4223 -0.0182 -1.3878
  495MOL0     H68261   8.442   9.605   3.249  2.8100 -2.2136 -1.2656
  495MOL0     H68262   8.214   9.403   3.307 -0.8837 -1.9603 -4.2911
  495MOL0     H68263   8.206   9.587   3.289  2.4158  1.4724 -0.9208
  495MOL0     H68264   8.255   9.571   3.063  1.5510 -0.3432 -2.4883
  495MOL0     H68265   8.302   9.406   3.065 -1.2233  1.6682 -1.3029
  495MOL0     H68266   8.031   9.515   3.119  2.5932  3.3787 -0.5318
  495MOL0     H68267   8.113   9.462   2.964  4.1301  1.1646  1.4790
  495MOL0     H68268   7.896   9.412   2.924  0.2438 -1.3666 -0.3109
  495MOL0     H68269   7.591   9.294   2.765 -3.5310  0.5390  2.2235
  495MOL0     H68270   7.716   9.406   2.771  1.0178  0.5354  1.6023
  495MOL0     H68271   7.601   9.429   2.890 -0.9585  0.2639 -1.7660
  495MOL0     H68272   7.332   8.936   3.212 -1.2411  2.9707  1.0755
  495MOL0     H68273   7.141   8.781   3.158  1.3988 -1.6982 -0.6926
  495MOL0     H68274   6.872   8.894   2.819  2.0765  1.0986 -0.2190
  495MOL0     H68275   6.946   8.745   2.743  0.5720 -0.8374 -0.2639
  495MOL0     H68276   6.827   8.603   2.909 -0.1554 -1.1020 -0.7601
  495MOL0     H68277   6.727   8.736   2.966  1.6330 -2.8757  1.0839
  495MOL0     H68278   6.745   8.650   2.676 -0.5896 -0.4987 -0.3312
  495MOL0     H68279   6.640   8.780   2.754 -1.0676 -0.7163  2.7299
  495MOL0     H68280   6.645   8.476   2.800  0.5484 -0.6331 -0.1608
  495MOL0     H68281   6.528   8.563   2.692 -0.6138 -3.3591 -0.2439
  495MOL0     H68282   6.414   8.525   2.885 -0.8421 -0.0308 -1.0985
  495MOL0     H68283   6.559   8.566   2.985 -2.0607 -5.6355 -0.3462
  495MOL0     H68284   6.384   8.760   2.813 -1.1027 -0.8747  0.9935
  495MOL0     H68285   6.512   8.818   2.930  2.0689 -1.7409  0.9573
  495MOL0     H68286   6.258   8.669   3.014 -1.8216  0.2563  3.1442
  495MOL0     H68287   6.296   8.852   3.018 -0.9646  0.5877  1.8527
  495MOL0     H68288   6.482   8.780   3.197 -1.0453  0.6520  0.5507
  495MOL0     H68289   6.409   8.616   3.176  0.4124 -0.7655  0.5262
  495MOL0     H68290   7.108   8.998   2.770 -1.8602 -0.2146  0.2446
  495MOL0     H68291   7.297   9.118   2.826  0.6167  1.2218  1.2356
  495MOL0     H68292   7.734   8.989   3.141 -1.0673  0.8312  0.8424
  495MOL0     H68293   7.951   9.082   3.198 -2.4985 -2.4854 -1.8036
  495MOL0     H68294   8.726  10.467   4.268 -5.0464  1.5919  4.5889
  495MOL0     H68295   8.709  10.699   4.231 -1.1895 -0.9600  2.0504
  495MOL0     H68296   8.430  11.042   4.078  1.8116  0.6060  3.0129
  495MOL0     H68297   8.410  11.266   4.103  1.0406 -4.9309  4.5140
  495MOL0     H68298   8.704  11.511   4.077 -1.4036  2.3827  2.3018
  495MOL0     H68299   8.734  11.533   3.898 -1.2739  4.9121 -1.8452
  495MOL0     H68300   8.701  11.763   3.982  0.2604 -0.5024 -0.9393
  495MOL0     H68301   8.557  11.715   4.069  1.9145  1.4655  0.2757
  495MOL0     H68302   8.580  11.795   3.788  0.0838  1.1725  0.6953
  495MOL0     H68303   8.555  11.622   3.790  0.4386  0.1018 -0.4954
  495MOL0     H68304   8.381  11.795   3.971  1.9123 -1.7373  1.0923
  495MOL0     H68305   8.326  11.657   3.900  2.3260 -2.1293  2.3407
  495MOL0     H68306   8.320  11.950   3.580  7.0308  0.2397 -0.2136
  495MOL0     H68307   8.801  11.321   3.899  1.5930  0.0779  2.0619
  495MOL0     H68308   8.898  10.983   3.944  1.3732  2.1376  1.9294
  495MOL0     H68309   8.863  11.025   3.775 -0.0344 -1.1060  0.4080
  495MOL0     H68310   8.926  11.144   3.904 -0.3647 -0.9867  4.3884
  496MOL0     O68311   6.168   4.377   4.644 -0.3067 -0.1799 -0.2357
  496MOL0     C68312   6.074   4.431   4.579 -0.7581 -0.8441  0.0989
  496MOL0     O68313   5.943   4.404   4.594  0.1856 -0.0687 -0.0355
  496MOL0     C68314   5.898   4.362   4.718  0.6798 -0.3371  0.0516
  496MOL0     C68315   5.924   4.235   4.766  0.5217 -0.1624 -0.0720
  496MOL0     C68316   5.853   4.184   4.879 -0.1002 -0.2005 -0.4081
  496MOL0     C68317   5.765   4.260   4.945  0.3054  0.2820  0.7253
  496MOL0     O68318   5.687   4.205   5.039  0.3683 -0.1713 -0.2012
  496MOL0     C68319   5.565   4.270   5.089 -1.5932 -0.0132  0.5793
  496MOL0     C68320   5.488   4.178   5.183 -1.0238  0.4904 -0.3269
  496MOL0     C68321   5.467   4.043   5.134 -0.1141 -0.0085  0.5516
  496MOL0     C68322   5.404   3.946   5.225 -1.0953 -0.1354 -0.0511
  496MOL0     C68323   5.397   3.810   5.144 -0.1076  0.5510 -0.6292
  496MOL0     C68324   5.370   3.695   5.236  1.2711  0.0907  0.4331
  496MOL0     C68325   5.374   3.557   5.171  0.4528 -0.1910  0.0546
  496MOL0     C68326   5.377   3.442   5.276 -0.3421  0.4483  0.5043
  496MOL0     N68327   5.490   3.431   5.374 -0.1941  0.5208  0.3857
  496MOL0     C68328   5.606   3.491   5.349  0.0564 -0.4434 -0.5046
  496MOL0     C68329   5.685   3.481   5.463  0.0536  0.7757 -0.0997
  496MOL0     C68330   5.799   3.577   5.481 -0.4536  0.6335 -0.7037
  496MOL0     C68331   5.782   3.657   5.609 -0.2702  0.3898 -0.3971
  496MOL0     C68332   5.665   3.745   5.584 -0.0680  0.4013 -0.6809
  496MOL0     C68333   5.699   3.855   5.473  0.3160 -0.7510 -0.1227
  496MOL0     O68334   5.815   3.922   5.523  0.2093 -0.1372  0.8984
  496MOL0     C68335   5.866   4.038   5.473  0.5090 -0.2579 -0.1779
  496MOL0     C68336   5.975   4.099   5.534 -0.2348 -1.1787  0.3270
  496MOL0     C68337   6.018   4.236   5.505 -0.5987 -1.4035 -0.5777
  496MOL0     C68338   6.131   4.290   5.583  0.1331 -0.3752  0.6231
  496MOL0     C68339   5.952   4.304   5.394  0.1604  0.3376 -0.6614
  496MOL0     C68340   5.992   4.442   5.344  0.5097  1.2072 -0.3481
  496MOL0     O68341   5.954   4.479   5.226 -0.0544 -0.3792 -0.2892
  496MOL0     C68342   6.033   4.560   5.151  0.2876 -0.3577 -0.5775
  496MOL0     C68343   6.062   4.522   5.020  0.0585 -0.9245  1.0653
  496MOL0     C68344   6.147   4.610   4.943  1.0192  0.9783  0.8467
  496MOL0     C68345   6.180   4.737   4.987 -0.8597 -0.3051  0.3394
  496MOL0     O68346   6.256   4.817   4.896  0.2837  0.5220 -0.6226
  496MOL0     C68347   6.298   4.939   4.938  0.5258 -0.4472  0.8673
  496MOL0     C68348   6.385   5.004   4.824 -1.0736  0.5549  0.0459
  496MOL0     C68349   6.509   5.060   4.879  0.2912  0.3804  0.8684
  496MOL0     C68350   6.485   5.167   4.985  0.1794  1.4340  0.8290
  496MOL0     C68351   6.605   5.254   4.982 -0.9531  0.0268  0.0230
  496MOL0     C68352   6.609   5.355   5.096  0.0629 -0.7848  0.3328
  496MOL0     C68353   6.747   5.419   5.118 -0.1797 -0.1770  0.5696
  496MOL0     C68354   6.731   5.528   5.217 -0.1483  0.1417 -0.2208
  496MOL0    Cl68355   6.879   5.566   5.289 -0.1848 -0.4589  0.2422
  496MOL0     C68356   6.133   4.776   5.111 -0.1778 -0.6814  1.0859
  496MOL0     C68357   6.053   4.693   5.194 -0.2018  0.8474 -0.4602
  496MOL0     O68358   6.061   4.508   5.420  0.0302  0.6140  0.3140
  496MOL0     C68359   5.844   4.237   5.326 -0.0817  0.4986  0.5474
  496MOL0     C68360   5.810   4.104   5.369  0.4200 -0.1300  0.7971
  496MOL0     N68361   5.615   3.404   5.545  0.2148  0.7842 -0.7088
  496MOL0     N68362   5.493   3.383   5.498  0.5473  0.2089 -0.1466
  496MOL0     C68363   5.757   4.393   4.912  0.3530  0.9809  0.8191
  496MOL0     C68364   5.823   4.443   4.803 -0.3129 -0.6821  0.2043
  496MOL0     C68365   6.120   4.539   4.491 -0.0499 -0.3578  0.1115
  496MOL0     C68366   6.191   4.649   4.529  0.1195 -0.4492 -0.7535
  496MOL0     C68367   6.254   4.728   4.444  0.1462 -0.1720  0.4219
  496MOL0     C68368   6.234   4.706   4.312  0.0658 -0.6237 -0.3015
  496MOL0     O68369   6.290   4.779   4.201 -0.0791 -0.8665 -0.3404
  496MOL0     C68370   6.435   4.766   4.193 -0.6800 -0.6091  0.3450
  496MOL0     C68371   6.498   4.911   4.183  0.2730  0.4970  0.5331
  496MOL0     C68372   6.440   5.011   4.077  0.2609  0.5958  0.4823
  496MOL0     C68373   6.459   4.958   3.937  0.2604 -0.3700  0.4752
  496MOL0     C68374   6.594   4.992   3.895  1.2428  0.7502  0.1085
  496MOL0     C68375   6.716   5.008   3.868  0.2910  0.3362 -0.4123
  496MOL0     C68376   6.140   4.619   4.269 -0.4191  0.0599 -0.6284
  496MOL0     C68377   6.092   4.523   4.362 -0.2518 -0.1552  0.5458
  496MOL0     C68378   6.019   4.413   4.304 -0.0750  0.6620 -0.4631
  496MOL0     H68379   5.998   4.180   4.709  1.7331 -2.1168  3.1088
  496MOL0     H68380   5.864   4.077   4.898  3.6607 -0.0897 -1.0753
  496MOL0     H68381   5.497   4.284   5.005  0.8184 -2.0911 -1.9091
  496MOL0     H68382   5.592   4.365   5.137 -0.9680  0.3354 -0.4366
  496MOL0     H68383   5.542   4.167   5.278 -0.9718  2.0141 -0.1536
  496MOL0     H68384   5.394   4.228   5.206 -0.4775  1.5732 -0.3933
  496MOL0     H68385   5.415   4.047   5.038 -0.8633 -2.8775  0.7362
  496MOL0     H68386   5.559   3.986   5.116 -1.8132 -3.6441  2.2422
  496MOL0     H68387   5.479   3.932   5.304 -0.5516  1.3254 -0.2841
  496MOL0     H68388   5.311   3.977   5.273 -0.5226 -0.2896  1.2015
  496MOL0     H68389   5.496   3.784   5.104  0.1617 -0.5293  0.6665
  496MOL0     H68390   5.321   3.817   5.065 -1.2012 -0.4070  0.3009
  496MOL0     H68391   5.442   3.709   5.316  0.9639  0.4359  0.6525
  496MOL0     H68392   5.272   3.705   5.285  1.4861 -1.4675  1.2416
  496MOL0     H68393   5.446   3.559   5.088  1.5058  1.9629  0.9269
  496MOL0     H68394   5.283   3.542   5.114  0.0764 -2.1272  1.0605
  496MOL0     H68395   5.292   3.441   5.344 -0.2955 -2.7081  0.6600
  496MOL0     H68396   5.359   3.344   5.233  0.2341  0.1188  0.9909
  496MOL0     H68397   5.615   3.548   5.257  0.2267  0.1974 -0.0922
  496MOL0     H68398   5.816   3.638   5.392  0.0574  0.1420 -0.9454
  496MOL0     H68399   5.889   3.516   5.489 -1.0135 -0.0736  0.6631
  496MOL0     H68400   5.760   3.592   5.694  0.5186  0.8311  0.1519
  496MOL0     H68401   5.864   3.721   5.643  1.1551 -1.4361 -0.2243
  496MOL0     H68402   5.584   3.686   5.540 -0.3857 -1.5027  2.2491
  496MOL0     H68403   5.625   3.798   5.671 -1.1372 -2.2174  0.5190
  496MOL0     H68404   5.702   3.821   5.370  2.7330  2.6983 -1.4021
  496MOL0     H68405   5.608   3.915   5.483 -0.7329 -2.4374  1.0424
  496MOL0     H68406   6.019   4.053   5.622  1.7290 -0.5376 -0.2539
  496MOL0     H68407   6.183   4.217   5.645  0.9112 -0.4869 -0.1466
  496MOL0     H68408   6.085   4.366   5.647  0.7005  1.4045 -0.9734
  496MOL0     H68409   6.200   4.336   5.511 -1.4633  1.2812  0.0735
  496MOL0     H68410   6.043   4.421   4.983 -1.0079 -1.3925  2.7564
  496MOL0     H68411   6.180   4.575   4.846 -1.1736 -0.6166  0.6085
  496MOL0     H68412   6.219   5.008   4.967 -0.6317 -0.3365 -2.1885
  496MOL0     H68413   6.358   4.921   5.028 -1.6256 -0.5911  2.3590
  496MOL0     H68414   6.410   4.934   4.744  0.4678  0.0693  0.9061
  496MOL0     H68415   6.320   5.080   4.780 -2.1632  0.5693  1.5672
  496MOL0     H68416   6.561   5.103   4.793  0.2169  4.6639  2.7353
  496MOL0     H68417   6.590   4.999   4.921  1.7457  1.9192  0.4174
  496MOL0     H68418   6.461   5.127   5.084 -1.5396  2.3323  0.8157
  496MOL0     H68419   6.409   5.230   4.938 -1.0299 -1.0370 -0.7301
  496MOL0     H68420   6.694   5.190   4.981 -1.1652 -0.2949  0.9986
  496MOL0     H68421   6.616   5.312   4.890 -2.6888 -0.9334 -0.8451
  496MOL0     H68422   6.571   5.317   5.191 -0.6325  1.6626  1.1225
  496MOL0     H68423   6.536   5.433   5.073  0.5104 -0.4417  0.0451
  496MOL0     H68424   6.777   5.474   5.028  0.8241 -0.8739  0.4668
  496MOL0     H68425   6.814   5.338   5.146  0.3033 -0.1101 -0.3532
  496MOL0     H68426   6.660   5.497   5.294 -2.5777 -0.8619 -2.7181
  496MOL0     H68427   6.694   5.617   5.165  2.6957 -0.5103 -3.7544
  496MOL0     H68428   6.143   4.877   5.150  1.0304 -0.7777  1.0808
  496MOL0     H68429   6.009   4.729   5.286  2.0338  1.1941  0.5357
  496MOL0     H68430   5.796   4.291   5.244  0.7260 -1.6344 -1.4393
  496MOL0     H68431   5.731   4.056   5.312 -1.6339  0.3638  3.0535
  496MOL0     H68432   5.692   4.467   4.959  0.5201  1.6325  0.0436
  496MOL0     H68433   5.813   4.545   4.769 -1.1415  0.2238  2.9140
  496MOL0     H68434   6.220   4.680   4.629  2.9560  0.5056 -1.7690
  496MOL0     H68435   6.327   4.807   4.462 -0.3983  0.0206  1.9870
  496MOL0     H68436   6.470   4.712   4.281  2.9688 -3.6209 -2.6385
  496MOL0     H68437   6.463   4.712   4.102  1.0749  2.4344 -1.0859
  496MOL0     H68438   6.607   4.910   4.180  0.4808  1.3753  3.8948
  496MOL0     H68439   6.480   4.953   4.283 -0.5949  1.5933 -0.0717
  496MOL0     H68440   6.335   5.011   4.109 -0.0280  1.7167 -0.3794
  496MOL0     H68441   6.477   5.113   4.088 -3.4655  2.3865 -1.3883
  496MOL0     H68442   6.384   5.006   3.873 -1.9750 -0.0420  3.1693
  496MOL0     H68443   6.449   4.849   3.928  1.0911 -0.5816  1.8284
  496MOL0     H68444   6.820   5.034   3.862  0.3838  0.1287  0.2139
  496MOL0     H68445   6.111   4.615   4.164 -1.4793 -1.2811 -0.3112
  496MOL0     H68446   6.058   4.318   4.342  3.6897  2.2630  0.1774
  496MOL0     H68447   5.917   4.426   4.338 -0.3732  1.9272 -1.7298
  496MOL0     H68448   6.025   4.400   4.195  1.9101 -1.4389 -0.1839
  497MOL0     O68449   7.824   3.624   8.855  0.6014 -0.0074  0.2015
  497MOL0     C68450   7.900   3.628   8.947 -0.5916 -0.4987 -0.5938
  497MOL0     O68451   7.864   3.667   9.066 -0.8989 -1.0869 -0.3147
  497MOL0     C68452   7.730   3.699   9.101 -0.0404  0.0454 -0.7857
  497MOL0     C68453   7.691   3.679   9.235 -0.2147  0.2748 -0.4484
  497MOL0     C68454   7.579   3.729   9.298 -1.2218  0.3620  0.0288
  497MOL0     C68455   7.495   3.804   9.216  0.1877 -0.2523  0.0784
  497MOL0     O68456   7.369   3.839   9.275 -0.6632  0.8109  0.5296
  497MOL0     C68457   7.283   3.930   9.206 -0.0376 -0.6766 -0.2582
  497MOL0     C68458   7.155   3.943   9.300  0.4104  0.8072  0.4295
  497MOL0     C68459   7.040   4.008   9.220 -0.2388 -0.0474 -0.1189
  497MOL0     C68460   6.970   3.918   9.121 -0.7817  0.9887  0.3527
  497MOL0     C68461   6.827   3.957   9.099  0.6193  0.5967  0.2927
  497MOL0     C68462   6.820   4.086   9.015  0.8625  0.1205  0.6986
  497MOL0     C68463   6.666   4.098   8.972 -0.7912  0.7797  0.1510
  497MOL0     C68464   6.631   4.230   8.903 -0.8375 -0.4495 -1.0113
  497MOL0     N68465   6.497   4.208   8.837 -0.2128 -0.4052 -0.5699
  497MOL0     C68466   6.364   4.214   8.887 -0.3838  0.5520  0.1160
  497MOL0     C68467   6.288   4.188   8.785 -0.5216  0.2226 -0.7918
  497MOL0     C68468   6.138   4.170   8.801  0.3093  1.0945 -0.0701
  497MOL0     C68469   6.097   4.032   8.755  0.2340  1.8180  0.5205
  497MOL0     C68470   5.944   4.018   8.751  0.2628  0.6896 -0.0271
  497MOL0     C68471   5.893   3.887   8.711  0.1617  0.1441  0.1052
  497MOL0     O68472   5.955   3.820   8.603 -0.1552  0.0366 -0.8272
  497MOL0     C68473   5.960   3.679   8.605  0.0772 -0.9720  0.1497
  497MOL0     C68474   6.075   3.623   8.568 -0.5292  0.0589 -0.5108
  497MOL0     C68475   6.100   3.489   8.555 -0.5093  0.4915  0.1887
  497MOL0     C68476   6.229   3.449   8.486  0.0152 -0.0774 -0.0219
  497MOL0     C68477   6.005   3.392   8.588 -0.4345 -0.7277 -0.8067
  497MOL0     C68478   6.025   3.253   8.563  0.0896  0.1681 -1.3018
  497MOL0     O68479   5.930   3.188   8.487 -0.1052  1.8893  0.1167
  497MOL0     C68480   5.960   3.061   8.439 -0.3847 -0.8206  0.4106
  497MOL0     C68481   5.908   2.955   8.507 -0.9510  0.1190  0.0407
  497MOL0     C68482   5.928   2.823   8.456  0.9102 -0.4769  0.6426
  497MOL0     C68483   5.985   2.811   8.328  0.6038 -0.5229 -0.6496
  497MOL0     O68484   5.980   2.692   8.263 -0.2617 -0.1281 -0.5138
  497MOL0     C68485   5.896   2.583   8.308 -0.6550  0.4388 -0.3530
  497MOL0     C68486   5.984   2.458   8.275 -0.3772 -1.1529 -1.1318
  497MOL0     C68487   5.917   2.338   8.334 -0.5595  0.7962 -0.2184
  497MOL0     C68488   6.004   2.274   8.440  0.9585 -0.8835 -0.0155
  497MOL0     C68489   6.010   2.361   8.576  0.5215  0.0356 -0.7795
  497MOL0     C68490   6.092   2.300   8.691  0.3178 -0.7964 -0.0894
  497MOL0     C68491   6.232   2.374   8.712  0.8414  0.2296 -0.3642
  497MOL0     C68492   6.315   2.357   8.582  0.8476 -0.2649 -1.3344
  497MOL0    Cl68493   6.484   2.389   8.623  0.1289  0.4256  0.2518
  497MOL0     C68494   6.044   2.921   8.261 -0.0693 -0.0419  0.0857
  497MOL0     C68495   6.028   3.049   8.319  0.0293  0.6346  0.4030
  497MOL0     O68496   6.126   3.205   8.609  0.7105 -0.8489 -0.0408
  497MOL0     C68497   5.885   3.445   8.627  0.4697 -0.3792  0.2406
  497MOL0     C68498   5.863   3.584   8.636  0.0968 -0.3362 -0.5961
  497MOL0     N68499   6.368   4.171   8.673 -0.3449 -0.7170 -0.7525
  497MOL0     N68500   6.493   4.191   8.705  0.3778 -0.2970 -0.0933
  497MOL0     C68501   7.526   3.829   9.082 -0.1052 -1.0740  0.7100
  497MOL0     C68502   7.640   3.773   9.022  0.1117  0.4553 -0.4598
  497MOL0     C68503   8.049   3.604   8.921  0.2384 -0.6731  0.3637
  497MOL0     C68504   8.127   3.621   9.034  0.1443  0.5176 -1.6939
  497MOL0     C68505   8.267   3.607   9.024  0.0563  0.2906 -0.2662
  497MOL0     C68506   8.330   3.557   8.918 -0.0568  0.6849 -0.1188
  497MOL0     O68507   8.463   3.533   8.935 -0.4027 -0.1671 -0.5636
  497MOL0     C68508   8.560   3.543   8.824 -0.3005  0.7972 -0.6061
  497MOL0     C68509   8.699   3.536   8.888  0.1098 -0.2670  0.0208
  497MOL0     C68510   8.717   3.663   8.975  0.2725 -0.6891 -0.4284
  497MOL0     C68511   8.805   3.634   9.099 -0.7476 -0.9980  0.1990
  497MOL0     C68512   8.799   3.758   9.187 -0.3794  0.6153 -0.1911
  497MOL0     C68513   8.777   3.857   9.248 -0.0856  0.4929  0.8112
  497MOL0     C68514   8.261   3.542   8.801 -0.0559 -0.5668  1.1622
  497MOL0     C68515   8.117   3.566   8.805 -0.1825  0.4602  1.4516
  497MOL0     C68516   8.054   3.538   8.673 -0.5944 -0.1216 -0.3943
  497MOL0     H68517   7.762   3.621   9.294  4.1998  3.2638 -2.2388
  497MOL0     H68518   7.552   3.717   9.402  0.9903  2.2593  0.9083
  497MOL0     H68519   7.256   3.905   9.103 -2.7418  3.1453 -0.7154
  497MOL0     H68520   7.330   4.029   9.214  1.3066 -1.3402  0.2092
  497MOL0     H68521   7.136   3.843   9.339 -1.3114  0.4531 -1.1858
  497MOL0     H68522   7.183   4.004   9.387 -2.2903 -2.0387  3.6038
  497MOL0     H68523   6.959   4.038   9.287  1.2931 -0.9244  2.2727
  497MOL0     H68524   7.071   4.097   9.164 -0.2665  0.6409  0.9213
  497MOL0     H68525   7.015   3.927   9.022  3.6487  0.0747  2.0337
  497MOL0     H68526   6.973   3.816   9.159 -1.8232  0.8120 -0.0105
  497MOL0     H68527   6.764   3.952   9.188 -0.8558 -1.8350 -0.7907
  497MOL0     H68528   6.789   3.872   9.042  2.1219 -0.0148  0.1683
  497MOL0     H68529   6.836   4.167   9.085 -2.1575  2.4725 -1.0799
  497MOL0     H68530   6.900   4.105   8.942  1.5349  0.1853  1.4439
  497MOL0     H68531   6.614   4.092   9.068  2.0884 -0.6849  1.7584
  497MOL0     H68532   6.636   4.018   8.903 -0.0228 -0.5931  1.3312
  497MOL0     H68533   6.645   4.314   8.973  1.4952 -1.0472 -0.6827
  497MOL0     H68534   6.706   4.246   8.826  0.3002 -0.6169  0.0315
  497MOL0     H68535   6.331   4.238   8.988 -2.1497  0.3150 -0.3753
  497MOL0     H68536   6.092   4.251   8.743  2.7269  1.7833 -1.1897
  497MOL0     H68537   6.115   4.180   8.907  2.4758 -1.1390  0.7152
  497MOL0     H68538   6.137   4.008   8.656 -1.4271 -1.8923  0.5944
  497MOL0     H68539   6.127   3.960   8.831  0.8587  1.6780  0.1487
  497MOL0     H68540   5.912   4.046   8.852 -1.1970  1.6669 -0.7271
  497MOL0     H68541   5.901   4.089   8.680  2.0973 -1.4643 -3.5650
  497MOL0     H68542   5.914   3.821   8.796 -2.5014 -0.1574  0.6343
  497MOL0     H68543   5.790   3.887   8.674  1.0260  0.8712 -2.4539
  497MOL0     H68544   6.165   3.681   8.550  1.8481 -2.5714  2.0334
  497MOL0     H68545   6.265   3.347   8.496  3.9694  1.2603  1.4887
  497MOL0     H68546   6.318   3.505   8.517 -1.8703  3.0975  0.1255
  497MOL0     H68547   6.213   3.457   8.378  1.2648  2.6113 -0.1041
  497MOL0     H68548   5.858   2.965   8.604  2.1445  0.2236  1.7599
  497MOL0     H68549   5.918   2.735   8.519  1.5230 -1.6145 -0.7941
  497MOL0     H68550   5.885   2.578   8.417 -1.5058 -0.0808 -0.4531
  497MOL0     H68551   5.803   2.575   8.253  0.0523  0.8634 -1.6449
  497MOL0     H68552   5.996   2.452   8.166 -1.3456 -1.9203 -1.2134
  497MOL0     H68553   6.083   2.473   8.319 -0.6529 -2.2283 -0.1177
  497MOL0     H68554   5.890   2.274   8.249  0.7877  2.9929 -2.4597
  497MOL0     H68555   5.820   2.364   8.376 -0.4879 -1.7976  1.7681
  497MOL0     H68556   6.106   2.274   8.400  0.8944  2.0176 -0.4331
  497MOL0     H68557   5.968   2.173   8.460  1.5584 -1.2949 -0.9151
  497MOL0     H68558   6.054   2.458   8.553 -0.9960  1.5862  2.1963
  497MOL0     H68559   5.910   2.384   8.615 -0.2110  1.5525 -3.2988
  497MOL0     H68560   6.106   2.200   8.647 -1.0250 -0.7315 -0.6986
  497MOL0     H68561   6.037   2.300   8.785  5.3503  0.7106  3.3017
  497MOL0     H68562   6.272   2.315   8.795 -1.0885 -1.5569 -0.6423
  497MOL0     H68563   6.226   2.480   8.738  3.5738  0.4363 -0.2218
  497MOL0     H68564   6.293   2.423   8.497 -2.0295 -0.8305 -1.1538
  497MOL0     H68565   6.309   2.248   8.570  3.4431 -1.2100  3.4472
  497MOL0     H68566   6.099   2.919   8.168 -0.0063 -0.0971  0.1240
  497MOL0     H68567   6.081   3.130   8.269  0.8246 -0.9628 -1.5148
  497MOL0     H68568   5.800   3.377   8.627 -0.7595  1.0077 -2.3266
  497MOL0     H68569   5.767   3.623   8.670  0.8819 -1.1314  2.9473
  497MOL0     H68570   7.464   3.890   9.018  2.5799  2.5901  1.3238
  497MOL0     H68571   7.671   3.809   8.925 -0.7478 -0.6414 -1.1735
  497MOL0     H68572   8.090   3.666   9.125  1.6550 -0.8518 -0.3241
  497MOL0     H68573   8.338   3.636   9.101  1.3849 -1.6476 -0.6971
  497MOL0     H68574   8.542   3.464   8.750 -2.0200  1.7699 -1.2941
  497MOL0     H68575   8.566   3.638   8.769  1.2984  0.8669 -0.3470
  497MOL0     H68576   8.771   3.514   8.809  0.4818 -1.3032  0.6270
  497MOL0     H68577   8.713   3.447   8.949  2.8868 -0.5302 -0.8541
  497MOL0     H68578   8.765   3.737   8.910  0.3995 -1.3358 -1.0772
  497MOL0     H68579   8.622   3.706   9.008  0.6937  1.4092 -1.7593
  497MOL0     H68580   8.903   3.594   9.072 -1.4767 -1.3930 -2.0464
  497MOL0     H68581   8.773   3.545   9.155  0.2382 -0.9308  0.8766
  497MOL0     H68582   8.766   3.959   9.279 -0.5588  0.1420  1.8219
  497MOL0     H68583   8.299   3.520   8.702 -2.7121 -0.8828  0.1308
  497MOL0     H68584   7.995   3.447   8.687 -2.2081  0.5099 -2.4565
  497MOL0     H68585   7.985   3.615   8.637 -0.5927 -0.0732 -0.2943
  497MOL0     H68586   8.131   3.526   8.596  1.2864  0.5438  1.2960
  498MOL0     O68587   1.750   7.525   2.612  0.2303 -0.1762  0.5913
  498MOL0     C68588   1.649   7.536   2.688  0.2896 -0.0873 -0.0672
  498MOL0     O68589   1.653   7.569   2.827 -0.0798 -0.4357  0.3218
  498MOL0     C68590   1.782   7.567   2.884 -0.0262  0.2166 -0.4236
  498MOL0     C68591   1.803   7.456   2.972  0.2081 -0.3997 -0.2256
  498MOL0     C68592   1.925   7.456   3.044 -0.3180  0.8413  0.4447
  498MOL0     C68593   2.029   7.551   3.016 -0.1374 -0.2642  0.1132
  498MOL0     O68594   2.152   7.555   3.077  0.8443  1.0936  0.5977
  498MOL0     C68595   2.187   7.450   3.165  0.2085  1.0755  1.0484
  498MOL0     C68596   2.331   7.469   3.213  0.6052  0.6998 -0.3840
  498MOL0     C68597   2.427   7.343   3.232  0.5081  0.3516 -0.3032
  498MOL0     C68598   2.424   7.245   3.106 -0.2079 -0.1515 -0.2467
  498MOL0     C68599   2.537   7.142   3.124 -0.4415  0.5991  0.0076
  498MOL0     C68600   2.670   7.209   3.145 -1.1365  0.2974  0.2295
  498MOL0     C68601   2.781   7.106   3.137 -0.1946 -0.3499  0.1719
  498MOL0     C68602   2.919   7.165   3.100 -0.1228 -0.2681  0.7000
  498MOL0     N68603   2.986   7.235   3.213 -0.6211  0.7726 -1.0135
  498MOL0     C68604   3.099   7.197   3.278 -0.9259 -0.0751  0.6887
  498MOL0     C68605   3.129   7.309   3.353  0.1811 -0.4654 -0.2515
  498MOL0     C68606   3.251   7.328   3.444 -0.1269  0.2450  0.4563
  498MOL0     C68607   3.220   7.347   3.590  0.7729  0.1422 -0.0792
  498MOL0     C68608   3.158   7.227   3.658  0.4419 -0.8451  1.5623
  498MOL0     C68609   3.075   7.272   3.784 -0.0286  0.0066 -0.6479
  498MOL0     O68610   2.990   7.163   3.843 -0.1917  0.0822  0.4528
  498MOL0     C68611   2.918   7.187   3.950 -0.0109  0.2872 -0.8485
  498MOL0     C68612   2.801   7.104   3.974 -0.3396 -0.0961  0.8887
  498MOL0     C68613   2.710   7.137   4.072  0.5721  0.7856 -0.2122
  498MOL0     C68614   2.584   7.045   4.081  0.1862 -0.2139  0.4231
  498MOL0     C68615   2.727   7.257   4.152 -0.3792  0.5084  0.0897
  498MOL0     C68616   2.642   7.296   4.263  0.6372  0.5798  0.7677
  498MOL0     O68617   2.661   7.415   4.316 -0.7973 -0.4450 -0.6488
  498MOL0     C68618   2.613   7.446   4.447 -0.9034  0.1564  0.5303
  498MOL0     C68619   2.608   7.358   4.557  0.6432 -0.0892  0.7809
  498MOL0     C68620   2.564   7.413   4.680  0.2407 -0.8416 -1.0060
  498MOL0     C68621   2.540   7.547   4.702  0.7634 -0.8112 -0.1839
  498MOL0     O68622   2.499   7.605   4.816 -0.3315  0.3051 -1.1087
  498MOL0     C68623   2.484   7.533   4.945  0.0206  1.3560 -0.4057
  498MOL0     C68624   2.473   7.633   5.060  0.1753 -0.0304 -0.1740
  498MOL0     C68625   2.361   7.749   5.054 -0.2404  0.0257 -0.2053
  498MOL0     C68626   2.233   7.704   4.987 -1.5606  0.6154  0.7914
  498MOL0     C68627   2.131   7.809   4.954  0.7225 -0.9631  0.5611
  498MOL0     C68628   2.153   7.867   4.815 -0.3063  0.7319  0.4119
  498MOL0     C68629   2.050   7.983   4.791  0.1379  0.2235 -0.0351
  498MOL0     C68630   1.966   7.989   4.657 -1.4999 -0.1840 -0.8816
  498MOL0    Cl68631   1.862   7.853   4.641 -0.2312  0.3224 -0.0960
  498MOL0     C68632   2.550   7.633   4.595 -0.2820  0.0476  0.0089
  498MOL0     C68633   2.580   7.583   4.467 -0.3127  0.9353  0.4089
  498MOL0     O68634   2.557   7.218   4.302  0.0545  0.0288 -0.4787
  498MOL0     C68635   2.845   7.337   4.128  0.1598 -0.2132 -0.1669
  498MOL0     C68636   2.934   7.304   4.027 -0.2326 -0.4139 -0.4998
  498MOL0     N68637   3.040   7.409   3.328  0.4459 -0.5875  0.0387
  498MOL0     N68638   2.954   7.366   3.247  0.1799  0.1890  0.2639
  498MOL0     C68639   2.012   7.651   2.916 -0.0689 -0.2443  0.7914
  498MOL0     C68640   1.881   7.661   2.863 -0.5803  0.3970  0.0870
  498MOL0     C68641   1.512   7.501   2.630 -0.5870 -0.0764 -0.2756
  498MOL0     C68642   1.396   7.539   2.703 -0.0534 -0.0169  0.3057
  498MOL0     C68643   1.274   7.500   2.654 -0.0655 -0.4514  0.6974
  498MOL0     C68644   1.259   7.419   2.541  1.4569  0.2148 -0.4520
  498MOL0     O68645   1.131   7.388   2.506  0.1233 -0.0321 -0.7069
  498MOL0     C68646   1.105   7.301   2.396  0.1874  0.3880  0.3564
  498MOL0     C68647   1.117   7.161   2.429  0.3258 -0.2426 -0.2451
  498MOL0     C68648   1.133   7.070   2.308 -0.1500  0.9936  0.7528
  498MOL0     C68649   1.039   7.096   2.189 -1.4538  0.3778 -0.1406
  498MOL0     C68650   0.900   7.108   2.230 -0.4664  0.3145 -0.0714
  498MOL0     C68651   0.779   7.108   2.256  0.1819 -0.4876  0.3054
  498MOL0     C68652   1.362   7.382   2.470  0.7141 -0.3639 -0.3428
  498MOL0     C68653   1.492   7.412   2.513  0.1654 -0.6736  1.0964
  498MOL0     C68654   1.601   7.348   2.429  0.2033 -0.1185  0.5298
  498MOL0     H68655   1.725   7.382   2.986 -0.1140 -0.1959 -0.8678
  498MOL0     H68656   1.940   7.388   3.127  0.4977  2.3279  1.5713
  498MOL0     H68657   2.173   7.355   3.113  1.7561 -0.4607  3.2409
  498MOL0     H68658   2.120   7.461   3.251 -2.6082  2.1014 -1.0975
  498MOL0     H68659   2.395   7.530   3.149  1.0937 -0.2836 -0.8595
  498MOL0     H68660   2.331   7.533   3.301  0.0335  2.0359 -1.3197
  498MOL0     H68661   2.519   7.397   3.256  1.1164 -0.1578 -1.3993
  498MOL0     H68662   2.399   7.280   3.317 -3.6046  1.8028 -0.3218
  498MOL0     H68663   2.332   7.189   3.120 -1.7315  1.8549 -1.7012
  498MOL0     H68664   2.411   7.295   3.010 -1.0280 -1.2637 -0.7285
  498MOL0     H68665   2.544   7.094   3.026 -0.3547  1.7580 -0.5673
  498MOL0     H68666   2.506   7.074   3.204 -2.7733  0.5595 -0.8492
  498MOL0     H68667   2.674   7.283   3.064 -1.4325  0.5676  0.4610
  498MOL0     H68668   2.681   7.255   3.244 -2.4039 -1.1757  1.0851
  498MOL0     H68669   2.748   7.035   3.061 -2.6080  0.1858  0.6481
  498MOL0     H68670   2.791   7.048   3.230 -1.4350 -0.5171  0.2139
  498MOL0     H68671   2.993   7.093   3.065  4.0972  2.4865  3.0786
  498MOL0     H68672   2.905   7.232   3.014  2.1844  0.5757  0.8951
  498MOL0     H68673   3.149   7.100   3.276 -1.4176 -0.4201 -2.8383
  498MOL0     H68674   3.299   7.420   3.410 -0.2367 -0.8203 -2.9607
  498MOL0     H68675   3.334   7.261   3.419 -1.8322 -2.2750  1.1877
  498MOL0     H68676   3.306   7.379   3.650 -0.7726  1.9498  1.2473
  498MOL0     H68677   3.150   7.431   3.595 -1.4711 -1.5196 -1.5705
  498MOL0     H68678   3.087   7.180   3.589 -2.2659 -2.9694  5.4429
  498MOL0     H68679   3.236   7.154   3.681  0.3897 -2.0877 -1.6392
  498MOL0     H68680   3.149   7.291   3.863 -0.2227 -1.9873  0.0545
  498MOL0     H68681   3.011   7.357   3.757  0.0301  0.6706  1.1406
  498MOL0     H68682   2.797   7.015   3.913  0.6303 -1.7303  3.0826
  498MOL0     H68683   2.496   7.103   4.105 -0.3070 -0.4684 -0.6960
  498MOL0     H68684   2.598   6.967   4.156  0.4666 -0.4145  0.1673
  498MOL0     H68685   2.568   7.001   3.982 -0.1121 -0.4922  0.5933
  498MOL0     H68686   2.620   7.252   4.533 -2.0461 -0.6123  1.4753
  498MOL0     H68687   2.551   7.356   4.771 -2.0577  2.5052  0.9716
  498MOL0     H68688   2.388   7.480   4.945  2.0276 -2.7843 -2.9271
  498MOL0     H68689   2.556   7.455   4.972  0.4661  2.5209  2.0502
  498MOL0     H68690   2.452   7.574   5.150  0.5153 -1.4698 -1.0266
  498MOL0     H68691   2.568   7.686   5.073 -0.0903  0.0426  1.8609
  498MOL0     H68692   2.404   7.830   4.995  0.7678  0.1728  0.7198
  498MOL0     H68693   2.330   7.789   5.150 -0.9890  1.2449 -0.9266
  498MOL0     H68694   2.190   7.627   5.051 -3.4043 -1.5022 -2.6855
  498MOL0     H68695   2.251   7.659   4.889 -0.7205  0.7520  0.8712
  498MOL0     H68696   2.030   7.767   4.955  0.5689 -0.6028  0.3999
  498MOL0     H68697   2.132   7.884   5.033 -0.8737  1.6971 -1.7534
  498MOL0     H68698   2.133   7.781   4.750 -1.3756  2.1198 -1.1907
  498MOL0     H68699   2.246   7.914   4.781 -0.4760  1.2655  0.6749
  498MOL0     H68700   2.113   8.071   4.801 -0.8597  1.3930 -3.1473
  498MOL0     H68701   1.976   7.984   4.872  0.9163  4.9260  0.8662
  498MOL0     H68702   2.034   8.000   4.572  4.8312 -0.9116  3.3904
  498MOL0     H68703   1.905   8.079   4.667 -1.5318  0.1388 -3.3551
  498MOL0     H68704   2.555   7.738   4.623 -1.6086  0.5356 -1.4157
  498MOL0     H68705   2.603   7.658   4.392  2.9748 -0.5249 -0.2382
  498MOL0     H68706   2.855   7.431   4.181  0.9756  1.0034 -2.3678
  498MOL0     H68707   3.015   7.372   4.003 -2.1590  1.8153 -1.1168
  498MOL0     H68708   2.083   7.725   2.880  0.3418 -0.9869  0.0279
  498MOL0     H68709   1.860   7.745   2.798  0.4340 -0.3231 -1.2223
  498MOL0     H68710   1.399   7.599   2.793 -1.8002 -0.4874  0.7125
  498MOL0     H68711   1.178   7.532   2.692 -0.2776  0.8081 -0.7870
  498MOL0     H68712   1.005   7.328   2.361 -0.4442 -1.4107  0.6772
  498MOL0     H68713   1.156   7.321   2.301 -1.6626  0.2926 -0.7159
  498MOL0     H68714   1.039   7.125   2.497  0.4620 -0.2022 -0.0674
  498MOL0     H68715   1.216   7.140   2.470  1.8725  3.7819 -1.4662
  498MOL0     H68716   1.239   7.072   2.282 -0.5983 -1.5781 -1.7478
  498MOL0     H68717   1.117   6.965   2.335  0.1254 -0.0133 -2.5776
  498MOL0     H68718   1.045   7.017   2.114  3.1220  0.8391 -0.5376
  498MOL0     H68719   1.082   7.186   2.144  1.3832 -0.6634  0.2744
  498MOL0     H68720   0.678   7.138   2.273  0.3912 -0.7859  2.1931
  498MOL0     H68721   1.359   7.334   2.373  2.0153  0.9364 -1.0794
  498MOL0     H68722   1.563   7.301   2.337  1.3794  0.1661 -0.1161
  498MOL0     H68723   1.681   7.415   2.398  1.5413 -2.4217 -1.3433
  498MOL0     H68724   1.640   7.261   2.483  1.1831  1.1671  1.9525
  499MOL0     O68725   0.444   0.381   5.907 -0.8928 -0.1012 -0.0455
  499MOL0     C68726   0.481   0.343   6.018  0.4772  0.2361  1.1542
  499MOL0     O68727   0.450   0.228   6.069 -0.5186 -0.2983 -0.5824
  499MOL0     C68728   0.433   0.132   5.977 -0.1421 -0.4029 -0.2125
  499MOL0     C68729   0.315   0.113   5.899 -0.3892 -1.3053  0.5346
  499MOL0     C68730   0.297  -0.001   5.815 -0.3089  0.3946 -0.2451
  499MOL0     C68731   0.409  -0.085   5.792 -0.1003  0.0831 -0.1952
  499MOL0     O68732   0.418  -0.179   5.700  0.0463  0.0462 -0.4278
  499MOL0     C68733   0.302  -0.257   5.682 -0.0851  0.4730  0.9676
  499MOL0     C68734   0.328  -0.409   5.647  0.1200  0.4063 -0.5737
  499MOL0     C68735   0.382  -0.480   5.778 -0.6703  0.4439  0.4675
  499MOL0     C68736   0.435  -0.619   5.753  0.1079  0.6470 -0.6648
  499MOL0     C68737   0.507  -0.685   5.866 -0.9805 -0.1306 -0.1514
  499MOL0     C68738   0.530  -0.840   5.825 -0.2402  0.3380  0.3369
  499MOL0     C68739   0.592  -0.935   5.928  0.6340 -0.4380 -0.4105
  499MOL0     C68740   0.730  -0.893   5.974  0.1344 -0.2554  0.2212
  499MOL0     N68741   0.817  -0.896   5.854 -1.1842 -0.2091 -0.8174
  499MOL0     C68742   0.822  -0.790   5.762 -0.0819  0.5159 -0.6123
  499MOL0     C68743   0.915  -0.837   5.676  0.1254  0.1264 -0.0274
  499MOL0     C68744   0.963  -0.762   5.555  0.0217  0.5671  1.1167
  499MOL0     C68745   0.889  -0.795   5.424 -1.0968 -0.0683  0.8727
  499MOL0     C68746   0.734  -0.771   5.413 -1.7027  0.2920 -0.2042
  499MOL0     C68747   0.680  -0.834   5.284 -0.8344 -0.7304  0.2349
  499MOL0     O68748   0.540  -0.796   5.252  0.2218 -0.7300  0.5214
  499MOL0     C68749   0.454  -0.821   5.350  0.2815 -0.3599 -0.8490
  499MOL0     C68750   0.438  -0.935   5.427  0.9208  0.0317 -0.2625
  499MOL0     C68751   0.340  -0.946   5.523 -0.6047  0.5624  0.1543
  499MOL0     C68752   0.339  -1.071   5.605  0.0059 -0.2381 -0.3746
  499MOL0     C68753   0.256  -0.835   5.545  0.6349  0.2888  0.0053
  499MOL0     C68754   0.153  -0.838   5.651  0.1796 -0.4210  1.0284
  499MOL0     O68755   0.191  -0.890   5.772 -0.1811 -0.1684  0.4773
  499MOL0     C68756   0.103  -0.857   5.872 -0.3148 -0.1104 -0.1450
  499MOL0     C68757   0.136  -0.756   5.963 -0.8681 -0.7374 -0.3025
  499MOL0     C68758   0.056  -0.721   6.073 -0.1395 -0.1526  0.7782
  499MOL0     C68759  -0.054  -0.800   6.095 -0.6015  0.1016 -0.5140
  499MOL0     O68760  -0.128  -0.764   6.200  0.4151  0.3121 -0.0140
  499MOL0     C68761  -0.208  -0.864   6.269 -0.6374  0.1440 -0.8486
  499MOL0     C68762  -0.342  -0.820   6.341 -0.1375  0.3034 -0.0248
  499MOL0     C68763  -0.295  -0.776   6.474 -0.5158  0.3520  0.1982
  499MOL0     C68764  -0.280  -0.893   6.569 -0.3316 -0.2874 -0.2175
  499MOL0     C68765  -0.235  -0.849   6.704  0.6770 -0.3396 -0.7687
  499MOL0     C68766  -0.209  -0.972   6.786 -0.2990 -0.1996  1.0314
  499MOL0     C68767  -0.159  -0.943   6.929 -0.7829  0.9437 -0.4152
  499MOL0     C68768  -0.132  -1.070   7.012  0.6024 -1.1815  0.8368
  499MOL0    Cl68769  -0.028  -1.012   7.145  0.6530  0.3697  0.4015
  499MOL0     C68770  -0.104  -0.891   5.995  0.2445  0.2179 -0.7997
  499MOL0     C68771  -0.022  -0.923   5.893 -0.4201 -0.6247  0.8220
  499MOL0     O68772   0.045  -0.785   5.628  0.5738  0.0374 -0.2989
  499MOL0     C68773   0.262  -0.722   5.467 -0.1390  1.0150  0.5453
  499MOL0     C68774   0.364  -0.721   5.368  1.0841  0.2392  0.7648
  499MOL0     N68775   0.956  -0.963   5.710 -0.1526 -0.4044 -0.6174
  499MOL0     N68776   0.906  -0.999   5.823  0.6772 -0.1613  0.9253
  499MOL0     C68777   0.526  -0.067   5.868 -0.4386  0.4378  0.7292
  499MOL0     C68778   0.538   0.040   5.961 -0.2680  0.0865 -1.1772
  499MOL0     C68779   0.563   0.442   6.095 -0.7000 -0.5232 -0.1256
  499MOL0     C68780   0.527   0.576   6.088 -0.0674  0.4061 -0.4797
  499MOL0     C68781   0.611   0.683   6.132 -0.4128  1.0412  0.6280
  499MOL0     C68782   0.730   0.654   6.201  0.8861 -0.2945 -0.1491
  499MOL0     O68783   0.789   0.778   6.235 -0.1081  0.5161  0.0551
  499MOL0     C68784   0.926   0.763   6.285  0.1995 -0.2088 -0.7319
  499MOL0     C68785   0.957   0.886   6.368 -0.5366 -0.2379 -0.0677
  499MOL0     C68786   0.917   1.019   6.289 -0.3942 -0.0601  0.4005
  499MOL0     C68787   0.985   1.139   6.356 -0.0988  0.0765  0.0799
  499MOL0     C68788   1.130   1.134   6.329  0.1481  0.5401  1.2913
  499MOL0     C68789   1.248   1.128   6.299 -0.6567 -0.3172  0.5267
  499MOL0     C68790   0.771   0.521   6.221  0.7267 -0.3019  0.0928
  499MOL0     C68791   0.688   0.412   6.161 -0.1070  0.0381 -0.0160
  499MOL0     C68792   0.737   0.268   6.180  0.1305  0.6580  0.7305
  499MOL0     H68793   0.243   0.193   5.915 -0.4555 -1.6449  2.0317
  499MOL0     H68794   0.201  -0.013   5.766 -0.6214 -0.2618  0.4997
  499MOL0     H68795   0.242  -0.213   5.602 -0.3283 -0.2365  0.7588
  499MOL0     H68796   0.243  -0.254   5.774  0.6448 -0.8136  1.5064
  499MOL0     H68797   0.234  -0.457   5.621 -0.1178 -1.0357  2.4992
  499MOL0     H68798   0.400  -0.422   5.565 -0.1181 -0.9309 -0.5829
  499MOL0     H68799   0.472  -0.428   5.812  1.2514 -1.1173 -1.9680
  499MOL0     H68800   0.305  -0.479   5.856  1.8688 -0.1207  3.1834
  499MOL0     H68801   0.338  -0.670   5.745 -0.3521  1.5069 -0.7577
  499MOL0     H68802   0.479  -0.635   5.654  3.2002 -1.8864  0.9744
  499MOL0     H68803   0.451  -0.674   5.959 -3.8077 -3.1834 -1.2816
  499MOL0     H68804   0.600  -0.633   5.892 -0.4103 -2.0699  1.9270
  499MOL0     H68805   0.430  -0.882   5.810 -1.5231  2.7419  1.5350
  499MOL0     H68806   0.595  -0.851   5.738  3.4925  0.6703  2.8097
  499MOL0     H68807   0.596  -1.036   5.885 -0.2395  0.0413 -1.6822
  499MOL0     H68808   0.527  -0.957   6.013  0.0068  2.4720 -0.0448
  499MOL0     H68809   0.728  -0.800   6.031 -0.8450 -0.9256  1.3245
  499MOL0     H68810   0.765  -0.965   6.049  0.1636 -0.5068 -0.0330
  499MOL0     H68811   0.756  -0.704   5.757  2.5541  2.6309 -1.1117
  499MOL0     H68812   1.071  -0.779   5.557 -0.2178 -1.0775  1.5738
  499MOL0     H68813   0.949  -0.656   5.581 -0.4815  0.2672  2.1332
  499MOL0     H68814   0.945  -0.748   5.343 -1.1395 -1.8749 -0.2661
  499MOL0     H68815   0.918  -0.900   5.414  0.0004  0.1680  1.4486
  499MOL0     H68816   0.694  -0.799   5.511  2.7664  0.4645  1.9086
  499MOL0     H68817   0.721  -0.663   5.406  2.4416  0.8318 -1.8336
  499MOL0     H68818   0.733  -0.806   5.193 -1.7103 -1.1087 -0.3983
  499MOL0     H68819   0.691  -0.943   5.289 -2.0974 -0.8179  2.6755
  499MOL0     H68820   0.508  -1.016   5.408  0.6258 -0.1712 -0.4941
  499MOL0     H68821   0.348  -1.157   5.539 -1.0736  1.3934 -2.7876
  499MOL0     H68822   0.252  -1.093   5.667 -1.0860 -0.5405 -1.9636
  499MOL0     H68823   0.427  -1.066   5.671  0.5633 -0.2964 -1.1057
  499MOL0     H68824   0.211  -0.679   5.949 -1.6688  0.0040 -0.6090
  499MOL0     H68825   0.074  -0.639   6.142 -3.0196  0.2055  1.2152
  499MOL0     H68826  -0.236  -0.943   6.200 -2.7522  2.7849 -3.2632
  499MOL0     H68827  -0.141  -0.901   6.347  0.3189  1.2334 -1.1114
  499MOL0     H68828  -0.394  -0.740   6.289  1.6467  1.0081 -0.8131
  499MOL0     H68829  -0.414  -0.902   6.347 -1.2571  1.1606 -1.2814
  499MOL0     H68830  -0.366  -0.704   6.516 -2.4171 -1.1668 -0.2547
  499MOL0     H68831  -0.201  -0.722   6.462 -0.1243 -0.1109  1.0571
  499MOL0     H68832  -0.212  -0.968   6.527 -1.1484 -1.1440 -0.0614
  499MOL0     H68833  -0.370  -0.956   6.573 -0.5966  0.0842 -0.3125
  499MOL0     H68834  -0.139  -0.796   6.696  0.7304 -0.0498  1.2006
  499MOL0     H68835  -0.314  -0.788   6.747 -1.0476 -2.6771 -0.4306
  499MOL0     H68836  -0.146  -1.046   6.736  0.4052 -1.8041  4.0151
  499MOL0     H68837  -0.305  -1.024   6.788 -0.4025 -0.4433 -3.1335
  499MOL0     H68838  -0.227  -0.879   6.986 -0.6367  0.6573  0.0848
  499MOL0     H68839  -0.067  -0.885   6.923 -1.1168  1.6827  1.2139
  499MOL0     H68840  -0.095  -1.153   6.951 -0.9670 -1.4816  0.2440
  499MOL0     H68841  -0.226  -1.114   7.047  0.1924 -0.8697  0.1459
  499MOL0     H68842  -0.200  -0.940   5.998  0.1689  0.1440 -2.9018
  499MOL0     H68843  -0.050  -1.005   5.827 -0.9367  0.7555 -0.7453
  499MOL0     H68844   0.195  -0.637   5.476 -2.3001 -0.4542 -0.7933
  499MOL0     H68845   0.373  -0.640   5.297  0.1359 -1.4982 -1.4897
  499MOL0     H68846   0.617  -0.118   5.836 -1.4030 -0.9721  0.1418
  499MOL0     H68847   0.618   0.056   6.033 -2.4377  1.6558  1.0572
  499MOL0     H68848   0.435   0.616   6.047 -0.2294 -0.9678 -1.5652
  499MOL0     H68849   0.590   0.787   6.111  3.9504  1.3954 -3.9584
  499MOL0     H68850   0.942   0.685   6.360 -1.4527  0.7213  0.6500
  499MOL0     H68851   1.007   0.760   6.212  0.9137 -0.6392  0.0604
  499MOL0     H68852   1.065   0.874   6.380 -0.0467  0.5267 -2.9371
  499MOL0     H68853   0.911   0.900   6.466 -0.0885  2.4402 -0.1544
  499MOL0     H68854   0.944   1.010   6.183  0.8131 -1.5890  0.7865
  499MOL0     H68855   0.810   1.042   6.286 -1.1981 -3.3251 -2.2728
  499MOL0     H68856   0.961   1.131   6.463  1.0100 -1.5296  0.2381
  499MOL0     H68857   0.942   1.231   6.316  0.4054  0.0522 -0.5347
  499MOL0     H68858   1.352   1.104   6.289 -0.1649  0.7048  2.5306
  499MOL0     H68859   0.869   0.496   6.260  0.2448 -1.7574  0.4512
  499MOL0     H68860   0.783   0.242   6.084  1.7432 -2.0048  2.1184
  499MOL0     H68861   0.809   0.260   6.262 -2.0167  0.4665  2.6770
  499MOL0     H68862   0.658   0.196   6.205  0.8596 -0.0915  0.9326
  500MOL0     O68863   7.668   0.505   0.410  1.4488  0.5429  0.2043
  500MOL0     C68864   7.721   0.403   0.446 -0.6700  0.5220 -0.8754
  500MOL0     O68865   7.847   0.382   0.499 -0.0298 -0.1670 -0.4638
  500MOL0     C68866   7.907   0.505   0.540  0.5203  0.4050 -0.5110
  500MOL0     C68867   7.852   0.605   0.618  0.4158 -0.7237  0.9806
  500MOL0     C68868   7.933   0.704   0.672  0.3463 -0.4120  0.4979
  500MOL0     C68869   8.070   0.710   0.644 -1.0351 -0.3129 -0.1635
  500MOL0     O68870   8.160   0.802   0.702  0.0639  0.3145 -0.2749
  500MOL0     C68871   8.216   0.760   0.827 -0.0731 -0.4922 -0.7271
  500MOL0     C68872   8.206   0.857   0.940  1.0101  0.6534 -0.3862
  500MOL0     C68873   8.320   0.955   0.951  0.6113 -0.5503  0.3303
  500MOL0     C68874   8.300   1.062   1.059  0.2959  0.8060 -1.0374
  500MOL0     C68875   8.300   1.013   1.196 -0.2171  0.2847 -0.1842
  500MOL0     C68876   8.286   1.134   1.292  0.2366  0.2320  0.3386
  500MOL0     C68877   8.334   1.097   1.443  0.3318 -0.2087 -0.0212
  500MOL0     C68878   8.246   1.008   1.519  0.4779 -0.3084  0.4758
  500MOL0     N68879   8.107   1.058   1.526  0.4543  0.3855  0.7410
  500MOL0     C68880   8.005   1.018   1.442  0.1135 -0.0319  0.0542
  500MOL0     C68881   7.897   1.093   1.494 -0.0234  0.1365 -0.0416
  500MOL0     C68882   7.768   1.108   1.421  0.2811  0.0552  0.4950
  500MOL0     C68883   7.647   1.019   1.474 -0.4865  0.6652 -0.9130
  500MOL0     C68884   7.585   1.050   1.613  0.2250  0.0178  0.8888
  500MOL0     C68885   7.479   0.949   1.655  0.2562  0.8067 -1.0703
  500MOL0     O68886   7.455   0.947   1.798 -0.0680  0.3553  0.6730
  500MOL0     C68887   7.369   1.048   1.835  0.3395  0.4232  0.4494
  500MOL0     C68888   7.428   1.150   1.905 -0.3591 -0.0467 -0.3057
  500MOL0     C68889   7.363   1.272   1.926 -0.4065  0.7468 -0.4795
  500MOL0     C68890   7.433   1.393   1.988 -1.0296 -0.3589 -0.2090
  500MOL0     C68891   7.217   1.273   1.903  0.4448 -0.1196 -0.4790
  500MOL0     C68892   7.133   1.384   1.949  0.2270  0.5348  0.9248
  500MOL0     O68893   7.012   1.346   1.980  0.9173  0.4741  0.3592
  500MOL0     C68894   6.924   1.447   1.995  0.1658  1.2464 -0.3978
  500MOL0     C68895   6.933   1.534   2.106  0.7392  0.3166  0.5388
  500MOL0     C68896   6.846   1.635   2.127  0.0916  1.3808 -0.0871
  500MOL0     C68897   6.733   1.643   2.047 -0.1868 -0.3267  0.6257
  500MOL0     O68898   6.650   1.753   2.060 -0.0904  0.0994 -0.2095
  500MOL0     C68899   6.708   1.877   2.006 -0.3794  0.5259 -1.1378
  500MOL0     C68900   6.609   1.952   1.925  0.4076 -0.1289  0.1469
  500MOL0     C68901   6.673   2.074   1.862  0.0101  0.8373  0.3060
  500MOL0     C68902   6.587   2.116   1.737  1.2703  1.1666  0.3745
  500MOL0     C68903   6.656   2.245   1.670 -0.1707 -0.6703  0.1791
  500MOL0     C68904   6.595   2.261   1.532  0.3807  0.0016 -0.2868
  500MOL0     C68905   6.663   2.369   1.445  0.5931 -0.2153  0.1084
  500MOL0     C68906   6.693   2.332   1.313  0.1093  0.0572  0.4936
  500MOL0    Cl68907   6.542   2.303   1.212 -0.3866 -0.0245 -0.3551
  500MOL0     C68908   6.714   1.549   1.941  0.5854  0.4581  0.3331
  500MOL0     C68909   6.818   1.463   1.909  0.2525 -0.0301  0.0781
  500MOL0     O68910   7.177   1.498   1.930  0.4623  0.4525  0.6594
  500MOL0     C68911   7.154   1.161   1.851 -0.1708 -0.4029  0.6426
  500MOL0     C68912   7.225   1.045   1.812  0.1888 -0.8758  0.4072
  500MOL0     N68913   7.945   1.165   1.602 -0.2574 -0.7646  0.2816
  500MOL0     N68914   8.069   1.151   1.620  0.3956  1.3813 -0.0577
  500MOL0     C68915   8.121   0.607   0.562 -1.0999 -0.3759 -0.7711
  500MOL0     C68916   8.041   0.518   0.503  0.4963 -0.1322  0.7003
  500MOL0     C68917   7.623   0.282   0.462  0.0240 -0.2206 -0.8539
  500MOL0     C68918   7.486   0.306   0.484 -0.7221  0.4958 -0.0602
  500MOL0     C68919   7.397   0.206   0.510  0.3980  0.1547 -0.9953
  500MOL0     C68920   7.420   0.070   0.505  0.3797 -0.1793  0.6069
  500MOL0     O68921   7.321  -0.023   0.520 -1.3270  0.2441 -0.0990
  500MOL0     C68922   7.333  -0.149   0.441  0.2054  0.1686 -0.2888
  500MOL0     C68923   7.284  -0.142   0.298 -0.2005 -0.9290  0.2861
  500MOL0     C68924   7.340  -0.274   0.238  0.4704  0.3198 -0.1662
  500MOL0     C68925   7.262  -0.340   0.124 -0.1427  0.6232 -0.4742
  500MOL0     C68926   7.267  -0.274  -0.007  0.8443  0.4623 -0.8731
  500MOL0     C68927   7.288  -0.208  -0.101  0.5646 -0.9150  0.0300
  500MOL0     C68928   7.560   0.039   0.482 -0.0725  0.5936 -0.0268
  500MOL0     C68929   7.654   0.141   0.459  0.3520  0.0729 -0.6105
  500MOL0     C68930   7.787   0.088   0.431 -0.5874 -0.4657 -0.1747
  500MOL0     H68931   7.747   0.616   0.641 -0.7183  0.2054 -3.6085
  500MOL0     H68932   7.877   0.777   0.731  0.7221  2.0918 -2.0419
  500MOL0     H68933   8.324   0.746   0.817  0.4576  1.6097  1.3942
  500MOL0     H68934   8.171   0.663   0.849 -1.2993  0.7723  3.0892
  500MOL0     H68935   8.105   0.900   0.938  0.7415  0.0424 -0.2386
  500MOL0     H68936   8.191   0.795   1.029 -3.0518 -4.0687 -3.7889
  500MOL0     H68937   8.407   0.894   0.977 -0.6488 -3.7701 -2.3807
  500MOL0     H68938   8.332   1.002   0.853  1.3709 -2.0303 -0.3093
  500MOL0     H68939   8.384   1.132   1.051  0.8562  0.4642  1.1875
  500MOL0     H68940   8.209   1.121   1.048 -0.0254  0.6999  0.7049
  500MOL0     H68941   8.397   0.963   1.204 -1.0210 -2.4527 -4.3726
  500MOL0     H68942   8.218   0.941   1.208 -2.5603  2.6343 -1.2192
  500MOL0     H68943   8.348   1.214   1.249  1.1588 -1.2048 -1.1272
  500MOL0     H68944   8.184   1.172   1.291  0.4224  0.7605  0.6791
  500MOL0     H68945   8.356   1.188   1.501 -0.8193 -0.3206  0.6092
  500MOL0     H68946   8.434   1.053   1.450  0.6679  0.8003  2.6163
  500MOL0     H68947   8.246   0.910   1.472  1.5885  0.8694 -2.1715
  500MOL0     H68948   8.288   0.993   1.619  2.8758 -1.7252 -0.6721
  500MOL0     H68949   8.017   0.950   1.359  0.9466  0.0782  0.0746
  500MOL0     H68950   7.776   1.097   1.312  0.5750  1.6635  0.3218
  500MOL0     H68951   7.732   1.211   1.430 -4.0669 -0.7234 -3.8524
  500MOL0     H68952   7.560   1.016   1.407  0.9719 -0.0477 -2.8549
  500MOL0     H68953   7.680   0.915   1.474  0.3327  0.9149 -1.6639
  500MOL0     H68954   7.661   1.041   1.691 -1.0845 -2.2925  1.9924
  500MOL0     H68955   7.546   1.152   1.622  0.0327 -0.0334  0.6419
  500MOL0     H68956   7.383   0.976   1.611 -1.2208 -0.2581  1.2943
  500MOL0     H68957   7.502   0.844   1.633 -1.9964 -0.1721  0.7860
  500MOL0     H68958   7.532   1.137   1.931 -0.2216 -1.8001 -1.5893
  500MOL0     H68959   7.533   1.364   2.020 -0.9149  1.7269  1.5170
  500MOL0     H68960   7.384   1.430   2.078 -1.9345  0.6362 -1.0916
  500MOL0     H68961   7.432   1.473   1.913  1.0799  0.2205  0.3092
  500MOL0     H68962   7.020   1.529   2.171  1.6535 -1.1784 -0.7416
  500MOL0     H68963   6.853   1.710   2.205  3.2026 -0.0649  1.2062
  500MOL0     H68964   6.759   1.931   2.086 -0.4582 -2.1290  0.8268
  500MOL0     H68965   6.791   1.843   1.944  0.8674 -0.2818  0.9123
  500MOL0     H68966   6.574   1.884   1.846  2.9959 -0.4358 -0.8660
  500MOL0     H68967   6.520   1.988   1.977 -1.9229  2.3723 -4.8025
  500MOL0     H68968   6.774   2.055   1.824 -0.5341  0.5198 -1.0210
  500MOL0     H68969   6.664   2.157   1.933  1.1034  1.2925 -0.0633
  500MOL0     H68970   6.484   2.134   1.771  0.3268 -0.5688 -1.3584
  500MOL0     H68971   6.575   2.042   1.658 -3.2656  0.6901  1.2394
  500MOL0     H68972   6.643   2.338   1.726  2.6626  2.5681 -3.8835
  500MOL0     H68973   6.762   2.220   1.653  1.0994  3.1473  1.4953
  500MOL0     H68974   6.490   2.288   1.549  0.6432  0.4884  0.6365
  500MOL0     H68975   6.596   2.160   1.490  1.8839 -0.7555  1.4208
  500MOL0     H68976   6.756   2.394   1.497  0.1377 -0.8530  1.2530
  500MOL0     H68977   6.599   2.458   1.443  1.4720  0.5001  2.0728
  500MOL0     H68978   6.763   2.247   1.317  1.0530  0.7796 -0.1898
  500MOL0     H68979   6.754   2.407   1.262 -1.6739  2.0140  1.0828
  500MOL0     H68980   6.632   1.570   1.874  0.7545 -0.9868 -0.3718
  500MOL0     H68981   6.820   1.421   1.809 -0.5656  0.8268 -0.3209
  500MOL0     H68982   7.050   1.170   1.822  0.0632  1.6309  0.2712
  500MOL0     H68983   7.176   0.980   1.740 -2.6295 -0.7209  2.0290
  500MOL0     H68984   8.227   0.591   0.545 -1.4902 -1.6687 -2.2304
  500MOL0     H68985   8.081   0.435   0.447  2.1049  0.3215  1.1235
  500MOL0     H68986   7.466   0.411   0.499  0.4331  1.2383 -2.9967
  500MOL0     H68987   7.300   0.251   0.529  2.0651  2.9249  2.0419
  500MOL0     H68988   7.436  -0.184   0.454 -0.1451 -0.4727  0.8771
  500MOL0     H68989   7.270  -0.220   0.496  0.4387  2.1741  2.7501
  500MOL0     H68990   7.337  -0.062   0.246 -1.9209  0.7732  1.0195
  500MOL0     H68991   7.176  -0.126   0.293 -0.3367 -2.2226 -1.8855
  500MOL0     H68992   7.438  -0.252   0.194 -1.8550  1.1080 -5.8139
  500MOL0     H68993   7.340  -0.356   0.310 -1.1060 -0.0778 -0.5973
  500MOL0     H68994   7.157  -0.337   0.155 -0.6678  0.3706 -2.0874
  500MOL0     H68995   7.303  -0.439   0.103 -1.2135 -0.3358  1.6378
  500MOL0     H68996   7.277  -0.145  -0.187 -2.2880 -4.3585 -2.4273
  500MOL0     H68997   7.604  -0.059   0.494 -0.7753  0.3042  0.2249
  500MOL0     H68998   7.833   0.138   0.346  0.0905 -0.9147 -0.0800
  500MOL0     H68999   7.864   0.091   0.508 -3.1684  1.5684  2.5913
  500MOL0     H69000   7.790  -0.020   0.409  0.6847 -0.0083 -2.5522
  501MOL0     O69001   6.030   0.271   9.695 -0.0280 -0.3370 -0.0466
  501MOL0     C69002   6.115   0.279   9.784 -0.2123  0.0038 -1.5129
  501MOL0     O69003   6.235   0.340   9.794  0.4448  0.0741  0.5055
  501MOL0     C69004   6.257   0.436   9.707  0.8001 -0.7067 -0.3146
  501MOL0     C69005   6.191   0.560   9.714 -0.0370  0.7973  0.1775
  501MOL0     C69006   6.232   0.658   9.624 -0.1215  0.0010  0.2484
  501MOL0     C69007   6.334   0.632   9.521 -0.3534 -0.0984 -0.4467
  501MOL0     O69008   6.374   0.730   9.432  0.1344 -0.4784  0.7717
  501MOL0     C69009   6.277   0.800   9.362 -0.3046 -0.7615  0.6861
  501MOL0     C69010   6.254   0.947   9.398 -0.2402  0.1241 -0.0133
  501MOL0     C69011   6.179   1.012   9.279 -0.6828  0.2764 -0.0774
  501MOL0     C69012   6.151   1.160   9.310 -0.1295 -0.4468  0.0800
  501MOL0     C69013   6.106   1.228   9.181 -1.2183 -0.3522  0.4239
  501MOL0     C69014   5.954   1.241   9.165  0.0892  0.4659 -0.8911
  501MOL0     C69015   5.896   1.336   9.266  1.2596 -1.0855 -0.0922
  501MOL0     C69016   5.748   1.356   9.252 -0.3120  0.3542  0.7219
  501MOL0     N69017   5.664   1.239   9.278  1.4280 -0.1224  0.3638
  501MOL0     C69018   5.611   1.185   9.397 -0.2811 -0.5097  0.8160
  501MOL0     C69019   5.514   1.094   9.370 -0.2808  0.6594  0.1614
  501MOL0     C69020   5.445   1.003   9.473  0.3785  0.3182 -0.0830
  501MOL0     C69021   5.407   1.073   9.602  0.8749 -0.2154 -0.7435
  501MOL0     C69022   5.320   0.983   9.689 -0.7937 -0.5346  0.0050
  501MOL0     C69023   5.281   1.042   9.827 -0.0654 -1.0998 -0.4857
  501MOL0     O69024   5.378   0.996   9.929 -0.2900  0.3557 -0.0702
  501MOL0     C69025   5.385   0.866   9.963 -0.4551  1.0311 -0.5682
  501MOL0     C69026   5.474   0.826  10.060  0.7021  0.4062 -0.8844
  501MOL0     C69027   5.486   0.702  10.117  0.8014  0.1595  0.7199
  501MOL0     C69028   5.589   0.679  10.220 -0.2023  0.2984  0.4554
  501MOL0     C69029   5.406   0.589  10.057  0.2559 -1.5596 -0.7274
  501MOL0     C69030   5.434   0.449  10.093 -0.6274  0.1992  0.1186
  501MOL0     O69031   5.355   0.349  10.037 -0.7298 -0.0477 -0.5850
  501MOL0     C69032   5.384   0.215  10.067  0.1075 -0.5045 -0.7567
  501MOL0     C69033   5.456   0.140   9.969 -0.1817 -0.5518  0.3327
  501MOL0     C69034   5.503   0.014   9.993 -0.1314  0.0024  0.1799
  501MOL0     C69035   5.471  -0.047  10.117 -0.1918 -0.0001 -1.0654
  501MOL0     O69036   5.510  -0.168  10.165 -0.2445 -0.4913  0.2404
  501MOL0     C69037   5.609  -0.247  10.091  0.4546  0.0589  1.4337
  501MOL0     C69038   5.577  -0.399  10.105  0.1283  0.0222  0.0316
  501MOL0     C69039   5.691  -0.478  10.032 -0.2046  0.1178  0.0660
  501MOL0     C69040   5.665  -0.638  10.036  0.0504 -0.2344 -0.0824
  501MOL0     C69041   5.757  -0.712   9.931  1.4227 -0.0468  1.1238
  501MOL0     C69042   5.901  -0.673   9.950 -1.2917  0.3816  0.8116
  501MOL0     C69043   5.984  -0.792   9.896  0.4352  0.3059  0.4500
  501MOL0     C69044   6.119  -0.754   9.841 -0.6270  0.3119  0.2136
  501MOL0    Cl69045   6.212  -0.658   9.964  0.3636 -0.4533 -0.2456
  501MOL0     C69046   5.392   0.025  10.207 -0.3990  0.1209 -0.1616
  501MOL0     C69047   5.343   0.156  10.182 -0.1152 -0.5242 -0.3482
  501MOL0     O69048   5.522   0.414  10.172  0.1037 -0.3340  0.4380
  501MOL0     C69049   5.312   0.629   9.962 -0.5402  0.5224 -0.3453
  501MOL0     C69050   5.303   0.757   9.912  0.1612  0.3577 -0.5419
  501MOL0     N69051   5.493   1.096   9.240 -0.5259  0.0564 -1.2217
  501MOL0     N69052   5.587   1.166   9.182 -0.1155 -0.1846  0.1853
  501MOL0     C69053   6.398   0.516   9.522 -0.3143  0.0410 -0.7828
  501MOL0     C69054   6.360   0.418   9.611 -0.4236 -0.3836  0.5273
  501MOL0     C69055   6.095   0.187   9.894 -0.2520  0.2513  0.0138
  501MOL0     C69056   6.211   0.108   9.925  0.4610  0.5782 -0.1105
  501MOL0     C69057   6.199   0.029  10.036 -0.4664 -1.3408 -0.2644
  501MOL0     C69058   6.079   0.001  10.104 -0.0179 -0.0561  0.3464
  501MOL0     O69059   6.083  -0.080  10.221  0.7272 -0.5488  0.1952
  501MOL0     C69060   5.970  -0.082  10.310  0.5273 -0.6666 -0.4019
  501MOL0     C69061   5.998  -0.195  10.410  0.2978 -0.9466  0.6526
  501MOL0     C69062   6.119  -0.155  10.511  0.0490  0.7680  0.3492
  501MOL0     C69063   6.189  -0.277  10.560 -0.2347  0.8390 -0.4556
  501MOL0     C69064   6.289  -0.236  10.659  0.6678  0.8304 -0.5573
  501MOL0     C69065   6.365  -0.209  10.754  1.3798  0.9403 -0.4184
  501MOL0     C69066   5.960   0.069  10.066 -0.0953 -0.4085 -0.4749
  501MOL0     C69067   5.969   0.169   9.961 -0.1878 -0.3362 -0.7312
  501MOL0     C69068   5.836   0.242   9.945 -0.0217  0.1380 -0.3930
  501MOL0     H69069   6.106   0.574   9.780 -1.5721  3.9033 -2.1878
  501MOL0     H69070   6.181   0.754   9.627 -2.4091 -1.1840  3.0186
  501MOL0     H69071   6.179   0.751   9.366  0.3228 -2.9246 -3.9056
  501MOL0     H69072   6.304   0.801   9.256 -0.0429  0.2636  0.7509
  501MOL0     H69073   6.195   0.956   9.490 -2.3978  0.8605 -1.3725
  501MOL0     H69074   6.349   0.999   9.412 -0.0766 -0.4317  0.9704
  501MOL0     H69075   6.226   0.998   9.181 -0.2036  2.5482 -0.2094
  501MOL0     H69076   6.082   0.962   9.276 -0.6070 -0.3691  3.5098
  501MOL0     H69077   6.074   1.148   9.387  0.1961  0.4182  0.5623
  501MOL0     H69078   6.230   1.217   9.360 -2.6147  2.2202  1.2836
  501MOL0     H69079   6.152   1.176   9.097 -3.1694 -1.4326 -0.0215
  501MOL0     H69080   6.141   1.332   9.177 -2.0221 -0.1070 -0.3902
  501MOL0     H69081   5.924   1.278   9.067  0.0182  0.1133 -1.0061
  501MOL0     H69082   5.918   1.139   9.182 -1.6717  1.2390  0.3186
  501MOL0     H69083   5.945   1.432   9.248 -0.5638 -0.4245 -1.8696
  501MOL0     H69084   5.910   1.301   9.369 -0.0489  2.0733  1.2957
  501MOL0     H69085   5.729   1.428   9.332  1.2077  1.3290  0.2696
  501MOL0     H69086   5.729   1.391   9.149 -0.6998  1.7343  1.2359
  501MOL0     H69087   5.645   1.199   9.499 -1.0678 -0.4770  1.0772
  501MOL0     H69088   5.509   0.917   9.493  4.6867  3.6443  2.2953
  501MOL0     H69089   5.346   0.976   9.435 -1.0306  4.1822  0.3794
  501MOL0     H69090   5.502   1.094   9.653  0.9466 -1.2913 -0.4025
  501MOL0     H69091   5.355   1.165   9.575  1.6388 -0.3586 -2.8445
  501MOL0     H69092   5.230   0.950   9.635 -0.1824 -2.0091 -0.1558
  501MOL0     H69093   5.380   0.894   9.712  0.6857  0.3618 -0.3103
  501MOL0     H69094   5.290   1.151   9.828 -3.9081 -0.6321  0.6340
  501MOL0     H69095   5.177   1.021   9.853 -0.2001 -0.6499 -0.6552
  501MOL0     H69096   5.532   0.911  10.094  0.4935  0.5632 -0.9245
  501MOL0     H69097   5.552   0.629  10.311 -1.6001  0.2396 -0.1222
  501MOL0     H69098   5.634   0.774  10.247  2.0337 -0.3408 -0.7899
  501MOL0     H69099   5.664   0.608  10.185 -1.0458  0.0356 -0.9067
  501MOL0     H69100   5.477   0.175   9.869 -0.9371 -0.6585  0.1309
  501MOL0     H69101   5.552  -0.041   9.913 -0.4333 -1.3450  0.8803
  501MOL0     H69102   5.611  -0.227   9.983 -3.2680 -0.9644  1.0303
  501MOL0     H69103   5.710  -0.240  10.132  1.4658 -3.7698  0.0341
  501MOL0     H69104   5.561  -0.428  10.209 -2.5075 -0.6695 -0.4929
  501MOL0     H69105   5.482  -0.423  10.058  0.0549  1.7276 -0.7398
  501MOL0     H69106   5.792  -0.457  10.067  0.9885 -0.1981 -2.8902
  501MOL0     H69107   5.691  -0.436   9.932 -1.1664 -3.7612 -1.7701
  501MOL0     H69108   5.562  -0.661  10.010  0.9600  0.4873 -5.5895
  501MOL0     H69109   5.683  -0.683  10.133  0.8380  0.8226  0.2876
  501MOL0     H69110   5.735  -0.817   9.948 -0.1214  0.5444  3.0540
  501MOL0     H69111   5.730  -0.677   9.831 -6.0029  2.9244  3.4937
  501MOL0     H69112   5.936  -0.678  10.054 -0.0405 -1.2447  0.3353
  501MOL0     H69113   5.923  -0.579   9.899 -2.2863  0.8472  1.2053
  501MOL0     H69114   5.923  -0.834   9.815  0.4534  0.9156  0.1173
  501MOL0     H69115   6.002  -0.870   9.970  0.5764 -0.4453 -0.3483
  501MOL0     H69116   6.104  -0.689   9.754  2.0651  0.1096 -0.5023
  501MOL0     H69117   6.178  -0.844   9.822 -1.1652 -0.3109  1.3991
  501MOL0     H69118   5.360  -0.030  10.295 -0.3710 -1.3673 -1.0511
  501MOL0     H69119   5.286   0.210  10.256 -1.1181 -1.0230 -0.7393
  501MOL0     H69120   5.249   0.549   9.923 -1.3098  0.7760  0.3472
  501MOL0     H69121   5.233   0.786   9.834  0.3230 -0.2055 -0.9046
  501MOL0     H69122   6.475   0.502   9.447  3.2719  3.6504  1.7936
  501MOL0     H69123   6.406   0.321   9.596 -2.5519 -1.3160 -0.5073
  501MOL0     H69124   6.302   0.127   9.869  0.4957 -0.1243 -0.3079
  501MOL0     H69125   6.284  -0.014  10.088 -2.3606 -1.4180  3.0446
  501MOL0     H69126   5.953   0.012  10.363 -1.5859 -1.4859  0.4869
  501MOL0     H69127   5.875  -0.101  10.260 -2.3051  3.5038  2.6505
  501MOL0     H69128   6.023  -0.292  10.367  1.5417 -1.1087  1.6748
  501MOL0     H69129   5.907  -0.213  10.467  1.0107 -0.3476  2.0430
  501MOL0     H69130   6.196  -0.103  10.453  2.6116 -1.5127  1.5163
  501MOL0     H69131   6.087  -0.092  10.595  0.5810  3.9855 -1.6832
  501MOL0     H69132   6.241  -0.333  10.482 -2.3242 -2.4970  0.3205
  501MOL0     H69133   6.119  -0.347  10.608  0.2974  1.6091  1.5603
  501MOL0     H69134   6.419  -0.178  10.841  0.6858 -1.7396  1.0543
  501MOL0     H69135   5.872   0.053  10.127  0.7125 -1.5080  0.4683
  501MOL0     H69136   5.832   0.341   9.992 -0.7767 -0.9183  1.8987
  501MOL0     H69137   5.827   0.246   9.837  2.5733 -2.6933 -0.8667
  501MOL0     H69138   5.752   0.181   9.979  2.0642 -3.5324 -1.2187
  502MOL0     O69139   9.293   8.593  10.425 -0.6595 -0.3800  0.2289
  502MOL0     C69140   9.256   8.600  10.309  0.7937  0.0315  0.5114
  502MOL0     O69141   9.191   8.504  10.243  0.3145  0.8560 -0.1869
  502MOL0     C69142   9.190   8.374  10.295 -0.2466 -0.0767  0.5822
  502MOL0     C69143   9.065   8.312  10.294  0.6209 -0.4743  0.1193
  502MOL0     C69144   9.056   8.181  10.355  0.3616  0.2476 -0.3568
  502MOL0     C69145   9.167   8.111  10.415 -0.4079  0.0421  0.5470
  502MOL0     O69146   9.167   7.982  10.467 -0.5275  0.2714 -0.8281
  502MOL0     C69147   9.084   7.881  10.403  0.5834  1.3788  0.1359
  502MOL0     C69148   9.132   7.839  10.262  1.2155  0.2302  0.3942
  502MOL0     C69149   9.039   7.744  10.171 -1.0234 -0.1547 -0.0081
  502MOL0     C69150   8.998   7.619  10.255  0.0500  0.4469 -1.3208
  502MOL0     C69151   8.888   7.551  10.183 -0.0394  0.6888  1.2545
  502MOL0     C69152   8.875   7.407  10.241 -0.2996 -0.0201  0.6262
  502MOL0     C69153   8.858   7.405  10.394 -0.0412  0.7348  0.1609
  502MOL0     C69154   8.738   7.478  10.448 -0.2611 -0.0698 -0.6092
  502MOL0     N69155   8.764   7.510  10.590  0.2125 -0.0880 -0.0227
  502MOL0     C69156   8.738   7.635  10.644  1.6831  0.6522 -0.5894
  502MOL0     C69157   8.763   7.626  10.780  0.1465 -0.4129 -0.1007
  502MOL0     C69158   8.750   7.721  10.892  0.8723 -0.1591 -0.4727
  502MOL0     C69159   8.866   7.816  10.936 -0.1207  0.0717  0.1764
  502MOL0     C69160   9.007   7.770  10.899 -0.7938  0.6989  0.5507
  502MOL0     C69161   9.055   7.694  11.026 -0.0122  0.1394 -0.3067
  502MOL0     O69162   9.185   7.640  11.005 -0.2196 -0.5288  0.2616
  502MOL0     C69163   9.199   7.505  11.026 -0.3862 -0.4847  0.6319
  502MOL0     C69164   9.111   7.405  10.985 -0.1747 -0.4125 -0.2998
  502MOL0     C69165   9.137   7.274  11.006 -0.0456  0.9408  0.0467
  502MOL0     C69166   9.033   7.169  10.983  0.0628 -0.8772 -0.0094
  502MOL0     C69167   9.261   7.233  11.053  0.5537 -0.3049 -0.0138
  502MOL0     C69168   9.297   7.095  11.071  0.0184 -0.5467 -0.6531
  502MOL0     O69169   9.371   7.064  11.174 -0.1864  0.2572 -0.2160
  502MOL0     C69170   9.401   6.931  11.189  0.9707  1.3803  0.6573
  502MOL0     C69171   9.530   6.887  11.161  0.6727  0.0485  0.5558
  502MOL0     C69172   9.570   6.755  11.179  0.4475  0.3893  0.3124
  502MOL0     C69173   9.487   6.657  11.226 -0.6945  0.1120 -0.3647
  502MOL0     O69174   9.548   6.533  11.247  0.2569  1.0063  0.2387
  502MOL0     C69175   9.464   6.421  11.260 -0.2681 -0.0326 -0.8327
  502MOL0     C69176   9.546   6.294  11.295  0.1860  0.4598 -0.9700
  502MOL0     C69177   9.454   6.178  11.333 -0.9084 -0.2893 -0.6014
  502MOL0     C69178   9.391   6.199  11.475  0.0767  0.4499 -0.1746
  502MOL0     C69179   9.240   6.178  11.466  0.1678 -0.2689  0.2844
  502MOL0     C69180   9.172   6.282  11.374 -0.4194 -1.6083  0.5836
  502MOL0     C69181   9.020   6.264  11.382 -1.1066  0.6767 -0.1616
  502MOL0     C69182   8.959   6.391  11.323 -0.0478 -0.3487  0.0710
  502MOL0    Cl69183   8.781   6.380  11.338 -0.3796  0.3477  0.3533
  502MOL0     C69184   9.352   6.693  11.244  0.3385 -0.8927 -0.1387
  502MOL0     C69185   9.312   6.829  11.220 -0.2312  0.1110  0.0221
  502MOL0     O69186   9.277   7.018  10.975 -0.0399 -0.5987  0.2868
  502MOL0     C69187   9.362   7.331  11.085 -0.1472  0.0646  0.9836
  502MOL0     C69188   9.326   7.461  11.075 -0.1867 -0.3331 -1.0431
  502MOL0     N69189   8.804   7.495  10.798  0.1311 -0.4386  0.4316
  502MOL0     N69190   8.813   7.431  10.691  0.2617 -0.0014 -0.2723
  502MOL0     C69191   9.284   8.176  10.410  0.6315  0.6229  0.5899
  502MOL0     C69192   9.299   8.310  10.351 -0.1392  0.2842 -0.1238
  502MOL0     C69193   9.246   8.734  10.257 -0.7206  1.0471  0.8790
  502MOL0     C69194   9.123   8.797  10.265 -0.8325 -0.0012  0.0670
  502MOL0     C69195   9.100   8.929  10.225  0.2148 -0.0338 -0.7731
  502MOL0     C69196   9.210   9.000  10.168  0.2438 -0.0458  0.1707
  502MOL0     O69197   9.185   9.131  10.140 -0.4331 -0.2977 -0.0462
  502MOL0     C69198   9.237   9.176  10.009  0.4906  0.7862  0.0094
  502MOL0     C69199   9.201   9.315   9.964 -0.7173 -0.0120 -0.0828
  502MOL0     C69200   9.057   9.356   9.994  0.6185  0.1295  1.1972
  502MOL0     C69201   9.026   9.485   9.911 -0.8689 -0.2096  0.6272
  502MOL0     C69202   9.041   9.615   9.969 -0.1459 -1.2377 -0.4260
  502MOL0     C69203   9.055   9.727  10.006  0.2300  0.2035 -0.1856
  502MOL0     C69204   9.335   8.934  10.155  0.2353 -0.8478 -0.5492
  502MOL0     C69205   9.353   8.802  10.196  0.7351  0.0594  0.4257
  502MOL0     C69206   9.469   8.727  10.147 -0.4650 -0.5313 -0.5245
  502MOL0     H69207   8.990   8.385  10.265  1.3732 -0.2100 -1.2577
  502MOL0     H69208   8.965   8.122  10.347  0.6208  0.0646 -2.2605
  502MOL0     H69209   8.981   7.918  10.399  0.6069  1.3367 -2.0609
  502MOL0     H69210   9.078   7.799  10.474  1.3944  1.5931  0.4577
  502MOL0     H69211   9.149   7.931  10.205 -1.8431  1.6915  1.5912
  502MOL0     H69212   9.228   7.787  10.267  0.8142 -0.5043  0.5485
  502MOL0     H69213   8.959   7.817  10.152  0.8153  2.5487  1.8788
  502MOL0     H69214   9.080   7.713  10.075 -0.9590 -1.5355  0.4424
  502MOL0     H69215   9.086   7.555  10.265 -1.5926 -2.3699 -3.5221
  502MOL0     H69216   8.963   7.659  10.351  1.3035 -0.6193 -0.3847
  502MOL0     H69217   8.917   7.536  10.079  0.2179 -0.7430  1.5098
  502MOL0     H69218   8.785   7.586  10.195  0.1861  1.7852  0.1919
  502MOL0     H69219   8.792   7.355  10.192 -0.3278 -0.8780  1.5346
  502MOL0     H69220   8.968   7.356  10.213  0.1789  1.0768  0.1761
  502MOL0     H69221   8.941   7.449  10.451  0.1158 -1.7815  1.9940
  502MOL0     H69222   8.850   7.302  10.429  2.0216  0.9557  1.4571
  502MOL0     H69223   8.728   7.579  10.408  0.1285  0.4305  0.5043
  502MOL0     H69224   8.645   7.423  10.428 -1.0945  1.0576  0.0924
  502MOL0     H69225   8.705   7.720  10.585 -1.0684  1.6647  2.1536
  502MOL0     H69226   8.705   7.668  10.976 -0.5752 -2.0987 -2.3665
  502MOL0     H69227   8.680   7.789  10.842  1.1031  0.6879  0.3356
  502MOL0     H69228   8.861   7.912  10.885 -0.7875 -0.5773 -1.0365
  502MOL0     H69229   8.870   7.843  11.041 -0.0033 -0.8132  0.4091
  502MOL0     H69230   8.997   7.710  10.808  0.9049 -0.2045  0.9063
  502MOL0     H69231   9.078   7.848  10.869 -1.3626 -0.0585 -3.3151
  502MOL0     H69232   9.052   7.760  11.113  0.9809  0.0075 -0.1587
  502MOL0     H69233   8.981   7.618  11.052 -0.5652  0.7727  0.0069
  502MOL0     H69234   9.011   7.432  10.952  0.2563  0.5234 -0.8861
  502MOL0     H69235   9.042   7.087  11.055 -1.5515 -2.4852 -1.5560
  502MOL0     H69236   9.055   7.129  10.884  2.2639  2.9433 -1.2665
  502MOL0     H69237   8.939   7.224  10.992  1.7566  2.0611  1.5405
  502MOL0     H69238   9.600   6.956  11.113 -0.8981 -1.0557 -3.7814
  502MOL0     H69239   9.676   6.749  11.158  0.8210  0.3270  2.1007
  502MOL0     H69240   9.378   6.453  11.319  0.4315  0.1380  0.1247
  502MOL0     H69241   9.424   6.401  11.161 -1.8983 -1.3364  0.0458
  502MOL0     H69242   9.611   6.254  11.216  3.6220 -1.2815  2.3894
  502MOL0     H69243   9.608   6.325  11.379 -0.3539 -2.1594  0.5220
  502MOL0     H69244   9.508   6.082  11.339 -1.4719 -0.6095 -0.5767
  502MOL0     H69245   9.388   6.171  11.247  0.3787  2.9372 -2.0079
  502MOL0     H69246   9.412   6.298  11.516 -3.1818  2.0763 -2.0639
  502MOL0     H69247   9.432   6.127  11.547 -1.1754 -0.3449 -0.2389
  502MOL0     H69248   9.208   6.076  11.441 -3.0216  0.5629  0.5466
  502MOL0     H69249   9.200   6.200  11.565  0.6923  0.6522  0.3029
  502MOL0     H69250   9.203   6.273  11.269  0.3219 -0.9942  0.7417
  502MOL0     H69251   9.197   6.379  11.416 -0.6924 -1.3919  0.2530
  502MOL0     H69252   8.989   6.261  11.487 -0.3843  0.0276  0.0395
  502MOL0     H69253   8.988   6.178  11.323  1.0221  0.6916 -1.4370
  502MOL0     H69254   8.998   6.400  11.221  1.2523 -1.7217  0.4317
  502MOL0     H69255   8.995   6.484  11.368  0.6950 -0.5793 -0.0322
  502MOL0     H69256   9.275   6.624  11.277 -0.2783 -1.6727 -2.9522
  502MOL0     H69257   9.205   6.846  11.219 -0.3828 -0.5073  1.8802
  502MOL0     H69258   9.462   7.298  11.110 -0.2311 -1.3742 -0.4263
  502MOL0     H69259   9.402   7.530  11.109  1.4055 -2.9954  1.2459
  502MOL0     H69260   9.376   8.119  10.422 -0.0771 -0.8466 -0.6951
  502MOL0     H69261   9.394   8.357  10.330  0.1441 -0.5856 -0.8978
  502MOL0     H69262   9.041   8.749  10.318 -1.3083  3.4392  2.7890
  502MOL0     H69263   9.009   8.985  10.241 -0.2036 -0.8952 -0.0230
  502MOL0     H69264   9.346   9.180  10.001  0.5151  3.4452  0.9316
  502MOL0     H69265   9.201   9.111   9.929 -1.4220  0.7946  0.7957
  502MOL0     H69266   9.222   9.318   9.857 -2.5289  0.0685 -0.4535
  502MOL0     H69267   9.274   9.381  10.013 -0.1970  0.7180 -1.7931
  502MOL0     H69268   8.989   9.275   9.966 -0.0846  1.0610  0.1471
  502MOL0     H69269   9.041   9.357  10.103 -1.6933 -0.4047  0.9151
  502MOL0     H69270   8.918   9.475   9.895 -0.9553  1.4516  0.0098
  502MOL0     H69271   9.069   9.486   9.811  1.8560 -1.9303  1.6634
  502MOL0     H69272   9.039   9.823  10.051 -1.2776 -1.4463  3.1281
  502MOL0     H69273   9.410   8.979  10.091 -1.0695  1.0685 -0.8203
  502MOL0     H69274   9.540   8.801  10.109  0.3641  0.4458  2.5865
  502MOL0     H69275   9.519   8.671  10.227 -0.7547 -2.9672 -1.9534
  502MOL0     H69276   9.442   8.650  10.074 -1.5668 -0.5705 -0.1012
  503MOL0     O69277   4.583   2.967   7.879  0.1087 -0.3255 -0.1913
  503MOL0     C69278   4.673   2.938   7.962  1.0135 -0.7862  0.6832
  503MOL0     O69279   4.804   2.944   7.928  0.8888 -0.7299  0.2893
  503MOL0     C69280   4.837   2.927   7.794 -0.5410 -1.3934 -0.1020
  503MOL0     C69281   4.781   2.985   7.677  0.4568 -0.0611 -0.5064
  503MOL0     C69282   4.827   2.955   7.550  0.3229  0.6520  0.5923
  503MOL0     C69283   4.935   2.868   7.541  0.5962 -0.3153  1.2961
  503MOL0     O69284   4.997   2.839   7.421  0.3128  0.0292  0.0083
  503MOL0     C69285   4.970   2.906   7.299 -0.7278  0.0446  0.4403
  503MOL0     C69286   4.861   2.833   7.220 -0.0401  0.3679  0.2864
  503MOL0     C69287   4.782   2.917   7.118 -0.5966 -0.9581 -0.2558
  503MOL0     C69288   4.660   2.841   7.067  0.0627  0.5019  0.0006
  503MOL0     C69289   4.592   2.908   6.951  0.5749  0.3836  0.2004
  503MOL0     C69290   4.672   2.910   6.823 -0.1937 -0.2789 -0.3663
  503MOL0     C69291   4.597   2.946   6.697  0.0017 -0.4426  0.0960
  503MOL0     C69292   4.682   3.010   6.588  0.2138  0.7608 -0.3492
  503MOL0     N69293   4.807   2.941   6.568  0.8660  0.6186 -0.3899
  503MOL0     C69294   4.817   2.809   6.558 -0.9758 -0.6547  0.3746
  503MOL0     C69295   4.954   2.787   6.558  0.9030  0.6752  0.0646
  503MOL0     C69296   5.027   2.656   6.559 -0.6616 -0.5662 -0.1809
  503MOL0     C69297   5.053   2.601   6.420  1.0929  0.0128 -0.4247
  503MOL0     C69298   5.131   2.470   6.429  0.1926 -0.1577 -0.1481
  503MOL0     C69299   5.176   2.431   6.290  0.2575 -0.4979 -0.2968
  503MOL0     O69300   5.291   2.508   6.240  0.4352  0.9099 -0.4032
  503MOL0     C69301   5.420   2.464   6.256 -0.0436  0.5512 -0.0418
  503MOL0     C69302   5.522   2.558   6.247 -0.5478 -0.8195 -0.5793
  503MOL0     C69303   5.662   2.521   6.245  0.3472  0.4683 -0.1208
  503MOL0     C69304   5.766   2.621   6.201  0.1409 -1.1459  0.6369
  503MOL0     C69305   5.690   2.389   6.279 -0.1119  0.1689  0.0454
  503MOL0     C69306   5.823   2.344   6.280  0.4426  0.3697  0.5164
  503MOL0     O69307   5.903   2.413   6.372  0.7383 -1.0300 -0.1932
  503MOL0     C69308   6.028   2.363   6.374 -0.2400  0.2944  0.0925
  503MOL0     C69309   6.055   2.267   6.472  1.0919 -0.3995  0.0595
  503MOL0     C69310   6.177   2.199   6.479 -0.3154 -0.5663  0.4168
  503MOL0     C69311   6.279   2.221   6.385  0.9699  0.6269  0.5372
  503MOL0     O69312   6.386   2.145   6.401 -0.9671 -0.0420 -0.6443
  503MOL0     C69313   6.446   2.068   6.287  0.6628 -0.2514 -0.1949
  503MOL0     C69314   6.460   1.914   6.297 -0.3395 -0.0495 -0.2175
  503MOL0     C69315   6.560   1.858   6.394  0.5838  0.2650 -0.7990
  503MOL0     C69316   6.693   1.929   6.393  0.7977 -0.9326 -0.3673
  503MOL0     C69317   6.789   1.888   6.289 -0.8242 -0.9359 -0.1529
  503MOL0     C69318   6.932   1.953   6.324  0.1452  0.2972 -0.5606
  503MOL0     C69319   7.021   1.933   6.201  0.9300  0.5988 -0.2027
  503MOL0     C69320   7.166   1.938   6.232 -0.8977 -0.4631 -0.1565
  503MOL0    Cl69321   7.275   1.895   6.089  0.3289  0.2931 -0.4591
  503MOL0     C69322   6.250   2.305   6.276 -0.1389 -0.3489 -0.5794
  503MOL0     C69323   6.131   2.381   6.274 -0.1815  0.9449  0.0805
  503MOL0     O69324   5.858   2.250   6.213  0.5349  0.7834 -0.6501
  503MOL0     C69325   5.583   2.296   6.301 -0.2965  0.4537  0.8349
  503MOL0     C69326   5.451   2.335   6.282  0.5634 -0.2818  0.0233
  503MOL0     N69327   5.021   2.905   6.578  1.0640  0.1338 -0.4669
  503MOL0     N69328   4.935   2.990   6.588  0.5611  0.6765 -0.8558
  503MOL0     C69329   4.988   2.810   7.655 -0.6068  0.1950  0.1758
  503MOL0     C69330   4.945   2.845   7.776  1.0108  0.4525  0.2476
  503MOL0     C69331   4.640   2.958   8.099  0.3205  0.3940  0.4076
  503MOL0     C69332   4.734   3.013   8.172 -0.5069 -0.4762 -0.5829
  503MOL0     C69333   4.716   3.035   8.305 -0.2298  0.7584 -0.2707
  503MOL0     C69334   4.599   3.003   8.365  0.4445 -0.1650  0.2174
  503MOL0     O69335   4.592   3.033   8.504  0.1950 -0.5849  0.4659
  503MOL0     C69336   4.491   2.975   8.581  0.1297 -0.6377 -0.5515
  503MOL0     C69337   4.509   2.816   8.593 -0.3920  0.6551 -0.2508
  503MOL0     C69338   4.651   2.764   8.620 -0.4867 -0.6938  0.2881
  503MOL0     C69339   4.659   2.624   8.670  0.1608  0.5927  1.0878
  503MOL0     C69340   4.573   2.603   8.784  0.1476  0.2045  0.6130
  503MOL0     C69341   4.487   2.592   8.875 -0.1674  0.2518  0.2695
  503MOL0     C69342   4.497   2.944   8.290 -0.2461 -0.3039 -0.2201
  503MOL0     C69343   4.521   2.917   8.162  0.1072  0.2552 -0.1953
  503MOL0     C69344   4.426   2.841   8.082  0.5348 -0.0155  0.6712
  503MOL0     H69345   4.700   3.054   7.697 -1.0445 -2.0299  0.6673
  503MOL0     H69346   4.790   3.001   7.459  1.8544  1.1270  0.1692
  503MOL0     H69347   5.057   2.905   7.234 -1.5490 -1.6644 -0.7291
  503MOL0     H69348   4.952   3.012   7.318 -0.4446  0.1849 -0.0590
  503MOL0     H69349   4.904   2.746   7.169  0.9295  1.2310 -0.4301
  503MOL0     H69350   4.786   2.802   7.293 -2.8955 -1.8831 -3.2715
  503MOL0     H69351   4.747   3.012   7.158 -0.5679 -0.1486 -2.0579
  503MOL0     H69352   4.855   2.948   7.042  1.0018 -1.9319  0.8230
  503MOL0     H69353   4.686   2.737   7.043  0.0979  0.9388 -2.0757
  503MOL0     H69354   4.585   2.836   7.146  0.2800  0.7919  0.2253
  503MOL0     H69355   4.582   3.012   6.985  1.6557 -0.0393  1.9326
  503MOL0     H69356   4.499   2.854   6.932  0.5168  1.3001 -2.5752
  503MOL0     H69357   4.761   2.973   6.829 -0.3574  0.4189 -3.5987
  503MOL0     H69358   4.717   2.811   6.810  1.4995  0.5001 -0.7046
  503MOL0     H69359   4.515   3.016   6.715 -0.4682 -0.7856 -0.6464
  503MOL0     H69360   4.543   2.860   6.655 -0.6754  1.5818 -3.5076
  503MOL0     H69361   4.623   3.012   6.496  0.3441 -0.1084 -0.4577
  503MOL0     H69362   4.706   3.112   6.619  1.2074 -0.5507  3.7221
  503MOL0     H69363   4.741   2.733   6.571 -2.2838  0.3297 -1.1744
  503MOL0     H69364   4.967   2.583   6.614  2.2898 -1.7534  1.6761
  503MOL0     H69365   5.119   2.671   6.617  0.0263  1.4302 -1.6566
  503MOL0     H69366   4.956   2.576   6.377  0.7249 -0.7493  0.8006
  503MOL0     H69367   5.114   2.669   6.359  0.5592 -0.1539 -1.1565
  503MOL0     H69368   5.225   2.492   6.480 -0.5647  3.1619  0.0405
  503MOL0     H69369   5.076   2.396   6.487 -1.6249  2.0543  1.0862
  503MOL0     H69370   5.201   2.325   6.285  2.1609 -0.2761  2.3169
  503MOL0     H69371   5.092   2.438   6.220 -0.9807 -1.3981  1.0532
  503MOL0     H69372   5.494   2.658   6.216 -1.4567 -0.2467  1.9336
  503MOL0     H69373   5.722   2.719   6.182  0.3362 -1.4270 -1.4367
  503MOL0     H69374   5.825   2.591   6.114  0.0633  3.6517 -1.3640
  503MOL0     H69375   5.848   2.622   6.273  0.9792 -3.8702 -0.1449
  503MOL0     H69376   5.969   2.260   6.537  1.5134  3.2139  1.1992
  503MOL0     H69377   6.202   2.122   6.552 -0.5011 -2.7459 -1.6840
  503MOL0     H69378   6.381   2.084   6.200 -2.4545  0.5890  2.1332
  503MOL0     H69379   6.544   2.114   6.272  1.9009 -1.5952  2.8902
  503MOL0     H69380   6.361   1.868   6.302  0.1467 -1.0511  0.4444
  503MOL0     H69381   6.491   1.879   6.198  0.7940  1.7683 -0.5400
  503MOL0     H69382   6.571   1.750   6.389  0.9667  0.1353  1.7674
  503MOL0     H69383   6.521   1.882   6.493  0.4663 -0.1058 -0.7558
  503MOL0     H69384   6.731   1.901   6.492 -0.5771 -1.4632  0.0297
  503MOL0     H69385   6.683   2.038   6.398  2.2554 -0.8314  1.0114
  503MOL0     H69386   6.800   1.780   6.285  1.6153 -0.7081 -2.7820
  503MOL0     H69387   6.744   1.927   6.197  2.7579  1.6223 -1.0245
  503MOL0     H69388   6.977   1.907   6.413  2.4650  2.3298 -0.5785
  503MOL0     H69389   6.917   2.058   6.350  0.3366 -0.2455  2.0605
  503MOL0     H69390   6.992   2.014   6.133  1.0102 -0.9785 -2.1911
  503MOL0     H69391   6.993   1.839   6.151 -2.0809  1.4487 -0.3509
  503MOL0     H69392   7.186   1.889   6.328 -1.2688  0.5903  0.4810
  503MOL0     H69393   7.177   2.047   6.244  2.8026 -0.7204 -0.0294
  503MOL0     H69394   6.334   2.316   6.208 -1.0420  1.8341 -1.4363
  503MOL0     H69395   6.101   2.428   6.181 -4.3910 -0.5129  0.5093
  503MOL0     H69396   5.589   2.191   6.330  0.3030  0.3394  0.2927
  503MOL0     H69397   5.378   2.254   6.285  0.4265 -0.1722 -0.3458
  503MOL0     H69398   5.074   2.744   7.650 -0.2501  0.5929  0.9500
  503MOL0     H69399   4.984   2.796   7.864  0.4625 -0.8808 -0.2230
  503MOL0     H69400   4.833   3.035   8.133  1.2086 -2.6835  2.0648
  503MOL0     H69401   4.782   3.087   8.373 -0.6648  0.7882  0.1322
  503MOL0     H69402   4.500   3.008   8.684 -0.6802  1.6923 -1.1634
  503MOL0     H69403   4.394   3.005   8.538 -0.5846 -0.6418  0.9949
  503MOL0     H69404   4.470   2.778   8.498 -2.7760  1.6814  0.2695
  503MOL0     H69405   4.450   2.782   8.678  1.1171 -2.3095 -0.2213
  503MOL0     H69406   4.698   2.781   8.523 -1.8877 -1.5870 -0.5781
  503MOL0     H69407   4.689   2.844   8.685 -2.8887  0.2834  0.5908
  503MOL0     H69408   4.761   2.592   8.694  0.5418  0.9141 -0.0241
  503MOL0     H69409   4.630   2.548   8.596  1.3563 -0.9481  2.1429
  503MOL0     H69410   4.410   2.583   8.948  0.0132 -0.3037  0.3928
  503MOL0     H69411   4.396   2.925   8.325 -0.4495  0.8438 -0.1319
  503MOL0     H69412   4.467   2.755   8.028 -2.2000 -1.3747  0.6139
  503MOL0     H69413   4.344   2.800   8.141  0.2055 -2.7720 -1.4731
  503MOL0     H69414   4.388   2.913   8.009 -1.8820  0.4287  2.2561
  504MOL0     O69415   5.634   0.700   2.191 -0.6010  0.3207  0.7524
  504MOL0     C69416   5.560   0.735   2.099  0.6339  0.4975  0.1099
  504MOL0     O69417   5.533   0.868   2.068 -0.2264  0.5478 -0.2793
  504MOL0     C69418   5.635   0.957   2.099  0.0321 -0.0690 -0.5663
  504MOL0     C69419   5.764   0.935   2.049  0.5103 -0.0270  0.4304
  504MOL0     C69420   5.869   1.022   2.085  0.6316 -0.9262  0.6680
  504MOL0     C69421   5.842   1.120   2.182  1.0668  0.9377 -0.3003
  504MOL0     O69422   5.942   1.205   2.221 -0.1651  0.1712 -0.0350
  504MOL0     C69423   6.081   1.171   2.190 -0.1528  0.2355  0.2194
  504MOL0     C69424   6.169   1.281   2.253  0.0978  0.4084 -0.1715
  504MOL0     C69425   6.183   1.403   2.163  0.3380  0.4815 -0.8537
  504MOL0     C69426   6.229   1.533   2.249  1.3291  0.8103  1.3313
  504MOL0     C69427   6.291   1.634   2.156  0.0487  0.1447 -0.0843
  504MOL0     C69428   6.337   1.744   2.248  0.4720  0.0883  0.3910
  504MOL0     C69429   6.466   1.721   2.335  0.2968  0.2574  0.9854
  504MOL0     C69430   6.554   1.850   2.349 -0.4476 -0.0204  0.4238
  504MOL0     N69431   6.683   1.816   2.419 -0.5867 -1.4978 -0.3897
  504MOL0     C69432   6.700   1.734   2.530  0.2806  0.1851 -0.1768
  504MOL0     C69433   6.834   1.723   2.543  0.5444 -0.5224 -0.2029
  504MOL0     C69434   6.913   1.640   2.640 -0.1454  0.4648  1.2591
  504MOL0     C69435   6.973   1.507   2.577  1.0623  0.5111 -0.5322
  504MOL0     C69436   7.093   1.464   2.657  0.6654 -0.6596  0.0965
  504MOL0     C69437   7.185   1.369   2.565 -0.1713  0.4186 -0.4983
  504MOL0     O69438   7.243   1.439   2.456  0.2334  0.9400 -0.4407
  504MOL0     C69439   7.325   1.538   2.491  0.5461 -0.5042 -0.8362
  504MOL0     C69440   7.457   1.504   2.506 -0.4915  0.2283  0.4641
  504MOL0     C69441   7.560   1.596   2.540 -0.2516  0.1464 -0.2415
  504MOL0     C69442   7.702   1.542   2.552  0.5086  0.1769 -0.6554
  504MOL0     C69443   7.525   1.733   2.566  0.3870  0.0743 -0.9246
  504MOL0     C69444   7.623   1.832   2.599 -0.0078 -0.6917  0.3878
  504MOL0     O69445   7.580   1.957   2.589 -0.1391  0.1209  0.2718
  504MOL0     C69446   7.667   2.060   2.613  0.6925 -0.5229  0.3424
  504MOL0     C69447   7.716   2.097   2.743  0.3565 -0.8547  0.0542
  504MOL0     C69448   7.793   2.212   2.761 -0.1918 -0.4332  0.7291
  504MOL0     C69449   7.847   2.291   2.651  0.7328  0.7119 -0.1108
  504MOL0     O69450   7.929   2.401   2.662  0.1186  0.5145  0.9701
  504MOL0     C69451   8.026   2.395   2.762 -0.5057 -0.1718  0.2339
  504MOL0     C69452   8.121   2.521   2.728  0.3243 -1.0540  0.2269
  504MOL0     C69453   8.209   2.568   2.848 -0.4034  0.0484  0.3840
  504MOL0     C69454   8.355   2.608   2.786  0.0508  0.6917 -0.8356
  504MOL0     C69455   8.445   2.677   2.877 -0.9786 -0.4301  0.1760
  504MOL0     C69456   8.538   2.590   2.970  0.1659  0.0600 -0.1975
  504MOL0     C69457   8.628   2.666   3.072 -0.7686 -0.4507  0.2746
  504MOL0     C69458   8.727   2.587   3.163 -0.2793 -0.5149 -0.0129
  504MOL0    Cl69459   8.858   2.507   3.064  0.0556 -0.2587  0.6720
  504MOL0     C69460   7.794   2.252   2.527  0.5985 -0.3149  0.4721
  504MOL0     C69461   7.703   2.146   2.511  0.3606  0.0500  0.2387
  504MOL0     O69462   7.740   1.810   2.631 -0.5553  0.7339  0.4735
  504MOL0     C69463   7.387   1.763   2.545 -0.1548  0.4985  0.7803
  504MOL0     C69464   7.287   1.671   2.509  0.7740 -0.4499  0.1377
  504MOL0     N69465   6.892   1.807   2.449 -0.0921  0.4932 -0.5164
  504MOL0     N69466   6.806   1.855   2.375 -0.3151  0.3716  0.5291
  504MOL0     C69467   5.713   1.135   2.238 -0.2946  0.2041 -0.7837
  504MOL0     C69468   5.609   1.062   2.184 -0.5413  0.2511 -0.1353
  504MOL0     C69469   5.480   0.637   2.022  1.2377  0.1711  0.3649
  504MOL0     C69470   5.371   0.688   1.942  0.3608  0.5244 -0.6084
  504MOL0     C69471   5.291   0.597   1.875 -0.3961 -0.7529  0.4091
  504MOL0     C69472   5.325   0.465   1.853 -0.8131  0.1770  0.5195
  504MOL0     O69473   5.240   0.385   1.781  0.4626  1.6558 -0.2169
  504MOL0     C69474   5.287   0.285   1.682 -0.2628  0.0337 -0.8793
  504MOL0     C69475   5.180   0.174   1.653 -0.1832  0.1045  0.1190
  504MOL0     C69476   5.073   0.157   1.759  0.5185  0.3825  0.1690
  504MOL0     C69477   4.966   0.274   1.753 -1.2749  0.1160  0.1149
  504MOL0     C69478   4.923   0.302   1.889 -1.6288 -0.0482 -0.4149
  504MOL0     C69479   4.898   0.323   1.998 -0.0893  0.4425  0.0820
  504MOL0     C69480   5.441   0.416   1.913  0.5648  0.0210  0.1051
  504MOL0     C69481   5.511   0.501   1.999 -0.9887 -0.3410 -0.3435
  504MOL0     C69482   5.631   0.431   2.059  1.1995 -1.3520  0.7815
  504MOL0     H69483   5.770   0.855   1.976 -2.0993  3.5762 -4.3544
  504MOL0     H69484   5.956   1.016   2.020 -0.2845 -2.0129 -0.5067
  504MOL0     H69485   6.099   1.164   2.082 -2.0281 -0.8514 -0.0716
  504MOL0     H69486   6.107   1.071   2.225  0.4089  1.2364  2.8367
  504MOL0     H69487   6.126   1.306   2.350 -0.6303 -1.6463  0.0875
  504MOL0     H69488   6.266   1.238   2.282 -0.8707 -1.0154  1.1060
  504MOL0     H69489   6.257   1.390   2.083  1.3150 -1.2359  0.2598
  504MOL0     H69490   6.095   1.431   2.105 -0.1354  1.9899  0.5283
  504MOL0     H69491   6.143   1.568   2.308  1.6636  2.8870  0.6397
  504MOL0     H69492   6.307   1.504   2.321  0.7310  2.9027  2.9444
  504MOL0     H69493   6.214   1.665   2.085 -0.5162 -0.5536  0.2001
  504MOL0     H69494   6.369   1.600   2.087  1.0809  2.1769  0.0356
  504MOL0     H69495   6.347   1.841   2.199  0.2637  1.2300  2.5389
  504MOL0     H69496   6.263   1.768   2.324 -0.2549  1.9202 -0.8314
  504MOL0     H69497   6.520   1.634   2.298 -0.1918 -0.0661  1.0144
  504MOL0     H69498   6.444   1.693   2.439  0.9861  1.2955  1.4271
  504MOL0     H69499   6.580   1.904   2.257 -0.0942  1.2550  1.2527
  504MOL0     H69500   6.495   1.920   2.409 -1.7981 -1.2332  0.5535
  504MOL0     H69501   6.622   1.672   2.575  0.2952  0.4791  0.2549
  504MOL0     H69502   6.853   1.603   2.724  1.6972 -2.8972  1.2669
  504MOL0     H69503   6.992   1.706   2.676 -0.2094 -0.0434  2.3745
  504MOL0     H69504   6.886   1.442   2.588 -3.3581  5.1756 -3.2696
  504MOL0     H69505   7.011   1.533   2.478  0.0940  3.0237 -0.3299
  504MOL0     H69506   7.150   1.552   2.687  1.0191 -0.0999 -2.0419
  504MOL0     H69507   7.075   1.415   2.753  0.0795 -0.3331  0.1555
  504MOL0     H69508   7.265   1.338   2.632 -3.1355 -1.5872  2.4534
  504MOL0     H69509   7.136   1.272   2.548 -2.3341  1.7891 -2.8337
  504MOL0     H69510   7.485   1.400   2.497  2.5745  1.1160 -1.7201
  504MOL0     H69511   7.738   1.558   2.655 -1.3878  0.9525 -0.0757
  504MOL0     H69512   7.774   1.583   2.480  1.7169 -0.7965 -0.0421
  504MOL0     H69513   7.701   1.434   2.540  0.8273  0.4040 -3.2800
  504MOL0     H69514   7.697   2.026   2.823 -2.3496 -0.5687 -0.2366
  504MOL0     H69515   7.811   2.228   2.867 -5.0451 -3.3307  2.2988
  504MOL0     H69516   7.975   2.430   2.852 -0.5359 -1.0287  0.5555
  504MOL0     H69517   8.076   2.298   2.762  1.2241  0.6878  0.6087
  504MOL0     H69518   8.174   2.490   2.638 -1.7418  0.0911 -1.4811
  504MOL0     H69519   8.059   2.603   2.690  3.1441  0.5384 -1.2580
  504MOL0     H69520   8.230   2.490   2.922  3.1351 -0.8988 -1.3727
  504MOL0     H69521   8.164   2.655   2.895  1.2517  0.0529  2.1062
  504MOL0     H69522   8.331   2.689   2.716 -3.8603  2.0431  1.7437
  504MOL0     H69523   8.406   2.526   2.736  1.5131 -1.3655  3.5524
  504MOL0     H69524   8.496   2.754   2.818 -3.0576  0.9766  0.1119
  504MOL0     H69525   8.388   2.738   2.947  0.9172 -0.3141  1.7221
  504MOL0     H69526   8.610   2.536   2.909  1.5740 -1.7404  2.8403
  504MOL0     H69527   8.466   2.528   3.025  1.3272 -1.6279 -0.5204
  504MOL0     H69528   8.559   2.726   3.132  0.8598  1.4083  0.3628
  504MOL0     H69529   8.672   2.748   3.014 -0.8909 -1.4867 -1.3494
  504MOL0     H69530   8.672   2.504   3.207 -1.1016 -0.8131 -1.5393
  504MOL0     H69531   8.764   2.647   3.246 -0.9148 -2.3294  1.6428
  504MOL0     H69532   7.819   2.304   2.435  3.8449 -0.4339  1.1450
  504MOL0     H69533   7.644   2.131   2.421 -2.6017 -0.5078  2.1341
  504MOL0     H69534   7.346   1.864   2.551 -2.6257 -0.4335  0.4763
  504MOL0     H69535   7.189   1.711   2.486  1.5145  0.0289 -2.5493
  504MOL0     H69536   5.691   1.205   2.318 -2.2278  0.0322 -1.1095
  504MOL0     H69537   5.508   1.077   2.221 -0.5928  2.5040 -1.0270
  504MOL0     H69538   5.342   0.793   1.936  2.0081  1.0575  0.2097
  504MOL0     H69539   5.210   0.636   1.814  0.8370 -0.1992 -0.9471
  504MOL0     H69540   5.309   0.345   1.594 -0.1298  1.0255 -0.1858
  504MOL0     H69541   5.378   0.227   1.698 -2.5171 -3.7939 -0.7792
  504MOL0     H69542   5.225   0.075   1.644 -1.1246 -0.3166 -0.1514
  504MOL0     H69543   5.130   0.196   1.558 -2.0974  2.3306  1.5282
  504MOL0     H69544   5.029   0.058   1.747  0.8871 -0.0250  2.0100
  504MOL0     H69545   5.113   0.152   1.860 -2.3425 -2.7902  1.3037
  504MOL0     H69546   4.885   0.234   1.691  1.1616 -2.5471 -1.5619
  504MOL0     H69547   5.006   0.366   1.710 -0.1746  0.9317  2.7424
  504MOL0     H69548   4.865   0.341   2.098 -1.3055  0.7559 -0.3645
  504MOL0     H69549   5.465   0.313   1.890  0.2080  0.6235 -3.7179
  504MOL0     H69550   5.696   0.486   2.128  3.3796 -2.5115 -0.2532
  504MOL0     H69551   5.591   0.346   2.114  0.5075  0.2937  2.9351
  504MOL0     H69552   5.697   0.392   1.981 -0.6104 -0.1915 -1.4487
  505MOL0     O69553  11.284   4.813  10.430  0.0238 -0.5746  0.3951
  505MOL0     C69554  11.212   4.770  10.515 -0.3162  0.7909  0.3860
  505MOL0     O69555  11.126   4.845  10.594 -0.2551 -0.5645  0.1164
  505MOL0     C69556  11.103   4.975  10.566  0.6026 -0.5675  0.2609
  505MOL0     C69557  11.132   5.077  10.660 -0.0769  0.9970 -0.1960
  505MOL0     C69558  11.105   5.209  10.641  0.1638 -0.2706  0.1259
  505MOL0     C69559  11.023   5.256  10.536  0.3660  0.7890 -0.0435
  505MOL0     O69560  10.992   5.387  10.541 -1.0638  0.7028  0.0650
  505MOL0     C69561  10.911   5.447  10.446 -0.7616  0.9967 -0.8228
  505MOL0     C69562  10.962   5.446  10.299 -0.3597 -0.6177  0.0681
  505MOL0     C69563  10.877   5.551  10.224 -0.1240  0.2083  0.0660
  505MOL0     C69564  10.817   5.503  10.090 -0.7274  0.3348  0.4160
  505MOL0     C69565  10.719   5.383  10.101 -0.6422 -0.1632  0.5500
  505MOL0     C69566  10.683   5.318   9.965 -0.0520  0.0159 -0.0042
  505MOL0     C69567  10.622   5.173   9.977  0.3770 -0.8094 -0.9265
  505MOL0     C69568  10.562   5.125   9.843  0.6615  0.3681  0.0306
  505MOL0     N69569  10.664   5.136   9.736  0.6602  0.1080  1.0248
  505MOL0     C69570  10.789   5.086   9.732  0.1176  0.7910  0.0627
  505MOL0     C69571  10.858   5.147   9.633  0.8073 -0.4332 -0.1648
  505MOL0     C69572  11.008   5.118   9.606  0.3159 -0.6606  0.9048
  505MOL0     C69573  11.079   5.209   9.492 -0.4111 -0.8742  0.1910
  505MOL0     C69574  11.235   5.217   9.492  0.0503 -0.9725 -0.1099
  505MOL0     C69575  11.286   5.352   9.436  0.0727 -0.0032 -0.4093
  505MOL0     O69576  11.208   5.402   9.325 -0.1810  0.6749 -0.0833
  505MOL0     C69577  11.279   5.458   9.224 -0.3128 -0.6165 -0.2959
  505MOL0     C69578  11.344   5.376   9.128 -0.1789  0.7724  0.4323
  505MOL0     C69579  11.424   5.429   9.033  0.7970 -0.1521  0.4587
  505MOL0     C69580  11.493   5.332   8.947 -0.0697 -0.7668 -0.2258
  505MOL0     C69581  11.435   5.571   9.028 -0.3375 -0.1001  0.0009
  505MOL0     C69582  11.523   5.632   8.929  0.1751  0.6387  0.4746
  505MOL0     O69583  11.589   5.744   8.976  0.1806  0.8110  0.0637
  505MOL0     C69584  11.687   5.806   8.892 -0.0149  0.3256  0.0092
  505MOL0     C69585  11.718   5.947   8.902 -0.9257 -0.2366  0.2773
  505MOL0     C69586  11.805   6.016   8.806 -0.0368  0.3353 -0.9538
  505MOL0     C69587  11.895   5.944   8.728 -0.0280 -0.0475  0.3596
  505MOL0     O69588  11.976   6.016   8.649  0.6373  0.1810  0.1220
  505MOL0     C69589  11.980   5.965   8.512 -0.4258 -0.2746  0.0849
  505MOL0     C69590  11.947   6.093   8.433 -0.3814 -0.6245  0.4906
  505MOL0     C69591  12.046   6.107   8.308  0.6673 -0.1048 -0.2399
  505MOL0     C69592  12.005   6.240   8.247 -0.1360  0.5717  0.9511
  505MOL0     C69593  12.120   6.287   8.147  0.0666  0.8358 -0.7289
  505MOL0     C69594  12.096   6.436   8.112 -0.4228 -0.2639  0.1623
  505MOL0     C69595  12.144   6.475   7.967 -1.1259 -0.3547  0.3215
  505MOL0     C69596  12.294   6.454   7.963 -1.4675  0.5744  0.0751
  505MOL0    Cl69597  12.378   6.539   8.088  0.1963  0.1061 -0.1993
  505MOL0     C69598  11.883   5.805   8.730 -0.2469 -0.1342  0.5105
  505MOL0     C69599  11.780   5.737   8.811 -0.4233  0.0040  0.0412
  505MOL0     O69600  11.523   5.584   8.815  0.3821 -0.1477 -0.7109
  505MOL0     C69601  11.369   5.654   9.112 -0.5543  0.5288 -0.9547
  505MOL0     C69602  11.293   5.598   9.214 -0.2306  1.1824 -0.4425
  505MOL0     N69603  10.767   5.231   9.569  0.4947 -0.7181  0.0002
  505MOL0     N69604  10.653   5.227   9.632  0.1063  0.8834  0.6562
  505MOL0     C69605  10.972   5.154  10.452 -0.2543 -0.0313  0.4656
  505MOL0     C69606  11.022   5.023  10.461  0.0014 -0.3639 -0.7069
  505MOL0     C69607  11.227   4.626  10.537  0.2836  0.0478  0.4340
  505MOL0     C69608  11.274   4.545  10.434 -0.1523  0.0253 -0.6351
  505MOL0     C69609  11.273   4.406  10.436 -0.1399  0.0414 -0.1308
  505MOL0     C69610  11.226   4.345  10.549 -0.6526 -0.0931  0.5846
  505MOL0     O69611  11.227   4.214  10.566  0.1576 -0.1399  0.7641
  505MOL0     C69612  11.239   4.123  10.466 -0.0928  0.4292 -0.6249
  505MOL0     C69613  11.108   4.132  10.374 -0.8379  0.1169  0.5119
  505MOL0     C69614  11.103   4.028  10.257  0.6740 -0.6106 -0.1834
  505MOL0     C69615  11.115   3.880  10.302 -0.0115  0.3891  0.8606
  505MOL0     C69616  11.036   3.850  10.423 -0.3474  0.8397 -0.5213
  505MOL0     C69617  10.983   3.811  10.527 -0.1433 -0.0642  0.3815
  505MOL0     C69618  11.198   4.421  10.662  0.1363  0.0594  0.0818
  505MOL0     C69619  11.188   4.553  10.652 -0.6759 -0.1577  0.1341
  505MOL0     C69620  11.151   4.636  10.776  0.7450  0.3960 -0.7748
  505MOL0     H69621  11.197   5.045  10.741 -3.4347  2.4421  3.3633
  505MOL0     H69622  11.133   5.272  10.725 -2.3013  2.0615 -0.6537
  505MOL0     H69623  10.895   5.550  10.478  0.7302  0.9518  0.1194
  505MOL0     H69624  10.811   5.401  10.444 -1.4143  2.3768 -1.7443
  505MOL0     H69625  11.066   5.478  10.300 -0.2127 -1.1082  1.2425
  505MOL0     H69626  10.963   5.350  10.246 -2.8958 -1.4446  1.3630
  505MOL0     H69627  10.801   5.605  10.281 -0.2624 -0.4283  0.5033
  505MOL0     H69628  10.943   5.630  10.188 -1.7164  1.8441  0.6274
  505MOL0     H69629  10.768   5.578  10.027  1.8298  0.8026 -1.1353
  505MOL0     H69630  10.899   5.466  10.028 -1.1023  0.7112 -0.3168
  505MOL0     H69631  10.625   5.406  10.153 -0.9743  0.2462 -0.2235
  505MOL0     H69632  10.763   5.297  10.152 -2.0290 -1.7547 -0.8145
  505MOL0     H69633  10.612   5.386   9.918 -1.1764 -3.4128 -3.8320
  505MOL0     H69634  10.769   5.319   9.897  2.5567  1.6871  3.0408
  505MOL0     H69635  10.544   5.175  10.054  1.7677 -1.4813  0.5515
  505MOL0     H69636  10.704   5.109  10.009  1.3297 -0.2272 -2.1120
  505MOL0     H69637  10.529   5.023   9.865  2.6874  0.2908  3.3618
  505MOL0     H69638  10.476   5.188   9.817  0.2532 -1.0033 -2.3029
  505MOL0     H69639  10.839   5.014   9.797 -1.8330 -0.7156 -0.0250
  505MOL0     H69640  11.030   5.017   9.570  0.9337  0.3282 -1.6952
  505MOL0     H69641  11.071   5.125   9.695  2.0381  1.4073 -0.3721
  505MOL0     H69642  11.049   5.192   9.388 -0.9463  2.1992 -0.2722
  505MOL0     H69643  11.051   5.313   9.512 -1.7319 -1.5815  2.2838
  505MOL0     H69644  11.263   5.200   9.596  0.2952 -2.1583 -0.3524
  505MOL0     H69645  11.287   5.144   9.429  0.8588 -1.1830  0.7854
  505MOL0     H69646  11.279   5.427   9.516  1.7976 -1.1855  0.9339
  505MOL0     H69647  11.392   5.343   9.413 -0.2189 -0.7820 -1.5091
  505MOL0     H69648  11.324   5.269   9.132  1.0574  0.5591  2.1822
  505MOL0     H69649  11.601   5.340   8.963 -0.5255  1.7062  2.5724
  505MOL0     H69650  11.458   5.334   8.844 -0.2544 -1.3947 -0.1849
  505MOL0     H69651  11.468   5.233   8.987 -1.9739 -0.4040 -0.4307
  505MOL0     H69652  11.657   6.012   8.963  0.4211 -0.8685  2.3904
  505MOL0     H69653  11.819   6.124   8.804 -1.1864  0.5056 -2.8338
  505MOL0     H69654  12.081   5.928   8.492  0.1791  2.4626 -2.6081
  505MOL0     H69655  11.907   5.885   8.498 -0.3700 -0.2762 -0.1991
  505MOL0     H69656  11.847   6.078   8.391 -0.0065  0.0928 -0.7065
  505MOL0     H69657  11.954   6.183   8.495  2.3823  1.1477 -2.1294
  505MOL0     H69658  12.034   6.027   8.234 -0.6828 -0.9919  0.8815
  505MOL0     H69659  12.151   6.107   8.337  0.9712 -0.8489 -1.2814
  505MOL0     H69660  11.983   6.322   8.316  0.1031  1.0622  0.4481
  505MOL0     H69661  11.916   6.230   8.184 -0.1682 -1.6342  1.2490
  505MOL0     H69662  12.223   6.276   8.182  0.1530  1.4588 -0.7820
  505MOL0     H69663  12.106   6.217   8.063  0.4751  0.9554 -0.8961
  505MOL0     H69664  12.142   6.491   8.194  3.4399 -1.6424 -0.8439
  505MOL0     H69665  11.992   6.469   8.106 -0.1363  0.6163 -0.0305
  505MOL0     H69666  12.125   6.582   7.950 -0.1373 -0.3253 -0.6875
  505MOL0     H69667  12.099   6.425   7.881  1.0065 -0.5820 -0.7284
  505MOL0     H69668  12.343   6.484   7.870 -0.9997 -2.5910 -0.8203
  505MOL0     H69669  12.317   6.348   7.979  3.1550  1.6127  2.1600
  505MOL0     H69670  11.959   5.743   8.684 -0.9673 -1.1852  0.6878
  505MOL0     H69671  11.764   5.630   8.815 -1.3962 -0.2497 -5.0504
  505MOL0     H69672  11.374   5.762   9.108  0.9407  0.5890  0.8309
  505MOL0     H69673  11.240   5.659   9.286 -2.3851 -2.3360  1.2594
  505MOL0     H69674  10.900   5.174  10.373 -1.3142  1.8322  1.8339
  505MOL0     H69675  10.980   4.969  10.376 -1.8080  0.7060 -0.5610
  505MOL0     H69676  11.323   4.591  10.349  1.0040  0.3370  0.1808
  505MOL0     H69677  11.317   4.359  10.348  2.2229  3.2962 -0.8958
  505MOL0     H69678  11.327   4.121  10.401 -1.9388  0.4246 -3.2974
  505MOL0     H69679  11.232   4.026  10.515  0.7665  0.4002 -0.5580
  505MOL0     H69680  11.112   4.229  10.323 -1.3116  1.8903  3.6216
  505MOL0     H69681  11.013   4.131  10.427 -0.0208  2.1121  2.1512
  505MOL0     H69682  11.000   4.044  10.224  0.5353 -1.4102 -0.1558
  505MOL0     H69683  11.176   4.052  10.180 -2.5363 -3.3151 -4.5394
  505MOL0     H69684  11.216   3.856  10.335  1.1975  0.6497 -2.3090
  505MOL0     H69685  11.097   3.818  10.214 -3.0010  3.1411 -0.6957
  505MOL0     H69686  10.929   3.779  10.614 -2.3443 -0.7537 -1.1578
  505MOL0     H69687  11.162   4.376  10.754  1.3444  0.1563  0.6286
  505MOL0     H69688  11.044   4.657  10.770 -0.6303 -4.5042  1.7787
  505MOL0     H69689  11.168   4.575  10.865 -4.9929 -2.2561 -1.0435
  505MOL0     H69690  11.200   4.733  10.788 -2.0154  1.7974 -0.0062
  506MOL0     O69691   3.552   0.971   8.282 -0.0713  0.2947  0.3804
  506MOL0     C69692   3.465   0.953   8.200 -0.0010 -0.7863 -0.3033
  506MOL0     O69693   3.327   0.967   8.229 -0.4856  0.1187  0.3261
  506MOL0     C69694   3.273   0.974   8.356 -0.8651  0.4606  0.9956
  506MOL0     C69695   3.331   1.054   8.449  0.6273 -0.9120  1.3187
  506MOL0     C69696   3.267   1.058   8.576  0.5506  0.1149 -0.2742
  506MOL0     C69697   3.147   1.001   8.610 -0.1583 -0.0654  0.0958
  506MOL0     O69698   3.071   0.996   8.720  0.3982 -0.7253 -0.1822
  506MOL0     C69699   3.082   1.102   8.815  0.0005  1.0406 -0.5024
  506MOL0     C69700   3.191   1.080   8.923  1.2572 -0.2151  0.4541
  506MOL0     C69701   3.254   1.209   8.965  0.2799  0.6939 -0.0307
  506MOL0     C69702   3.355   1.179   9.075  0.2779  0.0132 -0.4052
  506MOL0     C69703   3.416   1.305   9.151  0.8914 -0.5738 -0.3095
  506MOL0     C69704   3.580   1.311   9.145 -1.1359 -0.7028  1.1544
  506MOL0     C69705   3.629   1.449   9.204 -0.0023 -0.0123  0.9669
  506MOL0     C69706   3.752   1.510   9.141 -0.4826 -0.9577  0.5690
  506MOL0     N69707   3.728   1.576   9.006 -1.0169 -1.1266  0.2972
  506MOL0     C69708   3.730   1.712   8.986 -0.3511  0.7244  0.3635
  506MOL0     C69709   3.688   1.733   8.857 -0.2758  0.6234  0.6804
  506MOL0     C69710   3.673   1.871   8.795  0.0591 -0.2180  0.6393
  506MOL0     C69711   3.812   1.934   8.755 -0.0779 -0.0303  0.3558
  506MOL0     C69712   3.810   2.007   8.615 -0.7637 -0.2692 -0.3900
  506MOL0     C69713   3.952   1.998   8.558 -0.2207 -0.4277  0.3049
  506MOL0     O69714   4.049   2.081   8.622  0.0165 -0.0287 -0.0574
  506MOL0     C69715   4.172   2.097   8.555  0.5244  1.3560  0.7234
  506MOL0     C69716   4.240   2.210   8.597  0.0374  0.3068 -0.6429
  506MOL0     C69717   4.368   2.246   8.550 -0.7119 -0.7691 -0.3038
  506MOL0     C69718   4.433   2.365   8.611 -0.7406  0.4032 -0.2939
  506MOL0     C69719   4.421   2.179   8.441 -0.7736  1.0822  0.0779
  506MOL0     C69720   4.540   2.213   8.392 -0.4254 -0.3174  0.9586
  506MOL0     O69721   4.549   2.336   8.337  1.0556  0.2760  0.1761
  506MOL0     C69722   4.663   2.395   8.291 -0.7030  1.0559 -0.2392
  506MOL0     C69723   4.793   2.339   8.311 -0.0440 -0.7002  0.4868
  506MOL0     C69724   4.906   2.418   8.276  0.1675 -0.6615  1.0142
  506MOL0     C69725   4.888   2.547   8.225 -0.1887  0.4174 -0.3285
  506MOL0     O69726   4.994   2.616   8.178 -0.0503 -0.4705 -0.2039
  506MOL0     C69727   4.999   2.761   8.197 -0.7026  0.1122  0.1281
  506MOL0     C69728   5.139   2.824   8.203  1.3059 -0.9251 -0.1314
  506MOL0     C69729   5.205   2.811   8.072 -0.2368 -0.6437 -0.0664
  506MOL0     C69730   5.361   2.799   8.082  0.0832 -0.2917 -0.5869
  506MOL0     C69731   5.440   2.836   7.955 -0.8920  0.1142  0.4326
  506MOL0     C69732   5.385   2.772   7.830 -0.2534 -0.3126  0.2987
  506MOL0     C69733   5.461   2.828   7.714 -0.0444 -0.2095 -1.1183
  506MOL0     C69734   5.384   2.780   7.577 -1.2077 -0.2530 -0.3683
  506MOL0    Cl69735   5.371   2.607   7.556 -0.2244  0.1428 -0.3328
  506MOL0     C69736   4.763   2.594   8.207 -0.7721 -0.5453  0.4431
  506MOL0     C69737   4.650   2.522   8.239 -0.3314 -0.7252  0.2941
  506MOL0     O69738   4.630   2.126   8.398  0.1835  0.6574  0.3900
  506MOL0     C69739   4.349   2.071   8.385  0.0512 -0.5863  0.4593
  506MOL0     C69740   4.218   2.034   8.439 -0.4806  1.0337  0.3186
  506MOL0     N69741   3.666   1.608   8.803  0.1549 -0.0561 -0.1663
  506MOL0     N69742   3.703   1.521   8.887 -0.0631 -0.0411 -0.5013
  506MOL0     C69743   3.098   0.913   8.508  0.1638  0.3723 -1.1946
  506MOL0     C69744   3.161   0.906   8.387  0.0468  0.1983  0.1243
  506MOL0     C69745   3.501   0.914   8.057  0.2499 -0.4521  0.0139
  506MOL0     C69746   3.433   0.807   7.993 -0.3522 -0.6107  0.1670
  506MOL0     C69747   3.454   0.769   7.861  0.6958 -0.7470 -0.0749
  506MOL0     C69748   3.541   0.836   7.773 -0.1010 -0.0363 -0.2287
  506MOL0     O69749   3.552   0.810   7.638 -0.4249  0.1553 -0.5591
  506MOL0     C69750   3.681   0.776   7.584 -0.1738  0.0302 -0.8150
  506MOL0     C69751   3.720   0.625   7.577 -0.1981  0.0114  0.9616
  506MOL0     C69752   3.641   0.547   7.478 -0.3621 -0.3579  0.3231
  506MOL0     C69753   3.654   0.393   7.504  0.5493 -0.5616 -0.7826
  506MOL0     C69754   3.663   0.329   7.374  0.0673  0.2566 -0.5913
  506MOL0     C69755   3.646   0.251   7.285  0.2789  0.8128  0.0519
  506MOL0     C69756   3.626   0.924   7.841  0.9297 -0.4120 -0.8513
  506MOL0     C69757   3.605   0.965   7.981  0.6317  0.2762  1.5443
  506MOL0     C69758   3.692   1.083   8.010  0.6898 -0.0527  0.1565
  506MOL0     H69759   3.423   1.106   8.426  0.6894 -1.5461  0.0593
  506MOL0     H69760   3.329   1.121   8.640  1.2913  0.5181 -1.3558
  506MOL0     H69761   2.979   1.106   8.853  0.1471  1.9021 -0.1727
  506MOL0     H69762   3.104   1.197   8.765  3.0458  0.3456 -0.6904
  506MOL0     H69763   3.145   1.022   9.004  0.5137 -0.2022  0.0537
  506MOL0     H69764   3.275   1.024   8.881  0.1017 -1.8452  0.2229
  506MOL0     H69765   3.311   1.253   8.882  4.3180  0.5065  2.3878
  506MOL0     H69766   3.182   1.280   9.005  2.0391  1.7249  1.4596
  506MOL0     H69767   3.299   1.119   9.147 -0.3541  3.8802  2.7057
  506MOL0     H69768   3.440   1.121   9.037 -1.2223 -1.5711 -1.4440
  506MOL0     H69769   3.379   1.293   9.253  0.0319 -2.2176 -0.7908
  506MOL0     H69770   3.380   1.398   9.105 -2.0143 -1.5002 -0.1078
  506MOL0     H69771   3.618   1.234   9.213 -1.5753 -1.0900  0.9675
  506MOL0     H69772   3.617   1.298   9.043 -0.8070  2.1054  0.8168
  506MOL0     H69773   3.660   1.428   9.307 -1.6641 -1.6381  1.1781
  506MOL0     H69774   3.545   1.516   9.222 -0.8878 -1.0248  0.7340
  506MOL0     H69775   3.783   1.594   9.205 -2.0077  1.2346 -1.3742
  506MOL0     H69776   3.832   1.438   9.128 -0.5952 -0.9031 -0.5075
  506MOL0     H69777   3.751   1.776   9.072 -3.2938 -0.2740  1.9401
  506MOL0     H69778   3.626   1.943   8.862  1.5641  0.9724  0.4828
  506MOL0     H69779   3.613   1.861   8.704  3.1136 -0.7768 -1.4529
  506MOL0     H69780   3.845   2.009   8.828  1.9151  1.7446 -2.1565
  506MOL0     H69781   3.892   1.860   8.743  0.3062  0.8242 -5.3003
  506MOL0     H69782   3.742   1.955   8.547  2.1372 -2.5040 -1.8519
  506MOL0     H69783   3.788   2.112   8.636 -2.2320 -0.9999  2.1369
  506MOL0     H69784   3.990   1.896   8.541 -2.5691 -1.0958 -1.5370
  506MOL0     H69785   3.938   2.028   8.454 -3.4932 -3.1697 -0.2186
  506MOL0     H69786   4.195   2.282   8.664 -0.2356 -0.0739 -0.4147
  506MOL0     H69787   4.374   2.388   8.701 -1.0316  1.2965 -0.6994
  506MOL0     H69788   4.435   2.454   8.546 -2.9540  2.0412  1.6688
  506MOL0     H69789   4.536   2.341   8.638 -0.7747 -0.4925 -0.9386
  506MOL0     H69790   4.814   2.235   8.335 -2.3508 -0.9477  1.6333
  506MOL0     H69791   4.997   2.360   8.283  0.5653  0.1015  2.3734
  506MOL0     H69792   4.935   2.808   8.122  0.5073  0.7765 -0.5224
  506MOL0     H69793   4.963   2.793   8.295 -0.9723  1.1167 -0.2886
  506MOL0     H69794   5.127   2.928   8.235  2.7884 -0.6437 -0.4166
  506MOL0     H69795   5.207   2.776   8.274 -0.6912  0.3673  2.8717
  506MOL0     H69796   5.173   2.902   8.020 -1.3445 -1.5914 -1.0760
  506MOL0     H69797   5.171   2.718   8.025  1.6945 -1.1916 -0.4714
  506MOL0     H69798   5.376   2.691   8.093  0.2009 -0.3693 -1.4893
  506MOL0     H69799   5.391   2.863   8.166 -4.4621  1.5828 -0.0916
  506MOL0     H69800   5.446   2.944   7.941 -2.4042 -0.0001 -1.4160
  506MOL0     H69801   5.542   2.807   7.982  0.2194  2.4416 -0.9506
  506MOL0     H69802   5.281   2.805   7.825  0.1274  1.8470  3.8102
  506MOL0     H69803   5.390   2.663   7.833  1.7416 -0.4603 -3.1296
  506MOL0     H69804   5.562   2.786   7.716  0.6723  1.4354  0.5716
  506MOL0     H69805   5.468   2.937   7.726  1.5801 -0.0905 -2.6312
  506MOL0     H69806   5.436   2.829   7.494 -3.4019  2.2962 -0.3735
  506MOL0     H69807   5.280   2.810   7.564 -1.4427 -0.9034 -0.0439
  506MOL0     H69808   4.757   2.674   8.134 -0.0217 -2.3023 -1.6409
  506MOL0     H69809   4.557   2.561   8.198  0.8034  2.3341  0.3196
  506MOL0     H69810   4.391   2.007   8.308 -0.3560  1.6876 -1.7727
  506MOL0     H69811   4.164   1.951   8.394 -1.7106  1.0840  1.6114
  506MOL0     H69812   3.004   0.866   8.534 -0.1355  1.6181  0.1448
  506MOL0     H69813   3.125   0.836   8.312  0.6247  0.6560 -0.5992
  506MOL0     H69814   3.373   0.736   8.050 -0.1395 -1.3432 -0.4965
  506MOL0     H69815   3.399   0.684   7.823 -2.8213  1.5175 -0.5624
  506MOL0     H69816   3.682   0.822   7.484  0.5586  0.5156 -0.5927
  506MOL0     H69817   3.753   0.833   7.643 -2.9657  2.7921  0.2050
  506MOL0     H69818   3.713   0.584   7.678  2.8812 -1.9803  0.4842
  506MOL0     H69819   3.827   0.621   7.559 -0.5485 -1.9009 -1.1586
  506MOL0     H69820   3.537   0.579   7.478  0.8477  4.4758 -0.3601
  506MOL0     H69821   3.682   0.580   7.382  1.3767  2.3080  1.8317
  506MOL0     H69822   3.567   0.364   7.564 -0.2766  5.5559  1.6491
  506MOL0     H69823   3.747   0.380   7.560 -1.4885  0.9799  3.3678
  506MOL0     H69824   3.633   0.174   7.211  2.1114 -1.8089  2.2576
  506MOL0     H69825   3.680   0.985   7.768 -0.2211  2.2185  0.3658
  506MOL0     H69826   3.643   1.172   7.970  1.7887  0.3370 -0.3387
  506MOL0     H69827   3.692   1.112   8.116  0.7380  1.2984 -0.2027
  506MOL0     H69828   3.795   1.070   7.976  2.3392  1.1938  4.0717
  507MOL0     O69829   7.888   8.594   2.721  0.1190 -0.5043  0.5739
  507MOL0     C69830   8.011   8.600   2.698 -0.0886  0.2214  0.1867
  507MOL0     O69831   8.068   8.523   2.604 -0.5846  0.1811 -0.7339
  507MOL0     C69832   7.987   8.467   2.508  0.7830  0.6911 -0.0689
  507MOL0     C69833   8.007   8.332   2.483  0.2115 -0.1229  1.0400
  507MOL0     C69834   7.935   8.268   2.377  0.0357  0.6048 -0.3637
  507MOL0     C69835   7.835   8.332   2.301 -1.3605 -0.5247  0.2518
  507MOL0     O69836   7.752   8.272   2.205  0.3556  0.2848 -0.0155
  507MOL0     C69837   7.770   8.129   2.192  0.4378 -0.1051 -0.5932
  507MOL0     C69838   7.650   8.083   2.097  0.3669  0.4136 -0.8894
  507MOL0     C69839   7.521   8.077   2.171  0.3003 -0.9982 -0.1872
  507MOL0     C69840   7.407   8.065   2.072  0.8444 -1.2107  0.4723
  507MOL0     C69841   7.380   7.924   2.021 -0.1802  1.5706  0.9889
  507MOL0     C69842   7.259   7.921   1.930 -0.0901 -0.0047  0.2526
  507MOL0     C69843   7.211   7.780   1.894  0.2793 -0.1407  0.3322
  507MOL0     C69844   7.327   7.707   1.825  0.4475  0.4945 -0.6526
  507MOL0     N69845   7.280   7.582   1.760 -0.8252  0.4581 -0.8771
  507MOL0     C69846   7.224   7.567   1.641  0.2865  0.3284  1.5829
  507MOL0     C69847   7.247   7.438   1.589  0.2180 -0.6414  0.4031
  507MOL0     C69848   7.203   7.401   1.445  0.0411  0.2076 -0.1884
  507MOL0     C69849   7.307   7.319   1.377 -0.2983 -0.3671  0.0536
  507MOL0     C69850   7.415   7.404   1.307 -0.3910 -0.2267 -0.4435
  507MOL0     C69851   7.536   7.320   1.265 -0.2400 -0.2149 -0.5654
  507MOL0     O69852   7.514   7.241   1.148 -0.2531 -0.3589  0.8855
  507MOL0     C69853   7.613   7.157   1.107  0.9332  0.1874  0.6141
  507MOL0     C69854   7.703   7.094   1.189 -0.5820 -0.1197  0.0145
  507MOL0     C69855   7.792   6.999   1.135 -1.2202  0.6035 -0.9500
  507MOL0     C69856   7.901   6.931   1.228  0.5207  0.1853 -0.6749
  507MOL0     C69857   7.796   6.973   0.995 -0.0560 -0.8154 -0.1984
  507MOL0     C69858   7.889   6.880   0.938  0.4920  0.6624  0.4538
  507MOL0     O69859   7.834   6.800   0.845 -0.0326  0.3147 -0.3397
  507MOL0     C69860   7.905   6.746   0.742 -0.2128 -0.3520 -0.8977
  507MOL0     C69861   7.852   6.624   0.693  0.1859 -0.4310  0.5138
  507MOL0     C69862   7.915   6.555   0.594  0.0097  0.8842  0.4408
  507MOL0     C69863   8.039   6.591   0.545  0.2770 -0.7084 -0.5265
  507MOL0     O69864   8.109   6.529   0.447  1.5929  0.9300 -0.5983
  507MOL0     C69865   8.079   6.396   0.395  0.8935 -0.6999  0.2477
  507MOL0     C69866   8.110   6.280   0.497 -0.8073  0.5236  0.2217
  507MOL0     C69867   8.125   6.125   0.458  0.6837 -0.3502  0.1423
  507MOL0     C69868   8.016   6.059   0.383 -0.3360 -0.5448  0.1071
  507MOL0     C69869   8.055   6.052   0.238  0.0100  0.2630 -1.0239
  507MOL0     C69870   8.097   5.918   0.191  0.2211  0.0014 -0.4061
  507MOL0     C69871   8.131   5.910   0.044 -0.0850  0.4883 -0.4408
  507MOL0     C69872   8.200   5.773   0.018  0.4811 -0.2269 -0.3964
  507MOL0    Cl69873   8.367   5.757   0.074  0.1141  0.3737  0.1762
  507MOL0     C69874   8.084   6.710   0.593 -0.1759 -1.3578  0.5352
  507MOL0     C69875   8.027   6.785   0.685  0.4331  0.1163 -0.6041
  507MOL0     O69876   8.008   6.889   0.970  0.1570  0.3001  0.2793
  507MOL0     C69877   7.707   7.043   0.908 -0.9206  0.1805  0.6396
  507MOL0     C69878   7.614   7.131   0.961 -0.8276 -0.3100 -0.3268
  507MOL0     N69879   7.300   7.373   1.699 -0.1346  0.4115 -0.2874
  507MOL0     N69880   7.316   7.453   1.802 -0.6336 -0.0284  0.6968
  507MOL0     C69881   7.821   8.471   2.323  0.3211  0.3931 -1.4591
  507MOL0     C69882   7.884   8.540   2.432  0.3643 -0.1583  0.6016
  507MOL0     C69883   8.115   8.692   2.765  0.6338  0.0236  0.3526
  507MOL0     C69884   8.253   8.656   2.767 -0.1056  0.2618  0.1858
  507MOL0     C69885   8.347   8.743   2.832 -0.0097  0.7498 -0.2532
  507MOL0     C69886   8.304   8.862   2.892  0.5215 -0.6872  0.7850
  507MOL0     O69887   8.394   8.944   2.944 -0.2921  0.5919  0.4043
  507MOL0     C69888   8.350   9.027   3.054 -0.6780  0.7422 -0.7628
  507MOL0     C69889   8.469   9.098   3.124 -0.1329  0.4278  0.2206
  507MOL0     C69890   8.569   9.159   3.018 -0.2532 -0.1318 -0.9229
  507MOL0     C69891   8.624   9.294   3.071 -0.9134 -0.3847  0.3623
  507MOL0     C69892   8.699   9.282   3.193  0.5804  0.5820  0.4789
  507MOL0     C69893   8.760   9.247   3.287 -0.1257  0.4149 -0.1467
  507MOL0     C69894   8.169   8.899   2.876  0.8649 -0.7537 -0.9256
  507MOL0     C69895   8.074   8.814   2.825  0.1622 -0.0435  1.1352
  507MOL0     C69896   7.936   8.871   2.810 -0.5604 -0.6416 -0.0630
  507MOL0     H69897   8.045   8.270   2.563 -1.2947  0.9905  2.6934
  507MOL0     H69898   7.945   8.161   2.361  0.6992  1.0059 -3.1246
  507MOL0     H69899   7.764   8.066   2.281  0.7703 -0.5718 -0.8935
  507MOL0     H69900   7.868   8.113   2.147 -0.2241  2.0892 -3.0559
  507MOL0     H69901   7.650   8.154   2.014  4.3061  1.7040  0.0282
  507MOL0     H69902   7.673   7.985   2.054  2.6624 -0.1506  1.4068
  507MOL0     H69903   7.511   7.998   2.245 -0.6761  1.8883  3.0681
  507MOL0     H69904   7.510   8.168   2.231 -1.4959  0.7318 -2.9191
  507MOL0     H69905   7.327   8.101   2.137  1.6674 -0.8981  1.3326
  507MOL0     H69906   7.410   8.135   1.988  0.4835 -1.9272 -0.1513
  507MOL0     H69907   7.366   7.865   2.113 -0.9429  2.0980  1.2177
  507MOL0     H69908   7.462   7.878   1.964 -0.0937  0.4785  1.9326
  507MOL0     H69909   7.168   7.959   1.978 -0.9402 -1.1552 -0.3806
  507MOL0     H69910   7.286   7.978   1.841 -1.0311 -1.5785 -1.1097
  507MOL0     H69911   7.137   7.786   1.814  2.0474  0.2274 -1.3323
  507MOL0     H69912   7.161   7.726   1.975  0.6420  0.2830  0.8457
  507MOL0     H69913   7.380   7.775   1.757  2.7638 -2.3001 -1.8620
  507MOL0     H69914   7.399   7.672   1.899 -3.2814 -1.0945  2.5283
  507MOL0     H69915   7.180   7.653   1.592  0.4848 -0.2931  0.2657
  507MOL0     H69916   7.193   7.495   1.389  1.5251 -0.3291 -1.4262
  507MOL0     H69917   7.107   7.349   1.455 -0.0210  0.5753  1.2929
  507MOL0     H69918   7.360   7.246   1.440 -2.2950 -2.4387 -0.5692
  507MOL0     H69919   7.255   7.260   1.302 -2.4203  2.6474 -1.0693
  507MOL0     H69920   7.376   7.465   1.224 -1.4636 -0.7801 -0.3673
  507MOL0     H69921   7.446   7.482   1.377  4.4211 -0.8308 -1.5186
  507MOL0     H69922   7.627   7.377   1.244  0.5310 -1.2608 -0.1844
  507MOL0     H69923   7.575   7.251   1.341 -1.4498  1.5902  1.8518
  507MOL0     H69924   7.703   7.103   1.297  1.8569 -1.6039  0.2009
  507MOL0     H69925   7.923   6.831   1.190 -0.0325 -0.1585 -0.1231
  507MOL0     H69926   7.848   6.905   1.321 -0.6392  2.3927 -0.6637
  507MOL0     H69927   7.990   6.993   1.236 -0.1623  1.4201 -2.1859
  507MOL0     H69928   7.762   6.585   0.741 -0.8536 -0.4967 -1.3870
  507MOL0     H69929   7.867   6.463   0.563  1.6609 -0.1637  0.9065
  507MOL0     H69930   7.980   6.388   0.350  1.1989  3.2921 -1.5605
  507MOL0     H69931   8.157   6.385   0.319  1.3835 -2.8281  0.9632
  507MOL0     H69932   8.200   6.313   0.550 -0.2316  2.6607 -1.9296
  507MOL0     H69933   8.027   6.279   0.568 -1.9528 -0.7441 -1.0836
  507MOL0     H69934   8.119   6.078   0.556 -3.8646  4.9455  2.9713
  507MOL0     H69935   8.229   6.116   0.426  0.6988  0.8582 -0.2374
  507MOL0     H69936   7.929   6.124   0.391  0.7250  0.9616 -0.1687
  507MOL0     H69937   7.981   5.960   0.413 -1.7583 -0.4950 -1.2456
  507MOL0     H69938   7.972   6.083   0.174 -0.8837  0.9877  0.4611
  507MOL0     H69939   8.139   6.119   0.214 -0.4045  1.1163 -0.1542
  507MOL0     H69940   8.011   5.852   0.208  0.5763  0.0996  2.1953
  507MOL0     H69941   8.175   5.869   0.250  2.8843 -0.3701 -3.9083
  507MOL0     H69942   8.202   5.986   0.009  1.5468 -1.5474 -1.7715
  507MOL0     H69943   8.042   5.917  -0.019  0.5154  0.2690 -1.3333
  507MOL0     H69944   8.206   5.764  -0.091  1.1969  3.4947 -0.8000
  507MOL0     H69945   8.146   5.690   0.065 -0.5243 -0.8511 -2.5292
  507MOL0     H69946   8.179   6.758   0.574 -1.6306  1.7821  0.6603
  507MOL0     H69947   8.075   6.871   0.730 -1.6354  0.3184  1.4084
  507MOL0     H69948   7.722   7.032   0.801  1.9455  0.1441  0.9678
  507MOL0     H69949   7.545   7.174   0.889 -0.4069  1.1215  0.0953
  507MOL0     H69950   7.749   8.517   2.256 -2.2213 -3.2060 -1.4883
  507MOL0     H69951   7.858   8.642   2.459 -2.4000 -0.7949  0.6905
  507MOL0     H69952   8.291   8.565   2.723 -2.4234 -0.2132 -1.0169
  507MOL0     H69953   8.451   8.710   2.837 -0.5468 -1.0111 -0.2221
  507MOL0     H69954   8.285   9.111   3.025 -2.1926  1.4680  3.8777
  507MOL0     H69955   8.291   8.968   3.125  1.6422  0.9191  1.4718
  507MOL0     H69956   8.507   9.017   3.186  2.2245  1.1562 -0.1648
  507MOL0     H69957   8.428   9.175   3.190  1.7540  1.8334 -0.1436
  507MOL0     H69958   8.656   9.094   3.004  0.5666  0.6934  0.1196
  507MOL0     H69959   8.524   9.178   2.920 -1.3351 -0.0157 -0.4067
  507MOL0     H69960   8.544   9.368   3.082 -0.2895  0.2625  0.5916
  507MOL0     H69961   8.696   9.337   3.001 -0.3742 -1.2837  0.3388
  507MOL0     H69962   8.814   9.223   3.376 -1.2289 -1.3433  0.1123
  507MOL0     H69963   8.141   8.992   2.924  4.2351 -0.5653  0.9811
  507MOL0     H69964   7.882   8.849   2.903  0.7994  0.3173  1.0068
  507MOL0     H69965   7.946   8.980   2.801 -0.2905 -0.4430  2.0152
  507MOL0     H69966   7.878   8.831   2.726 -3.1069 -1.9736  2.1678
  508MOL0     O69967   1.357   1.485  11.080 -0.2829 -0.4324 -0.7963
  508MOL0     C69968   1.388   1.489  10.960 -0.3885  0.0262  0.7385
  508MOL0     O69969   1.296   1.470  10.850  0.7696  0.2746 -0.2014
  508MOL0     C69970   1.165   1.475  10.881  0.1213 -0.0579  0.2426
  508MOL0     C69971   1.078   1.391  10.815  0.3918  1.0369  0.6567
  508MOL0     C69972   0.938   1.408  10.808 -0.8839 -0.6118  0.0759
  508MOL0     C69973   0.884   1.523  10.877 -0.1836 -0.6271  0.2061
  508MOL0     O69974   0.746   1.544  10.874 -0.1537 -0.5210 -0.2476
  508MOL0     C69975   0.676   1.572  10.994  0.0167 -0.2294  0.5054
  508MOL0     C69976   0.538   1.508  11.022 -0.0521  0.4998  0.6530
  508MOL0     C69977   0.437   1.595  11.099 -0.4687 -0.1549  0.2497
  508MOL0     C69978   0.493   1.637  11.242  0.1995  0.2356  1.1731
  508MOL0     C69979   0.382   1.693  11.337 -0.2282 -0.3886 -0.0739
  508MOL0     C69980   0.431   1.696  11.480 -0.3704  0.3645 -0.3524
  508MOL0     C69981   0.312   1.673  11.590 -0.0747  0.8915  0.7395
  508MOL0     C69982   0.366   1.653  11.729  0.3017  0.6295 -0.3973
  508MOL0     N69983   0.257   1.627  11.826  0.7216  0.7732 -0.8176
  508MOL0     C69984   0.205   1.504  11.843 -0.5920  0.8146  0.6368
  508MOL0     C69985   0.118   1.513  11.947  0.5353 -0.0433  0.1081
  508MOL0     C69986   0.012   1.408  11.977  0.2196  0.8556 -0.4467
  508MOL0     C69987   0.040   1.342  12.107  0.1303  0.1700 -0.4896
  508MOL0     C69988  -0.063   1.236  12.156  0.4547  0.5777  0.4171
  508MOL0     C69989  -0.049   1.185  12.301 -0.2938 -0.2367  0.3540
  508MOL0     O69990  -0.069   1.302  12.389  0.6312  0.7938  0.2408
  508MOL0     C69991  -0.000   1.305  12.515  0.2105  0.4594 -0.3153
  508MOL0     C69992   0.012   1.424  12.588 -0.1237 -0.2511 -0.2102
  508MOL0     C69993   0.080   1.430  12.713  0.0414 -0.8947 -0.2448
  508MOL0     C69994   0.067   1.544  12.808  0.1905 -0.0687 -0.1003
  508MOL0     C69995   0.138   1.309  12.764 -0.0113  0.1415  0.3160
  508MOL0     C69996   0.195   1.286  12.898  0.8489 -0.5414 -0.9556
  508MOL0     O69997   0.238   1.161  12.923 -0.4170 -0.6735 -0.7200
  508MOL0     C69998   0.284   1.131  13.054 -1.1697  0.4777  0.5966
  508MOL0     C69999   0.397   1.046  13.064  0.3813  0.2352 -0.6019
  508MOL0     C70000   0.449   1.014  13.190 -0.3461  1.2027 -0.0643
  508MOL0     C70001   0.394   1.058  13.306 -1.1368 -0.0463 -0.4225
  508MOL0     O70002   0.447   1.012  13.423 -0.3002 -0.3203  0.3015
  508MOL0     C70003   0.386   1.061  13.541  0.0159  0.7199  0.2695
  508MOL0     C70004   0.476   1.001  13.651 -0.0382  0.7140  1.0336
  508MOL0     C70005   0.447   1.087  13.780 -0.8409  0.2522 -0.2806
  508MOL0     C70006   0.576   1.155  13.808 -0.2738 -0.6335  0.4756
  508MOL0     C70007   0.550   1.312  13.800  0.0974  0.3320 -0.2065
  508MOL0     C70008   0.680   1.383  13.828 -0.1854 -0.4750  0.0381
  508MOL0     C70009   0.728   1.380  13.978  0.0177  0.5500  0.8065
  508MOL0     C70010   0.858   1.450  14.002  0.1693  0.5269  0.3819
  508MOL0    Cl70011   0.889   1.578  13.892 -0.9609 -0.0884  0.1033
  508MOL0     C70012   0.278   1.142  13.293 -0.2468  0.4421 -0.7409
  508MOL0     C70013   0.232   1.178  13.167 -0.5342  0.4280 -0.4111
  508MOL0     O70014   0.218   1.384  12.971  0.5017 -0.2177  0.1408
  508MOL0     C70015   0.131   1.194  12.678  0.4071 -0.7986 -0.0786
  508MOL0     C70016   0.052   1.190  12.567 -0.2364 -0.1034  0.3222
  508MOL0     N70017   0.110   1.644  11.987 -0.3501 -0.6957 -0.4249
  508MOL0     N70018   0.199   1.709  11.915  0.5349  0.2403  0.5969
  508MOL0     C70019   0.973   1.608  10.959  0.7396  0.2134 -0.5811
  508MOL0     C70020   1.106   1.587  10.951  0.1413  0.4065  0.3420
  508MOL0     C70021   1.538   1.500  10.928 -0.9979  0.5563  0.7697
  508MOL0     C70022   1.574   1.502  10.795  0.9467 -0.2189  0.2785
  508MOL0     C70023   1.700   1.485  10.754 -0.6541 -0.6935 -0.6501
  508MOL0     C70024   1.808   1.479  10.841  0.0062  0.0751  0.0910
  508MOL0     O70025   1.946   1.477  10.806 -0.2114 -0.4953  0.6889
  508MOL0     C70026   1.982   1.365  10.727 -0.2590  0.5552  0.5336
  508MOL0     C70027   2.136   1.365  10.748  0.0826  1.0035  0.0870
  508MOL0     C70028   2.201   1.469  10.667 -0.6031  0.3496 -0.2998
  508MOL0     C70029   2.360   1.449  10.659 -0.3499 -0.0825  0.3980
  508MOL0     C70030   2.418   1.573  10.604 -1.4054 -0.3656 -0.4502
  508MOL0     C70031   2.474   1.670  10.558 -0.1820  0.2324  0.2566
  508MOL0     C70032   1.785   1.497  10.973  0.4007  0.0317 -0.5364
  508MOL0     C70033   1.650   1.502  11.025 -1.1613 -0.3839  0.2786
  508MOL0     C70034   1.625   1.510  11.173 -0.2536 -0.0120  0.6158
  508MOL0     H70035   1.127   1.308  10.767 -0.2718  0.5963  0.7315
  508MOL0     H70036   0.882   1.330  10.758  0.9563 -2.4017  0.6742
  508MOL0     H70037   0.657   1.678  11.010  1.4444 -0.0079  0.8866
  508MOL0     H70038   0.734   1.549  11.085  2.5560  1.8138 -0.4742
  508MOL0     H70039   0.491   1.484  10.927 -1.4820  1.3247  1.1332
  508MOL0     H70040   0.550   1.410  11.069 -1.2823  0.0139 -0.0335
  508MOL0     H70041   0.411   1.672  11.026 -1.8022 -1.2620 -0.5017
  508MOL0     H70042   0.348   1.532  11.106 -1.3971 -0.0843 -5.7369
  508MOL0     H70043   0.529   1.543  11.286  1.6966 -0.7444 -1.8548
  508MOL0     H70044   0.582   1.699  11.228 -0.4381  0.8820 -0.1309
  508MOL0     H70045   0.292   1.632  11.321 -1.1315  1.6323 -4.0111
  508MOL0     H70046   0.350   1.791  11.300  0.7636 -0.0064  0.0697
  508MOL0     H70047   0.510   1.622  11.491  0.3038  1.4833  3.8396
  508MOL0     H70048   0.478   1.791  11.507  1.5490 -0.5502 -0.3583
  508MOL0     H70049   0.253   1.585  11.562  0.3267  1.2663 -1.5263
  508MOL0     H70050   0.252   1.761  11.564  0.2322  0.7779 -0.3862
  508MOL0     H70051   0.433   1.566  11.729 -1.6779 -1.0417  2.0142
  508MOL0     H70052   0.422   1.741  11.762 -1.1352  0.4660  2.8740
  508MOL0     H70053   0.224   1.418  11.779 -4.6110  0.6082 -0.5524
  508MOL0     H70054   0.024   1.321  11.912 -0.5626  1.0180 -0.8193
  508MOL0     H70055  -0.089   1.448  11.974  0.6245  1.8842 -2.7611
  508MOL0     H70056   0.135   1.288  12.091 -0.1631 -0.0751 -1.5130
  508MOL0     H70057   0.039   1.414  12.189 -1.6471  2.3707 -2.3089
  508MOL0     H70058  -0.165   1.273  12.147  1.5703  3.9486  0.3456
  508MOL0     H70059  -0.058   1.151  12.087 -2.2977  0.9895 -0.3961
  508MOL0     H70060  -0.104   1.095  12.329  1.8601 -1.5607  0.5356
  508MOL0     H70061   0.054   1.155  12.321  0.0046 -0.7380 -1.7187
  508MOL0     H70062  -0.031   1.513  12.546 -1.8673 -1.1759 -0.4528
  508MOL0     H70063   0.167   1.580  12.836 -0.7315  1.4854  1.3245
  508MOL0     H70064  -0.004   1.522  12.888 -1.0975  1.2042 -0.8395
  508MOL0     H70065   0.011   1.626  12.763  0.7498  1.4971  1.9137
  508MOL0     H70066   0.432   0.997  12.974  1.5706 -0.2521  0.1004
  508MOL0     H70067   0.548   0.970  13.196 -0.6647  0.1874 -1.6170
  508MOL0     H70068   0.377   1.170  13.549  1.5106  0.8168  0.7989
  508MOL0     H70069   0.291   1.006  13.544  1.4298 -1.8102  1.1375
  508MOL0     H70070   0.452   0.894  13.657  1.7464 -0.3097 -4.2970
  508MOL0     H70071   0.580   1.007  13.619 -0.0967  0.1680  0.7171
  508MOL0     H70072   0.431   1.009  13.855 -1.2088 -1.5445 -2.1386
  508MOL0     H70073   0.364   1.158  13.775 -2.0233 -1.0278  0.5867
  508MOL0     H70074   0.662   1.141  13.742  0.5857 -2.8666  1.9532
  508MOL0     H70075   0.611   1.123  13.907  0.4110  1.9520  1.1724
  508MOL0     H70076   0.523   1.340  13.697  1.9652  0.8221 -0.5942
  508MOL0     H70077   0.467   1.343  13.864 -0.1492  0.2059 -0.4598
  508MOL0     H70078   0.661   1.482  13.785 -1.7399 -2.2171 -3.7216
  508MOL0     H70079   0.752   1.355  13.751  1.9698  4.9293 -0.3720
  508MOL0     H70080   0.731   1.274  14.003  1.2617  0.0991 -1.0305
  508MOL0     H70081   0.654   1.438  14.034  1.8427  0.3348  3.6367
  508MOL0     H70082   0.939   1.380  13.982  0.7283  1.2436  0.0985
  508MOL0     H70083   0.855   1.494  14.102  1.1002  1.1839  0.1333
  508MOL0     H70084   0.215   1.167  13.378  3.0400 -0.7943  2.3054
  508MOL0     H70085   0.150   1.249  13.157  0.1187  0.9805 -2.4279
  508MOL0     H70086   0.179   1.099  12.698  0.5066 -0.7136  0.0858
  508MOL0     H70087   0.050   1.091  12.522  0.9105  0.5727 -1.3244
  508MOL0     H70088   0.930   1.687  11.019 -1.4328 -0.2754 -1.3678
  508MOL0     H70089   1.173   1.664  10.988 -0.9706  2.0191 -0.8110
  508MOL0     H70090   1.493   1.494  10.723  2.4793  1.9516 -1.8249
  508MOL0     H70091   1.722   1.473  10.648  0.8830 -2.6920 -0.1639
  508MOL0     H70092   1.944   1.271  10.768 -2.1515  0.9846 -0.1547
  508MOL0     H70093   1.958   1.379  10.621 -0.5161 -0.8869  0.3797
  508MOL0     H70094   2.170   1.264  10.725  0.2449  1.0505  0.1225
  508MOL0     H70095   2.157   1.373  10.855 -0.8418 -1.4941  0.5168
  508MOL0     H70096   2.173   1.462  10.562  1.3667  0.3510 -0.8518
  508MOL0     H70097   2.170   1.571  10.691 -0.2060  1.1846 -3.0003
  508MOL0     H70098   2.385   1.361  10.598 -1.6028  0.6651 -1.2742
  508MOL0     H70099   2.400   1.428  10.759  0.1663 -0.1423  0.1812
  508MOL0     H70100   2.527   1.740  10.497  1.8706 -2.5677 -1.3582
  508MOL0     H70101   1.869   1.499  11.041  0.4613  3.5206 -0.5443
  508MOL0     H70102   1.552   1.583  11.208  0.1473 -0.3013  2.1140
  508MOL0     H70103   1.598   1.410  11.209  0.3879 -0.8024 -1.0025
  508MOL0     H70104   1.719   1.536  11.222 -0.4277 -1.2606  1.6660
  509MOL0     O70105   8.768   1.969   8.529  0.3871  0.3487 -0.5064
  509MOL0     C70106   8.713   2.047   8.607 -0.0255  0.3058  0.0297
  509MOL0     O70107   8.576   2.036   8.640 -0.4106 -0.7563 -0.3355
  509MOL0     C70108   8.512   1.929   8.586  0.7074  0.3399 -0.2306
  509MOL0     C70109   8.505   1.895   8.446 -0.2040 -1.6947 -0.7733
  509MOL0     C70110   8.411   1.803   8.392 -0.1215 -0.4527  0.3074
  509MOL0     C70111   8.321   1.739   8.477  0.6227  0.7058  0.0975
  509MOL0     O70112   8.254   1.645   8.410 -0.1118 -0.1029 -0.2394
  509MOL0     C70113   8.117   1.636   8.454 -0.1421 -1.1085 -0.1395
  509MOL0     C70114   8.062   1.491   8.442  0.0315 -0.0723 -1.2998
  509MOL0     C70115   8.147   1.385   8.524  0.4869 -0.9082 -0.4684
  509MOL0     C70116   8.104   1.362   8.670 -0.2746  0.6494 -1.1564
  509MOL0     C70117   8.173   1.239   8.732  0.0177 -0.4668 -0.3950
  509MOL0     C70118   8.124   1.205   8.878  0.1036 -0.6470  0.0345
  509MOL0     C70119   8.176   1.068   8.917  0.2526 -0.3847 -0.2983
  509MOL0     C70120   8.133   1.016   9.057  0.2871 -0.9703  0.0580
  509MOL0     N70121   8.177   0.874   9.078  0.0783  0.8568 -0.2579
  509MOL0     C70122   8.249   0.816   9.181  0.6060 -0.3147  0.4497
  509MOL0     C70123   8.261   0.689   9.153 -0.1308  0.5026  0.9299
  509MOL0     C70124   8.335   0.586   9.224  0.0176 -0.3003 -0.4530
  509MOL0     C70125   8.251   0.521   9.336 -0.6665 -0.0612  0.0397
  509MOL0     C70126   8.217   0.608   9.466  0.5266 -0.6548 -0.9285
  509MOL0     C70127   8.348   0.640   9.544  0.0632  0.3601  0.1610
  509MOL0     O70128   8.328   0.743   9.643  0.1425  0.3578  0.7078
  509MOL0     C70129   8.308   0.708   9.772  0.2271  0.5949  0.0414
  509MOL0     C70130   8.391   0.612   9.831 -0.3679 -0.1013  0.4806
  509MOL0     C70131   8.381   0.583   9.968  0.6153  0.0715 -1.1746
  509MOL0     C70132   8.484   0.489  10.031 -0.7597  0.4180 -0.4512
  509MOL0     C70133   8.277   0.645  10.045 -0.7552  0.5684  0.4625
  509MOL0     C70134   8.261   0.625  10.195  0.2881 -0.2963  0.1716
  509MOL0     O70135   8.166   0.704  10.256  0.6496  0.0214  0.1951
  509MOL0     C70136   8.137   0.685  10.392  0.5830 -0.2029 -0.9579
  509MOL0     C70137   8.124   0.801  10.477 -0.0069  0.2467  0.1527
  509MOL0     C70138   8.113   0.792  10.611  0.4066  0.0458 -0.3892
  509MOL0     C70139   8.110   0.669  10.673  0.3537 -0.3546  0.6275
  509MOL0     O70140   8.076   0.670  10.804  0.2721  0.2003  0.1899
  509MOL0     C70141   8.141   0.586  10.905  0.0725  0.6990  0.0037
  509MOL0     C70142   8.285   0.624  10.934 -0.4151  1.2778 -0.0909
  509MOL0     C70143   8.316   0.761  10.965 -0.3525  0.7024  0.6934
  509MOL0     C70144   8.424   0.814  10.866  0.6243 -0.2493 -0.1819
  509MOL0     C70145   8.460   0.964  10.887  0.2738  0.0325 -0.6305
  509MOL0     C70146   8.508   1.050  10.772  0.3677 -0.1511 -0.3320
  509MOL0     C70147   8.614   0.983  10.686 -0.9663 -0.0990 -0.7842
  509MOL0     C70148   8.748   0.975  10.769  0.7415 -0.1164 -0.0941
  509MOL0    Cl70149   8.814   1.139  10.771 -0.0216 -0.0773 -0.2044
  509MOL0     C70150   8.129   0.551  10.591  0.5846 -0.2847  0.1800
  509MOL0     C70151   8.132   0.558  10.451  0.6100 -0.6684 -0.9761
  509MOL0     O70152   8.337   0.549  10.246  0.5485 -0.0851 -0.0111
  509MOL0     C70153   8.187   0.732   9.978 -0.0254 -1.4153 -0.6648
  509MOL0     C70154   8.199   0.754   9.840  0.2950 -0.1810 -0.0546
  509MOL0     N70155   8.191   0.664   9.032  0.0850  0.0376 -0.3001
  509MOL0     N70156   8.154   0.777   8.986  0.6068 -0.5249 -0.1439
  509MOL0     C70157   8.323   1.775   8.612 -0.1452  0.5489  0.5774
  509MOL0     C70158   8.415   1.869   8.666  0.4026  0.7740 -0.3470
  509MOL0     C70159   8.788   2.180   8.643 -0.8980 -0.1044  1.5470
  509MOL0     C70160   8.718   2.297   8.673 -0.2743  0.1220  1.0525
  509MOL0     C70161   8.789   2.417   8.696 -0.2130  1.1310 -0.2546
  509MOL0     C70162   8.923   2.426   8.687 -1.0377  0.7918  0.4726
  509MOL0     O70163   8.983   2.542   8.719  0.3433  0.1643 -0.7643
  509MOL0     C70164   9.082   2.587   8.627  0.6491  0.0930 -0.0262
  509MOL0     C70165   9.075   2.744   8.635  0.1844  0.9173 -0.1989
  509MOL0     C70166   9.131   2.809   8.761  0.1566 -0.7770  0.1575
  509MOL0     C70167   9.134   2.960   8.764  0.4283  0.0662 -0.5793
  509MOL0     C70168   9.220   3.034   8.671 -1.0084  0.3845  0.1291
  509MOL0     C70169   9.303   3.084   8.604  0.1090  0.4296  0.4232
  509MOL0     C70170   8.998   2.308   8.667  0.0836  0.0220  0.5831
  509MOL0     C70171   8.931   2.186   8.643 -0.5913  0.3053  0.1564
  509MOL0     C70172   9.024   2.063   8.610 -0.2024  1.0429  0.3014
  509MOL0     H70173   8.572   1.942   8.374 -0.3553  2.5181  1.5542
  509MOL0     H70174   8.406   1.791   8.284 -0.2357  0.0776  0.2457
  509MOL0     H70175   8.058   1.700   8.387  1.2081  0.0244 -0.2947
  509MOL0     H70176   8.122   1.678   8.555  3.1144 -0.0888 -0.6189
  509MOL0     H70177   7.971   1.486   8.501 -0.3897  0.1936 -1.9074
  509MOL0     H70178   8.042   1.468   8.337  1.8565  0.0898 -1.7294
  509MOL0     H70179   8.117   1.290   8.478 -5.2486  1.0331 -1.5632
  509MOL0     H70180   8.253   1.410   8.517  0.8328 -2.0595  0.3009
  509MOL0     H70181   8.114   1.456   8.724 -2.1498  0.8134 -1.0240
  509MOL0     H70182   7.997   1.338   8.665 -0.9827  1.3802  4.5320
  509MOL0     H70183   8.282   1.252   8.729  0.1620  0.9743  3.9749
  509MOL0     H70184   8.149   1.150   8.674  0.3897  0.4385 -1.9841
  509MOL0     H70185   8.144   1.277   8.959 -2.7091 -1.5929  1.7084
  509MOL0     H70186   8.016   1.194   8.876  0.2472 -2.2338 -0.6181
  509MOL0     H70187   8.284   1.084   8.925 -0.2045  2.0786  3.7542
  509MOL0     H70188   8.149   0.991   8.845 -2.1095 -0.5817  0.7056
  509MOL0     H70189   8.175   1.075   9.138  2.1098  1.6028 -2.5425
  509MOL0     H70190   8.024   1.017   9.055  0.2354  1.0543 -3.3078
  509MOL0     H70191   8.295   0.877   9.258  0.3396  1.0107 -0.4125
  509MOL0     H70192   8.404   0.654   9.275  0.5361 -1.1864  0.0503
  509MOL0     H70193   8.385   0.509   9.165 -4.6164 -3.3484 -0.9440
  509MOL0     H70194   8.160   0.487   9.285  0.2969 -1.9942 -0.4793
  509MOL0     H70195   8.305   0.438   9.382 -0.1973  0.5210  0.5709
  509MOL0     H70196   8.152   0.694   9.446  0.0670 -0.9358 -0.6665
  509MOL0     H70197   8.145   0.547   9.522 -2.3422  1.4375 -2.1188
  509MOL0     H70198   8.378   0.546   9.592 -1.5408  1.7770  4.4049
  509MOL0     H70199   8.422   0.687   9.479 -0.0704  1.6211  0.8775
  509MOL0     H70200   8.465   0.558   9.772 -0.5465  1.1200 -0.9136
  509MOL0     H70201   8.554   0.545  10.092  0.4238 -0.6797 -0.7623
  509MOL0     H70202   8.540   0.417   9.971  4.1919 -0.0523  4.1015
  509MOL0     H70203   8.430   0.415  10.091  3.8968 -2.7830  0.2958
  509MOL0     H70204   8.112   0.890  10.416  0.0204 -0.6388 -1.1984
  509MOL0     H70205   8.091   0.888  10.656  4.4813  0.5742  0.9132
  509MOL0     H70206   8.084   0.597  10.997 -2.2851  2.3948 -1.5407
  509MOL0     H70207   8.135   0.481  10.875 -1.0662  0.9013 -0.5314
  509MOL0     H70208   8.307   0.556  11.017 -2.8013 -0.3891 -0.7277
  509MOL0     H70209   8.346   0.609  10.844 -0.5774  3.9651 -0.7434
  509MOL0     H70210   8.353   0.778  11.066  1.2928  3.0364 -0.2147
  509MOL0     H70211   8.228   0.826  10.964 -0.5958  0.5689  3.7363
  509MOL0     H70212   8.380   0.811  10.766 -1.6146 -1.2498  0.7565
  509MOL0     H70213   8.512   0.753  10.887 -1.4847 -3.0983  1.1481
  509MOL0     H70214   8.374   1.028  10.910  1.3416  1.8490 -1.4664
  509MOL0     H70215   8.521   0.966  10.978 -1.3320 -1.9318  0.5803
  509MOL0     H70216   8.546   1.147  10.802 -0.8318  0.6911 -1.4115
  509MOL0     H70217   8.421   1.060  10.706  2.4878 -1.0236 -3.5041
  509MOL0     H70218   8.632   1.039  10.594 -0.2619  1.3355  0.1830
  509MOL0     H70219   8.573   0.885  10.658 -1.7954 -0.2513  0.8374
  509MOL0     H70220   8.820   0.908  10.721  0.2949  0.2973 -1.3948
  509MOL0     H70221   8.724   0.947  10.872  1.2883 -0.0738  0.0480
  509MOL0     H70222   8.132   0.450  10.629 -1.3601 -0.4518 -0.0374
  509MOL0     H70223   8.141   0.472  10.386  1.1070  0.3286 -2.2632
  509MOL0     H70224   8.108   0.772  10.041  2.5069 -1.3330  2.6923
  509MOL0     H70225   8.122   0.810   9.789 -0.9682 -0.8416  1.0583
  509MOL0     H70226   8.244   1.742   8.679 -1.9015 -0.5443 -1.8768
  509MOL0     H70227   8.417   1.903   8.769  2.6075 -0.6634  0.1526
  509MOL0     H70228   8.612   2.288   8.651 -0.2002 -0.3209  0.8782
  509MOL0     H70229   8.732   2.509   8.700 -3.7494 -0.8395 -1.2032
  509MOL0     H70230   9.180   2.553   8.662  0.7828  0.9859  0.5072
  509MOL0     H70231   9.065   2.547   8.527  2.0149  1.9632 -1.0652
  509MOL0     H70232   8.968   2.764   8.623 -0.8878 -2.5151  2.2528
  509MOL0     H70233   9.128   2.791   8.551  1.4163  1.3193  0.7816
  509MOL0     H70234   9.057   2.779   8.837 -0.2981 -0.9191 -0.3357
  509MOL0     H70235   9.229   2.769   8.786 -1.2614 -2.3230  4.0102
  509MOL0     H70236   9.184   2.985   8.858 -0.1456 -1.5329  0.1901
  509MOL0     H70237   9.030   2.993   8.770  0.7710  1.3107 -1.1925
  509MOL0     H70238   9.385   3.135   8.558  0.1324  2.3928  2.4345
  509MOL0     H70239   9.106   2.311   8.670  0.4881 -3.8584 -2.5268
  509MOL0     H70240   9.019   2.012   8.513  2.7174  2.3346 -0.6249
  509MOL0     H70241   9.129   2.085   8.632 -0.6948  2.1015  1.7571
  509MOL0     H70242   8.998   1.982   8.679  2.0886  0.2531  0.3106
  510MOL0     O70243   7.028   3.883   3.326 -0.4595  0.2290 -0.5929
  510MOL0     C70244   6.945   3.798   3.303 -0.7344 -0.7283  0.7210
  510MOL0     O70245   6.811   3.817   3.276 -0.8864  0.7542  0.5366
  510MOL0     C70246   6.770   3.924   3.200 -1.0463  0.3189  1.1045
  510MOL0     C70247   6.851   4.008   3.111 -1.1171  0.6155 -0.0502
  510MOL0     C70248   6.774   4.117   3.058  0.3951  0.2040  0.3615
  510MOL0     C70249   6.637   4.130   3.062 -1.3655 -0.6105  0.1093
  510MOL0     O70250   6.571   4.228   2.998  0.6416  0.1616  1.3340
  510MOL0     C70251   6.624   4.358   2.967  0.1570  0.1288  0.4813
  510MOL0     C70252   6.522   4.429   2.873  0.2829  0.6920  0.1183
  510MOL0     C70253   6.537   4.575   2.825  0.0024 -0.1844 -0.7263
  510MOL0     C70254   6.411   4.616   2.741 -1.0241  0.2654 -0.5162
  510MOL0     C70255   6.425   4.766   2.697 -0.6287 -0.1154 -0.1171
  510MOL0     C70256   6.445   4.872   2.812  0.1295 -0.0333  0.4803
  510MOL0     C70257   6.589   4.905   2.840 -0.4244 -0.4120  1.5887
  510MOL0     C70258   6.594   4.993   2.971 -0.0520  0.0667  1.3148
  510MOL0     N70259   6.618   5.134   2.935  0.1811 -0.2866 -1.0248
  510MOL0     C70260   6.552   5.239   2.988  0.2739 -0.2905  0.0521
  510MOL0     C70261   6.625   5.342   2.934 -0.3667 -0.3425  1.2181
  510MOL0     C70262   6.595   5.486   2.961 -1.0363 -1.1721 -0.4291
  510MOL0     C70263   6.452   5.515   2.935  0.2863  0.1290  0.4588
  510MOL0     C70264   6.420   5.657   2.954  0.4191  0.2345  0.6066
  510MOL0     C70265   6.283   5.695   2.900 -0.1227 -0.2763 -0.1938
  510MOL0     O70266   6.183   5.600   2.955  0.2004 -0.0522  0.1016
  510MOL0     C70267   6.073   5.661   3.006 -0.5891  0.2348  0.1031
  510MOL0     C70268   6.059   5.681   3.143  0.2937 -0.3286  0.7854
  510MOL0     C70269   5.970   5.771   3.190 -0.2637  0.7513 -0.5142
  510MOL0     C70270   5.967   5.785   3.345  0.7545  0.7564  0.4045
  510MOL0     C70271   5.865   5.816   3.114 -0.4163 -0.6280  1.1691
  510MOL0     C70272   5.758   5.906   3.167  1.0741 -0.2733  0.9285
  510MOL0     O70273   5.630   5.855   3.138  0.0736 -1.0962 -0.1012
  510MOL0     C70274   5.524   5.925   3.185 -0.1382  0.5555  0.5275
  510MOL0     C70275   5.475   6.028   3.112  0.0216 -1.5007 -0.6064
  510MOL0     C70276   5.367   6.109   3.166  0.2684 -0.4428  0.0046
  510MOL0     C70277   5.314   6.075   3.281  0.8948 -0.9770 -0.7645
  510MOL0     O70278   5.189   6.143   3.318 -0.0125  0.8441 -0.4266
  510MOL0     C70279   5.198   6.282   3.346 -0.3854 -0.4063 -0.6470
  510MOL0     C70280   5.116   6.378   3.260 -0.4256  0.1620  0.5151
  510MOL0     C70281   5.090   6.517   3.322  0.6456  0.2233  0.1250
  510MOL0     C70282   5.006   6.607   3.233 -0.0390 -0.2780  0.7141
  510MOL0     C70283   4.967   6.750   3.300 -1.0805  0.3550  0.2517
  510MOL0     C70284   5.094   6.838   3.337  0.1254 -0.3314  0.1845
  510MOL0     C70285   5.198   6.859   3.223  0.0770 -0.5345  1.1319
  510MOL0     C70286   5.322   6.940   3.278  0.5117  0.8404 -0.1960
  510MOL0    Cl70287   5.414   6.826   3.385 -0.2932  0.0294 -0.1006
  510MOL0     C70288   5.365   5.965   3.351  0.2542  0.0640  0.1169
  510MOL0     C70289   5.469   5.895   3.306 -0.1674  0.6064 -0.1594
  510MOL0     O70290   5.785   5.989   3.256 -0.4964 -0.0168  0.5255
  510MOL0     C70291   5.864   5.784   2.974  0.0103  0.3776  0.2104
  510MOL0     C70292   5.965   5.695   2.926  0.1918 -0.2971  0.2794
  510MOL0     N70293   6.724   5.300   2.853  0.0608  0.2427 -0.1498
  510MOL0     N70294   6.720   5.167   2.857  0.6285 -0.1360  0.2945
  510MOL0     C70295   6.569   4.049   3.151 -0.0561  0.3063  0.0816
  510MOL0     C70296   6.637   3.943   3.209  0.1058 -0.0365  0.0999
  510MOL0     C70297   6.994   3.656   3.281 -0.4938 -0.5199 -0.8144
  510MOL0     C70298   7.098   3.614   3.364  0.6687  0.1510  0.0688
  510MOL0     C70299   7.156   3.493   3.345 -0.3471 -0.3229  0.2357
  510MOL0     C70300   7.130   3.414   3.234  0.2992  0.3393  0.8556
  510MOL0     O70301   7.214   3.301   3.221 -0.0761 -1.0614  0.7929
  510MOL0     C70302   7.241   3.258   3.083  0.1500 -0.3295 -0.7655
  510MOL0     C70303   7.330   3.364   3.010  0.0882 -0.4450  0.6959
  510MOL0     C70304   7.457   3.390   3.084 -0.2419 -0.2828 -0.3588
  510MOL0     C70305   7.582   3.444   3.006  0.3434  0.0258 -1.3367
  510MOL0     C70306   7.691   3.348   3.019 -0.5877 -0.8561 -0.7861
  510MOL0     C70307   7.798   3.282   3.030  0.0248 -0.0599  0.0506
  510MOL0     C70308   7.030   3.456   3.149  0.5081  0.1049 -0.2466
  510MOL0     C70309   6.951   3.573   3.172 -0.0251  0.9359  0.1130
  510MOL0     C70310   6.835   3.605   3.078 -0.5264 -0.3068 -0.6729
  510MOL0     H70311   6.956   3.992   3.089 -1.5525  0.4974 -2.3381
  510MOL0     H70312   6.832   4.187   2.998  1.6174  0.5738  1.9194
  510MOL0     H70313   6.719   4.345   2.915  0.2698  0.5784  0.5735
  510MOL0     H70314   6.638   4.418   3.058 -1.2958  0.4232  0.5301
  510MOL0     H70315   6.512   4.367   2.783  0.5331  2.0504 -0.8861
  510MOL0     H70316   6.438   4.427   2.944  0.8781 -0.3097  0.8130
  510MOL0     H70317   6.566   4.633   2.914 -1.3138 -1.9874  0.9625
  510MOL0     H70318   6.620   4.581   2.754 -0.3050  0.7403 -1.0241
  510MOL0     H70319   6.425   4.547   2.657  0.8753 -2.3410  1.7357
  510MOL0     H70320   6.314   4.576   2.772 -0.2502  0.3422  2.3350
  510MOL0     H70321   6.333   4.780   2.640 -1.2893  0.1407  0.9747
  510MOL0     H70322   6.514   4.787   2.637  0.4339  1.5732  1.8750
  510MOL0     H70323   6.396   4.966   2.784  1.7766 -0.1121 -3.1293
  510MOL0     H70324   6.391   4.833   2.899 -0.3149  3.2173  1.7964
  510MOL0     H70325   6.620   4.960   2.751 -0.6949 -0.4285  1.4823
  510MOL0     H70326   6.645   4.811   2.842 -1.9157 -1.4753 -1.0082
  510MOL0     H70327   6.504   4.982   3.033 -2.3457  3.9563 -0.9587
  510MOL0     H70328   6.678   4.954   3.030  1.3637  0.6170 -0.2725
  510MOL0     H70329   6.475   5.229   3.063 -1.5912 -3.1959 -2.0222
  510MOL0     H70330   6.656   5.548   2.894 -0.8961 -0.2254  0.5636
  510MOL0     H70331   6.632   5.508   3.061 -0.0300  1.7032 -1.3029
  510MOL0     H70332   6.427   5.489   2.832 -2.4006  3.0577  0.2093
  510MOL0     H70333   6.382   5.472   3.007  2.9236  1.6311  4.2901
  510MOL0     H70334   6.419   5.692   3.058 -0.0864 -1.5096  1.2224
  510MOL0     H70335   6.493   5.720   2.903  0.1598  1.9307  2.2063
  510MOL0     H70336   6.259   5.795   2.937  2.2659 -0.0997  1.0610
  510MOL0     H70337   6.280   5.711   2.792  2.5070 -1.2417 -0.4645
  510MOL0     H70338   6.132   5.627   3.203  1.4562 -0.3204 -0.5888
  510MOL0     H70339   6.014   5.701   3.396  2.1676 -1.2316 -3.7447
  510MOL0     H70340   5.860   5.782   3.370  0.6302 -0.3597 -0.2368
  510MOL0     H70341   6.015   5.878   3.376  2.0787  1.7860 -4.0362
  510MOL0     H70342   5.517   6.056   3.015 -0.3841 -3.0026 -1.2328
  510MOL0     H70343   5.326   6.188   3.104  2.9504  1.1404  0.0698
  510MOL0     H70344   5.144   6.290   3.441 -6.4824  0.7405 -3.7315
  510MOL0     H70345   5.299   6.323   3.355 -1.1902  1.1402  3.7084
  510MOL0     H70346   5.160   6.394   3.161  0.0618  2.5503  1.0526
  510MOL0     H70347   5.021   6.323   3.254 -0.7606  0.2191  3.5025
  510MOL0     H70348   5.190   6.561   3.325  0.2059  1.2123  1.4117
  510MOL0     H70349   5.054   6.506   3.425  0.1779  0.4478 -0.0086
  510MOL0     H70350   4.915   6.552   3.210 -2.4613  4.0183 -1.2770
  510MOL0     H70351   5.059   6.622   3.138  1.1552  2.2443  1.6759
  510MOL0     H70352   4.899   6.814   3.244 -0.5054  2.2180  1.5758
  510MOL0     H70353   4.912   6.715   3.388 -4.6227 -0.8356 -2.1907
  510MOL0     H70354   5.142   6.783   3.419  1.8416  0.3105 -0.3531
  510MOL0     H70355   5.053   6.931   3.377 -3.0992 -0.9916 -1.2543
  510MOL0     H70356   5.160   6.916   3.138  1.9837 -1.0892 -0.1697
  510MOL0     H70357   5.238   6.770   3.174  1.6806  0.6983  0.1102
  510MOL0     H70358   5.289   7.024   3.341 -1.7146 -0.7527  0.9113
  510MOL0     H70359   5.394   6.983   3.208  0.9669 -2.2679 -1.7769
  510MOL0     H70360   5.322   5.930   3.445 -1.6423  1.7922 -0.0266
  510MOL0     H70361   5.504   5.806   3.357  0.4758  1.6169  1.2441
  510MOL0     H70362   5.774   5.814   2.921  0.0067 -0.5102 -0.2989
  510MOL0     H70363   5.968   5.687   2.818 -0.7553  2.5555 -0.0310
  510MOL0     H70364   6.467   4.067   3.183 -0.4900  0.6836 -1.4671
  510MOL0     H70365   6.577   3.876   3.270 -2.2323  1.3559 -0.5602
  510MOL0     H70366   7.121   3.676   3.450 -1.7388  1.3866 -0.0692
  510MOL0     H70367   7.239   3.462   3.408  0.5744  3.5963  1.1975
  510MOL0     H70368   7.291   3.162   3.089  3.3445  1.2981  1.3958
  510MOL0     H70369   7.149   3.230   3.031  0.5047 -0.0257 -1.5771
  510MOL0     H70370   7.263   3.448   2.991  0.6157 -0.0065  0.7344
  510MOL0     H70371   7.362   3.329   2.912  0.5517 -0.2896  0.7894
  510MOL0     H70372   7.426   3.470   3.151 -1.9009 -0.0897 -1.3069
  510MOL0     H70373   7.483   3.301   3.143  1.3192  0.4028  0.0430
  510MOL0     H70374   7.611   3.542   3.044  1.0807 -0.1239 -1.4970
  510MOL0     H70375   7.554   3.447   2.901 -2.0178 -3.4294 -0.9932
  510MOL0     H70376   7.888   3.230   3.055  0.8042 -0.4839 -3.2613
  510MOL0     H70377   7.005   3.406   3.056 -0.0307  0.8057 -0.4872
  510MOL0     H70378   6.738   3.570   3.115  0.8709 -6.6054 -1.7071
  510MOL0     H70379   6.840   3.707   3.040  3.2863 -0.7169 -1.6459
  510MOL0     H70380   6.855   3.550   2.985 -1.2152 -3.5549  0.9617
  511MOL0     O70381   8.640   2.347   9.095 -0.4560  0.0182 -1.0043
  511MOL0     C70382   8.541   2.282   9.127 -0.4798 -0.2078  0.7098
  511MOL0     O70383   8.443   2.323   9.214  0.6016  0.0714  0.7526
  511MOL0     C70384   8.436   2.459   9.256  0.0516  0.3981  0.0907
  511MOL0     C70385   8.543   2.528   9.304 -0.1085  0.0744 -0.7512
  511MOL0     C70386   8.548   2.665   9.348 -0.2094 -0.3038 -0.5036
  511MOL0     C70387   8.425   2.744   9.329 -0.4126  0.4015  0.4036
  511MOL0     O70388   8.419   2.884   9.339 -0.5793  0.8488  0.5973
  511MOL0     C70389   8.290   2.931   9.386 -1.2678 -0.3624 -0.0108
  511MOL0     C70390   8.309   3.047   9.483  0.0947 -0.5537 -0.4900
  511MOL0     C70391   8.366   2.995   9.621 -0.4328  0.2768 -0.1429
  511MOL0     C70392   8.364   3.099   9.731 -1.0268  0.1076  0.5938
  511MOL0     C70393   8.408   3.051   9.870 -0.3895  0.5512 -0.2182
  511MOL0     C70394   8.413   3.174   9.952  0.0573  0.3422  0.3379
  511MOL0     C70395   8.428   3.136  10.109  0.1694 -0.1142  0.1809
  511MOL0     C70396   8.428   3.263  10.182 -0.6704 -0.1489 -1.1719
  511MOL0     N70397   8.563   3.324  10.189  0.6281 -0.5797  0.8165
  511MOL0     C70398   8.633   3.313  10.303  0.0922 -0.3421 -0.0522
  511MOL0     C70399   8.744   3.384  10.266  0.3343 -0.3361 -0.2174
  511MOL0     C70400   8.874   3.404  10.360 -0.1064  0.3487  0.4110
  511MOL0     C70401   8.843   3.442  10.501  0.0033  0.1546  0.2886
  511MOL0     C70402   8.775   3.580  10.518  0.3822  0.1128  0.0267
  511MOL0     C70403   8.746   3.635  10.656 -0.4863  0.0528 -0.4233
  511MOL0     O70404   8.860   3.614  10.743 -0.0383  0.7126 -0.1562
  511MOL0     C70405   8.855   3.662  10.876  0.2901  0.5279  0.0112
  511MOL0     C70406   8.965   3.651  10.956 -0.8954  0.3561 -0.4801
  511MOL0     C70407   8.974   3.689  11.087 -0.0191  0.4803 -0.4067
  511MOL0     C70408   9.107   3.666  11.152  0.2444 -0.9804 -0.2630
  511MOL0     C70409   8.855   3.748  11.147 -0.0776  0.6350  0.4626
  511MOL0     C70410   8.850   3.795  11.287 -0.0010  0.5259  0.0657
  511MOL0     O70411   8.740   3.888  11.311 -0.6042  0.1790  0.2028
  511MOL0     C70412   8.759   3.956  11.423  1.1895 -0.3310  0.5130
  511MOL0     C70413   8.785   4.087  11.413 -0.2106  0.6644  1.0420
  511MOL0     C70414   8.806   4.156  11.531  0.2295  0.5367 -0.3938
  511MOL0     C70415   8.808   4.100  11.658 -0.3609  1.0431  0.2512
  511MOL0     O70416   8.845   4.171  11.770 -0.7022  0.1063 -0.2014
  511MOL0     C70417   8.792   4.308  11.785  0.0615 -0.7837 -0.0830
  511MOL0     C70418   8.892   4.414  11.837  0.8983  0.6393  0.0080
  511MOL0     C70419   8.851   4.562  11.807  0.6550  0.0878  0.4834
  511MOL0     C70420   8.698   4.582  11.816  0.7011 -0.5864  0.2909
  511MOL0     C70421   8.656   4.734  11.803 -0.6033 -0.0494 -0.6149
  511MOL0     C70422   8.530   4.751  11.738 -0.7488 -0.3705 -0.7946
  511MOL0     C70423   8.426   4.693  11.828  0.6389  0.5134 -0.5393
  511MOL0     C70424   8.288   4.766  11.814 -0.2885  0.2977 -0.1587
  511MOL0    Cl70425   8.315   4.936  11.858  0.1284 -0.4295  0.0893
  511MOL0     C70426   8.777   3.966  11.664 -1.0665  0.1679  0.1160
  511MOL0     C70427   8.747   3.890  11.550  1.0174 -0.6035 -0.9384
  511MOL0     O70428   8.946   3.775  11.361 -0.0051 -0.0698  0.1694
  511MOL0     C70429   8.738   3.754  11.069 -0.4731  1.0350 -0.7711
  511MOL0     C70430   8.737   3.715  10.933  0.4541  0.0354 -0.5015
  511MOL0     N70431   8.733   3.434  10.135  0.6171 -0.2488  0.1414
  511MOL0     N70432   8.624   3.396  10.091  0.4061 -0.3107  0.3961
  511MOL0     C70433   8.311   2.676   9.271  0.6243 -1.4477  0.3527
  511MOL0     C70434   8.321   2.535   9.247 -0.3503  0.8117 -0.1188
  511MOL0     C70435   8.534   2.140   9.083  0.7695 -0.7186  0.3037
  511MOL0     C70436   8.415   2.069   9.087 -0.0343  0.0505 -0.1263
  511MOL0     C70437   8.401   1.938   9.048 -0.8506  0.4481  0.4895
  511MOL0     C70438   8.510   1.857   9.008  1.0771 -1.2162  0.5875
  511MOL0     O70439   8.486   1.726   8.978 -0.5551  0.3036  0.3512
  511MOL0     C70440   8.579   1.626   9.042  0.8296 -0.2080  0.7989
  511MOL0     C70441   8.510   1.499   9.091 -1.0406  0.6459  0.4231
  511MOL0     C70442   8.410   1.519   9.222  0.6541 -0.1607  0.2922
  511MOL0     C70443   8.308   1.407   9.227 -0.7505  0.3731  0.4153
  511MOL0     C70444   8.358   1.267   9.240  0.4394 -0.1629  0.4376
  511MOL0     C70445   8.401   1.154   9.227  0.0496  0.1945  0.6776
  511MOL0     C70446   8.630   1.929   9.008  0.1789  1.1892  0.1928
  511MOL0     C70447   8.646   2.063   9.043 -0.8969  0.9895 -0.1520
  511MOL0     C70448   8.793   2.089   9.078  1.0963 -0.3756 -0.5934
  511MOL0     H70449   8.639   2.477   9.310  1.3270  2.7143  0.5339
  511MOL0     H70450   8.635   2.719   9.384  1.2872 -0.5984 -3.4001
  511MOL0     H70451   8.229   2.853   9.433 -3.8115  0.5546 -1.5708
  511MOL0     H70452   8.226   2.969   9.305  1.2074 -2.2207 -3.0514
  511MOL0     H70453   8.384   3.115   9.442  3.2625 -3.0022  0.8696
  511MOL0     H70454   8.225   3.111   9.512  1.1415  0.7249 -0.1617
  511MOL0     H70455   8.317   2.902   9.653 -0.1869 -0.0055 -0.5711
  511MOL0     H70456   8.470   2.959   9.615 -0.4828 -0.2598  1.5194
  511MOL0     H70457   8.417   3.186   9.691 -0.5867 -1.6715 -3.1222
  511MOL0     H70458   8.266   3.146   9.746 -0.8175  0.0008  2.5480
  511MOL0     H70459   8.507   3.005   9.878  0.0869  1.8886  2.8616
  511MOL0     H70460   8.337   2.977   9.908 -0.1300  0.0052 -0.7799
  511MOL0     H70461   8.500   3.232   9.922  2.8757 -4.2215 -1.3082
  511MOL0     H70462   8.319   3.226   9.933  0.1217  0.0087 -0.9946
  511MOL0     H70463   8.518   3.075  10.127 -1.3479 -2.2945  0.8071
  511MOL0     H70464   8.347   3.069  10.140 -3.0174  2.1324 -2.5931
  511MOL0     H70465   8.355   3.332  10.139 -1.0460  0.4989  0.4069
  511MOL0     H70466   8.391   3.255  10.285 -3.3075  1.1754 -1.9332
  511MOL0     H70467   8.609   3.247  10.385 -1.9425  0.9314  0.4428
  511MOL0     H70468   8.926   3.494  10.325 -1.6179  1.8387  1.8286
  511MOL0     H70469   8.936   3.314  10.359  0.0350  0.4449  0.5412
  511MOL0     H70470   8.771   3.370  10.541  1.0019  0.9834  3.9566
  511MOL0     H70471   8.927   3.445  10.571 -0.6687  2.4259  1.0934
  511MOL0     H70472   8.818   3.656  10.453  0.6514 -0.9200 -1.0314
  511MOL0     H70473   8.676   3.566  10.474 -1.3700 -2.1032  4.0541
  511MOL0     H70474   8.731   3.742  10.643 -2.6152 -0.0945  0.4624
  511MOL0     H70475   8.657   3.582  10.692 -0.5335 -1.4382 -2.5614
  511MOL0     H70476   9.046   3.604  10.901 -2.3596 -0.4759 -2.0187
  511MOL0     H70477   9.176   3.644  11.071 -0.7735  1.2419 -1.8547
  511MOL0     H70478   9.100   3.592  11.232  2.8880  0.4448  1.4588
  511MOL0     H70479   9.146   3.758  11.198  2.8172 -0.9546 -2.2931
  511MOL0     H70480   8.798   4.131  11.315  1.2418  0.1529  0.9791
  511MOL0     H70481   8.843   4.258  11.524 -2.0406  1.5726  1.3494
  511MOL0     H70482   8.747   4.343  11.691 -0.4136 -1.7734 -0.2366
  511MOL0     H70483   8.709   4.304  11.856 -0.8484 -1.8681 -1.1556
  511MOL0     H70484   8.892   4.393  11.945  0.8495  2.2351  0.3421
  511MOL0     H70485   8.993   4.394  11.799 -0.4311 -2.8869 -2.1113
  511MOL0     H70486   8.896   4.598  11.713  2.5697  1.2073  1.7497
  511MOL0     H70487   8.894   4.626  11.885 -2.1989 -0.0850  2.3652
  511MOL0     H70488   8.654   4.552  11.911 -4.4302  0.0543 -1.5811
  511MOL0     H70489   8.646   4.525  11.739  2.1945  1.6211 -2.5314
  511MOL0     H70490   8.665   4.782  11.901  4.5972 -2.8829  0.6558
  511MOL0     H70491   8.734   4.783  11.744  1.2898  1.0736  2.5426
  511MOL0     H70492   8.532   4.712  11.636  2.1224 -3.0084  0.1234
  511MOL0     H70493   8.517   4.859  11.751 -0.9771 -0.7834  4.5167
  511MOL0     H70494   8.452   4.701  11.934  0.7635 -0.1638 -0.5179
  511MOL0     H70495   8.429   4.587  11.803 -0.4831  0.4421 -0.4209
  511MOL0     H70496   8.227   4.722  11.893 -1.1744 -3.3443 -2.6343
  511MOL0     H70497   8.248   4.763  11.712  1.7938 -0.2352 -1.0195
  511MOL0     H70498   8.751   3.921  11.759 -1.2300 -1.5559 -0.7047
  511MOL0     H70499   8.726   3.785  11.568  0.6979 -0.3981 -0.0518
  511MOL0     H70500   8.650   3.788  11.123 -1.0361  1.6437 -2.0357
  511MOL0     H70501   8.648   3.732  10.872  0.3299  1.4263  0.0231
  511MOL0     H70502   8.224   2.723   9.228  1.8488 -0.3861 -1.0684
  511MOL0     H70503   8.231   2.486   9.209 -0.6138  0.9566  0.3082
  511MOL0     H70504   8.318   2.114   9.106 -2.0481 -3.0216 -2.0473
  511MOL0     H70505   8.305   1.888   9.043  0.6145 -2.4210 -2.2067
  511MOL0     H70506   8.637   1.597   8.953 -3.0160  0.5787 -2.2312
  511MOL0     H70507   8.640   1.675   9.119 -0.7641 -3.6175  4.6163
  511MOL0     H70508   8.577   1.418   9.118 -1.5251  1.0041  2.9678
  511MOL0     H70509   8.447   1.466   9.008 -2.1567  1.4497  0.9083
  511MOL0     H70510   8.463   1.524   9.318 -1.3420  0.0180  1.4265
  511MOL0     H70511   8.353   1.611   9.208  2.8323  0.8458 -3.6791
  511MOL0     H70512   8.242   1.412   9.140  0.4554  1.0488 -0.4969
  511MOL0     H70513   8.239   1.423   9.311 -4.9051 -3.1536 -1.9389
  511MOL0     H70514   8.442   1.055   9.220 -0.3671  0.1239 -1.5769
  511MOL0     H70515   8.719   1.874   8.980 -1.6324 -1.2872 -1.1498
  511MOL0     H70516   8.830   2.000   9.130  0.9895 -0.9091 -1.4076
  511MOL0     H70517   8.853   2.106   8.988  2.8591 -0.9676  0.4126
  511MOL0     H70518   8.799   2.181   9.136 -0.4004 -1.2946  1.1113
  512MOL0     O70519   8.694   4.998   2.242  0.0450 -0.3350 -0.6353
  512MOL0     C70520   8.725   5.085   2.165 -0.1674  0.4892  0.5824
  512MOL0     O70521   8.860   5.113   2.135 -0.2060  0.6094 -0.8606
  512MOL0     C70522   8.960   5.047   2.196 -0.3832 -0.3448 -0.2484
  512MOL0     C70523   9.027   4.943   2.136 -1.3221  0.6908  0.6682
  512MOL0     C70524   9.127   4.867   2.204  0.0719 -0.7944  0.1408
  512MOL0     C70525   9.146   4.887   2.346  0.0100 -0.1492 -0.6436
  512MOL0     O70526   9.232   4.819   2.430  0.1654  0.5638  0.2911
  512MOL0     C70527   9.349   4.753   2.376  0.0349 -1.5534 -1.0874
  512MOL0     C70528   9.300   4.618   2.324 -0.1709 -0.0411  0.2690
  512MOL0     C70529   9.285   4.518   2.438  1.2362 -0.5923 -0.6768
  512MOL0     C70530   9.311   4.378   2.393 -1.7005  0.1384  0.5943
  512MOL0     C70531   9.245   4.289   2.493  0.3710 -0.1528 -0.1864
  512MOL0     C70532   9.258   4.137   2.441 -0.6423 -0.6961 -0.5214
  512MOL0     C70533   9.220   4.040   2.557 -0.0359 -0.0331  0.5366
  512MOL0     C70534   9.240   3.895   2.511 -0.0136 -1.1039 -0.0012
  512MOL0     N70535   9.117   3.823   2.456 -0.2282 -0.1128 -0.1419
  512MOL0     C70536   9.074   3.702   2.489 -0.1858 -0.5558 -1.5471
  512MOL0     C70537   8.952   3.696   2.429  0.2427 -0.0173  0.2404
  512MOL0     C70538   8.851   3.586   2.436  0.2302  0.5866  0.8844
  512MOL0     C70539   8.852   3.483   2.327 -0.4350 -0.2779 -0.2556
  512MOL0     C70540   8.788   3.546   2.193 -0.9427  1.2436 -0.2748
  512MOL0     C70541   8.886   3.611   2.107 -0.6954 -0.8957  0.9036
  512MOL0     O70542   8.997   3.527   2.090  0.0423  0.1984  0.4376
  512MOL0     C70543   9.057   3.554   1.969 -1.0049  0.2769 -0.3786
  512MOL0     C70544   9.078   3.684   1.922 -0.4497 -1.3037 -0.5327
  512MOL0     C70545   9.111   3.715   1.787  0.3335 -0.1123 -0.3951
  512MOL0     C70546   9.105   3.860   1.740  0.2730 -0.2173  0.0858
  512MOL0     C70547   9.152   3.603   1.704 -0.0579 -1.3298  0.3809
  512MOL0     C70548   9.209   3.615   1.562 -0.4485 -0.0701 -0.4701
  512MOL0     O70549   9.253   3.506   1.499  0.1495 -0.3079 -0.9772
  512MOL0     C70550   9.324   3.506   1.380 -0.2514  0.8619  0.0622
  512MOL0     C70551   9.413   3.606   1.340 -0.1241  0.4165  0.0900
  512MOL0     C70552   9.489   3.592   1.224 -0.0116 -0.1076 -0.4397
  512MOL0     C70553   9.484   3.470   1.145 -0.0749 -0.4055  0.1878
  512MOL0     O70554   9.556   3.442   1.034 -0.6664  0.0399  0.1115
  512MOL0     C70555   9.594   3.551   0.950  0.9562 -0.6385 -0.0344
  512MOL0     C70556   9.727   3.622   0.973 -0.3274 -0.2527 -0.3894
  512MOL0     C70557   9.770   3.701   0.852  0.5362 -0.5575  0.3410
  512MOL0     C70558   9.820   3.612   0.735 -0.7071 -0.2146  0.2562
  512MOL0     C70559   9.877   3.691   0.614 -0.4145 -0.2757 -0.1542
  512MOL0     C70560   9.789   3.789   0.543 -0.4707  0.6428  1.0360
  512MOL0     C70561   9.853   3.819   0.406 -0.2038  0.6882  0.0352
  512MOL0     C70562   9.802   3.949   0.338 -0.5883 -0.4996 -0.1000
  512MOL0    Cl70563   9.878   3.948   0.180 -0.3244 -0.0520  0.1724
  512MOL0     C70564   9.389   3.373   1.191 -0.7665 -0.0197  0.6500
  512MOL0     C70565   9.309   3.389   1.301  0.7140 -0.3703  0.3720
  512MOL0     O70566   9.208   3.727   1.509  0.3963  0.1184  0.0142
  512MOL0     C70567   9.142   3.479   1.754  0.1917 -0.3716 -0.1228
  512MOL0     C70568   9.094   3.453   1.882 -0.5422  0.3607 -0.2792
  512MOL0     N70569   8.919   3.818   2.371 -0.3659  0.1212 -0.0057
  512MOL0     N70570   9.022   3.894   2.382 -0.5181 -0.4120  0.5489
  512MOL0     C70571   9.081   4.998   2.403  0.0829 -0.0847 -0.4697
  512MOL0     C70572   8.984   5.079   2.332 -0.4968 -0.2642  0.0567
  512MOL0     C70573   8.617   5.187   2.128 -0.5980 -0.6000  0.2722
  512MOL0     C70574   8.500   5.193   2.210 -0.3138  0.9547 -0.1618
  512MOL0     C70575   8.411   5.298   2.198 -0.3265  0.3386 -0.6260
  512MOL0     C70576   8.427   5.394   2.095 -0.4971 -0.1331 -0.0975
  512MOL0     O70577   8.351   5.503   2.082  0.0291 -0.5193  0.2280
  512MOL0     C70578   8.283   5.569   2.190  0.5512  0.3989  0.5223
  512MOL0     C70579   8.133   5.608   2.153  0.0696  0.3387  0.0941
  512MOL0     C70580   8.075   5.708   2.262 -0.0283 -0.1194  0.0431
  512MOL0     C70581   7.923   5.744   2.227 -0.5446  0.8855  0.0344
  512MOL0     C70582   7.901   5.770   2.085  0.9637 -0.3544  0.0717
  512MOL0     C70583   7.872   5.788   1.971  0.9530 -0.3886  0.8132
  512MOL0     C70584   8.532   5.384   2.010  0.2911  0.0836  0.3307
  512MOL0     C70585   8.632   5.286   2.023 -0.1567  0.0941 -0.1908
  512MOL0     C70586   8.746   5.288   1.940  0.1184 -0.2368  0.8777
  512MOL0     H70587   9.005   4.915   2.033  3.7559  1.4432 -0.9356
  512MOL0     H70588   9.190   4.798   2.149  0.4327  0.5143 -1.1483
  512MOL0     H70589   9.411   4.744   2.466 -1.8208 -0.5544  0.3473
  512MOL0     H70590   9.395   4.817   2.301 -2.8885  2.7422  0.3867
  512MOL0     H70591   9.211   4.623   2.261 -1.0108  3.4650  1.5128
  512MOL0     H70592   9.377   4.576   2.259  0.1938  1.3561 -0.2238
  512MOL0     H70593   9.345   4.545   2.525  2.1151 -3.9643 -0.1020
  512MOL0     H70594   9.183   4.526   2.476  1.2493  2.2089 -1.0270
  512MOL0     H70595   9.273   4.373   2.290 -1.8932  3.4225  0.4101
  512MOL0     H70596   9.420   4.375   2.386 -1.4578  3.0427  1.8184
  512MOL0     H70597   9.139   4.316   2.501 -0.2415 -2.6313  1.2111
  512MOL0     H70598   9.293   4.302   2.590  2.3816 -2.0081 -0.8414
  512MOL0     H70599   9.199   4.126   2.350 -0.1022 -1.2738 -0.8099
  512MOL0     H70600   9.361   4.111   2.414 -1.0654 -2.4515 -0.5847
  512MOL0     H70601   9.113   4.061   2.564 -0.5176 -0.0754 -3.9589
  512MOL0     H70602   9.282   4.059   2.646  0.7458 -1.3598  0.3072
  512MOL0     H70603   9.305   3.887   2.423 -0.2892  1.1153 -0.4838
  512MOL0     H70604   9.292   3.838   2.588 -2.4394 -2.8833  0.4083
  512MOL0     H70605   9.116   3.618   2.544  2.5228  1.0531 -0.9735
  512MOL0     H70606   8.759   3.645   2.430 -0.1734  0.1259  2.1360
  512MOL0     H70607   8.855   3.534   2.533  0.3442  0.2525  0.7029
  512MOL0     H70608   8.954   3.452   2.306  0.8176  1.6076  2.4366
  512MOL0     H70609   8.779   3.403   2.343 -2.3648  0.7966 -2.8849
  512MOL0     H70610   8.752   3.463   2.132  0.2150 -1.2885  2.2397
  512MOL0     H70611   8.709   3.619   2.214  0.3495  2.6923 -0.3100
  512MOL0     H70612   8.838   3.636   2.012 -1.8476  2.5616  2.2517
  512MOL0     H70613   8.914   3.711   2.142  0.5439 -0.1680 -1.8799
  512MOL0     H70614   9.069   3.765   1.994  0.3510 -1.7085  0.0304
  512MOL0     H70615   9.044   3.874   1.650 -1.5785  0.9120  1.4608
  512MOL0     H70616   9.208   3.889   1.714  1.0652 -1.7479  1.3971
  512MOL0     H70617   9.063   3.923   1.819  4.8505 -1.2165  3.7578
  512MOL0     H70618   9.424   3.699   1.394 -2.3442  0.9746 -0.3379
  512MOL0     H70619   9.563   3.671   1.209 -0.5120  1.0891  2.6668
  512MOL0     H70620   9.600   3.510   0.849 -1.4461 -1.8040  0.2391
  512MOL0     H70621   9.513   3.625   0.954  1.0596 -0.4246 -1.3884
  512MOL0     H70622   9.723   3.679   1.067  2.4928 -1.6929  0.7391
  512MOL0     H70623   9.811   3.552   0.978 -1.9459 -2.3492 -1.3498
  512MOL0     H70624   9.835   3.785   0.879 -0.7029 -0.2175  2.4480
  512MOL0     H70625   9.675   3.749   0.827  0.2636 -0.8458  0.8020
  512MOL0     H70626   9.738   3.559   0.684  1.5527 -1.4211 -2.3537
  512MOL0     H70627   9.890   3.546   0.787 -0.1229  2.1918  2.7228
  512MOL0     H70628   9.967   3.741   0.650 -0.9946  0.8275 -0.2129
  512MOL0     H70629   9.909   3.617   0.540 -1.1366 -1.7526  0.9545
  512MOL0     H70630   9.791   3.876   0.611 -3.7210  0.0924  2.0589
  512MOL0     H70631   9.685   3.758   0.527  1.2249 -5.4196 -0.9903
  512MOL0     H70632   9.833   3.733   0.341 -2.0979  0.3156  1.0193
  512MOL0     H70633   9.961   3.831   0.415 -0.0046  0.4108 -1.5830
  512MOL0     H70634   9.826   4.034   0.402 -0.6071 -1.0001  0.5847
  512MOL0     H70635   9.693   3.946   0.326 -0.6964  0.5762  0.4666
  512MOL0     H70636   9.378   3.280   1.135 -3.4049  0.9698 -0.5976
  512MOL0     H70637   9.254   3.302   1.333  1.1323 -1.5081 -1.8505
  512MOL0     H70638   9.189   3.395   1.704 -0.7646 -0.3343 -1.1132
  512MOL0     H70639   9.105   3.349   1.911 -2.6371 -1.5738 -5.2839
  512MOL0     H70640   9.091   5.021   2.508  0.8242 -1.0508 -0.3132
  512MOL0     H70641   8.935   5.169   2.367  2.2926  1.3009  0.2045
  512MOL0     H70642   8.487   5.121   2.290  0.6475 -1.1266 -1.7651
  512MOL0     H70643   8.335   5.294   2.275  0.7832 -2.5061  0.4159
  512MOL0     H70644   8.286   5.514   2.285  2.5660 -0.4359  0.0218
  512MOL0     H70645   8.348   5.655   2.209  2.4278 -0.8323 -0.1277
  512MOL0     H70646   8.073   5.517   2.154  0.5065 -0.0134 -1.8993
  512MOL0     H70647   8.133   5.649   2.052  0.4036 -1.7397 -0.8034
  512MOL0     H70648   8.074   5.641   2.349  0.4591 -1.9283 -1.2828
  512MOL0     H70649   8.136   5.796   2.283  1.1760 -1.1557  1.0552
  512MOL0     H70650   7.900   5.833   2.285  0.9561  2.8098 -2.1238
  512MOL0     H70651   7.859   5.659   2.253  2.9717 -1.1939  2.7400
  512MOL0     H70652   7.857   5.807   1.867  1.3216  3.4636  1.3440
  512MOL0     H70653   8.551   5.468   1.944 -0.9954 -0.9329 -1.4027
  512MOL0     H70654   8.744   5.357   1.855  2.7095 -0.7882  0.2757
  512MOL0     H70655   8.839   5.321   1.986  0.9117  1.0750 -1.5025
  512MOL0     H70656   8.761   5.186   1.903  3.6921  0.8161 -1.0654
  513MOL0     O70657   4.661   9.100   3.797  0.6023  0.4079 -0.0013
  513MOL0     C70658   4.657   9.132   3.678 -0.8622  0.0207  0.2035
  513MOL0     O70659   4.691   9.261   3.641  0.2308  0.2566  0.2009
  513MOL0     C70660   4.785   9.337   3.712 -0.8352 -0.3906  0.1079
  513MOL0     C70661   4.886   9.293   3.807  0.0697  0.7578  0.5822
  513MOL0     C70662   4.983   9.377   3.861  0.1361 -0.8650 -0.4269
  513MOL0     C70663   4.973   9.510   3.828  0.7105 -0.7530 -0.0289
  513MOL0     O70664   5.064   9.610   3.865  0.1631  0.9479  0.3192
  513MOL0     C70665   5.186   9.642   3.780 -0.6201  0.2482  0.3046
  513MOL0     C70666   5.178   9.787   3.721  1.3119 -1.1171  0.3153
  513MOL0     C70667   5.275   9.873   3.798  0.3666 -0.0744 -0.7763
  513MOL0     C70668   5.260  10.022   3.765 -0.4081  0.4015 -1.1038
  513MOL0     C70669   5.277  10.065   3.617 -0.6553  0.3517  0.1182
  513MOL0     C70670   5.414  10.051   3.557  0.6972  0.8015 -0.1916
  513MOL0     C70671   5.439  10.121   3.421 -1.2873 -0.8992  1.1872
  513MOL0     C70672   5.370  10.084   3.286 -0.4151  0.1799  0.5167
  513MOL0     N70673   5.346   9.939   3.279  0.0354  0.5366 -0.2224
  513MOL0     C70674   5.425   9.836   3.233  0.7462  0.5044  0.5127
  513MOL0     C70675   5.351   9.725   3.227 -0.4958 -0.2305  0.1020
  513MOL0     C70676   5.384   9.588   3.166 -0.8963 -0.1487  0.9902
  513MOL0     C70677   5.315   9.581   3.029  0.8755 -0.2660 -0.2720
  513MOL0     C70678   5.386   9.664   2.929 -0.3209  0.2116  0.4678
  513MOL0     C70679   5.323   9.660   2.787  0.0342 -0.1112 -0.1561
  513MOL0     O70680   5.425   9.671   2.697 -0.1730 -0.2251  0.1399
  513MOL0     C70681   5.378   9.684   2.560  0.2253  1.1116 -0.4180
  513MOL0     C70682   5.479   9.733   2.476 -0.4564  0.2640  0.1085
  513MOL0     C70683   5.460   9.742   2.338 -0.1487 -0.0343 -0.2568
  513MOL0     C70684   5.576   9.795   2.260  0.5195  0.1165 -0.7974
  513MOL0     C70685   5.333   9.703   2.288  0.0385  0.3012 -0.1081
  513MOL0     C70686   5.305   9.706   2.140  0.4433 -0.6327 -0.5151
  513MOL0     O70687   5.184   9.766   2.104  0.1892  0.0302  0.0932
  513MOL0     C70688   5.176   9.816   1.972  0.7841 -0.0569 -0.4927
  513MOL0     C70689   5.090   9.923   1.970  0.3631 -0.6365 -0.0041
  513MOL0     C70690   5.080   9.999   1.854  0.1816 -0.5081 -0.2261
  513MOL0     C70691   5.142   9.961   1.728 -0.4816 -0.4247  0.1627
  513MOL0     O70692   5.093  10.033   1.617 -0.1424  0.4427 -0.1104
  513MOL0     C70693   5.190  10.033   1.518 -0.5248  0.1958  0.3719
  513MOL0     C70694   5.147  10.146   1.424 -0.0012 -0.4918 -0.8623
  513MOL0     C70695   5.201  10.274   1.471 -0.0512  0.4614 -0.2708
  513MOL0     C70696   5.147  10.398   1.400  0.4194  0.4053 -1.4184
  513MOL0     C70697   5.216  10.526   1.436  0.9296  0.2661  0.0237
  513MOL0     C70698   5.130  10.643   1.387  0.1174 -0.8838 -0.3344
  513MOL0     C70699   5.209  10.772   1.392 -0.7238  0.0110  0.5995
  513MOL0     C70700   5.214  10.826   1.541  0.2273 -0.1909  0.8016
  513MOL0    Cl70701   5.230  11.005   1.549  0.4180  0.2971  0.0440
  513MOL0     C70702   5.213   9.836   1.730 -0.6314 -0.8858  0.7791
  513MOL0     C70703   5.237   9.770   1.852  0.1989  0.3289  0.6999
  513MOL0     O70704   5.406   9.682   2.065  0.5942  0.0496  0.3064
  513MOL0     C70705   5.234   9.660   2.374  0.6476  0.7748 -0.1601
  513MOL0     C70706   5.257   9.653   2.512  0.7406  0.5557 -0.2899
  513MOL0     N70707   5.225   9.762   3.275  0.1052  0.3615  0.0236
  513MOL0     N70708   5.223   9.882   3.309 -0.0925  1.0073  0.2400
  513MOL0     C70709   4.883   9.563   3.734  0.3525 -0.3413 -0.2711
  513MOL0     C70710   4.787   9.476   3.677 -0.9198 -0.2441 -0.4252
  513MOL0     C70711   4.631   9.027   3.579 -0.6690 -0.5519 -0.1727
  513MOL0     C70712   4.716   9.012   3.462  0.0383  0.8781 -0.0423
  513MOL0     C70713   4.706   8.900   3.387  0.2317 -0.8586 -0.8524
  513MOL0     C70714   4.617   8.802   3.419 -0.4436 -0.3654  0.7675
  513MOL0     O70715   4.638   8.684   3.349 -0.1926 -0.5163 -0.9919
  513MOL0     C70716   4.526   8.600   3.316  0.3037 -0.7290  0.1296
  513MOL0     C70717   4.415   8.674   3.237 -0.6905 -0.0343 -0.8423
  513MOL0     C70718   4.285   8.590   3.215 -0.6002 -0.0156 -0.0087
  513MOL0     C70719   4.196   8.651   3.111 -0.0291  0.2303  0.7965
  513MOL0     C70720   4.068   8.581   3.100 -0.2571  0.2402  0.6888
  513MOL0     C70721   3.967   8.517   3.060 -1.0648  0.2888 -0.4723
  513MOL0     C70722   4.517   8.818   3.519  0.4034  0.3018 -0.0785
  513MOL0     C70723   4.529   8.930   3.602  0.6902  0.4521  0.0260
  513MOL0     C70724   4.445   8.932   3.722  0.2045  0.1174 -0.3343
  513MOL0     H70725   4.898   9.188   3.832  4.7858  0.5856 -1.3683
  513MOL0     H70726   5.059   9.344   3.931 -0.2559  0.4122  0.6358
  513MOL0     H70727   5.187   9.575   3.694 -0.8363  0.1846  0.3499
  513MOL0     H70728   5.283   9.633   3.829  0.2905 -3.1271 -1.8262
  513MOL0     H70729   5.227   9.782   3.623  3.9241 -3.2289  1.5687
  513MOL0     H70730   5.075   9.819   3.734  1.5648  0.3800 -1.0844
  513MOL0     H70731   5.261   9.852   3.904  1.7970 -0.5532 -0.6607
  513MOL0     H70732   5.377   9.845   3.771  1.0996  1.6438  0.0478
  513MOL0     H70733   5.160  10.050   3.801  0.3240  0.9649  0.5751
  513MOL0     H70734   5.344  10.071   3.813  0.9930 -1.3172 -1.6996
  513MOL0     H70735   5.250  10.171   3.624  1.2962  0.7728  2.5243
  513MOL0     H70736   5.203  10.016   3.553  0.7984 -0.4799 -0.9797
  513MOL0     H70737   5.492  10.089   3.623 -0.0281  0.2183  1.0236
  513MOL0     H70738   5.404   9.943   3.539 -2.0590  1.0085 -0.3210
  513MOL0     H70739   5.543  10.094   3.400 -0.2776  1.5510  2.4898
  513MOL0     H70740   5.427  10.230   3.422  1.1822 -0.5158 -0.5751
  513MOL0     H70741   5.271  10.127   3.271 -0.3462  0.1853  0.0502
  513MOL0     H70742   5.431  10.131   3.208  3.8447 -5.1555  0.0492
  513MOL0     H70743   5.526   9.839   3.192  0.2518 -0.2124 -0.8095
  513MOL0     H70744   5.341   9.514   3.234  2.8428 -4.7938 -1.1317
  513MOL0     H70745   5.493   9.574   3.164 -0.9124 -0.2146  0.0056
  513MOL0     H70746   5.285   9.482   2.993 -3.0203  0.7442 -0.3127
  513MOL0     H70747   5.223   9.633   3.056  2.9499  3.0488  1.0573
  513MOL0     H70748   5.402   9.766   2.966  1.3051 -0.8642  3.0538
  513MOL0     H70749   5.485   9.618   2.921 -1.2300 -2.4071  2.7414
  513MOL0     H70750   5.269   9.566   2.771 -1.6438  0.8275 -0.2595
  513MOL0     H70751   5.247   9.738   2.777 -0.7280 -0.6544  1.1037
  513MOL0     H70752   5.569   9.770   2.524 -2.2036  2.8290  1.6725
  513MOL0     H70753   5.634   9.709   2.227  1.9071  0.7574 -0.1184
  513MOL0     H70754   5.636   9.847   2.336  0.4589 -0.4147 -0.3845
  513MOL0     H70755   5.547   9.865   2.181 -0.9140  1.9908  1.2490
  513MOL0     H70756   5.040   9.955   2.061 -2.5610  1.3891 -2.1176
  513MOL0     H70757   5.024  10.092   1.851  0.9386 -0.0586 -1.7200
  513MOL0     H70758   5.294  10.050   1.549 -1.0135 -0.8924  2.8264
  513MOL0     H70759   5.186   9.940   1.460 -2.9894  0.7945 -0.5459
  513MOL0     H70760   5.184  10.125   1.323 -3.2107  1.9429 -2.7154
  513MOL0     H70761   5.038  10.149   1.418 -0.1743 -2.8451 -0.0150
  513MOL0     H70762   5.308  10.284   1.449 -0.1157  6.5766  0.6347
  513MOL0     H70763   5.184  10.277   1.579  0.5196  1.1965 -0.1925
  513MOL0     H70764   5.042  10.426   1.405  1.2286  3.8988 -1.2656
  513MOL0     H70765   5.173  10.381   1.294 -0.1116 -3.8769 -1.0390
  513MOL0     H70766   5.245  10.549   1.539  0.3021  1.6873 -0.0881
  513MOL0     H70767   5.310  10.520   1.379 -0.2989 -0.1212 -2.0720
  513MOL0     H70768   5.038  10.646   1.446  0.5671  0.1190  0.3334
  513MOL0     H70769   5.096  10.645   1.283 -3.0538 -0.5487  0.5781
  513MOL0     H70770   5.160  10.837   1.319 -0.5021 -0.3631  0.1065
  513MOL0     H70771   5.313  10.766   1.359 -0.7994 -1.6031  0.5724
  513MOL0     H70772   5.294  10.779   1.599  0.5490 -2.0413 -1.0449
  513MOL0     H70773   5.117  10.798   1.582 -1.0894 -0.5007 -2.3176
  513MOL0     H70774   5.255   9.808   1.634 -0.6153  1.4816  0.0160
  513MOL0     H70775   5.305   9.686   1.845 -0.3005 -0.0463  0.1826
  513MOL0     H70776   5.135   9.642   2.334  0.1233  2.5793  0.2249
  513MOL0     H70777   5.183   9.607   2.577  1.0008 -1.1016 -1.1163
  513MOL0     H70778   4.877   9.671   3.723 -2.4157 -0.5699 -1.7933
  513MOL0     H70779   4.721   9.527   3.607 -3.2265  0.1093  1.8848
  513MOL0     H70780   4.792   9.089   3.446  1.4916 -0.2349  1.1185
  513MOL0     H70781   4.779   8.881   3.309  0.0003  1.2032 -1.6372
  513MOL0     H70782   4.564   8.536   3.235  0.7411  1.9987 -1.9549
  513MOL0     H70783   4.488   8.547   3.403 -1.1874 -1.8182 -1.1229
  513MOL0     H70784   4.459   8.689   3.138  1.5466 -0.7801 -0.0259
  513MOL0     H70785   4.386   8.768   3.286 -1.0825 -0.7477  0.3256
  513MOL0     H70786   4.313   8.490   3.181  3.5656  0.9928 -0.0205
  513MOL0     H70787   4.234   8.587   3.312  0.1661 -0.1067  0.3979
  513MOL0     H70788   4.253   8.642   3.018  0.2332 -0.0750  0.9859
  513MOL0     H70789   4.183   8.753   3.149 -2.9104  1.0333 -1.9412
  513MOL0     H70790   3.883   8.452   3.047  0.2861 -1.8885  0.8342
  513MOL0     H70791   4.441   8.740   3.529 -1.3958  2.1529  1.6862
  513MOL0     H70792   4.343   8.905   3.696 -0.0292  0.3047  0.3616
  513MOL0     H70793   4.482   8.857   3.792  0.4471  2.1288  1.8192
  513MOL0     H70794   4.444   9.024   3.781  2.2229  1.2998 -1.9758
  514MOL0     O70795   5.937   6.628   4.716 -0.3412 -0.1557 -0.4615
  514MOL0     C70796   5.934   6.533   4.797  0.8628  0.6692  0.3044
  514MOL0     O70797   5.916   6.541   4.928 -0.2806  0.6848 -0.3159
  514MOL0     C70798   5.873   6.663   4.978 -0.0977  0.0389 -0.1594
  514MOL0     C70799   5.737   6.679   5.021 -0.7666 -0.7802 -0.7363
  514MOL0     C70800   5.685   6.802   5.061 -0.9437  0.1865  0.0416
  514MOL0     C70801   5.785   6.904   5.080 -0.5410 -0.4442 -1.0624
  514MOL0     O70802   5.735   7.021   5.124 -0.6751 -0.3594 -0.5848
  514MOL0     C70803   5.799   7.140   5.091  0.2634 -0.1661  0.0882
  514MOL0     C70804   5.705   7.257   5.125  0.0564 -0.2792 -0.8354
  514MOL0     C70805   5.762   7.393   5.086  0.1980  0.1000 -0.9720
  514MOL0     C70806   5.864   7.441   5.195  0.6007  0.6391  0.6662
  514MOL0     C70807   5.869   7.594   5.217  1.3255 -0.0306  0.3426
  514MOL0     C70808   5.740   7.650   5.286  0.5650  0.2012 -0.3773
  514MOL0     C70809   5.726   7.601   5.429 -0.4780 -0.6585  0.2334
  514MOL0     C70810   5.613   7.673   5.507  0.2210 -0.4743  0.0878
  514MOL0     N70811   5.573   7.602   5.629  0.0091 -0.2729 -0.2595
  514MOL0     C70812   5.544   7.465   5.642 -0.4247 -0.5525 -0.8663
  514MOL0     C70813   5.552   7.446   5.778  0.1429 -0.4300 -0.5888
  514MOL0     C70814   5.570   7.309   5.836 -0.3472  0.1703 -0.1691
  514MOL0     C70815   5.725   7.265   5.799 -0.1571 -0.3690  0.0354
  514MOL0     C70816   5.730   7.212   5.653 -0.8235  0.5987 -0.5286
  514MOL0     C70817   5.876   7.174   5.634  0.4024 -0.3262  0.2177
  514MOL0     O70818   5.962   7.290   5.644  0.1637 -0.8117  0.3889
  514MOL0     C70819   6.095   7.267   5.622  0.6457  0.6119 -0.0481
  514MOL0     C70820   6.145   7.334   5.522 -1.1300  0.5668  1.4455
  514MOL0     C70821   6.285   7.319   5.494 -0.0545 -1.1303  0.8640
  514MOL0     C70822   6.342   7.405   5.390  0.2315 -0.6784 -0.5780
  514MOL0     C70823   6.360   7.212   5.563 -0.4808  0.2863 -0.3554
  514MOL0     C70824   6.500   7.166   5.524 -0.0990 -0.2129  0.3756
  514MOL0     O70825   6.555   7.072   5.599  0.7044  1.0971 -0.4031
  514MOL0     C70826   6.682   7.013   5.567  0.3225  0.1202  0.7918
  514MOL0     C70827   6.805   7.032   5.620  0.1240  0.2880 -0.4740
  514MOL0     C70828   6.919   6.963   5.576  0.2315  0.5111 -0.0600
  514MOL0     C70829   6.913   6.868   5.479  0.9862  0.4950 -0.2366
  514MOL0     O70830   7.027   6.811   5.428  0.5906 -0.0195 -0.2272
  514MOL0     C70831   7.125   6.904   5.381  0.2027  1.0960  0.1831
  514MOL0     C70832   7.267   6.880   5.426  0.2072 -0.2125 -0.1717
  514MOL0     C70833   7.318   6.734   5.403  0.0378 -0.2862  0.7354
  514MOL0     C70834   7.402   6.696   5.522 -0.0437 -0.5790 -0.8951
  514MOL0     C70835   7.429   6.549   5.524 -0.5651  0.6293 -0.8836
  514MOL0     C70836   7.529   6.511   5.414 -0.4052  0.1792 -0.0149
  514MOL0     C70837   7.547   6.354   5.398 -0.2438  0.0933 -0.3694
  514MOL0     C70838   7.650   6.339   5.283  0.3104 -0.0741 -0.1854
  514MOL0    Cl70839   7.817   6.387   5.337 -0.2183 -0.4738 -0.7699
  514MOL0     C70840   6.787   6.836   5.426 -0.1333  0.7443  0.1981
  514MOL0     C70841   6.674   6.901   5.470  0.5006  0.2916  1.2309
  514MOL0     O70842   6.554   7.224   5.429  0.1402 -0.0955 -0.9109
  514MOL0     C70843   6.300   7.155   5.678 -0.9349 -0.5046  0.4942
  514MOL0     C70844   6.166   7.178   5.700 -0.1487  0.2731 -0.1867
  514MOL0     N70845   5.588   7.570   5.839 -0.4458 -0.0410  0.5798
  514MOL0     N70846   5.591   7.663   5.747  0.4590  0.2795 -0.8203
  514MOL0     C70847   5.927   6.881   5.049 -0.1960 -0.0598 -0.5317
  514MOL0     C70848   5.962   6.764   4.998 -1.9759 -0.5531  1.2653
  514MOL0     C70849   5.973   6.398   4.741  0.5122  0.3633 -0.5159
  514MOL0     C70850   6.058   6.308   4.819 -0.2803 -0.0456  0.4208
  514MOL0     C70851   6.120   6.206   4.742  0.0936 -0.0533 -0.0219
  514MOL0     C70852   6.081   6.170   4.623 -0.4823  0.5210 -0.1914
  514MOL0     O70853   6.164   6.071   4.572  0.0245  0.6517 -0.4471
  514MOL0     C70854   6.087   5.953   4.552 -0.7843 -1.0073 -0.0541
  514MOL0     C70855   6.178   5.841   4.580 -1.0140  0.0722  0.4024
  514MOL0     C70856   6.101   5.702   4.567  0.5515 -0.0301 -0.2166
  514MOL0     C70857   6.177   5.573   4.598 -1.2189  0.7603  1.1657
  514MOL0     C70858   6.218   5.556   4.734 -0.6413  0.1150  0.3272
  514MOL0     C70859   6.251   5.537   4.850  0.0438  0.7536  0.3020
  514MOL0     C70860   5.987   6.244   4.552  0.5895  0.7086  0.2861
  514MOL0     C70861   5.931   6.356   4.614  0.0352 -0.4087  1.4128
  514MOL0     C70862   5.827   6.411   4.525  0.6440  1.9104  0.0977
  514MOL0     H70863   5.670   6.595   5.010  1.6065 -3.2465  1.9202
  514MOL0     H70864   5.579   6.795   5.086 -0.3926 -2.9924  2.0899
  514MOL0     H70865   5.817   7.131   4.984 -1.2534  0.5311 -0.2466
  514MOL0     H70866   5.894   7.142   5.145  0.1524 -0.4907  0.2995
  514MOL0     H70867   5.621   7.237   5.058 -1.4336 -2.1366  1.4458
  514MOL0     H70868   5.673   7.248   5.229 -0.5732 -2.0320 -1.1528
  514MOL0     H70869   5.802   7.385   4.984  0.0712 -1.5700 -0.9093
  514MOL0     H70870   5.677   7.461   5.081 -0.8184 -1.0350  0.2300
  514MOL0     H70871   5.849   7.398   5.294 -2.2661 -0.7503 -0.2754
  514MOL0     H70872   5.965   7.411   5.164  0.7281  0.8620  0.8545
  514MOL0     H70873   5.883   7.633   5.116 -0.2118 -0.3430 -0.0227
  514MOL0     H70874   5.957   7.619   5.278  0.7543 -0.6326  1.4497
  514MOL0     H70875   5.725   7.759   5.279 -4.2757 -0.3676 -2.4132
  514MOL0     H70876   5.651   7.615   5.233  0.9594 -2.3340  0.5449
  514MOL0     H70877   5.819   7.616   5.484 -1.3459 -1.7709  2.1041
  514MOL0     H70878   5.716   7.492   5.433 -0.5431 -0.6831  4.7319
  514MOL0     H70879   5.629   7.779   5.531 -3.4931 -0.0711  1.6648
  514MOL0     H70880   5.520   7.678   5.450  1.0079 -2.4598 -1.4393
  514MOL0     H70881   5.533   7.393   5.561  0.4774 -0.2899 -1.2397
  514MOL0     H70882   5.501   7.237   5.790  0.3023 -1.0319  0.6819
  514MOL0     H70883   5.542   7.311   5.942  1.2408 -0.4243  0.2960
  514MOL0     H70884   5.788   7.354   5.811  0.4442 -0.6358 -1.0175
  514MOL0     H70885   5.748   7.184   5.868 -2.4615 -1.2935 -0.1824
  514MOL0     H70886   5.669   7.123   5.632 -1.0512  1.5255 -4.6493
  514MOL0     H70887   5.698   7.274   5.569  0.5470  0.7327 -0.9752
  514MOL0     H70888   5.908   7.088   5.693  1.0835  0.5556  1.1789
  514MOL0     H70889   5.903   7.121   5.543 -0.2354 -1.5782  0.7267
  514MOL0     H70890   6.089   7.404   5.460  0.6773  1.1944  0.4485
  514MOL0     H70891   6.259   7.459   5.342 -0.9141 -3.6939 -2.3101
  514MOL0     H70892   6.379   7.349   5.304 -0.8653 -1.9739 -0.2490
  514MOL0     H70893   6.405   7.477   5.441  1.8115 -1.7632 -0.9445
  514MOL0     H70894   6.813   7.097   5.707  1.8746 -1.4875  0.8073
  514MOL0     H70895   7.014   6.975   5.628 -0.5791  1.7969  1.2008
  514MOL0     H70896   7.126   6.882   5.274 -0.4008 -0.4486  0.4646
  514MOL0     H70897   7.085   7.004   5.400 -4.5296 -0.5300 -0.0084
  514MOL0     H70898   7.332   6.955   5.381 -0.5284 -0.4876 -1.7350
  514MOL0     H70899   7.268   6.899   5.534 -1.4186  0.5966 -0.2593
  514MOL0     H70900   7.373   6.715   5.311  1.2091  0.6881  1.1984
  514MOL0     H70901   7.231   6.670   5.387  1.1833 -1.8154  0.3144
  514MOL0     H70902   7.341   6.723   5.608  2.6193  0.0318  0.9481
  514MOL0     H70903   7.496   6.751   5.533 -0.9504  0.5308  2.4585
  514MOL0     H70904   7.474   6.525   5.621  1.7918  1.7501 -1.6031
  514MOL0     H70905   7.332   6.503   5.507 -1.2336  2.0011 -0.8991
  514MOL0     H70906   7.627   6.551   5.443  0.0242 -1.7711  1.4519
  514MOL0     H70907   7.492   6.548   5.318  0.0007  0.9283  0.1132
  514MOL0     H70908   7.455   6.301   5.374 -0.3437 -0.1797  0.5545
  514MOL0     H70909   7.586   6.311   5.491 -1.0685  2.2554  1.0623
  514MOL0     H70910   7.611   6.395   5.197 -0.3227  0.3595  0.3790
  514MOL0     H70911   7.646   6.238   5.243 -0.2267  0.5321 -1.7531
  514MOL0     H70912   6.768   6.761   5.349  0.1316  0.8419  0.0357
  514MOL0     H70913   6.572   6.877   5.443  0.7694 -0.4138  0.8060
  514MOL0     H70914   6.348   7.083   5.743 -0.2711 -1.3571 -0.8973
  514MOL0     H70915   6.106   7.113   5.762  1.0083 -1.6173 -0.9706
  514MOL0     H70916   6.002   6.958   5.063 -0.2979 -0.2936  1.6228
  514MOL0     H70917   6.067   6.741   4.984 -1.6328 -0.1434  2.9131
  514MOL0     H70918   6.089   6.338   4.919 -0.3056  1.5205 -0.0189
  514MOL0     H70919   6.189   6.141   4.795 -0.0872 -2.6211 -2.6368
  514MOL0     H70920   6.002   5.949   4.620 -0.8790 -2.5556 -0.2318
  514MOL0     H70921   6.039   5.958   4.454  0.9364 -1.5491 -0.9641
  514MOL0     H70922   6.205   5.854   4.685  0.3274 -1.6169  0.3089
  514MOL0     H70923   6.270   5.855   4.523 -0.1975  2.2213  2.0969
  514MOL0     H70924   6.016   5.700   4.636  1.0905  3.3907  0.7470
  514MOL0     H70925   6.063   5.697   4.464 -0.2791 -2.7227  0.1414
  514MOL0     H70926   6.259   5.571   4.526 -1.9751  2.1751  0.2126
  514MOL0     H70927   6.117   5.483   4.581  0.0579  0.2998 -1.3440
  514MOL0     H70928   6.307   5.535   4.941 -1.0525  1.9863  1.0388
  514MOL0     H70929   5.956   6.221   4.451 -0.7591  2.8471  0.1535
  514MOL0     H70930   5.874   6.471   4.446  1.3210  3.1771  1.4130
  514MOL0     H70931   5.756   6.332   4.501  1.4632  0.5407  1.9223
  514MOL0     H70932   5.773   6.486   4.584  0.9995  1.1326  1.4560
  515MOL0     O70933  11.421   3.675   3.707  0.5250  0.7702 -0.2964
  515MOL0     C70934  11.457   3.703   3.596 -0.5165  0.5111  1.1470
  515MOL0     O70935  11.435   3.628   3.483 -0.3733 -0.1636  0.8415
  515MOL0     C70936  11.406   3.493   3.499 -0.2370 -0.2518  0.0299
  515MOL0     C70937  11.322   3.435   3.411 -0.1117  0.0460  0.3993
  515MOL0     C70938  11.277   3.305   3.410  0.0839  0.5423  0.8370
  515MOL0     C70939  11.332   3.219   3.503  0.1653 -0.0310  0.1003
  515MOL0     O70940  11.306   3.081   3.494  0.4949  0.7867  0.3522
  515MOL0     C70941  11.351   2.995   3.608 -0.0262  0.0080  1.0217
  515MOL0     C70942  11.299   2.848   3.578  0.4739 -0.0154  0.5310
  515MOL0     C70943  11.386   2.747   3.638  0.0468  0.6795 -0.6436
  515MOL0     C70944  11.321   2.608   3.658 -0.0239 -0.2758  0.2008
  515MOL0     C70945  11.218   2.615   3.781  0.9775  0.6932  0.4923
  515MOL0     C70946  11.136   2.489   3.796 -0.4271  0.1615 -0.2162
  515MOL0     C70947  11.206   2.376   3.869 -0.3368 -0.1577  0.1085
  515MOL0     C70948  11.138   2.240   3.886 -0.4020 -0.6358 -0.7187
  515MOL0     N70949  11.103   2.191   3.758  0.4300 -0.9339 -0.1635
  515MOL0     C70950  10.992   2.215   3.688  0.8162 -0.2439 -1.1097
  515MOL0     C70951  11.001   2.162   3.567 -0.5791  0.3387 -0.7243
  515MOL0     C70952  10.894   2.168   3.466  0.6581 -0.3151 -0.4316
  515MOL0     C70953  10.947   2.213   3.332 -0.2497  0.0628  0.5001
  515MOL0     C70954  11.017   2.344   3.331 -0.0658  0.2344  0.3780
  515MOL0     C70955  10.920   2.455   3.372  0.6886  0.0723 -0.1481
  515MOL0     O70956  10.986   2.579   3.344  0.1173 -0.3952  0.2744
  515MOL0     C70957  10.918   2.694   3.390  0.6699  0.1617  0.0355
  515MOL0     C70958  10.775   2.710   3.405 -0.8032  0.1613  0.3370
  515MOL0     C70959  10.715   2.826   3.447  0.4782  0.9882 -0.6327
  515MOL0     C70960  10.566   2.839   3.464  0.2212 -1.1931 -0.3985
  515MOL0     C70961  10.801   2.934   3.482 -0.0960 -0.2388 -0.0234
  515MOL0     C70962  10.750   3.065   3.521  0.6018 -0.2289 -0.1147
  515MOL0     O70963  10.731   3.155   3.422 -0.2925 -0.1739 -0.0200
  515MOL0     C70964  10.664   3.277   3.459 -0.6479 -0.7740  0.0355
  515MOL0     C70965  10.528   3.269   3.457  0.4649 -0.5215 -0.1636
  515MOL0     C70966  10.452   3.373   3.426  0.7314 -0.2739 -0.6649
  515MOL0     C70967  10.513   3.502   3.419  0.6412 -1.1200  0.3103
  515MOL0     O70968  10.442   3.615   3.392  0.2741  1.1411  0.3503
  515MOL0     C70969  10.322   3.625   3.470  0.1267 -1.0823  0.7154
  515MOL0     C70970  10.252   3.751   3.420  0.4547  0.9921 -0.3875
  515MOL0     C70971  10.316   3.862   3.499 -0.0797  0.5466  0.2437
  515MOL0     C70972  10.465   3.884   3.491 -1.2693  0.8806 -0.3390
  515MOL0     C70973  10.538   3.851   3.614  0.2253 -0.1827  0.7618
  515MOL0     C70974  10.523   3.951   3.726  0.0008  0.5769  0.1513
  515MOL0     C70975  10.603   3.919   3.850 -0.9852  0.1026 -0.7305
  515MOL0     C70976  10.650   4.042   3.926 -0.4251  0.3659  0.3096
  515MOL0    Cl70977  10.513   4.162   3.934 -0.0394  0.2709 -0.2380
  515MOL0     C70978  10.649   3.511   3.419 -0.2145  0.1140 -0.1044
  515MOL0     C70979  10.728   3.401   3.445 -0.5875 -0.3043 -0.7152
  515MOL0     O70980  10.723   3.068   3.638 -0.0013  0.1210 -0.1307
  515MOL0     C70981  10.944   2.932   3.457 -0.7811  0.7222  1.2434
  515MOL0     C70982  10.996   2.802   3.422 -1.0593 -0.9787 -0.2685
  515MOL0     N70983  11.129   2.110   3.559 -0.2119 -0.1899 -1.0639
  515MOL0     N70984  11.192   2.128   3.673  0.6348  0.1731  0.3805
  515MOL0     C70985  11.414   3.282   3.596  0.2157 -0.1553  0.1394
  515MOL0     C70986  11.455   3.412   3.604  0.3706 -1.0796  0.2857
  515MOL0     C70987  11.489   3.847   3.581 -0.0620  1.0832  0.0303
  515MOL0     C70988  11.628   3.874   3.571  0.2573 -0.0651 -0.5602
  515MOL0     C70989  11.670   4.001   3.580 -0.0348 -0.7596 -0.7573
  515MOL0     C70990  11.585   4.116   3.579 -0.6242 -0.2432 -0.4776
  515MOL0     O70991  11.613   4.250   3.576  1.0787 -0.4208 -0.1694
  515MOL0     C70992  11.749   4.273   3.595 -0.4071 -0.3967 -0.4184
  515MOL0     C70993  11.777   4.424   3.609  0.0841 -0.0134 -0.0001
  515MOL0     C70994  11.699   4.510   3.508 -0.2147  0.5552  0.6482
  515MOL0     C70995  11.753   4.651   3.519  0.4752  0.3677 -0.5126
  515MOL0     C70996  11.881   4.683   3.450  0.0539 -0.5324 -0.6151
  515MOL0     C70997  11.984   4.682   3.397 -0.2461 -0.7296  0.6315
  515MOL0     C70998  11.452   4.085   3.574  0.0472 -0.3477 -0.0455
  515MOL0     C70999  11.395   3.955   3.584 -0.2038 -0.5159 -0.4876
  515MOL0     C71000  11.238   3.937   3.584  0.0584  0.2280 -0.4653
  515MOL0     H71001  11.290   3.504   3.334  2.9668 -0.2451 -1.2874
  515MOL0     H71002  11.207   3.260   3.341  0.0162 -0.6561  1.6579
  515MOL0     H71003  11.301   3.023   3.702 -0.3576  0.2276  0.7819
  515MOL0     H71004  11.459   3.013   3.613 -0.0726  0.7083 -0.2021
  515MOL0     H71005  11.193   2.847   3.607  0.1692  1.9040 -0.3413
  515MOL0     H71006  11.304   2.823   3.472 -0.1388  0.8812  0.2748
  515MOL0     H71007  11.470   2.727   3.570  1.2133 -1.7264  1.3412
  515MOL0     H71008  11.443   2.770   3.728 -0.6095 -0.2769  0.0294
  515MOL0     H71009  11.273   2.583   3.563  0.4659  2.8062 -0.9884
  515MOL0     H71010  11.403   2.541   3.683  0.0514 -0.4713 -0.5656
  515MOL0     H71011  11.147   2.698   3.772 -0.2743 -0.3648  0.4987
  515MOL0     H71012  11.274   2.619   3.875 -0.1886 -0.8704  1.2870
  515MOL0     H71013  11.041   2.514   3.842 -1.9816 -0.9134 -2.6377
  515MOL0     H71014  11.103   2.451   3.699  0.6657 -1.5000  0.0120
  515MOL0     H71015  11.243   2.399   3.969  2.5882  3.6946 -1.5997
  515MOL0     H71016  11.303   2.381   3.818 -1.0168  2.0431 -1.1292
  515MOL0     H71017  11.208   2.171   3.935  2.2585  0.7313 -2.3188
  515MOL0     H71018  11.053   2.251   3.954  0.6579 -1.3886  0.8027
  515MOL0     H71019  10.915   2.274   3.737  1.4573 -1.6641  1.8531
  515MOL0     H71020  10.810   2.231   3.498 -0.2674 -1.7129 -0.0373
  515MOL0     H71021  10.849   2.070   3.448  1.0693 -0.7995  1.0416
  515MOL0     H71022  11.028   2.149   3.296 -0.7311  0.3133 -1.0997
  515MOL0     H71023  10.866   2.200   3.259  0.5092  0.7737 -0.4961
  515MOL0     H71024  11.100   2.351   3.402 -0.0602 -0.1661  0.4140
  515MOL0     H71025  11.052   2.356   3.228  0.2721 -1.0799  0.3162
  515MOL0     H71026  10.831   2.444   3.310  0.9087 -0.1459 -0.4294
  515MOL0     H71027  10.898   2.446   3.479 -1.9825 -1.5274 -0.7379
  515MOL0     H71028  10.709   2.629   3.376 -0.1007 -0.5441  0.6763
  515MOL0     H71029  10.511   2.744   3.465 -2.4140  0.1660 -2.4192
  515MOL0     H71030  10.529   2.898   3.379 -0.8074 -0.8990  0.2289
  515MOL0     H71031  10.543   2.888   3.559  0.5865 -3.2664  0.8026
  515MOL0     H71032  10.480   3.172   3.453 -1.6263  0.4174  0.7928
  515MOL0     H71033  10.347   3.359   3.406  1.0789 -3.1370 -0.8009
  515MOL0     H71034  10.255   3.543   3.443 -0.3917  0.3037 -2.5580
  515MOL0     H71035  10.328   3.632   3.579 -0.1107  5.4515  0.6680
  515MOL0     H71036  10.261   3.770   3.313 -1.0966 -1.3783 -1.0330
  515MOL0     H71037  10.147   3.745   3.450  0.7533 -0.1141  0.5308
  515MOL0     H71038  10.280   3.861   3.602 -1.5316  3.9777 -0.0975
  515MOL0     H71039  10.269   3.942   3.440 -0.3504 -0.0558 -0.3720
  515MOL0     H71040  10.479   3.990   3.470  0.9810  0.8804  0.8747
  515MOL0     H71041  10.513   3.830   3.409 -3.2602 -2.8352  0.6903
  515MOL0     H71042  10.515   3.749   3.647  0.4480  0.7270  4.0618
  515MOL0     H71043  10.643   3.854   3.585 -0.0534 -1.2645 -0.4727
  515MOL0     H71044  10.417   3.954   3.751 -0.4517  2.8331 -1.6364
  515MOL0     H71045  10.555   4.046   3.682  3.1436 -0.2863  0.2922
  515MOL0     H71046  10.689   3.863   3.812 -1.2734 -1.5798  0.9224
  515MOL0     H71047  10.546   3.848   3.912 -0.5293 -0.7274 -1.2475
  515MOL0     H71048  10.744   4.090   3.896 -0.9997  3.4367  2.8524
  515MOL0     H71049  10.677   4.016   4.029  0.4012  2.1736  0.5878
  515MOL0     H71050  10.694   3.606   3.392 -0.7424  0.3605 -0.1233
  515MOL0     H71051  10.834   3.402   3.421 -0.8601  1.2566 -2.0876
  515MOL0     H71052  11.006   3.021   3.457  0.3271  0.0842 -1.9365
  515MOL0     H71053  11.104   2.794   3.409 -1.0362 -0.5347 -0.3584
  515MOL0     H71054  11.450   3.214   3.673 -1.1131 -1.1481 -0.0783
  515MOL0     H71055  11.522   3.445   3.683  1.2056 -1.5357 -0.2105
  515MOL0     H71056  11.687   3.785   3.551 -1.2775 -0.9979 -1.1293
  515MOL0     H71057  11.777   4.018   3.575  0.3510  0.0092  4.3168
  515MOL0     H71058  11.776   4.222   3.689 -0.6503  0.3242  0.0469
  515MOL0     H71059  11.810   4.236   3.512  0.8933  1.2697 -0.2620
  515MOL0     H71060  11.885   4.425   3.592  0.0431 -2.1357 -0.6018
  515MOL0     H71061  11.756   4.454   3.712 -3.3411 -3.4439  0.5308
  515MOL0     H71062  11.702   4.480   3.403 -0.3743 -0.3169  0.8856
  515MOL0     H71063  11.594   4.506   3.539 -0.5112  0.8940 -0.2842
  515MOL0     H71064  11.775   4.673   3.624  0.4301 -3.2115  0.3673
  515MOL0     H71065  11.677   4.721   3.481  1.8111  1.3104 -1.5301
  515MOL0     H71066  12.065   4.681   3.328  1.6668 -1.3616  2.7514
  515MOL0     H71067  11.377   4.163   3.561 -0.0920 -0.1222  1.9368
  515MOL0     H71068  11.210   3.847   3.530  0.9845  0.5022 -1.4192
  515MOL0     H71069  11.196   3.935   3.686  0.0460 -1.3634 -0.4827
  515MOL0     H71070  11.198   4.029   3.540 -2.3861 -0.2683  0.5151
  516MOL0     O71071   6.889   5.988   2.856 -0.8100  0.0734  0.5239
  516MOL0     C71072   6.801   5.961   2.775 -0.5593 -1.0558  0.2306
  516MOL0     O71073   6.680   6.021   2.763  0.0918 -0.2491  0.2457
  516MOL0     C71074   6.632   6.106   2.863 -0.2949  0.2716 -0.3338
  516MOL0     C71075   6.573   6.222   2.828  0.3498  0.0257  0.2184
  516MOL0     C71076   6.531   6.318   2.929  0.2166  0.5507  0.8299
  516MOL0     C71077   6.519   6.271   3.058  0.1202 -0.3484  0.1191
  516MOL0     O71078   6.445   6.348   3.148  0.5222 -0.1632  0.5997
  516MOL0     C71079   6.505   6.351   3.284 -0.4086  0.4218 -0.5947
  516MOL0     C71080   6.404   6.447   3.370  0.2910  0.2327  0.7045
  516MOL0     C71081   6.470   6.586   3.400  0.1720 -0.1656 -0.0205
  516MOL0     C71082   6.399   6.661   3.511 -1.0650  0.4267  0.6434
  516MOL0     C71083   6.429   6.809   3.484  0.1821  0.4734 -0.5870
  516MOL0     C71084   6.349   6.906   3.566  0.3872 -0.8332 -0.4269
  516MOL0     C71085   6.196   6.898   3.534 -0.6128 -0.2462  0.7429
  516MOL0     C71086   6.110   7.021   3.576 -0.8194  0.4173  0.6258
  516MOL0     N71087   6.153   7.123   3.479  0.8998 -0.1620 -0.5683
  516MOL0     C71088   6.083   7.142   3.364 -0.6769  0.3018 -0.0649
  516MOL0     C71089   6.149   7.238   3.291 -0.1636  0.6513  0.5224
  516MOL0     C71090   6.148   7.300   3.149  0.7713  0.7107  0.2367
  516MOL0     C71091   6.105   7.202   3.036 -0.8112 -0.2453  0.0544
  516MOL0     C71092   5.953   7.203   3.023  0.6159  1.4504  0.0475
  516MOL0     C71093   5.887   7.341   2.985 -0.8678 -0.0475 -1.1220
  516MOL0     O71094   5.760   7.323   2.920  0.7207  0.2285 -0.2755
  516MOL0     C71095   5.727   7.412   2.823 -0.8272 -0.2566  0.1941
  516MOL0     C71096   5.626   7.385   2.740  1.0567 -0.4138 -0.1058
  516MOL0     C71097   5.573   7.472   2.652  0.5680 -0.6483 -0.2084
  516MOL0     C71098   5.451   7.438   2.572 -0.4849  0.1147  0.6874
  516MOL0     C71099   5.624   7.607   2.646 -0.4519  0.4857  0.7065
  516MOL0     C71100   5.561   7.713   2.564 -0.3446  0.0295  0.1649
  516MOL0     O71101   5.599   7.838   2.605 -0.3758 -0.2114 -0.2979
  516MOL0     C71102   5.568   7.947   2.527  0.2869  0.2930  0.1409
  516MOL0     C71103   5.499   8.053   2.585  0.2931 -0.0639 -0.3423
  516MOL0     C71104   5.494   8.176   2.518  0.2023 -0.7735 -0.3654
  516MOL0     C71105   5.549   8.208   2.393 -1.7225 -0.9086 -0.1019
  516MOL0     O71106   5.541   8.329   2.332 -0.5614 -0.3199  0.1226
  516MOL0     C71107   5.546   8.451   2.415 -0.2870  0.8347 -0.4603
  516MOL0     C71108   5.692   8.495   2.427 -0.0741  0.5340  0.3630
  516MOL0     C71109   5.756   8.537   2.287 -0.7703  0.5938 -0.0818
  516MOL0     C71110   5.879   8.621   2.310 -0.0398 -1.1798 -0.6460
  516MOL0     C71111   5.920   8.705   2.187 -0.4685  0.7221 -0.4111
  516MOL0     C71112   5.997   8.838   2.223 -0.4561  0.0814 -1.0579
  516MOL0     C71113   6.018   8.936   2.103 -0.4429 -0.8804 -0.0113
  516MOL0     C71114   6.142   8.914   2.019  0.7106  0.3563  1.2681
  516MOL0    Cl71115   6.292   8.898   2.123 -0.2337  0.6218 -0.1623
  516MOL0     C71116   5.606   8.099   2.329 -0.2049  1.1220 -0.7528
  516MOL0     C71117   5.621   7.972   2.402  0.4454  0.4849  0.5777
  516MOL0     O71118   5.500   7.694   2.461 -1.3256  0.6767  1.0897
  516MOL0     C71119   5.732   7.640   2.734 -0.1558  0.8140 -0.5647
  516MOL0     C71120   5.780   7.543   2.823 -0.2885  0.1925 -0.1039
  516MOL0     N71121   6.261   7.268   3.370 -0.5642  0.1327  0.0723
  516MOL0     N71122   6.260   7.209   3.484 -0.0454  0.0646  0.1923
  516MOL0     C71123   6.569   6.145   3.097 -0.0293  0.4498  0.0193
  516MOL0     C71124   6.629   6.073   2.997 -0.1431 -0.0060 -0.5039
  516MOL0     C71125   6.819   5.854   2.689 -0.4318  0.4681 -0.7834
  516MOL0     C71126   6.705   5.769   2.652  0.5096  0.0443 -0.1356
  516MOL0     C71127   6.720   5.647   2.585  0.5693 -0.0250 -1.0785
  516MOL0     C71128   6.845   5.611   2.540 -0.8085  0.5051  0.9139
  516MOL0     O71129   6.857   5.493   2.460  1.3845 -0.2562  0.2810
  516MOL0     C71130   6.974   5.413   2.439 -0.3881 -0.1151 -0.3644
  516MOL0     C71131   7.022   5.354   2.574 -0.7075  0.0588 -1.1794
  516MOL0     C71132   7.165   5.307   2.546  0.7601  0.3215  0.2700
  516MOL0     C71133   7.223   5.211   2.652 -0.0830 -0.1339  0.7842
  516MOL0     C71134   7.229   5.082   2.600 -0.6644  1.2590  0.0526
  516MOL0     C71135   7.247   4.976   2.543  0.9738 -0.9221 -0.3415
  516MOL0     C71136   6.958   5.687   2.566 -0.5206 -0.3370 -0.0866
  516MOL0     C71137   6.946   5.809   2.636 -0.3250 -0.4882  0.6562
  516MOL0     C71138   7.074   5.885   2.656 -1.0781 -0.2000  0.4955
  516MOL0     H71139   6.569   6.231   2.720  4.9792 -0.5971 -0.1995
  516MOL0     H71140   6.495   6.416   2.901 -2.8011 -0.4162  0.8995
  516MOL0     H71141   6.604   6.396   3.293  0.0909 -0.9681  1.4150
  516MOL0     H71142   6.514   6.251   3.326  0.4185  1.3544  1.5641
  516MOL0     H71143   6.303   6.459   3.329  0.2353 -1.3563  0.3121
  516MOL0     H71144   6.378   6.402   3.467  2.2957  2.7792  2.5813
  516MOL0     H71145   6.574   6.573   3.429 -0.0689  2.0189  2.0604
  516MOL0     H71146   6.452   6.640   3.306 -0.4758  1.2092  0.8559
  516MOL0     H71147   6.292   6.644   3.519 -0.6778 -1.6612  2.5856
  516MOL0     H71148   6.441   6.638   3.610 -0.8409  0.6563  0.6039
  516MOL0     H71149   6.398   6.832   3.382 -1.1592  1.7394  0.0844
  516MOL0     H71150   6.536   6.829   3.498 -0.0167  0.4691  1.1384
  516MOL0     H71151   6.372   6.881   3.670 -0.8385 -2.0754 -0.4246
  516MOL0     H71152   6.398   7.002   3.550  1.3898 -1.4383 -1.0997
  516MOL0     H71153   6.149   6.806   3.572 -2.3015 -0.0492 -0.7463
  516MOL0     H71154   6.186   6.887   3.426  0.0445 -2.8532  0.8691
  516MOL0     H71155   6.003   6.998   3.580 -0.3689 -1.8567  3.6384
  516MOL0     H71156   6.134   7.047   3.680 -1.7515  0.0370  0.9498
  516MOL0     H71157   5.994   7.091   3.330  0.4477 -0.4078 -2.1662
  516MOL0     H71158   6.237   7.359   3.128 -0.2670  1.5798 -2.0224
  516MOL0     H71159   6.078   7.383   3.165 -4.1163 -2.5373 -2.0126
  516MOL0     H71160   6.169   7.228   2.951  1.7192  1.1420  2.1840
  516MOL0     H71161   6.140   7.101   3.060 -1.1263 -0.5757 -0.8558
  516MOL0     H71162   5.912   7.139   2.944  0.4023 -0.1579  1.4069
  516MOL0     H71163   5.913   7.168   3.118  1.4566  1.2492  0.3367
  516MOL0     H71164   5.885   7.406   3.073 -0.4339  0.4435 -1.4683
  516MOL0     H71165   5.949   7.379   2.903 -0.9972 -0.7628 -1.5632
  516MOL0     H71166   5.574   7.289   2.746  0.9399 -0.3109  0.7670
  516MOL0     H71167   5.367   7.506   2.594 -0.7362  0.3095 -0.7600
  516MOL0     H71168   5.410   7.343   2.608 -0.6443  0.0059  0.2265
  516MOL0     H71169   5.480   7.443   2.467  2.0021  0.8145  1.3502
  516MOL0     H71170   5.446   8.039   2.678  0.2506  1.3417 -0.1415
  516MOL0     H71171   5.436   8.251   2.570  0.6713 -0.2046 -0.6512
  516MOL0     H71172   5.478   8.527   2.375  2.5178  3.1222 -1.2636
  516MOL0     H71173   5.516   8.433   2.519  0.8412  0.7705 -0.1322
  516MOL0     H71174   5.704   8.569   2.506 -0.4049 -2.0513  2.9698
  516MOL0     H71175   5.751   8.408   2.456  0.0723  1.1909  2.1462
  516MOL0     H71176   5.684   8.575   2.213 -1.5884 -2.1181 -0.7970
  516MOL0     H71177   5.796   8.448   2.238 -1.2178  1.2803 -1.7850
  516MOL0     H71178   5.975   8.571   2.329  0.8017 -0.6297 -3.0934
  516MOL0     H71179   5.860   8.693   2.390 -2.1618 -0.7681 -1.4532
  516MOL0     H71180   5.983   8.646   2.119  1.3991 -0.7709  2.4342
  516MOL0     H71181   5.834   8.731   2.125  0.2180 -0.9809 -2.1945
  516MOL0     H71182   6.096   8.807   2.257 -1.6060 -0.1359  2.4750
  516MOL0     H71183   5.944   8.907   2.290  1.7368  2.2922 -1.4343
  516MOL0     H71184   6.036   9.032   2.151  0.0435 -2.0474  2.3019
  516MOL0     H71185   5.931   8.944   2.038 -1.8244  3.2720  1.9990
  516MOL0     H71186   6.156   9.001   1.954  0.7657  0.2673  1.1625
  516MOL0     H71187   6.118   8.822   1.965 -1.1015  0.3875  1.9422
  516MOL0     H71188   5.654   8.113   2.232  0.8984  0.2523 -0.3492
  516MOL0     H71189   5.682   7.890   2.365  1.5498 -0.6007  4.3977
  516MOL0     H71190   5.773   7.740   2.744  0.4719  0.6441 -1.2655
  516MOL0     H71191   5.859   7.558   2.896 -1.2972  1.1236  0.8196
  516MOL0     H71192   6.559   6.096   3.193  0.3567  0.5682  0.1209
  516MOL0     H71193   6.663   5.978   3.037  0.0395  0.1901 -0.1858
  516MOL0     H71194   6.603   5.797   2.675  1.1817  1.9017  0.8066
  516MOL0     H71195   6.627   5.598   2.560  0.7611 -2.9949  2.9731
  516MOL0     H71196   6.947   5.329   2.375  0.4332  0.3887 -1.3926
  516MOL0     H71197   7.048   5.478   2.391 -1.3469  1.4749  0.2506
  516MOL0     H71198   6.960   5.272   2.612 -2.5812  1.6839 -0.5591
  516MOL0     H71199   7.033   5.437   2.645  2.7889  1.2922 -2.8891
  516MOL0     H71200   7.143   5.250   2.455  1.8947  1.5539 -0.8142
  516MOL0     H71201   7.236   5.384   2.513  2.5672 -2.3265 -2.5764
  516MOL0     H71202   7.150   5.199   2.733  0.5772 -1.8106  1.1793
  516MOL0     H71203   7.321   5.252   2.678 -0.4549  3.9360 -2.9296
  516MOL0     H71204   7.258   4.880   2.496 -1.3310 -0.6666 -1.5659
  516MOL0     H71205   7.056   5.657   2.530  0.9349 -1.2745  4.1448
  516MOL0     H71206   7.094   5.925   2.756  1.9157 -0.4803  0.0963
  516MOL0     H71207   7.163   5.822   2.647 -0.8288  0.1553  0.4624
  516MOL0     H71208   7.081   5.957   2.575 -0.4102 -1.6378 -0.7701
  517MOL0     O71209   6.353   6.257   2.431 -0.5223 -0.4116  0.0714
  517MOL0     C71210   6.434   6.351   2.442 -0.0393 -0.7590 -0.8283
  517MOL0     O71211   6.567   6.357   2.411  0.3209  0.8865  0.0716
  517MOL0     C71212   6.635   6.240   2.378 -0.4696 -0.1915 -0.0582
  517MOL0     C71213   6.600   6.143   2.278 -0.3392  1.0185  1.2938
  517MOL0     C71214   6.691   6.037   2.256  0.7688  0.5095 -0.0654
  517MOL0     C71215   6.814   6.015   2.322 -0.8307  0.0113 -0.0217
  517MOL0     O71216   6.888   5.896   2.307  1.3564 -0.1291  0.0409
  517MOL0     C71217   6.885   5.827   2.186  0.9385 -0.3514  0.3586
  517MOL0     C71218   6.982   5.705   2.170 -0.7520  0.9084  0.2021
  517MOL0     C71219   7.127   5.731   2.220  0.5574  0.3476 -0.2224
  517MOL0     C71220   7.231   5.611   2.196  0.1040 -0.3676  0.0706
  517MOL0     C71221   7.374   5.655   2.158 -0.0718 -0.1420 -0.1928
  517MOL0     C71222   7.463   5.542   2.127  0.2934 -0.3428 -0.3668
  517MOL0     C71223   7.589   5.585   2.052  0.2186  0.5204 -0.1971
  517MOL0     C71224   7.696   5.480   2.058  0.0563 -0.7212  0.4952
  517MOL0     N71225   7.740   5.437   1.922  0.6050 -0.9117  0.3448
  517MOL0     C71226   7.690   5.335   1.864  1.5379 -0.3088 -0.0125
  517MOL0     C71227   7.773   5.304   1.760 -0.3130  0.1937  0.0358
  517MOL0     C71228   7.771   5.185   1.670 -1.0465  0.0584 -0.3235
  517MOL0     C71229   7.913   5.170   1.616  0.2621  0.1110  0.2248
  517MOL0     C71230   7.908   5.059   1.513 -0.6259 -0.2881 -0.6664
  517MOL0     C71231   8.054   5.031   1.463 -0.0824  0.7892  0.4377
  517MOL0     O71232   8.041   4.920   1.376 -1.3936 -0.2304  0.4929
  517MOL0     C71233   8.165   4.868   1.321  0.4809  0.3546 -0.5712
  517MOL0     C71234   8.156   4.769   1.229  0.1294  0.1870 -0.2248
  517MOL0     C71235   8.258   4.738   1.140 -0.0810  0.6417 -0.9211
  517MOL0     C71236   8.222   4.634   1.038  0.6177  0.2970  0.5940
  517MOL0     C71237   8.389   4.778   1.175 -0.3541 -0.5901 -0.1034
  517MOL0     C71238   8.519   4.736   1.112 -0.3248  0.3496 -0.3303
  517MOL0     O71239   8.633   4.757   1.187  0.2243 -0.8449 -0.4248
  517MOL0     C71240   8.753   4.700   1.143 -0.0355  0.6364  0.5178
  517MOL0     C71241   8.859   4.778   1.087  0.1638  0.3538  0.3341
  517MOL0     C71242   8.982   4.715   1.063  0.3725  0.1323  0.5078
  517MOL0     C71243   8.995   4.571   1.065  0.0039 -0.1075 -0.0131
  517MOL0     O71244   9.113   4.512   1.025 -0.5732  0.1518 -1.1865
  517MOL0     C71245   9.219   4.583   0.961 -0.7851  0.5475 -1.3004
  517MOL0     C71246   9.320   4.484   0.898  0.0635 -0.5779  1.2509
  517MOL0     C71247   9.403   4.404   1.003  0.1146 -0.2156  0.0189
  517MOL0     C71248   9.457   4.283   0.925 -0.4299 -0.4106  0.1029
  517MOL0     C71249   9.534   4.183   1.033 -0.2237 -0.0138  0.2864
  517MOL0     C71250   9.590   4.044   0.983  1.5746  0.0533 -0.2687
  517MOL0     C71251   9.659   4.053   0.847 -1.0602 -0.1707  0.1694
  517MOL0     C71252   9.773   4.154   0.842 -0.3268  0.4489  0.1044
  517MOL0    Cl71253   9.928   4.082   0.898  0.0881  0.6092 -0.5979
  517MOL0     C71254   8.883   4.496   1.105  0.2358 -0.5733  0.3960
  517MOL0     C71255   8.771   4.564   1.151 -0.4696  0.5593  0.1714
  517MOL0     O71256   8.519   4.682   1.005 -0.0207  0.4187 -0.0424
  517MOL0     C71257   8.406   4.878   1.279  1.2701  0.1118  0.0470
  517MOL0     C71258   8.293   4.916   1.347 -0.3282 -0.1765  0.0059
  517MOL0     N71259   7.878   5.401   1.769  0.4911  0.0175  0.0231
  517MOL0     N71260   7.858   5.481   1.872  0.0381  0.5164 -0.0775
  517MOL0     C71261   6.828   6.106   2.432 -0.5860  0.0340 -0.4449
  517MOL0     C71262   6.755   6.224   2.455 -0.2014  0.6723  0.9297
  517MOL0     C71263   6.377   6.481   2.475  0.2003  0.6013 -1.0393
  517MOL0     C71264   6.397   6.546   2.598  1.0606  0.6413  0.5010
  517MOL0     C71265   6.334   6.669   2.623 -0.3774  0.1864  0.0939
  517MOL0     C71266   6.246   6.724   2.532 -0.3494 -0.2294  0.2457
  517MOL0     O71267   6.181   6.834   2.578  0.4183  0.1839  0.0081
  517MOL0     C71268   6.072   6.890   2.500  0.3579 -0.6647  0.6200
  517MOL0     C71269   6.026   7.006   2.587  0.4888 -0.7519  0.1899
  517MOL0     C71270   5.926   7.085   2.494  0.4875 -0.0866  0.1480
  517MOL0     C71271   5.863   7.213   2.571 -1.0218  0.4165 -0.5573
  517MOL0     C71272   5.966   7.311   2.614  0.0013  0.2847 -0.4251
  517MOL0     C71273   6.056   7.382   2.666 -0.7342  0.5756  0.1893
  517MOL0     C71274   6.228   6.666   2.412 -0.2842  0.8338 -0.1926
  517MOL0     C71275   6.296   6.545   2.370 -0.1808 -0.7865  0.4020
  517MOL0     C71276   6.256   6.480   2.240 -0.2120  0.3029 -0.4163
  517MOL0     H71277   6.507   6.162   2.226  1.7657 -0.0331 -3.3442
  517MOL0     H71278   6.658   5.972   2.176 -2.4450  2.3430 -0.3924
  517MOL0     H71279   6.914   5.894   2.105 -2.7332 -1.7118 -2.3710
  517MOL0     H71280   6.784   5.798   2.157  0.8201 -0.3007  0.7177
  517MOL0     H71281   6.952   5.614   2.223 -0.4960 -0.6884 -2.2522
  517MOL0     H71282   6.981   5.674   2.066  0.6927 -0.6968  0.6173
  517MOL0     H71283   7.164   5.824   2.176 -0.9357 -0.7188 -4.0870
  517MOL0     H71284   7.132   5.755   2.327  1.8965  2.2820 -0.6676
  517MOL0     H71285   7.242   5.554   2.289  1.8663 -0.0906  0.0592
  517MOL0     H71286   7.197   5.547   2.115  2.6856  0.2746 -1.6228
  517MOL0     H71287   7.420   5.725   2.228 -0.3357  0.2511 -0.4076
  517MOL0     H71288   7.364   5.714   2.066 -1.4676  2.2990  1.4341
  517MOL0     H71289   7.484   5.487   2.219  1.0769  0.6576  0.0740
  517MOL0     H71290   7.416   5.479   2.050 -1.1237  1.5121 -1.0879
  517MOL0     H71291   7.636   5.672   2.101  2.1914 -0.3370 -0.4994
  517MOL0     H71292   7.558   5.619   1.953  0.1039  0.3354 -0.2246
  517MOL0     H71293   7.782   5.522   2.112  1.7656 -0.7607 -2.0209
  517MOL0     H71294   7.671   5.389   2.113 -2.8765  0.9915  2.2984
  517MOL0     H71295   7.610   5.267   1.892 -1.3618  2.6122 -0.6958
  517MOL0     H71296   7.689   5.200   1.599 -1.4568  1.6927  0.4372
  517MOL0     H71297   7.740   5.099   1.729 -0.9227  0.5483  0.4723
  517MOL0     H71298   7.947   5.257   1.560 -0.9003  0.7629  0.4978
  517MOL0     H71299   7.981   5.149   1.699 -1.4086  1.7783  2.1263
  517MOL0     H71300   7.871   4.966   1.555 -0.6324 -0.3055 -0.7115
  517MOL0     H71301   7.843   5.086   1.429 -0.7715 -2.6241 -1.3754
  517MOL0     H71302   8.082   5.114   1.397  1.2452 -0.0614 -0.1168
  517MOL0     H71303   8.123   5.017   1.546  0.1776  1.6874  0.3903
  517MOL0     H71304   8.058   4.723   1.222  0.5238 -0.6792 -0.1707
  517MOL0     H71305   8.245   4.653   0.932 -3.5061  0.8165 -0.3949
  517MOL0     H71306   8.114   4.614   1.038  0.2343  2.0735 -0.5123
  517MOL0     H71307   8.251   4.535   1.073 -0.1911 -0.1236  0.1171
  517MOL0     H71308   8.848   4.886   1.075  0.4088  0.8491  3.6053
  517MOL0     H71309   9.070   4.776   1.047  0.9198  0.2308  3.3992
  517MOL0     H71310   9.178   4.644   0.881 -0.1535  0.0339 -2.0259
  517MOL0     H71311   9.270   4.660   1.019  0.8237  0.5584 -2.6864
  517MOL0     H71312   9.270   4.411   0.833 -1.7854  1.0877  0.7236
  517MOL0     H71313   9.392   4.540   0.838  0.1140 -2.5289 -0.6601
  517MOL0     H71314   9.345   4.370   1.089 -2.6176  1.5203 -1.0376
  517MOL0     H71315   9.481   4.473   1.036  0.2270 -0.4449  0.2357
  517MOL0     H71316   9.518   4.312   0.839 -0.5578  2.3744  0.8647
  517MOL0     H71317   9.378   4.219   0.885 -1.4513  1.5972 -1.2574
  517MOL0     H71318   9.619   4.236   1.077 -1.0014  1.3008  0.2692
  517MOL0     H71319   9.470   4.164   1.119  0.7996 -1.1012  0.8290
  517MOL0     H71320   9.502   3.980   0.969 -0.4410  1.7341  3.2795
  517MOL0     H71321   9.655   3.998   1.058  0.9050  0.2581  0.4528
  517MOL0     H71322   9.582   4.086   0.777  0.3156  1.8082 -0.5029
  517MOL0     H71323   9.696   3.958   0.809 -2.4666  0.0990 -2.0327
  517MOL0     H71324   9.746   4.240   0.904 -2.5184 -0.2516  0.1870
  517MOL0     H71325   9.786   4.193   0.740 -1.9847  4.1266  1.1460
  517MOL0     H71326   8.869   4.390   1.090  2.1702 -0.6344 -1.5356
  517MOL0     H71327   8.682   4.512   1.185 -0.7112  0.2271 -0.9264
  517MOL0     H71328   8.497   4.915   1.325  1.8128 -1.6799  0.5095
  517MOL0     H71329   8.308   4.990   1.424 -1.9633 -1.1228  1.3025
  517MOL0     H71330   6.898   6.073   2.508  1.4029  1.0299 -1.7745
  517MOL0     H71331   6.783   6.296   2.531  0.6257  0.7675  0.5457
  517MOL0     H71332   6.459   6.496   2.672  5.1028  4.3240 -0.0068
  517MOL0     H71333   6.346   6.714   2.721 -1.6948  2.3975 -0.6862
  517MOL0     H71334   6.120   6.928   2.409  2.8258  3.1782  3.2116
  517MOL0     H71335   5.989   6.821   2.480  0.6815 -1.6629  2.4821
  517MOL0     H71336   6.110   7.067   2.623  0.1354 -1.4297  2.3025
  517MOL0     H71337   5.973   6.966   2.674 -1.4940 -1.0746 -1.0992
  517MOL0     H71338   5.981   7.128   2.409 -3.0890  1.9529 -1.3648
  517MOL0     H71339   5.857   7.011   2.452  2.5064 -1.9194 -0.1274
  517MOL0     H71340   5.816   7.180   2.664 -1.2365  0.8856 -0.4963
  517MOL0     H71341   5.783   7.258   2.512 -1.6965  0.2284  0.2022
  517MOL0     H71342   6.131   7.449   2.701  1.8798 -1.7628 -0.6088
  517MOL0     H71343   6.154   6.695   2.337 -1.9311 -0.2310  0.9542
  517MOL0     H71344   6.189   6.395   2.260  2.2999 -2.2571 -2.1771
  517MOL0     H71345   6.200   6.541   2.168 -1.0989 -1.0685 -0.9289
  517MOL0     H71346   6.345   6.449   2.186 -0.6021 -1.1036 -0.2993
  518MOL0     O71347   2.516   7.068  11.022  0.0951 -0.7431 -0.9612
  518MOL0     C71348   2.550   6.951  11.034 -0.0550 -0.2367 -0.0155
  518MOL0     O71349   2.479   6.853  11.096 -0.5336 -0.6641  0.0762
  518MOL0     C71350   2.362   6.892  11.169 -0.1551  0.2867  0.8742
  518MOL0     C71351   2.235   6.889  11.103 -0.0517  1.0443  0.4280
  518MOL0     C71352   2.121   6.919  11.176 -0.0708  0.4920  0.6620
  518MOL0     C71353   2.125   6.929  11.316  0.1843  0.4957 -0.9830
  518MOL0     O71354   1.997   6.945  11.379 -0.6176 -0.1249 -0.4153
  518MOL0     C71355   1.987   6.987  11.516  0.4013 -0.2105  1.1552
  518MOL0     C71356   1.844   7.005  11.565  0.1491 -0.1238  0.7841
  518MOL0     C71357   1.828   7.001  11.714  0.4793 -0.1239  0.9356
  518MOL0     C71358   1.674   6.984  11.759  0.0285 -1.1726  0.5422
  518MOL0     C71359   1.675   6.935  11.908  0.0855 -0.8290  0.1353
  518MOL0     C71360   1.540   6.957  11.971  0.5289  0.4536  0.3720
  518MOL0     C71361   1.540   6.885  12.113 -1.1893 -0.0806  0.3571
  518MOL0     C71362   1.429   6.959  12.200  0.6275 -0.3878 -0.9594
  518MOL0     N71363   1.297   6.895  12.211  0.7316  0.0225  0.0332
  518MOL0     C71364   1.200   6.879  12.107  0.0375  0.0582 -0.1152
  518MOL0     C71365   1.105   6.805  12.175  0.3218 -0.2325 -0.1502
  518MOL0     C71366   0.974   6.745  12.119 -0.8371 -0.0390 -0.0361
  518MOL0     C71367   0.855   6.836  12.100 -0.3543 -0.6419  0.1520
  518MOL0     C71368   0.740   6.742  12.103  0.6738 -0.1496  0.4070
  518MOL0     C71369   0.613   6.799  12.039  0.7020  0.6368  1.4926
  518MOL0     O71370   0.503   6.718  12.093  0.5464  0.5611  0.0486
  518MOL0     C71371   0.379   6.742  12.044 -1.1425  1.0385 -0.1983
  518MOL0     C71372   0.281   6.646  12.082  0.4936  0.5353 -0.2650
  518MOL0     C71373   0.149   6.652  12.025 -0.1355 -0.7433  0.5807
  518MOL0     C71374   0.056   6.542  12.069 -0.2524 -0.7577  0.7450
  518MOL0     C71375   0.120   6.749  11.930  0.4631 -0.2296 -0.0454
  518MOL0     C71376  -0.015   6.754  11.872  0.3027  0.5693  0.3392
  518MOL0     O71377  -0.075   6.642  11.839 -0.4540 -0.2986  0.9725
  518MOL0     C71378  -0.153   6.623  11.731  0.0289  0.6861  0.1854
  518MOL0     C71379  -0.141   6.692  11.613  0.0972  0.9075 -0.1227
  518MOL0     C71380  -0.243   6.658  11.516  0.8894  0.4644  0.1678
  518MOL0     C71381  -0.329   6.552  11.531 -0.3551  0.0624 -0.1899
  518MOL0     O71382  -0.414   6.525  11.438 -0.4145  0.4277  0.3082
  518MOL0     C71383  -0.525   6.439  11.452  0.5650 -0.2190 -0.3431
  518MOL0     C71384  -0.621   6.449  11.336  0.3706  0.3484 -0.2926
  518MOL0     C71385  -0.754   6.370  11.351 -0.5548  1.4020 -0.2504
  518MOL0     C71386  -0.868   6.431  11.427 -0.2947 -0.2050 -0.6512
  518MOL0     C71387  -1.005   6.373  11.396 -0.4256  0.2988  0.5573
  518MOL0     C71388  -1.129   6.460  11.453 -0.6210  0.8194  0.3174
  518MOL0     C71389  -1.253   6.367  11.493 -0.7993  0.3238 -1.1476
  518MOL0     C71390  -1.352   6.328  11.383 -0.0120 -0.4536 -0.9093
  518MOL0    Cl71391  -1.260   6.251  11.243 -0.0103  0.0951  0.1873
  518MOL0     C71392  -0.337   6.475  11.653 -0.1317  0.8001  0.4261
  518MOL0     C71393  -0.248   6.512  11.745  0.2446 -0.3526  0.3754
  518MOL0     O71394  -0.052   6.867  11.833 -1.0966 -0.2884 -0.1422
  518MOL0     C71395   0.215   6.851  11.896  0.5230 -0.2254 -0.7234
  518MOL0     C71396   0.340   6.844  11.946 -0.9437 -0.2535  0.0495
  518MOL0     N71397   1.131   6.784  12.309  0.4439  0.8267  0.4726
  518MOL0     N71398   1.241   6.838  12.321 -1.0964 -0.4792 -0.9117
  518MOL0     C71399   2.257   6.944  11.378  0.2061 -0.3847  0.3281
  518MOL0     C71400   2.373   6.918  11.305 -0.0068 -0.1677 -0.2993
  518MOL0     C71401   2.683   6.923  10.993  0.3585  0.7893  0.2337
  518MOL0     C71402   2.706   6.903  10.856 -0.0066 -0.0147 -0.0499
  518MOL0     C71403   2.830   6.862  10.810 -0.0048  0.0958 -0.2560
  518MOL0     C71404   2.928   6.825  10.902  0.0939  0.3573 -0.8302
  518MOL0     O71405   3.044   6.767  10.862 -0.9260  0.1976 -0.3438
  518MOL0     C71406   3.075   6.761  10.720  0.1817 -1.0237  0.8290
  518MOL0     C71407   3.221   6.706  10.716 -0.2326 -0.4188  0.1404
  518MOL0     C71408   3.271   6.678  10.580 -0.4882 -0.4653  0.0536
  518MOL0     C71409   3.408   6.605  10.564  0.7469  0.2769  0.2973
  518MOL0     C71410   3.424   6.480  10.642 -0.6362  0.2772 -0.4217
  518MOL0     C71411   3.432   6.382  10.713 -0.0076 -0.9069  0.8034
  518MOL0     C71412   2.910   6.870  11.030 -0.2001 -0.2014  0.4224
  518MOL0     C71413   2.789   6.919  11.080 -0.3647  0.3815 -0.3739
  518MOL0     C71414   2.789   6.991  11.212 -0.1314  0.3759 -0.0493
  518MOL0     H71415   2.234   6.869  10.996  3.6960  3.5785 -0.2676
  518MOL0     H71416   2.018   6.930  11.144  0.4617  2.5984 -0.5653
  518MOL0     H71417   2.047   7.076  11.533 -0.6994  0.3281  2.4376
  518MOL0     H71418   2.030   6.903  11.571  1.1501 -1.4961 -1.2728
  518MOL0     H71419   1.798   7.094  11.522 -0.0731  0.4360  2.1231
  518MOL0     H71420   1.789   6.922  11.521  1.0617  0.3093 -1.2734
  518MOL0     H71421   1.901   6.925  11.743  0.5688 -0.2935  0.2840
  518MOL0     H71422   1.856   7.097  11.758  0.7851  0.3268 -0.2057
  518MOL0     H71423   1.618   7.076  11.737 -0.9145 -2.1526 -1.3514
  518MOL0     H71424   1.615   6.914  11.699 -1.8189  2.6298 -2.5369
  518MOL0     H71425   1.749   6.988  11.970 -1.1903  2.1716 -0.7381
  518MOL0     H71426   1.698   6.829  11.922  2.6843 -0.3647 -0.1062
  518MOL0     H71427   1.526   7.065  11.980  1.2789  0.4240  2.4397
  518MOL0     H71428   1.464   6.914  11.905  1.7479  1.4520 -1.8287
  518MOL0     H71429   1.635   6.915  12.158 -0.2099  0.7319 -2.0774
  518MOL0     H71430   1.529   6.777  12.112 -0.2483 -0.2059 -1.9868
  518MOL0     H71431   1.457   6.968  12.305 -4.1207 -2.1122  0.7154
  518MOL0     H71432   1.395   7.056  12.162 -2.9829 -1.8038 -1.8329
  518MOL0     H71433   1.203   6.911  12.004  0.9202 -2.6017 -0.9925
  518MOL0     H71434   0.933   6.678  12.195  0.9907  2.3900  3.4122
  518MOL0     H71435   1.018   6.697  12.032  3.4102  1.2502  1.1431
  518MOL0     H71436   0.850   6.915  12.175 -1.8665  1.3183 -1.9067
  518MOL0     H71437   0.872   6.888  12.005 -4.0003  1.6217  0.5499
  518MOL0     H71438   0.769   6.649  12.054 -0.5335 -0.0176 -0.6068
  518MOL0     H71439   0.723   6.728  12.210 -2.3743 -0.6468 -0.0611
  518MOL0     H71440   0.599   6.907  12.051  3.2955  1.1215  0.7363
  518MOL0     H71441   0.623   6.792  11.930  0.7914  1.6416  1.4193
  518MOL0     H71442   0.319   6.566  12.145  0.1034  0.1925 -0.4583
  518MOL0     H71443  -0.044   6.584  12.079  0.1324  0.4629 -0.3618
  518MOL0     H71444   0.074   6.490  12.164 -0.6768  0.1305  1.3178
  518MOL0     H71445   0.047   6.463  11.994 -2.0857 -0.6170  0.7844
  518MOL0     H71446  -0.066   6.770  11.624  1.8538 -0.7822  0.4400
  518MOL0     H71447  -0.232   6.710  11.421  0.1750 -0.1090 -0.2354
  518MOL0     H71448  -0.490   6.335  11.442 -0.4030 -0.7712  1.4790
  518MOL0     H71449  -0.581   6.457  11.544 -2.7539  1.5607 -2.5399
  518MOL0     H71450  -0.642   6.556  11.339  1.9618  0.6734  0.8158
  518MOL0     H71451  -0.572   6.418  11.243  2.8298  4.0187 -0.4507
  518MOL0     H71452  -0.728   6.274  11.397 -0.0755  1.8236  0.3717
  518MOL0     H71453  -0.777   6.346  11.247  3.7487  0.5247 -1.2255
  518MOL0     H71454  -0.866   6.539  11.410  2.2430 -0.3805 -1.8484
  518MOL0     H71455  -0.866   6.409  11.534 -2.5594 -0.6996 -0.6473
  518MOL0     H71456  -1.018   6.367  11.288  0.7425  1.6073  0.3148
  518MOL0     H71457  -1.005   6.273  11.441  0.8594  0.4500  0.9215
  518MOL0     H71458  -1.169   6.538  11.387 -1.8810  1.0974  1.3693
  518MOL0     H71459  -1.089   6.498  11.547  1.2480 -3.0887  1.3160
  518MOL0     H71460  -1.295   6.428  11.573  2.1228 -1.1826  1.8038
  518MOL0     H71461  -1.221   6.270  11.531 -2.5635  0.0596 -0.2710
  518MOL0     H71462  -1.409   6.411  11.343  1.0220 -1.4852 -4.9630
  518MOL0     H71463  -1.423   6.254  11.424 -1.4073  0.3472 -1.8184
  518MOL0     H71464  -0.402   6.391  11.670  1.8113 -0.4651  2.0412
  518MOL0     H71465  -0.238   6.446  11.831  2.7084 -1.0327 -0.3605
  518MOL0     H71466   0.196   6.933  11.828 -0.3717  0.6837  0.5723
  518MOL0     H71467   0.412   6.910  11.900  0.0791 -1.4160 -0.0639
  518MOL0     H71468   2.255   6.949  11.487  1.0097 -0.0450  0.3309
  518MOL0     H71469   2.466   6.940  11.356 -2.1178  1.2975  3.2922
  518MOL0     H71470   2.635   6.907  10.774 -2.2524  0.1360  1.7805
  518MOL0     H71471   2.834   6.830  10.706  1.2305 -0.9008  0.0689
  518MOL0     H71472   3.006   6.693  10.670  1.1429 -0.8764 -0.7645
  518MOL0     H71473   3.073   6.861  10.678  1.3801 -1.7671 -1.1441
  518MOL0     H71474   3.222   6.615  10.777 -1.4590 -0.4950  0.0884
  518MOL0     H71475   3.288   6.774  10.770  0.3666 -0.4602 -0.5495
  518MOL0     H71476   3.196   6.620  10.526 -0.5416 -0.5256  0.1917
  518MOL0     H71477   3.279   6.769  10.520  3.2322 -0.9011 -0.3155
  518MOL0     H71478   3.487   6.671  10.600  1.3672 -0.0483 -0.4520
  518MOL0     H71479   3.419   6.588  10.456 -0.6054  2.3130 -0.2281
  518MOL0     H71480   3.416   6.290  10.766 -2.8349 -2.5736 -2.4667
  518MOL0     H71481   3.004   6.862  11.085  1.0082 -2.8563 -1.8080
  518MOL0     H71482   2.889   7.008  11.253  0.0226  0.4761 -0.4640
  518MOL0     H71483   2.752   7.093  11.205  0.2995  0.9526  3.8660
  518MOL0     H71484   2.724   6.932  11.278 -0.1016 -0.0135 -0.3603
  519MOL0     O71485   9.722   9.479   5.124  0.4764  0.5291  0.7041
  519MOL0     C71486   9.622   9.484   5.203 -0.2047  0.0930 -1.4357
  519MOL0     O71487   9.505   9.535   5.174  0.3078 -0.2700  0.4862
  519MOL0     C71488   9.494   9.631   5.069 -0.8811 -0.4057  0.1479
  519MOL0     C71489   9.410   9.622   4.957 -0.1083  0.4497  0.0824
  519MOL0     C71490   9.407   9.721   4.862  0.1257 -0.7717  0.9335
  519MOL0     C71491   9.496   9.831   4.861  0.8895  0.0237  0.3948
  519MOL0     O71492   9.495   9.913   4.744 -0.1895  0.2649  0.1142
  519MOL0     C71493   9.522  10.054   4.762  0.4297 -0.8955  0.1647
  519MOL0     C71494   9.654  10.093   4.682 -0.0551 -0.0130  0.1556
  519MOL0     C71495   9.623  10.080   4.531  0.2202 -0.0996  1.2138
  519MOL0     C71496   9.698  10.191   4.453  0.3526  0.0923 -0.0428
  519MOL0     C71497   9.691  10.179   4.304 -0.1028 -0.0215  0.8380
  519MOL0     C71498   9.555  10.211   4.239 -0.1516 -0.2226  0.4831
  519MOL0     C71499   9.536  10.360   4.214  0.0694 -1.1271  0.3161
  519MOL0     C71500   9.393  10.393   4.178  0.4461  0.5313  0.3123
  519MOL0     N71501   9.308  10.402   4.301  0.2922 -0.1062 -0.8990
  519MOL0     C71502   9.173  10.359   4.325 -0.1140  0.1660 -0.3352
  519MOL0     C71503   9.112  10.433   4.425 -0.8668  0.1114  0.2866
  519MOL0     C71504   8.962  10.421   4.457 -1.0143 -0.0425  0.4734
  519MOL0     C71505   8.946  10.487   4.590 -0.1103 -0.8217 -0.8704
  519MOL0     C71506   8.802  10.518   4.622 -0.1158  0.1847  0.8077
  519MOL0     C71507   8.790  10.557   4.765 -0.1002  0.5301 -0.4902
  519MOL0     O71508   8.750  10.437   4.840  0.3373  0.2516 -0.2957
  519MOL0     C71509   8.727  10.435   4.975 -0.5043  0.0090  0.1155
  519MOL0     C71510   8.764  10.543   5.054 -0.1454 -0.4422  0.4516
  519MOL0     C71511   8.736  10.548   5.190  0.0891  0.8904  1.4254
  519MOL0     C71512   8.786  10.677   5.261 -0.0133  0.6672 -0.2968
  519MOL0     C71513   8.663  10.446   5.249 -1.0943  0.6894  1.3319
  519MOL0     C71514   8.608  10.455   5.386 -1.4425 -0.1063  0.4042
  519MOL0     O71515   8.483  10.402   5.409 -0.1163 -0.3947  1.2773
  519MOL0     C71516   8.427  10.390   5.531  0.2350 -0.8823 -0.3597
  519MOL0     C71517   8.402  10.276   5.595 -0.4134  1.1891  0.8932
  519MOL0     C71518   8.309  10.267   5.704 -0.6390  0.4847 -0.0880
  519MOL0     C71519   8.250  10.392   5.754 -0.0388 -0.0409 -0.2265
  519MOL0     O71520   8.162  10.404   5.867 -0.1537  0.5086  0.1673
  519MOL0     C71521   8.052  10.304   5.874  0.2129 -0.5170 -0.5041
  519MOL0     C71522   7.962  10.321   5.996 -0.1990 -0.1191 -0.5715
  519MOL0     C71523   8.031  10.348   6.129  0.4924 -0.1041  0.2591
  519MOL0     C71524   7.920  10.351   6.240 -0.1093 -0.1341 -0.1002
  519MOL0     C71525   7.995  10.363   6.376  0.2182  0.6710  0.2121
  519MOL0     C71526   7.912  10.326   6.503 -0.1284  0.4479 -0.4195
  519MOL0     C71527   7.764  10.360   6.499  0.5248  0.5934 -0.1490
  519MOL0     C71528   7.704  10.421   6.633  0.5116  0.5169  0.5601
  519MOL0    Cl71529   7.726  10.597   6.657 -0.0255 -0.1235 -0.0682
  519MOL0     C71530   8.296  10.509   5.694  0.8928  0.1798  0.0848
  519MOL0     C71531   8.388  10.512   5.587 -0.8122  0.1793 -0.1151
  519MOL0     O71532   8.687  10.498   5.471  0.4516 -0.8180  0.1565
  519MOL0     C71533   8.630  10.331   5.173  0.0606 -0.1228 -0.7525
  519MOL0     C71534   8.672  10.323   5.040 -0.3351  0.0666 -0.4855
  519MOL0     N71535   9.223  10.493   4.480  0.0672  0.6806  0.6119
  519MOL0     N71536   9.331  10.482   4.405  0.4108  0.5886 -1.2814
  519MOL0     C71537   9.583   9.843   4.966 -0.2220 -0.1128  0.5515
  519MOL0     C71538   9.572   9.750   5.076 -0.6954  0.2001  0.9807
  519MOL0     C71539   9.621   9.415   5.338 -0.6411  0.4649  0.4803
  519MOL0     C71540   9.514   9.427   5.436 -0.4209  0.1358 -0.0236
  519MOL0     C71541   9.503   9.347   5.550  0.3327  0.3703  1.0631
  519MOL0     C71542   9.604   9.258   5.576  0.1820  0.7453  0.4831
  519MOL0     O71543   9.575   9.183   5.679 -0.0205  0.9034 -0.1821
  519MOL0     C71544   9.674   9.213   5.773 -0.3915 -0.3214 -0.2660
  519MOL0     C71545   9.644   9.130   5.899 -0.3735  0.3192 -0.1342
  519MOL0     C71546   9.778   9.122   5.984 -0.5587 -0.0691  0.2285
  519MOL0     C71547   9.881   9.013   5.937 -0.2528 -0.5375  0.7316
  519MOL0     C71548  10.007   9.013   6.011  0.1035  0.8693  0.7709
  519MOL0     C71549  10.119   9.004   6.062 -0.2619 -0.1687 -0.2221
  519MOL0     C71550   9.707   9.237   5.486  0.2575 -0.3593  0.4566
  519MOL0     C71551   9.721   9.317   5.371  0.0523  0.2365  0.8336
  519MOL0     C71552   9.848   9.299   5.280 -0.4866  0.5998 -0.8173
  519MOL0     H71553   9.344   9.537   4.943  1.3353 -0.4387 -1.8598
  519MOL0     H71554   9.333   9.718   4.782 -0.8795  3.8480  1.4544
  519MOL0     H71555   9.542  10.080   4.866 -1.5944 -2.4695  1.0204
  519MOL0     H71556   9.434  10.117   4.743  1.1904  0.4811  1.0736
  519MOL0     H71557   9.678  10.198   4.699 -0.1866  0.0871 -0.2558
  519MOL0     H71558   9.735  10.026   4.713 -0.2169  0.4138  1.5404
  519MOL0     H71559   9.659   9.990   4.479 -0.8394  0.2811 -0.2381
  519MOL0     H71560   9.516  10.080   4.507  0.8870 -0.8418 -2.3710
  519MOL0     H71561   9.674  10.291   4.489 -3.4072  0.8308 -3.8435
  519MOL0     H71562   9.802  10.168   4.478 -0.1728 -2.2983  0.2767
  519MOL0     H71563   9.713  10.078   4.268 -3.6980 -0.4591 -0.5970
  519MOL0     H71564   9.761  10.250   4.259 -1.9853  2.8966  2.1870
  519MOL0     H71565   9.545  10.161   4.142 -1.4117 -0.1583  0.5542
  519MOL0     H71566   9.471  10.169   4.296 -2.0748  2.1863 -0.3723
  519MOL0     H71567   9.597  10.381   4.126 -2.2528  0.1678 -1.0482
  519MOL0     H71568   9.567  10.426   4.296 -3.7998 -1.1154  1.9853
  519MOL0     H71569   9.384  10.499   4.151  0.4233  0.4983  0.1903
  519MOL0     H71570   9.346  10.320   4.112  1.5365 -0.4949  0.6461
  519MOL0     H71571   9.119  10.285   4.267  1.3167 -1.1432 -0.0464
  519MOL0     H71572   8.926  10.319   4.470 -1.0497  0.1573  2.2739
  519MOL0     H71573   8.905  10.469   4.378 -0.3910 -0.8616 -0.4931
  519MOL0     H71574   8.978  10.418   4.668 -2.6814 -0.9639  0.1260
  519MOL0     H71575   9.005  10.578   4.602 -2.0826  0.1803  2.1676
  519MOL0     H71576   8.755  10.600   4.568  1.8556  0.4350 -0.6599
  519MOL0     H71577   8.739  10.432   4.596  3.7717 -2.0717 -2.3094
  519MOL0     H71578   8.883  10.600   4.803  0.3343 -0.5794 -0.2600
  519MOL0     H71579   8.706  10.625   4.781  0.6619  1.1108  1.3697
  519MOL0     H71580   8.823  10.625   5.017 -0.0767  0.1381  1.7914
  519MOL0     H71581   8.710  10.706   5.334 -0.2326  3.2072 -1.4108
  519MOL0     H71582   8.788  10.758   5.186 -1.7762  0.4268 -0.6491
  519MOL0     H71583   8.888  10.679   5.299  0.5684  1.8894 -1.7965
  519MOL0     H71584   8.457  10.197   5.545 -1.1465  0.9742  0.4233
  519MOL0     H71585   8.286  10.165   5.733  1.5830 -0.6330 -1.9251
  519MOL0     H71586   7.991  10.308   5.783  0.0531  3.7323 -0.4306
  519MOL0     H71587   8.094  10.203   5.880 -0.7561 -0.9222 -0.2314
  519MOL0     H71588   7.902  10.409   5.973  0.3767  0.5247  0.3095
  519MOL0     H71589   7.894  10.236   6.005  0.4923 -0.5887  0.5059
  519MOL0     H71590   8.084  10.443   6.121  0.2590 -0.0794 -1.3384
  519MOL0     H71591   8.111  10.275   6.144  2.4113  0.9428 -3.5148
  519MOL0     H71592   7.868  10.255   6.236  1.8275 -1.2246 -0.7884
  519MOL0     H71593   7.851  10.435   6.228  0.9052  1.6480  4.3597
  519MOL0     H71594   8.091  10.310   6.375 -0.1738 -0.0641 -1.6052
  519MOL0     H71595   8.015  10.470   6.386 -2.1865  0.9954  2.9150
  519MOL0     H71596   7.959  10.371   6.591 -0.6073 -2.1439  1.2683
  519MOL0     H71597   7.922  10.218   6.520  1.3497  0.2924 -2.0640
  519MOL0     H71598   7.700  10.276   6.469 -0.2481  0.4422  1.7663
  519MOL0     H71599   7.760  10.448   6.435 -0.4589  1.4550  1.0375
  519MOL0     H71600   7.746  10.353   6.708 -4.8444 -1.3079  2.3695
  519MOL0     H71601   7.598  10.397   6.635  0.3658  1.0117 -0.7553
  519MOL0     H71602   8.237  10.588   5.740  0.7427 -0.7756  1.5742
  519MOL0     H71603   8.408  10.605   5.535 -1.8537 -0.0952 -1.0678
  519MOL0     H71604   8.558  10.262   5.214 -1.4154  0.4136 -2.3121
  519MOL0     H71605   8.647  10.231   4.988  2.0117  0.0480 -1.6727
  519MOL0     H71606   9.661   9.917   4.982 -0.5558  0.5426 -0.7379
  519MOL0     H71607   9.641   9.762   5.158  0.2481 -0.7580  0.3454
  519MOL0     H71608   9.439   9.504   5.425 -2.6239 -1.7368  0.9603
  519MOL0     H71609   9.425   9.364   5.624  0.7164  3.3831  0.9220
  519MOL0     H71610   9.772   9.179   5.738  0.0749  0.4605  0.2539
  519MOL0     H71611   9.671   9.320   5.794  1.1245 -0.6621  2.1129
  519MOL0     H71612   9.618   9.026   5.880  2.1337 -0.4351  0.1820
  519MOL0     H71613   9.567   9.181   5.958 -0.9837 -1.4076  0.6382
  519MOL0     H71614   9.835   9.216   5.986  0.6169 -0.7671  1.3744
  519MOL0     H71615   9.749   9.087   6.083 -2.3857 -2.2429 -0.9926
  519MOL0     H71616   9.898   9.040   5.832  0.0919 -0.5404  0.7858
  519MOL0     H71617   9.828   8.917   5.945 -2.9181  0.5405 -2.0106
  519MOL0     H71618  10.210   9.021   6.116  1.5453 -6.4795 -0.5381
  519MOL0     H71619   9.784   9.160   5.490 -0.6293 -1.3389 -0.3623
  519MOL0     H71620   9.803   9.247   5.195 -3.8838 -0.7683  1.6100
  519MOL0     H71621   9.905   9.388   5.251  0.6075 -0.3594 -1.7487
  519MOL0     H71622   9.917   9.229   5.330 -0.8861  0.8194  0.0544
  520MOL0     O71623   2.452  10.178   6.443  0.2206  1.0744 -0.0777
  520MOL0     C71624   2.368  10.271   6.434 -0.5214  0.8877 -0.2596
  520MOL0     O71625   2.370  10.393   6.502 -0.5041  0.0921  0.6494
  520MOL0     C71626   2.490  10.433   6.562 -0.6769  0.8112 -0.6449
  520MOL0     C71627   2.494  10.466   6.701 -0.5867  0.1410  0.6300
  520MOL0     C71628   2.615  10.521   6.759  0.1985 -0.1728 -0.5460
  520MOL0     C71629   2.734  10.542   6.687  0.7450 -0.6176 -0.7551
  520MOL0     O71630   2.851  10.597   6.741 -0.2384 -0.4109  0.0934
  520MOL0     C71631   2.909  10.534   6.855 -0.5336 -0.0582  0.3645
  520MOL0     C71632   2.990  10.411   6.804 -0.3657 -0.8930  0.5983
  520MOL0     C71633   3.054  10.313   6.911  0.2385 -0.2815 -0.2471
  520MOL0     C71634   3.126  10.188   6.857 -0.1581 -0.5167 -0.2901
  520MOL0     C71635   3.232  10.131   6.962 -0.0972  0.0684  1.0630
  520MOL0     C71636   3.273   9.996   6.929 -0.6214 -0.4736 -0.0948
  520MOL0     C71637   3.356   9.923   7.047 -0.2050 -0.4012  0.6370
  520MOL0     C71638   3.416   9.787   7.004 -0.1745 -0.7463  0.8374
  520MOL0     N71639   3.471   9.715   7.112  0.4471  0.6294 -0.4590
  520MOL0     C71640   3.400   9.676   7.221 -0.5416 -0.3910 -0.5121
  520MOL0     C71641   3.498   9.619   7.297 -0.1965 -0.9644 -0.1200
  520MOL0     C71642   3.467   9.553   7.429  0.1470  0.6558  1.4802
  520MOL0     C71643   3.398   9.419   7.415  0.4870  0.8691 -0.0421
  520MOL0     C71644   3.409   9.343   7.543 -0.8073  0.1509  0.2447
  520MOL0     C71645   3.301   9.235   7.555 -0.2144  0.4489  0.3590
  520MOL0     O71646   3.317   9.185   7.691 -0.5401  0.0650 -0.0540
  520MOL0     C71647   3.250   9.065   7.708 -0.0999  0.2475 -0.1111
  520MOL0     C71648   3.280   9.010   7.830 -0.7172  0.2492  0.4505
  520MOL0     C71649   3.225   8.885   7.867  0.5456  0.0514 -0.4737
  520MOL0     C71650   3.278   8.827   7.995  0.3297  0.3436 -0.4297
  520MOL0     C71651   3.132   8.825   7.777  0.1587 -0.2554  0.4655
  520MOL0     C71652   3.056   8.697   7.804  0.4760 -0.3755  0.9385
  520MOL0     O71653   2.996   8.641   7.694  0.9327 -0.0101 -0.2768
  520MOL0     C71654   2.927   8.522   7.711 -1.0739  0.0631  0.5475
  520MOL0     C71655   2.799   8.508   7.656 -0.5224 -0.3043 -0.9880
  520MOL0     C71656   2.719   8.394   7.668 -0.1838  0.2531  0.6686
  520MOL0     C71657   2.772   8.274   7.721 -0.1600 -0.1015 -0.1157
  520MOL0     O71658   2.705   8.160   7.755 -0.2060  0.3871  0.2127
  520MOL0     C71659   2.567   8.168   7.752  0.2585 -0.4780 -0.0298
  520MOL0     C71660   2.491   8.038   7.785 -0.1387  0.2609  0.2011
  520MOL0     C71661   2.575   7.914   7.843 -1.4908 -1.8029 -0.4558
  520MOL0     C71662   2.635   7.964   7.980 -0.5656  0.2690 -0.1131
  520MOL0     C71663   2.708   7.845   8.048  0.5813  0.0256  0.2662
  520MOL0     C71664   2.795   7.759   7.946  1.2831  0.0900 -1.5058
  520MOL0     C71665   2.905   7.850   7.887 -1.0073  0.6506 -0.3272
  520MOL0     C71666   2.980   7.773   7.773 -0.6779 -0.2163  0.1610
  520MOL0    Cl71667   2.870   7.718   7.649 -0.0590  0.5086 -0.4314
  520MOL0     C71668   2.899   8.285   7.789 -0.3381 -0.4137  0.1042
  520MOL0     C71669   2.976   8.405   7.772 -0.0835  0.1549 -0.0941
  520MOL0     O71670   3.055   8.646   7.913 -0.5600  0.8084 -0.0853
  520MOL0     C71671   3.091   8.897   7.656 -0.0227  0.5150  0.5766
  520MOL0     C71672   3.153   9.015   7.618 -0.1956 -0.3125  0.2862
  520MOL0     N71673   3.622   9.622   7.235  0.3420 -0.1953  0.2465
  520MOL0     N71674   3.598   9.677   7.120  1.3592  0.4797  0.7895
  520MOL0     C71675   2.725  10.500   6.549  0.2521 -0.5278  0.1728
  520MOL0     C71676   2.609  10.454   6.484  0.8257  0.6283  0.6377
  520MOL0     C71677   2.244  10.226   6.346 -0.8183 -0.3854 -0.4054
  520MOL0     C71678   2.261  10.136   6.247  0.6704  0.3007 -0.0027
  520MOL0     C71679   2.157  10.100   6.163  0.8461  0.5001  0.5588
  520MOL0     C71680   2.029  10.160   6.180  0.3156  0.3007 -0.3187
  520MOL0     O71681   1.917  10.126   6.109 -0.1949 -0.1283 -0.6886
  520MOL0     C71682   1.934  10.068   5.979 -0.6405 -0.2715 -0.3094
  520MOL0     C71683   1.816  10.114   5.888 -1.3707  0.0140 -0.8522
  520MOL0     C71684   1.774  10.270   5.880 -0.2745  1.3753 -0.1750
  520MOL0     C71685   1.696  10.309   5.752 -1.0006 -0.0293  0.1547
  520MOL0     C71686   1.594  10.213   5.700  0.8031  0.4941 -0.3053
  520MOL0     C71687   1.509  10.115   5.674 -0.3673  0.1173  0.0687
  520MOL0     C71688   2.008  10.249   6.284  0.5855  1.1536  0.4590
  520MOL0     C71689   2.118  10.293   6.367  0.6523  0.3637 -0.1386
  520MOL0     C71690   2.080  10.397   6.472  0.2542 -0.1990 -0.2984
  520MOL0     H71691   2.408  10.457   6.767  0.0221 -2.3399  1.1920
  520MOL0     H71692   2.624  10.545   6.865 -0.5404  1.0654 -0.7405
  520MOL0     H71693   2.840  10.509   6.936 -0.2300  0.0933  0.6719
  520MOL0     H71694   2.977  10.599   6.912 -1.1122 -0.0339  1.0391
  520MOL0     H71695   2.908  10.358   6.756  0.4703  0.7750 -3.0379
  520MOL0     H71696   3.069  10.441   6.734  0.1494 -2.1344  0.6359
  520MOL0     H71697   3.134  10.371   6.958  0.0115  0.2887 -0.5482
  520MOL0     H71698   2.981  10.292   6.990  1.2605 -0.9565  0.5288
  520MOL0     H71699   3.049  10.112   6.844 -0.1441 -0.2132 -2.6554
  520MOL0     H71700   3.167  10.198   6.756  0.9804  0.9276  0.2756
  520MOL0     H71701   3.177  10.122   7.056  4.1274  0.1405  3.8486
  520MOL0     H71702   3.318  10.199   6.970  0.0215 -0.0165  0.5464
  520MOL0     H71703   3.186   9.930   6.923 -1.8993  1.0723  0.7460
  520MOL0     H71704   3.318   9.988   6.829 -0.5510  3.9202 -0.5868
  520MOL0     H71705   3.284   9.906   7.127  0.5832 -0.1553  1.4221
  520MOL0     H71706   3.418  10.001   7.092 -0.5685 -0.5744  1.4429
  520MOL0     H71707   3.346   9.726   6.947  1.2245 -1.1698 -0.5225
  520MOL0     H71708   3.501   9.801   6.935  1.2616 -2.1228  2.2548
  520MOL0     H71709   3.295   9.697   7.238 -0.4415  0.9239 -1.4012
  520MOL0     H71710   3.406   9.611   7.499 -0.7879  0.0626  1.1723
  520MOL0     H71711   3.558   9.551   7.489 -0.6055 -1.6495  2.6369
  520MOL0     H71712   3.292   9.431   7.394  0.5269  1.7177  0.1787
  520MOL0     H71713   3.448   9.355   7.342 -0.9673  0.0612 -0.3576
  520MOL0     H71714   3.507   9.294   7.541 -2.1666 -2.7802 -2.3633
  520MOL0     H71715   3.399   9.406   7.632  3.4069 -1.3199  2.0444
  520MOL0     H71716   3.205   9.288   7.549  1.2271  3.0726 -2.0396
  520MOL0     H71717   3.321   9.165   7.474 -2.4119 -1.3172  1.2447
  520MOL0     H71718   3.343   9.071   7.894 -0.5387  0.5655 -0.0219
  520MOL0     H71719   3.293   8.721   7.972  0.4363 -0.1784  1.8339
  520MOL0     H71720   3.198   8.826   8.070  0.4699 -2.0584 -0.2222
  520MOL0     H71721   3.369   8.880   8.023  0.4286  0.6730 -1.3394
  520MOL0     H71722   2.756   8.592   7.604  1.1852  0.3118 -1.4701
  520MOL0     H71723   2.624   8.399   7.614  0.7068 -4.3526 -1.8440
  520MOL0     H71724   2.525   8.240   7.822 -1.4273 -1.1081 -0.3382
  520MOL0     H71725   2.536   8.193   7.650 -0.2784 -2.8167 -0.4838
  520MOL0     H71726   2.411   8.063   7.855  0.1123 -0.1478  0.6385
  520MOL0     H71727   2.450   8.003   7.690  0.8919  0.1927 -0.2424
  520MOL0     H71728   2.657   7.901   7.772  0.0450  2.2037  0.3327
  520MOL0     H71729   2.511   7.828   7.867 -0.6430 -1.7613  2.2833
  520MOL0     H71730   2.563   8.017   8.042 -1.7014 -2.9344  1.5282
  520MOL0     H71731   2.714   8.038   7.962 -0.9869  0.4523 -1.2837
  520MOL0     H71732   2.777   7.888   8.121 -0.5167  1.6242  0.4085
  520MOL0     H71733   2.634   7.786   8.102  2.9975 -1.7632  1.8157
  520MOL0     H71734   2.729   7.714   7.871  0.4552  0.1332 -0.8238
  520MOL0     H71735   2.843   7.675   7.996  0.7450  1.4111  1.4612
  520MOL0     H71736   2.979   7.879   7.961 -0.6376  1.5439 -1.0303
  520MOL0     H71737   2.872   7.944   7.843 -1.5378  1.0111  0.8057
  520MOL0     H71738   3.049   7.696   7.810  1.1924  0.6825 -1.2990
  520MOL0     H71739   3.051   7.837   7.720 -0.9213 -1.2873 -1.5226
  520MOL0     H71740   2.933   8.198   7.843 -2.3706 -1.1977  0.1836
  520MOL0     H71741   3.077   8.425   7.807 -0.0969  1.3772 -0.7037
  520MOL0     H71742   3.008   8.862   7.595 -0.2975  1.4715  0.3836
  520MOL0     H71743   3.117   9.062   7.527  0.0873 -0.8409 -0.1051
  520MOL0     H71744   2.807  10.511   6.479  1.7546  0.0281  1.9231
  520MOL0     H71745   2.593  10.435   6.378  0.1122  0.5353  0.7546
  520MOL0     H71746   2.360  10.092   6.237  0.7250  0.5153 -0.4153
  520MOL0     H71747   2.184  10.025   6.088  1.1695  0.8336  0.3429
  520MOL0     H71748   2.023  10.116   5.938 -0.2721  2.0948  2.8250
  520MOL0     H71749   1.956   9.961   5.987  3.3289  0.4424  0.1470
  520MOL0     H71750   1.735  10.052   5.926  1.7458 -4.7883 -1.1458
  520MOL0     H71751   1.832  10.087   5.783  1.5725 -0.0077 -0.4907
  520MOL0     H71752   1.715  10.308   5.965 -1.0675 -0.3195  0.0860
  520MOL0     H71753   1.866  10.328   5.885 -0.0853  1.2389 -1.8452
  520MOL0     H71754   1.767  10.307   5.669  1.0064 -1.8386  1.8149
  520MOL0     H71755   1.651  10.408   5.757 -0.7173  0.0540  1.3120
  520MOL0     H71756   1.455  10.030   5.636 -1.3522  1.0072 -0.5691
  520MOL0     H71757   1.914  10.304   6.283 -1.3523 -1.7334  3.5479
  520MOL0     H71758   2.129  10.382   6.568  1.9398 -1.4851 -1.2977
  520MOL0     H71759   2.114  10.496   6.438  2.2660 -0.2567  1.3372
  520MOL0     H71760   1.972  10.407   6.486  0.4594  1.1001  0.5492
  521MOL0     O71761  10.260   1.209   7.656 -0.6438 -0.0703 -0.2080
  521MOL0     C71762  10.348   1.241   7.736 -0.0758 -0.4141 -0.4139
  521MOL0     O71763  10.486   1.231   7.717  0.2654 -0.2750  0.2631
  521MOL0     C71764  10.564   1.163   7.617  0.6628  0.4753 -0.0208
  521MOL0     C71765  10.507   1.107   7.499 -0.2240 -0.4349  0.6258
  521MOL0     C71766  10.580   1.022   7.417  0.3590  0.8683 -0.4537
  521MOL0     C71767  10.716   0.992   7.447  0.5667 -0.2074 -1.0905
  521MOL0     O71768  10.794   0.914   7.360 -0.1780 -0.4378 -0.2829
  521MOL0     C71769  10.933   0.943   7.353 -0.1595 -0.9381  0.4417
  521MOL0     C71770  10.977   0.845   7.242  0.0566  0.0618  0.1304
  521MOL0     C71771  10.987   0.700   7.293 -0.3800 -0.8579  0.0981
  521MOL0     C71772  11.100   0.695   7.403  0.5581  0.5761 -0.9143
  521MOL0     C71773  11.151   0.551   7.417  0.0640 -0.1804  0.4460
  521MOL0     C71774  11.038   0.450   7.439  0.2855  0.5389 -0.0195
  521MOL0     C71775  11.082   0.309   7.440 -0.1923 -0.7145  0.0331
  521MOL0     C71776  11.143   0.254   7.563 -0.4209  0.6882 -0.6607
  521MOL0     N71777  11.190   0.118   7.557 -0.9853 -0.3658  0.3935
  521MOL0     C71778  11.114   0.006   7.535 -0.7978 -0.4449  0.1380
  521MOL0     C71779  11.189  -0.102   7.530  0.1538  0.3572 -0.8579
  521MOL0     C71780  11.146  -0.238   7.535  0.5737 -0.2112 -1.0295
  521MOL0     C71781  11.212  -0.307   7.648  1.1050  0.3653 -0.4398
  521MOL0     C71782  11.126  -0.430   7.694 -0.7737  0.9058 -0.5046
  521MOL0     C71783  11.194  -0.519   7.802 -0.5194 -0.6170  0.6469
  521MOL0     O71784  11.288  -0.600   7.734 -0.0079  0.3191 -0.3415
  521MOL0     C71785  11.362  -0.689   7.813  0.2456  0.7856  0.1264
  521MOL0     C71786  11.450  -0.767   7.753  0.4741  0.0556  0.4761
  521MOL0     C71787  11.534  -0.859   7.825  0.8775  0.6241 -0.2261
  521MOL0     C71788  11.609  -0.977   7.754  0.2813  0.9876 -0.1083
  521MOL0     C71789  11.534  -0.858   7.970 -0.3934  0.4319 -0.0995
  521MOL0     C71790  11.591  -0.966   8.052 -0.5645  0.2001  0.7826
  521MOL0     O71791  11.708  -1.027   7.999  0.0811  0.6929  0.0450
  521MOL0     C71792  11.754  -1.145   8.053 -0.3346  1.2660  0.2349
  521MOL0     C71793  11.821  -1.155   8.168 -0.2428  0.4901 -0.5338
  521MOL0     C71794  11.877  -1.278   8.211 -0.2642  0.5718 -0.4918
  521MOL0     C71795  11.858  -1.397   8.141 -0.5349  0.9192 -0.1632
  521MOL0     O71796  11.916  -1.509   8.202  0.1081  0.2736 -0.7896
  521MOL0     C71797  11.963  -1.608   8.113 -0.6181 -0.4114 -1.1432
  521MOL0     C71798  12.060  -1.692   8.205  0.0628 -0.0548 -0.9340
  521MOL0     C71799  12.084  -1.832   8.158 -0.4345 -0.2705 -0.6610
  521MOL0     C71800  12.136  -1.915   8.273 -0.3342 -0.0522 -0.4036
  521MOL0     C71801  12.199  -2.050   8.216 -0.4633  0.4031 -0.1329
  521MOL0     C71802  12.285  -2.125   8.313 -0.9098 -0.1276  0.0806
  521MOL0     C71803  12.404  -2.051   8.363  0.1237 -0.0827  1.3696
  521MOL0     C71804  12.513  -2.124   8.437 -0.5692  0.1719  0.1495
  521MOL0    Cl71805  12.449  -2.188   8.593 -0.0791  0.6947  0.4159
  521MOL0     C71806  11.785  -1.391   8.024 -0.1247  1.0896  0.3741
  521MOL0     C71807  11.730  -1.266   7.980 -0.5384  0.0612 -0.2646
  521MOL0     O71808  11.532  -0.989   8.154 -0.9182  0.1400 -0.3357
  521MOL0     C71809  11.461  -0.751   8.037  0.2189  0.8165  0.1582
  521MOL0     C71810  11.377  -0.675   7.947  0.0454 -0.6325 -0.4498
  521MOL0     N71811  11.322  -0.055   7.540 -0.2018 -0.0243  0.2460
  521MOL0     N71812  11.321   0.071   7.536  0.0636  0.1831  0.3784
  521MOL0     C71813  10.775   1.066   7.555  0.4816 -1.1227 -0.8645
  521MOL0     C71814  10.700   1.160   7.629 -0.3596 -0.1465  0.3962
  521MOL0     C71815  10.307   1.297   7.865 -0.0233 -0.3735  0.2861
  521MOL0     C71816  10.415   1.366   7.943 -0.5382  1.2010  0.3652
  521MOL0     C71817  10.398   1.403   8.077  0.3841 -0.2175 -0.0551
  521MOL0     C71818  10.275   1.394   8.139 -0.2544  0.0479 -1.5499
  521MOL0     O71819  10.250   1.444   8.273 -1.0299  0.8963  0.0872
  521MOL0     C71820  10.307   1.567   8.306 -0.0954  0.1104 -0.2617
  521MOL0     C71821  10.427   1.543   8.409  0.2963  0.4539 -0.1292
  521MOL0     C71822  10.377   1.605   8.540 -0.7165  0.3297 -1.1097
  521MOL0     C71823  10.493   1.580   8.648 -0.0500 -0.3157 -0.4669
  521MOL0     C71824  10.507   1.445   8.696  0.5215  0.5034 -0.6483
  521MOL0     C71825  10.503   1.325   8.741 -0.4688 -0.6822 -0.4940
  521MOL0     C71826  10.172   1.352   8.058 -0.1149  0.5709  0.6582
  521MOL0     C71827  10.180   1.303   7.926  0.8009 -0.7628  0.1378
  521MOL0     C71828  10.071   1.226   7.875  0.6271  0.0181 -0.1009
  521MOL0     H71829  10.399   1.109   7.484 -0.0490 -2.0138 -1.1908
  521MOL0     H71830  10.539   0.980   7.326  0.9820 -1.0921  0.1193
  521MOL0     H71831  10.974   0.918   7.451  0.9324  1.6249  0.7039
  521MOL0     H71832  10.956   1.043   7.316  2.4162 -1.9526 -0.9268
  521MOL0     H71833  10.894   0.851   7.171 -1.2228  5.4815  1.6552
  521MOL0     H71834  11.070   0.883   7.200  1.0339 -1.3824  0.8654
  521MOL0     H71835  10.896   0.670   7.346 -0.3957 -2.4081 -0.7635
  521MOL0     H71836  10.995   0.626   7.214 -2.5320 -2.5381  1.3369
  521MOL0     H71837  11.181   0.757   7.364 -1.4392  3.2395 -1.1065
  521MOL0     H71838  11.058   0.729   7.498  3.0168 -0.0766  0.5009
  521MOL0     H71839  11.219   0.556   7.502  0.5214  1.7259  0.0144
  521MOL0     H71840  11.206   0.523   7.326 -2.4044 -0.7404 -0.9748
  521MOL0     H71841  10.990   0.476   7.534  0.9781  2.2265 -0.1008
  521MOL0     H71842  10.964   0.456   7.358 -0.6850  0.4889  0.8400
  521MOL0     H71843  11.162   0.300   7.366 -0.3776  5.1560 -1.3308
  521MOL0     H71844  10.999   0.243   7.412  1.0265 -1.3388 -2.3429
  521MOL0     H71845  11.233   0.310   7.590 -0.0419  0.4464 -1.3797
  521MOL0     H71846  11.067   0.262   7.641 -0.5961 -0.7903 -0.6466
  521MOL0     H71847  11.006   0.008   7.551 -0.5033  0.3081  2.4910
  521MOL0     H71848  11.157  -0.291   7.440  0.8106 -1.1228 -0.4956
  521MOL0     H71849  11.037  -0.241   7.543  0.6666 -1.6488 -0.0348
  521MOL0     H71850  11.312  -0.339   7.615  0.6630 -0.6949 -0.7944
  521MOL0     H71851  11.227  -0.253   7.742  2.6986 -0.7462 -0.0007
  521MOL0     H71852  11.023  -0.420   7.727 -0.3300 -1.9700  2.3167
  521MOL0     H71853  11.105  -0.501   7.613 -2.7852 -2.6024  2.7729
  521MOL0     H71854  11.248  -0.459   7.876 -1.3641  0.9551  0.0267
  521MOL0     H71855  11.109  -0.577   7.840 -3.4577  0.5068 -3.5453
  521MOL0     H71856  11.443  -0.779   7.645  0.0800 -1.8781  0.6855
  521MOL0     H71857  11.716  -0.979   7.778  0.4232  1.1420 -0.7020
  521MOL0     H71858  11.611  -0.954   7.647 -0.8529  2.1693  0.0975
  521MOL0     H71859  11.557  -1.072   7.768  1.0382  0.7132  0.9857
  521MOL0     H71860  11.845  -1.065   8.223  1.2179 -0.9153  1.2318
  521MOL0     H71861  11.941  -1.277   8.299 -1.2034  1.4128  0.2094
  521MOL0     H71862  11.879  -1.663   8.069 -2.9736  1.8405  0.2222
  521MOL0     H71863  12.018  -1.564   8.030 -2.5042 -0.0730 -2.2880
  521MOL0     H71864  12.146  -1.630   8.233 -0.3217  0.3155 -0.5628
  521MOL0     H71865  12.021  -1.694   8.307 -2.1162  0.3165 -1.6997
  521MOL0     H71866  12.156  -1.838   8.076  4.6007  1.0401  3.1275
  521MOL0     H71867  11.990  -1.875   8.123 -0.2896 -0.0536 -1.3219
  521MOL0     H71868  12.053  -1.935   8.342 -1.4352  2.0735 -1.0346
  521MOL0     H71869  12.212  -1.857   8.327 -2.8514  2.5599  0.6312
  521MOL0     H71870  12.122  -2.120   8.182 -0.1464  0.6161 -1.3476
  521MOL0     H71871  12.265  -2.041   8.128  0.2986  0.2861  0.4117
  521MOL0     H71872  12.313  -2.220   8.266 -1.3728  0.3074 -1.1112
  521MOL0     H71873  12.229  -2.149   8.404  0.2588 -1.5212  0.4783
  521MOL0     H71874  12.362  -1.978   8.432 -1.4874  1.3267 -0.9454
  521MOL0     H71875  12.448  -1.990   8.283 -0.1381 -1.2817  0.2607
  521MOL0     H71876  12.597  -2.060   8.466 -0.5458 -0.1093  0.7068
  521MOL0     H71877  12.552  -2.210   8.382  0.3919  1.2990 -0.9797
  521MOL0     H71878  11.774  -1.480   7.963  2.5821  0.7210  0.2756
  521MOL0     H71879  11.679  -1.270   7.884  3.0735  5.5267 -2.8839
  521MOL0     H71880  11.454  -0.746   8.145 -1.1554 -4.7914  0.6239
  521MOL0     H71881  11.297  -0.626   8.002 -0.7828 -3.5781  1.1448
  521MOL0     H71882  10.875   1.049   7.593  1.0801  1.1883 -1.2249
  521MOL0     H71883  10.734   1.213   7.718 -0.9066 -1.0779  1.1798
  521MOL0     H71884  10.512   1.392   7.901 -0.7712  0.1369 -0.8632
  521MOL0     H71885  10.479   1.440   8.139 -1.0744  0.7123  1.3941
  521MOL0     H71886  10.339   1.613   8.212  0.1171 -1.3322 -0.9154
  521MOL0     H71887  10.226   1.624   8.352 -0.3533 -2.2426  2.4493
  521MOL0     H71888  10.529   1.575   8.388  1.4381 -2.5542  0.3825
  521MOL0     H71889  10.435   1.435   8.426 -0.1112  0.7561  2.4485
  521MOL0     H71890  10.337   1.704   8.516 -0.6345  0.4659 -0.6969
  521MOL0     H71891  10.290   1.555   8.584 -0.7230  0.1467 -1.3239
  521MOL0     H71892  10.478   1.634   8.742 -1.0815 -1.3176 -0.0356
  521MOL0     H71893  10.593   1.598   8.607  0.3264 -3.5611 -1.1942
  521MOL0     H71894  10.490   1.225   8.779 -0.2507 -0.3364  0.5139
  521MOL0     H71895  10.070   1.352   8.097 -2.0243 -2.6238 -3.5064
  521MOL0     H71896  10.094   1.120   7.856  3.0756  0.6769 -1.2830
  521MOL0     H71897   9.991   1.212   7.948  0.5830 -5.1408 -0.7816
  521MOL0     H71898  10.042   1.269   7.779  0.5124  0.1421 -0.0097
  522MOL0     O71899   7.744   3.376   7.791  0.0900 -0.7059  0.0881
  522MOL0     C71900   7.643   3.305   7.774  0.1979 -0.7674  0.1761
  522MOL0     O71901   7.635   3.169   7.756 -0.2924 -0.1302 -0.7198
  522MOL0     C71902   7.726   3.108   7.685 -0.6158 -0.4188  0.1330
  522MOL0     C71903   7.868   3.130   7.695  0.3269  1.1201 -0.2383
  522MOL0     C71904   7.951   3.055   7.616 -0.0364 -0.1719  0.6488
  522MOL0     C71905   7.899   2.957   7.527  0.3786  0.5909  0.1733
  522MOL0     O71906   7.999   2.892   7.463 -0.5196 -0.0785  0.6522
  522MOL0     C71907   7.989   2.753   7.455 -0.1940  0.8126 -0.3043
  522MOL0     C71908   8.120   2.675   7.441 -0.9227 -0.3761 -0.3227
  522MOL0     C71909   8.204   2.698   7.561  0.3792 -0.4559  0.2221
  522MOL0     C71910   8.158   2.641   7.697  0.2218  0.0284  0.0548
  522MOL0     C71911   8.274   2.595   7.785  0.4282  0.0000  0.0478
  522MOL0     C71912   8.260   2.446   7.799 -0.5426  0.8559 -0.0620
  522MOL0     C71913   8.365   2.386   7.888 -0.7090  0.5218  0.2929
  522MOL0     C71914   8.337   2.395   8.035 -0.2558  0.4139  0.4653
  522MOL0     N71915   8.454   2.347   8.110 -0.2226 -0.1054  0.4172
  522MOL0     C71916   8.585   2.346   8.064  0.2492 -0.4654 -0.4715
  522MOL0     C71917   8.650   2.266   8.147  0.8511 -0.6525  0.0921
  522MOL0     C71918   8.796   2.228   8.153  0.1386 -0.0318  0.1008
  522MOL0     C71919   8.814   2.081   8.173  0.0925  0.3431 -0.2973
  522MOL0     C71920   8.957   2.038   8.180 -0.4848  0.8872 -0.3080
  522MOL0     C71921   8.957   1.882   8.218  0.1941 -0.1838 -1.1851
  522MOL0     O71922   8.908   1.820   8.097 -0.1375  0.0367  0.0755
  522MOL0     C71923   8.883   1.689   8.112 -0.3606  0.0420  0.3211
  522MOL0     C71924   8.758   1.641   8.113  0.2102 -0.2728 -0.0764
  522MOL0     C71925   8.733   1.501   8.108  0.6985 -0.1641 -0.0672
  522MOL0     C71926   8.589   1.455   8.124  0.4710  0.6268  0.6165
  522MOL0     C71927   8.839   1.414   8.125  0.2114  0.1109  0.2611
  522MOL0     C71928   8.824   1.271   8.152  0.3465  0.1071 -0.0081
  522MOL0     O71929   8.901   1.225   8.245 -1.0740  0.1046 -0.2922
  522MOL0     C71930   8.873   1.102   8.288 -1.3628 -0.3273  0.1107
  522MOL0     C71931   8.749   1.058   8.330 -0.4457  0.0830 -0.0085
  522MOL0     C71932   8.735   0.922   8.359 -0.0503  0.4818 -0.2232
  522MOL0     C71933   8.840   0.827   8.366  0.4305  0.2273 -0.8116
  522MOL0     O71934   8.831   0.693   8.402 -0.1204  0.1078 -0.6144
  522MOL0     C71935   8.696   0.635   8.410 -0.3258  0.2230  0.0961
  522MOL0     C71936   8.707   0.486   8.429  0.5833 -0.2338  0.6903
  522MOL0     C71937   8.762   0.447   8.574 -0.3273  0.0822 -0.7925
  522MOL0     C71938   8.791   0.299   8.596  0.0912  0.1250  0.8628
  522MOL0     C71939   8.868   0.257   8.721  0.2773 -0.8255  0.3415
  522MOL0     C71940   8.938   0.120   8.724 -0.6649  0.9188 -0.2431
  522MOL0     C71941   8.834   0.010   8.682  1.3634 -0.2243  0.0982
  522MOL0     C71942   8.886  -0.126   8.655 -0.5641  1.0226  0.3247
  522MOL0    Cl71943   8.923  -0.203   8.817 -0.1975  0.2459  0.4714
  522MOL0     C71944   8.966   0.880   8.336  0.4116 -0.8225 -0.3503
  522MOL0     C71945   8.985   1.017   8.313  0.3584  0.1233  0.3898
  522MOL0     O71946   8.751   1.206   8.078 -0.9506 -0.3606 -0.5653
  522MOL0     C71947   8.969   1.474   8.137 -0.9798  0.6325  0.5215
  522MOL0     C71948   8.989   1.611   8.116 -0.1882  0.4280 -0.0814
  522MOL0     N71949   8.550   2.214   8.234  0.4564  0.5286  0.2885
  522MOL0     N71950   8.437   2.271   8.218  0.5454 -0.2639  0.7153
  522MOL0     C71951   7.762   2.924   7.523  0.1050 -0.2820  0.7110
  522MOL0     C71952   7.673   3.007   7.594  0.1628  0.5798 -0.5899
  522MOL0     C71953   7.519   3.387   7.757 -0.7301 -0.1083  1.0765
  522MOL0     C71954   7.501   3.490   7.844  0.1551  0.4992 -0.5485
  522MOL0     C71955   7.382   3.564   7.847 -0.5113 -0.1723  0.2557
  522MOL0     C71956   7.291   3.540   7.738 -0.3647  0.1124 -0.3873
  522MOL0     O71957   7.180   3.621   7.730 -0.3035  0.7926 -0.1908
  522MOL0     C71958   7.138   3.704   7.840  0.1280 -0.8817  0.0138
  522MOL0     C71959   7.012   3.775   7.802  0.3476  0.2601  0.4233
  522MOL0     C71960   6.903   3.692   7.742 -0.3869 -1.0662  0.3625
  522MOL0     C71961   6.873   3.563   7.815  0.1097 -0.8516  0.0251
  522MOL0     C71962   6.809   3.602   7.944  0.3528 -0.5322 -1.2215
  522MOL0     C71963   6.771   3.609   8.055  0.1240  0.0439 -0.1740
  522MOL0     C71964   7.308   3.445   7.641  0.1681  0.5330 -0.9530
  522MOL0     C71965   7.429   3.367   7.651  0.1284  0.1525 -0.0368
  522MOL0     C71966   7.443   3.262   7.548  0.2352  0.3573 -0.9828
  522MOL0     H71967   7.899   3.190   7.779 -0.5835 -1.8851  2.4477
  522MOL0     H71968   8.059   3.065   7.612 -0.2889  2.9198 -2.3272
  522MOL0     H71969   7.918   2.736   7.373 -0.8513  1.2197  0.1667
  522MOL0     H71970   7.945   2.709   7.545  1.2802 -0.6807 -0.2732
  522MOL0     H71971   8.110   2.566   7.436 -0.2054 -0.9833  5.3055
  522MOL0     H71972   8.177   2.704   7.353  3.6784 -0.1689  2.4286
  522MOL0     H71973   8.299   2.656   7.529  0.9336  0.2838  0.8574
  522MOL0     H71974   8.229   2.804   7.571  2.5324 -0.7175 -1.5788
  522MOL0     H71975   8.116   2.720   7.759 -0.0312  0.4085 -0.5931
  522MOL0     H71976   8.072   2.575   7.680  0.7745 -0.5989 -0.3675
  522MOL0     H71977   8.265   2.632   7.888 -2.6120 -0.8840  0.2204
  522MOL0     H71978   8.374   2.625   7.753  1.9281  0.0496  4.1845
  522MOL0     H71979   8.163   2.416   7.839 -0.1452  0.3778  0.5711
  522MOL0     H71980   8.268   2.403   7.699  6.3930  0.8573 -0.0135
  522MOL0     H71981   8.461   2.433   7.865  0.1165 -1.1520  0.1541
  522MOL0     H71982   8.370   2.279   7.863  0.0643  0.8195 -0.8493
  522MOL0     H71983   8.326   2.500   8.065 -0.1200 -0.2936  3.2463
  522MOL0     H71984   8.245   2.341   8.058 -0.9336  2.3323  2.5619
  522MOL0     H71985   8.632   2.400   7.983 -0.6828 -3.4476 -3.2166
  522MOL0     H71986   8.826   2.287   8.240 -1.1893  3.1026 -1.4024
  522MOL0     H71987   8.863   2.264   8.073  0.7635 -0.9263  0.2089
  522MOL0     H71988   8.752   2.054   8.259  1.7883 -0.3216  0.7788
  522MOL0     H71989   8.770   2.021   8.093 -0.4420 -2.3150  1.8430
  522MOL0     H71990   9.012   2.063   8.089  1.9158 -3.2079 -0.2269
  522MOL0     H71991   9.004   2.090   8.265  2.4987 -1.3110 -0.4419
  522MOL0     H71992   9.060   1.871   8.252  0.6045  1.6661 -1.7304
  522MOL0     H71993   8.901   1.867   8.312  2.3778  0.8985  0.3824
  522MOL0     H71994   8.671   1.703   8.092  1.3180  0.5479 -2.7194
  522MOL0     H71995   8.541   1.482   8.029  0.2174  0.9342  0.8257
  522MOL0     H71996   8.535   1.504   8.206 -1.7492 -0.9194  0.1548
  522MOL0     H71997   8.570   1.349   8.143 -2.3537  0.8250 -0.6488
  522MOL0     H71998   8.670   1.130   8.308 -1.7048 -1.4933 -0.8524
  522MOL0     H71999   8.629   0.898   8.372  0.4530 -4.0338 -2.5913
  522MOL0     H72000   8.643   0.682   8.494  0.7220  0.5740  0.5734
  522MOL0     H72001   8.651   0.659   8.313  1.1313  1.1219 -0.3887
  522MOL0     H72002   8.602   0.457   8.417  0.6219  0.1305 -0.7461
  522MOL0     H72003   8.765   0.443   8.347  1.0152 -1.9401  1.8344
  522MOL0     H72004   8.705   0.481   8.661  1.4226 -4.4202  2.4958
  522MOL0     H72005   8.861   0.494   8.573  0.4007 -1.3910 -1.8571
  522MOL0     H72006   8.833   0.255   8.505 -2.2207  0.2346 -0.3356
  522MOL0     H72007   8.686   0.271   8.610 -1.9418  3.8479 -4.0446
  522MOL0     H72008   8.949   0.330   8.731 -1.5075  1.3277 -0.1168
  522MOL0     H72009   8.800   0.251   8.806  1.0150 -0.2192  0.9908
  522MOL0     H72010   8.981   0.088   8.820  1.9655 -2.1741 -2.2225
  522MOL0     H72011   9.027   0.099   8.663 -0.8545 -2.6415  0.4678
  522MOL0     H72012   8.780   0.034   8.590 -0.3153 -0.3470  1.0091
  522MOL0     H72013   8.759   0.003   8.762  1.9235 -1.1046  0.5670
  522MOL0     H72014   8.971  -0.118   8.587  0.4705 -1.8555  1.1298
  522MOL0     H72015   8.804  -0.186   8.615 -1.8490  2.0140  1.3769
  522MOL0     H72016   9.053   0.815   8.345  1.8465  0.8638 -1.5483
  522MOL0     H72017   9.081   1.062   8.290  0.9883 -0.8686  1.0194
  522MOL0     H72018   9.058   1.412   8.130 -0.9653  0.7829 -1.0507
  522MOL0     H72019   9.086   1.657   8.099  0.8705 -1.7962 -0.4211
  522MOL0     H72020   7.729   2.837   7.467 -0.8335  0.1403  0.5986
  522MOL0     H72021   7.569   2.977   7.590  0.0176  0.9203  0.3191
  522MOL0     H72022   7.570   3.511   7.925 -1.0449  2.0934  0.1261
  522MOL0     H72023   7.364   3.633   7.928 -0.2642 -1.6088  1.5864
  522MOL0     H72024   7.135   3.631   7.921  3.7306  1.7148  2.8575
  522MOL0     H72025   7.211   3.782   7.866  0.9992 -0.5221 -3.1546
  522MOL0     H72026   7.038   3.853   7.729 -2.2778  4.3791  3.3864
  522MOL0     H72027   6.961   3.826   7.885 -3.0516 -0.5145 -1.0353
  522MOL0     H72028   6.812   3.752   7.730  2.7466  3.7320 -2.8142
  522MOL0     H72029   6.932   3.671   7.639  1.1729  0.7031  0.3884
  522MOL0     H72030   6.963   3.502   7.825  1.6446  1.2059 -0.5403
  522MOL0     H72031   6.802   3.498   7.761  0.3510 -0.4317 -0.8240
  522MOL0     H72032   6.713   3.607   8.145 -3.3415  0.6633 -2.2085
  522MOL0     H72033   7.232   3.410   7.572  1.7823  0.8687 -3.0183
  522MOL0     H72034   7.411   3.163   7.584  1.4671  0.2369 -0.1475
  522MOL0     H72035   7.387   3.289   7.459 -1.1185 -2.9059 -1.2721
  522MOL0     H72036   7.551   3.262   7.528  0.1851  1.8782 -1.3308
  523MOL0     O72037   8.565   6.174   6.715  0.7991  0.3036  0.2946
  523MOL0     C72038   8.582   6.291   6.745  0.1452  0.5590  0.0769
  523MOL0     O72039   8.541   6.399   6.668 -0.1232  0.6784  0.1489
  523MOL0     C72040   8.495   6.358   6.541  0.6057 -0.1153  0.7919
  523MOL0     C72041   8.381   6.279   6.520  0.6948 -0.6611 -1.2101
  523MOL0     C72042   8.333   6.260   6.387 -0.4963  0.6729  0.1516
  523MOL0     C72043   8.411   6.303   6.270 -0.0416  0.1466 -0.5551
  523MOL0     O72044   8.371   6.309   6.139 -0.3158  0.0325  0.4340
  523MOL0     C72045   8.234   6.308   6.114  0.5187 -0.1021  1.0467
  523MOL0     C72046   8.207   6.265   5.973 -0.3646  0.6726 -0.2455
  523MOL0     C72047   8.057   6.263   5.946 -0.4180  0.2397  0.4103
  523MOL0     C72048   8.032   6.225   5.805  0.1329 -0.3129  0.0386
  523MOL0     C72049   7.884   6.216   5.760  0.3020 -0.5224  0.8372
  523MOL0     C72050   7.879   6.200   5.612 -0.2355 -0.4926 -0.4094
  523MOL0     C72051   7.917   6.064   5.545 -0.2181 -0.4181  0.1645
  523MOL0     C72052   7.945   6.072   5.395  0.5256 -1.0995 -0.2267
  523MOL0     N72053   7.982   5.939   5.337 -0.4123  0.4268  0.8331
  523MOL0     C72054   7.926   5.813   5.360  0.2132  0.5658 -0.1799
  523MOL0     C72055   7.994   5.727   5.278  0.1766 -0.5701  0.2281
  523MOL0     C72056   7.955   5.577   5.269  0.3162 -0.3338  0.7189
  523MOL0     C72057   7.817   5.556   5.216  0.1369  0.1447 -0.5423
  523MOL0     C72058   7.800   5.411   5.224  0.8376  1.6634 -1.0865
  523MOL0     C72059   7.653   5.372   5.172 -0.3372  0.7271  0.6805
  523MOL0     O72060   7.631   5.424   5.042 -0.1034 -0.0256 -0.9728
  523MOL0     C72061   7.689   5.388   4.930  0.0227  0.7005 -0.3807
  523MOL0     C72062   7.691   5.477   4.825 -0.2573 -0.2278 -0.7175
  523MOL0     C72063   7.739   5.456   4.695 -0.2579  0.0585 -0.1423
  523MOL0     C72064   7.733   5.563   4.595 -0.2083 -0.6854  0.9114
  523MOL0     C72065   7.792   5.327   4.670 -0.3212 -0.4715  0.1237
  523MOL0     C72066   7.859   5.289   4.539  0.4748  0.5343 -1.1984
  523MOL0     O72067   7.822   5.357   4.426  0.3939  0.0721  0.2990
  523MOL0     C72068   7.905   5.380   4.324  0.8726  0.7561  0.0294
  523MOL0     C72069   7.928   5.277   4.233  0.5764 -0.3515 -0.1741
  523MOL0     C72070   7.999   5.294   4.115  0.2782 -0.1073  0.5875
  523MOL0     C72071   8.066   5.414   4.090 -0.3435  0.1429  0.1575
  523MOL0     O72072   8.141   5.436   3.983  0.3141 -0.2420  0.5243
  523MOL0     C72073   8.180   5.319   3.911 -0.2986 -0.4531 -0.1647
  523MOL0     C72074   8.302   5.341   3.819 -0.2934 -0.1130 -1.1398
  523MOL0     C72075   8.322   5.225   3.726 -0.5916 -0.7498 -0.1859
  523MOL0     C72076   8.462   5.233   3.658  0.3989 -0.3056  0.0077
  523MOL0     C72077   8.476   5.117   3.553 -1.4340 -0.2236 -0.2612
  523MOL0     C72078   8.627   5.103   3.516  0.1986 -0.3154  0.3489
  523MOL0     C72079   8.655   5.018   3.379  1.2210 -0.7032 -0.4860
  523MOL0     C72080   8.803   4.992   3.375 -0.2892  0.7586  0.4539
  523MOL0    Cl72081   8.823   4.865   3.246  0.0923 -0.1455  0.0690
  523MOL0     C72082   8.047   5.523   4.183  1.1164  0.3444 -0.0141
  523MOL0     C72083   7.967   5.499   4.305  0.4066  1.1611 -0.4619
  523MOL0     O72084   7.945   5.202   4.538  0.3051 -0.0965  0.8768
  523MOL0     C72085   7.796   5.236   4.776 -0.0374  0.6164 -0.5817
  523MOL0     C72086   7.743   5.263   4.906  0.2548  0.4716 -0.4266
  523MOL0     N72087   8.099   5.796   5.221 -0.0536 -0.5146  1.3607
  523MOL0     N72088   8.093   5.921   5.257  0.5179  0.2788  0.0975
  523MOL0     C72089   8.529   6.378   6.294  0.6327 -0.2683 -0.1141
  523MOL0     C72090   8.558   6.401   6.424 -0.1822  1.7241 -0.1448
  523MOL0     C72091   8.613   6.309   6.886 -0.6877  1.1614  0.5451
  523MOL0     C72092   8.566   6.420   6.954 -0.3068  0.2964 -0.2804
  523MOL0     C72093   8.608   6.434   7.088 -0.0453  0.1576 -0.3323
  523MOL0     C72094   8.699   6.346   7.150  0.1974  0.4327 -1.0831
  523MOL0     O72095   8.723   6.355   7.284 -0.1351 -0.1075  0.4210
  523MOL0     C72096   8.663   6.453   7.374 -0.7320  0.0072 -0.1748
  523MOL0     C72097   8.522   6.423   7.420  0.6351 -0.0666  0.6830
  523MOL0     C72098   8.507   6.281   7.462 -0.8392 -0.5922 -0.3719
  523MOL0     C72099   8.617   6.211   7.539 -1.3254  0.5720  0.0415
  523MOL0     C72100   8.584   6.194   7.685  0.4533 -0.7961  0.2170
  523MOL0     C72101   8.574   6.189   7.802  0.8514  0.6317  0.0070
  523MOL0     C72102   8.741   6.236   7.082 -0.4901 -0.6984 -0.5228
  523MOL0     C72103   8.709   6.215   6.946 -0.5934  0.3791  0.0966
  523MOL0     C72104   8.791   6.115   6.866 -0.3992 -0.2951 -0.0580
  523MOL0     H72105   8.333   6.239   6.609  0.4203  2.7705  0.3097
  523MOL0     H72106   8.240   6.207   6.373 -1.1152  2.0239 -1.2618
  523MOL0     H72107   8.183   6.405   6.110  0.2067 -0.2310 -3.0035
  523MOL0     H72108   8.175   6.248   6.183  0.7182 -1.2239  0.2742
  523MOL0     H72109   8.250   6.321   5.889  0.1396 -1.9018 -1.8147
  523MOL0     H72110   8.236   6.160   5.962  1.8795  0.9624  2.0224
  523MOL0     H72111   8.013   6.183   6.005  2.2407 -2.2249 -0.6898
  523MOL0     H72112   8.013   6.362   5.963  1.3862  1.1714 -0.0377
  523MOL0     H72113   8.082   6.306   5.749  0.8226 -0.4370  0.4590
  523MOL0     H72114   8.076   6.127   5.784 -1.5137 -0.6312 -2.2657
  523MOL0     H72115   7.840   6.309   5.798 -2.6641 -2.0989  1.5538
  523MOL0     H72116   7.826   6.134   5.803  0.7080 -1.1991  0.1206
  523MOL0     H72117   7.772   6.215   5.594 -0.8350 -1.4483  2.0104
  523MOL0     H72118   7.944   6.271   5.560  1.2976 -1.8832 -0.4650
  523MOL0     H72119   7.839   5.991   5.566 -0.9575  0.4734  0.6260
  523MOL0     H72120   8.004   6.036   5.603 -0.5307 -1.6998  0.0443
  523MOL0     H72121   7.861   6.118   5.343  1.9298  0.7381 -0.9873
  523MOL0     H72122   8.028   6.142   5.375 -1.9581  2.0355 -0.3567
  523MOL0     H72123   7.840   5.792   5.423  1.4306 -1.9438  0.7916
  523MOL0     H72124   7.973   5.529   5.366  2.8785 -1.6561 -0.3108
  523MOL0     H72125   8.027   5.528   5.203  0.3152  0.4841  0.0979
  523MOL0     H72126   7.747   5.596   5.290 -2.0891 -1.6071 -1.5686
  523MOL0     H72127   7.794   5.606   5.122  1.8118  0.4483 -0.8172
  523MOL0     H72128   7.873   5.351   5.170 -0.0597 -0.1943 -0.3323
  523MOL0     H72129   7.815   5.381   5.328 -3.5816  0.0615 -0.6887
  523MOL0     H72130   7.635   5.265   5.179 -3.6922  1.0910 -0.5420
  523MOL0     H72131   7.564   5.398   5.231  0.1299 -0.8141  2.1276
  523MOL0     H72132   7.640   5.570   4.847 -0.8631  0.2355 -3.5979
  523MOL0     H72133   7.678   5.651   4.631  1.6581  1.5109 -1.3028
  523MOL0     H72134   7.685   5.527   4.503  0.5339 -2.8628  1.3206
  523MOL0     H72135   7.834   5.593   4.566 -1.7947  3.6179 -1.1709
  523MOL0     H72136   7.885   5.180   4.258 -0.3971  0.0003 -0.4483
  523MOL0     H72137   8.003   5.209   4.046  1.9348  1.9832 -2.1056
  523MOL0     H72138   8.209   5.238   3.978 -0.7594 -1.6047 -1.3313
  523MOL0     H72139   8.099   5.284   3.847 -1.7529 -3.5961  3.0809
  523MOL0     H72140   8.291   5.429   3.755 -1.1968  0.3263 -0.4094
  523MOL0     H72141   8.392   5.361   3.878 -1.0936  1.6174 -0.4132
  523MOL0     H72142   8.248   5.224   3.645 -0.9719  0.7147  0.1204
  523MOL0     H72143   8.315   5.128   3.776  1.6592 -1.2729 -0.7416
  523MOL0     H72144   8.534   5.201   3.735 -1.7312 -1.4935  1.6092
  523MOL0     H72145   8.474   5.335   3.621  2.6419 -1.6597 -3.5594
  523MOL0     H72146   8.449   5.018   3.592 -1.6315 -0.2067 -0.3542
  523MOL0     H72147   8.412   5.134   3.466 -3.4560  0.1133  1.2046
  523MOL0     H72148   8.677   5.054   3.600 -0.5197 -1.6472  0.0218
  523MOL0     H72149   8.676   5.200   3.513 -1.3597  0.6221  2.5946
  523MOL0     H72150   8.625   5.074   3.290 -3.9053  0.4163  1.5563
  523MOL0     H72151   8.595   4.927   3.374 -2.5271  1.6071 -1.7163
  523MOL0     H72152   8.841   4.950   3.469 -1.0752  3.0757  1.8773
  523MOL0     H72153   8.852   5.088   3.356  0.8258  0.9883  3.8361
  523MOL0     H72154   8.091   5.621   4.168  2.3731 -0.2596 -0.3757
  523MOL0     H72155   7.937   5.578   4.373 -0.3342  0.5307 -0.0302
  523MOL0     H72156   7.844   5.141   4.755  3.2888  1.5233  2.1239
  523MOL0     H72157   7.742   5.191   4.988  0.0762  2.0818  1.0499
  523MOL0     H72158   8.578   6.422   6.208 -0.5671 -0.8702 -1.1355
  523MOL0     H72159   8.639   6.468   6.448  3.5948 -2.4545  0.0104
  523MOL0     H72160   8.496   6.488   6.907 -1.5900 -0.7842  0.0078
  523MOL0     H72161   8.561   6.507   7.153  1.5320 -0.4140  1.5668
  523MOL0     H72162   8.729   6.461   7.460  1.4181  1.3809 -1.8404
  523MOL0     H72163   8.645   6.556   7.342 -1.1939  0.2367  0.7899
  523MOL0     H72164   8.450   6.447   7.341 -0.2399 -1.4433  1.0221
  523MOL0     H72165   8.505   6.491   7.504  2.7228 -0.3121  1.3429
  523MOL0     H72166   8.420   6.271   7.527 -0.5303  3.0782  0.8556
  523MOL0     H72167   8.493   6.215   7.376  1.2274 -1.1643 -0.3259
  523MOL0     H72168   8.717   6.255   7.535 -1.2282  0.8937  3.2116
  523MOL0     H72169   8.634   6.107   7.510 -1.6770  0.1563  1.2412
  523MOL0     H72170   8.578   6.182   7.909 -1.7118 -2.2894  0.0480
  523MOL0     H72171   8.820   6.176   7.124  0.6657  2.2135  1.8147
  523MOL0     H72172   8.839   6.173   6.787 -0.9959  1.6329  0.9476
  523MOL0     H72173   8.871   6.075   6.929  3.1379  0.6158 -3.5561
  523MOL0     H72174   8.744   6.023   6.828 -0.8275 -0.9132  1.8567
  524MOL0     O72175   3.976   0.870   0.247  0.4144  0.0207  0.5338
  524MOL0     C72176   3.948   0.798   0.341  0.1959 -0.1067 -0.0005
  524MOL0     O72177   3.874   0.687   0.334 -0.3766 -0.3432  0.1888
  524MOL0     C72178   3.800   0.662   0.221 -0.3127  0.3904  0.9750
  524MOL0     C72179   3.851   0.652   0.088 -0.0642  0.4306 -1.0414
  524MOL0     C72180   3.773   0.592  -0.010  0.5738  0.2844 -0.8226
  524MOL0     C72181   3.636   0.577   0.012  0.5735 -0.0997  0.0822
  524MOL0     O72182   3.546   0.553  -0.088 -0.2497  0.0157  0.0119
  524MOL0     C72183   3.593   0.564  -0.221  0.5635 -0.0889 -0.6279
  524MOL0     C72184   3.471   0.542  -0.311 -0.2457 -0.0069 -0.4717
  524MOL0     C72185   3.498   0.401  -0.374  0.4582  0.6031  0.2100
  524MOL0     C72186   3.380   0.366  -0.462 -0.6815  0.3557 -0.0152
  524MOL0     C72187   3.400   0.410  -0.610 -0.5765 -0.4742 -1.1749
  524MOL0     C72188   3.347   0.546  -0.638 -0.2927 -0.6291  1.0512
  524MOL0     C72189   3.386   0.594  -0.786 -1.0896 -0.7839 -0.2740
  524MOL0     C72190   3.296   0.539  -0.900 -0.3543  0.1998 -0.3456
  524MOL0     N72191   3.320   0.609  -1.028 -0.6580 -0.6083  0.0031
  524MOL0     C72192   3.372   0.554  -1.144  1.0818 -0.6033  0.4471
  524MOL0     C72193   3.386   0.652  -1.236  1.2295  0.1864 -0.8380
  524MOL0     C72194   3.407   0.630  -1.381 -1.1291 -0.0646 -0.6279
  524MOL0     C72195   3.551   0.576  -1.410  0.0166  0.0289 -0.1507
  524MOL0     C72196   3.664   0.689  -1.394  1.3339 -0.2308 -1.3251
  524MOL0     C72197   3.803   0.630  -1.383 -0.1582  1.4253  0.0331
  524MOL0     O72198   3.821   0.503  -1.322 -0.1983 -0.5171  0.3816
  524MOL0     C72199   3.846   0.500  -1.190  0.8118 -0.2876  0.1244
  524MOL0     C72200   3.822   0.604  -1.098 -0.3646  1.7280 -0.2758
  524MOL0     C72201   3.833   0.593  -0.956 -0.5959  0.2599  0.1885
  524MOL0     C72202   3.828   0.733  -0.883  0.3109 -0.4327 -0.1488
  524MOL0     C72203   3.853   0.465  -0.899 -0.7672 -0.4449  0.3296
  524MOL0     C72204   3.879   0.437  -0.762 -0.1785  0.0807 -0.2364
  524MOL0     O72205   3.919   0.304  -0.719 -0.2068  0.0003  0.0538
  524MOL0     C72206   3.938   0.273  -0.586  0.7545 -0.3948 -0.5350
  524MOL0     C72207   4.031   0.182  -0.551 -0.1897  0.3890  0.4672
  524MOL0     C72208   4.054   0.142  -0.424 -0.0970 -0.4259 -0.2575
  524MOL0     C72209   3.978   0.203  -0.314 -0.6492  1.1664  0.2696
  524MOL0     O72210   4.020   0.174  -0.186  0.3381 -0.3741 -0.7485
  524MOL0     C72211   4.084   0.279  -0.111  0.1841  0.3142 -0.0300
  524MOL0     C72212   4.009   0.300   0.024 -0.2696 -0.5405  0.0923
  524MOL0     C72213   3.991   0.168   0.098 -0.9239  0.4144 -0.2014
  524MOL0     C72214   3.932   0.188   0.237 -0.5609 -0.9285  0.4049
  524MOL0     C72215   4.024   0.258   0.335  0.5550  0.3127  0.3600
  524MOL0     C72216   3.968   0.264   0.475  0.2414  0.3803  1.3423
  524MOL0     C72217   4.087   0.313   0.548  0.2597  0.9119  0.8763
  524MOL0     C72218   4.063   0.351   0.697  0.0823  0.1048 -0.4766
  524MOL0    Cl72219   4.026   0.220   0.812  0.5400 -0.3872  0.4870
  524MOL0     C72220   3.873   0.285  -0.349 -1.2164  0.0059  0.3863
  524MOL0     C72221   3.858   0.321  -0.482  0.4056 -0.2061  0.4156
  524MOL0     O72222   3.870   0.531  -0.684  0.6372  0.3412  0.3392
  524MOL0     C72223   3.860   0.356  -0.988  1.0796  0.8282 -0.1252
  524MOL0     C72224   3.868   0.376  -1.132 -0.0673  1.0111  0.1306
  524MOL0     N72225   3.337   0.764  -1.174 -0.7382  0.4224 -0.4904
  524MOL0     N72226   3.299   0.739  -1.056 -0.8480 -0.5501 -0.3559
  524MOL0     C72227   3.583   0.593   0.137 -0.2174 -1.2658 -0.4333
  524MOL0     C72228   3.660   0.643   0.236  0.1582 -1.0793 -0.2107
  524MOL0     C72229   4.013   0.817   0.478 -0.0053  0.5455  0.8857
  524MOL0     C72230   4.011   0.704   0.568  0.6871 -0.2414  0.2978
  524MOL0     C72231   4.076   0.713   0.696  1.0901 -0.1732  0.8038
  524MOL0     C72232   4.159   0.822   0.724  0.2536  0.4885 -0.3521
  524MOL0     O72233   4.222   0.827   0.850  0.1074 -0.2007  0.2576
  524MOL0     C72234   4.278   0.948   0.890 -0.6075  0.5363  0.2230
  524MOL0     C72235   4.165   1.052   0.940  0.2823  1.0578  0.2538
  524MOL0     C72236   4.083   0.995   1.057  0.4905 -0.8649  0.1172
  524MOL0     C72237   3.990   0.867   1.031 -0.1990  0.0076  1.1267
  524MOL0     C72238   3.897   0.860   1.138 -0.2819 -0.2929  0.5688
  524MOL0     C72239   3.812   0.864   1.224 -0.4024 -0.3962  0.2735
  524MOL0     C72240   4.167   0.924   0.629  0.8267  0.0365  1.2351
  524MOL0     C72241   4.097   0.925   0.509 -0.3156 -0.5808  0.3513
  524MOL0     C72242   4.126   1.042   0.417 -0.3948  0.3345 -0.2635
  524MOL0     H72243   3.951   0.686   0.063  0.7750 -0.2647  1.1563
  524MOL0     H72244   3.832   0.574  -0.100  0.7948  0.5911 -0.7414
  524MOL0     H72245   3.668   0.486  -0.238  2.5866  1.7338 -0.5390
  524MOL0     H72246   3.651   0.656  -0.240  2.6841 -1.2979 -0.3293
  524MOL0     H72247   3.387   0.536  -0.241  0.8585  1.6658  1.0822
  524MOL0     H72248   3.469   0.629  -0.377 -0.3063 -0.9349 -1.7335
  524MOL0     H72249   3.589   0.383  -0.431 -0.2394  1.6810 -1.3051
  524MOL0     H72250   3.498   0.338  -0.285 -1.8626 -2.1566 -1.5498
  524MOL0     H72251   3.372   0.257  -0.463  3.3479 -0.0974 -1.9546
  524MOL0     H72252   3.293   0.417  -0.419 -1.8316 -0.2930 -1.4945
  524MOL0     H72253   3.347   0.350  -0.685 -0.5062  1.7268 -3.1025
  524MOL0     H72254   3.508   0.414  -0.631 -0.0640  2.4644  1.3548
  524MOL0     H72255   3.239   0.544  -0.648 -0.1921  0.4783 -0.6662
  524MOL0     H72256   3.377   0.617  -0.561  2.0313 -3.0177  2.5166
  524MOL0     H72257   3.491   0.564  -0.792  0.0868  2.8787 -0.4047
  524MOL0     H72258   3.375   0.702  -0.783  0.5786 -0.4529 -2.9070
  524MOL0     H72259   3.302   0.433  -0.927 -1.0707  0.8560 -3.4738
  524MOL0     H72260   3.194   0.551  -0.863  0.1010 -0.4573  1.2203
  524MOL0     H72261   3.384   0.447  -1.155  0.4064 -0.7897  1.3729
  524MOL0     H72262   3.380   0.722  -1.435 -0.0778  0.1319 -0.8338
  524MOL0     H72263   3.327   0.565  -1.417  0.2823 -1.5371 -1.2372
  524MOL0     H72264   3.572   0.494  -1.340  3.8506  0.5279 -0.4831
  524MOL0     H72265   3.563   0.541  -1.513  2.5016 -0.7569  0.3435
  524MOL0     H72266   3.648   0.774  -1.461 -0.1380 -0.5348 -1.3865
  524MOL0     H72267   3.641   0.738  -1.299  0.8572  1.1361 -2.1212
  524MOL0     H72268   3.818   0.608  -1.489 -1.6092  1.3075 -0.1746
  524MOL0     H72269   3.883   0.698  -1.353  0.4030 -0.0790  2.1533
  524MOL0     H72270   3.797   0.698  -1.144 -1.0326  0.3158 -2.9889
  524MOL0     H72271   3.763   0.722  -0.796 -1.5404 -1.1301 -1.5578
  524MOL0     H72272   3.786   0.814  -0.944 -1.4611  1.1536  2.9487
  524MOL0     H72273   3.930   0.757  -0.853  0.4233  0.5430 -1.2214
  524MOL0     H72274   4.100   0.145  -0.626  0.3917  4.0103 -1.0107
  524MOL0     H72275   4.140   0.076  -0.421  1.8117  1.3056 -5.5202
  524MOL0     H72276   4.191   0.257  -0.113  0.3445  0.8940 -3.7058
  524MOL0     H72277   4.060   0.375  -0.156  0.5470  0.0428 -0.8265
  524MOL0     H72278   4.076   0.360   0.086 -2.6322 -1.8356  4.2909
  524MOL0     H72279   3.913   0.350   0.015  1.4001  2.9199 -0.3383
  524MOL0     H72280   4.084   0.110   0.100  2.6498  5.4816  1.9805
  524MOL0     H72281   3.917   0.107   0.046 -0.6824 -0.7085  0.7178
  524MOL0     H72282   3.907   0.088   0.274 -2.0317 -1.1367 -1.0589
  524MOL0     H72283   3.834   0.234   0.223  0.0066  0.1939 -0.0142
  524MOL0     H72284   4.125   0.215   0.326  1.5241  2.3961  0.6784
  524MOL0     H72285   4.035   0.359   0.294  2.6084  0.6524  1.5513
  524MOL0     H72286   3.947   0.160   0.501  2.0475 -0.7023 -1.1108
  524MOL0     H72287   3.873   0.318   0.467 -0.6304 -1.2015  0.5823
  524MOL0     H72288   4.121   0.404   0.498  0.5509 -0.8548 -2.3868
  524MOL0     H72289   4.171   0.243   0.542 -0.4406  0.1506 -0.3302
  524MOL0     H72290   3.975   0.414   0.703 -0.5327 -0.8118  4.4636
  524MOL0     H72291   4.154   0.405   0.726 -0.0822 -0.1864  0.6131
  524MOL0     H72292   3.804   0.324  -0.275 -3.7013 -1.0050 -1.2617
  524MOL0     H72293   3.772   0.386  -0.496 -1.8357 -2.6318  2.0349
  524MOL0     H72294   3.884   0.256  -0.955 -1.8499 -0.4446 -1.5220
  524MOL0     H72295   3.869   0.282  -1.186  0.3188  1.3313 -0.4216
  524MOL0     H72296   3.476   0.589   0.157 -0.3322  1.8296  0.0944
  524MOL0     H72297   3.622   0.654   0.337  2.9389 -2.1607  1.0616
  524MOL0     H72298   3.955   0.613   0.546 -0.3355  1.0094 -2.7694
  524MOL0     H72299   4.060   0.629   0.763 -4.1528 -0.9162 -0.9136
  524MOL0     H72300   4.341   0.924   0.976 -1.1850  0.9628  0.7827
  524MOL0     H72301   4.339   0.987   0.808 -2.4189 -0.0683 -1.5184
  524MOL0     H72302   4.093   1.079   0.862 -2.1754  4.2951  3.3363
  524MOL0     H72303   4.213   1.144   0.975  0.0616  1.5143 -0.6260
  524MOL0     H72304   4.157   0.965   1.132  1.4918  0.3748 -0.3345
  524MOL0     H72305   4.019   1.077   1.089 -0.0979 -0.3569 -2.1747
  524MOL0     H72306   4.054   0.779   1.023  0.4838  0.6102 -0.7393
  524MOL0     H72307   3.941   0.889   0.936 -2.5911 -1.2457  1.9989
  524MOL0     H72308   3.741   0.875   1.303 -2.6784  1.7303 -1.8857
  524MOL0     H72309   4.226   1.014   0.642  1.6262  0.6813 -4.2738
  524MOL0     H72310   4.187   1.113   0.473  0.6828 -0.5230 -0.3162
  524MOL0     H72311   4.179   1.012   0.326 -1.3357 -1.0598 -0.3885
  524MOL0     H72312   4.029   1.084   0.388 -1.6911 -0.9262  1.9189
  525MOL0     O72313   0.636  10.196   9.025 -0.0108 -0.7660  0.0654
  525MOL0     C72314   0.748  10.151   9.046  1.2028 -0.9109  0.4806
  525MOL0     O72315   0.856  10.173   8.971 -0.3414 -0.2104  1.1192
  525MOL0     C72316   0.849  10.275   8.876 -0.4388 -0.7159  0.8768
  525MOL0     C72317   0.775  10.255   8.753  0.9533 -0.1009 -0.2857
  525MOL0     C72318   0.756  10.355   8.654  0.0704  0.2017  0.0278
  525MOL0     C72319   0.840  10.475   8.665 -0.1780 -0.2708 -0.2027
  525MOL0     O72320   0.841  10.566   8.563 -0.1928 -0.4233  0.0460
  525MOL0     C72321   0.712  10.610   8.498 -0.2583 -0.2269  0.5272
  525MOL0     C72322   0.622  10.691   8.601  0.8426  0.0168  0.5772
  525MOL0     C72323   0.528  10.788   8.537  0.2038 -0.5119 -0.4106
  525MOL0     C72324   0.414  10.723   8.466  0.6461 -0.0926  0.1335
  525MOL0     C72325   0.315  10.808   8.388  0.1764  0.8461 -0.4599
  525MOL0     C72326   0.208  10.873   8.480 -0.2323  0.4479  0.0737
  525MOL0     C72327   0.120  10.958   8.384 -0.3657 -0.1673 -0.2068
  525MOL0     C72328   0.013  11.030   8.466 -0.9017 -0.0470 -0.0672
  525MOL0     N72329  -0.040  11.133   8.371  0.4060  0.2034 -0.4586
  525MOL0     C72330   0.005  11.270   8.366  0.0687  0.2720 -0.3711
  525MOL0     C72331  -0.046  11.323   8.257  0.0292  0.6875  0.3048
  525MOL0     C72332  -0.032  11.458   8.205 -0.2401 -0.1522  0.3071
  525MOL0     C72333  -0.140  11.487   8.096  0.0555 -0.4750 -0.6786
  525MOL0     C72334  -0.115  11.628   8.035 -0.9482  0.4754 -0.2712
  525MOL0     C72335  -0.237  11.673   7.950  0.0765 -0.1015  0.5128
  525MOL0     O72336  -0.228  11.809   7.954  0.4629 -0.2448 -0.1232
  525MOL0     C72337  -0.179  11.879   7.849  0.0526  0.2811  0.0524
  525MOL0     C72338  -0.201  12.016   7.862  0.3809 -0.2200 -0.6018
  525MOL0     C72339  -0.166  12.102   7.753 -0.6970 -0.7893  0.5028
  525MOL0     C72340  -0.197  12.255   7.767 -1.1295 -0.7969 -0.6819
  525MOL0     C72341  -0.096  12.043   7.636  0.7033  0.8091 -0.2585
  525MOL0     C72342  -0.057  12.111   7.514  0.7556  0.2268  1.2175
  525MOL0     O72343  -0.131  12.215   7.469 -0.0750  0.2161  0.4308
  525MOL0     C72344  -0.075  12.297   7.376 -0.5487 -0.5837 -0.4978
  525MOL0     C72345  -0.041  12.432   7.410  0.0844  0.5222 -0.8465
  525MOL0     C72346   0.020  12.522   7.320 -0.0260  0.2798 -0.0138
  525MOL0     C72347   0.033  12.478   7.180  0.7900  0.3426  0.2849
  525MOL0     O72348   0.105  12.543   7.091 -0.3958  0.6931  0.3484
  525MOL0     C72349   0.197  12.469   7.004  0.8989  1.0755 -0.0090
  525MOL0     C72350   0.303  12.556   6.932 -0.0254 -0.5654  0.1134
  525MOL0     C72351   0.400  12.638   7.013  0.9670 -0.0956  0.1671
  525MOL0     C72352   0.500  12.700   6.925 -1.2705  0.5295  0.0170
  525MOL0     C72353   0.629  12.734   6.999 -0.8867 -0.4153  0.2437
  525MOL0     C72354   0.620  12.870   7.061 -0.0581 -0.2186 -0.6352
  525MOL0     C72355   0.733  12.883   7.164 -0.7934  1.3550 -0.2150
  525MOL0     C72356   0.866  12.906   7.110 -1.1298  0.6505  0.0142
  525MOL0    Cl72357   0.986  12.899   7.243 -0.6676 -0.2197 -0.5217
  525MOL0     C72358  -0.020  12.354   7.147 -0.7083 -0.9553 -0.0852
  525MOL0     C72359  -0.080  12.268   7.240  0.4921  0.0504  0.5476
  525MOL0     O72360   0.043  12.068   7.457 -0.2779 -0.1205  0.0779
  525MOL0     C72361  -0.055  11.916   7.645  0.6415 -0.0495  0.1373
  525MOL0     C72362  -0.100  11.828   7.742  0.2527 -0.8514 -0.1619
  525MOL0     N72363  -0.122  11.220   8.194  0.3704  0.0520 -0.1141
  525MOL0     N72364  -0.122  11.110   8.257  0.2749  0.4035 -0.0322
  525MOL0     C72365   0.917  10.483   8.780 -0.2655 -0.1071  0.6383
  525MOL0     C72366   0.929  10.388   8.878 -0.7832  0.7505 -0.1313
  525MOL0     C72367   0.753  10.049   9.151 -0.3511  0.8935  0.0799
  525MOL0     C72368   0.870  10.035   9.230 -0.3921 -0.4827  0.0310
  525MOL0     C72369   0.880   9.943   9.340  0.4107  0.1638 -0.2179
  525MOL0     C72370   0.769   9.864   9.375  0.4086 -0.5151 -0.4118
  525MOL0     O72371   0.786   9.779   9.482  0.1550 -0.0834 -0.3777
  525MOL0     C72372   0.694   9.675   9.509  0.2871  0.5641 -0.6060
  525MOL0     C72373   0.578   9.719   9.605 -0.5580 -0.2326 -0.9082
  525MOL0     C72374   0.630   9.767   9.745 -0.2816  0.7461 -0.2329
  525MOL0     C72375   0.515   9.812   9.822  0.0134 -0.1316 -0.3428
  525MOL0     C72376   0.412   9.707   9.857  1.2180  0.5186 -0.4486
  525MOL0     C72377   0.330   9.623   9.890 -0.4458 -0.0669 -0.5253
  525MOL0     C72378   0.653   9.868   9.288  0.1119 -0.1868 -1.7306
  525MOL0     C72379   0.646   9.963   9.183  0.5840 -0.0709 -0.2629
  525MOL0     C72380   0.514   9.959   9.098 -0.0397 -0.8347  0.3856
  525MOL0     H72381   0.725  10.159   8.751  2.2167 -0.7736 -1.1319
  525MOL0     H72382   0.692  10.353   8.566  1.0964  1.1130 -0.7659
  525MOL0     H72383   0.650  10.528   8.460  1.6187 -1.4255 -0.1440
  525MOL0     H72384   0.732  10.677   8.414 -1.1488 -1.1710 -0.4675
  525MOL0     H72385   0.565  10.626   8.669 -0.5509 -0.7006 -1.1806
  525MOL0     H72386   0.684  10.759   8.660  1.2459 -1.9840  2.6256
  525MOL0     H72387   0.487  10.855   8.613 -1.9543  0.5616 -2.4136
  525MOL0     H72388   0.582  10.852   8.467  1.9556 -0.3920  0.9625
  525MOL0     H72389   0.460  10.660   8.389 -1.6095 -1.0388 -0.4974
  525MOL0     H72390   0.355  10.653   8.526 -0.7185  0.1816 -0.8489
  525MOL0     H72391   0.274  10.734   8.318  0.2314  0.2032  0.1687
  525MOL0     H72392   0.373  10.884   8.337  1.5117  1.0821  1.3091
  525MOL0     H72393   0.144  10.806   8.537  0.0356 -2.2671 -2.5344
  525MOL0     H72394   0.265  10.937   8.548  1.2040 -2.9797  2.3387
  525MOL0     H72395   0.076  10.892   8.309  2.1722  0.5953 -2.5549
  525MOL0     H72396   0.188  11.021   8.326 -0.2863  2.1648  2.2290
  525MOL0     H72397  -0.051  10.948   8.503 -1.1731 -0.2540 -0.9768
  525MOL0     H72398   0.064  11.086   8.544 -2.9663  0.8946  0.6803
  525MOL0     H72399   0.068  11.312   8.444 -2.4241 -0.5075  2.2187
  525MOL0     H72400   0.070  11.457   8.165 -0.1775  3.2262  0.0884
  525MOL0     H72401  -0.020  11.533   8.284  3.5867 -1.9961  1.7122
  525MOL0     H72402  -0.128  11.419   8.011 -1.7570 -2.3620  0.4832
  525MOL0     H72403  -0.236  11.474   8.148  0.7267  1.9018  1.4051
  525MOL0     H72404  -0.095  11.680   8.129  3.5492  0.5035 -1.0442
  525MOL0     H72405  -0.025  11.631   7.973 -1.6974 -1.7027 -1.5479
  525MOL0     H72406  -0.244  11.621   7.854  0.6946  2.3032 -0.9093
  525MOL0     H72407  -0.325  11.640   8.007  0.2837 -2.1456 -0.2841
  525MOL0     H72408  -0.252  12.054   7.951 -1.2993  0.7617 -1.9079
  525MOL0     H72409  -0.186  12.288   7.871  0.3286  0.1995 -1.1160
  525MOL0     H72410  -0.301  12.274   7.737 -0.4927 -0.6872 -2.9501
  525MOL0     H72411  -0.129  12.328   7.723 -3.3026  4.0139  2.9699
  525MOL0     H72412  -0.035  12.468   7.512  2.6664  1.2085 -1.1816
  525MOL0     H72413   0.062  12.612   7.363  1.8620 -1.0455  1.0574
  525MOL0     H72414   0.243  12.387   7.059 -0.2023 -1.9378 -3.1869
  525MOL0     H72415   0.148  12.408   6.927 -0.6725  0.2521  1.5776
  525MOL0     H72416   0.369  12.493   6.871  0.4426  0.4479 -0.4537
  525MOL0     H72417   0.253  12.619   6.858  0.4486 -0.9206 -0.5203
  525MOL0     H72418   0.460  12.568   7.072  1.5444 -0.4654 -0.8441
  525MOL0     H72419   0.343  12.704   7.079 -0.4851 -1.3602  0.2546
  525MOL0     H72420   0.462  12.784   6.866  0.1240  1.1256 -0.0650
  525MOL0     H72421   0.542  12.632   6.851  0.9868 -1.1059  2.6204
  525MOL0     H72422   0.660  12.653   7.066  0.6625 -1.4410 -1.6225
  525MOL0     H72423   0.708  12.742   6.924 -0.1005  3.8426  1.2825
  525MOL0     H72424   0.524  12.869   7.113  0.2572 -4.8701  0.3035
  525MOL0     H72425   0.620  12.942   6.979 -0.9080 -3.9199 -4.1960
  525MOL0     H72426   0.728  12.796   7.230 -1.7650  2.2924  1.0063
  525MOL0     H72427   0.709  12.962   7.235  0.7393  1.5548  0.1209
  525MOL0     H72428   0.886  13.001   7.059 -1.7978  1.2454  0.8355
  525MOL0     H72429   0.875  12.824   7.038 -4.2098 -1.4490  1.7998
  525MOL0     H72430  -0.020  12.309   7.048 -4.1310  2.1759 -1.7696
  525MOL0     H72431  -0.113  12.165   7.225 -2.3291  0.6218  2.2011
  525MOL0     H72432  -0.005  11.862   7.565 -3.1534 -1.3401 -1.6340
  525MOL0     H72433  -0.093  11.721   7.725 -0.3614 -0.7787 -0.9241
  525MOL0     H72434   0.980  10.571   8.773  1.1177 -1.1906 -2.1815
  525MOL0     H72435   0.995  10.400   8.963 -0.2657  3.7611 -0.8317
  525MOL0     H72436   0.958  10.093   9.208 -1.0881  0.5857 -0.0186
  525MOL0     H72437   0.964   9.937   9.409  2.5387 -0.2694 -2.6751
  525MOL0     H72438   0.654   9.611   9.430  2.1055 -2.4710  0.7479
  525MOL0     H72439   0.755   9.609   9.571  2.5311  1.0350 -2.1734
  525MOL0     H72440   0.512   9.633   9.621  0.6738 -1.0482 -0.0588
  525MOL0     H72441   0.530   9.804   9.555 -2.4218 -1.1612 -0.7757
  525MOL0     H72442   0.681   9.693   9.807 -0.8523 -0.8311 -1.5746
  525MOL0     H72443   0.700   9.847   9.719  0.6522  0.3817  1.0700
  525MOL0     H72444   0.462   9.893   9.772 -0.0548 -1.2023 -2.0961
  525MOL0     H72445   0.550   9.847   9.920  0.6160 -0.9795 -0.2456
  525MOL0     H72446   0.270   9.534   9.900 -1.9642  0.8003 -1.5797
  525MOL0     H72447   0.564   9.810   9.305  0.1114 -0.0686 -1.3132
  525MOL0     H72448   0.445   9.899   9.157 -4.2045  1.6302 -1.5006
  525MOL0     H72449   0.453  10.049   9.111 -2.0896 -2.1649  0.4047
  525MOL0     H72450   0.535   9.932   8.994 -1.1082  0.8075 -0.2979
  526MOL0     O72451   0.429   7.063   1.779 -0.4147  0.6342 -0.3860
  526MOL0     C72452   0.326   7.097   1.733 -1.3384 -0.1756 -0.5557
  526MOL0     O72453   0.204   7.079   1.799 -0.5208 -1.2359  1.3319
  526MOL0     C72454   0.180   6.983   1.890  0.0993  0.5867  0.8025
  526MOL0     C72455   0.192   6.844   1.865  0.4704  0.6941 -0.3373
  526MOL0     C72456   0.131   6.751   1.944 -0.1257 -0.1133  0.4767
  526MOL0     C72457   0.061   6.777   2.058  0.4089  0.0241 -0.0826
  526MOL0     O72458   0.010   6.670   2.129  0.3132  0.1284  0.4234
  526MOL0     C72459  -0.108   6.701   2.202 -0.2574 -0.2929 -0.2495
  526MOL0     C72460  -0.172   6.571   2.246  0.6743 -0.4154 -0.3141
  526MOL0     C72461  -0.227   6.505   2.113  0.4572  0.7501  0.2196
  526MOL0     C72462  -0.274   6.360   2.132 -0.2340 -0.2484  0.4889
  526MOL0     C72463  -0.340   6.312   2.002 -0.0316  0.0300  0.1745
  526MOL0     C72464  -0.348   6.157   2.000 -0.4056 -1.2098 -0.3406
  526MOL0     C72465  -0.398   6.101   1.866  0.7693 -1.5944  0.4883
  526MOL0     C72466  -0.547   6.120   1.844 -0.1965 -0.6598  0.4646
  526MOL0     N72467  -0.587   6.023   1.739 -0.5903  0.6722 -0.7004
  526MOL0     C72468  -0.519   5.988   1.628 -0.1010 -0.3435  0.4253
  526MOL0     C72469  -0.597   5.907   1.564  0.2415  0.6037 -0.3709
  526MOL0     C72470  -0.562   5.819   1.448 -0.4144 -0.4220  0.1718
  526MOL0     C72471  -0.599   5.885   1.313  0.0996  0.5932 -0.8422
  526MOL0     C72472  -0.714   5.817   1.234 -0.0744  0.5860 -0.1578
  526MOL0     C72473  -0.753   5.881   1.095  0.0883 -0.1695  0.3551
  526MOL0     O72474  -0.651   5.859   0.998 -0.5850  0.2952  1.1738
  526MOL0     C72475  -0.584   5.969   0.951  0.4589  0.4637 -0.2148
  526MOL0     C72476  -0.632   6.108   0.955 -0.5857  0.3600 -0.0400
  526MOL0     C72477  -0.552   6.217   0.918 -0.1542  1.3563 -0.0433
  526MOL0     C72478  -0.611   6.351   0.944 -0.0626  0.0394  1.0313
  526MOL0     C72479  -0.417   6.187   0.870 -0.6436 -0.8939  0.4509
  526MOL0     C72480  -0.313   6.286   0.834  0.4620 -0.7099  0.1528
  526MOL0     O72481  -0.352   6.411   0.792 -0.4007 -0.1252 -0.4909
  526MOL0     C72482  -0.264   6.517   0.770  0.2732  0.3974 -0.8720
  526MOL0     C72483  -0.131   6.530   0.816  0.1217 -0.5905 -0.5005
  526MOL0     C72484  -0.053   6.644   0.796 -0.4477  0.6964 -0.3212
  526MOL0     C72485  -0.109   6.749   0.727 -0.3449 -0.1006 -0.2254
  526MOL0     O72486  -0.040   6.872   0.729  0.1468  0.3082 -0.1796
  526MOL0     C72487  -0.029   6.925   0.592 -0.3151  0.4799  0.1267
  526MOL0     C72488   0.001   7.071   0.604  0.7085  0.4842 -0.0668
  526MOL0     C72489   0.062   7.137   0.482  0.2117 -0.0448 -0.3360
  526MOL0     C72490   0.212   7.164   0.490  0.7828  0.8103 -0.0060
  526MOL0     C72491   0.295   7.205   0.366  0.3768 -0.6933 -0.1403
  526MOL0     C72492   0.447   7.221   0.387 -0.1402  0.3013 -0.1004
  526MOL0     C72493   0.521   7.308   0.289  0.3368 -0.7295 -0.7808
  526MOL0     C72494   0.645   7.378   0.347  0.0615  0.1406 -0.3848
  526MOL0    Cl72495   0.754   7.272   0.443  0.1351 -0.2210  0.1763
  526MOL0     C72496  -0.237   6.739   0.680 -0.2997 -0.2951 -0.4626
  526MOL0     C72497  -0.310   6.626   0.694 -0.7899  0.3331 -0.2006
  526MOL0     O72498  -0.195   6.256   0.846  0.1495  0.1735 -0.6953
  526MOL0     C72499  -0.377   6.051   0.874 -0.1396  0.2049 -0.4941
  526MOL0     C72500  -0.458   5.947   0.915 -0.3007 -0.0382  0.9173
  526MOL0     N72501  -0.717   5.896   1.633 -0.1556  0.3949 -0.3371
  526MOL0     N72502  -0.714   5.975   1.729 -0.4476  0.2425  0.3203
  526MOL0     C72503   0.052   6.910   2.095  0.5794 -0.2215  0.0791
  526MOL0     C72504   0.112   7.015   2.014 -0.6763  0.4863 -0.3487
  526MOL0     C72505   0.331   7.203   1.625  0.4797  0.5079  0.0860
  526MOL0     C72506   0.453   7.198   1.545 -0.4036 -0.4939  0.8316
  526MOL0     C72507   0.475   7.289   1.439  0.2045  1.1354 -0.8976
  526MOL0     C72508   0.371   7.378   1.402 -0.5504 -0.3404  0.1808
  526MOL0     O72509   0.411   7.466   1.301  0.2830 -0.0096  0.3017
  526MOL0     C72510   0.294   7.526   1.227 -0.0642 -0.8567 -0.0796
  526MOL0     C72511   0.216   7.438   1.112  0.0801 -0.3479 -0.7359
  526MOL0     C72512   0.300   7.387   0.993  0.4682  0.4015 -1.5143
  526MOL0     C72513   0.378   7.254   1.031  1.3014 -0.1483  0.0714
  526MOL0     C72514   0.287   7.138   1.054 -1.2742  0.0521  1.3291
  526MOL0     C72515   0.214   7.051   1.064  0.5349  0.7314  0.8747
  526MOL0     C72516   0.249   7.376   1.468  0.2078  0.1925 -0.2182
  526MOL0     C72517   0.235   7.298   1.579  0.2448  0.6897 -0.5598
  526MOL0     C72518   0.094   7.308   1.639 -0.4128  0.7797 -0.9205
  526MOL0     H72519   0.246   6.797   1.783 -0.4106  0.3592 -0.7351
  526MOL0     H72520   0.160   6.650   1.921 -1.4990 -0.1023 -1.5567
  526MOL0     H72521  -0.181   6.739   2.129  2.0154 -1.3807 -3.2680
  526MOL0     H72522  -0.104   6.774   2.283 -2.5939 -0.5248  0.1666
  526MOL0     H72523  -0.091   6.509   2.285  1.0285 -1.8629 -3.0810
  526MOL0     H72524  -0.253   6.594   2.316 -1.2841 -0.7938 -2.3272
  526MOL0     H72525  -0.304   6.563   2.062  1.3942  1.8284 -0.0313
  526MOL0     H72526  -0.149   6.513   2.037 -0.9474  1.2105 -1.2266
  526MOL0     H72527  -0.186   6.297   2.151  1.8611  2.6349  1.0816
  526MOL0     H72528  -0.333   6.345   2.223  0.4636 -0.9947  0.8414
  526MOL0     H72529  -0.281   6.345   1.916  1.2324 -0.9941  0.6196
  526MOL0     H72530  -0.443   6.344   1.984 -0.8968 -2.2093  0.9055
  526MOL0     H72531  -0.244   6.122   2.002  0.0666  0.1745  0.5155
  526MOL0     H72532  -0.400   6.117   2.088  1.0364  2.0181  2.1971
  526MOL0     H72533  -0.367   5.996   1.864  2.0204 -1.2337  0.1650
  526MOL0     H72534  -0.350   6.158   1.786 -1.3700  1.5597  1.2657
  526MOL0     H72535  -0.620   6.104   1.925 -3.3889  0.4115 -1.9970
  526MOL0     H72536  -0.570   6.223   1.814 -0.2449 -0.3518  1.5160
  526MOL0     H72537  -0.417   6.015   1.602 -0.8340  3.2503  0.7546
  526MOL0     H72538  -0.617   5.725   1.456 -1.4387  0.0317 -1.1855
  526MOL0     H72539  -0.458   5.787   1.447 -0.4224 -0.4904 -1.4726
  526MOL0     H72540  -0.610   5.987   1.349  1.4679 -0.2917  2.4279
  526MOL0     H72541  -0.514   5.891   1.245  0.7587  1.5553  0.0356
  526MOL0     H72542  -0.686   5.715   1.208 -3.0478  0.5243 -3.9346
  526MOL0     H72543  -0.802   5.813   1.299  0.3462  1.3204  0.4762
  526MOL0     H72544  -0.841   5.827   1.058  0.0328  0.6451 -0.7354
  526MOL0     H72545  -0.781   5.986   1.102  2.0493  1.0766 -5.4109
  526MOL0     H72546  -0.732   6.132   0.989 -1.3058 -0.7484 -1.3016
  526MOL0     H72547  -0.549   6.436   0.973 -1.2883  1.3604 -0.0577
  526MOL0     H72548  -0.674   6.334   1.032  0.7934 -3.3448  1.1284
  526MOL0     H72549  -0.669   6.374   0.855  1.1895 -2.2302 -0.4831
  526MOL0     H72550  -0.070   6.456   0.867 -1.2171 -0.9106  0.7311
  526MOL0     H72551   0.046   6.642   0.841 -0.3286 -2.7915 -0.5168
  526MOL0     H72552   0.053   6.869   0.547 -1.2450 -0.2632 -0.6829
  526MOL0     H72553  -0.109   6.908   0.520  0.3018 -2.4270  0.0184
  526MOL0     H72554  -0.094   7.120   0.629 -0.2441 -0.6428 -1.2774
  526MOL0     H72555   0.076   7.085   0.682  2.8557  1.4509 -2.1961
  526MOL0     H72556   0.019   7.237   0.485  1.5583  0.5292  1.1316
  526MOL0     H72557   0.040   7.083   0.389  0.2882 -2.6448  1.0495
  526MOL0     H72558   0.243   7.063   0.518 -0.7346 -0.1141 -1.4068
  526MOL0     H72559   0.221   7.236   0.571 -1.8108 -1.0827  2.1527
  526MOL0     H72560   0.278   7.137   0.282 -1.8033  0.3976 -0.6430
  526MOL0     H72561   0.261   7.300   0.323 -1.4245 -1.1988  0.0801
  526MOL0     H72562   0.485   7.119   0.397  2.7094  1.2123 -0.6575
  526MOL0     H72563   0.469   7.262   0.486 -0.2587  0.2785 -0.0645
  526MOL0     H72564   0.455   7.387   0.252  2.9730  2.0370 -0.0161
  526MOL0     H72565   0.552   7.248   0.203 -0.2056 -0.5024 -1.1372
  526MOL0     H72566   0.615   7.460   0.413  3.8107  2.2552 -1.0095
  526MOL0     H72567   0.706   7.425   0.270  1.8322  2.8166  2.4056
  526MOL0     H72568  -0.296   6.816   0.630 -2.4976 -2.1056 -0.8449
  526MOL0     H72569  -0.413   6.631   0.658 -0.7697 -0.1213 -0.3273
  526MOL0     H72570  -0.282   6.021   0.831 -1.9781 -1.0456 -4.0603
  526MOL0     H72571  -0.423   5.844   0.909 -1.4337 -0.4804  1.6168
  526MOL0     H72572  -0.001   6.936   2.187  4.0772  0.1063  2.2054
  526MOL0     H72573   0.098   7.122   2.026 -0.0085  0.4797  0.5730
  526MOL0     H72574   0.525   7.122   1.576  0.6353 -0.3201 -1.0167
  526MOL0     H72575   0.572   7.270   1.393  1.7320  3.4161  1.1589
  526MOL0     H72576   0.225   7.573   1.297  3.2800  2.7332  1.1604
  526MOL0     H72577   0.320   7.619   1.176 -1.8416 -0.6735 -0.7236
  526MOL0     H72578   0.145   7.512   1.072 -0.1879 -0.4097 -0.3755
  526MOL0     H72579   0.154   7.361   1.159 -1.7677  0.6289 -1.4539
  526MOL0     H72580   0.230   7.363   0.913  1.0853 -1.8667 -1.4466
  526MOL0     H72581   0.368   7.463   0.956  1.0614  0.3577 -0.5423
  526MOL0     H72582   0.436   7.284   1.119  0.9853  2.2923 -0.4822
  526MOL0     H72583   0.448   7.226   0.952  0.6817  0.2903 -0.6555
  526MOL0     H72584   0.147   6.968   1.078  3.1325 -1.6491  0.2243
  526MOL0     H72585   0.164   7.436   1.436 -1.4484 -1.5622  0.6946
  526MOL0     H72586   0.102   7.334   1.745  0.2545 -0.7523 -0.5614
  526MOL0     H72587   0.027   7.362   1.571 -1.5246 -1.8358 -2.0577
  526MOL0     H72588   0.053   7.206   1.643 -0.0326  0.6595  0.0341
  527MOL0     O72589  10.685   1.361   9.056  0.2554 -0.5772  0.1182
  527MOL0     C72590  10.764   1.289   8.995  0.0061  0.6817 -1.5563
  527MOL0     O72591  10.859   1.326   8.912  0.1233  0.0009 -0.0508
  527MOL0     C72592  10.881   1.465   8.897 -0.4365 -0.2060  0.1772
  527MOL0     C72593  10.940   1.542   8.994  0.4400 -1.8147  0.4736
  527MOL0     C72594  10.974   1.679   8.962 -0.5210  0.2835 -0.2272
  527MOL0     C72595  10.948   1.745   8.845  0.0711  0.7204 -0.0068
  527MOL0     O72596  10.979   1.877   8.837 -0.0821  1.1072  0.5428
  527MOL0     C72597  10.873   1.971   8.830  0.4057  0.3977  0.4147
  527MOL0     C72598  10.922   2.101   8.779 -0.2509 -0.8553  0.2709
  527MOL0     C72599  10.818   2.209   8.798 -0.1917 -0.0292 -0.0951
  527MOL0     C72600  10.850   2.337   8.726 -1.8244 -1.1423 -0.5178
  527MOL0     C72601  10.772   2.460   8.782 -0.3129 -0.3146 -0.6281
  527MOL0     C72602  10.777   2.591   8.696  0.6105 -0.2980 -0.7217
  527MOL0     C72603  10.725   2.710   8.784 -0.6174 -1.0522  0.0700
  527MOL0     C72604  10.704   2.844   8.708 -0.0850  0.3461  0.0377
  527MOL0     N72605  10.669   2.961   8.798 -0.8544  1.4851 -0.6413
  527MOL0     C72606  10.739   3.076   8.812 -0.3972 -0.1069  0.2974
  527MOL0     C72607  10.666   3.169   8.867  0.1552  0.8160  0.8036
  527MOL0     C72608  10.689   3.313   8.897  0.0672  0.2000  0.9769
  527MOL0     C72609  10.773   3.387   8.800 -0.1501 -0.1041  0.0499
  527MOL0     C72610  10.805   3.524   8.840 -0.2168 -0.0947 -0.0717
  527MOL0     C72611  10.679   3.622   8.859  0.0146  1.0086 -0.6154
  527MOL0     O72612  10.629   3.659   8.730  0.5631 -0.3264  0.1843
  527MOL0     C72613  10.498   3.611   8.703 -0.6255  0.4364  0.3257
  527MOL0     C72614  10.468   3.549   8.579 -0.2191  0.5652 -0.4171
  527MOL0     C72615  10.339   3.496   8.546  0.4375 -0.1186 -0.4054
  527MOL0     C72616  10.328   3.412   8.422 -1.0266  0.5468  0.1192
  527MOL0     C72617  10.233   3.500   8.651 -1.2404  0.2692  0.1613
  527MOL0     C72618  10.098   3.450   8.630  0.0191  0.2442 -0.2688
  527MOL0     O72619  10.014   3.439   8.735 -0.8587  0.0653 -0.1802
  527MOL0     C72620   9.912   3.344   8.737 -0.5139  0.4733 -0.0810
  527MOL0     C72621   9.936   3.220   8.706  0.3194  0.4738 -0.0443
  527MOL0     C72622   9.830   3.124   8.699 -0.1621  0.5117 -0.3973
  527MOL0     C72623   9.704   3.161   8.756  0.2405  0.0542  0.2340
  527MOL0     O72624   9.605   3.064   8.769  0.8888 -0.2292  0.0689
  527MOL0     C72625   9.532   3.071   8.893 -0.0111 -0.4384 -0.1660
  527MOL0     C72626   9.464   2.931   8.928 -0.3953  0.7637 -0.6008
  527MOL0     C72627   9.572   2.818   8.966 -0.7644  0.1560 -0.3552
  527MOL0     C72628   9.628   2.840   9.110 -1.0174  1.1223  0.0332
  527MOL0     C72629   9.581   2.727   9.205 -0.2768  0.2144  0.7675
  527MOL0     C72630   9.584   2.766   9.357  0.3075  0.7248 -0.0112
  527MOL0     C72631   9.727   2.750   9.424 -0.0996 -0.2094  0.4178
  527MOL0     C72632   9.737   2.625   9.504 -0.9719  0.4209  0.4002
  527MOL0    Cl72633   9.712   2.490   9.394 -0.2119 -0.4046 -0.2182
  527MOL0     C72634   9.682   3.292   8.792  0.3797 -0.4596 -0.0538
  527MOL0     C72635   9.784   3.379   8.781  0.0617 -0.8048 -0.0391
  527MOL0     O72636  10.068   3.432   8.513  0.0552 -0.4037  0.0686
  527MOL0     C72637  10.268   3.569   8.771  0.2750  0.0792  0.1629
  527MOL0     C72638  10.394   3.616   8.802 -0.1431  0.2058 -0.1216
  527MOL0     N72639  10.555   3.106   8.909 -0.0607 -0.1431  0.3486
  527MOL0     N72640  10.557   2.981   8.871  0.3850 -0.9917 -0.4727
  527MOL0     C72641  10.888   1.665   8.744  1.0687 -0.2579 -0.2025
  527MOL0     C72642  10.856   1.531   8.773  0.7920  0.0218 -0.5002
  527MOL0     C72643  10.754   1.132   9.009  0.2061  0.1111 -0.1643
  527MOL0     C72644  10.811   1.057   8.916  0.9239  0.6583  0.8475
  527MOL0     C72645  10.785   0.924   8.907 -0.5511  0.2174 -0.0230
  527MOL0     C72646  10.716   0.856   9.002 -1.0826  1.2029 -0.1625
  527MOL0     O72647  10.729   0.716   8.986 -0.3610 -0.1507  0.0856
  527MOL0     C72648  10.665   0.637   9.089 -0.2756  0.6878  0.7144
  527MOL0     C72649  10.698   0.488   9.069 -0.2489 -0.5014 -0.5126
  527MOL0     C72650  10.650   0.421   8.926 -0.3081  0.8214 -0.0246
  527MOL0     C72651  10.691   0.277   8.918 -0.9368  0.8491 -0.3055
  527MOL0     C72652  10.653   0.189   9.027 -0.5860  0.3823  0.4941
  527MOL0     C72653  10.630   0.093   9.100 -0.3884 -0.1777  0.7256
  527MOL0     C72654  10.655   0.928   9.095  0.0018  0.0696 -0.3961
  527MOL0     C72655  10.665   1.074   9.099  0.0613  0.5241 -0.0120
  527MOL0     C72656  10.593   1.141   9.214 -0.0962 -0.1077  0.0324
  527MOL0     H72657  10.963   1.489   9.086 -1.0050  0.2013  2.0638
  527MOL0     H72658  11.017   1.736   9.044  0.4215 -0.3408 -0.2737
  527MOL0     H72659  10.812   1.970   8.921  1.1734 -1.8634  0.9717
  527MOL0     H72660  10.799   1.939   8.756 -1.7952  0.3007  2.5392
  527MOL0     H72661  11.022   2.123   8.816 -0.9112  1.8950  0.6906
  527MOL0     H72662  10.935   2.091   8.671 -2.4859 -1.5702  0.0095
  527MOL0     H72663  10.722   2.170   8.762 -0.3870  1.3408 -1.1080
  527MOL0     H72664  10.808   2.219   8.907  2.2323  0.6374  0.1207
  527MOL0     H72665  10.959   2.352   8.726 -1.4518 -3.4128 -0.4637
  527MOL0     H72666  10.820   2.318   8.623  0.3997  0.8268 -1.6096
  527MOL0     H72667  10.830   2.488   8.870 -2.6267 -2.6678  1.8314
  527MOL0     H72668  10.668   2.434   8.806 -0.3159 -0.8877 -1.2203
  527MOL0     H72669  10.877   2.613   8.658  0.7208  1.9442  0.6607
  527MOL0     H72670  10.706   2.584   8.614  1.9215 -1.7060 -1.7816
  527MOL0     H72671  10.804   2.724   8.858  0.6723 -0.6770 -1.3316
  527MOL0     H72672  10.633   2.676   8.832  0.7253 -3.7114  0.9341
  527MOL0     H72673  10.801   2.874   8.668 -0.0758 -1.1748 -1.1919
  527MOL0     H72674  10.638   2.843   8.621  1.7004  1.4553 -1.4119
  527MOL0     H72675  10.822   3.093   8.744 -4.2965  1.1089 -4.7590
  527MOL0     H72676  10.747   3.314   8.989  0.7749  0.1650  0.5403
  527MOL0     H72677  10.592   3.364   8.909  0.1834  0.7570 -0.2306
  527MOL0     H72678  10.868   3.334   8.792 -0.8600 -1.1138 -2.8780
  527MOL0     H72679  10.733   3.385   8.698 -1.0550  0.5322  0.3778
  527MOL0     H72680  10.861   3.516   8.933 -1.3732  0.1630  0.6697
  527MOL0     H72681  10.878   3.565   8.769  1.5914 -0.5779  1.4234
  527MOL0     H72682  10.615   3.567   8.930  3.5684 -3.1247 -0.1805
  527MOL0     H72683  10.717   3.713   8.905  0.3128  1.2955 -1.4151
  527MOL0     H72684  10.540   3.552   8.498  1.9638  1.5108  1.4448
  527MOL0     H72685  10.259   3.328   8.431  1.3345 -1.4301  0.6625
  527MOL0     H72686  10.430   3.375   8.410 -1.8112 -1.8986  0.4886
  527MOL0     H72687  10.291   3.471   8.337 -0.0227  1.8053  0.5178
  527MOL0     H72688  10.034   3.183   8.676  0.0779  1.3247 -2.0224
  527MOL0     H72689   9.845   3.020   8.674 -4.2291 -0.4777  0.5781
  527MOL0     H72690   9.598   3.091   8.978 -1.7625  0.7685  0.9871
  527MOL0     H72691   9.456   3.150   8.886  0.7018  0.2133 -0.7886
  527MOL0     H72692   9.391   2.945   9.008  1.8172 -1.2832  1.9280
  527MOL0     H72693   9.413   2.899   8.836  0.3008 -3.6507  0.3338
  527MOL0     H72694   9.654   2.820   8.893  0.9578  2.2368  1.5006
  527MOL0     H72695   9.523   2.720   8.970 -2.6899  1.1230  2.2671
  527MOL0     H72696   9.621   2.942   9.149 -0.5908 -0.2262  4.2561
  527MOL0     H72697   9.735   2.822   9.098 -1.3784 -0.1921 -1.4658
  527MOL0     H72698   9.478   2.701   9.181  0.2530 -4.1091  2.3284
  527MOL0     H72699   9.644   2.641   9.180 -0.8700  0.1500 -0.5885
  527MOL0     H72700   9.511   2.699   9.404  1.5801 -1.4450 -0.9744
  527MOL0     H72701   9.538   2.865   9.364 -1.1865  0.1847 -1.4933
  527MOL0     H72702   9.738   2.833   9.494 -2.9042  1.2427 -0.6942
  527MOL0     H72703   9.798   2.747   9.341  0.6853  0.5948  1.0415
  527MOL0     H72704   9.663   2.632   9.585  0.3913  0.5622  1.6874
  527MOL0     H72705   9.838   2.620   9.544  0.4287  1.0151 -2.7692
  527MOL0     H72706   9.590   3.330   8.834 -0.3829 -2.6580  0.4158
  527MOL0     H72707   9.782   3.484   8.809 -1.6169 -0.5937 -0.8519
  527MOL0     H72708  10.195   3.535   8.845 -3.4801 -1.4582 -3.8072
  527MOL0     H72709  10.407   3.656   8.902  0.6284  0.5384 -0.3435
  527MOL0     H72710  10.854   1.702   8.648 -3.9712 -1.0592  0.9829
  527MOL0     H72711  10.795   1.490   8.693 -1.3304  1.2074  0.4256
  527MOL0     H72712  10.874   1.096   8.837  1.6463 -2.8540 -0.4933
  527MOL0     H72713  10.842   0.871   8.831  2.7195  1.4663  1.3636
  527MOL0     H72714  10.716   0.657   9.184 -0.2133 -0.1387  0.8678
  527MOL0     H72715  10.557   0.650   9.090 -0.7700 -1.4417 -3.6272
  527MOL0     H72716  10.653   0.429   9.150  1.5141 -0.1458  0.7806
  527MOL0     H72717  10.807   0.481   9.071 -0.1640  0.2752 -1.5849
  527MOL0     H72718  10.542   0.430   8.913 -0.7104 -2.5410  0.1210
  527MOL0     H72719  10.698   0.479   8.847  2.5942  0.2166  1.1543
  527MOL0     H72720  10.800   0.278   8.912 -0.9953  1.2322 -1.4764
  527MOL0     H72721  10.654   0.246   8.820  1.4465 -0.6904 -0.7937
  527MOL0     H72722  10.630   0.016   9.174  4.1419  0.2009  1.3711
  527MOL0     H72723  10.607   0.884   9.182  1.2946 -0.3229  0.1344
  527MOL0     H72724  10.505   1.198   9.184 -0.4700  0.5589  2.2379
  527MOL0     H72725  10.562   1.060   9.281  0.2784  2.1682  3.1704
  527MOL0     H72726  10.652   1.199   9.286 -3.7675 -0.2507  3.4871
  528MOL0     O72727   9.382   9.448   0.361 -0.3502 -0.2496  0.0397
  528MOL0     C72728   9.453   9.463   0.460  0.7393  0.0943  0.4201
  528MOL0     O72729   9.423   9.418   0.584 -0.8278 -0.2657  0.3977
  528MOL0     C72730   9.327   9.325   0.587 -0.5505  0.3553  0.6896
  528MOL0     C72731   9.339   9.199   0.522 -0.2609  0.5282 -0.4812
  528MOL0     C72732   9.232   9.115   0.540  0.5504  0.5136  0.3664
  528MOL0     C72733   9.118   9.140   0.621 -0.4126  0.4944 -0.3593
  528MOL0     O72734   9.027   9.036   0.620  0.8146 -0.6749 -0.7846
  528MOL0     C72735   8.905   9.047   0.699 -0.1931 -0.0777 -0.0168
  528MOL0     C72736   8.793   8.956   0.629 -0.0533 -0.1271 -1.0181
  528MOL0     C72737   8.647   8.990   0.678 -1.1991 -0.3135 -0.5314
  528MOL0     C72738   8.555   8.919   0.589  0.2928  0.3394  0.5856
  528MOL0     C72739   8.413   8.917   0.655  0.5348  0.7962 -0.5998
  528MOL0     C72740   8.310   8.857   0.559  0.1984 -0.4567 -0.2631
  528MOL0     C72741   8.177   8.879   0.625  0.0425 -0.1208  0.4051
  528MOL0     C72742   8.068   8.786   0.564 -0.4990  0.5253 -0.1394
  528MOL0     N72743   8.044   8.645   0.612 -0.5229 -0.6961  0.2979
  528MOL0     C72744   7.953   8.559   0.560  1.5191  1.0261  0.5946
  528MOL0     C72745   7.961   8.442   0.637  0.3326 -0.0906  0.7039
  528MOL0     C72746   7.916   8.312   0.594 -0.8296  0.0632 -0.1947
  528MOL0     C72747   7.943   8.206   0.706  0.4202 -0.2201  1.0986
  528MOL0     C72748   7.862   8.076   0.673 -0.7489  1.0176 -0.5257
  528MOL0     C72749   7.910   7.962   0.757 -0.3298  0.3974 -0.5165
  528MOL0     O72750   7.894   8.007   0.899  0.4153 -0.0778  0.2725
  528MOL0     C72751   7.961   7.930   0.995  0.1274 -0.3008  0.5824
  528MOL0     C72752   7.977   7.982   1.129 -0.5920 -0.1927  0.2196
  528MOL0     C72753   8.036   7.916   1.233  1.0824  0.7278 -0.2584
  528MOL0     C72754   8.032   7.976   1.370  0.7730 -0.6717  0.6068
  528MOL0     C72755   8.105   7.789   1.204  1.1608  0.5616  0.0381
  528MOL0     C72756   8.179   7.701   1.304  0.0178 -0.4670  0.1211
  528MOL0     O72757   8.209   7.760   1.419  0.2762  0.3526  0.2989
  528MOL0     C72758   8.249   7.666   1.509 -1.1654 -0.6070 -0.3002
  528MOL0     C72759   8.384   7.633   1.512 -0.2749  0.0769  0.4909
  528MOL0     C72760   8.423   7.528   1.600  0.2531  0.4150  0.3573
  528MOL0     C72761   8.329   7.465   1.688 -0.7444 -0.0091 -0.1226
  528MOL0     O72762   8.370   7.346   1.739 -0.5402  0.1180 -0.3776
  528MOL0     C72763   8.339   7.331   1.881  0.1775  1.0501 -0.9987
  528MOL0     C72764   8.456   7.247   1.945  0.2212  0.0294 -0.0761
  528MOL0     C72765   8.497   7.289   2.082 -0.0992 -0.5128 -0.2087
  528MOL0     C72766   8.619   7.212   2.132 -0.3385 -0.0397  0.3667
  528MOL0     C72767   8.589   7.097   2.225  0.0263 -0.1688 -0.6887
  528MOL0     C72768   8.696   7.078   2.340  1.3910  0.7051 -0.8270
  528MOL0     C72769   8.834   7.052   2.296  0.4940 -0.3314  0.0907
  528MOL0     C72770   8.930   7.020   2.411 -0.6293 -1.0396  0.7847
  528MOL0    Cl72771   9.087   7.037   2.316  0.2457 -0.4488 -0.4888
  528MOL0     C72772   8.199   7.505   1.688  0.5628 -1.3833  0.7487
  528MOL0     C72773   8.159   7.618   1.603  0.0206  0.8814  0.2374
  528MOL0     O72774   8.184   7.580   1.281  0.0162 -0.3106  0.4511
  528MOL0     C72775   8.093   7.734   1.077  0.0557 -0.2347  0.0962
  528MOL0     C72776   8.011   7.798   0.974 -0.8033 -1.2647 -0.3447
  528MOL0     N72777   8.060   8.469   0.730  0.5650  0.6453  0.0644
  528MOL0     N72778   8.118   8.581   0.710 -0.0190  0.2534  1.0306
  528MOL0     C72779   9.120   9.264   0.697 -0.2701  0.8937 -0.7687
  528MOL0     C72780   9.229   9.352   0.674  0.2060 -0.3792 -0.8738
  528MOL0     C72781   9.587   9.525   0.457  0.1849 -0.2778 -0.3158
  528MOL0     C72782   9.623   9.595   0.575 -0.5333 -0.2027  0.4284
  528MOL0     C72783   9.728   9.689   0.572  1.0347 -0.8026  0.2965
  528MOL0     C72784   9.821   9.704   0.468  0.1856 -0.6948 -0.5135
  528MOL0     O72785   9.920   9.795   0.491 -1.0003  0.1650 -0.2234
  528MOL0     C72786  10.033   9.793   0.408  0.2510  0.2220  0.8314
  528MOL0     C72787  10.084   9.931   0.396  0.0125 -0.9864 -0.4325
  528MOL0     C72788  10.221   9.930   0.327 -0.1031 -0.1646 -1.1868
  528MOL0     C72789  10.345   9.873   0.407  0.1061  0.2291 -0.2356
  528MOL0     C72790  10.338   9.910   0.551 -0.2677  0.3758  0.3320
  528MOL0     C72791  10.327   9.936   0.671  0.0282 -0.4949  0.4612
  528MOL0     C72792   9.794   9.614   0.360 -0.0773  0.2866  0.4232
  528MOL0     C72793   9.681   9.530   0.351  0.5368  0.1562  0.1371
  528MOL0     C72794   9.669   9.429   0.229  0.1380 -0.2759  0.0306
  528MOL0     H72795   9.419   9.178   0.453  2.9285  0.7856  2.8139
  528MOL0     H72796   9.227   9.023   0.483 -0.0110  1.5310 -1.3250
  528MOL0     H72797   8.867   9.150   0.704  0.6564  0.1799  1.3333
  528MOL0     H72798   8.922   9.001   0.796  0.8248 -2.2660 -1.1495
  528MOL0     H72799   8.784   8.981   0.523 -0.1333  4.3777 -0.1299
  528MOL0     H72800   8.815   8.849   0.636  2.0070  0.1902 -2.0287
  528MOL0     H72801   8.620   8.956   0.778  0.4530  0.6588  0.2787
  528MOL0     H72802   8.631   9.098   0.688 -0.0759 -0.2158  0.3958
  528MOL0     H72803   8.548   8.962   0.488 -0.1103 -2.7230 -0.7875
  528MOL0     H72804   8.591   8.817   0.576 -3.4073 -0.9538 -0.5612
  528MOL0     H72805   8.387   9.019   0.686 -2.9135  0.3856 -1.6684
  528MOL0     H72806   8.429   8.863   0.748  0.2192  3.3985  1.0655
  528MOL0     H72807   8.312   8.912   0.464  4.0350 -2.2482 -1.4105
  528MOL0     H72808   8.323   8.751   0.538  0.5553 -0.2728 -1.0252
  528MOL0     H72809   8.156   8.983   0.596  0.6554 -0.7398 -2.6178
  528MOL0     H72810   8.183   8.857   0.732  1.9113 -2.1399 -0.0463
  528MOL0     H72811   7.973   8.837   0.544 -0.7488 -0.4019 -1.4462
  528MOL0     H72812   8.116   8.757   0.471  3.5379 -1.1586  2.2244
  528MOL0     H72813   7.894   8.561   0.469  0.9471 -3.3234  0.6525
  528MOL0     H72814   7.949   8.276   0.496 -1.1809 -2.0833  0.4051
  528MOL0     H72815   7.807   8.317   0.592 -0.8601  1.2653  1.8179
  528MOL0     H72816   8.050   8.182   0.705  0.7533  0.8643 -2.3022
  528MOL0     H72817   7.923   8.247   0.806  1.4940  2.5219  0.2754
  528MOL0     H72818   7.755   8.091   0.688 -0.9516 -0.3089 -0.5130
  528MOL0     H72819   7.875   8.045   0.569  0.1873 -0.8435  0.1002
  528MOL0     H72820   7.855   7.868   0.744 -0.2393  0.6135 -2.8331
  528MOL0     H72821   8.010   7.935   0.721 -1.0340 -3.0748 -0.2811
  528MOL0     H72822   7.935   8.081   1.140  0.7777  0.4186  0.1394
  528MOL0     H72823   7.965   8.062   1.376 -1.6328 -2.2512 -1.7720
  528MOL0     H72824   8.134   8.008   1.395  0.5469 -0.5264  1.3958
  528MOL0     H72825   7.990   7.907   1.444  0.3444 -2.9914 -1.6438
  528MOL0     H72826   8.461   7.680   1.451  0.4136 -1.7399 -0.1198
  528MOL0     H72827   8.526   7.492   1.601  0.7823  1.8508  0.2573
  528MOL0     H72828   8.316   7.426   1.930  0.2028 -1.1175  3.7341
  528MOL0     H72829   8.249   7.269   1.884  0.8796  0.0034 -0.9160
  528MOL0     H72830   8.420   7.144   1.945 -2.1563  0.7850 -1.2763
  528MOL0     H72831   8.542   7.266   1.880  1.5572  1.2743  1.9268
  528MOL0     H72832   8.419   7.255   2.151 -0.7049 -3.9005 -2.3378
  528MOL0     H72833   8.507   7.397   2.079 -3.4836 -0.0563  0.0658
  528MOL0     H72834   8.675   7.280   2.196  2.9980 -3.5311  1.5217
  528MOL0     H72835   8.687   7.183   2.052 -0.8240 -1.4659  0.4406
  528MOL0     H72836   8.484   7.090   2.257  0.9582 -2.6900  2.3213
  528MOL0     H72837   8.585   7.004   2.167 -3.6095 -1.1484  0.8155
  528MOL0     H72838   8.675   6.985   2.394  0.8923  0.3269 -1.6516
  528MOL0     H72839   8.697   7.162   2.411  0.8522 -0.1217  0.2054
  528MOL0     H72840   8.858   7.152   2.258 -0.8530 -0.7055 -1.8645
  528MOL0     H72841   8.837   6.977   2.217 -3.5386 -1.7104  0.9856
  528MOL0     H72842   8.914   6.921   2.456 -4.7890 -1.1906 -0.6207
  528MOL0     H72843   8.916   7.087   2.496 -0.3669 -0.9874  0.7882
  528MOL0     H72844   8.115   7.454   1.735  0.8644 -1.9342  0.7064
  528MOL0     H72845   8.054   7.646   1.608 -0.6068 -1.1053 -0.6524
  528MOL0     H72846   8.130   7.636   1.052  1.0333  0.6177 -2.0725
  528MOL0     H72847   7.992   7.744   0.881  0.5932 -1.5236 -0.5011
  528MOL0     H72848   9.029   9.277   0.754 -0.0573 -2.7042  0.6096
  528MOL0     H72849   9.228   9.455   0.710 -0.7223 -1.1796  1.5850
  528MOL0     H72850   9.566   9.596   0.667 -3.3687 -1.0661 -1.1760
  528MOL0     H72851   9.753   9.743   0.662 -1.6806  0.9803  0.1017
  528MOL0     H72852  10.102   9.718   0.449 -0.0641 -0.3255  0.3779
  528MOL0     H72853  10.004   9.754   0.310 -0.4770 -1.6772  1.7536
  528MOL0     H72854  10.081   9.980   0.493 -1.6207 -2.1492  0.1512
  528MOL0     H72855  10.010   9.993   0.344 -0.1431 -1.5504 -0.8967
  528MOL0     H72856  10.207   9.875   0.233 -2.1783  0.5349 -1.3381
  528MOL0     H72857  10.249  10.033   0.299 -0.6398  0.1488 -0.5921
  528MOL0     H72858  10.439   9.916   0.372  1.6660 -0.9695  2.2255
  528MOL0     H72859  10.340   9.765   0.394 -1.0538 -0.3310  3.7269
  528MOL0     H72860  10.317   9.966   0.773  2.2559  0.4962  0.4416
  528MOL0     H72861   9.866   9.610   0.279 -1.1134  0.9135 -0.5624
  528MOL0     H72862   9.666   9.486   0.135 -3.2647  1.1838  0.8559
  528MOL0     H72863   9.741   9.347   0.226 -0.5876 -0.9498  0.5377
  528MOL0     H72864   9.581   9.366   0.243  1.1656 -1.0105  4.5440
  529MOL0     O72865  11.120   5.241   0.516  0.2912 -0.2351  0.3825
  529MOL0     C72866  10.997   5.222   0.509 -0.2651  0.2000 -0.1222
  529MOL0     O72867  10.937   5.101   0.514 -0.3835  0.2721 -0.5077
  529MOL0     C72868  11.006   4.994   0.576 -0.3013  0.0787  0.1812
  529MOL0     C72869  10.967   4.865   0.552 -0.0659  0.1488  0.4759
  529MOL0     C72870  11.016   4.744   0.608  1.2125 -0.0784 -0.0725
  529MOL0     C72871  11.122   4.763   0.686 -1.2346  0.1474  0.2292
  529MOL0     O72872  11.172   4.642   0.730  0.3661 -0.4784  0.2076
  529MOL0     C72873  11.286   4.642   0.815 -0.0623  0.1727  0.3410
  529MOL0     C72874  11.413   4.648   0.720  0.3056  0.9956 -0.1786
  529MOL0     C72875  11.424   4.535   0.619  0.2491 -0.0807  0.6333
  529MOL0     C72876  11.488   4.571   0.486 -0.8540  0.8618 -0.8574
  529MOL0     C72877  11.424   4.681   0.405 -0.1229 -0.2203  0.2666
  529MOL0     C72878  11.533   4.768   0.338 -0.1328  0.1153  1.0438
  529MOL0     C72879  11.567   4.881   0.435 -0.3587 -0.4904 -0.4950
  529MOL0     C72880  11.657   4.983   0.368 -0.0051 -0.8419 -0.6814
  529MOL0     N72881  11.779   4.928   0.320  0.1659 -0.1102  0.1146
  529MOL0     C72882  11.863   4.864   0.408 -0.8679  0.0312  0.6907
  529MOL0     C72883  11.970   4.858   0.325  0.3408  0.1045 -0.9751
  529MOL0     C72884  12.094   4.796   0.372  0.8279 -0.1903  0.2040
  529MOL0     C72885  12.104   4.651   0.312 -0.1103  0.1929  0.1756
  529MOL0     C72886  12.237   4.586   0.353 -0.2225  0.3137 -0.0279
  529MOL0     C72887  12.366   4.652   0.297  0.8392 -0.4185  0.6744
  529MOL0     O72888  12.466   4.575   0.358  0.2471  0.1814 -0.1053
  529MOL0     C72889  12.603   4.587   0.328 -0.8458  0.0160 -0.4484
  529MOL0     C72890  12.650   4.709   0.274  0.1261 -0.3804 -0.7437
  529MOL0     C72891  12.783   4.739   0.255  0.6405  0.1607 -0.3403
  529MOL0     C72892  12.823   4.869   0.189 -0.2759 -0.1072  0.3158
  529MOL0     C72893  12.870   4.636   0.302 -1.1605  0.3506  0.6193
  529MOL0     C72894  13.022   4.642   0.306  0.0197 -0.5199  0.2480
  529MOL0     O72895  13.095   4.527   0.288  0.5827 -0.7186 -0.4320
  529MOL0     C72896  13.230   4.538   0.297  0.0010  0.2849  0.8337
  529MOL0     C72897  13.289   4.621   0.201  0.4695 -0.0250 -0.5648
  529MOL0     C72898  13.434   4.645   0.208 -0.7738 -0.0994 -0.0565
  529MOL0     C72899  13.503   4.580   0.308 -0.8258 -0.7495  0.4909
  529MOL0     O72900  13.638   4.605   0.338 -0.8983  1.2431  0.9253
  529MOL0     C72901  13.694   4.730   0.322 -0.9835 -0.7114  0.1964
  529MOL0     C72902  13.845   4.743   0.333 -0.7636 -0.1962  0.2586
  529MOL0     C72903  13.918   4.670   0.228  1.2087  0.0194 -0.1222
  529MOL0     C72904  13.864   4.681   0.082  0.7463 -0.3147  0.6633
  529MOL0     C72905  13.968   4.680  -0.021 -0.6793  0.0574  0.8302
  529MOL0     C72906  14.078   4.568  -0.024  1.1576 -0.7940  0.0809
  529MOL0     C72907  14.027   4.419   0.026 -0.3315 -1.0232  0.0388
  529MOL0     C72908  14.120   4.311  -0.025 -0.2764  0.0318 -0.1059
  529MOL0    Cl72909  14.042   4.166   0.020  0.0095  0.0450 -0.1518
  529MOL0     C72910  13.447   4.490   0.389  0.3410  0.4593  0.1028
  529MOL0     C72911  13.306   4.478   0.393 -0.3522  1.3585 -0.2124
  529MOL0     O72912  13.065   4.756   0.337 -0.0618  0.5511 -0.1329
  529MOL0     C72913  12.821   4.515   0.358  0.2067  0.0581  0.3096
  529MOL0     C72914  12.682   4.486   0.359 -1.3026  0.4067 -0.9898
  529MOL0     N72915  11.946   4.898   0.204 -0.8088 -0.7859 -0.0955
  529MOL0     N72916  11.822   4.948   0.192 -0.0419  0.1867 -0.4494
  529MOL0     C72917  11.173   4.887   0.729  0.0739  0.4777  0.0381
  529MOL0     C72918  11.099   5.001   0.682 -0.7798  0.5204 -0.0953
  529MOL0     C72919  10.913   5.336   0.466 -0.3005  1.2065 -0.6025
  529MOL0     C72920  10.806   5.308   0.378 -0.4491 -0.6918  0.6695
  529MOL0     C72921  10.719   5.411   0.335 -0.1570  0.0852  0.0301
  529MOL0     C72922  10.741   5.541   0.381 -0.4477  0.5391 -0.2284
  529MOL0     O72923  10.690   5.649   0.329  0.1947 -0.4577  0.0408
  529MOL0     C72924  10.579   5.638   0.230  0.5933  0.1392  0.0077
  529MOL0     C72925  10.534   5.785   0.203  0.0891  0.2133  0.1356
  529MOL0     C72926  10.408   5.791   0.113  0.5867  0.0045  0.4839
  529MOL0     C72927  10.358   5.929   0.079  0.7105 -0.4371  0.7942
  529MOL0     C72928  10.333   6.016   0.190 -0.5908 -0.4861  0.5980
  529MOL0     C72929  10.324   6.095   0.276  0.0301  0.6330 -0.3280
  529MOL0     C72930  10.848   5.560   0.478 -0.4700 -0.0859 -0.0482
  529MOL0     C72931  10.933   5.465   0.522 -0.2959 -0.1613  0.5734
  529MOL0     C72932  11.038   5.498   0.630 -0.1126 -0.7613 -0.4049
  529MOL0     H72933  10.895   4.844   0.474  0.3227  0.3324  0.0608
  529MOL0     H72934  10.971   4.647   0.588  3.0149 -0.7734 -1.0012
  529MOL0     H72935  11.288   4.543   0.861  0.6267 -0.0213 -0.0887
  529MOL0     H72936  11.287   4.717   0.895 -1.5246  0.1560  0.4085
  529MOL0     H72937  11.420   4.740   0.660 -2.3590  1.0149 -0.6093
  529MOL0     H72938  11.497   4.641   0.790  0.2258 -1.6547 -0.2461
  529MOL0     H72939  11.476   4.463   0.683  0.3690  1.3208  2.2022
  529MOL0     H72940  11.328   4.492   0.591  0.5243  0.4635 -1.2541
  529MOL0     H72941  11.592   4.598   0.506 -0.8888 -0.4503  1.3280
  529MOL0     H72942  11.488   4.483   0.422 -0.8562  1.1301 -1.2341
  529MOL0     H72943  11.363   4.749   0.464  3.6048  0.3658  3.9278
  529MOL0     H72944  11.360   4.648   0.323  1.9386  1.0470 -1.9796
  529MOL0     H72945  11.621   4.706   0.320  0.3166  0.9642  0.2015
  529MOL0     H72946  11.496   4.822   0.250  1.1757 -0.9183 -0.1828
  529MOL0     H72947  11.599   4.855   0.536 -1.7324  1.8888  0.6487
  529MOL0     H72948  11.473   4.935   0.452 -1.3305 -1.9446 -1.1135
  529MOL0     H72949  11.604   5.027   0.283  4.0736  0.5674 -2.7696
  529MOL0     H72950  11.676   5.066   0.437 -1.7134 -1.3419  0.4504
  529MOL0     H72951  11.847   4.833   0.511  0.1720  4.0543  2.2640
  529MOL0     H72952  12.081   4.790   0.481 -3.8648 -0.8700 -0.1651
  529MOL0     H72953  12.181   4.844   0.327  0.8154 -1.1513 -0.8960
  529MOL0     H72954  12.018   4.593   0.348 -0.6980  1.8392  1.5595
  529MOL0     H72955  12.100   4.655   0.203 -2.3823 -3.8182 -0.0800
  529MOL0     H72956  12.245   4.573   0.462  1.8424 -0.7808 -0.2605
  529MOL0     H72957  12.239   4.485   0.312  0.9138  0.7000 -0.9644
  529MOL0     H72958  12.366   4.647   0.188  0.1467  0.3033  0.6262
  529MOL0     H72959  12.368   4.756   0.333 -1.5084  1.0316 -2.7523
  529MOL0     H72960  12.569   4.766   0.230 -0.4764 -0.2979  0.4258
  529MOL0     H72961  12.859   4.942   0.262 -0.0956  1.1833 -1.0108
  529MOL0     H72962  12.732   4.912   0.147  1.3311  2.3178 -0.9309
  529MOL0     H72963  12.897   4.850   0.110  1.3345  0.0912  1.7225
  529MOL0     H72964  13.223   4.666   0.127 -1.2945 -2.8962 -0.8787
  529MOL0     H72965  13.482   4.710   0.135  0.3202 -0.9258 -0.1005
  529MOL0     H72966  13.664   4.780   0.230  2.3519  1.2447 -0.0046
  529MOL0     H72967  13.639   4.780   0.402 -0.8583 -4.6335  3.0405
  529MOL0     H72968  13.884   4.844   0.347  2.2011 -1.2814  0.5993
  529MOL0     H72969  13.870   4.701   0.431 -3.7560 -2.2507  0.2865
  529MOL0     H72970  13.932   4.565   0.258 -1.1857 -0.7061 -1.2586
  529MOL0     H72971  14.020   4.710   0.225  1.2446 -0.1006 -0.6597
  529MOL0     H72972  13.823   4.782   0.071 -0.3708 -0.7441  0.7413
  529MOL0     H72973  13.788   4.607   0.055  0.6414  0.2620 -0.7113
  529MOL0     H72974  13.911   4.670  -0.114 -0.2336  1.9013  0.3149
  529MOL0     H72975  14.011   4.780  -0.028  0.8782 -0.5657  1.1875
  529MOL0     H72976  14.152   4.604   0.048  1.2017  2.7296 -1.4952
  529MOL0     H72977  14.122   4.562  -0.124 -1.7058 -0.3346 -1.3248
  529MOL0     H72978  13.927   4.397  -0.010 -0.8252  0.8270  0.1817
  529MOL0     H72979  14.029   4.404   0.135 -2.7031 -2.9561 -0.1083
  529MOL0     H72980  14.218   4.324   0.022 -1.0194  3.2802  0.8228
  529MOL0     H72981  14.135   4.324  -0.133  0.9058 -2.0065 -0.2240
  529MOL0     H72982  13.514   4.442   0.460  0.5579  0.7413  0.0933
  529MOL0     H72983  13.258   4.407   0.458  0.6862 -0.5459 -1.4319
  529MOL0     H72984  12.887   4.434   0.387 -0.1234 -0.1400  0.5158
  529MOL0     H72985  12.640   4.391   0.392  1.3198  0.1685  2.2101
  529MOL0     H72986  11.249   4.896   0.806 -1.1431 -0.8603  1.4591
  529MOL0     H72987  11.134   5.097   0.719  0.5899 -0.1406  0.4032
  529MOL0     H72988  10.791   5.214   0.326  2.3076 -1.9299  1.9195
  529MOL0     H72989  10.641   5.385   0.265  0.6092 -0.6738 -0.5793
  529MOL0     H72990  10.590   5.580   0.138 -2.0207  0.2624 -0.4795
  529MOL0     H72991  10.491   5.597   0.280 -0.7543  0.8941 -1.6217
  529MOL0     H72992  10.616   5.822   0.139  1.9919 -4.0461 -0.1999
  529MOL0     H72993  10.528   5.836   0.299  1.7926 -0.4046  0.6028
  529MOL0     H72994  10.427   5.755   0.011  1.2150  0.3541  0.4716
  529MOL0     H72995  10.326   5.731   0.153 -0.5696  0.8743 -0.4669
  529MOL0     H72996  10.268   5.923   0.017  0.6512 -1.5832  0.9745
  529MOL0     H72997  10.428   5.988   0.020 -1.1947  1.6309  0.4534
  529MOL0     H72998  10.312   6.158   0.362 -2.6664 -0.5473  0.2676
  529MOL0     H72999  10.859   5.657   0.525 -3.1644  0.1766  0.2035
  529MOL0     H73000  11.003   5.586   0.684  1.0016 -0.0363 -0.8224
  529MOL0     H73001  11.057   5.414   0.698 -0.6598 -1.4460 -1.0811
  529MOL0     H73002  11.129   5.521   0.573 -0.1891  1.4723  0.2622
  530MOL0     O73003   5.516   6.055   2.095  0.8099  0.2798 -0.2166
  530MOL0     C73004   5.426   5.981   2.051  0.2847  0.5148 -0.3326
  530MOL0     O73005   5.421   5.944   1.917 -0.7419  0.2888 -0.2762
  530MOL0     C73006   5.516   6.002   1.834 -0.6599 -0.3445  0.1992
  530MOL0     C73007   5.617   5.925   1.783 -0.2475 -0.0437 -0.0062
  530MOL0     C73008   5.719   5.968   1.690  0.1024 -0.1673  0.0607
  530MOL0     C73009   5.707   6.102   1.644 -0.1636 -0.0300 -0.3745
  530MOL0     O73010   5.791   6.162   1.553  0.7209  0.6676 -0.2073
  530MOL0     C73011   5.907   6.093   1.502 -0.5410  0.4478  0.3785
  530MOL0     C73012   5.872   6.023   1.377  0.5096 -0.0074 -1.0889
  530MOL0     C73013   5.972   5.916   1.343  0.7217 -0.4039 -0.5497
  530MOL0     C73014   5.969   5.865   1.197 -0.2236 -0.6458  0.1582
  530MOL0     C73015   6.049   5.737   1.175 -0.5196  0.4798  0.0406
  530MOL0     C73016   6.207   5.740   1.202  0.4977  0.1946  0.8554
  530MOL0     C73017   6.273   5.834   1.097 -0.2069 -0.0884 -0.1204
  530MOL0     C73018   6.267   5.772   0.957  0.2606 -0.1508  0.3005
  530MOL0     N73019   6.375   5.826   0.885 -0.0933 -0.4051 -0.1253
  530MOL0     C73020   6.417   5.953   0.887  0.1886 -1.2253  0.3893
  530MOL0     C73021   6.516   5.954   0.797 -0.0838  0.4702 -0.2254
  530MOL0     C73022   6.599   6.074   0.750  0.6386 -0.1701  0.3981
  530MOL0     C73023   6.696   6.128   0.856  1.2199  0.5581  0.2835
  530MOL0     C73024   6.785   6.249   0.808  0.2854  0.3911 -0.2090
  530MOL0     C73025   6.873   6.207   0.700 -1.6174 -0.2187  0.5006
  530MOL0     O73026   6.933   6.075   0.722 -0.1986 -0.1984  0.3325
  530MOL0     C73027   7.028   6.045   0.624  0.5738  0.9330 -0.9075
  530MOL0     C73028   7.012   5.926   0.551 -0.1178  0.6653 -1.0987
  530MOL0     C73029   7.087   5.885   0.443 -1.1443 -0.0192 -0.1694
  530MOL0     C73030   7.050   5.779   0.349 -0.5139 -0.4511 -0.2849
  530MOL0     C73031   7.191   5.974   0.403  0.2530  0.3434 -0.0979
  530MOL0     C73032   7.268   5.955   0.283 -0.1689  0.2892  0.6643
  530MOL0     O73033   7.400   5.989   0.297  0.2192 -0.0776 -0.0790
  530MOL0     C73034   7.492   5.935   0.217 -0.1956  0.6109  0.9403
  530MOL0     C73035   7.482   5.912   0.076 -0.0806  0.0305 -0.1473
  530MOL0     C73036   7.583   5.855   0.004  0.3654  0.2583  0.5405
  530MOL0     C73037   7.693   5.798   0.071 -0.8500 -0.6439  0.8997
  530MOL0     O73038   7.809   5.757   0.006  0.5299  0.3464  0.1740
  530MOL0     C73039   7.787   5.642  -0.074 -0.4894 -0.4441 -0.5905
  530MOL0     C73040   7.917   5.585  -0.127  1.2834 -0.3288 -0.3996
  530MOL0     C73041   7.980   5.643  -0.256  0.5859  0.2253 -0.1124
  530MOL0     C73042   8.054   5.529  -0.338 -0.2085 -0.5440  0.5982
  530MOL0     C73043   8.191   5.507  -0.269  1.0676  1.2389  0.4264
  530MOL0     C73044   8.271   5.403  -0.353 -1.0993  0.6796  0.0562
  530MOL0     C73045   8.409   5.376  -0.296  0.3518 -0.1638 -0.1363
  530MOL0     C73046   8.478   5.292  -0.406  1.3297  0.2123 -0.5803
  530MOL0    Cl73047   8.592   5.402  -0.494 -0.0625 -0.1840  0.5454
  530MOL0     C73048   7.708   5.831   0.204 -0.4479  0.3738  0.2867
  530MOL0     C73049   7.611   5.900   0.279 -0.3047 -0.2318 -0.2854
  530MOL0     O73050   7.221   5.913   0.179 -0.9950 -0.2636 -0.0618
  530MOL0     C73051   7.222   6.087   0.487  0.5955  1.4593 -0.4557
  530MOL0     C73052   7.136   6.122   0.592 -0.7384 -0.9117  0.4344
  530MOL0     N73053   6.546   5.836   0.745 -0.2642  0.5301  0.6050
  530MOL0     N73054   6.454   5.759   0.793  0.4839 -0.6194 -0.4168
  530MOL0     C73055   5.606   6.182   1.700  0.4810 -0.0262  0.0798
  530MOL0     C73056   5.515   6.140   1.796  0.0886 -0.6531  0.4246
  530MOL0     C73057   5.313   5.946   2.139  1.1247  0.2222  0.5212
  530MOL0     C73058   5.209   5.878   2.069 -1.1915 -0.0306  0.4241
  530MOL0     C73059   5.105   5.827   2.141 -0.0190  0.6355 -1.0354
  530MOL0     C73060   5.105   5.835   2.285  0.2288 -0.6854 -0.7373
  530MOL0     O73061   5.002   5.762   2.350 -0.5477 -0.8468  0.1737
  530MOL0     C73062   4.979   5.774   2.488 -0.9126  0.0057 -0.7751
  530MOL0     C73063   4.889   5.884   2.530 -0.5788  0.4728 -0.3321
  530MOL0     C73064   4.766   5.903   2.439 -0.0806 -0.4956  0.2759
  530MOL0     C73065   4.677   5.790   2.422 -0.6909  0.7799 -0.3270
  530MOL0     C73066   4.542   5.826   2.377 -0.2914 -0.6535  0.1400
  530MOL0     C73067   4.425   5.825   2.355  0.9899 -0.5839  0.2201
  530MOL0     C73068   5.199   5.919   2.344 -0.7872 -0.2450  0.7417
  530MOL0     C73069   5.307   5.964   2.276 -1.1303  0.7440 -0.0171
  530MOL0     C73070   5.422   6.010   2.357 -0.8850 -0.7816 -0.1492
  530MOL0     H73071   5.614   5.820   1.810  2.6837  0.1832  1.5409
  530MOL0     H73072   5.789   5.894   1.654  0.8495 -0.0159  1.1663
  530MOL0     H73073   5.952   6.034   1.582 -1.0014  0.6376  0.7837
  530MOL0     H73074   5.980   6.168   1.470  0.7560 -0.9610 -0.0841
  530MOL0     H73075   5.776   5.971   1.385  0.7550 -0.5975 -1.7977
  530MOL0     H73076   5.870   6.099   1.299 -2.8834  1.7436  0.5061
  530MOL0     H73077   6.070   5.938   1.386 -0.6889  1.0660  2.2323
  530MOL0     H73078   5.942   5.834   1.409  0.2197  0.7129  0.6578
  530MOL0     H73079   5.864   5.859   1.168 -0.5079  1.5211  0.5087
  530MOL0     H73080   6.018   5.932   1.126  0.5464 -2.7305 -1.3759
  530MOL0     H73081   6.034   5.702   1.072  1.3118 -0.0613 -0.0873
  530MOL0     H73082   6.023   5.656   1.244 -0.4374  0.9520  0.6316
  530MOL0     H73083   6.228   5.779   1.302  0.7150  0.3343  0.7570
  530MOL0     H73084   6.233   5.634   1.205 -0.3930 -0.0437  0.4805
  530MOL0     H73085   6.375   5.837   1.137 -0.7380  0.5138  1.2401
  530MOL0     H73086   6.231   5.932   1.122 -0.6047 -0.8356  2.3332
  530MOL0     H73087   6.265   5.662   0.964 -1.0860 -0.6986 -4.6872
  530MOL0     H73088   6.168   5.796   0.916  0.2886 -1.8571 -0.8952
  530MOL0     H73089   6.397   6.048   0.933  1.1014 -0.5257 -0.5898
  530MOL0     H73090   6.532   6.157   0.725 -0.3113  0.1447  3.5351
  530MOL0     H73091   6.639   6.042   0.654  1.0870 -1.1526  0.9002
  530MOL0     H73092   6.636   6.152   0.944 -1.0889 -2.4524 -0.2921
  530MOL0     H73093   6.758   6.049   0.900  1.9477  2.2821  2.5068
  530MOL0     H73094   6.714   6.328   0.782 -0.8590  0.4278  2.6793
  530MOL0     H73095   6.840   6.287   0.895 -1.4092  1.4590  0.4515
  530MOL0     H73096   6.826   6.210   0.601 -1.1750 -0.7592  0.2707
  530MOL0     H73097   6.947   6.288   0.698 -2.1908  0.3088 -0.2535
  530MOL0     H73098   6.925   5.867   0.578  0.4431 -0.6631 -2.1059
  530MOL0     H73099   7.001   5.705   0.413 -0.1110 -1.7301 -1.3936
  530MOL0     H73100   7.136   5.739   0.294  0.7895  1.1405  0.5025
  530MOL0     H73101   6.985   5.809   0.267 -0.6632 -1.7762 -0.6843
  530MOL0     H73102   7.399   5.948   0.017  0.3316  1.0078 -0.1519
  530MOL0     H73103   7.570   5.844  -0.103 -1.6473  1.0264  0.6549
  530MOL0     H73104   7.728   5.568  -0.019  2.1038 -2.5347 -0.4524
  530MOL0     H73105   7.726   5.671  -0.160 -1.8893  1.7520  1.0237
  530MOL0     H73106   7.985   5.580  -0.041  0.4038 -1.3252  0.2592
  530MOL0     H73107   7.903   5.478  -0.147 -0.1647 -0.5319  1.4854
  530MOL0     H73108   8.045   5.726  -0.226  0.5307 -0.7474  3.0385
  530MOL0     H73109   7.904   5.693  -0.317 -0.2650  2.6107  2.6768
  530MOL0     H73110   8.070   5.563  -0.441 -0.3386 -0.9196  0.4535
  530MOL0     H73111   7.993   5.440  -0.350  0.3276 -0.7401 -0.8255
  530MOL0     H73112   8.249   5.600  -0.265 -0.6348  2.3960 -0.3653
  530MOL0     H73113   8.179   5.469  -0.167  1.5925 -2.7417 -0.8442
  530MOL0     H73114   8.272   5.444  -0.455 -1.0837  0.1278 -0.1692
  530MOL0     H73115   8.214   5.311  -0.367  0.0469  0.3803 -4.0174
  530MOL0     H73116   8.408   5.324  -0.200  1.3858  1.0479  0.5558
  530MOL0     H73117   8.475   5.463  -0.286  0.4458 -0.4750  2.7677
  530MOL0     H73118   8.409   5.251  -0.480 -0.4845 -0.4692  1.3942
  530MOL0     H73119   8.519   5.206  -0.353  0.2316  0.1173  0.1528
  530MOL0     H73120   7.799   5.828   0.264 -1.3819 -0.2657  1.7496
  530MOL0     H73121   7.630   5.924   0.383 -1.3926  1.4718 -0.4426
  530MOL0     H73122   7.298   6.159   0.460 -1.4888  4.5405  1.2141
  530MOL0     H73123   7.161   6.205   0.657  2.8816 -1.8769  0.4672
  530MOL0     H73124   5.595   6.281   1.655 -0.0600  0.3192  0.9391
  530MOL0     H73125   5.435   6.211   1.812  1.7172  2.0813 -2.4576
  530MOL0     H73126   5.204   5.869   1.961 -1.6754  1.8481  0.2577
  530MOL0     H73127   5.021   5.776   2.095  0.4029  1.0161 -2.2653
  530MOL0     H73128   4.931   5.682   2.523  0.2788  0.0027  0.9561
  530MOL0     H73129   5.067   5.778   2.553  0.7776 -2.3352 -2.7527
  530MOL0     H73130   4.952   5.973   2.521  1.8891 -0.9543  1.7179
  530MOL0     H73131   4.858   5.869   2.634  0.9576 -0.5831  0.0009
  530MOL0     H73132   4.706   5.986   2.479  1.4025  1.6707 -1.7469
  530MOL0     H73133   4.789   5.938   2.338 -0.4745 -1.4691 -0.1706
  530MOL0     H73134   4.677   5.740   2.520  0.1418  3.0861  0.9185
  530MOL0     H73135   4.713   5.710   2.356  0.1893  1.1008 -0.2439
  530MOL0     H73136   4.319   5.835   2.338  1.1864 -1.0896 -1.5319
  530MOL0     H73137   5.222   5.932   2.449 -1.6700 -0.5832  0.9934
  530MOL0     H73138   5.435   5.963   2.455  1.1178  1.7538  0.9169
  530MOL0     H73139   5.519   5.987   2.312 -0.2878  2.1338 -0.5482
  530MOL0     H73140   5.413   6.116   2.380  4.5598 -0.0736  0.0624
  531MOL0     O73141  10.612  11.056   7.996  0.5361  1.1982  0.7544
  531MOL0     C73142  10.680  10.963   8.036 -0.2186  1.8746 -1.4454
  531MOL0     O73143  10.770  10.965   8.129  0.2896 -0.8355 -0.2856
  531MOL0     C73144  10.808  11.085   8.182  0.9143  0.8016 -0.3038
  531MOL0     C73145  10.886  11.177   8.116  0.2912  0.1042  0.8405
  531MOL0     C73146  10.922  11.302   8.162 -0.0797  1.2202 -0.9828
  531MOL0     C73147  10.885  11.339   8.290  0.0389 -0.1368  0.5716
  531MOL0     O73148  10.919  11.468   8.329 -0.5122 -0.8725  0.3449
  531MOL0     C73149  10.904  11.496   8.468  0.5186 -0.7459 -0.4195
  531MOL0     C73150  11.000  11.604   8.510 -0.4647 -0.5984 -0.1340
  531MOL0     C73151  10.927  11.739   8.517  0.0743  0.4808  0.5507
  531MOL0     C73152  11.029  11.849   8.548 -0.7945 -0.1821 -0.8180
  531MOL0     C73153  10.962  11.988   8.552  0.1776  0.3231 -0.0065
  531MOL0     C73154  11.079  12.087   8.544  0.5032 -0.3972  0.3694
  531MOL0     C73155  11.046  12.233   8.588  1.1963  0.3364  0.1232
  531MOL0     C73156  10.961  12.313   8.482 -0.0916 -0.0992 -0.0038
  531MOL0     N73157  10.947  12.453   8.517 -0.7600 -0.4205 -0.0620
  531MOL0     C73158  10.838  12.525   8.495 -0.0058  0.3987 -0.6446
  531MOL0     C73159  10.853  12.643   8.545  0.3757  0.1019 -0.7692
  531MOL0     C73160  10.744  12.756   8.552  0.2068  0.7439  0.3503
  531MOL0     C73161  10.690  12.791   8.407 -0.2837 -0.8172 -0.0084
  531MOL0     C73162  10.754  12.905   8.338 -0.1039 -0.0242  0.3078
  531MOL0     C73163  10.904  12.884   8.295  0.0044  0.9827 -0.6879
  531MOL0     O73164  10.923  12.775   8.203  0.0032 -0.4655  0.2456
  531MOL0     C73165  10.971  12.814   8.078 -0.2678 -0.4890 -0.1964
  531MOL0     C73166  10.947  12.936   8.016 -0.2036  0.2553  0.0641
  531MOL0     C73167  11.004  12.956   7.895 -0.0757  0.4041 -0.0492
  531MOL0     C73168  10.973  13.097   7.833 -0.5811  0.4510 -0.4537
  531MOL0     C73169  11.078  12.856   7.827 -0.6699 -0.1723  0.1274
  531MOL0     C73170  11.134  12.874   7.685  0.6207 -0.3804 -0.1102
  531MOL0     O73171  11.151  12.760   7.610  0.2573 -0.5441 -1.2282
  531MOL0     C73172  11.174  12.765   7.476 -0.9558 -0.0001 -0.1637
  531MOL0     C73173  11.258  12.662   7.439  0.3515  0.3758 -0.7565
  531MOL0     C73174  11.276  12.643   7.302 -0.0062 -0.8304  0.3395
  531MOL0     C73175  11.230  12.739   7.202 -1.1317 -0.0348 -0.7344
  531MOL0     O73176  11.243  12.728   7.066 -0.0617  0.6343  0.3457
  531MOL0     C73177  11.354  12.647   7.023  0.2952 -0.1845  0.6591
  531MOL0     C73178  11.387  12.671   6.873 -0.3390  0.0586  0.0444
  531MOL0     C73179  11.494  12.590   6.816 -0.6566  0.7994 -0.5004
  531MOL0     C73180  11.496  12.596   6.666 -0.4183  0.8764  0.6683
  531MOL0     C73181  11.634  12.563   6.608  0.5853  0.2390 -0.2064
  531MOL0     C73182  11.630  12.583   6.454  0.7337  0.8262  0.3769
  531MOL0     C73183  11.752  12.541   6.378 -0.7596 -0.1082  0.5197
  531MOL0     C73184  11.773  12.607   6.239 -0.2546 -0.8058 -0.4228
  531MOL0    Cl73185  11.903  12.534   6.144  0.1899  0.5187 -0.3334
  531MOL0     C73186  11.177  12.856   7.250  0.0305 -0.4935 -0.2566
  531MOL0     C73187  11.127  12.853   7.380  0.4905  0.4612 -0.3982
  531MOL0     O73188  11.173  12.985   7.650 -0.6612 -0.3871 -0.1620
  531MOL0     C73189  11.107  12.739   7.891  0.8444  0.1531  0.2994
  531MOL0     C73190  11.051  12.715   8.013  0.0074  0.2281  1.0613
  531MOL0     N73191  10.985  12.652   8.584  0.2401 -0.4228  0.2995
  531MOL0     N73192  11.044  12.538   8.566  0.0536  0.1334  0.5352
  531MOL0     C73193  10.836  11.233   8.370  0.0410  1.1288 -0.3681
  531MOL0     C73194  10.788  11.111   8.319 -0.1318 -0.4077 -0.0759
  531MOL0     C73195  10.668  10.832   7.959  0.4363  0.3303 -0.3085
  531MOL0     C73196  10.790  10.762   7.930 -0.9312  0.5112  0.0048
  531MOL0     C73197  10.776  10.649   7.852 -0.0341 -0.9023  0.4129
  531MOL0     C73198  10.648  10.614   7.785 -1.4197 -0.2636 -0.3495
  531MOL0     O73199  10.663  10.511   7.694 -0.1053 -0.4659  0.6146
  531MOL0     C73200  10.555  10.430   7.673 -0.4656 -0.6601 -0.8729
  531MOL0     C73201  10.607  10.326   7.571  0.7065 -0.0607 -0.7835
  531MOL0     C73202  10.741  10.271   7.615  0.3301 -0.5027  0.4067
  531MOL0     C73203  10.722  10.183   7.744  0.2198  0.1664  0.2730
  531MOL0     C73204  10.856  10.149   7.802 -0.4024  0.3186 -0.2706
  531MOL0     C73205  10.967  10.123   7.861 -0.0814  0.3018  0.4157
  531MOL0     C73206  10.534  10.690   7.819 -0.3249  0.0210  0.6488
  531MOL0     C73207  10.539  10.795   7.910 -0.0936 -0.8999  0.8440
  531MOL0     C73208  10.411  10.876   7.935  0.9193 -0.2109  0.2547
  531MOL0     H73209  10.915  11.151   8.015 -2.1357 -0.6763  0.3039
  531MOL0     H73210  10.994  11.359   8.104  3.7251 -3.9501 -1.9897
  531MOL0     H73211  10.929  11.415   8.537  2.2757  0.9699  1.0753
  531MOL0     H73212  10.802  11.518   8.500  0.3588  0.1975 -1.4749
  531MOL0     H73213  11.036  11.584   8.611  0.9311 -1.9502 -0.8494
  531MOL0     H73214  11.090  11.609   8.447  0.3437 -1.2488  0.9405
  531MOL0     H73215  10.877  11.759   8.421  3.3354 -1.3638 -1.7221
  531MOL0     H73216  10.849  11.722   8.592 -2.5025 -1.1096 -2.2474
  531MOL0     H73217  11.072  11.832   8.647  1.7652  1.2188 -1.5833
  531MOL0     H73218  11.114  11.854   8.479  0.3387 -0.6347  0.4985
  531MOL0     H73219  10.911  12.011   8.646 -1.6692  1.1404 -1.1467
  531MOL0     H73220  10.886  12.003   8.474 -0.4238 -1.9373  0.0676
  531MOL0     H73221  11.168  12.069   8.606  1.2809  0.5356 -0.4421
  531MOL0     H73222  11.111  12.095   8.440  3.5233  0.7008  1.2780
  531MOL0     H73223  11.136  12.290   8.612  1.0682 -0.0206  1.5053
  531MOL0     H73224  10.983  12.223   8.677  0.8888  2.0560  0.1410
  531MOL0     H73225  11.005  12.316   8.382 -1.1451 -0.1151 -0.4735
  531MOL0     H73226  10.864  12.264   8.485 -0.7031  0.9703 -1.1949
  531MOL0     H73227  10.747  12.490   8.448 -0.8777  3.3434 -1.3516
  531MOL0     H73228  10.775  12.847   8.603  1.9668  1.9167 -2.5283
  531MOL0     H73229  10.660  12.710   8.605 -0.3964 -0.4044 -1.4830
  531MOL0     H73230  10.696  12.702   8.344  2.3191  0.9963 -2.6005
  531MOL0     H73231  10.589  12.822   8.434  0.7273 -0.4786  4.0177
  531MOL0     H73232  10.700  12.923   8.245  0.9900 -2.0815 -0.8084
  531MOL0     H73233  10.735  12.992   8.402 -3.1526 -1.3023  1.3034
  531MOL0     H73234  10.977  12.963   8.273  0.9527  0.2052 -0.4442
  531MOL0     H73235  10.953  12.841   8.383 -3.5829 -3.7484 -0.6173
  531MOL0     H73236  10.885  13.012   8.064 -1.7053 -2.2891  2.4700
  531MOL0     H73237  11.060  13.133   7.777  1.7183 -3.5279  0.1857
  531MOL0     H73238  10.956  13.170   7.913  0.0546  2.2415 -1.8899
  531MOL0     H73239  10.890  13.100   7.762 -0.2129  0.6430 -0.8819
  531MOL0     H73240  11.296  12.589   7.508  0.3469 -0.7077 -1.8601
  531MOL0     H73241  11.335  12.558   7.270  1.5175  0.6269 -0.9675
  531MOL0     H73242  11.439  12.668   7.088 -0.4010  3.2048  0.6614
  531MOL0     H73243  11.329  12.540   7.021 -0.1858 -0.0820 -0.9786
  531MOL0     H73244  11.304  12.639   6.809 -2.2599  1.0350  1.9195
  531MOL0     H73245  11.422  12.773   6.855 -0.2977 -0.0701 -0.6474
  531MOL0     H73246  11.474  12.492   6.862 -0.1919  1.1674  0.5229
  531MOL0     H73247  11.588  12.629   6.857 -0.1016 -0.3182 -0.6755
  531MOL0     H73248  11.467  12.690   6.620 -0.9825  0.6503  0.5544
  531MOL0     H73249  11.429  12.516   6.634  4.6656 -2.5165 -3.1204
  531MOL0     H73250  11.697  12.644   6.645 -0.1255  0.3876  0.7211
  531MOL0     H73251  11.679  12.466   6.632  3.6929  1.4120 -0.7881
  531MOL0     H73252  11.616  12.690   6.435  0.2082  0.7562  0.3458
  531MOL0     H73253  11.536  12.538   6.422 -0.4711  1.4645  2.7293
  531MOL0     H73254  11.750  12.432   6.367  0.1708 -0.0998  0.2189
  531MOL0     H73255  11.834  12.583   6.436 -2.0796  2.9642  0.3687
  531MOL0     H73256  11.783  12.713   6.261  3.5023 -1.2576  0.7883
  531MOL0     H73257  11.681  12.582   6.186 -1.4137  0.1033  1.0694
  531MOL0     H73258  11.131  12.928   7.184 -3.0750 -0.0433  2.1456
  531MOL0     H73259  11.066  12.937   7.412  2.1059  0.7013  2.3965
  531MOL0     H73260  11.170  12.662   7.847 -1.2842 -0.7828 -1.2468
  531MOL0     H73261  11.059  12.614   8.053  1.5149 -0.9240 -1.8367
  531MOL0     H73262  10.826  11.249   8.476  1.5500 -1.2419  0.2161
  531MOL0     H73263  10.730  11.036   8.370 -4.2835 -0.0076 -3.6777
  531MOL0     H73264  10.890  10.787   7.965 -2.1699  2.9614  2.1383
  531MOL0     H73265  10.866  10.592   7.829  2.1033  2.2852  0.1870
  531MOL0     H73266  10.516  10.385   7.765  0.8024 -1.8550 -0.8940
  531MOL0     H73267  10.472  10.483   7.627 -1.0035 -2.1554 -1.6959
  531MOL0     H73268  10.613  10.373   7.473 -3.9931 -0.1212 -1.3500
  531MOL0     H73269  10.525  10.255   7.556  1.8162 -1.8895  1.3452
  531MOL0     H73270  10.784  10.212   7.534  1.1061  0.8143 -0.1773
  531MOL0     H73271  10.817  10.349   7.619 -0.5635  0.6202 -2.3275
  531MOL0     H73272  10.661  10.097   7.715  0.4751  0.5033 -1.3684
  531MOL0     H73273  10.673  10.243   7.822  0.1337  1.1597 -0.5126
  531MOL0     H73274  11.047  10.106   7.930 -0.5380  0.2614  0.9394
  531MOL0     H73275  10.439  10.668   7.773 -0.2854 -0.5647  0.8326
  531MOL0     H73276  10.321  10.824   7.900 -0.5147  2.5933 -0.5237
  531MOL0     H73277  10.384  10.899   8.039  1.6547 -1.2492  0.6934
  531MOL0     H73278  10.420  10.964   7.872 -1.1131  1.1334  1.7130
  532MOL0     O73279   4.596   1.601   2.887 -0.5530  0.4187  0.7660
  532MOL0     C73280   4.538   1.492   2.879  0.5053 -0.1184  0.9739
  532MOL0     O73281   4.457   1.459   2.770 -0.7426 -0.1689 -0.0463
  532MOL0     C73282   4.455   1.525   2.654 -0.3703 -0.4285 -0.1310
  532MOL0     C73283   4.447   1.665   2.650  1.0785  0.1169 -0.2256
  532MOL0     C73284   4.458   1.738   2.531  0.1827  0.2212 -0.0504
  532MOL0     C73285   4.436   1.665   2.412 -1.3303 -0.8625  0.0370
  532MOL0     O73286   4.425   1.731   2.293 -0.2178  0.0185  0.7865
  532MOL0     C73287   4.489   1.860   2.259  0.5859  0.3728  0.1595
  532MOL0     C73288   4.390   1.970   2.252  0.4754  0.3468 -0.0278
  532MOL0     C73289   4.470   2.099   2.216 -0.8484  0.3104  0.5546
  532MOL0     C73290   4.413   2.236   2.258 -0.1872 -0.2114 -0.9030
  532MOL0     C73291   4.262   2.251   2.205  0.6155 -0.8163  0.3047
  532MOL0     C73292   4.207   2.402   2.246  0.7570  0.9272 -1.2471
  532MOL0     C73293   4.271   2.523   2.177  0.4154 -0.2452 -0.5312
  532MOL0     C73294   4.212   2.655   2.225 -0.8329 -1.7850  0.8509
  532MOL0     N73295   4.087   2.674   2.156 -0.5173  0.1718  0.5846
  532MOL0     C73296   4.079   2.701   2.026 -0.4724  0.1530 -0.2261
  532MOL0     C73297   3.952   2.739   2.007 -0.8270 -0.9217  0.3486
  532MOL0     C73298   3.880   2.775   1.874  0.1141  0.2729  0.2745
  532MOL0     C73299   3.915   2.913   1.824  0.4492  0.7448  0.0821
  532MOL0     C73300   3.827   3.020   1.894 -0.7339  0.4357  0.2143
  532MOL0     C73301   3.906   3.147   1.933 -0.3055  1.0964 -0.2276
  532MOL0     O73302   3.824   3.235   1.999 -0.3100  0.1122  0.4677
  532MOL0     C73303   3.862   3.366   2.008  0.2687 -0.5037 -0.4048
  532MOL0     C73304   3.864   3.435   2.132  0.2247  0.5068  0.4895
  532MOL0     C73305   3.881   3.574   2.134  0.5115 -1.0294  0.7786
  532MOL0     C73306   3.895   3.626   2.266 -0.8161 -0.3153  1.1292
  532MOL0     C73307   3.892   3.654   2.012 -0.5180  0.0296  0.6269
  532MOL0     C73308   3.906   3.802   2.012  0.0135  0.5606 -1.1556
  532MOL0     O73309   3.965   3.867   1.905  0.1634 -0.2890 -0.5164
  532MOL0     C73310   3.953   4.002   1.913 -0.1262  0.7085 -0.4957
  532MOL0     C73311   3.832   4.061   1.891  0.4241 -0.0562 -0.9304
  532MOL0     C73312   3.812   4.203   1.901  0.0421 -0.1132 -0.0358
  532MOL0     C73313   3.917   4.277   1.936 -0.1876 -0.3953 -0.9058
  532MOL0     O73314   3.897   4.414   1.947 -0.0990 -0.0081  0.6821
  532MOL0     C73315   3.995   4.509   2.000 -0.0505  0.3727 -0.2960
  532MOL0     C73316   3.941   4.650   1.989 -0.8733 -0.6828 -1.3538
  532MOL0     C73317   3.883   4.679   1.857 -0.4710 -0.3158 -0.0143
  532MOL0     C73318   3.865   4.833   1.829 -0.4478 -0.3902  0.3147
  532MOL0     C73319   3.765   4.861   1.716 -0.0977 -1.4826 -0.5456
  532MOL0     C73320   3.751   5.013   1.679  0.1348 -0.1849 -0.8285
  532MOL0     C73321   3.640   5.045   1.570  0.0710 -1.1705  0.3851
  532MOL0     C73322   3.559   5.169   1.614 -0.0684  0.8353 -0.3649
  532MOL0    Cl73323   3.657   5.318   1.603 -0.6737 -0.0046 -0.7651
  532MOL0     C73324   4.043   4.221   1.968  0.2875  0.1152  0.1148
  532MOL0     C73325   4.060   4.083   1.948 -0.3009  0.6858 -0.1476
  532MOL0     O73326   3.855   3.864   2.109 -0.4061  0.6562  0.7906
  532MOL0     C73327   3.890   3.580   1.886  0.7671  0.2253 -0.7130
  532MOL0     C73328   3.889   3.439   1.892 -0.2398  0.4320 -0.2254
  532MOL0     N73329   3.879   2.748   2.125 -1.0729 -0.0235  0.4259
  532MOL0     N73330   3.961   2.694   2.211  0.0934  1.0141  0.3657
  532MOL0     C73331   4.431   1.520   2.415 -0.3887 -0.5276  0.3624
  532MOL0     C73332   4.442   1.452   2.537  0.3217 -0.0258 -0.3590
  532MOL0     C73333   4.542   1.398   2.987 -0.2393 -0.2085 -0.1650
  532MOL0     C73334   4.578   1.447   3.118  0.3730 -0.4187  1.5226
  532MOL0     C73335   4.587   1.374   3.231  0.2348 -0.4801 -0.5574
  532MOL0     C73336   4.570   1.239   3.218 -0.1780 -0.6324  0.6123
  532MOL0     O73337   4.572   1.159   3.325  0.2939  0.4505  0.1432
  532MOL0     C73338   4.681   1.173   3.419  0.6629 -0.2678 -0.5157
  532MOL0     C73339   4.631   1.237   3.551 -0.1069  0.6941  0.2205
  532MOL0     C73340   4.759   1.236   3.637  0.1440  0.3364  0.2160
  532MOL0     C73341   4.860   1.347   3.589 -0.8042  0.4184  0.2951
  532MOL0     C73342   4.972   1.360   3.684  0.4468  0.4137  0.5962
  532MOL0     C73343   5.064   1.366   3.769 -0.1389  0.2627 -0.2463
  532MOL0     C73344   4.530   1.182   3.100  0.2085 -0.4036 -0.7597
  532MOL0     C73345   4.526   1.259   2.980  0.5960  0.2281 -0.6068
  532MOL0     C73346   4.489   1.186   2.851  0.2617  0.0925 -0.8951
  532MOL0     H73347   4.441   1.717   2.745  1.3242 -0.7808  0.2948
  532MOL0     H73348   4.468   1.846   2.523 -3.7718  0.6507 -2.2638
  532MOL0     H73349   4.528   1.845   2.158 -0.7536  1.0420 -0.4715
  532MOL0     H73350   4.569   1.886   2.330 -0.8551  1.3676  1.4798
  532MOL0     H73351   4.314   1.946   2.178 -1.3701  1.2417  1.4967
  532MOL0     H73352   4.335   1.971   2.347  1.2883  0.3794  0.4569
  532MOL0     H73353   4.571   2.084   2.257 -0.7174 -4.8095 -0.9418
  532MOL0     H73354   4.477   2.099   2.107  0.0613  1.6836  0.5863
  532MOL0     H73355   4.407   2.230   2.367 -0.1916 -1.2116 -0.9481
  532MOL0     H73356   4.474   2.323   2.233  2.2553 -2.1761 -2.3247
  532MOL0     H73357   4.212   2.170   2.259  0.3685  0.3636  1.9268
  532MOL0     H73358   4.248   2.239   2.097 -1.0901  0.4035  0.3494
  532MOL0     H73359   4.099   2.413   2.231  0.3521 -1.3631 -0.3964
  532MOL0     H73360   4.219   2.416   2.353 -0.0672 -0.4762 -0.9412
  532MOL0     H73361   4.273   2.519   2.067  2.5745  1.7231 -0.6360
  532MOL0     H73362   4.377   2.529   2.203 -0.3563 -0.5820  3.1341
  532MOL0     H73363   4.207   2.652   2.334 -0.5353  1.3709  1.0199
  532MOL0     H73364   4.274   2.739   2.194 -1.6570 -0.7116  1.9829
  532MOL0     H73365   4.147   2.679   1.945  0.6875  2.2930  0.0905
  532MOL0     H73366   3.774   2.765   1.897 -0.0304  0.5373 -0.2781
  532MOL0     H73367   3.912   2.698   1.803  0.7383 -1.2410  2.0756
  532MOL0     H73368   4.017   2.943   1.848  1.2086 -2.9640  2.2189
  532MOL0     H73369   3.909   2.912   1.715  1.7195  2.3559 -0.0305
  532MOL0     H73370   3.742   3.045   1.829  0.2914 -2.2729 -2.3788
  532MOL0     H73371   3.783   2.970   1.981 -1.7931 -1.1293 -1.1529
  532MOL0     H73372   3.977   3.114   2.009 -0.5091  0.3373 -0.3505
  532MOL0     H73373   3.967   3.189   1.852  2.6842 -1.7209  0.3722
  532MOL0     H73374   3.855   3.386   2.228  3.7544 -2.3620 -0.4040
  532MOL0     H73375   3.959   3.554   2.318 -1.3832 -2.9183 -1.4874
  532MOL0     H73376   3.800   3.633   2.319 -1.8124 -2.2081 -0.3080
  532MOL0     H73377   3.952   3.719   2.267  1.6899 -1.5447 -2.4788
  532MOL0     H73378   3.740   4.007   1.873 -1.0989  1.7089  1.0665
  532MOL0     H73379   3.721   4.257   1.879 -0.0924  0.3365  1.4762
  532MOL0     H73380   4.012   4.491   2.107 -1.7237  3.7045  0.6795
  532MOL0     H73381   4.086   4.499   1.941 -0.6962 -1.7105 -1.0461
  532MOL0     H73382   3.876   4.665   2.076  1.3761 -1.6766  0.6299
  532MOL0     H73383   4.017   4.728   1.996 -0.2898 -1.2547 -1.2467
  532MOL0     H73384   3.783   4.636   1.859 -0.6868  0.1479 -0.4487
  532MOL0     H73385   3.943   4.634   1.777  1.8329 -0.2978  1.6169
  532MOL0     H73386   3.965   4.866   1.800 -0.3737  0.3913  1.4002
  532MOL0     H73387   3.841   4.879   1.924  1.1351 -0.1379  0.6176
  532MOL0     H73388   3.816   4.815   1.631  1.6475 -0.8582  0.1318
  532MOL0     H73389   3.670   4.817   1.747 -1.0283  1.0878  0.5182
  532MOL0     H73390   3.847   5.060   1.654 -0.7409  2.3716  0.2618
  532MOL0     H73391   3.725   5.060   1.774 -0.6400 -0.7729 -0.7383
  532MOL0     H73392   3.575   4.957   1.565  0.5317 -1.5538  1.0126
  532MOL0     H73393   3.694   5.071   1.478 -0.9249  2.2106  0.5993
  532MOL0     H73394   3.529   5.157   1.719  0.1955  1.6033 -0.1957
  532MOL0     H73395   3.469   5.178   1.553 -0.7514 -1.8845  0.0909
  532MOL0     H73396   4.127   4.280   2.004  2.3006 -2.3163 -0.2618
  532MOL0     H73397   4.163   4.051   1.942 -0.3822  0.2900  0.4270
  532MOL0     H73398   3.895   3.641   1.796  0.0616  2.2584  0.5746
  532MOL0     H73399   3.893   3.392   1.794  2.5156 -1.8160  0.8130
  532MOL0     H73400   4.410   1.463   2.325  4.1190 -1.4784 -0.3625
  532MOL0     H73401   4.424   1.345   2.541  1.0247 -0.1438 -0.1433
  532MOL0     H73402   4.591   1.554   3.136  0.0575 -0.2805  0.9525
  532MOL0     H73403   4.611   1.414   3.329 -1.6540 -0.7107  0.0454
  532MOL0     H73404   4.723   1.074   3.438  3.4632  0.4665 -2.2146
  532MOL0     H73405   4.765   1.229   3.375 -0.0666 -0.9656 -2.9412
  532MOL0     H73406   4.564   1.169   3.605  0.9083 -0.4473  0.0734
  532MOL0     H73407   4.575   1.330   3.538  2.4138  2.5093  1.6143
  532MOL0     H73408   4.713   1.255   3.734  2.7353  1.6805  1.2768
  532MOL0     H73409   4.815   1.142   3.644  0.4682  0.3705 -1.5444
  532MOL0     H73410   4.819   1.446   3.564 -1.8876 -0.2615 -0.6959
  532MOL0     H73411   4.905   1.313   3.495  1.0423 -1.0648  1.6633
  532MOL0     H73412   5.152   1.356   3.830  1.9030  2.9450 -2.4810
  532MOL0     H73413   4.517   1.074   3.108  0.7437 -0.3533  2.0463
  532MOL0     H73414   4.551   1.240   2.778  2.0669  0.6524  0.9465
  532MOL0     H73415   4.536   1.087   2.849 -0.0688 -0.1077  0.3113
  532MOL0     H73416   4.381   1.184   2.835 -0.1102 -1.7486  1.2048
  533MOL0     O73417   9.554  11.415   3.801 -0.0736  0.4798 -0.2618
  533MOL0     C73418   9.622  11.502   3.741  0.2858  0.1404  0.0247
  533MOL0     O73419   9.624  11.522   3.610 -0.7838  0.8576  0.2172
  533MOL0     C73420   9.537  11.435   3.542  0.0488 -0.7204 -0.7560
  533MOL0     C73421   9.430  11.504   3.483 -0.9001  1.4576  0.2821
  533MOL0     C73422   9.324  11.439   3.421 -0.5760 -0.1078 -0.1749
  533MOL0     C73423   9.333  11.296   3.405 -0.1031 -0.4025  0.3814
  533MOL0     O73424   9.229  11.245   3.332  0.4452  0.1888 -0.4346
  533MOL0     C73425   9.237  11.113   3.299  0.2630 -0.7053  0.2954
  533MOL0     C73426   9.139  11.072   3.179 -0.4801  0.1611 -0.2397
  533MOL0     C73427   9.141  11.182   3.069  0.4887 -0.2923 -0.3461
  533MOL0     C73428   9.063  11.144   2.939  0.1486 -0.7280  0.6400
  533MOL0     C73429   8.918  11.104   2.961  0.6423  0.1038 -0.2900
  533MOL0     C73430   8.836  11.213   3.028 -1.2159  1.2368 -0.3915
  533MOL0     C73431   8.823  11.337   2.949  1.0442 -0.8641 -0.1093
  533MOL0     C73432   8.687  11.419   2.959  0.7481 -0.5281  0.7773
  533MOL0     N73433   8.570  11.368   2.894 -0.2057  0.3193  0.5219
  533MOL0     C73434   8.581  11.278   2.786  0.6421 -1.1298  0.2905
  533MOL0     C73435   8.453  11.225   2.782 -1.5808  0.4248 -0.8811
  533MOL0     C73436   8.415  11.125   2.672 -0.5986  0.5900  0.3439
  533MOL0     C73437   8.272  11.073   2.695 -0.6758  0.5098 -0.3659
  533MOL0     C73438   8.164  11.160   2.637 -0.2307  0.2780  0.6793
  533MOL0     C73439   8.029  11.089   2.674 -0.1169 -1.1348  0.4581
  533MOL0     O73440   7.925  11.189   2.681 -0.2106 -0.1151  0.2549
  533MOL0     C73441   7.796  11.144   2.676 -0.4613  0.3903  0.2152
  533MOL0     C73442   7.748  11.049   2.763  0.3454  0.4204 -1.0671
  533MOL0     C73443   7.621  10.988   2.759 -0.9212 -0.1096  0.2276
  533MOL0     C73444   7.589  10.897   2.870 -0.7036  0.1397  0.0703
  533MOL0     C73445   7.539  11.021   2.646  1.5585  0.0197 -0.1504
  533MOL0     C73446   7.403  10.970   2.619  0.6648 -0.7156  1.3392
  533MOL0     O73447   7.331  11.051   2.526  0.6113 -0.1472  0.1979
  533MOL0     C73448   7.200  11.041   2.501  0.3089  0.4256  0.0783
  533MOL0     C73449   7.108  11.013   2.603 -0.0781 -1.0132 -0.4804
  533MOL0     C73450   6.976  11.025   2.578  0.2351  1.3090  0.4246
  533MOL0     C73451   6.922  11.043   2.455 -0.1382 -0.1353  0.8279
  533MOL0     O73452   6.792  11.048   2.429  0.1964  0.5196  0.0267
  533MOL0     C73453   6.728  11.113   2.317 -0.0674  0.2694 -0.2222
  533MOL0     C73454   6.602  11.025   2.289  1.0508 -0.6730  0.7834
  533MOL0     C73455   6.495  11.021   2.403 -0.9088  1.0584  0.3891
  533MOL0     C73456   6.379  10.922   2.381  0.4542  0.9778  0.0059
  533MOL0     C73457   6.408  10.771   2.329 -0.8949 -0.2163  1.1392
  533MOL0     C73458   6.491  10.685   2.430  0.1717  0.2359  0.4024
  533MOL0     C73459   6.555  10.568   2.365 -0.3118  0.7509  0.7292
  533MOL0     C73460   6.640  10.482   2.459  0.4715 -0.2567 -0.9356
  533MOL0    Cl73461   6.758  10.402   2.352  0.2264  0.0869 -0.0854
  533MOL0     C73462   7.010  11.063   2.357 -0.3253  0.1622  0.7209
  533MOL0     C73463   7.149  11.072   2.379 -0.6607  1.5681  0.4283
  533MOL0     O73464   7.360  10.864   2.657  0.4997  0.0723 -0.5187
  533MOL0     C73465   7.599  11.111   2.550  0.8621  0.3014  0.3752
  533MOL0     C73466   7.718  11.179   2.568  0.1328 -0.1252 -0.6724
  533MOL0     N73467   8.376  11.279   2.884  0.2800  0.4105 -0.6836
  533MOL0     N73468   8.446  11.363   2.948  0.3248  0.6825  0.5826
  533MOL0     C73469   9.447  11.233   3.441  0.3152  0.5945  1.7906
  533MOL0     C73470   9.539  11.293   3.524  0.1084 -1.0789 -0.3722
  533MOL0     C73471   9.722  11.578   3.822  0.9738 -0.4320  0.7045
  533MOL0     C73472   9.826  11.644   3.753  0.2598 -1.1734  0.0838
  533MOL0     C73473   9.918  11.720   3.823 -1.0712 -0.0000  0.1382
  533MOL0     C73474   9.931  11.720   3.958  1.1083  0.1790  0.4975
  533MOL0     O73475  10.041  11.784   4.017 -0.6368 -0.1770 -0.5472
  533MOL0     C73476  10.053  11.783   4.161  0.2517  0.0340  0.6030
  533MOL0     C73477  10.197  11.736   4.195  0.4511 -0.3733 -0.4173
  533MOL0     C73478  10.236  11.604   4.132  0.6475 -0.4598 -0.6301
  533MOL0     C73479  10.310  11.510   4.231 -1.3949  1.2334  0.4153
  533MOL0     C73480  10.225  11.466   4.334 -1.3801  1.0545  0.1170
  533MOL0     C73481  10.152  11.454   4.430 -0.3479  0.2947  0.3340
  533MOL0     C73482   9.823  11.655   4.027  0.3225 -0.4769 -0.5493
  533MOL0     C73483   9.720  11.583   3.960  0.2084 -0.8770 -0.8965
  533MOL0     C73484   9.606  11.545   4.044 -1.0764 -0.1535 -0.4190
  533MOL0     H73485   9.422  11.611   3.494  1.4726  1.4894  2.7453
  533MOL0     H73486   9.249  11.500   3.373  0.5888  1.7068  0.2449
  533MOL0     H73487   9.209  11.057   3.388  0.4028  0.5514  1.1639
  533MOL0     H73488   9.336  11.086   3.261  0.7313  0.5559  0.5706
  533MOL0     H73489   9.172  10.976   3.140  2.2934  0.7154  0.5304
  533MOL0     H73490   9.044  11.052   3.229  1.2666 -2.7773  2.2379
  533MOL0     H73491   9.099  11.274   3.112  0.0016  0.4794 -2.3491
  533MOL0     H73492   9.244  11.212   3.050 -0.3560  1.8829 -1.8583
  533MOL0     H73493   9.069  11.229   2.870 -1.7069 -0.6756  0.5053
  533MOL0     H73494   9.111  11.057   2.894 -0.6950 -0.4282 -0.8826
  533MOL0     H73495   8.921  11.015   3.024  1.9289  0.3365  0.0145
  533MOL0     H73496   8.866  11.077   2.869 -1.6160 -0.2583  1.0169
  533MOL0     H73497   8.734  11.181   3.053 -0.2269 -1.7519  0.1652
  533MOL0     H73498   8.888  11.241   3.120  3.3737 -0.0743 -2.3188
  533MOL0     H73499   8.859  11.335   2.846  3.0821 -0.6840  0.5570
  533MOL0     H73500   8.893  11.407   2.994 -0.2442  1.0629 -0.9629
  533MOL0     H73501   8.670  11.439   3.065 -0.6662  1.0414  0.3019
  533MOL0     H73502   8.721  11.514   2.918 -1.6898  0.4807  0.9404
  533MOL0     H73503   8.666  11.260   2.721  3.3739  2.2536  2.5288
  533MOL0     H73504   8.483  11.040   2.661 -0.9816  0.4218 -0.9390
  533MOL0     H73505   8.416  11.166   2.570 -0.7348 -0.0516  0.0791
  533MOL0     H73506   8.265  10.966   2.670  0.5755  0.4717 -0.6363
  533MOL0     H73507   8.249  11.079   2.801 -1.0109 -0.2741 -0.3859
  533MOL0     H73508   8.180  11.258   2.684  3.2449 -1.1154  2.7722
  533MOL0     H73509   8.180  11.179   2.531  2.3088  1.5846  1.2276
  533MOL0     H73510   7.993  11.021   2.596 -3.0998  2.0202 -1.1999
  533MOL0     H73511   8.043  11.028   2.764 -0.9058 -1.2732  0.4906
  533MOL0     H73512   7.812  11.030   2.849 -0.5735 -1.0429 -0.6750
  533MOL0     H73513   7.551  10.803   2.828 -2.0959 -0.2214  2.0056
  533MOL0     H73514   7.512  10.944   2.931 -0.7490 -0.8150  0.7824
  533MOL0     H73515   7.676  10.882   2.935  1.4693  0.1733 -2.6117
  533MOL0     H73516   7.142  10.986   2.702 -1.7529  0.2748  0.4917
  533MOL0     H73517   6.901  11.002   2.653 -1.0753  1.3566 -0.8200
  533MOL0     H73518   6.707  11.219   2.336  4.6861  1.9632 -2.5051
  533MOL0     H73519   6.785  11.106   2.223  1.5241  2.7591  0.4565
  533MOL0     H73520   6.552  11.071   2.203  1.9650  2.1484  1.6485
  533MOL0     H73521   6.634  10.930   2.246  0.1129  0.4938 -2.8079
  533MOL0     H73522   6.451  11.119   2.422 -1.5820  1.0009 -0.7881
  533MOL0     H73523   6.554  10.986   2.488 -0.3122 -0.9452 -0.7856
  533MOL0     H73524   6.323  10.965   2.297 -0.8135 -4.4971 -2.3968
  533MOL0     H73525   6.305  10.914   2.460 -4.1368 -0.7145 -3.9718
  533MOL0     H73526   6.319  10.708   2.320 -1.6500  0.9014  0.5629
  533MOL0     H73527   6.465  10.786   2.237  2.1001  1.3399  3.0506
  533MOL0     H73528   6.424  10.640   2.503 -0.6553 -0.0594 -0.5238
  533MOL0     H73529   6.565  10.748   2.481 -1.7098  2.4804  0.5298
  533MOL0     H73530   6.610  10.601   2.276  1.9060 -2.5181  0.7237
  533MOL0     H73531   6.468  10.513   2.330 -0.7300 -0.6160  3.5949
  533MOL0     H73532   6.581  10.407   2.512 -0.2355  1.0200  0.1605
  533MOL0     H73533   6.697  10.533   2.537  1.2209  1.3146 -2.4466
  533MOL0     H73534   6.982  11.073   2.252  1.5483 -0.2600  0.1434
  533MOL0     H73535   7.206  11.093   2.289  1.3252 -0.2276  1.1531
  533MOL0     H73536   7.556  11.125   2.451  2.6321  1.0994 -0.3310
  533MOL0     H73537   7.739  11.263   2.503 -3.0339  0.6599 -0.8466
  533MOL0     H73538   9.466  11.127   3.430  0.6976  0.8790 -1.3097
  533MOL0     H73539   9.607  11.233   3.584 -1.8296 -2.5658  0.4554
  533MOL0     H73540   9.834  11.650   3.645  0.0959 -1.6856  0.0408
  533MOL0     H73541   9.996  11.782   3.781  1.4729 -1.1532  2.7980
  533MOL0     H73542  10.022  11.880   4.202  3.3475  1.7979 -0.8960
  533MOL0     H73543   9.990  11.700   4.195 -0.2748  1.1741  2.5611
  533MOL0     H73544  10.217  11.738   4.302 -2.2883 -2.8733  0.2632
  533MOL0     H73545  10.270  11.802   4.147  0.5448 -0.2928 -0.1655
  533MOL0     H73546  10.149  11.542   4.106  1.6240 -3.5675  2.7008
  533MOL0     H73547  10.297  11.625   4.044  0.1338 -0.5771 -1.0181
  533MOL0     H73548  10.395  11.560   4.278 -1.0920  1.6901 -0.5873
  533MOL0     H73549  10.343  11.419   4.180 -2.1522  0.3108  1.5155
  533MOL0     H73550  10.090  11.445   4.517 -1.8127 -2.9829 -0.8709
  533MOL0     H73551   9.816  11.653   4.135  1.0448  1.6300 -0.4130
  533MOL0     H73552   9.576  11.440   4.050  0.0868 -0.6013 -1.8173
  533MOL0     H73553   9.616  11.592   4.143 -0.2662 -2.4678  0.6937
  533MOL0     H73554   9.513  11.589   4.007 -1.5232 -0.0343  0.7882
  534MOL0     O73555  11.126   4.557   5.672  0.6355 -0.1355 -0.0041
  534MOL0     C73556  11.078   4.451   5.710  0.1816 -0.1072  0.5020
  534MOL0     O73557  10.937   4.435   5.749  0.2178 -0.3848  0.3364
  534MOL0     C73558  10.860   4.546   5.753 -0.3154  0.4185 -0.2880
  534MOL0     C73559  10.882   4.660   5.828 -1.0085  0.4883 -0.5696
  534MOL0     C73560  10.785   4.766   5.822  0.1123 -0.1205 -0.1684
  534MOL0     C73561  10.674   4.753   5.741  0.6957 -0.1841 -0.0325
  534MOL0     O73562  10.581   4.850   5.708  0.5018 -0.1364 -0.8558
  534MOL0     C73563  10.602   4.985   5.761 -0.0558 -0.6660 -0.5167
  534MOL0     C73564  10.463   5.034   5.795 -0.7363 -0.5544  1.3259
  534MOL0     C73565  10.407   4.996   5.929 -0.3846 -0.5175 -0.2630
  534MOL0     C73566  10.270   5.065   5.961  0.4830 -0.2425  0.2971
  534MOL0     C73567  10.276   5.206   6.018  0.3564  1.4248  0.2543
  534MOL0     C73568  10.156   5.264   6.094 -0.5397  0.6054 -0.3251
  534MOL0     C73569  10.181   5.400   6.142  0.2798  0.5570  0.4798
  534MOL0     C73570  10.055   5.467   6.195 -0.4590  0.3272 -0.4554
  534MOL0     N73571   9.972   5.516   6.084  0.5757 -0.7740 -0.3198
  534MOL0     C73572   9.868   5.455   6.035  0.1602 -0.6380  0.0954
  534MOL0     C73573   9.822   5.545   5.949  0.6618 -0.5020 -0.1722
  534MOL0     C73574   9.696   5.521   5.875 -0.0224  1.0666 -0.3489
  534MOL0     C73575   9.663   5.625   5.762  0.0579  0.7463  0.4934
  534MOL0     C73576   9.503   5.620   5.727 -0.6480 -0.1651  0.3209
  534MOL0     C73577   9.472   5.479   5.661 -0.1001 -0.2403  0.3430
  534MOL0     O73578   9.335   5.502   5.636 -0.4070 -0.1261  0.1734
  534MOL0     C73579   9.262   5.395   5.588  0.3479 -0.0920 -0.1946
  534MOL0     C73580   9.141   5.421   5.518  0.3578 -0.2354  0.0312
  534MOL0     C73581   9.048   5.330   5.478  0.7505  0.2631 -0.1950
  534MOL0     C73582   8.925   5.379   5.412 -0.4783  0.4906  0.1636
  534MOL0     C73583   9.075   5.190   5.503  0.6575  0.5360 -0.4630
  534MOL0     C73584   8.994   5.075   5.453 -0.2045  0.3017 -0.1648
  534MOL0     O73585   8.937   5.080   5.321  0.3609  0.0936 -0.1878
  534MOL0     C73586   8.856   4.972   5.304  0.7271 -0.8117 -0.2906
  534MOL0     C73587   8.727   4.974   5.365 -0.1920  0.1599 -0.0040
  534MOL0     C73588   8.647   4.858   5.359 -0.5892 -0.2417 -0.2324
  534MOL0     C73589   8.681   4.755   5.267 -0.3611 -0.1254 -0.0991
  534MOL0     O73590   8.593   4.649   5.254 -0.3458  0.0744 -0.0394
  534MOL0     C73591   8.642   4.512   5.251  0.0378 -0.1945  0.4722
  534MOL0     C73592   8.544   4.408   5.315  0.7818 -0.1796  0.8795
  534MOL0     C73593   8.418   4.404   5.233  0.2091 -0.0642  0.2984
  534MOL0     C73594   8.315   4.494   5.284 -0.4862 -0.0122 -0.4901
  534MOL0     C73595   8.188   4.490   5.202  0.3548  0.2565  0.5588
  534MOL0     C73596   8.064   4.548   5.276 -0.0131  0.2543  0.8194
  534MOL0     C73597   8.069   4.663   5.371 -0.3345 -1.1723 -0.3565
  534MOL0     C73598   7.921   4.689   5.431  0.1796 -0.7388  0.4553
  534MOL0    Cl73599   7.928   4.863   5.485  0.1513  0.1113 -0.3312
  534MOL0     C73600   8.804   4.763   5.198  0.0444 -0.7808 -0.2555
  534MOL0     C73601   8.890   4.864   5.220 -0.6312  0.7867  0.3758
  534MOL0     O73602   8.986   4.988   5.535  0.7614  0.1055 -0.7551
  534MOL0     C73603   9.194   5.160   5.576 -0.1554  0.2763 -0.0698
  534MOL0     C73604   9.287   5.261   5.619 -0.1071  0.8713  0.0511
  534MOL0     N73605   9.898   5.659   5.942  0.0929  0.2951 -0.0549
  534MOL0     N73606   9.993   5.644   6.030  0.9351 -0.0274 -0.1170
  534MOL0     C73607  10.648   4.628   5.678 -0.1660 -0.5713  0.5617
  534MOL0     C73608  10.742   4.534   5.681  0.4497 -0.0091 -0.4150
  534MOL0     C73609  11.161   4.317   5.693 -0.1097 -0.1914 -0.0873
  534MOL0     C73610  11.090   4.195   5.688 -0.3941 -0.4333  0.9363
  534MOL0     C73611  11.159   4.078   5.683  0.5729  0.1727 -0.6662
  534MOL0     C73612  11.299   4.070   5.701  0.5485  0.7267  0.4922
  534MOL0     O73613  11.370   3.947   5.713  0.5482  1.1598  0.1424
  534MOL0     C73614  11.458   3.955   5.825 -0.4938  0.0945 -0.1894
  534MOL0     C73615  11.513   3.819   5.846  0.0962  0.3543  0.0703
  534MOL0     C73616  11.619   3.822   5.968  0.7011  0.5727 -0.2463
  534MOL0     C73617  11.700   3.697   5.985 -0.7375  0.0236 -0.3566
  534MOL0     C73618  11.602   3.585   5.999 -0.0109 -0.3250 -1.3779
  534MOL0     C73619  11.518   3.493   6.012 -0.1770  0.3280 -0.0554
  534MOL0     C73620  11.363   4.194   5.682  1.0735  0.6150 -0.3614
  534MOL0     C73621  11.297   4.313   5.682  1.5701 -0.3535  0.2372
  534MOL0     C73622  11.379   4.427   5.701  0.3500  0.3745  0.1003
  534MOL0     H73623  10.974   4.675   5.884 -0.1408 -0.5068 -1.6658
  534MOL0     H73624  10.813   4.855   5.878 -3.0462  0.6810  0.3139
  534MOL0     H73625  10.645   5.053   5.687 -0.7396  0.6958  0.2956
  534MOL0     H73626  10.671   4.995   5.846 -0.9198  1.0239  0.0324
  534MOL0     H73627  10.478   5.142   5.802  2.0680 -0.4861 -2.6066
  534MOL0     H73628  10.391   5.011   5.717 -3.2138  2.4502  2.5479
  534MOL0     H73629  10.387   4.889   5.941  2.0397 -0.9522  0.3060
  534MOL0     H73630  10.479   5.030   6.004  0.0366  1.7311 -1.6147
  534MOL0     H73631  10.215   5.061   5.866  0.1614 -1.1247  0.5120
  534MOL0     H73632  10.213   5.001   6.029 -0.3523 -0.0412 -0.1988
  534MOL0     H73633  10.292   5.265   5.928 -0.1060 -1.3260 -1.7604
  534MOL0     H73634  10.348   5.203   6.100 -1.5996  1.1042  2.0669
  534MOL0     H73635  10.071   5.272   6.026 -0.4643  2.3307 -0.2747
  534MOL0     H73636  10.120   5.190   6.166  1.2008 -1.4033 -1.4474
  534MOL0     H73637  10.217   5.464   6.061  0.7977 -0.5679 -0.2099
  534MOL0     H73638  10.238   5.404   6.235  2.8223  1.1495 -1.0221
  534MOL0     H73639   9.990   5.397   6.248  0.2985 -1.1937 -1.4496
  534MOL0     H73640  10.087   5.546   6.263  1.6697 -1.0349  0.2158
  534MOL0     H73641   9.844   5.352   6.060  2.3322 -0.6844  2.4212
  534MOL0     H73642   9.623   5.518   5.957 -1.5414  1.0753 -1.6361
  534MOL0     H73643   9.706   5.424   5.826  2.3283  1.0799  0.0231
  534MOL0     H73644   9.691   5.728   5.785  3.7854  0.2971 -1.3781
  534MOL0     H73645   9.722   5.595   5.676 -1.0047  0.6713 -0.2223
  534MOL0     H73646   9.435   5.630   5.812  0.5065 -0.4717  1.3066
  534MOL0     H73647   9.485   5.697   5.652  2.1630 -0.7896 -1.1400
  534MOL0     H73648   9.523   5.474   5.564 -0.8624  4.4453 -0.5316
  534MOL0     H73649   9.490   5.390   5.721  0.9857 -1.7120 -2.0365
  534MOL0     H73650   9.130   5.528   5.507 -0.0093 -0.2933 -0.1795
  534MOL0     H73651   8.955   5.427   5.319  2.5635 -3.8174 -1.3665
  534MOL0     H73652   8.873   5.447   5.481 -0.3357 -0.4308  1.2224
  534MOL0     H73653   8.856   5.302   5.378  0.6249 -0.6660  0.4565
  534MOL0     H73654   8.696   5.045   5.441 -2.9854 -1.6721  0.7203
  534MOL0     H73655   8.548   4.865   5.402 -1.0150  2.5565 -1.4825
  534MOL0     H73656   8.658   4.484   5.146 -1.0363 -2.1934  0.7983
  534MOL0     H73657   8.732   4.506   5.312 -1.0194 -2.2574  1.9617
  534MOL0     H73658   8.594   4.313   5.293  1.7563  0.8786 -1.9523
  534MOL0     H73659   8.531   4.440   5.419  3.0171 -2.2831  1.9167
  534MOL0     H73660   8.357   4.315   5.253 -2.1208  1.2371 -0.6547
  534MOL0     H73661   8.442   4.409   5.126  3.1523 -2.7787  0.6737
  534MOL0     H73662   8.356   4.596   5.278 -2.3388  1.2032  3.9457
  534MOL0     H73663   8.291   4.466   5.387  0.1313 -1.3416 -0.6816
  534MOL0     H73664   8.192   4.542   5.105 -1.5261  2.3125  1.5129
  534MOL0     H73665   8.168   4.385   5.177 -0.3050  0.2881  0.9631
  534MOL0     H73666   8.022   4.462   5.329  0.4263 -0.0085  0.7495
  534MOL0     H73667   7.992   4.571   5.197  0.5101 -2.0041 -0.4084
  534MOL0     H73668   8.092   4.751   5.310  1.8230 -0.5299  1.2560
  534MOL0     H73669   8.143   4.651   5.451  1.8339 -1.2760 -2.2483
  534MOL0     H73670   7.896   4.624   5.515 -2.0381 -0.4789  0.0512
  534MOL0     H73671   7.837   4.688   5.361 -0.1000  0.1933  0.7704
  534MOL0     H73672   8.840   4.693   5.123  0.0399 -0.0770 -0.9224
  534MOL0     H73673   8.993   4.858   5.185 -0.8775  0.5933 -0.3363
  534MOL0     H73674   9.211   5.055   5.594  1.3917  0.9257  2.8272
  534MOL0     H73675   9.365   5.234   5.690  0.0437 -1.6267 -0.9456
  534MOL0     H73676  10.551   4.620   5.630  1.5125  1.2749 -3.6218
  534MOL0     H73677  10.712   4.449   5.620 -2.0241  0.1509  0.4535
  534MOL0     H73678  10.982   4.182   5.684 -0.8020  2.5539  0.3621
  534MOL0     H73679  11.109   3.982   5.690 -0.1212  0.6455  1.6856
  534MOL0     H73680  11.541   4.021   5.801 -1.3789  2.1972  2.1403
  534MOL0     H73681  11.416   3.988   5.921  0.9664  1.4382  0.0266
  534MOL0     H73682  11.569   3.780   5.761 -0.4723 -3.8831  1.3974
  534MOL0     H73683  11.427   3.753   5.859  1.3596 -1.2272  0.7948
  534MOL0     H73684  11.680   3.913   5.976  1.0831  0.1736  2.1733
  534MOL0     H73685  11.557   3.828   6.057 -1.9425 -2.2160 -1.7329
  534MOL0     H73686  11.761   3.701   6.075 -0.4383 -0.4180 -0.5405
  534MOL0     H73687  11.757   3.688   5.892 -5.6148 -1.1845 -3.6241
  534MOL0     H73688  11.444   3.416   6.011 -2.5899  2.4552  1.4421
  534MOL0     H73689  11.467   4.195   5.652  0.5683 -0.8552 -2.4268
  534MOL0     H73690  11.471   4.395   5.750 -0.1264  0.8350  1.3267
  534MOL0     H73691  11.411   4.485   5.614 -0.4298  3.6865  1.8553
  534MOL0     H73692  11.331   4.509   5.754 -2.1077  1.7554 -3.7787
  535MOL0     O73693   7.602   9.448   2.313 -0.1229  0.2819 -0.3651
  535MOL0     C73694   7.572   9.470   2.434 -0.6305 -0.2998  0.3567
  535MOL0     O73695   7.648   9.547   2.522  0.2533 -0.5859  0.1633
  535MOL0     C73696   7.760   9.610   2.476  0.7872  0.1425 -0.8164
  535MOL0     C73697   7.878   9.600   2.549  0.4378  0.3797 -0.1756
  535MOL0     C73698   7.987   9.679   2.515 -0.3439  0.1749 -0.1984
  535MOL0     C73699   7.979   9.769   2.406 -1.4576 -0.0015  0.1498
  535MOL0     O73700   8.075   9.863   2.373 -0.0026 -0.5042 -0.7828
  535MOL0     C73701   8.149   9.925   2.481 -0.2064  0.0369 -0.1011
  535MOL0     C73702   8.194  10.068   2.451  0.0777  0.7512  0.5410
  535MOL0     C73703   8.083  10.164   2.435  0.8320 -0.2908  0.3080
  535MOL0     C73704   8.134  10.300   2.386 -0.5074 -0.3473 -1.0506
  535MOL0     C73705   8.141  10.296   2.238 -0.5092  0.1613 -0.7863
  535MOL0     C73706   8.165  10.433   2.171  0.1182  0.1024  0.1480
  535MOL0     C73707   8.169  10.405   2.009 -0.2739  0.2962 -0.8500
  535MOL0     C73708   8.145  10.533   1.934  0.1419 -0.1666  0.0252
  535MOL0     N73709   8.261  10.559   1.848 -0.4625 -0.4904 -0.4368
  535MOL0     C73710   8.371  10.635   1.885 -0.8325  0.0303 -0.1581
  535MOL0     C73711   8.436  10.645   1.764 -0.4629 -0.5600 -0.7047
  535MOL0     C73712   8.561  10.722   1.761 -0.1444 -0.3330  0.3955
  535MOL0     C73713   8.536  10.875   1.747  0.4454 -0.2622 -0.2324
  535MOL0     C73714   8.608  10.938   1.625  0.3242 -0.2363  0.5343
  535MOL0     C73715   8.606  11.085   1.633  0.1793  0.0073  0.1255
  535MOL0     O73716   8.468  11.122   1.614  0.2365 -0.6965  0.5787
  535MOL0     C73717   8.438  11.248   1.658  0.8181  0.6330 -0.0040
  535MOL0     C73718   8.391  11.326   1.557 -0.0823 -0.1552 -0.0067
  535MOL0     C73719   8.349  11.454   1.596  1.0608 -0.1229 -0.3908
  535MOL0     C73720   8.300  11.522   1.473  0.7585 -1.1036  0.4774
  535MOL0     C73721   8.335  11.493   1.731 -0.2245 -1.3285  0.5917
  535MOL0     C73722   8.288  11.621   1.779  0.5966  0.3896  0.6072
  535MOL0     O73723   8.284  11.661   1.916 -0.3514  0.1974 -0.0620
  535MOL0     C73724   8.236  11.783   1.955  0.7851 -0.5799 -0.6792
  535MOL0     C73725   8.321  11.889   1.993 -0.3314  0.0959 -0.6353
  535MOL0     C73726   8.274  12.008   2.046  0.5876  0.5661 -0.3579
  535MOL0     C73727   8.138  12.029   2.059  0.0792 -0.5209  0.1704
  535MOL0     O73728   8.078  12.144   2.107 -0.4715 -0.1065 -1.2053
  535MOL0     C73729   8.091  12.159   2.253 -0.7656 -0.0907  0.3451
  535MOL0     C73730   7.959  12.131   2.323  1.6065  0.2456 -0.5272
  535MOL0     C73731   7.829  12.178   2.254  0.0337 -0.1035 -0.2069
  535MOL0     C73732   7.710  12.140   2.343  0.2799 -1.0995 -0.1881
  535MOL0     C73733   7.724  12.100   2.498  0.0714  0.3706  0.8518
  535MOL0     C73734   7.584  12.047   2.556  0.0465 -0.4113 -0.7728
  535MOL0     C73735   7.556  12.120   2.686  0.2310 -0.0313 -0.1047
  535MOL0     C73736   7.458  12.037   2.769 -0.1700  0.5117 -0.1764
  535MOL0    Cl73737   7.534  11.894   2.834  0.0448 -0.1849 -0.7021
  535MOL0     C73738   8.054  11.936   2.011  0.8574 -0.3329 -0.2710
  535MOL0     C73739   8.098  11.818   1.962 -0.2773  0.0011 -0.4017
  535MOL0     O73740   8.256  11.704   1.691  0.3967 -0.2025  0.3203
  535MOL0     C73741   8.382  11.402   1.827  0.0160 -0.3913 -0.3118
  535MOL0     C73742   8.433  11.281   1.790  0.9095  0.0590 -0.3059
  535MOL0     N73743   8.366  10.590   1.664  0.1623  0.1672 -0.1579
  535MOL0     N73744   8.261  10.542   1.719  0.2111 -0.6726 -0.4302
  535MOL0     C73745   7.860   9.775   2.332  0.2459  0.3356 -0.2590
  535MOL0     C73746   7.755   9.691   2.366 -0.6911  0.1829 -0.3557
  535MOL0     C73747   7.432   9.437   2.487  0.1867  0.4593  0.5713
  535MOL0     C73748   7.401   9.492   2.609 -0.2270  1.1577 -0.3688
  535MOL0     C73749   7.279   9.475   2.663  0.7449 -0.1682 -0.6962
  535MOL0     C73750   7.173   9.419   2.590  0.4121 -0.6271 -0.5735
  535MOL0     O73751   7.049   9.430   2.650 -0.7942 -0.2894 -0.5072
  535MOL0     C73752   6.932   9.409   2.571 -0.8874 -0.4892  0.0225
  535MOL0     C73753   6.924   9.509   2.453  0.0977 -0.5364  0.3260
  535MOL0     C73754   6.789   9.493   2.375  0.3393  0.7542 -0.5114
  535MOL0     C73755   6.765   9.609   2.296 -0.7333  0.6890 -0.4824
  535MOL0     C73756   6.633   9.604   2.223  0.1825 -0.2458  0.6631
  535MOL0     C73757   6.535   9.621   2.159  0.3444  0.0972  0.5909
  535MOL0     C73758   7.207   9.364   2.469  0.5358 -1.3407  0.1550
  535MOL0     C73759   7.333   9.375   2.415  0.7898 -0.0160  0.8814
  535MOL0     C73760   7.352   9.322   2.285  0.2720  0.5007  0.0447
  535MOL0     H73761   7.882   9.519   2.621 -2.1141 -1.0763 -1.5464
  535MOL0     H73762   8.076   9.650   2.571  0.3136  2.1739 -0.1390
  535MOL0     H73763   8.234   9.857   2.493 -0.5936 -1.1508 -3.0326
  535MOL0     H73764   8.089   9.924   2.572 -1.3728 -2.1696 -0.8051
  535MOL0     H73765   8.263  10.105   2.528  1.7168 -1.4728  0.2500
  535MOL0     H73766   8.255  10.060   2.360  1.3801  0.5169  1.4000
  535MOL0     H73767   8.015  10.107   2.370  0.6592  0.0833  0.1612
  535MOL0     H73768   8.051  10.181   2.538  1.6973  1.5621  0.2958
  535MOL0     H73769   8.059  10.378   2.401 -0.3249 -0.6099  1.5862
  535MOL0     H73770   8.230  10.334   2.424 -1.1102 -0.0654  0.2657
  535MOL0     H73771   8.063  10.238   2.188  1.8858 -1.3529 -3.0132
  535MOL0     H73772   8.223  10.232   2.205  0.3632  1.4222 -1.1758
  535MOL0     H73773   8.086  10.505   2.192  0.7768  1.1932 -0.9649
  535MOL0     H73774   8.261  10.479   2.195  0.4485 -0.8096  0.6083
  535MOL0     H73775   8.092  10.328   1.996 -2.1120  1.7454  0.8370
  535MOL0     H73776   8.266  10.363   1.980 -0.0749 -1.4277  1.8846
  535MOL0     H73777   8.047  10.528   1.885  0.6307  0.1159 -1.0014
  535MOL0     H73778   8.147  10.616   2.005  2.2045 -0.1773  0.0357
  535MOL0     H73779   8.386  10.686   1.980 -0.1132  1.7006 -1.1080
  535MOL0     H73780   8.628  10.689   1.681 -0.9185  0.7630 -0.7438
  535MOL0     H73781   8.611  10.694   1.854 -1.5280  0.6399  1.4792
  535MOL0     H73782   8.427  10.889   1.747  0.4786  0.0778 -1.4107
  535MOL0     H73783   8.569  10.934   1.832  1.0598 -0.5052 -0.3010
  535MOL0     H73784   8.711  10.900   1.620 -0.1287 -1.3553 -2.1172
  535MOL0     H73785   8.560  10.901   1.533 -0.3010 -0.0985  0.8000
  535MOL0     H73786   8.645  11.119   1.729 -1.1066 -0.6060  0.8998
  535MOL0     H73787   8.666  11.123   1.550 -0.9824 -0.4170 -0.9414
  535MOL0     H73788   8.386  11.297   1.452 -1.6815  2.0932 -0.6518
  535MOL0     H73789   8.334  11.626   1.480  0.6871 -1.0420 -0.0302
  535MOL0     H73790   8.190  11.517   1.469  0.8260 -2.2793 -0.1624
  535MOL0     H73791   8.337  11.480   1.379 -1.4500 -0.6477 -0.6647
  535MOL0     H73792   8.430  11.885   1.997 -0.2809  1.3275  3.5844
  535MOL0     H73793   8.339  12.092   2.066  1.6841 -0.6263  1.2584
  535MOL0     H73794   8.177  12.101   2.289  0.1467  0.0216 -1.5512
  535MOL0     H73795   8.118  12.262   2.278  0.6269 -1.0626  3.4129
  535MOL0     H73796   7.955  12.022   2.326  1.5194  0.2502 -0.4438
  535MOL0     H73797   7.984  12.166   2.424  1.5432  0.3460 -0.5468
  535MOL0     H73798   7.826  12.142   2.151  1.1226  3.3777 -1.6027
  535MOL0     H73799   7.828  12.287   2.240 -1.3609  0.0862  1.1223
  535MOL0     H73800   7.656  12.057   2.297 -0.0436 -1.0440  0.0915
  535MOL0     H73801   7.642  12.225   2.336  1.2835 -0.1952  0.6491
  535MOL0     H73802   7.793  12.017   2.517  2.2427  1.8815 -0.0017
  535MOL0     H73803   7.767  12.188   2.546 -0.0028  1.3087 -0.7207
  535MOL0     H73804   7.604  11.940   2.568  2.1662 -0.0459 -0.5669
  535MOL0     H73805   7.498  12.060   2.490  0.3035 -1.8484 -1.4450
  535MOL0     H73806   7.523  12.222   2.667  5.0058  1.3034 -2.8196
  535MOL0     H73807   7.650  12.134   2.741  1.5417  0.7931 -2.4360
  535MOL0     H73808   7.372  11.995   2.716  1.8005 -4.0738 -0.1349
  535MOL0     H73809   7.429  12.107   2.848 -0.0993  1.0022 -0.5754
  535MOL0     H73810   7.948  11.959   2.009  0.3065 -2.1373  2.4281
  535MOL0     H73811   8.036  11.737   1.922  1.1366 -1.6363  0.6001
  535MOL0     H73812   8.378  11.425   1.933 -1.4669  0.1198 -0.4553
  535MOL0     H73813   8.478  11.210   1.858 -0.8431 -0.4962  0.3329
  535MOL0     H73814   7.844   9.847   2.252  3.4643 -0.4670 -1.7843
  535MOL0     H73815   7.655   9.697   2.323 -0.1134 -2.6040 -2.3537
  535MOL0     H73816   7.473   9.542   2.673 -2.7962  0.6745  3.1676
  535MOL0     H73817   7.253   9.522   2.758 -1.2823  0.1279 -1.3499
  535MOL0     H73818   6.932   9.303   2.542  0.1309 -0.8741  1.3524
  535MOL0     H73819   6.846   9.417   2.637  0.7651  0.7720  2.1513
  535MOL0     H73820   6.992   9.473   2.376 -1.8037 -2.4360 -0.5745
  535MOL0     H73821   6.938   9.611   2.491  2.3181 -0.1071 -1.4792
  535MOL0     H73822   6.788   9.408   2.307  0.0153  1.7436 -1.8025
  535MOL0     H73823   6.707   9.489   2.448 -0.6822  2.4301 -1.5001
  535MOL0     H73824   6.841   9.601   2.217 -0.7358 -0.9110 -0.3538
  535MOL0     H73825   6.781   9.706   2.344  0.2791  0.6734 -0.7569
  535MOL0     H73826   6.448   9.636   2.098  1.1882 -0.2979 -0.7519
  535MOL0     H73827   7.131   9.305   2.419 -2.5398 -2.0021  4.9874
  535MOL0     H73828   7.276   9.249   2.256 -0.2675  1.5046 -1.1581
  535MOL0     H73829   7.350   9.404   2.214 -0.3396  1.0724  0.7031
  535MOL0     H73830   7.443   9.265   2.264  0.2262  0.5766 -0.3706
  536MOL0     O73831   4.142   3.073   4.587 -0.8161  0.3771  0.3113
  536MOL0     C73832   4.147   2.980   4.665 -0.1507  0.2597  0.1495
  536MOL0     O73833   4.223   2.869   4.648 -0.1113 -0.1800  0.0986
  536MOL0     C73834   4.325   2.874   4.560 -1.4540  0.2238 -0.6795
  536MOL0     C73835   4.459   2.839   4.597  0.0855  0.9450 -0.3092
  536MOL0     C73836   4.568   2.832   4.510 -0.1141  0.2997  0.1747
  536MOL0     C73837   4.545   2.891   4.373 -0.5889 -0.7271 -0.0527
  536MOL0     O73838   4.665   2.915   4.304 -0.0222 -1.1128  0.6174
  536MOL0     C73839   4.655   2.984   4.176 -0.2149  0.8846 -0.1081
  536MOL0     C73840   4.685   3.134   4.209  0.9689 -0.0535 -0.6828
  536MOL0     C73841   4.607   3.196   4.324  0.0003 -0.2797 -0.3746
  536MOL0     C73842   4.615   3.350   4.323 -1.1236  0.2604  0.4134
  536MOL0     C73843   4.505   3.407   4.412 -0.0566  0.4495 -1.1218
  536MOL0     C73844   4.530   3.376   4.559 -1.2126 -0.7377 -0.5766
  536MOL0     C73845   4.566   3.506   4.631  0.5718 -0.0738  0.4779
  536MOL0     C73846   4.620   3.471   4.772  0.4436  0.8109  0.3480
  536MOL0     N73847   4.638   3.592   4.841 -0.0691 -0.2342 -0.3435
  536MOL0     C73848   4.751   3.674   4.832  0.2471 -0.6006 -0.0964
  536MOL0     C73849   4.749   3.746   4.945  0.2152 -0.0398 -0.0597
  536MOL0     C73850   4.856   3.841   5.000 -0.1330  0.0194 -0.2634
  536MOL0     C73851   4.937   3.783   5.117 -0.3250 -0.5083 -0.1499
  536MOL0     C73852   4.857   3.775   5.250 -0.2276 -0.5242 -0.7127
  536MOL0     C73853   4.954   3.765   5.370  0.5585  0.0925 -0.0718
  536MOL0     O73854   4.993   3.893   5.424  0.9331  0.1474  0.4143
  536MOL0     C73855   5.083   3.889   5.529  1.2056  0.7651  0.0864
  536MOL0     C73856   5.135   3.774   5.584 -0.2305  0.4936  0.3997
  536MOL0     C73857   5.219   3.770   5.697 -0.5948 -0.1163  0.5477
  536MOL0     C73858   5.244   3.637   5.778 -0.4708 -0.8123  0.0581
  536MOL0     C73859   5.257   3.899   5.743  0.6082  0.3456  0.2233
  536MOL0     C73860   5.348   3.919   5.850  0.3379  0.8061 -0.6675
  536MOL0     O73861   5.303   3.889   5.974  0.0014  0.5886  0.1414
  536MOL0     C73862   5.371   3.946   6.083  0.0209 -0.0703 -0.2740
  536MOL0     C73863   5.487   3.894   6.143 -0.5847 -0.1260 -0.4197
  536MOL0     C73864   5.560   3.974   6.235  0.5568 -0.0173 -0.0658
  536MOL0     C73865   5.511   4.112   6.267 -0.6252  1.1529 -0.1744
  536MOL0     O73866   5.570   4.190   6.360 -0.3927  0.2983  0.7537
  536MOL0     C73867   5.714   4.199   6.343 -0.3592  0.0413  0.9650
  536MOL0     C73868   5.744   4.294   6.229 -0.4173  0.4454  0.0601
  536MOL0     C73869   5.680   4.424   6.229 -0.5090 -0.3117 -0.3369
  536MOL0     C73870   5.745   4.514   6.120 -0.1472 -0.1514  0.4384
  536MOL0     C73871   5.695   4.658   6.129  0.0263 -0.3310 -0.2808
  536MOL0     C73872   5.550   4.669   6.089  0.4072  0.1046  0.3297
  536MOL0     C73873   5.511   4.808   6.070 -0.4336 -0.2583 -0.8605
  536MOL0     C73874   5.510   4.844   5.919  0.2170 -0.1778 -0.0501
  536MOL0    Cl73875   5.367   4.758   5.854  0.2556 -0.1888 -0.1014
  536MOL0     C73876   5.395   4.161   6.210  0.5215  0.8010  0.5602
  536MOL0     C73877   5.327   4.079   6.120  0.1438 -0.2690 -0.1020
  536MOL0     O73878   5.458   3.974   5.822  0.1365 -0.3105  0.0141
  536MOL0     C73879   5.210   4.019   5.683 -0.2446  0.1635 -1.4328
  536MOL0     C73880   5.124   4.013   5.573  0.6043 -0.8651  0.1005
  536MOL0     N73881   4.634   3.718   5.016 -0.3144 -0.3425  0.4496
  536MOL0     N73882   4.573   3.622   4.958  0.2936  0.0830 -0.0621
  536MOL0     C73883   4.409   2.924   4.334 -0.2089  0.1255  0.6126
  536MOL0     C73884   4.304   2.909   4.423 -0.4210  0.8731  0.2623
  536MOL0     C73885   4.041   2.996   4.760 -0.2619 -0.0631 -0.4304
  536MOL0     C73886   4.044   3.101   4.855  0.1593  0.1680  0.1335
  536MOL0     C73887   3.949   3.123   4.944  0.6598 -0.0200 -1.1779
  536MOL0     C73888   3.852   3.024   4.966 -0.0085  0.1726 -1.6154
  536MOL0     O73889   3.757   3.046   5.061 -0.3340  0.2290  0.1719
  536MOL0     C73890   3.639   3.096   4.994  0.0503 -0.4103  0.4803
  536MOL0     C73891   3.522   3.032   5.053 -0.2427  0.4796  0.1348
  536MOL0     C73892   3.522   2.882   5.035 -0.3097  0.2325 -0.7299
  536MOL0     C73893   3.383   2.830   5.071  0.4187 -0.9221  0.4250
  536MOL0     C73894   3.302   2.857   4.950  0.4775 -0.2485 -0.8545
  536MOL0     C73895   3.259   2.882   4.842  0.6596 -0.4927  0.9373
  536MOL0     C73896   3.852   2.901   4.895 -0.4671 -0.8757  0.3775
  536MOL0     C73897   3.942   2.895   4.785  0.0328 -0.3399 -0.9367
  536MOL0     C73898   3.926   2.775   4.701 -0.0405 -0.7629 -0.5678
  536MOL0     H73899   4.486   2.807   4.697  0.8615  0.0170 -0.8020
  536MOL0     H73900   4.666   2.788   4.526  0.9803  2.3329 -0.5293
  536MOL0     H73901   4.559   2.974   4.124 -0.6013 -2.6773  1.0445
  536MOL0     H73902   4.726   2.956   4.098 -1.3784  0.2735 -0.9971
  536MOL0     H73903   4.792   3.152   4.225  0.9240  0.6237 -1.1391
  536MOL0     H73904   4.663   3.189   4.117  0.6479 -0.1127 -0.6438
  536MOL0     H73905   4.503   3.163   4.318  0.2840 -1.0374 -1.2638
  536MOL0     H73906   4.652   3.169   4.420  1.8901  0.7965 -0.9095
  536MOL0     H73907   4.717   3.379   4.350 -0.8165  0.3997 -0.8407
  536MOL0     H73908   4.601   3.390   4.222  0.1102 -2.6321 -1.0386
  536MOL0     H73909   4.406   3.364   4.392 -0.0074 -1.1825  1.6423
  536MOL0     H73910   4.484   3.515   4.413 -0.8674  0.2982 -0.1353
  536MOL0     H73911   4.450   3.336   4.621 -0.1296 -2.2032 -0.0682
  536MOL0     H73912   4.616   3.309   4.567  1.6069  2.7573  1.6472
  536MOL0     H73913   4.474   3.565   4.635  0.3650 -0.4808  2.9676
  536MOL0     H73914   4.643   3.568   4.584 -0.8122  3.2186  2.1675
  536MOL0     H73915   4.550   3.408   4.826  2.7200 -0.4789  1.9811
  536MOL0     H73916   4.712   3.412   4.769 -0.6047 -0.8272 -1.2404
  536MOL0     H73917   4.821   3.680   4.750  1.0056  3.0009  0.6254
  536MOL0     H73918   4.808   3.932   5.038 -3.6999 -0.9588 -1.9850
  536MOL0     H73919   4.929   3.870   4.924  0.7100 -3.1895 -0.7867
  536MOL0     H73920   4.971   3.684   5.084 -0.7264  0.4404 -3.7131
  536MOL0     H73921   5.026   3.843   5.139 -1.5043  1.8566 -1.4442
  536MOL0     H73922   4.793   3.863   5.263 -4.1661 -3.3009  0.4960
  536MOL0     H73923   4.784   3.694   5.250 -1.7805  0.7474 -3.0789
  536MOL0     H73924   4.910   3.694   5.440  2.4911 -1.7139 -0.5906
  536MOL0     H73925   5.042   3.717   5.326  1.4040 -0.4415  2.1039
  536MOL0     H73926   5.120   3.678   5.536  2.4995 -0.5438  1.3805
  536MOL0     H73927   5.182   3.643   5.868  2.4357  0.2886  2.1349
  536MOL0     H73928   5.352   3.642   5.793 -0.1294  1.9537 -2.3458
  536MOL0     H73929   5.218   3.541   5.733 -1.0464 -1.1834  1.1557
  536MOL0     H73930   5.534   3.798   6.123 -1.3255 -0.5734 -0.0386
  536MOL0     H73931   5.656   3.940   6.273 -0.1291 -0.5460  1.2733
  536MOL0     H73932   5.765   4.237   6.432 -3.1205  2.0840  1.8365
  536MOL0     H73933   5.766   4.106   6.322 -0.2457 -0.0011  1.4196
  536MOL0     H73934   5.852   4.306   6.238 -0.2009 -0.1675 -1.4117
  536MOL0     H73935   5.721   4.245   6.133 -2.6240 -1.6717  1.5523
  536MOL0     H73936   5.684   4.485   6.320 -4.1333  1.0870 -0.9547
  536MOL0     H73937   5.574   4.417   6.205 -1.6785  2.9387  2.9666
  536MOL0     H73938   5.714   4.463   6.028 -1.0142  3.7102 -1.5959
  536MOL0     H73939   5.854   4.511   6.122  0.0970 -0.8645 -3.9941
  536MOL0     H73940   5.713   4.688   6.233 -3.8298  0.7530  0.2045
  536MOL0     H73941   5.755   4.723   6.065  3.1197 -1.0386  1.6961
  536MOL0     H73942   5.487   4.634   6.172  2.0067 -2.2795  0.6234
  536MOL0     H73943   5.527   4.602   6.007 -3.9414 -3.3510  3.8466
  536MOL0     H73944   5.580   4.865   6.133 -1.8488 -1.2397  1.7615
  536MOL0     H73945   5.410   4.833   6.105 -0.5612 -1.4103 -0.3695
  536MOL0     H73946   5.604   4.819   5.869 -1.5336 -0.4267 -3.5494
  536MOL0     H73947   5.507   4.950   5.894 -0.4114 -0.5372 -1.6024
  536MOL0     H73948   5.368   4.265   6.227  1.1178  1.0555  0.0103
  536MOL0     H73949   5.238   4.129   6.082 -0.5950 -1.5698 -0.1338
  536MOL0     H73950   5.240   4.110   5.734 -1.5346 -0.5024  0.6073
  536MOL0     H73951   5.092   4.105   5.525  0.6797 -0.3928  0.9225
  536MOL0     H73952   4.385   2.979   4.243 -1.9260 -0.8128  0.4607
  536MOL0     H73953   4.209   2.945   4.384 -0.9936  1.1208  1.8298
  536MOL0     H73954   4.121   3.174   4.830  0.3724 -0.0007  0.2930
  536MOL0     H73955   3.957   3.221   4.991  0.7478  0.5259 -2.3070
  536MOL0     H73956   3.617   3.203   4.997 -3.2798 -0.9808  4.1849
  536MOL0     H73957   3.648   3.069   4.888  0.2779 -0.9877  0.6430
  536MOL0     H73958   3.437   3.063   4.991 -1.4321 -4.1198 -0.8798
  536MOL0     H73959   3.513   3.066   5.157  1.0466  0.8429  0.1481
  536MOL0     H73960   3.534   2.858   4.929 -2.7471 -2.4168 -0.5134
  536MOL0     H73961   3.598   2.834   5.097  0.0709 -0.1646 -1.4950
  536MOL0     H73962   3.345   2.885   5.158 -0.7774 -0.4810 -0.3541
  536MOL0     H73963   3.389   2.722   5.087 -0.9985 -1.3044 -1.2685
  536MOL0     H73964   3.216   2.906   4.747  1.8375 -1.8247  0.0191
  536MOL0     H73965   3.795   2.817   4.934  0.5121 -2.5451 -1.6068
  536MOL0     H73966   3.967   2.689   4.755 -2.9432 -2.3334 -0.6267
  536MOL0     H73967   3.826   2.749   4.665  1.4145 -3.4741 -3.0920
  536MOL0     H73968   3.985   2.770   4.609  2.4059 -0.7643  0.9022
  537MOL0     O73969   0.028   7.844   1.574  0.1154  0.3221  0.4019
  537MOL0     C73970   0.019   7.726   1.605 -0.4665 -0.3139  0.0435
  537MOL0     O73971   0.116   7.656   1.676 -0.4266 -0.3416  0.3314
  537MOL0     C73972   0.239   7.727   1.674 -0.0008 -0.3875  0.5336
  537MOL0     C73973   0.264   7.817   1.776  1.3715 -0.0187  0.0577
  537MOL0     C73974   0.393   7.862   1.799  1.0064 -0.5615  0.5291
  537MOL0     C73975   0.487   7.819   1.716  0.8996 -0.2065 -0.7658
  537MOL0     O73976   0.614   7.868   1.752 -0.9933  0.0714  0.4948
  537MOL0     C73977   0.734   7.848   1.668  0.4773  0.3971 -0.2194
  537MOL0     C73978   0.840   7.747   1.714  0.2402 -0.0476  0.1127
  537MOL0     C73979   0.775   7.604   1.719  0.5447 -0.4736  0.8410
  537MOL0     C73980   0.862   7.502   1.781  0.5838 -0.3564  0.1807
  537MOL0     C73981   0.802   7.361   1.793 -1.4293  0.9725 -0.0709
  537MOL0     C73982   0.908   7.261   1.827 -0.2162  0.2489  0.0467
  537MOL0     C73983   0.869   7.112   1.800 -0.8119 -0.8080  0.7903
  537MOL0     C73984   0.739   7.075   1.873 -0.1829 -0.2952 -0.0614
  537MOL0     N73985   0.748   6.926   1.870 -0.1078 -0.4307 -0.2537
  537MOL0     C73986   0.698   6.848   1.768 -0.4777 -0.2139 -0.0429
  537MOL0     C73987   0.724   6.717   1.799  0.3112 -0.1450  0.3308
  537MOL0     C73988   0.661   6.586   1.742 -0.1991 -0.3279  0.1107
  537MOL0     C73989   0.673   6.477   1.849 -0.2833 -0.2642 -1.0967
  537MOL0     C73990   0.780   6.372   1.815  0.1160 -0.5897  0.4400
  537MOL0     C73991   0.916   6.427   1.791  0.8634 -0.0523 -0.5741
  537MOL0     O73992   0.988   6.309   1.759  0.0161 -0.3195  0.1847
  537MOL0     C73993   1.118   6.333   1.739  1.1249  1.5126 -0.4389
  537MOL0     C73994   1.167   6.363   1.617 -0.8843  1.1864 -1.2636
  537MOL0     C73995   1.307   6.380   1.596  0.7485  1.1769 -0.3752
  537MOL0     C73996   1.357   6.419   1.461  0.0483  0.3578  1.4563
  537MOL0     C73997   1.396   6.360   1.702 -0.4343  1.1163 -1.1450
  537MOL0     C73998   1.540   6.373   1.696  0.9195 -0.1842  0.7198
  537MOL0     O73999   1.605   6.286   1.613 -0.3290 -0.6710  0.3563
  537MOL0     C74000   1.732   6.316   1.558  1.2403  0.7785 -0.5400
  537MOL0     C74001   1.786   6.211   1.474 -0.1729  0.3658  0.8991
  537MOL0     C74002   1.906   6.223   1.408 -0.6340  0.4286 -0.7939
  537MOL0     C74003   1.967   6.348   1.406 -0.5210 -0.4962 -0.0888
  537MOL0     O74004   2.091   6.354   1.345 -0.1769  0.0811 -0.0426
  537MOL0     C74005   2.199   6.396   1.425 -0.1134  0.1293 -0.7944
  537MOL0     C74006   2.208   6.303   1.553 -0.1303 -0.4070  0.9754
  537MOL0     C74007   2.288   6.371   1.664  0.5615 -0.3834  0.2402
  537MOL0     C74008   2.419   6.298   1.713  0.3297  0.5416 -0.5672
  537MOL0     C74009   2.502   6.381   1.811 -0.2779 -0.2318 -0.0714
  537MOL0     C74010   2.430   6.404   1.950 -0.8091 -0.3842 -0.3535
  537MOL0     C74011   2.539   6.452   2.051 -0.6745  0.2991 -0.8006
  537MOL0     C74012   2.658   6.358   2.085  0.6968 -1.1852 -0.1272
  537MOL0    Cl74013   2.586   6.210   2.136 -0.5419  0.5267  0.3851
  537MOL0     C74014   1.916   6.453   1.482 -0.1686  0.0476 -0.0059
  537MOL0     C74015   1.790   6.438   1.546 -0.5666  0.1063  0.8839
  537MOL0     O74016   1.596   6.456   1.767  0.0248  0.5660 -0.0359
  537MOL0     C74017   1.345   6.323   1.827 -0.2573 -0.1591  0.1709
  537MOL0     C74018   1.206   6.319   1.846 -0.3284 -0.1306  0.1590
  537MOL0     N74019   0.820   6.719   1.894 -0.1902  0.2367 -0.9969
  537MOL0     N74020   0.830   6.839   1.944 -0.0952 -0.4932  0.0797
  537MOL0     C74021   0.469   7.733   1.607 -0.0373 -0.5721  0.9061
  537MOL0     C74022   0.331   7.698   1.579  0.2705  0.8494 -1.1803
  537MOL0     C74023  -0.105   7.662   1.554 -0.0124 -0.3149  0.1836
  537MOL0     C74024  -0.118   7.631   1.421  0.6220 -0.9353  0.1788
  537MOL0     C74025  -0.225   7.553   1.387  0.1920  1.1958  0.4035
  537MOL0     C74026  -0.330   7.505   1.473 -0.5938 -0.5017 -0.0240
  537MOL0     O74027  -0.425   7.420   1.430  1.4247  0.8056  0.6562
  537MOL0     C74028  -0.458   7.395   1.288 -0.3183  0.0645  0.3912
  537MOL0     C74029  -0.511   7.509   1.219 -0.2028 -0.4930  0.1427
  537MOL0     C74030  -0.605   7.474   1.097 -0.9039  0.6430 -0.4889
  537MOL0     C74031  -0.543   7.394   0.976  0.0706 -0.2605 -0.4202
  537MOL0     C74032  -0.621   7.407   0.852  0.2524 -0.2322  0.4286
  537MOL0     C74033  -0.674   7.414   0.741 -0.1374  0.2623  0.6232
  537MOL0     C74034  -0.314   7.550   1.604 -0.6010  0.5607  0.2716
  537MOL0     C74035  -0.209   7.631   1.644  0.7790 -1.8630  0.1130
  537MOL0     C74036  -0.212   7.698   1.783  0.1984  1.2791 -0.1661
  537MOL0     H74037   0.185   7.847   1.844  0.0169  2.6821 -2.4760
  537MOL0     H74038   0.417   7.924   1.884 -2.4104 -0.0416  1.2677
  537MOL0     H74039   0.787   7.943   1.677 -1.3232  1.2875  1.8709
  537MOL0     H74040   0.705   7.834   1.564  0.9282  0.3942 -0.3481
  537MOL0     H74041   0.934   7.738   1.659  0.2101 -3.6367  0.4227
  537MOL0     H74042   0.866   7.777   1.816  1.6023 -0.7437 -0.0095
  537MOL0     H74043   0.685   7.605   1.781  0.6527 -1.2141  1.0109
  537MOL0     H74044   0.749   7.587   1.614  2.5445 -1.6009  0.4872
  537MOL0     H74045   0.951   7.498   1.716  1.2282 -2.2986  1.1030
  537MOL0     H74046   0.893   7.538   1.880  2.1432 -0.3530 -0.2784
  537MOL0     H74047   0.743   7.337   1.705  1.5289  0.1131 -1.9858
  537MOL0     H74048   0.735   7.372   1.879 -1.6159 -0.2368 -0.0544
  537MOL0     H74049   1.007   7.275   1.783 -1.2719  0.6012 -2.4192
  537MOL0     H74050   0.923   7.286   1.932  0.1138 -0.8454  0.2701
  537MOL0     H74051   0.961   7.066   1.836  1.0075 -0.7275 -3.2354
  537MOL0     H74052   0.876   7.080   1.695 -1.8073 -0.1174  0.4864
  537MOL0     H74053   0.764   7.096   1.978  0.5928  1.9474 -0.6354
  537MOL0     H74054   0.645   7.114   1.833  0.7941  0.5744 -1.6160
  537MOL0     H74055   0.640   6.885   1.684 -0.3344  0.0841 -0.0120
  537MOL0     H74056   0.715   6.566   1.649 -3.4439 -0.5675 -1.8913
  537MOL0     H74057   0.554   6.607   1.730 -1.2188 -4.0181  1.2224
  537MOL0     H74058   0.686   6.520   1.949  2.6207 -0.9437 -1.0814
  537MOL0     H74059   0.579   6.424   1.863 -0.0548 -0.3502  0.2598
  537MOL0     H74060   0.789   6.306   1.902 -0.9385 -1.6409 -0.2223
  537MOL0     H74061   0.742   6.304   1.739 -0.9864 -1.1298  1.4452
  537MOL0     H74062   0.909   6.477   1.694 -0.0474 -1.1092 -1.0782
  537MOL0     H74063   0.943   6.495   1.873 -1.1837  0.9880 -0.6930
  537MOL0     H74064   1.101   6.396   1.538  0.2188  0.7497 -2.3933
  537MOL0     H74065   1.331   6.345   1.385  2.2157  0.8564  0.1604
  537MOL0     H74066   1.464   6.431   1.444 -0.6492  2.4872 -2.7324
  537MOL0     H74067   1.309   6.517   1.451  0.8236  1.0197  3.6117
  537MOL0     H74068   1.741   6.113   1.486 -1.7970  0.8093 -0.9911
  537MOL0     H74069   1.959   6.144   1.356 -1.1104  0.4523 -1.3312
  537MOL0     H74070   2.292   6.398   1.367  2.3501 -1.4463  2.7740
  537MOL0     H74071   2.187   6.501   1.455  1.9875  0.1075  0.2837
  537MOL0     H74072   2.117   6.261   1.596 -0.2821 -3.7741 -2.0356
  537MOL0     H74073   2.261   6.211   1.524  0.3495  0.2990 -0.5103
  537MOL0     H74074   2.225   6.396   1.750  1.2818  2.2077  0.1016
  537MOL0     H74075   2.331   6.461   1.618 -2.2719 -0.7189 -3.4815
  537MOL0     H74076   2.479   6.259   1.631  1.8315  1.2420  0.1668
  537MOL0     H74077   2.393   6.209   1.771  0.6390  1.2749  0.7405
  537MOL0     H74078   2.601   6.336   1.816  0.7108  1.5570 -1.9674
  537MOL0     H74079   2.513   6.482   1.770 -2.9824  0.1348 -0.1038
  537MOL0     H74080   2.370   6.318   1.982  0.4922 -0.5322  1.8261
  537MOL0     H74081   2.359   6.488   1.948  0.4756  0.7208 -1.1343
  537MOL0     H74082   2.490   6.471   2.147 -2.1077  0.6831 -1.5692
  537MOL0     H74083   2.569   6.555   2.029  0.9292 -0.0664 -0.4608
  537MOL0     H74084   2.726   6.401   2.159 -0.9569 -0.3955  0.9617
  537MOL0     H74085   2.724   6.350   1.997  2.2939  2.9351  0.4996
  537MOL0     H74086   1.961   6.551   1.495  1.2392 -0.3898 -1.3185
  537MOL0     H74087   1.748   6.525   1.595 -0.1541  0.8117  0.0107
  537MOL0     H74088   1.406   6.308   1.915 -1.5224  1.5059  1.4054
  537MOL0     H74089   1.171   6.319   1.949 -1.0475  3.0663  0.0180
  537MOL0     H74090   0.555   7.698   1.551  0.4677  1.9704 -0.0580
  537MOL0     H74091   0.316   7.620   1.505  0.8857  0.4597 -0.9002
  537MOL0     H74092  -0.044   7.655   1.346  0.0522 -0.2763 -0.1803
  537MOL0     H74093  -0.227   7.521   1.283 -0.6098  3.0326 -0.1772
  537MOL0     H74094  -0.367   7.362   1.238 -0.8912 -0.5571 -0.2556
  537MOL0     H74095  -0.517   7.305   1.272  1.1323 -1.2861  2.1706
  537MOL0     H74096  -0.436   7.582   1.187 -2.9155  2.2528 -0.4549
  537MOL0     H74097  -0.586   7.562   1.278 -2.6224 -2.3737 -1.0168
  537MOL0     H74098  -0.688   7.412   1.133  1.9275 -2.8112  0.5691
  537MOL0     H74099  -0.630   7.572   1.054 -0.8358  0.9573  0.1795
  537MOL0     H74100  -0.529   7.288   1.000  0.7802  0.3294  2.0862
  537MOL0     H74101  -0.440   7.429   0.963 -0.3307 -0.0045 -3.8704
  537MOL0     H74102  -0.724   7.419   0.647 -0.3402 -3.2713  0.4194
  537MOL0     H74103  -0.387   7.526   1.682 -1.8099  3.8094  0.3259
  537MOL0     H74104  -0.196   7.806   1.772  1.2645  0.9501 -2.3999
  537MOL0     H74105  -0.311   7.690   1.828 -0.4554  1.3751 -1.5491
  537MOL0     H74106  -0.143   7.641   1.846 -0.6985 -0.9781 -1.1144
  538MOL0     O74107   9.670   1.174   2.494  0.6811  0.6255  0.0438
  538MOL0     C74108   9.639   1.060   2.523 -0.3401 -0.0935 -0.0697
  538MOL0     O74109   9.645   1.003   2.651  0.6931 -0.6391  0.8006
  538MOL0     C74110   9.697   1.087   2.745 -0.8763 -0.1121 -0.3797
  538MOL0     C74111   9.830   1.059   2.794 -0.1774  0.2999 -0.4268
  538MOL0     C74112   9.888   1.139   2.895  0.0081 -0.3037  0.0153
  538MOL0     C74113   9.823   1.249   2.951  0.1982  1.3828  0.6961
  538MOL0     O74114   9.884   1.304   3.056 -0.2886 -0.3085  0.7659
  538MOL0     C74115   9.810   1.417   3.114  0.1270 -0.8534 -0.4669
  538MOL0     C74116   9.891   1.487   3.220  0.0879  1.4468  0.5883
  538MOL0     C74117   9.930   1.375   3.327  0.5067  0.1622  0.3235
  538MOL0     C74118  10.043   1.433   3.418 -0.4979 -0.0955  0.6694
  538MOL0     C74119  10.109   1.329   3.509 -0.0444  0.0270 -0.7092
  538MOL0     C74120  10.008   1.303   3.624 -0.4109  0.1131 -0.8462
  538MOL0     C74121  10.062   1.191   3.715 -0.3694  0.5675 -0.2699
  538MOL0     C74122  10.088   1.043   3.665 -0.3198  0.2072  0.1184
  538MOL0     N74123   9.970   1.013   3.585  0.6830 -0.9392  0.2584
  538MOL0     C74124   9.964   1.015   3.450  0.0793 -0.0016  0.4050
  538MOL0     C74125   9.835   1.014   3.417  0.1966  0.7986 -0.3892
  538MOL0     C74126   9.783   1.007   3.278  0.0765  0.1754  0.0100
  538MOL0     C74127   9.722   0.873   3.247  0.3506 -0.2883  0.0836
  538MOL0     C74128   9.688   0.856   3.096  0.1278  0.0436 -0.2972
  538MOL0     C74129   9.642   0.725   3.044  0.9557 -1.0615  0.2800
  538MOL0     O74130   9.732   0.633   3.081  0.5631 -0.1276  0.6525
  538MOL0     C74131   9.764   0.539   2.982  0.0919  0.0115 -1.4620
  538MOL0     C74132   9.797   0.551   2.847  0.9500 -0.1258 -0.2327
  538MOL0     C74133   9.827   0.441   2.769  0.9082  0.4930 -0.0897
  538MOL0     C74134   9.884   0.471   2.633  0.5779 -0.7635 -0.5634
  538MOL0     C74135   9.827   0.309   2.819  0.6751  0.7668 -0.2461
  538MOL0     C74136   9.880   0.186   2.746  0.6483  0.3963 -0.0216
  538MOL0     O74137   9.892   0.084   2.831 -0.1029  0.1930  0.0729
  538MOL0     C74138   9.954  -0.042   2.804 -0.3001 -0.2888 -0.9720
  538MOL0     C74139   9.928  -0.137   2.901  0.3699 -0.1390  0.1393
  538MOL0     C74140   9.986  -0.265   2.891 -0.5647  0.3480  0.2867
  538MOL0     C74141  10.076  -0.293   2.791  0.5264 -0.1222  0.1394
  538MOL0     O74142  10.129  -0.420   2.778 -0.5937  0.4475  0.5243
  538MOL0     C74143  10.154  -0.504   2.892 -0.3399  0.2891 -0.9696
  538MOL0     C74144  10.208  -0.637   2.841  0.5163  1.1690 -0.6748
  538MOL0     C74145  10.294  -0.627   2.722 -0.4120 -1.0470  0.3031
  538MOL0     C74146  10.384  -0.747   2.685  0.7909  0.5434  0.0352
  538MOL0     C74147  10.316  -0.892   2.661 -0.8437  0.4202 -0.0500
  538MOL0     C74148  10.401  -1.005   2.618 -0.5166  0.5834 -0.7575
  538MOL0     C74149  10.483  -0.982   2.495  0.6543 -0.7149  0.2706
  538MOL0     C74150  10.549  -1.123   2.451 -0.2284 -0.1416 -0.3723
  538MOL0    Cl74151  10.424  -1.258   2.405  0.2638  0.1337 -0.2037
  538MOL0     C74152  10.102  -0.203   2.685 -0.4720  0.7486  0.7442
  538MOL0     C74153  10.040  -0.078   2.689  1.2315  0.2388 -0.2222
  538MOL0     O74154   9.883   0.174   2.621  0.3910  0.0615  0.0221
  538MOL0     C74155   9.803   0.299   2.955  0.3802 -0.3442 -0.3425
  538MOL0     C74156   9.763   0.414   3.038 -0.7645  0.6050  0.5742
  538MOL0     N74157   9.756   1.006   3.529  0.1358 -0.1258 -0.5672
  538MOL0     N74158   9.838   1.002   3.628 -0.3001  0.0656  0.1103
  538MOL0     C74159   9.696   1.285   2.893 -0.4371  0.3718  0.4235
  538MOL0     C74160   9.641   1.201   2.791  0.4708 -0.2853 -0.0795
  538MOL0     C74161   9.587   0.970   2.417  0.2547  0.9791 -0.1878
  538MOL0     C74162   9.538   0.846   2.455  0.2842  0.4685 -0.0898
  538MOL0     C74163   9.509   0.738   2.355 -0.4651 -0.3903  0.1585
  538MOL0     C74164   9.530   0.752   2.224 -0.1400 -0.2258  0.2774
  538MOL0     O74165   9.512   0.659   2.122  0.5849 -0.2351  0.5663
  538MOL0     C74166   9.495   0.520   2.151  0.3368  0.1342  0.7002
  538MOL0     C74167   9.635   0.463   2.166 -0.5612  0.2842  0.0432
  538MOL0     C74168   9.719   0.464   2.040  0.3995 -0.0538  0.0200
  538MOL0     C74169   9.693   0.356   1.937 -0.4377  0.3609 -0.0259
  538MOL0     C74170   9.562   0.354   1.877  1.4826 -0.1128 -0.1347
  538MOL0     C74171   9.452   0.351   1.817 -0.9140 -0.0422  0.4268
  538MOL0     C74172   9.566   0.881   2.189  0.8469 -0.6545 -0.3944
  538MOL0     C74173   9.588   0.990   2.274 -0.8718  0.6272 -0.1226
  538MOL0     C74174   9.629   1.121   2.205  0.3234 -0.2199 -0.0441
  538MOL0     H74175   9.895   0.978   2.761  0.6930  0.0731  1.6963
  538MOL0     H74176   9.981   1.115   2.946  0.0749  0.1556  0.1111
  538MOL0     H74177   9.715   1.375   3.148  0.2969 -2.0465 -1.3596
  538MOL0     H74178   9.776   1.496   3.046 -1.6531 -0.7734  0.4685
  538MOL0     H74179   9.980   1.530   3.172  0.0909 -0.2240 -1.0039
  538MOL0     H74180   9.824   1.571   3.240 -0.8864  1.1365 -1.1474
  538MOL0     H74181   9.836   1.353   3.378 -1.3983 -0.8697 -3.2894
  538MOL0     H74182   9.964   1.283   3.278 -1.8829 -1.3094  1.2550
  538MOL0     H74183  10.115   1.464   3.342 -1.5355  0.8436  0.0342
  538MOL0     H74184  10.008   1.518   3.477  1.8962  0.5295  1.2711
  538MOL0     H74185  10.210   1.347   3.545  0.1577 -2.2836  0.0914
  538MOL0     H74186  10.121   1.239   3.448  0.3254 -0.8005  0.5396
  538MOL0     H74187   9.997   1.387   3.693 -1.0138  0.3267 -1.1956
  538MOL0     H74188   9.904   1.274   3.607 -0.6372 -0.4185  1.1818
  538MOL0     H74189   9.991   1.174   3.797 -0.6681  0.9120 -0.4517
  538MOL0     H74190  10.158   1.226   3.754  0.7909 -2.4337 -0.1419
  538MOL0     H74191  10.173   1.036   3.597 -1.2005 -2.0619 -0.8777
  538MOL0     H74192  10.093   0.970   3.747 -0.9383 -0.4448 -0.4042
  538MOL0     H74193  10.049   1.006   3.383 -0.7222 -2.7665 -0.3869
  538MOL0     H74194   9.871   1.034   3.220  1.0586  0.7200  1.6935
  538MOL0     H74195   9.708   1.086   3.265  1.3760  1.1566 -2.0941
  538MOL0     H74196   9.789   0.788   3.262 -2.5628 -3.5057 -3.2869
  538MOL0     H74197   9.625   0.860   3.297 -0.6065 -0.3585 -1.7041
  538MOL0     H74198   9.605   0.925   3.078  2.3057  2.1721 -3.4530
  538MOL0     H74199   9.774   0.891   3.037 -0.0316 -0.4187 -0.8175
  538MOL0     H74200   9.547   0.692   3.087 -1.0934  3.3424 -0.2994
  538MOL0     H74201   9.634   0.740   2.936  0.8569  4.0709  0.7537
  538MOL0     H74202   9.813   0.650   2.804 -0.1230  0.1462 -0.0263
  538MOL0     H74203   9.879   0.579   2.617  2.4994 -0.7883 -1.6735
  538MOL0     H74204   9.838   0.422   2.546 -1.6694  0.4577 -0.1239
  538MOL0     H74205   9.991   0.447   2.633  0.3316 -1.9716  0.3659
  538MOL0     H74206   9.856  -0.121   2.980 -0.1471  0.1178 -0.3750
  538MOL0     H74207   9.959  -0.349   2.954 -0.1304  0.7032  0.9572
  538MOL0     H74208  10.223  -0.458   2.963 -1.9774  0.4749  0.5836
  538MOL0     H74209  10.060  -0.522   2.946 -0.3396 -2.1900 -1.7024
  538MOL0     H74210  10.270  -0.682   2.918  0.3040 -2.6601 -2.5011
  538MOL0     H74211  10.116  -0.694   2.824 -0.7955  2.6186  1.1114
  538MOL0     H74212  10.359  -0.539   2.729 -0.2071 -0.9010 -2.4954
  538MOL0     H74213  10.232  -0.617   2.633 -0.1298  0.6903  0.2719
  538MOL0     H74214  10.455  -0.754   2.769 -0.1103  0.6922  0.8252
  538MOL0     H74215  10.445  -0.719   2.599  2.5485 -5.6975 -1.2480
  538MOL0     H74216  10.280  -0.918   2.761 -1.8241  4.4795  0.8695
  538MOL0     H74217  10.226  -0.891   2.599 -0.3725 -3.0076 -0.9398
  538MOL0     H74218  10.329  -1.086   2.598 -1.7319  1.7477 -1.2302
  538MOL0     H74219  10.477  -1.038   2.690 -0.8187  2.4543  0.5034
  538MOL0     H74220  10.561  -0.907   2.512 -1.4841  1.3408  1.7255
  538MOL0     H74221  10.432  -0.953   2.403  3.8577 -1.2092 -1.7880
  538MOL0     H74222  10.608  -1.150   2.539 -1.2524  0.7047  0.6070
  538MOL0     H74223  10.619  -1.116   2.367 -0.5650 -1.5235 -0.7901
  538MOL0     H74224  10.175  -0.230   2.609  0.0262  0.1497  1.4324
  538MOL0     H74225  10.049   0.004   2.618 -3.7455  1.0111 -0.2737
  538MOL0     H74226   9.803   0.201   3.003  1.2104  0.6153  1.7494
  538MOL0     H74227   9.733   0.394   3.140 -4.7944 -4.1072 -1.0701
  538MOL0     H74228   9.638   1.373   2.921  0.3569  1.4123 -1.0790
  538MOL0     H74229   9.545   1.234   2.753 -0.8073 -1.6695  1.7844
  538MOL0     H74230   9.507   0.821   2.556 -2.6766  0.1376 -0.9862
  538MOL0     H74231   9.469   0.645   2.393  2.3596 -2.3235 -1.1764
  538MOL0     H74232   9.435   0.499   2.240 -2.6700 -1.1991 -1.4898
  538MOL0     H74233   9.433   0.472   2.076  0.6353 -1.5414  1.4848
  538MOL0     H74234   9.632   0.363   2.211  0.6626  0.7007  1.0989
  538MOL0     H74235   9.677   0.524   2.247  0.2352  1.2701 -1.0913
  538MOL0     H74236   9.703   0.561   1.993  1.2844  0.6122  1.0650
  538MOL0     H74237   9.825   0.456   2.066  1.1323  0.5688 -2.4824
  538MOL0     H74238   9.712   0.258   1.982 -0.0262 -0.1044 -1.1782
  538MOL0     H74239   9.760   0.354   1.851 -0.5726 -3.4695 -0.1919
  538MOL0     H74240   9.361   0.364   1.761  0.8444  4.4564 -1.8879
  538MOL0     H74241   9.567   0.908   2.084  2.0833 -1.1849 -0.5449
  538MOL0     H74242   9.539   1.183   2.213 -1.4175 -2.8428  4.1425
  538MOL0     H74243   9.706   1.172   2.263 -1.6047  1.9204  0.7520
  538MOL0     H74244   9.664   1.104   2.102 -1.1125  3.8438 -1.3910
  539MOL0     O74245   6.978   3.760   8.790  0.2456 -0.4634 -0.0674
  539MOL0     C74246   6.934   3.668   8.854 -0.5676 -0.8247  0.0240
  539MOL0     O74247   6.813   3.617   8.858 -0.0527  0.2754 -0.3119
  539MOL0     C74248   6.714   3.675   8.775 -0.6279 -0.5244  0.2337
  539MOL0     C74249   6.589   3.692   8.832 -0.3109 -0.6241 -0.0010
  539MOL0     C74250   6.483   3.728   8.747 -0.0637 -0.7039 -0.7884
  539MOL0     C74251   6.506   3.760   8.612 -0.1796 -0.2174  0.2894
  539MOL0     O74252   6.394   3.788   8.534  0.1819  0.0319  0.0684
  539MOL0     C74253   6.390   3.842   8.402 -0.5629 -0.3848 -0.3934
  539MOL0     C74254   6.244   3.881   8.380 -0.2758 -1.1892  1.0213
  539MOL0     C74255   6.235   4.014   8.296 -0.7436  0.1940 -0.7471
  539MOL0     C74256   6.086   4.045   8.297  0.6039  0.7548  0.1913
  539MOL0     C74257   6.059   4.190   8.258 -0.3264 -0.1822  0.0566
  539MOL0     C74258   6.074   4.285   8.377 -0.4111  0.4217  0.6132
  539MOL0     C74259   6.058   4.429   8.334 -0.4383 -0.5899  0.7197
  539MOL0     C74260   6.189   4.487   8.261 -0.0601  1.0569  0.2177
  539MOL0     N74261   6.159   4.634   8.247  0.2968  0.0940 -0.1577
  539MOL0     C74262   6.227   4.743   8.283  0.2194  0.5669  0.1650
  539MOL0     C74263   6.168   4.844   8.209  0.1052  0.2055 -0.3025
  539MOL0     C74264   6.213   4.982   8.186  0.4630 -0.7488 -0.3325
  539MOL0     C74265   6.350   4.996   8.115  0.4039  0.1117  0.5831
  539MOL0     C74266   6.375   4.911   7.991 -0.5077 -0.5231  1.3644
  539MOL0     C74267   6.295   4.948   7.858 -0.7732  0.4327 -1.1659
  539MOL0     O74268   6.280   5.087   7.830 -0.1626  0.4682  0.0736
  539MOL0     C74269   6.381   5.175   7.853 -0.3378 -0.3255  0.8848
  539MOL0     C74270   6.334   5.306   7.871 -0.3430 -0.2048 -0.0921
  539MOL0     C74271   6.422   5.408   7.900 -0.2387  0.0683 -0.2519
  539MOL0     C74272   6.358   5.540   7.917 -0.8540 -0.1063 -1.2533
  539MOL0     C74273   6.561   5.386   7.912 -0.7692 -0.6443  1.0280
  539MOL0     C74274   6.659   5.489   7.933  0.3071 -0.2383 -0.5319
  539MOL0     O74275   6.755   5.436   8.020 -0.3979  0.0159  0.9287
  539MOL0     C74276   6.866   5.510   8.054  0.1945  0.8301  0.2005
  539MOL0     C74277   6.992   5.465   8.011  0.1555 -0.8812 -0.0836
  539MOL0     C74278   7.112   5.527   8.064  0.0230  0.0942 -0.1431
  539MOL0     C74279   7.106   5.626   8.154 -0.2124 -0.0573  0.0870
  539MOL0     O74280   7.223   5.686   8.202 -0.0155  0.2143 -0.2551
  539MOL0     C74281   7.214   5.760   8.326 -1.1545 -0.3919 -0.2728
  539MOL0     C74282   7.186   5.899   8.287  0.6083 -0.4836  0.1150
  539MOL0     C74283   7.314   5.980   8.263 -0.6384  1.0258  0.3356
  539MOL0     C74284   7.283   6.128   8.251  0.9269  0.3947  0.0552
  539MOL0     C74285   7.408   6.205   8.204  0.4995  0.6963 -0.2166
  539MOL0     C74286   7.377   6.349   8.168  0.6616 -0.8555  0.8189
  539MOL0     C74287   7.507   6.402   8.094  0.0173  0.9961  0.6045
  539MOL0     C74288   7.489   6.466   7.952  0.3461 -0.4305  0.1732
  539MOL0    Cl74289   7.407   6.347   7.838  0.7074  0.0746  0.0980
  539MOL0     C74290   6.974   5.663   8.197  0.8251  0.0518  0.2975
  539MOL0     C74291   6.859   5.600   8.149 -0.1808 -0.9447 -0.1843
  539MOL0     O74292   6.650   5.602   7.895 -0.5168  0.0354 -0.2712
  539MOL0     C74293   6.603   5.250   7.890  0.0344  0.1077 -0.1650
  539MOL0     C74294   6.517   5.151   7.855 -0.7861 -0.1055  0.1700
  539MOL0     N74295   6.065   4.795   8.133  0.4359  0.7631 -0.4075
  539MOL0     N74296   6.053   4.672   8.164 -0.0348  0.1067  0.8314
  539MOL0     C74297   6.632   3.755   8.558  0.3197 -0.6852 -0.0118
  539MOL0     C74298   6.731   3.706   8.636 -0.7578 -0.3484 -0.1651
  539MOL0     C74299   7.041   3.596   8.932  0.0217  0.7453 -0.3667
  539MOL0     C74300   6.996   3.497   9.022  0.7980 -0.2548 -0.9374
  539MOL0     C74301   7.070   3.430   9.117 -0.4033  0.1041  0.4027
  539MOL0     C74302   7.209   3.462   9.131  0.7229  0.0106 -0.1630
  539MOL0     O74303   7.296   3.395   9.209 -1.0038 -0.2379 -0.1851
  539MOL0     C74304   7.300   3.461   9.334  0.1153  0.4100  0.0463
  539MOL0     C74305   7.420   3.419   9.413  0.3969  0.6316 -0.1581
  539MOL0     C74306   7.403   3.415   9.565  0.1945  0.0466 -0.2981
  539MOL0     C74307   7.531   3.360   9.641  0.4442  0.2048 -0.4991
  539MOL0     C74308   7.514   3.210   9.654 -0.0074 -0.4688  0.3739
  539MOL0     C74309   7.503   3.095   9.673 -0.1071  0.1680  0.2333
  539MOL0     C74310   7.261   3.553   9.043 -0.1309 -0.2356 -0.0517
  539MOL0     C74311   7.175   3.629   8.949  0.3023 -0.5467  1.2869
  539MOL0     C74312   7.237   3.728   8.844  0.7710 -0.0734 -0.2374
  539MOL0     H74313   6.575   3.680   8.939 -0.6739 -2.1987 -0.2068
  539MOL0     H74314   6.384   3.722   8.792  0.5421 -2.4997  0.4301
  539MOL0     H74315   6.431   3.766   8.335  1.9904 -1.3408  2.0892
  539MOL0     H74316   6.451   3.932   8.408 -0.8959 -0.1517 -0.4890
  539MOL0     H74317   6.195   3.801   8.324  1.2846 -2.2638  1.1309
  539MOL0     H74318   6.202   3.895   8.480  1.7087  1.8684  1.5584
  539MOL0     H74319   6.297   4.094   8.338  2.3888 -0.9867 -2.8023
  539MOL0     H74320   6.257   3.995   8.191 -3.2330 -2.8960 -0.8659
  539MOL0     H74321   6.038   3.979   8.224 -0.1016  1.1870  0.2546
  539MOL0     H74322   6.045   4.022   8.395  1.3353  2.5587  0.9612
  539MOL0     H74323   5.956   4.195   8.222 -0.1368  0.7350 -0.3805
  539MOL0     H74324   6.113   4.224   8.169 -1.5184  3.0182  0.4254
  539MOL0     H74325   6.008   4.251   8.457  1.7295 -1.4912  1.7003
  539MOL0     H74326   6.174   4.274   8.421  1.4020  3.2783 -2.3803
  539MOL0     H74327   6.055   4.485   8.427  0.3078  1.6951 -0.5661
  539MOL0     H74328   5.972   4.443   8.268  1.1394 -0.8834 -1.5475
  539MOL0     H74329   6.280   4.471   8.318 -1.3476 -0.0926  2.0535
  539MOL0     H74330   6.190   4.444   8.160  0.2860  0.3048  0.5384
  539MOL0     H74331   6.321   4.755   8.336 -0.1409  0.5613  0.8110
  539MOL0     H74332   6.191   5.039   8.276 -2.9039 -2.2702 -0.0069
  539MOL0     H74333   6.155   5.027   8.104 -3.0946 -0.6069  2.0198
  539MOL0     H74334   6.352   5.103   8.093  1.0041 -0.1059 -0.5091
  539MOL0     H74335   6.429   4.961   8.182  0.3954 -2.3725 -0.6008
  539MOL0     H74336   6.479   4.918   7.956 -1.0899 -3.0383 -1.3007
  539MOL0     H74337   6.367   4.806   8.022  2.5609 -0.5957  2.3124
  539MOL0     H74338   6.334   4.891   7.773  0.9495 -0.9081  0.4505
  539MOL0     H74339   6.191   4.915   7.866 -0.9692  0.8590 -1.8342
  539MOL0     H74340   6.227   5.322   7.855 -1.6498 -2.8304  4.2560
  539MOL0     H74341   6.360   5.603   7.828 -4.8154  2.2634  0.1093
  539MOL0     H74342   6.399   5.585   8.008 -0.0243 -0.3097 -1.5181
  539MOL0     H74343   6.251   5.532   7.940 -0.5274 -1.9517 -0.1096
  539MOL0     H74344   6.986   5.389   7.934 -3.5623  0.8850 -1.7932
  539MOL0     H74345   7.203   5.488   8.019 -0.9579  1.0036 -3.1657
  539MOL0     H74346   7.138   5.711   8.389 -0.9997  3.6084  3.5259
  539MOL0     H74347   7.305   5.757   8.386  0.2158 -2.8312 -2.2587
  539MOL0     H74348   7.127   5.910   8.196 -2.3115  4.2136  2.1644
  539MOL0     H74349   7.133   5.933   8.377 -0.5860 -1.6475 -0.1290
  539MOL0     H74350   7.374   5.938   8.181 -0.1464  2.1329  0.1154
  539MOL0     H74351   7.382   5.977   8.349 -0.7143  1.0247  0.3942
  539MOL0     H74352   7.259   6.176   8.346  4.7815  2.8434  0.0197
  539MOL0     H74353   7.194   6.137   8.188 -0.6882 -1.0162  2.0081
  539MOL0     H74354   7.490   6.208   8.276 -0.0160 -0.4995  0.4466
  539MOL0     H74355   7.437   6.151   8.113 -3.8600  1.5139 -2.3271
  539MOL0     H74356   7.356   6.421   8.248 -1.8455 -1.4004  0.7299
  539MOL0     H74357   7.299   6.356   8.093 -1.2662  0.4406  2.8083
  539MOL0     H74358   7.584   6.324   8.094  0.2588  1.1863  2.4608
  539MOL0     H74359   7.552   6.475   8.162  2.0018  0.4488 -0.0481
  539MOL0     H74360   7.576   6.514   7.907  0.4152 -1.6312 -1.0438
  539MOL0     H74361   7.414   6.546   7.958  0.0927 -0.5826 -0.7669
  539MOL0     H74362   6.964   5.746   8.265  1.8825 -0.3553  0.9798
  539MOL0     H74363   6.760   5.624   8.186  0.6935  0.2688  1.4832
  539MOL0     H74364   6.707   5.222   7.886  0.5068  1.8374 -1.7744
  539MOL0     H74365   6.554   5.050   7.838  0.2666  0.5408 -1.5861
  539MOL0     H74366   6.644   3.785   8.455  2.8627  3.1697  1.1670
  539MOL0     H74367   6.831   3.691   8.596 -0.2886 -1.4977  1.3515
  539MOL0     H74368   6.891   3.482   9.045  0.7867 -1.4001 -1.6669
  539MOL0     H74369   7.016   3.355   9.175  2.2226 -4.4120 -2.3252
  539MOL0     H74370   7.296   3.569   9.321 -3.8517  0.6109  1.5538
  539MOL0     H74371   7.210   3.427   9.386 -0.4004  0.2381 -0.9318
  539MOL0     H74372   7.508   3.479   9.386 -0.2593  1.6865  0.0218
  539MOL0     H74373   7.441   3.318   9.377 -1.7687 -0.0339  0.3199
  539MOL0     H74374   7.382   3.513   9.608 -1.2400 -1.1431  1.8971
  539MOL0     H74375   7.316   3.357   9.597  0.8997 -0.0967  1.4459
  539MOL0     H74376   7.536   3.407   9.740 -0.9438 -0.2343 -0.1944
  539MOL0     H74377   7.620   3.393   9.589  1.1918 -1.6212 -0.4597
  539MOL0     H74378   7.492   2.992   9.700  1.6448  0.4599  2.4051
  539MOL0     H74379   7.366   3.578   9.052 -0.4641  0.9181  0.8296
  539MOL0     H74380   7.189   3.826   8.849 -0.8778 -0.8186 -0.6442
  539MOL0     H74381   7.339   3.755   8.871  0.6909 -0.0890  0.0768
  539MOL0     H74382   7.224   3.689   8.742  2.1358 -0.4577 -0.2867
  540MOL0     O74383   6.094   4.635   2.417 -0.0577  0.1720 -0.6871
  540MOL0     C74384   6.177   4.703   2.349  0.2089 -0.7122 -0.7578
  540MOL0     O74385   6.139   4.816   2.290 -0.3516  0.3751 -0.5616
  540MOL0     C74386   6.012   4.865   2.316  0.1800  0.5695  0.3309
  540MOL0     C74387   5.908   4.834   2.231  0.0428 -0.5732  1.0554
  540MOL0     C74388   5.775   4.895   2.231 -0.8524 -0.3573  0.3584
  540MOL0     C74389   5.743   4.980   2.342  0.2032 -0.0202  0.6377
  540MOL0     O74390   5.620   5.043   2.363  0.2609 -0.3797 -0.3029
  540MOL0     C74391   5.536   5.096   2.264  0.5378  0.5850  0.1242
  540MOL0     C74392   5.582   5.220   2.194  0.0997  0.9222  0.2420
  540MOL0     C74393   5.688   5.185   2.085 -0.7355 -0.5232  1.4760
  540MOL0     C74394   5.719   5.318   2.008 -0.2903 -0.2605  0.0813
  540MOL0     C74395   5.828   5.298   1.907  0.7369  0.6119 -0.5360
  540MOL0     C74396   5.851   5.431   1.824  0.2080  1.0607  0.6396
  540MOL0     C74397   5.979   5.429   1.736 -0.4244  0.1575  0.0558
  540MOL0     C74398   5.972   5.517   1.618  0.3468 -0.0432  0.7193
  540MOL0     N74399   6.113   5.546   1.579 -0.5949  0.1103  0.1621
  540MOL0     C74400   6.191   5.663   1.594  0.0646  0.3294  0.5795
  540MOL0     C74401   6.305   5.649   1.527  0.6643  0.3755  0.2887
  540MOL0     C74402   6.410   5.755   1.522  0.1902 -0.0404  0.1185
  540MOL0     C74403   6.512   5.726   1.627 -0.5375  0.7346 -0.0025
  540MOL0     C74404   6.611   5.835   1.628  0.3246  0.7656 -1.3358
  540MOL0     C74405   6.712   5.832   1.515  0.2584 -0.3169  0.3205
  540MOL0     O74406   6.811   5.731   1.535 -0.9631 -1.0974 -0.4250
  540MOL0     C74407   6.922   5.766   1.610 -0.0443 -0.3018  0.1675
  540MOL0     C74408   7.007   5.667   1.639 -1.1294 -0.6169  0.3232
  540MOL0     C74409   7.128   5.689   1.709  0.8511  0.0860  0.3909
  540MOL0     C74410   7.218   5.573   1.728 -0.1336  0.5387  0.3085
  540MOL0     C74411   7.161   5.818   1.754 -0.2728 -0.4325 -0.0233
  540MOL0     C74412   7.295   5.858   1.824  0.8587  0.4637 -0.9794
  540MOL0     O74413   7.286   5.961   1.919  0.1754 -0.2070 -0.1552
  540MOL0     C74414   7.398   5.997   1.999  0.3162  0.9873 -0.0826
  540MOL0     C74415   7.533   5.985   1.959 -0.6880 -0.6177  0.2175
  540MOL0     C74416   7.643   6.014   2.043 -0.2638  0.9216  0.4098
  540MOL0     C74417   7.613   6.051   2.176 -0.3549 -0.5368  0.1651
  540MOL0     O74418   7.719   6.073   2.264  0.3423 -0.3181  0.2371
  540MOL0     C74419   7.708   6.137   2.394  0.8099  0.5772 -0.9668
  540MOL0     C74420   7.684   6.021   2.497 -0.0593 -0.0183  0.2515
  540MOL0     C74421   7.684   6.066   2.645  0.0027  0.0471 -0.0152
  540MOL0     C74422   7.640   5.947   2.731 -0.3018 -0.4396 -0.1835
  540MOL0     C74423   7.664   5.964   2.882  0.6465  0.0552 -0.1577
  540MOL0     C74424   7.549   6.051   2.944  0.0133 -0.3475 -0.3532
  540MOL0     C74425   7.570   6.074   3.097 -0.4994  0.6768 -0.2056
  540MOL0     C74426   7.492   6.201   3.148 -0.7717  0.5261  0.8230
  540MOL0    Cl74427   7.542   6.348   3.061 -0.0360 -0.7245  0.1850
  540MOL0     C74428   7.485   6.054   2.219 -0.9990  0.1801  0.0398
  540MOL0     C74429   7.377   6.027   2.137  0.8619  0.1236  0.3778
  540MOL0     O74430   7.397   5.792   1.797  1.2400  0.1943 -0.1803
  540MOL0     C74431   7.079   5.920   1.723 -0.4461  0.1799  0.0603
  540MOL0     C74432   6.956   5.893   1.657  0.4992 -0.9054  0.8063
  540MOL0     N74433   6.297   5.526   1.465 -0.2441 -0.1481 -0.2662
  540MOL0     N74434   6.187   5.464   1.493 -0.3730 -0.4148 -0.2643
  540MOL0     C74435   5.847   5.014   2.423 -0.0965  0.2335  0.0069
  540MOL0     C74436   5.974   4.953   2.419 -0.9942  0.0213 -0.2864
  540MOL0     C74437   6.326   4.672   2.327  1.0441  0.3410 -0.1662
  540MOL0     C74438   6.412   4.772   2.270 -0.1195  0.9388  0.8177
  540MOL0     C74439   6.549   4.753   2.257  1.1532  1.4718 -0.5662
  540MOL0     C74440   6.611   4.632   2.307  1.5741 -0.2277  0.4229
  540MOL0     O74441   6.746   4.615   2.282  0.4090  1.1374  0.0634
  540MOL0     C74442   6.832   4.529   2.371 -0.7955 -0.0173 -0.5391
  540MOL0     C74443   6.977   4.563   2.323 -0.0624 -0.7782 -0.3978
  540MOL0     C74444   7.096   4.499   2.388 -0.2264  0.2876  0.5510
  540MOL0     C74445   7.219   4.505   2.311 -0.5483 -0.4355 -1.0426
  540MOL0     C74446   7.272   4.638   2.275 -0.4717 -0.4168 -0.1074
  540MOL0     C74447   7.321   4.750   2.258  0.0752  0.4492 -0.7611
  540MOL0     C74448   6.528   4.531   2.369 -0.4291 -0.3150 -1.3805
  540MOL0     C74449   6.389   4.557   2.385  0.4189  0.2675  0.2147
  540MOL0     C74450   6.304   4.439   2.421 -0.0390 -0.4742  0.6723
  540MOL0     H74451   5.923   4.768   2.147  1.1110  0.0423  0.7392
  540MOL0     H74452   5.703   4.855   2.160  0.0777 -1.8166  0.1874
  540MOL0     H74453   5.454   5.133   2.326  0.0008 -0.9538  0.3682
  540MOL0     H74454   5.503   5.018   2.194 -1.1957  1.3128  0.0885
  540MOL0     H74455   5.491   5.251   2.142  0.4956 -2.3641 -2.7828
  540MOL0     H74456   5.623   5.289   2.267  0.4538  0.1264  0.8140
  540MOL0     H74457   5.777   5.142   2.131 -0.7667  0.8025  2.8755
  540MOL0     H74458   5.642   5.114   2.016  0.2793  0.1181  0.0839
  540MOL0     H74459   5.629   5.352   1.955 -0.1719  1.6504  1.0017
  540MOL0     H74460   5.752   5.403   2.068  3.2630 -3.0844  2.5643
  540MOL0     H74461   5.788   5.218   1.843 -0.5799 -0.8724  1.9951
  540MOL0     H74462   5.923   5.261   1.946  0.7489  0.5392 -0.6333
  540MOL0     H74463   5.767   5.440   1.754  2.8278  0.5332 -2.8193
  540MOL0     H74464   5.842   5.520   1.888 -2.5901  1.0941  0.3180
  540MOL0     H74465   6.000   5.326   1.707  4.2754  0.7861  0.4327
  540MOL0     H74466   6.056   5.460   1.808 -1.1845 -3.7328  2.8666
  540MOL0     H74467   5.912   5.473   1.537 -0.0261  2.5130 -0.4880
  540MOL0     H74468   5.917   5.609   1.638 -0.2728 -1.2035  5.4019
  540MOL0     H74469   6.159   5.745   1.658 -1.9257 -0.5269  0.7477
  540MOL0     H74470   6.370   5.856   1.535  2.4007  1.2063 -1.9337
  540MOL0     H74471   6.451   5.766   1.421  1.2881  3.7688  0.7880
  540MOL0     H74472   6.478   5.717   1.731 -0.9378 -1.4416 -0.2736
  540MOL0     H74473   6.578   5.641   1.605 -1.4767 -0.1043  0.3159
  540MOL0     H74474   6.559   5.931   1.622  3.0647  2.7725  2.5314
  540MOL0     H74475   6.650   5.843   1.730 -2.3607  2.9008 -0.3634
  540MOL0     H74476   6.671   5.811   1.416 -1.7099  1.1596  0.7671
  540MOL0     H74477   6.760   5.929   1.497 -0.6093  0.3776  1.5437
  540MOL0     H74478   6.989   5.569   1.596 -0.2158 -0.9755  0.7399
  540MOL0     H74479   7.296   5.584   1.804 -0.3109  0.2680  0.5300
  540MOL0     H74480   7.266   5.556   1.632  0.5781 -1.2104  0.9359
  540MOL0     H74481   7.161   5.489   1.768  2.9317 -0.9217  1.9828
  540MOL0     H74482   7.555   5.972   1.853  0.6728  2.1218  0.0954
  540MOL0     H74483   7.744   6.003   2.006 -0.7064 -0.9136 -0.3727
  540MOL0     H74484   7.796   6.194   2.425 -1.0144  3.8300 -1.2080
  540MOL0     H74485   7.620   6.202   2.401 -1.2349 -2.1740  0.6648
  540MOL0     H74486   7.589   5.973   2.470  0.9866 -1.1391 -1.6027
  540MOL0     H74487   7.757   5.946   2.469  1.1683  1.2933 -0.1825
  540MOL0     H74488   7.619   6.153   2.651 -2.4868 -1.6816 -0.2724
  540MOL0     H74489   7.783   6.106   2.670  0.7380 -1.0562 -0.9692
  540MOL0     H74490   7.706   5.863   2.709  1.0033  0.1519  1.2149
  540MOL0     H74491   7.536   5.934   2.699 -0.5807 -3.5280  1.6253
  540MOL0     H74492   7.661   5.869   2.935  1.1944 -0.1825 -0.5363
  540MOL0     H74493   7.759   6.015   2.903 -0.1048  1.8414 -0.8858
  540MOL0     H74494   7.450   6.010   2.922 -0.6368  2.3217 -3.2625
  540MOL0     H74495   7.560   6.145   2.889  0.3291  0.8869  1.7418
  540MOL0     H74496   7.677   6.082   3.119 -1.3058  3.4642  3.5860
  540MOL0     H74497   7.535   5.995   3.165  0.5893 -0.3499 -0.7931
  540MOL0     H74498   7.499   6.219   3.256 -0.0553 -0.3868  0.9486
  540MOL0     H74499   7.385   6.194   3.129 -0.5320 -0.9271 -0.1739
  540MOL0     H74500   7.464   6.090   2.319 -2.6915  0.3033 -0.3292
  540MOL0     H74501   7.273   6.043   2.165 -0.1576 -0.3623 -2.7428
  540MOL0     H74502   7.103   6.025   1.736 -0.8591  0.2269  0.4568
  540MOL0     H74503   6.887   5.976   1.641  1.2548 -0.0420  1.8655
  540MOL0     H74504   5.838   5.078   2.510 -1.3282  0.5037 -0.3010
  540MOL0     H74505   6.051   4.981   2.490 -2.2326  2.0368  0.3233
  540MOL0     H74506   6.380   4.872   2.243 -0.8675  0.1646 -1.3586
  540MOL0     H74507   6.608   4.822   2.198  3.1846 -0.9890 -1.6188
  540MOL0     H74508   6.813   4.560   2.474 -2.2212  0.6750 -0.9887
  540MOL0     H74509   6.805   4.424   2.359 -2.3874  0.2693  0.2636
  540MOL0     H74510   6.975   4.672   2.325  2.3857 -0.6225 -2.4229
  540MOL0     H74511   6.980   4.542   2.216  0.4950  2.5945 -1.1673
  540MOL0     H74512   7.099   4.553   2.483 -2.3574 -1.0389  1.4437
  540MOL0     H74513   7.066   4.400   2.423 -1.1968  1.0755  2.0703
  540MOL0     H74514   7.192   4.456   2.217  0.3444  2.8080 -3.1305
  540MOL0     H74515   7.297   4.452   2.368 -0.7263  1.2989  0.9393
  540MOL0     H74516   7.347   4.853   2.272 -2.0250  0.8581  0.4871
  540MOL0     H74517   6.571   4.440   2.410 -1.1274  1.0174  2.8302
  540MOL0     H74518   6.351   4.341   2.432 -1.4802 -1.4446 -1.4229
  540MOL0     H74519   6.271   4.461   2.523 -1.0184  0.5507  0.1568
  540MOL0     H74520   6.220   4.423   2.353 -0.9292 -0.4730  1.7413
  541MOL0     O74521   8.072   0.851   4.549 -0.5901 -0.0481 -0.1850
  541MOL0     C74522   8.128   0.877   4.443 -0.3505 -0.5503  0.3603
  541MOL0     O74523   8.070   0.866   4.324 -0.0733  1.0450  0.1405
  541MOL0     C74524   7.932   0.848   4.326  0.0034  0.3074 -0.7638
  541MOL0     C74525   7.850   0.959   4.341 -0.1423 -0.5083 -0.4861
  541MOL0     C74526   7.715   0.946   4.341 -0.0060 -0.4293 -0.1384
  541MOL0     C74527   7.652   0.820   4.349 -1.4581 -0.3930  1.2182
  541MOL0     O74528   7.521   0.801   4.352 -0.5472  0.4394  0.6704
  541MOL0     C74529   7.453   0.838   4.235  0.6534 -0.1311 -0.1153
  541MOL0     C74530   7.356   0.722   4.196 -0.3653 -0.2103 -0.0931
  541MOL0     C74531   7.277   0.666   4.314 -0.4929 -0.0174  0.2586
  541MOL0     C74532   7.166   0.568   4.282 -0.3978 -0.7492  0.3864
  541MOL0     C74533   7.091   0.529   4.407 -0.1338  0.1368 -0.2923
  541MOL0     C74534   7.030   0.395   4.429  0.7051 -0.0959 -0.3581
  541MOL0     C74535   6.966   0.378   4.567 -0.0188 -0.3823  0.3605
  541MOL0     C74536   6.944   0.242   4.624  0.4919 -0.0473  0.1792
  541MOL0     N74537   6.893   0.232   4.761  0.3539  0.5235  0.2521
  541MOL0     C74538   6.965   0.187   4.870  0.6345 -0.3527 -0.0379
  541MOL0     C74539   6.873   0.186   4.966  0.1591  0.2976  0.6076
  541MOL0     C74540   6.902   0.115   5.090 -0.7552 -0.3946  0.5215
  541MOL0     C74541   6.824  -0.017   5.109  0.4485 -0.0386 -0.4282
  541MOL0     C74542   6.886  -0.115   5.009  0.6208 -0.4535 -0.1568
  541MOL0     C74543   6.829  -0.262   5.021 -0.1469  0.4028  0.2869
  541MOL0     O74544   6.812  -0.305   5.155  0.0620  0.6222 -0.8809
  541MOL0     C74545   6.727  -0.410   5.172 -0.9843 -0.1832 -0.4991
  541MOL0     C74546   6.654  -0.471   5.065 -1.0199  0.3934  0.1992
  541MOL0     C74547   6.580  -0.595   5.084  0.9655  0.5926  0.0340
  541MOL0     C74548   6.510  -0.654   4.966 -0.4082 -0.1542  0.3764
  541MOL0     C74549   6.600  -0.651   5.217 -1.4499  0.4100 -1.6295
  541MOL0     C74550   6.557  -0.783   5.255  1.0329 -0.2473  0.1818
  541MOL0     O74551   6.423  -0.799   5.248 -0.4726  0.3090  0.3855
  541MOL0     C74552   6.356  -0.914   5.277  0.5339  0.0620 -0.7962
  541MOL0     C74553   6.392  -1.056   5.280  0.8121  0.1728  0.3973
  541MOL0     C74554   6.306  -1.159   5.328  0.2665 -0.9690 -0.6216
  541MOL0     C74555   6.169  -1.115   5.344 -1.0783  0.4181 -1.0572
  541MOL0     O74556   6.096  -1.221   5.387 -0.4584 -0.1715 -0.5005
  541MOL0     C74557   5.955  -1.221   5.380 -0.3386 -0.0748 -0.4129
  541MOL0     C74558   5.902  -1.361   5.406 -0.0380 -0.5446 -0.0079
  541MOL0     C74559   5.944  -1.423   5.535 -0.3572  0.7037  1.4528
  541MOL0     C74560   5.905  -1.570   5.552 -0.0574 -0.5150  0.0221
  541MOL0     C74561   5.959  -1.644   5.679 -0.1837 -0.5123 -0.6506
  541MOL0     C74562   5.925  -1.790   5.672 -0.3271  1.0159 -0.2079
  541MOL0     C74563   5.966  -1.852   5.809  0.6393 -0.9239  0.7629
  541MOL0     C74564   5.901  -1.984   5.812  0.1693 -0.5135 -0.5307
  541MOL0    Cl74565   5.985  -2.103   5.694 -0.1446 -0.0372 -0.1365
  541MOL0     C74566   6.135  -0.981   5.334  0.4813 -0.2569  0.6957
  541MOL0     C74567   6.219  -0.886   5.297  0.5572 -0.5586 -0.8366
  541MOL0     O74568   6.641  -0.865   5.287 -0.2935 -0.1616  0.0017
  541MOL0     C74569   6.683  -0.593   5.314 -0.3885 -0.0661  0.7266
  541MOL0     C74570   6.728  -0.466   5.301  0.2726 -1.1080  0.3931
  541MOL0     N74571   6.750   0.247   4.924 -0.2396 -0.2225  0.0248
  541MOL0     N74572   6.771   0.268   4.799  0.0891  0.1665 -0.8425
  541MOL0     C74573   7.732   0.706   4.335  0.7567  0.1578 -0.2434
  541MOL0     C74574   7.866   0.724   4.322  0.2812  0.4466  0.1342
  541MOL0     C74575   8.263   0.932   4.434  1.0957  0.8560 -0.2793
  541MOL0     C74576   8.347   0.870   4.334 -0.2959 -0.3112  0.9482
  541MOL0     C74577   8.482   0.912   4.319  0.3395  0.4189  1.2867
  541MOL0     C74578   8.533   1.003   4.402 -0.8776 -0.1661  0.1456
  541MOL0     O74579   8.656   1.063   4.397 -0.6752 -0.3832  0.0726
  541MOL0     C74580   8.756   1.001   4.321  0.9197  0.3209 -0.7067
  541MOL0     C74581   8.879   1.076   4.360  0.7559  0.1252  0.8511
  541MOL0     C74582   9.005   1.004   4.329 -0.4954 -0.9045 -0.2056
  541MOL0     C74583   9.134   1.083   4.355 -0.0303 -1.6472  0.4145
  541MOL0     C74584   9.259   1.007   4.319  0.2764 -0.1430  0.2986
  541MOL0     C74585   9.367   0.957   4.288  0.1538 -0.5099  0.5035
  541MOL0     C74586   8.456   1.060   4.507  1.0754  0.3425  0.7241
  541MOL0     C74587   8.321   1.033   4.522  0.4076  0.0349 -0.6355
  541MOL0     C74588   8.244   1.105   4.641 -0.3134  0.9247  0.8628
  541MOL0     H74589   7.877   1.064   4.352  0.6421 -0.4525 -2.4883
  541MOL0     H74590   7.661   1.039   4.329  1.6300  0.5162 -0.4046
  541MOL0     H74591   7.516   0.847   4.146 -0.9182 -0.4887 -1.3146
  541MOL0     H74592   7.385   0.921   4.253  0.5610 -0.4393  1.0373
  541MOL0     H74593   7.283   0.754   4.121  0.6727 -0.0043 -1.0602
  541MOL0     H74594   7.418   0.645   4.148  2.0898  1.5837  0.0289
  541MOL0     H74595   7.347   0.614   4.379  0.7997  1.2680 -0.0537
  541MOL0     H74596   7.237   0.743   4.380  0.2514  0.8069 -0.2209
  541MOL0     H74597   7.099   0.621   4.214  2.4460 -1.0844 -2.8863
  541MOL0     H74598   7.202   0.474   4.240  2.1376 -1.2805  3.3634
  541MOL0     H74599   7.020   0.611   4.421  1.1650  1.6688 -2.2271
  541MOL0     H74600   7.172   0.535   4.481 -1.9968  0.0887  1.8502
  541MOL0     H74601   6.949   0.376   4.357 -1.9554  3.8818  1.2006
  541MOL0     H74602   7.118   0.333   4.411  2.4510  2.1941 -0.2427
  541MOL0     H74603   6.868   0.425   4.571  0.3751  1.3544 -4.1660
  541MOL0     H74604   7.032   0.426   4.639 -2.3480  2.6789  0.6400
  541MOL0     H74605   6.875   0.177   4.570  0.1410 -1.3565  2.0930
  541MOL0     H74606   7.036   0.184   4.613  0.4227  0.0027 -0.7206
  541MOL0     H74607   7.070   0.159   4.875 -0.0059 -2.7688  0.9986
  541MOL0     H74608   6.870   0.170   5.178 -2.1662 -1.1327  0.4917
  541MOL0     H74609   7.010   0.094   5.091 -1.0507 -2.6462 -2.5350
  541MOL0     H74610   6.848  -0.058   5.208  0.3271 -1.1291 -0.8418
  541MOL0     H74611   6.715  -0.007   5.102  0.0870 -1.8271  1.6943
  541MOL0     H74612   6.868  -0.081   4.906  0.0303  0.1684  0.1442
  541MOL0     H74613   6.994  -0.114   5.027  0.5138 -0.2863  0.4926
  541MOL0     H74614   6.730  -0.251   4.976 -2.0319 -2.1747  3.3303
  541MOL0     H74615   6.881  -0.336   4.960 -1.6011  1.0012 -1.7787
  541MOL0     H74616   6.665  -0.439   4.962  2.3910 -1.2433 -0.0838
  541MOL0     H74617   6.525  -0.760   4.942  1.9828  0.3481 -0.5863
  541MOL0     H74618   6.540  -0.597   4.878  2.6178  0.1168  1.4886
  541MOL0     H74619   6.403  -0.636   4.982 -0.6365  1.1574 -2.2149
  541MOL0     H74620   6.497  -1.081   5.269  0.9175  1.5214 -2.7914
  541MOL0     H74621   6.332  -1.264   5.334 -2.1419 -1.5911  0.0014
  541MOL0     H74622   5.903  -1.144   5.439 -0.2709 -0.1768 -0.2159
  541MOL0     H74623   5.924  -1.197   5.278 -1.8376  0.8836  0.2197
  541MOL0     H74624   5.793  -1.356   5.394  0.2615 -0.1280 -3.4854
  541MOL0     H74625   5.932  -1.430   5.326  0.9912 -2.8656  2.2239
  541MOL0     H74626   5.891  -1.378   5.619  0.3735  3.1441  0.6786
  541MOL0     H74627   6.051  -1.418   5.554 -0.5446 -0.7267  3.1905
  541MOL0     H74628   5.942  -1.628   5.468  0.9765  0.6495 -0.3626
  541MOL0     H74629   5.796  -1.580   5.554 -0.2076  0.9346  0.4915
  541MOL0     H74630   6.067  -1.626   5.687 -0.3355  0.6013 -0.9350
  541MOL0     H74631   5.916  -1.594   5.766  1.5789 -0.2492  0.1156
  541MOL0     H74632   5.971  -1.842   5.587  0.9431  3.4899 -1.1177
  541MOL0     H74633   5.817  -1.798   5.658 -0.0817 -0.8381 -1.4835
  541MOL0     H74634   5.925  -1.784   5.885  1.3078 -0.8096  1.0280
  541MOL0     H74635   6.072  -1.854   5.836  0.6001  4.7035  2.8645
  541MOL0     H74636   5.792  -1.974   5.807 -0.0351 -2.5933 -1.4207
  541MOL0     H74637   5.909  -2.018   5.915 -1.7183 -1.8785 -0.7851
  541MOL0     H74638   6.034  -0.947   5.350  1.1670  1.4864  1.4871
  541MOL0     H74639   6.181  -0.785   5.300  0.3673 -0.6407  0.8557
  541MOL0     H74640   6.691  -0.655   5.403  0.3376 -0.8014  0.1655
  541MOL0     H74641   6.790  -0.426   5.382  0.1216  2.6107 -1.1175
  541MOL0     H74642   7.683   0.609   4.331 -0.4227  0.6754  0.8754
  541MOL0     H74643   7.927   0.635   4.315  2.7261  2.1656 -4.1887
  541MOL0     H74644   8.302   0.806   4.259  0.2667 -0.3964  0.6755
  541MOL0     H74645   8.547   0.868   4.243  2.0790  0.6466  2.5867
  541MOL0     H74646   8.751   0.899   4.360  2.5275  0.6193  0.3665
  541MOL0     H74647   8.752   1.010   4.212 -0.4315 -0.6151 -0.7667
  541MOL0     H74648   8.878   1.069   4.469 -1.8968 -1.6153  0.8196
  541MOL0     H74649   8.866   1.179   4.326 -2.3742  0.7091  3.3283
  541MOL0     H74650   9.002   0.917   4.395  2.3588 -1.3133 -0.4840
  541MOL0     H74651   9.006   0.966   4.226  1.0546 -2.6958  0.4036
  541MOL0     H74652   9.148   1.106   4.461  2.1353 -0.9303  0.0145
  541MOL0     H74653   9.134   1.171   4.291 -0.0749 -2.3934 -0.6283
  541MOL0     H74654   9.456   0.904   4.260 -0.8684 -4.4998  3.8555
  541MOL0     H74655   8.497   1.138   4.570 -1.8344  2.0716  0.6535
  541MOL0     H74656   8.176   1.184   4.609  1.1322  0.8838 -2.7828
  541MOL0     H74657   8.192   1.033   4.707 -0.9821  1.5024  0.9796
  541MOL0     H74658   8.310   1.153   4.714  0.3424  1.1896  0.0953
  542MOL0     O74659   6.562   3.533   0.208  0.4154  0.2000  0.5783
  542MOL0     C74660   6.534   3.451   0.118 -1.3641  0.7404  0.1903
  542MOL0     O74661   6.494   3.329   0.147  0.7873  0.2122  0.2672
  542MOL0     C74662   6.475   3.287   0.272  0.9025 -0.1349  0.2949
  542MOL0     C74663   6.546   3.323   0.393  0.3339  0.1297  0.9941
  542MOL0     C74664   6.506   3.272   0.521 -0.2396  0.2942 -0.1800
  542MOL0     C74665   6.395   3.192   0.540 -0.1047  1.6738  0.5641
  542MOL0     O74666   6.371   3.141   0.669 -0.2513  0.7393  0.1000
  542MOL0     C74667   6.303   3.013   0.684  0.1310 -0.0656 -0.6019
  542MOL0     C74668   6.299   2.985   0.838  0.6710 -1.1385  0.7985
  542MOL0     C74669   6.267   2.833   0.851  0.3697 -0.3572  0.1827
  542MOL0     C74670   6.247   2.789   0.989 -0.5639 -0.1050 -0.5681
  542MOL0     C74671   6.192   2.645   0.996 -0.7461  0.1413  1.1513
  542MOL0     C74672   6.213   2.583   1.136 -0.4752 -0.1064  0.5971
  542MOL0     C74673   6.119   2.463   1.146  1.3174 -0.3408  0.4210
  542MOL0     C74674   6.126   2.427   1.295 -0.5209  0.6253 -0.6961
  542MOL0     N74675   6.032   2.316   1.334  0.1296 -0.4913  0.1139
  542MOL0     C74676   6.029   2.179   1.301  0.0376  0.0799 -0.2349
  542MOL0     C74677   5.912   2.133   1.354 -0.0384  0.3576  0.1540
  542MOL0     C74678   5.859   1.995   1.320  0.5408 -0.9083 -0.1829
  542MOL0     C74679   5.921   1.892   1.424  0.2450 -0.1069  1.5270
  542MOL0     C74680   5.850   1.761   1.388  0.3523 -0.1513 -0.3962
  542MOL0     C74681   5.910   1.637   1.459 -0.5528  0.4351  0.3724
  542MOL0     O74682   5.866   1.515   1.405  0.0195  0.3384  0.0226
  542MOL0     C74683   5.727   1.506   1.425  0.9460 -0.1624  0.2283
  542MOL0     C74684   5.654   1.498   1.306 -0.6879 -0.0698 -0.0183
  542MOL0     C74685   5.512   1.491   1.307 -0.3712  0.1402 -1.0180
  542MOL0     C74686   5.448   1.494   1.178  0.6929  0.4856 -0.5655
  542MOL0     C74687   5.450   1.471   1.437  0.5147  0.7836 -0.2966
  542MOL0     C74688   5.304   1.465   1.467  0.1149  0.9255 -0.1805
  542MOL0     O74689   5.264   1.371   1.569  0.0172 -0.0446  1.0117
  542MOL0     C74690   5.121   1.361   1.584 -0.6630 -0.3093 -0.1366
  542MOL0     C74691   5.068   1.450   1.664  0.3912 -0.0825 -1.4654
  542MOL0     C74692   4.931   1.453   1.696  0.1263  0.4515 -0.2456
  542MOL0     C74693   4.844   1.352   1.642  0.1539  0.1050 -0.1881
  542MOL0     O74694   4.705   1.335   1.663  0.2593  0.0570  0.2035
  542MOL0     C74695   4.626   1.425   1.743  0.2494 -0.1953  0.1166
  542MOL0     C74696   4.478   1.402   1.690  1.0127 -0.6725  0.0261
  542MOL0     C74697   4.381   1.504   1.755  0.5289  0.6098 -0.2574
  542MOL0     C74698   4.231   1.481   1.728  0.4534  0.7217  0.1314
  542MOL0     C74699   4.148   1.599   1.793  0.8314 -0.1716 -0.0253
  542MOL0     C74700   4.163   1.737   1.738  0.8835 -0.2888  0.6730
  542MOL0     C74701   4.041   1.780   1.656 -0.4496  0.6319  0.6229
  542MOL0     C74702   4.018   1.702   1.528  0.5466 -0.3745  0.2010
  542MOL0    Cl74703   4.161   1.707   1.419 -0.3043 -0.2675 -0.0757
  542MOL0     C74704   4.904   1.255   1.563 -1.4107 -0.5037  0.7503
  542MOL0     C74705   5.038   1.254   1.533 -0.0791 -0.6264 -0.2361
  542MOL0     O74706   5.231   1.535   1.399  0.1787 -0.0504  1.4649
  542MOL0     C74707   5.530   1.474   1.554 -0.2634  0.2663  0.8402
  542MOL0     C74708   5.663   1.485   1.548  0.4145 -1.1469  1.2474
  542MOL0     N74709   5.855   2.240   1.418  0.4975 -0.5801  0.0468
  542MOL0     N74710   5.933   2.342   1.419 -0.9501  0.1339  0.1375
  542MOL0     C74711   6.332   3.149   0.425 -0.4330  0.1404  0.2887
  542MOL0     C74712   6.370   3.201   0.298  0.4522  0.2222  0.6730
  542MOL0     C74713   6.556   3.478  -0.026  0.2071 -0.4043 -0.2714
  542MOL0     C74714   6.675   3.547  -0.065 -0.6220 -0.1498 -0.2866
  542MOL0     C74715   6.706   3.588  -0.192  0.0910  0.1865 -0.0714
  542MOL0     C74716   6.630   3.532  -0.292 -0.2947 -0.1213  0.6325
  542MOL0     O74717   6.643   3.573  -0.421 -0.0284  0.4430  0.8229
  542MOL0     C74718   6.777   3.544  -0.469  0.1570  0.1617 -0.2589
  542MOL0     C74719   6.778   3.550  -0.626  0.1584 -0.2191 -1.2290
  542MOL0     C74720   6.913   3.512  -0.666 -1.0675  0.1997 -0.5351
  542MOL0     C74721   6.933   3.509  -0.819  0.9249  0.7700 -0.1926
  542MOL0     C74722   6.874   3.625  -0.886  0.7059 -0.0472 -0.3851
  542MOL0     C74723   6.809   3.721  -0.930  0.6941 -0.2481 -0.8654
  542MOL0     C74724   6.517   3.448  -0.257  0.5277 -0.8822 -0.6258
  542MOL0     C74725   6.475   3.425  -0.126  0.0002  0.1604 -0.4740
  542MOL0     C74726   6.348   3.359  -0.103 -0.2931 -0.3860 -0.0641
  542MOL0     H74727   6.638   3.380   0.382  1.1993 -1.2218  0.9692
  542MOL0     H74728   6.570   3.302   0.603  1.6512  2.9714 -2.4343
  542MOL0     H74729   6.366   2.937   0.636  0.6875 -0.0661  0.1019
  542MOL0     H74730   6.209   3.006   0.630 -0.4030  1.4793  0.0789
  542MOL0     H74731   6.397   3.013   0.877  0.8798  4.8113 -2.6649
  542MOL0     H74732   6.222   3.045   0.887  0.4517 -0.1750 -0.6371
  542MOL0     H74733   6.177   2.812   0.792  1.2165 -1.5024 -0.7477
  542MOL0     H74734   6.354   2.785   0.805  0.6984  2.1451 -2.0846
  542MOL0     H74735   6.347   2.798   1.035 -0.4132 -1.2085 -0.6677
  542MOL0     H74736   6.184   2.858   1.045  2.8812  3.0299 -0.1236
  542MOL0     H74737   6.255   2.591   0.925  2.5926  3.6085  1.1592
  542MOL0     H74738   6.086   2.643   0.969 -0.7257  0.3909  1.0469
  542MOL0     H74739   6.318   2.556   1.153  0.2775  1.2207 -1.5344
  542MOL0     H74740   6.203   2.660   1.213  0.2038  1.2183 -0.5846
  542MOL0     H74741   6.151   2.381   1.080  5.0626 -1.5338  3.3260
  542MOL0     H74742   6.014   2.490   1.129  1.5167  0.8608  1.0305
  542MOL0     H74743   6.223   2.383   1.317 -2.0837 -2.7525  0.1231
  542MOL0     H74744   6.107   2.517   1.355  1.1071  0.6266 -0.1376
  542MOL0     H74745   6.103   2.129   1.240 -0.4745 -0.4743 -0.4221
  542MOL0     H74746   5.889   1.965   1.220 -0.2960  2.5974 -1.6297
  542MOL0     H74747   5.750   1.998   1.317  0.5678  0.2236 -0.7028
  542MOL0     H74748   6.028   1.895   1.404 -0.2503  0.9483 -1.4078
  542MOL0     H74749   5.893   1.922   1.525 -0.9725 -0.2722  1.2549
  542MOL0     H74750   5.744   1.768   1.415  0.1584 -0.3045 -1.0909
  542MOL0     H74751   5.849   1.746   1.279  2.9164 -2.7331 -0.1999
  542MOL0     H74752   6.017   1.634   1.434 -0.2078  0.6304  1.7741
  542MOL0     H74753   5.904   1.647   1.567 -0.6407 -0.5910  0.4661
  542MOL0     H74754   5.712   1.510   1.216 -0.1913 -0.1100  0.2943
  542MOL0     H74755   5.471   1.592   1.136  0.6660  0.6914 -0.1106
  542MOL0     H74756   5.341   1.472   1.173  0.5723  1.3288 -2.0930
  542MOL0     H74757   5.507   1.434   1.108  1.8290  0.7991  0.1033
  542MOL0     H74758   5.120   1.537   1.703  0.4040 -0.9373  0.5350
  542MOL0     H74759   4.889   1.541   1.743 -0.4585  1.3384 -2.3470
  542MOL0     H74760   4.643   1.406   1.849  1.2349 -2.2633 -0.3565
  542MOL0     H74761   4.670   1.525   1.732  0.2342 -0.1731  0.2641
  542MOL0     H74762   4.466   1.410   1.582 -1.6343  2.0978  0.3949
  542MOL0     H74763   4.448   1.300   1.715 -2.8345  0.5577  0.9935
  542MOL0     H74764   4.412   1.605   1.725  2.2971 -0.0031 -0.6368
  542MOL0     H74765   4.396   1.495   1.863  0.4134  2.0857 -0.1005
  542MOL0     H74766   4.209   1.389   1.783 -0.6836  1.0539  0.2584
  542MOL0     H74767   4.203   1.476   1.622 -0.5447 -2.7518  0.4316
  542MOL0     H74768   4.045   1.564   1.778  0.4118  0.3832  1.3429
  542MOL0     H74769   4.154   1.588   1.902  0.4233  0.4776  0.0649
  542MOL0     H74770   4.255   1.743   1.679  1.5045 -0.5789  1.5838
  542MOL0     H74771   4.176   1.804   1.824  0.8465  0.5445  0.0386
  542MOL0     H74772   4.071   1.878   1.619 -1.8547  2.2584  3.4728
  542MOL0     H74773   3.949   1.792   1.715 -0.4992  1.4725  0.3766
  542MOL0     H74774   3.931   1.737   1.472  0.2558 -0.4776  0.5916
  542MOL0     H74775   3.979   1.604   1.555 -3.4111  1.6381  2.6463
  542MOL0     H74776   4.855   1.172   1.512  0.8355 -0.6340 -1.3834
  542MOL0     H74777   5.090   1.183   1.470  1.5974  0.2572  0.1046
  542MOL0     H74778   5.495   1.468   1.657 -0.1879 -3.8055  0.8262
  542MOL0     H74779   5.729   1.473   1.634  4.3581 -2.4779 -1.6676
  542MOL0     H74780   6.273   3.058   0.430  2.2165 -1.6234  0.9430
  542MOL0     H74781   6.317   3.146   0.221  1.3727  0.6724 -0.3102
  542MOL0     H74782   6.740   3.573   0.018 -0.2332  2.4476 -1.2916
  542MOL0     H74783   6.783   3.665  -0.199  0.1957  0.3661  2.1721
  542MOL0     H74784   6.854   3.602  -0.416  0.1798  1.2444 -1.4394
  542MOL0     H74785   6.793   3.438  -0.449 -0.7300 -0.0300 -0.5515
  542MOL0     H74786   6.765   3.657  -0.646  0.0565  0.2564  1.0449
  542MOL0     H74787   6.708   3.492  -0.686  0.5060  0.1740 -2.0351
  542MOL0     H74788   6.970   3.595  -0.623 -1.5459 -0.1264  0.7738
  542MOL0     H74789   6.948   3.416  -0.630  0.6425  0.6789 -0.8384
  542MOL0     H74790   6.874   3.423  -0.852  0.3320  0.0709  2.4131
  542MOL0     H74791   7.034   3.492  -0.858  1.2989  3.5597 -0.6558
  542MOL0     H74792   6.755   3.799  -0.980  1.5985 -0.5856 -2.4282
  542MOL0     H74793   6.464   3.399  -0.338 -2.9992 -0.4314  1.2089
  542MOL0     H74794   6.271   3.396  -0.172 -0.6873 -0.2856  0.4175
  542MOL0     H74795   6.352   3.251  -0.114 -1.3580 -0.5263  0.7571
  542MOL0     H74796   6.314   3.381  -0.001 -4.9378  1.2394 -1.6696
  543MOL0     O74797  10.756   3.050   9.837 -0.0657 -0.2022  0.2323
  543MOL0     C74798  10.640   3.093   9.851 -0.6614  0.2069  0.1853
  543MOL0     O74799  10.531   3.027   9.867  0.1116  0.6029  0.5616
  543MOL0     C74800  10.516   2.898   9.849 -0.2848  0.0631  0.0376
  543MOL0     C74801  10.605   2.808   9.770  0.7160 -0.6594 -0.3050
  543MOL0     C74802  10.569   2.672   9.767 -0.4115 -0.5495  0.3622
  543MOL0     C74803  10.456   2.626   9.822 -0.5215 -1.3721  0.2585
  543MOL0     O74804  10.424   2.494   9.789 -0.4810  0.2757  0.0392
  543MOL0     C74805  10.368   2.412   9.895 -0.1294 -0.4535  0.0730
  543MOL0     C74806  10.408   2.266   9.881 -0.2939 -0.2432  0.1228
  543MOL0     C74807  10.339   2.192   9.769 -0.0627  0.3559  0.1280
  543MOL0     C74808  10.432   2.081   9.704 -0.3691 -0.3573 -0.6924
  543MOL0     C74809  10.532   2.132   9.599  1.0149  0.5468 -0.3024
  543MOL0     C74810  10.463   2.173   9.474 -0.1297  0.0107 -0.2945
  543MOL0     C74811  10.536   2.294   9.409  0.5518 -0.2814 -0.4429
  543MOL0     C74812  10.430   2.358   9.323 -0.3125  0.4128 -0.1107
  543MOL0     N74813  10.474   2.488   9.263 -1.0697  0.0844  0.2654
  543MOL0     C74814  10.488   2.614   9.313 -0.2316 -0.0448  0.3104
  543MOL0     C74815  10.499   2.695   9.211  0.0498  0.2576 -0.9095
  543MOL0     C74816  10.498   2.847   9.230 -0.6477 -0.5769 -1.0362
  543MOL0     C74817  10.609   2.893   9.332 -0.6224  0.6962  0.0666
  543MOL0     C74818  10.647   3.036   9.301 -0.9548 -0.8357  0.1218
  543MOL0     C74819  10.716   3.109   9.416  0.3132  0.6671  0.2119
  543MOL0     O74820  10.813   3.208   9.375 -0.0133 -0.6253 -0.3415
  543MOL0     C74821  10.773   3.340   9.352  0.1095 -0.6931 -0.3071
  543MOL0     C74822  10.873   3.438   9.341 -0.6480 -0.8435  0.8082
  543MOL0     C74823  10.841   3.575   9.310  0.6964 -0.1306 -1.3662
  543MOL0     C74824  10.951   3.659   9.264  1.1758  0.2222 -0.1009
  543MOL0     C74825  10.709   3.620   9.295  0.3069  0.4168 -0.6144
  543MOL0     C74826  10.672   3.758   9.258  0.6449 -0.5700  0.2525
  543MOL0     O74827  10.563   3.779   9.179 -0.4912 -0.1296  1.0572
  543MOL0     C74828  10.501   3.900   9.185  0.2135  0.0094  0.3604
  543MOL0     C74829  10.564   4.014   9.125 -0.7272 -0.1131  0.2499
  543MOL0     C74830  10.480   4.129   9.123  0.1140  0.4378 -0.9994
  543MOL0     C74831  10.354   4.140   9.184 -0.2090  0.8115 -0.7336
  543MOL0     O74832  10.296   4.254   9.166 -0.1226  0.2869 -0.2737
  543MOL0     C74833  10.150   4.254   9.170  0.3952  0.2755  0.2743
  543MOL0     C74834  10.098   4.400   9.148  0.6034 -0.6188  0.1671
  543MOL0     C74835   9.955   4.432   9.193  0.3074  0.2455  0.0987
  543MOL0     C74836   9.943   4.563   9.279  0.5099  0.6307  0.6187
  543MOL0     C74837   9.950   4.688   9.200  0.0749  0.2228  0.2768
  543MOL0     C74838   9.905   4.801   9.294 -0.4267 -0.5331 -0.2358
  543MOL0     C74839   9.758   4.837   9.289  0.0827  0.3151 -0.5673
  543MOL0     C74840   9.729   4.944   9.179  0.0386  0.2737  0.0531
  543MOL0    Cl74841   9.547   4.970   9.192 -0.8327 -0.0716 -0.1035
  543MOL0     C74842  10.296   4.017   9.232  0.5368 -1.0544 -0.9356
  543MOL0     C74843  10.375   3.900   9.233 -0.2627 -0.4049 -0.5632
  543MOL0     O74844  10.732   3.834   9.333 -0.7069 -0.2929  0.7429
  543MOL0     C74845  10.607   3.523   9.309  1.1167  1.2828  1.2655
  543MOL0     C74846  10.637   3.386   9.344  0.2556  0.7238 -0.1765
  543MOL0     N74847  10.507   2.616   9.095 -0.3697 -0.0216 -1.1095
  543MOL0     N74848  10.490   2.492   9.125  0.0700 -0.8433 -0.7767
  543MOL0     C74849  10.386   2.703   9.911  0.3437 -1.8066 -0.4671
  543MOL0     C74850  10.412   2.842   9.922 -0.3612  0.2677 -0.1903
  543MOL0     C74851  10.633   3.236   9.838 -0.9386  0.7378  0.2507
  543MOL0     C74852  10.717   3.304   9.745  0.8221  0.0605  0.3911
  543MOL0     C74853  10.703   3.446   9.725 -0.3057 -0.9674  0.1847
  543MOL0     C74854  10.616   3.521   9.806 -0.4523 -0.3932 -0.8019
  543MOL0     O74855  10.608   3.663   9.797  0.1174 -0.3535  1.0536
  543MOL0     C74856  10.560   3.745   9.910  0.3674  0.6239 -0.0729
  543MOL0     C74857  10.407   3.766   9.890  0.2980 -0.2028  0.2015
  543MOL0     C74858  10.373   3.912   9.851  0.7008  0.5000  0.3042
  543MOL0     C74859  10.371   4.010   9.968 -0.1591  0.3352 -0.1480
  543MOL0     C74860  10.302   3.968  10.089 -0.6004  0.4779  0.6152
  543MOL0     C74861  10.238   3.923  10.169  1.4186  0.9412 -0.4983
  543MOL0     C74862  10.537   3.452   9.903  0.4665 -0.2734  0.4975
  543MOL0     C74863  10.536   3.309   9.910 -0.4824 -0.5230 -0.1700
  543MOL0     C74864  10.453   3.251  10.019 -0.2557  0.3070  0.6155
  543MOL0     H74865  10.679   2.849   9.702 -0.6631  1.9812 -0.3509
  543MOL0     H74866  10.619   2.594   9.709 -0.5893  0.0059 -0.5613
  543MOL0     H74867  10.259   2.424   9.895 -0.0362  0.5713 -0.9224
  543MOL0     H74868  10.407   2.441   9.993  0.5638  0.1530 -0.3793
  543MOL0     H74869  10.515   2.252   9.867 -0.3999 -0.1755 -0.7982
  543MOL0     H74870  10.375   2.217   9.974 -2.1030 -1.3674 -1.0492
  543MOL0     H74871  10.243   2.156   9.806 -0.6698 -0.8546 -2.3733
  543MOL0     H74872  10.324   2.250   9.677  0.6242 -2.9467 -2.2445
  543MOL0     H74873  10.489   2.029   9.781  1.0447  1.9873 -0.0608
  543MOL0     H74874  10.364   2.008   9.657 -0.9096  1.5480 -3.0818
  543MOL0     H74875  10.592   2.047   9.564  1.1902  0.6793 -0.3257
  543MOL0     H74876  10.604   2.208   9.630  2.8285  0.0045 -2.8328
  543MOL0     H74877  10.457   2.100   9.393 -2.1753 -0.8354  0.5428
  543MOL0     H74878  10.359   2.204   9.487 -0.3072  0.1944 -1.9474
  543MOL0     H74879  10.617   2.266   9.342  0.3871  3.7634 -2.5833
  543MOL0     H74880  10.576   2.359   9.487  1.7972 -0.2637 -1.0826
  543MOL0     H74881  10.407   2.290   9.241 -0.0014  3.0349 -2.5094
  543MOL0     H74882  10.337   2.373   9.380 -2.6990 -4.3844 -2.1815
  543MOL0     H74883  10.482   2.636   9.419  1.6134 -1.0355  0.6677
  543MOL0     H74884  10.402   2.881   9.270  0.8237 -0.0322  2.3487
  543MOL0     H74885  10.512   2.891   9.131 -0.6163 -1.0918 -1.2652
  543MOL0     H74886  10.566   2.878   9.432  2.2520 -1.0407  1.1990
  543MOL0     H74887  10.699   2.830   9.330 -1.3506 -0.3771  0.1409
  543MOL0     H74888  10.712   3.034   9.212  1.6088  1.7234  1.7452
  543MOL0     H74889  10.562   3.095   9.266 -1.2629 -1.1791  0.2891
  543MOL0     H74890  10.648   3.153   9.490  2.4956 -2.9239  4.8178
  543MOL0     H74891  10.769   3.039   9.480  0.1299 -0.0673 -0.4199
  543MOL0     H74892  10.977   3.410   9.356 -0.5845  0.3706  2.9733
  543MOL0     H74893  11.041   3.608   9.229  0.3874  0.9561 -3.6556
  543MOL0     H74894  10.992   3.726   9.340 -1.7373  0.5365  1.3396
  543MOL0     H74895  10.918   3.716   9.176  0.8562  0.9286  0.4727
  543MOL0     H74896  10.658   4.006   9.072 -0.1689  2.3443  0.7709
  543MOL0     H74897  10.525   4.216   9.077 -1.2717  1.9504  0.3747
  543MOL0     H74898  10.107   4.193   9.090 -2.0928  3.3666 -0.9169
  543MOL0     H74899  10.114   4.207   9.263  2.1374  0.9246  1.3300
  543MOL0     H74900  10.157   4.470   9.208 -0.4357  1.6250 -1.2809
  543MOL0     H74901  10.095   4.429   9.042 -0.7533 -1.2226  0.0264
  543MOL0     H74902   9.916   4.353   9.257  1.0822  0.8887  1.3952
  543MOL0     H74903   9.882   4.427   9.112 -1.1134 -1.3378  1.4129
  543MOL0     H74904  10.023   4.550   9.353 -0.2199 -1.9137  1.0563
  543MOL0     H74905   9.846   4.553   9.329 -0.2537 -1.2761 -1.1262
  543MOL0     H74906  10.047   4.719   9.162 -0.9370  1.9494 -1.0613
  543MOL0     H74907   9.885   4.686   9.113  1.9729  1.8661 -1.2749
  543MOL0     H74908   9.965   4.889   9.270  0.4456 -0.5265  1.7600
  543MOL0     H74909   9.933   4.781   9.398  1.6193  1.9014 -0.2241
  543MOL0     H74910   9.718   4.878   9.381 -0.1739  4.3140 -2.2345
  543MOL0     H74911   9.700   4.749   9.259 -2.8397  2.1145 -0.5259
  543MOL0     H74912   9.730   4.903   9.077 -0.1249  0.6749 -0.1142
  543MOL0     H74913   9.794   5.029   9.202  1.1906 -0.7589  0.7343
  543MOL0     H74914  10.193   4.001   9.262 -0.8690  3.0627 -2.8520
  543MOL0     H74915  10.339   3.805   9.270  1.0093 -0.5031  0.4956
  543MOL0     H74916  10.509   3.552   9.273  2.5527  3.1505 -1.4809
  543MOL0     H74917  10.572   3.301   9.359  1.7410 -0.4949 -0.4471
  543MOL0     H74918  10.295   2.680   9.966 -1.4647  2.2471 -1.3686
  543MOL0     H74919  10.356   2.912   9.984 -1.1882 -1.1821  0.7405
  543MOL0     H74920  10.794   3.258   9.685 -1.6407 -1.8077 -1.5830
  543MOL0     H74921  10.757   3.503   9.650 -2.4696 -1.1457 -1.6156
  543MOL0     H74922  10.578   3.683   9.998  0.4835 -1.6142 -1.6117
  543MOL0     H74923  10.610   3.840   9.935 -1.3180  2.1824 -2.2592
  543MOL0     H74924  10.357   3.753   9.986  0.3923  2.1332  0.6070
  543MOL0     H74925  10.360   3.693   9.823 -2.8357  1.8611 -0.0800
  543MOL0     H74926  10.442   3.947   9.774 -1.5872 -0.4809 -2.3970
  543MOL0     H74927  10.275   3.895   9.805  0.9333  2.1187 -0.8846
  543MOL0     H74928  10.323   4.098   9.925  0.9773  1.3791  0.6546
  543MOL0     H74929  10.473   4.039   9.994 -0.8392  2.4044  0.3466
  543MOL0     H74930  10.175   3.867  10.236  1.3080  0.5421 -0.9301
  543MOL0     H74931  10.463   3.491   9.973  0.3899  0.7780 -0.1547
  543MOL0     H74932  10.350   3.226   9.995 -0.0084 -1.2546  1.0594
  543MOL0     H74933  10.497   3.161  10.063  0.5124  0.4801  0.2269
  543MOL0     H74934  10.441   3.318  10.105 -2.1253  0.4490  0.2797
  544MOL0     O74935   1.860   9.396   7.101  1.1994 -0.9232  0.6968
  544MOL0     C74936   1.887   9.475   7.186  0.6724 -0.2207  0.1843
  544MOL0     O74937   1.845   9.606   7.196 -0.1116 -0.2659  0.9840
  544MOL0     C74938   1.727   9.620   7.115  0.2460 -0.9754 -0.4206
  544MOL0     C74939   1.737   9.706   7.011 -0.5693  0.3986  0.0284
  544MOL0     C74940   1.623   9.744   6.933  0.6028 -0.6370  0.0335
  544MOL0     C74941   1.499   9.658   6.950  0.2472 -0.1427 -0.5557
  544MOL0     O74942   1.398   9.649   6.855  0.1227  1.2427  0.2541
  544MOL0     C74943   1.418   9.712   6.726  0.1579 -0.3249  0.2450
  544MOL0     C74944   1.278   9.742   6.663 -0.0043 -0.5565 -0.1144
  544MOL0     C74945   1.286   9.767   6.510 -0.8378  0.2935 -1.6007
  544MOL0     C74946   1.150   9.786   6.448 -0.0318 -0.5494 -0.0791
  544MOL0     C74947   1.125   9.725   6.312  0.5139 -0.3092  0.4851
  544MOL0     C74948   0.977   9.749   6.280  0.0394  0.3461  0.5739
  544MOL0     C74949   0.939   9.672   6.149 -0.2278  0.1997  0.4606
  544MOL0     C74950   0.795   9.692   6.116  0.3258 -1.1126  0.1537
  544MOL0     N74951   0.754   9.631   5.987 -0.1853  0.1024 -0.8484
  544MOL0     C74952   0.694   9.513   5.985  0.2474  0.7163  0.3076
  544MOL0     C74953   0.681   9.477   5.852  0.2927 -0.3743 -0.9459
  544MOL0     C74954   0.634   9.354   5.793 -0.1619  1.4918  0.2192
  544MOL0     C74955   0.504   9.285   5.847  0.3380  0.0259  0.1149
  544MOL0     C74956   0.548   9.189   5.959 -0.3774  0.5118 -0.3977
  544MOL0     C74957   0.448   9.067   5.977  0.0363 -0.4849  0.1611
  544MOL0     O74958   0.450   9.024   6.114 -0.2460  0.3716 -0.3368
  544MOL0     C74959   0.330   8.976   6.167 -0.3529  0.6087 -0.0735
  544MOL0     C74960   0.271   9.035   6.273 -0.2348 -1.6665  0.6899
  544MOL0     C74961   0.165   8.979   6.344  0.5312 -0.3999 -0.6847
  544MOL0     C74962   0.110   9.049   6.458 -1.1238 -0.5990  0.8865
  544MOL0     C74963   0.124   8.839   6.310 -0.5428 -0.9059 -0.1219
  544MOL0     C74964   0.021   8.757   6.391  0.9805  0.2562  0.2968
  544MOL0     O74965   0.031   8.625   6.360  0.3148  1.0542  0.6811
  544MOL0     C74966  -0.064   8.522   6.397  0.3326 -0.2207  0.1686
  544MOL0     C74967  -0.195   8.547   6.446  0.1296  0.2615  0.5488
  544MOL0     C74968  -0.277   8.438   6.477 -0.4101  0.6378 -0.2160
  544MOL0     C74969  -0.246   8.302   6.454  0.4078 -0.2576  1.0319
  544MOL0     O74970  -0.323   8.190   6.478  0.7036  1.1396 -0.0446
  544MOL0     C74971  -0.421   8.188   6.590  0.0225 -0.0827  0.0557
  544MOL0     C74972  -0.563   8.151   6.538  0.4519  0.1625 -0.3692
  544MOL0     C74973  -0.672   8.142   6.649  0.3830  0.0929  0.7311
  544MOL0     C74974  -0.652   8.023   6.741 -0.6529  0.5871  0.2149
  544MOL0     C74975  -0.798   7.975   6.787  0.1545 -0.3311  0.6197
  544MOL0     C74976  -0.788   7.836   6.861 -0.4865 -0.5102  0.8175
  544MOL0     C74977  -0.907   7.784   6.928 -0.8579  0.6780 -1.1999
  544MOL0     C74978  -0.877   7.730   7.071 -0.2746 -0.2643  1.4169
  544MOL0    Cl74979  -0.774   7.839   7.175 -0.3888 -0.4946 -0.0850
  544MOL0     C74980  -0.120   8.285   6.408  0.1030 -0.3063  0.8143
  544MOL0     C74981  -0.031   8.391   6.380  0.7537  0.0881 -0.3809
  544MOL0     O74982  -0.046   8.808   6.479 -0.0669  0.1600 -0.1851
  544MOL0     C74983   0.176   8.788   6.190 -0.3597 -0.7066 -0.4181
  544MOL0     C74984   0.278   8.855   6.121  1.6104  0.2251 -0.4224
  544MOL0     N74985   0.741   9.571   5.773 -0.7250  1.1149 -0.1689
  544MOL0     N74986   0.786   9.663   5.861  0.0502 -0.1388  0.5943
  544MOL0     C74987   1.500   9.563   7.050 -0.3769  0.7465 -0.1185
  544MOL0     C74988   1.614   9.546   7.133  0.2188 -0.8954 -0.0742
  544MOL0     C74989   1.976   9.427   7.291 -1.1007 -0.3385  0.6719
  544MOL0     C74990   2.116   9.404   7.260  0.0784 -0.9445  0.7759
  544MOL0     C74991   2.212   9.390   7.366 -0.2275 -0.9368  0.2591
  544MOL0     C74992   2.175   9.406   7.501  0.6669 -0.9333 -0.5925
  544MOL0     O74993   2.253   9.416   7.614  0.2911 -0.1640  0.4363
  544MOL0     C74994   2.370   9.326   7.617 -0.8101  0.3404  0.4267
  544MOL0     C74995   2.373   9.270   7.750  0.5244 -0.4246 -0.5750
  544MOL0     C74996   2.246   9.209   7.799  0.6135 -0.8366 -0.8261
  544MOL0     C74997   2.266   9.053   7.790 -0.0175 -0.4177  0.1059
  544MOL0     C74998   2.314   8.990   7.912  0.5418 -0.2374 -0.4700
  544MOL0     C74999   2.348   8.934   8.009  0.0663  0.9501  0.5286
  544MOL0     C75000   2.034   9.408   7.527  0.1074  0.2077 -0.2887
  544MOL0     C75001   1.930   9.428   7.425  0.1665 -0.0600  0.2559
  544MOL0     C75002   1.793   9.474   7.461 -0.3868  0.7035 -0.0518
  544MOL0     H75003   1.829   9.763   7.005 -0.0704 -0.0945  2.1395
  544MOL0     H75004   1.638   9.818   6.855 -0.9233 -0.0532  0.2814
  544MOL0     H75005   1.479   9.654   6.656 -0.0698  0.6157 -0.7760
  544MOL0     H75006   1.462   9.811   6.744  0.6671 -0.4073 -0.4784
  544MOL0     H75007   1.209   9.658   6.664 -2.5223  1.3323  3.4176
  544MOL0     H75008   1.221   9.822   6.711 -2.5542 -1.6918 -1.1189
  544MOL0     H75009   1.349   9.855   6.493  1.3306 -0.2790  2.1138
  544MOL0     H75010   1.330   9.682   6.456 -2.2672  0.7402 -3.5587
  544MOL0     H75011   1.078   9.726   6.506  1.6870 -1.7156  0.9350
  544MOL0     H75012   1.116   9.890   6.450  1.2296 -0.1129 -0.3313
  544MOL0     H75013   1.157   9.621   6.311 -1.9241 -1.1125 -0.3695
  544MOL0     H75014   1.186   9.777   6.238 -1.9938  3.0158  0.4824
  544MOL0     H75015   0.917   9.718   6.366  2.2078 -0.7816  1.7633
  544MOL0     H75016   0.966   9.856   6.264  1.8261  0.3578 -0.8509
  544MOL0     H75017   0.964   9.565   6.155  1.3431  0.4774 -0.4605
  544MOL0     H75018   1.003   9.713   6.070 -1.7757  1.5784 -0.1259
  544MOL0     H75019   0.729   9.655   6.196 -0.2707  2.2040  1.3346
  544MOL0     H75020   0.776   9.799   6.101 -1.2343 -0.5254  4.7156
  544MOL0     H75021   0.671   9.458   6.076 -2.0809  1.7980  0.4410
  544MOL0     H75022   0.711   9.276   5.797 -3.3598 -2.2812 -2.7622
  544MOL0     H75023   0.614   9.369   5.687  2.1313 -1.8212 -0.8540
  544MOL0     H75024   0.428   9.354   5.884 -0.8275 -0.8524 -0.5764
  544MOL0     H75025   0.472   9.221   5.765  2.9741 -1.2668 -0.0118
  544MOL0     H75026   0.631   9.130   5.920 -0.8807 -0.0195 -0.6788
  544MOL0     H75027   0.571   9.246   6.050 -2.0948  0.9388 -0.1974
  544MOL0     H75028   0.348   9.097   5.944 -0.4356 -0.2683  1.6770
  544MOL0     H75029   0.492   8.983   5.924  1.2403 -1.2088  2.2112
  544MOL0     H75030   0.303   9.138   6.289  0.3825 -2.0497  2.0395
  544MOL0     H75031   0.001   9.048   6.447 -0.8475 -1.7311 -3.5881
  544MOL0     H75032   0.143   9.152   6.469 -2.9612  0.6463 -3.3480
  544MOL0     H75033   0.137   8.995   6.550  1.4943 -0.3660  0.3209
  544MOL0     H75034  -0.235   8.645   6.468 -0.6713 -0.7195  4.2248
  544MOL0     H75035  -0.367   8.465   6.530 -0.0751 -0.8301  1.1927
  544MOL0     H75036  -0.378   8.116   6.660  3.2144 -0.0776 -1.7113
  544MOL0     H75037  -0.421   8.289   6.631  1.1716 -0.1247  0.2057
  544MOL0     H75038  -0.600   8.228   6.469  0.2160  1.9098  1.5954
  544MOL0     H75039  -0.564   8.051   6.495  1.6593  0.5719 -1.4513
  544MOL0     H75040  -0.774   8.137   6.610  0.6160 -1.5104  0.2752
  544MOL0     H75041  -0.670   8.228   6.718 -4.6000  0.7531  0.4160
  544MOL0     H75042  -0.597   8.047   6.833 -1.9137 -2.2059  1.8483
  544MOL0     H75043  -0.592   7.951   6.684 -0.6445  1.2659 -0.6364
  544MOL0     H75044  -0.837   8.050   6.857 -3.3067  0.3820 -1.7735
  544MOL0     H75045  -0.866   7.960   6.702  0.5515  4.7850 -0.9919
  544MOL0     H75046  -0.708   7.850   6.935 -0.2083 -1.2637  0.6677
  544MOL0     H75047  -0.758   7.763   6.786  0.2469 -0.2726  0.8720
  544MOL0     H75048  -0.958   7.713   6.862 -0.6790 -0.8664  0.2430
  544MOL0     H75049  -0.975   7.870   6.933  0.2464  1.4994  1.3556
  544MOL0     H75050  -0.833   7.630   7.072  1.5725  0.4264 -0.9630
  544MOL0     H75051  -0.974   7.724   7.120 -1.6396 -0.2836 -1.1343
  544MOL0     H75052  -0.081   8.185   6.426  2.2148 -0.0253 -1.6708
  544MOL0     H75053   0.069   8.359   6.351  0.7584 -0.9010  0.6290
  544MOL0     H75054   0.144   8.695   6.143 -1.2312 -0.4809 -0.2865
  544MOL0     H75055   0.325   8.808   6.035  0.7336 -2.2153  0.3289
  544MOL0     H75056   1.416   9.494   7.054 -0.6872  1.1498  0.6068
  544MOL0     H75057   1.591   9.473   7.210 -2.2277  1.6587  1.8221
  544MOL0     H75058   2.151   9.399   7.157  0.3872 -0.3883  0.8498
  544MOL0     H75059   2.316   9.370   7.341 -0.2145  0.5782 -1.0901
  544MOL0     H75060   2.359   9.246   7.543 -0.1105  0.0922  0.5804
  544MOL0     H75061   2.457   9.387   7.594 -0.0795 -0.3632  1.2485
  544MOL0     H75062   2.411   9.342   7.823  5.7670 -1.5645 -1.7770
  544MOL0     H75063   2.459   9.203   7.760  0.1147 -1.0400 -1.0217
  544MOL0     H75064   2.232   9.245   7.901  2.8760 -0.8977 -0.4320
  544MOL0     H75065   2.159   9.241   7.741  0.8549  0.3956 -0.5159
  544MOL0     H75066   2.324   9.024   7.702  2.4623  0.4005  1.3511
  544MOL0     H75067   2.164   9.017   7.779 -1.1351  2.8241 -1.1256
  544MOL0     H75068   2.383   8.876   8.092 -0.1923  0.7589  0.5053
  544MOL0     H75069   2.015   9.419   7.633 -1.7075  2.8432 -0.7720
  544MOL0     H75070   1.713   9.452   7.390 -0.4149  0.3282  0.0931
  544MOL0     H75071   1.780   9.426   7.559  0.3981  0.5121 -0.0384
  544MOL0     H75072   1.798   9.582   7.476 -1.8601  0.4748  2.7966
  545MOL0     O75073   3.884   9.200   3.482 -0.1670 -0.0680  0.7584
  545MOL0     C75074   3.796   9.245   3.551  0.7429  0.1275 -0.1915
  545MOL0     O75075   3.793   9.239   3.687  0.0330  0.1818 -0.2961
  545MOL0     C75076   3.903   9.207   3.759 -0.1937 -0.2192  0.5169
  545MOL0     C75077   4.040   9.239   3.723  0.3806  1.4636  0.3521
  545MOL0     C75078   4.141   9.207   3.814  0.4628 -0.7264 -0.9068
  545MOL0     C75079   4.108   9.160   3.936 -0.3094 -0.1762  0.1428
  545MOL0     O75080   4.190   9.135   4.043 -0.1499  0.2231  0.2418
  545MOL0     C75081   4.323   9.194   4.057  0.6620  0.4622 -0.3978
  545MOL0     C75082   4.326   9.343   4.059  0.1234 -0.0067 -0.1319
  545MOL0     C75083   4.466   9.405   4.056 -0.8197  0.8442 -0.3293
  545MOL0     C75084   4.476   9.515   3.950  0.4585 -0.1763  0.7738
  545MOL0     C75085   4.574   9.623   3.994  0.2320 -0.3740 -1.0725
  545MOL0     C75086   4.577   9.739   3.898  0.4979 -1.0489  0.8595
  545MOL0     C75087   4.682   9.850   3.937 -0.6873  0.2471  0.2647
  545MOL0     C75088   4.664   9.960   3.833  0.8818 -0.4220 -0.4226
  545MOL0     N75089   4.662  10.096   3.898  0.5575  0.5281  0.2229
  545MOL0     C75090   4.545  10.142   3.959 -0.8038  0.4484 -0.7270
  545MOL0     C75091   4.560  10.279   3.950 -0.2245  0.2549 -0.3443
  545MOL0     C75092   4.455  10.378   3.998 -0.6328 -0.1131  0.1775
  545MOL0     C75093   4.472  10.416   4.153  0.3269 -0.3321  0.4586
  545MOL0     C75094   4.602  10.488   4.184 -1.1891  0.6258 -0.2972
  545MOL0     C75095   4.642  10.625   4.117 -0.3726 -0.1168  0.5439
  545MOL0     O75096   4.541  10.724   4.139 -0.0714  0.0785 -0.5459
  545MOL0     C75097   4.567  10.813   4.244  0.3514  0.7729  1.1063
  545MOL0     C75098   4.602  10.948   4.221 -0.4004  0.2350  0.0303
  545MOL0     C75099   4.630  11.038   4.329 -0.8343 -0.6661  1.1718
  545MOL0     C75100   4.703  11.167   4.297  0.4421  0.9017 -0.1641
  545MOL0     C75101   4.600  10.985   4.462 -0.2222 -0.4900  0.0117
  545MOL0     C75102   4.615  11.070   4.582 -0.7806 -1.7318 -0.1992
  545MOL0     O75103   4.536  11.175   4.574  0.1646  0.5033 -0.1765
  545MOL0     C75104   4.529  11.241   4.690 -0.7452 -0.2392  0.0186
  545MOL0     C75105   4.438  11.199   4.795  0.1908 -0.4149 -0.4252
  545MOL0     C75106   4.440  11.275   4.916  1.0974 -0.6966  0.4142
  545MOL0     C75107   4.515  11.391   4.936 -0.0654 -0.4647 -0.1539
  545MOL0     O75108   4.512  11.457   5.054  0.3565 -0.2842 -0.0881
  545MOL0     C75109   4.610  11.564   5.072 -0.6193 -0.0172 -0.1202
  545MOL0     C75110   4.568  11.652   5.194  0.1796 -0.6356  0.3130
  545MOL0     C75111   4.686  11.731   5.248 -0.1396  1.2529 -0.3657
  545MOL0     C75112   4.651  11.774   5.392  0.7270 -0.4493  0.1366
  545MOL0     C75113   4.756  11.866   5.452 -0.0759  0.7589  0.6785
  545MOL0     C75114   4.724  11.897   5.601  0.2056  0.0466 -0.1670
  545MOL0     C75115   4.849  11.945   5.686  0.5673 -0.2452  0.2602
  545MOL0     C75116   4.936  12.060   5.636 -0.4881  0.5801  0.7837
  545MOL0    Cl75117   4.827  12.164   5.546 -0.3470  0.2216  0.0550
  545MOL0     C75118   4.604  11.425   4.830  0.8997  0.6437 -0.1053
  545MOL0     C75119   4.611  11.350   4.718 -0.4418  0.3934 -0.5613
  545MOL0     O75120   4.686  11.035   4.677 -0.0689  0.0754  0.4722
  545MOL0     C75121   4.563  10.851   4.473 -0.1840  0.2421 -1.6795
  545MOL0     C75122   4.539  10.768   4.371 -0.4664  0.1276 -0.0487
  545MOL0     N75123   4.670  10.303   3.878 -0.0741 -0.6155  0.1300
  545MOL0     N75124   4.734  10.196   3.846  0.0906  0.1683  0.0905
  545MOL0     C75125   3.974   9.146   3.978 -0.0602 -0.7271  1.0056
  545MOL0     C75126   3.870   9.168   3.885 -0.0882 -0.4047  0.0560
  545MOL0     C75127   3.702   9.347   3.500  0.2449  0.3265  0.4947
  545MOL0     C75128   3.616   9.422   3.593  0.2811  0.3685 -0.3492
  545MOL0     C75129   3.527   9.517   3.552  0.4148  0.0733 -0.3860
  545MOL0     C75130   3.536   9.567   3.427  0.2615  0.1041  0.8662
  545MOL0     O75131   3.457   9.678   3.383 -1.0176  1.1775  0.4828
  545MOL0     C75132   3.344   9.671   3.288 -0.4405 -0.2300 -0.0746
  545MOL0     C75133   3.225   9.762   3.336  0.3590  0.5241  0.2413
  545MOL0     C75134   3.228   9.913   3.299 -0.5229  0.6151 -0.3559
  545MOL0     C75135   3.108   9.988   3.364 -0.5105  0.7798 -0.3850
  545MOL0     C75136   3.117  10.115   3.293  0.3355 -0.3070  0.0918
  545MOL0     C75137   3.101  10.224   3.239  0.0243 -0.4017 -0.4999
  545MOL0     C75138   3.613   9.505   3.328  0.9923 -0.0283 -0.2124
  545MOL0     C75139   3.700   9.400   3.367 -0.2991 -0.0465  0.7127
  545MOL0     C75140   3.773   9.336   3.250 -0.3528 -0.6354 -0.1666
  545MOL0     H75141   4.061   9.281   3.625 -1.2607  0.7258 -0.3559
  545MOL0     H75142   4.248   9.223   3.802  0.6384  0.1090  1.3206
  545MOL0     H75143   4.382   9.139   3.983  0.3714  0.4539 -0.6237
  545MOL0     H75144   4.355   9.151   4.153 -1.8152 -0.6742  0.0034
  545MOL0     H75145   4.269   9.377   3.972 -1.3567  2.8838  1.8067
  545MOL0     H75146   4.269   9.384   4.143  1.0648  0.3849  0.3237
  545MOL0     H75147   4.486   9.439   4.158 -0.1452 -1.1846  0.2672
  545MOL0     H75148   4.544   9.336   4.022 -0.2372  0.0868  2.3236
  545MOL0     H75149   4.497   9.464   3.855 -1.8118  0.5142 -0.1659
  545MOL0     H75150   4.379   9.564   3.944 -0.5686 -2.2435 -0.5576
  545MOL0     H75151   4.674   9.580   4.001  1.4800  1.9621 -3.0365
  545MOL0     H75152   4.538   9.655   4.093  0.1056 -1.2462 -0.8251
  545MOL0     H75153   4.593   9.707   3.795  0.5694  2.5446 -0.4035
  545MOL0     H75154   4.474   9.774   3.904  0.9741  0.7515 -0.5432
  545MOL0     H75155   4.783   9.807   3.932 -1.2777 -1.0530 -1.6463
  545MOL0     H75156   4.647   9.885   4.034 -1.6965  0.1575 -0.0587
  545MOL0     H75157   4.745   9.960   3.760  0.5148  1.7583 -0.9152
  545MOL0     H75158   4.577   9.947   3.768  1.7418  1.1114 -1.9676
  545MOL0     H75159   4.454  10.089   3.985  0.7070 -1.3019  1.3532
  545MOL0     H75160   4.353  10.349   3.972 -1.4697  1.7737  1.1864
  545MOL0     H75161   4.472  10.465   3.934  0.1183 -0.1650  0.2989
  545MOL0     H75162   4.396  10.489   4.180  1.2185  0.6788  0.3119
  545MOL0     H75163   4.471  10.325   4.213  2.8423  0.6438  2.1497
  545MOL0     H75164   4.600  10.505   4.292 -0.4788 -0.0312 -0.1676
  545MOL0     H75165   4.688  10.421   4.171 -0.1868  1.3724  1.9238
  545MOL0     H75166   4.742  10.652   4.151 -0.4073  1.6922 -0.6537
  545MOL0     H75167   4.651  10.605   4.010  3.3051  2.7711  0.1263
  545MOL0     H75168   4.615  10.971   4.116 -2.5648  1.0047 -0.1138
  545MOL0     H75169   4.685  11.246   4.371  1.3091  2.9058 -1.9838
  545MOL0     H75170   4.668  11.203   4.200 -1.8214 -0.3314  0.1336
  545MOL0     H75171   4.809  11.139   4.293  0.1364 -0.5704  1.0273
  545MOL0     H75172   4.374  11.115   4.771  1.7114 -1.6237 -0.3981
  545MOL0     H75173   4.376  11.247   4.999  1.5963 -0.4285  0.8953
  545MOL0     H75174   4.708  11.523   5.099 -2.1262 -0.9983  4.9135
  545MOL0     H75175   4.623  11.633   4.988  1.5632  1.1292  1.0758
  545MOL0     H75176   4.489  11.720   5.162  0.5751  1.5381  3.5379
  545MOL0     H75177   4.518  11.592   5.271 -0.4233  0.7893  1.0563
  545MOL0     H75178   4.701  11.818   5.184 -2.1100  2.2220  0.3897
  545MOL0     H75179   4.782  11.680   5.246 -0.6461  0.2025  0.5504
  545MOL0     H75180   4.649  11.683   5.454  0.9741 -1.5326 -1.3947
  545MOL0     H75181   4.553  11.820   5.404  0.8971 -0.6528  3.2415
  545MOL0     H75182   4.850  11.811   5.464  0.7268  1.6448 -1.1569
  545MOL0     H75183   4.775  11.952   5.388  1.2257  0.3460  0.4823
  545MOL0     H75184   4.685  11.803   5.641  1.3789  0.4191  2.0090
  545MOL0     H75185   4.647  11.974   5.592  2.5564  2.3697 -1.7360
  545MOL0     H75186   4.921  11.867   5.709  0.3799 -0.9640 -1.4317
  545MOL0     H75187   4.789  11.980   5.771  0.2633  3.0312 -1.1285
  545MOL0     H75188   5.017  12.027   5.571  0.7705  0.7127  2.2181
  545MOL0     H75189   4.978  12.116   5.720  2.2169 -1.3475  0.8326
  545MOL0     H75190   4.673  11.509   4.834  2.4972 -0.6611  1.0189
  545MOL0     H75191   4.683  11.377   4.641  0.2295 -1.1326 -0.4942
  545MOL0     H75192   4.548  10.805   4.570  2.9821 -0.2578 -1.3253
  545MOL0     H75193   4.510  10.665   4.382 -0.8648  0.1127 -1.1243
  545MOL0     H75194   3.945   9.108   4.075  2.6136 -0.6172  1.9167
  545MOL0     H75195   3.771   9.146   3.923 -0.7696 -3.0491 -2.8556
  545MOL0     H75196   3.633   9.393   3.696  2.8864  0.7882 -0.5789
  545MOL0     H75197   3.471   9.566   3.631 -0.2223  0.0854 -0.8360
  545MOL0     H75198   3.371   9.711   3.190 -0.8205 -1.8629 -0.8885
  545MOL0     H75199   3.314   9.567   3.274 -0.7207 -0.1863  0.1746
  545MOL0     H75200   3.221   9.751   3.444 -0.2448  0.6866  0.2389
  545MOL0     H75201   3.126   9.733   3.298  0.6702 -1.2993  0.7069
  545MOL0     H75202   3.325   9.946   3.339  0.8415 -4.0617  0.8940
  545MOL0     H75203   3.224   9.923   3.190 -2.1026 -2.7736 -0.7639
  545MOL0     H75204   3.129  10.000   3.471  3.2770  0.9159 -1.0167
  545MOL0     H75205   3.013   9.934   3.360  1.0275 -2.4737  2.0034
  545MOL0     H75206   3.092  10.322   3.196  0.6023 -0.8635 -1.7094
  545MOL0     H75207   3.594   9.547   3.229 -1.0189  0.0387  0.1478
  545MOL0     H75208   3.714   9.248   3.220 -0.6548 -1.4283  2.4902
  545MOL0     H75209   3.790   9.408   3.170  0.6308 -2.9823 -2.2164
  545MOL0     H75210   3.876   9.312   3.278 -0.6076 -0.7830  0.6862
  546MOL0     O75211   2.038   7.599  10.997 -0.3243  0.2325 -0.0805
  546MOL0     C75212   2.130   7.644  10.931  0.2213  0.8329 -0.1207
  546MOL0     O75213   2.126   7.659  10.796  0.9410  0.3137  0.0822
  546MOL0     C75214   2.017   7.663  10.715  0.0187 -0.4315  0.2213
  546MOL0     C75215   2.040   7.656  10.584 -0.3919 -0.1217  0.3365
  546MOL0     C75216   1.939   7.673  10.489  0.3283  0.2334 -0.3028
  546MOL0     C75217   1.806   7.697  10.532  0.8335 -0.3146  0.0541
  546MOL0     O75218   1.702   7.708  10.437 -0.0573  0.0064 -0.3516
  546MOL0     C75219   1.737   7.741  10.303 -0.1700 -1.2288  0.2275
  546MOL0     C75220   1.651   7.654  10.211  0.5125 -0.8229 -0.2521
  546MOL0     C75221   1.714   7.515  10.199 -0.8046 -1.0511 -0.2973
  546MOL0     C75222   1.815   7.493  10.089 -0.2357 -1.2377 -0.0235
  546MOL0     C75223   1.832   7.348  10.064 -1.6497 -0.6764  0.6351
  546MOL0     C75224   1.916   7.320   9.941 -0.4599  0.3078  0.1070
  546MOL0     C75225   1.847   7.363   9.805  0.0305 -0.0637 -0.0041
  546MOL0     C75226   1.883   7.271   9.689  0.0201  0.0848  0.3075
  546MOL0     N75227   2.026   7.288   9.666 -0.8453 -0.0415 -0.3300
  546MOL0     C75228   2.086   7.398   9.625  0.1425 -0.2982  0.8343
  546MOL0     C75229   2.219   7.369   9.630 -0.3376  0.6230  0.0797
  546MOL0     C75230   2.331   7.453   9.591  0.0706 -0.9128  0.1932
  546MOL0     C75231   2.404   7.405   9.472  0.7733  0.5940  0.2345
  546MOL0     C75232   2.329   7.447   9.342  0.1018 -0.5809 -0.8672
  546MOL0     C75233   2.388   7.389   9.208 -0.0594  0.0517 -0.1312
  546MOL0     O75234   2.504   7.458   9.182  0.0673  0.2204  0.4706
  546MOL0     C75235   2.569   7.440   9.060 -0.5023  0.0873 -0.5522
  546MOL0     C75236   2.558   7.331   8.977  0.6705  0.2991 -0.1079
  546MOL0     C75237   2.610   7.316   8.842  0.3351 -0.2120 -0.4729
  546MOL0     C75238   2.583   7.181   8.784 -0.0335  0.0427 -0.4629
  546MOL0     C75239   2.684   7.424   8.791 -0.2804 -0.5541  0.8000
  546MOL0     C75240   2.754   7.420   8.663  0.5302 -0.4816  0.0392
  546MOL0     O75241   2.869   7.492   8.647 -0.2394  0.0971  0.2730
  546MOL0     C75242   2.926   7.502   8.521  0.2326 -0.4123  0.0490
  546MOL0     C75243   2.864   7.576   8.420 -0.3941 -0.2185  0.7864
  546MOL0     C75244   2.921   7.582   8.288  0.1425  0.8608  1.1146
  546MOL0     C75245   3.054   7.530   8.270 -0.3840  0.3765  0.0304
  546MOL0     O75246   3.113   7.551   8.157 -0.1602 -0.5477 -0.1990
  546MOL0     C75247   3.230   7.478   8.116 -0.3064 -0.4637  0.2540
  546MOL0     C75248   3.293   7.527   7.980 -0.5798 -0.4633 -1.2897
  546MOL0     C75249   3.402   7.428   7.934 -1.2352  0.1231 -0.5109
  546MOL0     C75250   3.513   7.491   7.841  0.3041  0.0354  0.0180
  546MOL0     C75251   3.501   7.451   7.695 -0.0872 -0.1480  0.5502
  546MOL0     C75252   3.355   7.472   7.645  0.6646 -0.0063  0.2931
  546MOL0     C75253   3.329   7.598   7.572 -0.4175  0.4655 -0.1076
  546MOL0     C75254   3.200   7.595   7.487 -0.7511  0.5573  0.0297
  546MOL0    Cl75255   3.270   7.580   7.316  0.4987 -0.1872  0.1633
  546MOL0     C75256   3.124   7.474   8.374 -0.3459  0.1372  0.3716
  546MOL0     C75257   3.058   7.465   8.497 -0.9001 -0.2887 -0.0424
  546MOL0     O75258   2.700   7.342   8.581  0.3105 -0.6466 -0.0372
  546MOL0     C75259   2.699   7.540   8.869 -0.3133  0.1044  0.1393
  546MOL0     C75260   2.653   7.546   9.006  0.2289 -0.0372  0.6637
  546MOL0     N75261   2.238   7.247   9.689  0.1155 -0.5095 -0.0312
  546MOL0     N75262   2.117   7.193   9.703  0.1864  0.0511  0.0094
  546MOL0     C75263   1.779   7.719  10.668 -0.3827  0.5337 -0.2890
  546MOL0     C75264   1.883   7.702  10.761 -0.1750 -0.1905 -0.1641
  546MOL0     C75265   2.257   7.654  11.002  0.3111 -0.5188 -0.0766
  546MOL0     C75266   2.369   7.663  10.910  0.0486  0.0440  0.9382
  546MOL0     C75267   2.495   7.658  10.968  0.4155 -0.8374 -0.0110
  546MOL0     C75268   2.524   7.639  11.103  0.5533 -0.2747 -1.0840
  546MOL0     O75269   2.653   7.629  11.148  0.2699 -0.2537  0.9005
  546MOL0     C75270   2.764   7.590  11.059  0.4223  0.0709  0.4953
  546MOL0     C75271   2.740   7.451  11.011 -0.4554 -0.7200 -0.5529
  546MOL0     C75272   2.871   7.396  10.944 -0.0134  0.3667  0.0150
  546MOL0     C75273   2.864   7.245  10.932 -0.5327  0.4418 -0.6155
  546MOL0     C75274   2.938   7.181  10.819 -0.8599  0.4065 -0.9105
  546MOL0     C75275   3.018   7.131  10.750  0.1163 -0.3745  0.3763
  546MOL0     C75276   2.412   7.655  11.188 -0.1334 -0.9811  0.4895
  546MOL0     C75277   2.281   7.664  11.146  0.8051 -0.0744  0.1747
  546MOL0     C75278   2.176   7.674  11.254 -0.0587 -0.5283  0.0898
  546MOL0     H75279   2.139   7.631  10.549 -0.8851  0.0231 -1.2142
  546MOL0     H75280   1.978   7.658  10.389 -0.1405 -1.2535 -0.2918
  546MOL0     H75281   1.838   7.725  10.266  0.6429  1.2850  1.1321
  546MOL0     H75282   1.705   7.845  10.288 -1.5098 -1.0220  3.5665
  546MOL0     H75283   1.548   7.637  10.243  0.9135 -1.2047  0.8749
  546MOL0     H75284   1.657   7.707  10.115  0.8074  1.2529  0.8542
  546MOL0     H75285   1.759   7.498  10.297 -0.1075  2.0892  0.0375
  546MOL0     H75286   1.629   7.447  10.192 -0.8353 -1.0092 -0.3314
  546MOL0     H75287   1.773   7.545  10.002 -1.3912 -0.9833  0.6604
  546MOL0     H75288   1.916   7.532  10.101  0.8553 -3.1782 -2.1948
  546MOL0     H75289   1.732   7.305  10.060 -1.3134 -1.9145  3.3827
  546MOL0     H75290   1.879   7.308  10.154  0.1015 -0.9383 -0.3359
  546MOL0     H75291   2.013   7.370   9.945 -1.2191  1.8893 -0.5821
  546MOL0     H75292   1.923   7.211   9.949 -0.4815  0.3655  1.0834
  546MOL0     H75293   1.865   7.470   9.787  2.7632  0.2662  3.5724
  546MOL0     H75294   1.740   7.342   9.815 -0.6713  3.1948  0.4236
  546MOL0     H75295   1.848   7.173   9.725 -0.6590 -0.4439 -1.6870
  546MOL0     H75296   1.828   7.288   9.596 -0.6617 -0.1684  0.6546
  546MOL0     H75297   2.039   7.492   9.597  0.2446  0.4498  2.9474
  546MOL0     H75298   2.399   7.479   9.673  1.3612  3.4601 -1.9785
  546MOL0     H75299   2.295   7.550   9.558  3.8384  0.8865  0.7872
  546MOL0     H75300   2.499   7.459   9.468  0.5136  0.9750 -1.6658
  546MOL0     H75301   2.431   7.299   9.475 -1.0466  0.1121  2.2872
  546MOL0     H75302   2.223   7.421   9.345  0.2472 -1.0976  0.5447
  546MOL0     H75303   2.327   7.556   9.341 -1.6712 -0.5517  0.6941
  546MOL0     H75304   2.404   7.284   9.236  1.0366  1.0321  3.4153
  546MOL0     H75305   2.314   7.408   9.129 -0.1237 -0.1687 -0.1242
  546MOL0     H75306   2.500   7.253   9.025  1.9859  0.6072  2.1513
  546MOL0     H75307   2.528   7.188   8.690 -1.9106 -1.4452  0.4622
  546MOL0     H75308   2.541   7.107   8.854  4.1671 -2.2366 -0.0628
  546MOL0     H75309   2.676   7.131   8.758  1.6227  1.2051  2.7101
  546MOL0     H75310   2.762   7.609   8.438 -0.7921  0.2479 -1.9161
  546MOL0     H75311   2.864   7.617   8.202 -0.9757 -0.4673  1.2991
  546MOL0     H75312   3.315   7.470   8.185  0.0891  2.4037  0.2225
  546MOL0     H75313   3.195   7.377   8.090 -0.3863 -0.8540  1.7795
  546MOL0     H75314   3.203   7.534   7.917 -2.7682  1.5291  1.7661
  546MOL0     H75315   3.340   7.625   7.990  0.5818 -1.1948  1.0000
  546MOL0     H75316   3.350   7.345   7.886 -1.0718 -0.3283  0.0885
  546MOL0     H75317   3.459   7.390   8.019  1.9205  2.9341 -1.1311
  546MOL0     H75318   3.615   7.468   7.873  0.8553 -1.6201 -2.5959
  546MOL0     H75319   3.493   7.599   7.847 -0.0427  0.0087 -0.5225
  546MOL0     H75320   3.561   7.512   7.626 -3.4147 -0.0625 -2.5792
  546MOL0     H75321   3.526   7.345   7.687 -0.2562 -0.0423 -2.0957
  546MOL0     H75322   3.271   7.448   7.711  1.6623 -0.8626  1.2871
  546MOL0     H75323   3.339   7.389   7.574 -1.3360 -2.2890  3.1425
  546MOL0     H75324   3.407   7.623   7.500 -2.2781  3.3190 -1.3282
  546MOL0     H75325   3.318   7.682   7.641  1.1028  0.2915  0.3820
  546MOL0     H75326   3.139   7.686   7.492 -0.1895  0.9052  0.7814
  546MOL0     H75327   3.136   7.507   7.494 -0.0673  0.1619  1.7365
  546MOL0     H75328   3.233   7.470   8.373 -0.2998  1.0252  0.6036
  546MOL0     H75329   3.104   7.428   8.589 -0.5268  2.6539  1.0457
  546MOL0     H75330   2.747   7.623   8.819 -1.4221  0.8437  0.2765
  546MOL0     H75331   2.685   7.639   9.053  0.1591  0.3203  0.0085
  546MOL0     H75332   1.676   7.739  10.696 -0.7885  1.6255 -2.3673
  546MOL0     H75333   1.857   7.702  10.866 -2.1879 -0.1931 -0.6230
  546MOL0     H75334   2.359   7.671  10.802 -1.7773  5.6366  1.2194
  546MOL0     H75335   2.570   7.654  10.889  1.0255 -1.0863  0.5744
  546MOL0     H75336   2.775   7.658  10.974  2.8532  0.8161  1.3194
  546MOL0     H75337   2.850   7.598  11.126  0.9571 -0.0109 -0.1677
  546MOL0     H75338   2.674   7.439  10.924  1.5582 -0.3762 -2.2009
  546MOL0     H75339   2.699   7.383  11.086 -3.7385  1.1663 -0.4490
  546MOL0     H75340   2.877   7.444  10.845 -2.7563  2.7059  0.8351
  546MOL0     H75341   2.959   7.421  11.004 -1.2253 -0.7025  2.3629
  546MOL0     H75342   2.757   7.225  10.924 -0.7475  0.6858  1.2215
  546MOL0     H75343   2.905   7.214  11.028  1.4538  0.8852 -1.2642
  546MOL0     H75344   3.074   7.082  10.672 -1.5023 -0.4761 -0.7841
  546MOL0     H75345   2.439   7.664  11.292  0.9883  0.3791  0.1045
  546MOL0     H75346   2.118   7.584  11.275  0.5906 -0.5562  1.9948
  546MOL0     H75347   2.214   7.696  11.354 -1.1735 -3.1288  1.1897
  546MOL0     H75348   2.106   7.750  11.218  1.8073  0.2485 -2.1722
  547MOL0     O75349  11.228   0.862   4.848  0.0949  0.5176 -0.3019
  547MOL0     C75350  11.294   0.887   4.741 -0.2378 -0.0534 -0.9450
  547MOL0     O75351  11.429   0.872   4.733  0.6593 -0.5389 -0.1550
  547MOL0     C75352  11.499   0.900   4.851 -0.7137 -0.5714  0.0222
  547MOL0     C75353  11.450   0.975   4.957 -0.9769  0.2514  0.7307
  547MOL0     C75354  11.520   0.991   5.080  0.0017  0.5964  0.4303
  547MOL0     C75355  11.645   0.934   5.105  0.3416 -0.1696 -0.8107
  547MOL0     O75356  11.700   0.964   5.232  0.1864 -0.7343 -1.2812
  547MOL0     C75357  11.840   0.961   5.256 -0.6747 -0.4762  0.0020
  547MOL0     C75358  11.904   1.099   5.213  0.5685  0.1715  0.0153
  547MOL0     C75359  11.836   1.206   5.309 -0.2804 -1.2445  0.3073
  547MOL0     C75360  11.906   1.346   5.314 -0.1716  0.1959  0.0035
  547MOL0     C75361  11.811   1.432   5.391  0.2361  1.2974  0.1710
  547MOL0     C75362  11.864   1.564   5.418 -0.0498 -0.7229 -0.2772
  547MOL0     C75363  11.915   1.598   5.554 -0.4379  0.4221  0.9059
  547MOL0     C75364  12.022   1.709   5.539  0.0907  0.4061 -0.3034
  547MOL0     N75365  11.981   1.834   5.477  0.2695  0.0342  0.1824
  547MOL0     C75366  11.858   1.900   5.486 -0.9378  0.6712 -0.3316
  547MOL0     C75367  11.855   1.986   5.383 -0.5948  0.1661  0.0744
  547MOL0     C75368  11.734   2.060   5.330  0.2955 -0.9772 -0.3007
  547MOL0     C75369  11.672   2.173   5.422  0.2920 -0.6172  0.0419
  547MOL0     C75370  11.549   2.249   5.368  0.3604  0.0071  0.7442
  547MOL0     C75371  11.510   2.358   5.458  0.6069 -0.1272  0.1428
  547MOL0     O75372  11.378   2.421   5.427  0.1277  0.1438  0.0378
  547MOL0     C75373  11.361   2.500   5.323  0.2128  0.3032  0.0939
  547MOL0     C75374  11.223   2.531   5.290  0.4820 -0.4678  0.0694
  547MOL0     C75375  11.194   2.611   5.179 -0.0559 -0.3112 -0.2815
  547MOL0     C75376  11.054   2.642   5.158 -0.3278  0.5607  0.2327
  547MOL0     C75377  11.292   2.651   5.089  0.0640 -0.2447 -0.8662
  547MOL0     C75378  11.283   2.731   4.965  0.3995 -0.2801 -0.1804
  547MOL0     O75379  11.399   2.768   4.903  0.0159  0.8217  0.5503
  547MOL0     C75380  11.389   2.864   4.807  0.6900 -1.0836  0.0019
  547MOL0     C75381  11.353   2.996   4.833  0.1129  0.0851  0.0516
  547MOL0     C75382  11.363   3.081   4.731 -0.6901 -0.6588 -0.5022
  547MOL0     C75383  11.414   3.061   4.600  0.6366 -0.1136 -0.0671
  547MOL0     O75384  11.443   3.149   4.496 -0.7765 -0.4041  0.0814
  547MOL0     C75385  11.433   3.289   4.523  0.3153 -0.3009  0.1266
  547MOL0     C75386  11.485   3.355   4.398  1.3844 -0.0583 -0.0342
  547MOL0     C75387  11.641   3.369   4.401 -0.7340  0.2889  0.1192
  547MOL0     C75388  11.692   3.442   4.526  0.1435 -0.8578  0.8341
  547MOL0     C75389  11.844   3.478   4.505  0.1112  0.1028  0.0680
  547MOL0     C75390  11.859   3.594   4.401 -0.0212 -1.0689  0.5465
  547MOL0     C75391  12.008   3.608   4.366 -0.1241 -0.2636 -0.1172
  547MOL0     C75392  12.034   3.697   4.250  0.0596 -1.3673 -0.3675
  547MOL0    Cl75393  11.970   3.865   4.283  0.4931  0.6158  0.0985
  547MOL0     C75394  11.443   2.930   4.583 -0.9970  0.3307  0.4989
  547MOL0     C75395  11.428   2.834   4.680 -1.1554  0.1206 -0.5949
  547MOL0     O75396  11.178   2.773   4.927  0.4404  0.0423 -0.6034
  547MOL0     C75397  11.425   2.619   5.125  0.3271 -0.0452  0.1724
  547MOL0     C75398  11.461   2.532   5.232 -0.6219  0.0167  0.1735
  547MOL0     N75399  11.983   1.989   5.325  0.3318  0.1550  0.2212
  547MOL0     N75400  12.061   1.899   5.384  0.2655 -0.1590 -0.0511
  547MOL0     C75401  11.696   0.848   5.001 -0.2369 -0.3207 -1.0533
  547MOL0     C75402  11.621   0.834   4.881 -0.2843  0.7629 -0.3365
  547MOL0     C75403  11.221   0.906   4.615 -0.8508  0.1943  0.8597
  547MOL0     C75404  11.300   0.911   4.498 -0.0124 -0.5526 -0.3315
  547MOL0     C75405  11.252   0.929   4.371 -0.1055 -0.2949  0.0942
  547MOL0     C75406  11.115   0.943   4.351 -0.2179  0.4334 -0.0081
  547MOL0     O75407  11.057   0.950   4.223 -0.9693 -0.1300  0.0364
  547MOL0     C75408  11.083   0.854   4.122  0.2678 -0.3439 -0.0907
  547MOL0     C75409  11.053   0.712   4.162  0.6223  1.0889  0.4945
  547MOL0     C75410  10.897   0.699   4.200  0.2550  0.7831 -0.6015
  547MOL0     C75411  10.852   0.580   4.290  0.2241  0.1962 -0.2370
  547MOL0     C75412  10.926   0.564   4.411 -0.0932 -0.7294 -0.8105
  547MOL0     C75413  10.994   0.546   4.508  1.1716  0.1996 -0.4237
  547MOL0     C75414  11.029   0.932   4.459  0.0292 -0.4738  0.7182
  547MOL0     C75415  11.088   0.906   4.588 -0.2442 -0.4015  0.1212
  547MOL0     C75416  10.990   0.911   4.697  0.0367  0.1339  0.0886
  547MOL0     H75417  11.349   1.014   4.955 -0.9813  0.2160  0.0620
  547MOL0     H75418  11.466   1.032   5.165 -3.9644 -1.6823 -0.7194
  547MOL0     H75419  11.868   0.878   5.190  0.5812 -0.0500 -0.0381
  547MOL0     H75420  11.853   0.938   5.362 -2.3166 -1.0253  0.1091
  547MOL0     H75421  12.011   1.091   5.232  1.2457  3.0878 -1.9759
  547MOL0     H75422  11.893   1.135   5.110  0.8617  1.7447  0.4987
  547MOL0     H75423  11.736   1.229   5.273  0.9932  1.9544 -1.6339
  547MOL0     H75424  11.835   1.164   5.410  0.7242 -2.4765 -0.1647
  547MOL0     H75425  12.000   1.340   5.368  0.8438  0.1805 -1.6788
  547MOL0     H75426  11.937   1.388   5.218  2.0384 -2.5147 -0.5998
  547MOL0     H75427  11.786   1.385   5.487  0.2010 -0.6436 -0.7225
  547MOL0     H75428  11.711   1.437   5.348  0.1856  0.3765  0.1527
  547MOL0     H75429  11.935   1.598   5.342  1.3781  0.1991  1.4119
  547MOL0     H75430  11.781   1.636   5.412  3.4130  3.8002  0.7726
  547MOL0     H75431  11.969   1.511   5.592 -3.0661 -0.6779  2.3703
  547MOL0     H75432  11.840   1.601   5.633  1.5756  0.0035  2.9625
  547MOL0     H75433  12.062   1.731   5.638 -2.8273  0.7291  0.8989
  547MOL0     H75434  12.109   1.673   5.482  0.9782  0.0254  1.2466
  547MOL0     H75435  11.768   1.876   5.542 -1.5394  0.4097 -1.3692
  547MOL0     H75436  11.659   1.985   5.307 -1.2079 -0.0301  1.2658
  547MOL0     H75437  11.755   2.098   5.230 -0.4141  1.1881  0.3005
  547MOL0     H75438  11.635   2.131   5.517 -0.4220 -0.1033 -0.0008
  547MOL0     H75439  11.748   2.250   5.434  1.1779 -1.1373 -1.8872
  547MOL0     H75440  11.578   2.297   5.273  0.5530  1.3302  1.4368
  547MOL0     H75441  11.469   2.179   5.345 -0.3545  1.3171 -0.9770
  547MOL0     H75442  11.498   2.307   5.554  2.6427 -2.8569 -0.9276
  547MOL0     H75443  11.581   2.437   5.480 -0.9035  2.2833 -2.9182
  547MOL0     H75444  11.147   2.483   5.351  0.5814 -0.2932  0.3300
  547MOL0     H75445  11.039   2.742   5.119 -0.1727  0.3768 -0.3021
  547MOL0     H75446  10.990   2.639   5.247  0.7325  1.6673  1.0604
  547MOL0     H75447  11.021   2.566   5.087 -0.5176  1.5784 -0.7890
  547MOL0     H75448  11.324   3.016   4.935 -1.5421  0.8854 -0.5415
  547MOL0     H75449  11.327   3.182   4.744  0.6154 -0.0107 -1.6784
  547MOL0     H75450  11.330   3.316   4.548  0.9994  0.9577  1.7643
  547MOL0     H75451  11.495   3.303   4.612  0.2025 -1.8831  0.4992
  547MOL0     H75452  11.452   3.303   4.308 -1.8072 -0.3987  1.2305
  547MOL0     H75453  11.442   3.455   4.393  0.6163 -0.2991  1.3027
  547MOL0     H75454  11.666   3.432   4.316 -0.7356  1.2935  0.8395
  547MOL0     H75455  11.702   3.279   4.389 -0.6430 -0.5800  5.0956
  547MOL0     H75456  11.695   3.387   4.620  0.7119  0.4330  1.6056
  547MOL0     H75457  11.640   3.538   4.532 -0.2956 -0.9660 -0.8208
  547MOL0     H75458  11.892   3.497   4.601 -1.0873 -1.5965  1.0614
  547MOL0     H75459  11.885   3.390   4.455  3.0192  0.0756  2.2131
  547MOL0     H75460  11.814   3.684   4.443  0.1879 -0.5446 -0.3365
  547MOL0     H75461  11.809   3.569   4.307  2.0320 -1.7484 -0.4191
  547MOL0     H75462  12.053   3.508   4.373 -1.1403 -0.9050 -2.0716
  547MOL0     H75463  12.048   3.671   4.446 -2.7136  2.3102 -0.6907
  547MOL0     H75464  11.986   3.654   4.162 -0.5356  4.0972 -3.1530
  547MOL0     H75465  12.140   3.686   4.229  0.1319 -0.5530 -0.4395
  547MOL0     H75466  11.480   2.896   4.486 -2.6483  1.6455 -0.6547
  547MOL0     H75467  11.469   2.736   4.659  0.5744  1.0569 -1.8533
  547MOL0     H75468  11.504   2.666   5.069  0.0601 -0.0839 -0.2402
  547MOL0     H75469  11.565   2.513   5.258 -0.8942 -0.4715  0.9561
  547MOL0     H75470  11.791   0.797   5.005  0.6908  1.4075  1.0869
  547MOL0     H75471  11.669   0.768   4.810  2.4725  0.1537  1.9383
  547MOL0     H75472  11.408   0.914   4.486 -0.1939  2.1244 -2.2449
  547MOL0     H75473  11.318   0.916   4.287 -2.7260  0.2709 -2.2014
  547MOL0     H75474  11.022   0.883   4.035 -0.4526  0.6871  0.7296
  547MOL0     H75475  11.188   0.867   4.094  0.4253  1.6728  1.2300
  547MOL0     H75476  11.122   0.674   4.238  0.6766  0.0977 -0.0325
  547MOL0     H75477  11.059   0.644   4.076  2.3197  0.8072  0.7917
  547MOL0     H75478  10.867   0.793   4.247 -1.0386 -0.1712  0.5642
  547MOL0     H75479  10.853   0.697   4.100  5.3041 -1.1882 -3.1508
  547MOL0     H75480  10.863   0.487   4.234 -0.6586  2.1918 -4.0339
  547MOL0     H75481  10.747   0.600   4.314  0.1548 -1.3356  0.9230
  547MOL0     H75482  11.062   0.541   4.591  1.3861 -0.8143 -0.6469
  547MOL0     H75483  10.920   0.928   4.455 -0.2764  2.6669  2.6906
  547MOL0     H75484  10.974   0.808   4.732 -1.2247  0.0595 -0.6397
  547MOL0     H75485  11.018   0.978   4.778 -3.5302  0.8510  0.9386
  547MOL0     H75486  10.898   0.948   4.649  0.4946 -1.7679 -2.4834
  548MOL0     O75487   6.957   2.186   3.937  0.3000 -0.2339  0.3769
  548MOL0     C75488   7.007   2.283   3.989  0.3949 -0.0730  0.0575
  548MOL0     O75489   7.007   2.314   4.120 -0.1221 -0.6045 -0.0035
  548MOL0     C75490   6.923   2.245   4.201  0.8626 -0.0543  0.2510
  548MOL0     C75491   6.965   2.123   4.254 -0.3935  0.2229  0.6473
  548MOL0     C75492   6.885   2.070   4.355 -0.6955  0.7227 -0.4735
  548MOL0     C75493   6.761   2.125   4.391  0.2550  0.3537  0.2491
  548MOL0     O75494   6.677   2.069   4.478  0.1375 -0.1931 -0.6996
  548MOL0     C75495   6.655   1.936   4.456  0.0759 -0.4511 -1.3165
  548MOL0     C75496   6.526   1.892   4.514  0.8584  0.1470 -0.7335
  548MOL0     C75497   6.411   1.992   4.489 -0.5205  0.1824  0.7065
  548MOL0     C75498   6.260   1.952   4.483  0.1470  1.2326  0.4984
  548MOL0     C75499   6.204   1.844   4.381 -0.3267  0.0048 -0.1773
  548MOL0     C75500   6.226   1.879   4.232 -0.0895 -0.9768  0.9284
  548MOL0     C75501   6.122   1.983   4.172 -0.6055  0.0473 -0.1503
  548MOL0     C75502   5.977   1.938   4.175 -0.7198 -0.2326 -0.4017
  548MOL0     N75503   5.950   1.855   4.058 -0.5389  0.6378 -0.4066
  548MOL0     C75504   5.941   1.903   3.929  0.5765 -0.3273  0.2651
  548MOL0     C75505   5.891   1.798   3.860 -0.4702 -0.4081 -0.1747
  548MOL0     C75506   5.856   1.812   3.713 -0.5390  0.6291 -0.4889
  548MOL0     C75507   5.722   1.881   3.684 -0.8630  0.4305 -0.2272
  548MOL0     C75508   5.711   1.884   3.526  0.5084  0.7868 -0.4962
  548MOL0     C75509   5.659   2.021   3.477  0.0026  0.0804  0.9028
  548MOL0     O75510   5.525   2.040   3.526  0.5763  0.1462 -0.2159
  548MOL0     C75511   5.467   2.160   3.537 -0.2188 -1.1926 -0.4957
  548MOL0     C75512   5.337   2.160   3.580 -0.1228  0.2939  0.2577
  548MOL0     C75513   5.260   2.272   3.567 -0.1084  0.3137 -0.0317
  548MOL0     C75514   5.113   2.259   3.600  0.1225  1.2857  0.1681
  548MOL0     C75515   5.315   2.393   3.524 -0.2205  0.2693 -0.0616
  548MOL0     C75516   5.257   2.528   3.531 -0.8282  0.3732  0.2275
  548MOL0     O75517   5.345   2.639   3.507  0.1635 -0.7808  0.5981
  548MOL0     C75518   5.290   2.761   3.549  0.2231  0.3326 -0.8212
  548MOL0     C75519   5.372   2.840   3.646  0.2887  0.5879 -0.9981
  548MOL0     C75520   5.321   2.961   3.701  0.1185  1.0264 -0.4893
  548MOL0     C75521   5.192   2.995   3.665  0.4449 -0.5553  0.0615
  548MOL0     O75522   5.162   3.125   3.711 -1.1954  0.7222  0.6016
  548MOL0     C75523   5.030   3.157   3.698 -0.1542  0.3535  0.3297
  548MOL0     C75524   5.008   3.247   3.580 -0.0616 -0.2388  0.2627
  548MOL0     C75525   4.863   3.286   3.569  0.4037 -0.4902  0.0094
  548MOL0     C75526   4.823   3.357   3.427 -1.2088  0.6197 -1.2742
  548MOL0     C75527   4.677   3.412   3.412 -0.5144 -0.7900  0.3006
  548MOL0     C75528   4.610   3.474   3.541 -0.1299  0.1178 -0.4609
  548MOL0     C75529   4.485   3.539   3.486  0.9075  0.0887  1.0796
  548MOL0     C75530   4.404   3.578   3.604 -0.0467  0.0815  0.4876
  548MOL0    Cl75531   4.327   3.438   3.684 -0.3988 -0.1099 -0.2715
  548MOL0     C75532   5.118   2.928   3.560 -0.3905 -0.1048  0.1300
  548MOL0     C75533   5.174   2.817   3.507  0.2877  0.4194  0.6535
  548MOL0     O75534   5.139   2.532   3.557  0.4369 -0.2164 -0.1534
  548MOL0     C75535   5.446   2.392   3.484 -1.0479  0.3956 -0.0101
  548MOL0     C75536   5.524   2.278   3.492 -0.9653 -0.3864  0.6974
  548MOL0     N75537   5.881   1.688   3.948 -0.0212 -0.1942 -0.6355
  548MOL0     N75538   5.897   1.729   4.066  0.2924  0.2502  0.4299
  548MOL0     C75539   6.721   2.249   4.336 -0.2176  0.1271 -0.4124
  548MOL0     C75540   6.810   2.314   4.245 -0.7006 -0.7209 -0.8113
  548MOL0     C75541   7.083   2.384   3.915  0.2305 -0.1316  0.7804
  548MOL0     C75542   7.144   2.344   3.789  1.3948  0.0491  0.9708
  548MOL0     C75543   7.216   2.431   3.707 -0.4433 -0.6621  0.0172
  548MOL0     C75544   7.257   2.552   3.749 -0.3090  0.6348 -0.6850
  548MOL0     O75545   7.312   2.639   3.666  0.0681 -0.2947 -0.8790
  548MOL0     C75546   7.456   2.634   3.667  0.2690 -0.5275  0.2707
  548MOL0     C75547   7.497   2.558   3.542  0.1534  0.0894 -1.3523
  548MOL0     C75548   7.652   2.554   3.536  0.9494  0.5945 -0.5654
  548MOL0     C75549   7.715   2.421   3.577 -0.5413 -0.5789 -0.6495
  548MOL0     C75550   7.725   2.401   3.724 -1.7569  0.6176 -0.0460
  548MOL0     C75551   7.711   2.374   3.843 -0.6000  0.2343 -0.3276
  548MOL0     C75552   7.200   2.599   3.876  0.1228 -0.3319  0.1262
  548MOL0     C75553   7.111   2.520   3.950 -0.2165  0.3059 -0.0678
  548MOL0     C75554   7.033   2.597   4.060  0.5758 -0.6948  0.6036
  548MOL0     H75555   7.062   2.075   4.241  0.7403  1.8658  2.4309
  548MOL0     H75556   6.925   1.987   4.412  1.2033  0.1876 -2.4068
  548MOL0     H75557   6.738   1.878   4.498 -0.8320 -1.9129 -1.4464
  548MOL0     H75558   6.654   1.912   4.349  0.3905  0.6395 -1.5706
  548MOL0     H75559   6.509   1.796   4.463  1.7424 -0.5713  0.2742
  548MOL0     H75560   6.538   1.887   4.622  0.5319  0.8432 -0.6617
  548MOL0     H75561   6.421   2.073   4.562 -0.4376  1.2844 -0.4888
  548MOL0     H75562   6.411   2.040   4.391 -4.9952 -0.3244  0.2496
  548MOL0     H75563   6.242   1.900   4.578  1.2275 -1.5961 -0.7513
  548MOL0     H75564   6.202   2.043   4.461  1.8974  2.2832  0.0667
  548MOL0     H75565   6.105   1.817   4.419 -0.4899 -0.1778 -0.7231
  548MOL0     H75566   6.273   1.761   4.398 -0.8556 -0.2328  0.9309
  548MOL0     H75567   6.323   1.926   4.214 -1.2441  0.9373 -0.7113
  548MOL0     H75568   6.219   1.793   4.165  2.1018  1.8189 -3.3577
  548MOL0     H75569   6.144   2.021   4.072 -3.2861 -0.8423 -1.1860
  548MOL0     H75570   6.121   2.075   4.230 -0.5607  1.1882 -1.8825
  548MOL0     H75571   5.945   1.892   4.269 -1.4030  1.1675  0.0842
  548MOL0     H75572   5.911   2.024   4.161  0.4736  0.5931 -1.1002
  548MOL0     H75573   5.939   2.003   3.885  1.4021 -1.7959 -3.4832
  548MOL0     H75574   5.851   1.713   3.667 -0.7639  1.3540 -2.0799
  548MOL0     H75575   5.934   1.865   3.657  0.7774 -0.8058 -0.0946
  548MOL0     H75576   5.638   1.828   3.729  0.8648 -2.4828 -0.1553
  548MOL0     H75577   5.730   1.979   3.732 -0.4239  0.2426  0.0929
  548MOL0     H75578   5.806   1.870   3.472  0.3391  0.8702 -0.8142
  548MOL0     H75579   5.628   1.818   3.499 -0.4079  1.1574  1.3418
  548MOL0     H75580   5.731   2.099   3.501  1.2577 -0.9389  0.5460
  548MOL0     H75581   5.634   2.027   3.370 -3.2006 -1.6919  1.3994
  548MOL0     H75582   5.285   2.065   3.594  0.2869 -0.3950 -2.3367
  548MOL0     H75583   5.084   2.154   3.602 -3.0858  2.0573  1.2070
  548MOL0     H75584   5.054   2.313   3.525 -0.6198  0.5323  0.1939
  548MOL0     H75585   5.087   2.300   3.698  3.1881  3.6478  0.1659
  548MOL0     H75586   5.473   2.803   3.656 -0.1395 -0.3948 -0.0867
  548MOL0     H75587   5.383   3.020   3.767  0.2810 -0.6150  0.8835
  548MOL0     H75588   4.957   3.078   3.715  1.7348 -1.4686  0.4261
  548MOL0     H75589   5.026   3.223   3.785 -1.0465 -1.6683  1.9008
  548MOL0     H75590   5.081   3.328   3.589  3.0178 -2.1934 -3.8313
  548MOL0     H75591   5.039   3.185   3.496  2.4070 -0.6625  1.3816
  548MOL0     H75592   4.820   3.327   3.661 -1.1857 -0.5672 -0.6751
  548MOL0     H75593   4.804   3.194   3.572 -2.1854  1.1037  0.5207
  548MOL0     H75594   4.857   3.281   3.356  1.1374  0.0402  0.3737
  548MOL0     H75595   4.891   3.442   3.418  0.3485 -0.2322  1.4283
  548MOL0     H75596   4.681   3.491   3.337  1.0282 -0.4959  0.6626
  548MOL0     H75597   4.623   3.328   3.367 -2.8100  1.1188 -0.7398
  548MOL0     H75598   4.678   3.540   3.596 -1.8749 -0.8521  3.1799
  548MOL0     H75599   4.591   3.399   3.618  1.2796  2.3392  2.2618
  548MOL0     H75600   4.429   3.464   3.428  0.2632  1.5193 -0.2044
  548MOL0     H75601   4.493   3.619   3.412 -1.6506 -2.5001 -2.3511
  548MOL0     H75602   4.321   3.645   3.580  0.1445 -0.2819 -1.3592
  548MOL0     H75603   4.465   3.633   3.676 -1.3277  2.2628 -0.0290
  548MOL0     H75604   5.020   2.963   3.530 -0.4189 -1.3577 -1.3277
  548MOL0     H75605   5.150   2.764   3.416  1.6771  0.5646  0.1732
  548MOL0     H75606   5.488   2.483   3.442  2.4228 -0.3139  1.5402
  548MOL0     H75607   5.611   2.277   3.428 -1.8461 -0.5793 -0.5511
  548MOL0     H75608   6.632   2.309   4.357 -0.5930 -0.9364  1.2428
  548MOL0     H75609   6.785   2.412   4.208 -3.2978 -0.3924  1.4944
  548MOL0     H75610   7.132   2.243   3.753 -0.0289  0.5219  0.0572
  548MOL0     H75611   7.244   2.397   3.608  2.7574  0.6799  0.3325
  548MOL0     H75612   7.500   2.733   3.657  0.7435 -0.9181 -2.1207
  548MOL0     H75613   7.480   2.594   3.766 -3.0674  0.9091  1.8097
  548MOL0     H75614   7.449   2.595   3.451 -3.0301 -2.1041 -0.7426
  548MOL0     H75615   7.466   2.453   3.549  2.7832 -0.7880 -1.5698
  548MOL0     H75616   7.674   2.578   3.432  0.5134 -1.0112 -1.0539
  548MOL0     H75617   7.704   2.630   3.595  0.9770  0.0952  0.0606
  548MOL0     H75618   7.814   2.422   3.530  0.5696 -1.7989  1.4858
  548MOL0     H75619   7.653   2.344   3.530 -1.4430  0.7942 -1.7760
  548MOL0     H75620   7.728   2.349   3.946 -0.2616  0.9334 -0.2048
  548MOL0     H75621   7.218   2.700   3.910 -2.9133  0.3940 -0.1133
  548MOL0     H75622   6.934   2.549   4.064  1.2392 -2.2893 -0.8175
  548MOL0     H75623   7.088   2.577   4.152  2.3331  0.3255 -0.1690
  548MOL0     H75624   7.013   2.703   4.041  1.3282 -0.7069 -0.2959
  549MOL0     O75625   3.381   8.310   0.801  0.1186 -0.3476  0.4920
  549MOL0     C75626   3.463   8.260   0.874  1.1411  0.8066  1.1609
  549MOL0     O75627   3.438   8.158   0.958 -0.3931 -0.7835  0.4226
  549MOL0     C75628   3.335   8.075   0.928 -0.2863  0.1515  0.0502
  549MOL0     C75629   3.291   8.003   1.039 -0.0158 -0.3225 -0.4235
  549MOL0     C75630   3.200   7.899   1.030  0.2178  0.4252  0.0456
  549MOL0     C75631   3.140   7.873   0.907 -0.0211  0.4009  0.1269
  549MOL0     O75632   3.061   7.760   0.875  0.3889 -0.8451  0.2058
  549MOL0     C75633   3.067   7.653   0.975 -0.2530 -0.9374 -0.6589
  549MOL0     C75634   2.943   7.659   1.066 -0.7527 -0.7616  0.7673
  549MOL0     C75635   2.916   7.528   1.143 -0.2110 -0.3989  0.5242
  549MOL0     C75636   2.816   7.529   1.248  0.3738  0.0639  0.0513
  549MOL0     C75637   2.815   7.389   1.311  0.3592  0.4522 -0.5188
  549MOL0     C75638   2.934   7.369   1.414  0.7839 -0.1915 -0.5310
  549MOL0     C75639   2.934   7.446   1.544  0.2047  0.1910  1.0698
  549MOL0     C75640   3.051   7.419   1.628 -0.6621  0.5821  0.6681
  549MOL0     N75641   3.178   7.475   1.591 -0.6196  0.0844 -0.2838
  549MOL0     C75642   3.283   7.413   1.533  0.0547 -0.3770 -0.2023
  549MOL0     C75643   3.364   7.514   1.485  0.0916  0.8459 -0.2466
  549MOL0     C75644   3.475   7.510   1.394 -0.4924  0.7691 -0.2940
  549MOL0     C75645   3.418   7.533   1.248 -0.0272  0.1226 -0.7064
  549MOL0     C75646   3.531   7.560   1.148  0.2575  0.6166 -0.0583
  549MOL0     C75647   3.501   7.688   1.070  0.3032 -1.4284 -0.5040
  549MOL0     O75648   3.511   7.798   1.154 -0.2688 -0.0493 -0.1690
  549MOL0     C75649   3.630   7.863   1.178 -0.1956  0.3001  0.7267
  549MOL0     C75650   3.623   7.985   1.259 -0.3108  0.2750  1.0470
  549MOL0     C75651   3.738   8.067   1.288 -0.9779  0.4428  0.9686
  549MOL0     C75652   3.710   8.187   1.385  0.2096  0.2297 -0.6954
  549MOL0     C75653   3.867   8.022   1.244 -0.0926  0.1244  0.1404
  549MOL0     C75654   3.998   8.067   1.292 -0.0264 -0.0221  0.7762
  549MOL0     O75655   4.106   7.973   1.292 -0.1883 -0.2301  0.6200
  549MOL0     C75656   4.234   8.011   1.303 -0.6427  0.0454  0.3503
  549MOL0     C75657   4.317   7.905   1.342  0.9931  0.1210  0.3433
  549MOL0     C75658   4.453   7.930   1.357 -0.0998  0.7425 -1.3051
  549MOL0     C75659   4.508   8.057   1.335 -0.3517  0.3866  0.3274
  549MOL0     O75660   4.645   8.054   1.352 -0.2843  0.3319 -0.6227
  549MOL0     C75661   4.720   8.177   1.337 -0.2825  0.4954  0.0807
  549MOL0     C75662   4.868   8.133   1.376  0.1748  0.1230 -0.9757
  549MOL0     C75663   4.872   8.090   1.523 -0.1728 -0.6545 -0.2520
  549MOL0     C75664   5.005   8.088   1.578  0.9348  0.0014 -0.3266
  549MOL0     C75665   5.014   8.034   1.724 -0.3522 -0.6104  0.6621
  549MOL0     C75666   4.911   8.100   1.811  0.2138 -0.2947  0.4631
  549MOL0     C75667   4.936   8.073   1.961  0.1886  0.1593  0.0456
  549MOL0     C75668   4.869   7.941   2.002 -0.7504 -0.2287 -0.2361
  549MOL0    Cl75669   4.929   7.906   2.159  0.0212 -0.3521 -0.0975
  549MOL0     C75670   4.425   8.161   1.296  0.5517 -0.5815  0.4802
  549MOL0     C75671   4.288   8.137   1.275  0.3142 -0.1342  0.1865
  549MOL0     O75672   4.010   8.180   1.344 -0.1435  0.0173  0.0990
  549MOL0     C75673   3.870   7.902   1.162  0.5596  0.2903 -0.2197
  549MOL0     C75674   3.753   7.824   1.129  0.6591 -0.3285  0.0186
  549MOL0     N75675   3.311   7.631   1.528  0.0416  0.4585 -0.2056
  549MOL0     N75676   3.205   7.615   1.599  0.0840  1.0103  0.1678
  549MOL0     C75677   3.172   7.947   0.793  0.8197 -0.1165 -0.0846
  549MOL0     C75678   3.269   8.048   0.804 -0.7004  0.4089  0.2987
  549MOL0     C75679   3.603   8.314   0.875 -0.1513 -1.3050 -1.5882
  549MOL0     C75680   3.670   8.316   0.997  1.0136 -0.3626 -0.3735
  549MOL0     C75681   3.798   8.361   1.016 -0.1359  0.8668 -0.8272
  549MOL0     C75682   3.868   8.415   0.908 -0.0856  0.0372 -0.1027
  549MOL0     O75683   4.001   8.450   0.909  0.2855 -0.0764 -0.0219
  549MOL0     C75684   4.063   8.482   1.033  0.2167  0.2838 -1.7612
  549MOL0     C75685   4.214   8.493   1.000 -0.8129  0.7431  0.3155
  549MOL0     C75686   4.301   8.532   1.121 -0.7181  0.4705  0.3067
  549MOL0     C75687   4.240   8.640   1.215 -0.1867 -0.0534 -0.4796
  549MOL0     C75688   4.208   8.759   1.143  0.1244 -0.1804 -0.0513
  549MOL0     C75689   4.179   8.865   1.099 -0.2454 -0.4323 -0.8837
  549MOL0     C75690   3.807   8.407   0.780 -0.8572 -0.5058 -0.6461
  549MOL0     C75691   3.675   8.366   0.760  0.0275  0.2543 -0.3977
  549MOL0     C75692   3.613   8.366   0.628  0.1303 -1.1364 -0.0367
  549MOL0     H75693   3.322   8.022   1.141 -0.9334  2.3889 -0.5696
  549MOL0     H75694   3.178   7.854   1.126  4.6034 -0.5641  0.8251
  549MOL0     H75695   3.157   7.641   1.035 -2.0625 -1.9502  2.0901
  549MOL0     H75696   3.071   7.561   0.916  0.1490 -0.0364 -2.0786
  549MOL0     H75697   2.964   7.741   1.136  0.1438  1.2255 -1.6769
  549MOL0     H75698   2.856   7.690   1.007 -0.0453 -0.5236 -0.1674
  549MOL0     H75699   2.900   7.450   1.068 -1.3102 -0.9136  1.2819
  549MOL0     H75700   3.014   7.505   1.187  0.6996 -0.2395 -1.3009
  549MOL0     H75701   2.843   7.607   1.320 -0.7804  1.1082 -0.6188
  549MOL0     H75702   2.718   7.548   1.205  0.3308  0.8566  0.4704
  549MOL0     H75703   2.820   7.308   1.238  0.2483  1.0777 -1.2300
  549MOL0     H75704   2.727   7.370   1.375  0.3177 -1.3702 -1.0662
  549MOL0     H75705   2.936   7.263   1.440 -3.3628 -0.0481  1.1962
  549MOL0     H75706   3.030   7.404   1.374  0.0427  0.9087 -1.4094
  549MOL0     H75707   2.843   7.418   1.598 -0.0029  0.9924  1.1470
  549MOL0     H75708   2.918   7.551   1.518  0.1694 -0.0577  0.0285
  549MOL0     H75709   3.028   7.458   1.728 -2.4002  0.1365  0.4693
  549MOL0     H75710   3.044   7.310   1.635 -1.2261  0.4648 -1.2425
  549MOL0     H75711   3.302   7.307   1.522 -0.2756 -0.5596  0.8224
  549MOL0     H75712   3.523   7.414   1.412 -0.4852  1.1673  2.1530
  549MOL0     H75713   3.540   7.593   1.424  0.1281  0.7329 -1.4405
  549MOL0     H75714   3.377   7.435   1.221 -1.7716  0.1133  1.7284
  549MOL0     H75715   3.330   7.598   1.246  0.4131  0.8661  1.8127
  549MOL0     H75716   3.623   7.562   1.207  0.1976 -0.5734  0.0918
  549MOL0     H75717   3.534   7.488   1.066  0.0845  0.4580  0.0770
  549MOL0     H75718   3.569   7.679   0.984  2.0895  1.1013  0.5207
  549MOL0     H75719   3.399   7.698   1.032 -0.1187 -3.5866 -0.0912
  549MOL0     H75720   3.523   8.018   1.283 -1.1517  0.7825 -2.5391
  549MOL0     H75721   3.672   8.282   1.346 -0.3723  0.3521  0.1311
  549MOL0     H75722   3.788   8.197   1.461 -0.6995 -0.7393  0.3997
  549MOL0     H75723   3.634   8.138   1.447  3.2076 -0.8027  2.5607
  549MOL0     H75724   4.259   7.816   1.365  0.3933  0.9171  2.0652
  549MOL0     H75725   4.520   7.849   1.384  0.3399  1.9425  1.4698
  549MOL0     H75726   4.724   8.207   1.232  1.0563  0.7500  0.1842
  549MOL0     H75727   4.687   8.260   1.400  2.7238  3.4019 -1.8632
  549MOL0     H75728   4.897   8.046   1.316  0.5145 -0.3531 -0.1500
  549MOL0     H75729   4.933   8.219   1.356 -1.1247  0.7739 -2.5644
  549MOL0     H75730   4.828   7.992   1.544 -2.8786  0.7698  1.3638
  549MOL0     H75731   4.811   8.166   1.573 -0.4998 -1.2249  0.2304
  549MOL0     H75732   5.043   8.190   1.577  0.8409  0.0699  1.2520
  549MOL0     H75733   5.062   8.026   1.508  1.8292  1.3430 -0.8156
  549MOL0     H75734   4.998   7.927   1.709 -1.9201 -0.0078 -2.7760
  549MOL0     H75735   5.119   8.052   1.750 -0.2091  1.6847 -1.1496
  549MOL0     H75736   4.810   8.073   1.779  0.5225 -0.7284 -0.1490
  549MOL0     H75737   4.916   8.209   1.804 -1.6328 -0.1573  0.7286
  549MOL0     H75738   4.884   8.145   2.025 -1.8693  0.5969 -1.9843
  549MOL0     H75739   5.041   8.077   1.993  0.3979  0.7388 -0.6688
  549MOL0     H75740   4.907   7.863   1.935 -2.4722 -0.2932 -1.1983
  549MOL0     H75741   4.761   7.952   1.990 -0.9230  0.1072  1.4164
  549MOL0     H75742   4.468   8.258   1.275  2.0830 -1.3483 -0.1173
  549MOL0     H75743   4.227   8.220   1.240  1.8555  0.9817  0.0447
  549MOL0     H75744   3.967   7.865   1.130  0.3557  0.1800 -0.7089
  549MOL0     H75745   3.761   7.723   1.089 -2.3385  0.1094 -2.0025
  549MOL0     H75746   3.140   7.913   0.695  0.8824  0.3207 -0.2608
  549MOL0     H75747   3.295   8.099   0.712 -0.3076  4.7133  2.5559
  549MOL0     H75748   3.615   8.270   1.078  0.1853 -1.3432 -1.4578
  549MOL0     H75749   3.849   8.327   1.106 -1.3588 -1.6074 -1.0049
  549MOL0     H75750   4.016   8.576   1.062 -1.3385 -1.0221  0.3008
  549MOL0     H75751   4.038   8.408   1.110 -2.5998 -0.7840 -3.5293
  549MOL0     H75752   4.247   8.560   0.920 -2.4471  1.2825  0.0590
  549MOL0     H75753   4.246   8.391   0.978  0.4445  1.1873 -0.0082
  549MOL0     H75754   4.335   8.446   1.180 -3.3331 -0.5446  0.4776
  549MOL0     H75755   4.398   8.555   1.078 -0.4388 -1.4141 -0.1427
  549MOL0     H75756   4.297   8.657   1.307  0.3048  2.2775 -1.1401
  549MOL0     H75757   4.142   8.607   1.251 -0.5176  1.2778 -0.0636
  549MOL0     H75758   4.143   8.958   1.063  2.0588  1.9125  2.2867
  549MOL0     H75759   3.865   8.446   0.697 -0.1361  0.7467  0.3970
  549MOL0     H75760   3.504   8.364   0.622  0.0578  1.7625 -0.9510
  549MOL0     H75761   3.631   8.468   0.594 -1.5377 -1.1357 -1.0132
  549MOL0     H75762   3.655   8.297   0.554 -2.3046 -1.3842 -1.2987
  550MOL0     O75763  11.482   8.772   7.834  0.7613  0.6954 -0.0145
  550MOL0     C75764  11.443   8.720   7.933  0.6291 -0.3192 -1.4020
  550MOL0     O75765  11.452   8.783   8.065  0.3431 -0.1403 -0.5801
  550MOL0     C75766  11.478   8.912   8.088 -1.1514  0.2926  0.5568
  550MOL0     C75767  11.416   8.971   8.201 -0.2562 -0.1160 -0.1092
  550MOL0     C75768  11.452   9.095   8.241 -0.3191 -1.2395  0.9285
  550MOL0     C75769  11.537   9.184   8.163 -0.5552 -0.5581 -0.3940
  550MOL0     O75770  11.541   9.313   8.219 -0.2830 -0.5237 -0.2552
  550MOL0     C75771  11.596   9.412   8.136 -0.2806  0.0417  0.2332
  550MOL0     C75772  11.523   9.554   8.159 -0.0839  0.2885  0.4216
  550MOL0     C75773  11.565   9.657   8.058 -0.4984 -0.6145  0.4202
  550MOL0     C75774  11.476   9.781   8.063  0.1223  0.0021 -0.5471
  550MOL0     C75775  11.542   9.908   8.141 -0.4216 -0.0799 -0.0808
  550MOL0     C75776  11.611   9.878   8.279 -0.4249  0.2824  0.9366
  550MOL0     C75777  11.626  10.001   8.365  0.5562 -0.5838 -0.1135
  550MOL0     C75778  11.490  10.087   8.398 -0.2470 -0.3048  0.5429
  550MOL0     N75779  11.524  10.197   8.479 -0.3206  0.0174  0.7128
  550MOL0     C75780  11.521  10.328   8.428  0.2403 -0.3586  0.2786
  550MOL0     C75781  11.550  10.408   8.531  0.1809  0.1783  0.0175
  550MOL0     C75782  11.577  10.558   8.539  0.4765 -0.2648  0.1653
  550MOL0     C75783  11.473  10.636   8.605 -0.0814  0.1602  0.8451
  550MOL0     C75784  11.364  10.698   8.514 -0.0357  0.2212  0.4765
  550MOL0     C75785  11.227  10.718   8.595  0.7041  0.2541  0.8687
  550MOL0     O75786  11.228  10.792   8.717 -0.6787 -0.1349  0.2689
  550MOL0     C75787  11.259  10.931   8.725 -0.3022  0.9417  0.7944
  550MOL0     C75788  11.230  11.013   8.618  0.0675 -1.1184  0.6254
  550MOL0     C75789  11.265  11.146   8.628  0.3029  1.0272 -0.8452
  550MOL0     C75790  11.207  11.228   8.523 -0.0078 -0.5261 -0.3134
  550MOL0     C75791  11.326  11.198   8.744 -0.5612 -0.4101  0.0139
  550MOL0     C75792  11.373  11.339   8.741 -0.8882  1.0120 -1.0488
  550MOL0     O75793  11.316  11.417   8.831 -0.1583 -0.0243 -0.2195
  550MOL0     C75794  11.349  11.545   8.852 -0.3137  0.2098  0.6319
  550MOL0     C75795  11.328  11.645   8.757  1.2414  0.2213 -0.7611
  550MOL0     C75796  11.368  11.776   8.794 -0.0440 -0.5934 -0.3098
  550MOL0     C75797  11.437  11.807   8.903  0.1054 -0.0497  0.2282
  550MOL0     O75798  11.473  11.937   8.920 -0.2304  0.3164 -0.2889
  550MOL0     C75799  11.364  12.035   8.906  0.2427  0.9297 -0.0924
  550MOL0     C75800  11.401  12.177   8.931 -0.3226 -1.3251 -0.3475
  550MOL0     C75801  11.321  12.269   8.844 -0.0532 -0.1299  0.2098
  550MOL0     C75802  11.371  12.410   8.866 -0.3160 -0.3506  0.1976
  550MOL0     C75803  11.322  12.504   8.755  0.7452  0.0245  0.3782
  550MOL0     C75804  11.330  12.661   8.776  0.8591 -0.2340  0.2951
  550MOL0     C75805  11.259  12.702   8.903  0.2820  0.4417  0.2898
  550MOL0     C75806  11.220  12.850   8.904 -0.0611 -0.2352  0.2128
  550MOL0    Cl75807  11.379  12.931   8.925 -0.3450 -0.8252 -0.2082
  550MOL0     C75808  11.470  11.695   8.985  0.6765  0.0834  0.2693
  550MOL0     C75809  11.411  11.569   8.970  0.1561 -1.0742 -0.2142
  550MOL0     O75810  11.461  11.376   8.660 -0.2546  0.3821 -0.7462
  550MOL0     C75811  11.341  11.119   8.856 -0.2088  0.2689  0.6997
  550MOL0     C75812  11.312  10.980   8.844  0.0249  0.4312  0.2167
  550MOL0     N75813  11.578  10.333   8.645 -0.2971 -0.1451 -0.0202
  550MOL0     N75814  11.561  10.209   8.607 -0.7361 -0.2355 -0.1214
  550MOL0     C75815  11.604   9.118   8.055 -0.4759 -0.9529  0.3419
  550MOL0     C75816  11.576   8.989   8.017  0.2664 -0.8551  0.2903
  550MOL0     C75817  11.400   8.575   7.933  0.4152 -0.7688 -0.5495
  550MOL0     C75818  11.279   8.531   7.993 -0.1336  0.6102 -0.3004
  550MOL0     C75819  11.244   8.401   8.004 -0.0472 -0.1183  0.1660
  550MOL0     C75820  11.332   8.300   7.953 -0.6601 -0.6347 -0.0539
  550MOL0     O75821  11.282   8.177   7.954  0.5096 -0.6920 -1.0134
  550MOL0     C75822  11.360   8.070   7.898  0.0867  0.6990  0.2540
  550MOL0     C75823  11.281   7.937   7.905  0.1651 -0.9146  0.2857
  550MOL0     C75824  11.358   7.813   7.908 -0.2512 -0.1402  0.1582
  550MOL0     C75825  11.294   7.694   7.996 -0.3027  0.2241 -0.4095
  550MOL0     C75826  11.377   7.574   8.014  0.5299  0.6305 -1.0572
  550MOL0     C75827  11.435   7.469   8.024 -0.2814 -0.1729 -0.7290
  550MOL0     C75828  11.454   8.343   7.897  0.0918 -0.1468  0.7756
  550MOL0     C75829  11.495   8.476   7.893  0.1789 -0.2848 -0.5203
  550MOL0     C75830  11.638   8.506   7.850 -0.2757  0.4920  0.0869
  550MOL0     H75831  11.335   8.932   8.264 -1.3835  3.2440  0.7260
  550MOL0     H75832  11.403   9.133   8.331 -0.9685 -4.3692  2.0058
  550MOL0     H75833  11.579   9.397   8.029 -2.2135  2.1678  0.1623
  550MOL0     H75834  11.704   9.418   8.153 -0.3173 -1.3974  1.1082
  550MOL0     H75835  11.417   9.533   8.145  0.3644 -1.7083 -0.2786
  550MOL0     H75836  11.526   9.581   8.265 -3.2127  0.5223  0.5399
  550MOL0     H75837  11.666   9.692   8.080 -1.5570  1.7828  1.9692
  550MOL0     H75838  11.558   9.608   7.961 -1.7208  2.0170 -0.9241
  550MOL0     H75839  11.473   9.814   7.959 -0.3209 -3.2307 -1.6470
  550MOL0     H75840  11.375   9.755   8.097 -1.0166  3.1431 -1.1971
  550MOL0     H75841  11.473   9.992   8.150 -1.0638 -0.6668  0.5698
  550MOL0     H75842  11.618   9.944   8.070  2.0873 -0.3358  2.3024
  550MOL0     H75843  11.538   9.810   8.324 -0.6278  1.1911  2.0381
  550MOL0     H75844  11.707   9.827   8.263 -0.3648  0.2467  1.4024
  550MOL0     H75845  11.697  10.073   8.322  0.5401 -0.4453  0.0906
  550MOL0     H75846  11.678   9.967   8.455  2.5886  0.4538 -0.8394
  550MOL0     H75847  11.444  10.128   8.308 -0.7069  0.6280  1.1931
  550MOL0     H75848  11.413  10.022   8.440 -0.7846 -0.8955 -1.2610
  550MOL0     H75849  11.504  10.369   8.329  0.7600  1.2987  0.8471
  550MOL0     H75850  11.583  10.594   8.436 -0.0620  1.1500  0.5925
  550MOL0     H75851  11.676  10.573   8.583 -0.1912  1.6352  1.1437
  550MOL0     H75852  11.422  10.581   8.685 -1.9031 -0.9379 -0.9632
  550MOL0     H75853  11.525  10.718   8.655  3.0303 -1.0103 -0.2497
  550MOL0     H75854  11.405  10.789   8.470 -1.4732  0.5363 -0.2588
  550MOL0     H75855  11.346  10.629   8.431 -0.5932  2.7071 -1.5902
  550MOL0     H75856  11.160  10.753   8.516  2.1099 -0.0005 -0.4948
  550MOL0     H75857  11.202  10.617   8.630 -0.6644  0.3245  0.1728
  550MOL0     H75858  11.184  10.989   8.522  1.0921  1.4750 -0.5923
  550MOL0     H75859  11.249  11.329   8.519 -0.9838 -0.0695  0.5633
  550MOL0     H75860  11.102  11.247   8.547 -0.0708 -0.0521 -0.9451
  550MOL0     H75861  11.210  11.175   8.428 -3.9655 -0.4586 -0.6398
  550MOL0     H75862  11.283  11.619   8.662  0.1054 -0.1257 -0.1443
  550MOL0     H75863  11.360  11.857   8.723 -1.3181  0.1676  0.6540
  550MOL0     H75864  11.316  12.029   8.808  0.9443  1.0670 -0.4501
  550MOL0     H75865  11.298  12.008   8.989  0.0679 -1.0131 -0.8095
  550MOL0     H75866  11.380  12.197   9.037 -3.0713 -2.5712 -0.5684
  550MOL0     H75867  11.510  12.180   8.925 -0.2997 -2.5698 -0.9260
  550MOL0     H75868  11.215  12.259   8.869 -0.3019  0.4621 -0.5576
  550MOL0     H75869  11.347  12.244   8.741  2.0904  1.3817  0.3188
  550MOL0     H75870  11.481  12.415   8.868 -0.3325  2.8619 -0.5807
  550MOL0     H75871  11.342  12.445   8.966 -6.2167  1.9007 -1.8815
  550MOL0     H75872  11.380  12.489   8.664  0.1404  0.0420 -0.0202
  550MOL0     H75873  11.220  12.473   8.729  1.0452  0.0841 -0.9236
  550MOL0     H75874  11.277  12.696   8.687  1.6304 -0.9483 -0.4748
  550MOL0     H75875  11.432  12.698   8.761  1.4587 -2.6527 -2.8908
  550MOL0     H75876  11.311  12.678   8.996 -0.9144  1.1446  1.1770
  550MOL0     H75877  11.170  12.639   8.906  0.6239 -0.0860 -0.4125
  550MOL0     H75878  11.139  12.879   8.971 -2.1567 -1.6545 -1.5434
  550MOL0     H75879  11.180  12.861   8.803  1.6883 -0.9955 -0.6165
  550MOL0     H75880  11.536  11.712   9.070  0.2212  0.1865  0.6030
  550MOL0     H75881  11.433  11.489   9.040 -1.0125 -1.7089 -0.5528
  550MOL0     H75882  11.382  11.141   8.954 -0.2370  0.1160  0.7462
  550MOL0     H75883  11.337  10.922   8.932 -0.1404  0.5727  0.3579
  550MOL0     H75884  11.674   9.179   8.000 -0.1144  1.2177  2.9763
  550MOL0     H75885  11.631   8.943   7.936 -1.4249 -2.2750 -0.1072
  550MOL0     H75886  11.217   8.613   8.027  2.0312  0.9715  3.4433
  550MOL0     H75887  11.141   8.381   8.034 -0.0755  0.1892  0.2855
  550MOL0     H75888  11.397   8.093   7.799  2.4686  0.2027  0.9776
  550MOL0     H75889  11.446   8.062   7.964 -1.8488 -0.2084  2.8630
  550MOL0     H75890  11.220   7.934   7.813  1.2499 -0.8015 -0.4506
  550MOL0     H75891  11.214   7.936   7.992 -1.2118  3.3751 -0.4762
  550MOL0     H75892  11.368   7.789   7.802  0.3353  0.3070  0.1094
  550MOL0     H75893  11.459   7.830   7.947  0.5657 -0.9352 -1.5096
  550MOL0     H75894  11.199   7.664   7.949 -0.6359  1.0752 -0.3060
  550MOL0     H75895  11.267   7.741   8.091  0.0834  0.9766 -0.6620
  550MOL0     H75896  11.494   7.380   8.033 -2.8468 -2.0379 -1.4287
  550MOL0     H75897  11.518   8.278   7.839 -0.2789  0.9854 -0.9809
  550MOL0     H75898  11.659   8.613   7.840 -0.1309  0.3559 -1.2690
  550MOL0     H75899  11.709   8.464   7.923  0.7288  0.6582 -0.7630
  550MOL0     H75900  11.655   8.464   7.750  0.8446 -0.9804  0.8502
  551MOL0     O75901   3.252   5.363  10.211  0.1424  0.0129  0.1961
  551MOL0     C75902   3.187   5.411  10.301  0.2898  1.1882 -0.3403
  551MOL0     O75903   3.175   5.545  10.324 -0.4163 -0.0994  0.2870
  551MOL0     C75904   3.243   5.644  10.257 -1.2813  0.1660 -0.6063
  551MOL0     C75905   3.190   5.768  10.273  0.3827 -0.5297 -0.7040
  551MOL0     C75906   3.238   5.885  10.195 -0.2364  0.3477  0.0926
  551MOL0     C75907   3.346   5.871  10.109  0.0074  0.9890  0.3411
  551MOL0     O75908   3.379   5.984  10.035 -0.2529 -0.2634  0.2424
  551MOL0     C75909   3.409   5.978   9.897  0.5428  0.8700 -0.6519
  551MOL0     C75910   3.453   6.120   9.865  0.9480  0.5952  0.3319
  551MOL0     C75911   3.590   6.159   9.916  0.7344  0.3894 -0.6187
  551MOL0     C75912   3.702   6.110   9.830  0.1695  0.1109 -0.0950
  551MOL0     C75913   3.834   6.189   9.852  0.0656  0.4299 -0.2480
  551MOL0     C75914   3.853   6.342   9.826  0.6235 -0.7218 -0.1958
  551MOL0     C75915   3.804   6.383   9.681 -0.3617 -0.0967 -1.0322
  551MOL0     C75916   3.877   6.296   9.584  0.3067  0.2568  0.5819
  551MOL0     N75917   3.847   6.334   9.445  0.1969  0.1148  0.1331
  551MOL0     C75918   3.874   6.456   9.385 -0.1570  0.4116 -0.2153
  551MOL0     C75919   3.827   6.441   9.263 -0.8078 -0.4105  0.2062
  551MOL0     C75920   3.827   6.535   9.145 -0.5865  0.2912  0.2869
  551MOL0     C75921   3.916   6.472   9.028  0.8256 -0.2578  0.7903
  551MOL0     C75922   4.057   6.447   9.062 -0.6137 -0.8154 -0.1542
  551MOL0     C75923   4.127   6.377   8.947  0.3939 -0.5366 -0.6566
  551MOL0     O75924   4.269   6.376   8.961  0.6450  0.1463  0.4759
  551MOL0     C75925   4.333   6.291   8.876  0.4090  0.4828  0.1397
  551MOL0     C75926   4.316   6.278   8.740  0.2351 -0.0256 -1.0604
  551MOL0     C75927   4.379   6.179   8.672 -0.0331 -0.2002 -0.1494
  551MOL0     C75928   4.353   6.174   8.522 -0.0430  0.5383 -0.1891
  551MOL0     C75929   4.464   6.084   8.747 -0.5688  0.0414  0.6367
  551MOL0     C75930   4.542   5.979   8.677  1.0423  0.0290 -0.1097
  551MOL0     O75931   4.655   5.950   8.742 -0.3478  0.1973  0.0260
  551MOL0     C75932   4.688   5.818   8.750  0.2866 -0.2029  1.1724
  551MOL0     C75933   4.616   5.714   8.699 -0.2209 -0.0742 -0.2673
  551MOL0     C75934   4.658   5.590   8.736  0.6143 -0.5402 -0.3978
  551MOL0     C75935   4.786   5.567   8.801  1.3211 -0.5308 -0.3676
  551MOL0     O75936   4.834   5.442   8.840  0.4842 -0.2896  0.3598
  551MOL0     C75937   4.748   5.321   8.822 -0.1834 -0.2999  0.7660
  551MOL0     C75938   4.793   5.247   8.690  0.3141 -0.1503  0.3766
  551MOL0     C75939   4.707   5.118   8.665 -0.2732 -0.4597  0.0506
  551MOL0     C75940   4.675   5.101   8.517  0.1341  0.5800 -1.1645
  551MOL0     C75941   4.579   4.986   8.483 -0.1658  0.0098 -0.0359
  551MOL0     C75942   4.535   4.997   8.341 -0.1322  0.0321  0.6250
  551MOL0     C75943   4.445   4.877   8.298 -0.1603  0.5888  0.2319
  551MOL0     C75944   4.414   4.882   8.149  0.0880 -0.5573 -0.4785
  551MOL0    Cl75945   4.528   4.793   8.048 -0.3760 -0.1656 -0.1840
  551MOL0     C75946   4.856   5.681   8.846  0.3989 -0.0254  0.2322
  551MOL0     C75947   4.800   5.806   8.827 -0.2227 -0.1235  0.1208
  551MOL0     O75948   4.520   5.935   8.560  0.0376  0.2884 -0.4088
  551MOL0     C75949   4.473   6.105   8.888 -0.1287 -0.4914 -0.6837
  551MOL0     C75950   4.412   6.206   8.952 -0.1125 -0.3220  0.3420
  551MOL0     N75951   3.774   6.318   9.240 -0.4286  0.0349  0.4864
  551MOL0     N75952   3.801   6.249   9.347  0.0484  0.3610  0.1603
  551MOL0     C75953   3.396   5.745  10.096  0.3611  0.5223  0.4547
  551MOL0     C75954   3.343   5.636  10.165 -0.6349  0.0586  0.0875
  551MOL0     C75955   3.120   5.314  10.389 -0.1596 -0.0956 -0.3973
  551MOL0     C75956   3.164   5.174  10.386 -0.2910  0.2313  0.5184
  551MOL0     C75957   3.094   5.075  10.457  0.9028  0.5797  0.1775
  551MOL0     C75958   2.981   5.104  10.529  0.4112 -0.0780 -0.0596
  551MOL0     O75959   2.915   5.004  10.583  0.4218  0.3297 -0.2431
  551MOL0     C75960   2.814   4.964  10.499  0.2902  0.1265 -0.1114
  551MOL0     C75961   2.753   4.841  10.564  1.3188  0.6705  0.0664
  551MOL0     C75962   2.610   4.804  10.508 -0.1177  0.4324  0.6892
  551MOL0     C75963   2.612   4.653  10.468 -1.6486  0.6500  0.5598
  551MOL0     C75964   2.478   4.621  10.413 -0.1509 -0.1857  0.1193
  551MOL0     C75965   2.370   4.609  10.360  0.3443  0.2384  0.6612
  551MOL0     C75966   2.943   5.238  10.543  0.3614 -0.4028  0.3300
  551MOL0     C75967   3.014   5.343  10.478  0.6081  0.4058  0.2055
  551MOL0     C75968   2.978   5.480  10.523 -0.5226  1.3032 -0.2945
  551MOL0     H75969   3.103   5.788  10.334  1.2617 -2.0220  1.1218
  551MOL0     H75970   3.175   5.974  10.201 -0.5018  0.1913 -0.3130
  551MOL0     H75971   3.317   5.950   9.844  1.5866  0.4445 -2.3358
  551MOL0     H75972   3.487   5.906   9.871  0.2916  0.0934  0.6939
  551MOL0     H75973   3.445   6.113   9.756  1.5009 -2.5086  0.4025
  551MOL0     H75974   3.384   6.194   9.907  3.0552  0.0303  5.5785
  551MOL0     H75975   3.595   6.267   9.900 -0.3488  0.9402  2.2378
  551MOL0     H75976   3.607   6.122  10.017 -0.9864  0.8887 -0.1146
  551MOL0     H75977   3.722   6.008   9.862 -2.7910 -1.4400 -2.6403
  551MOL0     H75978   3.679   6.111   9.723  0.2713  1.3209 -0.1216
  551MOL0     H75979   3.909   6.138   9.791 -0.3564  2.1191 -2.2880
  551MOL0     H75980   3.853   6.174   9.959 -5.1251 -1.8046  0.6535
  551MOL0     H75981   3.795   6.394   9.901 -1.3514 -0.9766 -1.4809
  551MOL0     H75982   3.957   6.371   9.845 -0.2963  1.8920  1.2573
  551MOL0     H75983   3.835   6.485   9.655  1.8001 -0.5339 -0.3466
  551MOL0     H75984   3.697   6.376   9.660 -0.1908  0.3067 -2.1378
  551MOL0     H75985   3.983   6.313   9.607  0.1263  2.4990  0.0473
  551MOL0     H75986   3.874   6.188   9.598  4.9100 -0.4332 -1.8383
  551MOL0     H75987   3.919   6.547   9.422 -1.1815  1.1807 -0.8081
  551MOL0     H75988   3.879   6.625   9.180 -0.5648  0.4651 -0.1874
  551MOL0     H75989   3.727   6.568   9.113 -0.1128  2.0454  0.4864
  551MOL0     H75990   3.872   6.374   9.006 -0.0526  0.6086 -1.5621
  551MOL0     H75991   3.915   6.533   8.937  3.0986 -2.1687 -0.6371
  551MOL0     H75992   4.114   6.539   9.074 -0.3546 -0.8037 -1.2770
  551MOL0     H75993   4.068   6.381   9.148 -0.8502  3.1630  3.1886
  551MOL0     H75994   4.076   6.281   8.940  2.3775 -1.5419 -2.5594
  551MOL0     H75995   4.107   6.419   8.848 -1.7072 -0.1689 -0.1160
  551MOL0     H75996   4.255   6.352   8.689 -1.9175 -1.1495 -0.2343
  551MOL0     H75997   4.247   6.202   8.514  0.0951  1.7063  1.5097
  551MOL0     H75998   4.365   6.079   8.469  0.0076 -0.0960  0.9302
  551MOL0     H75999   4.414   6.253   8.477 -1.0272  1.8689  0.7385
  551MOL0     H76000   4.530   5.720   8.633  2.0033 -2.4546 -3.6956
  551MOL0     H76001   4.587   5.517   8.700  0.4779 -0.2420 -0.7458
  551MOL0     H76002   4.755   5.247   8.903 -0.8755  0.1754  1.2711
  551MOL0     H76003   4.642   5.344   8.828 -0.1012 -0.0845  1.6797
  551MOL0     H76004   4.782   5.319   8.609 -4.1532 -0.5193  0.4580
  551MOL0     H76005   4.896   5.209   8.683 -0.1408 -1.0825 -2.0841
  551MOL0     H76006   4.620   5.136   8.729  1.8752  0.9970  2.7811
  551MOL0     H76007   4.747   5.026   8.708  1.5560  0.5395  0.5959
  551MOL0     H76008   4.775   5.088   8.473 -0.3719 -2.0602 -1.7237
  551MOL0     H76009   4.638   5.198   8.483 -1.9639  1.2903  2.6722
  551MOL0     H76010   4.632   4.892   8.504  0.5514  0.1886 -0.9964
  551MOL0     H76011   4.502   4.995   8.560  1.1541 -0.2764  1.3789
  551MOL0     H76012   4.619   4.987   8.271 -0.1877  1.1624  0.3742
  551MOL0     H76013   4.490   5.092   8.310  0.4292 -0.6128 -2.4681
  551MOL0     H76014   4.354   4.884   8.358 -0.5355 -0.3996 -0.2015
  551MOL0     H76015   4.490   4.782   8.327 -1.7677 -0.2896 -0.0562
  551MOL0     H76016   4.406   4.984   8.112 -0.1664 -0.6127 -0.5750
  551MOL0     H76017   4.316   4.835   8.137 -0.0489  0.0289 -1.9603
  551MOL0     H76018   4.943   5.652   8.903  0.5524 -2.0018 -0.9282
  551MOL0     H76019   4.848   5.894   8.869  1.2691 -0.4777 -0.7717
  551MOL0     H76020   4.538   6.044   8.950  3.0105  3.1747  0.0445
  551MOL0     H76021   4.423   6.229   9.058  0.9848 -0.7504  0.3249
  551MOL0     H76022   3.483   5.730  10.032 -1.8056 -1.6157 -2.1839
  551MOL0     H76023   3.408   5.550  10.152  1.4259  1.8673 -2.5376
  551MOL0     H76024   3.252   5.140  10.333  1.9432  0.8149  3.6065
  551MOL0     H76025   3.130   4.974  10.473  0.5316  0.8595  3.4087
  551MOL0     H76026   2.740   5.044  10.486 -1.2127 -0.7824  2.3680
  551MOL0     H76027   2.842   4.927  10.400  0.8137 -3.0689  1.1244
  551MOL0     H76028   2.740   4.854  10.672  2.1487 -0.1134  0.2667
  551MOL0     H76029   2.828   4.763  10.549  0.4061 -0.0995 -0.6820
  551MOL0     H76030   2.539   4.813  10.591 -1.0682 -0.3394 -0.0062
  551MOL0     H76031   2.580   4.869  10.425  0.1397 -1.3327 -0.8632
  551MOL0     H76032   2.652   4.600  10.555  1.6192  3.3374  0.9211
  551MOL0     H76033   2.682   4.627  10.387 -0.0174 -1.7529  2.5856
  551MOL0     H76034   2.269   4.595  10.329  0.6692 -0.4286 -0.1311
  551MOL0     H76035   2.877   5.265  10.625  2.1941 -0.2863  1.8573
  551MOL0     H76036   3.077   5.519  10.549 -0.1887  0.1657  0.1894
  551MOL0     H76037   2.933   5.526  10.435 -0.5691  0.9389 -0.4639
  551MOL0     H76038   2.918   5.492  10.614 -1.8003  1.6252 -1.1460
  552MOL0     O76039   8.374   4.970   6.475 -0.0407  0.7200 -0.0885
  552MOL0     C76040   8.371   5.074   6.539  0.0609 -0.9175 -0.1783
  552MOL0     O76041   8.408   5.200   6.484 -0.5181 -0.3011  1.2281
  552MOL0     C76042   8.471   5.208   6.353 -0.7768 -0.7981 -0.0918
  552MOL0     C76043   8.586   5.292   6.321 -0.5936  0.6379 -0.2719
  552MOL0     C76044   8.630   5.298   6.193  0.1097 -0.5974  0.8442
  552MOL0     C76045   8.557   5.225   6.088  0.2341 -0.3110  0.0945
  552MOL0     O76046   8.591   5.220   5.956  0.5577  0.1598 -0.0628
  552MOL0     C76047   8.664   5.329   5.887  0.0047  0.4075 -0.5310
  552MOL0     C76048   8.803   5.277   5.847 -0.7747  0.4985  0.0588
  552MOL0     C76049   8.900   5.266   5.957 -0.2083  0.7881 -0.5337
  552MOL0     C76050   9.048   5.260   5.917 -0.5877  0.0619 -0.4449
  552MOL0     C76051   9.142   5.249   6.041  0.5269  0.5572 -0.1560
  552MOL0     C76052   9.291   5.277   5.989  0.7764  0.5970 -0.4843
  552MOL0     C76053   9.388   5.237   6.099 -0.1134 -0.6569  0.6090
  552MOL0     C76054   9.372   5.325   6.224 -0.0482 -0.1975 -0.7335
  552MOL0     N76055   9.487   5.300   6.306 -0.7911 -0.3122 -0.1626
  552MOL0     C76056   9.504   5.181   6.373 -0.4302  0.6621 -0.3484
  552MOL0     C76057   9.624   5.197   6.445  1.5593  0.2751 -0.1406
  552MOL0     C76058   9.661   5.104   6.556  0.4962  0.4015 -0.3384
  552MOL0     C76059   9.549   5.013   6.604  0.3695  0.0903  0.4706
  552MOL0     C76060   9.581   4.947   6.741 -0.0408  0.4296  0.6091
  552MOL0     C76061   9.493   4.822   6.782  0.0590  0.9640  0.5275
  552MOL0     O76062   9.352   4.864   6.795  0.7967 -0.3266  0.5970
  552MOL0     C76063   9.314   4.947   6.902 -0.4224  1.0651  0.0856
  552MOL0     C76064   9.182   4.996   6.887  0.6843  1.4151  0.5684
  552MOL0     C76065   9.114   5.053   6.987 -0.8498 -2.0628  0.2653
  552MOL0     C76066   8.984   5.109   6.943  0.3748  0.8308  0.6595
  552MOL0     C76067   9.178   5.091   7.112 -0.0409 -0.0039  0.9024
  552MOL0     C76068   9.123   5.168   7.231 -0.3738 -0.0671  0.1829
  552MOL0     O76069   9.005   5.228   7.217 -0.0035 -0.1257 -0.6009
  552MOL0     C76070   8.950   5.310   7.313 -0.0903 -0.7539 -0.1387
  552MOL0     C76071   8.896   5.427   7.270  0.0645 -1.2609  0.8474
  552MOL0     C76072   8.828   5.518   7.362 -0.5456 -0.1960  0.1228
  552MOL0     C76073   8.835   5.493   7.504  0.8299 -0.5695 -0.0325
  552MOL0     O76074   8.765   5.562   7.600 -0.7036 -0.4760 -1.3409
  552MOL0     C76075   8.740   5.702   7.581 -0.2131  0.1447  0.5190
  552MOL0     C76076   8.618   5.749   7.671  0.7300 -0.0548  0.9475
  552MOL0     C76077   8.640   5.723   7.818 -0.2640  0.3033  0.2733
  552MOL0     C76078   8.591   5.830   7.909  0.1689  0.0013 -0.1651
  552MOL0     C76079   8.586   5.788   8.058  0.2844 -0.3805 -0.6952
  552MOL0     C76080   8.724   5.782   8.130 -0.5813  0.2157 -0.9980
  552MOL0     C76081   8.726   5.693   8.256  0.6516  0.7632 -0.1377
  552MOL0     C76082   8.865   5.663   8.311 -0.2552  0.4369 -0.2079
  552MOL0    Cl76083   8.925   5.528   8.229  0.0327  0.4935  0.2138
  552MOL0     C76084   8.892   5.373   7.546  0.4236 -0.0595 -0.3044
  552MOL0     C76085   8.939   5.282   7.450 -0.4412 -0.3164  0.5791
  552MOL0     O76086   9.196   5.177   7.326  0.1413 -0.1673 -0.0783
  552MOL0     C76087   9.316   5.045   7.118 -0.7031  0.4016  0.2197
  552MOL0     C76088   9.375   4.978   7.018  0.1968  0.8817  0.0817
  552MOL0     N76089   9.676   5.323   6.406 -0.5636 -0.4113  0.0013
  552MOL0     N76090   9.598   5.384   6.327  0.0338  0.0797  0.4208
  552MOL0     C76091   8.456   5.151   6.117  0.6925 -0.0607 -0.3494
  552MOL0     C76092   8.420   5.142   6.247 -0.9079  1.1517 -0.1078
  552MOL0     C76093   8.328   5.064   6.686  0.8926 -0.3656  0.5390
  552MOL0     C76094   8.351   5.175   6.769  0.0621 -0.4782 -0.9060
  552MOL0     C76095   8.316   5.157   6.904 -0.0957  1.1704 -0.7623
  552MOL0     C76096   8.255   5.042   6.952 -0.3007  0.9124  0.5260
  552MOL0     O76097   8.215   5.044   7.079  0.8190 -0.7840 -0.4569
  552MOL0     C76098   8.129   4.951   7.128  0.1128  1.1655  0.3270
  552MOL0     C76099   8.112   4.945   7.281 -0.7812 -1.5778 -0.2910
  552MOL0     C76100   7.991   4.849   7.320 -0.5154 -0.4663 -0.6673
  552MOL0     C76101   8.021   4.776   7.449 -0.4981  0.3060 -0.1287
  552MOL0     C76102   7.914   4.701   7.521 -0.9187 -0.8272 -0.2797
  552MOL0     C76103   7.837   4.653   7.596  0.0123 -0.0942 -0.5368
  552MOL0     C76104   8.227   4.935   6.869  0.3742  0.3272 -0.4117
  552MOL0     C76105   8.267   4.944   6.739  0.1049  0.7338 -0.3989
  552MOL0     C76106   8.209   4.826   6.655  0.0131 -0.4527  1.1556
  552MOL0     H76107   8.645   5.336   6.401  6.0607 -2.5112 -2.7288
  552MOL0     H76108   8.712   5.369   6.189 -0.5838  0.3027  1.8851
  552MOL0     H76109   8.668   5.422   5.944  1.4219 -0.4347  0.8060
  552MOL0     H76110   8.606   5.362   5.800 -1.3005 -1.3166 -0.3712
  552MOL0     H76111   8.802   5.178   5.800  2.1970  0.6282 -0.5044
  552MOL0     H76112   8.838   5.356   5.779 -0.2413  1.1478  1.0581
  552MOL0     H76113   8.899   5.354   6.021 -0.1491  0.5472 -0.1969
  552MOL0     H76114   8.885   5.184   6.028  2.9054 -0.0802 -0.7148
  552MOL0     H76115   9.070   5.189   5.836 -2.0757 -1.4062  0.3773
  552MOL0     H76116   9.070   5.359   5.876  0.2837  0.3240  0.6132
  552MOL0     H76117   9.128   5.146   6.075  3.3396 -0.0670 -0.5757
  552MOL0     H76118   9.107   5.313   6.122  0.1259  1.1199 -0.7652
  552MOL0     H76119   9.307   5.208   5.906 -0.2585 -2.8384  1.8993
  552MOL0     H76120   9.309   5.379   5.953 -1.9330  0.4810 -2.5044
  552MOL0     H76121   9.495   5.234   6.079 -0.0989  2.4689 -0.3363
  552MOL0     H76122   9.362   5.134   6.125 -2.3616 -0.3690 -0.2514
  552MOL0     H76123   9.372   5.433   6.202 -2.9990  0.1001  0.2930
  552MOL0     H76124   9.285   5.292   6.282  0.3316 -1.1136 -0.6672
  552MOL0     H76125   9.445   5.090   6.372 -0.3854  0.6347 -0.8137
  552MOL0     H76126   9.707   5.157   6.640  1.4787  0.1782 -0.7182
  552MOL0     H76127   9.735   5.034   6.516 -2.4150 -0.7973 -4.2368
  552MOL0     H76128   9.461   5.078   6.607 -0.4575 -0.9826  0.1706
  552MOL0     H76129   9.525   4.947   6.520 -0.9979  2.0367 -0.7757
  552MOL0     H76130   9.686   4.918   6.746  0.2973  1.8680  2.9021
  552MOL0     H76131   9.578   5.023   6.819 -1.1111 -2.1958  3.3206
  552MOL0     H76132   9.507   4.747   6.703 -1.8285  0.8430  0.2703
  552MOL0     H76133   9.531   4.779   6.875 -0.1778 -0.5095 -0.0329
  552MOL0     H76134   9.128   4.977   6.795 -0.6094 -1.5535  1.8128
  552MOL0     H76135   8.912   5.071   7.016  0.5831  0.3330  0.6170
  552MOL0     H76136   8.969   5.084   6.838  2.1886  1.3241  0.2396
  552MOL0     H76137   8.994   5.217   6.941 -0.0769  0.8660 -0.0086
  552MOL0     H76138   8.877   5.445   7.165  1.0499  1.1426  1.0011
  552MOL0     H76139   8.775   5.608   7.331 -0.1204 -0.5217 -1.6799
  552MOL0     H76140   8.831   5.761   7.598 -0.6480  0.7598  0.7519
  552MOL0     H76141   8.710   5.727   7.478  0.2078  2.5712  0.9299
  552MOL0     H76142   8.615   5.854   7.642  0.2324 -0.6152 -1.1847
  552MOL0     H76143   8.519   5.714   7.642  0.0298  0.7052  2.3325
  552MOL0     H76144   8.747   5.709   7.833  0.3129  2.7954 -1.0342
  552MOL0     H76145   8.594   5.629   7.853  0.0756  1.0196  2.9062
  552MOL0     H76146   8.491   5.867   7.886  1.0777  1.4855 -1.9442
  552MOL0     H76147   8.664   5.911   7.901 -0.2322  0.4571  0.7526
  552MOL0     H76148   8.523   5.848   8.124 -2.6851 -1.6993 -2.1421
  552MOL0     H76149   8.529   5.695   8.063 -3.1709  1.5634 -0.9436
  552MOL0     H76150   8.744   5.884   8.166 -0.3514 -0.3294  0.4874
  552MOL0     H76151   8.795   5.754   8.052 -0.3848 -1.7097 -0.1903
  552MOL0     H76152   8.675   5.598   8.236 -0.4860  1.1240  0.9225
  552MOL0     H76153   8.679   5.747   8.339 -0.1712 -0.1628  0.0222
  552MOL0     H76154   8.851   5.646   8.418 -1.8077  0.3694 -0.4078
  552MOL0     H76155   8.937   5.744   8.292 -0.0631  0.3713  0.2276
  552MOL0     H76156   8.896   5.346   7.651  1.2102  0.8048 -0.1053
  552MOL0     H76157   8.982   5.189   7.485  1.8636 -0.5692 -2.4364
  552MOL0     H76158   9.379   5.073   7.202 -0.9141  0.4325  0.3683
  552MOL0     H76159   9.479   4.950   7.035  0.2706  2.3830  2.4726
  552MOL0     H76160   8.402   5.093   6.043  2.1675  0.5916 -2.0037
  552MOL0     H76161   8.345   5.067   6.271  1.2538 -0.4369  2.1826
  552MOL0     H76162   8.403   5.263   6.731 -0.3868 -0.2270 -0.9456
  552MOL0     H76163   8.321   5.238   6.976  0.3113 -0.5587  1.2696
  552MOL0     H76164   8.038   4.943   7.067 -0.4870  0.6903  1.2568
  552MOL0     H76165   8.175   4.853   7.109 -0.6024  1.2252 -2.0293
  552MOL0     H76166   8.116   5.044   7.328  1.3205 -1.4017 -0.7331
  552MOL0     H76167   8.203   4.896   7.317  0.4472  0.0504 -1.0346
  552MOL0     H76168   7.894   4.899   7.320 -2.0535 -3.0261 -3.7277
  552MOL0     H76169   7.965   4.771   7.248 -1.1510 -2.0965  1.2448
  552MOL0     H76170   8.063   4.843   7.525 -2.1531 -1.2991  2.3507
  552MOL0     H76171   8.099   4.704   7.422 -0.0075  0.0873  1.6946
  552MOL0     H76172   7.776   4.611   7.673 -0.8866  1.5057 -0.3231
  552MOL0     H76173   8.183   4.842   6.904 -3.0537  0.2555 -4.1887
  552MOL0     H76174   8.131   4.777   6.714 -1.3838 -0.1408 -0.3686
  552MOL0     H76175   8.157   4.866   6.567 -0.0948  0.4133  1.6037
  552MOL0     H76176   8.288   4.754   6.633  2.2113  2.1947 -0.3090
  553MOL0     O76177  11.435   1.510   3.053 -0.3424  0.2293  0.0582
  553MOL0     C76178  11.323   1.551   3.015  0.4568  0.5959  0.6710
  553MOL0     O76179  11.224   1.595   3.098 -0.3335 -0.2026  0.6149
  553MOL0     C76180  11.247   1.610   3.232 -0.2938 -0.0440 -0.5911
  553MOL0     C76181  11.242   1.743   3.288 -0.2754 -0.0061 -0.1505
  553MOL0     C76182  11.266   1.777   3.431 -0.2268 -0.2625  0.0630
  553MOL0     C76183  11.291   1.673   3.516  0.0461  0.1325 -0.3355
  553MOL0     O76184  11.325   1.695   3.652 -0.5697  0.1241  0.2583
  553MOL0     C76185  11.259   1.797   3.724  0.0483  0.4479 -0.6599
  553MOL0     C76186  11.167   1.734   3.823 -0.3307 -0.3444  0.3277
  553MOL0     C76187  11.233   1.679   3.948 -0.5247  1.4113 -0.6262
  553MOL0     C76188  11.320   1.777   4.046  0.5783 -0.8724 -0.3515
  553MOL0     C76189  11.221   1.868   4.117 -0.0105 -0.3842  0.4637
  553MOL0     C76190  11.284   1.943   4.234 -0.5740 -0.8170  0.1876
  553MOL0     C76191  11.201   2.045   4.308 -0.0493 -1.8813  1.0111
  553MOL0     C76192  11.274   2.136   4.402 -0.1784 -0.4164 -0.3582
  553MOL0     N76193  11.365   2.224   4.333 -0.0711 -0.3274  0.0534
  553MOL0     C76194  11.345   2.353   4.294  0.1514 -0.4844 -0.3841
  553MOL0     C76195  11.471   2.401   4.256  0.8346 -1.3031  0.0059
  553MOL0     C76196  11.499   2.540   4.205 -0.4699 -0.0169  0.4908
  553MOL0     C76197  11.541   2.534   4.068  0.4595 -0.7296  0.3835
  553MOL0     C76198  11.676   2.478   4.033 -0.9290  0.5361  0.2667
  553MOL0     C76199  11.738   2.548   3.910  0.2534 -0.1060 -0.3792
  553MOL0     O76200  11.674   2.511   3.783  0.6261 -0.1763  0.4696
  553MOL0     C76201  11.742   2.568   3.683  0.0558 -0.3251  0.1523
  553MOL0     C76202  11.723   2.698   3.644  0.4403 -0.0682 -1.8462
  553MOL0     C76203  11.780   2.757   3.528 -0.1684  0.3260 -0.0135
  553MOL0     C76204  11.736   2.889   3.497  0.1367  0.6229 -0.3183
  553MOL0     C76205  11.873   2.671   3.454 -0.4614 -0.9898 -0.0439
  553MOL0     C76206  11.937   2.717   3.325 -1.0099 -0.0602  0.1192
  553MOL0     O76207  11.853   2.759   3.225 -0.6533 -0.2327  0.0539
  553MOL0     C76208  11.897   2.802   3.105 -0.3975 -0.4729 -0.4643
  553MOL0     C76209  12.012   2.762   3.039  0.1668 -0.1568 -0.0392
  553MOL0     C76210  12.047   2.818   2.920 -0.4150  0.4273  0.4955
  553MOL0     C76211  11.969   2.911   2.866 -0.9823 -0.5192 -0.6599
  553MOL0     O76212  11.989   2.955   2.736 -0.2706  0.7039 -0.8213
  553MOL0     C76213  11.877   2.970   2.655  0.7900  0.0737  0.7823
  553MOL0     C76214  11.923   2.967   2.509  1.1838 -0.3010  0.6839
  553MOL0     C76215  11.972   2.832   2.453 -0.0244 -0.1065  0.1062
  553MOL0     C76216  12.014   2.835   2.302 -0.3397 -0.1861 -0.0900
  553MOL0     C76217  12.049   2.705   2.238 -0.5810  0.6013  0.0167
  553MOL0     C76218  12.156   2.627   2.318 -0.5945  0.3177  0.1446
  553MOL0     C76219  12.182   2.490   2.254 -1.2291  0.5923 -0.6829
  553MOL0     C76220  12.240   2.494   2.115  0.7974  0.4247  0.0162
  553MOL0    Cl76221  12.386   2.596   2.118  0.0797 -0.6552 -0.8644
  553MOL0     C76222  11.858   2.964   2.933 -0.7670 -0.3059  0.1419
  553MOL0     C76223  11.826   2.910   3.055 -0.0716  0.5002  0.4853
  553MOL0     O76224  12.061   2.730   3.329 -0.2168  0.2773  0.3050
  553MOL0     C76225  11.891   2.543   3.503 -0.4787 -0.9196  0.8902
  553MOL0     C76226  11.834   2.496   3.617 -0.7667  0.1280  0.0479
  553MOL0     N76227  11.565   2.302   4.275 -0.0058 -0.8411 -0.9388
  553MOL0     N76228  11.500   2.203   4.319  0.7194  0.0682 -0.2932
  553MOL0     C76229  11.283   1.537   3.462 -0.2975 -0.7007 -0.9063
  553MOL0     C76230  11.257   1.510   3.326 -0.5006 -0.2568 -0.2728
  553MOL0     C76231  11.277   1.526   2.875  0.0077 -0.1567 -0.3951
  553MOL0     C76232  11.160   1.458   2.849 -0.1966 -0.5264 -0.2599
  553MOL0     C76233  11.116   1.433   2.717  0.1354 -0.8713 -0.6388
  553MOL0     C76234  11.178   1.489   2.610 -0.4505  0.8786 -0.1665
  553MOL0     O76235  11.146   1.473   2.481 -0.3495  0.2101  0.9877
  553MOL0     C76236  11.011   1.411   2.446  0.4129 -1.2181 -0.9696
  553MOL0     C76237  10.972   1.446   2.308 -0.6234 -0.3732  0.5786
  553MOL0     C76238  11.052   1.368   2.199  0.2151  0.0194 -0.1759
  553MOL0     C76239  11.059   1.455   2.070  0.5277 -0.2768  0.1171
  553MOL0     C76240  11.140   1.396   1.971  0.7033 -0.5535  0.6027
  553MOL0     C76241  11.221   1.377   1.879  0.4270  0.2864  0.6531
  553MOL0     C76242  11.294   1.559   2.641 -0.5971  0.1947 -0.9207
  553MOL0     C76243  11.346   1.575   2.771 -0.0007 -0.9764  0.0817
  553MOL0     C76244  11.468   1.657   2.788 -0.1315 -1.1134 -0.2592
  553MOL0     H76245  11.216   1.826   3.223  0.8480  0.3399 -0.1797
  553MOL0     H76246  11.278   1.880   3.464 -0.6109  0.7250 -2.5763
  553MOL0     H76247  11.202   1.860   3.654 -1.5301  1.4571  1.4344
  553MOL0     H76248  11.331   1.859   3.778  1.9260 -1.8778 -0.3107
  553MOL0     H76249  11.105   1.818   3.856  2.1644  1.1365  1.4707
  553MOL0     H76250  11.097   1.664   3.774  0.0664 -0.0868 -0.6231
  553MOL0     H76251  11.152   1.639   4.010 -0.0865  1.0782 -0.2575
  553MOL0     H76252  11.307   1.599   3.936 -1.2535  0.0596  2.7373
  553MOL0     H76253  11.368   1.723   4.128 -1.3356 -2.2161 -0.0605
  553MOL0     H76254  11.395   1.833   3.989 -2.3190  3.0373 -0.7466
  553MOL0     H76255  11.141   1.808   4.162  1.2375 -2.2034  0.3409
  553MOL0     H76256  11.179   1.944   4.051  1.7404  0.3798  0.1816
  553MOL0     H76257  11.327   1.878   4.312 -0.7735 -0.1029  0.9119
  553MOL0     H76258  11.364   2.001   4.188  1.5608 -3.7642 -0.1560
  553MOL0     H76259  11.123   1.995   4.365 -3.1381 -2.0079 -2.8849
  553MOL0     H76260  11.164   2.121   4.238 -0.4523  0.4615  3.6252
  553MOL0     H76261  11.205   2.193   4.466 -0.3869 -3.2035  2.1521
  553MOL0     H76262  11.332   2.073   4.471 -0.4323 -0.5053 -0.2248
  553MOL0     H76263  11.253   2.407   4.271 -0.6738 -1.1266  1.2757
  553MOL0     H76264  11.560   2.599   4.274  0.0703  0.7343 -0.6004
  553MOL0     H76265  11.408   2.599   4.216  0.3876  0.9735  3.0276
  553MOL0     H76266  11.458   2.485   4.016 -1.5248  2.4985  0.2235
  553MOL0     H76267  11.543   2.641   4.043 -0.3844  0.0786  3.3629
  553MOL0     H76268  11.739   2.480   4.122  1.8534  0.8982 -1.5830
  553MOL0     H76269  11.676   2.379   3.987 -0.2467  1.2031 -1.2581
  553MOL0     H76270  11.737   2.656   3.923 -0.3979 -0.2042  0.4477
  553MOL0     H76271  11.841   2.512   3.896 -1.3553 -5.6770 -0.3407
  553MOL0     H76272  11.674   2.756   3.722  3.5614  2.3731 -1.5434
  553MOL0     H76273  11.754   2.956   3.582  0.7785 -0.0021  0.0474
  553MOL0     H76274  11.626   2.885   3.495  0.0827  0.8073  0.9461
  553MOL0     H76275  11.787   2.933   3.411  1.8355  0.1984  0.4371
  553MOL0     H76276  12.071   2.688   3.092 -0.4497  0.0630  0.9747
  553MOL0     H76277  12.136   2.779   2.869 -1.5696 -2.0637  0.2355
  553MOL0     H76278  11.803   2.896   2.687  2.2211  0.1953  4.9558
  553MOL0     H76279  11.833   3.070   2.665 -1.0429 -0.4746 -0.9537
  553MOL0     H76280  11.836   3.002   2.453 -0.6134 -0.5110  3.1883
  553MOL0     H76281  12.003   3.037   2.482  0.1483  0.2924 -0.9865
  553MOL0     H76282  11.888   2.764   2.469 -1.0275  1.2189  0.6552
  553MOL0     H76283  12.060   2.815   2.516 -1.1703  0.1466  1.8366
  553MOL0     H76284  12.090   2.912   2.290  0.5786 -0.7711  1.5458
  553MOL0     H76285  11.927   2.871   2.246  0.9582  3.2615 -0.1046
  553MOL0     H76286  11.956   2.650   2.217 -1.3273  2.4821 -1.9698
  553MOL0     H76287  12.082   2.725   2.136  0.8219 -0.0516  0.3191
  553MOL0     H76288  12.118   2.616   2.420  1.4351  3.0840  1.3208
  553MOL0     H76289  12.248   2.685   2.328 -1.5444  1.6408  1.6727
  553MOL0     H76290  12.088   2.434   2.255 -1.1847  0.4774  1.4283
  553MOL0     H76291  12.248   2.436   2.322 -1.3707  1.5172  0.2061
  553MOL0     H76292  12.158   2.532   2.053  0.1516  0.0371  0.6119
  553MOL0     H76293  12.259   2.393   2.077 -3.4067  0.2966 -2.2977
  553MOL0     H76294  11.813   3.051   2.887  1.3243 -0.9932 -3.6930
  553MOL0     H76295  11.735   2.941   3.106 -1.5306  0.5156 -1.9627
  553MOL0     H76296  11.955   2.475   3.449  0.1630  0.5606 -0.2822
  553MOL0     H76297  11.863   2.398   3.653 -1.0999 -0.3278 -0.8638
  553MOL0     H76298  11.304   1.458   3.533  2.7101  2.2126  1.7961
  553MOL0     H76299  11.255   1.412   3.278 -1.9408 -0.8662  0.9288
  553MOL0     H76300  11.099   1.413   2.926  1.1514 -2.0614 -0.0203
  553MOL0     H76301  11.033   1.367   2.699 -0.0046 -1.0488  0.6106
  553MOL0     H76302  11.021   1.303   2.466  2.6795 -1.0666 -0.9988
  553MOL0     H76303  10.935   1.451   2.514  0.0606 -1.9986 -0.8875
  553MOL0     H76304  10.985   1.553   2.292 -2.2177 -0.1049  0.9217
  553MOL0     H76305  10.865   1.437   2.288 -0.7312 -1.9500  1.6510
  553MOL0     H76306  11.153   1.352   2.238 -0.6174  0.6354  2.4018
  553MOL0     H76307  11.015   1.269   2.172  3.6090 -0.8836 -2.1039
  553MOL0     H76308  11.101   1.554   2.088  1.1714 -0.0742 -2.1556
  553MOL0     H76309  10.957   1.475   2.035 -0.4880  0.8805  3.3915
  553MOL0     H76310  11.297   1.353   1.807 -1.8220  0.3819 -1.8932
  553MOL0     H76311  11.354   1.606   2.564  3.0558 -0.2066  1.4339
  553MOL0     H76312  11.466   1.710   2.884  3.8742 -2.2306  0.6337
  553MOL0     H76313  11.551   1.587   2.778  2.0570  1.3893 -0.7220
  553MOL0     H76314  11.476   1.735   2.711 -3.8749 -1.3188 -1.0263
  554MOL0     O76315   1.062   7.751   2.818  0.1598 -0.1101  0.0557
  554MOL0     C76316   0.948   7.787   2.793 -0.8996  0.5044 -0.1300
  554MOL0     O76317   0.907   7.877   2.694  0.0753  0.3119  0.4981
  554MOL0     C76318   1.008   7.926   2.621  0.6517 -0.7830 -0.8144
  554MOL0     C76319   1.065   7.856   2.523  0.7260 -1.4899 -0.1837
  554MOL0     C76320   1.174   7.910   2.451 -0.3130 -0.0642  0.3284
  554MOL0     C76321   1.209   8.048   2.460  0.8820  0.3680 -0.5300
  554MOL0     O76322   1.317   8.106   2.406 -0.6068 -0.1666  0.2887
  554MOL0     C76323   1.306   8.097   2.259 -0.2059  0.4520  0.5091
  554MOL0     C76324   1.439   8.047   2.195 -1.4130 -0.1139 -0.3966
  554MOL0     C76325   1.478   8.099   2.060 -0.3108 -0.3982  1.7011
  554MOL0     C76326   1.357   8.096   1.969 -0.1179 -0.3965  1.0683
  554MOL0     C76327   1.419   8.091   1.825 -1.0022 -0.1028  0.6686
  554MOL0     C76328   1.307   8.105   1.716  0.6481 -0.5630  0.1704
  554MOL0     C76329   1.205   7.994   1.705 -0.5366  0.2540  0.1629
  554MOL0     C76330   1.261   7.862   1.644 -0.1893  0.1961 -0.1578
  554MOL0     N76331   1.301   7.766   1.750  0.6710 -0.2032  0.7090
  554MOL0     C76332   1.220   7.671   1.817 -0.6018 -1.4046 -0.1647
  554MOL0     C76333   1.298   7.603   1.902  1.0022 -0.1626  0.1838
  554MOL0     C76334   1.255   7.489   1.992  0.6468  0.1520 -0.3956
  554MOL0     C76335   1.330   7.366   1.972 -0.2243  0.3957 -0.8413
  554MOL0     C76336   1.348   7.327   1.828  0.2013 -0.1605 -0.5734
  554MOL0     C76337   1.480   7.260   1.795 -0.4370  0.0993 -0.0618
  554MOL0     O76338   1.476   7.211   1.665  0.2737 -0.1602  0.5767
  554MOL0     C76339   1.477   7.301   1.562  0.6048  0.6319  0.0648
  554MOL0     C76340   1.507   7.435   1.580 -0.0031 -0.0309 -0.4599
  554MOL0     C76341   1.521   7.530   1.477 -0.1006 -0.2479  0.1295
  554MOL0     C76342   1.543   7.670   1.510  0.0527 -0.2802 -0.1742
  554MOL0     C76343   1.492   7.492   1.342  0.6068 -1.1319 -0.4775
  554MOL0     C76344   1.501   7.592   1.223  0.1534 -0.4450  0.4961
  554MOL0     O76345   1.550   7.721   1.231  0.3014 -1.2401 -0.4482
  554MOL0     C76346   1.564   7.784   1.111 -0.4016  0.0895  0.7317
  554MOL0     C76347   1.462   7.819   1.019 -0.7698 -0.7231  1.0171
  554MOL0     C76348   1.483   7.867   0.896  0.7198  0.0111 -0.6940
  554MOL0     C76349   1.623   7.882   0.850  0.3201 -0.0374 -0.5510
  554MOL0     O76350   1.657   7.940   0.735 -0.6786  0.3011 -0.0320
  554MOL0     C76351   1.581   8.056   0.687 -0.1032  1.2475 -0.4231
  554MOL0     C76352   1.481   7.997   0.589 -0.3382 -0.7957  0.2505
  554MOL0     C76353   1.368   8.093   0.534  0.3296  0.2879  0.1003
  554MOL0     C76354   1.413   8.227   0.471  0.5127 -0.0008  0.0595
  554MOL0     C76355   1.291   8.290   0.419  0.7468 -0.2531  0.0293
  554MOL0     C76356   1.326   8.432   0.364  0.8142  0.2239 -0.8364
  554MOL0     C76357   1.193   8.480   0.312 -0.5090 -0.1676 -0.5829
  554MOL0     C76358   1.188   8.625   0.268  0.1890 -0.0705 -1.2198
  554MOL0    Cl76359   1.292   8.657   0.129 -0.2714 -0.0065  0.3050
  554MOL0     C76360   1.729   7.852   0.938 -0.4852 -0.2982 -0.0772
  554MOL0     C76361   1.697   7.801   1.064 -0.4952 -0.5337 -0.3930
  554MOL0     O76362   1.467   7.535   1.117  0.3621 -0.4325  0.0501
  554MOL0     C76363   1.479   7.346   1.321  0.4650 -0.3739 -1.0028
  554MOL0     C76364   1.465   7.245   1.430 -0.4857 -1.1214  0.4566
  554MOL0     N76365   1.419   7.667   1.903  0.2932  0.4310 -0.4449
  554MOL0     N76366   1.424   7.762   1.809  0.0724  0.3864  0.1964
  554MOL0     C76367   1.133   8.127   2.550 -1.0843 -0.0260 -0.0707
  554MOL0     C76368   1.044   8.062   2.636  0.6669  0.1842 -0.5100
  554MOL0     C76369   0.840   7.739   2.885  0.8666 -0.9466 -0.1398
  554MOL0     C76370   0.859   7.606   2.925  0.4212  0.2947 -0.2463
  554MOL0     C76371   0.764   7.545   3.003 -0.2156 -0.1218  0.8374
  554MOL0     C76372   0.638   7.599   3.032 -0.5091 -0.1629 -0.2945
  554MOL0     O76373   0.541   7.545   3.106  1.2122  0.0854 -0.0466
  554MOL0     C76374   0.504   7.404   3.084  0.2685 -0.5673 -0.6587
  554MOL0     C76375   0.379   7.380   3.169 -0.8951 -0.0339  0.6735
  554MOL0     C76376   0.316   7.256   3.125  0.6409 -0.4591 -0.0222
  554MOL0     C76377   0.165   7.255   3.157 -0.5348 -0.6019  0.4450
  554MOL0     C76378   0.092   7.344   3.066  0.3257  0.1408  0.5648
  554MOL0     C76379   0.034   7.417   2.988  0.3942  0.3622 -0.2882
  554MOL0     C76380   0.617   7.727   2.991  0.5060  0.4490 -1.1188
  554MOL0     C76381   0.719   7.801   2.930 -0.1467  0.1149  0.3228
  554MOL0     C76382   0.683   7.937   2.887 -0.2784  0.8040 -0.0570
  554MOL0     H76383   1.036   7.753   2.502 -1.2926 -1.3440  1.5174
  554MOL0     H76384   1.242   7.857   2.385 -3.2132 -1.6651 -1.5811
  554MOL0     H76385   1.287   8.195   2.215  0.4994  1.3417  2.1184
  554MOL0     H76386   1.232   8.025   2.224  1.2926 -1.4676  1.0821
  554MOL0     H76387   1.526   8.057   2.261 -2.2073  0.6122  0.5837
  554MOL0     H76388   1.445   7.938   2.190  3.5676 -0.0734 -0.1989
  554MOL0     H76389   1.543   8.187   2.062  3.6981 -2.7081 -3.1177
  554MOL0     H76390   1.551   8.029   2.018 -0.5788 -0.0005  0.5493
  554MOL0     H76391   1.297   8.006   1.983 -2.2160  0.9186  0.8445
  554MOL0     H76392   1.304   8.187   1.995 -1.7720 -0.5899 -1.3039
  554MOL0     H76393   1.474   7.999   1.803  0.5816  1.3751 -2.2245
  554MOL0     H76394   1.495   8.169   1.812 -1.5564  0.2448 -0.7948
  554MOL0     H76395   1.257   8.201   1.732 -1.4230 -1.6915  0.8008
  554MOL0     H76396   1.365   8.119   1.624 -0.8323  2.8025 -0.4084
  554MOL0     H76397   1.135   8.031   1.629  0.3289 -0.1562 -0.8618
  554MOL0     H76398   1.154   7.983   1.801  3.0153  1.2886  2.3364
  554MOL0     H76399   1.193   7.802   1.583  1.0296 -0.3974 -0.9794
  554MOL0     H76400   1.336   7.896   1.572  0.5824 -1.9422 -0.4466
  554MOL0     H76401   1.116   7.643   1.806 -0.4841 -1.7869 -0.3463
  554MOL0     H76402   1.147   7.476   1.985  0.5449  0.8949 -0.2715
  554MOL0     H76403   1.277   7.513   2.097  4.9797 -1.7376 -0.6488
  554MOL0     H76404   1.429   7.399   2.007 -1.1124  2.8878 -0.4605
  554MOL0     H76405   1.286   7.286   2.032  1.8691 -0.7252 -0.7137
  554MOL0     H76406   1.267   7.254   1.820  2.1842 -2.3151 -3.3128
  554MOL0     H76407   1.328   7.401   1.751  3.7054  1.6040 -0.0162
  554MOL0     H76408   1.563   7.328   1.815 -1.2057  1.2381 -0.6385
  554MOL0     H76409   1.486   7.171   1.858  2.4587 -0.6048 -1.1844
  554MOL0     H76410   1.528   7.477   1.678 -0.5190 -0.7264 -0.0403
  554MOL0     H76411   1.457   7.730   1.477  1.1430  1.6600  0.3765
  554MOL0     H76412   1.627   7.702   1.448 -1.7745  2.8648 -1.2612
  554MOL0     H76413   1.568   7.686   1.615 -2.6589  0.5366  0.4313
  554MOL0     H76414   1.359   7.804   1.050 -0.1571 -3.8767  1.8439
  554MOL0     H76415   1.396   7.884   0.834  0.6860 -2.9261 -1.5763
  554MOL0     H76416   1.530   8.109   0.769 -3.0724  0.0334 -1.3530
  554MOL0     H76417   1.647   8.125   0.634  0.5050  0.1653 -1.1140
  554MOL0     H76418   1.531   7.967   0.496 -2.5360  0.1391 -1.3487
  554MOL0     H76419   1.434   7.911   0.638 -0.0603 -1.4218 -0.5564
  554MOL0     H76420   1.322   8.111   0.632 -0.1568  1.2497 -0.2949
  554MOL0     H76421   1.292   8.053   0.467  0.1598 -0.0251  0.4753
  554MOL0     H76422   1.487   8.212   0.393 -0.5859  1.7815 -1.3930
  554MOL0     H76423   1.453   8.286   0.555 -2.7027  1.9205  0.4280
  554MOL0     H76424   1.236   8.228   0.348 -3.2207 -1.6782  3.8684
  554MOL0     H76425   1.228   8.314   0.505 -0.5039  1.2739 -1.2383
  554MOL0     H76426   1.394   8.428   0.278  1.0963  2.6654 -0.7970
  554MOL0     H76427   1.358   8.495   0.447  0.3732 -0.9011  0.2201
  554MOL0     H76428   1.122   8.464   0.393  0.6641 -1.7054  0.1856
  554MOL0     H76429   1.158   8.415   0.231 -2.8397 -0.5640  0.6641
  554MOL0     H76430   1.222   8.682   0.356  4.0522 -2.4103 -0.9635
  554MOL0     H76431   1.086   8.663   0.262  0.4966  0.8081 -1.0234
  554MOL0     H76432   1.835   7.863   0.915 -0.7906  4.9126 -0.2466
  554MOL0     H76433   1.771   7.760   1.132 -2.1445 -1.5828  0.8365
  554MOL0     H76434   1.474   7.307   1.220  0.7851 -0.9486 -0.8018
  554MOL0     H76435   1.453   7.141   1.404 -2.7355 -0.3824 -1.8254
  554MOL0     H76436   1.154   8.232   2.567 -0.5080 -0.6387  4.1822
  554MOL0     H76437   0.993   8.117   2.714 -0.9698 -2.7258  0.6199
  554MOL0     H76438   0.944   7.550   2.889  2.1067  1.1857  2.0976
  554MOL0     H76439   0.791   7.445   3.038 -2.6249 -1.6463 -1.2999
  554MOL0     H76440   0.481   7.387   2.979 -1.7132 -1.9529 -0.0551
  554MOL0     H76441   0.584   7.334   3.111  0.9643  0.6033  0.3832
  554MOL0     H76442   0.317   7.470   3.158 -0.2373  0.1810 -2.0917
  554MOL0     H76443   0.413   7.356   3.270  3.0092  1.8605  0.0051
  554MOL0     H76444   0.328   7.236   3.018  1.5597  1.8714 -0.4156
  554MOL0     H76445   0.366   7.170   3.171 -0.4021  1.1910  4.7597
  554MOL0     H76446   0.149   7.290   3.259 -1.2224 -2.0631  0.8644
  554MOL0     H76447   0.127   7.153   3.143  0.4856 -1.1516  1.4926
  554MOL0     H76448  -0.003   7.490   2.919  2.0928  1.1451 -0.4353
  554MOL0     H76449   0.526   7.783   3.010 -1.7229 -3.3756  0.6027
  554MOL0     H76450   0.604   7.979   2.949  2.8717  0.8904  4.3525
  554MOL0     H76451   0.766   8.004   2.909  1.9017 -0.7830 -2.6493
  554MOL0     H76452   0.661   7.933   2.779  0.2721 -0.7299 -0.1472
  555MOL0     O76453   8.210   2.901   4.704  0.5595 -0.4021  0.4449
  555MOL0     C76454   8.271   2.881   4.811  0.1268 -0.8061 -0.0919
  555MOL0     O76455   8.217   2.910   4.936  0.3455 -0.0059 -0.2187
  555MOL0     C76456   8.093   2.976   4.958 -0.2317  0.5731 -0.0585
  555MOL0     C76457   8.095   3.112   4.925 -0.1083 -0.0657  0.5796
  555MOL0     C76458   7.982   3.196   4.946 -0.8771  0.0489  0.2026
  555MOL0     C76459   7.861   3.126   4.986 -0.3389 -0.2426 -1.1708
  555MOL0     O76460   7.746   3.199   4.999  0.8179  0.2096  0.2164
  555MOL0     C76461   7.712   3.228   4.858  0.5865  0.0168  0.1969
  555MOL0     C76462   7.562   3.258   4.841  0.6321 -0.1118 -0.2725
  555MOL0     C76463   7.470   3.146   4.871  0.5021 -0.3950  0.3538
  555MOL0     C76464   7.318   3.169   4.835  0.0523  0.0585  0.3056
  555MOL0     C76465   7.259   3.277   4.925 -0.1942  0.7586 -0.4338
  555MOL0     C76466   7.244   3.414   4.864  1.1381  0.7660  0.5752
  555MOL0     C76467   7.198   3.521   4.963 -0.1477 -0.5679  0.6007
  555MOL0     C76468   7.181   3.657   4.895 -0.2239 -0.8738  0.9078
  555MOL0     N76469   7.056   3.647   4.817  1.2902  0.1663  0.3030
  555MOL0     C76470   6.935   3.616   4.879  0.7150 -0.1979  0.1721
  555MOL0     C76471   6.856   3.571   4.778 -0.3744  0.0920  0.5540
  555MOL0     C76472   6.712   3.523   4.780 -0.5400  0.2331  0.2975
  555MOL0     C76473   6.611   3.638   4.782  1.0895 -0.0478  0.1787
  555MOL0     C76474   6.469   3.595   4.744  0.4557  0.4968  0.2163
  555MOL0     C76475   6.373   3.573   4.871 -0.3779  0.0092  0.0316
  555MOL0     O76476   6.251   3.519   4.816  0.2023 -1.1735 -0.3223
  555MOL0     C76477   6.247   3.385   4.777  0.3082 -0.3492  0.2952
  555MOL0     C76478   6.284   3.289   4.874  0.1222 -0.1792  0.4488
  555MOL0     C76479   6.282   3.155   4.845 -0.4999  0.6780  0.2461
  555MOL0     C76480   6.317   3.075   4.964 -0.2680 -0.2631 -0.2528
  555MOL0     C76481   6.244   3.107   4.711  0.8236 -0.2504  0.1452
  555MOL0     C76482   6.249   2.962   4.670 -0.8915 -1.2147  0.3097
  555MOL0     O76483   6.320   2.877   4.756 -0.7746 -0.8003 -0.7116
  555MOL0     C76484   6.347   2.745   4.737 -0.2855 -0.2451  1.1015
  555MOL0     C76485   6.383   2.687   4.859 -0.5484 -1.0008 -0.7255
  555MOL0     C76486   6.412   2.560   4.864 -0.1334  0.8346 -0.0166
  555MOL0     C76487   6.410   2.483   4.749  0.5068  0.1402  0.1177
  555MOL0     O76488   6.445   2.353   4.746  0.0753 -1.0050  0.0255
  555MOL0     C76489   6.517   2.290   4.856  0.2859  0.7867  0.0140
  555MOL0     C76490   6.577   2.150   4.810  0.7058 -0.0119  0.7648
  555MOL0     C76491   6.682   2.105   4.905 -0.1714 -0.5340  0.5147
  555MOL0     C76492   6.745   1.967   4.868 -0.5020  0.5436 -0.7181
  555MOL0     C76493   6.891   1.953   4.872 -0.8573 -0.4393  0.7096
  555MOL0     C76494   6.946   1.962   5.009 -0.8794  0.8631 -0.6482
  555MOL0     C76495   7.095   1.919   5.015  0.6570  0.0078  0.1561
  555MOL0     C76496   7.144   1.922   5.154  0.4283  0.4182 -0.7840
  555MOL0    Cl76497   7.314   1.857   5.171 -0.3967  0.2743 -0.4479
  555MOL0     C76498   6.360   2.543   4.629 -0.2999 -0.1586 -0.5690
  555MOL0     C76499   6.324   2.679   4.613  0.8593 -0.3198  0.0792
  555MOL0     O76500   6.190   2.923   4.578  0.1404 -0.9056  0.2106
  555MOL0     C76501   6.208   3.206   4.616 -0.9195 -0.0745 -0.0035
  555MOL0     C76502   6.209   3.339   4.648  0.2927  0.6358 -0.3451
  555MOL0     N76503   6.917   3.598   4.656 -0.3152  0.5458 -0.6203
  555MOL0     N76504   7.038   3.616   4.682 -0.3631 -0.0932  0.3682
  555MOL0     C76505   7.857   2.994   5.010  0.6975 -0.7776 -0.5675
  555MOL0     C76506   7.972   2.916   5.000 -0.5212 -0.8998  0.9372
  555MOL0     C76507   8.413   2.830   4.804  1.0989 -0.8599  0.5426
  555MOL0     C76508   8.512   2.867   4.900  0.3399  0.0495 -0.3710
  555MOL0     C76509   8.637   2.800   4.890  0.1324  1.0151 -0.4603
  555MOL0     C76510   8.670   2.707   4.796  0.2757  0.1514  0.4662
  555MOL0     O76511   8.787   2.639   4.770 -0.4131  0.0386  0.4228
  555MOL0     C76512   8.869   2.602   4.877  0.3725 -0.0235  0.3862
  555MOL0     C76513   8.926   2.459   4.865  0.2003  0.0385  0.7309
  555MOL0     C76514   8.830   2.343   4.883 -0.1577 -0.1126  0.2881
  555MOL0     C76515   8.875   2.218   4.817 -0.0855 -0.3258 -0.3847
  555MOL0     C76516   8.922   2.252   4.677 -0.3917  0.0168 -0.2001
  555MOL0     C76517   8.984   2.302   4.580 -0.3658 -0.3162  0.4057
  555MOL0     C76518   8.566   2.671   4.712 -0.1823 -0.0207 -0.3729
  555MOL0     C76519   8.439   2.724   4.714 -0.2633  0.3112  0.1097
  555MOL0     C76520   8.343   2.658   4.617 -1.0212  1.3967  0.1841
  555MOL0     H76521   8.187   3.144   4.877 -0.6306 -2.9742 -2.7372
  555MOL0     H76522   7.984   3.303   4.933  0.7262  0.1034  0.6830
  555MOL0     H76523   7.722   3.143   4.791  0.9542 -1.9537  2.6321
  555MOL0     H76524   7.766   3.319   4.828 -0.1318 -0.0680 -1.4665
  555MOL0     H76525   7.544   3.344   4.906 -1.5229 -3.5100  4.1657
  555MOL0     H76526   7.545   3.278   4.734  0.3431 -1.7892 -0.5638
  555MOL0     H76527   7.513   3.062   4.815  1.3088  0.1618  0.1241
  555MOL0     H76528   7.477   3.112   4.975 -0.2301 -2.9965 -0.3672
  555MOL0     H76529   7.301   3.198   4.731  0.4718  1.0977  0.5108
  555MOL0     H76530   7.264   3.077   4.856 -0.5458  0.7989  2.2467
  555MOL0     H76531   7.314   3.289   5.019  0.1836  2.0808 -0.8014
  555MOL0     H76532   7.153   3.257   4.941 -0.3001  1.3627 -0.3370
  555MOL0     H76533   7.337   3.437   4.810 -0.8367 -0.8300 -3.9856
  555MOL0     H76534   7.170   3.409   4.784  2.2356  0.5757 -0.4677
  555MOL0     H76535   7.272   3.518   5.043  1.1499  1.6284 -0.4177
  555MOL0     H76536   7.106   3.491   5.013 -2.2610  2.3077 -1.2347
  555MOL0     H76537   7.175   3.740   4.966 -0.0085  0.0929 -0.1692
  555MOL0     H76538   7.265   3.673   4.826  1.2871 -1.9893  2.4218
  555MOL0     H76539   6.903   3.611   4.982  0.9955  0.0139  0.2693
  555MOL0     H76540   6.692   3.450   4.859  1.1720 -0.4388  0.1562
  555MOL0     H76541   6.691   3.468   4.688 -2.7868 -0.0494  0.9208
  555MOL0     H76542   6.591   3.686   4.879 -1.8191  0.9674 -0.8094
  555MOL0     H76543   6.642   3.709   4.705 -2.7762  1.4257 -0.2771
  555MOL0     H76544   6.424   3.676   4.685 -2.6979 -1.4152 -0.2780
  555MOL0     H76545   6.462   3.511   4.674 -2.2276 -0.3505  1.3763
  555MOL0     H76546   6.417   3.500   4.940 -0.1879 -0.5714 -0.6830
  555MOL0     H76547   6.369   3.670   4.920 -0.7764 -0.9241  1.9136
  555MOL0     H76548   6.292   3.332   4.973  0.5200  2.1511 -0.5186
  555MOL0     H76549   6.246   2.993   4.980 -0.9342  0.9409  4.6286
  555MOL0     H76550   6.304   3.133   5.056  1.0291  1.2211 -0.9678
  555MOL0     H76551   6.418   3.033   4.962 -0.1218  0.1133 -2.5295
  555MOL0     H76552   6.385   2.740   4.954  0.6358 -0.3865 -1.0729
  555MOL0     H76553   6.448   2.517   4.957 -3.0558 -0.8331  0.4866
  555MOL0     H76554   6.598   2.358   4.884 -0.3374  1.5957 -0.1223
  555MOL0     H76555   6.456   2.274   4.945  0.9465  0.8147  0.4754
  555MOL0     H76556   6.501   2.075   4.788  1.7078 -1.5646  2.3801
  555MOL0     H76557   6.626   2.173   4.715  1.4449 -2.6625  0.4174
  555MOL0     H76558   6.637   2.108   5.004  0.6551  0.8156  0.8822
  555MOL0     H76559   6.769   2.172   4.903  0.1443 -0.8605 -3.0255
  555MOL0     H76560   6.712   1.944   4.766  1.0550 -1.0405 -0.9029
  555MOL0     H76561   6.702   1.899   4.942 -0.9045  0.8181 -0.6921
  555MOL0     H76562   6.903   1.853   4.829 -3.8022 -0.7615  0.4287
  555MOL0     H76563   6.936   2.023   4.801  1.3373 -2.5770 -0.1325
  555MOL0     H76564   6.894   1.896   5.078  2.4046 -1.2522  0.0487
  555MOL0     H76565   6.943   2.060   5.058 -0.9015  0.5230  0.0299
  555MOL0     H76566   7.156   1.980   4.948 -2.5060  0.4630 -2.5614
  555MOL0     H76567   7.091   1.818   4.975 -1.8028  0.7942 -1.8106
  555MOL0     H76568   7.077   1.861   5.216  2.9054 -1.9941 -0.3184
  555MOL0     H76569   7.142   2.023   5.198 -0.6861 -0.1990  0.6951
  555MOL0     H76570   6.317   2.483   4.550 -1.3044 -2.1697  1.4043
  555MOL0     H76571   6.273   2.724   4.528 -3.1821  2.1182  3.4181
  555MOL0     H76572   6.185   3.166   4.517 -0.3468  1.8938 -0.9771
  555MOL0     H76573   6.183   3.409   4.569 -3.0582 -1.3412 -1.1974
  555MOL0     H76574   7.762   2.959   5.050  0.6115 -0.3685 -0.4162
  555MOL0     H76575   7.966   2.814   5.036  3.2326 -0.5815  2.9492
  555MOL0     H76576   8.506   2.936   4.983  2.0713 -2.6290  2.2211
  555MOL0     H76577   8.720   2.809   4.960  0.4378 -4.5838  0.2928
  555MOL0     H76578   8.951   2.671   4.900 -0.1140  0.2295  1.4033
  555MOL0     H76579   8.818   2.601   4.973 -0.2682  1.1193  0.0768
  555MOL0     H76580   9.000   2.445   4.945 -1.9398 -3.9541  2.3090
  555MOL0     H76581   8.988   2.459   4.775  1.1920  2.9531  1.2843
  555MOL0     H76582   8.808   2.320   4.988 -2.0919 -2.4208 -0.5115
  555MOL0     H76583   8.736   2.381   4.841 -0.1984 -0.2625  0.2431
  555MOL0     H76584   8.792   2.147   4.805 -1.2265  1.0143 -0.6799
  555MOL0     H76585   8.955   2.170   4.874  0.8480  0.8535 -0.6725
  555MOL0     H76586   9.049   2.331   4.499  1.9252 -2.7038  1.2284
  555MOL0     H76587   8.597   2.578   4.665  2.9903 -0.0975  1.5925
  555MOL0     H76588   8.254   2.624   4.671 -1.2854 -0.5802 -1.3662
  555MOL0     H76589   8.312   2.730   4.542 -0.9427 -0.2742 -1.5375
  555MOL0     H76590   8.395   2.573   4.571 -0.8264  1.0174  1.0825
  556MOL0     O76591   5.059  11.491   6.736  1.1585  0.0944  0.1606
  556MOL0     C76592   5.086  11.526   6.854  0.0309  0.0381 -0.2442
  556MOL0     O76593   5.072  11.439   6.961  0.3182  0.2775  0.3759
  556MOL0     C76594   5.041  11.312   6.942  0.0141 -0.0964  0.4767
  556MOL0     C76595   4.932  11.260   7.014 -0.0048 -0.4695  0.3470
  556MOL0     C76596   4.889  11.133   7.000  0.2222  0.6799 -0.8183
  556MOL0     C76597   4.964  11.048   6.928 -0.2722 -0.1024  0.2248
  556MOL0     O76598   4.920  10.915   6.918  0.0495  0.0747 -0.3758
  556MOL0     C76599   5.019  10.811   6.957  0.5652 -0.1325 -0.6077
  556MOL0     C76600   4.983  10.775   7.107  0.4144  0.5811 -0.0571
  556MOL0     C76601   4.866  10.681   7.126 -0.7896 -1.7627  0.6350
  556MOL0     C76602   4.737  10.763   7.116  0.1717 -0.1945  1.1827
  556MOL0     C76603   4.612  10.665   7.121 -0.4981  0.3508 -0.0548
  556MOL0     C76604   4.630  10.558   7.232 -0.4488  0.6349 -0.1320
  556MOL0     C76605   4.499  10.497   7.273 -0.5200  1.2650 -0.1640
  556MOL0     C76606   4.372  10.588   7.267 -0.5309  0.0449 -0.1855
  556MOL0     N76607   4.264  10.536   7.354 -1.1712 -0.0370 -0.2758
  556MOL0     C76608   4.254  10.545   7.493 -0.3332 -0.8665  0.3913
  556MOL0     C76609   4.146  10.472   7.519 -0.4941  0.3181  0.1833
  556MOL0     C76610   4.095  10.451   7.652 -0.4122  0.1735  0.1937
  556MOL0     C76611   3.964  10.528   7.678  0.6541  0.0809 -0.1336
  556MOL0     C76612   3.910  10.511   7.818 -0.0147  0.5110  0.1983
  556MOL0     C76613   3.771  10.569   7.837 -0.7683 -0.1787  0.3700
  556MOL0     O76614   3.738  10.589   7.968  0.3946 -0.4727  0.0552
  556MOL0     C76615   3.607  10.593   8.008 -0.2423 -0.0654  0.8435
  556MOL0     C76616   3.530  10.699   7.965 -0.2094  0.1132  0.1082
  556MOL0     C76617   3.389  10.698   7.985 -0.9474  0.2159 -0.4506
  556MOL0     C76618   3.299  10.806   7.939  0.6522  0.2810  0.0150
  556MOL0     C76619   3.331  10.594   8.056 -0.6497  0.2129 -0.6220
  556MOL0     C76620   3.189  10.571   8.091  0.4319 -0.0514  0.0556
  556MOL0     O76621   3.156  10.544   8.223 -0.5166 -0.0833  0.1782
  556MOL0     C76622   3.039  10.598   8.263  0.7989  0.3166  0.3365
  556MOL0     C76623   3.007  10.735   8.261  0.4132 -0.1623 -0.5683
  556MOL0     C76624   2.889  10.786   8.319 -0.1471 -0.3033 -0.1097
  556MOL0     C76625   2.802  10.696   8.387  1.0512  0.0101  0.0099
  556MOL0     O76626   2.697  10.740   8.468 -0.3083  0.0351  0.2984
  556MOL0     C76627   2.688  10.882   8.509 -0.5644  0.0919  0.4917
  556MOL0     C76628   2.586  10.881   8.634 -0.5494  0.4235 -0.0776
  556MOL0     C76629   2.535  11.015   8.671 -0.3843 -0.5804 -0.1047
  556MOL0     C76630   2.420  11.019   8.771  0.2461  0.4156  0.8985
  556MOL0     C76631   2.407  11.158   8.850  0.2991 -0.2521 -0.0045
  556MOL0     C76632   2.399  11.277   8.754 -0.2398  0.1921  0.4676
  556MOL0     C76633   2.333  11.404   8.812  0.1373  0.5895 -0.2003
  556MOL0     C76634   2.270  11.503   8.707  0.0407 -0.8441  0.0214
  556MOL0    Cl76635   2.382  11.598   8.612  0.3336  0.1165  0.7601
  556MOL0     C76636   2.836  10.562   8.387 -0.8353  0.3832  0.5673
  556MOL0     C76637   2.949  10.512   8.313  0.2540  0.0640 -0.7343
  556MOL0     O76638   3.106  10.561   7.999 -0.6318  0.1177 -0.1533
  556MOL0     C76639   3.418  10.493   8.089  1.5153 -0.2590  0.4992
  556MOL0     C76640   3.552  10.486   8.073  0.2383 -0.4678  0.2560
  556MOL0     N76641   4.101  10.411   7.404  0.1628 -0.3565 -1.0125
  556MOL0     N76642   4.168  10.446   7.303  0.3369  0.3992  0.2809
  556MOL0     C76643   5.064  11.092   6.848 -0.2110  0.1926  0.4644
  556MOL0     C76644   5.105  11.221   6.864  1.3972 -1.1054 -1.1482
  556MOL0     C76645   5.118  11.670   6.881  0.5522  0.6817 -0.7194
  556MOL0     C76646   5.154  11.691   7.016 -0.0399  0.8571  0.4087
  556MOL0     C76647   5.196  11.815   7.055  0.4473 -0.5886 -0.8559
  556MOL0     C76648   5.211  11.921   6.966 -0.0081  0.9024  0.6222
  556MOL0     O76649   5.270  12.038   6.995 -0.3445  0.4679 -0.4058
  556MOL0     C76650   5.198  12.156   6.959  0.1074 -0.3180 -0.1776
  556MOL0     C76651   5.098  12.195   7.068 -0.4780  0.7154 -0.1720
  556MOL0     C76652   5.155  12.234   7.208 -0.6433  0.6739  0.1138
  556MOL0     C76653   5.100  12.155   7.326  0.8215 -0.0989 -0.1868
  556MOL0     C76654   5.142  12.226   7.451 -0.1400 -0.4740 -0.6543
  556MOL0     C76655   5.162  12.271   7.558  0.3579  0.1148  0.4255
  556MOL0     C76656   5.171  11.900   6.837 -0.1109  0.0920 -0.4642
  556MOL0     C76657   5.132  11.775   6.786 -0.1853  0.4899 -0.3883
  556MOL0     C76658   5.093  11.766   6.640 -0.1320  0.1897 -0.6781
  556MOL0     H76659   4.885  11.329   7.084 -0.3199  1.2340 -1.4609
  556MOL0     H76660   4.796  11.099   7.046  0.4091  1.3802  0.1201
  556MOL0     H76661   5.123  10.842   6.943 -0.2516  3.0582 -0.3788
  556MOL0     H76662   5.007  10.727   6.888  0.1463  1.8047 -3.0365
  556MOL0     H76663   5.075  10.740   7.155 -0.1640 -0.7344  0.1531
  556MOL0     H76664   4.964  10.872   7.154  0.4793  0.4439  0.2586
  556MOL0     H76665   4.877  10.600   7.055  1.7923 -1.9194  1.1247
  556MOL0     H76666   4.881  10.628   7.220  1.6721 -2.1406  0.0923
  556MOL0     H76667   4.729  10.827   7.205 -0.0301 -1.0602  1.8033
  556MOL0     H76668   4.729  10.828   7.029  0.0365 -0.3582  1.0712
  556MOL0     H76669   4.592  10.591   7.042  0.4291 -1.8578  1.6782
  556MOL0     H76670   4.529  10.732   7.145  0.9737  1.5725  1.9020
  556MOL0     H76671   4.697  10.480   7.196  1.6716  1.1423  2.3978
  556MOL0     H76672   4.662  10.607   7.325 -3.4431  0.7458  0.9357
  556MOL0     H76673   4.498  10.451   7.372 -0.5101 -2.2072 -1.6454
  556MOL0     H76674   4.476  10.415   7.205  0.1887 -2.2398  3.4615
  556MOL0     H76675   4.397  10.690   7.297  1.7643 -0.5717  0.1596
  556MOL0     H76676   4.335  10.597   7.164  0.6107  2.2841 -0.4687
  556MOL0     H76677   4.303  10.617   7.558 -0.1313 -1.1391  0.5448
  556MOL0     H76678   4.171  10.491   7.719  2.2655 -1.4455 -1.6486
  556MOL0     H76679   4.083  10.344   7.673 -3.3444  0.3063 -0.3781
  556MOL0     H76680   3.972  10.627   7.633 -0.6682 -0.0511 -0.7186
  556MOL0     H76681   3.887  10.486   7.612 -0.5833  1.8845  0.1062
  556MOL0     H76682   3.900  10.403   7.833  2.6205  0.0194 -1.0131
  556MOL0     H76683   3.990  10.553   7.881  2.1046 -2.1186 -0.5634
  556MOL0     H76684   3.764  10.662   7.780 -0.1806 -2.2427 -3.3919
  556MOL0     H76685   3.708  10.488   7.798  1.2921 -2.4589  1.5212
  556MOL0     H76686   3.580  10.780   7.913  0.2393  1.0904  2.0086
  556MOL0     H76687   3.324  10.827   7.835  0.5006 -2.1943 -0.5671
  556MOL0     H76688   3.311  10.899   7.996 -0.6002  0.4664  0.0158
  556MOL0     H76689   3.191  10.785   7.940  0.7468 -0.6713  3.7018
  556MOL0     H76690   3.074  10.804   8.210  2.2716  0.1064  2.0501
  556MOL0     H76691   2.869  10.891   8.301  2.1050  0.1322 -0.3512
  556MOL0     H76692   2.785  10.931   8.517 -0.9260  1.1307 -1.0239
  556MOL0     H76693   2.633  10.939   8.432 -3.1191 -2.2723  0.3904
  556MOL0     H76694   2.496  10.829   8.600  1.2484 -0.9769 -3.1135
  556MOL0     H76695   2.627  10.829   8.721  0.1706 -0.0881 -0.7151
  556MOL0     H76696   2.508  11.053   8.572 -1.6401 -1.5895 -0.1748
  556MOL0     H76697   2.620  11.066   8.718 -0.3327 -2.0013  1.4376
  556MOL0     H76698   2.440  10.939   8.843 -0.3532 -0.4399  0.1280
  556MOL0     H76699   2.326  11.006   8.716  0.4768 -5.0525  1.2613
  556MOL0     H76700   2.315  11.161   8.910 -0.2149 -0.7639 -0.7526
  556MOL0     H76701   2.490  11.161   8.921 -2.2791  1.8750  3.2129
  556MOL0     H76702   2.343  11.246   8.665  0.4623  1.1676 -0.3336
  556MOL0     H76703   2.498  11.309   8.722  0.9058 -2.7770  0.6902
  556MOL0     H76704   2.402  11.458   8.878  1.4705  1.8310 -2.4712
  556MOL0     H76705   2.254  11.368   8.878 -0.0080  0.2926 -0.5362
  556MOL0     H76706   2.210  11.577   8.760  1.0699  0.5973 -0.7411
  556MOL0     H76707   2.208  11.442   8.640  1.3878  2.0438 -4.3179
  556MOL0     H76708   2.774  10.495   8.446  0.2216  0.1340  1.4263
  556MOL0     H76709   2.973  10.406   8.315 -0.9408 -0.2096  0.5000
  556MOL0     H76710   3.364  10.407   8.127 -1.2308  0.0561 -2.2716
  556MOL0     H76711   3.616  10.402   8.098  1.8403  0.0240 -1.9122
  556MOL0     H76712   5.110  11.014   6.787 -0.7463 -1.9958  2.7278
  556MOL0     H76713   5.191  11.261   6.811  0.5410  2.1764 -0.3056
  556MOL0     H76714   5.163  11.603   7.079 -2.6530 -1.5980 -2.2987
  556MOL0     H76715   5.227  11.816   7.159 -1.7520  1.8694 -0.1216
  556MOL0     H76716   5.257  12.243   6.929  0.5992 -1.3268 -2.3022
  556MOL0     H76717   5.139  12.140   6.868  1.5499  1.2148 -1.4239
  556MOL0     H76718   5.037  12.105   7.083  1.9143 -1.1120 -0.8827
  556MOL0     H76719   5.042  12.279   7.027 -1.5492  0.0338 -0.1580
  556MOL0     H76720   5.263  12.218   7.206 -0.8140 -0.4664 -0.1398
  556MOL0     H76721   5.116  12.333   7.235 -0.7989  0.0337  2.4644
  556MOL0     H76722   5.128  12.049   7.333 -0.2334 -0.4923 -1.5319
  556MOL0     H76723   4.991  12.157   7.327  0.6906 -2.1636  2.8648
  556MOL0     H76724   5.190  12.304   7.656  0.3967 -2.0728  1.2102
  556MOL0     H76725   5.184  11.969   6.755  0.8453 -1.7834 -1.9928
  556MOL0     H76726   4.992  11.725   6.646 -0.3531  0.9078  1.6286
  556MOL0     H76727   5.078  11.862   6.589 -3.0278 -1.4600 -3.3109
  556MOL0     H76728   5.157  11.702   6.579  1.5001  0.4568  0.6844
  557MOL0     O76729   5.152   9.747   8.306 -0.0569  0.8665  0.1975
  557MOL0     C76730   5.168   9.873   8.305  0.1885  0.3361 -0.3610
  557MOL0     O76731   5.289   9.933   8.291  0.5415  0.1862 -0.3886
  557MOL0     C76732   5.399   9.858   8.299 -0.4268  0.1567 -0.2875
  557MOL0     C76733   5.426   9.736   8.381 -0.1364 -0.0877 -0.5840
  557MOL0     C76734   5.554   9.679   8.383  0.1655 -0.2217 -0.5664
  557MOL0     C76735   5.661   9.734   8.318  0.9691  0.1852  1.2073
  557MOL0     O76736   5.786   9.685   8.337 -0.5982  0.2438 -0.3456
  557MOL0     C76737   5.840   9.600   8.244 -0.0473 -0.4742  0.4665
  557MOL0     C76738   5.973   9.556   8.290 -1.3717  0.7516  0.7582
  557MOL0     C76739   6.019   9.495   8.413 -0.4876 -0.3018 -0.4417
  557MOL0     C76740   5.959   9.355   8.418 -0.0055 -0.6766  0.1688
  557MOL0     C76741   5.997   9.273   8.545 -0.0728 -0.3866  0.2317
  557MOL0     C76742   5.941   9.332   8.680 -0.3224  0.2735  0.7366
  557MOL0     C76743   5.988   9.234   8.785 -0.0472 -1.3637  0.3662
  557MOL0     C76744   5.960   9.310   8.916  0.5993 -0.0225  0.0877
  557MOL0     N76745   5.936   9.229   9.034  1.0900  0.6137  0.4278
  557MOL0     C76746   5.817   9.183   9.063 -0.4479 -0.0685 -0.4310
  557MOL0     C76747   5.820   9.156   9.199 -0.4212  0.3454  0.2190
  557MOL0     C76748   5.704   9.101   9.273 -0.7234  0.8726  0.1387
  557MOL0     C76749   5.700   9.135   9.416  0.1369 -0.0729 -0.6747
  557MOL0     C76750   5.553   9.137   9.464 -0.1109 -0.6326  0.0744
  557MOL0     C76751   5.558   9.111   9.622  0.3005 -0.4374 -0.5601
  557MOL0     O76752   5.595   9.221   9.699  0.5405  1.0960  0.0729
  557MOL0     C76753   5.524   9.259   9.819 -0.5668 -0.1169  0.2259
  557MOL0     C76754   5.602   9.339   9.908 -0.5725 -0.2109  0.0298
  557MOL0     C76755   5.541   9.395  10.022  0.5256 -0.6215 -0.5983
  557MOL0     C76756   5.621   9.499  10.099  0.3104  0.5613 -0.0425
  557MOL0     C76757   5.411   9.360  10.058 -0.3831  0.0161 -0.1381
  557MOL0     C76758   5.332   9.419  10.174  0.2828  0.0273 -0.2779
  557MOL0     O76759   5.402   9.470  10.276  0.2194 -0.3090  0.1366
  557MOL0     C76760   5.334   9.528  10.380 -0.4336 -0.3304 -0.8236
  557MOL0     C76761   5.326   9.658  10.385 -0.9000 -0.1410 -0.0695
  557MOL0     C76762   5.255   9.721  10.483 -0.7062  0.4366  0.3901
  557MOL0     C76763   5.188   9.646  10.585  0.6026  0.5354  0.2559
  557MOL0     O76764   5.098   9.692  10.672 -0.0197 -0.0474  1.0309
  557MOL0     C76765   5.097   9.831  10.691 -0.0091  0.4079  0.0044
  557MOL0     C76766   4.964   9.867  10.777  0.3335 -1.1153  0.3299
  557MOL0     C76767   4.981  10.020  10.820 -0.2709 -0.9701  0.4056
  557MOL0     C76768   4.881  10.072  10.918 -0.6276  0.1869  0.2744
  557MOL0     C76769   4.904  10.219  10.971  0.0173  0.0406  0.7904
  557MOL0     C76770   4.769  10.298  10.970  0.2080 -0.4691  0.1022
  557MOL0     C76771   4.687  10.266  11.094  0.9489  0.1158  0.3897
  557MOL0     C76772   4.541  10.300  11.066  0.0625 -0.4635  0.8670
  557MOL0    Cl76773   4.522  10.466  11.015 -0.1259  0.5441 -0.8235
  557MOL0     C76774   5.215   9.505  10.585  0.3974 -1.3992  0.5923
  557MOL0     C76775   5.292   9.444  10.489  0.8742  0.1860  1.6061
  557MOL0     O76776   5.205   9.422  10.162 -0.3055  0.4524 -0.3597
  557MOL0     C76777   5.345   9.271   9.973 -0.3383  1.1141  1.0330
  557MOL0     C76778   5.392   9.224   9.853  0.1424  0.1655 -0.2401
  557MOL0     N76779   5.946   9.189   9.243  0.2823 -0.9424  0.7383
  557MOL0     N76780   6.016   9.232   9.144  0.1313 -0.0574 -0.2035
  557MOL0     C76781   5.637   9.846   8.227  0.3784  0.5345 -0.2448
  557MOL0     C76782   5.510   9.907   8.218 -0.1344 -0.4011 -0.1966
  557MOL0     C76783   5.047   9.953   8.326 -0.7434 -0.3956 -0.2769
  557MOL0     C76784   5.037  10.080   8.266 -0.2347  0.0931 -0.1713
  557MOL0     C76785   4.916  10.160   8.273  0.0649 -0.3404 -0.0451
  557MOL0     C76786   4.798  10.112   8.342  0.4856  0.4553  0.7259
  557MOL0     O76787   4.685  10.179   8.372  0.8181 -0.2714  0.5559
  557MOL0     C76788   4.714  10.308   8.435  0.3883  0.0734  0.6353
  557MOL0     C76789   4.608  10.363   8.526  0.0313 -0.6543  0.4271
  557MOL0     C76790   4.485  10.427   8.460  0.2973 -0.3483 -0.0465
  557MOL0     C76791   4.362  10.380   8.541 -0.1158  0.0068 -0.6676
  557MOL0     C76792   4.312  10.251   8.492 -0.1897 -0.9214  0.0502
  557MOL0     C76793   4.252  10.151   8.444 -0.8362 -0.0919 -0.7727
  557MOL0     C76794   4.820   9.984   8.392  1.0140  0.6349 -0.6112
  557MOL0     C76795   4.935   9.905   8.394  1.9402 -0.2597 -0.0040
  557MOL0     C76796   4.929   9.781   8.479 -0.5155  0.1135  0.0579
  557MOL0     H76797   5.361   9.698   8.460  0.0802  0.6024 -0.0738
  557MOL0     H76798   5.566   9.591   8.445 -0.6085  0.2524  0.2838
  557MOL0     H76799   5.849   9.649   8.147  1.8606 -0.2160  0.7235
  557MOL0     H76800   5.781   9.508   8.237 -0.6982 -0.1667  1.6928
  557MOL0     H76801   6.007   9.493   8.208 -2.2345 -2.0848  2.4397
  557MOL0     H76802   6.043   9.639   8.274 -1.4532  0.2185 -3.2961
  557MOL0     H76803   6.126   9.491   8.436 -0.5568  0.3964  0.0440
  557MOL0     H76804   5.970   9.550   8.494 -1.5479 -3.2905  1.0949
  557MOL0     H76805   5.849   9.363   8.419  0.0492  0.4463 -0.4976
  557MOL0     H76806   5.994   9.301   8.330  2.2542 -1.5292  1.5116
  557MOL0     H76807   6.105   9.256   8.548 -0.1557 -0.8093  1.4430
  557MOL0     H76808   5.955   9.172   8.538 -1.8752  0.1632  2.0125
  557MOL0     H76809   5.960   9.438   8.696 -0.7817  0.4746 -0.0053
  557MOL0     H76810   5.833   9.346   8.670 -0.2443  2.0574  1.9777
  557MOL0     H76811   6.097   9.224   8.776  0.0635  1.0831 -2.6226
  557MOL0     H76812   5.939   9.137   8.774 -1.1814 -0.8438  0.7295
  557MOL0     H76813   6.046   9.377   8.928  1.2053 -0.9106  0.8087
  557MOL0     H76814   5.872   9.375   8.911  0.7291  0.0798 -1.0960
  557MOL0     H76815   5.736   9.177   8.991  0.6920  1.9724 -1.9808
  557MOL0     H76816   5.693   8.993   9.258 -1.4263  1.0267 -0.5107
  557MOL0     H76817   5.616   9.146   9.226 -2.7577 -2.1283  0.8331
  557MOL0     H76818   5.753   9.062   9.477 -0.0347 -1.6718 -2.3656
  557MOL0     H76819   5.746   9.234   9.429  2.1040 -0.5895 -2.9978
  557MOL0     H76820   5.505   9.234   9.446 -0.9248 -1.2834 -1.4506
  557MOL0     H76821   5.500   9.062   9.405 -0.2506 -1.3687  1.1035
  557MOL0     H76822   5.467   9.062   9.659 -0.0914 -0.6004 -1.6910
  557MOL0     H76823   5.630   9.031   9.641  3.4972  2.0589 -1.4337
  557MOL0     H76824   5.704   9.364   9.879 -0.8258  0.5261 -0.2576
  557MOL0     H76825   5.705   9.547  10.048  0.3231  2.4744  1.6616
  557MOL0     H76826   5.665   9.452  10.188  1.7499 -2.0055 -1.9855
  557MOL0     H76827   5.555   9.578  10.135 -1.2853  0.1164 -1.8573
  557MOL0     H76828   5.369   9.731  10.318 -1.0826  1.8818  1.9032
  557MOL0     H76829   5.249   9.830  10.477  2.7549  0.6840 -0.4760
  557MOL0     H76830   5.188   9.845  10.749 -1.9112  0.1856  3.3130
  557MOL0     H76831   5.103   9.894  10.602  0.7907  1.6094  0.8763
  557MOL0     H76832   4.866   9.833  10.743 -0.0677  0.2204  0.1027
  557MOL0     H76833   4.965   9.804  10.867  2.2540 -2.5315 -0.6058
  557MOL0     H76834   4.969  10.084  10.731 -0.4244  0.0591  1.1447
  557MOL0     H76835   5.078  10.036  10.868 -1.2955 -0.2645  2.3812
  557MOL0     H76836   4.880  10.008  11.008  0.0748  1.0231  0.8935
  557MOL0     H76837   4.786  10.060  10.865 -0.9169 -0.1873  0.8556
  557MOL0     H76838   4.955  10.216  11.068  0.7517  0.0772  0.4069
  557MOL0     H76839   4.976  10.273  10.909  1.3835  2.3691  4.0945
  557MOL0     H76840   4.706  10.271  10.885  1.2022 -2.6408 -0.0113
  557MOL0     H76841   4.788  10.406  10.971  1.1462 -0.6118 -0.5890
  557MOL0     H76842   4.720  10.323  11.181 -0.7478 -0.2500  1.3008
  557MOL0     H76843   4.694  10.157  11.105 -1.0857 -0.1423 -0.5611
  557MOL0     H76844   4.483  10.287  11.157  1.0976 -0.2293  1.5722
  557MOL0     H76845   4.496  10.240  10.986  3.6854 -0.8362 -1.1312
  557MOL0     H76846   5.170   9.443  10.662  1.0507 -0.3912  1.8427
  557MOL0     H76847   5.307   9.337  10.491  1.1609  0.1037 -1.4354
  557MOL0     H76848   5.243   9.240   9.989 -0.2043 -0.5813 -1.0984
  557MOL0     H76849   5.331   9.168   9.782  0.3546 -2.5443  1.5785
  557MOL0     H76850   5.726   9.882   8.176  1.0636  3.5422  2.6431
  557MOL0     H76851   5.501   9.992   8.151  2.3988 -0.4363 -0.6837
  557MOL0     H76852   5.120  10.116   8.207  2.0792 -3.6932  0.4285
  557MOL0     H76853   4.922  10.262   8.236  1.2065  0.3466  1.8416
  557MOL0     H76854   4.808  10.300   8.490  1.7961  2.2256 -1.2460
  557MOL0     H76855   4.731  10.379   8.354  1.3296 -0.1666  0.6209
  557MOL0     H76856   4.665  10.437   8.583  0.8089 -0.8208 -0.1072
  557MOL0     H76857   4.585  10.290   8.604  2.8497  0.0571  2.0683
  557MOL0     H76858   4.495  10.536   8.460 -0.2859 -0.2372  2.2019
  557MOL0     H76859   4.477  10.398   8.355  0.2849 -0.3002 -0.0588
  557MOL0     H76860   4.280  10.452   8.538  1.2003  1.6479  0.4044
  557MOL0     H76861   4.395  10.375   8.646  1.1255 -0.7878 -1.0768
  557MOL0     H76862   4.204  10.060   8.418  0.5542 -0.3390 -2.6830
  557MOL0     H76863   4.735   9.938   8.440  1.1454 -0.4429 -1.3747
  557MOL0     H76864   5.007   9.781   8.556 -1.1794  0.0870  0.7377
  557MOL0     H76865   4.837   9.784   8.538 -0.9322  2.4888 -0.6124
  557MOL0     H76866   4.946   9.691   8.419 -2.2964  1.4827 -2.6579
  558MOL0     O76867   1.595  10.750   4.273  0.0905 -0.1613  0.4277
  558MOL0     C76868   1.667  10.824   4.332 -0.5599 -0.4749  0.5328
  558MOL0     O76869   1.724  10.794   4.454  1.3817 -0.8183  0.3844
  558MOL0     C76870   1.693  10.673   4.504 -0.7420  0.4635 -0.8662
  558MOL0     C76871   1.789  10.581   4.525  0.1676  0.5347  0.2144
  558MOL0     C76872   1.756  10.474   4.605  0.4685 -0.1481 -0.7215
  558MOL0     C76873   1.621  10.449   4.654 -0.2478  0.0190 -1.5090
  558MOL0     O76874   1.567  10.351   4.732 -0.4226  0.7526 -0.9742
  558MOL0     C76875   1.468  10.268   4.675  0.0688 -0.5391 -0.7321
  558MOL0     C76876   1.500  10.124   4.720 -0.4790 -0.3296 -0.0488
  558MOL0     C76877   1.639  10.070   4.679  0.2421  0.1211  1.0820
  558MOL0     C76878   1.641  10.052   4.522  0.5879  0.4667  0.4308
  558MOL0     C76879   1.584   9.907   4.470  0.2566 -0.5958 -0.5780
  558MOL0     C76880   1.689   9.792   4.504 -0.0942  0.1436  0.8727
  558MOL0     C76881   1.642   9.647   4.467 -0.7119 -0.8743  0.4871
  558MOL0     C76882   1.574   9.582   4.584 -0.4284  0.1850 -1.6142
  558MOL0     N76883   1.467   9.648   4.668 -0.4570  0.0649 -0.2702
  558MOL0     C76884   1.458   9.640   4.802 -0.0869  0.1220 -0.7238
  558MOL0     C76885   1.347   9.705   4.843  0.1977  0.2725  0.3080
  558MOL0     C76886   1.324   9.746   4.975  0.5220 -0.5119 -0.1911
  558MOL0     C76887   1.442   9.766   5.063  0.2041  0.5745  0.4843
  558MOL0     C76888   1.414   9.790   5.204 -0.3432  0.4794  0.8727
  558MOL0     C76889   1.411   9.651   5.279  0.7550 -0.6364 -0.0774
  558MOL0     O76890   1.545   9.600   5.305  0.7630  0.0351 -0.5541
  558MOL0     C76891   1.608   9.639   5.421 -0.0854 -0.1811  0.9748
  558MOL0     C76892   1.723   9.572   5.449  0.5304 -0.3396  0.0121
  558MOL0     C76893   1.805   9.593   5.567  0.5191 -0.3327 -0.4321
  558MOL0     C76894   1.932   9.513   5.565  0.2509 -0.2112 -1.2597
  558MOL0     C76895   1.765   9.693   5.664 -0.7790 -0.1458 -0.0787
  558MOL0     C76896   1.840   9.717   5.790 -1.1322  0.5843  0.6922
  558MOL0     O76897   1.953   9.654   5.811 -0.5637  0.0208 -1.2282
  558MOL0     C76898   2.049   9.701   5.897  0.6842 -0.0830 -1.1207
  558MOL0     C76899   2.165   9.775   5.857  0.2682  0.0694 -0.1807
  558MOL0     C76900   2.263   9.817   5.949 -0.4389 -0.3387  0.0497
  558MOL0     C76901   2.252   9.786   6.085  0.6704  0.2986  0.5171
  558MOL0     O76902   2.351   9.831   6.165  0.3670 -1.0624 -0.0263
  558MOL0     C76903   2.337   9.811   6.308 -1.5580 -0.2479  0.8339
  558MOL0     C76904   2.387   9.663   6.338 -0.7561 -0.1165 -0.8310
  558MOL0     C76905   2.376   9.645   6.502 -0.5882  1.2769  0.7854
  558MOL0     C76906   2.317   9.504   6.525 -0.5165  0.0362 -0.6600
  558MOL0     C76907   2.362   9.440   6.650 -0.5824 -0.2831  1.1019
  558MOL0     C76908   2.281   9.308   6.687  0.4197  0.0924  0.5591
  558MOL0     C76909   2.350   9.236   6.799 -0.0989  0.1862 -0.9324
  558MOL0     C76910   2.349   9.303   6.938  0.7953 -0.5056 -0.4138
  558MOL0    Cl76911   2.426   9.206   7.065  0.0263 -0.2433  0.2887
  558MOL0     C76912   2.135   9.715   6.126  0.1653 -0.4919 -0.2745
  558MOL0     C76913   2.033   9.680   6.040 -0.2899  0.3223 -1.4270
  558MOL0     O76914   1.801   9.808   5.864  0.5683 -0.3212 -0.2178
  558MOL0     C76915   1.646   9.756   5.629 -0.6700 -0.3865  0.6822
  558MOL0     C76916   1.574   9.736   5.508 -0.0146  0.9714  0.4601
  558MOL0     N76917   1.281   9.749   4.729  0.0005 -0.4167  0.5650
  558MOL0     N76918   1.346   9.704   4.624 -0.0730  0.4743 -0.1363
  558MOL0     C76919   1.520  10.539   4.631 -0.4410 -0.0684  0.1402
  558MOL0     C76920   1.563  10.654   4.558  0.0421  0.8465  0.9381
  558MOL0     C76921   1.706  10.957   4.267  0.5327  0.5485  0.2448
  558MOL0     C76922   1.814  11.022   4.318  0.2451  0.0118 -0.2434
  558MOL0     C76923   1.836  11.156   4.279 -0.7530 -0.4780  0.6291
  558MOL0     C76924   1.766  11.221   4.179  0.0372 -0.0973 -0.2481
  558MOL0     O76925   1.802  11.345   4.137 -0.1533  0.5007 -1.2345
  558MOL0     C76926   1.706  11.448   4.155  0.2115 -0.2492  0.6519
  558MOL0     C76927   1.761  11.587   4.187  0.3559  0.3270 -0.1371
  558MOL0     C76928   1.661  11.692   4.153 -0.4370 -0.4184 -1.1235
  558MOL0     C76929   1.728  11.834   4.165  0.1980 -0.0373  0.2540
  558MOL0     C76930   1.834  11.860   4.069 -0.9801 -0.0289  0.3121
  558MOL0     C76931   1.920  11.898   3.988 -0.1685  0.2764 -0.4253
  558MOL0     C76932   1.669  11.136   4.109  0.0150  0.1392  0.4450
  558MOL0     C76933   1.631  11.011   4.159 -0.5485  0.7156 -0.1540
  558MOL0     C76934   1.502  10.955   4.103  0.2122 -0.1682 -0.8388
  558MOL0     H76935   1.892  10.587   4.491 -0.2176  0.8349 -0.9525
  558MOL0     H76936   1.838  10.404   4.618 -0.6961 -1.4812 -0.3695
  558MOL0     H76937   1.460  10.269   4.566 -0.8208  2.3370 -0.7434
  558MOL0     H76938   1.370  10.306   4.705  0.8713  3.1744 -2.2093
  558MOL0     H76939   1.498  10.130   4.830  1.8004  1.3834 -0.0391
  558MOL0     H76940   1.423  10.054   4.687 -3.8804  3.5389 -1.1708
  558MOL0     H76941   1.716  10.144   4.704  1.7696 -0.7252 -0.7958
  558MOL0     H76942   1.664   9.974   4.725  2.1967  0.4176  0.7455
  558MOL0     H76943   1.589  10.132   4.467  0.3776 -0.6105 -0.9825
  558MOL0     H76944   1.738  10.054   4.471 -0.8428 -2.3745 -2.7722
  558MOL0     H76945   1.569   9.918   4.362 -0.7946  0.5620 -0.3395
  558MOL0     H76946   1.487   9.885   4.515 -0.2799 -0.4442 -1.6261
  558MOL0     H76947   1.770   9.813   4.434 -0.0304  1.9088  1.4302
  558MOL0     H76948   1.722   9.805   4.608  0.9194  0.8372  0.4759
  558MOL0     H76949   1.727   9.583   4.443 -0.6995 -0.9009  0.6000
  558MOL0     H76950   1.580   9.665   4.378 -0.0688  3.8431  0.7463
  558MOL0     H76951   1.535   9.482   4.562 -1.5146 -0.2961  1.8337
  558MOL0     H76952   1.659   9.571   4.652 -0.7812  0.1273 -1.1760
  558MOL0     H76953   1.524   9.607   4.882 -1.6125 -0.1645  0.4562
  558MOL0     H76954   1.251   9.675   5.015  1.5227 -3.0952 -2.5646
  558MOL0     H76955   1.285   9.848   4.970  4.3431  1.1096  0.1048
  558MOL0     H76956   1.503   9.676   5.052 -1.6979 -0.7179 -0.1434
  558MOL0     H76957   1.506   9.839   5.013 -0.0033 -0.8277 -2.0415
  558MOL0     H76958   1.490   9.849   5.257  0.8535  1.3951 -1.6944
  558MOL0     H76959   1.328   9.857   5.219  0.3997  1.6428  0.0614
  558MOL0     H76960   1.351   9.668   5.369 -2.1432  0.7330 -2.0910
  558MOL0     H76961   1.357   9.576   5.221 -3.2898  1.3868  0.6650
  558MOL0     H76962   1.751   9.483   5.392  0.1388 -3.0489  3.6755
  558MOL0     H76963   1.935   9.462   5.662 -0.8515  1.3883 -0.3419
  558MOL0     H76964   2.013   9.587   5.565  0.8535 -0.7401  1.5594
  558MOL0     H76965   1.938   9.432   5.492 -1.2731 -2.8658  1.3239
  558MOL0     H76966   2.179   9.799   5.753  2.8431 -0.6694 -0.0724
  558MOL0     H76967   2.354   9.864   5.913 -2.1172  2.4048 -0.9836
  558MOL0     H76968   2.403   9.882   6.359  1.2359 -1.9060 -0.2438
  558MOL0     H76969   2.240   9.830   6.354 -1.3666  3.2438  0.0223
  558MOL0     H76970   2.325   9.591   6.284 -2.2763 -0.1319  0.8443
  558MOL0     H76971   2.491   9.645   6.309 -0.9084 -4.0937  0.4769
  558MOL0     H76972   2.318   9.718   6.558 -0.7474 -0.1549  2.6037
  558MOL0     H76973   2.474   9.657   6.550  0.2645 -0.7101 -0.3132
  558MOL0     H76974   2.340   9.438   6.441 -0.5160 -1.6680  0.6286
  558MOL0     H76975   2.208   9.497   6.533 -0.2907 -4.4524  1.7461
  558MOL0     H76976   2.469   9.417   6.648 -0.1977  1.3049  1.7141
  558MOL0     H76977   2.346   9.511   6.732 -4.9171 -0.9833  1.0522
  558MOL0     H76978   2.283   9.241   6.600  2.2382 -1.2319  1.5577
  558MOL0     H76979   2.177   9.334   6.709 -0.4702 -2.7035  0.0143
  558MOL0     H76980   2.457   9.231   6.776  0.4846 -1.9830  1.6884
  558MOL0     H76981   2.314   9.133   6.801 -1.8791  0.7836  0.1296
  558MOL0     H76982   2.247   9.325   6.971 -0.1736  0.3248 -3.6143
  558MOL0     H76983   2.397   9.402   6.943  2.5208 -1.1807 -2.4586
  558MOL0     H76984   2.127   9.689   6.231  0.6711  0.0293 -0.1007
  558MOL0     H76985   1.942   9.627   6.066  1.2974 -1.4190  0.8872
  558MOL0     H76986   1.633   9.847   5.687 -0.2610  0.1101  0.0217
  558MOL0     H76987   1.488   9.802   5.499  0.3854  1.9753  3.0194
  558MOL0     H76988   1.418  10.530   4.669 -1.2630 -1.1081 -2.1605
  558MOL0     H76989   1.485  10.725   4.532  0.1552 -0.2113 -3.0329
  558MOL0     H76990   1.865  10.974   4.401  0.5915 -1.0292 -1.0319
  558MOL0     H76991   1.902  11.223   4.333 -2.1302  2.5779 -1.1625
  558MOL0     H76992   1.648  11.438   4.062  1.8700 -1.8513 -0.2928
  558MOL0     H76993   1.638  11.432   4.239 -3.4046  0.9782 -1.7584
  558MOL0     H76994   1.854  11.596   4.129 -1.3630 -0.1052 -3.1339
  558MOL0     H76995   1.788  11.597   4.293  0.6862 -1.7767  0.0137
  558MOL0     H76996   1.638  11.681   4.046 -0.2810  2.4617 -1.5473
  558MOL0     H76997   1.577  11.678   4.221  1.3814 -0.5091  1.2287
  558MOL0     H76998   1.768  11.840   4.266 -0.2805  2.5041  0.3728
  558MOL0     H76999   1.653  11.911   4.144  1.5621  0.6835 -2.4175
  558MOL0     H77000   1.976  11.938   3.906 -1.2351 -1.9421 -2.3634
  558MOL0     H77001   1.616  11.186   4.029  1.4426  3.3699  1.3720
  558MOL0     H77002   1.475  11.008   4.011 -0.9029 -0.2325 -0.5723
  558MOL0     H77003   1.512  10.850   4.074  1.7430 -1.6785  4.1164
  558MOL0     H77004   1.419  10.973   4.173  1.9986 -0.8036  1.5976
  559MOL0     O77005   4.252   1.699   8.214  0.7905  0.8913 -1.6780
  559MOL0     C77006   4.233   1.781   8.130 -0.5157 -0.8521  0.3933
  559MOL0     O77007   4.111   1.823   8.079 -0.8851 -0.2452  0.2684
  559MOL0     C77008   3.996   1.763   8.111 -0.2285  0.2710 -0.1776
  559MOL0     C77009   3.899   1.756   8.013 -0.3068 -0.0615 -0.0396
  559MOL0     C77010   3.783   1.688   8.027 -0.0474 -0.2689  0.7697
  559MOL0     C77011   3.734   1.650   8.143 -0.2458  0.4221 -0.5214
  559MOL0     O77012   3.620   1.593   8.176 -0.1187  0.3196 -0.4595
  559MOL0     C77013   3.526   1.556   8.076  0.3768  1.2371 -0.2366
  559MOL0     C77014   3.405   1.496   8.134  0.4839 -0.6446 -0.6474
  559MOL0     C77015   3.342   1.398   8.039 -0.4082  0.3858 -0.3718
  559MOL0     C77016   3.313   1.445   7.902  0.1211 -0.0317 -0.4296
  559MOL0     C77017   3.268   1.336   7.813 -0.3702 -0.1524 -0.5611
  559MOL0     C77018   3.374   1.243   7.763  0.4652 -0.2070 -0.3579
  559MOL0     C77019   3.324   1.108   7.736  0.2762 -0.8968  0.6200
  559MOL0     C77020   3.190   1.117   7.652  0.0134 -0.3221  0.2576
  559MOL0     N77021   3.183   0.990   7.568  0.5127  0.3241 -0.2194
  559MOL0     C77022   3.167   0.867   7.624  0.1326 -0.8470 -0.6724
  559MOL0     C77023   3.122   0.794   7.528 -0.1824  0.2983 -0.3677
  559MOL0     C77024   3.082   0.655   7.538  0.9587  0.1576 -0.6944
  559MOL0     C77025   2.948   0.654   7.612 -1.2090 -0.3560  0.3088
  559MOL0     C77026   2.907   0.511   7.648 -0.2379 -0.6538  0.4260
  559MOL0     C77027   2.788   0.525   7.736  0.0215  0.7271 -0.1762
  559MOL0     O77028   2.743   0.390   7.763  0.4602  0.1082  0.3851
  559MOL0     C77029   2.622   0.378   7.820 -0.4270  0.0699 -0.2508
  559MOL0     C77030   2.548   0.261   7.801  0.4825 -0.2418 -0.8288
  559MOL0     C77031   2.415   0.241   7.848 -0.5104 -0.2761  0.0707
  559MOL0     C77032   2.355   0.107   7.810 -0.2209  0.6191  0.0288
  559MOL0     C77033   2.353   0.353   7.916  0.5732  0.4976  0.2196
  559MOL0     C77034   2.214   0.354   7.965 -0.0129  0.4710 -0.1556
  559MOL0     O77035   2.178   0.436   8.068 -0.4180  0.4962 -0.6973
  559MOL0     C77036   2.047   0.464   8.115  0.2925  0.5507  1.2875
  559MOL0     C77037   2.037   0.558   8.218 -0.4752  0.3022  0.3544
  559MOL0     C77038   1.920   0.593   8.275 -0.6343 -1.0898 -0.0015
  559MOL0     C77039   1.795   0.551   8.222 -0.0341  0.0273  0.3036
  559MOL0     O77040   1.670   0.590   8.262  0.3788  0.0674 -0.7174
  559MOL0     C77041   1.676   0.734   8.288 -0.0818 -0.1840  0.5758
  559MOL0     C77042   1.536   0.789   8.326 -0.6131  0.7352  0.6253
  559MOL0     C77043   1.469   0.735   8.448 -0.3195 -0.5030  0.0235
  559MOL0     C77044   1.527   0.797   8.583  0.5435 -0.6770 -0.2846
  559MOL0     C77045   1.418   0.821   8.686 -0.3070 -0.8608  0.2000
  559MOL0     C77046   1.400   0.703   8.781 -0.1189  0.1114 -0.5457
  559MOL0     C77047   1.315   0.757   8.900 -0.2591 -0.1104 -0.9075
  559MOL0     C77048   1.278   0.656   9.012  0.0391 -0.4366  0.5126
  559MOL0    Cl77049   1.387   0.681   9.155 -0.3085  0.2042  0.3517
  559MOL0     C77050   1.800   0.449   8.129  0.2803  0.3905  0.2241
  559MOL0     C77051   1.926   0.408   8.075 -0.1298 -0.1632  0.5378
  559MOL0     O77052   2.138   0.282   7.896 -1.0342 -0.7681 -0.4239
  559MOL0     C77053   2.431   0.463   7.941 -0.0586  1.1941 -0.3012
  559MOL0     C77054   2.559   0.482   7.884  0.9186  0.4445  0.4311
  559MOL0     N77055   3.100   0.871   7.417  0.4507  0.8962  0.7621
  559MOL0     N77056   3.147   0.992   7.440  0.2147  0.3576  0.4354
  559MOL0     C77057   3.826   1.647   8.245  0.1125  0.8949 -0.1564
  559MOL0     C77058   3.958   1.699   8.231 -0.6477  0.6144  0.3906
  559MOL0     C77059   4.351   1.859   8.071  0.0113  0.2275 -0.4388
  559MOL0     C77060   4.318   1.947   7.963  1.1494 -0.2141 -0.9425
  559MOL0     C77061   4.417   2.024   7.900  0.2125  0.0932  0.5556
  559MOL0     C77062   4.547   2.024   7.938 -1.2133  0.2377 -0.8219
  559MOL0     O77063   4.624   2.122   7.890  1.2491  0.5742  0.9528
  559MOL0     C77064   4.738   2.153   7.968 -0.4052  0.1653  0.6470
  559MOL0     C77065   4.787   2.301   7.944 -0.4964  0.2474  0.1440
  559MOL0     C77066   4.850   2.326   7.804  0.6299  0.0348  0.1447
  559MOL0     C77067   4.898   2.474   7.788 -0.0181  0.2779 -0.0380
  559MOL0     C77068   4.920   2.491   7.644 -0.3043  0.1303  0.3159
  559MOL0     C77069   4.921   2.493   7.522  0.7134  0.1136  0.1337
  559MOL0     C77070   4.585   1.936   8.042  0.8454  0.0594  0.5498
  559MOL0     C77071   4.488   1.855   8.109 -1.0396  0.8186 -0.0411
  559MOL0     C77072   4.535   1.747   8.215  0.1486  0.0629  1.0143
  559MOL0     H77073   3.930   1.804   7.920 -0.7236  0.5468  0.1273
  559MOL0     H77074   3.721   1.671   7.940 -2.7984  3.6114  1.7172
  559MOL0     H77075   3.564   1.494   7.995  0.1449  1.0162 -0.1801
  559MOL0     H77076   3.479   1.638   8.022 -3.2116 -0.8434 -0.6240
  559MOL0     H77077   3.429   1.449   8.230  2.4122  1.7466  0.1186
  559MOL0     H77078   3.330   1.572   8.158  3.3417  1.5604  2.1210
  559MOL0     H77079   3.404   1.308   8.032  1.0552  1.4304 -1.3569
  559MOL0     H77080   3.244   1.362   8.071 -0.2089  0.0125 -0.1798
  559MOL0     H77081   3.243   1.529   7.909 -0.7285 -0.8653  2.2123
  559MOL0     H77082   3.401   1.489   7.853  0.9668 -0.5241  0.6101
  559MOL0     H77083   3.226   1.376   7.720 -3.7035 -3.6520 -0.8322
  559MOL0     H77084   3.186   1.287   7.867  0.8346 -2.2898 -0.5709
  559MOL0     H77085   3.417   1.293   7.676  2.6305 -3.6186 -1.4660
  559MOL0     H77086   3.452   1.224   7.838  0.0550  1.2189  0.4648
  559MOL0     H77087   3.307   1.072   7.837  1.9034 -0.5556  1.0423
  559MOL0     H77088   3.383   1.045   7.670 -1.6712 -1.1095 -1.0429
  559MOL0     H77089   3.092   1.117   7.703  0.7970 -3.1355  1.9976
  559MOL0     H77090   3.211   1.205   7.592  4.3040 -1.6906 -0.5566
  559MOL0     H77091   3.197   0.838   7.724 -1.5516 -1.2121 -0.2417
  559MOL0     H77092   3.152   0.589   7.590  1.5611  1.4815  0.2154
  559MOL0     H77093   3.067   0.618   7.436  0.8577  0.6857 -0.8775
  559MOL0     H77094   2.965   0.707   7.706 -1.1116  1.9799 -0.9421
  559MOL0     H77095   2.866   0.706   7.561  0.3813 -1.6906 -4.0464
  559MOL0     H77096   2.873   0.464   7.555  0.6045  2.0718 -1.3964
  559MOL0     H77097   2.991   0.456   7.691  0.3393 -1.5821 -1.7606
  559MOL0     H77098   2.816   0.580   7.827 -0.5071 -1.6699  1.5429
  559MOL0     H77099   2.704   0.566   7.680 -1.2327  0.1136  1.1717
  559MOL0     H77100   2.601   0.178   7.757  0.1670 -0.2892 -1.1252
  559MOL0     H77101   2.293   0.069   7.891  1.9120 -1.4335  0.8071
  559MOL0     H77102   2.420   0.022   7.789 -1.2978 -0.0122 -0.8609
  559MOL0     H77103   2.299   0.119   7.716 -1.0074  0.2021  0.4290
  559MOL0     H77104   2.130   0.594   8.262  0.7058 -2.2214  0.0736
  559MOL0     H77105   1.919   0.672   8.349 -3.0388 -2.5883  1.7007
  559MOL0     H77106   1.735   0.757   8.378  0.1824  1.6382 -0.0104
  559MOL0     H77107   1.724   0.773   8.198 -1.5359  0.5251  0.0896
  559MOL0     H77108   1.535   0.898   8.327 -0.0625  0.8269 -1.7487
  559MOL0     H77109   1.471   0.762   8.241  0.9210  0.6802 -0.5740
  559MOL0     H77110   1.490   0.628   8.451  0.7859 -0.2924  0.7961
  559MOL0     H77111   1.362   0.756   8.449 -0.1068  0.6457  0.0281
  559MOL0     H77112   1.583   0.887   8.558  3.2941 -1.6195  1.9208
  559MOL0     H77113   1.598   0.726   8.626  0.4242  0.4333  1.8877
  559MOL0     H77114   1.455   0.910   8.738  1.8329 -0.0689 -2.4579
  559MOL0     H77115   1.323   0.850   8.640 -1.2088 -0.4820  2.2106
  559MOL0     H77116   1.493   0.657   8.816 -0.7447  0.1770  1.3090
  559MOL0     H77117   1.339   0.622   8.741  0.8002 -1.1933  0.6059
  559MOL0     H77118   1.224   0.799   8.857  0.5394  1.2659 -1.3469
  559MOL0     H77119   1.373   0.836   8.951 -3.0478  2.4308 -1.3690
  559MOL0     H77120   1.290   0.556   8.968 -0.8094  0.4478 -1.9249
  559MOL0     H77121   1.175   0.674   9.041  0.6044  2.8694  0.8131
  559MOL0     H77122   1.723   0.386   8.084  0.7802  0.1517 -0.3080
  559MOL0     H77123   1.935   0.323   8.008  2.4662  2.3968 -2.6847
  559MOL0     H77124   2.382   0.547   7.989  0.1352  1.0923  0.0793
  559MOL0     H77125   2.594   0.581   7.913 -1.9091  1.5514  0.4133
  559MOL0     H77126   3.807   1.593   8.337  3.5256 -0.8076 -0.2873
  559MOL0     H77127   4.011   1.701   8.326  1.0121  0.1576 -0.4849
  559MOL0     H77128   4.218   1.961   7.923  0.9863 -0.1287 -0.5004
  559MOL0     H77129   4.394   2.086   7.814  0.0556 -2.2203 -1.1601
  559MOL0     H77130   4.718   2.135   8.074  0.5843 -3.5114  0.3364
  559MOL0     H77131   4.815   2.078   7.948 -0.2756  0.4638  0.0097
  559MOL0     H77132   4.860   2.308   8.025  0.5666 -3.7927 -0.2293
  559MOL0     H77133   4.703   2.369   7.962 -0.8315 -0.7338  2.7866
  559MOL0     H77134   4.935   2.259   7.788 -0.9147 -2.3527  1.3886
  559MOL0     H77135   4.782   2.305   7.720 -0.9827  0.5695  1.2651
  559MOL0     H77136   4.998   2.482   7.831 -0.9469 -1.6569  2.8322
  559MOL0     H77137   4.831   2.549   7.830 -2.1715 -0.0884 -2.5172
  559MOL0     H77138   4.923   2.490   7.415 -2.4324  1.7625 -0.1163
  559MOL0     H77139   4.690   1.936   8.067  1.0996  2.7785 -0.1250
  559MOL0     H77140   4.488   1.764   8.313  5.1491  3.4700  3.2708
  559MOL0     H77141   4.519   1.643   8.187 -0.1576 -0.2457  2.2432
  559MOL0     H77142   4.643   1.765   8.224  0.1605  1.7292 -1.4161
  560MOL0     O77143   6.227   8.168   4.352 -0.0204 -0.1850  0.0080
  560MOL0     C77144   6.127   8.197   4.418  0.7873  0.7736 -0.0042
  560MOL0     O77145   6.074   8.117   4.514  0.4451  0.3273 -1.1348
  560MOL0     C77146   6.127   7.993   4.539  0.3755  0.1126  0.2480
  560MOL0     C77147   6.255   7.972   4.593  0.3407  0.1601 -0.0347
  560MOL0     C77148   6.284   7.834   4.625 -0.4706  0.0139 -0.5026
  560MOL0     C77149   6.197   7.732   4.592  0.1028  0.2515  0.0541
  560MOL0     O77150   6.227   7.598   4.600  0.5777  0.2982 -0.3233
  560MOL0     C77151   6.164   7.527   4.712  0.4287  0.4032 -0.3139
  560MOL0     C77152   6.136   7.389   4.654  0.6038  0.4883 -0.6769
  560MOL0     C77153   6.100   7.282   4.758 -0.8750  0.9410  1.4025
  560MOL0     C77154   6.103   7.139   4.703  0.7306  0.3317  0.8579
  560MOL0     C77155   5.977   7.086   4.655 -0.5681  0.0696 -0.6677
  560MOL0     C77156   5.995   6.935   4.617  0.8729  0.2157  0.2350
  560MOL0     C77157   5.865   6.888   4.560  0.6712  0.0835  0.4601
  560MOL0     C77158   5.762   6.865   4.667 -0.9260  0.0236 -1.1527
  560MOL0     N77159   5.679   6.979   4.703 -0.3612  0.2606  0.0856
  560MOL0     C77160   5.615   7.054   4.603  0.4114  0.4388 -0.7370
  560MOL0     C77161   5.541   7.147   4.680  0.3052 -0.7538  0.7918
  560MOL0     C77162   5.468   7.264   4.617  0.3537 -0.1445 -0.8679
  560MOL0     C77163   5.381   7.347   4.707  0.3372 -0.2599  0.7638
  560MOL0     C77164   5.300   7.451   4.625  1.5718 -0.6104 -0.3355
  560MOL0     C77165   5.255   7.575   4.710  0.1058  0.5145 -0.4406
  560MOL0     O77166   5.345   7.686   4.710  0.6826  0.4802  0.3782
  560MOL0     C77167   5.307   7.806   4.756 -0.0029 -1.0816 -0.2936
  560MOL0     C77168   5.202   7.882   4.709 -0.3056  0.4905 -0.6589
  560MOL0     C77169   5.167   8.006   4.767 -0.5014 -0.1926 -0.5704
  560MOL0     C77170   5.035   8.075   4.718 -0.2379 -0.6750 -0.8181
  560MOL0     C77171   5.243   8.054   4.876 -0.4296  0.3653 -0.3594
  560MOL0     C77172   5.213   8.174   4.951 -0.5863  0.8197  0.8506
  560MOL0     O77173   5.280   8.180   5.070  0.2249 -0.1927 -0.1505
  560MOL0     C77174   5.310   8.303   5.126  0.6363 -0.3017 -0.0623
  560MOL0     C77175   5.348   8.413   5.042 -0.6193 -0.5176 -0.3623
  560MOL0     C77176   5.361   8.537   5.095  0.6936  0.6597  0.3813
  560MOL0     C77177   5.331   8.568   5.231 -0.0112 -0.7627 -0.2498
  560MOL0     O77178   5.355   8.705   5.267 -0.3286  0.7970  0.1806
  560MOL0     C77179   5.333   8.744   5.401  0.1242  0.0505 -1.0673
  560MOL0     C77180   5.317   8.894   5.414 -0.0474  0.5002  0.3605
  560MOL0     C77181   5.422   8.967   5.340  0.1962 -0.4577  0.1831
  560MOL0     C77182   5.405   9.114   5.340  1.1964 -0.7503 -0.1126
  560MOL0     C77183   5.540   9.183   5.301 -0.1534 -0.7353 -1.2322
  560MOL0     C77184   5.560   9.197   5.151 -1.4053 -0.6764 -0.8326
  560MOL0     C77185   5.486   9.305   5.078  0.1090  1.2827  1.1595
  560MOL0     C77186   5.500   9.448   5.126 -0.7941 -0.6563 -0.8735
  560MOL0    Cl77187   5.479   9.563   4.993  0.0926 -0.1037  0.0954
  560MOL0     C77188   5.301   8.462   5.316 -0.2690 -0.1792 -0.3421
  560MOL0     C77189   5.291   8.335   5.258 -0.7170 -0.4039 -0.1632
  560MOL0     O77190   5.161   8.268   4.889  1.7755 -0.4830 -1.0223
  560MOL0     C77191   5.346   7.968   4.930  0.3060 -0.7453 -0.2641
  560MOL0     C77192   5.382   7.849   4.864  0.0264 -0.9821 -1.1091
  560MOL0     N77193   5.544   7.122   4.814  0.0648  0.2466 -0.7788
  560MOL0     N77194   5.626   7.019   4.825  0.4623 -0.0838  0.0555
  560MOL0     C77195   6.082   7.760   4.525 -0.6395 -0.7693  0.3443
  560MOL0     C77196   6.038   7.887   4.517  0.1256 -0.7430  0.4081
  560MOL0     C77197   6.045   8.320   4.392 -0.1041  0.4655 -0.2096
  560MOL0     C77198   5.905   8.313   4.432 -0.0127  0.4250  0.4846
  560MOL0     C77199   5.822   8.425   4.409  0.3791 -0.9221  0.4970
  560MOL0     C77200   5.877   8.547   4.345  0.0166 -0.6303 -0.4846
  560MOL0     O77201   5.814   8.668   4.321 -0.2213 -0.3027 -0.3955
  560MOL0     C77202   5.678   8.659   4.291  0.8606 -1.3034  0.6566
  560MOL0     C77203   5.642   8.768   4.196  0.1545  0.1816  0.6420
  560MOL0     C77204   5.488   8.794   4.205  1.2154  0.4297  0.4430
  560MOL0     C77205   5.448   8.894   4.106 -1.0788 -0.2037 -1.3412
  560MOL0     C77206   5.527   9.019   4.122 -1.0924 -0.8888 -0.9140
  560MOL0     C77207   5.602   9.118   4.138 -0.0533  0.4997  0.7088
  560MOL0     C77208   6.006   8.550   4.311  0.0753 -0.1424  0.2524
  560MOL0     C77209   6.091   8.437   4.320  0.0494 -0.9144 -0.7449
  560MOL0     C77210   6.226   8.439   4.251  0.0488  0.1353 -0.8618
  560MOL0     H77211   6.329   8.051   4.603 -1.5195  1.8954  0.6251
  560MOL0     H77212   6.380   7.820   4.673 -0.2882 -0.1698 -0.9240
  560MOL0     H77213   6.071   7.580   4.735 -0.8721 -2.3215  1.2900
  560MOL0     H77214   6.230   7.534   4.799 -0.0551  2.8285 -0.0733
  560MOL0     H77215   6.052   7.401   4.584 -0.3415 -0.1319  0.3112
  560MOL0     H77216   6.224   7.359   4.597  0.5144 -0.7717 -0.1809
  560MOL0     H77217   6.186   7.280   4.826 -0.3702  1.3578  0.7900
  560MOL0     H77218   6.006   7.313   4.805 -1.5908 -0.2447  0.7836
  560MOL0     H77219   6.181   7.123   4.628 -1.7330 -1.3248 -1.5017
  560MOL0     H77220   6.127   7.069   4.784 -1.2771 -1.2387  0.1859
  560MOL0     H77221   5.952   7.150   4.571  2.2568  3.9262  1.0804
  560MOL0     H77222   5.897   7.099   4.729  0.6649  2.0006  0.4468
  560MOL0     H77223   6.073   6.934   4.541 -1.1666  0.7709 -1.9806
  560MOL0     H77224   6.011   6.876   4.708 -0.7238  1.8686  1.6643
  560MOL0     H77225   5.899   6.792   4.521 -1.2943 -2.7830  5.0763
  560MOL0     H77226   5.835   6.957   4.480 -2.0699  0.3458  1.6007
  560MOL0     H77227   5.695   6.786   4.630 -2.5036  1.1567 -0.8452
  560MOL0     H77228   5.804   6.831   4.762 -0.5196  1.6350 -0.7249
  560MOL0     H77229   5.617   7.037   4.496  3.7704  1.7069 -0.9967
  560MOL0     H77230   5.416   7.238   4.524 -0.5431 -0.3625 -0.3227
  560MOL0     H77231   5.553   7.320   4.577  1.5044 -0.0276  1.5489
  560MOL0     H77232   5.308   7.288   4.764 -0.6783  1.1379  0.9628
  560MOL0     H77233   5.444   7.387   4.787  0.2407 -0.4484  0.9346
  560MOL0     H77234   5.351   7.502   4.543  0.9640  0.4853 -0.0432
  560MOL0     H77235   5.210   7.403   4.584  2.3814 -0.9204 -1.8191
  560MOL0     H77236   5.161   7.621   4.677  0.6230  1.1154 -1.0982
  560MOL0     H77237   5.229   7.539   4.810  0.8592  2.9031  0.6856
  560MOL0     H77238   5.141   7.851   4.624  1.8214 -0.2287 -2.0295
  560MOL0     H77239   5.037   8.181   4.693  2.4819 -0.5709 -0.3790
  560MOL0     H77240   4.950   8.065   4.786  0.6147 -2.5451  0.0432
  560MOL0     H77241   5.009   8.025   4.624  0.3819 -0.8433 -0.9045
  560MOL0     H77242   5.351   8.406   4.934 -2.8409 -0.3126 -0.4723
  560MOL0     H77243   5.378   8.622   5.029  0.6246 -2.6541 -4.4067
  560MOL0     H77244   5.248   8.695   5.449  1.9194 -2.0705  0.1883
  560MOL0     H77245   5.409   8.707   5.470  0.3933  2.5033  0.0267
  560MOL0     H77246   5.216   8.928   5.388  0.7410  0.4517 -3.4164
  560MOL0     H77247   5.325   8.910   5.522  3.0964  1.4995  0.0891
  560MOL0     H77248   5.424   8.950   5.232 -2.0457  2.8154 -0.5249
  560MOL0     H77249   5.519   8.942   5.384  1.1790  0.2174 -1.4688
  560MOL0     H77250   5.352   9.141   5.432  0.6969 -2.8355  0.2658
  560MOL0     H77251   5.323   9.137   5.272  1.3906  2.0795  0.4615
  560MOL0     H77252   5.532   9.280   5.352 -2.5583 -1.2766 -0.4850
  560MOL0     H77253   5.619   9.128   5.352  0.3123  3.1442  2.8948
  560MOL0     H77254   5.548   9.097   5.108  1.6853 -3.0968  3.2280
  560MOL0     H77255   5.669   9.203   5.138 -1.4064 -0.7997 -0.9087
  560MOL0     H77256   5.379   9.282   5.073  0.3942 -0.2973  1.8497
  560MOL0     H77257   5.526   9.295   4.977  0.2251  0.0598  1.3105
  560MOL0     H77258   5.597   9.472   5.170 -1.2249  0.8621 -0.6798
  560MOL0     H77259   5.423   9.459   5.202 -1.8679 -0.1585 -1.9902
  560MOL0     H77260   5.277   8.475   5.421 -0.4594  0.0934 -0.4180
  560MOL0     H77261   5.286   8.254   5.330 -2.6043 -0.0578  0.1507
  560MOL0     H77262   5.419   7.995   5.006 -1.0081  0.2368  0.7004
  560MOL0     H77263   5.469   7.800   4.905  1.0168  1.6746  0.2323
  560MOL0     H77264   6.007   7.692   4.485 -2.2954  1.2227 -0.0824
  560MOL0     H77265   5.945   7.899   4.463  0.9974 -2.7152 -1.7068
  560MOL0     H77266   5.866   8.222   4.476  4.0266 -1.6021  0.3120
  560MOL0     H77267   5.718   8.425   4.441  0.9335  0.7083  2.4439
  560MOL0     H77268   5.646   8.570   4.237 -3.0590 -0.1380  0.7507
  560MOL0     H77269   5.619   8.664   4.384  1.9141 -3.4592  1.5107
  560MOL0     H77270   5.680   8.722   4.104 -0.9713 -3.0858  1.6884
  560MOL0     H77271   5.702   8.856   4.223 -0.0138  1.1811 -1.9657
  560MOL0     H77272   5.442   8.698   4.182  0.6845 -0.2378  3.8134
  560MOL0     H77273   5.456   8.831   4.303  1.1545  0.6044  0.3579
  560MOL0     H77274   5.341   8.909   4.122 -0.9663 -1.6001  1.3012
  560MOL0     H77275   5.479   8.853   4.009  2.1274  2.7609 -1.7569
  560MOL0     H77276   5.657   9.208   4.159  2.1111 -0.1394 -1.6897
  560MOL0     H77277   6.037   8.649   4.277  1.6486  0.3111  2.6859
  560MOL0     H77278   6.249   8.544   4.232  0.3546  0.1866 -0.2273
  560MOL0     H77279   6.293   8.394   4.325 -0.3564  0.5586 -0.2350
  560MOL0     H77280   6.232   8.396   4.151 -0.2296  0.6139 -1.0847
  561MOL0     O77281  11.254   4.744  11.378 -0.1648 -0.0039  0.6298
  561MOL0     C77282  11.200   4.639  11.374  0.9355  0.8183  0.2687
  561MOL0     O77283  11.219   4.539  11.277 -0.1533  0.0608  0.4158
  561MOL0     C77284  11.321   4.537  11.182  0.0925 -0.3258 -0.4362
  561MOL0     C77285  11.408   4.646  11.154 -0.3059 -0.4639 -1.3987
  561MOL0     C77286  11.507   4.631  11.054  0.6741 -1.0594 -0.3962
  561MOL0     C77287  11.525   4.508  10.982 -0.7106  0.4088  0.0886
  561MOL0     O77288  11.637   4.500  10.897  0.4427 -0.2913 -0.0555
  561MOL0     C77289  11.608   4.425  10.774  0.5376  0.3394  0.6599
  561MOL0     C77290  11.743   4.363  10.749  0.4174  0.4569 -0.6404
  561MOL0     C77291  11.730   4.256  10.639 -0.9872  0.7300 -1.0987
  561MOL0     C77292  11.859   4.180  10.613 -1.1129  0.6388  0.1925
  561MOL0     C77293  11.979   4.269  10.565 -0.1713 -0.8801  0.4134
  561MOL0     C77294  12.105   4.189  10.534  0.1081 -0.0111 -0.1646
  561MOL0     C77295  12.208   4.273  10.443  1.0802 -0.2787 -0.3522
  561MOL0     C77296  12.247   4.407  10.516 -0.3106 -0.9140  1.1977
  561MOL0     N77297  12.336   4.376  10.622 -0.4248  0.1886 -0.8808
  561MOL0     C77298  12.294   4.339  10.744 -0.0535  0.3547  0.0497
  561MOL0     C77299  12.413   4.333  10.812 -0.6161 -0.7957  0.6245
  561MOL0     C77300  12.419   4.293  10.957 -0.5057  0.6723  0.2666
  561MOL0     C77301  12.387   4.143  10.986 -0.1440 -0.4991  0.9564
  561MOL0     C77302  12.519   4.065  10.996 -0.3050 -0.1185  0.5731
  561MOL0     C77303  12.497   3.919  10.961 -0.6408 -0.5164 -0.4190
  561MOL0     O77304  12.601   3.874  10.876  0.2879 -0.2552  0.1608
  561MOL0     C77305  12.596   3.740  10.834 -0.5136 -0.4126 -0.1591
  561MOL0     C77306  12.503   3.648  10.865 -0.0198  0.6447 -0.0419
  561MOL0     C77307  12.507   3.516  10.814  0.9656  0.9825  0.3668
  561MOL0     C77308  12.401   3.419  10.864 -0.1530  0.7462 -0.0651
  561MOL0     C77309  12.617   3.474  10.739 -0.0009  0.6204  0.1452
  561MOL0     C77310  12.639   3.338  10.685  0.8138  0.0088  0.3174
  561MOL0     O77311  12.743   3.329  10.585 -0.4322  0.1412  0.6233
  561MOL0     C77312  12.798   3.201  10.563 -0.1654  0.4337  0.0842
  561MOL0     C77313  12.942   3.199  10.585  0.2054 -0.4968  0.6643
  561MOL0     C77314  13.017   3.080  10.556 -0.3244  0.5115  1.4203
  561MOL0     C77315  12.954   2.972  10.487  0.3706 -0.5302 -0.7415
  561MOL0     O77316  13.028   2.866  10.446  1.5370 -0.8592 -0.3253
  561MOL0     C77317  12.958   2.780  10.350 -0.8748 -0.3367 -0.5064
  561MOL0     C77318  13.061   2.681  10.301 -0.9699  0.4131  0.3820
  561MOL0     C77319  13.141   2.761  10.199 -0.5355 -0.2606 -0.7875
  561MOL0     C77320  13.265   2.688  10.161  1.3270  0.8437 -0.6031
  561MOL0     C77321  13.346   2.748  10.041 -0.2233 -0.2055 -0.9524
  561MOL0     C77322  13.279   2.720   9.901  0.6787  0.5034  0.7249
  561MOL0     C77323  13.331   2.800   9.790 -0.5456 -0.4661 -1.0098
  561MOL0     C77324  13.253   2.763   9.665 -0.4083 -0.9315 -0.5129
  561MOL0    Cl77325  13.103   2.857   9.669  0.1948  0.0324 -0.0979
  561MOL0     C77326  12.812   2.977  10.487 -0.0188 -0.5926 -0.3652
  561MOL0     C77327  12.729   3.090  10.513 -0.7557  0.2413 -0.4943
  561MOL0     O77328  12.577   3.242  10.740 -0.3118  0.9132 -0.8180
  561MOL0     C77329  12.710   3.576  10.702 -0.6612 -0.4224  0.4624
  561MOL0     C77330  12.700   3.707  10.748  0.1242 -0.7882  0.2302
  561MOL0     N77331  12.515   4.358  10.730  0.2031  0.1290  0.2021
  561MOL0     N77332  12.467   4.393  10.616 -1.1588 -0.8699  0.6327
  561MOL0     C77333  11.431   4.412  11.008 -0.5554 -0.1971  0.5196
  561MOL0     C77334  11.341   4.424  11.111 -0.2642 -0.0327 -0.1721
  561MOL0     C77335  11.098   4.606  11.480 -0.6051  0.6089 -0.2151
  561MOL0     C77336  10.996   4.515  11.454  0.1203 -0.2188  0.1786
  561MOL0     C77337  10.906   4.468  11.550 -0.7387 -0.5485 -0.0076
  561MOL0     C77338  10.912   4.531  11.668  0.7130 -0.1715 -0.4941
  561MOL0     O77339  10.820   4.491  11.766 -0.2977  0.1962  0.5494
  561MOL0     C77340  10.895   4.426  11.874  0.2283 -1.3784  1.1892
  561MOL0     C77341  10.797   4.365  11.978  0.5150 -0.5094  0.2500
  561MOL0     C77342  10.874   4.274  12.080 -0.5027  0.1002  0.2565
  561MOL0     C77343  10.793   4.255  12.213 -0.7616  0.2390 -0.6551
  561MOL0     C77344  10.754   4.381  12.275  0.5481  0.3503  0.0812
  561MOL0     C77345  10.727   4.482  12.333  0.6934 -0.6749 -0.0589
  561MOL0     C77346  11.008   4.629  11.704 -0.3100  0.3521 -1.3363
  561MOL0     C77347  11.103   4.668  11.614 -0.1309  0.0023  1.0053
  561MOL0     C77348  11.208   4.755  11.664  0.0686  0.4536  0.0254
  561MOL0     H77349  11.409   4.743  11.203  1.6310 -0.5965 -1.1133
  561MOL0     H77350  11.583   4.708  11.045 -0.2130  0.0428  1.1314
  561MOL0     H77351  11.582   4.497  10.695  3.7950  1.1420  0.1833
  561MOL0     H77352  11.531   4.348  10.772  3.2279 -2.5322  0.9484
  561MOL0     H77353  11.819   4.440  10.733  2.1334 -0.7168  1.3332
  561MOL0     H77354  11.775   4.302  10.834 -2.1017 -1.3881 -0.9214
  561MOL0     H77355  11.658   4.178  10.664  0.3255 -0.5520 -1.2051
  561MOL0     H77356  11.706   4.293  10.539 -2.7228 -0.4208 -1.1549
  561MOL0     H77357  11.878   4.138  10.712 -3.4519  2.3426  1.4721
  561MOL0     H77358  11.843   4.101  10.539  0.8006  0.3261  0.0747
  561MOL0     H77359  11.989   4.346  10.642 -5.4563  0.4023  0.1763
  561MOL0     H77360  11.957   4.323  10.472  1.1166 -2.2068 -0.7093
  561MOL0     H77361  12.145   4.164  10.633 -0.0197 -3.8188 -0.9543
  561MOL0     H77362  12.071   4.093  10.495 -1.6898  0.4035  0.2876
  561MOL0     H77363  12.155   4.282  10.348 -1.4281 -1.5548  0.8350
  561MOL0     H77364  12.300   4.215  10.429  3.1401  2.5620  0.4667
  561MOL0     H77365  12.303   4.468  10.445 -3.0263 -2.0803 -2.2605
  561MOL0     H77366  12.169   4.477  10.547  1.5424  1.8864 -0.0555
  561MOL0     H77367  12.195   4.343  10.787  0.5393  1.6881  1.3823
  561MOL0     H77368  12.346   4.352  11.013  0.1615 -0.0433  1.9629
  561MOL0     H77369  12.511   4.335  10.998  0.8831 -1.9263  0.0209
  561MOL0     H77370  12.326   4.140  11.076  2.3403  0.2345  2.7696
  561MOL0     H77371  12.325   4.107  10.903 -0.9810 -3.8075  2.7963
  561MOL0     H77372  12.589   4.098  10.920 -0.6220 -0.1450  0.2654
  561MOL0     H77373  12.565   4.088  11.093 -1.8542 -1.8820  1.8202
  561MOL0     H77374  12.495   3.860  11.053  2.8470  0.2174  0.2615
  561MOL0     H77375  12.399   3.906  10.915 -0.5874  0.8389 -0.9694
  561MOL0     H77376  12.419   3.674  10.929 -0.1943  0.7473 -0.3098
  561MOL0     H77377  12.353   3.349  10.795 -3.1143  1.2982  1.2640
  561MOL0     H77378  12.315   3.474  10.904 -0.4721  0.6963 -0.6700
  561MOL0     H77379  12.440   3.366  10.951 -1.6877  1.9533  1.4269
  561MOL0     H77380  12.987   3.295  10.610  0.7332 -0.8110  0.9294
  561MOL0     H77381  13.125   3.072  10.561 -0.2979  0.7261  1.1882
  561MOL0     H77382  12.881   2.715  10.392  2.8293 -5.6258 -0.8004
  561MOL0     H77383  12.900   2.832  10.274  0.4035 -0.4815 -1.6237
  561MOL0     H77384  13.123   2.661  10.389 -2.1077 -0.3213  1.0345
  561MOL0     H77385  13.023   2.585  10.266  2.1443 -0.7198 -0.1722
  561MOL0     H77386  13.176   2.853  10.247  1.0034 -1.7441  1.1328
  561MOL0     H77387  13.077   2.781  10.113 -0.7095  0.8855 -0.4024
  561MOL0     H77388  13.244   2.582  10.143 -0.0354  0.1512  3.8553
  561MOL0     H77389  13.334   2.691  10.245  1.8784  0.2796 -1.0284
  561MOL0     H77390  13.355   2.856  10.048  1.8418 -0.2824 -1.8883
  561MOL0     H77391  13.441   2.695  10.050 -1.2089 -2.4237 -2.4602
  561MOL0     H77392  13.173   2.740   9.918  1.0423  1.5970  1.8580
  561MOL0     H77393  13.297   2.614   9.880 -1.7152 -0.0158  1.0436
  561MOL0     H77394  13.438   2.777   9.786 -0.6780 -1.3124 -0.0666
  561MOL0     H77395  13.308   2.903   9.818 -0.7023 -0.2953 -1.7353
  561MOL0     H77396  13.225   2.658   9.674 -3.5870 -0.1593 -0.0319
  561MOL0     H77397  13.303   2.791   9.572 -0.9884  0.6007 -0.3928
  561MOL0     H77398  12.752   2.891  10.460 -1.9051  0.3764  0.5355
  561MOL0     H77399  12.621   3.094  10.499 -1.2079 -1.2805  1.8443
  561MOL0     H77400  12.783   3.556  10.623  0.2899 -0.1169  1.2435
  561MOL0     H77401  12.776   3.780  10.722  1.4968 -1.0590  3.0191
  561MOL0     H77402  11.432   4.318  10.954  2.6841 -0.7460  1.3683
  561MOL0     H77403  11.281   4.338  11.137 -1.3300  1.6240  3.5517
  561MOL0     H77404  10.992   4.472  11.354 -1.7868 -2.3445  1.1059
  561MOL0     H77405  10.828   4.398  11.521  0.5678 -1.2508 -1.9699
  561MOL0     H77406  10.963   4.349  11.837  1.7763  0.2844  0.3736
  561MOL0     H77407  10.960   4.499  11.924  2.0947 -1.3415 -1.0640
  561MOL0     H77408  10.721   4.301  11.931  0.6105  0.5942 -1.5024
  561MOL0     H77409  10.747   4.452  12.022  0.2999 -0.1558 -0.6652
  561MOL0     H77410  10.894   4.179  12.029  1.0415  1.4606 -1.8748
  561MOL0     H77411  10.972   4.316  12.105 -0.5664  1.6418 -1.7951
  561MOL0     H77412  10.857   4.206  12.287  0.1184 -1.1454 -2.2717
  561MOL0     H77413  10.711   4.185  12.196  1.4245 -3.3062  1.9218
  561MOL0     H77414  10.709   4.571  12.390  2.5881 -0.2473 -0.0753
  561MOL0     H77415  10.992   4.676  11.801  1.3931  0.9367 -1.3160
  561MOL0     H77416  11.221   4.841  11.598  3.5183  1.9412  2.3338
  561MOL0     H77417  11.170   4.794  11.759 -0.7856 -1.3269  0.4450
  561MOL0     H77418  11.301   4.697  11.672  0.5595  1.0096 -1.3403
  562MOL0     O77419   9.571  10.941   7.853 -0.8027  0.0445  0.1279
  562MOL0     C77420   9.611  10.821   7.851  0.5020 -0.0868  0.3335
  562MOL0     O77421   9.586  10.741   7.952  0.2122  1.1419  0.0160
  562MOL0     C77422   9.529  10.791   8.062 -0.8977 -0.0825  0.6142
  562MOL0     C77423   9.611  10.837   8.163  0.3169 -0.1578  0.3023
  562MOL0     C77424   9.548  10.890   8.277  0.6223  1.2473 -0.1036
  562MOL0     C77425   9.416  10.881   8.305  0.4492  0.0993 -0.3056
  562MOL0     O77426   9.383  10.930   8.421  0.1788  0.0344  0.4055
  562MOL0     C77427   9.247  10.909   8.465 -0.6678  0.2378 -0.2071
  562MOL0     C77428   9.219  10.979   8.599  0.8765 -1.2745  0.2697
  562MOL0     C77429   9.060  10.976   8.615 -0.2374 -0.1474 -0.3701
  562MOL0     C77430   9.004  10.827   8.627 -0.7273  0.0095 -1.0431
  562MOL0     C77431   8.850  10.817   8.619  0.0357  0.0327  0.3657
  562MOL0     C77432   8.778  10.877   8.731  0.0571  0.3303  0.6712
  562MOL0     C77433   8.627  10.856   8.728 -1.0054  0.2026  1.1113
  562MOL0     C77434   8.554  10.925   8.617  0.2576 -0.3173  0.4086
  562MOL0     N77435   8.551  11.068   8.624 -0.1149 -0.8564 -0.4229
  562MOL0     C77436   8.467  11.148   8.549 -0.0106 -0.5816 -0.2915
  562MOL0     C77437   8.481  11.271   8.600  0.8199  0.9729  0.1455
  562MOL0     C77438   8.414  11.391   8.536 -0.6143 -0.3250  1.0688
  562MOL0     C77439   8.313  11.447   8.631  0.1968 -0.2280  0.2059
  562MOL0     C77440   8.260  11.590   8.595 -0.3368  0.5007 -0.2603
  562MOL0     C77441   8.123  11.614   8.657 -0.0314 -0.7053  0.1936
  562MOL0     O77442   8.121  11.631   8.798 -0.2780 -0.7471 -0.6668
  562MOL0     C77443   8.014  11.650   8.878  0.3710 -0.3161 -0.8744
  562MOL0     C77444   8.030  11.648   9.020 -0.1918 -0.6128  0.1880
  562MOL0     C77445   7.919  11.662   9.106 -1.2027  1.0759  0.0902
  562MOL0     C77446   7.949  11.665   9.254  0.7489 -0.0880  0.6975
  562MOL0     C77447   7.787  11.675   9.060 -0.4316  0.2017  0.6887
  562MOL0     C77448   7.662  11.695   9.145  0.0275  0.3319  0.0224
  562MOL0     O77449   7.547  11.722   9.078 -0.0399 -0.1340  0.5596
  562MOL0     C77450   7.441  11.780   9.141 -0.4486 -0.3664  0.1373
  562MOL0     C77451   7.321  11.752   9.084 -0.0886 -0.1493  0.3301
  562MOL0     C77452   7.203  11.810   9.139 -0.5561  0.3950 -0.2490
  562MOL0     C77453   7.212  11.911   9.235 -0.4069  0.3780  0.0830
  562MOL0     O77454   7.115  11.973   9.299 -0.0972  0.4849 -0.1934
  562MOL0     C77455   6.982  11.926   9.266 -0.6857  0.1064 -0.2535
  562MOL0     C77456   6.875  12.030   9.298 -0.5371  1.2708  0.8277
  562MOL0     C77457   6.892  12.091   9.445  0.8607 -0.9446 -0.7338
  562MOL0     C77458   6.789  12.050   9.543  0.0138  0.3196  0.6130
  562MOL0     C77459   6.781  12.145   9.658  0.1463 -0.3668  0.1990
  562MOL0     C77460   6.690  12.091   9.764  0.3941  1.0978  1.4986
  562MOL0     C77461   6.664  12.204   9.860 -0.9921  0.6039 -0.0624
  562MOL0     C77462   6.544  12.162   9.942  0.1195 -0.4454  0.0398
  562MOL0    Cl77463   6.557  11.996  10.017 -0.6753 -0.2019 -0.4597
  562MOL0     C77464   7.336  11.937   9.287 -0.1392 -0.3824  1.1831
  562MOL0     C77465   7.451  11.876   9.237  0.0446  0.6254 -1.3971
  562MOL0     O77466   7.666  11.672   9.270  0.8789 -0.2496  0.2093
  562MOL0     C77467   7.771  11.682   8.920 -0.6119  0.2586  0.3065
  562MOL0     C77468   7.877  11.663   8.827 -0.4559 -0.0665  0.4530
  562MOL0     N77469   8.555  11.258   8.713 -0.0489 -0.4221  0.1195
  562MOL0     N77470   8.596  11.141   8.732  0.3791  0.2408  0.0234
  562MOL0     C77471   9.337  10.823   8.201 -0.2745  0.0853 -0.5501
  562MOL0     C77472   9.388  10.771   8.081  0.3835 -0.5471  0.1060
  562MOL0     C77473   9.660  10.766   7.721 -0.2570 -0.4891 -0.0222
  562MOL0     C77474   9.592  10.817   7.608 -0.4771 -0.2614 -0.4292
  562MOL0     C77475   9.626  10.779   7.477 -0.1302  0.9531 -0.3188
  562MOL0     C77476   9.717  10.672   7.456 -0.0650  0.3080  0.9111
  562MOL0     O77477   9.735  10.633   7.322  0.0308 -0.7204  0.5103
  562MOL0     C77478   9.836  10.537   7.297  0.3275  0.6566  1.3448
  562MOL0     C77479   9.867  10.514   7.146  0.1817 -0.3126  0.1503
  562MOL0     C77480   9.915  10.372   7.114 -0.0028 -0.0944 -0.5756
  562MOL0     C77481   9.796  10.278   7.087  0.5296  1.1748  0.4871
  562MOL0     C77482   9.713  10.308   6.969  0.3845 -0.1301  0.7478
  562MOL0     C77483   9.668  10.345   6.860 -0.0818  0.1807  0.1682
  562MOL0     C77484   9.775  10.610   7.572  0.5312  0.2118  0.5080
  562MOL0     C77485   9.735  10.645   7.699 -0.2306  0.5074  0.8700
  562MOL0     C77486   9.793  10.568   7.821 -0.6900 -1.1394  0.1717
  562MOL0     H77487   9.718  10.839   8.144 -0.3361  0.0417 -4.7700
  562MOL0     H77488   9.608  10.941   8.352  0.6735  1.1676 -0.0894
  562MOL0     H77489   9.221  10.804   8.453 -2.6186  0.5458  0.8217
  562MOL0     H77490   9.176  10.962   8.400 -0.8181  0.5620  0.2170
  562MOL0     H77491   9.266  10.933   8.687 -1.8433 -1.0835  1.9595
  562MOL0     H77492   9.249  11.083   8.590 -0.9611 -0.6813  0.6563
  562MOL0     H77493   9.033  11.018   8.712  1.9864 -0.6406  0.5341
  562MOL0     H77494   9.006  11.030   8.537 -1.3105 -1.4970 -0.6136
  562MOL0     H77495   9.041  10.779   8.536 -0.1893  4.8141 -3.6700
  562MOL0     H77496   9.041  10.778   8.717 -1.7856  1.7393  0.3964
  562MOL0     H77497   8.822  10.712   8.612  0.5890 -0.0438 -1.0585
  562MOL0     H77498   8.829  10.866   8.524  2.5113  1.8292  0.6312
  562MOL0     H77499   8.820  10.829   8.819  0.5402 -1.1331 -0.3293
  562MOL0     H77500   8.783  10.985   8.747 -1.7791  1.1068 -2.8466
  562MOL0     H77501   8.584  10.894   8.821  1.0506  0.4171  2.0224
  562MOL0     H77502   8.617  10.748   8.722 -1.7731  0.2866  0.7301
  562MOL0     H77503   8.610  10.881   8.534  1.9088  1.1492  0.6977
  562MOL0     H77504   8.449  10.896   8.602 -0.6625  4.0217 -4.8006
  562MOL0     H77505   8.436  11.125   8.448 -0.5412 -3.1441  0.3806
  562MOL0     H77506   8.370  11.366   8.439  1.4439  3.8326 -1.2299
  562MOL0     H77507   8.494  11.463   8.516  1.7786 -2.3169  2.8806
  562MOL0     H77508   8.228  11.380   8.646  1.5355 -1.4824  3.0376
  562MOL0     H77509   8.361  11.464   8.728 -1.5016  1.4595  0.8113
  562MOL0     H77510   8.320  11.675   8.629 -1.7937  1.3204  0.3660
  562MOL0     H77511   8.258  11.607   8.487  0.5431  2.3667 -0.0265
  562MOL0     H77512   8.086  11.703   8.605  2.0536  1.0015  1.4302
  562MOL0     H77513   8.057  11.529   8.635  2.2410 -2.8388  1.0777
  562MOL0     H77514   8.133  11.641   9.052  0.6594 -0.1674 -2.2597
  562MOL0     H77515   7.907  11.753   9.304  1.6788  0.6005  0.2909
  562MOL0     H77516   8.055  11.663   9.279  0.5162  1.0474  1.8820
  562MOL0     H77517   7.898  11.575   9.291  0.3358 -0.6049 -1.0288
  562MOL0     H77518   7.320  11.688   8.995  2.8904 -0.3828  0.3606
  562MOL0     H77519   7.108  11.777   9.098 -1.3672  1.3060  0.8464
  562MOL0     H77520   6.976  11.888   9.164  0.1609 -3.1334  0.8061
  562MOL0     H77521   6.964  11.838   9.327 -0.4569 -0.4030 -0.9123
  562MOL0     H77522   6.882  12.108   9.222 -0.7193  0.5437  0.0486
  562MOL0     H77523   6.776  11.983   9.293  1.1099 -2.6002  0.5002
  562MOL0     H77524   6.874  12.199   9.433 -1.2346 -1.0661  0.7373
  562MOL0     H77525   6.986  12.067   9.496 -0.5156 -2.6606  1.1214
  562MOL0     H77526   6.800  11.949   9.581 -3.4885  0.4709  2.5044
  562MOL0     H77527   6.697  12.034   9.486  0.4988 -1.2443  0.2345
  562MOL0     H77528   6.877  12.156   9.710 -0.6428 -0.1778  1.6751
  562MOL0     H77529   6.743  12.238   9.618 -0.9628 -1.7872 -2.2446
  562MOL0     H77530   6.737  12.002   9.807 -0.2646  1.3721  2.8139
  562MOL0     H77531   6.594  12.068   9.717 -0.5910  3.3245  2.2820
  562MOL0     H77532   6.643  12.297   9.807 -1.0268  1.3076  1.1501
  562MOL0     H77533   6.748  12.230   9.926 -0.3336  0.6752 -0.9186
  562MOL0     H77534   6.450  12.160   9.886  0.9203 -0.0029 -1.3682
  562MOL0     H77535   6.514  12.235  10.019  0.4646  0.0638 -0.3030
  562MOL0     H77536   7.340  12.020   9.357 -2.4583  1.0216 -0.2060
  562MOL0     H77537   7.551  11.887   9.278 -0.3661  1.2829 -0.5399
  562MOL0     H77538   7.671  11.706   8.885 -0.1641  0.2551 -1.0042
  562MOL0     H77539   7.861  11.674   8.720 -0.0593  0.8806  0.4810
  562MOL0     H77540   9.229  10.833   8.205 -0.0638  3.4541 -0.8724
  562MOL0     H77541   9.315  10.730   8.013 -0.2458 -1.2178  1.1543
  562MOL0     H77542   9.531  10.906   7.607 -0.3721 -0.1907 -0.5555
  562MOL0     H77543   9.574  10.822   7.391  0.5977  2.4432 -0.0434
  562MOL0     H77544   9.929  10.566   7.346  0.8768  0.2356  0.5766
  562MOL0     H77545   9.810  10.440   7.342  0.5970  0.7762  1.7640
  562MOL0     H77546   9.933  10.595   7.113 -0.2160  0.3945  1.0634
  562MOL0     H77547   9.780  10.534   7.082  0.5106  3.6689  0.6933
  562MOL0     H77548   9.991  10.380   7.036 -1.1754 -2.2127 -2.0557
  562MOL0     H77549   9.966  10.335   7.203  0.1156  1.7569  0.1686
  562MOL0     H77550   9.731  10.276   7.175  0.1504 -0.6662  0.2066
  562MOL0     H77551   9.831  10.177   7.066 -1.7307  0.6551 -1.0520
  562MOL0     H77552   9.620  10.376   6.770  2.1979 -0.8023 -1.4842
  562MOL0     H77553   9.850  10.533   7.564  3.0492  2.6322 -1.0109
  562MOL0     H77554   9.715  10.506   7.866  0.2742 -0.9325  2.2409
  562MOL0     H77555   9.868  10.500   7.779  0.3107 -1.5088  2.4573
  562MOL0     H77556   9.842  10.637   7.890  1.5344  0.2053 -2.5244
  563MOL0     O77557   0.433   8.826   0.993 -0.3975  0.3464  0.4900
  563MOL0     C77558   0.510   8.737   1.028 -0.0393  0.6792 -0.5626
  563MOL0     O77559   0.580   8.742   1.148 -0.2690  0.5196  1.0681
  563MOL0     C77560   0.535   8.845   1.232 -0.3309  0.7148  1.1739
  563MOL0     C77561   0.581   8.974   1.208 -0.1863 -0.0400  0.2566
  563MOL0     C77562   0.555   9.073   1.302 -0.7372 -1.2486 -0.0415
  563MOL0     C77563   0.491   9.043   1.427  0.2618  0.5921  0.8390
  563MOL0     O77564   0.449   9.145   1.508  0.1976 -0.3891  0.1798
  563MOL0     C77565   0.515   9.160   1.636 -0.0894 -0.4057  0.1803
  563MOL0     C77566   0.418   9.201   1.749  1.0782 -0.4802  0.0145
  563MOL0     C77567   0.342   9.330   1.721 -0.3090  0.1455  0.8459
  563MOL0     C77568   0.234   9.362   1.829  0.1760  1.2950  0.3621
  563MOL0     C77569   0.218   9.515   1.834  0.7140  0.5331  0.2108
  563MOL0     C77570   0.106   9.557   1.933 -0.0741  0.1804 -0.3575
  563MOL0     C77571   0.011   9.665   1.888 -0.8103 -0.3408  0.5942
  563MOL0     C77572  -0.082   9.615   1.780 -0.4682  0.8096  0.0101
  563MOL0     N77573  -0.218   9.669   1.785  0.1232 -0.1781 -0.1354
  563MOL0     C77574  -0.303   9.654   1.897 -0.2535 -0.5602  0.8185
  563MOL0     C77575  -0.405   9.736   1.870  1.3643  0.7117 -0.0589
  563MOL0     C77576  -0.511   9.769   1.962 -0.8320  1.2334 -0.3402
  563MOL0     C77577  -0.462   9.818   2.101  0.6121 -0.1351  0.2619
  563MOL0     C77578  -0.580   9.837   2.200  0.6417 -0.1110 -0.2906
  563MOL0     C77579  -0.622   9.709   2.284 -0.3165  0.8251 -0.0762
  563MOL0     O77580  -0.630   9.587   2.220 -0.5259  0.0540 -0.6812
  563MOL0     C77581  -0.756   9.539   2.208  0.8103 -0.3045 -0.9379
  563MOL0     C77582  -0.862   9.611   2.159 -0.0947 -0.5033  0.2057
  563MOL0     C77583  -0.993   9.561   2.151 -0.0267 -0.6615 -1.3444
  563MOL0     C77584  -1.081   9.636   2.070  0.1488  0.6942  0.3613
  563MOL0     C77585  -1.026   9.449   2.225  0.4083  1.3270  0.0950
  563MOL0     C77586  -1.155   9.385   2.228 -0.2152 -1.0884 -0.9243
  563MOL0     O77587  -1.167   9.259   2.271 -0.0817 -0.5119  0.9776
  563MOL0     C77588  -1.280   9.192   2.237  0.2653 -0.4201  0.7203
  563MOL0     C77589  -1.277   9.098   2.135  0.1938  0.0248  0.8075
  563MOL0     C77590  -1.386   9.007   2.116 -0.6411 -0.9715  0.0789
  563MOL0     C77591  -1.496   9.008   2.201 -0.7088 -0.2351  0.0573
  563MOL0     O77592  -1.607   8.917   2.182 -0.3615  0.2024 -0.3240
  563MOL0     C77593  -1.565   8.783   2.137  0.4978 -1.6848 -1.4418
  563MOL0     C77594  -1.690   8.693   2.138 -0.0525 -0.4242 -0.7892
  563MOL0     C77595  -1.694   8.569   2.052  0.1991  0.2480  0.7690
  563MOL0     C77596  -1.621   8.450   2.107 -0.8160  0.0278  0.0551
  563MOL0     C77597  -1.659   8.315   2.027 -0.7455 -0.9253  0.1492
  563MOL0     C77598  -1.566   8.190   2.067  0.4139  0.1245  0.0665
  563MOL0     C77599  -1.615   8.060   1.988  0.1384  0.2712  0.8468
  563MOL0     C77600  -1.586   7.926   2.056 -0.3199 -1.2117  0.1898
  563MOL0    Cl77601  -1.415   7.915   2.119  0.1912  0.0892 -0.3570
  563MOL0     C77602  -1.484   9.097   2.309 -0.0313  0.2731 -0.0092
  563MOL0     C77603  -1.380   9.189   2.326  0.6526 -0.3818  0.4284
  563MOL0     O77604  -1.249   9.449   2.197 -0.5466 -0.4393  0.2352
  563MOL0     C77605  -0.921   9.374   2.293 -0.3831  0.2736  0.8095
  563MOL0     C77606  -0.789   9.421   2.273  0.4565  0.2925 -0.7799
  563MOL0     N77607  -0.382   9.790   1.747 -1.1389  0.1844 -0.8798
  563MOL0     N77608  -0.272   9.749   1.689  0.7975  0.1203  0.3698
  563MOL0     C77609   0.441   8.914   1.442  0.2971  0.9297  0.4360
  563MOL0     C77610   0.468   8.815   1.348 -0.1596  0.5310 -0.2547
  563MOL0     C77611   0.531   8.607   0.946  0.4713 -0.6574  0.1174
  563MOL0     C77612   0.622   8.506   0.979 -0.1379 -0.1393 -0.4742
  563MOL0     C77613   0.635   8.392   0.910 -0.8954 -0.3255 -0.4915
  563MOL0     C77614   0.563   8.381   0.791  0.3516  0.5459  1.0110
  563MOL0     O77615   0.557   8.266   0.718 -0.5821  0.4864  0.5041
  563MOL0     C77616   0.489   8.157   0.786  0.5355 -0.5096  0.8371
  563MOL0     C77617   0.331   8.187   0.805  0.5973  0.0409  0.2638
  563MOL0     C77618   0.259   8.220   0.677 -0.6164  0.0528 -0.6276
  563MOL0     C77619   0.110   8.237   0.713 -0.6342  0.3473 -0.0236
  563MOL0     C77620   0.084   8.373   0.738 -0.2743 -0.0264 -0.2643
  563MOL0     C77621   0.047   8.488   0.733 -0.5148  0.2745  0.2442
  563MOL0     C77622   0.479   8.480   0.755  0.8312 -0.4333 -0.1622
  563MOL0     C77623   0.451   8.589   0.836  0.1363  0.9375  0.0218
  563MOL0     C77624   0.343   8.688   0.789  0.7982  0.3140  0.3427
  563MOL0     H77625   0.650   9.003   1.129  1.1008 -0.5757  1.1564
  563MOL0     H77626   0.587   9.177   1.299  0.2984 -1.5677 -2.7855
  563MOL0     H77627   0.598   9.232   1.633  0.6349 -1.2422 -2.0634
  563MOL0     H77628   0.566   9.068   1.665  1.0253  0.4742  1.1040
  563MOL0     H77629   0.350   9.117   1.769  1.4763 -1.5773 -2.8534
  563MOL0     H77630   0.473   9.214   1.842  2.1691  3.0582 -0.9833
  563MOL0     H77631   0.409   9.416   1.712  0.1347 -0.2169  0.6973
  563MOL0     H77632   0.289   9.318   1.626 -0.0264 -3.2505  0.9948
  563MOL0     H77633   0.137   9.322   1.800  1.1386  1.5956 -3.9979
  563MOL0     H77634   0.254   9.345   1.935 -2.3177 -0.3050  0.6531
  563MOL0     H77635   0.197   9.549   1.733 -0.5012  0.1827  0.3312
  563MOL0     H77636   0.315   9.551   1.870  1.4919 -1.4425  0.2218
  563MOL0     H77637   0.038   9.472   1.940  2.9695 -2.7421 -3.1274
  563MOL0     H77638   0.149   9.570   2.033  1.3419 -2.2549 -0.5799
  563MOL0     H77639   0.062   9.751   1.844  0.3781 -1.2611  0.0971
  563MOL0     H77640  -0.039   9.716   1.970  3.2802  2.0973  1.8865
  563MOL0     H77641  -0.033   9.626   1.683  1.9569 -1.0883  0.9106
  563MOL0     H77642  -0.084   9.507   1.797  2.7366  0.9567  2.2945
  563MOL0     H77643  -0.290   9.611   1.996 -0.4845 -0.9587  0.6769
  563MOL0     H77644  -0.570   9.678   1.974 -0.1690  0.8640  0.1934
  563MOL0     H77645  -0.578   9.841   1.913  0.8771  3.1230 -0.0733
  563MOL0     H77646  -0.393   9.745   2.145  1.4198  1.9316  2.6509
  563MOL0     H77647  -0.401   9.908   2.096  1.3715 -0.5416  1.5872
  563MOL0     H77648  -0.543   9.906   2.276  1.0593 -3.4260  2.7648
  563MOL0     H77649  -0.668   9.881   2.152 -1.9406 -2.7313  1.7341
  563MOL0     H77650  -0.554   9.693   2.368 -1.4090  0.6135  0.8069
  563MOL0     H77651  -0.719   9.724   2.334 -1.7129  0.6270 -2.5821
  563MOL0     H77652  -0.847   9.710   2.118  1.1217 -0.8661 -0.2760
  563MOL0     H77653  -1.139   9.571   2.004  2.1318 -1.6370  0.7651
  563MOL0     H77654  -1.026   9.702   2.003  2.0658 -1.1010  0.0692
  563MOL0     H77655  -1.156   9.692   2.126  0.1647  1.4969 -0.4013
  563MOL0     H77656  -1.189   9.096   2.072  0.6478  2.3666  1.2716
  563MOL0     H77657  -1.375   8.935   2.036 -2.0644 -1.0970 -0.0326
  563MOL0     H77658  -1.543   8.790   2.030 -0.3415  2.4554 -1.5191
  563MOL0     H77659  -1.481   8.756   2.201 -1.2681  1.0156  2.4625
  563MOL0     H77660  -1.715   8.673   2.243  2.5486 -0.2242 -0.0578
  563MOL0     H77661  -1.768   8.759   2.100 -0.1740 -0.9251 -1.4114
  563MOL0     H77662  -1.646   8.598   1.958 -2.4682  2.1385 -0.1271
  563MOL0     H77663  -1.796   8.542   2.023  0.5752 -0.6558  0.2659
  563MOL0     H77664  -1.634   8.447   2.216  1.7273  0.1493  0.4397
  563MOL0     H77665  -1.513   8.466   2.096 -0.9792  0.7533 -0.5686
  563MOL0     H77666  -1.762   8.293   2.058 -1.5607 -0.0156 -1.7712
  563MOL0     H77667  -1.665   8.327   1.919 -0.5528 -1.7603  0.0395
  563MOL0     H77668  -1.563   8.170   2.174  3.3937  0.8497  0.1988
  563MOL0     H77669  -1.460   8.204   2.046  0.4732  0.1960  0.4069
  563MOL0     H77670  -1.570   8.065   1.889  0.5584 -0.8088  0.9809
  563MOL0     H77671  -1.723   8.061   1.968  0.3317 -1.6659 -0.5250
  563MOL0     H77672  -1.614   7.853   1.980 -0.7527  0.6089 -1.5144
  563MOL0     H77673  -1.656   7.902   2.136  0.9399 -2.2410  1.0223
  563MOL0     H77674  -1.555   9.098   2.391  1.2245  0.4221  1.1148
  563MOL0     H77675  -1.378   9.257   2.411  4.6776 -0.4340  0.5922
  563MOL0     H77676  -0.946   9.296   2.364 -4.7414  0.0706 -0.6489
  563MOL0     H77677  -0.710   9.375   2.331 -1.1947 -1.4734  0.1936
  563MOL0     H77678   0.380   8.890   1.528  2.0811 -2.7749  0.8797
  563MOL0     H77679   0.428   8.715   1.363  1.9270 -0.4861 -0.9752
  563MOL0     H77680   0.679   8.529   1.069 -0.1970  2.5637 -1.0374
  563MOL0     H77681   0.716   8.325   0.937 -2.3802 -1.2075  2.2551
  563MOL0     H77682   0.506   8.060   0.738  2.1323 -1.7294  3.6546
  563MOL0     H77683   0.535   8.146   0.884 -1.0019  2.1916  1.9564
  563MOL0     H77684   0.315   8.270   0.875 -1.6540  0.0050 -0.1249
  563MOL0     H77685   0.289   8.096   0.850 -1.4911  2.4573  3.7299
  563MOL0     H77686   0.299   8.302   0.616 -0.5789  0.3059 -0.2653
  563MOL0     H77687   0.267   8.128   0.617 -2.4137 -1.7488  1.7001
  563MOL0     H77688   0.087   8.171   0.796 -0.9818 -1.4491 -1.4923
  563MOL0     H77689   0.048   8.209   0.628 -1.0391 -0.0207  0.3916
  563MOL0     H77690   0.018   8.590   0.722 -0.3461  0.2964 -0.0159
  563MOL0     H77691   0.430   8.463   0.659 -1.2790  1.8115  0.4244
  563MOL0     H77692   0.285   8.639   0.710  0.9138 -0.8469  0.9469
  563MOL0     H77693   0.269   8.723   0.862  1.4044  0.5656  0.8460
  563MOL0     H77694   0.379   8.779   0.742  1.9092 -0.2816  0.0221
  564MOL0     O77695   2.956   7.972   5.587 -0.3058 -0.5382 -0.5388
  564MOL0     C77696   2.954   7.930   5.470  0.4041 -0.1383 -0.0806
  564MOL0     O77697   3.051   7.851   5.405 -0.5951  0.5979  0.8499
  564MOL0     C77698   3.136   7.784   5.486 -0.3102 -0.2911  0.4310
  564MOL0     C77699   3.254   7.842   5.530  0.1681  0.2823 -0.4891
  564MOL0     C77700   3.346   7.765   5.609 -0.6693 -0.3694 -0.3556
  564MOL0     C77701   3.332   7.625   5.610  0.3423 -0.6044 -0.1634
  564MOL0     O77702   3.427   7.546   5.661  0.5035 -0.2727 -0.2403
  564MOL0     C77703   3.484   7.577   5.793  0.4152 -0.3657 -0.5017
  564MOL0     C77704   3.615   7.495   5.794 -0.1472  0.2866 -0.1859
  564MOL0     C77705   3.708   7.548   5.683 -0.1538 -0.2644 -1.4773
  564MOL0     C77706   3.836   7.472   5.693 -0.1384 -0.2157 -0.0367
  564MOL0     C77707   3.931   7.495   5.573 -0.8631  0.1268 -0.0731
  564MOL0     C77708   3.882   7.413   5.455  0.5821  0.5824 -0.2870
  564MOL0     C77709   3.974   7.414   5.344 -0.4738 -0.0356 -0.1099
  564MOL0     C77710   3.909   7.365   5.214 -0.1066 -0.2332  0.6820
  564MOL0     N77711   4.006   7.378   5.103 -0.5616 -0.5112  0.4207
  564MOL0     C77712   4.001   7.301   4.990  0.0217  0.6414  0.5215
  564MOL0     C77713   4.079   7.371   4.895  0.4220  0.9855  0.4496
  564MOL0     C77714   4.101   7.333   4.747 -0.3301 -0.4677  0.5163
  564MOL0     C77715   4.238   7.264   4.730  0.7825 -1.0122 -0.7471
  564MOL0     C77716   4.278   7.296   4.588  0.0598 -0.1492 -0.9514
  564MOL0     C77717   4.374   7.410   4.569  0.4309  0.9325 -0.5542
  564MOL0     O77718   4.418   7.409   4.433  0.8436  0.1700 -0.6630
  564MOL0     C77719   4.526   7.332   4.402  0.3442 -0.4011  0.1711
  564MOL0     C77720   4.515   7.215   4.322 -0.3095  0.0817  0.0010
  564MOL0     C77721   4.630   7.147   4.279  0.0101 -0.8290 -0.6114
  564MOL0     C77722   4.612   7.026   4.201  0.0155 -0.4310 -0.4191
  564MOL0     C77723   4.764   7.199   4.320  0.6015  0.9415  0.4627
  564MOL0     C77724   4.888   7.124   4.294 -0.3421  1.3772 -0.4414
  564MOL0     O77725   4.996   7.149   4.380  0.6993  0.1450  0.0352
  564MOL0     C77726   5.123   7.099   4.345  0.5063 -0.0270 -0.5126
  564MOL0     C77727   5.155   6.959   4.323  0.6089 -0.0342  0.1780
  564MOL0     C77728   5.287   6.927   4.277 -0.1646  0.2601  1.1709
  564MOL0     C77729   5.381   7.022   4.259  0.4737  1.2606 -0.4717
  564MOL0     O77730   5.498   6.990   4.196  0.4714 -0.1430  0.3631
  564MOL0     C77731   5.580   6.899   4.265  0.2057  1.5024 -0.5232
  564MOL0     C77732   5.606   6.774   4.199  0.2703  0.0509 -0.1308
  564MOL0     C77733   5.725   6.697   4.252  0.0592  0.0647  0.0609
  564MOL0     C77734   5.859   6.753   4.228  0.3793  0.1331  0.5445
  564MOL0     C77735   5.911   6.696   4.091 -0.8072 -0.6848  0.1784
  564MOL0     C77736   6.064   6.703   4.059  0.5523  0.1964  0.3605
  564MOL0     C77737   6.147   6.621   4.146  0.1540 -0.3488  0.2686
  564MOL0     C77738   6.273   6.585   4.074 -0.7698  0.5902 -1.0955
  564MOL0    Cl77739   6.367   6.724   4.017  0.1634 -0.6980 -0.1179
  564MOL0     C77740   5.353   7.153   4.284  0.2477  0.1340 -0.3557
  564MOL0     C77741   5.222   7.191   4.321  0.4276 -0.0478  0.0889
  564MOL0     O77742   4.891   7.036   4.205  0.9426 -0.0507 -0.3717
  564MOL0     C77743   4.767   7.317   4.380 -0.7067  0.6540 -0.5963
  564MOL0     C77744   4.653   7.381   4.416  0.5769 -0.5980 -0.7866
  564MOL0     N77745   4.121   7.481   4.957 -0.5310  0.3919 -0.0654
  564MOL0     N77746   4.089   7.478   5.079  0.2757 -0.9999 -0.0600
  564MOL0     C77747   3.222   7.569   5.552 -0.3568  0.1117 -1.0761
  564MOL0     C77748   3.122   7.642   5.491 -0.3148 -0.2834 -0.3695
  564MOL0     C77749   2.837   7.951   5.391 -0.3778 -1.5849  0.0178
  564MOL0     C77750   2.834   8.073   5.332 -0.3218 -0.3513  0.6302
  564MOL0     C77751   2.735   8.106   5.245  0.3636  0.4699 -0.0593
  564MOL0     C77752   2.622   8.025   5.234 -0.4273  1.1302  0.1701
  564MOL0     O77753   2.504   8.056   5.172  0.4791  0.2760 -0.2620
  564MOL0     C77754   2.503   8.175   5.080 -0.3568 -0.3230 -0.1176
  564MOL0     C77755   2.375   8.179   4.996 -0.6643  0.5365  0.4748
  564MOL0     C77756   2.389   8.260   4.859  0.7478 -0.9326 -1.0776
  564MOL0     C77757   2.406   8.414   4.891  0.0475  0.0288  0.1021
  564MOL0     C77758   2.525   8.456   4.959 -0.2563  0.6792 -0.1882
  564MOL0     C77759   2.628   8.510   5.000  0.0121  0.1771  0.5480
  564MOL0     C77760   2.611   7.910   5.314  0.2637 -0.8718 -0.1406
  564MOL0     C77761   2.728   7.871   5.385  1.2335  0.2642  0.4131
  564MOL0     C77762   2.735   7.739   5.458 -0.3720 -0.9919 -1.1085
  564MOL0     H77763   3.291   7.944   5.526 -0.1504  0.4015 -0.4814
  564MOL0     H77764   3.431   7.809   5.660 -2.8055  3.0823  0.5044
  564MOL0     H77765   3.421   7.542   5.876  2.2233 -1.5432  0.4591
  564MOL0     H77766   3.528   7.676   5.809 -1.4174  0.1370  2.0517
  564MOL0     H77767   3.660   7.498   5.894 -0.5114 -0.3043 -0.0008
  564MOL0     H77768   3.588   7.392   5.771  1.0419  0.1363 -0.9965
  564MOL0     H77769   3.663   7.542   5.583 -0.2619  0.0653 -1.4543
  564MOL0     H77770   3.736   7.654   5.674  0.6026 -0.5925 -3.9502
  564MOL0     H77771   3.890   7.501   5.784  1.2593  2.4759 -1.6079
  564MOL0     H77772   3.819   7.364   5.704 -3.9110  0.4978  3.5653
  564MOL0     H77773   4.033   7.462   5.595 -0.0464  0.5237 -2.9023
  564MOL0     H77774   3.944   7.603   5.561 -1.6980  0.2306 -0.1072
  564MOL0     H77775   3.864   7.310   5.485 -0.8250  0.5508 -1.1501
  564MOL0     H77776   3.788   7.454   5.417 -0.3190 -2.5175 -1.7236
  564MOL0     H77777   4.055   7.345   5.370  0.9204  1.0568 -1.3663
  564MOL0     H77778   4.007   7.517   5.330 -1.6696  1.0938  4.0580
  564MOL0     H77779   3.873   7.262   5.222  2.3776 -1.2096 -0.0924
  564MOL0     H77780   3.828   7.434   5.188 -1.3447 -0.7259  2.8715
  564MOL0     H77781   3.935   7.216   4.976 -1.3249  1.6955  0.2349
  564MOL0     H77782   4.083   7.419   4.682 -0.2666 -1.1698 -0.4505
  564MOL0     H77783   4.028   7.256   4.721  1.8304 -2.3759 -0.1860
  564MOL0     H77784   4.315   7.273   4.808 -1.6754 -2.9471  2.1559
  564MOL0     H77785   4.214   7.157   4.733  3.0981 -1.7245  4.4709
  564MOL0     H77786   4.308   7.202   4.542  4.1307  1.1004 -1.2457
  564MOL0     H77787   4.192   7.325   4.526 -0.9221 -1.1312 -0.0962
  564MOL0     H77788   4.319   7.502   4.591  0.3188  1.3472 -2.4078
  564MOL0     H77789   4.459   7.395   4.636 -0.3188  0.7431  0.3773
  564MOL0     H77790   4.416   7.185   4.288  0.4875 -1.4263 -1.1343
  564MOL0     H77791   4.682   6.950   4.237  2.9533  0.0145 -4.4869
  564MOL0     H77792   4.634   7.048   4.096  1.1253  0.8285  0.0582
  564MOL0     H77793   4.518   6.975   4.222  1.3985 -1.5790  3.9568
  564MOL0     H77794   5.077   6.885   4.340  0.3052  0.3686  0.5606
  564MOL0     H77795   5.308   6.828   4.237  0.8285  0.4771  1.1239
  564MOL0     H77796   5.671   6.945   4.305 -0.3394  1.2167  1.1414
  564MOL0     H77797   5.534   6.880   4.363 -0.3509  2.6865 -0.5473
  564MOL0     H77798   5.520   6.706   4.204 -0.1308  0.2827 -2.7196
  564MOL0     H77799   5.623   6.796   4.093  0.0584 -2.9213 -0.8694
  564MOL0     H77800   5.732   6.597   4.209  2.5104  0.1463  0.1448
  564MOL0     H77801   5.699   6.684   4.357  0.9527 -1.3617  0.1328
  564MOL0     H77802   5.928   6.723   4.308 -1.2021 -4.4886  0.4810
  564MOL0     H77803   5.852   6.862   4.233 -0.1489  0.3962 -3.1041
  564MOL0     H77804   5.893   6.588   4.090  0.7500 -0.9879  1.0043
  564MOL0     H77805   5.850   6.738   4.011  2.2549 -0.1436 -2.0267
  564MOL0     H77806   6.081   6.811   4.066  0.1389  0.4304 -1.6403
  564MOL0     H77807   6.078   6.677   3.954 -0.7454  1.5545 -0.1844
  564MOL0     H77808   6.088   6.533   4.176 -2.6516  1.5611  0.7446
  564MOL0     H77809   6.176   6.669   4.240  2.7493 -2.9002  0.9353
  564MOL0     H77810   6.251   6.519   3.990  1.6566 -3.7957  1.3483
  564MOL0     H77811   6.336   6.529   4.144 -1.4213 -1.2175 -1.9064
  564MOL0     H77812   5.441   7.216   4.271  2.1267 -2.2354  0.0451
  564MOL0     H77813   5.187   7.294   4.331  2.9335  1.0346 -1.3364
  564MOL0     H77814   4.869   7.353   4.393 -0.4586  0.4915 -1.9470
  564MOL0     H77815   4.671   7.475   4.467 -2.5530 -0.9787  1.2597
  564MOL0     H77816   3.205   7.462   5.548 -1.7041  0.1844  0.9961
  564MOL0     H77817   3.037   7.587   5.452 -0.2812 -2.5990  2.4963
  564MOL0     H77818   2.917   8.139   5.352 -2.9365  3.1497  0.8059
  564MOL0     H77819   2.750   8.201   5.194  1.1708  0.3149 -0.1152
  564MOL0     H77820   2.524   8.267   5.136  0.6203 -0.4060 -0.3246
  564MOL0     H77821   2.588   8.153   5.015  0.3109  3.1187 -0.6122
  564MOL0     H77822   2.296   8.209   5.065 -1.1916  2.2694 -0.8293
  564MOL0     H77823   2.372   8.077   4.955  2.8403  0.3787  0.2445
  564MOL0     H77824   2.486   8.237   4.816  1.0209 -0.0493 -0.9458
  564MOL0     H77825   2.293   8.249   4.807 -0.2035 -1.4057  0.7201
  564MOL0     H77826   2.324   8.452   4.953  1.1640 -1.9321  2.9798
  564MOL0     H77827   2.395   8.461   4.793  1.1225  0.6353  0.2521
  564MOL0     H77828   2.715   8.572   5.007  1.0337 -1.0165 -0.8902
  564MOL0     H77829   2.518   7.855   5.317 -3.1325  4.2199 -0.4145
  564MOL0     H77830   2.837   7.701   5.454 -0.0739 -0.5843  1.0748
  564MOL0     H77831   2.718   7.748   5.566  0.2907 -0.8990 -1.0076
  564MOL0     H77832   2.666   7.665   5.416 -0.7113 -2.0451  1.1559
  565MOL0     O77833   3.290   5.486   9.059  0.2712 -0.8026  0.3346
  565MOL0     C77834   3.343   5.588   9.014  1.2772  0.9506  1.1784
  565MOL0     O77835   3.276   5.672   8.920  0.4981 -0.3629  0.0892
  565MOL0     C77836   3.174   5.616   8.843 -0.1972 -0.2383  0.3978
  565MOL0     C77837   3.156   5.479   8.799  0.4545  0.4103  0.2494
  565MOL0     C77838   3.038   5.435   8.736  0.1501 -1.9488  0.2729
  565MOL0     C77839   2.940   5.531   8.699 -0.3666  0.0105  0.0508
  565MOL0     O77840   2.833   5.502   8.622  0.5439  0.1725 -0.5213
  565MOL0     C77841   2.776   5.369   8.638 -0.0906 -0.4753  0.4565
  565MOL0     C77842   2.786   5.288   8.503  0.7843  0.8044  0.6994
  565MOL0     C77843   2.926   5.244   8.455 -0.2625 -0.6003 -0.9994
  565MOL0     C77844   2.920   5.164   8.321 -0.2359 -0.1630 -0.5777
  565MOL0     C77845   2.864   5.260   8.203  0.0687  0.4576 -0.1717
  565MOL0     C77846   2.876   5.175   8.080 -0.2769 -0.8993 -0.3362
  565MOL0     C77847   2.799   5.239   7.955  0.2171 -0.9121  0.1110
  565MOL0     C77848   2.842   5.167   7.821 -0.3821  0.2478 -0.4026
  565MOL0     N77849   2.784   5.222   7.704  0.6856 -0.0408  0.2904
  565MOL0     C77850   2.792   5.347   7.653  0.4484 -1.3721  0.0127
  565MOL0     C77851   2.727   5.338   7.529  0.0352  0.5127 -0.6976
  565MOL0     C77852   2.713   5.443   7.420 -0.0377  0.5380 -0.3335
  565MOL0     C77853   2.743   5.584   7.467 -0.5401 -1.2254  0.1911
  565MOL0     C77854   2.778   5.673   7.346 -0.3492 -0.1700 -0.5078
  565MOL0     C77855   2.901   5.627   7.255  1.4847 -0.2640  0.4662
  565MOL0     O77856   2.955   5.734   7.166 -0.1547 -0.1370  0.0542
  565MOL0     C77857   2.905   5.738   7.036  0.2429 -1.0878  0.6029
  565MOL0     C77858   2.785   5.671   6.988  0.4057 -0.4117  0.0003
  565MOL0     C77859   2.736   5.700   6.855  0.0176  0.2331 -0.1238
  565MOL0     C77860   2.604   5.631   6.818  0.3534  0.2744  0.2852
  565MOL0     C77861   2.815   5.771   6.759  0.0876 -0.2212 -0.4409
  565MOL0     C77862   2.774   5.800   6.617  0.0611  0.0563  1.1642
  565MOL0     O77863   2.874   5.834   6.530 -0.1769  0.1585  0.1215
  565MOL0     C77864   2.844   5.872   6.405 -0.3851 -0.1672  0.5016
  565MOL0     C77865   2.764   5.988   6.387  0.4294 -0.3649 -0.4228
  565MOL0     C77866   2.738   6.026   6.256 -0.2131 -0.1841  0.1006
  565MOL0     C77867   2.792   5.958   6.149  0.0369 -0.0168 -0.1541
  565MOL0     O77868   2.743   6.011   6.031  0.1148  0.9872 -0.7018
  565MOL0     C77869   2.797   5.970   5.899  1.3719 -0.5238 -1.2985
  565MOL0     C77870   2.714   6.026   5.782 -0.6237  0.1697 -0.3129
  565MOL0     C77871   2.690   6.170   5.786 -0.0756 -0.5593  0.4489
  565MOL0     C77872   2.621   6.200   5.654 -0.3091  1.1588  0.4421
  565MOL0     C77873   2.604   6.353   5.636  0.7326 -0.7508  0.8819
  565MOL0     C77874   2.689   6.407   5.521  0.1639  0.4763  0.1719
  565MOL0     C77875   2.686   6.552   5.517 -0.4724 -0.1435 -0.2132
  565MOL0     C77876   2.760   6.632   5.628  0.2740 -0.0963 -0.4192
  565MOL0    Cl77877   2.687   6.634   5.791 -0.1182  0.2942 -0.0039
  565MOL0     C77878   2.893   5.859   6.165 -0.3866 -0.6308  0.0808
  565MOL0     C77879   2.917   5.814   6.298  0.2522 -1.1375  1.4664
  565MOL0     O77880   2.658   5.791   6.579 -0.7817 -0.3814 -0.3047
  565MOL0     C77881   2.933   5.828   6.807  0.3479 -0.3238  0.3706
  565MOL0     C77882   2.977   5.815   6.934 -0.6009  0.5931 -0.4305
  565MOL0     N77883   2.700   5.201   7.508  0.6708 -0.0022  0.0683
  565MOL0     N77884   2.719   5.149   7.620  0.4337 -0.1261  0.0849
  565MOL0     C77885   2.960   5.664   8.731  0.6270 -0.4945 -0.3619
  565MOL0     C77886   3.068   5.704   8.808 -1.2383 -0.4661 -0.4984
  565MOL0     C77887   3.484   5.606   9.052  0.7544  0.7129 -0.6903
  565MOL0     C77888   3.551   5.496   9.103 -0.5343 -0.5134 -0.3169
  565MOL0     C77889   3.693   5.515   9.137  0.2381 -0.5191  0.0497
  565MOL0     C77890   3.762   5.632   9.115  0.6856 -0.6735 -0.1537
  565MOL0     O77891   3.897   5.633   9.143 -0.8130 -0.2730  0.0915
  565MOL0     C77892   3.922   5.743   9.225  0.3971  0.4502 -0.1965
  565MOL0     C77893   4.015   5.841   9.157  0.7947 -0.7839 -0.0882
  565MOL0     C77894   4.016   5.977   9.221 -0.6117  0.4634  0.3610
  565MOL0     C77895   4.143   6.046   9.185 -0.4082  0.2468 -0.0605
  565MOL0     C77896   4.271   5.983   9.229  0.0663  0.0432  0.2786
  565MOL0     C77897   4.380   5.932   9.230  0.1810  0.0960  0.2733
  565MOL0     C77898   3.688   5.743   9.067  1.3434  0.1152 -0.6153
  565MOL0     C77899   3.551   5.731   9.031  0.2585 -0.1384 -0.0783
  565MOL0     C77900   3.492   5.857   8.978  0.0625 -0.8743  0.2924
  565MOL0     H77901   3.240   5.413   8.813  2.1072  2.6239  1.4520
  565MOL0     H77902   3.031   5.335   8.694 -1.9887 -0.7099 -2.7000
  565MOL0     H77903   2.671   5.384   8.666 -0.4288 -3.2795  0.9723
  565MOL0     H77904   2.821   5.305   8.715  0.2410 -2.3495 -1.2145
  565MOL0     H77905   2.727   5.198   8.521 -0.5435  1.7635  1.3322
  565MOL0     H77906   2.740   5.339   8.418  1.4372 -0.0964 -0.2082
  565MOL0     H77907   2.986   5.335   8.451 -0.3965 -0.5505 -1.9292
  565MOL0     H77908   2.972   5.180   8.531  2.5371  2.3698  0.0611
  565MOL0     H77909   3.021   5.125   8.304  1.3189  3.4481 -0.4433
  565MOL0     H77910   2.855   5.076   8.326 -0.8703  0.3147 -0.2778
  565MOL0     H77911   2.913   5.358   8.205  1.7486 -0.2816 -2.2215
  565MOL0     H77912   2.757   5.282   8.211 -0.0064 -0.3776  1.8043
  565MOL0     H77913   2.985   5.166   8.074 -0.1264 -0.5908  1.4484
  565MOL0     H77914   2.837   5.074   8.094 -0.2593 -1.2660 -2.4844
  565MOL0     H77915   2.817   5.346   7.946  0.1139 -1.0555 -2.6173
  565MOL0     H77916   2.692   5.227   7.977 -0.2833  3.4745  0.9145
  565MOL0     H77917   2.951   5.171   7.816 -0.4488  3.6658 -1.7144
  565MOL0     H77918   2.813   5.065   7.847  1.1416  0.1156  0.9492
  565MOL0     H77919   2.831   5.444   7.682  0.2609 -1.0064 -0.9220
  565MOL0     H77920   2.611   5.438   7.382 -1.0460 -2.3379  2.3078
  565MOL0     H77921   2.773   5.409   7.336  1.7108  0.9131  0.7004
  565MOL0     H77922   2.664   5.631   7.525  1.1592  0.4558  1.2630
  565MOL0     H77923   2.829   5.587   7.535 -1.7216 -0.1732  1.6921
  565MOL0     H77924   2.686   5.691   7.291 -2.7849 -0.6981  3.0765
  565MOL0     H77925   2.810   5.766   7.395  1.3982 -1.2770  0.5981
  565MOL0     H77926   2.980   5.597   7.325  4.5389  2.1003 -1.7348
  565MOL0     H77927   2.888   5.537   7.194  1.3760  1.3768 -2.0515
  565MOL0     H77928   2.727   5.593   7.037 -0.1670 -1.4913 -2.2214
  565MOL0     H77929   2.616   5.545   6.751  0.1188  0.1660  0.3801
  565MOL0     H77930   2.539   5.708   6.778 -0.5827 -0.0916  1.0656
  565MOL0     H77931   2.543   5.586   6.897 -2.9370  1.1185 -1.6272
  565MOL0     H77932   2.701   6.021   6.468 -0.3733 -2.9676  0.1068
  565MOL0     H77933   2.666   6.106   6.239 -0.1693 -0.0682  0.4530
  565MOL0     H77934   2.906   5.981   5.903  1.2632  0.2666  0.6714
  565MOL0     H77935   2.779   5.862   5.894  2.2627 -0.7957  0.4892
  565MOL0     H77936   2.759   5.994   5.688  2.0238 -1.0157  1.2592
  565MOL0     H77937   2.614   5.982   5.793  0.2684 -1.9832 -0.3546
  565MOL0     H77938   2.785   6.225   5.786  0.2312 -1.0849 -0.1377
  565MOL0     H77939   2.623   6.198   5.868  0.0364  2.0877 -0.2507
  565MOL0     H77940   2.528   6.143   5.661  1.0431 -1.6066 -1.6110
  565MOL0     H77941   2.676   6.159   5.569 -0.7633  0.4571  0.4737
  565MOL0     H77942   2.499   6.364   5.608  1.1748  0.6354 -0.2884
  565MOL0     H77943   2.613   6.410   5.729  2.7647  1.0344 -0.3237
  565MOL0     H77944   2.648   6.369   5.427 -4.1282  1.3693  1.4764
  565MOL0     H77945   2.795   6.380   5.516  0.5776  1.0975  3.3825
  565MOL0     H77946   2.588   6.594   5.495 -0.4345  0.2838  0.4122
  565MOL0     H77947   2.735   6.584   5.424  0.0893  2.5120  0.9051
  565MOL0     H77948   2.762   6.739   5.607 -1.9920 -0.0678 -0.6977
  565MOL0     H77949   2.862   6.599   5.649  0.0806 -0.6565 -0.3319
  565MOL0     H77950   2.940   5.813   6.079 -2.5882 -0.3324 -1.3325
  565MOL0     H77951   3.000   5.748   6.318 -0.3426 -2.6535 -0.6946
  565MOL0     H77952   2.994   5.886   6.738  0.2982  0.2555  0.7986
  565MOL0     H77953   3.071   5.861   6.963  1.4116 -3.5395  0.3626
  565MOL0     H77954   2.876   5.731   8.716  2.8305  1.8049 -3.8309
  565MOL0     H77955   3.060   5.804   8.850  0.6447  0.2300 -1.6705
  565MOL0     H77956   3.523   5.391   9.096  1.4467 -1.1813  0.9310
  565MOL0     H77957   3.750   5.430   9.174  5.1925  3.7405  3.7543
  565MOL0     H77958   3.838   5.791   9.276  0.6220  1.7212 -0.9792
  565MOL0     H77959   3.982   5.706   9.309 -1.0974  2.8972  2.1085
  565MOL0     H77960   3.972   5.856   9.057  1.1123  0.7621 -0.0196
  565MOL0     H77961   4.104   5.779   9.164 -0.0180 -2.1167 -1.0206
  565MOL0     H77962   3.939   6.040   9.176  0.5217 -0.2251 -2.8178
  565MOL0     H77963   4.009   5.975   9.330 -2.3061 -2.7152  0.3287
  565MOL0     H77964   4.135   6.143   9.235 -2.4569  1.3884 -2.3538
  565MOL0     H77965   4.144   6.078   9.080 -0.5163  1.3657  0.2649
  565MOL0     H77966   4.468   5.872   9.225  1.2073  1.6337 -0.7434
  565MOL0     H77967   3.757   5.823   9.042  1.4635  0.5291  0.9295
  565MOL0     H77968   3.546   5.947   9.009  2.1361 -2.1435  0.5857
  565MOL0     H77969   3.496   5.855   8.868  0.9853 -0.5292  0.3061
  565MOL0     H77970   3.392   5.871   9.018 -0.2984 -1.0633 -0.5114
  566MOL0     O77971   4.248   0.605   7.735 -0.0991  0.2540  0.7535
  566MOL0     C77972   4.214   0.487   7.758  0.1445 -0.5751 -0.4731
  566MOL0     O77973   4.272   0.370   7.711 -0.4104  0.3935 -0.2985
  566MOL0     C77974   4.382   0.378   7.625 -0.2537  0.0829 -0.0467
  566MOL0     C77975   4.489   0.285   7.643 -0.0916 -0.6872 -0.5893
  566MOL0     C77976   4.586   0.273   7.546 -0.7192  0.0494  1.0171
  566MOL0     C77977   4.581   0.348   7.431 -0.3110 -0.1406 -0.3248
  566MOL0     O77978   4.688   0.321   7.343  0.1339 -0.1358  0.5113
  566MOL0     C77979   4.661   0.346   7.217  0.4614  0.2956  0.5937
  566MOL0     C77980   4.789   0.313   7.145  0.0788  0.8553  0.6236
  566MOL0     C77981   4.796   0.366   7.003 -0.2852  0.1743 -0.3927
  566MOL0     C77982   4.731   0.264   6.910 -1.0253 -0.2914  0.0083
  566MOL0     C77983   4.752   0.331   6.772  0.4767  0.3446  0.1584
  566MOL0     C77984   4.696   0.245   6.654 -0.6909 -0.3729  2.0958
  566MOL0     C77985   4.659   0.332   6.536 -0.6580  0.3690  0.8795
  566MOL0     C77986   4.603   0.246   6.426  0.9297  0.3966 -0.5488
  566MOL0     N77987   4.551   0.315   6.308  1.0401 -0.2510  0.1912
  566MOL0     C77988   4.626   0.365   6.212 -0.3094 -0.2398 -0.0189
  566MOL0     C77989   4.543   0.428   6.122 -0.7687  0.0665 -0.6035
  566MOL0     C77990   4.592   0.490   5.996  0.2348 -0.5100 -0.2711
  566MOL0     C77991   4.525   0.614   5.946  1.2500 -0.2843 -0.1170
  566MOL0     C77992   4.573   0.634   5.802 -0.2323 -0.0966  0.2259
  566MOL0     C77993   4.490   0.745   5.741  0.2002 -0.7097  0.1395
  566MOL0     O77994   4.521   0.875   5.793  1.3031  0.4605  0.5171
  566MOL0     C77995   4.437   0.922   5.890 -1.3478  1.2382  0.2153
  566MOL0     C77996   4.493   1.006   5.994  0.1929 -0.1308  0.2895
  566MOL0     C77997   4.418   1.076   6.090 -0.4460  0.0385 -0.4002
  566MOL0     C77998   4.484   1.167   6.190 -1.1964  0.6562  0.3955
  566MOL0     C77999   4.283   1.056   6.091  1.2765  0.4841 -0.0675
  566MOL0     C78000   4.195   1.112   6.189  0.6876 -0.7912  0.1739
  566MOL0     O78001   4.216   1.076   6.321  0.6782  0.2332  0.9414
  566MOL0     C78002   4.136   1.145   6.418  0.4112  1.0568 -0.4758
  566MOL0     C78003   3.999   1.139   6.420 -0.4753  0.0228  0.3675
  566MOL0     C78004   3.919   1.187   6.517  0.4562  0.8514  0.8902
  566MOL0     C78005   3.983   1.263   6.619  0.3420 -0.1662 -0.2160
  566MOL0     O78006   3.913   1.338   6.715  0.2321  0.1633 -0.2450
  566MOL0     C78007   3.776   1.307   6.741  1.0666  0.9006  0.2373
  566MOL0     C78008   3.705   1.401   6.839 -0.0984  0.6159 -1.0507
  566MOL0     C78009   3.790   1.421   6.967 -0.5091 -0.5657 -1.1838
  566MOL0     C78010   3.711   1.493   7.079 -0.4393  0.4392 -0.0753
  566MOL0     C78011   3.707   1.639   7.058 -0.2139  0.5847  0.8352
  566MOL0     C78012   3.638   1.686   7.187 -0.3383 -0.5430 -0.4209
  566MOL0     C78013   3.624   1.840   7.182  0.2598 -1.0032 -0.4008
  566MOL0     C78014   3.641   1.920   7.316 -0.2032  0.4533  0.3264
  566MOL0    Cl78015   3.709   2.079   7.275  0.7163 -0.4130  0.0986
  566MOL0     C78016   4.122   1.277   6.613  0.5433  0.3634 -0.5058
  566MOL0     C78017   4.196   1.214   6.520  0.0269 -0.1295  0.1639
  566MOL0     O78018   4.102   1.180   6.146 -0.4313 -0.0885  0.0434
  566MOL0     C78019   4.224   0.981   5.988 -1.0877  1.3725 -0.9892
  566MOL0     C78020   4.301   0.912   5.888 -0.5386 -0.7438  0.5550
  566MOL0     N78021   4.415   0.392   6.167 -1.1166  0.1860 -0.0528
  566MOL0     N78022   4.420   0.337   6.279 -0.1916  0.5869 -0.4793
  566MOL0     C78023   4.495   0.455   7.427  0.8331  0.0172 -0.0267
  566MOL0     C78024   4.385   0.468   7.515 -0.6075 -0.3025 -0.6258
  566MOL0     C78025   4.082   0.469   7.811 -0.5682 -1.1327  0.1481
  566MOL0     C78026   4.019   0.354   7.775 -0.0856  0.2220 -0.7120
  566MOL0     C78027   3.884   0.338   7.817  0.0520 -0.7844  0.4294
  566MOL0     C78028   3.810   0.444   7.883 -0.2824  1.1467 -0.7988
  566MOL0     O78029   3.674   0.438   7.905  0.0837 -0.0988  0.0404
  566MOL0     C78030   3.609   0.310   7.917 -0.4814 -0.8601  0.5379
  566MOL0     C78031   3.461   0.329   7.932 -1.3229  1.4002 -0.5837
  566MOL0     C78032   3.426   0.427   8.047 -1.1254  0.3707  0.0916
  566MOL0     C78033   3.280   0.428   8.094  0.1552 -0.3557 -0.3298
  566MOL0     C78034   3.211   0.532   8.016  0.6960  0.4992  0.4794
  566MOL0     C78035   3.131   0.621   7.993  0.3889 -0.1238 -0.9762
  566MOL0     C78036   3.881   0.551   7.926 -0.1690  0.2019 -1.1886
  566MOL0     C78037   4.019   0.564   7.899  0.3540 -0.4296 -0.0044
  566MOL0     C78038   4.088   0.687   7.954 -0.9516  0.2876  0.5848
  566MOL0     H78039   4.479   0.210   7.722  0.2997 -2.2130 -1.9320
  566MOL0     H78040   4.655   0.191   7.562 -0.0344  0.5479  0.6416
  566MOL0     H78041   4.629   0.448   7.194  2.4730  0.7254 -0.6039
  566MOL0     H78042   4.583   0.282   7.174  1.2065  0.7690 -1.6216
  566MOL0     H78043   4.875   0.362   7.192  1.1687 -0.0927 -0.3186
  566MOL0     H78044   4.799   0.204   7.149  2.7298  0.9922 -0.1053
  566MOL0     H78045   4.760   0.469   6.991  0.5591  0.9655  2.8497
  566MOL0     H78046   4.901   0.362   6.974 -0.8115 -1.7453 -2.3566
  566MOL0     H78047   4.789   0.171   6.912  0.8314  0.8152 -0.6039
  566MOL0     H78048   4.625   0.263   6.938 -1.5547 -0.4723 -1.8436
  566MOL0     H78049   4.854   0.355   6.742 -0.1843  3.4702  0.1088
  566MOL0     H78050   4.697   0.425   6.781  0.1955  0.0743  1.5165
  566MOL0     H78051   4.769   0.167   6.629 -1.8127 -0.4060 -1.5938
  566MOL0     H78052   4.602   0.196   6.680 -1.6984  0.6670  0.5673
  566MOL0     H78053   4.743   0.379   6.484  0.3535  0.1154  2.2384
  566MOL0     H78054   4.582   0.404   6.566 -2.2235  0.4645 -2.8307
  566MOL0     H78055   4.667   0.163   6.396 -0.0093 -0.6135  0.1464
  566MOL0     H78056   4.509   0.205   6.465  0.2622  1.7260 -0.7043
  566MOL0     H78057   4.735   0.363   6.216 -0.3472  0.1237  2.3967
  566MOL0     H78058   4.591   0.407   5.925  0.4471  0.5410 -1.5406
  566MOL0     H78059   4.696   0.521   6.010  0.6049 -2.0070  0.4624
  566MOL0     H78060   4.416   0.605   5.938  1.2080 -0.6217  0.7912
  566MOL0     H78061   4.548   0.691   6.019 -3.7024  0.6160  0.8827
  566MOL0     H78062   4.681   0.653   5.796 -0.1203 -0.3527  1.2947
  566MOL0     H78063   4.534   0.544   5.754  2.6920 -0.4361 -1.8705
  566MOL0     H78064   4.529   0.757   5.639  2.8192  0.1552  1.1800
  566MOL0     H78065   4.382   0.727   5.744 -0.1237  1.1848  1.1934
  566MOL0     H78066   4.601   1.019   5.993  0.0088  1.9481  1.1710
  566MOL0     H78067   4.568   1.119   6.239 -0.7519 -0.1121 -1.0408
  566MOL0     H78068   4.413   1.205   6.265 -1.6240  2.7631 -0.9735
  566MOL0     H78069   4.523   1.258   6.142 -1.7085  1.6867  1.8565
  566MOL0     H78070   3.966   1.076   6.338 -1.2446  3.0422 -1.8053
  566MOL0     H78071   3.812   1.185   6.497  0.4897 -1.7740  0.7369
  566MOL0     H78072   3.716   1.308   6.650  0.6401  0.6299  0.5112
  566MOL0     H78073   3.761   1.209   6.789  0.1185  0.3727 -1.0650
  566MOL0     H78074   3.686   1.497   6.790  1.8698  2.3431  1.2728
  566MOL0     H78075   3.610   1.355   6.865  0.3241 -0.6296 -1.6436
  566MOL0     H78076   3.887   1.469   6.951  0.6629 -1.6952  1.8522
  566MOL0     H78077   3.809   1.326   7.016  0.7834  0.5753  0.6524
  566MOL0     H78078   3.767   1.471   7.170  1.4657 -0.2615 -1.3514
  566MOL0     H78079   3.616   1.440   7.091 -1.1663  1.9348  0.9898
  566MOL0     H78080   3.807   1.679   7.041 -1.4159  3.0058 -1.1518
  566MOL0     H78081   3.642   1.664   6.974  2.0455  0.6863 -0.9675
  566MOL0     H78082   3.708   1.667   7.269 -0.7405 -1.7584 -0.3398
  566MOL0     H78083   3.548   1.630   7.214  0.2093 -0.8725  0.8139
  566MOL0     H78084   3.527   1.866   7.139  0.1752 -1.7556 -0.6839
  566MOL0     H78085   3.703   1.884   7.121 -1.4869  2.8605 -0.1674
  566MOL0     H78086   3.715   1.873   7.382 -1.6932  1.7275  3.0700
  566MOL0     H78087   3.546   1.922   7.369 -0.7425  1.0879 -0.6288
  566MOL0     H78088   4.151   1.348   6.690  0.1727  1.4638 -1.3559
  566MOL0     H78089   4.302   1.232   6.509 -0.3195  0.6593 -2.6976
  566MOL0     H78090   4.116   0.972   5.993 -0.8548 -1.8913  2.8067
  566MOL0     H78091   4.247   0.863   5.808 -1.9596  1.9553 -0.2295
  566MOL0     H78092   4.509   0.532   7.352 -0.3798 -0.0670 -0.3469
  566MOL0     H78093   4.307   0.543   7.502 -0.3837 -0.3870 -2.9982
  566MOL0     H78094   4.064   0.270   7.722 -0.5294  0.3324 -1.2754
  566MOL0     H78095   3.835   0.247   7.784  0.0600 -1.0728  1.1947
  566MOL0     H78096   3.631   0.254   7.825  2.6545  3.9035 -2.0087
  566MOL0     H78097   3.652   0.264   8.006  0.0687  2.5757  2.2096
  566MOL0     H78098   3.404   0.240   7.958  2.5588 -0.7153  1.5878
  566MOL0     H78099   3.422   0.354   7.833 -1.4703  0.1674 -0.8418
  566MOL0     H78100   3.482   0.406   8.139  0.5108  3.5162 -0.0752
  566MOL0     H78101   3.458   0.528   8.020  0.2717 -0.4836 -1.7371
  566MOL0     H78102   3.268   0.450   8.200  0.6081  0.8451 -0.5146
  566MOL0     H78103   3.239   0.327   8.086 -0.8849 -0.0065  0.4856
  566MOL0     H78104   3.087   0.713   7.962  1.7944  1.9958  2.6415
  566MOL0     H78105   3.835   0.638   7.971 -1.6285 -1.2593  0.2644
  566MOL0     H78106   4.024   0.768   7.990 -0.7755 -0.6380  3.1740
  566MOL0     H78107   4.164   0.674   8.031 -0.0082  2.1992  0.0405
  566MOL0     H78108   4.124   0.749   7.872 -0.7810  1.1095  1.2705
  567MOL0     O78109   6.404   9.533   7.844  1.0906  0.3539 -0.0321
  567MOL0     C78110   6.340   9.564   7.943  0.0595  0.1544  0.1069
  567MOL0     O78111   6.225   9.511   7.990 -0.4033  0.5974  0.6584
  567MOL0     C78112   6.178   9.414   7.903 -0.4248  0.2681  0.1557
  567MOL0     C78113   6.182   9.279   7.944 -1.1316  0.4035 -0.4723
  567MOL0     C78114   6.127   9.177   7.866 -0.1186  0.3999  0.8222
  567MOL0     C78115   6.064   9.207   7.747 -0.6335  0.5178  0.0532
  567MOL0     O78116   5.987   9.116   7.673 -0.1806  0.8785 -0.3931
  567MOL0     C78117   5.850   9.136   7.690  0.0448 -0.0894 -0.3107
  567MOL0     C78118   5.771   9.118   7.567 -0.2642 -0.2301  0.4074
  567MOL0     C78119   5.785   8.973   7.518 -0.7494 -0.6229  0.4914
  567MOL0     C78120   5.730   8.965   7.376 -0.1259  0.1764 -0.4190
  567MOL0     C78121   5.729   8.819   7.315  0.9009 -0.8928 -0.1837
  567MOL0     C78122   5.861   8.758   7.258  0.3291  0.2705  0.8299
  567MOL0     C78123   5.864   8.630   7.169 -0.4883 -0.1666 -0.1393
  567MOL0     C78124   5.811   8.504   7.239  0.3404 -0.3345 -0.0587
  567MOL0     N78125   5.903   8.472   7.339  0.1091 -0.7944  1.0082
  567MOL0     C78126   6.018   8.395   7.319 -0.7723  0.2387  0.2646
  567MOL0     C78127   6.074   8.378   7.451  0.0764 -0.8318  0.4460
  567MOL0     C78128   6.194   8.290   7.486  0.1949  0.3964  0.2159
  567MOL0     C78129   6.314   8.350   7.429 -0.2147 -0.8013 -0.6217
  567MOL0     C78130   6.450   8.273   7.458  0.1438  0.4427  0.7628
  567MOL0     C78131   6.576   8.359   7.450  0.1630  0.3773  0.0847
  567MOL0     O78132   6.568   8.473   7.362 -0.8124  0.1194  0.0498
  567MOL0     C78133   6.665   8.568   7.382 -0.7536  0.2217  0.4818
  567MOL0     C78134   6.651   8.690   7.315 -0.0021  0.6948 -0.5859
  567MOL0     C78135   6.755   8.777   7.314 -0.2338  0.2185  0.4743
  567MOL0     C78136   6.733   8.898   7.226  1.1037 -0.0481 -1.0693
  567MOL0     C78137   6.875   8.754   7.387  0.4507  0.3243 -0.2990
  567MOL0     C78138   6.988   8.855   7.398  0.7588 -0.1488 -0.4453
  567MOL0     O78139   7.008   8.928   7.291 -0.0049 -0.2671  0.9645
  567MOL0     C78140   7.117   9.005   7.293  0.2288  0.7432  0.4898
  567MOL0     C78141   7.130   9.116   7.389 -0.6425  0.7659  0.5710
  567MOL0     C78142   7.241   9.208   7.368  0.1892 -0.4843  0.3354
  567MOL0     C78143   7.347   9.195   7.281 -0.0706 -0.3398 -0.9858
  567MOL0     O78144   7.454   9.277   7.263  0.5528  0.9225  0.1181
  567MOL0     C78145   7.457   9.390   7.340 -0.6105  0.2511  0.0402
  567MOL0     C78146   7.588   9.474   7.304  0.8408  0.7352  0.2210
  567MOL0     C78147   7.598   9.593   7.398  0.2903  0.5418  0.6159
  567MOL0     C78148   7.715   9.681   7.359 -0.0121 -0.6744  0.3048
  567MOL0     C78149   7.721   9.807   7.451 -0.1882 -0.7158 -0.0594
  567MOL0     C78150   7.799   9.920   7.390 -0.2187  0.4381  0.4104
  567MOL0     C78151   7.947   9.917   7.396 -0.8445  0.6052  0.6717
  567MOL0     C78152   8.006  10.057   7.380 -0.2396  0.0325  0.4524
  567MOL0    Cl78153   7.984  10.148   7.529 -0.4574  0.0239 -0.3627
  567MOL0     C78154   7.334   9.087   7.195 -0.6954  0.2281  0.2070
  567MOL0     C78155   7.231   8.986   7.204 -0.1703  0.2393  0.5500
  567MOL0     O78156   7.049   8.865   7.506 -0.2116  0.4879 -0.2449
  567MOL0     C78157   6.891   8.631   7.454  0.3349 -0.0988 -0.8586
  567MOL0     C78158   6.780   8.545   7.455  0.1404 -0.2586  0.7614
  567MOL0     N78159   5.995   8.460   7.534  0.2485 -0.3972  0.5032
  567MOL0     N78160   5.898   8.513   7.471 -0.6295  0.6601  0.2081
  567MOL0     C78161   6.049   9.339   7.712 -0.0539 -0.8088 -0.3344
  567MOL0     C78162   6.106   9.442   7.792 -0.1782 -0.2242 -0.1582
  567MOL0     C78163   6.392   9.674   8.020  0.3965  0.5117 -0.3462
  567MOL0     C78164   6.417   9.783   7.939  0.3751  0.0441  0.3578
  567MOL0     C78165   6.440   9.911   7.993 -0.1438  1.0980  0.7152
  567MOL0     C78166   6.469   9.928   8.127 -0.3770  0.4408 -1.1411
  567MOL0     O78167   6.478  10.055   8.188  0.4974 -0.8625 -0.7603
  567MOL0     C78168   6.515  10.166   8.110 -0.0738 -0.4187  1.0345
  567MOL0     C78169   6.530  10.284   8.198  0.0715 -0.8642 -0.7775
  567MOL0     C78170   6.622  10.261   8.326 -0.6743 -1.3173 -0.5592
  567MOL0     C78171   6.628  10.390   8.419 -0.5148  0.0242  0.1369
  567MOL0     C78172   6.506  10.407   8.486  0.5141  0.0009 -0.6749
  567MOL0     C78173   6.406  10.414   8.562 -0.3241 -0.0218  0.8755
  567MOL0     C78174   6.434   9.821   8.205  0.1673 -0.1547 -0.1056
  567MOL0     C78175   6.392   9.698   8.157 -0.5278  0.7177  0.4512
  567MOL0     C78176   6.359   9.592   8.265  0.7323  0.1020  0.4629
  567MOL0     H78177   6.238   9.258   8.034 -0.8389  0.8994 -0.5355
  567MOL0     H78178   6.121   9.079   7.913 -0.1254 -0.6626 -1.2619
  567MOL0     H78179   5.817   9.220   7.751 -1.2536 -0.3237 -0.6707
  567MOL0     H78180   5.821   9.054   7.757 -0.4691  0.5134  0.2090
  567MOL0     H78181   5.667   9.142   7.592 -1.7170 -4.2663 -0.9574
  567MOL0     H78182   5.813   9.182   7.489 -0.1900 -0.4726  0.2474
  567MOL0     H78183   5.892   8.955   7.507 -0.4393  1.3450 -0.0905
  567MOL0     H78184   5.736   8.900   7.583  0.3353 -0.8750  1.0374
  567MOL0     H78185   5.629   9.007   7.384  0.0237  0.3839  0.5129
  567MOL0     H78186   5.792   9.032   7.316  0.8435 -1.3745 -1.2195
  567MOL0     H78187   5.661   8.835   7.231  1.0343 -0.5014 -0.2170
  567MOL0     H78188   5.681   8.753   7.388  0.3242 -0.3963 -0.1048
  567MOL0     H78189   5.922   8.832   7.206 -0.0976 -0.9987 -1.6365
  567MOL0     H78190   5.920   8.732   7.347  0.2838 -0.5853  0.6151
  567MOL0     H78191   5.968   8.613   7.139 -0.5551 -0.8575  0.0124
  567MOL0     H78192   5.817   8.651   7.072 -2.8363  2.4392  1.4167
  567MOL0     H78193   5.718   8.531   7.290 -0.1729 -3.3022  0.7646
  567MOL0     H78194   5.787   8.420   7.173 -0.5830 -2.4375  2.7413
  567MOL0     H78195   6.057   8.352   7.228  1.7571  1.4719  0.6797
  567MOL0     H78196   6.185   8.183   7.465  0.0059  0.5745 -0.6393
  567MOL0     H78197   6.206   8.286   7.595  1.3745 -0.5664  0.0741
  567MOL0     H78198   6.295   8.358   7.322  0.0761 -0.1744 -0.6297
  567MOL0     H78199   6.318   8.453   7.466 -1.9228 -0.9709  0.1563
  567MOL0     H78200   6.463   8.215   7.550 -0.5432  0.7138  1.0349
  567MOL0     H78201   6.461   8.203   7.374  0.3148 -0.2790  1.3703
  567MOL0     H78202   6.603   8.385   7.553  0.1263  1.2791 -0.1222
  567MOL0     H78203   6.656   8.299   7.406 -0.7589  0.6649 -2.1353
  567MOL0     H78204   6.566   8.701   7.248  0.8776 -0.7751 -2.0399
  567MOL0     H78205   6.626   8.916   7.215  0.4384 -0.7357  2.8135
  567MOL0     H78206   6.773   8.881   7.125 -0.0821  0.6439 -1.6839
  567MOL0     H78207   6.777   8.992   7.263  2.2604 -0.2135 -1.9440
  567MOL0     H78208   7.054   9.125   7.467 -1.2963  0.6473 -0.0419
  567MOL0     H78209   7.235   9.293   7.436 -0.6362 -2.3743  2.7659
  567MOL0     H78210   7.368   9.451   7.322 -1.1868  0.6944  3.5239
  567MOL0     H78211   7.469   9.363   7.446  1.5878 -0.7204 -0.4079
  567MOL0     H78212   7.678   9.412   7.316  1.1434  1.5922  3.1059
  567MOL0     H78213   7.578   9.510   7.201 -0.6078 -1.8934 -0.6505
  567MOL0     H78214   7.618   9.553   7.497 -3.8146 -0.0370  1.4213
  567MOL0     H78215   7.512   9.662   7.398  0.3674  0.6382  0.7023
  567MOL0     H78216   7.708   9.716   7.255  3.0796  1.8886  0.8056
  567MOL0     H78217   7.811   9.630   7.371  1.5981  2.4700  1.9846
  567MOL0     H78218   7.619   9.847   7.448  0.0545  0.0184  1.0202
  567MOL0     H78219   7.733   9.779   7.556 -1.3991  2.3405  1.0072
  567MOL0     H78220   7.761  10.010   7.438 -1.6266  1.1782 -1.8941
  567MOL0     H78221   7.770   9.928   7.285 -0.2519  0.5022  0.4245
  567MOL0     H78222   7.985   9.858   7.312  1.1188 -0.4496  2.2097
  567MOL0     H78223   7.987   9.868   7.486  0.5406 -1.0072 -0.7485
  567MOL0     H78224   7.955  10.102   7.293  1.9920  0.2733 -0.7942
  567MOL0     H78225   8.113  10.054   7.359 -0.1464 -0.3370  0.9738
  567MOL0     H78226   7.409   9.069   7.119  0.5058  3.5145  0.4307
  567MOL0     H78227   7.223   8.896   7.144  1.5062  0.5034 -0.1205
  567MOL0     H78228   6.976   8.608   7.517 -1.3469 -1.0464  1.2092
  567MOL0     H78229   6.801   8.454   7.510  2.9649 -0.2304 -0.1022
  567MOL0     H78230   5.990   9.372   7.627  1.0069 -2.3890 -1.7433
  567MOL0     H78231   6.090   9.546   7.766  0.3611  1.1074  4.0701
  567MOL0     H78232   6.412   9.775   7.831  1.2005  0.0252  0.3167
  567MOL0     H78233   6.456  10.000   7.934  2.2216  0.1651 -0.1790
  567MOL0     H78234   6.599  10.138   8.046 -2.0322  1.0622 -2.4811
  567MOL0     H78235   6.431  10.184   8.042 -1.5648 -4.2687  1.6093
  567MOL0     H78236   6.431  10.310   8.235  1.4618  0.7505  2.1960
  567MOL0     H78237   6.579  10.366   8.144 -1.7683  0.6884 -0.2021
  567MOL0     H78238   6.588  10.176   8.386 -2.0434 -0.2661  0.2257
  567MOL0     H78239   6.722  10.228   8.297  0.9003  0.9557  1.9123
  567MOL0     H78240   6.637  10.478   8.354  3.9164 -0.9315 -0.8729
  567MOL0     H78241   6.716  10.400   8.483 -0.1212  0.7882 -0.5046
  567MOL0     H78242   6.329  10.434   8.634 -0.4445 -0.1001  0.7686
  567MOL0     H78243   6.438   9.823   8.313  3.2608  0.3194 -0.1264
  567MOL0     H78244   6.265   9.549   8.231 -0.0667  0.2200  2.4295
  567MOL0     H78245   6.433   9.512   8.273 -1.4745 -1.9759  1.1429
  567MOL0     H78246   6.330   9.645   8.356  0.9073 -1.1867  1.2828
  568MOL0     O78247   3.680   6.735   8.726 -0.1289  0.0420 -0.5120
  568MOL0     C78248   3.638   6.789   8.829  0.8653 -0.6758 -0.3997
  568MOL0     O78249   3.722   6.830   8.933  0.7344 -0.6886  0.5444
  568MOL0     C78250   3.862   6.825   8.940 -0.1410 -0.2916 -0.4329
  568MOL0     C78251   3.915   6.872   9.066  0.0002  0.3650  0.6684
  568MOL0     C78252   4.046   6.857   9.086 -0.0982 -0.5050 -0.0959
  568MOL0     C78253   4.135   6.819   8.985  0.1248  0.9003  0.6244
  568MOL0     O78254   4.267   6.807   9.018 -0.3421 -0.5347  0.9485
  568MOL0     C78255   4.335   6.717   8.942  0.4919  0.2254  0.6496
  568MOL0     C78256   4.482   6.693   8.996  0.3741  1.0808  0.7711
  568MOL0     C78257   4.566   6.814   8.989  0.5994 -0.3309 -0.4445
  568MOL0     C78258   4.613   6.851   8.843  0.4234  0.1101  0.2271
  568MOL0     C78259   4.713   6.749   8.782 -0.1389  0.2311  0.7864
  568MOL0     C78260   4.719   6.759   8.628 -0.5607  0.2039  0.3369
  568MOL0     C78261   4.592   6.743   8.547  0.4138  1.0472 -0.0982
  568MOL0     C78262   4.537   6.602   8.551  1.3184 -0.3072 -0.0926
  568MOL0     N78263   4.394   6.582   8.500 -0.2353 -0.3623 -0.2535
  568MOL0     C78264   4.362   6.581   8.368  0.4892  0.6629 -0.1163
  568MOL0     C78265   4.227   6.561   8.377 -0.9589 -0.5380  0.7556
  568MOL0     C78266   4.134   6.526   8.265  0.2875  0.5472  0.8163
  568MOL0     C78267   4.194   6.433   8.160  0.1253 -0.0740 -0.2820
  568MOL0     C78268   4.189   6.285   8.211  0.3472  0.7249 -0.3005
  568MOL0     C78269   4.055   6.217   8.166  0.2965  0.1649 -0.3357
  568MOL0     O78270   4.036   6.217   8.025 -0.0684 -0.0438 -0.2273
  568MOL0     C78271   4.078   6.116   7.947 -0.1176 -1.0940 -0.4305
  568MOL0     C78272   4.086   5.982   7.993  0.4376  0.2859  0.4172
  568MOL0     C78273   4.105   5.874   7.905 -0.3341  0.4411  0.2257
  568MOL0     C78274   4.101   5.742   7.973 -0.3613 -0.0318  0.5482
  568MOL0     C78275   4.118   5.892   7.766 -0.3670  0.1142  0.3201
  568MOL0     C78276   4.135   5.793   7.657  0.0054 -0.6327  0.1436
  568MOL0     O78277   4.175   5.837   7.531 -0.0785 -0.1752  0.1597
  568MOL0     C78278   4.269   5.764   7.471 -0.2875 -0.0268 -0.2671
  568MOL0     C78279   4.398   5.811   7.481 -0.3421 -0.7731  0.4417
  568MOL0     C78280   4.505   5.738   7.435 -0.1452 -0.0117  0.9802
  568MOL0     C78281   4.482   5.609   7.374 -0.4175 -0.2713 -0.2115
  568MOL0     O78282   4.594   5.546   7.332 -0.6631 -0.1699  0.2160
  568MOL0     C78283   4.666   5.492   7.455 -0.1956  0.8263 -0.5690
  568MOL0     C78284   4.684   5.337   7.460  0.4450 -0.6492 -0.3720
  568MOL0     C78285   4.551   5.260   7.452  0.1479  0.4153 -0.1611
  568MOL0     C78286   4.455   5.288   7.565  1.0423 -0.1019 -0.1657
  568MOL0     C78287   4.320   5.212   7.534 -0.6608  0.2525 -0.3143
  568MOL0     C78288   4.200   5.263   7.627  0.5154 -0.6748  0.1251
  568MOL0     C78289   4.252   5.280   7.770  0.4093 -0.6478 -0.1553
  568MOL0     C78290   4.147   5.313   7.874 -1.2375 -0.1967  0.4918
  568MOL0    Cl78291   4.039   5.174   7.897  0.1119  0.0612  0.3026
  568MOL0     C78292   4.357   5.553   7.379  0.3123 -1.2822  0.9669
  568MOL0     C78293   4.249   5.627   7.425 -0.3213  0.5514  0.1147
  568MOL0     O78294   4.102   5.677   7.684 -0.1108  0.8294  1.2162
  568MOL0     C78295   4.110   6.024   7.723 -0.6462  0.0622  0.0542
  568MOL0     C78296   4.099   6.137   7.807  0.1924  0.2749  0.4943
  568MOL0     N78297   4.185   6.554   8.509  0.4108 -0.5348  0.7778
  568MOL0     N78298   4.287   6.574   8.587  0.6726 -0.4056  1.0104
  568MOL0     C78299   4.082   6.796   8.851  0.8533 -0.5192  0.5193
  568MOL0     C78300   3.945   6.797   8.830  0.6906 -0.6059  0.0244
  568MOL0     C78301   3.497   6.829   8.848 -0.1865  0.4780 -0.9547
  568MOL0     C78302   3.470   6.892   8.979  0.5506 -0.2296  0.3574
  568MOL0     C78303   3.341   6.953   8.993  1.4200  0.5518 -0.0703
  568MOL0     C78304   3.245   6.942   8.899  0.1786  0.2617  0.0659
  568MOL0     O78305   3.117   6.987   8.908  0.6688 -0.6687 -0.9862
  568MOL0     C78306   3.106   7.120   8.848 -0.1877 -0.0074 -0.4300
  568MOL0     C78307   3.135   7.215   8.964  0.0158 -0.7433 -0.1491
  568MOL0     C78308   3.063   7.348   8.934  0.4471  0.2431 -0.1781
  568MOL0     C78309   3.110   7.474   9.007  0.3027 -0.1858 -0.2724
  568MOL0     C78310   3.150   7.450   9.147  0.5489  0.2617  0.4585
  568MOL0     C78311   3.195   7.426   9.258  0.8884  0.5396 -0.3422
  568MOL0     C78312   3.272   6.873   8.779 -0.4936  0.1231 -0.4120
  568MOL0     C78313   3.404   6.824   8.746  1.5654 -0.4463 -1.2919
  568MOL0     C78314   3.419   6.795   8.601 -0.7897 -0.8846  0.6097
  568MOL0     H78315   3.854   6.913   9.145  0.7922  2.4822  0.2717
  568MOL0     H78316   4.081   6.874   9.187  2.0142 -0.8638 -0.7122
  568MOL0     H78317   4.355   6.750   8.839  0.5362 -2.2188 -0.2030
  568MOL0     H78318   4.278   6.628   8.914 -1.0261  1.6088 -0.9139
  568MOL0     H78319   4.491   6.663   9.100 -4.5889 -0.0398  1.1115
  568MOL0     H78320   4.522   6.607   8.942 -2.2942 -1.3861  2.4055
  568MOL0     H78321   4.520   6.899   9.040  4.6361 -0.7101  4.7033
  568MOL0     H78322   4.656   6.789   9.047 -0.7905 -0.5677  1.7178
  568MOL0     H78323   4.523   6.868   8.784  0.7418 -0.2875 -0.3744
  568MOL0     H78324   4.674   6.941   8.841  4.9897 -2.6744 -0.2591
  568MOL0     H78325   4.684   6.649   8.817  2.1060 -1.1841 -1.1103
  568MOL0     H78326   4.816   6.761   8.818  1.1097  0.1722 -2.4737
  568MOL0     H78327   4.757   6.857   8.597  0.2465 -0.7775 -2.0404
  568MOL0     H78328   4.775   6.674   8.590 -4.0894 -1.6970 -1.1057
  568MOL0     H78329   4.612   6.772   8.444 -1.0422  2.6636  0.0143
  568MOL0     H78330   4.508   6.812   8.559 -1.6392 -0.6343 -3.4128
  568MOL0     H78331   4.608   6.549   8.486  2.5203 -0.6051  1.4144
  568MOL0     H78332   4.559   6.559   8.649  2.4202  1.3952  0.4497
  568MOL0     H78333   4.429   6.582   8.282  1.1038  0.1574  0.3462
  568MOL0     H78334   4.116   6.620   8.212 -1.8883 -1.0235 -1.4291
  568MOL0     H78335   4.038   6.502   8.313 -0.7956  0.4179 -1.3044
  568MOL0     H78336   4.132   6.433   8.069 -3.1928 -1.3282  1.7971
  568MOL0     H78337   4.292   6.473   8.135 -0.1667 -0.2496 -1.8250
  568MOL0     H78338   4.274   6.234   8.163  1.4230  3.0285 -1.0020
  568MOL0     H78339   4.219   6.292   8.316  3.5050  1.7874 -1.1258
  568MOL0     H78340   4.036   6.131   8.232  1.9515  0.7347  0.9437
  568MOL0     H78341   3.972   6.279   8.202 -0.3417 -1.3815  1.0213
  568MOL0     H78342   4.057   5.959   8.095 -2.1814 -1.1323 -0.5580
  568MOL0     H78343   4.034   5.676   7.917 -0.4242  0.6057 -0.1391
  568MOL0     H78344   4.066   5.743   8.076  0.9456  3.2894  1.1024
  568MOL0     H78345   4.205   5.709   7.985 -0.4283 -1.2731 -1.6547
  568MOL0     H78346   4.413   5.903   7.536 -1.1544  0.1203 -0.7937
  568MOL0     H78347   4.608   5.771   7.436  0.5061 -1.8348 -0.8020
  568MOL0     H78348   4.759   5.549   7.457 -1.4735  3.0791 -0.8756
  568MOL0     H78349   4.619   5.512   7.552  2.9151  0.9579  1.0455
  568MOL0     H78350   4.752   5.303   7.381  0.4858  1.8644 -1.5132
  568MOL0     H78351   4.727   5.325   7.560 -3.8497 -1.7331  1.6090
  568MOL0     H78352   4.587   5.157   7.454 -1.0106  0.0175  1.5063
  568MOL0     H78353   4.496   5.274   7.358 -0.8563  0.2533  0.3913
  568MOL0     H78354   4.438   5.395   7.559 -0.0933 -0.2599  0.0572
  568MOL0     H78355   4.499   5.260   7.661 -0.3652  2.0463  1.1701
  568MOL0     H78356   4.290   5.228   7.430  0.5858  0.3497 -0.6773
  568MOL0     H78357   4.342   5.105   7.533  0.8464  0.5116  1.3334
  568MOL0     H78358   4.116   5.193   7.622 -0.9214  1.0238 -0.3277
  568MOL0     H78359   4.163   5.358   7.588 -0.6395 -1.4466 -0.7063
  568MOL0     H78360   4.314   5.370   7.779  0.0140 -0.3508 -0.3454
  568MOL0     H78361   4.306   5.194   7.808 -1.0827 -1.0435  1.1997
  568MOL0     H78362   4.074   5.388   7.844 -2.7959 -2.1200 -0.8029
  568MOL0     H78363   4.195   5.344   7.967 -0.2630 -2.0294  0.6605
  568MOL0     H78364   4.336   5.453   7.343  0.7335 -2.2666  3.2853
  568MOL0     H78365   4.149   5.586   7.425 -0.1761  0.1822 -0.5052
  568MOL0     H78366   4.119   6.044   7.616  0.6067 -1.7045 -0.2166
  568MOL0     H78367   4.090   6.234   7.760  1.5825 -0.6148 -1.7857
  568MOL0     H78368   4.151   6.760   8.775 -0.9464 -2.0374 -0.4753
  568MOL0     H78369   3.897   6.763   8.739 -1.0972  0.6891  0.4460
  568MOL0     H78370   3.534   6.893   9.066 -1.4806  1.1147  1.9205
  568MOL0     H78371   3.317   6.991   9.092  1.5211  0.2581  0.0692
  568MOL0     H78372   3.174   7.134   8.763 -1.9005  0.4240 -1.7706
  568MOL0     H78373   3.008   7.143   8.806 -0.2664 -1.9031 -1.3941
  568MOL0     H78374   3.239   7.225   8.996  0.0817 -1.7506 -0.0276
  568MOL0     H78375   3.090   7.184   9.058 -2.3996  1.6273 -0.3877
  568MOL0     H78376   3.071   7.382   8.831  0.0498  3.7029  0.8142
  568MOL0     H78377   2.958   7.335   8.958  0.8751  2.2832  3.5122
  568MOL0     H78378   3.039   7.557   9.004  0.0392 -0.3703  0.6613
  568MOL0     H78379   3.197   7.518   8.958  0.9099 -2.1994 -1.1052
  568MOL0     H78380   3.245   7.408   9.351 -0.1341  3.8505  0.9638
  568MOL0     H78381   3.196   6.863   8.702 -0.9587 -1.7730  0.2232
  568MOL0     H78382   3.516   6.816   8.554 -0.1309 -2.8664  0.9891
  568MOL0     H78383   3.391   6.695   8.569 -0.8562 -0.9061  0.7346
  568MOL0     H78384   3.360   6.868   8.545 -1.5578  0.1889  2.7171
  569MOL0     O78385   6.093   3.224  11.543  0.4072  0.9113  0.7068
  569MOL0     C78386   6.000   3.225  11.461 -0.8980  0.1984  0.8307
  569MOL0     O78387   6.012   3.205  11.328 -0.2540  0.3580  0.1286
  569MOL0     C78388   6.137   3.171  11.284  0.2933 -0.0650  0.6384
  569MOL0     C78389   6.187   3.259  11.188  0.0714  0.2931  0.4452
  569MOL0     C78390   6.312   3.236  11.129 -0.0881  0.7191  0.5315
  569MOL0     C78391   6.383   3.115  11.163 -0.1074  0.1736 -0.9523
  569MOL0     O78392   6.515   3.091  11.119  0.3006  0.0191  0.0137
  569MOL0     C78393   6.597   3.193  11.053  0.1633  0.1826 -0.9649
  569MOL0     C78394   6.733   3.145  10.996 -0.0459  0.6459 -0.0451
  569MOL0     C78395   6.803   3.030  11.079 -0.1949  0.0599 -0.1697
  569MOL0     C78396   6.833   3.054  11.233  0.4946  0.9561 -0.0557
  569MOL0     C78397   6.953   3.142  11.256  0.2138 -0.4304  0.8925
  569MOL0     C78398   6.966   3.179  11.408  0.2286  0.2135  0.0116
  569MOL0     C78399   7.086   3.279  11.434  0.9005 -0.7080  0.3826
  569MOL0     C78400   7.221   3.221  11.456  0.4611  0.3254 -0.3164
  569MOL0     N78401   7.226   3.150  11.586  1.4682 -1.9449  0.4362
  569MOL0     C78402   7.241   3.198  11.717  0.0660  0.5682 -0.3875
  569MOL0     C78403   7.232   3.089  11.791 -0.7374  0.4772 -0.5539
  569MOL0     C78404   7.234   3.084  11.945 -0.5517  0.0443 -0.6076
  569MOL0     C78405   7.236   3.216  12.022 -0.3801 -1.1071  1.0056
  569MOL0     C78406   7.381   3.261  12.030  0.7289 -0.6505  0.7519
  569MOL0     C78407   7.385   3.408  12.089  0.1407 -0.6907  0.2502
  569MOL0     O78408   7.290   3.426  12.205 -0.6850  0.4195  0.3610
  569MOL0     C78409   7.241   3.552  12.226 -0.6898  0.2291 -0.7417
  569MOL0     C78410   7.286   3.673  12.168  1.3710  0.2340  0.6332
  569MOL0     C78411   7.214   3.792  12.184 -0.5619 -0.6565  0.6388
  569MOL0     C78412   7.273   3.921  12.128 -0.3098  0.9863 -0.7572
  569MOL0     C78413   7.101   3.791  12.268  0.4942  0.4409  0.3607
  569MOL0     C78414   7.023   3.916  12.284 -0.0729 -0.5049 -0.6607
  569MOL0     O78415   7.013   3.959  12.409  0.5590 -0.5330  0.5444
  569MOL0     C78416   6.918   4.048  12.451  0.1927 -0.3400 -0.0863
  569MOL0     C78417   6.778   4.021  12.439  0.4622 -0.9357 -0.2585
  569MOL0     C78418   6.686   4.126  12.487 -0.7818 -0.9000 -0.7941
  569MOL0     C78419   6.739   4.247  12.543 -0.1838 -1.7935 -0.0242
  569MOL0     O78420   6.635   4.328  12.596 -0.0043 -0.4670 -0.0873
  569MOL0     C78421   6.644   4.387  12.728  0.2433  0.1696  0.2256
  569MOL0     C78422   6.542   4.327  12.827  0.3054  0.6303 -0.4409
  569MOL0     C78423   6.565   4.378  12.968  0.5008 -0.4485 -0.1179
  569MOL0     C78424   6.458   4.319  13.068  0.3946 -0.5709 -0.9421
  569MOL0     C78425   6.364   4.425  13.136  0.3193 -0.3459  0.0305
  569MOL0     C78426   6.271   4.484  13.031  0.1515 -0.1959  0.0097
  569MOL0     C78427   6.166   4.560  13.111 -0.1609 -0.4520 -0.5934
  569MOL0     C78428   6.056   4.642  13.032 -0.4436  0.5321 -1.3594
  569MOL0    Cl78429   5.936   4.527  12.945  0.0568  0.0942 -0.2811
  569MOL0     C78430   6.883   4.268  12.542 -0.3297 -0.8815 -0.1128
  569MOL0     C78431   6.965   4.163  12.501 -0.1221  0.3218  0.4429
  569MOL0     O78432   6.960   3.961  12.188 -0.6871 -0.5100 -0.1160
  569MOL0     C78433   7.053   3.674  12.325  0.1686  0.2804 -0.3681
  569MOL0     C78434   7.121   3.560  12.312  0.9584  0.2817  0.2102
  569MOL0     N78435   7.209   2.981  11.713 -0.2171  1.1168 -0.4082
  569MOL0     N78436   7.190   3.018  11.589  0.1472  0.2640 -0.1268
  569MOL0     C78437   6.329   3.031  11.257 -0.1342 -0.3061 -0.0719
  569MOL0     C78438   6.207   3.051  11.311 -0.4932 -0.4399 -0.5585
  569MOL0     C78439   5.870   3.257  11.506 -0.0535  0.2597  0.0248
  569MOL0     C78440   5.855   3.320  11.630 -0.7067  0.3296 -0.6912
  569MOL0     C78441   5.733   3.330  11.691 -0.5640  0.2545 -0.4930
  569MOL0     C78442   5.617   3.302  11.629  0.0235 -0.2697 -0.8056
  569MOL0     O78443   5.500   3.331  11.691 -0.0948  0.1687  0.0480
  569MOL0     C78444   5.406   3.218  11.703 -0.5984  0.2321 -0.3929
  569MOL0     C78445   5.435   3.141  11.827  0.5584 -0.0713  0.5297
  569MOL0     C78446   5.343   3.014  11.834  1.0387  0.3103 -0.4330
  569MOL0     C78447   5.415   2.894  11.784 -0.1158  0.3313 -0.2287
  569MOL0     C78448   5.358   2.771  11.849 -0.0151 -0.8968  0.2036
  569MOL0     C78449   5.306   2.678  11.899  0.0371  0.4105  0.3435
  569MOL0     C78450   5.627   3.244  11.501  0.3693 -0.4432  0.8525
  569MOL0     C78451   5.751   3.219  11.437 -0.0471 -0.8333 -0.1797
  569MOL0     C78452   5.754   3.159  11.304 -0.5622 -0.0493  0.6950
  569MOL0     H78453   6.137   3.346  11.148  0.5076 -0.1855 -1.2404
  569MOL0     H78454   6.350   3.302  11.051  1.2667  0.0113  0.5574
  569MOL0     H78455   6.602   3.267  11.133 -2.6426  0.5832 -1.0581
  569MOL0     H78456   6.541   3.238  10.972 -0.3468  1.8372  0.2601
  569MOL0     H78457   6.707   3.110  10.896  0.5019  1.2124 -0.3878
  569MOL0     H78458   6.809   3.222  10.986 -0.8035  1.1066 -3.2874
  569MOL0     H78459   6.741   2.940  11.083  0.8627 -0.6478  3.4470
  569MOL0     H78460   6.897   3.016  11.025  1.6433  0.9495  2.6123
  569MOL0     H78461   6.753   3.107  11.284  1.3069  0.0518  2.2968
  569MOL0     H78462   6.848   2.955  11.277 -1.6290  0.5928 -0.0607
  569MOL0     H78463   6.931   3.235  11.202  4.5606  1.5173  2.0090
  569MOL0     H78464   7.046   3.115  11.207  1.2934  0.9396  2.0889
  569MOL0     H78465   6.875   3.233  11.437 -0.5454 -1.6615  1.2561
  569MOL0     H78466   6.967   3.090  11.471 -2.8080 -1.0275 -1.4824
  569MOL0     H78467   7.055   3.332  11.524 -2.9890 -1.7159 -0.1526
  569MOL0     H78468   7.084   3.355  11.355 -0.9356  1.4766  2.3662
  569MOL0     H78469   7.238   3.147  11.377 -1.4871 -1.7911  1.1177
  569MOL0     H78470   7.302   3.294  11.447 -0.0937  0.7926 -1.9258
  569MOL0     H78471   7.257   3.300  11.750 -1.3405  1.4009 -2.0981
  569MOL0     H78472   7.320   3.019  11.965  0.0320  1.3427  1.3962
  569MOL0     H78473   7.149   3.021  11.971  0.9919 -2.1258 -0.4720
  569MOL0     H78474   7.169   3.288  11.973  0.5040 -0.5613  0.5678
  569MOL0     H78475   7.191   3.221  12.122 -1.5770  1.8249  0.4318
  569MOL0     H78476   7.434   3.179  12.078  0.2940 -1.2973  0.1603
  569MOL0     H78477   7.432   3.262  11.934 -1.6787  1.7674 -0.6739
  569MOL0     H78478   7.487   3.417  12.127  0.0680  0.0934  0.2666
  569MOL0     H78479   7.355   3.484  12.017 -1.5831 -0.9746  0.6155
  569MOL0     H78480   7.375   3.667  12.106  0.3799 -2.7728 -0.7002
  569MOL0     H78481   7.313   3.979  12.212  0.4544 -0.0942 -0.3393
  569MOL0     H78482   7.191   3.978  12.085 -1.1553  0.0490 -0.4235
  569MOL0     H78483   7.352   3.909  12.053 -0.0320 -1.3401 -0.1940
  569MOL0     H78484   6.738   3.935  12.386  1.5364 -2.0938  0.7300
  569MOL0     H78485   6.584   4.089  12.485 -0.3608 -2.1342 -0.6398
  569MOL0     H78486   6.744   4.364  12.765  0.7287  1.5647 -0.1614
  569MOL0     H78487   6.643   4.497  12.728  1.8977  0.2052 -0.2615
  569MOL0     H78488   6.450   4.365  12.781  0.2495 -3.0297 -3.8354
  569MOL0     H78489   6.535   4.218  12.821 -0.3558  0.3941  2.6830
  569MOL0     H78490   6.573   4.487  12.979 -1.2973 -0.1230 -1.4018
  569MOL0     H78491   6.658   4.337  13.007 -0.9533 -0.2732  3.9746
  569MOL0     H78492   6.518   4.272  13.147  3.0419  0.0296 -2.4738
  569MOL0     H78493   6.399   4.246  13.012 -3.1634  1.3380  0.0327
  569MOL0     H78494   6.310   4.369  13.213 -0.1137  1.8816  1.4252
  569MOL0     H78495   6.433   4.488  13.193 -1.7906  0.0874  2.2888
  569MOL0     H78496   6.226   4.407  12.968 -1.1403 -1.0299  1.8581
  569MOL0     H78497   6.321   4.559  12.970 -0.7997 -0.5023 -1.1715
  569MOL0     H78498   6.231   4.629  13.165  2.4586 -3.0828 -0.1406
  569MOL0     H78499   6.127   4.494  13.189  1.4838 -0.5560  0.1989
  569MOL0     H78500   6.097   4.707  12.954 -1.1218  0.3211 -1.9041
  569MOL0     H78501   6.007   4.720  13.092  1.1278  1.3945 -1.1423
  569MOL0     H78502   6.924   4.365  12.570  1.1664 -0.0081 -4.5339
  569MOL0     H78503   7.072   4.179  12.504  0.2988 -1.5708 -1.8425
  569MOL0     H78504   6.958   3.679  12.377 -1.1988 -0.8783 -2.6130
  569MOL0     H78505   7.087   3.471  12.364  0.0902  1.5810  1.9846
  569MOL0     H78506   6.385   2.943  11.288 -0.5898 -1.1701 -1.5540
  569MOL0     H78507   6.164   2.977  11.377 -1.9349  1.5983  0.9079
  569MOL0     H78508   5.940   3.365  11.681  0.1984  1.0641 -2.7059
  569MOL0     H78509   5.717   3.389  11.781 -2.9795 -2.0211  0.6909
  569MOL0     H78510   5.304   3.256  11.699 -0.5792  0.2902 -0.3265
  569MOL0     H78511   5.431   3.144  11.626  0.5293 -0.9402  1.0072
  569MOL0     H78512   5.410   3.210  11.908  0.0669  1.7565 -1.0964
  569MOL0     H78513   5.540   3.111  11.828  0.9236  1.0363 -0.9317
  569MOL0     H78514   5.320   3.005  11.940 -2.1858 -0.2856 -1.0900
  569MOL0     H78515   5.244   3.018  11.788 -1.4726 -0.0251  4.3016
  569MOL0     H78516   5.522   2.894  11.807  0.1795 -2.9940 -1.0493
  569MOL0     H78517   5.407   2.890  11.675  0.9306 -3.5628 -0.3155
  569MOL0     H78518   5.250   2.600  11.947  1.8195  0.3031  2.3822
  569MOL0     H78519   5.535   3.224  11.447  1.0628 -0.7927 -0.2349
  569MOL0     H78520   5.823   3.074  11.301  1.6386  1.6565  0.2566
  569MOL0     H78521   5.658   3.119  11.269 -1.3507 -0.5533  3.2697
  569MOL0     H78522   5.795   3.224  11.227  1.4343 -2.0527 -0.0589
  570MOL0     O78523   3.199   8.207   5.234  0.0777 -0.5306  0.2523
  570MOL0     C78524   3.304   8.238   5.295  0.5570  0.3575  0.1194
  570MOL0     O78525   3.305   8.240   5.422  0.0036 -0.3532  0.5361
  570MOL0     C78526   3.409   8.187   5.497 -0.3187 -0.4419  0.6686
  570MOL0     C78527   3.489   8.086   5.444 -0.2011  0.2272 -0.5976
  570MOL0     C78528   3.595   8.027   5.521  0.3025 -0.2315  0.2061
  570MOL0     C78529   3.619   8.069   5.656  0.5287 -0.2818 -0.2187
  570MOL0     O78530   3.723   8.014   5.721 -0.6674  0.1441 -0.0646
  570MOL0     C78531   3.765   8.068   5.851  0.3711 -0.2877 -0.0959
  570MOL0     C78532   3.899   8.025   5.890 -0.2085  0.6704  0.3802
  570MOL0     C78533   3.907   7.871   5.885  0.2636  0.0954  0.4797
  570MOL0     C78534   3.979   7.825   6.016  0.0136  0.0832  0.6671
  570MOL0     C78535   3.892   7.809   6.137  0.8132  0.1008  0.2452
  570MOL0     C78536   3.972   7.772   6.269 -0.4233 -0.7053 -0.0890
  570MOL0     C78537   4.106   7.696   6.240  1.0009 -0.7705  1.2871
  570MOL0     C78538   4.079   7.557   6.184  0.9090  0.2347 -0.0987
  570MOL0     N78539   4.193   7.467   6.218 -0.3575  0.0011  0.4639
  570MOL0     C78540   4.328   7.504   6.241  0.4175  0.2984 -0.8094
  570MOL0     C78541   4.385   7.396   6.299  0.5092 -0.2974 -0.3049
  570MOL0     C78542   4.535   7.378   6.323  0.3336 -0.0436 -0.0419
  570MOL0     C78543   4.606   7.356   6.193 -0.5383  0.4731  0.3192
  570MOL0     C78544   4.752   7.312   6.211  0.0003  0.5604  0.4529
  570MOL0     C78545   4.759   7.171   6.264  0.4343  0.1211  0.5792
  570MOL0     O78546   4.882   7.150   6.347  0.2098 -0.3456  0.2844
  570MOL0     C78547   5.003   7.110   6.273  0.3147  0.2220 -0.9261
  570MOL0     C78548   5.105   7.049   6.352 -0.6739 -0.5051 -0.4206
  570MOL0     C78549   5.236   7.016   6.309 -0.3746 -1.6703  0.6365
  570MOL0     C78550   5.334   6.950   6.398  0.8510 -0.1041  0.1437
  570MOL0     C78551   5.264   7.038   6.171 -0.1145  0.7113 -0.4536
  570MOL0     C78552   5.383   6.974   6.103  0.1425  0.0738 -0.3135
  570MOL0     O78553   5.469   7.067   6.055 -0.1493  0.7259  0.2021
  570MOL0     C78554   5.601   7.023   6.034  0.0245 -0.2257 -0.1244
  570MOL0     C78555   5.649   6.939   5.933  0.8500  0.2912 -0.7275
  570MOL0     C78556   5.782   6.916   5.920 -0.5245 -0.4635 -0.1903
  570MOL0     C78557   5.871   6.966   6.012 -0.1987  0.3789  0.0515
  570MOL0     O78558   6.006   6.941   5.980 -0.1342 -0.9031  0.7172
  570MOL0     C78559   6.102   6.950   6.082  0.0770  0.7462 -0.2764
  570MOL0     C78560   6.243   6.899   6.044  0.9300  0.8570  0.5333
  570MOL0     C78561   6.244   6.762   5.991 -0.6918 -1.0006 -0.4134
  570MOL0     C78562   6.388   6.703   5.996  0.1323  0.6766  0.6802
  570MOL0     C78563   6.389   6.547   6.002  0.1248  0.2127 -0.5488
  570MOL0     C78564   6.318   6.495   5.881 -0.5291  1.6812 -0.0854
  570MOL0     C78565   6.335   6.345   5.854  0.1287 -0.9231 -0.7958
  570MOL0     C78566   6.475   6.299   5.861 -0.7487 -0.3452 -0.5342
  570MOL0    Cl78567   6.488   6.120   5.814  0.1466 -0.8560  0.4604
  570MOL0     C78568   5.823   7.041   6.116  0.6440  0.3758 -0.1491
  570MOL0     C78569   5.689   7.073   6.127 -0.0374 -0.2749  0.7814
  570MOL0     O78570   5.401   6.852   6.121  0.3254 -0.3251  0.0368
  570MOL0     C78571   5.165   7.085   6.090 -0.0644  0.0894 -0.0579
  570MOL0     C78572   5.033   7.121   6.145 -0.3966  0.0474  1.2631
  570MOL0     N78573   4.284   7.307   6.328 -0.0582  0.2377 -0.1590
  570MOL0     N78574   4.174   7.343   6.265  0.1634  0.1009 -0.6983
  570MOL0     C78575   3.525   8.162   5.717  0.5864 -0.1889 -0.0050
  570MOL0     C78576   3.420   8.210   5.637  0.2762 -0.7398  0.2769
  570MOL0     C78577   3.410   8.285   5.205 -1.1889  0.3582  0.7533
  570MOL0     C78578   3.437   8.197   5.101  0.4292 -0.0329 -0.4387
  570MOL0     C78579   3.535   8.209   5.011  0.3215  0.1729  0.9428
  570MOL0     C78580   3.629   8.313   5.029  0.2477  0.1132 -0.2443
  570MOL0     O78581   3.723   8.321   4.928 -0.5017 -0.7537 -0.7259
  570MOL0     C78582   3.860   8.294   4.978 -0.2514 -0.2996 -0.2886
  570MOL0     C78583   3.975   8.375   4.895 -0.3082  0.2754  0.6237
  570MOL0     C78584   3.993   8.314   4.755  0.4527  0.5237  0.9772
  570MOL0     C78585   4.104   8.389   4.676 -0.0870  0.1639  0.0498
  570MOL0     C78586   4.104   8.369   4.524 -1.1560  0.1547 -0.6626
  570MOL0     C78587   4.123   8.345   4.410 -0.0218 -0.5375  1.3261
  570MOL0     C78588   3.616   8.397   5.140 -0.8259 -0.8537 -0.1236
  570MOL0     C78589   3.505   8.387   5.228 -0.6523  0.0323  0.2766
  570MOL0     C78590   3.492   8.490   5.336 -0.2669 -0.8956 -0.1227
  570MOL0     H78591   3.486   8.046   5.343  1.2093  0.4880 -0.7694
  570MOL0     H78592   3.654   7.943   5.488 -1.7684 -1.6631 -0.0330
  570MOL0     H78593   3.705   8.035   5.936  4.0344 -3.5788  1.5632
  570MOL0     H78594   3.774   8.177   5.843  0.1173 -0.0333  2.4668
  570MOL0     H78595   3.967   8.065   5.814 -2.5573  2.1706 -1.0565
  570MOL0     H78596   3.920   8.048   5.996  0.0423 -2.1519  1.0048
  570MOL0     H78597   3.812   7.818   5.872  1.0284 -1.3070  0.4821
  570MOL0     H78598   3.966   7.850   5.795  2.6732  2.1812  1.4333
  570MOL0     H78599   4.016   7.726   5.990 -2.6848 -2.0602  4.0753
  570MOL0     H78600   4.066   7.889   6.035  0.3254 -0.4726  1.1455
  570MOL0     H78601   3.818   7.735   6.104  1.6799  0.0802 -1.7567
  570MOL0     H78602   3.839   7.904   6.149 -2.8000 -1.8700  1.3662
  570MOL0     H78603   3.986   7.867   6.322  1.8273 -1.9909  1.8119
  570MOL0     H78604   3.918   7.700   6.331  1.9149 -1.0378  1.6989
  570MOL0     H78605   4.139   7.681   6.343 -2.2078  2.1719  2.9466
  570MOL0     H78606   4.179   7.749   6.178 -0.4502  0.1203  0.2715
  570MOL0     H78607   3.992   7.519   6.238  1.6292  0.4865  1.2599
  570MOL0     H78608   4.051   7.566   6.078 -1.8106  0.9823  0.6074
  570MOL0     H78609   4.363   7.603   6.211  1.7877 -0.1628 -0.8084
  570MOL0     H78610   4.535   7.293   6.392 -1.6997 -1.4464 -1.6717
  570MOL0     H78611   4.580   7.467   6.369 -0.4576  2.5481 -3.8172
  570MOL0     H78612   4.537   7.295   6.136 -3.8007  1.5972  2.7528
  570MOL0     H78613   4.608   7.451   6.138 -0.1410  0.6354  0.6032
  570MOL0     H78614   4.811   7.320   6.119 -0.1609 -0.8265  0.1973
  570MOL0     H78615   4.805   7.378   6.280  2.9085 -0.7859 -0.3142
  570MOL0     H78616   4.674   7.161   6.332  0.9616  2.3496  1.6384
  570MOL0     H78617   4.747   7.106   6.177  1.1378  2.2952 -1.2240
  570MOL0     H78618   5.104   7.034   6.460 -0.3447  0.2149 -0.3053
  570MOL0     H78619   5.440   6.955   6.372  0.7814 -1.1025 -0.3733
  570MOL0     H78620   5.297   6.848   6.386  1.8020 -0.3581 -0.8345
  570MOL0     H78621   5.320   6.994   6.497 -1.5976  0.7034 -0.4798
  570MOL0     H78622   5.572   6.895   5.870 -1.1515  2.7390 -0.1538
  570MOL0     H78623   5.824   6.850   5.845 -0.7773  1.1285 -1.7964
  570MOL0     H78624   6.115   7.049   6.127  0.5901  0.6403 -0.1821
  570MOL0     H78625   6.049   6.889   6.155 -0.7166 -1.0781 -2.2821
  570MOL0     H78626   6.283   6.971   5.973  2.6989  2.3632  2.9104
  570MOL0     H78627   6.311   6.894   6.129  1.1498 -0.2832  0.3094
  570MOL0     H78628   6.205   6.764   5.889 -2.6508  1.6533  0.2716
  570MOL0     H78629   6.201   6.680   6.049 -0.6943 -1.4444 -1.0230
  570MOL0     H78630   6.427   6.732   6.093 -0.2520 -1.8438  1.6493
  570MOL0     H78631   6.451   6.731   5.911 -1.6078  0.7736 -0.6585
  570MOL0     H78632   6.495   6.521   5.996 -0.6343 -2.9105 -3.1409
  570MOL0     H78633   6.345   6.504   6.092  0.8735 -0.6020 -0.5533
  570MOL0     H78634   6.356   6.538   5.788  1.1908 -1.0052 -0.7321
  570MOL0     H78635   6.209   6.507   5.883 -0.8032 -0.0744 -1.5874
  570MOL0     H78636   6.299   6.319   5.754  1.6188  1.2935 -1.9807
  570MOL0     H78637   6.278   6.290   5.930  0.0859 -0.0973 -0.2233
  570MOL0     H78638   6.509   6.306   5.965 -1.4115 -1.5606 -0.2190
  570MOL0     H78639   6.538   6.366   5.802 -0.2569  0.9143  1.3298
  570MOL0     H78640   5.889   7.077   6.194  1.0464 -2.8063  1.1170
  570MOL0     H78641   5.652   7.117   6.219 -0.1175 -1.6307  1.4273
  570MOL0     H78642   5.192   7.088   5.985  1.9438 -1.3636  0.3561
  570MOL0     H78643   4.965   7.151   6.066 -0.2821 -0.7503  0.8552
  570MOL0     H78644   3.543   8.197   5.818 -1.3547  1.5280 -0.1689
  570MOL0     H78645   3.361   8.285   5.689  0.2607 -1.8757  1.9713
  570MOL0     H78646   3.369   8.113   5.094  2.0720 -1.2607 -2.8196
  570MOL0     H78647   3.539   8.140   4.927  0.2573  1.4976 -0.1970
  570MOL0     H78648   3.875   8.305   5.085 -0.6246 -1.3470 -0.1215
  570MOL0     H78649   3.892   8.192   4.957  3.3460  0.6395 -0.1643
  570MOL0     H78650   4.069   8.373   4.951  0.7932 -4.1642 -0.9685
  570MOL0     H78651   3.937   8.478   4.892  0.9358  0.7625  0.8881
  570MOL0     H78652   4.008   8.206   4.759 -2.6707 -0.1555 -1.1421
  570MOL0     H78653   3.912   8.342   4.687  2.0444 -0.2608 -1.3734
  570MOL0     H78654   4.200   8.361   4.721 -0.5478  0.8114  1.5074
  570MOL0     H78655   4.099   8.498   4.681  2.0476  0.2915  0.7107
  570MOL0     H78656   4.146   8.317   4.309 -1.3430  0.3815  0.7500
  570MOL0     H78657   3.708   8.451   5.162  0.8097 -3.4230 -0.1638
  570MOL0     H78658   3.562   8.574   5.328  0.2616 -1.2359  0.7226
  570MOL0     H78659   3.388   8.521   5.328 -0.3936 -1.1962  0.3308
  570MOL0     H78660   3.507   8.443   5.434  0.5288  1.0928  0.7723
  571MOL0     O78661  10.172   0.718   0.409  0.1596 -0.0268 -1.0810
  571MOL0     C78662  10.286   0.702   0.426  0.0268  0.3938 -0.0405
  571MOL0     O78663  10.372   0.738   0.334 -0.3025 -0.1943 -0.2463
  571MOL0     C78664  10.339   0.792   0.213  0.5352 -0.0552  0.9634
  571MOL0     C78665  10.399   0.723   0.103  0.1154 -0.1075 -0.4806
  571MOL0     C78666  10.398   0.773  -0.023 -0.3741  0.1054  0.4376
  571MOL0     C78667  10.321   0.895  -0.050 -1.2827  1.3229  0.2751
  571MOL0     O78668  10.317   0.953  -0.168 -0.2735 -0.5261 -0.6872
  571MOL0     C78669  10.296   0.854  -0.278  0.3986  0.3002 -0.1336
  571MOL0     C78670  10.148   0.802  -0.288 -0.3327 -0.5357  0.6924
  571MOL0     C78671  10.131   0.666  -0.220 -0.2577 -0.0342 -1.1189
  571MOL0     C78672   9.990   0.628  -0.236 -0.6382  0.0915 -0.9568
  571MOL0     C78673   9.960   0.470  -0.253  0.3889 -0.1646 -0.6494
  571MOL0     C78674  10.010   0.382  -0.141  0.2124  0.6614  0.1207
  571MOL0     C78675   9.975   0.231  -0.164  0.2911  0.5753 -0.0690
  571MOL0     C78676  10.079   0.140  -0.103 -0.2068 -0.0997 -0.6321
  571MOL0     N78677  10.063   0.006  -0.163  0.0475 -0.9740  0.5228
  571MOL0     C78678   9.973  -0.091  -0.130  0.3239  0.1539  0.5730
  571MOL0     C78679   9.984  -0.172  -0.231 -0.4643  0.8646  0.0190
  571MOL0     C78680   9.929  -0.317  -0.250 -0.1759  0.9806 -0.0450
  571MOL0     C78681   9.781  -0.353  -0.224  0.2292  0.3306 -0.3158
  571MOL0     C78682   9.674  -0.301  -0.332  0.2366  0.5950  0.3040
  571MOL0     C78683   9.721  -0.293  -0.472  0.0970 -0.5995 -0.2097
  571MOL0     O78684   9.777  -0.413  -0.519  0.4112 -0.6567  0.6386
  571MOL0     C78685   9.709  -0.524  -0.543  0.1666 -0.3822 -0.5793
  571MOL0     C78686   9.770  -0.640  -0.583 -0.0755 -0.1795 -0.7841
  571MOL0     C78687   9.704  -0.763  -0.610 -0.4040  0.5991  0.2430
  571MOL0     C78688   9.780  -0.882  -0.662  0.2019 -0.2451 -0.2442
  571MOL0     C78689   9.561  -0.768  -0.592  0.2577 -0.0809 -0.9438
  571MOL0     C78690   9.476  -0.886  -0.621 -0.0791  0.2487  0.0760
  571MOL0     O78691   9.348  -0.869  -0.576  0.3808  1.0179  0.3498
  571MOL0     C78692   9.242  -0.950  -0.613  0.4875  1.0511  0.3789
  571MOL0     C78693   9.112  -0.894  -0.613 -0.3054  0.4053 -0.0550
  571MOL0     C78694   8.998  -0.978  -0.642  0.0000  0.1892 -0.2588
  571MOL0     C78695   9.002  -1.118  -0.628 -0.2600 -0.0060 -0.2596
  571MOL0     O78696   8.904  -1.206  -0.646 -0.4134  0.7873 -0.3841
  571MOL0     C78697   8.769  -1.148  -0.639 -0.1326  0.2694 -0.7796
  571MOL0     C78698   8.656  -1.242  -0.630 -0.1977  0.4222 -0.0910
  571MOL0     C78699   8.515  -1.193  -0.601 -0.4271  0.0664  0.3380
  571MOL0     C78700   8.424  -1.312  -0.556 -0.1428  0.0582 -0.0549
  571MOL0     C78701   8.292  -1.261  -0.498  0.0138 -0.2812  0.5448
  571MOL0     C78702   8.190  -1.369  -0.479 -1.1937  0.1045 -0.2300
  571MOL0     C78703   8.073  -1.334  -0.380 -0.2916  0.5731  0.4060
  571MOL0     C78704   7.979  -1.228  -0.430  0.3752  0.5210  0.0188
  571MOL0    Cl78705   7.837  -1.180  -0.337  0.1894  0.1329  0.3615
  571MOL0     C78706   9.128  -1.180  -0.614 -1.0798 -0.2649  0.6683
  571MOL0     C78707   9.251  -1.092  -0.607 -0.0081 -0.0807 -0.2332
  571MOL0     O78708   9.524  -0.993  -0.665 -0.5203  0.1414 -0.0209
  571MOL0     C78709   9.496  -0.649  -0.552  0.3355 -0.6891  0.9429
  571MOL0     C78710   9.565  -0.529  -0.543  0.0097  0.1318  0.5021
  571MOL0     N78711  10.070  -0.122  -0.332 -0.5155 -0.5890 -0.1354
  571MOL0     N78712  10.126  -0.013  -0.286 -0.0028 -0.0201  0.5102
  571MOL0     C78713  10.273   0.968   0.061 -0.2297 -0.3922 -0.4185
  571MOL0     C78714  10.285   0.912   0.188  0.1241 -0.8543 -0.0289
  571MOL0     C78715  10.329   0.661   0.562  0.4522  0.4909  0.8083
  571MOL0     C78716  10.239   0.632   0.666 -0.9997  0.2599 -1.0100
  571MOL0     C78717  10.282   0.593   0.795 -0.0343  0.4938 -0.4528
  571MOL0     C78718  10.416   0.579   0.828 -0.5602 -0.5725 -0.1252
  571MOL0     O78719  10.448   0.515   0.946 -0.4639 -0.4790 -0.8115
  571MOL0     C78720  10.445   0.606   1.063  0.3053 -1.0825  0.5713
  571MOL0     C78721  10.424   0.530   1.200  0.1475  0.1482  0.1463
  571MOL0     C78722  10.273   0.493   1.224  0.2077  0.7724  0.6690
  571MOL0     C78723  10.266   0.335   1.201  0.7030 -0.0227  0.3389
  571MOL0     C78724  10.149   0.261   1.257  0.3858  0.0135 -0.0115
  571MOL0     C78725  10.056   0.187   1.308  0.5351 -0.5569 -0.3770
  571MOL0     C78726  10.503   0.604   0.725  0.5051 -0.1163  0.7530
  571MOL0     C78727  10.463   0.647   0.600  0.0096  0.5419  0.4276
  571MOL0     C78728  10.573   0.692   0.514 -0.3495 -0.2027 -0.7771
  571MOL0     H78729  10.452   0.629   0.112  1.0383  0.3822 -0.6721
  571MOL0     H78730  10.451   0.711  -0.095 -0.3969 -0.6974  1.0917
  571MOL0     H78731  10.366   0.771  -0.263 -0.3712  0.2929  5.5447
  571MOL0     H78732  10.316   0.911  -0.369 -0.7948 -1.2343 -1.4218
  571MOL0     H78733  10.078   0.882  -0.263 -2.6743 -1.8087 -1.3240
  571MOL0     H78734  10.122   0.787  -0.393 -0.1519 -1.6047  0.7886
  571MOL0     H78735  10.193   0.590  -0.268 -0.0353 -2.7662  2.9730
  571MOL0     H78736  10.167   0.674  -0.117 -2.5119  0.0969 -0.2828
  571MOL0     H78737   9.941   0.655  -0.142 -0.7372 -1.5528 -0.4925
  571MOL0     H78738   9.937   0.664  -0.325 -4.1649  2.0420  1.6544
  571MOL0     H78739  10.004   0.434  -0.347  1.1546  1.0648 -0.7878
  571MOL0     H78740   9.851   0.465  -0.256  0.4490 -2.4284 -0.8361
  571MOL0     H78741  10.118   0.401  -0.144 -0.0968  2.7552  0.6889
  571MOL0     H78742   9.956   0.418  -0.052 -3.2963  1.2165 -2.0447
  571MOL0     H78743   9.956   0.209  -0.269 -2.0513 -1.4047  0.6556
  571MOL0     H78744   9.882   0.209  -0.110  0.2733  0.0204 -0.3107
  571MOL0     H78745  10.173   0.184  -0.138 -0.6635  1.3601 -0.0882
  571MOL0     H78746  10.080   0.151   0.005 -0.3695  1.2600 -0.7611
  571MOL0     H78747   9.907  -0.099  -0.045 -0.2218 -3.6242 -0.0404
  571MOL0     H78748   9.981  -0.380  -0.177 -2.5050  0.1438  0.9790
  571MOL0     H78749   9.957  -0.347  -0.352 -1.0688  4.6557 -1.5723
  571MOL0     H78750   9.758  -0.460  -0.232 -2.3972  0.7747  0.4422
  571MOL0     H78751   9.765  -0.322  -0.121  4.5273  0.3922  0.5196
  571MOL0     H78752   9.577  -0.352  -0.331  0.6440 -0.2156  1.3942
  571MOL0     H78753   9.655  -0.197  -0.303 -0.5531  0.6118 -0.2256
  571MOL0     H78754   9.636  -0.262  -0.532  0.4319 -0.7308 -0.7569
  571MOL0     H78755   9.790  -0.208  -0.469 -2.1147  1.2736  1.7512
  571MOL0     H78756   9.878  -0.637  -0.571 -0.3535  0.4509  2.6518
  571MOL0     H78757   9.755  -0.962  -0.592  0.9417  0.0740  0.3999
  571MOL0     H78758   9.888  -0.870  -0.652  0.4493 -3.2301  2.5565
  571MOL0     H78759   9.754  -0.909  -0.765 -0.8098  1.5951 -0.5086
  571MOL0     H78760   9.095  -0.786  -0.614  0.2497  0.5719  2.5838
  571MOL0     H78761   8.904  -0.923  -0.640 -0.6307 -0.8499 -0.5530
  571MOL0     H78762   8.759  -1.090  -0.546 -0.8774 -2.3468  0.8824
  571MOL0     H78763   8.747  -1.089  -0.728 -1.9912  0.7019 -0.0893
  571MOL0     H78764   8.662  -1.301  -0.721  1.1559  0.3076  0.0564
  571MOL0     H78765   8.690  -1.298  -0.542 -1.5209 -0.7513 -0.2888
  571MOL0     H78766   8.482  -1.156  -0.699 -1.1720 -0.4917  0.3704
  571MOL0     H78767   8.511  -1.116  -0.525  0.4256  1.2965 -0.8131
  571MOL0     H78768   8.481  -1.376  -0.488  1.2434  1.0244 -0.2511
  571MOL0     H78769   8.404  -1.375  -0.642 -1.3839  2.3448 -1.5582
  571MOL0     H78770   8.313  -1.207  -0.405  0.6210  1.1406 -0.3846
  571MOL0     H78771   8.246  -1.191  -0.569  0.7269  0.0704  0.4233
  571MOL0     H78772   8.248  -1.458  -0.451  0.6930  1.3081 -0.1287
  571MOL0     H78773   8.127  -1.383  -0.567 -4.2297  1.5209  1.5756
  571MOL0     H78774   8.107  -1.299  -0.283 -2.2562  2.5087  0.4788
  571MOL0     H78775   8.022  -1.427  -0.352  0.8694  0.6330  2.9466
  571MOL0     H78776   7.937  -1.270  -0.522  0.9953  1.1947 -0.5803
  571MOL0     H78777   8.030  -1.136  -0.460  1.2679 -0.5324 -1.8815
  571MOL0     H78778   9.131  -1.288  -0.603  1.4417 -0.7865 -3.2442
  571MOL0     H78779   9.351  -1.127  -0.583  0.5141  0.9012 -0.8596
  571MOL0     H78780   9.389  -0.641  -0.534 -0.0111 -0.7946 -0.8771
  571MOL0     H78781   9.511  -0.436  -0.536  2.4822  1.7699 -0.5601
  571MOL0     H78782  10.227   1.066   0.060  0.1788 -0.1868 -2.4645
  571MOL0     H78783  10.249   0.979   0.265  0.2237 -0.0352 -0.6867
  571MOL0     H78784  10.134   0.638   0.638 -0.9219  1.8417 -1.0641
  571MOL0     H78785  10.205   0.568   0.868  0.4926  1.1603  0.3520
  571MOL0     H78786  10.540   0.658   1.072  0.2930 -0.2546 -2.9401
  571MOL0     H78787  10.365   0.679   1.048  0.7950 -0.5261  0.6332
  571MOL0     H78788  10.448   0.599   1.281 -1.7693 -1.4533  2.1870
  571MOL0     H78789  10.503   0.454   1.200  1.1378  1.0445  2.9525
  571MOL0     H78790  10.252   0.505   1.331 -6.3242 -2.9437  0.3076
  571MOL0     H78791  10.202   0.541   1.156 -2.7292 -2.1993  1.3530
  571MOL0     H78792  10.351   0.288   1.251  1.5719  0.2379 -0.8469
  571MOL0     H78793  10.275   0.321   1.093 -1.7667 -0.8132  0.1823
  571MOL0     H78794   9.974   0.136   1.354 -1.9646  2.3753 -1.1721
  571MOL0     H78795  10.603   0.586   0.763 -0.0492  0.8727  2.8289
  571MOL0     H78796  10.553   0.795   0.483  0.1714  0.2794  0.4105
  571MOL0     H78797  10.671   0.679   0.562 -0.7701 -2.2575 -0.3575
  571MOL0     H78798  10.577   0.625   0.428 -0.0262 -1.5146  0.2180
  572MOL0     O78799   9.471   5.130   3.616  0.9482  0.5361  1.0856
  572MOL0     C78800   9.404   5.062   3.692 -0.3366 -0.9516 -0.2857
  572MOL0     O78801   9.297   4.991   3.652  0.0238  1.1537 -0.7092
  572MOL0     C78802   9.236   5.033   3.534  0.0710 -0.0333 -0.8371
  572MOL0     C78803   9.201   5.163   3.506 -1.4853 -0.6455 -0.2175
  572MOL0     C78804   9.136   5.200   3.394  1.0568 -0.3107  0.1606
  572MOL0     C78805   9.112   5.109   3.291  0.0799 -0.0583  1.0398
  572MOL0     O78806   9.056   5.131   3.169 -0.3365 -0.0498 -0.5674
  572MOL0     C78807   8.986   5.252   3.139 -0.5906 -0.4671  0.2596
  572MOL0     C78808   8.942   5.258   2.993  0.1569  0.1955 -0.2151
  572MOL0     C78809   8.814   5.180   2.978  0.5252 -0.0481  0.0247
  572MOL0     C78810   8.792   5.166   2.825  0.3324  0.2245 -0.4278
  572MOL0     C78811   8.686   5.061   2.798  0.0908  0.2202  0.1958
  572MOL0     C78812   8.556   5.077   2.875  0.4231 -0.1994  0.5266
  572MOL0     C78813   8.487   5.223   2.852  0.7009  0.1200  1.4465
  572MOL0     C78814   8.370   5.248   2.950 -0.7112 -1.4768  0.2849
  572MOL0     N78815   8.421   5.305   3.074  0.1371  0.3415 -1.2001
  572MOL0     C78816   8.503   5.405   3.098  0.6944  0.1143  0.9447
  572MOL0     C78817   8.493   5.441   3.229  0.3035 -1.1238  0.5347
  572MOL0     C78818   8.551   5.561   3.299 -0.3933  0.3595  0.2799
  572MOL0     C78819   8.657   5.647   3.216  0.4507 -0.7492  0.0976
  572MOL0     C78820   8.768   5.549   3.158  0.1133  0.1845  0.2546
  572MOL0     C78821   8.912   5.619   3.131 -0.2416 -0.1825  0.1299
  572MOL0     O78822   8.896   5.708   3.020  0.3389  0.2553  0.0629
  572MOL0     C78823   9.006   5.778   2.977 -0.1271  1.5078  0.0227
  572MOL0     C78824   9.139   5.781   3.040  0.0343  0.5103  0.6750
  572MOL0     C78825   9.229   5.864   2.994 -0.3501 -0.5279  0.2906
  572MOL0     C78826   9.355   5.885   3.084 -0.1685 -0.5731  0.9701
  572MOL0     C78827   9.210   5.940   2.870 -0.2913 -0.7580 -0.4243
  572MOL0     C78828   9.300   6.039   2.810  0.3357 -0.6154  0.0548
  572MOL0     O78829   9.249   6.113   2.714 -0.1810  0.9352  0.1735
  572MOL0     C78830   9.293   6.241   2.674 -0.5409 -0.0306 -0.0456
  572MOL0     C78831   9.410   6.301   2.724  0.3103  0.1583  0.0051
  572MOL0     C78832   9.455   6.433   2.700 -0.0062 -0.2130  0.0558
  572MOL0     C78833   9.381   6.515   2.606 -0.0843  0.2417  0.5343
  572MOL0     O78834   9.422   6.631   2.572 -1.5860 -0.1529 -1.0167
  572MOL0     C78835   9.363   6.724   2.491  0.3304  0.1589  0.2690
  572MOL0     C78836   9.435   6.753   2.364 -1.1051  0.5647  1.2782
  572MOL0     C78837   9.342   6.828   2.267 -0.0486  0.2750 -0.7725
  572MOL0     C78838   9.411   6.825   2.127 -0.3925 -0.0396 -0.1248
  572MOL0     C78839   9.320   6.905   2.025  0.1361 -0.2637  0.9164
  572MOL0     C78840   9.397   6.924   1.890  0.5157 -0.5453  1.0562
  572MOL0     C78841   9.298   6.985   1.779 -0.6117  0.7611  0.0594
  572MOL0     C78842   9.262   7.130   1.801  0.2749  0.8542  0.2593
  572MOL0    Cl78843   9.421   7.230   1.800  0.0528  0.3750  0.2877
  572MOL0     C78844   9.274   6.450   2.536 -0.8869  0.8325  0.0237
  572MOL0     C78845   9.227   6.319   2.576 -0.5484  0.2198  0.9980
  572MOL0     O78846   9.406   6.060   2.861  0.8827 -1.1181 -0.6413
  572MOL0     C78847   9.089   5.917   2.800  0.1118 -1.0922 -0.4689
  572MOL0     C78848   8.982   5.838   2.852 -0.4580 -1.2071  0.3815
  572MOL0     N78849   8.392   5.362   3.281  0.0210 -0.2190 -0.4036
  572MOL0     N78850   8.350   5.290   3.180  0.6160 -0.1535 -0.5719
  572MOL0     C78851   9.152   4.975   3.317 -0.2085 -0.5959  0.2410
  572MOL0     C78852   9.211   4.937   3.435  0.0127 -0.5220 -0.0267
  572MOL0     C78853   9.434   5.041   3.839 -0.1623 -0.4428  0.2621
  572MOL0     C78854   9.377   4.925   3.904  0.0578 -0.5030  0.3358
  572MOL0     C78855   9.449   4.887   4.021 -0.2817 -0.1708  0.0666
  572MOL0     C78856   9.559   4.951   4.075  0.5106 -0.1881  0.2028
  572MOL0     O78857   9.608   4.901   4.188 -0.2180  0.4683  0.1240
  572MOL0     C78858   9.606   4.992   4.299  0.2561 -0.2784  0.2637
  572MOL0     C78859   9.462   5.033   4.345 -0.2023  0.7697 -0.6766
  572MOL0     C78860   9.384   4.916   4.410 -0.3578  0.4522 -0.8926
  572MOL0     C78861   9.258   4.965   4.490 -0.3122 -0.6330  0.2310
  572MOL0     C78862   9.296   5.063   4.587  0.1872 -0.4257  0.1137
  572MOL0     C78863   9.310   5.151   4.664 -0.3422  0.1939  0.1541
  572MOL0     C78864   9.606   5.073   4.010 -0.4701  0.0562  0.8431
  572MOL0     C78865   9.541   5.119   3.897  1.3276 -0.1006 -0.7453
  572MOL0     C78866   9.583   5.249   3.838 -0.0231  0.3527  0.3169
  572MOL0     H78867   9.232   5.241   3.575 -3.1959 -0.9169  0.9166
  572MOL0     H78868   9.116   5.307   3.394 -0.0934 -0.4194  3.3063
  572MOL0     H78869   9.048   5.341   3.157 -0.7836 -0.2833  0.0280
  572MOL0     H78870   8.903   5.249   3.210 -0.7845 -1.5962 -0.0069
  572MOL0     H78871   8.923   5.363   2.968  1.1622  0.8560  1.6505
  572MOL0     H78872   9.025   5.215   2.936 -0.7760 -1.5865 -0.3167
  572MOL0     H78873   8.816   5.078   3.018  0.1503 -1.2452 -2.7525
  572MOL0     H78874   8.727   5.231   3.020  0.2171 -1.9383  1.8313
  572MOL0     H78875   8.762   5.261   2.778  0.9856  0.2329 -0.8440
  572MOL0     H78876   8.886   5.145   2.774  0.1857  3.0538 -2.0801
  572MOL0     H78877   8.741   4.972   2.829  2.2432  2.2318  2.5975
  572MOL0     H78878   8.651   5.051   2.695  0.3506 -0.3002  0.1536
  572MOL0     H78879   8.481   5.000   2.851 -2.5679  1.7582  2.9271
  572MOL0     H78880   8.576   5.070   2.982  2.1224  0.7967  0.3097
  572MOL0     H78881   8.441   5.209   2.754 -0.8268 -2.3655  2.4037
  572MOL0     H78882   8.550   5.312   2.857 -1.9972  2.1230  2.6590
  572MOL0     H78883   8.290   5.312   2.911  0.0293 -0.3077  0.6417
  572MOL0     H78884   8.324   5.150   2.965 -0.4966 -1.3016  2.3290
  572MOL0     H78885   8.565   5.458   3.027  1.2058 -2.1790 -0.3966
  572MOL0     H78886   8.607   5.519   3.383  0.3101 -0.8413 -0.7533
  572MOL0     H78887   8.468   5.627   3.326 -1.5445  0.2509 -2.6476
  572MOL0     H78888   8.608   5.699   3.133  0.4865 -3.0725 -1.4614
  572MOL0     H78889   8.701   5.721   3.283  1.5985 -0.3172 -1.0836
  572MOL0     H78890   8.790   5.472   3.233 -0.8419 -0.1151  0.2430
  572MOL0     H78891   8.741   5.499   3.065 -5.6090 -0.3244  1.8506
  572MOL0     H78892   8.951   5.665   3.223  3.5499  0.2461 -1.5064
  572MOL0     H78893   8.987   5.545   3.100  0.0568  1.3172 -3.1831
  572MOL0     H78894   9.151   5.742   3.140  0.7239  2.9085  1.5834
  572MOL0     H78895   9.349   5.986   3.126 -4.9561 -0.3227  0.2338
  572MOL0     H78896   9.448   5.867   3.030 -0.7217  0.5885 -0.4578
  572MOL0     H78897   9.359   5.819   3.171 -3.2746 -1.6841  0.4143
  572MOL0     H78898   9.468   6.254   2.802  0.5534  0.0080 -0.2671
  572MOL0     H78899   9.549   6.466   2.743  0.3087 -2.0814  0.8763
  572MOL0     H78900   9.260   6.690   2.474  0.3311 -2.3569  3.9870
  572MOL0     H78901   9.351   6.818   2.547  1.2062  0.5411 -0.1648
  572MOL0     H78902   9.528   6.806   2.388 -0.3284 -0.4465  0.5961
  572MOL0     H78903   9.442   6.653   2.320  3.1055  0.4905  1.6832
  572MOL0     H78904   9.330   6.932   2.300 -1.8746  0.0075 -0.4858
  572MOL0     H78905   9.243   6.785   2.253 -0.2162  0.9471 -1.7095
  572MOL0     H78906   9.418   6.728   2.076  1.4351  0.3795 -0.7257
  572MOL0     H78907   9.510   6.869   2.137  0.0620 -1.2345  0.9410
  572MOL0     H78908   9.223   6.854   2.018 -0.8906  1.6722  0.1998
  572MOL0     H78909   9.290   7.003   2.063 -0.2875  0.1944 -0.5463
  572MOL0     H78910   9.422   6.822   1.857 -2.0731 -0.6807 -0.7669
  572MOL0     H78911   9.489   6.983   1.887  1.0886 -1.4386  0.6045
  572MOL0     H78912   9.209   6.921   1.773  0.6386 -0.9619 -1.0563
  572MOL0     H78913   9.339   6.970   1.679  0.6351  0.1505  0.6409
  572MOL0     H78914   9.204   7.142   1.893 -0.9117  1.1526 -0.5040
  572MOL0     H78915   9.205   7.161   1.713  0.8947 -4.3703 -2.3716
  572MOL0     H78916   9.240   6.493   2.442 -0.7534 -0.3109 -0.5711
  572MOL0     H78917   9.139   6.281   2.526 -1.2321  2.6431  0.2336
  572MOL0     H78918   9.059   5.981   2.718 -0.6331  0.2731  0.8169
  572MOL0     H78919   8.894   5.828   2.790 -0.5419  0.1464  0.2624
  572MOL0     H78920   9.143   4.897   3.242  2.5642 -2.0664  1.3062
  572MOL0     H78921   9.211   4.831   3.459  2.7470 -0.6333 -0.2686
  572MOL0     H78922   9.295   4.868   3.861  0.2572  0.1737 -0.9966
  572MOL0     H78923   9.423   4.799   4.078 -2.0347  0.0107 -0.3914
  572MOL0     H78924   9.657   4.943   4.383  2.3311 -0.4409 -1.0082
  572MOL0     H78925   9.664   5.079   4.268 -5.2687  2.2397 -5.2009
  572MOL0     H78926   9.400   5.066   4.261  2.0914  0.9645 -2.4104
  572MOL0     H78927   9.475   5.120   4.410  2.3809  0.5432 -0.7663
  572MOL0     H78928   9.363   4.844   4.329  2.1048 -0.6319 -0.6591
  572MOL0     H78929   9.448   4.865   4.483 -0.2385  3.7602  1.5135
  572MOL0     H78930   9.201   4.880   4.528 -0.6068 -0.5608 -0.0396
  572MOL0     H78931   9.197   5.004   4.407 -0.8256 -2.9457 -0.5525
  572MOL0     H78932   9.320   5.230   4.735 -1.1809 -0.3757  0.9349
  572MOL0     H78933   9.692   5.129   4.047  0.2340 -1.2736  1.2925
  572MOL0     H78934   9.501   5.312   3.804 -0.3700  0.8947  2.0668
  572MOL0     H78935   9.638   5.305   3.914  2.8476 -3.5237  1.4718
  572MOL0     H78936   9.640   5.233   3.746  1.7495  1.4985  1.1570
  573MOL0     O78937   7.718   5.841  10.414 -0.1098  0.2228 -0.3020
  573MOL0     C78938   7.667   5.792  10.312 -0.0041 -0.2716 -0.3619
  573MOL0     O78939   7.679   5.844  10.187 -0.0874  0.0623  0.5273
  573MOL0     C78940   7.721   5.976  10.170  0.0356 -0.7167 -0.2344
  573MOL0     C78941   7.637   6.062  10.108  0.3633  0.3745 -0.0176
  573MOL0     C78942   7.675   6.196  10.078  0.1052  0.1957  1.0214
  573MOL0     C78943   7.787   6.248  10.128 -0.4395  0.6593 -1.0280
  573MOL0     O78944   7.829   6.376  10.113 -0.3510  0.1669 -0.2298
  573MOL0     C78945   7.792   6.463  10.225  0.0998  0.5360 -0.8101
  573MOL0     C78946   7.834   6.422  10.369  0.0388 -0.5347  0.2391
  573MOL0     C78947   7.780   6.536  10.454  0.1004 -0.1672 -0.4981
  573MOL0     C78948   7.829   6.527  10.602  0.5738  0.9464 -1.2383
  573MOL0     C78949   7.756   6.608  10.705  0.3461  0.1314  0.3351
  573MOL0     C78950   7.834   6.611  10.844  0.0822  0.8003  0.7703
  573MOL0     C78951   7.756   6.699  10.945  0.0528  0.1476  0.5849
  573MOL0     C78952   7.756   6.642  11.089  0.1610 -0.0916  0.7107
  573MOL0     N78953   7.653   6.696  11.173 -0.0249 -0.7770 -0.9466
  573MOL0     C78954   7.515   6.661  11.170 -1.0908 -0.0928 -0.1429
  573MOL0     C78955   7.452   6.723  11.271 -1.3797 -1.0326  0.3529
  573MOL0     C78956   7.309   6.738  11.297 -0.3651  0.0388  0.0416
  573MOL0     C78957   7.279   6.875  11.370  0.8822  0.0545 -0.2509
  573MOL0     C78958   7.128   6.906  11.377 -0.7279  0.3553 -0.3734
  573MOL0     C78959   7.112   7.030  11.470  0.1392 -0.6089 -0.8688
  573MOL0     O78960   6.985   7.077  11.452 -0.5663 -0.5201  0.5541
  573MOL0     C78961   6.869   7.016  11.489 -0.5834 -0.0194  0.3959
  573MOL0     C78962   6.751   7.047  11.414  0.2991 -0.3811 -0.6141
  573MOL0     C78963   6.635   6.981  11.447 -0.2889  0.0419  0.5887
  573MOL0     C78964   6.513   7.011  11.362  1.0177 -0.4401  0.9430
  573MOL0     C78965   6.627   6.871  11.533  0.3977  0.2524  0.7645
  573MOL0     C78966   6.501   6.798  11.584  0.1415 -0.5521 -0.2629
  573MOL0     O78967   6.497   6.667  11.585  0.4137 -0.0538 -0.4473
  573MOL0     C78968   6.379   6.601  11.627 -0.3321 -0.2556  0.4048
  573MOL0     C78969   6.275   6.566  11.540 -0.5181  0.9349 -0.0946
  573MOL0     C78970   6.176   6.486  11.589 -0.1418 -0.7917  0.0274
  573MOL0     C78971   6.180   6.438  11.716 -1.0603  0.3542  0.7972
  573MOL0     O78972   6.077   6.354  11.761 -0.7008 -0.3822 -0.1049
  573MOL0     C78973   6.103   6.250  11.848  0.1991  0.3017 -0.0756
  573MOL0     C78974   5.999   6.137  11.816 -0.8999  1.2243  0.4018
  573MOL0     C78975   6.044   6.035  11.699  0.2595 -0.7673  0.1322
  573MOL0     C78976   6.172   6.077  11.625  0.6720  0.4800  0.1419
  573MOL0     C78977   6.201   5.973  11.516 -0.3976 -0.0645  0.1983
  573MOL0     C78978   6.285   5.846  11.547  0.2290 -0.5714 -0.4063
  573MOL0     C78979   6.331   5.772  11.428 -0.2086 -0.6287  0.2052
  573MOL0     C78980   6.446   5.851  11.364  0.7555  0.7437  0.2899
  573MOL0    Cl78981   6.461   5.773  11.202  0.2457  0.2844  0.1600
  573MOL0     C78982   6.272   6.483  11.805 -0.3560 -0.1714 -0.5040
  573MOL0     C78983   6.370   6.569  11.764  0.1121  0.1283  0.6636
  573MOL0     O78984   6.402   6.865  11.607  0.1130  0.2362  0.1525
  573MOL0     C78985   6.743   6.839  11.605 -0.0219  1.7087  0.7244
  573MOL0     C78986   6.857   6.918  11.596 -1.0321 -0.2536  0.6988
  573MOL0     N78987   7.556   6.792  11.338  0.3199 -0.6811 -0.6470
  573MOL0     N78988   7.676   6.769  11.288 -0.1781 -0.7220  1.1327
  573MOL0     C78989   7.881   6.158  10.180  0.4084  0.7047  0.2294
  573MOL0     C78990   7.848   6.024  10.205  0.8307  0.1181 -0.4012
  573MOL0     C78991   7.592   5.661  10.333 -0.8299  0.8489 -0.6149
  573MOL0     C78992   7.525   5.596  10.224  0.4775 -0.7945  0.6604
  573MOL0     C78993   7.456   5.482  10.227 -0.0537  0.6995  0.4393
  573MOL0     C78994   7.444   5.423  10.357  0.4183  0.1265  0.3011
  573MOL0     O78995   7.379   5.300  10.387 -0.2530 -0.0400 -0.1280
  573MOL0     C78996   7.314   5.235  10.279  0.0595  0.4798 -0.1081
  573MOL0     C78997   7.257   5.096  10.309  0.3495  0.0604  0.5993
  573MOL0     C78998   7.279   5.031  10.448 -1.1903 -0.3622  0.3411
  573MOL0     C78999   7.192   4.912  10.492 -0.1581 -0.8274  0.7338
  573MOL0     C79000   7.171   4.800  10.405  0.5582  0.0716  0.4130
  573MOL0     C79001   7.144   4.709  10.331 -0.1308  0.4594 -1.0700
  573MOL0     C79002   7.498   5.483  10.468 -0.1171 -0.0853  0.6916
  573MOL0     C79003   7.587   5.587  10.457 -0.8568 -0.8589  0.3659
  573MOL0     C79004   7.655   5.630  10.583 -0.3921 -0.0013 -0.0667
  573MOL0     H79005   7.543   6.024  10.071  1.3581  1.6480 -4.5004
  573MOL0     H79006   7.616   6.252  10.006  1.2020  2.1674  1.5705
  573MOL0     H79007   7.684   6.480  10.219  0.3781  2.0158 -2.7164
  573MOL0     H79008   7.838   6.561  10.209  0.4658  0.0852 -2.7758
  573MOL0     H79009   7.784   6.327  10.390 -1.0814  0.4039  2.1534
  573MOL0     H79010   7.943   6.425  10.376  0.2063  2.1753 -1.7836
  573MOL0     H79011   7.788   6.640  10.420  0.6708 -0.2471 -0.6125
  573MOL0     H79012   7.673   6.514  10.456  0.3943 -1.6666  0.9557
  573MOL0     H79013   7.819   6.420  10.622  0.8999  0.3101 -4.0602
  573MOL0     H79014   7.937   6.539  10.615  0.6004  1.8623 -2.2082
  573MOL0     H79015   7.660   6.561  10.729  0.6837 -0.2140  1.0529
  573MOL0     H79016   7.742   6.711  10.672 -1.6539  0.3323  1.5833
  573MOL0     H79017   7.836   6.508  10.879  1.2636  0.9298  1.1166
  573MOL0     H79018   7.932   6.656  10.828  2.2315 -3.3230  0.9984
  573MOL0     H79019   7.652   6.703  10.913 -1.1206  0.2302  4.0266
  573MOL0     H79020   7.790   6.803  10.942  3.9220 -0.9415  0.1302
  573MOL0     H79021   7.737   6.535  11.084  2.4311 -0.4978 -1.0027
  573MOL0     H79022   7.860   6.660  11.116  0.9415 -2.2586 -0.6104
  573MOL0     H79023   7.464   6.607  11.090  2.2158 -2.6425 -0.7394
  573MOL0     H79024   7.277   6.657  11.364 -1.2479 -0.4996 -0.9921
  573MOL0     H79025   7.252   6.738  11.204  0.1472 -1.8650 -0.3109
  573MOL0     H79026   7.313   6.863  11.474 -1.3099  2.2653  0.8451
  573MOL0     H79027   7.332   6.958  11.323  1.1816  0.8962  1.4713
  573MOL0     H79028   7.089   6.928  11.276  0.3040  1.5903 -0.5357
  573MOL0     H79029   7.076   6.825  11.428  1.8069  0.8059  3.2845
  573MOL0     H79030   7.127   7.002  11.575 -0.8480 -2.7824 -1.2570
  573MOL0     H79031   7.196   7.097  11.449 -0.1550 -0.1844 -0.6810
  573MOL0     H79032   6.744   7.110  11.326 -2.4446  1.3380  0.6969
  573MOL0     H79033   6.461   7.102  11.393  0.4954 -0.5854  0.5104
  573MOL0     H79034   6.440   6.929  11.370 -0.1001  0.4531  0.2147
  573MOL0     H79035   6.539   7.028  11.257  0.6648 -0.7817  0.7937
  573MOL0     H79036   6.286   6.593  11.435  0.3295  0.1228 -0.2281
  573MOL0     H79037   6.100   6.454  11.519 -0.0129  3.6767 -2.5409
  573MOL0     H79038   6.205   6.211  11.837  0.4457  1.0845 -0.6681
  573MOL0     H79039   6.084   6.290  11.948 -1.1747  0.0985 -0.2408
  573MOL0     H79040   5.997   6.072  11.905 -0.5448 -0.6711 -0.9169
  573MOL0     H79041   5.895   6.158  11.792 -1.6306 -1.8628  0.3949
  573MOL0     H79042   5.970   6.040  11.618  0.2513  0.1804  0.1869
  573MOL0     H79043   6.057   5.930  11.727 -0.6935 -1.8706 -3.0237
  573MOL0     H79044   6.244   6.062  11.706 -0.6168 -2.7361  0.8449
  573MOL0     H79045   6.152   6.177  11.584  0.6954  0.1765 -0.6278
  573MOL0     H79046   6.106   5.942  11.470  0.1530 -0.3653 -0.7625
  573MOL0     H79047   6.256   6.033  11.443 -1.5034 -0.2285 -0.7990
  573MOL0     H79048   6.222   5.775  11.601  1.0250 -0.3670  0.8332
  573MOL0     H79049   6.369   5.870  11.612  0.3271  1.2964 -1.1304
  573MOL0     H79050   6.246   5.762  11.359  0.8427  1.7553 -1.5549
  573MOL0     H79051   6.359   5.672  11.461 -0.8045 -0.0932  2.5417
  573MOL0     H79052   6.531   5.828  11.430 -0.1624 -0.0340  1.2468
  573MOL0     H79053   6.444   5.960  11.362 -1.5085  0.8404  2.5349
  573MOL0     H79054   6.274   6.463  11.912 -1.2486 -1.0004 -0.6311
  573MOL0     H79055   6.438   6.602  11.841 -1.3698  3.5669  0.6593
  573MOL0     H79056   6.730   6.753  11.671 -0.8377 -1.1593 -2.8452
  573MOL0     H79057   6.939   6.882  11.657 -1.3338 -1.2308  0.5479
  573MOL0     H79058   7.983   6.183  10.205  2.0362 -3.6699 -1.0727
  573MOL0     H79059   7.915   5.943  10.234 -1.2175 -1.3458  0.5018
  573MOL0     H79060   7.527   5.643  10.126 -0.6637 -1.7945  0.1269
  573MOL0     H79061   7.411   5.442  10.137 -1.3937 -0.4955  1.5848
  573MOL0     H79062   7.234   5.303  10.248 -0.6219 -0.3228 -0.1446
  573MOL0     H79063   7.369   5.230  10.185 -2.8625 -1.1753 -1.8776
  573MOL0     H79064   7.297   5.026  10.234  1.4059 -0.3656  1.5392
  573MOL0     H79065   7.149   5.106  10.298 -0.0290 -2.0088  1.9169
  573MOL0     H79066   7.382   4.993  10.448 -0.9087 -0.2504  5.6142
  573MOL0     H79067   7.283   5.106  10.528  1.4457  0.4440 -0.4492
  573MOL0     H79068   7.096   4.950  10.530  0.4418 -0.2669  1.7391
  573MOL0     H79069   7.246   4.863  10.573  2.8482 -3.0323 -2.3059
  573MOL0     H79070   7.140   4.623  10.267 -1.8090  0.8437 -1.5438
  573MOL0     H79071   7.486   5.433  10.564 -0.2646 -2.5716 -0.5435
  573MOL0     H79072   7.618   5.574  10.670 -0.1448 -2.1757 -1.2783
  573MOL0     H79073   7.764   5.624  10.573 -0.3738  0.6943 -0.3228
  573MOL0     H79074   7.622   5.731  10.607 -2.1581 -0.9244  1.7135
  574MOL0     O79075   2.005   6.801   3.827 -0.0215 -0.1896  0.3329
  574MOL0     C79076   2.087   6.894   3.845  0.0084 -0.6829  0.8775
  574MOL0     O79077   2.204   6.910   3.775  0.5751 -0.6262  0.7982
  574MOL0     C79078   2.247   6.816   3.684  0.0242 -0.3252 -0.2218
  574MOL0     C79079   2.373   6.772   3.708 -0.1224 -0.1906 -0.0043
  574MOL0     C79080   2.431   6.670   3.631 -0.0001 -0.4385  0.9472
  574MOL0     C79081   2.355   6.608   3.531 -1.3357 -0.3792  0.6909
  574MOL0     O79082   2.431   6.517   3.449 -0.0843  0.4957 -0.4008
  574MOL0     C79083   2.362   6.425   3.361  0.2655 -0.1723  0.3298
  574MOL0     C79084   2.450   6.310   3.321 -0.8129  0.7784  0.3766
  574MOL0     C79085   2.588   6.362   3.276  0.2486  0.5389 -0.2679
  574MOL0     C79086   2.685   6.261   3.215  0.5380  0.1966  0.3298
  574MOL0     C79087   2.773   6.339   3.117 -0.2904  0.3990 -0.3032
  574MOL0     C79088   2.890   6.262   3.061  0.2268  0.8249  0.2496
  574MOL0     C79089   2.999   6.356   3.013 -0.3327  0.1632  0.4739
  574MOL0     C79090   3.100   6.263   2.934  0.1211 -0.6010  0.0777
  574MOL0     N79091   3.227   6.339   2.921 -0.0322 -0.2010 -0.1850
  574MOL0     C79092   3.267   6.427   2.828  0.3799 -0.3891  0.7360
  574MOL0     C79093   3.403   6.429   2.831 -0.5853 -0.5604  0.0684
  574MOL0     C79094   3.493   6.517   2.756 -0.3706 -0.0922 -0.3439
  574MOL0     C79095   3.529   6.641   2.841  0.6177 -0.4317 -0.1173
  574MOL0     C79096   3.425   6.750   2.797 -0.7811 -0.5389 -0.1305
  574MOL0     C79097   3.471   6.880   2.856  0.3453 -0.5681 -0.4097
  574MOL0     O79098   3.358   6.965   2.843 -0.0667 -0.3226 -0.2970
  574MOL0     C79099   3.367   7.100   2.867  0.0247 -0.5413 -0.4631
  574MOL0     C79100   3.316   7.194   2.782  0.3240 -0.6960 -0.3555
  574MOL0     C79101   3.310   7.333   2.797 -0.0012 -0.8219 -1.2532
  574MOL0     C79102   3.275   7.408   2.683 -0.7316 -0.5777 -0.5412
  574MOL0     C79103   3.343   7.386   2.928  0.1662  0.3444  0.0686
  574MOL0     C79104   3.350   7.525   2.973 -0.2298  0.2691 -0.5018
  574MOL0     O79105   3.408   7.555   3.096 -0.7910  0.5937 -0.8857
  574MOL0     C79106   3.416   7.686   3.151  0.3350 -0.2518  0.2872
  574MOL0     C79107   3.301   7.765   3.162 -0.5677 -0.2301  0.6372
  574MOL0     C79108   3.301   7.891   3.221 -0.1508  0.6289 -0.3214
  574MOL0     C79109   3.422   7.934   3.282 -0.7399  0.3440 -0.8695
  574MOL0     O79110   3.418   8.046   3.367 -0.8441  0.1107 -1.0183
  574MOL0     C79111   3.520   8.147   3.353  0.0638  1.1626  0.1742
  574MOL0     C79112   3.534   8.233   3.487  0.1855 -0.5271  0.3757
  574MOL0     C79113   3.413   8.312   3.542 -0.2044  0.1874  0.4359
  574MOL0     C79114   3.464   8.429   3.624 -0.6686 -0.2513  0.0841
  574MOL0     C79115   3.493   8.404   3.774  0.0836 -0.9974 -0.9211
  574MOL0     C79116   3.607   8.302   3.799  0.2785  0.1223 -0.0435
  574MOL0     C79117   3.651   8.288   3.941  0.3775 -0.0103  0.2512
  574MOL0     C79118   3.743   8.176   3.946  0.3920 -0.4860 -0.2469
  574MOL0    Cl79119   3.893   8.211   3.859  0.2492  0.3174  0.2759
  574MOL0     C79120   3.535   7.855   3.268 -0.5054 -0.8435  0.6562
  574MOL0     C79121   3.535   7.744   3.186 -0.1936 -0.2149  0.6251
  574MOL0     O79122   3.292   7.605   2.904  0.7935 -0.8971 -0.4436
  574MOL0     C79123   3.394   7.290   3.022  0.6930  0.0787  0.4357
  574MOL0     C79124   3.423   7.156   2.990  0.3835 -0.6781  0.5751
  574MOL0     N79125   3.435   6.361   2.953 -0.5653  0.3604  0.2708
  574MOL0     N79126   3.332   6.308   2.997  0.1542  0.8320  1.0172
  574MOL0     C79127   2.223   6.658   3.507  0.8404 -0.8819  0.2703
  574MOL0     C79128   2.167   6.759   3.584  0.1263 -0.3638 -0.3490
  574MOL0     C79129   2.055   6.990   3.956  0.8022  0.4248  0.2518
  574MOL0     C79130   1.934   6.967   4.029 -0.3093 -0.4472 -0.2613
  574MOL0     C79131   1.891   7.047   4.135  0.2296  0.5771 -0.2175
  574MOL0     C79132   1.990   7.129   4.185  0.3601  0.0189 -0.8822
  574MOL0     O79133   1.972   7.171   4.323 -0.1455  0.3209 -0.3390
  574MOL0     C79134   1.967   7.063   4.424 -0.3636  0.3817  0.9619
  574MOL0     C79135   2.081   6.959   4.412 -0.5369 -0.9878 -0.3245
  574MOL0     C79136   2.221   7.034   4.429  0.1040 -0.3890  0.4699
  574MOL0     C79137   2.330   6.933   4.399  0.3259 -0.5743  0.1183
  574MOL0     C79138   2.314   6.877   4.263 -0.0511 -0.5403 -0.5345
  574MOL0     C79139   2.312   6.819   4.155 -1.0246  0.4292 -0.5815
  574MOL0     C79140   2.106   7.156   4.117  0.5228 -0.2926  0.1033
  574MOL0     C79141   2.135   7.089   4.003  0.0267 -0.7627  0.1944
  574MOL0     C79142   2.256   7.133   3.932 -0.1125  0.2297  0.3512
  574MOL0     H79143   2.420   6.829   3.788 -0.3486  2.9079 -1.9275
  574MOL0     H79144   2.536   6.645   3.626 -0.1995 -1.1499 -0.8786
  574MOL0     H79145   2.333   6.483   3.273 -1.4325 -0.3727  0.7081
  574MOL0     H79146   2.278   6.369   3.403  0.6987 -1.4241 -0.4242
  574MOL0     H79147   2.472   6.231   3.394 -0.3775 -1.5752 -2.1441
  574MOL0     H79148   2.414   6.260   3.231  3.3448 -1.1000 -0.5152
  574MOL0     H79149   2.561   6.439   3.203  0.3328  1.1000  0.2742
  574MOL0     H79150   2.638   6.403   3.365  2.4039 -0.5436 -0.9160
  574MOL0     H79151   2.737   6.204   3.292 -0.7157  1.5181  2.2230
  574MOL0     H79152   2.624   6.201   3.146 -1.9118  2.0143  0.7683
  574MOL0     H79153   2.822   6.424   3.166  1.3219 -0.9014  0.4722
  574MOL0     H79154   2.714   6.371   3.031 -1.4325 -1.0744 -0.1106
  574MOL0     H79155   2.925   6.203   3.146 -2.3493 -2.4733 -0.7372
  574MOL0     H79156   2.855   6.207   2.973 -1.7087  2.6721 -0.2247
  574MOL0     H79157   3.054   6.410   3.091 -2.0036  1.9685  0.4680
  574MOL0     H79158   2.951   6.435   2.954 -0.5501 -2.2524 -2.8509
  574MOL0     H79159   3.134   6.176   2.991  0.8542 -1.0444 -1.0040
  574MOL0     H79160   3.055   6.231   2.840 -0.1372  0.4380 -0.1699
  574MOL0     H79161   3.193   6.479   2.768 -2.5884  0.6315  4.8031
  574MOL0     H79162   3.443   6.553   2.665 -1.9767  1.7024  1.1558
  574MOL0     H79163   3.589   6.473   2.726  0.3054 -1.6963  3.5899
  574MOL0     H79164   3.528   6.621   2.948  3.3057  3.4095  0.8516
  574MOL0     H79165   3.631   6.680   2.829 -0.4158  2.9307  0.8751
  574MOL0     H79166   3.410   6.769   2.690 -3.4805  1.5969  0.5076
  574MOL0     H79167   3.322   6.732   2.827 -0.5265 -3.5927 -0.7128
  574MOL0     H79168   3.501   6.869   2.961  2.8862 -2.6563 -1.2483
  574MOL0     H79169   3.565   6.924   2.820  1.1614  1.3205  3.4959
  574MOL0     H79170   3.277   7.154   2.689 -0.6718 -0.9909  0.1752
  574MOL0     H79171   3.227   7.339   2.613  0.4535 -1.8152 -0.1918
  574MOL0     H79172   3.363   7.460   2.644 -0.3964  0.1272  1.0708
  574MOL0     H79173   3.199   7.482   2.705 -1.8539 -2.4627  2.5403
  574MOL0     H79174   3.214   7.721   3.114 -0.4900 -0.7088  0.9327
  574MOL0     H79175   3.214   7.956   3.229  0.1862  1.0093  0.2681
  574MOL0     H79176   3.619   8.102   3.340 -0.7260 -0.4636 -0.4004
  574MOL0     H79177   3.505   8.207   3.263 -0.6599 -2.2377 -2.1322
  574MOL0     H79178   3.577   8.160   3.557  0.2872 -0.8673 -0.0378
  574MOL0     H79179   3.616   8.303   3.473 -1.5186  1.7439  1.1678
  574MOL0     H79180   3.348   8.249   3.603  1.6069 -4.1056 -1.6149
  574MOL0     H79181   3.375   8.362   3.452  2.6858  0.4230 -0.8022
  574MOL0     H79182   3.390   8.510   3.619  0.2044  0.5561 -0.0010
  574MOL0     H79183   3.552   8.475   3.578 -0.4508  1.8101  2.3428
  574MOL0     H79184   3.519   8.494   3.830  2.0326 -3.3373  2.3217
  574MOL0     H79185   3.405   8.355   3.818 -0.1046 -0.8250 -1.1062
  574MOL0     H79186   3.696   8.321   3.737 -0.7571 -1.8960 -2.3135
  574MOL0     H79187   3.555   8.211   3.767 -0.0822  0.3309 -0.0526
  574MOL0     H79188   3.563   8.265   4.003 -0.4169 -0.0233 -0.8625
  574MOL0     H79189   3.706   8.379   3.970 -3.1043  2.7950 -1.2588
  574MOL0     H79190   3.701   8.084   3.904  2.3541 -3.2405  3.2448
  574MOL0     H79191   3.770   8.160   4.051 -1.5709 -3.1151 -0.0427
  574MOL0     H79192   3.632   7.889   3.303 -0.1526 -0.2243 -0.8275
  574MOL0     H79193   3.631   7.696   3.168 -0.7864 -0.5376 -2.1720
  574MOL0     H79194   3.400   7.323   3.126 -0.1005 -2.5450  1.3965
  574MOL0     H79195   3.469   7.092   3.065 -0.5124 -2.3232 -0.2236
  574MOL0     H79196   2.173   6.616   3.421  1.5882  2.1776 -1.8298
  574MOL0     H79197   2.071   6.797   3.551  1.4479  0.6274 -3.4916
  574MOL0     H79198   1.881   6.878   3.997  0.1804 -0.3797 -1.2966
  574MOL0     H79199   1.794   7.025   4.179  1.0634 -3.6551 -0.0474
  574MOL0     H79200   1.964   7.099   4.527 -0.9069  2.6158  0.2301
  574MOL0     H79201   1.870   7.018   4.403  0.1292  0.2711 -1.3190
  574MOL0     H79202   2.075   6.926   4.308  2.2081  0.7558 -1.1500
  574MOL0     H79203   2.074   6.881   4.489  2.3099  0.0069  1.0710
  574MOL0     H79204   2.217   7.128   4.373  0.0030 -0.1916  0.8108
  574MOL0     H79205   2.255   7.068   4.527  0.5151 -0.4678  0.3582
  574MOL0     H79206   2.320   6.847   4.466 -1.8270 -1.1849 -0.8998
  574MOL0     H79207   2.430   6.977   4.395  0.3354 -0.6750 -2.1041
  574MOL0     H79208   2.294   6.767   4.063 -2.0736  0.1013 -0.2004
  574MOL0     H79209   2.171   7.231   4.160 -1.8928  1.8120  0.3846
  574MOL0     H79210   2.328   7.058   3.966 -1.7741 -1.7370 -0.2695
  574MOL0     H79211   2.251   7.138   3.823  2.6460 -2.0487 -0.0080
  574MOL0     H79212   2.300   7.231   3.951 -2.5045  1.1826  1.3857
  575MOL0     O79213   4.798   1.060   4.316 -0.6732  0.4448  0.1136
  575MOL0     C79214   4.710   1.141   4.308 -0.2016  1.4301  0.4451
  575MOL0     O79215   4.655   1.183   4.194 -0.2026 -0.1815  0.2854
  575MOL0     C79216   4.691   1.125   4.073  0.2006  0.2618 -0.6977
  575MOL0     C79217   4.577   1.065   4.016  0.1050 -0.7299  0.2389
  575MOL0     C79218   4.585   1.003   3.889 -0.4145 -0.9372  0.4489
  575MOL0     C79219   4.710   0.978   3.831 -0.4566 -0.1399  0.1995
  575MOL0     O79220   4.714   0.910   3.708 -0.4298  0.2417 -0.6642
  575MOL0     C79221   4.674   0.770   3.708  0.5961  0.4943  0.5231
  575MOL0     C79222   4.775   0.673   3.630  0.7981 -0.2129  0.3095
  575MOL0     C79223   4.898   0.646   3.710  0.3605 -0.2865  1.5635
  575MOL0     C79224   4.975   0.542   3.618  0.4089 -0.3978 -0.4127
  575MOL0     C79225   5.109   0.502   3.695 -0.8212 -0.0738  0.8411
  575MOL0     C79226   5.216   0.616   3.700  1.1783  0.3925 -0.1368
  575MOL0     C79227   5.356   0.569   3.740  0.4767  0.5625 -1.3338
  575MOL0     C79228   5.474   0.662   3.704  0.4888 -0.4677  0.0109
  575MOL0     N79229   5.524   0.634   3.563  0.7243 -0.2402 -0.5660
  575MOL0     C79230   5.537   0.714   3.452  0.1509 -0.5521 -0.7708
  575MOL0     C79231   5.614   0.642   3.367  0.1505 -0.2719  0.1482
  575MOL0     C79232   5.649   0.705   3.235 -0.6387 -1.4432 -0.2815
  575MOL0     C79233   5.665   0.595   3.137  0.9456  0.6655  0.2789
  575MOL0     C79234   5.673   0.643   2.989 -0.5712  0.2778  0.0705
  575MOL0     C79235   5.701   0.514   2.909  0.3494  0.2497 -0.3491
  575MOL0     O79236   5.727   0.549   2.776 -0.6191  0.7353 -0.7658
  575MOL0     C79237   5.672   0.473   2.678 -0.9709  0.0297 -0.1794
  575MOL0     C79238   5.591   0.532   2.587  1.2443  1.5188 -0.0196
  575MOL0     C79239   5.525   0.454   2.488  0.9829 -0.7030  0.3153
  575MOL0     C79240   5.435   0.525   2.382  0.0269  0.3337 -0.3523
  575MOL0     C79241   5.535   0.318   2.484  0.4203 -0.3572 -0.0753
  575MOL0     C79242   5.487   0.232   2.384  0.4105  0.1324  0.1816
  575MOL0     O79243   5.568   0.161   2.302  0.4117 -0.7914  0.3276
  575MOL0     C79244   5.507   0.056   2.231  0.3862 -0.1752  0.6021
  575MOL0     C79245   5.405   0.087   2.140  0.2758  0.0320 -0.9882
  575MOL0     C79246   5.356  -0.017   2.059 -0.1673 -0.1317 -0.3101
  575MOL0     C79247   5.390  -0.149   2.067  0.5037  0.1698  0.0192
  575MOL0     O79248   5.329  -0.247   1.992 -0.2070 -0.4834  0.0180
  575MOL0     C79249   5.210  -0.229   1.910 -0.5596  0.8070 -0.0306
  575MOL0     C79250   5.149  -0.358   1.860  0.3428  0.5810  0.7514
  575MOL0     C79251   5.146  -0.469   1.967 -0.4876  0.0244 -0.6859
  575MOL0     C79252   5.058  -0.584   1.926 -0.2184 -0.0054  0.2254
  575MOL0     C79253   5.076  -0.707   2.007 -0.2681 -0.4742  0.3763
  575MOL0     C79254   5.002  -0.829   1.946 -0.3102  0.8345  0.3776
  575MOL0     C79255   5.038  -0.973   1.998  1.0271 -0.5773 -0.2517
  575MOL0     C79256   5.174  -1.008   1.970 -0.1806  0.5656  0.0882
  575MOL0    Cl79257   5.188  -1.051   1.797  0.6854  0.7955 -0.0856
  575MOL0     C79258   5.496  -0.183   2.152  0.1273  0.1324 -0.5846
  575MOL0     C79259   5.546  -0.083   2.240 -0.7972 -0.6018 -0.0563
  575MOL0     O79260   5.365   0.223   2.393  0.1060  0.3558  0.1907
  575MOL0     C79261   5.613   0.254   2.581 -1.0653 -0.0906 -0.9141
  575MOL0     C79262   5.673   0.330   2.679  0.0376 -1.0694 -0.7429
  575MOL0     N79263   5.641   0.519   3.425 -0.1628 -0.2374 -0.0994
  575MOL0     N79264   5.582   0.513   3.539  0.7245 -1.1533 -0.7097
  575MOL0     C79265   4.825   1.018   3.894  1.4176  0.4469 -0.8275
  575MOL0     C79266   4.820   1.099   4.020  0.6121  0.1993  1.2722
  575MOL0     C79267   4.655   1.215   4.425  0.6568 -0.1707  0.3586
  575MOL0     C79268   4.523   1.271   4.407 -0.3164  0.0978  1.2485
  575MOL0     C79269   4.473   1.364   4.500 -0.0975  0.4679 -0.6669
  575MOL0     C79270   4.530   1.378   4.626  0.2057 -0.8029  0.7241
  575MOL0     O79271   4.460   1.442   4.720  0.8721  0.2741 -0.7536
  575MOL0     C79272   4.378   1.370   4.812  0.3390  0.4799 -0.4683
  575MOL0     C79273   4.437   1.290   4.927  0.1716  0.9834 -0.6470
  575MOL0     C79274   4.476   1.393   5.030  0.2294 -0.1890  0.1974
  575MOL0     C79275   4.542   1.322   5.144  0.4820  1.2248  0.5045
  575MOL0     C79276   4.565   1.416   5.244 -0.4945  0.0829 -1.6315
  575MOL0     C79277   4.592   1.476   5.346 -0.6437 -0.9110 -0.9125
  575MOL0     C79278   4.649   1.316   4.662  0.0386 -0.3299  0.0589
  575MOL0     C79279   4.716   1.241   4.554  0.0086 -0.1598 -0.3127
  575MOL0     C79280   4.858   1.194   4.577 -0.8051  0.7230 -0.0026
  575MOL0     H79281   4.488   1.070   4.078  0.2879 -1.4513  0.5616
  575MOL0     H79282   4.492   0.982   3.836 -2.5480  0.2843  3.3732
  575MOL0     H79283   4.582   0.766   3.649 -0.7390  1.0766  2.4714
  575MOL0     H79284   4.655   0.737   3.810  0.5660 -1.8875 -0.1955
  575MOL0     H79285   4.728   0.578   3.603  1.7234 -0.4652 -0.4813
  575MOL0     H79286   4.800   0.711   3.530 -0.5613  0.4406  0.1944
  575MOL0     H79287   4.960   0.735   3.698 -0.7377  0.4321  1.1198
  575MOL0     H79288   4.879   0.601   3.808  0.4677 -3.9546  0.0690
  575MOL0     H79289   4.927   0.445   3.606  0.7900 -0.6679  0.1902
  575MOL0     H79290   4.989   0.579   3.516 -1.1392 -1.1944 -0.9461
  575MOL0     H79291   5.156   0.419   3.641 -0.9072  0.3979  0.0323
  575MOL0     H79292   5.084   0.462   3.794 -1.5317 -3.1839 -0.4766
  575MOL0     H79293   5.241   0.650   3.599  0.5011  4.6464  0.9285
  575MOL0     H79294   5.193   0.706   3.758  1.8944  3.4446 -4.0809
  575MOL0     H79295   5.362   0.473   3.688 -1.1337  1.8709 -4.1498
  575MOL0     H79296   5.357   0.548   3.848 -0.0392  0.9560 -1.2518
  575MOL0     H79297   5.428   0.761   3.713  2.0122  0.2740 -0.1451
  575MOL0     H79298   5.561   0.653   3.770  2.3281  0.2801 -2.1726
  575MOL0     H79299   5.511   0.819   3.441  0.5334  0.0903  3.0418
  575MOL0     H79300   5.746   0.756   3.245 -0.8513 -0.5975 -2.1598
  575MOL0     H79301   5.579   0.782   3.203 -0.9750 -0.8988  1.6550
  575MOL0     H79302   5.745   0.528   3.169 -3.5120 -5.3106  0.6601
  575MOL0     H79303   5.574   0.535   3.150  0.2104  0.3931 -4.5115
  575MOL0     H79304   5.581   0.682   2.945 -1.1821  1.8567  2.5686
  575MOL0     H79305   5.756   0.710   2.966  1.9541 -3.2598 -2.1647
  575MOL0     H79306   5.793   0.463   2.941 -0.0613  0.6198  1.5323
  575MOL0     H79307   5.616   0.447   2.919 -0.1310  1.0543  1.1860
  575MOL0     H79308   5.573   0.638   2.601  0.0128  1.0772  2.0852
  575MOL0     H79309   5.455   0.633   2.377  2.6885 -0.1314 -1.7590
  575MOL0     H79310   5.329   0.524   2.408 -0.5406  2.5547 -2.2088
  575MOL0     H79311   5.456   0.500   2.278  0.3066  3.1443 -1.0584
  575MOL0     H79312   5.380   0.190   2.116 -1.7988  0.1198  1.2247
  575MOL0     H79313   5.293  -0.006   1.971  2.9369  1.7638 -2.4849
  575MOL0     H79314   5.129  -0.174   1.959 -1.1789  0.7188 -0.9287
  575MOL0     H79315   5.250  -0.175   1.823 -1.9642  3.0171  0.6093
  575MOL0     H79316   5.046  -0.338   1.829 -0.2012 -1.2092  1.3129
  575MOL0     H79317   5.208  -0.395   1.776  1.9549 -0.5866  2.3186
  575MOL0     H79318   5.123  -0.434   2.068  2.3342 -0.8037  0.3625
  575MOL0     H79319   5.249  -0.503   1.985 -0.2024  2.0374  2.3125
  575MOL0     H79320   5.092  -0.608   1.825  1.1273 -1.5140  1.0029
  575MOL0     H79321   4.960  -0.535   1.918 -0.0963 -0.0910 -3.0295
  575MOL0     H79322   5.178  -0.741   2.025  0.6813  1.7111 -0.4672
  575MOL0     H79323   5.036  -0.682   2.106 -3.4670 -3.8227  0.1434
  575MOL0     H79324   5.029  -0.835   1.841  3.3795  0.1550  1.2245
  575MOL0     H79325   4.899  -0.792   1.957 -0.0503  1.5616  0.4214
  575MOL0     H79326   4.968  -1.049   1.962  2.0015 -1.4353 -0.3482
  575MOL0     H79327   5.028  -0.966   2.107  0.3685  2.6165 -0.4210
  575MOL0     H79328   5.203  -1.097   2.026 -1.3020 -0.3629 -0.7622
  575MOL0     H79329   5.247  -0.933   2.002  1.2695 -1.0380  0.6758
  575MOL0     H79330   5.545  -0.279   2.165 -0.3607 -0.0998 -0.4170
  575MOL0     H79331   5.618  -0.116   2.313  1.3359  1.5413 -1.0572
  575MOL0     H79332   5.643   0.149   2.579 -0.2442  0.1331 -2.8268
  575MOL0     H79333   5.733   0.294   2.761 -2.1582 -1.4498  0.7677
  575MOL0     H79334   4.925   0.978   3.881  1.9345  0.2309  2.6980
  575MOL0     H79335   4.905   1.130   4.081 -0.9463  0.1592  3.5955
  575MOL0     H79336   4.455   1.274   4.322  2.3229  2.6899 -0.9471
  575MOL0     H79337   4.375   1.403   4.474 -1.9987 -2.8170  0.9453
  575MOL0     H79338   4.302   1.440   4.850  0.9789  0.9134  0.0341
  575MOL0     H79339   4.325   1.293   4.756  0.2697  0.1093  0.0946
  575MOL0     H79340   4.520   1.224   4.900  0.0459  1.0246 -1.1556
  575MOL0     H79341   4.367   1.217   4.969  1.6564 -0.6927 -0.9630
  575MOL0     H79342   4.540   1.468   4.984  1.7348 -1.6517 -0.1553
  575MOL0     H79343   4.379   1.431   5.063 -1.8114 -2.1894 -2.9569
  575MOL0     H79344   4.635   1.287   5.098  0.2931  4.0576 -2.4786
  575MOL0     H79345   4.487   1.239   5.188  1.2170  0.9194  0.8726
  575MOL0     H79346   4.624   1.523   5.437 -2.3058  0.9047 -1.2031
  575MOL0     H79347   4.677   1.327   4.766 -1.7612 -1.5512  0.7294
  575MOL0     H79348   4.902   1.241   4.665 -0.2560  2.2843 -1.0669
  575MOL0     H79349   4.853   1.085   4.580 -4.4597  0.6223 -2.5756
  575MOL0     H79350   4.919   1.232   4.494  3.5170  0.3775  2.6830
  576MOL0     O79351  10.758   0.752   1.210 -0.2809 -0.4623 -0.7873
  576MOL0     C79352  10.872   0.792   1.234 -0.0479  0.6507  0.4004
  576MOL0     O79353  10.938   0.893   1.166  0.0055 -0.1357 -0.2349
  576MOL0     C79354  10.899   0.949   1.051  0.3321 -0.2831  0.4495
  576MOL0     C79355  10.924   1.092   1.032  0.0004 -0.3030  1.3045
  576MOL0     C79356  10.892   1.137   0.902  0.2870  0.7606  0.2199
  576MOL0     C79357  10.834   1.053   0.805  0.1348 -0.4808 -0.1968
  576MOL0     O79358  10.807   1.108   0.682 -0.5123  0.0435 -0.4716
  576MOL0     C79359  10.807   1.247   0.673 -0.6280 -0.1520 -0.9559
  576MOL0     C79360  10.744   1.279   0.546  1.4897 -0.3651  0.5151
  576MOL0     C79361  10.779   1.404   0.479 -0.3305 -0.7189  0.1498
  576MOL0     C79362  10.682   1.515   0.509  0.0177 -0.2122 -0.5733
  576MOL0     C79363  10.706   1.567   0.661  0.3834  0.7172  0.1769
  576MOL0     C79364  10.646   1.709   0.682  1.2096  0.1209 -0.3988
  576MOL0     C79365  10.648   1.762   0.827  0.5834  0.6909 -0.3707
  576MOL0     C79366  10.777   1.853   0.849  0.0469 -0.4521  1.1490
  576MOL0     N79367  10.754   1.995   0.843 -0.2396  0.7484 -0.6133
  576MOL0     C79368  10.635   2.049   0.876  0.0902 -0.2884  0.5140
  576MOL0     C79369  10.642   2.179   0.847 -1.2811  0.3625  0.8925
  576MOL0     C79370  10.526   2.276   0.842 -0.2978 -0.2507  0.0755
  576MOL0     C79371  10.496   2.340   0.702  0.0752 -0.5453  0.1582
  576MOL0     C79372  10.481   2.243   0.577  0.1324 -1.2540 -0.5293
  576MOL0     C79373  10.460   2.331   0.447  1.1112 -0.3919 -0.2771
  576MOL0     O79374  10.555   2.441   0.441 -0.3322  0.1866 -0.6299
  576MOL0     C79375  10.658   2.401   0.365 -0.0521 -1.0990 -0.6480
  576MOL0     C79376  10.775   2.338   0.415  0.9309 -0.9715  0.0554
  576MOL0     C79377  10.880   2.301   0.339  0.0526  0.3569 -0.7046
  576MOL0     C79378  10.991   2.234   0.412  0.7711 -0.1351 -0.3897
  576MOL0     C79379  10.883   2.333   0.202  0.0658 -0.5559  0.1633
  576MOL0     C79380  11.003   2.310   0.116 -0.5715  0.2108  0.5122
  576MOL0     O79381  10.970   2.321  -0.019  1.2584  0.0784 -0.3214
  576MOL0     C79382  11.061   2.281  -0.105  0.5594  0.1266  0.2082
  576MOL0     C79383  11.097   2.369  -0.206  0.6030  0.0574  1.5323
  576MOL0     C79384  11.195   2.326  -0.304 -1.0197  0.4926  0.1333
  576MOL0     C79385  11.256   2.204  -0.302 -0.3023  0.1537  0.1892
  576MOL0     O79386  11.342   2.159  -0.397 -0.7620 -0.2777 -0.4141
  576MOL0     C79387  11.397   2.027  -0.384  0.2022  0.4780 -0.0893
  576MOL0     C79388  11.472   2.006  -0.514 -0.3556  0.3369 -0.2104
  576MOL0     C79389  11.549   1.874  -0.518 -0.3458 -1.3271  1.2275
  576MOL0     C79390  11.624   1.877  -0.660 -0.5157 -0.3305  0.2129
  576MOL0     C79391  11.675   1.742  -0.718  0.6471 -2.0522 -0.7037
  576MOL0     C79392  11.753   1.763  -0.848 -0.0792  0.6149  0.3843
  576MOL0     C79393  11.839   1.643  -0.875  0.1243 -0.0946  1.0956
  576MOL0     C79394  11.930   1.668  -1.005  0.4131 -0.3114 -1.3800
  576MOL0    Cl79395  12.005   1.505  -1.049  0.2282  0.4861  0.3808
  576MOL0     C79396  11.206   2.118  -0.201 -0.0692 -0.4295 -0.1528
  576MOL0     C79397  11.111   2.155  -0.106 -0.2357 -0.8296 -0.9012
  576MOL0     O79398  11.115   2.275   0.155  0.0202  0.3837 -0.0558
  576MOL0     C79399  10.767   2.402   0.150 -1.1641 -0.4485 -0.2660
  576MOL0     C79400  10.658   2.431   0.233 -0.2150 -0.2120 -0.0468
  576MOL0     N79401  10.771   2.197   0.800  1.2583 -0.6607  0.6246
  576MOL0     N79402  10.838   2.091   0.794 -0.0568  0.5909  0.0910
  576MOL0     C79403  10.821   0.919   0.829 -0.3646  0.5671 -0.3390
  576MOL0     C79404  10.853   0.862   0.951 -0.6889 -0.2145 -0.1075
  576MOL0     C79405  10.954   0.730   1.343 -1.0868 -0.7706  0.1746
  576MOL0     C79406  11.090   0.755   1.356 -0.5171  0.0340 -1.0806
  576MOL0     C79407  11.160   0.700   1.461 -0.0502  1.0023  1.0599
  576MOL0     C79408  11.104   0.631   1.569 -0.1239  1.0097 -0.8525
  576MOL0     O79409  11.160   0.571   1.680  0.0710  0.5046 -0.1661
  576MOL0     C79410  11.275   0.632   1.735  0.1097  0.4009 -0.8167
  576MOL0     C79411  11.387   0.531   1.769  0.3254 -0.3962 -0.2895
  576MOL0     C79412  11.467   0.487   1.650  0.2461  0.4546  0.8389
  576MOL0     C79413  11.542   0.357   1.673 -0.5747  0.8103  0.0610
  576MOL0     C79414  11.643   0.324   1.572 -0.0332 -0.8939 -0.1760
  576MOL0     C79415  11.728   0.303   1.490  0.4115  0.5217 -0.7039
  576MOL0     C79416  10.969   0.609   1.558 -0.1914 -0.0211  0.4540
  576MOL0     C79417  10.890   0.648   1.450 -0.8699 -0.1921  0.0890
  576MOL0     C79418  10.742   0.620   1.457  0.5633 -0.2704 -1.0861
  576MOL0     H79419  10.970   1.155   1.107  1.3768 -2.0876  2.0240
  576MOL0     H79420  10.904   1.244   0.888 -1.7020  1.1140  0.9810
  576MOL0     H79421  10.909   1.284   0.660 -0.4521 -0.5884 -0.8556
  576MOL0     H79422  10.752   1.301   0.751 -1.9294  0.3996 -2.2251
  576MOL0     H79423  10.753   1.193   0.479 -0.8392 -0.6475  0.4953
  576MOL0     H79424  10.638   1.271   0.572  1.0420 -3.5582 -1.7472
  576MOL0     H79425  10.885   1.430   0.489 -0.2880  0.2255 -2.0497
  576MOL0     H79426  10.764   1.384   0.372  1.4317  1.6032 -0.6311
  576MOL0     H79427  10.672   1.596   0.437 -2.8993 -1.0204 -1.2076
  576MOL0     H79428  10.577   1.486   0.506  0.7160 -3.0604 -0.5372
  576MOL0     H79429  10.814   1.573   0.674  0.4154 -0.8746  0.8304
  576MOL0     H79430  10.672   1.501   0.740 -1.1121  1.0180 -0.1864
  576MOL0     H79431  10.700   1.781   0.620  1.3727  0.9555  0.6797
  576MOL0     H79432  10.542   1.712   0.650  0.8896  1.8764  0.6927
  576MOL0     H79433  10.644   1.678   0.896  1.2598 -0.9263 -2.2272
  576MOL0     H79434  10.563   1.830   0.838  1.2433  1.9625 -2.4167
  576MOL0     H79435  10.821   1.819   0.943 -1.3900 -3.8929  0.7300
  576MOL0     H79436  10.852   1.823   0.774  0.7707 -1.5889  2.2887
  576MOL0     H79437  10.546   2.002   0.916 -0.0188 -0.0712  0.5306
  576MOL0     H79438  10.544   2.357   0.913 -1.4990 -1.4352  1.7834
  576MOL0     H79439  10.434   2.225   0.870 -0.4775 -1.1510 -1.9845
  576MOL0     H79440  10.418   2.414   0.719 -0.8876 -1.0154 -1.8224
  576MOL0     H79441  10.583   2.403   0.683 -1.4842  1.6673  0.0106
  576MOL0     H79442  10.580   2.199   0.564  0.4620 -0.2321 -1.6308
  576MOL0     H79443  10.402   2.170   0.600 -0.9226  0.0077 -0.0058
  576MOL0     H79444  10.446   2.263   0.362 -1.6068 -0.8457  0.4327
  576MOL0     H79445  10.359   2.372   0.460  1.2290  0.4862 -1.8833
  576MOL0     H79446  10.787   2.333   0.523  1.3261  2.1020  0.2502
  576MOL0     H79447  10.997   2.133   0.371  0.4617  0.4224 -1.8556
  576MOL0     H79448  10.968   2.232   0.519 -1.5318 -2.5998 -0.8200
  576MOL0     H79449  11.088   2.282   0.398  0.8304 -0.0752  0.2029
  576MOL0     H79450  11.063   2.471  -0.219  0.4359 -0.1965 -0.4251
  576MOL0     H79451  11.223   2.399  -0.379  1.1981  1.1649  1.5084
  576MOL0     H79452  11.466   2.017  -0.299  0.6351 -2.6886 -0.6642
  576MOL0     H79453  11.314   1.956  -0.389 -0.9946  1.9058 -3.4592
  576MOL0     H79454  11.394   2.006  -0.591 -0.7783  2.5051  0.1487
  576MOL0     H79455  11.542   2.087  -0.537 -0.6231  0.6039 -0.1092
  576MOL0     H79456  11.473   1.796  -0.513 -1.2178 -0.8311 -2.1261
  576MOL0     H79457  11.616   1.873  -0.431 -0.2141  0.6001  1.2011
  576MOL0     H79458  11.715   1.937  -0.650  1.4974 -3.2148  0.3268
  576MOL0     H79459  11.562   1.919  -0.741 -0.1289  1.3319  0.7276
  576MOL0     H79460  11.736   1.703  -0.636 -4.3080 -3.0092  3.0407
  576MOL0     H79461  11.589   1.676  -0.734  0.6548 -2.0603 -0.7085
  576MOL0     H79462  11.816   1.851  -0.862  1.9382 -0.7382  0.6313
  576MOL0     H79463  11.688   1.771  -0.936 -0.8505 -0.8165  0.7966
  576MOL0     H79464  11.784   1.555  -0.911  2.7821 -0.6092 -2.2426
  576MOL0     H79465  11.891   1.599  -0.790  3.1926 -1.2279 -1.1810
  576MOL0     H79466  12.017   1.730  -0.981 -0.2738 -0.2599  1.2431
  576MOL0     H79467  11.877   1.719  -1.086 -2.9914  0.4538  1.0892
  576MOL0     H79468  11.263   2.028  -0.178  3.4230  1.9286  1.3444
  576MOL0     H79469  11.069   2.076  -0.044  1.5571 -3.0022 -2.3050
  576MOL0     H79470  10.764   2.435   0.047 -1.6489  0.9411  0.1622
  576MOL0     H79471  10.577   2.477   0.178  0.5517  1.1518 -0.0681
  576MOL0     H79472  10.799   0.865   0.738  1.2916 -2.2117  0.7857
  576MOL0     H79473  10.845   0.754   0.957 -0.3765 -0.1600  2.0122
  576MOL0     H79474  11.147   0.808   1.281  1.4630 -2.1801 -1.2856
  576MOL0     H79475  11.268   0.709   1.455  0.2140 -2.0177 -1.0408
  576MOL0     H79476  11.325   0.701   1.667 -0.2531 -0.1157 -1.6191
  576MOL0     H79477  11.235   0.686   1.821  1.2553 -1.4800  0.9908
  576MOL0     H79478  11.333   0.452   1.824 -0.1792  0.0637 -0.1159
  576MOL0     H79479  11.454   0.568   1.848 -2.3352 -0.3840  2.1307
  576MOL0     H79480  11.412   0.465   1.557  2.1149 -0.0779 -0.1826
  576MOL0     H79481  11.540   0.567   1.640  2.0703 -1.2153  0.2317
  576MOL0     H79482  11.464   0.281   1.671  0.3078 -0.1342 -2.8007
  576MOL0     H79483  11.581   0.357   1.775 -0.0319 -1.6597 -0.0995
  576MOL0     H79484  11.822   0.286   1.441  1.2245  2.7258 -0.0715
  576MOL0     H79485  10.923   0.565   1.646  2.7225 -1.1197  1.5774
  576MOL0     H79486  10.674   0.705   1.469  0.5541 -0.6470  3.3922
  576MOL0     H79487  10.718   0.553   1.374 -4.0900 -0.2891  0.0253
  576MOL0     H79488  10.717   0.561   1.546 -0.0899  1.6728  0.0853
  577MOL0     O79489   7.794   7.952  10.702  0.7216  0.0399 -0.5155
  577MOL0     C79490   7.823   8.064  10.742  0.0112  0.2388 -0.1783
  577MOL0     O79491   7.787   8.109  10.861 -0.3328  0.2098  0.2538
  577MOL0     C79492   7.692   8.043  10.938  0.0047 -0.2231 -0.2829
  577MOL0     C79493   7.701   7.906  10.978  0.2616 -0.0373  0.4948
  577MOL0     C79494   7.582   7.860  11.042 -0.9434  1.4708 -0.3215
  577MOL0     C79495   7.469   7.937  11.077  0.0739  1.1487  0.4792
  577MOL0     O79496   7.362   7.883  11.143  0.6428 -0.3780  0.1689
  577MOL0     C79497   7.397   7.823  11.271 -0.4961  0.0197 -1.3415
  577MOL0     C79498   7.376   7.926  11.377 -0.0994 -0.6214 -1.3176
  577MOL0     C79499   7.237   7.976  11.381  0.6180 -0.2489 -0.8959
  577MOL0     C79500   7.210   8.084  11.487 -0.2602 -0.6941 -0.5364
  577MOL0     C79501   7.263   8.061  11.628 -0.6799 -0.1290 -1.1668
  577MOL0     C79502   7.187   8.131  11.734 -0.7118  0.2192 -0.2944
  577MOL0     C79503   7.254   8.097  11.875  0.1205 -0.4564 -0.0368
  577MOL0     C79504   7.182   7.983  11.931  0.6488  0.2550 -0.8219
  577MOL0     N79505   7.201   7.988  12.080  0.7005 -0.0016  0.6971
  577MOL0     C79506   7.162   8.077  12.171  0.6466 -0.2081  0.6484
  577MOL0     C79507   7.215   8.047  12.288 -0.7590  0.8442 -0.7416
  577MOL0     C79508   7.190   8.134  12.409  0.5282  0.6495  0.4007
  577MOL0     C79509   7.311   8.227  12.426 -0.1626  0.6516  0.0636
  577MOL0     C79510   7.450   8.163  12.416 -0.7284  0.9746 -0.3047
  577MOL0     C79511   7.556   8.272  12.431  0.0730  0.5249 -1.0158
  577MOL0     O79512   7.530   8.377  12.325  0.5341  0.5606  0.1772
  577MOL0     C79513   7.574   8.506  12.343  0.0270 -0.0518  0.5244
  577MOL0     C79514   7.503   8.615  12.301  0.4339  0.1834 -0.5068
  577MOL0     C79515   7.545   8.742  12.327  0.8635 -0.4290 -0.0288
  577MOL0     C79516   7.452   8.847  12.281  0.1294  0.1619 -0.4688
  577MOL0     C79517   7.675   8.767  12.369  0.6078  0.1273 -1.7229
  577MOL0     C79518   7.738   8.904  12.382 -0.4129 -0.1916  1.5945
  577MOL0     O79519   7.821   8.926  12.490  0.1857 -0.6300  0.0865
  577MOL0     C79520   7.887   9.043  12.510  0.6469 -0.6953 -0.7368
  577MOL0     C79521   8.012   9.089  12.457 -0.0785  0.2132 -0.7352
  577MOL0     C79522   8.056   9.219  12.477  0.2523  0.3279 -0.1997
  577MOL0     C79523   7.991   9.300  12.563 -0.2584  0.8003 -0.4200
  577MOL0     O79524   8.045   9.424  12.579 -0.0003  0.3892  0.6628
  577MOL0     C79525   7.949   9.539  12.585  0.3053 -0.2508  0.6218
  577MOL0     C79526   7.948   9.592  12.726  0.5287 -0.6366 -0.7558
  577MOL0     C79527   8.076   9.664  12.773 -0.5516 -0.4033 -0.6679
  577MOL0     C79528   8.063   9.707  12.922  0.1532 -0.3317  0.3894
  577MOL0     C79529   8.026   9.847  12.956  0.9115  0.0306  0.9419
  577MOL0     C79530   8.125   9.939  12.897  0.7460 -0.1463 -0.3129
  577MOL0     C79531   8.059  10.069  12.866  0.5094  0.3904 -0.0491
  577MOL0     C79532   8.013  10.165  12.975 -1.0912  0.1038  0.1572
  577MOL0    Cl79533   8.147  10.233  13.071 -0.2554  0.1641 -0.3633
  577MOL0     C79534   7.860   9.264  12.612 -0.5555 -1.1108  0.8802
  577MOL0     C79535   7.814   9.133  12.596 -0.0550  0.3898  0.0950
  577MOL0     O79536   7.731   8.981  12.280 -0.0889  0.4576 -0.4556
  577MOL0     C79537   7.750   8.656  12.410 -0.2661 -0.4327 -0.4742
  577MOL0     C79538   7.699   8.530  12.395  1.0014  0.8468 -0.5776
  577MOL0     N79539   7.289   7.928  12.275 -0.1073 -0.2618 -0.1575
  577MOL0     N79540   7.285   7.899  12.148  0.1104  0.5482 -0.4509
  577MOL0     C79541   7.470   8.075  11.043  0.1903 -0.5995  0.1076
  577MOL0     C79542   7.577   8.119  10.972 -0.2420 -0.7075  0.3725
  577MOL0     C79543   7.910   8.156  10.666  0.1321 -0.7881  0.2976
  577MOL0     C79544   7.937   8.099  10.537 -0.1648  0.1415 -0.9154
  577MOL0     C79545   8.035   8.161  10.459 -0.0190  0.4860  0.8848
  577MOL0     C79546   8.102   8.273  10.490  0.2895 -0.3029 -1.2056
  577MOL0     O79547   8.206   8.340  10.425  0.5817  0.0829  0.3192
  577MOL0     C79548   8.276   8.272  10.322 -1.3289  0.2801 -0.1788
  577MOL0     C79549   8.334   8.136  10.365  0.3217 -0.0911  0.7596
  577MOL0     C79550   8.459   8.161  10.433 -2.0112  0.2929 -0.0396
  577MOL0     C79551   8.525   8.031  10.491  0.5907 -0.4663  0.7038
  577MOL0     C79552   8.663   8.055  10.531 -1.0031  0.6886  0.6105
  577MOL0     C79553   8.781   8.061  10.572  0.6178 -0.9291 -1.1129
  577MOL0     C79554   8.075   8.337  10.616  0.3425  0.1379  0.8145
  577MOL0     C79555   7.988   8.269  10.704 -0.7898  0.5243  0.6032
  577MOL0     C79556   7.980   8.329  10.843  0.1148  0.6505 -0.1904
  577MOL0     H79557   7.775   7.838  10.937  0.9466  1.1851 -0.3530
  577MOL0     H79558   7.579   7.754  11.066  1.5977  1.0328 -1.5370
  577MOL0     H79559   7.499   7.784  11.279 -1.2282 -1.5456  1.6657
  577MOL0     H79560   7.333   7.736  11.287  1.7782 -1.5153 -0.0921
  577MOL0     H79561   7.402   7.895  11.479 -0.0990  0.6546 -0.9084
  577MOL0     H79562   7.440   8.010  11.348 -0.1117 -0.4757 -0.9325
  577MOL0     H79563   7.231   8.023  11.282  1.3417  2.3165  0.1930
  577MOL0     H79564   7.162   7.897  11.391  1.0578 -0.8152 -1.9467
  577MOL0     H79565   7.259   8.175  11.452 -0.1498 -0.6301 -0.2241
  577MOL0     H79566   7.102   8.094  11.502 -0.2677 -0.3693 -0.8188
  577MOL0     H79567   7.372   8.068  11.627 -0.6036 -1.2550 -2.0946
  577MOL0     H79568   7.258   7.953  11.642  2.0248 -0.3336 -1.3308
  577MOL0     H79569   7.188   8.237  11.709  0.4980  0.8970  2.2840
  577MOL0     H79570   7.082   8.101  11.733 -0.7889  0.4737  0.1381
  577MOL0     H79571   7.231   8.182  11.940 -1.7856  0.1769 -1.4274
  577MOL0     H79572   7.362   8.079  11.868  0.5798  2.3123 -1.5863
  577MOL0     H79573   7.079   7.988  11.892  0.4525  0.5239 -0.2678
  577MOL0     H79574   7.211   7.885  11.893 -1.9414 -0.5222 -0.9945
  577MOL0     H79575   7.125   8.176  12.145  0.0616 -0.0290  2.0734
  577MOL0     H79576   7.176   8.070  12.497 -2.2007  1.2083  0.4569
  577MOL0     H79577   7.097   8.189  12.395 -1.2047 -1.7472  1.6896
  577MOL0     H79578   7.307   8.301  12.345 -2.4268 -0.5213 -0.9970
  577MOL0     H79579   7.287   8.278  12.520 -1.5181  2.8565 -1.3816
  577MOL0     H79580   7.475   8.081  12.484 -0.5617 -0.4197 -1.9570
  577MOL0     H79581   7.461   8.116  12.318  2.7738 -2.6441  1.5291
  577MOL0     H79582   7.566   8.299  12.536 -1.5375 -0.3909 -0.5961
  577MOL0     H79583   7.652   8.226  12.406  0.4712  0.3937  0.6696
  577MOL0     H79584   7.398   8.603  12.277 -1.2959 -0.3610  5.5629
  577MOL0     H79585   7.357   8.817  12.235  0.5218 -0.4520 -0.8788
  577MOL0     H79586   7.493   8.897  12.193  1.0500 -0.7518 -0.5686
  577MOL0     H79587   7.429   8.919  12.360 -0.7578  2.6224 -2.8324
  577MOL0     H79588   8.069   9.038  12.380 -0.5484  1.2304 -1.7740
  577MOL0     H79589   8.149   9.257  12.437 -0.6708  2.4753 -0.4418
  577MOL0     H79590   7.976   9.608  12.504  3.1388 -2.3375 -0.3925
  577MOL0     H79591   7.849   9.504  12.559  1.3352 -3.1777  0.1539
  577MOL0     H79592   7.860   9.656  12.741  2.9918  2.6249  1.3865
  577MOL0     H79593   7.917   9.513  12.795 -2.1481 -0.2865 -1.4795
  577MOL0     H79594   8.110   9.749  12.713 -1.9702  1.7146  1.3619
  577MOL0     H79595   8.156   9.589  12.769  1.4955  1.5102  1.5716
  577MOL0     H79596   8.159   9.688  12.971  0.4773 -0.5296 -0.3177
  577MOL0     H79597   7.985   9.640  12.958 -2.6595  0.5434 -3.4680
  577MOL0     H79598   7.921   9.863  12.931  1.3489 -1.4760 -2.4154
  577MOL0     H79599   8.019   9.856  13.065 -1.6093 -2.4053  1.1095
  577MOL0     H79600   8.177   9.915  12.804  4.0415  0.8945  1.1283
  577MOL0     H79601   8.205   9.963  12.967 -0.1824  1.7260  0.1860
  577MOL0     H79602   7.981  10.059  12.790  1.5672 -2.3803 -0.9148
  577MOL0     H79603   8.131  10.132  12.812 -0.0386  1.2293  0.1864
  577MOL0     H79604   7.944  10.114  13.043 -1.1974 -2.3659 -1.6403
  577MOL0     H79605   7.975  10.250  12.918  1.4519  1.4319  0.3082
  577MOL0     H79606   7.812   9.334  12.679  2.9097  1.1410  1.2904
  577MOL0     H79607   7.719   9.101  12.638 -0.5855 -0.2991 -1.5582
  577MOL0     H79608   7.848   8.660  12.457 -0.5447 -2.9225  0.4603
  577MOL0     H79609   7.750   8.441  12.431 -3.4398 -1.8059 -0.0178
  577MOL0     H79610   7.383   8.129  11.077  0.9267  3.1512 -3.2318
  577MOL0     H79611   7.589   8.227  10.964 -0.2332 -0.5653  1.8863
  577MOL0     H79612   7.871   8.023  10.495  2.1370 -1.8364 -1.1854
  577MOL0     H79613   8.044   8.119  10.359 -2.2351  1.0476  0.3880
  577MOL0     H79614   8.200   8.267  10.243  0.9885  1.2161 -2.6117
  577MOL0     H79615   8.360   8.333  10.289  2.1940 -3.9945 -0.0279
  577MOL0     H79616   8.340   8.079  10.271  1.0771  0.4887  0.4430
  577MOL0     H79617   8.273   8.086  10.440 -1.0810  1.0205  0.3880
  577MOL0     H79618   8.533   8.199  10.362  0.7485  0.8958  2.9307
  577MOL0     H79619   8.466   8.234  10.514  3.2798  3.1361 -2.5917
  577MOL0     H79620   8.524   7.956  10.411  0.3790 -0.4148  0.6580
  577MOL0     H79621   8.469   7.987  10.574  0.7121 -1.5694  0.2192
  577MOL0     H79622   8.884   8.070  10.599  1.2257  1.2284 -3.7215
  577MOL0     H79623   8.146   8.413  10.648 -0.4962  1.4546 -0.3212
  577MOL0     H79624   8.053   8.277  10.905 -0.9514 -0.1457  0.4266
  577MOL0     H79625   8.001   8.437  10.843 -1.7336  1.0549 -1.0310
  577MOL0     H79626   7.879   8.334  10.885  0.6019 -1.1035  1.3269
  578MOL0     O79627  10.534   7.924   4.624 -0.3168  0.3404 -0.1746
  578MOL0     C79628  10.537   7.843   4.533  0.2500  0.4584  0.6758
  578MOL0     O79629  10.598   7.855   4.413 -0.5799  0.2366  0.2766
  578MOL0     C79630  10.680   7.954   4.391 -0.0399  0.2281  0.5078
  578MOL0     C79631  10.815   7.923   4.363 -0.4616 -0.4029  0.1094
  578MOL0     C79632  10.892   8.027   4.324 -0.3016  0.4758  0.4043
  578MOL0     C79633  10.848   8.156   4.308 -0.1322 -0.1551 -0.1343
  578MOL0     O79634  10.927   8.267   4.280 -0.2058 -0.0818 -1.0396
  578MOL0     C79635  11.063   8.277   4.290 -0.5468 -0.9928 -0.4293
  578MOL0     C79636  11.124   8.421   4.268  0.2080 -1.2170 -0.3075
  578MOL0     C79637  11.273   8.432   4.324  0.9315  0.3145 -0.9533
  578MOL0     C79638  11.306   8.576   4.322 -0.2888  0.2406  0.8723
  578MOL0     C79639  11.450   8.618   4.347  0.1967  0.0691 -0.3650
  578MOL0     C79640  11.484   8.650   4.499  0.3075  0.0853  0.1266
  578MOL0     C79641  11.619   8.712   4.507  1.0392  0.6874  0.5842
  578MOL0     C79642  11.733   8.635   4.454  0.1283 -0.1665 -0.5789
  578MOL0     N79643  11.864   8.692   4.490 -0.5662  0.3013  0.3728
  578MOL0     C79644  11.977   8.613   4.483  0.5891 -0.1635 -0.8270
  578MOL0     C79645  12.076   8.709   4.511 -0.2214 -0.7718 -0.2945
  578MOL0     C79646  12.216   8.692   4.533 -0.0215  0.6039 -0.9090
  578MOL0     C79647  12.305   8.814   4.495  0.4722 -0.5583  0.2791
  578MOL0     C79648  12.448   8.778   4.525  1.0896  0.1818  0.5509
  578MOL0     C79649  12.476   8.801   4.675  0.5305 -0.8527  0.7431
  578MOL0     O79650  12.609   8.818   4.710  0.6284 -0.0303 -0.5609
  578MOL0     C79651  12.641   8.858   4.837  0.0580 -0.9862 -0.2710
  578MOL0     C79652  12.559   8.926   4.921  0.9412  1.4034  0.3110
  578MOL0     C79653  12.589   8.969   5.054  0.1180  0.1789 -0.4376
  578MOL0     C79654  12.483   9.027   5.143 -0.5799  0.5303  0.5606
  578MOL0     C79655  12.726   8.952   5.090 -0.6493  0.9370 -0.1202
  578MOL0     C79656  12.789   9.011   5.223 -1.1950  0.7059  0.5448
  578MOL0     O79657  12.927   9.021   5.227  0.7498 -0.0765  0.0051
  578MOL0     C79658  13.001   9.063   5.338  0.5544  0.3556 -0.3386
  578MOL0     C79659  13.032   9.193   5.347 -0.5932  0.2906 -0.2844
  578MOL0     C79660  13.098   9.249   5.450  0.0923 -0.1252 -0.7122
  578MOL0     C79661  13.165   9.167   5.541 -0.0312  0.1718  0.4990
  578MOL0     O79662  13.234   9.234   5.640  0.4733  0.4290 -0.2251
  578MOL0     C79663  13.264   9.152   5.760  0.8645  0.4309  0.0718
  578MOL0     C79664  13.310   9.251   5.875  0.2970 -1.1154  0.6581
  578MOL0     C79665  13.399   9.179   5.972 -1.0680  1.0941 -0.3918
  578MOL0     C79666  13.365   9.242   6.109 -0.3982  0.3197 -0.0702
  578MOL0     C79667  13.454   9.192   6.222 -1.1655 -0.2669 -0.9099
  578MOL0     C79668  13.441   9.050   6.254  1.0195  0.6806 -0.2763
  578MOL0     C79669  13.458   9.010   6.409  0.3829  0.5593  0.6735
  578MOL0     C79670  13.405   8.867   6.440 -0.6542  0.1647 -0.3375
  578MOL0    Cl79671  13.475   8.789   6.585 -0.1531  0.3113 -0.0071
  578MOL0     C79672  13.147   9.024   5.532  0.5259 -0.2966 -0.5231
  578MOL0     C79673  13.066   8.975   5.423  0.7355  0.1196  0.0988
  578MOL0     O79674  12.717   9.034   5.312  0.6599  0.2687  0.5399
  578MOL0     C79675  12.811   8.877   4.998 -0.4264  0.2977  0.5944
  578MOL0     C79676  12.771   8.840   4.868  0.4974  0.0112 -0.3139
  578MOL0     N79677  12.012   8.832   4.518  0.3458  0.4715  0.1578
  578MOL0     N79678  11.890   8.828   4.505 -0.2561  1.2284 -1.0883
  578MOL0     C79679  10.711   8.190   4.328 -0.1548 -1.0681  0.0899
  578MOL0     C79680  10.635   8.090   4.382  0.4794 -0.2153  0.2373
  578MOL0     C79681  10.477   7.703   4.569 -0.3762 -0.0669  0.4548
  578MOL0     C79682  10.514   7.592   4.492 -0.0585  0.3010  0.1241
  578MOL0     C79683  10.483   7.459   4.530  0.7931 -0.0666  0.8982
  578MOL0     C79684  10.405   7.433   4.651  0.2730  0.3406  0.3897
  578MOL0     O79685  10.370   7.312   4.695  0.3575  0.1809 -0.4494
  578MOL0     C79686  10.441   7.199   4.637  0.0537 -0.8120 -0.1893
  578MOL0     C79687  10.384   7.083   4.711 -0.9639  0.0991  0.4022
  578MOL0     C79688  10.244   7.038   4.667 -0.9077 -0.3182  0.0845
  578MOL0     C79689  10.186   6.897   4.699  0.0529 -1.3998  0.4606
  578MOL0     C79690  10.241   6.797   4.602  0.2948  1.0739  0.1819
  578MOL0     C79691  10.306   6.726   4.532 -0.1282 -0.4777  0.2091
  578MOL0     C79692  10.351   7.544   4.708  0.4746 -0.5506 -0.1619
  578MOL0     C79693  10.389   7.675   4.675  0.8351 -0.6806  0.3899
  578MOL0     C79694  10.330   7.781   4.759  0.2140 -0.5898 -0.9484
  578MOL0     H79695  10.852   7.823   4.383  0.2969 -0.5513 -1.8076
  578MOL0     H79696  10.995   8.015   4.293  0.0053  1.4385  1.0378
  578MOL0     H79697  11.115   8.200   4.232  1.7872 -2.1179  2.8505
  578MOL0     H79698  11.081   8.262   4.397 -0.1786 -1.4334 -0.5495
  578MOL0     H79699  11.115   8.456   4.164  0.0277 -0.6777 -0.1161
  578MOL0     H79700  11.069   8.488   4.336  1.4002 -3.6338  3.3349
  578MOL0     H79701  11.282   8.380   4.420  0.7344 -2.6508 -2.4069
  578MOL0     H79702  11.334   8.380   4.250 -0.3754 -3.0153  0.0872
  578MOL0     H79703  11.288   8.608   4.219  2.7299 -3.5070 -1.1073
  578MOL0     H79704  11.232   8.632   4.380  0.4919  2.0187  0.2340
  578MOL0     H79705  11.463   8.700   4.276  0.0995 -0.1990 -0.6964
  578MOL0     H79706  11.517   8.540   4.310  0.7023  0.4907 -0.3552
  578MOL0     H79707  11.413   8.728   4.528 -1.2803 -0.2599 -2.4484
  578MOL0     H79708  11.465   8.559   4.557 -1.9448  0.3061 -0.1674
  578MOL0     H79709  11.632   8.737   4.613  0.2596 -0.9492  1.1060
  578MOL0     H79710  11.607   8.800   4.444  4.1241  2.4473  2.2343
  578MOL0     H79711  11.722   8.542   4.509 -3.3020  0.6823  0.4407
  578MOL0     H79712  11.717   8.620   4.347 -3.9734 -4.2995  0.3089
  578MOL0     H79713  11.996   8.506   4.479  2.1048  0.0672 -0.5456
  578MOL0     H79714  12.245   8.607   4.470 -2.8881 -0.3582 -1.0938
  578MOL0     H79715  12.233   8.672   4.640  1.8094  0.9760 -1.1096
  578MOL0     H79716  12.292   8.839   4.390  2.9718  1.7676  0.4336
  578MOL0     H79717  12.271   8.903   4.549  0.8973  0.0755 -0.4799
  578MOL0     H79718  12.472   8.677   4.492 -1.3529 -0.5627  0.8380
  578MOL0     H79719  12.503   8.844   4.457  1.3077 -0.5871 -0.0290
  578MOL0     H79720  12.416   8.888   4.705  1.2124 -0.7455  1.8659
  578MOL0     H79721  12.440   8.717   4.734  2.2019 -1.8385  0.4040
  578MOL0     H79722  12.454   8.939   4.894 -0.0759 -2.5284  1.7220
  578MOL0     H79723  12.388   9.024   5.090  0.2006  2.7124 -1.1148
  578MOL0     H79724  12.505   9.133   5.162 -2.9154  1.1155  0.3620
  578MOL0     H79725  12.478   8.980   5.242 -1.4422 -0.3585  0.1100
  578MOL0     H79726  12.998   9.263   5.271  1.3246  3.6269  1.6543
  578MOL0     H79727  13.110   9.357   5.447  0.8340  0.1063  3.9112
  578MOL0     H79728  13.184   9.087   5.796  3.3456 -3.2684 -0.5392
  578MOL0     H79729  13.339   9.078   5.728  1.4950  2.1744 -2.8483
  578MOL0     H79730  13.375   9.326   5.829 -2.0682  1.2093  0.9010
  578MOL0     H79731  13.233   9.312   5.922  1.3718  1.9410 -1.2497
  578MOL0     H79732  13.506   9.196   5.959 -1.0550  1.8295  0.6012
  578MOL0     H79733  13.396   9.069   5.967  4.3209  0.6942 -1.1886
  578MOL0     H79734  13.261   9.248   6.141 -0.0865  1.0797  0.8534
  578MOL0     H79735  13.387   9.349   6.096  1.7328 -0.0565 -0.0236
  578MOL0     H79736  13.554   9.225   6.194 -1.5007 -0.3025 -2.2081
  578MOL0     H79737  13.420   9.249   6.309 -0.6985 -0.6555 -0.4626
  578MOL0     H79738  13.513   8.992   6.197  0.9361  0.5504 -0.2508
  578MOL0     H79739  13.336   9.029   6.229  1.0350  1.7227 -1.3096
  578MOL0     H79740  13.411   9.067   6.489  0.1280 -3.1253  3.3868
  578MOL0     H79741  13.566   9.024   6.423  0.6023  3.1329 -2.4507
  578MOL0     H79742  13.426   8.805   6.352  0.4408 -0.2731  0.2150
  578MOL0     H79743  13.297   8.859   6.457 -0.2467 -0.7382  2.1706
  578MOL0     H79744  13.199   8.957   5.598  3.4824  0.2965 -2.0725
  578MOL0     H79745  13.046   8.869   5.412  0.3960  0.1552  0.3448
  578MOL0     H79746  12.911   8.861   5.036 -0.3847 -0.4847  0.1733
  578MOL0     H79747  12.847   8.799   4.804 -1.8012 -2.4435 -1.6501
  578MOL0     H79748  10.671   8.289   4.304  1.4621  0.3644  2.7824
  578MOL0     H79749  10.534   8.124   4.399  0.6289 -0.9361  3.2059
  578MOL0     H79750  10.573   7.593   4.401 -0.0814 -5.3535 -0.2879
  578MOL0     H79751  10.511   7.378   4.463 -1.4105 -1.0469  1.0867
  578MOL0     H79752  10.427   7.196   4.529 -0.3933 -2.0420 -0.1138
  578MOL0     H79753  10.548   7.212   4.654 -0.3006 -0.7540  2.4253
  578MOL0     H79754  10.380   7.103   4.819  3.7380  0.1177  0.7835
  578MOL0     H79755  10.454   7.000   4.696  2.3239  2.3345  2.1649
  578MOL0     H79756  10.180   7.116   4.709 -0.7195 -0.1699  0.0961
  578MOL0     H79757  10.235   7.054   4.559  0.3007  3.2052  0.3598
  578MOL0     H79758  10.079   6.900   4.675  0.5432 -2.1695 -2.1950
  578MOL0     H79759  10.195   6.866   4.803 -0.4516  0.0966  0.9783
  578MOL0     H79760  10.359   6.659   4.468  0.3051 -3.0320  2.9940
  578MOL0     H79761  10.293   7.532   4.799  1.4535  1.0561  0.7257
  578MOL0     H79762  10.302   7.873   4.706 -1.3212 -0.3371  0.1962
  578MOL0     H79763  10.248   7.741   4.820  4.2536 -4.0684  2.8223
  578MOL0     H79764  10.406   7.810   4.831 -0.7241 -0.9859  0.2417
  579MOL0     O79765   7.155   7.958   2.672  0.8152 -0.5348 -0.8817
  579MOL0     C79766   7.239   8.027   2.629 -0.4393  0.5114 -0.1349
  579MOL0     O79767   7.242   8.061   2.498 -0.5750  0.4462  0.6171
  579MOL0     C79768   7.144   8.022   2.401  0.1790 -0.4113 -0.8036
  579MOL0     C79769   7.099   8.113   2.311  1.0043 -0.0415  0.3464
  579MOL0     C79770   7.005   8.074   2.201 -0.3907 -0.0010  0.0687
  579MOL0     C79771   6.953   7.941   2.216 -0.2354 -0.2918  0.1623
  579MOL0     O79772   6.862   7.911   2.122 -1.0628  1.0299  0.2583
  579MOL0     C79773   6.780   7.793   2.133 -0.4305  0.9335  0.0500
  579MOL0     C79774   6.855   7.673   2.072  1.1658 -0.1337  0.6862
  579MOL0     C79775   6.752   7.556   2.054  0.0742  0.1508  0.2383
  579MOL0     C79776   6.715   7.530   1.908  0.3373  0.1069  0.6346
  579MOL0     C79777   6.594   7.611   1.870  0.4771  0.1082  0.2462
  579MOL0     C79778   6.527   7.553   1.736 -0.6050 -1.1271 -0.8143
  579MOL0     C79779   6.619   7.547   1.615  0.7036  0.9367 -0.0065
  579MOL0     C79780   6.659   7.689   1.565 -0.0056  0.9095 -0.4840
  579MOL0     N79781   6.776   7.748   1.635  1.0652  0.3074  0.5145
  579MOL0     C79782   6.755   7.866   1.706  0.6001 -0.9069 -0.2479
  579MOL0     C79783   6.882   7.920   1.702  0.0514  0.6831  0.2455
  579MOL0     C79784   6.905   8.057   1.765 -0.5127  1.4449  0.1422
  579MOL0     C79785   6.982   8.160   1.676 -0.1273  0.0745 -0.0960
  579MOL0     C79786   7.131   8.141   1.701 -0.2913 -0.5467 -0.0262
  579MOL0     C79787   7.211   8.216   1.603  0.5484  0.1262  0.4362
  579MOL0     O79788   7.350   8.214   1.645  0.0762  0.3052  0.1087
  579MOL0     C79789   7.420   8.096   1.634 -0.2553  1.0758 -0.4178
  579MOL0     C79790   7.539   8.083   1.701 -1.2018  0.2432  0.2271
  579MOL0     C79791   7.620   7.969   1.699 -0.1135  0.1877  0.7838
  579MOL0     C79792   7.743   7.979   1.781 -0.0097  0.3891 -0.4528
  579MOL0     C79793   7.589   7.861   1.611  1.0022  0.5168  0.6416
  579MOL0     C79794   7.645   7.730   1.609 -0.6626  0.3551 -0.1760
  579MOL0     O79795   7.644   7.658   1.498 -0.1056  0.2807  0.2841
  579MOL0     C79796   7.713   7.539   1.493  0.5037 -0.5799  0.0284
  579MOL0     C79797   7.826   7.530   1.420  0.4580 -0.9876 -0.3073
  579MOL0     C79798   7.913   7.422   1.427 -0.7254  0.5270  0.1728
  579MOL0     C79799   7.878   7.305   1.491  0.2436  0.5511  0.3741
  579MOL0     O79800   7.954   7.199   1.487 -0.6862  1.3196  0.1855
  579MOL0     C79801   8.076   7.198   1.562 -1.1672 -0.0271  0.2015
  579MOL0     C79802   8.057   7.128   1.703  0.6503 -0.6772  0.0420
  579MOL0     C79803   7.982   6.997   1.686  0.9698 -0.3183 -0.1807
  579MOL0     C79804   7.952   6.920   1.814  0.5362 -0.1433  0.4417
  579MOL0     C79805   7.877   6.796   1.784 -1.0391 -0.4973 -0.0860
  579MOL0     C79806   7.815   6.761   1.919 -0.1436 -0.1051  0.0464
  579MOL0     C79807   7.813   6.612   1.935  0.6225  0.1959 -0.6397
  579MOL0     C79808   7.750   6.563   2.068  0.4484 -0.2052  0.0443
  579MOL0    Cl79809   7.834   6.641   2.206  0.2954  0.3735  0.0291
  579MOL0     C79810   7.761   7.304   1.559  0.3702  0.2602 -0.6601
  579MOL0     C79811   7.681   7.426   1.569  0.6220 -0.0980 -0.3747
  579MOL0     O79812   7.717   7.701   1.703 -0.2419 -0.3330 -0.0973
  579MOL0     C79813   7.473   7.876   1.533 -0.1394  0.4736 -0.6039
  579MOL0     C79814   7.387   7.993   1.540  0.2959 -0.2638  0.0871
  579MOL0     N79815   6.966   7.845   1.624 -0.4986 -0.4058 -0.2395
  579MOL0     N79816   6.905   7.748   1.577  0.4181 -0.6469  0.3266
  579MOL0     C79817   6.988   7.858   2.321 -0.4223  0.5667  0.0310
  579MOL0     C79818   7.090   7.893   2.407 -0.7940  0.3294 -0.2243
  579MOL0     C79819   7.348   8.064   2.722 -0.3441 -0.2664  1.0779
  579MOL0     C79820   7.323   8.048   2.862 -0.3701 -0.7513  0.4550
  579MOL0     C79821   7.414   8.076   2.964 -0.5321  0.2676  0.1005
  579MOL0     C79822   7.536   8.122   2.925  0.5232 -0.1813  0.1566
  579MOL0     O79823   7.630   8.141   3.026  0.8444  0.1066 -0.0132
  579MOL0     C79824   7.664   8.276   3.042 -0.9060 -0.0828 -0.0144
  579MOL0     C79825   7.805   8.285   3.094 -0.0627 -0.3736 -0.2076
  579MOL0     C79826   7.901   8.265   2.974 -0.5973  0.5442  0.0086
  579MOL0     C79827   8.043   8.262   3.038 -0.0589 -0.5454  0.3510
  579MOL0     C79828   8.148   8.238   2.937  1.4444 -0.6742 -1.1890
  579MOL0     C79829   8.236   8.231   2.857  0.2407 -0.0144  0.2011
  579MOL0     C79830   7.574   8.138   2.790 -0.3308  0.3634  0.5576
  579MOL0     C79831   7.482   8.103   2.681 -0.1875 -0.9469  0.6452
  579MOL0     C79832   7.534   8.113   2.535 -0.0612 -0.6238 -0.0978
  579MOL0     H79833   7.132   8.216   2.322 -2.2475  1.0554  0.9107
  579MOL0     H79834   6.976   8.131   2.113  1.8246 -1.5042 -1.7470
  579MOL0     H79835   6.683   7.811   2.087 -1.4185 -1.2685  1.1462
  579MOL0     H79836   6.757   7.768   2.236  0.1915  0.1258  0.0096
  579MOL0     H79837   6.888   7.706   1.973  0.8611  3.0695  1.5360
  579MOL0     H79838   6.949   7.650   2.123  3.7811  3.8253 -1.7765
  579MOL0     H79839   6.806   7.469   2.093 -1.1798 -0.1933  1.2959
  579MOL0     H79840   6.667   7.563   2.123  1.6944  2.6758  2.1203
  579MOL0     H79841   6.798   7.550   1.839  0.3237 -0.4431  0.4520
  579MOL0     H79842   6.691   7.423   1.906  1.4107 -0.1887  1.9464
  579MOL0     H79843   6.622   7.716   1.858  0.5731 -0.0025 -0.5383
  579MOL0     H79844   6.523   7.612   1.954  1.3739 -2.2960  1.1080
  579MOL0     H79845   6.481   7.454   1.749 -0.8652 -1.1164 -1.6217
  579MOL0     H79846   6.454   7.625   1.699  0.2719 -0.0289 -0.4755
  579MOL0     H79847   6.550   7.505   1.542 -0.0236  1.3331  0.4422
  579MOL0     H79848   6.693   7.468   1.631 -0.8441 -0.4584  0.5027
  579MOL0     H79849   6.691   7.681   1.461 -0.5281 -3.5616 -0.4815
  579MOL0     H79850   6.574   7.757   1.581  0.4601  0.8627  2.8783
  579MOL0     H79851   6.664   7.907   1.749  1.4340 -0.4407  1.1300
  579MOL0     H79852   6.972   8.034   1.850 -0.8310 -0.9544 -0.1777
  579MOL0     H79853   6.807   8.089   1.800 -1.3696 -0.1135 -0.7346
  579MOL0     H79854   6.954   8.133   1.574  2.7951 -0.2375 -0.9000
  579MOL0     H79855   6.955   8.262   1.706 -1.9924 -0.2569 -0.5781
  579MOL0     H79856   7.162   8.155   1.805 -1.6620  1.1004  0.2093
  579MOL0     H79857   7.149   8.037   1.674  0.9855 -0.6897  1.2396
  579MOL0     H79858   7.191   8.172   1.505 -1.2566  1.6265  0.0662
  579MOL0     H79859   7.193   8.324   1.607  3.1938  0.6155  0.9062
  579MOL0     H79860   7.561   8.171   1.760 -2.7205  0.2458  0.8444
  579MOL0     H79861   7.827   7.943   1.722  2.4455  0.8413  2.4987
  579MOL0     H79862   7.743   7.908   1.865 -1.3927 -0.4558 -1.1289
  579MOL0     H79863   7.774   8.076   1.819  4.8428 -0.9356 -0.4435
  579MOL0     H79864   7.848   7.625   1.372 -1.3787 -0.6322 -0.5116
  579MOL0     H79865   8.007   7.425   1.372 -1.3922 -3.5195 -1.5106
  579MOL0     H79866   8.161   7.139   1.525 -0.9819  0.4347 -0.1309
  579MOL0     H79867   8.114   7.301   1.567 -0.4829 -0.1964 -1.0001
  579MOL0     H79868   8.159   7.112   1.739  1.1315 -1.3308 -1.5288
  579MOL0     H79869   8.011   7.203   1.768  2.4208 -0.3156  0.9393
  579MOL0     H79870   8.038   6.936   1.614  4.0092  1.8030  0.2099
  579MOL0     H79871   7.885   7.035   1.654  0.3519  0.3894  2.3250
  579MOL0     H79872   7.899   6.984   1.885 -2.1226 -0.4042 -1.2046
  579MOL0     H79873   8.047   6.890   1.861  1.4551 -3.2134 -2.8995
  579MOL0     H79874   7.805   6.807   1.703  0.0445 -0.8889 -1.1282
  579MOL0     H79875   7.950   6.721   1.752 -0.7772 -0.4591  0.4183
  579MOL0     H79876   7.710   6.793   1.917 -0.1995 -0.1173 -3.4371
  579MOL0     H79877   7.862   6.814   2.002  0.2962 -1.9893  1.0619
  579MOL0     H79878   7.916   6.575   1.939 -0.4678 -3.3281 -1.2139
  579MOL0     H79879   7.760   6.556   1.856  2.2277 -2.4061  0.0012
  579MOL0     H79880   7.759   6.454   2.074 -1.5254 -0.3979  0.2816
  579MOL0     H79881   7.648   6.603   2.069  1.4939  2.6747 -0.5051
  579MOL0     H79882   7.734   7.222   1.624  1.3952  1.0016  0.7472
  579MOL0     H79883   7.585   7.425   1.620 -0.8138  1.2872 -2.7895
  579MOL0     H79884   7.463   7.799   1.457  0.6584 -0.8659  0.5868
  579MOL0     H79885   7.297   7.997   1.480  1.2544 -1.2318 -1.4896
  579MOL0     H79886   6.942   7.760   2.333 -0.4128  0.1058 -2.8102
  579MOL0     H79887   7.116   7.822   2.484  0.8913  0.6915 -0.4186
  579MOL0     H79888   7.225   8.018   2.896  0.3083 -1.9478  1.4801
  579MOL0     H79889   7.387   8.081   3.069 -1.4049  2.0805 -0.1625
  579MOL0     H79890   7.656   8.333   2.949  1.4063 -1.2550 -1.0057
  579MOL0     H79891   7.589   8.320   3.108 -1.4105  0.8911 -1.1991
  579MOL0     H79892   7.834   8.206   3.164  0.9224  0.6706  0.5882
  579MOL0     H79893   7.834   8.380   3.138  2.1041 -0.7433 -0.7132
  579MOL0     H79894   7.886   8.168   2.924 -1.5686  0.6060  0.1548
  579MOL0     H79895   7.893   8.354   2.912 -1.7735 -0.4975 -1.4023
  579MOL0     H79896   8.044   8.177   3.107 -1.7154  0.8778  2.2519
  579MOL0     H79897   8.073   8.351   3.095  1.0339 -0.8201  0.2319
  579MOL0     H79898   8.303   8.221   2.775 -2.8844 -0.3252 -2.5146
  579MOL0     H79899   7.676   8.158   2.761 -0.7466 -0.0832 -1.3510
  579MOL0     H79900   7.541   8.221   2.516  2.2000  0.6352  5.7308
  579MOL0     H79901   7.641   8.091   2.535  0.1693  0.2589  2.0460
  579MOL0     H79902   7.483   8.042   2.470 -2.5786  0.5472  0.4670
  580MOL0     O79903   6.793   4.300   9.963 -1.0352 -0.2871  0.8901
  580MOL0     C79904   6.863   4.388  10.022 -0.5618 -0.4771  0.5383
  580MOL0     O79905   6.820   4.450  10.129  0.1554  0.5041  0.5698
  580MOL0     C79906   6.823   4.372  10.243  0.4731 -0.4460 -0.3133
  580MOL0     C79907   6.819   4.232  10.259  0.3321 -0.1636 -0.7005
  580MOL0     C79908   6.797   4.164  10.381 -0.3339 -0.8597  0.5482
  580MOL0     C79909   6.770   4.248  10.488  0.0366 -0.6042  0.6300
  580MOL0     O79910   6.743   4.178  10.604 -0.5684 -0.1375  0.0968
  580MOL0     C79911   6.611   4.134  10.634 -0.6179  0.7135  0.3662
  580MOL0     C79912   6.602   4.100  10.785 -0.1658  1.4411 -0.5238
  580MOL0     C79913   6.462   4.062  10.815  0.3147 -0.8548 -0.5828
  580MOL0     C79914   6.441   4.081  10.962  0.1771  0.6045 -0.5746
  580MOL0     C79915   6.308   4.021  11.003 -0.4032 -0.4901 -0.1532
  580MOL0     C79916   6.291   3.879  10.961 -1.1760 -0.4517 -0.6039
  580MOL0     C79917   6.384   3.782  11.044 -0.2339  0.7081 -0.4170
  580MOL0     C79918   6.343   3.636  11.047  0.7639 -0.3028  0.4204
  580MOL0     N79919   6.209   3.623  11.082 -0.6642 -0.4524 -0.4732
  580MOL0     C79920   6.160   3.606  11.213  0.5343 -0.4661  0.5239
  580MOL0     C79921   6.023   3.582  11.190 -0.2741  0.1218 -0.1619
  580MOL0     C79922   5.923   3.571  11.299 -0.2193 -0.3043 -0.7805
  580MOL0     C79923   5.848   3.703  11.285  0.0163 -0.2424  0.3822
  580MOL0     C79924   5.748   3.709  11.400  0.4187 -1.0032 -1.4138
  580MOL0     C79925   5.635   3.602  11.396  0.1044  0.2439 -1.1333
  580MOL0     O79926   5.538   3.656  11.484  0.0659 -0.0184 -0.2726
  580MOL0     C79927   5.411   3.603  11.484 -0.2370  0.0414 -0.6497
  580MOL0     C79928   5.393   3.480  11.423  0.4852  0.3780  0.0247
  580MOL0     C79929   5.277   3.415  11.452  0.7936  0.3657 -0.1169
  580MOL0     C79930   5.261   3.278  11.372 -1.0103  0.3907 -0.0967
  580MOL0     C79931   5.171   3.470  11.538 -0.0019 -0.7361  0.4038
  580MOL0     C79932   5.044   3.399  11.570 -0.0341  0.2328 -0.2018
  580MOL0     O79933   5.024   3.269  11.553  0.6377 -0.6218 -0.1922
  580MOL0     C79934   4.902   3.218  11.528 -0.0627 -0.6474  0.4442
  580MOL0     C79935   4.796   3.291  11.465 -0.4415  0.3161  0.0113
  580MOL0     C79936   4.673   3.237  11.436  1.1499  0.4178  0.4674
  580MOL0     C79937   4.641   3.102  11.469  0.4273 -0.2965 -1.0545
  580MOL0     O79938   4.510   3.059  11.450  0.2011 -0.2110  0.4381
  580MOL0     C79939   4.462   2.954  11.532  0.4702 -0.8212 -0.0598
  580MOL0     C79940   4.311   2.972  11.553 -0.0503  0.4759 -0.1889
  580MOL0     C79941   4.272   3.007  11.690  0.3209  0.5806  0.2506
  580MOL0     C79942   4.139   3.079  11.715  0.3557  0.3476  0.3906
  580MOL0     C79943   4.021   2.980  11.680  0.5983 -1.0263 -0.6906
  580MOL0     C79944   4.022   2.854  11.777  0.3639 -0.0951  0.5121
  580MOL0     C79945   3.915   2.761  11.723  0.0617  0.0517 -0.6147
  580MOL0     C79946   3.899   2.620  11.783  0.3794 -0.3747 -0.6234
  580MOL0    Cl79947   3.821   2.634  11.945  0.4364  0.1756 -0.1255
  580MOL0     C79948   4.738   3.025  11.529 -0.8606  0.4957  1.1323
  580MOL0     C79949   4.862   3.088  11.565  0.4662  0.2095  0.5049
  580MOL0     O79950   4.954   3.473  11.612 -0.2861 -0.3734  0.6522
  580MOL0     C79951   5.201   3.600  11.582 -0.0555 -0.4731 -0.0628
  580MOL0     C79952   5.314   3.669  11.555 -0.1876  0.8980 -0.2571
  580MOL0     N79953   6.001   3.584  11.058  0.4967  0.1052  0.2365
  580MOL0     N79954   6.100   3.628  10.996  0.7001 -1.0970 -0.6190
  580MOL0     C79955   6.783   4.387  10.482 -1.0968  0.3701 -0.6012
  580MOL0     C79956   6.805   4.452  10.365 -0.8466  1.0471  0.4069
  580MOL0     C79957   7.009   4.419   9.980 -0.1218 -0.9929 -0.7180
  580MOL0     C79958   7.063   4.537  10.029 -0.0408 -0.0873 -0.3106
  580MOL0     C79959   7.198   4.584  10.004  0.8016  0.2188  0.4006
  580MOL0     C79960   7.267   4.520   9.904 -0.1220 -0.1085 -0.9837
  580MOL0     O79961   7.389   4.555   9.862 -0.4932 -0.3436 -0.0106
  580MOL0     C79962   7.485   4.630   9.948 -0.1884  0.1340  0.5692
  580MOL0     C79963   7.618   4.639   9.870 -0.4130 -0.6534 -0.0171
  580MOL0     C79964   7.738   4.668   9.970  0.4636 -0.5842 -0.4803
  580MOL0     C79965   7.870   4.676   9.894  0.4839 -0.0737  0.2384
  580MOL0     C79966   7.918   4.812   9.865 -0.4648  0.8940  1.0633
  580MOL0     C79967   7.968   4.918   9.820  0.5084 -0.9203  0.2006
  580MOL0     C79968   7.212   4.399   9.857  0.0155 -0.1265 -1.2430
  580MOL0     C79969   7.091   4.345   9.889  0.2297  0.7667 -0.5634
  580MOL0     C79970   7.047   4.224   9.826  0.2871  0.4582 -0.2949
  580MOL0     H79971   6.820   4.166  10.173  0.8152 -1.5632  0.3456
  580MOL0     H79972   6.801   4.056  10.390 -0.2799 -0.8138  1.0824
  580MOL0     H79973   6.588   4.055  10.562  2.0925  1.7751 -1.8412
  580MOL0     H79974   6.542   4.218  10.622 -1.5982 -0.0598  0.4521
  580MOL0     H79975   6.684   4.031  10.810  0.3741  2.3231  0.1720
  580MOL0     H79976   6.633   4.196  10.825 -0.0532  0.3331  2.2383
  580MOL0     H79977   6.385   4.108  10.754 -2.6636 -3.9109  0.5711
  580MOL0     H79978   6.469   3.955  10.790 -0.6781 -0.9448 -0.4993
  580MOL0     H79979   6.522   4.024  11.009 -1.5585 -1.7512 -0.2710
  580MOL0     H79980   6.447   4.190  10.977  0.3341  0.4832  0.2884
  580MOL0     H79981   6.244   4.093  10.951 -0.2304  0.2612  0.6559
  580MOL0     H79982   6.294   4.032  11.111  2.3555 -0.9918  0.3228
  580MOL0     H79983   6.186   3.864  10.989 -1.1900  0.5425 -0.0971
  580MOL0     H79984   6.291   3.866  10.852 -2.5807 -0.5642 -0.6148
  580MOL0     H79985   6.403   3.807  11.149 -0.1892  0.0210 -0.2572
  580MOL0     H79986   6.482   3.781  10.997  0.2099  0.2027  0.4886
  580MOL0     H79987   6.359   3.593  10.948  2.8136  0.1464  0.5032
  580MOL0     H79988   6.397   3.569  11.116  1.9942 -2.1885 -2.2049
  580MOL0     H79989   6.211   3.622  11.308  1.9392 -1.7740  0.0348
  580MOL0     H79990   5.981   3.565  11.391  2.0820  2.4510 -1.9190
  580MOL0     H79991   5.855   3.486  11.282  0.6917 -1.2112 -0.0365
  580MOL0     H79992   5.923   3.781  11.300 -0.6968  0.0123  3.0949
  580MOL0     H79993   5.803   3.714  11.185  0.5558 -0.8998  0.0634
  580MOL0     H79994   5.801   3.705  11.495 -2.4711 -1.5993  0.2729
  580MOL0     H79995   5.699   3.805  11.384 -0.0779 -0.8736  0.7077
  580MOL0     H79996   5.589   3.590  11.298 -4.2039 -0.7692  0.7721
  580MOL0     H79997   5.655   3.503  11.439 -2.8523 -0.9317 -2.2082
  580MOL0     H79998   5.465   3.432  11.357  0.3526  3.0179 -2.2448
  580MOL0     H79999   5.305   3.279  11.272  0.4379 -0.0960  0.5162
  580MOL0     H80000   5.155   3.257  11.355 -2.0314  3.1000  2.0669
  580MOL0     H80001   5.311   3.202  11.433 -1.0928 -0.1182 -0.6612
  580MOL0     H80002   4.824   3.390  11.430  2.3408 -0.7185 -0.9688
  580MOL0     H80003   4.596   3.304  11.399  0.9933 -0.0715 -0.1194
  580MOL0     H80004   4.494   2.851  11.511  4.1576 -0.3537  2.3631
  580MOL0     H80005   4.506   2.967  11.632 -2.5615  1.4763  1.1227
  580MOL0     H80006   4.272   3.040  11.477  0.2560  1.3198  0.3793
  580MOL0     H80007   4.256   2.880  11.534  2.3262 -1.0503 -0.0615
  580MOL0     H80008   4.348   3.084  11.706  0.6173  0.3607 -0.0886
  580MOL0     H80009   4.285   2.923  11.759  0.6181  0.2172 -0.2400
  580MOL0     H80010   4.122   3.177  11.669 -2.2998 -0.1127  0.2352
  580MOL0     H80011   4.125   3.100  11.822  1.2637 -2.7234  1.2317
  580MOL0     H80012   3.926   3.026  11.709  1.2075 -1.3723  2.1839
  580MOL0     H80013   4.017   2.952  11.574  0.4129  0.0531 -0.9867
  580MOL0     H80014   4.003   2.887  11.880 -0.2580  2.5424 -0.3753
  580MOL0     H80015   4.119   2.803  11.782 -0.0263 -0.8514  0.5087
  580MOL0     H80016   3.929   2.744  11.616 -2.3808 -1.7828 -0.7367
  580MOL0     H80017   3.817   2.811  11.718 -0.4273 -1.0140 -2.5274
  580MOL0     H80018   3.997   2.572  11.783  0.4161 -0.4025 -2.6231
  580MOL0     H80019   3.822   2.572  11.721 -0.7120  0.4875  0.0263
  580MOL0     H80020   4.741   2.919  11.551 -0.3896  0.6736  1.9488
  580MOL0     H80021   4.922   3.030  11.635 -4.3512 -2.2593  3.0946
  580MOL0     H80022   5.139   3.643  11.660 -0.5580 -0.0799 -0.6696
  580MOL0     H80023   5.350   3.763  11.596 -1.2464  0.7329  1.1188
  580MOL0     H80024   6.778   4.442  10.576  1.5136  2.4512 -1.5692
  580MOL0     H80025   6.830   4.557  10.375 -1.0117  1.1482 -0.2053
  580MOL0     H80026   6.993   4.594  10.091 -1.8141  1.6797 -3.6365
  580MOL0     H80027   7.236   4.677  10.046 -1.1396  1.2213  0.1081
  580MOL0     H80028   7.429   4.719   9.979 -2.6498 -1.6469  1.6485
  580MOL0     H80029   7.503   4.581  10.044  4.1105  0.7538  0.2609
  580MOL0     H80030   7.622   4.723   9.799  2.8438 -0.4628  0.2275
  580MOL0     H80031   7.638   4.547   9.814 -0.2066  0.0875 -1.2156
  580MOL0     H80032   7.701   4.755  10.026 -2.0373 -0.0748 -2.7129
  580MOL0     H80033   7.757   4.579  10.030 -1.6008 -0.6570  0.1477
  580MOL0     H80034   7.848   4.625   9.800 -1.4951  1.6740 -0.3435
  580MOL0     H80035   7.941   4.612   9.947 -2.3326 -3.0354  0.7968
  580MOL0     H80036   8.010   5.009   9.782 -3.2997  1.2929  0.8003
  580MOL0     H80037   7.283   4.346   9.795  3.1255  0.4370  1.5367
  580MOL0     H80038   7.010   4.157   9.904  0.3523  0.8994  0.1208
  580MOL0     H80039   6.974   4.233   9.745  0.9585 -2.2753 -1.3310
  580MOL0     H80040   7.133   4.181   9.774  0.2698  0.7453 -0.5603
  581MOL0     O80041  10.770   9.148   7.695 -0.1875  0.1133  0.1713
  581MOL0     C80042  10.682   9.075   7.677  1.5932  0.2140  0.3344
  581MOL0     O80043  10.564   9.075   7.750  0.5362  0.6431 -0.6742
  581MOL0     C80044  10.535   9.175   7.846  0.0351 -0.5506  0.9733
  581MOL0     C80045  10.455   9.135   7.952 -0.8955 -0.2173 -0.0079
  581MOL0     C80046  10.418   9.226   8.049 -0.2558 -1.4198  0.3613
  581MOL0     C80047  10.433   9.368   8.038 -0.4912  0.4824  0.7202
  581MOL0     O80048  10.374   9.446   8.129  0.4246 -0.4060 -0.0515
  581MOL0     C80049  10.457   9.564   8.149 -1.2081 -0.4861  0.1102
  581MOL0     C80050  10.397   9.629   8.275  0.6122 -0.0978 -0.7156
  581MOL0     C80051  10.486   9.732   8.341  0.1284  0.1877 -0.4154
  581MOL0     C80052  10.501   9.865   8.259  0.0906  0.2008 -0.5004
  581MOL0     C80053  10.572   9.978   8.333 -0.3307 -0.7047  0.9349
  581MOL0     C80054  10.561  10.110   8.246  0.6390 -0.3483  0.2079
  581MOL0     C80055  10.676  10.213   8.289  0.0630  0.0693  0.2078
  581MOL0     C80056  10.688  10.226   8.430  0.0667  0.0220 -0.2269
  581MOL0     N80057  10.751  10.355   8.457 -0.4124 -0.5389  0.1661
  581MOL0     C80058  10.696  10.482   8.436 -0.2641  0.4274  0.7176
  581MOL0     C80059  10.780  10.572   8.489  0.2527 -0.1113 -0.3066
  581MOL0     C80060  10.753  10.711   8.495 -0.3912  0.2120 -0.6536
  581MOL0     C80061  10.831  10.772   8.614  0.3488 -0.0705 -1.0406
  581MOL0     C80062  10.825  10.930   8.612 -0.3038 -0.8286  0.2639
  581MOL0     C80063  10.878  10.993   8.741  0.0893  0.4902 -0.0288
  581MOL0     O80064  10.851  11.136   8.729 -0.6347 -0.1932  0.3346
  581MOL0     C80065  10.891  11.232   8.823 -0.9939 -0.1706 -0.3318
  581MOL0     C80066  10.954  11.199   8.943 -0.2356 -0.3624 -0.4443
  581MOL0     C80067  10.999  11.300   9.034  0.2158 -0.5970  0.4397
  581MOL0     C80068  11.092  11.261   9.150  0.2012  0.9768  0.4211
  581MOL0     C80069  10.968  11.437   9.011 -0.5851 -0.1170  0.3445
  581MOL0     C80070  11.006  11.543   9.105  0.3835 -0.1528  0.1908
  581MOL0     O80071  10.969  11.669   9.063 -0.7095 -0.6108  0.3245
  581MOL0     C80072  10.998  11.786   9.126  0.2539  0.0237 -0.0859
  581MOL0     C80073  10.955  11.806   9.260  0.0214 -0.2273 -0.9769
  581MOL0     C80074  10.967  11.939   9.314 -0.2086  0.4826  0.1672
  581MOL0     C80075  11.017  12.046   9.236  0.4345  1.1878 -0.0849
  581MOL0     O80076  11.015  12.167   9.296 -0.4673  0.1707 -0.3987
  581MOL0     C80077  11.076  12.284   9.243  0.0792  0.2701 -0.0495
  581MOL0     C80078  11.025  12.406   9.328  0.7210 -0.3172 -0.0034
  581MOL0     C80079  11.057  12.548   9.266 -0.1658 -0.0819 -0.5369
  581MOL0     C80080  11.006  12.665   9.338 -0.6576  0.4719 -0.1541
  581MOL0     C80081  11.046  12.794   9.259  0.0754 -0.2016 -0.2671
  581MOL0     C80082  11.049  12.914   9.364  0.6720 -0.4421 -0.5153
  581MOL0     C80083  10.916  12.954   9.431  0.2852  1.3755 -0.2821
  581MOL0     C80084  10.922  13.096   9.478  0.3820  0.1333  0.3600
  581MOL0    Cl80085  10.907  13.218   9.339 -0.4877  0.1799 -0.2413
  581MOL0     C80086  11.081  12.015   9.122 -0.5334 -0.1202  0.2964
  581MOL0     C80087  11.073  11.882   9.065 -0.0333 -0.2682  0.1609
  581MOL0     O80088  11.062  11.519   9.212 -0.3988 -0.0197 -0.5130
  581MOL0     C80089  10.902  11.467   8.888  0.4096 -0.6583 -0.2760
  581MOL0     C80090  10.868  11.368   8.802 -0.4196  0.1795 -0.0877
  581MOL0     N80091  10.900  10.509   8.516 -0.7961  0.3627 -0.6000
  581MOL0     N80092  10.878  10.376   8.504 -0.2243 -0.3085  0.2487
  581MOL0     C80093  10.504   9.413   7.925 -0.3074  0.3964  0.8313
  581MOL0     C80094  10.548   9.320   7.828  0.1535  0.4133  0.9614
  581MOL0     C80095  10.692   8.978   7.565  0.3695 -0.3534 -0.9154
  581MOL0     C80096  10.570   8.935   7.506  0.5415 -0.2547  0.1997
  581MOL0     C80097  10.583   8.840   7.406 -0.9893  0.3991 -0.0538
  581MOL0     C80098  10.704   8.801   7.341  1.3267  0.2656  0.2998
  581MOL0     O80099  10.689   8.719   7.235  0.3318 -0.3573 -0.3176
  581MOL0     C80100  10.752   8.774   7.118  0.2494  0.0375  0.2568
  581MOL0     C80101  10.698   8.730   6.991 -1.5983 -0.6050  0.3893
  581MOL0     C80102  10.559   8.764   6.980  0.3946 -0.5333  0.3509
  581MOL0     C80103  10.516   8.764   6.826  0.1159  0.6636  0.7947
  581MOL0     C80104  10.551   8.659   6.740 -0.8123  0.0989 -0.3921
  581MOL0     C80105  10.582   8.574   6.657 -0.6718  0.1489  0.9201
  581MOL0     C80106  10.822   8.839   7.410  0.4995 -0.7573 -0.4943
  581MOL0     C80107  10.817   8.919   7.525 -0.4358 -0.1278  0.0971
  581MOL0     C80108  10.956   8.952   7.601  0.4414  0.9282 -0.6229
  581MOL0     H80109  10.433   9.029   7.960  2.4643 -0.8727  3.7224
  581MOL0     H80110  10.393   9.195   8.149  1.7970 -1.7990  0.7967
  581MOL0     H80111  10.439   9.642   8.075  0.5701  3.8711  3.7723
  581MOL0     H80112  10.564   9.540   8.142 -0.8265  1.4067 -4.8434
  581MOL0     H80113  10.302   9.676   8.246 -1.4571 -0.6639  4.1580
  581MOL0     H80114  10.357   9.555   8.345 -1.3392 -1.2059 -2.8459
  581MOL0     H80115  10.445   9.761   8.438  0.7962 -1.9223  0.5562
  581MOL0     H80116  10.585   9.685   8.347 -0.8350 -1.8403  0.3752
  581MOL0     H80117  10.555   9.837   8.168 -1.1343 -4.0210 -0.1326
  581MOL0     H80118  10.408   9.908   8.220  0.4163  0.9434 -0.4714
  581MOL0     H80119  10.674   9.939   8.339 -0.1531 -0.1119  2.1204
  581MOL0     H80120  10.549   9.991   8.440  2.1124  0.5673  1.3682
  581MOL0     H80121  10.563  10.097   8.138  1.4284 -0.9144  0.2743
  581MOL0     H80122  10.462  10.152   8.266 -0.7080 -2.7398 -1.0127
  581MOL0     H80123  10.661  10.307   8.235 -1.3096 -1.7711 -2.9215
  581MOL0     H80124  10.773  10.182   8.249  1.2076  1.1444  2.0198
  581MOL0     H80125  10.586  10.218   8.469 -1.9700  3.1262 -4.0812
  581MOL0     H80126  10.747  10.142   8.466 -2.0375 -2.3098 -1.8667
  581MOL0     H80127  10.596  10.504   8.401 -0.8865  0.3932  2.3563
  581MOL0     H80128  10.646  10.724   8.516 -0.5761 -0.3239 -1.2307
  581MOL0     H80129  10.774  10.752   8.396 -2.5700  0.2034 -1.1583
  581MOL0     H80130  10.800  10.720   8.705  3.5447 -1.7678 -0.7819
  581MOL0     H80131  10.936  10.746   8.600  0.0088 -3.1879  1.1836
  581MOL0     H80132  10.885  10.968   8.530  1.2871 -2.4347  0.6108
  581MOL0     H80133  10.720  10.956   8.598 -0.8632 -3.1925 -0.4057
  581MOL0     H80134  10.847  10.940   8.832 -0.9197 -1.6282 -1.5373
  581MOL0     H80135  10.986  10.975   8.743 -0.1894 -1.3092 -0.0222
  581MOL0     H80136  10.969  11.095   8.970 -0.2637 -0.3137 -0.2409
  581MOL0     H80137  11.133  11.160   9.137  0.3058  0.9647  0.8421
  581MOL0     H80138  11.044  11.271   9.247  0.4079  2.2091  0.4101
  581MOL0     H80139  11.181  11.323   9.142  0.7018  0.0641 -2.1647
  581MOL0     H80140  10.904  11.726   9.313  0.5971 -0.3313 -0.5572
  581MOL0     H80141  10.931  11.972   9.412  0.8688  0.3568  0.6186
  581MOL0     H80142  11.180  12.265   9.270  0.2406 -2.3339 -2.1335
  581MOL0     H80143  11.061  12.293   9.135  0.0960 -2.5671 -0.3501
  581MOL0     H80144  10.916  12.394   9.338  0.4991  0.3895 -1.3331
  581MOL0     H80145  11.077  12.403   9.423  0.6562  2.3202  0.1707
  581MOL0     H80146  11.016  12.551   9.164  2.3403 -2.0738 -1.7173
  581MOL0     H80147  11.166  12.554   9.262 -0.0589 -0.2186  1.3358
  581MOL0     H80148  11.051  12.669   9.438  0.7322  1.3094 -0.7927
  581MOL0     H80149  10.897  12.660   9.351 -1.1145  2.2674 -2.6382
  581MOL0     H80150  11.140  12.774   9.208  0.7885 -2.8094  1.8319
  581MOL0     H80151  10.970  12.839   9.195 -1.3919  0.9452  2.1039
  581MOL0     H80152  11.095  13.003   9.320  1.8067  1.0236  3.2035
  581MOL0     H80153  11.116  12.901   9.450 -1.0000  0.0015  0.9115
  581MOL0     H80154  10.896  12.885   9.514  0.7397  1.8079  0.2006
  581MOL0     H80155  10.835  12.955   9.358  0.4961 -0.7699 -0.5945
  581MOL0     H80156  11.019  13.117   9.526  0.4263 -0.7405  0.6760
  581MOL0     H80157  10.845  13.114   9.554 -0.4960  0.1564 -0.5232
  581MOL0     H80158  11.119  12.099   9.064 -3.5776  1.1404 -0.0385
  581MOL0     H80159  11.109  11.869   8.963  0.0245  0.8146  0.0283
  581MOL0     H80160  10.867  11.565   8.858 -0.6570 -0.7879  0.5068
  581MOL0     H80161  10.829  11.388   8.703 -0.2219 -0.4448 -0.2972
  581MOL0     H80162  10.515   9.518   7.896 -2.2357  0.3312 -0.3161
  581MOL0     H80163  10.576   9.356   7.730  1.0663 -0.5238  0.8652
  581MOL0     H80164  10.469   8.964   7.533 -0.8653 -3.8349 -0.6635
  581MOL0     H80165  10.497   8.807   7.348  1.5609 -0.5782 -3.5908
  581MOL0     H80166  10.748   8.883   7.114  1.6555  0.0962 -0.2182
  581MOL0     H80167  10.854   8.736   7.122  0.2526  0.0036 -0.1197
  581MOL0     H80168  10.714   8.622   6.989  1.3417 -0.2996 -2.9542
  581MOL0     H80169  10.744   8.772   6.901 -2.8780  0.3829  0.1620
  581MOL0     H80170  10.505   8.686   7.034  0.4046 -0.8589 -0.1052
  581MOL0     H80171  10.540   8.861   7.026  4.0354 -1.2199  3.9234
  581MOL0     H80172  10.549   8.856   6.777  1.1589 -0.8243 -1.4331
  581MOL0     H80173  10.408   8.761   6.841  0.5227 -2.7611  4.6652
  581MOL0     H80174  10.610   8.508   6.578 -2.1564  0.9180 -0.2996
  581MOL0     H80175  10.915   8.798   7.371  0.1716 -3.0696  0.9506
  581MOL0     H80176  10.926   8.944   7.705  0.1001 -2.4310 -0.8885
  581MOL0     H80177  11.040   8.882   7.592  2.2344  2.6271  1.5409
  581MOL0     H80178  10.991   9.050   7.567  1.7459  0.5072 -0.5545
  582MOL0     O80179   4.603  11.077   9.208  0.2322 -0.0666  0.3812
  582MOL0     C80180   4.557  10.964   9.195 -0.2615 -0.2752 -0.7563
  582MOL0     O80181   4.432  10.936   9.228  0.1382 -0.6913 -0.5416
  582MOL0     C80182   4.340  11.026   9.274 -0.7059 -0.5111 -0.1600
  582MOL0     C80183   4.252  10.995   9.391 -0.7166 -0.2815 -0.1599
  582MOL0     C80184   4.165  11.086   9.443  0.1047  1.0541 -0.0728
  582MOL0     C80185   4.149  11.213   9.394 -0.1620  0.0223 -0.2616
  582MOL0     O80186   4.068  11.311   9.446 -0.3466 -0.6774  0.2351
  582MOL0     C80187   4.012  11.291   9.581 -0.2412 -0.4604  0.8100
  582MOL0     C80188   3.948  11.428   9.610 -0.5114  0.3025 -1.1823
  582MOL0     C80189   4.040  11.550   9.624 -0.5702 -1.0614 -0.3655
  582MOL0     C80190   4.043  11.596   9.762 -0.1701 -0.6620 -0.1782
  582MOL0     C80191   4.145  11.710   9.782  1.0852  0.5877  0.2835
  582MOL0     C80192   4.139  11.753   9.930  0.2641  0.2865  0.0104
  582MOL0     C80193   3.990  11.797   9.980 -0.7449 -0.2838 -0.9586
  582MOL0     C80194   3.999  11.875  10.109  0.3761 -0.7481  0.1663
  582MOL0     N80195   4.072  12.001  10.090 -0.0169  0.3748  0.4892
  582MOL0     C80196   4.073  12.089   9.981  0.3930 -0.0893 -0.4913
  582MOL0     C80197   4.145  12.189  10.030  0.4166  0.5553 -0.2355
  582MOL0     C80198   4.169  12.318   9.957  0.2474 -1.2999 -0.4089
  582MOL0     C80199   4.316  12.356   9.954 -0.6419 -0.0980  0.4331
  582MOL0     C80200   4.325  12.478   9.865  0.0857 -1.0736 -0.1426
  582MOL0     C80201   4.249  12.610   9.904  0.2632 -0.7650 -0.1589
  582MOL0     O80202   4.310  12.705   9.817  0.4529  0.1563  0.3505
  582MOL0     C80203   4.403  12.795   9.864 -0.0335 -1.0596  0.3286
  582MOL0     C80204   4.387  12.931   9.828  0.0259 -0.6021  0.0686
  582MOL0     C80205   4.472  13.034   9.869 -1.1439 -0.8176  0.5277
  582MOL0     C80206   4.442  13.165   9.805  0.8617 -0.3320  0.4999
  582MOL0     C80207   4.577  13.002   9.955  0.5052  0.2077 -0.2244
  582MOL0     C80208   4.672  13.092  10.014 -0.4497 -0.2736 -0.3177
  582MOL0     O80209   4.750  13.039  10.111  0.2780 -1.1229  0.2975
  582MOL0     C80210   4.869  13.091  10.160 -0.3508 -0.2986  0.8544
  582MOL0     C80211   4.938  13.188  10.093 -0.2992  1.0461  0.0515
  582MOL0     C80212   5.040  13.248  10.161  0.7225 -0.3133 -0.5376
  582MOL0     C80213   5.083  13.211  10.286  0.1551  0.0851 -0.7608
  582MOL0     O80214   5.192  13.285  10.335 -0.1635  0.1500  0.0041
  582MOL0     C80215   5.226  13.252  10.466 -0.5606  0.3462 -0.6863
  582MOL0     C80216   5.344  13.343  10.505 -0.5387 -0.5102  1.3291
  582MOL0     C80217   5.372  13.361  10.653  0.1458  0.1418 -0.0290
  582MOL0     C80218   5.410  13.230  10.722  1.0497 -0.4151  0.1845
  582MOL0     C80219   5.350  13.226  10.856  0.0764  0.1730 -0.6392
  582MOL0     C80220   5.411  13.322  10.960 -0.4879 -0.1074  0.3273
  582MOL0     C80221   5.328  13.312  11.089 -0.4548  0.6837  0.2363
  582MOL0     C80222   5.378  13.183  11.167 -0.5707  0.0859  1.7173
  582MOL0    Cl80223   5.551  13.207  11.198 -0.1493  0.2593  0.1884
  582MOL0     C80224   5.028  13.104  10.356  0.2481 -0.0294  0.3023
  582MOL0     C80225   4.910  13.056  10.290  1.0294  0.2627 -1.0777
  582MOL0     O80226   4.691  13.205   9.967  0.0832 -0.3761 -0.4735
  582MOL0     C80227   4.585  12.864   9.998 -1.2191  0.2076  0.0091
  582MOL0     C80228   4.497  12.770   9.957 -0.0162  0.1063  0.4652
  582MOL0     N80229   4.184  12.171  10.160 -0.4425 -0.9132 -0.7202
  582MOL0     N80230   4.144  12.055  10.191  0.0857 -0.2770 -0.5992
  582MOL0     C80231   4.227  11.249   9.280 -0.1929 -0.6116 -0.4099
  582MOL0     C80232   4.331  11.162   9.239 -0.1504 -0.0490  0.0987
  582MOL0     C80233   4.654  10.848   9.182  0.3045 -0.8169 -0.4182
  582MOL0     C80234   4.598  10.723   9.206  0.7565 -0.3891 -1.1690
  582MOL0     C80235   4.680  10.612   9.207  0.0164 -0.2777  0.2354
  582MOL0     C80236   4.817  10.625   9.174  0.2126 -0.2861 -0.6232
  582MOL0     O80237   4.904  10.521   9.176  0.8791  0.0950 -0.5559
  582MOL0     C80238   4.863  10.385   9.186  0.6690 -0.6287  0.0185
  582MOL0     C80239   4.793  10.335   9.062 -0.4217 -1.4752  0.5531
  582MOL0     C80240   4.873  10.252   8.966 -0.8802  1.2563  0.0770
  582MOL0     C80241   4.810  10.257   8.823  0.1596 -0.0747  0.2756
  582MOL0     C80242   4.903  10.170   8.741 -0.0418 -0.8752  0.4676
  582MOL0     C80243   4.987  10.111   8.675  0.4066 -0.1698 -0.1769
  582MOL0     C80244   4.869  10.748   9.149 -0.9951  1.1357  0.5639
  582MOL0     C80245   4.792  10.857   9.139  0.7011  0.5004 -0.0405
  582MOL0     C80246   4.858  10.984   9.112 -0.1157  0.1009  0.1772
  582MOL0     H80247   4.251  10.895   9.432  3.5878  0.5214  2.6014
  582MOL0     H80248   4.104  11.042   9.520  0.2402  2.0703  0.6313
  582MOL0     H80249   4.087  11.276   9.659  0.7424  1.1197  0.2048
  582MOL0     H80250   3.930  11.218   9.581  1.0269 -1.9368  0.7056
  582MOL0     H80251   3.878  11.444   9.528 -0.7030 -0.7957 -1.2419
  582MOL0     H80252   3.888  11.421   9.701  2.0138 -1.1532  0.4778
  582MOL0     H80253   4.144  11.533   9.595  0.4315  2.7884  0.3684
  582MOL0     H80254   3.994  11.635   9.573  0.6996  1.4530  2.3116
  582MOL0     H80255   3.943  11.638   9.775  1.0402  2.8499 -1.0421
  582MOL0     H80256   4.072  11.518   9.832  1.0760 -0.9810 -1.0201
  582MOL0     H80257   4.112  11.798   9.724  2.5087 -1.0053 -3.2254
  582MOL0     H80258   4.249  11.687   9.758  1.7047  2.3662  1.0472
  582MOL0     H80259   4.182  11.675   9.994  0.0526  0.6619  0.6199
  582MOL0     H80260   4.217  11.829   9.929  0.2633  0.3202 -2.4463
  582MOL0     H80261   3.930  11.709  10.003 -0.8618  0.0562  0.0728
  582MOL0     H80262   3.945  11.869   9.910  0.5950 -0.5833 -2.1727
  582MOL0     H80263   3.897  11.896  10.144  1.0230  2.7756  0.2899
  582MOL0     H80264   4.051  11.831  10.194  0.4935 -0.7109  0.1134
  582MOL0     H80265   4.025  12.078   9.884  0.5023  2.1271 -0.8527
  582MOL0     H80266   4.104  12.398   9.994 -0.2543 -0.7458 -2.3901
  582MOL0     H80267   4.137  12.300   9.854  0.6515  1.6482 -1.1586
  582MOL0     H80268   4.347  12.370  10.058  2.2639 -0.0119 -0.3358
  582MOL0     H80269   4.366  12.269   9.910  1.0385  0.3402  1.3655
  582MOL0     H80270   4.430  12.502   9.846 -0.3493 -2.2451 -5.4447
  582MOL0     H80271   4.280  12.449   9.770 -3.2683  2.0365  0.3123
  582MOL0     H80272   4.142  12.597   9.887  0.3592  0.6153 -2.1428
  582MOL0     H80273   4.269  12.643  10.007 -1.5623 -1.1949  0.3817
  582MOL0     H80274   4.296  12.959   9.776 -1.3757 -1.4927  1.9416
  582MOL0     H80275   4.519  13.198   9.736 -1.0243  0.6320 -1.2284
  582MOL0     H80276   4.419  13.244   9.878 -2.2576  0.8623 -1.6005
  582MOL0     H80277   4.354  13.161   9.740  3.9218 -1.5012 -4.0256
  582MOL0     H80278   4.907  13.225   9.995  0.1531 -1.7293 -1.2411
  582MOL0     H80279   5.083  13.340  10.122  0.5953 -1.5031 -3.8347
  582MOL0     H80280   5.139  13.268  10.530  1.3306 -1.3782  2.5732
  582MOL0     H80281   5.260  13.148  10.477  0.3177  0.7419  0.5392
  582MOL0     H80282   5.438  13.316  10.457  0.8622  1.5302  2.7759
  582MOL0     H80283   5.349  13.438  10.452  0.7901 -1.9245 -1.2878
  582MOL0     H80284   5.279  13.400  10.695 -0.0259 -0.0492 -0.2271
  582MOL0     H80285   5.447  13.441  10.656  2.4581 -1.9444  2.1408
  582MOL0     H80286   5.519  13.230  10.725  1.1225  2.1844  0.0736
  582MOL0     H80287   5.389  13.145  10.656  1.2255  1.2768 -2.2016
  582MOL0     H80288   5.242  13.237  10.857 -0.6200 -4.1854  2.2298
  582MOL0     H80289   5.360  13.123  10.893 -0.8651  0.1194 -0.5291
  582MOL0     H80290   5.411  13.426  10.925 -2.8229 -0.6985 -1.6620
  582MOL0     H80291   5.515  13.294  10.978 -0.1666 -0.5641 -1.9142
  582MOL0     H80292   5.222  13.294  11.073  0.1582 -1.5113 -1.8386
  582MOL0     H80293   5.351  13.401  11.149  0.5557  1.3741 -1.0920
  582MOL0     H80294   5.347  13.090  11.120 -1.1889  1.5982 -1.0899
  582MOL0     H80295   5.323  13.185  11.261 -0.5603  1.7568  1.7321
  582MOL0     H80296   5.069  13.067  10.449 -1.5858  0.5885  1.4201
  582MOL0     H80297   4.856  12.988  10.355  0.3441  3.4473  1.9826
  582MOL0     H80298   4.657  12.825  10.070 -0.3488 -2.2169 -2.0253
  582MOL0     H80299   4.506  12.667   9.989 -0.9607 -0.8660 -2.1242
  582MOL0     H80300   4.239  11.351   9.246 -1.5529 -0.3704 -0.2240
  582MOL0     H80301   4.397  11.201   9.162 -1.9690  0.4746 -1.2460
  582MOL0     H80302   4.496  10.713   9.242  0.9249  0.2534 -0.4954
  582MOL0     H80303   4.645  10.514   9.239  1.3133 -0.8719 -0.0803
  582MOL0     H80304   4.961  10.337   9.196  1.8927  1.3637 -1.5240
  582MOL0     H80305   4.803  10.369   9.275  0.8962  0.5888  0.4145
  582MOL0     H80306   4.756  10.426   9.016  0.5433 -1.1039  0.4826
  582MOL0     H80307   4.708  10.272   9.090  2.0059 -3.8944  3.1716
  582MOL0     H80308   4.978  10.283   8.972  0.5468 -2.2815 -2.7346
  582MOL0     H80309   4.871  10.148   8.997  1.4578  1.1324 -0.0603
  582MOL0     H80310   4.789  10.359   8.788 -1.8160 -0.5207  0.0161
  582MOL0     H80311   4.713  10.207   8.835 -1.7330  2.9194 -1.3197
  582MOL0     H80312   5.068  10.065   8.621  0.4815 -0.4680  0.1886
  582MOL0     H80313   4.976  10.760   9.138 -0.1246 -2.7516  2.6813
  582MOL0     H80314   4.834  11.066   9.181 -0.5984 -0.8988  1.2203
  582MOL0     H80315   4.968  10.980   9.113 -0.1099 -0.9552 -1.5762
  582MOL0     H80316   4.836  11.013   9.008 -0.6306  1.1906  0.5685
  583MOL0     O80317   4.581   7.234   4.957 -0.0901 -0.2064 -0.3094
  583MOL0     C80318   4.611   7.195   4.845  0.3572 -0.6821  0.7574
  583MOL0     O80319   4.701   7.252   4.759  0.5420  0.3701  0.1470
  583MOL0     C80320   4.779   7.348   4.804 -0.4706  0.0280  0.1205
  583MOL0     C80321   4.741   7.480   4.771  0.3866  0.4611 -0.8076
  583MOL0     C80322   4.821   7.590   4.820 -0.6154 -0.5531 -1.0175
  583MOL0     C80323   4.929   7.571   4.904 -0.1905 -0.2177  0.1291
  583MOL0     O80324   5.011   7.676   4.942  0.0108  0.1936 -0.1277
  583MOL0     C80325   4.936   7.788   5.009  0.9338 -0.3150  0.0545
  583MOL0     C80326   5.005   7.844   5.134  0.0134 -0.0640  0.8386
  583MOL0     C80327   4.913   7.929   5.215  0.3898  0.4219 -0.7259
  583MOL0     C80328   4.863   8.047   5.139  0.3533  0.2184  0.6954
  583MOL0     C80329   4.743   8.126   5.213 -0.3760 -1.0282  0.1369
  583MOL0     C80330   4.776   8.178   5.348 -0.6321  0.5725  0.3374
  583MOL0     C80331   4.878   8.296   5.337  0.4126  0.1052  0.2904
  583MOL0     C80332   4.875   8.393   5.460 -1.1676 -0.0030  0.0544
  583MOL0     N80333   4.937   8.329   5.578  0.4396  0.4836  0.6822
  583MOL0     C80334   4.869   8.232   5.659  1.2894  0.4737  0.1825
  583MOL0     C80335   4.956   8.206   5.761 -0.2940 -0.5806  0.6087
  583MOL0     C80336   4.927   8.103   5.877 -0.2437  0.0505  0.4431
  583MOL0     C80337   4.844   7.974   5.831 -0.8557 -0.3287  0.6810
  583MOL0     C80338   4.882   7.900   5.706 -0.7368 -0.1907  0.0738
  583MOL0     C80339   4.791   7.794   5.688 -0.4238  0.2929  0.8252
  583MOL0     O80340   4.831   7.721   5.564 -0.2662  0.1434 -0.1440
  583MOL0     C80341   4.764   7.599   5.537 -0.5508  0.1221  0.6457
  583MOL0     C80342   4.823   7.538   5.435 -0.0035 -0.4660  0.0004
  583MOL0     C80343   4.788   7.407   5.406  0.5097  0.0662  0.4224
  583MOL0     C80344   4.867   7.339   5.300  0.0241 -0.3643  0.8214
  583MOL0     C80345   4.682   7.347   5.471 -0.7822 -0.3914 -0.4666
  583MOL0     C80346   4.637   7.210   5.469  0.4948 -0.5112 -0.1500
  583MOL0     O80347   4.495   7.175   5.480 -0.7722 -0.6058  0.5659
  583MOL0     C80348   4.471   7.048   5.509  0.0436  0.6946 -0.3119
  583MOL0     C80349   4.461   7.011   5.642 -0.5238  0.5884 -0.2533
  583MOL0     C80350   4.432   6.880   5.671  0.2105 -0.2824  0.1926
  583MOL0     C80351   4.422   6.784   5.570  0.0646  1.2358 -0.3655
  583MOL0     O80352   4.384   6.661   5.594  0.4341  0.1703 -0.0631
  583MOL0     C80353   4.243   6.632   5.594  0.4043 -0.2319 -0.3769
  583MOL0     C80354   4.196   6.602   5.450  1.1711  0.0042 -0.8896
  583MOL0     C80355   4.279   6.500   5.376 -0.1967  0.3249  0.0437
  583MOL0     C80356   4.202   6.442   5.256  0.5482 -0.0099 -1.1640
  583MOL0     C80357   4.292   6.387   5.147  0.0554 -0.4304  0.3197
  583MOL0     C80358   4.355   6.255   5.166 -0.5155  0.8033  0.4295
  583MOL0     C80359   4.261   6.130   5.161  0.1547  0.4045 -1.3356
  583MOL0     C80360   4.342   6.000   5.142 -0.3927  0.0620  0.8070
  583MOL0    Cl80361   4.403   5.952   5.303  0.0247 -0.2707  0.1826
  583MOL0     C80362   4.440   6.818   5.438  0.0781  0.0558 -0.3698
  583MOL0     C80363   4.448   6.954   5.413 -0.3812  0.3167 -0.9821
  583MOL0     O80364   4.728   7.127   5.468  0.9908 -0.5033  0.5006
  583MOL0     C80365   4.614   7.420   5.573 -0.3576  0.0805 -0.2028
  583MOL0     C80366   4.666   7.543   5.609 -0.5121 -0.8424 -0.2014
  583MOL0     N80367   5.065   8.293   5.739  0.4885  0.2286  0.0651
  583MOL0     N80368   5.055   8.352   5.629 -0.0329  0.4013 -0.1680
  583MOL0     C80369   4.963   7.439   4.936  0.2586  0.4908 -0.0816
  583MOL0     C80370   4.895   7.326   4.880 -0.2436 -0.5944 -0.5880
  583MOL0     C80371   4.534   7.093   4.774 -0.3597  0.3585  0.4404
  583MOL0     C80372   4.558   7.062   4.637 -0.5072 -0.1805  0.8289
  583MOL0     C80373   4.475   6.965   4.568 -0.6611  0.4566 -0.6321
  583MOL0     C80374   4.372   6.901   4.625 -0.0530  0.2187 -0.6034
  583MOL0     O80375   4.297   6.813   4.561  0.1913  0.3592  0.4381
  583MOL0     C80376   4.219   6.878   4.461  0.6322  0.1267  0.2399
  583MOL0     C80377   4.285   6.878   4.326 -0.0562 -0.5792  0.4854
  583MOL0     C80378   4.201   6.891   4.201  0.3193  0.5227  1.1870
  583MOL0     C80379   4.094   6.773   4.188 -0.2116 -0.8851  0.4620
  583MOL0     C80380   3.989   6.806   4.096  0.2068 -0.2962  1.0007
  583MOL0     C80381   3.891   6.844   4.028  0.1309 -0.5760 -0.3650
  583MOL0     C80382   4.350   6.932   4.760  0.6378  0.3981  0.2625
  583MOL0     C80383   4.425   7.026   4.833  1.6867  0.1114  0.6105
  583MOL0     C80384   4.396   7.040   4.987 -1.2926 -0.1709  0.5963
  583MOL0     H80385   4.642   7.489   4.727  0.2951 -0.4002 -0.7991
  583MOL0     H80386   4.815   7.696   4.795  0.9838 -0.5597 -1.5166
  583MOL0     H80387   4.837   7.751   5.036  2.0916 -2.5485  1.6260
  583MOL0     H80388   4.912   7.864   4.934  2.3857 -0.5081 -0.6439
  583MOL0     H80389   5.025   7.754   5.194  1.5620 -0.6546 -0.4924
  583MOL0     H80390   5.102   7.882   5.100 -0.4893 -1.1283 -2.0615
  583MOL0     H80391   4.835   7.860   5.249  1.1993 -0.9648 -1.6012
  583MOL0     H80392   4.961   7.968   5.305 -1.5034 -2.0597  1.5552
  583MOL0     H80393   4.943   8.116   5.113  0.6830 -0.8951 -1.5061
  583MOL0     H80394   4.829   8.010   5.042  0.4711  2.5392 -0.2834
  583MOL0     H80395   4.670   8.046   5.229 -1.1299 -0.7059 -1.4734
  583MOL0     H80396   4.711   8.207   5.147  2.2714 -0.3549 -0.4332
  583MOL0     H80397   4.687   8.213   5.401  0.0267 -1.5869  3.0991
  583MOL0     H80398   4.824   8.095   5.400 -1.7624 -1.1343 -1.2049
  583MOL0     H80399   4.857   8.357   5.250  0.0359 -0.6288 -0.1448
  583MOL0     H80400   4.980   8.260   5.317  0.0468 -0.2945 -0.9421
  583MOL0     H80401   4.918   8.491   5.438 -4.4529  1.6811  0.5353
  583MOL0     H80402   4.771   8.410   5.489 -1.3309 -0.0337 -0.4948
  583MOL0     H80403   4.768   8.193   5.665  1.4191 -0.0625 -0.8559
  583MOL0     H80404   4.885   8.167   5.956 -0.8258  3.5425 -2.4376
  583MOL0     H80405   5.027   8.067   5.903  1.8073  3.6069 -1.7338
  583MOL0     H80406   4.858   7.911   5.920  4.1374  2.0654  1.9456
  583MOL0     H80407   4.739   8.006   5.823 -1.0700  0.1103  3.7660
  583MOL0     H80408   4.892   7.956   5.613 -0.5641 -3.0507 -1.7361
  583MOL0     H80409   4.978   7.851   5.725 -0.7990 -0.3012  0.1087
  583MOL0     H80410   4.793   7.730   5.776  0.7898 -0.6418  0.1395
  583MOL0     H80411   4.692   7.840   5.678 -0.5202  0.0010  0.4246
  583MOL0     H80412   4.910   7.583   5.388  0.0595 -0.8829 -0.2897
  583MOL0     H80413   4.897   7.413   5.225 -0.2414  0.0725  1.1426
  583MOL0     H80414   4.802   7.264   5.253 -1.9988  0.5519  2.0065
  583MOL0     H80415   4.954   7.286   5.340  0.6582 -0.5762 -0.7708
  583MOL0     H80416   4.464   7.081   5.725  1.0598  1.8940 -1.3247
  583MOL0     H80417   4.414   6.849   5.773  2.6492 -1.6213  0.2942
  583MOL0     H80418   4.223   6.545   5.657  0.9305  0.1130  0.2778
  583MOL0     H80419   4.190   6.711   5.648 -0.6228 -0.9321 -0.3204
  583MOL0     H80420   4.092   6.568   5.460  1.2058  0.0163 -0.4615
  583MOL0     H80421   4.191   6.693   5.390  0.1788  0.3241 -0.3470
  583MOL0     H80422   4.308   6.418   5.443 -0.2329  0.5108  0.2883
  583MOL0     H80423   4.377   6.547   5.361  1.7412 -2.1819  3.2724
  583MOL0     H80424   4.144   6.529   5.223  2.2064  1.3918 -0.5355
  583MOL0     H80425   4.127   6.368   5.285  2.6489 -2.6670 -2.0793
  583MOL0     H80426   4.241   6.379   5.050  1.8465  1.2117 -0.8417
  583MOL0     H80427   4.379   6.453   5.140 -1.4282  1.4838 -1.1679
  583MOL0     H80428   4.392   6.254   5.269 -1.3057 -1.4034  0.7420
  583MOL0     H80429   4.432   6.231   5.092 -2.4644 -0.2446 -1.3582
  583MOL0     H80430   4.190   6.137   5.078  2.0555  5.6823 -2.9560
  583MOL0     H80431   4.194   6.122   5.247  1.0909 -1.1347 -0.7053
  583MOL0     H80432   4.424   6.006   5.070 -1.5791  0.1491 -0.5711
  583MOL0     H80433   4.280   5.923   5.097  2.3714 -1.4165 -0.7585
  583MOL0     H80434   4.442   6.751   5.352 -0.5444  1.0748 -1.1986
  583MOL0     H80435   4.474   6.995   5.316  3.5399 -0.6506 -0.4979
  583MOL0     H80436   4.530   7.369   5.621 -0.2916 -0.5970 -0.7871
  583MOL0     H80437   4.624   7.596   5.694 -0.4551  0.5855 -1.0458
  583MOL0     H80438   5.048   7.397   4.990  0.5526  2.2782  0.9063
  583MOL0     H80439   4.929   7.228   4.910  3.6857  0.3346 -1.5139
  583MOL0     H80440   4.646   7.106   4.591  0.9333 -3.2307  0.3908
  583MOL0     H80441   4.515   6.943   4.470  3.4895 -1.3867  1.2239
  583MOL0     H80442   4.123   6.826   4.451  0.2591  0.1988  2.8472
  583MOL0     H80443   4.188   6.979   4.488 -2.1633 -0.3802 -0.7398
  583MOL0     H80444   4.354   6.794   4.314  1.4672  0.6161  0.6137
  583MOL0     H80445   4.359   6.958   4.337  2.9715 -3.0454 -0.4443
  583MOL0     H80446   4.142   6.982   4.216 -0.1813  0.2124  1.1308
  583MOL0     H80447   4.267   6.916   4.118  2.1794 -0.5842  2.2727
  583MOL0     H80448   4.045   6.751   4.283  0.4872  0.0877  1.0671
  583MOL0     H80449   4.144   6.679   4.162  1.2382 -0.1410  0.4524
  583MOL0     H80450   3.815   6.879   3.961  0.2756  3.0877  1.1785
  583MOL0     H80451   4.272   6.876   4.810  1.3070  0.5994  1.5525
  583MOL0     H80452   4.494   7.022   5.032  0.6759  0.1751 -3.1671
  583MOL0     H80453   4.364   7.143   5.006  3.3138  1.8256 -1.0980
  583MOL0     H80454   4.321   6.966   5.016  0.0761 -0.5263  3.5321
  584MOL0     O80455   2.190   4.380   8.666 -0.2834  0.5351  0.0218
  584MOL0     C80456   2.137   4.496   8.665 -0.3100  0.0589 -0.8130
  584MOL0     O80457   2.184   4.595   8.753  1.2758 -0.0117  0.1776
  584MOL0     C80458   2.299   4.582   8.824 -0.8284  0.2648 -0.9467
  584MOL0     C80459   2.295   4.655   8.948  0.4857  0.4395 -0.5070
  584MOL0     C80460   2.412   4.663   9.028  0.4501 -0.1129 -0.8583
  584MOL0     C80461   2.531   4.603   8.979  0.2273  0.5798 -0.2590
  584MOL0     O80462   2.649   4.620   9.046 -0.3264 -0.0175 -0.6286
  584MOL0     C80463   2.752   4.716   9.003 -0.1223  0.5428 -0.0639
  584MOL0     C80464   2.866   4.724   9.104  0.1100 -0.2278  0.3715
  584MOL0     C80465   2.836   4.762   9.253 -0.1855 -0.5098 -0.8283
  584MOL0     C80466   2.973   4.784   9.330  0.1568 -0.3735  1.3001
  584MOL0     C80467   2.958   4.837   9.473 -0.2286 -0.6985  0.2778
  584MOL0     C80468   3.074   4.827   9.570  0.6043  0.1501  0.9349
  584MOL0     C80469   3.060   4.708   9.666 -0.4611  0.2763  1.0568
  584MOL0     C80470   3.156   4.717   9.770  0.1338 -0.3649 -0.0098
  584MOL0     N80471   3.138   4.596   9.857  0.2438  0.0254  0.7279
  584MOL0     C80472   3.068   4.593   9.974 -0.6232 -1.0370 -0.9920
  584MOL0     C80473   3.067   4.465  10.022 -0.1030  0.6322 -0.8298
  584MOL0     C80474   3.016   4.418  10.156  0.3623  0.1048  0.4212
  584MOL0     C80475   3.092   4.464  10.274 -0.7133  0.8333 -0.7680
  584MOL0     C80476   3.016   4.467  10.406 -0.6460  0.2140 -0.2678
  584MOL0     C80477   3.096   4.515  10.524  0.1370 -0.9759  0.2193
  584MOL0     O80478   3.172   4.630  10.484  0.6010 -0.2654  0.7413
  584MOL0     C80479   3.231   4.714  10.574  0.2694  0.2905 -0.5836
  584MOL0     C80480   3.368   4.737  10.568  0.1743 -0.1525 -0.5463
  584MOL0     C80481   3.436   4.808  10.670  0.4133  0.2715  0.5496
  584MOL0     C80482   3.590   4.803  10.655 -0.3391 -0.5411  0.6125
  584MOL0     C80483   3.366   4.861  10.785 -0.1978 -0.9836 -0.2013
  584MOL0     C80484   3.421   4.937  10.902  0.2284 -1.7676  0.5663
  584MOL0     O80485   3.327   4.991  10.985 -0.5239  0.5321 -0.7951
  584MOL0     C80486   3.386   5.061  11.091  0.0325 -0.2538 -0.6391
  584MOL0     C80487   3.415   4.986  11.203 -0.7983 -0.0337  0.2947
  584MOL0     C80488   3.460   5.040  11.320  0.3313 -0.6025  0.2831
  584MOL0     C80489   3.472   5.183  11.327 -0.2806 -0.0674 -0.0587
  584MOL0     O80490   3.515   5.244  11.444  0.7103  0.0957  0.4509
  584MOL0     C80491   3.428   5.210  11.562 -1.4172  0.5213  0.7855
  584MOL0     C80492   3.464   5.283  11.683  1.0326 -0.8093  0.2149
  584MOL0     C80493   3.434   5.435  11.663  0.8456 -0.7614  0.0139
  584MOL0     C80494   3.550   5.511  11.572  1.1904  0.8652  0.3120
  584MOL0     C80495   3.542   5.653  11.616  0.2420  0.3323 -0.4675
  584MOL0     C80496   3.640   5.735  11.546 -0.0046 -0.1088  0.1868
  584MOL0     C80497   3.627   5.885  11.573  0.4680  0.6238 -0.9394
  584MOL0     C80498   3.697   5.989  11.485  0.3315  0.5682 -0.0803
  584MOL0    Cl80499   3.843   5.928  11.405  0.0154  0.0781  0.2270
  584MOL0     C80500   3.433   5.262  11.217 -0.6413  0.2852 -0.3796
  584MOL0     C80501   3.395   5.206  11.097 -0.2646  0.2998 -0.3875
  584MOL0     O80502   3.546   4.948  10.911  0.6733  0.2919 -0.1635
  584MOL0     C80503   3.222   4.839  10.785 -1.2942  0.3474  0.1863
  584MOL0     C80504   3.167   4.753  10.688 -0.2557 -0.3288 -0.1843
  584MOL0     N80505   3.136   4.402   9.917 -0.1022 -0.8526 -0.8220
  584MOL0     N80506   3.175   4.470   9.824 -0.8561 -0.2451  0.3605
  584MOL0     C80507   2.534   4.520   8.867 -0.3782 -0.0870  0.5672
  584MOL0     C80508   2.424   4.520   8.779 -0.1231 -0.9284  0.4212
  584MOL0     C80509   2.028   4.527   8.574 -0.3388 -0.4289 -0.4824
  584MOL0     C80510   2.015   4.438   8.466 -0.1799 -0.4052  0.3698
  584MOL0     C80511   1.910   4.454   8.369 -0.3323  1.5606  0.3701
  584MOL0     C80512   1.813   4.549   8.395 -0.2312  0.3025 -0.1103
  584MOL0     O80513   1.713   4.548   8.302 -0.1343 -0.1457 -0.2267
  584MOL0     C80514   1.607   4.644   8.312 -0.1424  0.4302 -1.0055
  584MOL0     C80515   1.493   4.613   8.213 -1.0313  0.4011 -0.0215
  584MOL0     C80516   1.553   4.559   8.076 -0.3468 -0.2468  0.3072
  584MOL0     C80517   1.449   4.537   7.976 -0.0151  0.0330 -0.6369
  584MOL0     C80518   1.491   4.475   7.851 -0.0415  0.6344 -0.1584
  584MOL0     C80519   1.520   4.434   7.737 -0.2211 -1.1110  0.7629
  584MOL0     C80520   1.819   4.636   8.508  0.5364 -0.1590 -0.0895
  584MOL0     C80521   1.931   4.625   8.592 -0.5916 -0.4319 -0.3942
  584MOL0     C80522   1.917   4.721   8.706  0.3076 -0.0882 -0.0989
  584MOL0     H80523   2.204   4.710   8.970 -0.7147 -1.9728  0.9633
  584MOL0     H80524   2.414   4.720   9.120 -0.7601 -4.5145  2.2074
  584MOL0     H80525   2.705   4.811   8.978  2.2375  2.3148  1.8353
  584MOL0     H80526   2.791   4.679   8.907 -0.7039  1.1851 -0.5555
  584MOL0     H80527   2.912   4.626   9.118 -1.0594 -0.5046  2.7547
  584MOL0     H80528   2.944   4.791   9.067  5.0755 -5.4934 -0.1442
  584MOL0     H80529   2.779   4.855   9.248  0.8346  0.0628 -2.6327
  584MOL0     H80530   2.779   4.681   9.299  1.1464 -1.2252 -0.3715
  584MOL0     H80531   3.027   4.689   9.326  2.8001  1.0895 -1.5493
  584MOL0     H80532   3.043   4.839   9.267 -1.0141 -1.1350 -0.7711
  584MOL0     H80533   2.870   4.788   9.516 -1.1303 -1.7262 -2.4981
  584MOL0     H80534   2.925   4.940   9.458 -0.3611 -1.1790 -4.7111
  584MOL0     H80535   3.159   4.803   9.506 -2.4524 -5.6540 -1.8065
  584MOL0     H80536   3.071   4.923   9.621 -0.4150 -0.1660  1.5125
  584MOL0     H80537   3.075   4.615   9.610 -3.3528  0.2114  0.2372
  584MOL0     H80538   2.957   4.695   9.701  0.7618 -4.8170  3.7646
  584MOL0     H80539   3.259   4.722   9.735 -0.4179  4.1065 -1.5382
  584MOL0     H80540   3.135   4.810   9.823  0.7909 -1.3349  2.0478
  584MOL0     H80541   3.028   4.676  10.031  1.4414 -0.2487 -0.6048
  584MOL0     H80542   3.022   4.309  10.150  1.9610  0.2344 -2.7337
  584MOL0     H80543   2.917   4.463  10.166  1.5801  3.4416 -0.9889
  584MOL0     H80544   3.186   4.410  10.288 -0.8494  0.9782  0.9545
  584MOL0     H80545   3.124   4.568  10.267 -0.2569  0.7570 -0.0017
  584MOL0     H80546   2.936   4.536  10.380  0.5676  1.5553 -0.5728
  584MOL0     H80547   2.980   4.368  10.434  1.0557 -0.0803  1.0510
  584MOL0     H80548   3.026   4.538  10.605 -0.6411 -1.0588 -0.4140
  584MOL0     H80549   3.176   4.452  10.563  0.5773 -0.0418  0.8856
  584MOL0     H80550   3.425   4.687  10.490 -0.0385 -1.0791 -0.1218
  584MOL0     H80551   3.625   4.904  10.629 -1.4126  0.4072  2.6035
  584MOL0     H80552   3.623   4.732  10.579  5.1607 -0.3479  2.4321
  584MOL0     H80553   3.633   4.760  10.746  3.3864  0.3162 -0.5999
  584MOL0     H80554   3.402   4.879  11.192  1.8982 -0.3225 -0.7653
  584MOL0     H80555   3.482   4.981  11.409 -0.0422  2.3979  2.5100
  584MOL0     H80556   3.319   5.214  11.547 -1.5221  0.4662  1.4842
  584MOL0     H80557   3.446   5.106  11.590 -3.9780  0.6860  3.5345
  584MOL0     H80558   3.403   5.239  11.762 -0.1657 -2.1245 -1.3600
  584MOL0     H80559   3.570   5.280  11.708  1.3502  3.6536  0.2505
  584MOL0     H80560   3.441   5.479  11.762 -2.5961 -2.6278  1.2469
  584MOL0     H80561   3.337   5.461  11.619  0.5762 -0.6737  0.6533
  584MOL0     H80562   3.549   5.488  11.466 -0.0168 -1.8397  0.8207
  584MOL0     H80563   3.646   5.471  11.604  1.4235 -0.0255 -1.3994
  584MOL0     H80564   3.440   5.691  11.608 -0.4310 -1.1102  0.7934
  584MOL0     H80565   3.578   5.654  11.719  2.5930 -4.5011 -0.9303
  584MOL0     H80566   3.625   5.712  11.441  1.3028 -0.7724  0.1189
  584MOL0     H80567   3.743   5.708  11.573 -0.4926 -1.1066  1.1659
  584MOL0     H80568   3.669   5.892  11.674  0.2337 -1.7663 -0.6057
  584MOL0     H80569   3.521   5.909  11.578  0.7564  1.6891  2.0030
  584MOL0     H80570   3.714   6.070  11.557  1.7411 -1.7268  2.3516
  584MOL0     H80571   3.624   6.016  11.409  0.7815 -2.8425 -1.9194
  584MOL0     H80572   3.459   5.367  11.229 -0.0366  0.2816 -1.5067
  584MOL0     H80573   3.362   5.262  11.010  0.1433  1.5396  0.2398
  584MOL0     H80574   3.155   4.883  10.858  0.9687  1.4082  1.7383
  584MOL0     H80575   3.062   4.729  10.694 -0.8523  1.9526 -0.4625
  584MOL0     H80576   2.628   4.471   8.845 -2.4009 -4.8366  1.3427
  584MOL0     H80577   2.418   4.465   8.686  0.2128 -0.5930  0.1998
  584MOL0     H80578   2.085   4.357   8.448 -0.2486 -0.0452 -1.6612
  584MOL0     H80579   1.917   4.390   8.282  1.8173  2.9916 -0.5960
  584MOL0     H80580   1.582   4.674   8.414  4.3638 -0.9147  0.7229
  584MOL0     H80581   1.655   4.734   8.271  0.6742 -0.3138 -1.7366
  584MOL0     H80582   1.446   4.710   8.197 -0.9881  0.5553  0.7578
  584MOL0     H80583   1.424   4.544   8.262 -0.3433  1.2741  2.2968
  584MOL0     H80584   1.631   4.632   8.051  1.0152 -2.1568 -1.3467
  584MOL0     H80585   1.593   4.459   8.088  1.2282  0.3762  0.4161
  584MOL0     H80586   1.398   4.631   7.951  1.8396  0.6198 -2.5200
  584MOL0     H80587   1.373   4.478   8.028  0.0924  1.2291  0.9452
  584MOL0     H80588   1.534   4.432   7.631 -0.9362  3.5434  0.3411
  584MOL0     H80589   1.739   4.708   8.523 -3.0110 -3.6528 -0.5326
  584MOL0     H80590   1.821   4.773   8.709 -0.3767 -1.3799  0.9608
  584MOL0     H80591   1.920   4.661   8.798  0.8718 -0.7592 -0.5438
  584MOL0     H80592   1.991   4.800   8.687 -0.3019 -0.1160 -2.9478
  585MOL0     O80593   1.743  11.191   7.225  0.3273  0.2603  0.5279
  585MOL0     C80594   1.623  11.210   7.230 -0.0172 -0.6524  0.4708
  585MOL0     O80595   1.561  11.317   7.279  0.6224  0.5238  0.4540
  585MOL0     C80596   1.629  11.426   7.339 -0.3972  0.0347  0.5584
  585MOL0     C80597   1.554  11.545   7.346 -0.1481 -1.0731  0.3035
  585MOL0     C80598   1.611  11.668   7.392 -0.2060 -0.3257  0.0980
  585MOL0     C80599   1.748  11.675   7.432  0.2921  1.2223  0.0654
  585MOL0     O80600   1.805  11.791   7.479  0.5827  0.0970 -0.0524
  585MOL0     C80601   1.899  11.778   7.595  0.0126 -0.4555  0.1034
  585MOL0     C80602   1.940  11.925   7.627  0.2596  0.5696  0.2418
  585MOL0     C80603   2.074  11.960   7.556  0.1207 -0.1195  0.2716
  585MOL0     C80604   2.041  11.994   7.407 -0.3813 -0.6013  0.6015
  585MOL0     C80605   2.170  12.065   7.351 -0.8655  0.6044 -0.4911
  585MOL0     C80606   2.176  12.059   7.198  0.3609  0.1998  0.8844
  585MOL0     C80607   2.294  12.131   7.127  0.2063  0.0131 -0.5712
  585MOL0     C80608   2.257  12.271   7.089  0.6788  0.0523  0.0029
  585MOL0     N80609   2.351  12.333   7.002  0.1986 -0.2341 -0.9347
  585MOL0     C80610   2.332  12.388   6.882 -0.4632 -0.1584  0.1902
  585MOL0     C80611   2.454  12.441   6.846  0.0553 -0.0943  0.0124
  585MOL0     C80612   2.488  12.513   6.725  1.2622  0.2692 -0.6673
  585MOL0     C80613   2.543  12.415   6.617  0.9669 -0.5851 -0.7004
  585MOL0     C80614   2.448  12.294   6.594 -0.9265  0.6314  0.7862
  585MOL0     C80615   2.488  12.213   6.462  0.3767 -0.3465 -0.9928
  585MOL0     O80616   2.626  12.195   6.452 -0.0186  1.3201 -0.4383
  585MOL0     C80617   2.670  12.100   6.366 -0.1887 -0.3170 -0.5930
  585MOL0     C80618   2.807  12.104   6.350  0.8052  0.3137  0.0185
  585MOL0     C80619   2.883  11.997   6.302 -0.1517 -0.3185  0.7634
  585MOL0     C80620   3.035  12.011   6.306  0.2597  0.4132  0.3328
  585MOL0     C80621   2.818  11.891   6.241  0.3780 -0.7251  0.1955
  585MOL0     C80622   2.878  11.771   6.167  0.2465  0.9331 -0.7031
  585MOL0     O80623   2.809  11.698   6.081  0.6188 -0.3343  0.0661
  585MOL0     C80624   2.870  11.591   6.010  0.1234 -0.2890 -0.0448
  585MOL0     C80625   2.820  11.464   6.027  0.2373  0.7179 -0.1664
  585MOL0     C80626   2.865  11.358   5.951 -0.2405 -0.4375 -0.4921
  585MOL0     C80627   2.975  11.370   5.869 -1.4219 -1.3534  0.4783
  585MOL0     O80628   3.019  11.245   5.821  0.7716 -0.5129 -0.5464
  585MOL0     C80629   3.136  11.232   5.743 -0.3515 -0.7089 -0.0468
  585MOL0     C80630   3.258  11.231   5.848 -0.3673 -0.6602  0.0749
  585MOL0     C80631   3.394  11.263   5.787  0.5372  0.0473 -0.2863
  585MOL0     C80632   3.514  11.228   5.881 -0.4378 -0.2882  0.5143
  585MOL0     C80633   3.658  11.269   5.824  0.3928  0.1224 -0.3130
  585MOL0     C80634   3.700  11.191   5.697 -0.6836 -0.1757 -0.6956
  585MOL0     C80635   3.671  11.266   5.567 -0.0813  0.8760 -0.7983
  585MOL0     C80636   3.768  11.236   5.453  0.1199  0.9004  0.6200
  585MOL0    Cl80637   3.684  11.114   5.347  0.6847  0.1564  0.3493
  585MOL0     C80638   3.044  11.498   5.858  0.6906 -1.9139 -0.4996
  585MOL0     C80639   2.981  11.604   5.936 -0.7159  0.2398  0.3198
  585MOL0     O80640   2.996  11.747   6.196 -0.1861  0.0572 -0.3416
  585MOL0     C80641   2.677  11.892   6.234 -0.1722 -0.0749 -0.3387
  585MOL0     C80642   2.600  11.995   6.294 -0.1412  0.5804 -1.1586
  585MOL0     N80643   2.547  12.412   6.947 -0.9002 -0.0280 -0.5268
  585MOL0     N80644   2.479  12.358   7.043  0.4539 -0.1656 -0.3705
  585MOL0     C80645   1.818  11.547   7.434 -0.3175  0.2567  0.8236
  585MOL0     C80646   1.760  11.426   7.399 -0.3228 -0.2609 -0.3380
  585MOL0     C80647   1.550  11.120   7.142  0.1103 -0.0203 -0.5189
  585MOL0     C80648   1.610  10.998   7.112 -0.4242 -0.3775  1.0799
  585MOL0     C80649   1.547  10.902   7.027  0.5138 -0.1955 -0.4995
  585MOL0     C80650   1.420  10.930   6.977  0.2520  0.6632 -0.3101
  585MOL0     O80651   1.370  10.839   6.890 -0.0914 -0.4175 -0.1754
  585MOL0     C80652   1.230  10.827   6.854  0.9492 -0.0943 -0.6302
  585MOL0     C80653   1.210  10.684   6.808  0.4954  0.7724 -0.3812
  585MOL0     C80654   1.278  10.656   6.671  1.1206  0.4418 -0.6532
  585MOL0     C80655   1.185  10.670   6.556 -0.2137 -1.0232  0.1331
  585MOL0     C80656   1.262  10.631   6.437 -0.5440  0.7590  0.5411
  585MOL0     C80657   1.329  10.591   6.345 -0.1458  0.8525  0.3173
  585MOL0     C80658   1.358  11.041   7.026  0.4976 -0.4432 -0.5986
  585MOL0     C80659   1.416  11.137   7.112 -0.2317  0.0472  1.7962
  585MOL0     C80660   1.334  11.248   7.161  0.6950 -0.1059 -0.1593
  585MOL0     H80661   1.449  11.543   7.320 -0.2197 -2.3891  0.6111
  585MOL0     H80662   1.554  11.761   7.394 -0.6023 -0.4865  3.9268
  585MOL0     H80663   1.979  11.709   7.568 -0.0962  0.3166 -2.3928
  585MOL0     H80664   1.839  11.742   7.679 -0.6447  1.7863  0.6753
  585MOL0     H80665   1.859  11.991   7.594 -0.6997 -0.2457  0.8749
  585MOL0     H80666   1.955  11.943   7.734  3.6290  1.7349 -0.3214
  585MOL0     H80667   2.119  12.047   7.604  1.3157 -0.5362 -0.0486
  585MOL0     H80668   2.146  11.877   7.559  2.0699  1.5184  2.5301
  585MOL0     H80669   2.009  11.904   7.354  2.1507 -0.7439 -0.8270
  585MOL0     H80670   1.965  12.072   7.395 -0.3463 -0.6348  0.1554
  585MOL0     H80671   2.252  12.002   7.384 -0.3571  0.6556 -1.6143
  585MOL0     H80672   2.181  12.162   7.401 -1.2346  0.9664 -1.0988
  585MOL0     H80673   2.190  11.952   7.179  1.3604  0.3366  0.8141
  585MOL0     H80674   2.082  12.084   7.148 -0.5935  0.8617  2.9115
  585MOL0     H80675   2.309  12.082   7.030 -1.1094 -2.0571  0.2209
  585MOL0     H80676   2.380  12.133   7.195  0.2099  0.0716 -0.5782
  585MOL0     H80677   2.156  12.265   7.048 -0.4796  1.7013  2.4166
  585MOL0     H80678   2.243  12.340   7.173 -1.8524  1.0870 -1.1594
  585MOL0     H80679   2.245  12.378   6.817 -0.1586 -2.4654  0.0480
  585MOL0     H80680   2.555  12.598   6.743  4.6540 -2.6425  2.0605
  585MOL0     H80681   2.395  12.557   6.687 -0.2238 -2.8295 -0.9779
  585MOL0     H80682   2.574  12.472   6.529  1.8530  1.2648  0.7402
  585MOL0     H80683   2.634  12.370   6.658  1.0462 -0.4787 -0.7606
  585MOL0     H80684   2.462  12.213   6.666  4.2668 -2.0296 -2.5502
  585MOL0     H80685   2.342  12.320   6.591 -1.1048 -0.1774 -0.6385
  585MOL0     H80686   2.450  12.111   6.474  1.4419 -0.6449 -0.0820
  585MOL0     H80687   2.442  12.258   6.373 -1.8037 -0.4894  0.0114
  585MOL0     H80688   2.856  12.192   6.389 -0.8167  2.0833 -1.7075
  585MOL0     H80689   3.078  11.937   6.374  0.5792  2.3480  2.3539
  585MOL0     H80690   3.069  12.102   6.355 -1.0158  1.0983 -0.0168
  585MOL0     H80691   3.081  11.990   6.209 -1.5588 -5.1000  0.2673
  585MOL0     H80692   2.750  11.462   6.110 -0.6143 -1.7410 -0.8688
  585MOL0     H80693   2.820  11.262   5.974 -1.9111  0.4102 -0.0711
  585MOL0     H80694   3.135  11.134   5.695  3.4202 -2.4749  2.9834
  585MOL0     H80695   3.154  11.307   5.665 -1.6616 -0.7353 -0.3953
  585MOL0     H80696   3.227  11.305   5.923 -4.2238 -1.9117 -0.0630
  585MOL0     H80697   3.263  11.139   5.907  2.6532  0.1235  1.2762
  585MOL0     H80698   3.386  11.368   5.760  0.1503 -0.2119 -1.2308
  585MOL0     H80699   3.413  11.209   5.693  1.3393 -0.9537  0.4186
  585MOL0     H80700   3.515  11.119   5.883 -0.6704 -0.2786  1.3796
  585MOL0     H80701   3.502  11.268   5.982 -1.5362 -1.1919  0.7526
  585MOL0     H80702   3.656  11.375   5.796 -0.6840  0.3808  0.6745
  585MOL0     H80703   3.736  11.244   5.896 -1.3062 -2.7322  0.7121
  585MOL0     H80704   3.664  11.088   5.689 -1.5359  0.1764 -1.4924
  585MOL0     H80705   3.808  11.180   5.702 -0.6326  0.6021  1.7821
  585MOL0     H80706   3.669  11.371   5.598  1.7733  0.4803  0.8299
  585MOL0     H80707   3.567  11.244   5.537 -0.9390  1.0935  1.7875
  585MOL0     H80708   3.865  11.200   5.488 -0.5545 -1.1554  0.4942
  585MOL0     H80709   3.787  11.322   5.388 -2.4344  2.1875  1.4212
  585MOL0     H80710   3.121  11.521   5.785 -1.6984  2.8379 -1.9359
  585MOL0     H80711   3.025  11.703   5.937 -1.4640  0.6178 -1.2287
  585MOL0     H80712   2.629  11.810   6.182 -0.1074 -2.3172  2.8409
  585MOL0     H80713   2.494  11.985   6.311  0.3091  0.3832  2.1427
  585MOL0     H80714   1.923  11.551   7.461 -1.1139  2.2109  4.2428
  585MOL0     H80715   1.801  11.326   7.404 -0.8679 -0.4112  2.4649
  585MOL0     H80716   1.708  10.964   7.144 -0.8449 -0.9266  1.8224
  585MOL0     H80717   1.598  10.810   7.001  0.9126 -0.1720  0.1666
  585MOL0     H80718   1.165  10.851   6.938  0.2413 -0.7521 -0.9793
  585MOL0     H80719   1.200  10.893   6.772  0.0998 -2.7047 -2.5612
  585MOL0     H80720   1.103  10.669   6.819  0.5482  1.7885  2.3488
  585MOL0     H80721   1.236  10.614   6.888 -6.4888 -1.6346  0.4132
  585MOL0     H80722   1.364  10.720   6.651  5.1112 -4.5089 -1.6035
  585MOL0     H80723   1.314  10.552   6.667 -4.0019 -1.7542  1.4970
  585MOL0     H80724   1.146  10.772   6.543 -3.3454 -1.9843  1.1252
  585MOL0     H80725   1.107  10.597   6.577 -0.9729  0.2612  2.0778
  585MOL0     H80726   1.404  10.555   6.278 -0.5358 -1.0673  0.8458
  585MOL0     H80727   1.255  11.059   6.997  0.1266  1.3438  1.5848
  585MOL0     H80728   1.233  11.242   7.120  0.2986  0.9927  0.5894
  585MOL0     H80729   1.328  11.246   7.271  0.7682  5.1378  0.2010
  585MOL0     H80730   1.380  11.344   7.134  0.8251 -0.3225 -0.7082
  586MOL0     O80731   3.285  10.308   4.246 -0.4953 -0.0072 -0.2983
  586MOL0     C80732   3.257  10.321   4.126  0.3291 -1.1153  1.7055
  586MOL0     O80733   3.293  10.426   4.037 -0.5832 -0.1268 -0.2737
  586MOL0     C80734   3.354  10.537   4.093 -0.9981  0.7082 -0.4053
  586MOL0     C80735   3.467  10.533   4.174 -0.4534  0.3362 -0.0413
  586MOL0     C80736   3.547  10.641   4.198  0.0177 -0.0308  0.5143
  586MOL0     C80737   3.527  10.759   4.133  0.1929  0.4127 -0.6216
  586MOL0     O80738   3.620  10.855   4.141 -0.5663 -0.5428  0.0818
  586MOL0     C80739   3.582  10.969   4.226 -0.8385 -0.6860 -0.2068
  586MOL0     C80740   3.603  10.936   4.372 -0.6161 -1.3685 -0.7840
  586MOL0     C80741   3.543  11.050   4.458  1.1200  0.1366 -0.1803
  586MOL0     C80742   3.494  10.996   4.594 -0.2059  0.1941  0.9370
  586MOL0     C80743   3.449  11.098   4.693  0.2503  0.2242  0.0808
  586MOL0     C80744   3.421  11.023   4.829 -1.1467 -1.7535 -0.7405
  586MOL0     C80745   3.361  11.127   4.931 -0.5987  0.7797 -0.6206
  586MOL0     C80746   3.337  11.058   5.072  0.3274 -1.2778  0.4698
  586MOL0     N80747   3.271  11.144   5.174 -0.1619 -0.3489 -0.4682
  586MOL0     C80748   3.244  11.275   5.193  0.3552  0.7658  0.1874
  586MOL0     C80749   3.203  11.294   5.323  0.1625  0.3499  0.9182
  586MOL0     C80750   3.161  11.432   5.378 -0.1993  0.6397 -0.3971
  586MOL0     C80751   3.009  11.429   5.376  0.2722 -0.4024 -0.7908
  586MOL0     C80752   2.974  11.576   5.366 -0.3169 -0.3280  0.4068
  586MOL0     C80753   2.844  11.612   5.427 -0.8293 -0.2655 -0.7357
  586MOL0     O80754   2.858  11.601   5.570  0.4610  0.3768  0.3586
  586MOL0     C80755   2.733  11.608   5.629  0.2588  0.8084 -0.8635
  586MOL0     C80756   2.670  11.487   5.671 -0.2298  0.4987  0.3273
  586MOL0     C80757   2.537  11.485   5.725 -0.2210 -0.1765 -0.1550
  586MOL0     C80758   2.496  11.349   5.766 -0.8358 -0.5275 -0.4318
  586MOL0     C80759   2.483  11.606   5.762 -0.1725  0.4346  0.3096
  586MOL0     C80760   2.352  11.616   5.829  0.3432  0.3047  0.2026
  586MOL0     O80761   2.337  11.718   5.931  0.3034  0.3323  0.0869
  586MOL0     C80762   2.215  11.763   5.981  0.5907  0.5874  0.4633
  586MOL0     C80763   2.241  11.897   6.033  0.1621  0.9159 -0.9278
  586MOL0     C80764   2.136  11.955   6.101 -0.3412 -0.1909  0.3487
  586MOL0     C80765   2.011  11.884   6.117 -1.1927 -0.0927 -0.3562
  586MOL0     O80766   1.914  11.934   6.201 -0.6856  1.0546  0.4388
  586MOL0     C80767   1.775  11.932   6.165 -0.2078  0.2883 -0.0150
  586MOL0     C80768   1.718  12.000   6.282  0.2135  0.0960 -0.2094
  586MOL0     C80769   1.573  11.961   6.280  1.3146  0.1196  0.9640
  586MOL0     C80770   1.500  12.072   6.354 -0.1447 -0.4783 -0.4587
  586MOL0     C80771   1.350  12.038   6.365  0.2054  0.5223 -0.2255
  586MOL0     C80772   1.256  12.157   6.359  0.1509  0.5543  0.0892
  586MOL0     C80773   1.227  12.216   6.494  0.0730  0.4775 -0.7691
  586MOL0     C80774   1.338  12.301   6.554 -0.7886  0.2390  0.1518
  586MOL0    Cl80775   1.381  12.453   6.447  0.1050  0.4888  0.2222
  586MOL0     C80776   1.994  11.760   6.054 -0.3929 -1.1472 -0.3097
  586MOL0     C80777   2.090  11.705   5.974 -0.4401 -0.8360 -0.6791
  586MOL0     O80778   2.258  11.556   5.781 -0.1831 -0.2062  0.4505
  586MOL0     C80779   2.551  11.728   5.719  0.4979  1.1124  0.7083
  586MOL0     C80780   2.673  11.733   5.660  0.4744 -0.6528  0.6776
  586MOL0     N80781   3.190  11.171   5.381 -0.3364  0.5766 -0.6221
  586MOL0     N80782   3.234  11.090   5.294 -0.3047 -0.1244  1.1549
  586MOL0     C80783   3.414  10.770   4.050  0.5881 -0.0862  0.2137
  586MOL0     C80784   3.321  10.663   4.040  0.5654 -0.5296  0.8599
  586MOL0     C80785   3.158  10.237   4.060  0.0428 -0.2436  0.2760
  586MOL0     C80786   3.069  10.296   3.964  0.6429  0.3657 -0.6257
  586MOL0     C80787   2.963  10.230   3.905 -0.7313 -0.2113 -0.1214
  586MOL0     C80788   2.931  10.102   3.945 -0.4162  0.8654  0.3487
  586MOL0     O80789   2.823  10.027   3.910  0.1429  0.3489 -1.0042
  586MOL0     C80790   2.700  10.056   3.983 -0.5864 -0.3276  0.9327
  586MOL0     C80791   2.680   9.965   4.104 -0.4639  0.1128 -0.1906
  586MOL0     C80792   2.572  10.018   4.203 -0.2450 -1.1312  1.3924
  586MOL0     C80793   2.427   9.992   4.172 -0.5509  0.3595 -0.2373
  586MOL0     C80794   2.359  10.090   4.087 -0.6057  0.3735  0.8083
  586MOL0     C80795   2.331  10.173   4.005  0.1402  0.4769 -0.5745
  586MOL0     C80796   3.021  10.036   4.034  0.0721 -0.4256 -0.4648
  586MOL0     C80797   3.134  10.100   4.097  1.0128 -1.1496 -1.0239
  586MOL0     C80798   3.199  10.029   4.217 -0.6737 -0.7767 -0.2840
  586MOL0     H80799   3.500  10.435   4.206  1.8171  0.9006 -0.4848
  586MOL0     H80800   3.638  10.629   4.256  2.6394  2.1821 -2.7394
  586MOL0     H80801   3.477  10.998   4.212 -0.4882  4.2328  4.2731
  586MOL0     H80802   3.641  11.059   4.204  0.5527 -1.1164  1.5378
  586MOL0     H80803   3.554  10.843   4.403 -0.3962 -0.5379  2.2821
  586MOL0     H80804   3.710  10.926   4.395 -1.1577 -0.2713  2.6309
  586MOL0     H80805   3.626  11.119   4.472  2.3012 -1.1817 -0.4301
  586MOL0     H80806   3.454  11.092   4.409  0.6345 -2.1798 -1.4927
  586MOL0     H80807   3.415  10.922   4.581 -0.2644  0.2197  1.1561
  586MOL0     H80808   3.574  10.936   4.637  0.7668  1.2499  0.6579
  586MOL0     H80809   3.358  11.150   4.663  0.1883  0.6767  1.0106
  586MOL0     H80810   3.532  11.168   4.703  0.6616 -0.3402  0.6812
  586MOL0     H80811   3.352  10.942   4.806 -3.5579 -0.0325 -0.0780
  586MOL0     H80812   3.510  10.975   4.870  0.2199  3.1940  3.1427
  586MOL0     H80813   3.262  11.168   4.911 -0.6446  1.5134  0.9553
  586MOL0     H80814   3.429  11.209   4.954 -0.0649  0.1408  0.1580
  586MOL0     H80815   3.286  10.961   5.061 -1.8494 -0.0866 -0.6158
  586MOL0     H80816   3.438  11.045   5.112  0.9344  1.1227 -0.1071
  586MOL0     H80817   3.248  11.359   5.124 -0.3423  0.3385 -0.3816
  586MOL0     H80818   3.213  11.507   5.317  4.0011  0.2185  2.2719
  586MOL0     H80819   3.211  11.436   5.475 -0.7489 -0.6007 -0.0442
  586MOL0     H80820   2.974  11.391   5.280  3.4819 -0.9349 -1.8542
  586MOL0     H80821   2.969  11.368   5.458 -1.4606  0.5138 -0.9067
  586MOL0     H80822   3.048  11.631   5.425 -0.7053 -1.1835  1.7242
  586MOL0     H80823   2.979  11.612   5.263  1.4755  0.1766  0.6308
  586MOL0     H80824   2.816  11.717   5.411 -0.3701 -0.2816 -1.7119
  586MOL0     H80825   2.768  11.547   5.383  0.4601 -1.6108 -1.0501
  586MOL0     H80826   2.725  11.396   5.650  0.6752  1.2324 -0.5948
  586MOL0     H80827   2.584  11.301   5.811 -1.1921 -0.7187  0.0753
  586MOL0     H80828   2.472  11.282   5.683 -0.4302 -0.7997 -0.3355
  586MOL0     H80829   2.419  11.351   5.844 -0.7753  1.7855 -0.3722
  586MOL0     H80830   2.334  11.950   6.013 -1.1845  4.3183  0.9555
  586MOL0     H80831   2.134  12.056   6.142 -6.8094  0.5308 -0.7703
  586MOL0     H80832   1.751  11.988   6.074  3.3833  3.0241  0.4530
  586MOL0     H80833   1.739  11.829   6.159  1.7508 -0.4654  0.2716
  586MOL0     H80834   1.772  11.971   6.372  1.5817  1.8596 -0.4113
  586MOL0     H80835   1.736  12.106   6.266  2.4051  0.1070  1.8731
  586MOL0     H80836   1.547  11.869   6.333 -0.2881  0.9596  1.7262
  586MOL0     H80837   1.538  11.947   6.177 -0.6917  0.0005  1.6089
  586MOL0     H80838   1.518  12.168   6.304  0.8526 -0.4435 -0.0459
  586MOL0     H80839   1.545  12.086   6.452  0.5244 -2.6983 -0.3914
  586MOL0     H80840   1.314  11.983   6.277 -2.6874  1.3658  0.3067
  586MOL0     H80841   1.332  11.983   6.458  1.0202  0.2279 -0.2371
  586MOL0     H80842   1.156  12.122   6.336  0.3240  0.1390 -0.0343
  586MOL0     H80843   1.285  12.229   6.281  1.1012  0.1969  0.0931
  586MOL0     H80844   1.211  12.128   6.557 -0.4127  1.1729  0.1084
  586MOL0     H80845   1.138  12.277   6.476  0.8102  1.3736 -1.4708
  586MOL0     H80846   1.430  12.242   6.543 -1.6159 -0.7224 -2.4282
  586MOL0     H80847   1.323  12.320   6.660 -1.4033 -1.9734  0.5238
  586MOL0     H80848   1.904  11.701   6.068 -0.4464 -0.4283  3.4089
  586MOL0     H80849   2.069  11.615   5.917 -0.3054 -0.3520 -1.5098
  586MOL0     H80850   2.490  11.814   5.747 -4.9997 -1.1309 -2.7621
  586MOL0     H80851   2.734  11.822   5.648 -1.8920  0.9605 -0.3031
  586MOL0     H80852   3.400  10.853   3.981  1.0426  0.4635  0.7748
  586MOL0     H80853   3.237  10.670   3.972  2.6059  1.8872 -1.6746
  586MOL0     H80854   3.086  10.399   3.935 -1.4823  0.9501  0.0088
  586MOL0     H80855   2.916  10.261   3.812  3.0674 -0.9936 -2.5106
  586MOL0     H80856   2.691  10.161   4.012  2.8680  0.3801 -0.1289
  586MOL0     H80857   2.610  10.036   3.923 -0.6645  2.9792 -0.2312
  586MOL0     H80858   2.777   9.974   4.155 -1.3237  2.6482  1.1832
  586MOL0     H80859   2.674   9.862   4.068 -0.9308  0.2376 -0.4728
  586MOL0     H80860   2.604   9.965   4.293  2.7158 -1.9800 -0.0281
  586MOL0     H80861   2.586  10.126   4.216 -0.1098 -0.9984  0.2813
  586MOL0     H80862   2.374   9.974   4.266  1.9089 -1.2082  0.9591
  586MOL0     H80863   2.431   9.890   4.132 -1.8337  0.3814 -0.4616
  586MOL0     H80864   2.293  10.240   3.931  4.0863  0.4701 -2.8580
  586MOL0     H80865   3.008   9.935   4.072  2.4794 -1.2759 -1.6933
  586MOL0     H80866   3.177   9.922   4.221  0.1522 -1.0637 -2.1247
  586MOL0     H80867   3.308  10.032   4.213 -0.6571 -1.5007 -0.5158
  586MOL0     H80868   3.149  10.068   4.306  0.7489  2.5433 -0.7909
  587MOL0     O80869   2.934  11.283   4.896  0.2005  0.7230  0.1111
  587MOL0     C80870   2.917  11.174   4.839  0.2075 -0.7700  0.1551
  587MOL0     O80871   2.898  11.153   4.707 -0.3350 -0.3161  0.5786
  587MOL0     C80872   2.840  11.235   4.617 -0.0553 -0.3791 -0.3255
  587MOL0     C80873   2.805  11.174   4.498 -0.9379  0.1960  0.7790
  587MOL0     C80874   2.741  11.244   4.395 -0.6528 -0.1973  0.2556
  587MOL0     C80875   2.709  11.381   4.408  0.8092 -0.1681  0.2792
  587MOL0     O80876   2.642  11.456   4.312  0.0462  0.0577  0.4028
  587MOL0     C80877   2.733  11.517   4.219  0.0459 -0.2459 -0.1409
  587MOL0     C80878   2.774  11.430   4.109  0.2848 -0.0659  0.4340
  587MOL0     C80879   2.851  11.501   4.007  0.2451  0.3141 -0.2636
  587MOL0     C80880   2.941  11.401   3.941 -0.1988  0.3522 -0.7330
  587MOL0     C80881   2.987  11.464   3.816  0.0808  0.0232  0.7125
  587MOL0     C80882   3.099  11.381   3.747  1.1056 -0.7922 -0.2686
  587MOL0     C80883   3.132  11.428   3.609 -0.2376 -0.6370  0.6129
  587MOL0     C80884   3.020  11.433   3.504  0.2322 -1.3397  0.1573
  587MOL0     N80885   3.074  11.443   3.367 -0.0732 -0.6816  1.0269
  587MOL0     C80886   3.138  11.556   3.327  0.5721 -0.3372  0.1995
  587MOL0     C80887   3.210  11.517   3.216  0.6211 -0.3535 -0.0582
  587MOL0     C80888   3.290  11.601   3.128  0.2768 -0.1031  0.0625
  587MOL0     C80889   3.290  11.544   2.978 -0.1954 -0.8480 -0.1823
  587MOL0     C80890   3.331  11.656   2.878  0.5771  0.6525  0.1416
  587MOL0     C80891   3.456  11.731   2.908 -0.8025 -0.0020 -0.1536
  587MOL0     O80892   3.473  11.814   2.792  0.4735  0.2869 -0.1294
  587MOL0     C80893   3.600  11.864   2.765  0.8679  0.3886 -0.2416
  587MOL0     C80894   3.693  11.896   2.864  0.8343  1.2533  0.8072
  587MOL0     C80895   3.822  11.928   2.825 -0.3235  0.2697 -0.1397
  587MOL0     C80896   3.905  11.941   2.939  0.2091  0.0916 -0.0513
  587MOL0     C80897   3.862  11.938   2.691 -0.0241 -0.2862  0.3515
  587MOL0     C80898   3.990  11.983   2.635  0.7237 -0.4628 -0.3557
  587MOL0     O80899   4.010  11.976   2.507 -0.2754  0.4924 -0.3641
  587MOL0     C80900   4.116  12.040   2.451  0.3376  0.5259  0.2297
  587MOL0     C80901   4.092  12.141   2.359  0.0587 -0.0671 -0.4194
  587MOL0     C80902   4.196  12.201   2.285 -0.0425 -0.9163  0.0395
  587MOL0     C80903   4.330  12.163   2.319 -0.1712  0.9485 -0.1767
  587MOL0     O80904   4.429  12.234   2.261 -1.4970 -1.0472  0.5384
  587MOL0     C80905   4.508  12.147   2.171  0.5879  0.0330 -0.0769
  587MOL0     C80906   4.651  12.168   2.203 -0.5549  0.4384 -0.2224
  587MOL0     C80907   4.701  12.306   2.157  0.6319 -1.0521 -0.4796
  587MOL0     C80908   4.730  12.309   2.004 -0.6924  0.3798 -0.6902
  587MOL0     C80909   4.873  12.338   1.979  0.1483 -0.0700  0.8196
  587MOL0     C80910   4.904  12.488   2.011  0.4181 -0.2265  0.3331
  587MOL0     C80911   4.851  12.594   1.922 -0.2995  0.3001  0.3063
  587MOL0     C80912   4.913  12.733   1.950 -0.3571  0.2783 -1.1864
  587MOL0    Cl80913   5.071  12.733   1.875 -0.2033 -0.3421 -0.2931
  587MOL0     C80914   4.355  12.062   2.410  0.5651 -0.6379  0.5270
  587MOL0     C80915   4.250  11.991   2.476 -0.1290 -0.4163 -1.1113
  587MOL0     O80916   4.075  12.025   2.718 -0.2177 -0.8815  0.9279
  587MOL0     C80917   3.762  11.915   2.605  0.1629  0.4517 -0.8405
  587MOL0     C80918   3.633  11.875   2.630  0.3910  0.4781 -0.4974
  587MOL0     N80919   3.187  11.380   3.193 -0.5847 -0.9590 -0.0699
  587MOL0     N80920   3.110  11.339   3.282  0.5152 -0.4104  0.4618
  587MOL0     C80921   2.727  11.434   4.532 -0.4182  0.8885 -1.4461
  587MOL0     C80922   2.789  11.366   4.642  0.5166 -1.0419 -0.1769
  587MOL0     C80923   2.966  11.054   4.920  0.2276 -0.5693  1.1598
  587MOL0     C80924   3.039  10.959   4.840 -0.1672 -1.0871 -1.1579
  587MOL0     C80925   3.089  10.845   4.886  0.0424  0.0817 -0.0360
  587MOL0     C80926   3.067  10.805   5.021  0.1317 -0.9496 -0.1474
  587MOL0     O80927   3.122  10.689   5.060 -0.2731 -0.0248  0.5408
  587MOL0     C80928   3.108  10.648   5.199  0.3634 -0.3654 -0.9476
  587MOL0     C80929   3.142  10.502   5.232  0.3505 -1.1723  0.4499
  587MOL0     C80930   3.069  10.427   5.352  0.1561 -0.5491  0.4987
  587MOL0     C80931   3.124  10.459   5.494 -0.3923 -0.4609  0.3380
  587MOL0     C80932   3.016  10.424   5.587  0.3541  0.0672  1.5481
  587MOL0     C80933   2.920  10.396   5.654  0.0171  0.5983  0.2075
  587MOL0     C80934   3.003  10.900   5.103 -0.2862 -0.6188  0.5481
  587MOL0     C80935   2.950  11.029   5.057 -0.2254  0.5192  0.1671
  587MOL0     C80936   2.903  11.134   5.157  0.1424  0.1037  0.4150
  587MOL0     H80937   2.815  11.067   4.480  0.8610  0.2664  1.2081
  587MOL0     H80938   2.721  11.194   4.301  2.3596  0.5263 -0.8692
  587MOL0     H80939   2.814  11.560   4.279  0.6122 -1.8069  0.2532
  587MOL0     H80940   2.677  11.601   4.176 -2.0111 -1.1282  0.6738
  587MOL0     H80941   2.828  11.343   4.147  0.1749 -1.4293 -2.2459
  587MOL0     H80942   2.679  11.395   4.068 -0.8624 -1.4177  3.9578
  587MOL0     H80943   2.788  11.547   3.929  0.4824 -2.2607 -2.0917
  587MOL0     H80944   2.914  11.580   4.049 -0.1835  0.0013  0.9997
  587MOL0     H80945   3.022  11.379   4.012  1.8769 -0.9715 -3.3451
  587MOL0     H80946   2.896  11.303   3.923  1.6015 -0.5807 -0.3825
  587MOL0     H80947   3.014  11.569   3.836 -2.0550  1.0388 -1.2219
  587MOL0     H80948   2.902  11.477   3.748 -0.6155  2.2745  1.8835
  587MOL0     H80949   3.190  11.386   3.807  1.5921  0.9192 -1.0947
  587MOL0     H80950   3.076  11.274   3.739 -1.4214 -0.2876 -0.6947
  587MOL0     H80951   3.202  11.359   3.563 -2.1536 -1.1045 -1.8544
  587MOL0     H80952   3.189  11.519   3.630  0.8833 -0.9672 -0.8803
  587MOL0     H80953   2.951  11.350   3.519  0.2885 -1.0994  2.0508
  587MOL0     H80954   2.957  11.519   3.528  0.5161 -0.1934 -2.8380
  587MOL0     H80955   3.117  11.661   3.346 -1.6477 -0.9357  1.3966
  587MOL0     H80956   3.398  11.592   3.147  0.4543 -1.1856 -1.2788
  587MOL0     H80957   3.250  11.700   3.147 -1.4240 -1.2426  3.0260
  587MOL0     H80958   3.353  11.455   2.966 -0.0599 -0.8871  0.7817
  587MOL0     H80959   3.186  11.537   2.944 -0.3328  3.8480 -1.4326
  587MOL0     H80960   3.330  11.616   2.777  0.9985 -0.5317  0.5834
  587MOL0     H80961   3.244  11.721   2.878 -0.2968 -0.3277  3.2823
  587MOL0     H80962   3.471  11.791   2.998  2.4075 -0.1328 -0.4989
  587MOL0     H80963   3.551  11.678   2.921 -0.9524 -0.5865 -1.3098
  587MOL0     H80964   3.670  11.882   2.969  1.5577 -0.7218  0.7495
  587MOL0     H80965   3.919  12.042   2.978  0.0810  0.6077 -1.3161
  587MOL0     H80966   4.003  11.899   2.914  0.4075 -0.3058  1.2805
  587MOL0     H80967   3.888  11.873   3.023  3.9805 -0.0152  0.8437
  587MOL0     H80968   3.990  12.175   2.348  0.0023 -0.7850 -2.5337
  587MOL0     H80969   4.181  12.282   2.214  0.3968 -0.6610  0.2359
  587MOL0     H80970   4.482  12.042   2.182 -0.9531  0.4578  0.6580
  587MOL0     H80971   4.501  12.172   2.065  3.0903  1.7466  0.0596
  587MOL0     H80972   4.663  12.163   2.312  2.0611 -1.2209 -0.4958
  587MOL0     H80973   4.698  12.074   2.170 -3.4759 -1.3811  0.4598
  587MOL0     H80974   4.791  12.332   2.215 -1.0895 -0.1605  1.9845
  587MOL0     H80975   4.628  12.385   2.178  1.3158  0.3624 -2.9771
  587MOL0     H80976   4.671  12.378   1.943  0.6864  1.7853 -0.4854
  587MOL0     H80977   4.711  12.206   1.972 -1.5901 -0.3860  2.0457
  587MOL0     H80978   4.940  12.265   2.026  0.0626 -1.1168 -0.6080
  587MOL0     H80979   4.901  12.317   1.876  4.2151 -0.1418  1.7606
  587MOL0     H80980   5.011  12.503   1.994  0.3771 -0.0762  0.1987
  587MOL0     H80981   4.875  12.511   2.114 -0.8707 -2.7713  0.6168
  587MOL0     H80982   4.744  12.602   1.943 -0.2444  0.0447  0.6891
  587MOL0     H80983   4.873  12.573   1.817  1.7619  1.9508  0.3420
  587MOL0     H80984   4.918  12.752   2.057 -0.2596 -0.9584 -0.9482
  587MOL0     H80985   4.849  12.813   1.912 -1.5886  0.1819  0.6076
  587MOL0     H80986   4.457  12.032   2.433  1.5517  3.1663  1.8020
  587MOL0     H80987   4.257  11.924   2.561 -0.2585  2.7494  1.5832
  587MOL0     H80988   3.764  11.916   2.496  0.5276 -0.6295 -0.8649
  587MOL0     H80989   3.569  11.846   2.547 -0.8957 -0.0957  0.6531
  587MOL0     H80990   2.684  11.532   4.553 -3.6124 -1.1120  3.1454
  587MOL0     H80991   2.792  11.420   4.736 -1.5707  1.8753 -1.6216
  587MOL0     H80992   3.065  10.980   4.737  0.8085  1.0656 -0.5431
  587MOL0     H80993   3.145  10.780   4.818 -0.5456 -1.7774  1.1975
  587MOL0     H80994   3.168  10.718   5.258  3.7967 -1.2372 -3.1309
  587MOL0     H80995   3.002  10.660   5.223  0.5188 -0.7788 -0.0439
  587MOL0     H80996   3.250  10.499   5.247  0.6693  2.1419 -0.3906
  587MOL0     H80997   3.119  10.445   5.142  2.9258 -1.2856 -0.2186
  587MOL0     H80998   2.963  10.455   5.341 -0.5237 -3.3155 -0.9829
  587MOL0     H80999   3.081  10.321   5.331 -2.8598 -0.7945 -0.5330
  587MOL0     H81000   3.139  10.565   5.516 -3.4032  0.0205  0.4867
  587MOL0     H81001   3.216  10.402   5.510 -0.2389 -1.0610 -2.2335
  587MOL0     H81002   2.831  10.370   5.706 -0.7126  0.0563 -1.2654
  587MOL0     H81003   3.013  10.885   5.210  3.0849 -1.1762  0.2720
  587MOL0     H81004   2.912  11.092   5.258  2.0395  1.5979  0.9207
  587MOL0     H81005   2.952  11.231   5.153 -0.4669  0.6016  3.1895
  587MOL0     H81006   2.797  11.156   5.137  0.3722 -0.1330 -1.2388
  588MOL0     O81007  11.482   8.998   4.515 -0.2890 -0.0591 -0.6157
  588MOL0     C81008  11.480   9.096   4.586 -0.3507  0.1874  2.1455
  588MOL0     O81009  11.526   9.223   4.547 -0.4893  0.2539  0.6082
  588MOL0     C81010  11.492   9.267   4.426  0.4088 -1.0392  0.4168
  588MOL0     C81011  11.388   9.228   4.341 -0.0662 -0.6815 -0.4539
  588MOL0     C81012  11.376   9.276   4.206  0.4401  0.2181 -0.0488
  588MOL0     C81013  11.458   9.372   4.145 -0.1668 -0.5525  0.9996
  588MOL0     O81014  11.449   9.414   4.010  0.7153 -0.5178 -0.1479
  588MOL0     C81015  11.372   9.319   3.926  0.4824 -0.4667  0.0320
  588MOL0     C81016  11.380   9.366   3.780  0.1844 -0.8072  0.6217
  588MOL0     C81017  11.519   9.344   3.720 -0.6529  0.4181  0.9297
  588MOL0     C81018  11.538   9.419   3.586  0.8151 -0.0945 -1.8432
  588MOL0     C81019  11.676   9.477   3.558  0.0524  0.3248 -0.4082
  588MOL0     C81020  11.776   9.358   3.568  0.3055  0.0772  0.1476
  588MOL0     C81021  11.928   9.405   3.562  0.2115  0.3201  1.0034
  588MOL0     C81022  12.017   9.296   3.499  0.7982  0.1912  0.8712
  588MOL0     N81023  12.091   9.226   3.602 -0.5857 -0.1517 -0.8223
  588MOL0     C81024  12.191   9.283   3.679 -0.1079 -0.5219 -0.1182
  588MOL0     C81025  12.241   9.182   3.747  0.6015  0.6475  0.9621
  588MOL0     C81026  12.319   9.199   3.861 -0.7235 -0.0769 -0.3824
  588MOL0     C81027  12.463   9.229   3.834 -0.0811 -0.4427 -0.0667
  588MOL0     C81028  12.556   9.257   3.953  0.0665  0.0393  0.3659
  588MOL0     C81029  12.623   9.123   3.983 -0.1715  0.6539 -1.3088
  588MOL0     O81030  12.728   9.149   4.082  0.2336 -0.5641  0.4930
  588MOL0     C81031  12.781   9.036   4.136  0.7341  0.5700  0.2393
  588MOL0     C81032  12.852   8.960   4.047 -1.3105 -0.0991 -0.0764
  588MOL0     C81033  12.908   8.838   4.092 -0.2764 -0.2892  0.0932
  588MOL0     C81034  13.003   8.768   3.997  0.4873 -0.1771  0.1147
  588MOL0     C81035  12.863   8.783   4.212 -0.1621  0.1766 -0.3324
  588MOL0     C81036  12.906   8.651   4.256 -1.1126  0.1150 -0.0402
  588MOL0     O81037  12.826   8.590   4.356  0.0703 -0.3554 -0.3851
  588MOL0     C81038  12.903   8.536   4.457  0.3876  0.0592  0.2028
  588MOL0     C81039  12.917   8.604   4.581  0.5221 -0.6140  0.1103
  588MOL0     C81040  12.979   8.547   4.691 -0.4257 -0.0071 -0.6103
  588MOL0     C81041  13.025   8.413   4.687 -0.2971  0.0816 -1.4387
  588MOL0     O81042  13.085   8.348   4.795 -0.8166  0.2585  0.3727
  588MOL0     C81043  13.113   8.209   4.796 -0.3784 -0.9399  0.0051
  588MOL0     C81044  13.000   8.121   4.846 -0.2111 -0.2683  0.5428
  588MOL0     C81045  12.908   8.191   4.951  0.2257  0.0798 -0.0433
  588MOL0     C81046  12.857   8.082   5.052 -0.1178 -0.2131  0.9601
  588MOL0     C81047  12.757   8.134   5.157 -0.6489 -0.3077 -0.2748
  588MOL0     C81048  12.695   8.014   5.235 -0.5531  0.3266 -0.2816
  588MOL0     C81049  12.794   7.932   5.323 -0.1842  0.5640  0.0913
  588MOL0     C81050  12.748   7.801   5.386 -0.1417  0.8024  0.0308
  588MOL0    Cl81051  12.839   7.770   5.528 -0.2741  0.0966 -0.1823
  588MOL0     C81052  13.000   8.344   4.570  0.1501 -0.9440  0.5450
  588MOL0     C81053  12.934   8.402   4.461 -0.2797  0.4040  0.9590
  588MOL0     O81054  13.009   8.600   4.220  0.5651 -0.4815  0.0345
  588MOL0     C81055  12.776   8.858   4.291  0.8308 -0.0536 -0.3444
  588MOL0     C81056  12.744   8.985   4.257  0.0695 -0.7316  0.6310
  588MOL0     N81057  12.196   9.057   3.699 -0.1294  0.3968 -0.1759
  588MOL0     N81058  12.110   9.085   3.606  0.2347  0.2350 -0.0061
  588MOL0     C81059  11.567   9.423   4.237 -0.6491  0.8003  0.2664
  588MOL0     C81060  11.572   9.370   4.370  0.5006  0.3289  0.1958
  588MOL0     C81061  11.453   9.069   4.728  0.6805  0.4156 -0.3475
  588MOL0     C81062  11.522   9.146   4.826 -0.5042  0.2318  0.4240
  588MOL0     C81063  11.521   9.114   4.969 -0.7112 -0.3030  0.6106
  588MOL0     C81064  11.435   9.016   5.014  0.3562  0.6443  0.3737
  588MOL0     O81065  11.415   8.972   5.143 -0.2679  0.1998 -0.0095
  588MOL0     C81066  11.468   9.063   5.244 -0.0785  0.3208  0.0039
  588MOL0     C81067  11.410   9.013   5.372 -0.5556 -0.6063  1.2928
  588MOL0     C81068  11.489   9.050   5.497 -0.3614 -0.1296  0.5121
  588MOL0     C81069  11.427   9.158   5.585 -0.4378  0.2425  0.1425
  588MOL0     C81070  11.458   9.301   5.544  1.6403  0.1479  0.6960
  588MOL0     C81071  11.469   9.417   5.509  0.9589  0.5789 -0.4176
  588MOL0     C81072  11.360   8.952   4.918 -0.2074 -0.3666  0.7641
  588MOL0     C81073  11.355   8.976   4.784  0.0239  0.6918  0.7841
  588MOL0     C81074  11.246   8.921   4.691  0.4803  0.1868  0.3989
  588MOL0     H81075  11.313   9.160   4.380 -1.2762  1.3978  1.0819
  588MOL0     H81076  11.289   9.238   4.153  1.7381 -1.7844 -0.8583
  588MOL0     H81077  11.269   9.312   3.963  1.1717 -1.3376  1.8964
  588MOL0     H81078  11.413   9.217   3.932  1.4018 -0.1130 -0.0608
  588MOL0     H81079  11.293   9.323   3.728  1.5814 -0.3403 -2.3601
  588MOL0     H81080  11.346   9.469   3.775 -0.6980 -1.1297 -0.6419
  588MOL0     H81081  11.594   9.389   3.785  2.0008  0.5367 -1.9615
  588MOL0     H81082  11.526   9.235   3.714  3.9776  0.4870  1.4562
  588MOL0     H81083  11.507   9.356   3.502 -1.8244 -1.7326  0.1975
  588MOL0     H81084  11.478   9.510   3.584  1.2078  0.1779 -4.2964
  588MOL0     H81085  11.702   9.555   3.629 -1.9191 -1.0185  1.9251
  588MOL0     H81086  11.682   9.527   3.460 -0.9052  1.5564  0.1231
  588MOL0     H81087  11.768   9.297   3.658  3.8092 -1.3003 -0.3099
  588MOL0     H81088  11.754   9.293   3.483  0.8892 -1.5471  1.2016
  588MOL0     H81089  11.966   9.449   3.654 -0.2830  2.8493  0.0832
  588MOL0     H81090  11.921   9.484   3.486 -1.2685 -0.8132 -0.1052
  588MOL0     H81091  11.950   9.224   3.450 -2.8082  3.6484  0.2347
  588MOL0     H81092  12.081   9.337   3.421  1.6662 -1.4269  0.6915
  588MOL0     H81093  12.221   9.388   3.679  0.4376 -0.6739 -0.6512
  588MOL0     H81094  12.319   9.112   3.927  2.1387 -0.9593 -1.3899
  588MOL0     H81095  12.277   9.284   3.916  2.3047  1.3036 -0.0311
  588MOL0     H81096  12.492   9.141   3.775 -0.7381 -1.5861  1.2316
  588MOL0     H81097  12.464   9.318   3.772 -1.9087  0.5496  1.2272
  588MOL0     H81098  12.633   9.332   3.935 -0.6226  0.2642 -1.8964
  588MOL0     H81099  12.503   9.296   4.041  0.3932  2.7187 -0.5440
  588MOL0     H81100  12.559   9.042   4.018  0.2584 -0.0967 -2.2300
  588MOL0     H81101  12.678   9.094   3.893 -1.0074  0.2020 -1.6850
  588MOL0     H81102  12.874   9.012   3.954 -0.8348  2.4622  1.3430
  588MOL0     H81103  12.982   8.667   3.961  2.4115  0.3709 -2.8932
  588MOL0     H81104  13.097   8.777   4.052  0.3420  2.4564  0.0766
  588MOL0     H81105  13.010   8.815   3.898  0.9179 -0.2019  0.1297
  588MOL0     H81106  12.871   8.702   4.592 -1.7847 -1.9221  4.1832
  588MOL0     H81107  12.988   8.610   4.779  2.2532  0.5056 -1.1814
  588MOL0     H81108  13.156   8.174   4.702  0.1241 -0.6560  0.1258
  588MOL0     H81109  13.195   8.200   4.868  1.0255 -0.8370 -1.5467
  588MOL0     H81110  12.926   8.108   4.767 -2.7958  0.4494  2.6939
  588MOL0     H81111  13.043   8.030   4.888  2.0389  0.4336 -0.0958
  588MOL0     H81112  12.824   8.243   4.903 -0.1539  0.6895  1.2279
  588MOL0     H81113  12.976   8.263   4.995 -1.6181  2.0297 -0.2227
  588MOL0     H81114  12.943   8.029   5.093  3.4750  3.3943 -1.2147
  588MOL0     H81115  12.789   8.024   4.989  2.1448 -0.1955 -1.6877
  588MOL0     H81116  12.804   8.203   5.227  0.8305 -2.1091  0.6036
  588MOL0     H81117  12.673   8.181   5.105 -0.1719  0.2063 -0.5872
  588MOL0     H81118  12.649   7.947   5.161 -0.0364  1.2404 -1.4537
  588MOL0     H81119  12.616   8.061   5.294 -0.5555 -0.6265  0.5074
  588MOL0     H81120  12.834   8.005   5.395 -1.8600  0.8655  0.7701
  588MOL0     H81121  12.878   7.910   5.256 -0.2488 -2.1237  0.8045
  588MOL0     H81122  12.761   7.715   5.319 -2.1467  0.1864  0.3932
  588MOL0     H81123  12.644   7.811   5.418 -0.6906  1.6113 -1.8250
  588MOL0     H81124  13.019   8.238   4.565 -1.6911 -1.4116  2.2262
  588MOL0     H81125  12.917   8.346   4.369 -1.2633  2.4530 -0.1853
  588MOL0     H81126  12.730   8.826   4.384 -1.6324  2.4087 -0.5630
  588MOL0     H81127  12.680   9.045   4.321  1.8624 -0.0441  1.8662
  588MOL0     H81128  11.642   9.483   4.187  0.0532  0.3474  0.7640
  588MOL0     H81129  11.652   9.408   4.432  1.3731 -2.4014  0.8916
  588MOL0     H81130  11.582   9.231   4.795  0.4817 -0.9831 -1.1190
  588MOL0     H81131  11.596   9.162   5.030  1.1395  0.4710 -2.0949
  588MOL0     H81132  11.577   9.056   5.251  0.3219  4.7311  1.8695
  588MOL0     H81133  11.439   9.166   5.222 -0.7042 -0.1590 -1.5689
  588MOL0     H81134  11.403   8.904   5.360  1.9603 -0.5738 -1.9399
  588MOL0     H81135  11.311   9.060   5.370 -0.5576 -0.5672  2.0538
  588MOL0     H81136  11.483   8.963   5.562 -0.9497 -0.0002  0.6360
  588MOL0     H81137  11.591   9.073   5.466  0.3013  0.8298  3.1948
  588MOL0     H81138  11.468   9.145   5.686  0.5430 -0.9715 -0.3870
  588MOL0     H81139  11.320   9.139   5.590 -0.1486 -1.3700  0.8753
  588MOL0     H81140  11.483   9.515   5.469  1.7288  1.1492  1.2004
  588MOL0     H81141  11.292   8.878   4.958 -2.5130  0.5608 -1.1864
  588MOL0     H81142  11.260   8.813   4.694  3.5071  0.5078  0.1861
  588MOL0     H81143  11.151   8.952   4.737  1.4934  1.3358  1.7916
  588MOL0     H81144  11.247   8.952   4.586 -1.3213 -2.6433 -0.5609
  589MOL0     O81145  10.736   1.089   9.793 -0.2628 -0.2747 -0.2096
  589MOL0     C81146  10.786   1.021   9.706  0.2802 -0.1385  0.7913
  589MOL0     O81147  10.912   1.033   9.663 -0.5368 -0.4192  0.0725
  589MOL0     C81148  11.010   1.067   9.754  0.1477  0.4015 -0.3806
  589MOL0     C81149  11.055   0.962   9.835  0.6872 -0.1739 -0.1466
  589MOL0     C81150  11.158   0.989   9.926  0.2124  0.1836  0.6247
  589MOL0     C81151  11.215   1.119   9.934  0.0108 -0.1098 -0.0187
  589MOL0     O81152  11.309   1.137  10.034  0.5180  0.3449 -0.5123
  589MOL0     C81153  11.349   1.274  10.065 -0.5411 -0.6348  0.0106
  589MOL0     C81154  11.367   1.281  10.214  0.2912  0.9969  0.3540
  589MOL0     C81155  11.257   1.224  10.284  0.4448 -0.6815  0.4007
  589MOL0     C81156  11.114   1.289  10.267 -0.7541  0.6196 -0.8873
  589MOL0     C81157  11.045   1.275  10.403  0.7344 -0.0979  0.1259
  589MOL0     C81158  10.899   1.314  10.399 -0.6321  0.7407 -0.4247
  589MOL0     C81159  10.865   1.466  10.380  0.0430 -0.4817  0.1593
  589MOL0     C81160  10.713   1.489  10.349  0.5826 -0.2629 -0.2358
  589MOL0     N81161  10.710   1.629  10.321 -0.9863 -0.1144  0.7949
  589MOL0     C81162  10.748   1.692  10.212  0.5229 -0.0276 -0.0772
  589MOL0     C81163  10.715   1.826  10.226  1.3626 -0.9342 -0.3812
  589MOL0     C81164  10.730   1.921  10.116  0.2683  0.3788  0.1897
  589MOL0     C81165  10.668   2.060  10.129 -0.4605 -0.7854  0.1254
  589MOL0     C81166  10.737   2.142  10.242  0.2772 -0.6259  0.1682
  589MOL0     C81167  10.765   2.300  10.215 -0.8535  0.9242 -0.0066
  589MOL0     O81168  10.636   2.352  10.208  0.7997  0.5480 -0.1217
  589MOL0     C81169  10.621   2.490  10.209 -0.5496  0.3439  0.2281
  589MOL0     C81170  10.723   2.586  10.214 -1.0222 -0.2910  1.2439
  589MOL0     C81171  10.697   2.723  10.219  0.0767 -0.1643 -0.1581
  589MOL0     C81172  10.820   2.820  10.224  0.8595  0.5368  0.9783
  589MOL0     C81173  10.561   2.764  10.237  0.2314  0.5006  0.3163
  589MOL0     C81174  10.518   2.907  10.246 -0.2425 -0.2256 -0.7834
  589MOL0     O81175  10.375   2.928  10.267  0.1750  0.0625 -0.5773
  589MOL0     C81176  10.330   3.052  10.296  0.2978 -1.0575  0.1742
  589MOL0     C81177  10.368   3.131  10.408 -0.0988 -0.0361 -0.5197
  589MOL0     C81178  10.305   3.250  10.445 -0.7787 -0.1661 -0.1989
  589MOL0     C81179  10.191   3.298  10.377  0.6315 -0.1208  1.0480
  589MOL0     O81180  10.127   3.422  10.396 -0.2968  0.3857 -0.2852
  589MOL0     C81181  10.183   3.520  10.487 -0.2426  0.6782 -0.8400
  589MOL0     C81182  10.096   3.653  10.480 -1.0746  0.3283 -1.0111
  589MOL0     C81183  10.156   3.756  10.578 -0.7029  0.4087 -0.6047
  589MOL0     C81184  10.090   3.896  10.565  0.0827  0.9296  0.4056
  589MOL0     C81185  10.150   3.987  10.674  0.3792 -0.8173  0.4679
  589MOL0     C81186  10.098   4.131  10.655 -0.1156  1.0123  0.1040
  589MOL0     C81187   9.977   4.158  10.728  0.8904  0.7784 -0.4335
  589MOL0     C81188   9.903   4.294  10.702  0.2595  0.1324 -0.7185
  589MOL0    Cl81189   9.983   4.420  10.807  0.1118 -0.1157  0.0613
  589MOL0     C81190  10.145   3.218  10.268 -0.0291  0.7351  0.3841
  589MOL0     C81191  10.204   3.093  10.233 -0.4251 -0.9265  1.1990
  589MOL0     O81192  10.598   3.004  10.243  0.7602  0.1647  0.5539
  589MOL0     C81193  10.462   2.666  10.250 -0.4241 -0.2352 -0.8042
  589MOL0     C81194  10.488   2.534  10.229 -0.5123  0.2221 -0.2490
  589MOL0     N81195  10.660   1.850  10.347 -0.6694 -0.6910 -0.7006
  589MOL0     N81196  10.657   1.731  10.406 -0.9713 -0.4836  0.0181
  589MOL0     C81197  11.175   1.220   9.837 -0.5129  0.4923  0.7393
  589MOL0     C81198  11.074   1.196   9.748 -0.6025  0.3257  0.1235
  589MOL0     C81199  10.708   0.930   9.617  0.5240  0.2636  0.6273
  589MOL0     C81200  10.774   0.810   9.582 -0.0142 -0.5079  0.9881
  589MOL0     C81201  10.719   0.713   9.496  0.1670  0.6998 -0.4233
  589MOL0     C81202  10.586   0.725   9.455 -0.0133  0.2744 -0.3000
  589MOL0     O81203  10.538   0.618   9.387  0.3661  0.9068  0.3446
  589MOL0     C81204  10.396   0.591   9.382  0.8553 -0.3720 -0.7886
  589MOL0     C81205  10.349   0.453   9.340 -0.6657 -0.2599 -0.0902
  589MOL0     C81206  10.407   0.338   9.434  0.7872 -0.7956  0.5434
  589MOL0     C81207  10.320   0.211   9.407  0.2515  0.0579 -0.3203
  589MOL0     C81208  10.325   0.173   9.267 -0.1834 -0.3028  0.0907
  589MOL0     C81209  10.341   0.138   9.154 -1.6693 -0.1904 -0.4061
  589MOL0     C81210  10.511   0.844   9.490 -0.2188  0.6551  0.5571
  589MOL0     C81211  10.571   0.941   9.573 -0.4578  0.1091 -0.4284
  589MOL0     C81212  10.483   1.050   9.622 -0.0200  0.1103  0.9844
  589MOL0     H81213  11.028   0.858   9.818 -0.1077 -0.0125  0.0853
  589MOL0     H81214  11.199   0.916   9.995  0.1327 -1.4222 -0.9508
  589MOL0     H81215  11.272   1.346  10.037 -1.5291 -1.4921  0.4664
  589MOL0     H81216  11.442   1.301  10.014 -1.9128  0.9118 -1.7939
  589MOL0     H81217  11.456   1.220  10.233  1.1368 -0.0783 -5.2525
  589MOL0     H81218  11.389   1.384  10.246  3.3082 -0.3059  3.1186
  589MOL0     H81219  11.252   1.118  10.257  2.1117 -0.5426 -0.5587
  589MOL0     H81220  11.281   1.222  10.390  0.3330 -3.5317  0.4412
  589MOL0     H81221  11.136   1.395  10.254  1.6187  1.0106  3.9902
  589MOL0     H81222  11.056   1.247  10.185 -1.7184  2.1665 -1.0171
  589MOL0     H81223  11.107   1.331  10.473  1.3879 -3.1020  2.1366
  589MOL0     H81224  11.043   1.172  10.442 -0.5455 -0.2956 -0.3990
  589MOL0     H81225  10.850   1.265  10.315 -2.1121  0.1244  0.7532
  589MOL0     H81226  10.851   1.278  10.490  0.0248 -1.2519 -0.8339
  589MOL0     H81227  10.923   1.493  10.291  1.3386 -1.1016  0.7743
  589MOL0     H81228  10.884   1.531  10.466 -2.0008  3.2893 -1.9847
  589MOL0     H81229  10.683   1.427  10.263 -2.4993  2.1378 -1.0514
  589MOL0     H81230  10.657   1.470  10.440  2.1065  0.7858  0.9737
  589MOL0     H81231  10.776   1.639  10.121  1.0389 -0.1937  0.1742
  589MOL0     H81232  10.673   1.868  10.038  1.9210 -0.1286 -0.7246
  589MOL0     H81233  10.833   1.917  10.080 -0.1221  0.4386 -1.0074
  589MOL0     H81234  10.678   2.109  10.032  0.4000 -1.1988 -0.0065
  589MOL0     H81235  10.559   2.054  10.139 -0.6096  0.0843 -0.8344
  589MOL0     H81236  10.664   2.133  10.323 -1.0191 -1.7509 -1.0712
  589MOL0     H81237  10.834   2.107  10.278  0.1027  0.8492  2.3249
  589MOL0     H81238  10.830   2.342  10.292 -1.4260  1.0026  0.4330
  589MOL0     H81239  10.808   2.310  10.114 -2.6237 -0.3425 -0.9449
  589MOL0     H81240  10.823   2.547  10.204 -0.4499  0.7551  2.5457
  589MOL0     H81241  10.917   2.784  10.190  0.4569  1.2703 -1.1116
  589MOL0     H81242  10.810   2.864  10.323 -1.9415  1.7120  0.2788
  589MOL0     H81243  10.802   2.905  10.158 -1.2755  1.9166  3.1610
  589MOL0     H81244  10.448   3.086  10.466 -1.4275 -0.2448  1.2423
  589MOL0     H81245  10.345   3.309  10.527 -1.2258  0.5928 -0.5066
  589MOL0     H81246  10.170   3.473  10.585 -2.5434  0.2682 -1.2758
  589MOL0     H81247  10.288   3.532  10.459 -0.0969 -0.2198 -0.7154
  589MOL0     H81248  10.114   3.689  10.378 -0.7500 -0.1625 -1.1336
  589MOL0     H81249   9.991   3.640  10.506 -0.7148  1.6217  1.3358
  589MOL0     H81250  10.262   3.770  10.553 -0.9293 -0.0940 -1.9515
  589MOL0     H81251  10.145   3.710  10.677  2.1720  1.7799  0.4717
  589MOL0     H81252   9.981   3.896  10.578 -0.3549  2.7626 -2.4442
  589MOL0     H81253  10.113   3.922  10.462 -0.0387 -2.7065 -0.6677
  589MOL0     H81254  10.136   3.952  10.777  0.6346  0.2346  0.8823
  589MOL0     H81255  10.259   3.977  10.675  0.4908  0.1770 -0.0183
  589MOL0     H81256  10.076   4.145  10.549  0.4774 -3.0175 -0.7108
  589MOL0     H81257  10.178   4.196  10.692 -0.4226  1.1525  0.5372
  589MOL0     H81258   9.995   4.139  10.835  3.5101  1.5071 -0.6929
  589MOL0     H81259   9.900   4.082  10.706 -0.9700  1.7001  2.3180
  589MOL0     H81260   9.801   4.269  10.733  0.0121  0.4063 -1.2973
  589MOL0     H81261   9.909   4.324  10.597  0.9473  3.1142  0.0604
  589MOL0     H81262  10.050   3.235  10.220 -0.1778 -1.2492 -0.1105
  589MOL0     H81263  10.153   3.041  10.151 -0.7477  0.3957  0.5397
  589MOL0     H81264  10.360   2.693  10.272 -0.7553 -1.7456 -0.3544
  589MOL0     H81265  10.420   2.451  10.244 -1.3767  0.8481 -0.6671
  589MOL0     H81266  11.222   1.317   9.824  3.4434 -1.3315 -0.0444
  589MOL0     H81267  11.046   1.272   9.675 -0.9084  1.3632  1.2868
  589MOL0     H81268  10.878   0.794   9.608  0.9851  0.8957 -1.7104
  589MOL0     H81269  10.771   0.625   9.461 -2.1047 -0.6417 -0.5947
  589MOL0     H81270  10.347   0.615   9.477 -1.7743  0.3802 -2.2293
  589MOL0     H81271  10.350   0.663   9.313  0.3484 -1.3567 -1.5167
  589MOL0     H81272  10.389   0.437   9.239 -0.1425  1.8158 -0.2443
  589MOL0     H81273  10.240   0.446   9.330 -0.6836  0.1270 -0.1743
  589MOL0     H81274  10.510   0.318   9.403  0.9975 -1.1633  1.4690
  589MOL0     H81275  10.410   0.363   9.540 -0.7904 -1.3801  0.7486
  589MOL0     H81276  10.219   0.234   9.442  1.6921 -1.0021  5.5896
  589MOL0     H81277  10.353   0.128   9.469 -0.8751 -0.9581 -1.0257
  589MOL0     H81278  10.359   0.132   9.048 -3.1127  1.1065 -0.7608
  589MOL0     H81279  10.405   0.842   9.470  0.0474  1.4702 -1.0459
  589MOL0     H81280  10.427   1.099   9.542  0.8780  2.7509  1.8620
  589MOL0     H81281  10.409   1.009   9.691 -0.8744  0.1835  0.1219
  589MOL0     H81282  10.544   1.125   9.674 -0.1601 -1.1288  3.0326
  590MOL0     O81283   0.099  10.060   2.244  0.3815  0.7890 -0.0206
  590MOL0     C81284  -0.011  10.064   2.183  0.8833  0.0381 -1.6675
  590MOL0     O81285  -0.133  10.039   2.244  0.5946 -0.5242  0.0486
  590MOL0     C81286  -0.139   9.950   2.348  0.3578 -0.2193  0.6114
  590MOL0     C81287  -0.168  10.000   2.471  0.4489  1.4450  1.2035
  590MOL0     C81288  -0.172   9.911   2.586  0.0842 -0.3838  1.3416
  590MOL0     C81289  -0.140   9.777   2.561  0.0508 -0.2283 -0.9623
  590MOL0     O81290  -0.144   9.690   2.659  0.0090  0.2944 -0.4458
  590MOL0     C81291  -0.264   9.681   2.738  0.2501  0.6169  0.1875
  590MOL0     C81292  -0.263   9.544   2.810  0.2783  0.4423  0.0192
  590MOL0     C81293  -0.238   9.431   2.710 -0.0352  1.6048 -0.3562
  590MOL0     C81294  -0.261   9.290   2.778 -0.5992 -0.3429  0.2298
  590MOL0     C81295  -0.228   9.172   2.688  0.8474 -0.8918 -0.0049
  590MOL0     C81296  -0.300   9.175   2.551  0.8111 -0.5744  0.1933
  590MOL0     C81297  -0.229   9.087   2.446 -0.5005 -0.6558  0.5026
  590MOL0     C81298  -0.139   9.179   2.362 -0.8744  0.5482  0.7874
  590MOL0     N81299  -0.212   9.263   2.260  0.2868  0.0079 -0.3112
  590MOL0     C81300  -0.333   9.229   2.217 -0.2250 -0.1110  0.7399
  590MOL0     C81301  -0.342   9.295   2.098 -0.2318  0.1830 -0.7160
  590MOL0     C81302  -0.473   9.282   2.029 -0.3329 -0.3921 -0.1549
  590MOL0     C81303  -0.443   9.245   1.879 -0.5494 -0.5158 -0.2702
  590MOL0     C81304  -0.397   9.096   1.883  0.0948 -0.1576  0.6182
  590MOL0     C81305  -0.353   9.050   1.749  0.0041  0.9842 -0.1887
  590MOL0     O81306  -0.472   8.999   1.678 -0.1651 -0.3128  0.0724
  590MOL0     C81307  -0.461   8.961   1.548 -0.3887 -0.5999 -0.9806
  590MOL0     C81308  -0.350   8.914   1.476 -0.4702  0.3105 -0.3522
  590MOL0     C81309  -0.367   8.868   1.331  0.1512 -0.2726 -1.3315
  590MOL0     C81310  -0.249   8.820   1.266  0.2097  0.1017  0.1131
  590MOL0     C81311  -0.493   8.875   1.270 -0.4634  0.1797  0.1624
  590MOL0     C81312  -0.514   8.849   1.122  0.5346  0.5862 -0.2628
  590MOL0     O81313  -0.635   8.796   1.082 -0.5355 -0.0073  0.0057
  590MOL0     C81314  -0.659   8.726   0.964  0.0663 -0.1299 -0.1267
  590MOL0     C81315  -0.552   8.674   0.896 -0.0911 -0.2619  0.1120
  590MOL0     C81316  -0.576   8.590   0.788  0.4903 -0.2426  0.7183
  590MOL0     C81317  -0.708   8.567   0.740 -0.5311  0.1417  0.0492
  590MOL0     O81318  -0.735   8.472   0.650  0.1746  0.2092  0.4111
  590MOL0     C81319  -0.655   8.481   0.528  0.0223 -0.9175  0.6472
  590MOL0     C81320  -0.727   8.428   0.415  1.0185 -0.1359 -0.2868
  590MOL0     C81321  -0.740   8.275   0.426 -0.3142 -0.0861 -0.6786
  590MOL0     C81322  -0.833   8.210   0.320 -1.0435 -0.0275  0.0325
  590MOL0     C81323  -0.893   8.079   0.378  0.0254 -0.6677 -0.4301
  590MOL0     C81324  -1.036   8.103   0.425  0.5914  0.0691 -0.4859
  590MOL0     C81325  -1.064   7.986   0.523  0.5754  0.2838 -0.3747
  590MOL0     C81326  -1.091   7.846   0.463 -0.3378  0.4948 -0.3131
  590MOL0    Cl81327  -1.241   7.823   0.371 -0.0425  0.1150 -0.7421
  590MOL0     C81328  -0.811   8.605   0.824  0.1947  0.1380 -0.0301
  590MOL0     C81329  -0.784   8.693   0.926  0.1189  0.0567 -0.8287
  590MOL0     O81330  -0.425   8.877   1.051  0.1021  0.3250  0.7770
  590MOL0     C81331  -0.603   8.909   1.352 -0.1789  0.3742 -0.5320
  590MOL0     C81332  -0.588   8.950   1.486  0.3589  1.2284 -0.4521
  590MOL0     N81333  -0.232   9.382   2.089 -0.2570 -0.4746  0.2542
  590MOL0     N81334  -0.146   9.357   2.180 -0.7489 -0.1991  0.5956
  590MOL0     C81335  -0.105   9.729   2.436  0.1261  0.3032  0.1988
  590MOL0     C81336  -0.117   9.806   2.324  0.2855  0.0118 -0.2466
  590MOL0     C81337  -0.019  10.078   2.035 -0.8316  0.4276  0.0459
  590MOL0     C81338  -0.140  10.054   1.973 -0.8521  0.6258 -0.1375
  590MOL0     C81339  -0.157  10.075   1.834  0.1231 -0.6423  0.0233
  590MOL0     C81340  -0.043  10.123   1.757  0.4078  0.4322 -0.6002
  590MOL0     O81341  -0.030  10.132   1.627  0.5522  0.4290 -0.3453
  590MOL0     C81342  -0.108  10.057   1.531  0.2292  0.4824 -0.8276
  590MOL0     C81343  -0.052   9.914   1.524 -0.5518 -0.3943 -0.3104
  590MOL0     C81344   0.052   9.909   1.409  0.2245  0.2551 -0.4079
  590MOL0     C81345   0.193   9.960   1.453  0.9060  0.4475  0.1936
  590MOL0     C81346   0.253   9.882   1.559 -0.4028 -0.6730 -0.8191
  590MOL0     C81347   0.279   9.818   1.652 -0.3016 -0.0204 -1.0970
  590MOL0     C81348   0.064  10.160   1.828 -0.6968  0.0368 -0.1030
  590MOL0     C81349   0.083  10.137   1.959 -0.9926  0.1630 -0.2580
  590MOL0     C81350   0.215  10.184   2.012  0.2382  0.2796  0.5653
  590MOL0     H81351  -0.173  10.108   2.475  2.0957  1.7604 -1.8442
  590MOL0     H81352  -0.198   9.948   2.685  3.1176  0.7964  1.8158
  590MOL0     H81353  -0.344   9.681   2.663 -1.2717 -0.3598  1.7304
  590MOL0     H81354  -0.276   9.765   2.807 -4.2996  1.5585 -1.3987
  590MOL0     H81355  -0.167   9.544   2.862  0.5827 -1.1932 -0.5084
  590MOL0     H81356  -0.345   9.521   2.879 -0.5379 -0.5244 -1.2369
  590MOL0     H81357  -0.322   9.449   2.643 -1.7064  0.1058  1.2360
  590MOL0     H81358  -0.146   9.443   2.652  0.9739  1.5866  1.1848
  590MOL0     H81359  -0.190   9.282   2.861 -0.7880  0.6640  0.4981
  590MOL0     H81360  -0.365   9.278   2.808 -0.7154  0.9185  0.3905
  590MOL0     H81361  -0.250   9.075   2.733 -0.1340 -0.6484  0.0712
  590MOL0     H81362  -0.120   9.172   2.674  1.0340  1.6951  0.8705
  590MOL0     H81363  -0.399   9.129   2.560 -0.4316  2.1749  1.9914
  590MOL0     H81364  -0.320   9.275   2.513 -1.2524 -1.5269 -1.4397
  590MOL0     H81365  -0.298   9.034   2.379 -1.1035 -0.1938  0.7485
  590MOL0     H81366  -0.175   9.008   2.499  2.4319  1.0217  0.2384
  590MOL0     H81367  -0.069   9.236   2.423  0.5302 -1.0387  0.7403
  590MOL0     H81368  -0.066   9.121   2.305  1.2296  3.2870  0.5007
  590MOL0     H81369  -0.402   9.164   2.269  0.7239 -0.1704  1.9665
  590MOL0     H81370  -0.514   9.383   2.026 -0.6827 -0.5287  0.0329
  590MOL0     H81371  -0.541   9.205   2.066 -0.7107  0.1752  0.3470
  590MOL0     H81372  -0.534   9.238   1.819 -0.4349 -0.7061 -0.4258
  590MOL0     H81373  -0.369   9.310   1.830 -0.5722 -1.5620 -1.7564
  590MOL0     H81374  -0.313   9.084   1.953 -0.1547  2.9148  1.6098
  590MOL0     H81375  -0.470   9.023   1.919 -1.0769 -0.1194 -1.5733
  590MOL0     H81376  -0.311   9.140   1.702 -0.3479  1.8817  1.1350
  590MOL0     H81377  -0.291   8.960   1.744 -2.7454 -1.0261 -0.5249
  590MOL0     H81378  -0.253   8.906   1.524 -2.9738 -0.5168  5.4481
  590MOL0     H81379  -0.265   8.733   1.201  4.0902  1.2506 -2.8127
  590MOL0     H81380  -0.174   8.789   1.339 -0.5647 -0.1701  0.8109
  590MOL0     H81381  -0.210   8.908   1.214 -0.5432  2.0860  2.7114
  590MOL0     H81382  -0.450   8.677   0.931 -0.9725 -1.2641  3.0704
  590MOL0     H81383  -0.495   8.552   0.727 -2.4189 -0.9486 -3.0373
  590MOL0     H81384  -0.624   8.580   0.494 -0.7163 -2.0409 -3.9698
  590MOL0     H81385  -0.564   8.421   0.542 -0.0688 -0.8606  1.5655
  590MOL0     H81386  -0.819   8.486   0.406  1.6088  0.6974 -1.3049
  590MOL0     H81387  -0.668   8.455   0.327 -1.1571  2.1584 -1.1589
  590MOL0     H81388  -0.789   8.263   0.523 -0.6289  0.0976 -0.8134
  590MOL0     H81389  -0.646   8.222   0.441 -1.1171 -0.8936  2.0022
  590MOL0     H81390  -0.781   8.186   0.227 -2.3965  0.6444 -0.9250
  590MOL0     H81391  -0.911   8.280   0.291 -4.1287 -1.8887  3.0874
  590MOL0     H81392  -0.892   8.004   0.298 -3.0185 -0.1206 -1.0970
  590MOL0     H81393  -0.828   8.036   0.454  0.1316  2.1479  1.1987
  590MOL0     H81394  -1.102   8.116   0.338  0.4731  1.0073 -0.2668
  590MOL0     H81395  -1.035   8.197   0.481  4.3387 -0.1319  0.0503
  590MOL0     H81396  -1.161   7.996   0.572 -0.7839 -4.4235 -1.5090
  590MOL0     H81397  -0.984   7.979   0.597  2.2141  0.6046 -2.0451
  590MOL0     H81398  -1.102   7.772   0.542 -1.7903 -0.8532 -1.7138
  590MOL0     H81399  -1.003   7.819   0.405 -0.4952  1.2072 -0.9088
  590MOL0     H81400  -0.912   8.581   0.791 -0.6919  1.7195  1.3873
  590MOL0     H81401  -0.862   8.728   0.993 -1.3370 -1.0454 -1.8916
  590MOL0     H81402  -0.704   8.901   1.312 -0.3216 -2.2051  0.1943
  590MOL0     H81403  -0.681   8.976   1.534 -1.2748  2.6942 -4.0776
  590MOL0     H81404  -0.098   9.621   2.429  0.1805  0.0995  2.6312
  590MOL0     H81405  -0.119   9.770   2.221  0.0694 -2.2823  0.4985
  590MOL0     H81406  -0.216  10.002   2.030  0.8545 -2.1484 -0.2327
  590MOL0     H81407  -0.256  10.059   1.794  0.9913 -1.7932 -1.7855
  590MOL0     H81408  -0.212  10.055   1.565  0.2860  1.7766 -0.5448
  590MOL0     H81409  -0.111  10.107   1.434  0.8448  1.2724 -0.4515
  590MOL0     H81410  -0.132   9.846   1.495 -1.2536  0.4641 -0.4304
  590MOL0     H81411  -0.005   9.889   1.620  0.3934  0.7169 -0.4627
  590MOL0     H81412   0.049   9.812   1.360 -3.0356 -0.0243  0.0865
  590MOL0     H81413   0.018   9.980   1.332  1.0073 -0.7282 -1.6977
  590MOL0     H81414   0.185  10.063   1.488  1.8645  0.3457  0.7293
  590MOL0     H81415   0.258   9.938   1.369  1.6932 -0.1667  0.9479
  590MOL0     H81416   0.289   9.752   1.736  2.3143 -0.7144 -1.8500
  590MOL0     H81417   0.151  10.201   1.778 -2.7862  3.5883 -1.1083
  590MOL0     H81418   0.259  10.120   2.090  3.7453  2.5493  0.6568
  590MOL0     H81419   0.294  10.183   1.937  1.7181  0.4945  2.0756
  590MOL0     H81420   0.217  10.281   2.063  2.3456 -0.0792  1.2667
  591MOL0     O81421   4.710   6.524   1.518  0.3177 -0.0708 -0.5398
  591MOL0     C81422   4.713   6.401   1.523 -0.3620  0.3322 -1.1028
  591MOL0     O81423   4.687   6.326   1.641 -0.0388  0.3101  0.1687
  591MOL0     C81424   4.646   6.380   1.753 -0.9813  0.2088 -1.3259
  591MOL0     C81425   4.717   6.368   1.862 -0.1516 -0.3952  0.1340
  591MOL0     C81426   4.686   6.439   1.975 -0.0925  0.1604  0.4007
  591MOL0     C81427   4.577   6.522   1.985  0.5487  0.8935  0.7098
  591MOL0     O81428   4.558   6.592   2.102 -0.1158  0.2908  0.1556
  591MOL0     C81429   4.426   6.616   2.143  0.4350  0.2065 -0.1586
  591MOL0     C81430   4.439   6.659   2.292 -0.5021 -0.0875 -0.4919
  591MOL0     C81431   4.314   6.694   2.364 -0.2633 -0.9469  0.6986
  591MOL0     C81432   4.240   6.575   2.416 -0.2546 -0.1768  0.0431
  591MOL0     C81433   4.112   6.612   2.495  0.8746 -0.4457  0.3545
  591MOL0     C81434   3.993   6.680   2.419  0.0077 -0.3049 -0.8352
  591MOL0     C81435   3.913   6.769   2.516  0.0830  0.8389  0.9860
  591MOL0     C81436   3.977   6.900   2.556 -0.4618 -0.1681 -0.3001
  591MOL0     N81437   3.894   6.982   2.648 -0.5411 -0.2908  0.0284
  591MOL0     C81438   3.847   7.109   2.617 -0.6604  0.5364  0.7628
  591MOL0     C81439   3.772   7.146   2.718  0.2622 -0.6498  0.3231
  591MOL0     C81440   3.688   7.268   2.734  0.7549  0.9831  0.6762
  591MOL0     C81441   3.753   7.404   2.745 -0.3050  0.6126 -0.3577
  591MOL0     C81442   3.639   7.507   2.745 -0.2210 -0.2059 -0.2095
  591MOL0     C81443   3.699   7.651   2.764  0.5779  0.2594  0.1043
  591MOL0     O81444   3.598   7.757   2.740  0.6943 -0.1153  0.8656
  591MOL0     C81445   3.584   7.871   2.812 -0.8652 -0.2192 -0.1923
  591MOL0     C81446   3.463   7.932   2.832 -0.1659 -0.1981 -0.2496
  591MOL0     C81447   3.447   8.056   2.888  0.6808  0.2092 -0.0983
  591MOL0     C81448   3.303   8.108   2.917 -0.1987 -0.1245 -0.7565
  591MOL0     C81449   3.561   8.133   2.918 -0.4466 -0.2268  0.4244
  591MOL0     C81450   3.578   8.278   2.953 -0.6488 -0.2141 -0.3569
  591MOL0     O81451   3.470   8.337   2.917 -0.5183 -0.2781 -1.0348
  591MOL0     C81452   3.437   8.457   2.967 -1.0663 -0.9227 -0.0860
  591MOL0     C81453   3.427   8.583   2.899  0.2243  1.0336 -0.1521
  591MOL0     C81454   3.396   8.699   2.969  0.1097 -0.9195 -0.1705
  591MOL0     C81455   3.369   8.707   3.106  0.0072 -0.4247 -1.5386
  591MOL0     O81456   3.348   8.823   3.177 -0.4585  0.4066 -1.1126
  591MOL0     C81457   3.384   8.948   3.125 -0.5735 -0.9703  0.6645
  591MOL0     C81458   3.423   9.064   3.232  0.4498  0.3909  0.0971
  591MOL0     C81459   3.426   8.996   3.372 -0.4138 -0.6678 -0.4642
  591MOL0     C81460   3.480   9.093   3.477 -0.2811 -0.6170  0.1553
  591MOL0     C81461   3.499   9.046   3.621  0.0667 -0.0049 -0.9869
  591MOL0     C81462   3.579   8.917   3.646 -0.4446  0.0595 -0.1021
  591MOL0     C81463   3.578   8.895   3.792 -0.9162  0.0993 -0.8258
  591MOL0     C81464   3.685   8.786   3.825 -0.0202 -0.1673  1.0380
  591MOL0    Cl81465   3.645   8.694   3.982  0.1484 -0.3023  0.3726
  591MOL0     C81466   3.389   8.584   3.178  0.2154  0.3429  0.3251
  591MOL0     C81467   3.414   8.467   3.108 -0.4392  0.5068  0.7113
  591MOL0     O81468   3.669   8.320   3.026 -0.3287 -0.1538 -0.7717
  591MOL0     C81469   3.686   8.077   2.891 -0.5619 -0.3713 -0.7663
  591MOL0     C81470   3.696   7.943   2.842 -0.5753 -0.5438 -0.7153
  591MOL0     N81471   3.780   7.052   2.820 -0.0506  0.4219  0.0244
  591MOL0     N81472   3.845   6.951   2.777 -0.4329  0.2248  0.0091
  591MOL0     C81473   4.495   6.525   1.870  0.0974 -0.5664  0.2635
  591MOL0     C81474   4.526   6.453   1.756  0.2709 -0.2609  0.8819
  591MOL0     C81475   4.731   6.325   1.386 -0.0002 -0.3653 -1.5111
  591MOL0     C81476   4.718   6.183   1.383 -0.8084 -0.6187  0.6737
  591MOL0     C81477   4.715   6.108   1.265 -0.7552 -0.7684  0.1939
  591MOL0     C81478   4.721   6.178   1.139  0.2225  0.0122 -0.1285
  591MOL0     O81479   4.707   6.092   1.033  0.8510 -0.3990 -0.2245
  591MOL0     C81480   4.702   6.136   0.898  0.4457  0.7031  0.4100
  591MOL0     C81481   4.547   6.164   0.870 -1.1473  0.2514 -0.3044
  591MOL0     C81482   4.525   6.206   0.724 -0.2771  0.1662 -0.1541
  591MOL0     C81483   4.383   6.229   0.675  0.2458  0.6913  0.7010
  591MOL0     C81484   4.305   6.332   0.754  0.6218 -0.5735 -0.5637
  591MOL0     C81485   4.242   6.415   0.823  1.0911 -0.3483 -0.3199
  591MOL0     C81486   4.749   6.316   1.148  0.1549 -0.0760 -0.2312
  591MOL0     C81487   4.760   6.393   1.265  0.4157  0.0384 -0.6559
  591MOL0     C81488   4.820   6.531   1.268 -0.7505  0.1431  0.1568
  591MOL0     H81489   4.809   6.310   1.860 -0.0919 -0.3373 -2.0501
  591MOL0     H81490   4.740   6.433   2.069 -0.4112  0.1791  0.5885
  591MOL0     H81491   4.369   6.524   2.125  0.9634  0.1110 -1.4526
  591MOL0     H81492   4.377   6.701   2.095  0.1678 -0.9584 -2.0566
  591MOL0     H81493   4.489   6.583   2.353 -0.2097  1.5080  1.3628
  591MOL0     H81494   4.494   6.753   2.296  0.6704 -0.7552  3.2911
  591MOL0     H81495   4.340   6.760   2.448  0.7996 -0.1992 -0.1818
  591MOL0     H81496   4.248   6.750   2.297  1.2048  0.7707  0.6031
  591MOL0     H81497   4.211   6.514   2.330  3.8908  0.1280 -1.7949
  591MOL0     H81498   4.291   6.512   2.489  0.1839  1.2365  1.0092
  591MOL0     H81499   4.141   6.676   2.579 -0.4241  1.2690 -0.4368
  591MOL0     H81500   4.081   6.513   2.527  5.1596 -2.8751 -2.1258
  591MOL0     H81501   4.045   6.729   2.337  0.5711  1.8422  0.7212
  591MOL0     H81502   3.925   6.607   2.374 -2.4688  0.8093  0.8576
  591MOL0     H81503   3.905   6.706   2.605  1.8265 -0.4293  0.3065
  591MOL0     H81504   3.817   6.787   2.467  2.3002  3.7488 -2.8756
  591MOL0     H81505   4.073   6.875   2.602 -0.8117 -2.5456 -0.7440
  591MOL0     H81506   3.993   6.957   2.464  2.6452 -1.1347 -0.4903
  591MOL0     H81507   3.858   7.163   2.524  0.6075  0.5207  0.8810
  591MOL0     H81508   3.625   7.240   2.819  0.4391 -1.5939 -0.3292
  591MOL0     H81509   3.619   7.273   2.649 -2.6019  3.1200  3.2968
  591MOL0     H81510   3.822   7.407   2.830 -1.3503  2.4682  0.4832
  591MOL0     H81511   3.823   7.432   2.665 -1.5419  2.2604 -0.9279
  591MOL0     H81512   3.586   7.503   2.649  0.1375 -0.0835 -0.4144
  591MOL0     H81513   3.566   7.488   2.824  0.5855 -0.3554  0.5147
  591MOL0     H81514   3.732   7.652   2.868  0.2354  0.3852  0.2142
  591MOL0     H81515   3.795   7.661   2.714  1.6655  2.8592  2.4578
  591MOL0     H81516   3.379   7.863   2.823 -1.1702  0.7390  1.4161
  591MOL0     H81517   3.300   8.129   3.025  1.5692  0.4416 -0.7954
  591MOL0     H81518   3.233   8.024   2.916 -0.3487 -0.0330  0.4831
  591MOL0     H81519   3.277   8.195   2.856  6.2555  0.7367 -3.0815
  591MOL0     H81520   3.451   8.576   2.794 -0.3396 -2.5007 -0.1692
  591MOL0     H81521   3.377   8.791   2.914 -2.7813 -2.2349 -1.6188
  591MOL0     H81522   3.470   8.936   3.057 -1.3102 -2.3913 -0.0677
  591MOL0     H81523   3.303   8.984   3.060  0.8275 -0.0034 -0.6263
  591MOL0     H81524   3.526   9.092   3.210  1.9370 -3.6623  0.9047
  591MOL0     H81525   3.345   9.139   3.245 -2.8035 -2.9111  1.4440
  591MOL0     H81526   3.491   8.908   3.379  2.2571  1.2935  1.3566
  591MOL0     H81527   3.325   8.969   3.403 -0.3430  1.4942  1.9174
  591MOL0     H81528   3.416   9.181   3.469 -1.2565 -1.2616  0.6809
  591MOL0     H81529   3.580   9.120   3.443  0.8141 -2.8445  1.4244
  591MOL0     H81530   3.544   9.134   3.667 -3.6148  1.3694  0.3333
  591MOL0     H81531   3.407   9.027   3.677 -0.0526  4.5240  0.7219
  591MOL0     H81532   3.680   8.943   3.612 -0.3975 -1.7244 -1.4192
  591MOL0     H81533   3.544   8.831   3.589 -2.3958 -0.3554  1.5982
  591MOL0     H81534   3.482   8.857   3.828 -0.1198 -1.1479  0.0481
  591MOL0     H81535   3.605   8.986   3.847 -1.5324  0.8688 -1.7491
  591MOL0     H81536   3.788   8.824   3.828  1.1025 -2.7809 -0.5702
  591MOL0     H81537   3.691   8.708   3.749 -0.7543  0.4052  0.3749
  591MOL0     H81538   3.373   8.586   3.286  3.6399 -0.0596  0.9742
  591MOL0     H81539   3.402   8.384   3.176  1.7412  1.3267  2.2159
  591MOL0     H81540   3.783   8.117   2.917 -1.3329  0.6671  0.6553
  591MOL0     H81541   3.792   7.897   2.822  1.1520  1.0101  2.9089
  591MOL0     H81542   4.400   6.578   1.876 -0.4062 -1.3649 -0.3634
  591MOL0     H81543   4.474   6.457   1.661  2.5072  1.4352 -0.3838
  591MOL0     H81544   4.718   6.141   1.483 -2.6408  0.3886  1.1522
  591MOL0     H81545   4.696   6.002   1.278  1.2431 -1.0532  1.1235
  591MOL0     H81546   4.750   6.233   0.882  0.1062  0.5496 -1.8943
  591MOL0     H81547   4.742   6.064   0.826 -1.4828  1.1087 -1.1518
  591MOL0     H81548   4.517   6.238   0.944  0.9045 -0.5935  1.4735
  591MOL0     H81549   4.497   6.069   0.891  1.4001 -0.6909  2.0497
  591MOL0     H81550   4.585   6.297   0.713  1.0740 -0.6893 -0.0663
  591MOL0     H81551   4.584   6.133   0.668 -1.1721 -0.9331  0.3074
  591MOL0     H81552   4.332   6.132   0.670 -1.5652  1.6350 -0.3242
  591MOL0     H81553   4.393   6.266   0.573  1.6847 -1.5794 -0.0632
  591MOL0     H81554   4.160   6.471   0.864  1.3661  1.9081 -2.6531
  591MOL0     H81555   4.765   6.374   1.058  0.0563 -0.4732 -0.5076
  591MOL0     H81556   4.850   6.552   1.165 -0.1850 -0.2497  0.2350
  591MOL0     H81557   4.758   6.616   1.297 -1.4471 -0.3597  0.1524
  591MOL0     H81558   4.912   6.534   1.328 -1.2723  3.1204  0.9703
  592MOL0     O81559  10.395   7.535   0.710 -0.6275 -0.4878  0.2335
  592MOL0     C81560  10.486   7.465   0.738 -0.4837  1.3144 -0.7283
  592MOL0     O81561  10.565   7.477   0.862  0.9478  0.3009  0.3614
  592MOL0     C81562  10.528   7.573   0.949 -0.2097  0.2411  0.2762
  592MOL0     C81563  10.633   7.650   1.010 -0.4820 -1.4078 -0.4674
  592MOL0     C81564  10.602   7.762   1.088  0.2803  0.3959 -0.3545
  592MOL0     C81565  10.471   7.782   1.119 -0.0796 -0.5570 -0.4763
  592MOL0     O81566  10.420   7.889   1.190  0.7508 -0.1282 -0.0430
  592MOL0     C81567  10.464   8.030   1.175  1.2441  0.3789 -0.2545
  592MOL0     C81568  10.548   8.091   1.284 -0.1641  0.0657 -0.1315
  592MOL0     C81569  10.491   8.101   1.422 -0.2701  1.1200  0.1833
  592MOL0     C81570  10.576   8.186   1.521 -1.1582 -0.2352 -0.1993
  592MOL0     C81571  10.565   8.114   1.659  0.1610 -0.3774 -0.2657
  592MOL0     C81572  10.641   8.198   1.763 -0.3746  0.4213 -0.6294
  592MOL0     C81573  10.640   8.118   1.891 -0.6701  0.1420 -0.2159
  592MOL0     C81574  10.703   8.204   1.992  1.0800  0.1608 -0.1006
  592MOL0     N81575  10.705   8.137   2.122  0.4960  0.2265 -0.8296
  592MOL0     C81576  10.815   8.093   2.195  0.8486 -0.4637  0.2138
  592MOL0     C81577  10.774   8.067   2.319  0.2080  0.8115 -0.1911
  592MOL0     C81578  10.844   8.032   2.445  0.3448  0.2596  0.1260
  592MOL0     C81579  10.829   7.875   2.483  1.0094  0.7890 -0.1950
  592MOL0     C81580  10.919   7.782   2.409 -0.8028 -0.1276 -0.5197
  592MOL0     C81581  10.891   7.635   2.441  0.0958  0.2282  0.0472
  592MOL0     O81582  10.979   7.551   2.358 -0.7309  0.0063 -0.5206
  592MOL0     C81583  10.927   7.469   2.265 -0.6932  0.2836  0.0577
  592MOL0     C81584  10.922   7.334   2.274  0.5435  0.2629 -0.4866
  592MOL0     C81585  10.838   7.258   2.180  0.2078 -0.8020  0.3698
  592MOL0     C81586  10.837   7.116   2.201 -0.5865  0.6507 -0.3761
  592MOL0     C81587  10.764   7.327   2.079 -0.5237 -0.4609 -0.6560
  592MOL0     C81588  10.677   7.266   1.978 -0.6456  0.1110 -0.2162
  592MOL0     O81589  10.721   7.148   1.918 -0.2063  0.1550  0.2636
  592MOL0     C81590  10.626   7.077   1.853 -0.1759 -0.1689  0.3248
  592MOL0     C81591  10.566   7.108   1.729  0.0118 -0.6655 -0.2584
  592MOL0     C81592  10.502   7.012   1.646  0.8588  0.6689 -0.4431
  592MOL0     C81593  10.484   6.883   1.702 -0.8410 -0.7818 -0.5414
  592MOL0     O81594  10.390   6.811   1.642  0.1098 -0.3243 -0.3522
  592MOL0     C81595  10.303   6.714   1.713 -0.6867  0.4176  0.4638
  592MOL0     C81596  10.192   6.673   1.619  0.4287  0.8011 -0.3411
  592MOL0     C81597  10.096   6.572   1.691  0.6445  0.1017  0.2725
  592MOL0     C81598  10.058   6.439   1.618 -0.6899  0.4033  0.6595
  592MOL0     C81599  10.165   6.345   1.575  0.2160 -0.2667  0.1665
  592MOL0     C81600  10.087   6.223   1.520 -0.3086  0.0263 -0.4905
  592MOL0     C81601  10.057   6.125   1.634  1.6461  0.5742 -0.2883
  592MOL0     C81602  10.000   5.995   1.583  1.0738  1.1566 -0.7893
  592MOL0    Cl81603  10.137   5.895   1.509 -0.4945  0.0378 -0.1057
  592MOL0     C81604  10.538   6.855   1.829 -0.1828  0.1816  0.1190
  592MOL0     C81605  10.625   6.941   1.883  1.1325  0.2028  0.5081
  592MOL0     O81606  10.567   7.315   1.964  0.1033 -0.0418 -0.2890
  592MOL0     C81607  10.781   7.464   2.070 -0.2484  0.1570 -0.5353
  592MOL0     C81608  10.860   7.535   2.163 -0.6345 -0.0117 -0.2930
  592MOL0     N81609  10.643   8.101   2.330  0.2220 -0.0726  0.9223
  592MOL0     N81610  10.604   8.146   2.211  0.3820 -0.4108 -0.7342
  592MOL0     C81611  10.363   7.696   1.071 -0.1636 -0.2066  0.0349
  592MOL0     C81612  10.392   7.597   0.986  0.4241  0.1695 -0.5382
  592MOL0     C81613  10.519   7.358   0.636  1.0595  0.3575 -0.6619
  592MOL0     C81614  10.607   7.261   0.678 -0.6500 -0.4612  0.1067
  592MOL0     C81615  10.636   7.152   0.595 -0.4635 -1.1073 -0.4915
  592MOL0     C81616  10.562   7.138   0.479  0.1222  0.4671  0.3118
  592MOL0     O81617  10.598   7.035   0.398 -0.1032  0.6732 -0.1222
  592MOL0     C81618  10.618   6.907   0.463 -0.1223  1.0580  0.8664
  592MOL0     C81619  10.675   6.787   0.386  0.5003  0.4158  1.3754
  592MOL0     C81620  10.588   6.770   0.264 -0.1344  0.6202 -0.0102
  592MOL0     C81621  10.622   6.646   0.178 -0.7158  0.2712 -0.3867
  592MOL0     C81622  10.754   6.652   0.109  0.3216 -1.2656 -0.6651
  592MOL0     C81623  10.871   6.669   0.080  1.1267 -0.4620  0.9321
  592MOL0     C81624  10.473   7.229   0.432  0.7326  0.0537 -0.0809
  592MOL0     C81625  10.449   7.345   0.514  0.3388 -0.8561  0.3547
  592MOL0     C81626  10.361   7.442   0.442  0.7094 -1.4948 -0.6058
  592MOL0     H81627  10.736   7.633   0.981  1.0192  3.6087  1.0011
  592MOL0     H81628  10.687   7.824   1.114 -0.0054  0.3985  0.5840
  592MOL0     H81629  10.366   8.078   1.175 -0.7290 -3.2490 -1.4786
  592MOL0     H81630  10.519   8.046   1.082  0.6533  1.5547 -0.4192
  592MOL0     H81631  10.644   8.038   1.289 -0.6510 -0.7172  1.4216
  592MOL0     H81632  10.568   8.196   1.261  2.8021 -0.0732  1.3013
  592MOL0     H81633  10.397   8.156   1.408 -0.8974  0.4681  1.5767
  592MOL0     H81634  10.473   7.998   1.456 -1.1353  1.2712  0.2080
  592MOL0     H81635  10.677   8.185   1.479 -0.2465  1.9482  1.7111
  592MOL0     H81636  10.539   8.286   1.546 -1.6148 -0.9466  2.2028
  592MOL0     H81637  10.616   8.018   1.647 -0.2045 -0.4841 -1.0299
  592MOL0     H81638  10.463   8.108   1.698 -0.8681 -3.8341 -3.0198
  592MOL0     H81639  10.742   8.227   1.735 -0.5658  0.7340 -1.0091
  592MOL0     H81640  10.593   8.295   1.780  0.4206  0.4520  1.7744
  592MOL0     H81641  10.694   8.024   1.873 -0.1753  0.2933  0.4517
  592MOL0     H81642  10.539   8.097   1.927 -0.1630 -1.6307  0.2846
  592MOL0     H81643  10.799   8.243   1.956  1.6443 -1.4525 -0.4461
  592MOL0     H81644  10.635   8.285   2.020  0.5684 -0.6148  0.9429
  592MOL0     H81645  10.910   8.077   2.145  0.2449 -1.9641 -0.5389
  592MOL0     H81646  10.812   8.096   2.527 -1.4880  1.9150 -1.7895
  592MOL0     H81647  10.952   8.047   2.432  0.1985  0.8326 -0.4331
  592MOL0     H81648  10.840   7.886   2.591 -1.6183  0.2367  0.1932
  592MOL0     H81649  10.724   7.847   2.465  1.4976 -2.1652  1.0495
  592MOL0     H81650  10.905   7.802   2.303 -0.2317  0.6976 -0.4543
  592MOL0     H81651  11.024   7.799   2.435 -0.5811  1.1952 -2.1068
  592MOL0     H81652  10.907   7.619   2.548  4.2968 -1.1586 -0.6205
  592MOL0     H81653  10.789   7.616   2.406  0.6612  0.5012 -1.9020
  592MOL0     H81654  10.962   7.275   2.356  0.9772  0.5034 -0.5269
  592MOL0     H81655  10.892   7.083   2.290 -0.7296  0.5211 -0.3347
  592MOL0     H81656  10.885   7.073   2.112  2.3234  1.1125  0.8534
  592MOL0     H81657  10.731   7.090   2.212  0.0130 -1.1126  1.8288
  592MOL0     H81658  10.587   7.207   1.689  0.3542 -1.7652 -3.0677
  592MOL0     H81659  10.462   7.050   1.553  3.5268 -0.8438 -2.3537
  592MOL0     H81660  10.354   6.622   1.743 -0.9867 -0.2140 -0.8941
  592MOL0     H81661  10.281   6.759   1.810  2.3530  1.8995  0.5881
  592MOL0     H81662  10.143   6.768   1.598  1.7677  1.5345 -0.3137
  592MOL0     H81663  10.235   6.636   1.526  1.2832 -1.6115  0.9245
  592MOL0     H81664   9.999   6.620   1.709 -0.6523 -2.3982  0.2944
  592MOL0     H81665  10.134   6.543   1.789  2.2003  1.1361  0.0122
  592MOL0     H81666  10.014   6.465   1.521  4.2308 -0.7450 -2.2018
  592MOL0     H81667   9.994   6.394   1.695  0.1393 -1.5336  0.2711
  592MOL0     H81668  10.209   6.389   1.484  2.4407 -0.8556  0.9156
  592MOL0     H81669  10.239   6.336   1.654 -0.1384  3.3314  1.0833
  592MOL0     H81670  10.156   6.159   1.463 -0.1772 -2.9271  2.6238
  592MOL0     H81671  10.005   6.251   1.453  1.6559 -2.0144 -4.1034
  592MOL0     H81672   9.979   6.172   1.695  2.2882 -0.2925  1.2675
  592MOL0     H81673  10.138   6.109   1.706  1.8570 -1.3830 -0.9062
  592MOL0     H81674   9.916   6.014   1.516 -1.8739 -1.7875  1.7008
  592MOL0     H81675   9.952   5.926   1.653 -2.3635  0.4318 -3.5876
  592MOL0     H81676  10.534   6.754   1.869  1.8645 -1.1849 -2.7543
  592MOL0     H81677  10.674   6.914   1.976  1.2871 -2.0894 -0.1986
  592MOL0     H81678  10.737   7.520   1.988 -0.6472 -0.9024 -1.0612
  592MOL0     H81679  10.865   7.642   2.146  0.4225 -0.0581 -0.3900
  592MOL0     H81680  10.261   7.720   1.099  0.1652  0.9939  0.2469
  592MOL0     H81681  10.315   7.537   0.940  1.6129 -1.2104 -0.8228
  592MOL0     H81682  10.651   7.268   0.777  1.7652 -0.0507 -0.9290
  592MOL0     H81683  10.698   7.076   0.642 -2.2654 -2.5523 -0.2910
  592MOL0     H81684  10.694   6.911   0.542  3.5879 -1.1195 -2.2497
  592MOL0     H81685  10.532   6.877   0.524 -0.6409  0.6659 -0.0318
  592MOL0     H81686  10.662   6.702   0.453  1.8781  0.4718  1.7538
  592MOL0     H81687  10.779   6.793   0.353 -0.4167 -1.8094 -2.4944
  592MOL0     H81688  10.485   6.763   0.301 -0.0712  0.9851  0.2364
  592MOL0     H81689  10.584   6.863   0.206  0.1203  0.5944 -0.0713
  592MOL0     H81690  10.542   6.651   0.104 -2.7376 -1.4597  1.5807
  592MOL0     H81691  10.606   6.554   0.234 -0.1339  1.1826  1.3933
  592MOL0     H81692  10.973   6.686   0.051  0.8816 -0.2545  0.1897
  592MOL0     H81693  10.420   7.200   0.341  1.9605 -0.1726 -0.7450
  592MOL0     H81694  10.338   7.429   0.336  1.8482  2.8715 -1.6156
  592MOL0     H81695  10.265   7.447   0.494  0.5724 -0.8878 -0.8989
  592MOL0     H81696  10.410   7.540   0.440 -1.1089 -0.5448 -0.6137
  593MOL0     O81697   8.176  10.994   8.620 -0.8971  0.5639 -0.2212
  593MOL0     C81698   8.067  11.045   8.622  0.2893 -0.2765 -0.3136
  593MOL0     O81699   7.998  11.106   8.731  0.3486  0.0455 -0.1354
  593MOL0     C81700   8.060  11.137   8.855  0.0681 -0.4939 -0.3576
  593MOL0     C81701   8.202  11.125   8.884 -0.1956  0.3207  0.7555
  593MOL0     C81702   8.246  11.151   9.010 -0.2168  0.8458 -0.2724
  593MOL0     C81703   8.173  11.215   9.103 -0.7648 -0.6993 -0.3926
  593MOL0     O81704   8.228  11.223   9.226  0.5235  0.5989  0.1830
  593MOL0     C81705   8.148  11.192   9.344  0.5329 -0.3045  0.5313
  593MOL0     C81706   8.180  11.048   9.373 -0.2333  0.2734  0.0203
  593MOL0     C81707   8.078  10.954   9.329 -0.1570 -0.1492  0.1330
  593MOL0     C81708   8.125  10.823   9.386  0.4418  0.7004  0.1230
  593MOL0     C81709   8.027  10.714   9.345  0.5332 -0.3409 -1.1073
  593MOL0     C81710   8.079  10.587   9.395 -0.4007 -0.0511 -0.4837
  593MOL0     C81711   7.991  10.466   9.378  0.1997 -0.5295  0.0666
  593MOL0     C81712   8.066  10.336   9.393 -0.3778  1.7562  1.0994
  593MOL0     N81713   7.987  10.214   9.387  0.5353  0.1847  0.3856
  593MOL0     C81714   7.916  10.161   9.285 -0.5287  0.1350  0.4256
  593MOL0     C81715   7.876  10.031   9.325 -0.1621 -1.3416  0.0589
  593MOL0     C81716   7.780   9.946   9.239 -0.7600 -0.0882  0.9188
  593MOL0     C81717   7.860   9.833   9.180  0.5850  0.5448  0.3924
  593MOL0     C81718   7.774   9.711   9.142 -0.7499 -0.0666  0.0741
  593MOL0     C81719   7.864   9.588   9.122 -0.2967  0.2249 -0.0705
  593MOL0     O81720   7.794   9.465   9.146  0.1670  0.3103  0.2293
  593MOL0     C81721   7.881   9.352   9.161  1.5954  0.1616 -0.3052
  593MOL0     C81722   8.006   9.340   9.101  0.5067 -0.2815  0.2215
  593MOL0     C81723   8.086   9.224   9.102 -0.2258 -0.8976  0.3312
  593MOL0     C81724   8.218   9.240   9.037  0.3857  0.1977  0.5033
  593MOL0     C81725   8.035   9.114   9.169  0.7441  0.3538 -0.1647
  593MOL0     C81726   8.098   8.977   9.168 -0.4251 -0.1083 -0.5164
  593MOL0     O81727   8.029   8.878   9.226 -0.4502  0.3343  0.6919
  593MOL0     C81728   8.079   8.747   9.207 -0.4094 -0.2815  1.1713
  593MOL0     C81729   8.029   8.660   9.106  0.1245  0.4056 -0.0846
  593MOL0     C81730   8.104   8.546   9.065  1.0986 -0.5092  0.1180
  593MOL0     C81731   8.217   8.507   9.130 -0.3570  0.0263  0.6562
  593MOL0     O81732   8.254   8.387   9.070  0.0522  0.5178 -0.7024
  593MOL0     C81733   8.352   8.300   9.145 -0.3458  0.1592  0.2938
  593MOL0     C81734   8.395   8.201   9.029  0.9861  0.4894 -0.2028
  593MOL0     C81735   8.474   8.267   8.912  0.4164  0.1720  0.3502
  593MOL0     C81736   8.429   8.212   8.782  0.0830 -0.0164 -0.0373
  593MOL0     C81737   8.506   8.259   8.659 -0.3567  0.7024  1.1980
  593MOL0     C81738   8.433   8.332   8.562  0.3251 -0.4816  0.5998
  593MOL0     C81739   8.329   8.244   8.475  0.4516 -0.0899 -0.1357
  593MOL0     C81740   8.267   8.321   8.364  0.2150 -0.2131 -0.4971
  593MOL0    Cl81741   8.235   8.496   8.406 -0.4664  0.1308 -0.8457
  593MOL0     C81742   8.250   8.575   9.247  0.6366 -0.3867  0.3858
  593MOL0     C81743   8.187   8.693   9.282 -0.4185 -0.1916  1.2093
  593MOL0     O81744   8.205   8.962   9.105 -0.1139  0.2704  0.3416
  593MOL0     C81745   7.899   9.123   9.227  0.3373 -0.7121  0.1459
  593MOL0     C81746   7.823   9.240   9.218  0.1907 -0.9017  0.6249
  593MOL0     N81747   7.933  10.012   9.454 -0.4614  0.3063 -0.9066
  593MOL0     N81748   7.991  10.125   9.493 -0.1537  0.2178 -0.6026
  593MOL0     C81749   8.041  11.257   9.074  0.3728  0.4120 -0.3969
  593MOL0     C81750   7.981  11.214   8.951  0.4450  0.1758  0.4022
  593MOL0     C81751   7.996  11.045   8.495 -0.4329  0.6730  0.6648
  593MOL0     C81752   7.903  10.935   8.476  0.5897  0.6700 -0.0411
  593MOL0     C81753   7.842  10.915   8.356  0.0357  0.4052 -0.2848
  593MOL0     C81754   7.852  11.010   8.261 -0.7428 -0.2293  1.3219
  593MOL0     O81755   7.796  10.970   8.144 -0.2225 -0.0429  0.5872
  593MOL0     C81756   7.794  11.048   8.023 -0.5798 -0.3956 -0.2710
  593MOL0     C81757   7.697  11.001   7.917 -0.7058 -0.0566  0.7117
  593MOL0     C81758   7.559  11.058   7.944 -0.4594  0.1892  0.2862
  593MOL0     C81759   7.444  11.021   7.856  0.1102 -0.1915  0.5681
  593MOL0     C81760   7.413  10.883   7.827 -0.2016  0.0581 -0.2937
  593MOL0     C81761   7.386  10.770   7.790 -0.1078 -0.7200  0.5150
  593MOL0     C81762   7.948  11.110   8.267 -1.0289  0.0113 -0.1445
  593MOL0     C81763   8.017  11.134   8.386 -0.3416  0.4674 -0.5552
  593MOL0     C81764   8.108  11.245   8.395  0.0862  0.6235 -0.0814
  593MOL0     H81765   8.261  11.071   8.810 -1.0030 -0.9676  1.0140
  593MOL0     H81766   8.347  11.121   9.038 -0.3239 -1.3738 -1.9961
  593MOL0     H81767   8.040  11.201   9.331  0.3915 -3.0072 -1.0486
  593MOL0     H81768   8.179  11.255   9.428  0.9813  0.2872 -0.0772
  593MOL0     H81769   8.277  11.013   9.338 -0.3476  1.1452 -1.2448
  593MOL0     H81770   8.182  11.042   9.482 -0.4320  1.9632  0.1491
  593MOL0     H81771   7.982  10.974   9.375 -1.7218 -4.7217 -0.6064
  593MOL0     H81772   8.075  10.949   9.219  3.3819  0.5130 -0.1343
  593MOL0     H81773   8.224  10.784   9.360 -1.0184 -1.5512 -2.5750
  593MOL0     H81774   8.119  10.824   9.495 -1.3489  0.0807  0.0601
  593MOL0     H81775   8.018  10.708   9.236  0.3893  1.8458 -1.2564
  593MOL0     H81776   7.931  10.733   9.395 -0.4441  0.6045 -3.2232
  593MOL0     H81777   8.168  10.563   9.336 -1.5582 -0.6170 -2.0716
  593MOL0     H81778   8.097  10.586   9.503 -1.4751 -1.7229 -0.2761
  593MOL0     H81779   7.942  10.471   9.280 -0.6291  1.2873  0.5223
  593MOL0     H81780   7.914  10.483   9.454  0.2833 -0.8929  0.2326
  593MOL0     H81781   8.149  10.321   9.323 -0.4905 -1.5625  1.4913
  593MOL0     H81782   8.119  10.341   9.488 -0.3953 -0.9458  1.3292
  593MOL0     H81783   7.881  10.205   9.192 -0.5535  1.1295  0.8939
  593MOL0     H81784   7.727   9.998   9.159  1.1898  0.6459  0.0424
  593MOL0     H81785   7.701   9.907   9.305 -0.9220 -3.1025 -0.8776
  593MOL0     H81786   7.910   9.882   9.096  0.6261 -0.2596 -0.0530
  593MOL0     H81787   7.934   9.796   9.251  0.0980  0.3281  0.7963
  593MOL0     H81788   7.706   9.700   9.226  0.9452 -1.5688  1.3307
  593MOL0     H81789   7.715   9.738   9.054 -1.0334  2.0618  0.8692
  593MOL0     H81790   7.908   9.584   9.022  2.9486 -1.1904  1.2693
  593MOL0     H81791   7.949   9.605   9.189  0.3839  1.3222 -1.1723
  593MOL0     H81792   8.053   9.427   9.057 -0.1545 -0.0671 -0.0772
  593MOL0     H81793   8.239   9.340   8.997 -1.1510  0.2530 -0.2061
  593MOL0     H81794   8.228   9.174   8.950 -0.5232 -1.4410  1.5994
  593MOL0     H81795   8.297   9.226   9.111  2.1725  0.3907 -1.2717
  593MOL0     H81796   7.931   8.681   9.065 -2.0033 -3.2574  2.5560
  593MOL0     H81797   8.072   8.498   8.974 -3.3652 -2.1324  2.2528
  593MOL0     H81798   8.441   8.361   9.163  0.6428 -0.5868 -1.6838
  593MOL0     H81799   8.306   8.261   9.236 -1.7077  4.6092  1.7769
  593MOL0     H81800   8.457   8.131   9.086 -2.5070  0.9510  4.8495
  593MOL0     H81801   8.311   8.140   8.995  0.2097  0.8044  1.0780
  593MOL0     H81802   8.581   8.269   8.938  1.5099 -3.2610 -2.9636
  593MOL0     H81803   8.440   8.370   8.906 -1.2334 -0.2887  1.3174
  593MOL0     H81804   8.321   8.220   8.769  0.0269  0.8255  0.8366
  593MOL0     H81805   8.458   8.107   8.785  0.9956  0.2272  3.5771
  593MOL0     H81806   8.599   8.303   8.695  1.7909 -3.0303  0.8225
  593MOL0     H81807   8.553   8.175   8.607  2.1450  2.4288  0.4862
  593MOL0     H81808   8.496   8.380   8.486  0.5366  2.6359  2.5669
  593MOL0     H81809   8.388   8.413   8.620  0.6403 -1.1651  1.8418
  593MOL0     H81810   8.249   8.205   8.538  0.5094  1.6687  1.1228
  593MOL0     H81811   8.384   8.157   8.439 -0.5834 -2.0233  2.6558
  593MOL0     H81812   8.171   8.282   8.331 -1.0116  2.3663 -0.2702
  593MOL0     H81813   8.343   8.312   8.285  1.5567 -0.9539  0.8355
  593MOL0     H81814   8.326   8.529   9.310  3.0849  2.6312 -0.1225
  593MOL0     H81815   8.225   8.744   9.370 -1.4348  1.3084  0.8055
  593MOL0     H81816   7.856   9.036   9.275  1.3416 -0.7687  0.9829
  593MOL0     H81817   7.721   9.237   9.254 -1.0135 -2.5207 -2.4665
  593MOL0     H81818   7.988  11.317   9.147 -0.4346 -2.4436  1.5536
  593MOL0     H81819   7.880  11.242   8.925  0.8592  1.4731  0.1096
  593MOL0     H81820   7.881  10.866   8.556 -0.1083  3.5794  2.4473
  593MOL0     H81821   7.775  10.830   8.349 -2.3235  2.2252 -1.0801
  593MOL0     H81822   7.787  11.157   8.029  2.3633 -0.0506 -1.4594
  593MOL0     H81823   7.894  11.036   7.980 -2.6313 -3.0504 -5.0394
  593MOL0     H81824   7.697  10.891   7.917  0.6783 -0.0967  2.1378
  593MOL0     H81825   7.731  11.038   7.820  1.2989 -1.5860  0.7503
  593MOL0     H81826   7.533  11.018   8.042 -0.0508 -1.1058 -0.1195
  593MOL0     H81827   7.566  11.167   7.947  2.5047  0.1028 -0.3783
  593MOL0     H81828   7.460  11.068   7.759 -1.1927  3.7551  2.0871
  593MOL0     H81829   7.346  11.056   7.889  0.4270  2.0252 -0.6557
  593MOL0     H81830   7.356  10.680   7.741  2.9061 -2.5317  1.6771
  593MOL0     H81831   7.974  11.168   8.179 -0.4063 -0.0981 -0.0365
  593MOL0     H81832   8.062  11.335   8.436 -0.4179  0.6717 -0.7311
  593MOL0     H81833   8.194  11.212   8.454  0.0236  0.2014 -0.2219
  593MOL0     H81834   8.152  11.268   8.297  1.7360  2.7886  1.0553
  594MOL0     O81835   7.953   2.031  10.676 -0.8293  0.3665 -0.2063
  594MOL0     C81836   7.858   1.989  10.612  0.4323 -0.0475  0.1656
  594MOL0     O81837   7.754   1.901  10.658  0.3194  0.2731  0.2618
  594MOL0     C81838   7.755   1.856  10.786 -0.2231 -0.8674  0.3364
  594MOL0     C81839   7.635   1.872  10.860 -0.3678  0.1714  1.1244
  594MOL0     C81840   7.641   1.815  10.991  0.8070  0.6430  0.2690
  594MOL0     C81841   7.747   1.731  11.043 -0.4015 -0.1397 -1.1310
  594MOL0     O81842   7.746   1.668  11.170 -0.2390 -0.1042  0.6230
  594MOL0     C81843   7.742   1.523  11.154  0.8410  0.1151 -0.2255
  594MOL0     C81844   7.693   1.445  11.280  0.3647 -0.2893 -0.7578
  594MOL0     C81845   7.697   1.296  11.272 -0.2077 -0.3585  0.8193
  594MOL0     C81846   7.651   1.221  11.386 -0.0460 -0.0724 -0.6236
  594MOL0     C81847   7.718   1.081  11.405 -0.0573  0.2816 -0.0825
  594MOL0     C81848   7.693   1.002  11.536  0.9654  0.2588 -0.1261
  594MOL0     C81849   7.699   1.100  11.657 -0.4167 -0.3087 -0.8222
  594MOL0     C81850   7.694   1.021  11.787 -0.3683 -0.1775  0.0919
  594MOL0     N81851   7.681   1.117  11.898 -0.0987  0.0920 -0.6443
  594MOL0     C81852   7.781   1.176  11.968 -0.1519  0.3518  0.4131
  594MOL0     C81853   7.725   1.218  12.079  0.8529  0.1483 -0.5765
  594MOL0     C81854   7.789   1.286  12.208 -0.3296  0.4846  0.2354
  594MOL0     C81855   7.884   1.193  12.290  0.6802  0.8328 -0.3577
  594MOL0     C81856   7.814   1.174  12.425  0.6515  0.4428 -1.0042
  594MOL0     C81857   7.883   1.060  12.502  0.3700  0.6747  0.3003
  594MOL0     O81858   7.824   1.065  12.623  0.4628 -0.6672 -0.1445
  594MOL0     C81859   7.779   0.948  12.674 -0.3166 -0.5051  0.3869
  594MOL0     C81860   7.872   0.866  12.751  0.6126 -0.5490  0.9125
  594MOL0     C81861   7.824   0.750  12.811  0.8216 -0.2018 -0.5669
  594MOL0     C81862   7.913   0.676  12.905 -0.5002  0.1588  0.3364
  594MOL0     C81863   7.681   0.724  12.823 -0.2305 -0.2957  0.7081
  594MOL0     C81864   7.614   0.604  12.879 -0.2101  0.3512 -0.1066
  594MOL0     O81865   7.480   0.625  12.922  0.2451  0.2416 -0.3743
  594MOL0     C81866   7.415   0.505  12.943 -0.7264 -0.5561  0.5427
  594MOL0     C81867   7.364   0.438  12.824  0.6151 -0.0599 -0.8651
  594MOL0     C81868   7.309   0.317  12.841  0.5619  0.0788  0.4540
  594MOL0     C81869   7.305   0.255  12.969  0.6081  0.0131  0.4843
  594MOL0     O81870   7.258   0.127  12.977  0.0485 -0.0841 -0.0017
  594MOL0     C81871   7.230   0.071  13.103  0.2567  0.6220 -0.3082
  594MOL0     C81872   7.199  -0.080  13.109 -0.1429  0.3153 -0.1767
  594MOL0     C81873   7.091  -0.119  13.011 -0.6019  0.5117 -0.0426
  594MOL0     C81874   7.079  -0.271  13.026 -0.7585  0.0561 -0.1358
  594MOL0     C81875   6.994  -0.335  12.919 -0.3009  0.6956 -0.9268
  594MOL0     C81876   6.995  -0.485  12.946  0.3803  0.7468 -0.0651
  594MOL0     C81877   6.942  -0.563  12.827 -0.3877  0.1004  1.0449
  594MOL0     C81878   6.931  -0.706  12.854 -0.0448  0.4957 -0.5034
  594MOL0    Cl81879   7.082  -0.788  12.923 -0.2295  0.3683 -0.3152
  594MOL0     C81880   7.350   0.327  13.080  0.4392 -0.3868 -1.0012
  594MOL0     C81881   7.405   0.453  13.070 -0.0744  0.1746 -1.1778
  594MOL0     O81882   7.676   0.503  12.895 -0.2614  0.6555  0.4806
  594MOL0     C81883   7.601   0.819  12.756 -0.5742  0.3382  0.3558
  594MOL0     C81884   7.646   0.920  12.681  0.5135 -0.8648  0.2766
  594MOL0     N81885   7.585   1.191  12.079 -0.4572 -0.3947  0.4606
  594MOL0     N81886   7.565   1.143  11.963  0.7381  0.7884 -0.0911
  594MOL0     C81887   7.858   1.722  10.963 -0.7495 -0.1749 -0.3111
  594MOL0     C81888   7.860   1.791  10.841  0.0454 -0.6561 -0.5402
  594MOL0     C81889   7.845   2.018  10.465  0.0393 -0.3984 -0.7082
  594MOL0     C81890   7.711   2.005  10.419 -0.5122  0.3031  0.7562
  594MOL0     C81891   7.685   2.020  10.277  0.1653  0.5683 -1.1642
  594MOL0     C81892   7.787   2.050  10.188  0.4415  0.1945  0.5420
  594MOL0     O81893   7.750   2.051  10.053 -0.3302  0.6555  0.2531
  594MOL0     C81894   7.839   2.091   9.947 -0.3115 -1.1629 -0.1589
  594MOL0     C81895   7.776   2.094   9.813 -0.0417 -0.0219 -1.1044
  594MOL0     C81896   7.866   2.152   9.696  0.3836  0.6606  0.7245
  594MOL0     C81897   7.932   2.285   9.726  0.0181  0.1036 -0.4831
  594MOL0     C81898   8.003   2.342   9.615  0.1193 -1.0537  0.9865
  594MOL0     C81899   8.075   2.384   9.528  0.4604 -0.7081 -0.5976
  594MOL0     C81900   7.923   2.077  10.229 -0.1195 -0.1623 -0.5916
  594MOL0     C81901   7.948   2.060  10.370 -0.2991  0.9654 -0.2507
  594MOL0     C81902   8.085   2.095  10.407  0.3912  0.1215  0.6168
  594MOL0     H81903   7.544   1.901  10.809  0.4974  0.3926 -0.3611
  594MOL0     H81904   7.552   1.822  11.054  0.7370 -0.6023  0.3402
  594MOL0     H81905   7.843   1.490  11.125  1.8270  1.2255  1.7333
  594MOL0     H81906   7.683   1.481  11.072  0.3636 -3.6551  1.8241
  594MOL0     H81907   7.757   1.484  11.360 -0.7026  2.1185 -0.9616
  594MOL0     H81908   7.591   1.477  11.306 -0.5239 -0.6067 -3.5538
  594MOL0     H81909   7.644   1.267  11.181  0.8615  1.5958 -0.5070
  594MOL0     H81910   7.803   1.273  11.262  0.0807  0.4450  1.8547
  594MOL0     H81911   7.651   1.289  11.471  0.6006  0.4853 -1.0674
  594MOL0     H81912   7.549   1.192  11.358  0.0895 -0.0836 -1.1032
  594MOL0     H81913   7.823   1.112  11.403 -0.5361  2.8489  3.8276
  594MOL0     H81914   7.696   1.025  11.313 -0.9549  0.5098 -0.0113
  594MOL0     H81915   7.597   0.949  11.537 -0.5131  2.5740 -2.7706
  594MOL0     H81916   7.776   0.932  11.544  0.6437 -0.4184 -2.1253
  594MOL0     H81917   7.618   1.174  11.662 -0.9224 -0.8698 -0.5702
  594MOL0     H81918   7.796   1.151  11.654 -1.5307  2.1198  1.0259
  594MOL0     H81919   7.617   0.944  11.775  0.7466 -1.5242  1.3152
  594MOL0     H81920   7.784   0.959  11.787  0.0868  0.4651  1.0860
  594MOL0     H81921   7.887   1.186  11.949 -0.5234  1.4549 -1.2123
  594MOL0     H81922   7.705   1.320  12.268 -1.1017  0.5358 -0.8435
  594MOL0     H81923   7.837   1.378  12.175 -0.6500  0.7993  0.6499
  594MOL0     H81924   7.918   1.111  12.226 -1.3684  0.4709 -1.0375
  594MOL0     H81925   7.975   1.252  12.310  0.4423  0.3518  2.7495
  594MOL0     H81926   7.822   1.269  12.479  2.9542  2.4759 -4.5076
  594MOL0     H81927   7.709   1.144  12.422  0.5531  0.4161  1.1792
  594MOL0     H81928   7.884   0.961  12.455 -2.3686  0.9671 -0.5426
  594MOL0     H81929   7.989   1.085  12.516  0.1155  0.8201  2.2805
  594MOL0     H81930   7.978   0.888  12.749  0.8020 -0.7901 -3.8019
  594MOL0     H81931   8.017   0.695  12.876  0.5768  0.2012  3.7572
  594MOL0     H81932   7.909   0.567  12.907  0.5754  0.0481 -1.3329
  594MOL0     H81933   7.907   0.710  13.009  0.0567  1.1716  0.0507
  594MOL0     H81934   7.378   0.481  12.725 -1.7219  0.5977 -0.9567
  594MOL0     H81935   7.278   0.266  12.750  0.5629 -2.5619  1.8293
  594MOL0     H81936   7.313   0.093  13.172 -0.3730  0.1785  0.6061
  594MOL0     H81937   7.140   0.127  13.130 -0.5519  0.1792 -1.9841
  594MOL0     H81938   7.284  -0.148  13.094 -2.1221 -1.9524 -2.1389
  594MOL0     H81939   7.156  -0.089  13.209 -1.1172 -3.0700 -0.7600
  594MOL0     H81940   7.123  -0.095  12.909 -0.7148  2.8098  0.4074
  594MOL0     H81941   6.999  -0.062  13.024 -1.4335 -0.3677 -1.8186
  594MOL0     H81942   7.032  -0.285  13.123 -0.2124 -2.6079 -0.1854
  594MOL0     H81943   7.179  -0.316  13.025 -1.1701 -0.8583 -0.1043
  594MOL0     H81944   6.890  -0.303  12.934  0.2758  2.2704 -0.0194
  594MOL0     H81945   7.024  -0.306  12.818  0.0065 -0.4853 -1.1885
  594MOL0     H81946   6.918  -0.501  13.022  1.3140 -2.8700  0.2923
  594MOL0     H81947   7.094  -0.524  12.973  0.2204  1.9529  2.5221
  594MOL0     H81948   7.000  -0.543  12.736 -1.1388 -0.0183  0.5244
  594MOL0     H81949   6.839  -0.531  12.808 -0.2174 -1.0909 -2.7947
  594MOL0     H81950   6.895  -0.762  12.767 -1.0368 -1.8808  1.3247
  594MOL0     H81951   6.849  -0.733  12.921 -0.9227 -2.0915 -2.4789
  594MOL0     H81952   7.335   0.286  13.179  0.0739  2.2202  0.1047
  594MOL0     H81953   7.410   0.506  13.165 -2.7748 -3.6261  1.3660
  594MOL0     H81954   7.497   0.789  12.746  0.2317 -3.1132  0.8662
  594MOL0     H81955   7.579   0.992  12.635 -0.2034 -1.3034  0.6224
  594MOL0     H81956   7.945   1.671  11.001 -0.0170  0.7134 -0.7319
  594MOL0     H81957   7.952   1.781  10.784  0.3206  0.2874 -0.2801
  594MOL0     H81958   7.627   1.984  10.484 -0.5430 -0.2023  0.5519
  594MOL0     H81959   7.584   2.001  10.241  0.4084 -0.5173 -1.2996
  594MOL0     H81960   7.866   2.195   9.970 -2.6204  0.3781 -3.6134
  594MOL0     H81961   7.922   2.020   9.951  0.4060 -0.3124  0.6408
  594MOL0     H81962   7.695   2.167   9.809  0.6064  0.6672 -2.3393
  594MOL0     H81963   7.739   1.993   9.792 -0.5248  0.1278 -0.9720
  594MOL0     H81964   7.940   2.077   9.667  0.1472  1.0688 -1.0146
  594MOL0     H81965   7.796   2.174   9.615 -2.9008 -0.2227  3.1155
  594MOL0     H81966   8.015   2.272   9.797 -1.8485 -0.8038  1.6751
  594MOL0     H81967   7.852   2.350   9.761 -1.7644 -2.6279  0.9116
  594MOL0     H81968   8.157   2.402   9.462  1.1351 -0.0834  0.3846
  594MOL0     H81969   7.997   2.108  10.155  1.4690 -0.0438  0.9775
  594MOL0     H81970   8.151   2.078  10.321 -0.9398  4.6962 -1.6747
  594MOL0     H81971   8.088   2.204  10.416 -0.7674  0.4646 -1.9548
  594MOL0     H81972   8.127   2.048  10.496  0.7041  0.9237  0.8946
  595MOL0     O81973   1.586  11.347  10.058  0.4810 -0.0869  0.1663
  595MOL0     C81974   1.661  11.352  10.159 -0.2247 -0.4172  0.4477
  595MOL0     O81975   1.616  11.361  10.288 -0.3769  0.3640  1.3173
  595MOL0     C81976   1.492  11.369  10.338  0.4095 -0.5035 -0.2243
  595MOL0     C81977   1.368  11.366  10.264 -0.0673 -0.0016  0.8265
  595MOL0     C81978   1.244  11.362  10.330  0.1846 -0.0618 -0.8042
  595MOL0     C81979   1.232  11.333  10.462 -0.4517  0.6291  0.6002
  595MOL0     O81980   1.104  11.303  10.507  0.9594 -0.3859  0.1866
  595MOL0     C81981   1.091  11.255  10.637  0.3776 -0.5913 -0.1988
  595MOL0     C81982   0.945  11.216  10.640  0.6658 -0.2803 -0.2531
  595MOL0     C81983   0.902  11.187  10.783 -0.1559  0.2539 -1.0921
  595MOL0     C81984   0.751  11.161  10.792 -0.1130  0.7298 -0.0439
  595MOL0     C81985   0.698  11.106  10.933 -0.1881 -0.4964 -1.3978
  595MOL0     C81986   0.744  11.183  11.052  0.2257  0.2113 -0.5700
  595MOL0     C81987   0.690  11.135  11.178 -0.9552 -0.5740 -0.6074
  595MOL0     C81988   0.544  11.174  11.208 -0.1428  0.4460  0.7409
  595MOL0     N81989   0.499  11.091  11.325  0.4673 -0.0001 -0.0615
  595MOL0     C81990   0.467  10.959  11.299  0.1533  0.6847 -0.1000
  595MOL0     C81991   0.436  10.909  11.423 -0.3594  0.3320  1.1043
  595MOL0     C81992   0.372  10.767  11.444 -0.7900  0.2951 -0.9592
  595MOL0     C81993   0.312  10.766  11.584 -0.5443 -0.3468  0.5085
  595MOL0     C81994   0.263  10.623  11.610  0.7966  0.0624  0.0601
  595MOL0     C81995   0.374  10.519  11.597  0.3097  1.1308 -0.0224
  595MOL0     O81996   0.483  10.542  11.695  0.0544 -0.1736  0.4110
  595MOL0     C81997   0.617  10.520  11.667  0.7657  0.3865  0.2931
  595MOL0     C81998   0.708  10.557  11.766  0.0048  0.6048  0.2767
  595MOL0     C81999   0.833  10.501  11.771 -0.0773  0.0473 -0.2280
  595MOL0     C82000   0.921  10.552  11.891  0.9710 -0.5047  0.4078
  595MOL0     C82001   0.877  10.423  11.657  0.6850 -0.5419 -0.5675
  595MOL0     C82002   1.020  10.389  11.630 -0.8073  0.7452 -0.2225
  595MOL0     O82003   1.120  10.439  11.713  0.3058 -0.0231  0.1408
  595MOL0     C82004   1.251  10.412  11.711  0.3261  0.4581  0.5687
  595MOL0     C82005   1.305  10.386  11.835 -0.2021  0.0973  0.9704
  595MOL0     C82006   1.439  10.341  11.837 -0.5768 -0.8635  0.2854
  595MOL0     C82007   1.516  10.322  11.717  0.0907 -0.5812 -0.4040
  595MOL0     O82008   1.638  10.252  11.723  0.0725  0.6029 -0.6029
  595MOL0     C82009   1.713  10.244  11.597  0.0178  0.4291  0.4268
  595MOL0     C82010   1.836  10.172  11.641 -0.7969  0.0707  0.4860
  595MOL0     C82011   1.803  10.017  11.631 -0.2278  0.4108 -0.8275
  595MOL0     C82012   1.913   9.945  11.705 -0.2942  0.9412 -0.4506
  595MOL0     C82013   1.891   9.796  11.698 -1.5256  0.4984  0.1431
  595MOL0     C82014   2.000   9.705  11.780  0.9252  0.7162 -0.3813
  595MOL0     C82015   2.146   9.733  11.762  1.4495 -0.5237  0.7944
  595MOL0     C82016   2.244   9.618  11.802  0.6002 -0.0144 -0.9304
  595MOL0    Cl82017   2.420   9.665  11.782 -0.4210 -0.4135  0.2898
  595MOL0     C82018   1.460  10.362  11.601 -0.5393  0.9463 -0.3322
  595MOL0     C82019   1.325  10.403  11.596  0.0033 -0.3877  0.0716
  595MOL0     O82020   1.033  10.306  11.540 -0.0345 -0.5246 -0.3280
  595MOL0     C82021   0.786  10.386  11.564  0.6704 -0.0302  0.4889
  595MOL0     C82022   0.651  10.429  11.564 -0.5188  0.7246 -0.2480
  595MOL0     N82023   0.461  11.008  11.514 -0.4398  0.3990  0.7565
  595MOL0     N82024   0.492  11.123  11.458 -0.3512 -0.2662  0.1048
  595MOL0     C82025   1.353  11.354  10.535  0.5442  0.0624 -0.6040
  595MOL0     C82026   1.477  11.374  10.475  0.5548 -0.8083 -0.2948
  595MOL0     C82027   1.808  11.382  10.144 -0.0475 -1.0286 -0.0020
  595MOL0     C82028   1.849  11.461  10.035  0.0572  1.4018  0.0639
  595MOL0     C82029   1.985  11.488  10.015 -0.0465  0.1439 -0.4923
  595MOL0     C82030   2.078  11.450  10.104  0.7673 -1.1433 -0.3069
  595MOL0     O82031   2.199  11.497  10.089 -0.4700 -0.8781  0.2295
  595MOL0     C82032   2.300  11.486  10.190  0.2526 -0.2698 -0.0930
  595MOL0     C82033   2.294  11.592  10.299  0.3649 -0.2924  1.1163
  595MOL0     C82034   2.416  11.571  10.394 -0.4090  0.5855  0.7664
  595MOL0     C82035   2.549  11.642  10.347  0.1465 -0.3956  1.2211
  595MOL0     C82036   2.667  11.626  10.431 -0.2659  0.2205  0.3782
  595MOL0     C82037   2.766  11.604  10.495 -0.0651 -0.7721 -0.4274
  595MOL0     C82038   2.036  11.378  10.218 -0.8564 -0.8834  0.1956
  595MOL0     C82039   1.905  11.342  10.243  1.4205 -0.1583 -0.6036
  595MOL0     C82040   1.882  11.249  10.366 -0.1150  0.0900  0.0091
  595MOL0     H82041   1.367  11.368  10.155  0.4312  0.5036  0.8231
  595MOL0     H82042   1.145  11.350  10.285 -0.2699  0.9037 -0.0937
  595MOL0     H82043   1.102  11.335  10.710 -1.2126  0.2211 -0.8067
  595MOL0     H82044   1.152  11.167  10.661 -2.0131 -1.7755  2.0363
  595MOL0     H82045   0.899  11.311  10.614  1.0308  0.5003  1.7220
  595MOL0     H82046   0.924  11.137  10.568  3.3538  0.0831 -1.5895
  595MOL0     H82047   0.953  11.100  10.823  3.0074  3.3299  2.3405
  595MOL0     H82048   0.936  11.259  10.859  0.8069 -2.8921  1.6877
  595MOL0     H82049   0.699  11.256  10.783 -1.9561 -0.3947 -2.3174
  595MOL0     H82050   0.715  11.097  10.710 -2.9905  2.4151 -0.2387
  595MOL0     H82051   0.723  11.001  10.953  0.1471  0.1225  1.9138
  595MOL0     H82052   0.589  11.108  10.925 -0.2443 -1.0942 -0.8347
  595MOL0     H82053   0.853  11.174  11.044  0.5939  3.5775 -1.0196
  595MOL0     H82054   0.718  11.289  11.040  2.2442  0.7462 -0.5773
  595MOL0     H82055   0.740  11.168  11.270 -2.1205 -3.2075  1.1161
  595MOL0     H82056   0.708  11.028  11.169 -0.2365 -0.3241 -2.5955
  595MOL0     H82057   0.546  11.282  11.229 -2.0813  0.8544 -0.8805
  595MOL0     H82058   0.477  11.173  11.122  0.2458  3.1457  0.3118
  595MOL0     H82059   0.463  10.903  11.206 -4.3597 -0.7282  0.6788
  595MOL0     H82060   0.456  10.699  11.429  0.3471  0.8980  2.0545
  595MOL0     H82061   0.294  10.757  11.368 -0.9910 -0.0721 -0.7057
  595MOL0     H82062   0.392  10.790  11.655  0.7474 -0.1970 -0.9367
  595MOL0     H82063   0.233  10.842  11.584  1.7378  2.2371 -1.1831
  595MOL0     H82064   0.236  10.621  11.716  0.0035  3.0358  0.0091
  595MOL0     H82065   0.175  10.600  11.550 -2.5900  4.2597  2.8112
  595MOL0     H82066   0.331  10.419  11.614  0.0681  1.5037  1.7838
  595MOL0     H82067   0.407  10.516  11.493  0.4987  0.4635  0.0501
  595MOL0     H82068   0.662  10.619  11.843 -4.8999 -2.7525  0.5668
  595MOL0     H82069   1.002  10.601  11.838 -1.2011  2.6918 -0.2048
  595MOL0     H82070   0.964  10.471  11.952  1.7333 -0.8326 -0.5464
  595MOL0     H82071   0.861  10.622  11.950  2.2432  2.3201 -1.4386
  595MOL0     H82072   1.240  10.390  11.922 -0.0947  1.3482  1.0187
  595MOL0     H82073   1.497  10.305  11.921 -0.0963 -0.4378  0.1396
  595MOL0     H82074   1.661  10.199  11.512  2.9687  1.5113 -2.1575
  595MOL0     H82075   1.739  10.348  11.575 -1.0041  0.6999  0.4783
  595MOL0     H82076   1.916  10.202  11.572 -1.2582  4.6170  1.5884
  595MOL0     H82077   1.863  10.194  11.745  2.1796 -0.8270 -0.0054
  595MOL0     H82078   1.800   9.991  11.525  3.6906 -1.5579 -0.6220
  595MOL0     H82079   1.707   9.983  11.672 -0.5944  1.4538 -0.7791
  595MOL0     H82080   1.897   9.979  11.808 -3.0764  0.6634 -0.7194
  595MOL0     H82081   2.014   9.970  11.669 -1.5817  1.5003 -4.0939
  595MOL0     H82082   1.790   9.776  11.734 -0.7138  0.4761  2.5671
  595MOL0     H82083   1.905   9.763  11.595  1.1539 -0.2828  0.6857
  595MOL0     H82084   1.985   9.604  11.739 -1.9972  1.4658 -1.4863
  595MOL0     H82085   1.974   9.701  11.886 -0.1353  0.4864 -0.6333
  595MOL0     H82086   2.163   9.824  11.819 -0.5388  0.6389 -0.3344
  595MOL0     H82087   2.161   9.774  11.661  0.0246  0.7855  1.0816
  595MOL0     H82088   2.225   9.534  11.736 -3.2641 -0.7600  0.8796
  595MOL0     H82089   2.232   9.591  11.907  1.7193 -0.5376 -0.9219
  595MOL0     H82090   1.512  10.346  11.507 -1.5075 -3.4079 -0.3491
  595MOL0     H82091   1.273  10.405  11.501  1.7417  0.4136 -0.9049
  595MOL0     H82092   0.813  10.324  11.480 -4.3435  0.0638 -1.4853
  595MOL0     H82093   0.585  10.397  11.484  0.8277 -1.2328 -0.6538
  595MOL0     H82094   1.354  11.347  10.643 -0.5785 -0.3965 -0.6097
  595MOL0     H82095   1.559  11.378  10.547  0.6777 -0.3930 -0.4510
  595MOL0     H82096   1.771  11.490   9.964 -0.1767 -1.2550 -0.8854
  595MOL0     H82097   2.025  11.536   9.926  4.0711 -0.8783  0.5810
  595MOL0     H82098   2.307  11.389  10.242  3.9851 -1.3811 -2.2742
  595MOL0     H82099   2.394  11.493  10.135 -0.0209  3.2447 -0.3275
  595MOL0     H82100   2.201  11.588  10.358 -1.6551  0.2692 -1.8332
  595MOL0     H82101   2.295  11.690  10.252  2.3370 -0.7204  0.1923
  595MOL0     H82102   2.386  11.611  10.492 -1.8861 -1.7944  1.3706
  595MOL0     H82103   2.428  11.465  10.420  2.0388  1.5555  4.4022
  595MOL0     H82104   2.537  11.751  10.354  2.5026  0.0098  0.2681
  595MOL0     H82105   2.574  11.615  10.244  0.2206 -1.2769  1.4662
  595MOL0     H82106   2.859  11.579  10.543  1.0687  1.5351 -1.2689
  595MOL0     H82107   2.110  11.350  10.292  1.7679  0.7020 -1.6500
  595MOL0     H82108   1.840  11.155  10.330 -2.0052  1.0123 -0.3170
  595MOL0     H82109   1.973  11.224  10.422  0.3290 -1.4804 -1.3135
  595MOL0     H82110   1.820  11.294  10.444  1.5178  3.7368 -0.6161
  596MOL0     O82111   4.755   5.199  10.082  0.7699 -0.3092  0.2355
  596MOL0     C82112   4.752   5.238  10.195 -0.0061 -0.3740  0.7888
  596MOL0     O82113   4.855   5.231  10.286 -0.2828  0.7020 -0.2213
  596MOL0     C82114   4.976   5.163  10.275 -0.3166  0.1004  0.7835
  596MOL0     C82115   5.058   5.187  10.382  0.3062  0.6683  0.8414
  596MOL0     C82116   5.184   5.124  10.386 -0.4920 -0.5143  1.1264
  596MOL0     C82117   5.236   5.046  10.284 -0.4553  0.2671  0.2800
  596MOL0     O82118   5.368   5.003  10.297  0.1472 -0.8618  0.2945
  596MOL0     C82119   5.408   4.863  10.271  0.5845  0.9657 -0.1249
  596MOL0     C82120   5.511   4.872  10.165  0.0140  0.0055 -0.6252
  596MOL0     C82121   5.648   4.847  10.220  0.2080  0.7496 -0.0889
  596MOL0     C82122   5.757   4.851  10.113 -0.1633 -0.5740 -0.0181
  596MOL0     C82123   5.884   4.793  10.172  0.0587  0.4016  0.3010
  596MOL0     C82124   6.003   4.794  10.070 -0.0586 -0.6353  0.9854
  596MOL0     C82125   6.099   4.679  10.115 -0.2747  0.2852  0.3673
  596MOL0     C82126   6.174   4.694  10.249  0.0596  0.1992 -0.0413
  596MOL0     N82127   6.187   4.559  10.302  0.2386 -0.1746  0.0985
  596MOL0     C82128   6.089   4.496  10.372 -0.2305 -0.0596  0.1541
  596MOL0     C82129   6.140   4.370  10.397 -0.6570  0.2703 -0.3400
  596MOL0     C82130   6.054   4.268  10.463  0.7955 -0.4463  0.3499
  596MOL0     C82131   6.097   4.245  10.614 -0.6280  0.0416 -0.3125
  596MOL0     C82132   6.086   4.377  10.698 -0.4895 -0.1645 -0.2147
  596MOL0     C82133   6.130   4.363  10.841  0.7749  0.4264 -0.4272
  596MOL0     O82134   6.113   4.491  10.914  0.1247 -0.0479 -0.5019
  596MOL0     C82135   6.138   4.499  11.049 -0.5344  0.3028  0.3502
  596MOL0     C82136   6.206   4.389  11.115  0.2946  0.3128 -0.0596
  596MOL0     C82137   6.236   4.391  11.258 -0.4805 -0.1922  0.4440
  596MOL0     C82138   6.310   4.270  11.316 -0.6123 -0.4718 -0.7646
  596MOL0     C82139   6.196   4.502  11.336 -0.0805  1.0248  0.4104
  596MOL0     C82140   6.226   4.514  11.477 -0.9165 -0.2474 -0.0839
  596MOL0     O82141   6.157   4.455  11.570 -0.3825 -0.8149 -0.4282
  596MOL0     C82142   6.188   4.493  11.700 -0.4083  0.9618  1.1107
  596MOL0     C82143   6.116   4.588  11.771  0.2746 -1.0122 -1.0619
  596MOL0     C82144   6.141   4.593  11.911 -0.7969  0.0875 -0.6410
  596MOL0     C82145   6.237   4.516  11.982  0.0660 -0.7047  0.3752
  596MOL0     O82146   6.240   4.525  12.124  0.2852  0.0095 -0.1145
  596MOL0     C82147   6.284   4.651  12.181  0.3714 -0.0187 -0.0408
  596MOL0     C82148   6.434   4.657  12.205 -0.7223  0.9407  0.5369
  596MOL0     C82149   6.458   4.800  12.264  0.1968  0.0025  0.4173
  596MOL0     C82150   6.617   4.818  12.279 -0.0837 -0.1634  1.5260
  596MOL0     C82151   6.648   4.949  12.344  0.4178 -0.2867 -0.5422
  596MOL0     C82152   6.794   4.994  12.322 -0.3302 -0.1029  0.1073
  596MOL0     C82153   6.834   5.132  12.386 -0.2559 -0.6068  0.0589
  596MOL0     C82154   6.789   5.145  12.535  0.0726 -0.8996  0.8048
  596MOL0    Cl82155   6.874   5.012  12.621 -0.0066  0.4589  0.2573
  596MOL0     C82156   6.284   4.411  11.910  0.4339  0.5713  0.8376
  596MOL0     C82157   6.269   4.402  11.774  0.7958  1.0876 -0.3459
  596MOL0     O82158   6.317   4.595  11.494 -0.1393 -0.5810  1.0800
  596MOL0     C82159   6.147   4.611  11.265 -0.0566 -0.5720  0.4714
  596MOL0     C82160   6.118   4.611  11.121 -0.2742  0.1912 -1.0516
  596MOL0     N82161   6.269   4.357  10.343  0.5949 -0.1112 -0.4371
  596MOL0     N82162   6.287   4.475  10.287 -0.8409  0.6039  0.4875
  596MOL0     C82163   5.142   5.014  10.184 -0.2713 -0.3637 -0.1763
  596MOL0     C82164   5.010   5.067  10.178 -0.4833  0.3670 -0.1616
  596MOL0     C82165   4.634   5.310  10.246  0.3990  0.5591 -0.6055
  596MOL0     C82166   4.580   5.405  10.165  0.3798 -0.1731 -0.3365
  596MOL0     C82167   4.463   5.466  10.191  0.1231  1.4653  0.3752
  596MOL0     C82168   4.396   5.429  10.313  0.5125 -0.4455  0.8067
  596MOL0     O82169   4.263   5.467  10.332  0.1053 -0.4829  0.1250
  596MOL0     C82170   4.187   5.546  10.227  0.6341 -0.9301  0.2663
  596MOL0     C82171   4.036   5.559  10.242 -0.5712 -0.1829 -0.4910
  596MOL0     C82172   3.984   5.672  10.146 -0.2698 -0.9895  0.1832
  596MOL0     C82173   3.835   5.698  10.162  0.7574 -0.1930 -0.3001
  596MOL0     C82174   3.790   5.725  10.026  0.3410  0.5216 -0.0117
  596MOL0     C82175   3.740   5.733   9.917  0.8143 -0.1211 -0.3176
  596MOL0     C82176   4.454   5.339  10.406  0.9022  0.4224 -0.8650
  596MOL0     C82177   4.573   5.277  10.373 -0.0742 -0.6249  0.1161
  596MOL0     C82178   4.630   5.172  10.465  0.0543  1.1708  0.7644
  596MOL0     H82179   5.036   5.269  10.449 -0.4483  1.4542 -0.3466
  596MOL0     H82180   5.256   5.144  10.465  2.2113  1.6494 -1.6452
  596MOL0     H82181   5.314   4.815  10.243  0.8237  0.1433  0.4210
  596MOL0     H82182   5.441   4.814  10.363  1.1881 -1.5105 -1.5689
  596MOL0     H82183   5.482   4.799  10.089 -1.4331  0.0375 -0.1321
  596MOL0     H82184   5.506   4.975  10.129 -1.5977  1.3954  3.1401
  596MOL0     H82185   5.674   4.920  10.297  1.0419 -1.1160  1.4710
  596MOL0     H82186   5.656   4.751  10.271  3.3455  0.8569 -0.1723
  596MOL0     H82187   5.717   4.790  10.031  0.9516 -3.7739  1.6652
  596MOL0     H82188   5.772   4.954  10.078 -0.5627 -0.8329 -0.9868
  596MOL0     H82189   5.860   4.689  10.194 -1.6186 -0.3179 -3.9676
  596MOL0     H82190   5.901   4.844  10.268 -0.3609  2.0375 -0.4561
  596MOL0     H82191   5.960   4.763   9.974  0.1867  3.0778 -0.4887
  596MOL0     H82192   6.041   4.891  10.037 -1.5436 -0.6623 -1.0472
  596MOL0     H82193   6.186   4.659  10.051 -0.3356  1.3312 -0.0620
  596MOL0     H82194   6.028   4.595  10.120 -1.0887  0.8993 -0.4805
  596MOL0     H82195   6.271   4.737  10.223  0.5870 -1.4436 -0.9687
  596MOL0     H82196   6.129   4.765  10.318  0.4337  0.7512 -0.3571
  596MOL0     H82197   5.990   4.530  10.399 -0.3952 -3.0624  4.2928
  596MOL0     H82198   6.064   4.168  10.419  0.6167 -1.4610  2.4981
  596MOL0     H82199   5.953   4.305  10.447  1.4673  1.2714 -0.1808
  596MOL0     H82200   6.032   4.180  10.674  1.8702  0.1040  2.7358
  596MOL0     H82201   6.204   4.224  10.619 -0.4907  0.4559 -1.3332
  596MOL0     H82202   6.147   4.450  10.644 -2.0703 -0.1521 -2.0699
  596MOL0     H82203   5.985   4.415  10.683 -0.1149  0.6747 -0.6825
  596MOL0     H82204   6.071   4.279  10.879  1.2272 -1.3759 -3.3769
  596MOL0     H82205   6.234   4.330  10.845  0.5229 -0.4378 -0.7772
  596MOL0     H82206   6.239   4.301  11.062 -0.7205 -0.3113  0.3266
  596MOL0     H82207   6.257   4.174  11.323 -2.7298  0.7649  3.5797
  596MOL0     H82208   6.328   4.292  11.421  2.3826 -2.4463 -0.7441
  596MOL0     H82209   6.411   4.266  11.274  1.3613  1.0963  3.2856
  596MOL0     H82210   6.055   4.664  11.723  0.8477 -0.3516 -0.7548
  596MOL0     H82211   6.081   4.658  11.974 -1.4747 -0.5205 -0.6453
  596MOL0     H82212   6.272   4.735  12.112  1.9897  1.3951  1.3148
  596MOL0     H82213   6.216   4.658  12.266  0.0712  0.2385 -0.3003
  596MOL0     H82214   6.444   4.574  12.276 -0.8378  0.8057  0.3934
  596MOL0     H82215   6.499   4.635  12.120 -0.0508  1.9694  0.7619
  596MOL0     H82216   6.421   4.809  12.366 -1.4521  1.6870 -0.2680
  596MOL0     H82217   6.402   4.863  12.194 -0.7723  1.3288  2.3201
  596MOL0     H82218   6.659   4.817  12.179 -1.7854 -2.4959  0.7341
  596MOL0     H82219   6.659   4.743  12.347  2.7211 -0.0885 -0.0137
  596MOL0     H82220   6.579   5.026  12.309  1.5308 -0.3859 -3.2234
  596MOL0     H82221   6.619   4.930  12.448 -1.5517 -1.4725 -1.2526
  596MOL0     H82222   6.804   4.989  12.213  0.3798  0.7107  0.1255
  596MOL0     H82223   6.854   4.911  12.359  0.5576 -2.3571 -5.3194
  596MOL0     H82224   6.799   5.213  12.322 -0.5743  0.3867  1.4450
  596MOL0     H82225   6.943   5.140  12.388 -0.0485 -0.7671 -3.6591
  596MOL0     H82226   6.680   5.152  12.541  0.1301  0.2174  0.6864
  596MOL0     H82227   6.830   5.236  12.579 -0.0064 -0.0284 -0.8280
  596MOL0     H82228   6.326   4.331  11.969 -2.7835 -0.8739  1.4051
  596MOL0     H82229   6.301   4.313  11.720 -3.1444  0.8350 -2.7082
  596MOL0     H82230   6.133   4.703  11.321  2.4945 -0.3887  0.9302
  596MOL0     H82231   6.064   4.694  11.076  0.0460  1.3495  0.6006
  596MOL0     H82232   5.186   4.949  10.109  0.8978  1.9426 -1.6505
  596MOL0     H82233   4.951   5.046  10.089  1.0489  2.7537 -1.8613
  596MOL0     H82234   4.617   5.419  10.064  0.3134 -0.2263 -0.3674
  596MOL0     H82235   4.425   5.526  10.109  0.1205 -0.2744 -0.9425
  596MOL0     H82236   4.214   5.652  10.240  0.9749 -1.0901  0.9127
  596MOL0     H82237   4.217   5.519  10.126  0.7103  3.9319 -1.2922
  596MOL0     H82238   4.002   5.582  10.343 -3.4947 -0.0175 -1.4203
  596MOL0     H82239   3.992   5.463  10.214 -0.5123 -0.6659  0.9846
  596MOL0     H82240   4.033   5.767  10.168  0.1539 -0.9425 -0.9053
  596MOL0     H82241   4.025   5.660  10.045 -0.2520  0.5942 -0.0246
  596MOL0     H82242   3.824   5.785  10.227  1.6290  0.3352 -0.8476
  596MOL0     H82243   3.785   5.612  10.208  1.6428 -0.5255  0.0540
  596MOL0     H82244   3.702   5.746   9.818  2.8515 -0.4513 -1.1999
  596MOL0     H82245   4.387   5.321  10.489 -4.6688  4.9996 -3.6194
  596MOL0     H82246   4.738   5.161  10.458 -0.2952 -2.6778 -2.3467
  596MOL0     H82247   4.591   5.184  10.566 -1.1550 -1.0088  0.6273
  596MOL0     H82248   4.604   5.073  10.425  3.8771  0.0957  0.5723
  597MOL0     O82249   1.380   7.768   6.510 -0.6248  0.2224  0.0185
  597MOL0     C82250   1.504   7.758   6.503  0.2867 -0.5126 -0.0887
  597MOL0     O82251   1.595   7.824   6.584 -0.3160  0.2801  0.2496
  597MOL0     C82252   1.566   7.916   6.685  0.2837  0.4323 -0.3784
  597MOL0     C82253   1.447   7.993   6.704 -0.1146 -0.1803  0.0810
  597MOL0     C82254   1.443   8.086   6.810  0.9656 -0.4304  0.1684
  597MOL0     C82255   1.553   8.108   6.892 -1.0812  0.8032  0.3555
  597MOL0     O82256   1.569   8.211   6.982 -0.4514 -0.2348  0.0821
  597MOL0     C82257   1.471   8.313   7.002  0.9329 -0.1386  0.3080
  597MOL0     C82258   1.360   8.259   7.103  0.2509 -0.1301 -0.7093
  597MOL0     C82259   1.263   8.370   7.149 -0.4729  0.6175 -0.5379
  597MOL0     C82260   1.314   8.459   7.266 -0.6952  0.4063  0.2106
  597MOL0     C82261   1.203   8.553   7.316 -0.7011  0.7588 -0.7702
  597MOL0     C82262   1.237   8.613   7.444 -0.5026 -0.1367  0.0567
  597MOL0     C82263   1.384   8.674   7.438  0.5938  0.0161 -1.2961
  597MOL0     C82264   1.406   8.752   7.574 -1.0083  1.0434  0.0412
  597MOL0     N82265   1.527   8.833   7.570 -0.0396 -0.1369  0.5399
  597MOL0     C82266   1.512   8.959   7.525  0.6162 -0.0715 -0.2167
  597MOL0     C82267   1.632   8.994   7.499 -1.0242 -0.6061 -0.7577
  597MOL0     C82268   1.686   9.124   7.446 -0.0277  0.2095 -0.1803
  597MOL0     C82269   1.642   9.120   7.301 -0.2525 -0.0832  0.1524
  597MOL0     C82270   1.762   9.075   7.211  0.1079 -0.2621 -0.4427
  597MOL0     C82271   1.722   9.040   7.075  0.0568 -0.6192  0.8271
  597MOL0     O82272   1.659   9.157   7.010  0.5871  0.5308  0.1999
  597MOL0     C82273   1.582   9.130   6.896 -0.6429  0.3094 -0.1991
  597MOL0     C82274   1.504   9.238   6.842  0.0193 -0.5101 -0.5995
  597MOL0     C82275   1.441   9.221   6.718  0.6893 -0.2189  0.5660
  597MOL0     C82276   1.373   9.344   6.660  0.3859 -0.2586 -0.4728
  597MOL0     C82277   1.436   9.087   6.650  0.0139  0.0125 -0.8888
  597MOL0     C82278   1.377   9.070   6.515 -0.6420  0.5998  0.0929
  597MOL0     O82279   1.420   8.953   6.443  0.9673 -0.0868 -0.2452
  597MOL0     C82280   1.384   8.941   6.306 -0.0696 -0.5124  0.0808
  597MOL0     C82281   1.417   9.040   6.217  0.3320 -0.4341 -1.1282
  597MOL0     C82282   1.408   9.027   6.078  0.3320 -0.3936  0.4779
  597MOL0     C82283   1.386   8.896   6.028  0.2927 -1.3918 -0.0220
  597MOL0     O82284   1.412   8.875   5.892 -0.2787 -0.7345 -0.3872
  597MOL0     C82285   1.322   8.941   5.794 -1.0229  0.2246 -0.4921
  597MOL0     C82286   1.199   8.870   5.740  0.5443  0.5367  0.0569
  597MOL0     C82287   1.215   8.718   5.755  0.3297  0.7014  1.6995
  597MOL0     C82288   1.321   8.640   5.687  0.5800 -0.4551  0.3447
  597MOL0     C82289   1.299   8.640   5.536 -0.1135  0.3035 -0.3873
  597MOL0     C82290   1.205   8.529   5.493 -0.4929 -0.3973  0.0189
  597MOL0     C82291   1.206   8.495   5.342  0.3276 -0.6538  0.2386
  597MOL0     C82292   1.187   8.634   5.260  0.0252  0.3305 -1.0059
  597MOL0    Cl82293   1.009   8.682   5.276 -0.0899 -0.6339  0.2093
  597MOL0     C82294   1.370   8.790   6.113  0.5421  0.1076 -0.0666
  597MOL0     C82295   1.361   8.818   6.253  0.2577 -0.3291  0.6257
  597MOL0     O82296   1.307   9.152   6.465 -0.0532 -0.3496 -0.0590
  597MOL0     C82297   1.515   8.979   6.710  0.1674 -0.1738 -1.1089
  597MOL0     C82298   1.589   9.007   6.824 -1.1137  0.8942  0.1967
  597MOL0     N82299   1.721   8.894   7.537 -0.4845 -0.7567 -0.2686
  597MOL0     N82300   1.660   8.792   7.581  0.4040  0.2863 -0.0997
  597MOL0     C82301   1.664   8.029   6.874  0.5915 -0.0939 -0.4266
  597MOL0     C82302   1.669   7.934   6.777 -0.3624  0.1428  1.2732
  597MOL0     C82303   1.569   7.670   6.411  0.2171  0.6658 -0.0976
  597MOL0     C82304   1.680   7.593   6.457  0.0330  0.2906  0.3331
  597MOL0     C82305   1.747   7.507   6.374 -0.1316  0.4408  0.4863
  597MOL0     C82306   1.703   7.474   6.251 -0.2046 -0.0717  0.7591
  597MOL0     O82307   1.775   7.378   6.184 -0.4101  0.4681  0.3989
  597MOL0     C82308   1.743   7.333   6.054 -0.2782  0.5493 -1.0591
  597MOL0     C82309   1.784   7.191   6.054  0.7826  0.1033 -0.5495
  597MOL0     C82310   1.722   7.098   6.160 -0.3804  0.1004 -0.6745
  597MOL0     C82311   1.778   6.956   6.147 -0.8979  0.4831  0.2654
  597MOL0     C82312   1.673   6.863   6.175  0.3208  0.0361 -0.1707
  597MOL0     C82313   1.592   6.776   6.190  0.8236  0.2490  0.2111
  597MOL0     C82314   1.582   7.536   6.208  0.1583  0.5103  0.2394
  597MOL0     C82315   1.514   7.633   6.285 -1.3371  0.1870  0.0844
  597MOL0     C82316   1.387   7.684   6.221  0.0649  0.0692 -1.1628
  597MOL0     H82317   1.363   7.985   6.636  0.7793  3.0375 -1.6095
  597MOL0     H82318   1.367   8.164   6.811  0.5164 -0.8101 -1.6290
  597MOL0     H82319   1.420   8.347   6.911  3.6350  0.2058 -1.1845
  597MOL0     H82320   1.529   8.398   7.040  0.9810  0.7716 -1.6514
  597MOL0     H82321   1.296   8.182   7.059 -0.0344  0.1146 -0.7215
  597MOL0     H82322   1.418   8.214   7.184 -0.3305 -1.3323 -0.9368
  597MOL0     H82323   1.240   8.421   7.055 -1.4282  2.4405  0.6212
  597MOL0     H82324   1.180   8.311   7.187  1.8381 -4.3093 -2.2556
  597MOL0     H82325   1.336   8.399   7.354 -2.0399 -0.3214  0.0760
  597MOL0     H82326   1.409   8.506   7.238  1.9124 -4.5019 -0.2402
  597MOL0     H82327   1.103   8.511   7.331 -0.0117 -0.1553  1.7069
  597MOL0     H82328   1.192   8.628   7.236 -1.8262 -0.2534 -1.6062
  597MOL0     H82329   1.164   8.692   7.463 -0.0033  0.3747 -0.1343
  597MOL0     H82330   1.233   8.527   7.511 -0.4657 -1.4377 -1.5287
  597MOL0     H82331   1.398   8.740   7.352 -0.1091 -0.4998 -1.8111
  597MOL0     H82332   1.465   8.600   7.442 -1.2709 -2.0998  2.0555
  597MOL0     H82333   1.317   8.804   7.612 -1.1579  0.7032  0.1637
  597MOL0     H82334   1.433   8.676   7.648 -3.6128  0.4189  0.4458
  597MOL0     H82335   1.426   9.024   7.514  0.9996  0.5155  0.2182
  597MOL0     H82336   1.795   9.129   7.458 -0.3797  2.2475  4.1705
  597MOL0     H82337   1.638   9.204   7.503 -0.0264  1.2918 -1.6137
  597MOL0     H82338   1.556   9.054   7.291  0.4401 -1.2012  1.2935
  597MOL0     H82339   1.603   9.219   7.274 -1.4655 -0.1944  1.3272
  597MOL0     H82340   1.834   9.157   7.214 -0.3573  0.1533 -0.4824
  597MOL0     H82341   1.805   8.986   7.257 -0.6712  0.5250  2.0278
  597MOL0     H82342   1.813   9.009   7.023 -1.1090 -0.4290 -1.4499
  597MOL0     H82343   1.651   8.958   7.066 -1.6694  1.0148 -2.1459
  597MOL0     H82344   1.502   9.334   6.891 -0.9327 -1.2189  0.8182
  597MOL0     H82345   1.269   9.311   6.651  0.0383  0.0952  1.6891
  597MOL0     H82346   1.408   9.365   6.559  2.7495 -1.5338  0.0084
  597MOL0     H82347   1.369   9.439   6.714 -1.8351  0.2474 -1.4150
  597MOL0     H82348   1.449   9.132   6.264  1.9071 -0.8801 -1.2758
  597MOL0     H82349   1.434   9.112   6.016 -1.6615  0.7588  1.1296
  597MOL0     H82350   1.299   9.041   5.833 -1.0838 -0.2054  0.6078
  597MOL0     H82351   1.376   8.963   5.702 -0.8647  0.7230 -0.2850
  597MOL0     H82352   1.115   8.911   5.797  0.0591 -0.8479  0.3832
  597MOL0     H82353   1.172   8.892   5.636  1.1076  0.0565 -0.1974
  597MOL0     H82354   1.120   8.687   5.710  1.2499 -0.4022  0.4247
  597MOL0     H82355   1.213   8.688   5.860  3.7131  1.6913  2.1775
  597MOL0     H82356   1.320   8.538   5.726 -2.2082 -0.7505 -0.2637
  597MOL0     H82357   1.417   8.691   5.701  1.2132 -1.6753  0.5596
  597MOL0     H82358   1.268   8.740   5.502  1.9644  0.5841 -1.6242
  597MOL0     H82359   1.398   8.625   5.492 -0.0133  1.9948 -0.8212
  597MOL0     H82360   1.103   8.548   5.528 -1.3091  0.8776 -2.7828
  597MOL0     H82361   1.236   8.440   5.549 -1.5225  0.2272  1.6514
  597MOL0     H82362   1.121   8.428   5.325 -0.7900 -0.1646  3.1787
  597MOL0     H82363   1.300   8.451   5.309  1.3359 -1.2169  3.4805
  597MOL0     H82364   1.203   8.599   5.157  1.2912 -2.8327  0.1246
  597MOL0     H82365   1.259   8.713   5.283 -1.5889  2.1142 -1.8895
  597MOL0     H82366   1.359   8.688   6.077  0.8640 -1.2634  3.3268
  597MOL0     H82367   1.335   8.735   6.318  0.8653 -0.4514  0.7213
  597MOL0     H82368   1.507   8.878   6.670 -2.0002 -0.1226 -0.9377
  597MOL0     H82369   1.651   8.924   6.852 -1.1445  0.6023 -0.5595
  597MOL0     H82370   1.757   8.060   6.921  1.2498 -2.8378  0.2556
  597MOL0     H82371   1.761   7.879   6.759 -0.0602  0.7602  0.9086
  597MOL0     H82372   1.715   7.604   6.559 -0.2155  0.1831  0.4311
  597MOL0     H82373   1.833   7.451   6.408  0.0082 -0.1739 -0.8109
  597MOL0     H82374   1.634   7.332   6.045 -0.1686 -1.1621 -2.6145
  597MOL0     H82375   1.794   7.394   5.979  2.0745 -0.7749 -0.6487
  597MOL0     H82376   1.893   7.191   6.064  0.5580 -1.3926  4.3559
  597MOL0     H82377   1.745   7.144   5.963  0.9174  1.4759 -1.3279
  597MOL0     H82378   1.749   7.130   6.261 -0.1641  0.3769 -0.8173
  597MOL0     H82379   1.614   7.104   6.144 -0.5865  0.2560  0.7033
  597MOL0     H82380   1.854   6.931   6.222  1.1655 -0.1200 -1.8940
  597MOL0     H82381   1.830   6.934   6.053  1.6956  2.4163  1.1459
  597MOL0     H82382   1.522   6.696   6.205  2.4677 -1.1756  0.5006
  597MOL0     H82383   1.538   7.496   6.116 -1.4720 -1.5287  1.8033
  597MOL0     H82384   1.369   7.616   6.137 -0.2061  2.5472 -3.1920
  597MOL0     H82385   1.298   7.686   6.284  0.6103  0.0221 -0.3685
  597MOL0     H82386   1.403   7.784   6.181  2.5494 -0.4710 -1.6921
  598MOL0     O82387   0.176  10.465  11.018 -0.3777 -0.5519 -0.2482
  598MOL0     C82388   0.302  10.484  11.036 -0.5707  0.4544 -0.9614
  598MOL0     O82389   0.375  10.458  11.150  0.7766 -0.6593  0.3127
  598MOL0     C82390   0.323  10.368  11.234 -0.3046  0.3105 -0.0235
  598MOL0     C82391   0.378  10.237  11.236 -0.7450  0.2782 -0.4296
  598MOL0     C82392   0.322  10.140  11.320 -0.7176  0.9005 -0.2432
  598MOL0     C82393   0.210  10.167  11.403  0.3463  0.2445 -0.5129
  598MOL0     O82394   0.149  10.058  11.479  0.0856 -0.6142  0.5532
  598MOL0     C82395   0.118  10.090  11.615  0.0256 -0.5393 -0.1826
  598MOL0     C82396  -0.032  10.117  11.621 -0.1746 -0.4832 -0.4587
  598MOL0     C82397  -0.078  10.165  11.761  1.0115 -1.2811  0.5995
  598MOL0     C82398  -0.149  10.305  11.753  0.1209 -0.0595  0.0446
  598MOL0     C82399  -0.062  10.427  11.731 -0.2987  0.1278 -1.5835
  598MOL0     C82400  -0.134  10.553  11.779 -0.6833 -0.2175 -0.0863
  598MOL0     C82401  -0.058  10.681  11.736  0.7358 -0.3636  0.3033
  598MOL0     C82402  -0.147  10.805  11.775  0.3145  0.0553  0.3441
  598MOL0     N82403  -0.088  10.932  11.742 -0.7118  0.5726  0.5563
  598MOL0     C82404   0.043  10.962  11.770 -0.1970  0.2616  0.7917
  598MOL0     C82405   0.081  11.068  11.695 -1.1701 -0.2979 -0.2283
  598MOL0     C82406   0.215  11.144  11.688 -0.0218  0.5024  0.0383
  598MOL0     C82407   0.204  11.284  11.742  0.3068  1.0958  0.6624
  598MOL0     C82408   0.177  11.288  11.895  0.0496 -0.3283 -0.0803
  598MOL0     C82409   0.111  11.422  11.918  0.6019 -0.3507 -0.7530
  598MOL0     O82410   0.218  11.514  11.903 -0.2871 -0.6755 -0.0484
  598MOL0     C82411   0.192  11.644  11.860 -0.0227 -0.0169 -0.0833
  598MOL0     C82412   0.296  11.733  11.870 -1.1960 -0.1358  0.1509
  598MOL0     C82413   0.291  11.863  11.831 -0.2942 -0.4269  0.6149
  598MOL0     C82414   0.402  11.957  11.854 -1.1871 -0.4984 -0.9028
  598MOL0     C82415   0.170  11.916  11.771 -0.0564 -0.0311  0.7211
  598MOL0     C82416   0.150  12.062  11.717 -0.2046 -0.4652  0.3611
  598MOL0     O82417   0.023  12.107  11.697 -0.8138  0.7975 -0.7309
  598MOL0     C82418  -0.009  12.235  11.661 -0.8122 -0.4223 -0.3043
  598MOL0     C82419   0.032  12.290  11.545 -0.9363 -0.0360  0.2852
  598MOL0     C82420  -0.016  12.421  11.515 -0.0735  0.0126 -0.0371
  598MOL0     C82421  -0.105  12.496  11.599  0.5144 -0.6587 -0.0357
  598MOL0     O82422  -0.128  12.627  11.564 -0.1917  0.1983 -0.3004
  598MOL0     C82423  -0.178  12.720  11.673  0.2516  0.3991  0.5493
  598MOL0     C82424  -0.328  12.717  11.680  0.5436 -0.0109  0.3970
  598MOL0     C82425  -0.383  12.785  11.808 -0.9306  0.5887 -0.8619
  598MOL0     C82426  -0.380  12.933  11.800  0.5737 -0.2623 -0.3082
  598MOL0     C82427  -0.461  13.004  11.904 -0.0064 -0.5030  0.5391
  598MOL0     C82428  -0.504  13.143  11.868 -0.0000 -0.5571 -0.4995
  598MOL0     C82429  -0.381  13.229  11.828  0.2857  0.6264  1.1050
  598MOL0     C82430  -0.439  13.375  11.831  0.2865  1.1815  0.4930
  598MOL0    Cl82431  -0.490  13.435  11.991  0.5774  0.1058  0.4924
  598MOL0     C82432  -0.162  12.436  11.713  0.4273  0.4249  0.2707
  598MOL0     C82433  -0.106  12.300  11.739  0.0133 -0.5884  0.2257
  598MOL0     O82434   0.249  12.127  11.698  0.1095 -0.4777 -0.9819
  598MOL0     C82435   0.060  11.828  11.755  0.7647 -0.1145 -0.1196
  598MOL0     C82436   0.070  11.696  11.803 -0.7714 -0.4628  0.2554
  598MOL0     N82437  -0.034  11.102  11.623  0.6675 -0.4888  0.1399
  598MOL0     N82438  -0.135  11.020  11.649  0.2794  0.1087 -0.0801
  598MOL0     C82439   0.158  10.301  11.397  0.0898 -0.4841  0.6512
  598MOL0     C82440   0.217  10.400  11.315  0.5838  0.2824  0.2824
  598MOL0     C82441   0.367  10.555  10.927 -0.5728  0.3134 -0.0242
  598MOL0     C82442   0.417  10.684  10.960  0.5777 -0.5683 -0.4723
  598MOL0     C82443   0.491  10.754  10.871  0.1412 -0.2357 -0.0660
  598MOL0     C82444   0.510  10.707  10.744  0.0614 -0.3872  0.6655
  598MOL0     O82445   0.580  10.789  10.657  0.6111  0.6406  0.5818
  598MOL0     C82446   0.522  10.809  10.526 -0.0599  0.0336 -0.8536
  598MOL0     C82447   0.469  10.951  10.525 -0.6980 -0.6528 -0.6740
  598MOL0     C82448   0.464  10.992  10.379 -0.2477 -0.6060 -0.4353
  598MOL0     C82449   0.433  11.146  10.365 -0.4641 -0.1893  0.9833
  598MOL0     C82450   0.441  11.193  10.225  0.2761  0.3162  0.0941
  598MOL0     C82451   0.435  11.241  10.112 -0.3109 -0.2092  0.1399
  598MOL0     C82452   0.467  10.580  10.701 -0.0187  0.0594 -0.4475
  598MOL0     C82453   0.387  10.503  10.790  0.0964 -0.7672  1.0188
  598MOL0     C82454   0.319  10.375  10.736 -0.3067 -0.7081  0.5872
  598MOL0     H82455   0.458  10.211  11.168 -0.7873 -1.0491  0.0085
  598MOL0     H82456   0.373  10.045  11.330 -1.0696  0.7799  0.4447
  598MOL0     H82457   0.181  10.172  11.650  1.7340 -1.2845 -1.3699
  598MOL0     H82458   0.149  10.008  11.681 -0.1415  2.6950  4.3591
  598MOL0     H82459  -0.073  10.186  11.547 -2.1798 -3.0568 -1.9479
  598MOL0     H82460  -0.077  10.022  11.591 -0.3717 -0.5905  0.1630
  598MOL0     H82461  -0.146  10.095  11.809  0.1696 -1.1350 -0.3438
  598MOL0     H82462   0.016  10.185  11.813  2.1704 -1.2411 -1.4069
  598MOL0     H82463  -0.225  10.303  11.674  3.0498 -1.6029 -3.0596
  598MOL0     H82464  -0.210  10.304  11.843 -0.5717  2.2577 -0.3320
  598MOL0     H82465  -0.034  10.436  11.625 -1.5448  1.7812 -1.8138
  598MOL0     H82466   0.036  10.420  11.778 -1.5634 -1.2751  1.0371
  598MOL0     H82467  -0.224  10.532  11.721 -0.8480 -1.1174  0.4758
  598MOL0     H82468  -0.151  10.554  11.887  0.4279 -0.1258  0.0976
  598MOL0     H82469  -0.031  10.670  11.630  0.5483 -1.2299  0.3379
  598MOL0     H82470   0.033  10.691  11.796 -0.2006  1.4780  1.5040
  598MOL0     H82471  -0.243  10.798  11.724  0.5543  4.1819 -1.0453
  598MOL0     H82472  -0.176  10.802  11.880 -1.8765 -2.8567 -0.2305
  598MOL0     H82473   0.103  10.903  11.839  0.1726 -1.6904 -1.0826
  598MOL0     H82474   0.248  11.149  11.584  0.0275 -0.3770  0.0058
  598MOL0     H82475   0.296  11.091  11.738  1.7691  1.1655 -2.0326
  598MOL0     H82476   0.294  11.343  11.726  0.9221 -0.0171 -0.1140
  598MOL0     H82477   0.116  11.329  11.695  0.1567 -0.5312 -0.6981
  598MOL0     H82478   0.111  11.209  11.934  0.0130  0.3824  1.3642
  598MOL0     H82479   0.268  11.289  11.955 -0.3382  0.9690  0.5179
  598MOL0     H82480   0.027  11.437  11.850  1.9471 -0.0222 -2.4113
  598MOL0     H82481   0.081  11.417  12.023  1.4910 -1.3201 -0.5359
  598MOL0     H82482   0.390  11.693  11.904 -1.5439 -0.9689  0.1575
  598MOL0     H82483   0.486  11.917  11.913 -1.2583 -0.9809 -1.1208
  598MOL0     H82484   0.377  12.051  11.904 -1.3427  0.1942 -2.2469
  598MOL0     H82485   0.438  11.987  11.755 -1.1895  1.7851 -0.2681
  598MOL0     H82486   0.103  12.240  11.480 -2.3073  1.4618 -2.5889
  598MOL0     H82487   0.032  12.479  11.437  0.0252  1.0006  0.7331
  598MOL0     H82488  -0.145  12.703  11.775  0.7667  1.6290  0.6013
  598MOL0     H82489  -0.147  12.822  11.645 -4.1423  0.9536 -3.8537
  598MOL0     H82490  -0.364  12.770  11.591  3.0194  1.1336 -0.0123
  598MOL0     H82491  -0.368  12.616  11.675 -0.4297  0.3492  0.6640
  598MOL0     H82492  -0.329  12.753  11.897  1.0107  3.2645 -0.9526
  598MOL0     H82493  -0.486  12.751  11.820 -0.5941  0.3640  1.9970
  598MOL0     H82494  -0.430  12.955  11.705 -0.2517 -1.2389 -0.1303
  598MOL0     H82495  -0.284  12.981  11.785  0.1958  0.4604 -0.4569
  598MOL0     H82496  -0.546  12.941  11.933 -1.6748  1.6121  0.5017
  598MOL0     H82497  -0.393  13.014  11.989  1.6825  0.3581 -0.8532
  598MOL0     H82498  -0.560  13.177  11.956  2.3410 -0.0310  0.8683
  598MOL0     H82499  -0.560  13.138  11.774  0.8116  2.4479 -1.2283
  598MOL0     H82500  -0.365  13.211  11.721 -2.1351  0.6159  0.6896
  598MOL0     H82501  -0.286  13.211  11.879 -0.7033 -0.9653  2.4740
  598MOL0     H82502  -0.530  13.379  11.771  1.2716  0.3100 -1.1450
  598MOL0     H82503  -0.366  13.447  11.792 -0.1486  0.5031 -1.6706
  598MOL0     H82504  -0.236  12.474  11.782 -1.1662 -2.5686  0.3733
  598MOL0     H82505  -0.146  12.252  11.829 -2.5812  2.3847  0.8312
  598MOL0     H82506  -0.038  11.853  11.717  0.9060  5.0171  2.0001
  598MOL0     H82507  -0.007  11.622  11.781  3.1615 -3.6746 -5.1919
  598MOL0     H82508   0.070  10.334  11.452  2.8686  1.0107  4.6149
  598MOL0     H82509   0.174  10.500  11.312 -2.5498 -0.9463  0.3538
  598MOL0     H82510   0.390  10.725  11.057  3.1945 -2.3157  1.1342
  598MOL0     H82511   0.523  10.852  10.905  0.5985 -0.3382 -0.1888
  598MOL0     H82512   0.599  10.798  10.450  0.7161 -1.8260  0.1364
  598MOL0     H82513   0.437  10.745  10.499 -0.4617 -0.9574  2.3420
  598MOL0     H82514   0.524  11.025  10.583 -2.0554  0.4057 -0.6695
  598MOL0     H82515   0.370  10.948  10.574  0.4237 -1.4458  1.7041
  598MOL0     H82516   0.562  10.982  10.331 -1.2893 -0.4604 -2.6948
  598MOL0     H82517   0.397  10.926  10.322  1.5875 -1.6909 -1.4522
  598MOL0     H82518   0.496  11.210  10.427 -0.9817  3.9027 -2.2919
  598MOL0     H82519   0.328  11.165  10.391  0.0879  1.0156  2.4937
  598MOL0     H82520   0.413  11.295  10.022 -1.8882 -1.6666 -0.3989
  598MOL0     H82521   0.500  10.536  10.607 -2.2256 -4.7908  0.7058
  598MOL0     H82522   0.368  10.346  10.643  3.4501  0.6609  1.9622
  598MOL0     H82523   0.318  10.286  10.800  0.6665 -1.2076 -0.0778
  598MOL0     H82524   0.213  10.392  10.712 -0.2332  0.6743  1.1337
  599MOL0     O82525   6.440   9.001   9.823  0.3198 -0.0138 -0.2775
  599MOL0     C82526   6.412   8.898   9.888 -0.9177  0.6882  0.2445
  599MOL0     O82527   6.486   8.839   9.982 -0.4508  0.3061  0.4543
  599MOL0     C82528   6.598   8.907  10.031  0.1780  0.2562 -0.2825
  599MOL0     C82529   6.603   9.046  10.061 -0.0235  0.3171  0.5320
  599MOL0     C82530   6.710   9.116  10.135 -0.0276  0.2486 -0.5099
  599MOL0     C82531   6.804   9.026  10.198 -0.0166  0.2002  0.5100
  599MOL0     O82532   6.908   9.066  10.288  0.1457 -0.1363 -0.4836
  599MOL0     C82533   6.911   9.209  10.314  0.0435 -0.5339  0.7653
  599MOL0     C82534   7.029   9.248  10.404 -0.3455  0.0941 -0.0223
  599MOL0     C82535   7.030   9.383  10.457  0.1629  0.2275  0.1059
  599MOL0     C82536   7.140   9.396  10.576 -0.2944  0.8679 -0.1795
  599MOL0     C82537   7.284   9.385  10.515 -0.1004  0.0241 -0.6182
  599MOL0     C82538   7.383   9.470  10.595 -0.4987 -0.3978  0.5198
  599MOL0     C82539   7.379   9.624  10.577  0.1489  0.0448  0.2175
  599MOL0     C82540   7.505   9.692  10.635  0.4897 -0.5603 -0.4924
  599MOL0     N82541   7.481   9.835  10.635 -0.4205 -0.4085  0.3395
  599MOL0     C82542   7.477   9.924  10.533  0.5895  0.5480 -0.4311
  599MOL0     C82543   7.467  10.045  10.599 -0.5193  0.2468  1.6155
  599MOL0     C82544   7.481  10.176  10.509 -0.2048  1.3666 -0.5146
  599MOL0     C82545   7.377  10.182  10.394 -0.2336  0.5954 -0.9449
  599MOL0     C82546   7.250  10.251  10.454  0.4657 -0.5034 -0.8376
  599MOL0     C82547   7.141  10.237  10.356  0.3421 -0.1051  0.2404
  599MOL0     O82548   7.186  10.298  10.234 -0.1735  0.0461 -0.0046
  599MOL0     C82549   7.115  10.279  10.121  0.4233 -0.2279  0.2089
  599MOL0     C82550   7.162  10.263   9.994  0.0989 -0.0283 -0.2844
  599MOL0     C82551   7.077  10.263   9.881  0.3254 -0.9146  0.9699
  599MOL0     C82552   7.158  10.259   9.750  0.1998  0.1793 -0.4765
  599MOL0     C82553   6.938  10.262   9.894 -0.0352  0.7701  0.0407
  599MOL0     C82554   6.836  10.274   9.786  0.4206  0.3058  0.5094
  599MOL0     O82555   6.705  10.316   9.810 -0.6441  0.4226  0.4818
  599MOL0     C82556   6.636  10.363   9.698 -0.5149 -0.0188  0.5187
  599MOL0     C82557   6.672  10.489   9.635  0.1874  0.3118  0.3521
  599MOL0     C82558   6.590  10.537   9.535 -0.2717  0.6622 -0.3377
  599MOL0     C82559   6.471  10.470   9.499  0.2077 -0.7704 -0.4572
  599MOL0     O82560   6.392  10.534   9.395 -0.4384 -0.1204  0.3664
  599MOL0     C82561   6.335  10.439   9.311 -0.4428  0.1193 -0.0057
  599MOL0     C82562   6.271  10.501   9.185  0.2545 -0.9574  1.2916
  599MOL0     C82563   6.365  10.585   9.092  0.9411 -0.0261  0.2668
  599MOL0     C82564   6.298  10.640   8.963  1.3883 -1.4046 -0.8425
  599MOL0     C82565   6.383  10.628   8.840  0.1896 -0.7258 -0.4639
  599MOL0     C82566   6.506  10.726   8.823  0.2372 -0.1320 -0.7283
  599MOL0     C82567   6.557  10.738   8.681  1.0993  1.0138  0.1107
  599MOL0     C82568   6.694  10.797   8.665  0.2530 -0.7849  0.5409
  599MOL0    Cl82569   6.834  10.703   8.695  0.0258  0.0740  0.1546
  599MOL0     C82570   6.440  10.349   9.554 -0.1589  0.4453  1.5652
  599MOL0     C82571   6.532  10.301   9.643  0.3630  1.6777 -0.7583
  599MOL0     O82572   6.872  10.237   9.676 -0.5386  0.0241  1.0813
  599MOL0     C82573   6.895  10.265  10.025 -0.0386 -0.6563  0.2538
  599MOL0     C82574   6.980  10.283  10.132 -0.4875  0.6019  0.1837
  599MOL0     N82575   7.453  10.034  10.736  0.1414  0.4400 -0.6828
  599MOL0     N82576   7.469   9.910  10.752 -0.6312 -0.0587  0.3914
  599MOL0     C82577   6.795   8.881  10.179 -0.1650  0.0216 -0.4693
  599MOL0     C82578   6.704   8.828  10.087 -0.0840  0.2269 -0.3429
  599MOL0     C82579   6.286   8.807   9.847 -0.5328  0.1403  0.0924
  599MOL0     C82580   6.292   8.671   9.890 -0.7564 -0.1050  0.8685
  599MOL0     C82581   6.209   8.578   9.825  0.2213  1.8773  0.3365
  599MOL0     C82582   6.123   8.614   9.715 -0.3320 -0.5036  0.0263
  599MOL0     O82583   6.038   8.526   9.649  0.6241 -0.5409 -0.5695
  599MOL0     C82584   6.039   8.386   9.675 -0.3227 -0.6314  0.6655
  599MOL0     C82585   6.159   8.322   9.616 -0.5939 -0.3064  0.9928
  599MOL0     C82586   6.158   8.304   9.463 -0.2281  0.1052  0.1421
  599MOL0     C82587   6.285   8.355   9.389 -0.0208  0.2625 -0.9443
  599MOL0     C82588   6.301   8.498   9.399  0.3616  0.0610 -0.3634
  599MOL0     C82589   6.301   8.617   9.393  0.3022  0.4156  1.4309
  599MOL0     C82590   6.111   8.746   9.685  0.8084 -0.2959  0.2688
  599MOL0     C82591   6.188   8.843   9.746 -0.9684  0.4049 -0.5594
  599MOL0     C82592   6.171   8.983   9.712  0.0124  1.0740  0.8007
  599MOL0     H82593   6.526   9.104  10.009  1.1950 -0.1139 -1.8938
  599MOL0     H82594   6.706   9.224  10.152  1.4710  0.1583  0.6740
  599MOL0     H82595   6.818   9.241  10.362  0.5421 -0.1129  1.4707
  599MOL0     H82596   6.934   9.253  10.216  0.2240  1.2492  1.5687
  599MOL0     H82597   7.021   9.167  10.478  3.2563 -0.6709 -0.2823
  599MOL0     H82598   7.123   9.246  10.348  0.8681 -1.6183  1.9292
  599MOL0     H82599   7.057   9.447  10.373 -1.1671 -0.3940 -0.8301
  599MOL0     H82600   6.932   9.421  10.487 -0.4258  1.0205 -2.5922
  599MOL0     H82601   7.124   9.490  10.629  2.1646  0.9333  0.5377
  599MOL0     H82602   7.126   9.324  10.657 -0.1319  1.9335  0.8184
  599MOL0     H82603   7.273   9.421  10.412 -2.8785 -3.7236 -1.8566
  599MOL0     H82604   7.320   9.282  10.508 -0.0548 -0.1815  1.8188
  599MOL0     H82605   7.373   9.451  10.703 -1.9707  2.1504  0.9023
  599MOL0     H82606   7.487   9.452  10.564 -0.6280  1.2218 -0.9710
  599MOL0     H82607   7.296   9.664  10.636 -2.7198 -1.5757 -2.4236
  599MOL0     H82608   7.367   9.642  10.470 -0.2362  0.4815  0.3345
  599MOL0     H82609   7.524   9.660  10.737 -2.3264 -0.0997  0.2556
  599MOL0     H82610   7.597   9.660  10.584  0.7277 -0.2355 -0.2671
  599MOL0     H82611   7.505   9.909  10.430 -1.0211  0.1343 -0.8438
  599MOL0     H82612   7.577  10.171  10.456 -1.1152 -0.9839 -2.0707
  599MOL0     H82613   7.481  10.263  10.576 -1.0392 -0.1095  1.4796
  599MOL0     H82614   7.405  10.243  10.308 -2.1585  2.0368 -0.6070
  599MOL0     H82615   7.367  10.080  10.354 -0.9413  0.6124 -0.8203
  599MOL0     H82616   7.213  10.210  10.548  1.1875 -1.4114 -0.9254
  599MOL0     H82617   7.270  10.356  10.476 -3.0389 -0.0249  0.5809
  599MOL0     H82618   7.103  10.137  10.332 -0.5607  0.7272 -2.1697
  599MOL0     H82619   7.050  10.285  10.392 -1.6764 -3.6755  0.4393
  599MOL0     H82620   7.270  10.261   9.988  0.0843 -0.9972 -0.5486
  599MOL0     H82621   7.262  10.241   9.775 -0.2929  0.0000  1.6160
  599MOL0     H82622   7.149  10.348   9.686  1.8807  0.2236 -0.6858
  599MOL0     H82623   7.124  10.170   9.696  0.9628 -2.5156  3.1555
  599MOL0     H82624   6.761  10.544   9.667  0.0544  1.0622 -0.5126
  599MOL0     H82625   6.606  10.628   9.478 -0.2345  0.1600 -1.1507
  599MOL0     H82626   6.410  10.362   9.288 -1.6991 -1.3245  0.5980
  599MOL0     H82627   6.253  10.392   9.365 -1.4133  0.2498 -1.3166
  599MOL0     H82628   6.227  10.418   9.129  0.0057  0.6907 -1.0933
  599MOL0     H82629   6.177  10.550   9.210  0.4244 -0.1432  0.3727
  599MOL0     H82630   6.455  10.526   9.070  2.2486  1.4121  1.5898
  599MOL0     H82631   6.398  10.671   9.150  0.2596 -2.0298  3.8926
  599MOL0     H82632   6.275  10.744   8.987  0.8436 -1.4293 -1.2555
  599MOL0     H82633   6.209  10.578   8.961  1.7928 -1.9881 -0.8712
  599MOL0     H82634   6.433  10.531   8.830  1.4565 -0.1822  0.4756
  599MOL0     H82635   6.315  10.651   8.757  1.5825 -0.0759 -1.4568
  599MOL0     H82636   6.593  10.690   8.879 -0.7986 -1.5302  0.0504
  599MOL0     H82637   6.475  10.829   8.841 -5.6973 -1.1052 -3.0595
  599MOL0     H82638   6.495  10.814   8.632  0.2901  1.3356  1.5730
  599MOL0     H82639   6.535  10.643   8.631 -0.7398  2.4292 -1.9727
  599MOL0     H82640   6.699  10.895   8.714 -1.3067 -0.8849  0.9549
  599MOL0     H82641   6.703  10.832   8.562 -2.0736 -0.0967  0.5015
  599MOL0     H82642   6.353  10.291   9.526  0.6212  1.5455 -4.5893
  599MOL0     H82643   6.487  10.213   9.688  2.3546 -0.4485 -2.6612
  599MOL0     H82644   6.786  10.270  10.033  0.0104  0.0059  0.6656
  599MOL0     H82645   6.924  10.296  10.224  0.9689 -1.8448  1.5248
  599MOL0     H82646   6.862   8.815  10.232  1.5565  1.8030 -0.3081
  599MOL0     H82647   6.714   8.727  10.048 -3.0157  0.6244 -2.5681
  599MOL0     H82648   6.362   8.641   9.968 -0.3300 -3.5810 -0.6758
  599MOL0     H82649   6.208   8.473   9.853  0.6974  1.4454 -1.1831
  599MOL0     H82650   6.011   8.367   9.779 -3.2344 -0.9818 -0.0920
  599MOL0     H82651   5.958   8.340   9.618  1.0836 -1.3943 -0.7801
  599MOL0     H82652   6.178   8.228   9.668  1.0648 -2.3383 -2.8520
  599MOL0     H82653   6.248   8.382   9.639  0.8464 -1.7614 -0.5501
  599MOL0     H82654   6.164   8.196   9.448  0.3040 -0.1643  2.0347
  599MOL0     H82655   6.063   8.335   9.418 -0.5663 -0.6189  0.3376
  599MOL0     H82656   6.252   8.323   9.290 -2.5714 -2.5055  0.6587
  599MOL0     H82657   6.381   8.312   9.419  0.3577  0.5550 -1.7214
  599MOL0     H82658   6.297   8.723   9.375  0.3887  0.1965 -0.0050
  599MOL0     H82659   6.042   8.789   9.613 -2.5562 -1.5560  2.4783
  599MOL0     H82660   6.168   9.051   9.798 -0.6896  2.2092 -0.0884
  599MOL0     H82661   6.244   9.022   9.639 -1.3704  2.6457  0.1918
  599MOL0     H82662   6.070   8.988   9.670  0.8518 -1.1169 -1.8324
  600MOL0     O82663   0.919   8.377   2.290 -0.6303  0.3107  0.3284
  600MOL0     C82664   0.937   8.392   2.412 -0.1946 -0.4160 -0.8489
  600MOL0     O82665   1.037   8.465   2.463  0.0099 -0.0540  0.0750
  600MOL0     C82666   1.114   8.537   2.372 -1.1186 -0.0050  0.7097
  600MOL0     C82667   1.049   8.639   2.282 -0.1485  0.8534  0.8147
  600MOL0     C82668   1.124   8.711   2.192 -0.1098  0.7143 -0.8011
  600MOL0     C82669   1.266   8.710   2.207  0.1525 -0.7718 -0.6231
  600MOL0     O82670   1.356   8.787   2.128  0.0403 -0.3727 -0.0057
  600MOL0     C82671   1.337   8.928   2.129 -0.0964 -0.5970 -0.1772
  600MOL0     C82672   1.438   9.005   2.031 -0.2996  0.4071 -0.4910
  600MOL0     C82673   1.381   8.998   1.889  0.1575  0.5685  0.0814
  600MOL0     C82674   1.474   9.056   1.787  0.0684 -0.3149  0.3855
  600MOL0     C82675   1.401   9.061   1.652  0.4063 -0.0064 -0.1879
  600MOL0     C82676   1.497   9.121   1.552  0.4150  0.2156  0.3140
  600MOL0     C82677   1.432   9.137   1.415 -0.0734 -0.8127  0.9320
  600MOL0     C82678   1.533   9.209   1.311 -0.2644 -0.0461 -0.3348
  600MOL0     N82679   1.500   9.179   1.167 -0.5850 -0.0177 -1.5792
  600MOL0     C82680   1.402   9.238   1.088  0.9506 -0.2372 -0.3812
  600MOL0     C82681   1.395   9.155   0.980 -0.2481  0.0060  0.4498
  600MOL0     C82682   1.309   9.207   0.864 -0.3572  0.5150  0.8075
  600MOL0     C82683   1.179   9.125   0.842 -0.7516 -0.4566  0.0991
  600MOL0     C82684   1.168   9.100   0.687  0.4582 -0.7592  0.1201
  600MOL0     C82685   1.068   8.989   0.663  1.1087  0.0646 -0.2072
  600MOL0     O82686   0.932   9.041   0.652  0.4584 -0.2916 -0.2053
  600MOL0     C82687   0.878   9.060   0.524 -0.2731  0.2629  0.1975
  600MOL0     C82688   0.946   9.073   0.406 -0.2519 -0.7608 -0.3905
  600MOL0     C82689   0.895   9.081   0.273  0.6464 -0.5626 -0.2211
  600MOL0     C82690   0.981   9.072   0.152  0.3982  0.2124  0.2426
  600MOL0     C82691   0.751   9.073   0.270 -0.7551 -0.7548  0.1116
  600MOL0     C82692   0.673   9.070   0.139 -0.0473 -0.7340 -0.6205
  600MOL0     O82693   0.738   9.111   0.019 -0.1057  0.3097 -0.2599
  600MOL0     C82694   0.682   9.087  -0.101  0.5556 -0.0516  0.8097
  600MOL0     C82695   0.593   8.984  -0.130 -0.2402  0.8984  0.0227
  600MOL0     C82696   0.535   8.975  -0.258 -0.3025 -0.5525  0.9289
  600MOL0     C82697   0.560   9.073  -0.355  0.7126  0.1485 -0.5508
  600MOL0     O82698   0.505   9.084  -0.478  0.5544  0.5808  0.5197
  600MOL0     C82699   0.528   8.957  -0.555 -0.7111 -0.4888 -1.0252
  600MOL0     C82700   0.506   8.989  -0.705 -0.2608 -0.2984  0.7066
  600MOL0     C82701   0.373   9.062  -0.744 -0.4606 -0.2742  0.3826
  600MOL0     C82702   0.373   9.055  -0.897  1.2946 -0.4987 -0.6635
  600MOL0     C82703   0.430   9.190  -0.943  0.3733  0.0835 -0.4248
  600MOL0     C82704   0.402   9.208  -1.097  0.7247 -0.7148 -0.1849
  600MOL0     C82705   0.398   9.361  -1.143  0.7866  0.3920  0.0642
  600MOL0     C82706   0.511   9.452  -1.094  0.3574 -0.4031  0.2345
  600MOL0    Cl82707   0.507   9.618  -1.185  0.1964 -0.2105 -0.0044
  600MOL0     C82708   0.647   9.174  -0.319  0.2316  0.6727  0.6044
  600MOL0     C82709   0.713   9.179  -0.196  0.0828 -0.1569 -0.1869
  600MOL0     O82710   0.560   9.029   0.152 -0.1353 -0.1829 -0.2559
  600MOL0     C82711   0.675   9.078   0.384  0.5957 -0.8235  0.0663
  600MOL0     C82712   0.741   9.067   0.512  0.5704  0.1209 -0.1696
  600MOL0     N82713   1.506   9.069   0.989  1.1969  0.2148  0.2924
  600MOL0     N82714   1.562   9.084   1.099 -0.7185  0.1142  0.5300
  600MOL0     C82715   1.324   8.609   2.281 -0.7567  0.5480  0.2873
  600MOL0     C82716   1.254   8.525   2.371  0.5287  0.3867 -0.3469
  600MOL0     C82717   0.838   8.336   2.508  0.2718 -0.0110 -1.0764
  600MOL0     C82718   0.800   8.427   2.610  0.1845  0.7699 -0.3731
  600MOL0     C82719   0.708   8.390   2.709  0.5191  0.5054 -1.2360
  600MOL0     C82720   0.639   8.264   2.696  0.1331  0.1807 -0.7349
  600MOL0     O82721   0.547   8.222   2.796 -0.1410 -0.1747 -0.1656
  600MOL0     C82722   0.432   8.317   2.815 -0.5099  1.2646 -0.5869
  600MOL0     C82723   0.345   8.337   2.686  0.7111  0.5160  1.3101
  600MOL0     C82724   0.198   8.390   2.720  0.1649 -0.6428  0.0604
  600MOL0     C82725   0.127   8.439   2.593  0.6070 -0.1283  0.2873
  600MOL0     C82726  -0.018   8.469   2.623 -0.3216  0.1815  0.8422
  600MOL0     C82727  -0.124   8.492   2.666 -0.3159 -0.6506 -0.5998
  600MOL0     C82728   0.673   8.183   2.592  0.0120 -0.8680  0.1667
  600MOL0     C82729   0.773   8.213   2.497  0.0884 -0.6543  0.8267
  600MOL0     C82730   0.812   8.118   2.387  0.8167 -0.0484  0.1285
  600MOL0     H82731   0.941   8.637   2.285 -0.2381 -3.5688  1.1560
  600MOL0     H82732   1.081   8.776   2.118 -2.2464  0.0125 -0.2409
  600MOL0     H82733   1.348   8.973   2.228 -0.7663 -0.9431  0.0619
  600MOL0     H82734   1.237   8.951   2.094  0.3818  0.5536 -0.8270
  600MOL0     H82735   1.443   9.111   2.059 -0.9798  0.2460  0.3086
  600MOL0     H82736   1.537   8.960   2.033  0.2877  1.6586  0.3215
  600MOL0     H82737   1.368   8.891   1.872 -2.0119  0.3982  2.2250
  600MOL0     H82738   1.283   9.047   1.882 -0.5788 -0.8665 -0.0854
  600MOL0     H82739   1.500   9.159   1.813  1.9621 -0.6431 -0.0321
  600MOL0     H82740   1.570   9.004   1.789  1.2049  1.6547 -0.1958
  600MOL0     H82741   1.315   9.127   1.666  1.3795  1.1049  0.7987
  600MOL0     H82742   1.366   8.964   1.617  1.6749 -2.1996  3.9284
  600MOL0     H82743   1.536   9.212   1.598  3.6891 -2.5177  3.6234
  600MOL0     H82744   1.578   9.047   1.553 -1.1188 -1.5429  0.7959
  600MOL0     H82745   1.342   9.198   1.429  1.2047  1.1523  0.9796
  600MOL0     H82746   1.404   9.043   1.367  0.5437 -1.2621  1.4378
  600MOL0     H82747   1.528   9.318   1.326  0.9649 -0.2119  1.7435
  600MOL0     H82748   1.633   9.183   1.348  0.8832  4.1510  0.0817
  600MOL0     H82749   1.351   9.332   1.105 -0.8452 -0.3733 -4.0268
  600MOL0     H82750   1.369   9.209   0.772 -1.2871  1.0891  0.1950
  600MOL0     H82751   1.293   9.314   0.882  2.4685  1.0700  0.5055
  600MOL0     H82752   1.179   9.030   0.897  1.4014 -1.0129 -0.7553
  600MOL0     H82753   1.092   9.181   0.878 -0.9469 -1.0660  0.6087
  600MOL0     H82754   1.130   9.192   0.643 -0.6588 -0.7121  1.1202
  600MOL0     H82755   1.263   9.070   0.641 -0.7267 -4.5489 -0.2092
  600MOL0     H82756   1.103   8.942   0.571 -0.0729 -0.7707 -0.2484
  600MOL0     H82757   1.080   8.918   0.746 -1.1563  2.1918  2.1041
  600MOL0     H82758   1.051   9.093   0.423 -0.4504 -0.7446  0.9317
  600MOL0     H82759   0.966   9.159   0.087  2.7548 -0.9019 -1.9695
  600MOL0     H82760   0.964   8.979   0.097  2.6551  2.3833 -4.7807
  600MOL0     H82761   1.088   9.073   0.178  0.4861 -1.9313  0.1120
  600MOL0     H82762   0.567   8.907  -0.058 -0.6403  0.6485 -0.3879
  600MOL0     H82763   0.470   8.894  -0.289  0.6232 -0.7215 -0.6762
  600MOL0     H82764   0.624   8.906  -0.542 -1.6222 -1.8141  1.0061
  600MOL0     H82765   0.464   8.877  -0.517  1.5290 -2.2005 -0.7030
  600MOL0     H82766   0.587   9.050  -0.747 -2.2450  1.5631 -0.6395
  600MOL0     H82767   0.525   8.895  -0.757  1.5767 -0.6895  1.9768
  600MOL0     H82768   0.379   9.164  -0.707  0.4726 -0.3469  0.4711
  600MOL0     H82769   0.294   9.014  -0.684  1.9950 -0.5632  3.6962
  600MOL0     H82770   0.271   9.037  -0.933  1.1382  0.3122 -0.6363
  600MOL0     H82771   0.441   8.976  -0.930  1.4320 -1.1352  1.0635
  600MOL0     H82772   0.410   9.281  -0.886 -2.4654  0.1289 -1.3362
  600MOL0     H82773   0.538   9.187  -0.930  0.3876 -0.0594 -0.5829
  600MOL0     H82774   0.308   9.161  -1.126  0.4849  1.1114 -2.7714
  600MOL0     H82775   0.478   9.152  -1.152 -0.1459 -1.0081 -1.1095
  600MOL0     H82776   0.296   9.395  -1.120  0.6432 -0.0476  0.0886
  600MOL0     H82777   0.401   9.351  -1.252  1.4104 -0.7923  0.1771
  600MOL0     H82778   0.614   9.417  -1.108  0.2775 -1.0040  1.0296
  600MOL0     H82779   0.505   9.459  -0.985  1.4248 -1.7168  0.4122
  600MOL0     H82780   0.654   9.263  -0.380 -2.2386 -0.6118 -1.7656
  600MOL0     H82781   0.784   9.259  -0.176 -1.1237  1.1760 -1.0765
  600MOL0     H82782   0.567   9.065   0.382  0.3080  1.1329 -2.8768
  600MOL0     H82783   0.672   9.052   0.594  1.4334  1.4688  0.8408
  600MOL0     H82784   1.431   8.606   2.268 -0.9475  0.7267 -1.6380
  600MOL0     H82785   1.311   8.447   2.421 -0.2868 -1.5492 -2.2487
  600MOL0     H82786   0.827   8.532   2.611  0.9330  0.6314  2.5731
  600MOL0     H82787   0.693   8.455   2.795  3.4448 -0.7477  0.3632
  600MOL0     H82788   0.370   8.272   2.893  1.9716  0.3457  0.9912
  600MOL0     H82789   0.470   8.410   2.860  2.2956 -0.6547  1.3414
  600MOL0     H82790   0.334   8.245   2.628 -0.0621  0.7958  0.9911
  600MOL0     H82791   0.384   8.414   2.619 -1.6007  0.9941  0.4179
  600MOL0     H82792   0.136   8.311   2.763 -1.2313  1.1752  1.5690
  600MOL0     H82793   0.201   8.467   2.798 -1.3097 -0.4635 -0.0217
  600MOL0     H82794   0.134   8.358   2.520  0.2742  0.5629 -0.5368
  600MOL0     H82795   0.174   8.533   2.564 -0.2127  0.7682  1.7589
  600MOL0     H82796  -0.223   8.520   2.697 -1.1304 -2.9883 -0.8988
  600MOL0     H82797   0.626   8.085   2.593  0.1215 -0.9267 -0.2180
  600MOL0     H82798   0.743   8.034   2.398  1.3515 -0.9192 -2.5451
  600MOL0     H82799   0.782   8.162   2.292 -0.9960 -3.3257 -0.9361
  600MOL0     H82800   0.912   8.074   2.380 -0.4406 -3.0641 -0.0978
  601MOL0     O82801   6.193   3.297   7.566  0.1178 -0.2516  0.5478
  601MOL0     C82802   6.183   3.192   7.634  0.5073 -0.0782 -0.6319
  601MOL0     O82803   6.140   3.180   7.762 -0.3020  0.2411 -0.2679
  601MOL0     C82804   6.062   3.279   7.820  0.8397  0.2603 -0.6694
  601MOL0     C82805   6.017   3.404   7.764  0.9598 -0.8121  0.3356
  601MOL0     C82806   5.952   3.502   7.840 -0.5334  0.0048  0.6981
  601MOL0     C82807   5.930   3.485   7.969  0.2788  0.4713  0.2306
  601MOL0     O82808   5.881   3.601   8.031  0.1419  0.8421  0.1903
  601MOL0     C82809   5.869   3.602   8.170 -0.4332  0.8652 -0.1615
  601MOL0     C82810   5.835   3.742   8.229 -0.0942 -0.3938 -0.2409
  601MOL0     C82811   5.742   3.817   8.131  0.3828 -0.7213  0.1918
  601MOL0     C82812   5.683   3.944   8.203  0.4583 -0.4799  0.0390
  601MOL0     C82813   5.549   3.985   8.150 -1.0678  0.7718 -0.2452
  601MOL0     C82814   5.565   4.078   8.026  0.6270 -1.0448 -0.0793
  601MOL0     C82815   5.410   4.102   7.975  1.1784  0.5492 -0.1384
  601MOL0     C82816   5.400   4.228   7.890  0.2336 -0.3245 -0.7047
  601MOL0     N82817   5.491   4.222   7.773 -0.5105 -0.0910  1.0762
  601MOL0     C82818   5.509   4.114   7.679 -1.8634  0.6220  1.1205
  601MOL0     C82819   5.625   4.144   7.612  0.9679 -0.1444  0.3615
  601MOL0     C82820   5.700   4.051   7.525  0.9368  0.5120  0.2020
  601MOL0     C82821   5.624   4.033   7.394  0.4125  0.5207  1.0817
  601MOL0     C82822   5.702   3.930   7.302 -0.5715  0.7596  0.1382
  601MOL0     C82823   5.642   3.882   7.166  0.1199  0.0804  0.1218
  601MOL0     O82824   5.719   3.788   7.086 -0.4376  0.3554 -1.2589
  601MOL0     C82825   5.760   3.658   7.123  0.1968  0.2753  0.4397
  601MOL0     C82826   5.857   3.597   7.053  0.3160 -0.6488 -0.1450
  601MOL0     C82827   5.900   3.467   7.069 -0.4410 -0.6220  0.3701
  601MOL0     C82828   6.015   3.433   6.976 -0.5454 -0.6247  0.1394
  601MOL0     C82829   5.826   3.375   7.153 -0.5248 -0.2371 -0.0488
  601MOL0     C82830   5.852   3.236   7.179  1.1491  0.1381  0.2548
  601MOL0     O82831   5.791   3.190   7.296  0.2027  0.3254 -0.5375
  601MOL0     C82832   5.759   3.060   7.308  0.2313  0.6141 -0.1027
  601MOL0     C82833   5.740   2.970   7.204  0.6332 -0.4304  0.7226
  601MOL0     C82834   5.700   2.840   7.228  1.2192  0.6654  0.0686
  601MOL0     C82835   5.691   2.791   7.352  0.0580 -1.0709 -0.1328
  601MOL0     O82836   5.673   2.662   7.400 -0.0971 -0.2916 -0.6688
  601MOL0     C82837   5.621   2.563   7.311  0.1148 -0.4337  0.2270
  601MOL0     C82838   5.613   2.429   7.383  0.5387 -0.0608  1.1710
  601MOL0     C82839   5.593   2.324   7.273 -0.7627 -0.5292 -0.4186
  601MOL0     C82840   5.546   2.199   7.337 -0.2104  0.0506  0.1694
  601MOL0     C82841   5.458   2.088   7.265  0.3812 -0.1747 -0.0395
  601MOL0     C82842   5.520   2.040   7.135  0.0806  0.8223  0.4512
  601MOL0     C82843   5.414   1.952   7.065 -0.1630 -0.8215  0.8721
  601MOL0     C82844   5.432   1.819   7.150  0.9041  0.3879 -0.6529
  601MOL0    Cl82845   5.299   1.708   7.112 -0.6099  0.0653 -0.1192
  601MOL0     C82846   5.699   2.881   7.457 -0.0885  0.3429 -0.3760
  601MOL0     C82847   5.742   3.008   7.439  0.6454  0.0327  0.3658
  601MOL0     O82848   5.931   3.169   7.106  0.4803 -0.3618  0.0209
  601MOL0     C82849   5.709   3.438   7.219 -0.9179 -0.1183  0.4858
  601MOL0     C82850   5.688   3.581   7.214 -0.3684 -0.0875 -0.4870
  601MOL0     N82851   5.657   4.275   7.650 -0.0259  0.3325 -0.3077
  601MOL0     N82852   5.580   4.322   7.744  0.5568  0.3166  0.3632
  601MOL0     C82853   5.957   3.361   8.020 -0.6831 -0.3262 -0.0960
  601MOL0     C82854   6.018   3.252   7.950  0.4475 -0.8863  0.0082
  601MOL0     C82855   6.208   3.067   7.558 -0.6284 -0.7336  0.2543
  601MOL0     C82856   6.167   3.082   7.419 -0.5672  0.7805  0.9031
  601MOL0     C82857   6.190   2.973   7.327  0.2780  0.0179 -1.2906
  601MOL0     C82858   6.259   2.858   7.375 -0.1493  0.0116  0.3027
  601MOL0     O82859   6.293   2.754   7.279  0.1051  0.0638 -0.4965
  601MOL0     C82860   6.414   2.769   7.209  0.0525 -0.1500 -0.1299
  601MOL0     C82861   6.388   2.813   7.062  0.1328 -0.9375 -0.5041
  601MOL0     C82862   6.379   2.697   6.964 -0.5928  0.1549  0.6499
  601MOL0     C82863   6.342   2.746   6.826 -0.2418 -0.5669 -0.2118
  601MOL0     C82864   6.446   2.813   6.743  0.5409 -0.4220 -0.3774
  601MOL0     C82865   6.528   2.875   6.681 -0.4719 -0.3997 -0.0529
  601MOL0     C82866   6.303   2.847   7.504 -0.4130  0.4305 -0.2226
  601MOL0     C82867   6.263   2.949   7.602 -0.3410  0.2275  0.2123
  601MOL0     C82868   6.313   2.929   7.742 -0.7613 -0.3082  0.4954
  601MOL0     H82869   6.026   3.439   7.662 -1.4856  3.7276  1.4332
  601MOL0     H82870   5.915   3.594   7.796 -2.1754 -0.9097  0.0785
  601MOL0     H82871   5.965   3.574   8.214 -0.7735 -0.7561 -0.3783
  601MOL0     H82872   5.790   3.531   8.196 -0.2977 -0.3490 -2.7181
  601MOL0     H82873   5.790   3.736   8.329 -1.5686  1.6130 -0.7305
  601MOL0     H82874   5.929   3.797   8.245  0.7933 -2.2283  1.3786
  601MOL0     H82875   5.798   3.850   8.043 -0.7175 -2.5565 -1.2557
  601MOL0     H82876   5.663   3.751   8.095  0.3782  0.1077 -1.4176
  601MOL0     H82877   5.683   3.905   8.305  1.1329  1.5516  0.8676
  601MOL0     H82878   5.751   4.029   8.196  0.1691 -0.3525 -1.7655
  601MOL0     H82879   5.500   4.029   8.237  0.9248 -1.9691  2.5165
  601MOL0     H82880   5.481   3.904   8.122 -2.5893  1.8810  0.1174
  601MOL0     H82881   5.612   4.172   8.056  0.7955 -0.5035 -1.9117
  601MOL0     H82882   5.609   4.035   7.937  1.2850  1.3059 -0.9661
  601MOL0     H82883   5.351   4.111   8.066  0.7792 -0.1162 -0.3252
  601MOL0     H82884   5.373   4.019   7.914 -2.1272 -1.0148  3.5380
  601MOL0     H82885   5.296   4.231   7.855  0.6954 -0.7928 -2.1426
  601MOL0     H82886   5.412   4.317   7.953  0.3336 -0.1441 -0.9761
  601MOL0     H82887   5.463   4.017   7.664  1.3845 -1.2973  2.4841
  601MOL0     H82888   5.696   3.955   7.576 -0.3531 -1.3801 -3.1518
  601MOL0     H82889   5.803   4.083   7.509  0.5638  2.1585  0.8102
  601MOL0     H82890   5.521   4.004   7.414  0.1423  1.4272  1.0450
  601MOL0     H82891   5.618   4.131   7.344  4.9883 -0.2285 -1.5663
  601MOL0     H82892   5.802   3.972   7.289 -0.5048  0.7185  0.4896
  601MOL0     H82893   5.709   3.834   7.355 -2.1911 -1.0067 -2.6131
  601MOL0     H82894   5.540   3.847   7.184  0.3032 -0.0724  0.9051
  601MOL0     H82895   5.629   3.967   7.098  0.4151 -0.4113 -0.5632
  601MOL0     H82896   5.909   3.653   6.975  0.6079 -1.1753 -0.3317
  601MOL0     H82897   6.088   3.384   7.041  1.9826  0.5487 -1.6425
  601MOL0     H82898   6.065   3.514   6.921 -1.0140  0.5831  1.4152
  601MOL0     H82899   5.957   3.369   6.909 -1.3185 -0.3460  0.5388
  601MOL0     H82900   5.750   3.012   7.104 -0.7769  0.4646  0.9246
  601MOL0     H82901   5.690   2.755   7.160 -1.6492  0.1410  1.0139
  601MOL0     H82902   5.528   2.599   7.266 -1.2777 -1.5996  2.0271
  601MOL0     H82903   5.701   2.558   7.237  0.1576  0.2935  0.2142
  601MOL0     H82904   5.709   2.418   7.436  2.0389  1.9999 -0.9376
  601MOL0     H82905   5.533   2.430   7.458 -0.5311 -4.7247  0.4145
  601MOL0     H82906   5.690   2.313   7.223  0.3556 -0.3210  1.5971
  601MOL0     H82907   5.516   2.359   7.204 -0.6064 -0.7675 -0.7161
  601MOL0     H82908   5.495   2.235   7.427  1.9288  3.6945  0.1339
  601MOL0     H82909   5.636   2.152   7.377 -1.8586  0.2954  4.7652
  601MOL0     H82910   5.443   2.009   7.339 -0.8569  2.5687  2.9318
  601MOL0     H82911   5.364   2.141   7.246  1.4727  1.7453 -0.3993
  601MOL0     H82912   5.608   1.979   7.158 -0.2946 -0.8560 -2.0762
  601MOL0     H82913   5.545   2.125   7.071  2.5079  0.3991  0.7376
  601MOL0     H82914   5.438   1.929   6.961  1.0328  0.1202  0.9198
  601MOL0     H82915   5.319   2.005   7.074  1.4839  2.1110  2.5262
  601MOL0     H82916   5.422   1.833   7.258 -1.4759 -0.8824 -0.6386
  601MOL0     H82917   5.533   1.778   7.144  1.1768  0.6889  1.1745
  601MOL0     H82918   5.681   2.848   7.558  2.9218  1.0268  0.4729
  601MOL0     H82919   5.747   3.068   7.530 -2.5422 -2.5335  2.4991
  601MOL0     H82920   5.643   3.379   7.283 -0.2030  0.4230  1.7649
  601MOL0     H82921   5.597   3.620   7.259 -0.9871 -1.0529 -0.8784
  601MOL0     H82922   5.926   3.348   8.123  2.3848  3.1389  1.5061
  601MOL0     H82923   6.024   3.149   7.982 -0.8464 -2.4882 -4.1742
  601MOL0     H82924   6.110   3.169   7.388 -0.9512  0.0039 -0.7347
  601MOL0     H82925   6.164   2.966   7.221 -0.4892  0.5684 -1.1523
  601MOL0     H82926   6.483   2.833   7.265 -0.5496  3.1337 -2.7873
  601MOL0     H82927   6.448   2.666   7.213  1.7709  0.4319  1.4928
  601MOL0     H82928   6.471   2.877   7.030 -0.0702  0.6558  1.8643
  601MOL0     H82929   6.298   2.874   7.071  2.2335  2.3367  0.6840
  601MOL0     H82930   6.483   2.664   6.953 -0.7713 -0.1730 -0.1562
  601MOL0     H82931   6.319   2.614   7.003  0.3490 -0.4486  0.8788
  601MOL0     H82932   6.246   2.798   6.827 -0.7091 -1.2591 -2.5077
  601MOL0     H82933   6.335   2.655   6.766 -1.4842  2.2159 -4.7522
  601MOL0     H82934   6.601   2.927   6.621  0.1601 -1.4621 -0.2253
  601MOL0     H82935   6.364   2.758   7.518  0.4019  0.5351 -2.6438
  601MOL0     H82936   6.331   3.028   7.784  1.2595 -1.0584  1.5697
  601MOL0     H82937   6.236   2.881   7.804 -1.3881  0.6062  0.4382
  601MOL0     H82938   6.401   2.864   7.736 -0.6669 -0.0364 -2.1121
  602MOL0     O82939   2.897   3.197  11.259 -0.7665 -0.6944 -0.2487
  602MOL0     C82940   2.922   3.256  11.150 -0.1442 -1.0952 -0.6330
  602MOL0     O82941   3.000   3.199  11.056 -0.1826  0.6773  0.8254
  602MOL0     C82942   3.083   3.088  11.083  1.0280  0.1969  0.9493
  602MOL0     C82943   3.214   3.090  11.035 -0.4221  0.5732  0.4261
  602MOL0     C82944   3.281   2.970  11.038  1.0404  0.0599 -0.7088
  602MOL0     C82945   3.233   2.851  11.098 -0.0941  0.5862 -0.4618
  602MOL0     O82946   3.320   2.742  11.091  0.3434  0.4300 -0.8423
  602MOL0     C82947   3.277   2.611  11.144 -0.2243  0.3857  0.1384
  602MOL0     C82948   3.388   2.499  11.142 -0.2334  0.8519 -0.3197
  602MOL0     C82949   3.347   2.377  11.226  1.3978  0.6953  0.1282
  602MOL0     C82950   3.256   2.280  11.146 -0.1172  0.3882 -0.4670
  602MOL0     C82951   3.193   2.169  11.238  0.1072 -0.2065  0.7630
  602MOL0     C82952   3.081   2.101  11.156  0.1451 -0.5070  0.1428
  602MOL0     C82953   3.012   1.995  11.242  0.5452  0.4474  0.0295
  602MOL0     C82954   3.091   1.873  11.311  0.4947 -0.3773  0.3921
  602MOL0     N82955   3.000   1.778  11.376  0.2443  0.6042  0.0200
  602MOL0     C82956   2.912   1.707  11.299  0.3476  0.2659  0.0175
  602MOL0     C82957   2.828   1.650  11.389  0.7137  1.3514  0.1637
  602MOL0     C82958   2.705   1.571  11.363  0.3727 -0.5527  0.5281
  602MOL0     C82959   2.705   1.470  11.477  0.1927  1.0520  0.2122
  602MOL0     C82960   2.580   1.390  11.489  0.9837  0.2483  0.3375
  602MOL0     C82961   2.574   1.313  11.620 -0.4302 -0.1225  0.8431
  602MOL0     O82962   2.570   1.394  11.741 -0.5595  0.1798 -0.1843
  602MOL0     C82963   2.472   1.342  11.825 -0.8707  0.6785  0.6395
  602MOL0     C82964   2.342   1.380  11.811 -0.4068 -0.7472  0.0613
  602MOL0     C82965   2.245   1.339  11.907  0.0548 -0.0353 -0.1610
  602MOL0     C82966   2.122   1.422  11.931 -0.4513  0.9647  0.4223
  602MOL0     C82967   2.279   1.227  11.994  1.0114 -0.3029 -1.3704
  602MOL0     C82968   2.176   1.163  12.084  0.2513  1.0929  0.4871
  602MOL0     O82969   2.222   1.056  12.156 -0.0473 -0.1622  0.3387
  602MOL0     C82970   2.144   0.974  12.233 -0.3546 -0.3391 -0.3358
  602MOL0     C82971   2.224   0.891  12.311  0.1289  0.2954 -0.7086
  602MOL0     C82972   2.157   0.807  12.405  0.7115  0.3307 -1.0829
  602MOL0     C82973   2.017   0.807  12.430 -0.8834  0.0295  0.6865
  602MOL0     O82974   1.954   0.736  12.525 -0.1335  0.4686  0.2699
  602MOL0     C82975   2.019   0.615  12.578 -0.0246 -0.3415  0.4553
  602MOL0     C82976   1.932   0.543  12.684 -0.0765 -0.4993 -0.1256
  602MOL0     C82977   1.862   0.632  12.797  0.1583 -0.0343 -0.1626
  602MOL0     C82978   1.779   0.524  12.869 -0.1137  0.8822  0.3579
  602MOL0     C82979   1.689   0.578  12.972 -0.0808 -0.6813 -0.2656
  602MOL0     C82980   1.541   0.597  12.922 -0.0340  0.3025 -0.0342
  602MOL0     C82981   1.475   0.689  13.015 -0.9736 -0.0782  0.5922
  602MOL0     C82982   1.466   0.838  12.951 -0.9986 -0.1342 -0.7579
  602MOL0    Cl82983   1.385   0.850  12.802  0.5410 -0.2340 -0.2500
  602MOL0     C82984   1.939   0.887  12.343  0.6465  0.9269  0.2930
  602MOL0     C82985   2.000   0.971  12.240  0.4861  0.0846 -0.5689
  602MOL0     O82986   2.058   1.186  12.069  0.2022 -0.3974  0.2018
  602MOL0     C82987   2.416   1.185  11.995 -0.4247  0.5803  0.1180
  602MOL0     C82988   2.509   1.238  11.914 -0.0522 -1.0085  0.1762
  602MOL0     N82989   2.864   1.687  11.515 -0.0067 -0.6640  0.3483
  602MOL0     N82990   2.967   1.770  11.503  0.5039 -0.0513 -0.0441
  602MOL0     C82991   3.098   2.852  11.154 -0.1549 -0.6151  0.4143
  602MOL0     C82992   3.025   2.966  11.131 -0.6437 -0.3208  0.2429
  602MOL0     C82993   2.882   3.390  11.128  0.1599  0.0176  0.3606
  602MOL0     C82994   2.983   3.480  11.070  0.4111 -1.1886  0.1863
  602MOL0     C82995   2.957   3.614  11.052 -0.5945  0.1380  1.3327
  602MOL0     C82996   2.827   3.657  11.065  0.5021 -0.7993 -0.3552
  602MOL0     O82997   2.793   3.781  11.021 -0.2008  0.1568 -1.0374
  602MOL0     C82998   2.778   3.801  10.877  0.7248  1.1989 -0.5385
  602MOL0     C82999   2.747   3.681  10.797  0.5511  0.7463  0.3031
  602MOL0     C83000   2.752   3.696  10.653  0.8040  0.5965  0.5072
  602MOL0     C83001   2.879   3.754  10.589  0.2033 -0.6108 -0.2071
  602MOL0     C83002   2.855   3.784  10.451 -0.0779 -0.7838  0.6017
  602MOL0     C83003   2.819   3.819  10.339  0.7209 -0.2581 -0.0362
  602MOL0     C83004   2.723   3.573  11.110 -0.1972  0.1748 -0.0171
  602MOL0     C83005   2.748   3.442  11.152 -0.7505 -0.0924 -0.4038
  602MOL0     C83006   2.643   3.366  11.234 -0.8324 -0.1407  0.0207
  602MOL0     H83007   3.243   3.184  10.990 -0.5683  0.1521 -0.5522
  602MOL0     H83008   3.379   2.966  10.992 -0.1354  2.0486 -3.6745
  602MOL0     H83009   3.189   2.571  11.094 -0.1182  0.2565  0.0583
  602MOL0     H83010   3.254   2.621  11.251  0.5854 -1.4485  0.5084
  602MOL0     H83011   3.393   2.473  11.036  1.4198  2.1818 -0.6121
  602MOL0     H83012   3.489   2.527  11.174  0.2288 -0.4530 -0.5714
  602MOL0     H83013   3.436   2.323  11.260  0.2943 -0.5648  1.1560
  602MOL0     H83014   3.298   2.406  11.319  2.0748  1.3140  0.2966
  602MOL0     H83015   3.176   2.345  11.108  0.5946  3.3798  2.6988
  602MOL0     H83016   3.320   2.250  11.062  2.7506  0.2565  1.6213
  602MOL0     H83017   3.153   2.217  11.328  0.0311 -0.5191  0.8963
  602MOL0     H83018   3.275   2.099  11.257  0.5688  0.2176  0.3703
  602MOL0     H83019   3.009   2.177  11.126  3.8936  4.1787  1.6091
  602MOL0     H83020   3.116   2.041  11.071 -0.2052 -0.3984 -0.0799
  602MOL0     H83021   2.933   1.961  11.176  1.6560 -0.5539 -0.8189
  602MOL0     H83022   2.963   2.048  11.325  0.3872  2.5636 -1.3186
  602MOL0     H83023   3.150   1.825  11.233  4.2780 -0.3018  2.9181
  602MOL0     H83024   3.163   1.916  11.382  2.6981 -1.7210 -0.9229
  602MOL0     H83025   2.892   1.697  11.193 -2.1831 -3.1119  0.6279
  602MOL0     H83026   2.693   1.515  11.269  0.6285  0.8095 -0.3378
  602MOL0     H83027   2.617   1.635  11.373 -0.6732 -1.6007 -1.2812
  602MOL0     H83028   2.787   1.401  11.458  0.9126  1.5322  1.4350
  602MOL0     H83029   2.705   1.524  11.573 -1.1902  2.1156 -0.3419
  602MOL0     H83030   2.496   1.460  11.490 -1.3775 -2.3819 -1.1547
  602MOL0     H83031   2.566   1.311  11.415  2.0283  0.0757  0.3155
  602MOL0     H83032   2.493   1.241  11.605  1.2853 -1.7104 -1.7446
  602MOL0     H83033   2.658   1.244  11.632  0.3406  1.2056  4.1259
  602MOL0     H83034   2.317   1.452  11.734 -1.2164 -1.8874 -0.7770
  602MOL0     H83035   2.127   1.447  12.037  3.0246 -0.8536  0.8415
  602MOL0     H83036   2.033   1.364  11.905  0.9695 -0.9653 -0.4402
  602MOL0     H83037   2.116   1.510  11.866 -0.1293  1.2994  0.8402
  602MOL0     H83038   2.332   0.899  12.308  0.0296  1.3721 -2.8203
  602MOL0     H83039   2.219   0.747  12.471 -1.7867  2.6585  3.9507
  602MOL0     H83040   2.039   0.548  12.494 -2.8145 -0.6679 -0.0347
  602MOL0     H83041   2.106   0.656  12.630  0.8578 -1.2342 -0.2680
  602MOL0     H83042   1.869   0.474  12.627 -0.5710 -3.5023  3.6607
  602MOL0     H83043   2.002   0.477  12.737 -1.1597 -0.8316  0.9366
  602MOL0     H83044   1.802   0.715  12.760 -1.3915  0.1176  2.4944
  602MOL0     H83045   1.935   0.671  12.868 -0.8705 -0.1457  0.9930
  602MOL0     H83046   1.851   0.461  12.922  1.2471  0.4771 -1.8401
  602MOL0     H83047   1.714   0.473  12.797  0.8378  2.0314 -1.3932
  602MOL0     H83048   1.704   0.515  13.060  1.4990  0.0009 -0.0116
  602MOL0     H83049   1.738   0.672  12.997  0.2821 -0.2985 -2.2548
  602MOL0     H83050   1.497   0.498  12.937  1.0414  0.1034  2.2958
  602MOL0     H83051   1.526   0.609  12.814 -0.9796 -1.6280 -0.1565
  602MOL0     H83052   1.528   0.706  13.109  0.8487  0.2844 -0.4514
  602MOL0     H83053   1.370   0.661  13.027 -1.2086  0.2041 -0.6007
  602MOL0     H83054   1.570   0.866  12.936 -1.3175  1.8709  0.3716
  602MOL0     H83055   1.427   0.902  13.031  3.5104  1.5496  0.3889
  602MOL0     H83056   1.834   0.904  12.365  0.8635  0.2941  1.9878
  602MOL0     H83057   1.937   1.041  12.186  0.3230  1.3993  1.2432
  602MOL0     H83058   2.466   1.109  12.053 -1.2232  0.1286  0.2347
  602MOL0     H83059   2.610   1.199  11.921 -0.0038 -1.0627 -0.6741
  602MOL0     H83060   3.052   2.768  11.205  1.0734 -1.9103 -0.5270
  602MOL0     H83061   2.920   2.969  11.159 -0.3404  1.4601  1.2909
  602MOL0     H83062   3.083   3.440  11.056  0.7688  0.2668 -1.9447
  602MOL0     H83063   3.027   3.689  11.018 -1.7966  1.5212  1.7756
  602MOL0     H83064   2.691   3.864  10.860  0.7538  1.5698  0.5800
  602MOL0     H83065   2.874   3.847  10.851  2.3850 -0.3995  2.2787
  602MOL0     H83066   2.648   3.642  10.822 -1.3448  3.6017 -2.0661
  602MOL0     H83067   2.813   3.596  10.817 -0.2203  0.5022  2.0251
  602MOL0     H83068   2.742   3.595  10.611  1.9866 -0.9838  3.7044
  602MOL0     H83069   2.672   3.767  10.630  0.6697  0.3658  0.2470
  602MOL0     H83070   2.963   3.686  10.604 -0.1836 -1.0209  0.1068
  602MOL0     H83071   2.915   3.842  10.644  3.1955 -0.6131 -1.9494
  602MOL0     H83072   2.782   3.850  10.243 -0.2653 -1.5035 -0.0884
  602MOL0     H83073   2.624   3.615  11.097 -0.7556 -0.0609  2.7507
  602MOL0     H83074   2.588   3.293  11.174  0.4364  0.3363 -1.8174
  602MOL0     H83075   2.686   3.310  11.318 -1.6420  0.0329  0.5560
  602MOL0     H83076   2.561   3.423  11.278 -0.8150  0.9635 -1.3024
  603MOL0     O83077  10.417   0.225   2.127  0.2403 -0.0968 -0.5241
  603MOL0     C83078  10.490   0.149   2.192 -0.5534  0.1336  0.7318
  603MOL0     O83079  10.525   0.144   2.328 -0.9715  0.1431 -0.1543
  603MOL0     C83080  10.456   0.215   2.418  0.2399  0.4808  0.8413
  603MOL0     C83081  10.321   0.205   2.443 -0.5428  0.2180  1.1036
  603MOL0     C83082  10.263   0.282   2.540 -1.1537  0.3804  0.1607
  603MOL0     C83083  10.329   0.378   2.620  0.8965  0.6803 -0.4063
  603MOL0     O83084  10.242   0.450   2.705 -0.1742 -0.3680 -0.5970
  603MOL0     C83085  10.272   0.590   2.721  1.7341 -0.7458  0.3200
  603MOL0     C83086  10.152   0.665   2.776 -0.4107  0.3495 -0.7551
  603MOL0     C83087  10.174   0.813   2.747 -0.3151 -0.2001  0.2177
  603MOL0     C83088  10.291   0.884   2.814 -0.0473 -0.2475 -0.5882
  603MOL0     C83089  10.307   1.029   2.763  0.7786 -1.1231  0.9722
  603MOL0     C83090  10.420   1.094   2.843  0.4646 -0.9820  0.6108
  603MOL0     C83091  10.455   1.239   2.800  0.3894 -0.4258 -0.1384
  603MOL0     C83092  10.575   1.291   2.879 -0.0950 -1.0134 -0.2185
  603MOL0     N83093  10.700   1.240   2.824  0.0612  0.3701 -0.3193
  603MOL0     C83094  10.769   1.122   2.868  0.5658 -0.1564 -0.7476
  603MOL0     C83095  10.861   1.100   2.772  0.1951 -0.2654 -0.1118
  603MOL0     C83096  10.968   1.002   2.752 -0.4431  0.5671  0.2999
  603MOL0     C83097  11.109   1.048   2.805  0.0709 -0.1789 -0.8747
  603MOL0     C83098  11.111   1.096   2.954  0.0657  0.7062 -0.4832
  603MOL0     C83099  11.086   0.986   3.053 -0.5072 -0.7152 -0.0058
  603MOL0     O83100  11.105   1.025   3.194 -0.3093 -0.2770 -0.2576
  603MOL0     C83101  11.148   0.935   3.280  0.0400 -0.1997 -0.1311
  603MOL0     C83102  11.233   0.983   3.382  0.6117 -0.6543 -0.9187
  603MOL0     C83103  11.262   0.891   3.493 -1.3147 -0.7645 -0.2629
  603MOL0     C83104  11.361   0.936   3.594  0.2931  0.0895 -0.3043
  603MOL0     C83105  11.202   0.765   3.495 -1.0687  0.4290 -0.8417
  603MOL0     C83106  11.198   0.683   3.619  0.4959 -0.2951 -0.4547
  603MOL0     O83107  11.235   0.547   3.615  0.2216  0.0242 -0.1271
  603MOL0     C83108  11.223   0.456   3.728 -0.0017 -0.3487 -0.0003
  603MOL0     C83109  11.116   0.464   3.813  1.4194 -0.2251 -0.2186
  603MOL0     C83110  11.117   0.377   3.921  0.2006  0.4891  0.7928
  603MOL0     C83111  11.221   0.288   3.953 -0.6232  0.1199  0.9007
  603MOL0     O83112  11.219   0.205   4.062 -0.7557  0.2542 -0.9092
  603MOL0     C83113  11.339   0.157   4.132  0.3497 -0.6460 -0.6600
  603MOL0     C83114  11.305   0.107   4.279  0.7073  1.3005 -1.0922
  603MOL0     C83115  11.255  -0.038   4.274  0.7063  0.4933  0.0944
  603MOL0     C83116  11.318  -0.132   4.376 -0.4595  0.5807  0.0210
  603MOL0     C83117  11.264  -0.099   4.523  0.2184  0.3631  0.4237
  603MOL0     C83118  11.345  -0.180   4.625 -0.0045 -0.3149  0.4973
  603MOL0     C83119  11.257  -0.264   4.713 -0.2200  0.0883 -0.3502
  603MOL0     C83120  11.326  -0.314   4.842 -0.4359  0.0069  0.9469
  603MOL0    Cl83121  11.310  -0.208   4.995  0.3512  0.0468 -0.3788
  603MOL0     C83122  11.327   0.283   3.864  0.2916 -0.0643  0.4797
  603MOL0     C83123  11.326   0.367   3.757 -0.2777  0.4190 -0.2866
  603MOL0     O83124  11.142   0.742   3.717  0.4365  0.2959  0.6703
  603MOL0     C83125  11.126   0.716   3.383  0.0501  0.8085  0.1150
  603MOL0     C83126  11.101   0.799   3.272  1.1058 -0.1083 -0.2612
  603MOL0     N83127  10.838   1.196   2.672 -0.1181 -0.1252 -0.0691
  603MOL0     N83128  10.746   1.278   2.703  0.0701 -0.2433 -0.3058
  603MOL0     C83129  10.466   0.401   2.587  0.3423 -0.1650  0.2877
  603MOL0     C83130  10.533   0.315   2.490  0.3570  0.1995 -1.0664
  603MOL0     C83131  10.554   0.043   2.105 -0.5639 -0.4927 -0.4579
  603MOL0     C83132  10.495   0.015   1.982  0.5490  0.5676 -0.3985
  603MOL0     C83133  10.546  -0.081   1.897 -0.2329  0.8341 -0.1260
  603MOL0     C83134  10.663  -0.153   1.940  0.6473  0.4207 -0.2339
  603MOL0     O83135  10.718  -0.249   1.859 -0.1303  0.5111 -0.6492
  603MOL0     C83136  10.665  -0.270   1.728  0.3932 -0.4883 -0.3723
  603MOL0     C83137  10.711  -0.153   1.637 -0.2798  0.0992 -0.2893
  603MOL0     C83138  10.854  -0.157   1.603 -0.8502 -0.9094 -0.2330
  603MOL0     C83139  10.948  -0.096   1.704  0.2572  0.7704  0.0408
  603MOL0     C83140  11.072  -0.072   1.633 -0.8478 -0.0903 -0.5951
  603MOL0     C83141  11.171  -0.048   1.570 -0.7149  0.0131  0.0032
  603MOL0     C83142  10.729  -0.128   2.054  0.1627 -0.1419 -0.4214
  603MOL0     C83143  10.679  -0.026   2.135 -0.6021 -0.3820 -1.0499
  603MOL0     C83144  10.764   0.006   2.260  0.5478 -0.8410 -0.9992
  603MOL0     H83145  10.262   0.129   2.392  1.1338 -1.0231  0.9400
  603MOL0     H83146  10.156   0.273   2.557 -1.4008  3.7725  1.1199
  603MOL0     H83147  10.274   0.626   2.617 -3.1791  0.9548  0.5330
  603MOL0     H83148  10.368   0.606   2.770  1.8507  0.1638 -0.1698
  603MOL0     H83149  10.067   0.632   2.717 -1.9604 -2.7694  2.8045
  603MOL0     H83150  10.152   0.643   2.884  3.7035  2.9412  0.0368
  603MOL0     H83151  10.184   0.817   2.638 -0.1127 -1.1856  0.1824
  603MOL0     H83152  10.084   0.867   2.776  0.6121  1.9688 -0.7329
  603MOL0     H83153  10.268   0.884   2.921 -0.5379  2.0866 -0.6434
  603MOL0     H83154  10.381   0.831   2.780 -0.5253 -1.5686  0.1286
  603MOL0     H83155  10.214   1.084   2.777  1.6190 -0.0458  2.7350
  603MOL0     H83156  10.333   1.033   2.657  0.4368  1.5921  0.9198
  603MOL0     H83157  10.401   1.080   2.950  0.0771 -0.7398  0.5734
  603MOL0     H83158  10.512   1.039   2.821  0.8342  0.5299 -2.0560
  603MOL0     H83159  10.373   1.312   2.800  1.8333  1.3258 -2.3062
  603MOL0     H83160  10.485   1.238   2.695  0.4774  1.0006 -0.1511
  603MOL0     H83161  10.579   1.400   2.870  2.0465 -1.0673 -0.4429
  603MOL0     H83162  10.570   1.277   2.988  2.6943  0.4121  0.1704
  603MOL0     H83163  10.756   1.068   2.961 -0.3351  2.1794  0.5665
  603MOL0     H83164  10.973   0.988   2.644  1.8361  1.2431  0.2698
  603MOL0     H83165  10.937   0.913   2.807 -1.5949  0.0960 -1.0565
  603MOL0     H83166  11.183   0.967   2.798 -1.4687 -1.6296 -1.0858
  603MOL0     H83167  11.157   1.124   2.743  0.7389  1.2971  1.3396
  603MOL0     H83168  11.208   1.141   2.979  0.1803 -0.3176  1.1072
  603MOL0     H83169  11.038   1.176   2.966  0.0370  0.4833  1.0222
  603MOL0     H83170  10.983   0.957   3.029 -1.1375  2.1703 -1.2348
  603MOL0     H83171  11.161   0.909   3.035  2.3358  2.0350 -0.8666
  603MOL0     H83172  11.283   1.079   3.381 -0.2993  0.0064  2.3465
  603MOL0     H83173  11.324   1.029   3.637  0.0211  0.4458 -1.2871
  603MOL0     H83174  11.456   0.963   3.547 -0.4507  1.1225 -1.2706
  603MOL0     H83175  11.367   0.858   3.670  0.1506 -3.1891 -3.3883
  603MOL0     H83176  11.035   0.534   3.799  1.2744 -0.2275  0.5594
  603MOL0     H83177  11.038   0.372   3.996 -2.2827  1.5636 -1.5863
  603MOL0     H83178  11.366   0.075   4.065 -0.2431  0.0688 -1.8013
  603MOL0     H83179  11.406   0.242   4.151 -0.2390 -0.9372  4.1221
  603MOL0     H83180  11.403   0.107   4.327  2.0252 -2.0983 -3.4212
  603MOL0     H83181  11.227   0.173   4.317 -3.6061 -1.5285 -4.0375
  603MOL0     H83182  11.282  -0.084   4.178  2.7413 -0.6359  1.1548
  603MOL0     H83183  11.146  -0.043   4.278  0.5853 -0.8468 -2.3548
  603MOL0     H83184  11.427  -0.117   4.375 -0.3868  0.3980  1.8192
  603MOL0     H83185  11.301  -0.239   4.362 -1.7268  0.9306 -1.3744
  603MOL0     H83186  11.286   0.004   4.552 -1.5902  1.1889 -0.9167
  603MOL0     H83187  11.155  -0.095   4.530 -0.1228 -0.8704 -2.4615
  603MOL0     H83188  11.401  -0.119   4.696 -1.0879 -0.1397  1.2337
  603MOL0     H83189  11.417  -0.248   4.578 -1.8546 -0.6629 -2.0924
  603MOL0     H83190  11.231  -0.355   4.659  3.0087  0.3515 -2.6361
  603MOL0     H83191  11.168  -0.212   4.749  0.1445  0.1322  0.5276
  603MOL0     H83192  11.433  -0.325   4.822 -0.5848 -0.3830  0.3509
  603MOL0     H83193  11.274  -0.409   4.856 -1.3246  0.4158  0.4813
  603MOL0     H83194  11.421   0.230   3.878  1.3669  1.3750 -0.8898
  603MOL0     H83195  11.411   0.368   3.689 -0.2198 -2.6658 -0.4000
  603MOL0     H83196  11.089   0.615   3.392 -0.7896  0.6873 -3.2504
  603MOL0     H83197  11.046   0.755   3.190  2.0994 -2.8894  0.4412
  603MOL0     H83198  10.537   0.466   2.636 -0.4634  0.2747  0.9089
  603MOL0     H83199  10.640   0.326   2.478  0.0866  1.5789 -2.5660
  603MOL0     H83200  10.402   0.064   1.954  0.7510  0.7845 -0.7031
  603MOL0     H83201  10.502  -0.105   1.801 -2.4670  1.7327  0.6084
  603MOL0     H83202  10.695  -0.367   1.688  0.1860 -1.5976  1.9646
  603MOL0     H83203  10.557  -0.284   1.726  0.3747 -0.5901  0.5718
  603MOL0     H83204  10.694  -0.059   1.691  1.1636 -0.9332  2.1173
  603MOL0     H83205  10.662  -0.160   1.540 -2.5159  1.3008  0.6664
  603MOL0     H83206  10.893  -0.258   1.588  1.7686  0.2680 -1.9972
  603MOL0     H83207  10.866  -0.089   1.518 -2.8633  1.4661  1.2244
  603MOL0     H83208  10.972  -0.163   1.787  0.7844 -0.7543 -1.2908
  603MOL0     H83209  10.928   0.000   1.752  1.5770  0.9451  0.2898
  603MOL0     H83210  11.252  -0.049   1.499 -0.5375 -0.2794  0.2090
  603MOL0     H83211  10.797  -0.206   2.086  0.5781  0.5441  0.4455
  603MOL0     H83212  10.771   0.115   2.271 -0.3324 -0.8717  0.0314
  603MOL0     H83213  10.721  -0.042   2.348  1.1719 -0.9646 -0.7556
  603MOL0     H83214  10.869  -0.026   2.259  0.9279  0.0406  1.4914
  604MOL0     O83215   5.879   1.130   9.631 -0.1842 -0.0480 -0.2830
  604MOL0     C83216   5.975   1.110   9.704  0.5002  0.0536  0.1628
  604MOL0     O83217   6.091   1.185   9.697  0.0111 -0.2309 -0.1386
  604MOL0     C83218   6.095   1.311   9.626 -0.6413 -0.3524 -0.2953
  604MOL0     C83219   6.222   1.356   9.573 -1.4881 -1.4620 -0.8304
  604MOL0     C83220   6.238   1.488   9.516  0.6781  0.6944 -0.6337
  604MOL0     C83221   6.119   1.574   9.516 -0.1475 -0.2343  0.8244
  604MOL0     O83222   6.143   1.708   9.476  0.3826 -0.1276  0.6746
  604MOL0     C83223   6.146   1.722   9.334  0.5987 -0.6260  0.0609
  604MOL0     C83224   6.005   1.744   9.275 -0.1134 -0.9504 -0.6400
  604MOL0     C83225   6.009   1.729   9.126 -0.4963 -0.3481 -0.1098
  604MOL0     C83226   5.880   1.768   9.048 -0.7224  0.6348  0.0276
  604MOL0     C83227   5.894   1.700   8.906  0.0079 -0.6463 -0.7619
  604MOL0     C83228   6.012   1.760   8.823 -0.6732  0.2551 -0.0893
  604MOL0     C83229   6.000   1.694   8.687 -1.2670 -0.9362  0.2927
  604MOL0     C83230   6.091   1.745   8.570 -0.4305  0.6161  0.3355
  604MOL0     N83231   6.072   1.659   8.448 -0.4481  0.0558 -0.2771
  604MOL0     C83232   6.014   1.708   8.333 -0.0200 -0.0842  0.5192
  604MOL0     C83233   6.020   1.616   8.243 -0.5475 -0.2900 -0.5435
  604MOL0     C83234   5.962   1.624   8.104 -0.3036  0.1883  0.4237
  604MOL0     C83235   5.903   1.497   8.052  0.8841  0.9466 -0.0407
  604MOL0     C83236   5.797   1.512   7.941  0.2735  0.3612  0.0630
  604MOL0     C83237   5.718   1.390   7.898  0.0643 -0.7633  0.2566
  604MOL0     O83238   5.613   1.360   7.998 -0.4201 -1.2608  0.1772
  604MOL0     C83239   5.525   1.261   7.968  1.4278 -0.7073 -1.1878
  604MOL0     C83240   5.394   1.269   8.025  0.0452 -0.1344  1.1382
  604MOL0     C83241   5.294   1.187   7.975 -0.2300  0.3706 -0.7508
  604MOL0     C83242   5.161   1.220   8.036  0.3621  0.7571 -0.3848
  604MOL0     C83243   5.316   1.071   7.900 -0.0562  0.1381 -0.0343
  604MOL0     C83244   5.204   0.979   7.866  0.2888 -0.4301  0.0633
  604MOL0     O83245   5.178   0.857   7.938  0.6728 -0.8044  0.7916
  604MOL0     C83246   5.277   0.820   8.026 -0.8149 -0.4465  0.5321
  604MOL0     C83247   5.395   0.756   7.978  0.5513  0.0017  0.1054
  604MOL0     C83248   5.489   0.702   8.069  0.4166  0.4300 -0.0142
  604MOL0     C83249   5.469   0.715   8.203 -1.9516  0.1166 -0.1131
  604MOL0     O83250   5.563   0.647   8.273 -0.1007 -0.0597  0.7321
  604MOL0     C83251   5.536   0.612   8.408 -0.4161  0.2575  0.2954
  604MOL0     C83252   5.640   0.515   8.456 -0.2227 -1.9320  0.4479
  604MOL0     C83253   5.676   0.529   8.602 -1.1247 -0.3009 -0.9214
  604MOL0     C83254   5.755   0.405   8.668  0.6352 -1.1059  0.0781
  604MOL0     C83255   5.869   0.333   8.600 -0.1830 -0.0436 -0.3234
  604MOL0     C83256   5.880   0.184   8.639  0.6416  0.1451  0.5717
  604MOL0     C83257   5.822   0.092   8.532 -0.1434  0.3686 -0.5308
  604MOL0     C83258   5.853  -0.057   8.583 -0.3864  0.1646 -1.7357
  604MOL0    Cl83259   6.018  -0.071   8.536 -0.5237  0.1797  0.2299
  604MOL0     C83260   5.359   0.785   8.253  0.8535  1.5195  0.3531
  604MOL0     C83261   5.261   0.833   8.161  1.0641 -0.1704 -0.3987
  604MOL0     O83262   5.136   1.021   7.777 -0.4979 -0.3662 -0.4298
  604MOL0     C83263   5.444   1.062   7.844  0.7254 -0.8754  0.3307
  604MOL0     C83264   5.549   1.158   7.880  0.6509  1.4237  0.1817
  604MOL0     N83265   6.094   1.512   8.300 -0.8708  0.2311  0.7093
  604MOL0     N83266   6.135   1.545   8.419 -0.4354  0.4063 -0.1886
  604MOL0     C83267   6.000   1.527   9.567  0.7448 -0.4909 -0.2008
  604MOL0     C83268   5.995   1.409   9.630  1.1233 -0.5742  0.8205
  604MOL0     C83269   5.969   0.998   9.808 -0.4461 -0.2023  0.8401
  604MOL0     C83270   6.094   0.934   9.850 -0.9925 -0.0723  1.1590
  604MOL0     C83271   6.109   0.841   9.944  0.1671  0.5024  0.4378
  604MOL0     C83272   5.991   0.788  10.005 -0.1508 -0.0228  0.0654
  604MOL0     O83273   5.991   0.693  10.106 -0.0890 -0.7149  0.4088
  604MOL0     C83274   5.951   0.557  10.081 -0.9251 -0.7585  0.0137
  604MOL0     C83275   5.977   0.486  10.215 -0.4280  0.1531 -0.4659
  604MOL0     C83276   6.102   0.393  10.205 -0.2609  0.5799 -0.0166
  604MOL0     C83277   6.144   0.303  10.317 -0.5620  0.2729  0.1932
  604MOL0     C83278   6.135   0.394  10.433 -0.3530 -0.2736  0.0262
  604MOL0     C83279   6.128   0.467  10.527 -0.2718  0.0439 -0.1841
  604MOL0     C83280   5.867   0.837   9.954  1.2005 -0.2264 -0.3292
  604MOL0     C83281   5.851   0.940   9.861  0.7174  0.3122 -0.7754
  604MOL0     C83282   5.709   0.977   9.823 -0.7998  0.1556  0.0155
  604MOL0     H83283   6.305   1.286   9.577 -1.2835 -1.1844  0.7116
  604MOL0     H83284   6.340   1.515   9.491  0.6926  0.6109 -0.6671
  604MOL0     H83285   6.178   1.627   9.290  0.9035  0.0577 -1.2418
  604MOL0     H83286   6.212   1.803   9.301  1.1847 -0.2527  2.0434
  604MOL0     H83287   5.947   1.662   9.318  1.8229 -1.8004  0.4940
  604MOL0     H83288   5.966   1.843   9.299  2.0497 -0.8452  3.3620
  604MOL0     H83289   6.099   1.780   9.093  2.3175 -3.8887  1.4210
  604MOL0     H83290   6.041   1.628   9.100  2.4344 -0.3528  2.9009
  604MOL0     H83291   5.801   1.722   9.109  0.6804 -1.3163  0.4921
  604MOL0     H83292   5.856   1.873   9.035  2.1937  1.4312  0.3215
  604MOL0     H83293   5.799   1.710   8.853 -0.8244  2.1052  1.0595
  604MOL0     H83294   5.921   1.594   8.914 -1.9678 -1.0920  0.9621
  604MOL0     H83295   5.999   1.868   8.830 -1.9939  0.0717  0.9002
  604MOL0     H83296   6.107   1.746   8.875 -0.6438  1.9934  0.3735
  604MOL0     H83297   5.898   1.712   8.652 -1.0552 -2.7816 -1.5103
  604MOL0     H83298   6.000   1.585   8.682  0.4569 -0.9714  0.5826
  604MOL0     H83299   6.072   1.851   8.556  0.4391  0.8726  1.0209
  604MOL0     H83300   6.197   1.731   8.592 -0.5482 -3.9439 -0.9136
  604MOL0     H83301   5.973   1.808   8.319 -1.2880 -0.3889  1.8430
  604MOL0     H83302   6.043   1.659   8.039 -2.2495  2.9337 -0.7133
  604MOL0     H83303   5.879   1.694   8.115 -0.4326 -0.0161  0.7751
  604MOL0     H83304   5.978   1.428   8.013  1.1775  1.4108 -0.3083
  604MOL0     H83305   5.852   1.443   8.133  2.4148 -1.5315 -0.6112
  604MOL0     H83306   5.722   1.589   7.961 -0.8833 -0.2707 -1.5818
  604MOL0     H83307   5.850   1.554   7.855 -3.0610 -0.4423 -2.5874
  604MOL0     H83308   5.672   1.417   7.803  4.1705  0.8156 -1.5046
  604MOL0     H83309   5.795   1.313   7.888  1.3591  0.1572  2.3449
  604MOL0     H83310   5.367   1.347   8.094  1.6709  0.9318  0.6261
  604MOL0     H83311   5.181   1.239   8.142 -1.9417 -2.6422  0.8236
  604MOL0     H83312   5.085   1.142   8.037  1.7947 -0.7011 -0.8755
  604MOL0     H83313   5.113   1.311   7.999 -1.4628  0.6674  1.5857
  604MOL0     H83314   5.400   0.742   7.870  0.0363 -1.2621  0.2342
  604MOL0     H83315   5.567   0.638   8.030  0.1706 -0.3443  0.7326
  604MOL0     H83316   5.525   0.706   8.464 -0.7117  1.5088 -1.7412
  604MOL0     H83317   5.438   0.565   8.420  0.0276 -0.5437  0.8687
  604MOL0     H83318   5.596   0.418   8.434 -0.6688 -1.2647 -1.9344
  604MOL0     H83319   5.734   0.539   8.406 -2.0391  5.3312 -0.6377
  604MOL0     H83320   5.580   0.546   8.652 -0.4781 -0.0663  0.2777
  604MOL0     H83321   5.754   0.604   8.611 -0.1614 -1.5648  3.4170
  604MOL0     H83322   5.673   0.334   8.687 -2.3376  1.7934 -0.8717
  604MOL0     H83323   5.779   0.446   8.766  1.0698  0.4464 -0.6458
  604MOL0     H83324   5.859   0.333   8.492 -0.2413 -0.2089 -0.3179
  604MOL0     H83325   5.964   0.382   8.625  0.0239  0.1634 -1.4903
  604MOL0     H83326   5.826   0.163   8.731 -3.4945 -1.8009 -1.9981
  604MOL0     H83327   5.985   0.162   8.663  0.2751 -1.2782  0.9881
  604MOL0     H83328   5.872   0.104   8.436  1.8974 -0.1132  0.4205
  604MOL0     H83329   5.713   0.105   8.524 -0.8636 -2.8443  1.8102
  604MOL0     H83330   5.794  -0.137   8.537  2.2688 -2.2086 -1.2359
  604MOL0     H83331   5.846  -0.057   8.692  1.9740 -0.6756 -1.5263
  604MOL0     H83332   5.337   0.796   8.358 -0.3349  0.6335  0.2152
  604MOL0     H83333   5.165   0.874   8.189 -1.1164 -3.9672 -1.6073
  604MOL0     H83334   5.457   0.991   7.762  0.5252  1.8375 -2.2033
  604MOL0     H83335   5.644   1.128   7.838 -0.9091 -2.8575 -0.8281
  604MOL0     H83336   5.910   1.586   9.555  1.2853  0.0657 -1.7356
  604MOL0     H83337   5.897   1.381   9.666 -2.0836  2.1159 -4.5450
  604MOL0     H83338   6.187   0.975   9.811 -1.4261 -2.0731 -2.3720
  604MOL0     H83339   6.207   0.805   9.973  0.2105 -1.5325 -1.9188
  604MOL0     H83340   5.847   0.559  10.049 -0.4315  2.3810 -1.8350
  604MOL0     H83341   6.016   0.514  10.004  1.2756 -2.0063  2.4235
  604MOL0     H83342   5.885   0.442  10.254 -1.1139  2.7587  1.0678
  604MOL0     H83343   6.008   0.567  10.281  1.0103 -1.8226  1.4483
  604MOL0     H83344   6.082   0.326  10.121  2.0764  1.1225 -1.0940
  604MOL0     H83345   6.181   0.466  10.188 -1.8931  2.6336  0.7773
  604MOL0     H83346   6.243   0.258  10.301 -0.3776 -0.2605  2.4150
  604MOL0     H83347   6.075   0.223  10.345  0.4319 -0.5687  0.3337
  604MOL0     H83348   6.127   0.523  10.619  4.0685 -1.0401  0.7840
  604MOL0     H83349   5.774   0.789   9.981  2.4539 -2.5782  0.0173
  604MOL0     H83350   5.675   1.045   9.901  0.2583 -0.4456  1.0390
  604MOL0     H83351   5.698   1.020   9.723 -0.6615  2.8268  1.0775
  604MOL0     H83352   5.648   0.887   9.833 -2.1052  0.9672 -0.4805
  605MOL0     O83353   7.480   3.909   2.861 -0.1282 -0.3860 -0.1102
  605MOL0     C83354   7.402   3.866   2.951 -0.6524 -0.1758 -0.7474
  605MOL0     O83355   7.297   3.773   2.936  0.3610 -0.3002  0.1064
  605MOL0     C83356   7.238   3.787   2.813 -0.3545 -0.8630 -0.2504
  605MOL0     C83357   7.150   3.891   2.789  0.4348  0.5254  0.1884
  605MOL0     C83358   7.083   3.892   2.670  0.1080 -0.9119  0.6315
  605MOL0     C83359   7.100   3.801   2.561  0.8953 -0.1418  0.3142
  605MOL0     O83360   7.028   3.813   2.445 -0.0215 -0.4733 -0.4913
  605MOL0     C83361   7.077   3.776   2.318 -0.4550  0.0354  0.3562
  605MOL0     C83362   6.983   3.812   2.206  0.1304 -0.6802 -0.2223
  605MOL0     C83363   6.844   3.756   2.217  0.3214  0.0933  0.2195
  605MOL0     C83364   6.756   3.792   2.098  0.7131 -0.0036 -0.2439
  605MOL0     C83365   6.611   3.737   2.112 -1.3707  0.0206 -0.6084
  605MOL0     C83366   6.523   3.816   2.020 -0.3570  0.1469  0.0567
  605MOL0     C83367   6.380   3.784   2.002  0.4021  0.0831 -0.2936
  605MOL0     C83368   6.373   3.649   1.936  0.2357  0.5416 -0.3937
  605MOL0     N83369   6.234   3.605   1.927  0.8531 -0.5708  0.2066
  605MOL0     C83370   6.149   3.581   2.032 -0.2160  0.1185 -0.5859
  605MOL0     C83371   6.040   3.522   1.989  0.1815 -0.6044  0.5503
  605MOL0     C83372   5.906   3.491   2.058  0.1276  0.7372  0.3126
  605MOL0     C83373   5.781   3.542   1.996  0.0488 -0.3974  0.2622
  605MOL0     C83374   5.658   3.466   2.053  0.1203 -0.2500  0.8348
  605MOL0     C83375   5.530   3.522   1.989 -0.7352 -0.5199  0.5838
  605MOL0     O83376   5.424   3.434   2.016 -0.0040  0.3680  0.0162
  605MOL0     C83377   5.346   3.448   2.125  0.0739  0.1698 -0.6218
  605MOL0     C83378   5.223   3.378   2.116 -0.8024  0.9504  1.4263
  605MOL0     C83379   5.122   3.383   2.213  0.3226 -0.2745 -1.0026
  605MOL0     C83380   4.988   3.316   2.196  0.1327  1.1581 -0.3032
  605MOL0     C83381   5.139   3.474   2.326 -0.2126  0.1995  0.8178
  605MOL0     C83382   5.029   3.498   2.427 -0.5627  0.4442  0.5259
  605MOL0     O83383   5.080   3.533   2.552  1.1004  0.3716  0.1321
  605MOL0     C83384   5.000   3.545   2.660 -0.1711  0.0284  1.1998
  605MOL0     C83385   4.886   3.459   2.675 -0.0292 -0.1696  0.2155
  605MOL0     C83386   4.832   3.453   2.801 -1.1953 -0.1829 -0.0227
  605MOL0     C83387   4.879   3.527   2.911 -0.2981  0.0544  1.1225
  605MOL0     O83388   4.798   3.530   3.021  0.3147  0.9889 -0.6928
  605MOL0     C83389   4.824   3.640   3.116 -0.2421 -0.4577 -0.2653
  605MOL0     C83390   4.764   3.775   3.068  0.6466 -0.7851  0.4359
  605MOL0     C83391   4.608   3.759   3.075  0.1433  0.2951  0.0969
  605MOL0     C83392   4.554   3.880   3.140  0.9568 -0.2421  0.4761
  605MOL0     C83393   4.407   3.924   3.106 -0.2810 -0.2500  0.4833
  605MOL0     C83394   4.315   3.828   3.181 -0.0841  0.4326 -0.3926
  605MOL0     C83395   4.169   3.884   3.179 -0.3700  0.5312 -0.7394
  605MOL0     C83396   4.081   3.790   3.261 -0.2276  0.2245  0.9305
  605MOL0    Cl83397   4.123   3.814   3.433  0.1094  0.3785 -0.0173
  605MOL0     C83398   4.987   3.617   2.887  0.8469  0.0968 -0.0009
  605MOL0     C83399   5.037   3.630   2.760 -0.0971 -0.1804 -0.3091
  605MOL0     O83400   4.913   3.502   2.392  0.5087 -0.1417  0.4805
  605MOL0     C83401   5.266   3.544   2.323  1.2251 -0.2208  0.1398
  605MOL0     C83402   5.362   3.532   2.232  0.6444 -0.5393 -0.4582
  605MOL0     N83403   6.070   3.492   1.855 -0.0302 -0.0832  0.3322
  605MOL0     N83404   6.186   3.535   1.819  0.4291  0.6797 -0.1275
  605MOL0     C83405   7.200   3.705   2.579  0.9572  1.0072 -0.0081
  605MOL0     C83406   7.258   3.694   2.711  0.0992  0.6239  0.6627
  605MOL0     C83407   7.436   3.910   3.092  0.5958  0.1884 -0.2447
  605MOL0     C83408   7.341   3.886   3.199  0.4076 -0.2251 -0.8062
  605MOL0     C83409   7.360   3.930   3.328  0.4749  1.5859 -0.1555
  605MOL0     C83410   7.479   3.990   3.360  0.0523 -0.0903  0.1012
  605MOL0     O83411   7.504   4.020   3.494  0.4485 -0.0826  0.6366
  605MOL0     C83412   7.602   4.121   3.532 -0.0492  0.3941 -0.9552
  605MOL0     C83413   7.610   4.157   3.695  1.2817  0.1488 -1.6112
  605MOL0     C83414   7.523   4.278   3.743 -0.7982  0.0306 -0.5055
  605MOL0     C83415   7.562   4.317   3.888 -0.5398  0.3607 -0.7618
  605MOL0     C83416   7.508   4.230   3.990  0.8428  0.2595 -0.0888
  605MOL0     C83417   7.460   4.163   4.071 -1.1784  0.3246  1.4830
  605MOL0     C83418   7.572   4.014   3.261 -0.6751 -0.4779 -0.1218
  605MOL0     C83419   7.556   3.981   3.125  0.5456 -0.6015 -0.0725
  605MOL0     C83420   7.670   4.026   3.043 -0.2424  0.1987 -0.4054
  605MOL0     H83421   7.124   3.951   2.876  3.1982 -1.9234  2.9836
  605MOL0     H83422   7.008   3.970   2.661  1.1102  0.1943  1.4978
  605MOL0     H83423   7.092   3.668   2.310  0.7028  0.2463 -0.6037
  605MOL0     H83424   7.172   3.827   2.299 -0.7122  0.4892  0.2642
  605MOL0     H83425   6.966   3.919   2.193 -1.6385 -0.7304  1.2690
  605MOL0     H83426   7.037   3.769   2.121  0.6297 -3.4023  1.3411
  605MOL0     H83427   6.845   3.647   2.202 -2.5059  0.2794 -2.1030
  605MOL0     H83428   6.790   3.773   2.310 -3.5032 -2.3385 -1.2978
  605MOL0     H83429   6.743   3.900   2.096 -0.1490 -0.1158 -2.3974
  605MOL0     H83430   6.808   3.764   2.006  4.4505  2.0440  1.0449
  605MOL0     H83431   6.587   3.743   2.219 -2.7488 -0.7969 -0.8571
  605MOL0     H83432   6.626   3.631   2.090 -2.7294 -0.8601  2.1828
  605MOL0     H83433   6.525   3.925   2.035 -0.5737  0.2371 -0.5496
  605MOL0     H83434   6.568   3.800   1.921 -1.0639  0.2198 -0.2763
  605MOL0     H83435   6.328   3.850   1.932 -0.3982  0.4861  0.6486
  605MOL0     H83436   6.333   3.791   2.100 -2.9409  1.1862 -1.8172
  605MOL0     H83437   6.414   3.656   1.835  0.7248  1.3175 -0.1436
  605MOL0     H83438   6.426   3.578   2.001  3.7424  0.7151 -2.7754
  605MOL0     H83439   6.176   3.615   2.131 -0.2039 -0.8930 -0.2314
  605MOL0     H83440   5.916   3.530   2.159  3.9105 -2.8202  1.5703
  605MOL0     H83441   5.894   3.382   2.067  2.2394  0.4922  0.5346
  605MOL0     H83442   5.775   3.650   2.012  2.7207  0.1169 -1.4267
  605MOL0     H83443   5.783   3.526   1.888  0.9742 -1.1327  0.3742
  605MOL0     H83444   5.673   3.369   2.004 -0.5466  0.1862 -0.2418
  605MOL0     H83445   5.656   3.457   2.163  2.6472 -2.0257  0.8432
  605MOL0     H83446   5.502   3.618   2.033 -6.1106 -1.6933  0.3348
  605MOL0     H83447   5.556   3.540   1.885 -1.4708 -2.2667  0.0672
  605MOL0     H83448   5.210   3.320   2.025 -1.4080  0.1700  1.9836
  605MOL0     H83449   4.990   3.255   2.106 -0.7337  1.4953 -0.5578
  605MOL0     H83450   4.896   3.373   2.180 -3.1687 -3.2634  1.1682
  605MOL0     H83451   4.980   3.253   2.285 -1.7658  0.4683 -0.9180
  605MOL0     H83452   4.850   3.399   2.593 -3.4844  0.7453  0.9085
  605MOL0     H83453   4.741   3.397   2.816 -1.9159  1.6096  3.0597
  605MOL0     H83454   4.780   3.611   3.212 -1.8359 -1.1467 -1.1551
  605MOL0     H83455   4.931   3.650   3.138 -0.9037  2.5237  2.2984
  605MOL0     H83456   4.792   3.847   3.145 -2.8505 -0.0247  1.1468
  605MOL0     H83457   4.807   3.801   2.971 -0.9697 -0.3290 -0.1851
  605MOL0     H83458   4.590   3.667   3.132  1.6263 -1.7055 -2.4154
  605MOL0     H83459   4.565   3.756   2.974 -2.9425 -2.3885  1.2817
  605MOL0     H83460   4.617   3.959   3.100 -0.2703  0.0433 -0.9596
  605MOL0     H83461   4.555   3.875   3.250 -1.0741  0.4330  0.5600
  605MOL0     H83462   4.395   4.027   3.140  0.1192  0.6827 -1.9490
  605MOL0     H83463   4.380   3.916   3.000 -3.2887  0.1793  1.1338
  605MOL0     H83464   4.359   3.822   3.281 -2.1570  1.8086  0.6631
  605MOL0     H83465   4.325   3.729   3.135  0.7375  0.2373  0.1835
  605MOL0     H83466   4.135   3.894   3.076  0.1466  1.0905 -0.8612
  605MOL0     H83467   4.169   3.982   3.228 -2.1615  1.4592 -2.4541
  605MOL0     H83468   4.095   3.688   3.223 -0.1944 -0.0257  1.6122
  605MOL0     H83469   3.977   3.824   3.255 -0.5986 -1.0396 -0.1952
  605MOL0     H83470   5.032   3.682   2.961  2.7943 -1.7393  0.5285
  605MOL0     H83471   5.122   3.695   2.742  1.0631 -2.1818 -2.6093
  605MOL0     H83472   5.288   3.615   2.402 -0.6204  0.8644 -0.2663
  605MOL0     H83473   5.459   3.577   2.248 -0.2326  0.4309  2.7227
  605MOL0     H83474   7.212   3.623   2.508 -1.7821  2.2998 -2.1784
  605MOL0     H83475   7.336   3.622   2.736  0.7175 -0.2915 -3.3069
  605MOL0     H83476   7.253   3.825   3.178 -0.8881  2.2506 -3.1614
  605MOL0     H83477   7.289   3.899   3.404  1.4110 -1.6943 -0.4653
  605MOL0     H83478   7.702   4.082   3.507 -0.5081  0.0660 -2.3550
  605MOL0     H83479   7.593   4.218   3.482 -3.2242  1.2458  1.0096
  605MOL0     H83480   7.714   4.160   3.730  1.1723  2.2948 -1.3302
  605MOL0     H83481   7.580   4.069   3.752 -0.1067  1.9445  0.5980
  605MOL0     H83482   7.548   4.367   3.686  2.0059  1.1819  2.2653
  605MOL0     H83483   7.416   4.257   3.740 -0.6139 -0.8862 -1.6200
  605MOL0     H83484   7.539   4.421   3.913 -2.0335  0.0919 -0.8971
  605MOL0     H83485   7.669   4.303   3.903 -0.2799  3.5928  1.4281
  605MOL0     H83486   7.434   4.090   4.145 -0.0457 -2.6863 -0.8665
  605MOL0     H83487   7.667   4.057   3.290 -0.4556  0.8341 -2.4591
  605MOL0     H83488   7.758   3.963   3.059 -1.5820 -2.1659 -1.9168
  605MOL0     H83489   7.646   4.039   2.937 -3.7817  0.0061  0.2671
  605MOL0     H83490   7.693   4.129   3.075  1.4450  0.1310 -1.2593
  606MOL0     O83491   9.526  11.378   0.425 -0.4196  0.7758 -0.2794
  606MOL0     C83492   9.551  11.377   0.303 -0.7736  0.9123 -0.1898
  606MOL0     O83493   9.636  11.466   0.238 -0.0818 -0.8558  0.0191
  606MOL0     C83494   9.694  11.567   0.317  0.4269  0.4121  0.5278
  606MOL0     C83495   9.629  11.642   0.415  0.2279  0.2775 -0.3668
  606MOL0     C83496   9.698  11.750   0.471 -0.4235  0.3044 -1.0298
  606MOL0     C83497   9.825  11.797   0.424  0.5593 -1.0374  1.0336
  606MOL0     O83498   9.873  11.914   0.485  0.2427  0.0194 -0.2791
  606MOL0     C83499   9.998  11.970   0.446  0.4493  0.8659 -0.9173
  606MOL0     C83500   9.989  12.034   0.309  0.1329 -0.4008  0.5814
  606MOL0     C83501   9.898  12.157   0.305 -0.7765  0.1289 -0.6970
  606MOL0     C83502   9.919  12.232   0.175  0.0714 -0.0345 -0.0073
  606MOL0     C83503   9.856  12.366   0.192  0.0582 -0.7627 -0.3454
  606MOL0     C83504   9.877  12.456   0.068 -0.9355  0.5262 -0.3305
  606MOL0     C83505   9.820  12.596   0.084  0.6108 -0.5706  0.0669
  606MOL0     C83506   9.854  12.684  -0.035  0.0609 -0.6962  0.4670
  606MOL0     N83507   9.757  12.675  -0.149 -1.3005 -0.6691  0.1822
  606MOL0     C83508   9.759  12.589  -0.257  0.6135 -0.0369 -0.4303
  606MOL0     C83509   9.642  12.611  -0.328 -0.4312  0.0693  0.3473
  606MOL0     C83510   9.595  12.542  -0.451 -0.3634 -0.5589 -0.6138
  606MOL0     C83511   9.581  12.649  -0.562  0.3654  0.1894  0.3810
  606MOL0     C83512   9.720  12.689  -0.616 -0.0479  0.2664 -1.2087
  606MOL0     C83513   9.715  12.826  -0.684 -0.2098  0.6036 -0.9244
  606MOL0     O83514   9.640  12.801  -0.802 -0.7715  1.0571  0.2474
  606MOL0     C83515   9.618  12.910  -0.888 -0.4571 -0.0790 -0.5505
  606MOL0     C83516   9.557  12.895  -1.011  0.4086 -0.1422 -0.2535
  606MOL0     C83517   9.523  13.011  -1.084 -0.2060 -0.2668 -0.1414
  606MOL0     C83518   9.444  12.989  -1.214  0.4704 -0.1937 -0.7368
  606MOL0     C83519   9.547  13.144  -1.043 -0.0290 -0.1314 -0.5335
  606MOL0     C83520   9.513  13.268  -1.118 -0.5926  0.3787  1.1606
  606MOL0     O83521   9.613  13.372  -1.099  0.0640 -0.2952  0.4262
  606MOL0     C83522   9.611  13.491  -1.166 -0.8148 -1.0049  0.5749
  606MOL0     C83523   9.594  13.493  -1.312  0.2153  0.9640  0.4496
  606MOL0     C83524   9.612  13.618  -1.373 -0.8935 -0.2662 -0.0481
  606MOL0     C83525   9.659  13.732  -1.303  0.5623  0.4103 -0.3023
  606MOL0     O83526   9.681  13.853  -1.370 -0.2128  0.2811 -0.4750
  606MOL0     C83527   9.613  13.890  -1.480  0.2023  0.8826  0.4857
  606MOL0     C83528   9.464  13.921  -1.459  0.7197 -0.0836 -0.1347
  606MOL0     C83529   9.437  14.008  -1.332 -0.7103 -0.2414  0.2404
  606MOL0     C83530   9.285  14.016  -1.298  0.5965  0.4467 -0.3391
  606MOL0     C83531   9.258  14.108  -1.181 -0.8261 -0.0905  0.5125
  606MOL0     C83532   9.110  14.134  -1.162  0.6778  0.6586  0.4770
  606MOL0     C83533   9.034  14.006  -1.134  0.5632  0.6551 -0.7786
  606MOL0     C83534   8.883  14.035  -1.092  0.2468 -1.0529  0.2414
  606MOL0    Cl83535   8.795  13.890  -1.042 -0.0875  0.4910 -0.5984
  606MOL0     C83536   9.684  13.720  -1.166 -0.3521  1.2644  0.4121
  606MOL0     C83537   9.658  13.601  -1.099  0.1087 -0.5544  0.4285
  606MOL0     O83538   9.413  13.282  -1.173  0.3459 -0.2214  0.6236
  606MOL0     C83539   9.631  13.156  -0.931 -0.0188 -0.2433  0.5326
  606MOL0     C83540   9.667  13.040  -0.865  0.1217 -1.1478 -0.4572
  606MOL0     N83541   9.585  12.715  -0.261 -0.9339 -0.1868 -0.1225
  606MOL0     N83542   9.644  12.745  -0.150 -0.0601  0.0925 -0.3043
  606MOL0     C83543   9.885  11.723   0.318 -0.4631 -0.3913  0.8785
  606MOL0     C83544   9.820  11.609   0.268  0.4152  0.6918  0.1606
  606MOL0     C83545   9.494  11.269   0.211 -0.3277  0.6815 -0.5918
  606MOL0     C83546   9.528  11.281   0.074  0.6737 -0.0045  0.2264
  606MOL0     C83547   9.453  11.206  -0.018 -0.7388  0.0111 -0.0278
  606MOL0     C83548   9.386  11.085   0.023  1.0867 -0.1023  0.6790
  606MOL0     O83549   9.332  11.015  -0.085 -0.3307  1.3321  0.0637
  606MOL0     C83550   9.327  10.870  -0.064 -0.2255 -0.5486  0.3086
  606MOL0     C83551   9.257  10.800  -0.176  0.2761 -0.3589 -0.0343
  606MOL0     C83552   9.104  10.798  -0.158 -0.3164 -0.3728 -1.2299
  606MOL0     C83553   9.040  10.718  -0.262  0.6761  1.1685  0.9896
  606MOL0     C83554   8.898  10.708  -0.215  0.2821 -0.1116  0.4382
  606MOL0     C83555   8.781  10.718  -0.181 -0.6649 -1.0312 -0.9124
  606MOL0     C83556   9.352  11.069   0.155  1.7429 -1.2456 -0.2194
  606MOL0     C83557   9.401  11.167   0.246  0.1920 -0.3724  0.1812
  606MOL0     C83558   9.364  11.122   0.387  0.3357 -0.6825  0.2348
  606MOL0     H83559   9.540  11.605   0.465  1.0615 -0.5149  0.5948
  606MOL0     H83560   9.654  11.796   0.559 -1.1141 -3.7401  0.9946
  606MOL0     H83561  10.071  11.888   0.451  1.9726  2.1865 -0.6833
  606MOL0     H83562  10.031  12.052   0.510  1.9152  0.1916 -0.7658
  606MOL0     H83563  10.090  12.062   0.275 -0.9404  0.7194 -1.9613
  606MOL0     H83564   9.952  11.963   0.235 -2.9893  3.0084 -1.4714
  606MOL0     H83565   9.795  12.123   0.321 -0.4655  0.4704  3.0312
  606MOL0     H83566   9.932  12.217   0.390  0.5108  0.1864 -1.2342
  606MOL0     H83567  10.024  12.247   0.151 -0.3446  1.1387 -1.2326
  606MOL0     H83568   9.870  12.172   0.098 -1.5113 -0.7585  1.5021
  606MOL0     H83569   9.907  12.403   0.281  1.3428  2.7008 -2.3136
  606MOL0     H83570   9.747  12.361   0.200 -0.0873  1.6740  0.0442
  606MOL0     H83571   9.983  12.458   0.040 -1.4958 -0.2832 -2.8166
  606MOL0     H83572   9.842  12.413  -0.026  1.1213  1.7009 -1.7263
  606MOL0     H83573   9.871  12.636   0.173  0.5384  4.1221 -1.6976
  606MOL0     H83574   9.713  12.586   0.102  0.9885 -3.4893  1.2119
  606MOL0     H83575   9.856  12.785   0.006  0.7855 -1.3639  2.1417
  606MOL0     H83576   9.956  12.665  -0.072  1.8715  1.5836  3.7768
  606MOL0     H83577   9.825  12.505  -0.278  2.8383  1.5499 -0.2172
  606MOL0     H83578   9.510  12.479  -0.424  0.3367 -0.5242  1.9067
  606MOL0     H83579   9.668  12.468  -0.487 -1.6892 -1.9756 -0.5106
  606MOL0     H83580   9.530  12.601  -0.646 -1.2606  1.5193  0.5579
  606MOL0     H83581   9.524  12.734  -0.524  0.8253  0.5968  0.1639
  606MOL0     H83582   9.786  12.703  -0.531  0.3989 -1.1639 -1.2959
  606MOL0     H83583   9.759  12.606  -0.675 -1.5599 -1.1302 -0.3230
  606MOL0     H83584   9.656  12.894  -0.622 -3.0567  0.0885 -2.8791
  606MOL0     H83585   9.813  12.868  -0.708 -2.4883  5.0568 -4.0044
  606MOL0     H83586   9.520  12.796  -1.038  1.9778 -0.6430 -0.6935
  606MOL0     H83587   9.350  13.045  -1.214  0.2311 -0.5867 -0.0542
  606MOL0     H83588   9.412  12.887  -1.240 -1.5818  0.5956 -1.5611
  606MOL0     H83589   9.494  13.027  -1.304 -0.1762 -0.3896 -1.1897
  606MOL0     H83590   9.569  13.404  -1.369 -1.3880  0.2982  2.0926
  606MOL0     H83591   9.583  13.629  -1.477 -0.3794 -0.7287 -0.2490
  606MOL0     H83592   9.655  13.982  -1.522  1.6080  0.0146 -0.0961
  606MOL0     H83593   9.618  13.820  -1.565 -1.2924  2.8760 -1.3407
  606MOL0     H83594   9.428  13.970  -1.550  0.1742  0.4179  0.3407
  606MOL0     H83595   9.403  13.831  -1.453  1.7466 -0.7588  0.4181
  606MOL0     H83596   9.482  14.108  -1.338  1.1874 -1.0065  1.1477
  606MOL0     H83597   9.486  13.963  -1.245 -0.2139 -0.3190 -0.0752
  606MOL0     H83598   9.257  13.913  -1.275  1.9945 -0.2529 -1.5724
  606MOL0     H83599   9.219  14.049  -1.379 -2.9144  0.8960  2.4440
  606MOL0     H83600   9.301  14.062  -1.091  2.3723 -0.7916 -1.2125
  606MOL0     H83601   9.318  14.199  -1.190 -2.9126  1.3795  0.7327
  606MOL0     H83602   9.072  14.181  -1.254  2.3911  1.9248  0.3546
  606MOL0     H83603   9.084  14.210  -1.088 -0.3964  0.1862  0.5932
  606MOL0     H83604   9.094  13.959  -1.055 -0.8611  0.2908  0.1200
  606MOL0     H83605   9.030  13.943  -1.223  2.1715 -2.6141  1.2942
  606MOL0     H83606   8.831  14.090  -1.171  2.0896  2.1415  1.0373
  606MOL0     H83607   8.879  14.108  -1.010  0.2055 -1.8169  0.9327
  606MOL0     H83608   9.722  13.807  -1.113 -1.0303  0.8136  1.6691
  606MOL0     H83609   9.682  13.590  -0.994 -1.1763 -4.0668  0.4671
  606MOL0     H83610   9.661  13.246  -0.878  1.4997  0.7722 -1.9161
  606MOL0     H83611   9.727  13.058  -0.777  1.0985 -0.7703 -1.1861
  606MOL0     H83612   9.977  11.753   0.268 -1.2952  0.9425  0.0775
  606MOL0     H83613   9.852  11.559   0.177  0.7258  0.0354  0.6287
  606MOL0     H83614   9.604  11.353   0.044  2.8530 -1.7049  1.3851
  606MOL0     H83615   9.452  11.219  -0.125 -0.4421  1.4730  0.1287
  606MOL0     H83616   9.434  10.849  -0.054 -0.1467 -1.8768 -2.4381
  606MOL0     H83617   9.272  10.846   0.027 -1.4125 -0.2478 -0.3094
  606MOL0     H83618   9.293  10.697  -0.178 -0.7509 -0.7816  1.3535
  606MOL0     H83619   9.284  10.838  -0.275  1.7973  2.0254  1.1846
  606MOL0     H83620   9.094  10.751  -0.059  1.7873 -1.9217 -1.6930
  606MOL0     H83621   9.059  10.897  -0.168 -0.3862  0.0058  1.7945
  606MOL0     H83622   9.081  10.618  -0.271 -3.4623 -0.5532 -5.9209
  606MOL0     H83623   9.038  10.758  -0.363  2.4418 -0.0615  0.4251
  606MOL0     H83624   8.678  10.714  -0.153 -1.5449  0.2915 -3.6232
  606MOL0     H83625   9.278  10.995   0.185 -1.6707  2.1710  0.6223
  606MOL0     H83626   9.292  11.041   0.402 -2.6423  1.7062 -0.1823
  606MOL0     H83627   9.458  11.091   0.433 -0.6215 -5.3222 -0.5153
  606MOL0     H83628   9.330  11.209   0.445  0.1834 -0.4840 -0.1508
  607MOL0     O83629   9.017   1.165   2.756 -0.3419  0.1031  0.0102
  607MOL0     C83630   9.059   1.175   2.872 -0.0056  0.8601  0.1515
  607MOL0     O83631   9.150   1.266   2.922 -0.5712 -0.2914  0.5902
  607MOL0     C83632   9.211   1.356   2.839  0.5820 -1.0259  0.3693
  607MOL0     C83633   9.249   1.323   2.706  0.4508 -0.2537 -0.0155
  607MOL0     C83634   9.323   1.421   2.627 -0.1695  0.2743  0.2411
  607MOL0     C83635   9.362   1.544   2.682  0.8404  0.8412  0.4942
  607MOL0     O83636   9.437   1.641   2.621 -0.1908  0.3214 -0.3788
  607MOL0     C83637   9.537   1.602   2.529  0.6263 -0.2358 -0.3192
  607MOL0     C83638   9.652   1.522   2.576  0.0085  0.5211 -0.3323
  607MOL0     C83639   9.723   1.584   2.700 -0.0135  0.9058  0.2154
  607MOL0     C83640   9.800   1.719   2.677 -0.2592 -0.2388 -1.3250
  607MOL0     C83641   9.903   1.764   2.792  0.3968 -0.4841 -0.7124
  607MOL0     C83642   9.830   1.786   2.922 -0.3324  0.0283  0.9432
  607MOL0     C83643   9.698   1.874   2.895 -0.6658  0.6756 -0.3336
  607MOL0     C83644   9.641   1.918   3.029 -0.7793 -0.0438 -0.3729
  607MOL0     N83645   9.554   1.823   3.084 -0.2060 -0.7867 -0.6487
  607MOL0     C83646   9.424   1.854   3.123 -0.3681 -0.2972 -0.0183
  607MOL0     C83647   9.383   1.746   3.198 -0.5360  0.0145  0.4470
  607MOL0     C83648   9.254   1.749   3.279 -0.2760  0.5400  0.2302
  607MOL0     C83649   9.160   1.630   3.235 -1.3647  0.3116 -0.2709
  607MOL0     C83650   9.051   1.632   3.334  0.3066 -0.7863  0.4832
  607MOL0     C83651   8.931   1.564   3.277 -0.7659 -0.0007 -0.1227
  607MOL0     O83652   8.954   1.425   3.250 -0.7827  0.3351  0.7224
  607MOL0     C83653   8.849   1.375   3.185 -0.0786 -1.1705  0.6596
  607MOL0     C83654   8.850   1.391   3.047 -0.1584  0.5791 -0.7613
  607MOL0     C83655   8.747   1.339   2.964  0.3243  0.1133  0.2807
  607MOL0     C83656   8.758   1.349   2.808 -0.7999  0.1435 -0.1767
  607MOL0     C83657   8.660   1.247   3.030 -0.3160 -0.1050 -0.2980
  607MOL0     C83658   8.563   1.164   2.960  0.3392  0.2376 -0.0014
  607MOL0     O83659   8.512   1.213   2.845  0.4223 -0.9660  0.6461
  607MOL0     C83660   8.388   1.158   2.825  0.2871  0.0772 -0.3561
  607MOL0     C83661   8.366   1.032   2.752  0.6569  0.4578  0.4659
  607MOL0     C83662   8.234   0.971   2.735  0.2032 -0.3802 -0.3236
  607MOL0     C83663   8.131   1.018   2.813  0.2290  0.9327 -0.2200
  607MOL0     O83664   8.009   0.956   2.840  0.2722  0.3568  0.4636
  607MOL0     C83665   7.945   0.880   2.740 -0.1490  0.3724 -0.7970
  607MOL0     C83666   7.824   0.801   2.794 -0.0266 -0.2822  1.1746
  607MOL0     C83667   7.850   0.703   2.902  1.0528 -0.0731  0.9885
  607MOL0     C83668   7.739   0.693   3.005  0.0696  0.8211 -0.6565
  607MOL0     C83669   7.759   0.581   3.112 -0.1815  0.4066 -0.1417
  607MOL0     C83670   7.631   0.551   3.183  0.2412  0.2892  0.1748
  607MOL0     C83671   7.646   0.431   3.278 -0.2927 -0.3187 -0.4916
  607MOL0     C83672   7.507   0.369   3.316 -0.2859  0.3410  0.2148
  607MOL0    Cl83673   7.383   0.488   3.356 -0.1762  0.1611 -0.1832
  607MOL0     C83674   8.145   1.129   2.893 -0.0448  0.0552 -0.6728
  607MOL0     C83675   8.274   1.190   2.901  0.0953 -0.2130 -0.2404
  607MOL0     O83676   8.542   1.057   3.000 -0.4350  0.5614 -0.3776
  607MOL0     C83677   8.665   1.224   3.170 -0.2657  0.1970 -0.4694
  607MOL0     C83678   8.772   1.282   3.245 -0.4323 -0.7709 -0.1456
  607MOL0     N83679   9.491   1.666   3.207  0.6380 -0.4203 -0.0680
  607MOL0     N83680   9.590   1.703   3.133  0.4276  0.6579 -0.9171
  607MOL0     C83681   9.307   1.584   2.805 -0.3006  0.6945  1.0043
  607MOL0     C83682   9.245   1.491   2.890  0.3560  0.1882 -0.5145
  607MOL0     C83683   8.993   1.086   2.982  0.1214 -0.4413  0.5820
  607MOL0     C83684   9.045   1.105   3.114  0.2278  0.0811  0.2851
  607MOL0     C83685   8.987   1.031   3.220  0.1127 -0.3312 -0.0228
  607MOL0     C83686   8.879   0.936   3.202 -0.0982 -0.9162 -0.1854
  607MOL0     O83687   8.835   0.855   3.299  0.0863  0.0472 -0.7405
  607MOL0     C83688   8.931   0.770   3.363 -0.4991 -1.0703  0.3455
  607MOL0     C83689   8.895   0.629   3.331  0.7458  0.0165  0.5485
  607MOL0     C83690   9.004   0.517   3.351 -0.0274  0.2824 -0.1687
  607MOL0     C83691   9.063   0.486   3.486 -0.6880 -0.1638  0.6885
  607MOL0     C83692   8.955   0.498   3.582 -0.0179  0.2541 -0.6282
  607MOL0     C83693   8.865   0.501   3.656  0.2065 -0.8675 -0.3569
  607MOL0     C83694   8.826   0.925   3.072 -1.0006  0.4054  0.0391
  607MOL0     C83695   8.882   0.992   2.963 -0.3888 -0.2314  0.2092
  607MOL0     C83696   8.825   0.946   2.829 -0.6174  0.3051 -0.2571
  607MOL0     H83697   9.228   1.223   2.669 -1.4570  0.5091 -1.1160
  607MOL0     H83698   9.374   1.394   2.535  1.8817 -4.0645  2.3481
  607MOL0     H83699   9.580   1.695   2.490 -2.1358  1.0589 -0.5363
  607MOL0     H83700   9.483   1.548   2.451 -3.2940  0.0400  1.9647
  607MOL0     H83701   9.605   1.428   2.607  1.9014  0.0093  1.1884
  607MOL0     H83702   9.726   1.502   2.497  0.0529  2.2124 -0.7625
  607MOL0     H83703   9.650   1.600   2.780 -0.0831  0.6274  0.2092
  607MOL0     H83704   9.804   1.521   2.737  0.6629  2.2670  1.1325
  607MOL0     H83705   9.863   1.692   2.592  1.3058  1.0538 -0.6429
  607MOL0     H83706   9.740   1.803   2.642  1.6353  1.5513 -0.5104
  607MOL0     H83707   9.956   1.854   2.758  0.1019 -0.8132 -2.1316
  607MOL0     H83708   9.981   1.690   2.805  3.0512  1.7611 -2.5776
  607MOL0     H83709   9.791   1.689   2.956  0.0163 -0.3110  0.3843
  607MOL0     H83710   9.885   1.818   3.011 -0.6610 -0.6915  1.4221
  607MOL0     H83711   9.623   1.834   2.827 -3.0828  1.9275  1.4390
  607MOL0     H83712   9.736   1.968   2.852 -0.9971  0.8944 -0.1499
  607MOL0     H83713   9.731   1.923   3.090  0.7542  2.0507 -2.6020
  607MOL0     H83714   9.588   2.014   3.028 -4.0805 -1.7013  1.1877
  607MOL0     H83715   9.363   1.943   3.109  0.3207  0.5269  1.8503
  607MOL0     H83716   9.212   1.847   3.257 -0.8939  0.1999 -0.1197
  607MOL0     H83717   9.270   1.729   3.386 -2.4400 -1.0977  0.3124
  607MOL0     H83718   9.122   1.648   3.134  0.7571  1.8727 -0.8586
  607MOL0     H83719   9.207   1.532   3.225 -1.4624  0.2573 -0.1966
  607MOL0     H83720   9.079   1.583   3.428  3.8433 -0.5378 -0.3110
  607MOL0     H83721   9.025   1.735   3.358  0.4882 -0.4917 -0.5561
  607MOL0     H83722   8.842   1.587   3.336 -0.5121  0.1609  0.2017
  607MOL0     H83723   8.916   1.601   3.175 -0.2588  0.6989  0.0496
  607MOL0     H83724   8.934   1.438   2.996  2.6972 -0.9526  2.1785
  607MOL0     H83725   8.665   1.381   2.759 -0.9366 -0.0692 -0.0561
  607MOL0     H83726   8.793   1.257   2.762  2.0166 -0.9546  3.7044
  607MOL0     H83727   8.832   1.427   2.788 -1.0416  0.6751  0.9039
  607MOL0     H83728   8.452   0.999   2.695  0.5341  1.7499 -0.5012
  607MOL0     H83729   8.238   0.890   2.663  1.7257  1.2662 -2.2178
  607MOL0     H83730   7.911   0.936   2.653  2.1241  3.0406 -0.1155
  607MOL0     H83731   8.013   0.801   2.706  1.5420  2.4980 -2.6818
  607MOL0     H83732   7.756   0.876   2.836 -2.3795 -1.6833  0.0161
  607MOL0     H83733   7.771   0.760   2.709 -2.6962  2.6804  1.2327
  607MOL0     H83734   7.943   0.731   2.951  3.0822 -1.9378 -1.5040
  607MOL0     H83735   7.871   0.608   2.852  1.1266  1.7329 -2.7670
  607MOL0     H83736   7.651   0.668   2.944 -0.2004 -0.5760  0.2543
  607MOL0     H83737   7.724   0.792   3.049 -0.3959  0.6186 -0.3566
  607MOL0     H83738   7.795   0.496   3.053 -0.6618  0.3732 -0.3934
  607MOL0     H83739   7.828   0.616   3.189 -0.7683  1.7560 -0.1910
  607MOL0     H83740   7.551   0.543   3.109 -0.9650 -0.5364  1.5285
  607MOL0     H83741   7.608   0.634   3.251  2.0958  0.5227  0.5919
  607MOL0     H83742   7.689   0.467   3.372 -4.7192  2.8960  0.6632
  607MOL0     H83743   7.712   0.354   3.237  1.2005  0.5912  0.1264
  607MOL0     H83744   7.513   0.289   3.391 -3.0453  1.3521  1.6499
  607MOL0     H83745   7.471   0.321   3.224 -0.1197  0.0005  0.3257
  607MOL0     H83746   8.062   1.175   2.946 -0.5129  0.5715 -1.8259
  607MOL0     H83747   8.281   1.269   2.975  1.0849  0.5021 -1.0480
  607MOL0     H83748   8.592   1.161   3.221 -2.1151  0.4687 -2.5938
  607MOL0     H83749   8.797   1.268   3.350 -0.2173 -3.4472 -0.4968
  607MOL0     H83750   9.321   1.681   2.851  1.5842  1.0397 -0.2039
  607MOL0     H83751   9.224   1.513   2.994 -0.8352 -2.4300 -0.1100
  607MOL0     H83752   9.128   1.170   3.142 -1.3164  2.2391  0.0279
  607MOL0     H83753   9.027   1.045   3.320  3.2975 -2.5000 -0.8179
  607MOL0     H83754   9.034   0.785   3.328 -0.5414 -1.5171  0.0243
  607MOL0     H83755   8.914   0.800   3.467 -2.9184  2.0177 -0.7714
  607MOL0     H83756   8.873   0.643   3.225  2.2252  5.4443  0.6503
  607MOL0     H83757   8.798   0.601   3.372  0.6598 -1.6846 -0.6924
  607MOL0     H83758   8.956   0.425   3.316 -1.3675  0.1519  1.8899
  607MOL0     H83759   9.090   0.561   3.299  1.7826  0.6452  2.9122
  607MOL0     H83760   9.140   0.557   3.518 -0.1711  0.1096 -1.0737
  607MOL0     H83761   9.099   0.382   3.480 -0.0231  0.1144 -3.3570
  607MOL0     H83762   8.792   0.498   3.734  0.2007 -1.7571 -0.3954
  607MOL0     H83763   8.741   0.861   3.051 -0.3487  0.0358 -1.6340
  607MOL0     H83764   8.901   0.881   2.784 -0.2692 -0.0691  0.8442
  607MOL0     H83765   8.732   0.890   2.843 -0.8569  1.2301  2.2972
  607MOL0     H83766   8.809   1.023   2.752 -1.7967  2.0354  1.6072
  608MOL0     O83767   2.849   3.389   4.086 -0.7735  0.1225  0.5323
  608MOL0     C83768   2.788   3.386   3.976 -0.7137 -0.1403  0.6770
  608MOL0     O83769   2.707   3.483   3.929 -0.2600  0.1002 -1.6866
  608MOL0     C83770   2.674   3.580   4.025  0.6186 -1.2288  0.5301
  608MOL0     C83771   2.748   3.701   4.038 -0.0880 -0.1799  0.0860
  608MOL0     C83772   2.726   3.789   4.150  0.4550  0.5543 -0.3126
  608MOL0     C83773   2.636   3.748   4.253  0.3294  0.3516 -0.3386
  608MOL0     O83774   2.664   3.816   4.381  0.3099 -0.2648  0.0385
  608MOL0     C83775   2.552   3.841   4.469  0.0674  0.2258  0.5347
  608MOL0     C83776   2.578   3.955   4.559  0.6810  0.1697 -0.0913
  608MOL0     C83777   2.456   3.957   4.663 -0.0731 -0.1444 -0.0824
  608MOL0     C83778   2.366   4.076   4.642 -0.1900 -0.5414  0.0678
  608MOL0     C83779   2.239   4.081   4.742 -0.1589 -0.0128  0.0408
  608MOL0     C83780   2.283   4.095   4.891 -0.2400  0.2444 -0.2519
  608MOL0     C83781   2.360   4.217   4.927 -0.2373 -0.6305 -0.5781
  608MOL0     C83782   2.416   4.219   5.075  0.3023  0.1743  0.8602
  608MOL0     N83783   2.487   4.350   5.111  0.6566  0.0609  1.3848
  608MOL0     C83784   2.588   4.353   5.204  0.0234  0.4412 -0.1636
  608MOL0     C83785   2.636   4.481   5.198  1.1842  0.7300 -0.1425
  608MOL0     C83786   2.744   4.539   5.282  1.0469  0.2850 -0.3324
  608MOL0     C83787   2.712   4.546   5.423 -0.5480  0.1268 -0.2621
  608MOL0     C83788   2.670   4.697   5.457 -0.8025  0.0829  0.7006
  608MOL0     C83789   2.630   4.717   5.603 -0.2431  0.6560 -0.3006
  608MOL0     O83790   2.524   4.636   5.649 -1.3971 -0.6311 -0.3592
  608MOL0     C83791   2.486   4.685   5.780 -0.3234  0.2472  1.4690
  608MOL0     C83792   2.559   4.747   5.876  0.1083  1.0025  0.5294
  608MOL0     C83793   2.501   4.766   6.003 -1.3588 -0.5327 -0.0503
  608MOL0     C83794   2.594   4.819   6.117  1.5314 -0.2970  0.1305
  608MOL0     C83795   2.367   4.726   6.031 -1.2813 -0.0584 -0.7572
  608MOL0     C83796   2.303   4.739   6.163  0.1332 -0.0111  0.2391
  608MOL0     O83797   2.211   4.645   6.211 -0.0628 -0.4424 -0.0400
  608MOL0     C83798   2.137   4.673   6.321 -0.3201 -0.0068  0.9491
  608MOL0     C83799   2.129   4.561   6.401 -0.2956  0.8445 -0.7602
  608MOL0     C83800   2.045   4.574   6.518  0.0463 -0.7088  0.0033
  608MOL0     C83801   1.973   4.686   6.553  0.1497 -1.3359  0.2705
  608MOL0     O83802   1.900   4.686   6.669 -0.4603  0.0842  0.8820
  608MOL0     C83803   1.777   4.763   6.666  1.0700  0.8962  0.1703
  608MOL0     C83804   1.687   4.744   6.796  0.4091 -0.3172  0.7255
  608MOL0     C83805   1.592   4.867   6.810  0.0721  0.8238  0.3493
  608MOL0     C83806   1.495   4.859   6.931 -0.5132  0.2085  0.5848
  608MOL0     C83807   1.409   4.979   6.953 -0.7717  0.2470 -0.8633
  608MOL0     C83808   1.323   4.960   7.090 -0.0360  0.7464  0.5082
  608MOL0     C83809   1.200   5.043   7.080  0.6256  0.2102 -0.2191
  608MOL0     C83810   1.120   5.018   7.214  0.3735  0.5813  0.0184
  608MOL0    Cl83811   1.174   5.093   7.364 -0.3907  0.4895 -0.5360
  608MOL0     C83812   1.981   4.793   6.462 -0.1831 -0.4759  0.6684
  608MOL0     C83813   2.069   4.787   6.349 -0.1576 -0.0236 -0.0967
  608MOL0     O83814   2.339   4.833   6.231  0.0548 -0.7539  0.3825
  608MOL0     C83815   2.303   4.659   5.938 -0.3501  0.7164 -0.1798
  608MOL0     C83816   2.357   4.641   5.816 -0.3640  0.9443 -0.0730
  608MOL0     N83817   2.562   4.546   5.101  0.3115 -0.2215  0.5560
  608MOL0     N83818   2.487   4.467   5.041  0.4019 -0.0506  0.1349
  608MOL0     C83819   2.550   3.639   4.229  0.1511 -0.3255  0.7898
  608MOL0     C83820   2.574   3.557   4.128  0.3133  1.2252  0.1513
  608MOL0     C83821   2.811   3.281   3.867 -0.4848  0.2150  0.2403
  608MOL0     C83822   2.775   3.315   3.733  0.0130 -0.2997  0.2401
  608MOL0     C83823   2.789   3.231   3.627 -0.0792 -0.1709  0.8976
  608MOL0     C83824   2.841   3.098   3.644  0.3748  0.1712 -0.1428
  608MOL0     O83825   2.882   3.030   3.531  0.0672 -0.7905  0.3570
  608MOL0     C83826   3.018   2.967   3.542  0.3858 -0.2122 -0.6199
  608MOL0     C83827   3.011   2.818   3.576  0.4821 -0.2825 -0.6928
  608MOL0     C83828   2.920   2.722   3.486 -0.8900 -0.4236 -0.7683
  608MOL0     C83829   2.771   2.709   3.519  0.0732 -0.0583 -0.3624
  608MOL0     C83830   2.757   2.594   3.611  0.4733 -0.3026  0.2147
  608MOL0     C83831   2.721   2.510   3.693 -0.6337 -0.3510 -0.2396
  608MOL0     C83832   2.885   3.059   3.775 -0.4691 -0.1618 -0.2154
  608MOL0     C83833   2.882   3.156   3.882  0.0874 -0.0148  0.0473
  608MOL0     C83834   2.930   3.103   4.026 -0.4487 -0.4771  0.6026
  608MOL0     H83835   2.827   3.743   3.977 -1.6494  2.9343  0.0025
  608MOL0     H83836   2.782   3.880   4.168 -0.0959  0.5375  1.6404
  608MOL0     H83837   2.544   3.748   4.526  2.7629  0.4635  1.4211
  608MOL0     H83838   2.462   3.862   4.410  0.2283  3.8302  1.3860
  608MOL0     H83839   2.662   3.927   4.624 -1.5184 -0.4020  2.6792
  608MOL0     H83840   2.590   4.050   4.506 -1.6834  0.3530 -0.3916
  608MOL0     H83841   2.401   3.863   4.652  0.2332 -1.1560  4.6412
  608MOL0     H83842   2.501   3.965   4.763  0.9501  1.4073 -0.6262
  608MOL0     H83843   2.421   4.170   4.646  0.9879 -1.1910 -0.3104
  608MOL0     H83844   2.328   4.068   4.539  3.3248  2.3354 -1.6656
  608MOL0     H83845   2.183   3.990   4.718  2.8616 -1.8236 -0.6339
  608MOL0     H83846   2.189   4.173   4.710  1.5842  1.9392  2.5305
  608MOL0     H83847   2.190   4.115   4.945 -1.6379  0.9928 -2.7627
  608MOL0     H83848   2.317   4.002   4.938 -1.3196  0.4283  0.9490
  608MOL0     H83849   2.294   4.303   4.909 -2.1345 -2.0227 -0.6444
  608MOL0     H83850   2.445   4.226   4.859  1.1060  1.2499  1.2186
  608MOL0     H83851   2.335   4.184   5.139 -1.9028 -5.2119 -3.9291
  608MOL0     H83852   2.493   4.142   5.068  2.8972  2.7283 -2.1854
  608MOL0     H83853   2.618   4.286   5.285 -3.1392  1.2558  1.8907
  608MOL0     H83854   2.761   4.637   5.235  1.1866 -0.3295 -1.6261
  608MOL0     H83855   2.831   4.474   5.275 -0.1875 -1.5076  0.4447
  608MOL0     H83856   2.629   4.481   5.453 -1.7840  2.1687  1.0279
  608MOL0     H83857   2.798   4.521   5.485  0.2487  1.0661 -0.9625
  608MOL0     H83858   2.750   4.770   5.438  0.0568 -1.0943 -0.3842
  608MOL0     H83859   2.587   4.739   5.399  0.3472  0.9011 -0.4033
  608MOL0     H83860   2.721   4.701   5.662  0.0035  1.6383 -0.4018
  608MOL0     H83861   2.617   4.824   5.619  1.6061  0.8309  0.3060
  608MOL0     H83862   2.663   4.779   5.872  0.3360  0.3710  1.0921
  608MOL0     H83863   2.698   4.836   6.087  1.7452  0.0992  1.0652
  608MOL0     H83864   2.588   4.742   6.194  1.1712 -1.8638 -1.3868
  608MOL0     H83865   2.564   4.923   6.136  0.0115 -0.5619 -0.6758
  608MOL0     H83866   2.176   4.471   6.363  1.4451  0.9956  0.8832
  608MOL0     H83867   2.033   4.485   6.580  0.2287  1.5949  3.6113
  608MOL0     H83868   1.798   4.867   6.637 -0.1759  0.6331 -1.9314
  608MOL0     H83869   1.713   4.714   6.591 -2.2200  2.0353  2.0181
  608MOL0     H83870   1.632   4.650   6.786 -0.2429  0.2194 -1.1368
  608MOL0     H83871   1.754   4.753   6.883 -1.6056 -1.5015  2.5056
  608MOL0     H83872   1.519   4.868   6.729 -1.3915  1.2298  1.6400
  608MOL0     H83873   1.649   4.960   6.803  2.5171 -0.6527 -0.9571
  608MOL0     H83874   1.554   4.841   7.022  1.4589 -0.7282 -0.8019
  608MOL0     H83875   1.418   4.783   6.913 -1.8229  2.1421 -2.8269
  608MOL0     H83876   1.466   5.072   6.968 -2.5363  1.1599  0.5470
  608MOL0     H83877   1.340   4.987   6.868 -1.9405 -0.9891 -0.0720
  608MOL0     H83878   1.375   4.994   7.180  1.6934 -1.9342  0.6291
  608MOL0     H83879   1.307   4.852   7.101  0.1373  0.0368 -4.1143
  608MOL0     H83880   1.150   4.996   6.995  1.8159 -0.1611 -0.7447
  608MOL0     H83881   1.226   5.148   7.064 -3.3990  1.4233  0.3000
  608MOL0     H83882   1.129   4.914   7.244  0.4477  1.5214  3.6763
  608MOL0     H83883   1.014   5.042   7.208 -0.7622 -3.6806  0.0337
  608MOL0     H83884   1.931   4.888   6.473  0.8898  0.6301 -2.8286
  608MOL0     H83885   2.085   4.874   6.286 -0.3834  2.3124  2.8128
  608MOL0     H83886   2.215   4.603   5.967 -0.1488  1.3925  1.8638
  608MOL0     H83887   2.297   4.598   5.737 -2.2937  2.0051  0.7482
  608MOL0     H83888   2.474   3.603   4.297 -2.5754  1.9016 -0.8512
  608MOL0     H83889   2.516   3.466   4.114  2.4367  0.0558 -1.7339
  608MOL0     H83890   2.717   3.403   3.707  0.6410  0.7195  2.0993
  608MOL0     H83891   2.761   3.271   3.530  2.3982 -1.3999 -0.4230
  608MOL0     H83892   3.072   2.979   3.448  0.0424  0.8583 -0.6945
  608MOL0     H83893   3.080   3.013   3.620  0.6765 -1.8809  0.1855
  608MOL0     H83894   2.979   2.814   3.680  1.7271 -4.4778 -0.2790
  608MOL0     H83895   3.117   2.789   3.568  1.0142  2.0340 -5.1935
  608MOL0     H83896   2.914   2.752   3.381 -0.5811  0.8430 -0.4404
  608MOL0     H83897   2.979   2.631   3.470  0.0128  0.1788 -0.9631
  608MOL0     H83898   2.726   2.685   3.423  5.1478 -2.6628 -2.4950
  608MOL0     H83899   2.733   2.800   3.566  2.2087  0.0001  1.4076
  608MOL0     H83900   2.702   2.435   3.768 -0.8684 -2.1760 -2.0351
  608MOL0     H83901   2.943   2.968   3.789 -1.1984 -0.9331 -1.9311
  608MOL0     H83902   2.945   2.995   4.027  4.4558 -0.0173 -0.4365
  608MOL0     H83903   3.024   3.158   4.034 -0.3135 -1.0345  5.6841
  608MOL0     H83904   2.872   3.130   4.115 -0.6199 -1.2844  0.7382
  609MOL0     O83905   8.692   7.844   2.094  0.0061  0.7583  0.4222
  609MOL0     C83906   8.675   7.962   2.065 -0.3118 -0.3148  0.1443
  609MOL0     O83907   8.704   8.064   2.149 -0.4431  0.5379 -0.2606
  609MOL0     C83908   8.753   8.044   2.281  0.5178 -0.3383  0.5835
  609MOL0     C83909   8.843   8.134   2.328 -0.1876  0.1348 -0.5224
  609MOL0     C83910   8.880   8.126   2.463 -0.3561  0.6605 -0.0396
  609MOL0     C83911   8.846   8.022   2.547  0.4358 -1.3151 -0.5970
  609MOL0     O83912   8.903   8.024   2.677 -0.0481 -0.3263  0.4433
  609MOL0     C83913   8.931   7.900   2.745 -0.4200 -0.1508  0.3171
  609MOL0     C83914   8.825   7.896   2.859 -0.7144 -0.1822  0.0123
  609MOL0     C83915   8.878   7.966   2.980 -0.0488  0.3069 -0.0700
  609MOL0     C83916   8.952   8.101   2.963  0.2009  0.5240 -0.2454
  609MOL0     C83917   8.996   8.155   3.101  0.2372  0.3657 -0.4673
  609MOL0     C83918   8.871   8.192   3.189 -0.5226  0.9032  0.1175
  609MOL0     C83919   8.913   8.275   3.305 -0.1158  0.0544  0.7197
  609MOL0     C83920   8.804   8.292   3.401  0.2747  1.0455  0.6023
  609MOL0     N83921   8.809   8.179   3.485  0.4245 -0.6297  0.0233
  609MOL0     C83922   8.904   8.161   3.585 -0.8725  1.1688 -0.3798
  609MOL0     C83923   8.876   8.037   3.641 -0.9534  0.1562  0.8074
  609MOL0     C83924   8.945   7.956   3.750  0.1125  0.3735  0.3707
  609MOL0     C83925   9.039   7.849   3.699 -0.0159  0.3567  0.3356
  609MOL0     C83926   9.140   7.896   3.588 -0.6841 -0.1963 -0.2083
  609MOL0     C83927   9.200   7.785   3.516 -0.2408  0.7918 -0.4685
  609MOL0     O83928   9.284   7.713   3.606 -0.1041 -0.1947 -0.8953
  609MOL0     C83929   9.295   7.577   3.587  1.1508 -0.5101 -0.5962
  609MOL0     C83930   9.392   7.536   3.493 -0.0645  0.0310  0.4026
  609MOL0     C83931   9.412   7.394   3.475 -0.3884  0.3547 -0.0288
  609MOL0     C83932   9.530   7.356   3.396  0.3225  0.4957 -0.1189
  609MOL0     C83933   9.330   7.297   3.547 -0.2353  0.7878 -0.0416
  609MOL0     C83934   9.337   7.149   3.530  0.0152  0.3535 -0.6497
  609MOL0     O83935   9.249   7.073   3.605 -0.0080 -0.3725 -0.2398
  609MOL0     C83936   9.260   6.936   3.610  0.6300 -0.1580 -0.0092
  609MOL0     C83937   9.137   6.876   3.627  0.0677  0.7080  0.4507
  609MOL0     C83938   9.134   6.739   3.646  0.0515  0.1732 -0.3233
  609MOL0     C83939   9.251   6.666   3.656 -0.3509 -0.9821  0.4395
  609MOL0     O83940   9.238   6.539   3.689 -0.2827  0.3764  0.0747
  609MOL0     C83941   9.345   6.452   3.672 -0.2018  0.7026  0.3343
  609MOL0     C83942   9.306   6.308   3.706 -0.2376  0.4481  0.8114
  609MOL0     C83943   9.285   6.299   3.864 -0.3152 -1.6640  0.1136
  609MOL0     C83944   9.243   6.163   3.926  1.1697  0.3146 -0.0820
  609MOL0     C83945   9.367   6.069   3.913  0.2129  0.6547 -0.8691
  609MOL0     C83946   9.347   5.947   3.995  0.2955  0.7115 -0.3528
  609MOL0     C83947   9.241   5.858   3.938 -0.2065  0.2415  0.2062
  609MOL0     C83948   9.256   5.720   3.999  0.7241 -0.3708 -0.2042
  609MOL0    Cl83949   9.135   5.598   3.925 -0.1432 -0.2111  0.1365
  609MOL0     C83950   9.377   6.734   3.636  0.2344  0.6810 -0.0875
  609MOL0     C83951   9.375   6.867   3.607 -0.6286  0.3942  0.6040
  609MOL0     O83952   9.410   7.103   3.445  0.3172  0.3616 -0.2347
  609MOL0     C83953   9.232   7.350   3.625  0.6303  0.0693  0.1508
  609MOL0     C83954   9.215   7.482   3.658 -0.0618 -0.4526  0.4914
  609MOL0     N83955   8.768   7.985   3.576 -0.7086  0.5479  0.3534
  609MOL0     N83956   8.729   8.069   3.487 -0.3280 -0.3755  0.1421
  609MOL0     C83957   8.751   7.936   2.504  0.4034  0.4003  0.2294
  609MOL0     C83958   8.701   7.943   2.375 -0.1461 -0.3434  0.0719
  609MOL0     C83959   8.615   8.003   1.939  1.2429  0.0195  0.7446
  609MOL0     C83960   8.610   8.141   1.904  0.5187  0.1426  0.4433
  609MOL0     C83961   8.555   8.189   1.788  0.4559 -0.1997  0.8044
  609MOL0     C83962   8.514   8.103   1.693 -0.5566 -0.5516  0.3816
  609MOL0     O83963   8.465   8.134   1.570 -0.4423  0.2392  0.5124
  609MOL0     C83964   8.486   8.264   1.518 -0.7906  0.2762 -0.0489
  609MOL0     C83965   8.419   8.292   1.387  0.0870  0.0172  0.3215
  609MOL0     C83966   8.272   8.288   1.403  0.3817  0.9347 -1.4232
  609MOL0     C83967   8.187   8.401   1.357  0.5934  0.4517  0.0135
  609MOL0     C83968   8.172   8.397   1.207 -0.5457  0.2179  0.7220
  609MOL0     C83969   8.176   8.379   1.089  0.2339  0.6507  0.2410
  609MOL0     C83970   8.519   7.971   1.716 -0.3675  0.6163  0.3547
  609MOL0     C83971   8.567   7.915   1.838 -0.6906  0.0379  0.3224
  609MOL0     C83972   8.567   7.763   1.851  0.4488  0.2999 -0.2342
  609MOL0     H83973   8.888   8.211   2.267 -0.7730 -0.3273 -1.5564
  609MOL0     H83974   8.935   8.212   2.501 -2.1289  2.6823 -1.8280
  609MOL0     H83975   9.030   7.915   2.789 -0.8135  0.2718  1.0886
  609MOL0     H83976   8.924   7.805   2.691 -0.2802 -0.3701  0.6791
  609MOL0     H83977   8.745   7.960   2.822  2.0488  2.8882 -1.1694
  609MOL0     H83978   8.791   7.795   2.884 -1.9544  0.1876 -0.1367
  609MOL0     H83979   8.788   7.990   3.038 -0.4156 -0.3820 -0.3478
  609MOL0     H83980   8.934   7.885   3.027  0.7870 -1.6057 -3.9719
  609MOL0     H83981   9.039   8.093   2.898 -0.9778 -1.1253 -1.7187
  609MOL0     H83982   8.887   8.173   2.912 -0.1157 -0.2659 -0.9893
  609MOL0     H83983   9.058   8.242   3.078  2.9085 -1.4341 -0.5582
  609MOL0     H83984   9.055   8.081   3.156 -0.3204 -0.4611 -0.9429
  609MOL0     H83985   8.796   8.242   3.128 -0.8214  0.0755 -0.2010
  609MOL0     H83986   8.839   8.093   3.222  0.3069 -0.2642 -2.3137
  609MOL0     H83987   8.921   8.376   3.264  1.2550  0.1650  1.2316
  609MOL0     H83988   9.006   8.243   3.353  0.3957  0.5118  0.0468
  609MOL0     H83989   8.807   8.384   3.461  1.7513  1.5894 -0.2587
  609MOL0     H83990   8.714   8.296   3.339  2.1567  0.6260 -2.3063
  609MOL0     H83991   8.987   8.229   3.601 -1.8897  2.1555  0.8613
  609MOL0     H83992   8.867   7.903   3.806  0.4588  0.3594  0.8483
  609MOL0     H83993   9.003   8.019   3.818  0.7095  1.1658 -0.8473
  609MOL0     H83994   9.097   7.819   3.787  1.7937  0.4391 -0.7798
  609MOL0     H83995   8.985   7.760   3.668  1.2637  0.2510 -1.7756
  609MOL0     H83996   9.102   7.956   3.505 -1.3608 -1.5162 -0.8663
  609MOL0     H83997   9.225   7.955   3.626 -0.5856  1.0382 -2.2253
  609MOL0     H83998   9.125   7.714   3.479  1.6704 -1.0950 -0.9507
  609MOL0     H83999   9.265   7.813   3.432  2.7677 -3.1783  0.2312
  609MOL0     H84000   9.437   7.621   3.442  1.0356  0.4002  1.9281
  609MOL0     H84001   9.598   7.287   3.447  1.2651 -1.1080 -3.2886
  609MOL0     H84002   9.590   7.441   3.363  2.2508  0.0248  1.9372
  609MOL0     H84003   9.488   7.298   3.313 -1.1069 -2.8823  2.6696
  609MOL0     H84004   9.054   6.944   3.641 -0.3171  0.0128  1.6438
  609MOL0     H84005   9.035   6.697   3.663  0.5591  0.1805  3.4919
  609MOL0     H84006   9.370   6.446   3.565 -2.5652 -0.4932 -0.2187
  609MOL0     H84007   9.433   6.477   3.731 -0.6390  1.7419  0.5532
  609MOL0     H84008   9.215   6.295   3.646 -1.0830  3.9994  1.0592
  609MOL0     H84009   9.372   6.244   3.648  0.6708  1.7693  0.3267
  609MOL0     H84010   9.213   6.380   3.882  2.3486  1.6177 -2.5999
  609MOL0     H84011   9.372   6.339   3.915 -0.9622 -0.0306 -0.0029
  609MOL0     H84012   9.150   6.128   3.880 -0.2416  1.6993  1.5552
  609MOL0     H84013   9.221   6.187   4.030 -1.2139  2.8802 -1.0378
  609MOL0     H84014   9.373   6.036   3.809 -3.4128 -2.6209 -0.2964
  609MOL0     H84015   9.456   6.123   3.946 -0.0402  2.1934 -2.5237
  609MOL0     H84016   9.325   5.982   4.097  1.0265  3.4738 -1.0553
  609MOL0     H84017   9.439   5.888   3.991 -0.4607 -0.4193 -2.3643
  609MOL0     H84018   9.262   5.846   3.831  2.0417  1.4019  0.4489
  609MOL0     H84019   9.145   5.910   3.947 -0.1105  0.9299 -2.0184
  609MOL0     H84020   9.262   5.733   4.107  1.6436  2.2404 -0.4966
  609MOL0     H84021   9.354   5.680   3.974  0.4952 -2.1614  1.5409
  609MOL0     H84022   9.473   6.687   3.649 -0.9563 -1.2116  2.8150
  609MOL0     H84023   9.469   6.914   3.581 -0.4719  0.2914  0.9742
  609MOL0     H84024   9.170   7.284   3.685  1.4732 -1.5944 -0.7286
  609MOL0     H84025   9.149   7.510   3.739 -0.8013 -1.3172  0.1963
  609MOL0     H84026   8.716   7.854   2.566  1.4390 -2.8498 -3.1476
  609MOL0     H84027   8.631   7.865   2.347 -0.9221  0.7446 -1.1217
  609MOL0     H84028   8.660   8.211   1.969  1.1993  1.7948 -1.7486
  609MOL0     H84029   8.561   8.296   1.771 -3.3232  0.2692  1.4591
  609MOL0     H84030   8.451   8.333   1.596 -2.3067  0.8779 -1.2065
  609MOL0     H84031   8.592   8.279   1.499 -1.0875  0.7895 -1.3582
  609MOL0     H84032   8.448   8.212   1.317 -1.5886  0.7816 -1.3314
  609MOL0     H84033   8.448   8.387   1.339  0.0564 -1.3597 -2.6757
  609MOL0     H84034   8.229   8.197   1.362  1.1960  0.4871 -1.3020
  609MOL0     H84035   8.252   8.280   1.510 -5.2386 -0.7773 -2.3057
  609MOL0     H84036   8.208   8.499   1.400  0.6442 -0.2816  1.7366
  609MOL0     H84037   8.088   8.373   1.393  1.0288 -1.7070 -0.3324
  609MOL0     H84038   8.171   8.360   0.984 -3.5085 -0.7033  0.4905
  609MOL0     H84039   8.489   7.894   1.645 -0.5968  2.4433 -1.6063
  609MOL0     H84040   8.670   7.727   1.862 -0.5062 -2.3231  0.9560
  609MOL0     H84041   8.506   7.731   1.936  0.7757  0.6942  0.1564
  609MOL0     H84042   8.532   7.722   1.756  1.5041  0.5804 -0.7684
  610MOL0     O84043   5.252   6.162   8.266 -0.7669  0.2401 -1.2111
  610MOL0     C84044   5.331   6.179   8.175  0.1051 -0.3116 -0.4472
  610MOL0     O84045   5.423   6.097   8.139  0.0585  0.1395  0.8438
  610MOL0     C84046   5.464   5.997   8.221 -0.3241  0.3518 -0.1646
  610MOL0     C84047   5.506   5.885   8.156 -0.0954 -0.4059 -0.7531
  610MOL0     C84048   5.549   5.766   8.219  0.6104 -0.2210 -0.1481
  610MOL0     C84049   5.535   5.763   8.359 -0.6678  0.8241  1.0815
  610MOL0     O84050   5.586   5.636   8.400 -0.7053 -0.3767  0.7203
  610MOL0     C84051   5.601   5.610   8.545  0.3433 -0.7039  0.5643
  610MOL0     C84052   5.726   5.690   8.590 -0.5945 -0.2999  0.2284
  610MOL0     C84053   5.829   5.607   8.681  0.2461 -0.3910 -0.1929
  610MOL0     C84054   5.956   5.679   8.721  0.1446 -0.7884  0.0758
  610MOL0     C84055   6.011   5.637   8.862 -0.1865 -0.8830 -0.2715
  610MOL0     C84056   6.086   5.504   8.851 -0.2191 -0.5795  0.0147
  610MOL0     C84057   6.135   5.464   8.986 -0.2295  0.7052 -0.2988
  610MOL0     C84058   6.214   5.333   8.954  0.6173 -0.1289  0.2202
  610MOL0     N84059   6.267   5.262   9.069  0.2516  0.8776 -0.3675
  610MOL0     C84060   6.227   5.270   9.201 -0.8509 -1.0182  0.9883
  610MOL0     C84061   6.297   5.183   9.262  0.1073  1.0364  0.1257
  610MOL0     C84062   6.270   5.164   9.404  0.2237  0.1694  0.4432
  610MOL0     C84063   6.174   5.047   9.412 -0.5177  0.7903  0.4884
  610MOL0     C84064   6.129   5.003   9.553 -0.1074 -0.5230 -0.6141
  610MOL0     C84065   6.039   4.882   9.561 -0.1462 -0.7784  0.1392
  610MOL0     O84066   6.007   4.860   9.694 -0.0172 -0.4188 -0.7329
  610MOL0     C84067   5.875   4.852   9.719 -0.1699  0.4451  0.3951
  610MOL0     C84068   5.798   4.969   9.744 -0.1488  0.2673  0.3634
  610MOL0     C84069   5.657   4.967   9.779 -0.6108 -0.2146  0.6506
  610MOL0     C84070   5.601   5.100   9.821 -1.0150  0.0482 -0.3003
  610MOL0     C84071   5.587   4.841   9.783 -0.6932 -0.4645  0.0191
  610MOL0     C84072   5.440   4.827   9.803 -0.1877  0.3656 -0.3559
  610MOL0     O84073   5.399   4.705   9.779  0.2426 -0.3142  0.0107
  610MOL0     C84074   5.281   4.684   9.845 -0.2503  0.6236 -1.2677
  610MOL0     C84075   5.159   4.723   9.802  0.8181  1.2212 -0.1697
  610MOL0     C84076   5.043   4.704   9.879  0.1673  0.4222 -0.3547
  610MOL0     C84077   5.046   4.618   9.992 -0.1811  0.7710 -0.0762
  610MOL0     O84078   4.939   4.554  10.044 -0.0604 -0.3169  0.1991
  610MOL0     C84079   4.809   4.611  10.044  0.3639  0.9354 -1.0199
  610MOL0     C84080   4.783   4.743  10.121  1.2631 -0.3465 -0.2400
  610MOL0     C84081   4.785   4.717  10.273 -0.0954  0.2263 -0.2962
  610MOL0     C84082   4.924   4.731  10.324 -0.7204 -0.3579 -0.1410
  610MOL0     C84083   4.937   4.687  10.469  0.6692 -0.1316 -0.6652
  610MOL0     C84084   5.077   4.718  10.503 -0.0537 -0.2658 -0.3747
  610MOL0     C84085   5.109   4.689  10.657  0.4722 -0.1527  0.4390
  610MOL0     C84086   5.246   4.739  10.710  0.5593 -0.3374  0.2377
  610MOL0    Cl84087   5.374   4.625  10.700 -0.0495 -0.0593  0.4461
  610MOL0     C84088   5.173   4.572  10.031  0.0707  0.0106 -0.4747
  610MOL0     C84089   5.289   4.604   9.959  0.1889 -0.4165  0.4374
  610MOL0     O84090   5.374   4.924   9.855 -0.7124 -0.4202  0.1461
  610MOL0     C84091   5.672   4.722   9.751  0.1144  0.0804  0.1061
  610MOL0     C84092   5.813   4.728   9.725  1.3458 -0.3081  1.0264
  610MOL0     N84093   6.382   5.105   9.182  1.0132  0.3542 -0.5177
  610MOL0     N84094   6.361   5.162   9.063 -0.5367 -1.0261 -0.1208
  610MOL0     C84095   5.488   5.872   8.427  0.5151 -0.4033  0.6593
  610MOL0     C84096   5.451   5.993   8.363  0.6426  0.4350 -0.1276
  610MOL0     C84097   5.314   6.315   8.106 -0.3022  0.1610 -0.2922
  610MOL0     C84098   5.192   6.385   8.123  0.5235 -0.0760  0.4597
  610MOL0     C84099   5.187   6.516   8.065  0.1260  0.4954 -0.2134
  610MOL0     C84100   5.281   6.572   7.983 -0.5943  0.7586  1.2370
  610MOL0     O84101   5.262   6.686   7.915  0.0666  0.3927 -0.2277
  610MOL0     C84102   5.122   6.740   7.914  0.4857 -0.8497  0.4665
  610MOL0     C84103   5.101   6.852   7.811  0.4302 -0.2938  0.4072
  610MOL0     C84104   5.183   6.983   7.840  0.7653  0.2218 -0.3129
  610MOL0     C84105   5.336   6.975   7.857  0.6031  0.6960  0.6598
  610MOL0     C84106   5.384   7.113   7.844  0.4107  0.3934 -0.9818
  610MOL0     C84107   5.426   7.227   7.853 -0.5757 -0.0013  0.1269
  610MOL0     C84108   5.402   6.503   7.981 -0.1074  0.7197 -0.0990
  610MOL0     C84109   5.425   6.379   8.047 -0.7575 -1.2237  0.6934
  610MOL0     C84110   5.569   6.329   8.058 -0.9662 -0.4632 -0.6074
  610MOL0     H84111   5.511   5.882   8.048 -0.4353 -0.5981 -0.7634
  610MOL0     H84112   5.591   5.681   8.166  1.2525  1.2041 -2.0072
  610MOL0     H84113   5.620   5.502   8.555  0.9272 -0.4772  2.0716
  610MOL0     H84114   5.509   5.638   8.596  2.0471  1.7764  2.4553
  610MOL0     H84115   5.778   5.722   8.499  0.7914  2.1219  1.7757
  610MOL0     H84116   5.693   5.778   8.646 -1.9599  0.2116 -1.3105
  610MOL0     H84117   5.785   5.574   8.775 -1.2639 -0.2952 -0.8449
  610MOL0     H84118   5.847   5.518   8.620 -0.9109 -0.5462 -0.3176
  610MOL0     H84119   6.039   5.684   8.650 -2.6318 -1.9677 -3.5831
  610MOL0     H84120   5.930   5.783   8.739  1.6825 -0.5397  1.0060
  610MOL0     H84121   5.927   5.636   8.932  2.0009 -4.3702  2.6846
  610MOL0     H84122   6.091   5.711   8.874 -0.8150 -0.2608  0.1973
  610MOL0     H84123   6.015   5.429   8.814 -1.1202  1.5183 -2.8714
  610MOL0     H84124   6.170   5.516   8.783 -1.2215  1.2499 -0.9867
  610MOL0     H84125   6.047   5.452   9.050 -0.0788  3.2901  0.5096
  610MOL0     H84126   6.202   5.536   9.034  0.4092  1.2358 -1.9252
  610MOL0     H84127   6.138   5.272   8.904 -1.1329  2.4046 -0.3978
  610MOL0     H84128   6.286   5.355   8.874 -1.5184  0.7421 -1.5509
  610MOL0     H84129   6.145   5.330   9.240  1.8211  0.9380  4.0916
  610MOL0     H84130   6.225   5.252   9.450 -0.1220  0.2198  0.0129
  610MOL0     H84131   6.364   5.153   9.459 -1.4971 -0.7022  3.4471
  610MOL0     H84132   6.093   5.071   9.344  1.3019  3.0047 -1.0574
  610MOL0     H84133   6.222   4.959   9.368  0.1146  2.0192 -1.3830
  610MOL0     H84134   6.213   4.990   9.622 -0.4706  0.0839 -0.0532
  610MOL0     H84135   6.071   5.082   9.602 -1.5006 -0.6140 -2.0405
  610MOL0     H84136   5.954   4.907   9.497 -0.9943 -1.3163  1.0425
  610MOL0     H84137   6.085   4.790   9.524 -2.2308 -1.8737  0.1489
  610MOL0     H84138   5.871   5.045   9.722  2.9316 -2.1928  1.3129
  610MOL0     H84139   5.507   5.113   9.768 -0.8912  3.8886  0.1288
  610MOL0     H84140   5.666   5.184   9.795 -0.4169  0.3111  1.8800
  610MOL0     H84141   5.569   5.107   9.925 -3.8816  1.0644 -1.1668
  610MOL0     H84142   5.174   4.768   9.705  0.1255 -0.6669 -1.2162
  610MOL0     H84143   4.945   4.719   9.836 -1.0778 -3.3019  0.7636
  610MOL0     H84144   4.774   4.615   9.940 -0.8311 -0.1533 -0.6722
  610MOL0     H84145   4.750   4.527  10.081 -2.4528  2.8824 -0.8063
  610MOL0     H84146   4.858   4.816  10.090  1.1424  0.7610  1.8553
  610MOL0     H84147   4.684   4.787  10.102  1.6760  0.2891 -0.9570
  610MOL0     H84148   4.747   4.620  10.306  1.7629 -0.3172  0.3830
  610MOL0     H84149   4.725   4.782  10.337  1.5506 -0.7387  2.3857
  610MOL0     H84150   4.958   4.834  10.330 -2.3003  0.1722  0.3463
  610MOL0     H84151   4.992   4.689  10.250  1.6841  3.0920 -0.0915
  610MOL0     H84152   4.867   4.742  10.532  3.8057  2.5786  0.7959
  610MOL0     H84153   4.924   4.581  10.491  0.7333  0.3692  2.2470
  610MOL0     H84154   5.109   4.823  10.500  0.4337 -0.3145  1.5878
  610MOL0     H84155   5.146   4.660  10.440  0.4166  2.3423 -2.4564
  610MOL0     H84156   5.091   4.584  10.679 -0.5883  0.6356  4.0708
  610MOL0     H84157   5.037   4.748  10.716  1.3177  0.3223  1.0102
  610MOL0     H84158   5.235   4.764  10.816 -1.7559 -0.3506  0.0548
  610MOL0     H84159   5.276   4.832  10.661  0.2042  0.0651  0.7621
  610MOL0     H84160   5.163   4.500  10.111 -2.1511  0.6026 -0.1686
  610MOL0     H84161   5.381   4.564   9.999  1.8590  1.7467 -0.9634
  610MOL0     H84162   5.634   4.621   9.744 -1.4778  0.7666 -2.0040
  610MOL0     H84163   5.868   4.637   9.701 -0.7542 -1.0279 -1.4989
  610MOL0     H84164   5.480   5.867   8.535  0.0071  1.7553  0.7607
  610MOL0     H84165   5.417   6.079   8.420 -1.1377 -0.1411 -0.2794
  610MOL0     H84166   5.114   6.329   8.172 -0.0888 -1.5013 -1.9684
  610MOL0     H84167   5.089   6.558   8.083 -0.3148 -1.2692  1.7570
  610MOL0     H84168   5.049   6.662   7.890 -0.6284 -0.5926  2.8331
  610MOL0     H84169   5.097   6.785   8.010 -0.2159 -1.1999  0.4557
  610MOL0     H84170   4.995   6.881   7.810  1.1687  2.6871  0.4528
  610MOL0     H84171   5.139   6.818   7.714  3.0390 -2.2578  1.9686
  610MOL0     H84172   5.174   7.042   7.748 -0.6068 -0.8121 -0.8785
  610MOL0     H84173   5.138   7.031   7.928  0.9192 -1.4812  0.7445
  610MOL0     H84174   5.388   6.912   7.784 -0.7842 -0.2630  0.4466
  610MOL0     H84175   5.370   6.940   7.955 -3.1608 -2.4684  1.0962
  610MOL0     H84176   5.479   7.320   7.855 -2.3100  1.0550  3.0913
  610MOL0     H84177   5.474   6.563   7.926 -1.4686  3.6926  1.1325
  610MOL0     H84178   5.569   6.236   7.999 -0.0773 -1.7413  1.3253
  610MOL0     H84179   5.626   6.406   8.005  1.6503 -0.0556  2.4612
  610MOL0     H84180   5.614   6.317   8.156  0.1706  0.1965 -1.0339
  611MOL0     O84181   3.698   1.984   9.259  0.5057 -0.5114  0.1615
  611MOL0     C84182   3.674   2.092   9.318 -0.6784  0.6237 -0.2469
  611MOL0     O84183   3.568   2.124   9.386  0.6078  0.8602  0.3035
  611MOL0     C84184   3.544   2.055   9.500 -0.1385 -0.5157  0.5473
  611MOL0     C84185   3.621   1.945   9.533  0.2912  0.0824 -0.6885
  611MOL0     C84186   3.585   1.891   9.662 -0.4063 -0.3885  0.2907
  611MOL0     C84187   3.486   1.947   9.747 -0.2080  0.9084  0.4260
  611MOL0     O84188   3.444   1.896   9.869  0.6042  0.1660 -0.5773
  611MOL0     C84189   3.527   1.799   9.944 -0.3001  0.8179  1.1472
  611MOL0     C84190   3.470   1.742  10.078  0.0840  0.0858 -0.9619
  611MOL0     C84191   3.477   1.859  10.175 -0.7837 -0.2075  0.1772
  611MOL0     C84192   3.621   1.870  10.239  0.6344 -1.1616 -0.5572
  611MOL0     C84193   3.659   2.003  10.297 -0.9361  0.4616 -0.2516
  611MOL0     C84194   3.797   1.995  10.366  0.3404  0.3278 -0.3349
  611MOL0     C84195   3.832   2.111  10.456 -0.1082  0.1556  0.3416
  611MOL0     C84196   3.872   2.239  10.389 -0.1814  0.1550  0.0406
  611MOL0     N84197   3.756   2.309  10.347  0.2078 -0.3149  0.2202
  611MOL0     C84198   3.643   2.336  10.424  0.6149  0.2092  0.1619
  611MOL0     C84199   3.559   2.389  10.333 -0.2764 -0.5824  0.1079
  611MOL0     C84200   3.411   2.426  10.356  0.2445  0.1791 -0.2903
  611MOL0     C84201   3.391   2.573  10.407  0.5555 -0.5667  0.4469
  611MOL0     C84202   3.288   2.651  10.335 -0.9010 -0.5291 -0.9314
  611MOL0     C84203   3.157   2.574  10.332  0.8409  0.2550 -0.5531
  611MOL0     O84204   3.043   2.663  10.317 -0.5429  0.3418  0.2019
  611MOL0     C84205   3.047   2.746  10.202 -0.8451 -0.9799 -0.6666
  611MOL0     C84206   3.044   2.705  10.071 -0.3309  0.8279  1.2016
  611MOL0     C84207   3.058   2.793   9.965  0.9310 -0.3391  0.2149
  611MOL0     C84208   3.026   2.740   9.832  0.3023 -0.0420 -0.5100
  611MOL0     C84209   3.064   2.934   9.994  0.1968  0.4305 -0.8337
  611MOL0     C84210   3.076   3.039   9.898 -0.2248 -0.5847 -0.4422
  611MOL0     O84211   3.015   3.167   9.921 -0.3134  0.4104  0.0770
  611MOL0     C84212   3.036   3.251   9.827 -0.5954 -0.0437  0.2082
  611MOL0     C84213   2.985   3.245   9.700  1.0425 -0.2168 -0.8402
  611MOL0     C84214   3.019   3.337   9.613  0.2045 -0.2226  1.3083
  611MOL0     C84215   3.101   3.443   9.654  0.4230  0.1622  0.9054
  611MOL0     O84216   3.154   3.541   9.569 -0.7809 -0.2483  0.1278
  611MOL0     C84217   3.141   3.509   9.427  0.1293 -0.4436  0.3063
  611MOL0     C84218   3.211   3.607   9.336 -0.3483 -0.5932 -0.2784
  611MOL0     C84219   3.360   3.614   9.336  0.0998 -0.0247 -0.3477
  611MOL0     C84220   3.413   3.677   9.469  0.3542  0.0608 -0.3165
  611MOL0     C84221   3.546   3.741   9.465  0.2111 -1.4100 -0.3716
  611MOL0     C84222   3.663   3.649   9.418  0.5910 -0.3609 -0.4633
  611MOL0     C84223   3.679   3.531   9.516 -0.7760  0.2179  0.1669
  611MOL0     C84224   3.720   3.574   9.654  0.3977  0.2516  0.5267
  611MOL0    Cl84225   3.872   3.663   9.650 -0.3357  0.1749  0.2110
  611MOL0     C84226   3.169   3.442   9.771 -0.2425 -0.2613 -0.0368
  611MOL0     C84227   3.131   3.349   9.861  0.4475 -0.9797 -0.1592
  611MOL0     O84228   3.154   3.006   9.812  0.6516  0.1657  0.1003
  611MOL0     C84229   3.061   2.978  10.131 -0.1605  0.5584  0.7843
  611MOL0     C84230   3.035   2.884  10.231 -1.7579  0.2845 -0.1379
  611MOL0     N84231   3.626   2.399  10.210 -0.1950  0.1762 -0.4792
  611MOL0     N84232   3.739   2.343  10.219  0.2060 -0.0601 -1.0723
  611MOL0     C84233   3.414   2.051   9.703 -0.0968 -0.5181  0.7875
  611MOL0     C84234   3.435   2.110   9.574  0.2812 -0.2063  0.0726
  611MOL0     C84235   3.763   2.210   9.287  0.7123 -0.3931 -0.7646
  611MOL0     C84236   3.760   2.315   9.386 -0.8537 -0.4335  0.7390
  611MOL0     C84237   3.851   2.420   9.382 -0.5589 -0.2914  0.1875
  611MOL0     C84238   3.946   2.434   9.283  0.0653  0.5412  0.4120
  611MOL0     O84239   4.051   2.517   9.288 -0.5215  0.1309  0.4282
  611MOL0     C84240   4.069   2.612   9.397 -0.0528  0.0894 -0.6220
  611MOL0     C84241   4.202   2.678   9.390 -1.0212  0.2266 -1.0913
  611MOL0     C84242   4.222   2.775   9.262  0.3931  0.1193  1.2898
  611MOL0     C84243   4.098   2.829   9.189  0.7469  0.0980  0.3507
  611MOL0     C84244   4.143   2.867   9.052 -0.1832 -0.2812 -0.4863
  611MOL0     C84245   4.177   2.898   8.937  0.0826  0.1102  0.2869
  611MOL0     C84246   3.949   2.341   9.178  0.0441  0.1457  0.3761
  611MOL0     C84247   3.859   2.233   9.181  0.3199 -0.0572  0.4564
  611MOL0     C84248   3.863   2.145   9.054  0.3956 -0.1616 -0.6786
  611MOL0     H84249   3.710   1.897   9.495  2.0930 -0.6133  3.7893
  611MOL0     H84250   3.633   1.804   9.706  2.1152  0.8441  0.1288
  611MOL0     H84251   3.620   1.851   9.969 -0.1073 -0.6141  3.8400
  611MOL0     H84252   3.550   1.714   9.880 -1.6496  0.0545  1.6411
  611MOL0     H84253   3.364   1.713  10.075 -1.2329  4.1853 -0.6720
  611MOL0     H84254   3.523   1.655  10.118  0.2860  0.0454 -1.3130
  611MOL0     H84255   3.443   1.952  10.128 -1.6038 -1.5626 -2.0681
  611MOL0     H84256   3.407   1.845  10.258 -1.6978  0.7276 -0.4169
  611MOL0     H84257   3.619   1.790  10.314  0.8833 -2.1241 -1.5538
  611MOL0     H84258   3.696   1.843  10.164  2.0997  0.3210  0.3158
  611MOL0     H84259   3.587   2.057  10.359 -0.7226  0.6471 -0.1634
  611MOL0     H84260   3.677   2.066  10.209 -0.9149  0.7637 -0.0335
  611MOL0     H84261   3.818   1.899  10.416  0.4359  0.3079 -0.4120
  611MOL0     H84262   3.866   2.001  10.281 -2.0044  0.7566 -2.2998
  611MOL0     H84263   3.921   2.077  10.510 -1.0148 -0.0838  1.7208
  611MOL0     H84264   3.751   2.128  10.528  0.0685 -0.0819  0.5958
  611MOL0     H84265   3.935   2.308  10.447 -2.5171  1.3811  1.2479
  611MOL0     H84266   3.933   2.207  10.303  0.2198 -0.2236  0.4579
  611MOL0     H84267   3.633   2.305  10.528  0.3385 -0.8881 -0.1726
  611MOL0     H84268   3.377   2.366  10.440  0.7931 -0.6035 -0.6122
  611MOL0     H84269   3.356   2.394  10.267 -1.2139 -1.7118  1.2078
  611MOL0     H84270   3.371   2.571  10.515  2.7385  1.5700  0.9785
  611MOL0     H84271   3.488   2.622  10.401  1.1166 -1.6997  0.0732
  611MOL0     H84272   3.277   2.742  10.395  1.1059 -0.9545  0.1801
  611MOL0     H84273   3.320   2.682  10.235  5.0326 -2.0354  0.1064
  611MOL0     H84274   3.157   2.487  10.266  2.0356 -0.0607 -0.1723
  611MOL0     H84275   3.141   2.528  10.430 -1.7339  2.5171  0.2252
  611MOL0     H84276   3.027   2.600  10.051  1.3591  0.7531 -0.0611
  611MOL0     H84277   3.107   2.753   9.759 -1.2711  0.5205 -2.2444
  611MOL0     H84278   2.944   2.801   9.795 -1.6947 -1.8852  0.6274
  611MOL0     H84279   2.991   2.636   9.835  2.7572 -0.9358 -0.7019
  611MOL0     H84280   2.915   3.168   9.668 -0.1233 -0.2058  1.4585
  611MOL0     H84281   2.973   3.331   9.514  2.2071  1.3191  0.2240
  611MOL0     H84282   3.191   3.412   9.415 -0.4787 -0.5408 -1.7570
  611MOL0     H84283   3.034   3.512   9.407 -0.2975 -0.6044  2.3379
  611MOL0     H84284   3.189   3.585   9.231  1.2563 -0.3855 -0.6874
  611MOL0     H84285   3.163   3.698   9.372 -1.7481 -1.5676  0.4653
  611MOL0     H84286   3.392   3.683   9.257 -0.1554  2.8692  1.9075
  611MOL0     H84287   3.409   3.517   9.322 -1.1707 -0.6980 -0.2860
  611MOL0     H84288   3.411   3.596   9.542  2.1624  1.1748  1.0601
  611MOL0     H84289   3.342   3.755   9.500 -1.0854  0.5045 -4.1637
  611MOL0     H84290   3.542   3.830   9.402 -2.6682 -0.9892  0.2680
  611MOL0     H84291   3.565   3.786   9.563 -1.2946  3.3454 -1.9746
  611MOL0     H84292   3.750   3.715   9.410 -0.1530  0.9676  1.5514
  611MOL0     H84293   3.637   3.609   9.319  0.0828  0.6219 -0.7517
  611MOL0     H84294   3.756   3.473   9.465 -1.7925 -0.0997 -1.0671
  611MOL0     H84295   3.586   3.474   9.522  0.9349 -2.5587  4.0652
  611MOL0     H84296   3.726   3.482   9.713 -0.3798 -0.4654 -0.4584
  611MOL0     H84297   3.643   3.641   9.692  0.0205  0.4052 -0.4768
  611MOL0     H84298   3.248   3.517   9.778 -2.8935  2.6647  0.8607
  611MOL0     H84299   3.169   3.355   9.963 -1.3696 -0.2077  0.5162
  611MOL0     H84300   3.075   3.084  10.150 -1.1914  0.5434  1.7438
  611MOL0     H84301   3.017   2.911  10.335  2.8812 -2.1323  1.5681
  611MOL0     H84302   3.339   2.091   9.771  0.8566 -0.6088  1.9378
  611MOL0     H84303   3.385   2.205   9.559  0.2395 -0.1818  0.3627
  611MOL0     H84304   3.702   2.320   9.478  1.3516  1.7152  2.1259
  611MOL0     H84305   3.856   2.488   9.466  1.9605 -0.0507 -0.0829
  611MOL0     H84306   3.991   2.689   9.402  1.3666  1.5456 -0.4320
  611MOL0     H84307   4.066   2.560   9.494  2.2259  1.0180 -0.0000
  611MOL0     H84308   4.285   2.607   9.383  0.4628  1.2220  3.0676
  611MOL0     H84309   4.217   2.737   9.481 -0.1300 -1.3298 -0.1805
  611MOL0     H84310   4.280   2.864   9.289  1.0432 -0.1254  0.7558
  611MOL0     H84311   4.283   2.717   9.192  0.2786 -0.1280  1.3948
  611MOL0     H84312   4.057   2.921   9.232  1.4813  1.1398 -1.1132
  611MOL0     H84313   4.022   2.752   9.174 -0.8684  1.8031 -0.6915
  611MOL0     H84314   4.218   2.921   8.841 -0.7981  5.0975  0.8327
  611MOL0     H84315   4.032   2.349   9.109 -1.3589 -1.0098 -1.5557
  611MOL0     H84316   3.767   2.094   9.043 -0.2658  0.9306 -0.1574
  611MOL0     H84317   3.890   2.202   8.964  2.5976  0.1955  0.1277
  611MOL0     H84318   3.949   2.080   9.068  0.9583  1.0282  2.3071
  612MOL0     O84319   0.463   2.238   8.966  0.2877 -1.0402  0.1295
  612MOL0     C84320   0.561   2.172   8.925 -0.5162  0.2566 -0.3056
  612MOL0     O84321   0.556   2.078   8.828 -0.4243 -0.2552 -0.2201
  612MOL0     C84322   0.448   1.998   8.802 -0.3881 -0.3966 -1.3352
  612MOL0     C84323   0.473   1.859   8.776 -0.9832  0.6092 -0.1344
  612MOL0     C84324   0.362   1.773   8.740  0.4076 -0.3435  0.4924
  612MOL0     C84325   0.231   1.821   8.735  0.4614  0.9161 -0.3805
  612MOL0     O84326   0.134   1.741   8.690  0.1010 -0.9109  0.2871
  612MOL0     C84327   0.004   1.798   8.660  0.2343  0.4363  0.5846
  612MOL0     C84328  -0.096   1.683   8.621 -1.2539  0.1398 -0.5377
  612MOL0     C84329  -0.198   1.725   8.518  0.2898 -0.0920  0.5707
  612MOL0     C84330  -0.300   1.817   8.576 -0.0903 -0.1405 -0.3855
  612MOL0     C84331  -0.442   1.772   8.527  0.6436 -0.2008 -0.3752
  612MOL0     C84332  -0.465   1.802   8.382 -1.2656  0.5886  0.3879
  612MOL0     C84333  -0.595   1.741   8.320  0.1974 -0.3345 -0.1548
  612MOL0     C84334  -0.615   1.754   8.171  0.0202 -0.3723 -0.2048
  612MOL0     N84335  -0.750   1.707   8.125 -0.2955 -0.5832 -0.2689
  612MOL0     C84336  -0.825   1.768   8.022  0.2701  0.6390 -0.3216
  612MOL0     C84337  -0.960   1.723   8.041  0.3669 -0.8009  0.3519
  612MOL0     C84338  -1.084   1.780   7.964  0.5304 -0.3712  0.2275
  612MOL0     C84339  -1.130   1.909   8.028 -1.0243 -0.3418 -0.3457
  612MOL0     C84340  -1.226   1.877   8.138 -0.8869  0.0974 -0.7079
  612MOL0     C84341  -1.267   1.993   8.219 -0.1835 -0.3300  0.8856
  612MOL0     O84342  -1.295   1.963   8.355 -0.1690 -0.3427 -0.0380
  612MOL0     C84343  -1.426   1.959   8.398 -0.4551 -0.4524 -1.0783
  612MOL0     C84344  -1.547   1.982   8.332 -0.2350  0.0613  0.2292
  612MOL0     C84345  -1.672   1.989   8.397 -0.2868  0.0584 -0.0057
  612MOL0     C84346  -1.784   2.040   8.310  0.3112  0.0969  0.7170
  612MOL0     C84347  -1.685   1.969   8.534 -0.7285  0.2337 -0.2740
  612MOL0     C84348  -1.807   1.980   8.614 -0.3435 -0.3378  1.0131
  612MOL0     O84349  -1.791   2.016   8.741 -0.5326 -0.1068  0.5622
  612MOL0     C84350  -1.900   2.035   8.820 -0.8903  0.1097  0.8721
  612MOL0     C84351  -1.889   2.132   8.921 -0.0331  0.7714 -0.3121
  612MOL0     C84352  -2.001   2.159   9.010  0.3471 -0.0957  0.1413
  612MOL0     C84353  -2.126   2.085   9.004  0.3280 -0.3179 -0.1387
  612MOL0     O84354  -2.222   2.094   9.096  0.7454 -0.3790 -0.1339
  612MOL0     C84355  -2.358   2.117   9.044  0.6666  0.8015 -1.2301
  612MOL0     C84356  -2.395   2.258   9.001 -0.0541 -0.2830 -0.6306
  612MOL0     C84357  -2.369   2.371   9.106 -0.1335  0.8915  0.1696
  612MOL0     C84358  -2.351   2.510   9.045 -0.3127  0.6048 -0.4501
  612MOL0     C84359  -2.379   2.626   9.149  0.7799  0.0706 -0.0662
  612MOL0     C84360  -2.533   2.651   9.174  0.3464 -0.5518 -0.1627
  612MOL0     C84361  -2.555   2.772   9.267 -0.0558 -0.1734 -0.9684
  612MOL0     C84362  -2.480   2.775   9.407 -0.9308  0.4774 -0.1535
  612MOL0    Cl84363  -2.481   2.608   9.482 -0.4573 -0.0519 -0.0131
  612MOL0     C84364  -2.129   1.993   8.899 -0.2129 -0.5609  0.3403
  612MOL0     C84365  -2.022   1.962   8.813  0.4829  0.1552 -0.4786
  612MOL0     O84366  -1.915   1.985   8.552  0.4990  0.1276 -0.1310
  612MOL0     C84367  -1.569   1.925   8.599 -0.2193 -0.1140 -0.1817
  612MOL0     C84368  -1.440   1.932   8.540 -0.2333  0.4246  0.3079
  612MOL0     N84369  -0.953   1.636   8.153 -0.1847  0.6904  0.7143
  612MOL0     N84370  -0.830   1.626   8.195  0.3677  0.3853  0.2415
  612MOL0     C84371   0.217   1.963   8.758  0.0068 -0.3346  0.0788
  612MOL0     C84372   0.317   2.047   8.795 -0.9139 -0.3814  0.4281
  612MOL0     C84373   0.708   2.213   8.963  0.9779 -0.0802 -0.8839
  612MOL0     C84374   0.726   2.342   9.036  0.0994  0.2755  0.5886
  612MOL0     C84375   0.859   2.376   9.071 -0.8614  0.5598 -0.3470
  612MOL0     C84376   0.974   2.299   9.052 -0.2787 -0.2805  0.1257
  612MOL0     O84377   1.095   2.348   9.100 -0.3266  0.3870  0.0227
  612MOL0     C84378   1.207   2.254   9.130 -0.3169 -1.3521 -0.1130
  612MOL0     C84379   1.156   2.152   9.227  0.4651 -0.3727 -0.7432
  612MOL0     C84380   1.251   2.033   9.248 -0.7206 -1.2292  0.5378
  612MOL0     C84381   1.202   1.920   9.343 -0.4245  0.8249  0.4920
  612MOL0     C84382   1.225   1.945   9.484 -0.2237 -0.8295 -0.4684
  612MOL0     C84383   1.254   2.007   9.586 -0.4840 -0.7759  0.0005
  612MOL0     C84384   0.957   2.180   8.972  0.5362  0.5138  1.0831
  612MOL0     C84385   0.822   2.136   8.934 -0.0586 -0.3797 -0.0994
  612MOL0     C84386   0.819   2.006   8.858 -0.2426  0.0096  0.2686
  612MOL0     H84387   0.568   1.811   8.796 -0.6949  1.9718  2.0475
  612MOL0     H84388   0.394   1.672   8.715  1.6348  0.2151 -0.2562
  612MOL0     H84389   0.015   1.874   8.583  1.1900  1.0923  1.3521
  612MOL0     H84390  -0.029   1.855   8.747 -0.0787  1.7287 -0.3655
  612MOL0     H84391  -0.033   1.602   8.584  0.4669  1.4232 -0.5546
  612MOL0     H84392  -0.130   1.645   8.718  1.8903 -0.5213  0.4164
  612MOL0     H84393  -0.154   1.781   8.435 -0.7686 -3.2317 -2.3263
  612MOL0     H84394  -0.228   1.632   8.468  1.1298 -0.7969  1.3562
  612MOL0     H84395  -0.313   1.797   8.683 -3.5041  3.0193 -0.0119
  612MOL0     H84396  -0.284   1.920   8.545  0.5258 -0.7155 -2.0954
  612MOL0     H84397  -0.523   1.824   8.578  0.1568 -1.0526 -0.2668
  612MOL0     H84398  -0.452   1.667   8.554 -0.9034  0.1402  0.4938
  612MOL0     H84399  -0.463   1.909   8.358  1.5484  0.5312  0.0217
  612MOL0     H84400  -0.383   1.749   8.333 -0.8320 -0.1438  1.8563
  612MOL0     H84401  -0.684   1.779   8.371  2.2317  3.1046  1.1378
  612MOL0     H84402  -0.600   1.634   8.346 -2.0620 -0.0193  0.9601
  612MOL0     H84403  -0.603   1.858   8.141 -1.0027 -0.2888 -0.3513
  612MOL0     H84404  -0.537   1.695   8.121  0.3354  0.2490 -0.4486
  612MOL0     H84405  -0.785   1.823   7.938 -0.5818  0.2139 -1.0203
  612MOL0     H84406  -1.167   1.710   7.974  0.2700 -0.3704 -1.4981
  612MOL0     H84407  -1.071   1.788   7.855 -1.2221  2.9562  0.1237
  612MOL0     H84408  -1.050   1.979   8.056 -4.0582  3.2254  0.2114
  612MOL0     H84409  -1.192   1.972   7.963  0.3951 -0.5343 -1.9660
  612MOL0     H84410  -1.305   1.826   8.083 -0.7228 -3.1296  1.7862
  612MOL0     H84411  -1.176   1.807   8.206 -0.4152 -0.0544 -1.2033
  612MOL0     H84412  -1.175   2.053   8.225  0.9314 -2.0254  1.8105
  612MOL0     H84413  -1.338   2.065   8.178 -0.9376 -0.6466  1.5905
  612MOL0     H84414  -1.553   2.032   8.235  2.3130  3.5751  1.6633
  612MOL0     H84415  -1.870   1.972   8.313 -0.0246  0.3770 -1.3320
  612MOL0     H84416  -1.761   2.060   8.205 -1.4265  2.4636  0.6960
  612MOL0     H84417  -1.819   2.140   8.337 -2.4593 -0.8723  1.0030
  612MOL0     H84418  -1.805   2.197   8.940 -1.3425  1.8844  2.1648
  612MOL0     H84419  -2.002   2.242   9.080  0.3527  0.1998 -0.2071
  612MOL0     H84420  -2.395   2.038   8.977 -1.8113 -0.1867  1.1166
  612MOL0     H84421  -2.421   2.093   9.130  3.7432  1.1026  1.2392
  612MOL0     H84422  -2.324   2.274   8.920  2.2243 -2.1386  0.8696
  612MOL0     H84423  -2.499   2.260   8.966 -0.4755 -0.2265  0.5609
  612MOL0     H84424  -2.269   2.346   9.144  0.2476  2.0941  0.0047
  612MOL0     H84425  -2.444   2.368   9.186  0.7704  0.2076  1.0172
  612MOL0     H84426  -2.425   2.509   8.964 -3.2251 -2.0388  1.9771
  612MOL0     H84427  -2.252   2.506   8.999  0.9765  1.4824  2.0675
  612MOL0     H84428  -2.324   2.588   9.235 -0.2173  0.1819  0.6388
  612MOL0     H84429  -2.335   2.720   9.116  0.2676  0.2501 -0.2508
  612MOL0     H84430  -2.589   2.563   9.207 -0.6267 -0.2952 -1.0623
  612MOL0     H84431  -2.574   2.680   9.076 -2.3310 -3.8616 -0.2040
  612MOL0     H84432  -2.662   2.794   9.270 -0.0835 -0.4125 -0.0914
  612MOL0     H84433  -2.515   2.853   9.205 -4.0458 -1.2574 -5.5664
  612MOL0     H84434  -2.520   2.857   9.467 -2.4341  0.6359 -1.3122
  612MOL0     H84435  -2.375   2.800   9.391 -1.4312  1.1250 -2.9517
  612MOL0     H84436  -2.222   1.937   8.889 -0.8919  0.9469 -3.7468
  612MOL0     H84437  -2.027   1.879   8.744  0.0647 -0.0494 -0.2034
  612MOL0     H84438  -1.570   1.880   8.698  1.8348  0.6529  0.2311
  612MOL0     H84439  -1.356   1.898   8.599 -0.7391 -1.9489 -0.2262
  612MOL0     H84440   0.122   2.014   8.745 -0.1571 -0.5973  0.2540
  612MOL0     H84441   0.303   2.155   8.803  1.2300 -0.1808  3.1807
  612MOL0     H84442   0.654   2.422   9.050 -0.0741 -0.1753  2.5355
  612MOL0     H84443   0.883   2.473   9.114 -5.8750  1.0297  2.1140
  612MOL0     H84444   1.246   2.206   9.040 -1.9934 -2.0590 -0.5083
  612MOL0     H84445   1.295   2.310   9.161 -1.3384 -0.1360  0.6878
  612MOL0     H84446   1.063   2.111   9.187  1.5451 -2.3487 -1.4067
  612MOL0     H84447   1.138   2.197   9.325  0.6322 -0.0566 -0.8586
  612MOL0     H84448   1.275   1.989   9.151 -1.5542 -2.6891  0.9754
  612MOL0     H84449   1.341   2.076   9.294  1.0086  1.1089 -4.3559
  612MOL0     H84450   1.272   1.839   9.320 -3.0215 -0.9019 -2.2071
  612MOL0     H84451   1.101   1.879   9.327  0.9730 -4.1566  2.4448
  612MOL0     H84452   1.250   2.049   9.685  0.7439 -1.5528  0.4110
  612MOL0     H84453   1.050   2.129   8.947  1.5597  2.9097 -0.3798
  612MOL0     H84454   0.917   1.957   8.857 -1.0650 -2.3885  5.3185
  612MOL0     H84455   0.748   1.935   8.901  0.4493 -0.0127  1.4347
  612MOL0     H84456   0.788   2.030   8.756 -1.1010 -1.1226  0.2469
  613MOL0     O84457   5.153  11.019   3.617 -0.8236 -0.2139 -0.0326
  613MOL0     C84458   5.056  10.952   3.571 -0.1230 -0.6320  0.3374
  613MOL0     O84459   4.971  10.870   3.647  0.2704  0.1153  0.7579
  613MOL0     C84460   5.007  10.869   3.780 -0.6029  0.8089 -0.1860
  613MOL0     C84461   5.131  10.820   3.826  0.1480 -0.1623  0.5273
  613MOL0     C84462   5.156  10.801   3.957 -0.3706  0.5250  0.2738
  613MOL0     C84463   5.069  10.832   4.052  0.0868  0.8806 -0.9326
  613MOL0     O84464   5.111  10.826   4.187  0.6557  0.8645 -0.4238
  613MOL0     C84465   5.044  10.915   4.287 -0.5030 -0.1947 -0.3560
  613MOL0     C84466   5.113  10.913   4.425 -0.7643 -0.1067 -0.0445
  613MOL0     C84467   5.048  10.994   4.529 -0.0226 -0.7676 -0.8195
  613MOL0     C84468   5.131  10.993   4.669 -0.6796  1.3053  0.7489
  613MOL0     C84469   5.085  11.120   4.746  0.3869  0.7969 -0.3960
  613MOL0     C84470   5.081  11.086   4.894 -0.3302 -0.9907  0.9013
  613MOL0     C84471   4.974  10.974   4.918 -0.5931 -0.3665  0.1547
  613MOL0     C84472   4.893  11.023   5.045  0.2645 -0.2858  0.3089
  613MOL0     N84473   4.763  10.956   5.073 -0.5166  0.2039 -0.5333
  613MOL0     C84474   4.662  10.973   4.991  0.5853 -0.2123 -0.7329
  613MOL0     C84475   4.552  10.919   5.054 -0.3998 -0.6028 -0.0988
  613MOL0     C84476   4.410  10.925   5.010 -0.0564 -0.6672 -0.6864
  613MOL0     C84477   4.400  10.837   4.881  0.4927 -0.0457 -0.4049
  613MOL0     C84478   4.264  10.853   4.825 -0.1180 -0.1897  0.8630
  613MOL0     C84479   4.250  10.784   4.682  0.6232  0.7177  0.0735
  613MOL0     O84480   4.323  10.661   4.675 -0.6814 -0.1464  0.2692
  613MOL0     C84481   4.287  10.565   4.576  0.9996 -0.7073 -0.8183
  613MOL0     C84482   4.336  10.434   4.607  0.5854 -0.0850  0.5663
  613MOL0     C84483   4.297  10.321   4.531  0.0059 -1.9555 -1.0444
  613MOL0     C84484   4.349  10.191   4.576 -0.2941 -0.2826  0.4451
  613MOL0     C84485   4.197  10.339   4.435  0.7224  0.9832  0.4941
  613MOL0     C84486   4.157  10.219   4.355 -0.3750 -0.6512 -0.3878
  613MOL0     O84487   4.189  10.230   4.219 -0.5310  0.5919 -0.6404
  613MOL0     C84488   4.183  10.112   4.148 -1.2724 -0.6175  0.1350
  613MOL0     C84489   4.140  10.119   4.014  0.6089  0.3848 -0.6079
  613MOL0     C84490   4.146  10.008   3.936  1.1044  0.8385  0.4497
  613MOL0     C84491   4.203   9.888   3.979 -0.4652  0.2616 -0.2853
  613MOL0     O84492   4.197   9.774   3.912 -0.4381 -0.9044  0.9007
  613MOL0     C84493   4.210   9.793   3.769 -0.3979  0.3867 -0.3701
  613MOL0     C84494   4.203   9.649   3.702  0.8241 -0.7574  0.2013
  613MOL0     C84495   4.220   9.667   3.556 -0.3060  0.1659  0.7044
  613MOL0     C84496   4.236   9.521   3.501 -0.0235  0.3412  0.0217
  613MOL0     C84497   4.376   9.507   3.446 -0.6077 -0.5139  0.8820
  613MOL0     C84498   4.413   9.359   3.426 -0.0823  0.6055  0.5945
  613MOL0     C84499   4.360   9.288   3.294 -0.7379  0.1342  0.0247
  613MOL0     C84500   4.399   9.143   3.289  0.1007  0.2179  0.4859
  613MOL0    Cl84501   4.362   9.081   3.118 -0.2869 -0.1325  0.0819
  613MOL0     C84502   4.271   9.891   4.101 -1.0431  0.6180  0.4292
  613MOL0     C84503   4.269  10.009   4.179  0.3961 -0.0027  0.3033
  613MOL0     O84504   4.102  10.123   4.408 -0.0089 -0.0805  0.4647
  613MOL0     C84505   4.144  10.467   4.412 -0.5572 -0.1106  0.5469
  613MOL0     C84506   4.193  10.578   4.480  0.9775  0.0571 -0.0915
  613MOL0     N84507   4.584  10.878   5.183 -0.1337  0.4522  0.7702
  613MOL0     N84508   4.710  10.904   5.196 -0.4358 -1.4551 -1.0633
  613MOL0     C84509   4.940  10.873   4.017 -0.4416 -0.1494 -0.3880
  613MOL0     C84510   4.912  10.905   3.884 -0.5526  0.9053  0.5674
  613MOL0     C84511   5.030  10.935   3.421 -1.3326 -0.5555 -0.6422
  613MOL0     C84512   4.916  10.884   3.369  0.6134 -0.2983  0.2421
  613MOL0     C84513   4.897  10.849   3.239  0.0748  1.0159  0.4781
  613MOL0     C84514   5.003  10.861   3.148 -0.7449 -0.2988  0.3548
  613MOL0     O84515   4.969  10.827   3.024  0.3648  0.2357 -0.3925
  613MOL0     C84516   5.050  10.878   2.910 -0.7512 -0.4280  0.6316
  613MOL0     C84517   5.160  10.772   2.883 -0.2044  0.1028  1.0129
  613MOL0     C84518   5.256  10.807   2.777  0.0921  0.8641 -0.2040
  613MOL0     C84519   5.386  10.744   2.792  0.6709  0.0282 -0.2343
  613MOL0     C84520   5.381  10.600   2.777  0.7819  0.2490 -0.2418
  613MOL0     C84521   5.382  10.478   2.757  0.6388 -0.6778 -0.4755
  613MOL0     C84522   5.117  10.924   3.191 -0.1654  0.2019 -0.1385
  613MOL0     C84523   5.140  10.960   3.326  1.0328  0.1755 -0.1105
  613MOL0     C84524   5.276  11.011   3.361 -0.0946 -0.1288  0.5765
  613MOL0     H84525   5.204  10.802   3.748  0.6405 -0.4880  1.0606
  613MOL0     H84526   5.255  10.761   3.979 -0.1816  0.7131 -0.2031
  613MOL0     H84527   4.937  10.894   4.282 -0.9373  2.0125 -1.2953
  613MOL0     H84528   5.046  11.023   4.271  0.4075 -0.1109  0.2479
  613MOL0     H84529   5.141  10.817   4.468  0.3598 -0.1592 -0.8374
  613MOL0     H84530   5.204  10.972   4.414  0.0062 -1.5616 -2.1183
  613MOL0     H84531   5.041  11.096   4.491 -1.4003 -0.1545  0.9286
  613MOL0     H84532   4.946  10.955   4.543  1.0106 -3.4988 -0.2088
  613MOL0     H84533   5.102  10.899   4.717 -2.6268  0.1305 -2.4920
  613MOL0     H84534   5.240  10.991   4.656 -0.7388  0.2681  0.3067
  613MOL0     H84535   4.988  11.152   4.709  0.5022  0.2113 -1.2392
  613MOL0     H84536   5.151  11.205   4.726  0.4456  0.8975  0.1817
  613MOL0     H84537   5.183  11.061   4.924 -0.0170  1.3950  2.0790
  613MOL0     H84538   5.052  11.178   4.945 -2.4823 -1.3834  0.4791
  613MOL0     H84539   5.028  10.881   4.935  2.3753  0.2501 -4.1272
  613MOL0     H84540   4.896  10.968   4.841 -0.9500  0.5423  0.4198
  613MOL0     H84541   4.965  11.008   5.126  1.1425  0.0207 -0.3996
  613MOL0     H84542   4.882  11.131   5.057 -0.4143 -0.6660  6.0880
  613MOL0     H84543   4.654  11.012   4.890  2.2688  0.0645 -0.7786
  613MOL0     H84544   4.392  11.031   4.989  2.4582  0.2511  1.3119
  613MOL0     H84545   4.343  10.900   5.093  0.4819  1.6462  0.5534
  613MOL0     H84546   4.473  10.884   4.815  0.7755  3.3973  2.0652
  613MOL0     H84547   4.410  10.731   4.904 -2.4207 -0.1064  1.1228
  613MOL0     H84548   4.192  10.803   4.890 -0.9958 -1.7024 -1.1527
  613MOL0     H84549   4.246  10.961   4.818  0.3390 -0.1225  0.6139
  613MOL0     H84550   4.142  10.778   4.669  0.3965  4.5710 -1.1154
  613MOL0     H84551   4.280  10.856   4.605  0.6716  0.9753  0.3303
  613MOL0     H84552   4.410  10.410   4.683 -0.7970  1.3221  2.4405
  613MOL0     H84553   4.304  10.180   4.675  0.9323  0.5379  1.1180
  613MOL0     H84554   4.459  10.188   4.577 -0.0221  2.8325 -2.2379
  613MOL0     H84555   4.321  10.121   4.496  1.9288 -0.2835 -0.4093
  613MOL0     H84556   4.097  10.211   3.977  0.1946  1.1122  1.5275
  613MOL0     H84557   4.093  10.022   3.843 -1.6736  2.5437  2.1437
  613MOL0     H84558   4.132   9.857   3.725 -0.5815 -1.9051 -3.8434
  613MOL0     H84559   4.307   9.841   3.755 -0.1241 -0.4145 -1.3876
  613MOL0     H84560   4.281   9.580   3.735  0.8311  0.5345  3.2030
  613MOL0     H84561   4.104   9.610   3.728  0.6637 -2.9446 -3.0739
  613MOL0     H84562   4.305   9.733   3.539 -1.3115  1.9097  2.1411
  613MOL0     H84563   4.129   9.717   3.522 -2.8428 -2.9236  2.3546
  613MOL0     H84564   4.154   9.507   3.429 -1.2014  0.1193  1.3653
  613MOL0     H84565   4.206   9.446   3.575  0.2370 -0.7343 -0.9322
  613MOL0     H84566   4.378   9.562   3.351  2.5182 -0.6080  0.7946
  613MOL0     H84567   4.459   9.547   3.506 -0.0485  0.6839 -0.6206
  613MOL0     H84568   4.370   9.306   3.511  0.8691 -0.5194  0.4013
  613MOL0     H84569   4.522   9.361   3.430 -0.1067  2.1659  1.0783
  613MOL0     H84570   4.394   9.330   3.198  1.4088 -3.3441 -0.9148
  613MOL0     H84571   4.252   9.300   3.283 -0.5245  2.7044  0.0633
  613MOL0     H84572   4.329   9.087   3.352 -0.5167 -0.9533 -1.1820
  613MOL0     H84573   4.507   9.127   3.297  0.9754  3.2325 -2.9552
  613MOL0     H84574   4.314   9.799   4.140 -1.9629 -0.2520 -0.5331
  613MOL0     H84575   4.337   9.998   4.263  0.5925 -0.8534  0.0378
  613MOL0     H84576   4.072  10.468   4.330 -0.3853 -0.1348  0.3950
  613MOL0     H84577   4.160  10.681   4.466  0.6828 -0.0477 -0.1734
  613MOL0     H84578   4.855  10.894   4.081  1.4632  2.6489  1.4810
  613MOL0     H84579   4.815  10.937   3.846  0.1563  1.5433 -0.7766
  613MOL0     H84580   4.825  10.874   3.427 -0.4833  2.0866 -0.9301
  613MOL0     H84581   4.801  10.802   3.216  1.7843 -2.6473  0.1984
  613MOL0     H84582   4.976  10.890   2.831 -0.6733  2.0197  0.8421
  613MOL0     H84583   5.083  10.979   2.935  2.0233 -1.2220  0.5282
  613MOL0     H84584   5.116  10.679   2.848 -1.0093  1.2873 -1.3569
  613MOL0     H84585   5.208  10.751   2.979 -0.4052  1.9551  1.5645
  613MOL0     H84586   5.210  10.773   2.683 -2.7432 -1.6617  1.9183
  613MOL0     H84587   5.272  10.916   2.774 -1.5164  1.3197 -5.9339
  613MOL0     H84588   5.432  10.769   2.888  0.5288 -2.6261  0.6124
  613MOL0     H84589   5.437  10.790   2.707 -0.4756 -1.0793 -1.5699
  613MOL0     H84590   5.396  10.374   2.734 -0.9057 -0.6271 -1.8180
  613MOL0     H84591   5.195  10.940   3.117 -2.9169  0.6733 -3.1632
  613MOL0     H84592   5.276  11.115   3.395  1.9918  0.5356 -1.2307
  613MOL0     H84593   5.333  10.943   3.425  0.0167 -3.3241 -2.6386
  613MOL0     H84594   5.330  11.021   3.266 -1.3193  0.3121 -0.0956
  614MOL0     O84595   4.785   7.692   1.173  0.5971 -0.3322 -0.2988
  614MOL0     C84596   4.892   7.713   1.111  0.3503 -0.2111  0.1474
  614MOL0     O84597   4.927   7.645   0.994 -0.5175 -0.2550  0.0299
  614MOL0     C84598   4.837   7.555   0.942  0.2120 -0.3933  0.3654
  614MOL0     C84599   4.828   7.422   0.995 -1.5222  0.8129  0.1989
  614MOL0     C84600   4.746   7.329   0.936  0.4403  0.5208 -0.1652
  614MOL0     C84601   4.665   7.364   0.831 -0.0921 -0.0966  0.5615
  614MOL0     O84602   4.556   7.287   0.789 -0.7242 -0.1224  0.2070
  614MOL0     C84603   4.450   7.254   0.885 -0.6351 -0.1026 -0.2473
  614MOL0     C84604   4.348   7.154   0.834  0.5279  0.0682 -0.4833
  614MOL0     C84605   4.263   7.096   0.945  0.6320  0.5893 -1.4769
  614MOL0     C84606   4.137   7.192   0.978 -0.5707  0.3455 -0.2986
  614MOL0     C84607   4.019   7.133   1.059 -0.9540 -0.7062  0.9036
  614MOL0     C84608   3.899   7.234   1.053 -0.2707  0.1060 -0.7611
  614MOL0     C84609   3.849   7.261   1.201 -0.2188 -0.2187  0.3074
  614MOL0     C84610   3.768   7.139   1.258  0.1329  0.4557  0.0715
  614MOL0     N84611   3.717   7.158   1.394  0.7484  0.8067 -0.4412
  614MOL0     C84612   3.788   7.149   1.510 -0.3642 -0.2352  0.1066
  614MOL0     C84613   3.704   7.114   1.608  0.4607 -0.2312  0.3422
  614MOL0     C84614   3.722   7.084   1.755 -0.8272  0.2048  0.6369
  614MOL0     C84615   3.781   7.198   1.838  0.6010  0.0181  1.2101
  614MOL0     C84616   3.675   7.309   1.845  0.6075 -0.3422 -0.6952
  614MOL0     C84617   3.732   7.432   1.906 -0.0716 -0.1064  0.4107
  614MOL0     O84618   3.760   7.415   2.043  0.0848 -0.2082  0.0723
  614MOL0     C84619   3.808   7.529   2.117  0.4768  0.6974 -0.1705
  614MOL0     C84620   3.846   7.646   2.054  0.2868  0.1375  0.1817
  614MOL0     C84621   3.875   7.766   2.126  0.6489 -0.0582  0.0010
  614MOL0     C84622   3.919   7.884   2.051  0.4961  0.1890  0.0296
  614MOL0     C84623   3.873   7.760   2.273  0.2065 -0.3212  0.1860
  614MOL0     C84624   3.923   7.871   2.354 -0.7054  0.4627 -0.3672
  614MOL0     O84625   3.883   7.867   2.494 -0.0749  0.5136 -0.3242
  614MOL0     C84626   3.955   7.949   2.572 -0.8056 -0.4394 -0.3611
  614MOL0     C84627   4.086   7.918   2.611 -0.1857 -0.0909 -0.5595
  614MOL0     C84628   4.159   8.014   2.686  0.3900  0.3136 -0.0645
  614MOL0     C84629   4.099   8.126   2.735  0.7060 -0.4354 -0.4689
  614MOL0     O84630   4.165   8.201   2.834 -0.1810  0.2244  0.6833
  614MOL0     C84631   4.210   8.334   2.793 -0.3305 -0.2539 -0.1770
  614MOL0     C84632   4.356   8.325   2.817 -0.0703 -0.5411 -0.1668
  614MOL0     C84633   4.394   8.269   2.953  1.1793  0.9975  0.8083
  614MOL0     C84634   4.542   8.275   2.959  0.4249  0.7147  0.3436
  614MOL0     C84635   4.606   8.200   3.072  0.6124 -0.2245  0.8105
  614MOL0     C84636   4.754   8.228   3.071 -0.7296  0.0731 -0.9381
  614MOL0     C84637   4.834   8.166   3.181 -0.3947  0.6012  0.4710
  614MOL0     C84638   4.978   8.140   3.145 -0.0578 -0.0517  0.6556
  614MOL0    Cl84639   5.062   8.280   3.094  0.0498  0.0734  0.4272
  614MOL0     C84640   3.959   8.147   2.712  0.1149 -0.1864  1.1286
  614MOL0     C84641   3.895   8.063   2.621  0.9392  0.5488 -0.1677
  614MOL0     O84642   4.005   7.944   2.305 -1.0180  0.9433  0.1105
  614MOL0     C84643   3.816   7.650   2.325 -0.4824 -0.0139 -0.4757
  614MOL0     C84644   3.780   7.533   2.254  1.5890 -0.2430  0.0517
  614MOL0     N84645   3.576   7.101   1.546 -0.1550 -0.5603 -0.5950
  614MOL0     N84646   3.589   7.115   1.423 -0.1583  0.4273  0.1856
  614MOL0     C84647   4.665   7.503   0.777 -0.1604  0.0569  0.5993
  614MOL0     C84648   4.755   7.594   0.832 -0.1247 -1.0682 -0.2215
  614MOL0     C84649   4.990   7.809   1.157  0.6302 -0.3818  0.3410
  614MOL0     C84650   5.085   7.771   1.245  0.6121 -0.2096 -0.6038
  614MOL0     C84651   5.187   7.857   1.282 -0.7391  0.5760 -0.0004
  614MOL0     C84652   5.197   7.975   1.226  1.1953 -0.3015  0.1188
  614MOL0     O84653   5.291   8.071   1.254  0.4103 -0.3032 -0.3247
  614MOL0     C84654   5.402   8.046   1.336 -0.4427 -0.9084  0.8009
  614MOL0     C84655   5.513   7.969   1.277 -0.0083  0.1751 -0.0426
  614MOL0     C84656   5.585   8.030   1.151  1.0398  0.5199 -0.2966
  614MOL0     C84657   5.661   8.160   1.163 -1.1304  0.6727  0.4548
  614MOL0     C84658   5.722   8.209   1.032 -0.3145 -0.2572 -0.0947
  614MOL0     C84659   5.787   8.235   0.930  0.8358 -0.8028 -0.6487
  614MOL0     C84660   5.091   8.023   1.140  0.0579  0.6313 -0.0485
  614MOL0     C84661   4.990   7.935   1.104  0.5975  0.0725  0.1767
  614MOL0     C84662   4.891   7.978   1.003 -0.1544  0.3944  0.0411
  614MOL0     H84663   4.880   7.394   1.086 -2.0035 -1.1154 -0.0934
  614MOL0     H84664   4.718   7.230   0.972 -0.4338  0.2180 -1.6107
  614MOL0     H84665   4.393   7.344   0.908  0.4430 -0.0240  2.4621
  614MOL0     H84666   4.484   7.207   0.978 -2.9974 -1.5089 -0.0002
  614MOL0     H84667   4.286   7.203   0.758  1.7466  1.0350 -0.8978
  614MOL0     H84668   4.406   7.082   0.775  0.2409 -2.4787  2.1046
  614MOL0     H84669   4.218   6.998   0.930 -0.8173  1.0073 -0.1402
  614MOL0     H84670   4.335   7.081   1.026 -2.4016  0.8515  1.5077
  614MOL0     H84671   4.186   7.274   1.031  1.2241  1.0877 -2.8919
  614MOL0     H84672   4.095   7.227   0.883 -1.4410 -1.3371 -0.5754
  614MOL0     H84673   4.055   7.108   1.160 -1.7556 -1.5804  0.9949
  614MOL0     H84674   3.993   7.035   1.017  1.7383 -0.5305 -1.4813
  614MOL0     H84675   3.930   7.334   1.021 -2.7211  2.2318  2.7186
  614MOL0     H84676   3.825   7.194   0.984 -0.0380  2.4569 -2.5068
  614MOL0     H84677   3.793   7.354   1.190  2.9748  1.7133 -1.3701
  614MOL0     H84678   3.937   7.274   1.265  0.9780 -2.5222 -0.7366
  614MOL0     H84679   3.681   7.121   1.194  0.6486 -0.5426 -0.3566
  614MOL0     H84680   3.828   7.048   1.262 -1.0274 -0.3350 -0.2301
  614MOL0     H84681   3.896   7.142   1.509 -0.3953 -0.7600 -0.4978
  614MOL0     H84682   3.785   6.994   1.752  1.1519  1.5045  1.2958
  614MOL0     H84683   3.626   7.060   1.801 -1.1974  0.0117 -0.2097
  614MOL0     H84684   3.797   7.166   1.941  0.7532 -1.0148  0.8746
  614MOL0     H84685   3.868   7.239   1.786  0.1217  1.0839  1.2159
  614MOL0     H84686   3.639   7.339   1.746  0.0230 -0.0134 -0.3952
  614MOL0     H84687   3.586   7.273   1.897 -0.1818  1.8331 -0.4052
  614MOL0     H84688   3.820   7.464   1.850 -0.4758  1.0734  0.4165
  614MOL0     H84689   3.659   7.512   1.887 -0.2973 -0.7676 -1.8345
  614MOL0     H84690   3.860   7.634   1.947 -1.6785 -1.0114  0.0132
  614MOL0     H84691   3.873   7.884   1.952  0.1482 -0.9302  0.1732
  614MOL0     H84692   4.027   7.890   2.042  0.5184  1.0396  0.7704
  614MOL0     H84693   3.887   7.974   2.105 -1.1871 -0.8109  0.7813
  614MOL0     H84694   4.135   7.828   2.576 -0.4314 -0.3156 -0.3332
  614MOL0     H84695   4.261   7.988   2.711  0.2730 -2.5744 -2.1338
  614MOL0     H84696   4.171   8.361   2.695 -3.7876  0.0320  1.1498
  614MOL0     H84697   4.169   8.405   2.865 -0.4939  1.1161 -1.5782
  614MOL0     H84698   4.413   8.263   2.748  1.5410  0.7725 -0.0683
  614MOL0     H84699   4.401   8.424   2.809  0.3077 -0.6871  0.1050
  614MOL0     H84700   4.350   8.170   2.964 -0.7908  2.0109  2.6008
  614MOL0     H84701   4.348   8.338   3.024  2.5724  2.1127  0.6803
  614MOL0     H84702   4.566   8.381   2.975  0.6889  0.9090 -1.1439
  614MOL0     H84703   4.586   8.238   2.865  1.1570  2.0615  0.1308
  614MOL0     H84704   4.544   8.219   3.161 -0.5645  1.4238 -0.3163
  614MOL0     H84705   4.584   8.094   3.056 -1.7502  0.4618 -1.1053
  614MOL0     H84706   4.783   8.333   3.078 -2.4789  0.4814  1.7432
  614MOL0     H84707   4.794   8.193   2.976 -1.4464 -3.7406 -0.0099
  614MOL0     H84708   4.788   8.072   3.213 -0.4179  0.5923  0.4083
  614MOL0     H84709   4.829   8.239   3.263 -0.4830  1.4407 -0.2736
  614MOL0     H84710   4.987   8.063   3.067  2.2511 -1.4783  2.1997
  614MOL0     H84711   5.027   8.100   3.234  1.7461  0.4984 -0.0451
  614MOL0     H84712   3.894   8.226   2.748 -0.9081 -0.7653  0.6144
  614MOL0     H84713   3.797   8.086   2.580 -1.2061 -4.2567  1.3929
  614MOL0     H84714   3.797   7.631   2.430  0.1490 -2.7156 -0.7554
  614MOL0     H84715   3.752   7.442   2.307 -2.2893  0.5818 -0.2780
  614MOL0     H84716   4.588   7.533   0.706  0.6634  2.9898  0.8321
  614MOL0     H84717   4.780   7.695   0.801  2.4107 -0.8716  2.0367
  614MOL0     H84718   5.062   7.676   1.292 -4.7626  3.0087  4.6355
  614MOL0     H84719   5.263   7.823   1.351 -1.9556  1.6830  1.9625
  614MOL0     H84720   5.438   8.147   1.354 -2.3340  0.0653 -0.5875
  614MOL0     H84721   5.386   8.000   1.435  0.3676 -1.8249  0.5303
  614MOL0     H84722   5.471   7.873   1.245 -0.5705 -0.0434  1.2651
  614MOL0     H84723   5.574   7.939   1.363 -0.1176  0.8906  0.2885
  614MOL0     H84724   5.655   7.959   1.107  1.0257  3.1309 -5.1516
  614MOL0     H84725   5.510   8.057   1.076  0.5031 -1.0557 -0.3480
  614MOL0     H84726   5.739   8.120   1.229 -1.7900  1.9934  2.1031
  614MOL0     H84727   5.599   8.232   1.216 -1.2333  0.8974  0.0327
  614MOL0     H84728   5.832   8.245   0.833 -0.4422  0.7850 -1.1295
  614MOL0     H84729   5.108   8.116   1.088  2.1509  1.0419  1.2273
  614MOL0     H84730   4.875   8.086   1.008 -0.0448  0.4372 -0.4685
  614MOL0     H84731   4.939   7.968   0.905  1.0603  1.3297  0.5124
  614MOL0     H84732   4.799   7.919   1.014 -0.0227  0.4968  2.1878
  615MOL0     O84733  11.583   3.627   1.278  0.3677  0.7263  0.0317
  615MOL0     C84734  11.545   3.631   1.394 -1.0519 -0.2942 -0.8232
  615MOL0     O84735  11.540   3.522   1.479 -0.5294  0.1193 -0.4317
  615MOL0     C84736  11.606   3.414   1.435 -0.6660 -0.1196  0.5494
  615MOL0     C84737  11.745   3.403   1.468 -0.4226  0.3984  0.4015
  615MOL0     C84738  11.811   3.290   1.416  0.9045  0.2144  0.2753
  615MOL0     C84739  11.753   3.204   1.319  0.5973 -0.3063  0.2268
  615MOL0     O84740  11.831   3.097   1.277  0.6087  0.5710  0.2940
  615MOL0     C84741  11.771   2.973   1.238  0.7939  1.0080 -0.0090
  615MOL0     C84742  11.879   2.863   1.267  0.9236  0.1758  0.5696
  615MOL0     C84743  11.894   2.827   1.420  0.2726  0.2013 -0.3688
  615MOL0     C84744  11.866   2.683   1.460  0.4498  0.6372  0.3061
  615MOL0     C84745  11.966   2.584   1.401 -0.8467  0.5187  0.4755
  615MOL0     C84746  11.960   2.456   1.488 -0.4483  0.6234 -0.9335
  615MOL0     C84747  12.036   2.350   1.431 -0.3396  0.8615 -0.9882
  615MOL0     C84748  11.952   2.231   1.368  0.7053 -0.0213  0.0287
  615MOL0     N84749  11.842   2.285   1.286  0.1314  0.7400 -0.1485
  615MOL0     C84750  11.849   2.342   1.167  0.3508 -0.6969 -0.1076
  615MOL0     C84751  11.719   2.386   1.134 -0.2360 -0.4442  0.0184
  615MOL0     C84752  11.683   2.441   0.999 -0.7432  0.2907  0.2712
  615MOL0     C84753  11.618   2.580   1.014  0.3280  0.1641  0.6792
  615MOL0     C84754  11.487   2.588   1.092  0.5246  0.2170  0.5023
  615MOL0     C84755  11.363   2.507   1.030 -0.4569 -0.5216 -0.8275
  615MOL0     O84756  11.305   2.571   0.923  0.2876  0.0866 -0.4025
  615MOL0     C84757  11.176   2.623   0.949 -0.0491  0.0973 -0.4745
  615MOL0     C84758  11.060   2.565   0.898  0.7292 -0.7463 -0.2430
  615MOL0     C84759  10.933   2.627   0.916  0.0050 -0.2897 -1.1267
  615MOL0     C84760  10.812   2.552   0.858 -0.6671 -0.0098  0.4881
  615MOL0     C84761  10.916   2.742   1.007  1.8433 -0.0196 -0.7024
  615MOL0     C84762  10.792   2.818   1.025  0.6189 -0.0620  0.0847
  615MOL0     O84763  10.710   2.821   0.913  0.0520 -0.0838 -0.1349
  615MOL0     C84764  10.586   2.859   0.941  0.3860 -0.8660  0.3985
  615MOL0     C84765  10.489   2.765   0.950  0.7919  0.3043 -0.6035
  615MOL0     C84766  10.357   2.800   0.971 -0.0172  0.1898 -0.8100
  615MOL0     C84767  10.324   2.928   0.984  0.6825 -1.5087 -0.0400
  615MOL0     O84768  10.188   2.961   0.994  0.1029  0.1470 -0.4593
  615MOL0     C84769  10.148   3.089   0.948 -0.1678  0.4196 -0.3747
  615MOL0     C84770   9.996   3.073   0.894  0.3053  0.0990 -0.0224
  615MOL0     C84771   9.982   2.978   0.763  0.0286 -0.6846 -0.8047
  615MOL0     C84772   9.947   2.834   0.817 -0.7011 -0.0147 -0.2951
  615MOL0     C84773   9.896   2.745   0.710  0.4595 -0.1883  0.3915
  615MOL0     C84774  10.006   2.689   0.622  0.6337  0.4842  0.5011
  615MOL0     C84775   9.949   2.606   0.501 -0.9889 -0.1293 -0.4412
  615MOL0     C84776  10.035   2.491   0.469  0.0719 -0.3391  0.3243
  615MOL0    Cl84777  10.054   2.389   0.609 -0.1121  0.3385  0.0712
  615MOL0     C84778  10.422   3.023   0.986  1.2723 -0.3338  0.0765
  615MOL0     C84779  10.558   2.993   0.963  0.5046 -0.2711 -0.7189
  615MOL0     O84780  10.761   2.868   1.137 -0.5889 -0.1124 -0.4599
  615MOL0     C84781  11.036   2.781   1.069 -0.0004  0.1496  0.6511
  615MOL0     C84782  11.157   2.722   1.040  0.0758 -0.3568 -1.4313
  615MOL0     N84783  11.632   2.340   1.233 -0.4908 -0.0436 -0.1302
  615MOL0     N84784  11.712   2.280   1.323  0.6355  0.4287  0.1271
  615MOL0     C84785  11.622   3.221   1.278 -0.3771 -1.2683 -0.3711
  615MOL0     C84786  11.546   3.323   1.341  0.3864  0.2463 -0.3453
  615MOL0     C84787  11.486   3.763   1.447  0.4766 -0.0954 -0.3174
  615MOL0     C84788  11.349   3.770   1.475 -0.5311  1.2790  0.3718
  615MOL0     C84789  11.288   3.888   1.523  0.1580  0.4922  0.8828
  615MOL0     C84790  11.356   4.003   1.542 -0.3637  0.1896 -0.7622
  615MOL0     O84791  11.289   4.099   1.609  0.2831 -0.3064 -0.1346
  615MOL0     C84792  11.362   4.224   1.629  0.5136 -0.2534  0.3866
  615MOL0     C84793  11.269   4.334   1.677  0.5268  0.3878  0.5605
  615MOL0     C84794  11.315   4.479   1.679 -0.1021 -0.0996  0.0282
  615MOL0     C84795  11.187   4.561   1.690  0.9195 -0.0720  0.6339
  615MOL0     C84796  11.217   4.706   1.702  0.6130  0.7030  0.0842
  615MOL0     C84797  11.243   4.829   1.699  1.0090  0.2778 -0.0067
  615MOL0     C84798  11.492   4.006   1.502  0.0295  0.2851  0.3630
  615MOL0     C84799  11.555   3.885   1.461 -0.2786  0.8064  0.1174
  615MOL0     C84800  11.698   3.888   1.435  0.2111 -0.0710  0.6796
  615MOL0     H84801  11.801   3.471   1.532  2.7419 -1.1361 -0.5198
  615MOL0     H84802  11.913   3.261   1.437  0.6878 -2.0554 -1.4029
  615MOL0     H84803  11.756   2.968   1.129  3.7075 -5.6932 -0.5492
  615MOL0     H84804  11.678   2.963   1.295  2.3800  0.2782  2.5803
  615MOL0     H84805  11.843   2.774   1.214  1.0744  1.7586 -2.3885
  615MOL0     H84806  11.976   2.895   1.229  0.6737 -2.1815 -2.4261
  615MOL0     H84807  11.996   2.863   1.439  1.6767 -1.0218 -4.5276
  615MOL0     H84808  11.827   2.888   1.482  1.1160  0.1450  0.6342
  615MOL0     H84809  11.868   2.684   1.569 -0.3238  1.8446  0.3255
  615MOL0     H84810  11.770   2.647   1.424  0.7190 -0.8373  0.9910
  615MOL0     H84811  12.070   2.617   1.402 -0.2607 -1.2328  1.0635
  615MOL0     H84812  11.939   2.585   1.295 -0.0098 -2.0877  0.1761
  615MOL0     H84813  12.002   2.466   1.589 -3.2541 -0.8093  0.4857
  615MOL0     H84814  11.859   2.420   1.511 -0.7907  0.9595 -1.8822
  615MOL0     H84815  12.103   2.316   1.511 -3.1509 -0.2412  1.0251
  615MOL0     H84816  12.113   2.386   1.362  2.3806  0.0447  1.3754
  615MOL0     H84817  12.013   2.170   1.301 -0.4823 -1.4719  0.2120
  615MOL0     H84818  11.914   2.174   1.454 -1.1117  0.1012 -0.6606
  615MOL0     H84819  11.946   2.352   1.119 -0.1400  0.6678 -0.8656
  615MOL0     H84820  11.619   2.364   0.956 -0.1835 -0.8008  1.3319
  615MOL0     H84821  11.778   2.446   0.945  1.1961  1.9431  3.5289
  615MOL0     H84822  11.690   2.650   1.055  3.3792 -2.3201 -0.0419
  615MOL0     H84823  11.596   2.605   0.909 -2.0016 -1.0975  0.7868
  615MOL0     H84824  11.497   2.555   1.195 -4.6742  1.4955  1.7363
  615MOL0     H84825  11.453   2.692   1.094 -0.6023 -0.0782 -1.0165
  615MOL0     H84826  11.384   2.407   0.991 -0.1756  0.1866 -2.5679
  615MOL0     H84827  11.283   2.486   1.101  0.7123 -0.5001  0.5583
  615MOL0     H84828  11.066   2.474   0.839 -2.0831 -0.3777 -1.2661
  615MOL0     H84829  10.716   2.593   0.891 -0.0989  0.8882  1.0517
  615MOL0     H84830  10.816   2.446   0.887 -2.7723  0.3012  2.1300
  615MOL0     H84831  10.807   2.561   0.749 -1.5196  0.9171  0.5898
  615MOL0     H84832  10.518   2.661   0.936  2.0067  0.7278 -1.3665
  615MOL0     H84833  10.284   2.720   0.982  1.7658 -1.5256 -1.0230
  615MOL0     H84834  10.144   3.162   1.029 -0.5623 -0.0546  0.0375
  615MOL0     H84835  10.208   3.139   0.872  1.9479  0.0310  0.9607
  615MOL0     H84836   9.924   3.038   0.968 -0.0429  0.9350  0.0399
  615MOL0     H84837   9.958   3.168   0.856  2.1034  1.6010  1.7327
  615MOL0     H84838  10.067   2.979   0.695 -0.5153 -0.7210 -1.4994
  615MOL0     H84839   9.910   3.027   0.696  1.6941  1.0338 -1.4311
  615MOL0     H84840   9.874   2.835   0.898  3.6667 -2.2064  4.2883
  615MOL0     H84841  10.045   2.791   0.843 -1.0936 -0.0087  1.2676
  615MOL0     H84842   9.841   2.666   0.763 -2.3190  0.4374 -1.3345
  615MOL0     H84843   9.817   2.779   0.642  2.5144 -0.1329 -2.0957
  615MOL0     H84844  10.073   2.628   0.682  0.0351 -0.0828  0.6102
  615MOL0     H84845  10.073   2.770   0.594 -0.2577  0.2883 -2.4730
  615MOL0     H84846   9.946   2.674   0.415 -2.1239  2.2325  1.3830
  615MOL0     H84847   9.846   2.577   0.522 -0.3873 -0.3727  2.4805
  615MOL0     H84848  10.139   2.519   0.449  0.3319 -2.8468 -2.5672
  615MOL0     H84849   9.995   2.427   0.390 -1.1885  0.4866  0.2782
  615MOL0     H84850  10.401   3.129   0.999  3.9221  0.1144  1.5549
  615MOL0     H84851  10.630   3.071   0.943  0.0221  0.2880 -0.3041
  615MOL0     H84852  11.030   2.857   1.147 -0.3899 -1.5931  2.4167
  615MOL0     H84853  11.239   2.763   1.099 -2.1136  0.1588  1.5077
  615MOL0     H84854  11.581   3.150   1.207  0.2083 -1.7219 -0.2583
  615MOL0     H84855  11.440   3.342   1.322  0.4617  0.7738 -0.2580
  615MOL0     H84856  11.282   3.685   1.463  1.8482 -0.5180 -0.8504
  615MOL0     H84857  11.181   3.887   1.538 -0.2357  0.3559 -1.4879
  615MOL0     H84858  11.437   4.218   1.708 -1.1943  1.2354  2.2345
  615MOL0     H84859  11.406   4.260   1.535  0.4041  0.4513  0.6008
  615MOL0     H84860  11.236   4.303   1.776  0.6987 -3.8080 -0.5207
  615MOL0     H84861  11.187   4.329   1.604  2.8638 -1.0680 -2.1384
  615MOL0     H84862  11.383   4.484   1.765 -0.7711 -3.5928  0.9304
  615MOL0     H84863  11.380   4.519   1.600  0.2821 -1.0537 -0.1550
  615MOL0     H84864  11.133   4.520   1.776  2.0010 -1.5337  0.6472
  615MOL0     H84865  11.124   4.545   1.602  3.1847  0.0459 -1.0806
  615MOL0     H84866  11.272   4.932   1.706 -0.0445  0.4640  2.5754
  615MOL0     H84867  11.556   4.091   1.523 -0.8149  0.7769  1.0060
  615MOL0     H84868  11.727   3.891   1.329  2.2690  0.1800  1.2159
  615MOL0     H84869  11.738   3.983   1.471  1.6867 -1.9745  4.5544
  615MOL0     H84870  11.759   3.812   1.484 -0.5794 -1.7858 -0.8614
  616MOL0     O84871  10.178   2.739   7.070  0.5578  0.8169  0.4616
  616MOL0     C84872  10.223   2.845   7.030 -0.4785 -0.7088  0.4435
  616MOL0     O84873  10.276   2.946   7.109  0.0255  0.3335  0.0333
  616MOL0     C84874  10.245   2.931   7.240 -0.7788 -0.1728  0.8649
  616MOL0     C84875  10.297   2.832   7.319  0.6422  0.4647 -0.1369
  616MOL0     C84876  10.259   2.807   7.452  0.7469  0.4071  0.5824
  616MOL0     C84877  10.169   2.906   7.509  0.2301  0.5830 -0.4027
  616MOL0     O84878  10.129   2.883   7.638 -0.2560  0.3488 -0.1536
  616MOL0     C84879  10.224   2.943   7.733  0.5458  0.2042 -0.4971
  616MOL0     C84880  10.163   2.957   7.868 -0.7911 -0.1743 -0.2106
  616MOL0     C84881  10.140   2.819   7.922 -0.4528  0.0444  0.1200
  616MOL0     C84882  10.212   2.778   8.055  1.2726  0.0756 -0.2018
  616MOL0     C84883  10.179   2.634   8.097  1.2982  0.3548 -0.6155
  616MOL0     C84884  10.239   2.510   8.015  0.2972 -0.0905  0.5227
  616MOL0     C84885  10.267   2.388   8.093 -0.9764 -0.7832  0.1831
  616MOL0     C84886  10.359   2.388   8.214  0.0751 -0.2175  0.0355
  616MOL0     N84887  10.437   2.514   8.216  0.9314  0.8525  0.0783
  616MOL0     C84888  10.548   2.556   8.143  0.0386  0.8310  0.5682
  616MOL0     C84889  10.591   2.669   8.195  0.2059 -0.0868 -0.7170
  616MOL0     C84890  10.697   2.749   8.139  0.5198 -0.3589 -0.6670
  616MOL0     C84891  10.733   2.719   7.992 -1.3939  0.1226 -0.9187
  616MOL0     C84892  10.858   2.786   7.939 -0.1206  0.0517  0.2572
  616MOL0     C84893  10.905   2.913   8.017  0.3398 -0.3349 -0.4383
  616MOL0     O84894  11.008   2.951   7.928 -0.0645 -0.7326  0.7226
  616MOL0     C84895  11.092   3.044   7.966 -0.4858 -0.0607 -0.0097
  616MOL0     C84896  11.220   3.042   7.908 -0.0923  0.3805 -0.9466
  616MOL0     C84897  11.315   3.138   7.938  0.5217 -0.5164 -0.2377
  616MOL0     C84898  11.446   3.123   7.868 -0.2306  0.1773  0.6907
  616MOL0     C84899  11.299   3.235   8.048  0.3679  0.2011  1.1904
  616MOL0     C84900  11.387   3.336   8.091 -0.6864 -1.1052  0.9837
  616MOL0     O84901  11.514   3.336   8.044  0.5228  0.5947 -0.3134
  616MOL0     C84902  11.611   3.405   8.114  0.0093 -0.5811 -0.7549
  616MOL0     C84903  11.606   3.544   8.127 -1.2356  0.7476  1.3822
  616MOL0     C84904  11.713   3.615   8.198  0.7742 -0.9004  0.9098
  616MOL0     C84905  11.815   3.542   8.259 -1.1491 -0.5649  0.8142
  616MOL0     O84906  11.920   3.607   8.322  1.1113 -0.4326 -0.9299
  616MOL0     C84907  12.040   3.577   8.272  0.0871  0.3172 -0.1443
  616MOL0     C84908  12.116   3.706   8.242  0.3289 -0.0628  0.9895
  616MOL0     C84909  12.266   3.695   8.211 -0.3102  0.3680  0.5569
  616MOL0     C84910  12.315   3.831   8.170  0.9226  0.1333 -0.6872
  616MOL0     C84911  12.465   3.832   8.138  0.2642 -1.0661  0.4259
  616MOL0     C84912  12.510   3.979   8.116 -0.4468 -0.3490 -0.1259
  616MOL0     C84913  12.654   3.980   8.055  0.1588  0.9812 -0.1143
  616MOL0     C84914  12.741   4.095   8.097  0.0068 -0.4513 -0.2178
  616MOL0    Cl84915  12.665   4.255   8.052  0.1525 -0.1016  0.3843
  616MOL0     C84916  11.805   3.406   8.258  0.2935  0.1210 -0.1154
  616MOL0     C84917  11.714   3.337   8.182 -0.2061 -0.2018 -0.0517
  616MOL0     O84918  11.345   3.416   8.179  0.3560 -0.6693 -0.2756
  616MOL0     C84919  11.165   3.229   8.105  0.2431 -0.1002  0.1082
  616MOL0     C84920  11.067   3.139   8.064  0.9555  0.8183  0.0932
  616MOL0     N84921  10.520   2.687   8.309 -0.6602 -0.7805 -0.1132
  616MOL0     N84922  10.428   2.602   8.318 -0.2910  0.1566 -0.8733
  616MOL0     C84923  10.125   3.015   7.432 -0.1678  0.1624 -0.6556
  616MOL0     C84924  10.158   3.026   7.299 -1.1800 -0.6451  0.7240
  616MOL0     C84925  10.216   2.870   6.884 -0.9142  0.4180 -0.3495
  616MOL0     C84926  10.129   2.805   6.801  0.0052 -0.3224 -0.6124
  616MOL0     C84927  10.098   2.836   6.670 -0.5306 -0.2876 -0.6435
  616MOL0     C84928  10.184   2.919   6.596  0.0486  1.0457 -0.6577
  616MOL0     O84929  10.172   2.931   6.456  0.7869 -0.2913 -0.1207
  616MOL0     C84930  10.118   2.835   6.373  0.1981  0.8354 -0.4611
  616MOL0     C84931  10.107   2.872   6.222 -0.1460 -0.7954 -0.0368
  616MOL0     C84932  10.232   2.942   6.165 -1.0519  0.3494 -1.0449
  616MOL0     C84933  10.210   3.003   6.032  0.0653  0.8272 -0.4453
  616MOL0     C84934  10.336   3.052   5.973  0.0147  0.1766  0.0432
  616MOL0     C84935  10.428   3.090   5.907 -0.1880 -0.4101  0.1992
  616MOL0     C84936  10.274   2.989   6.671  0.8682  0.9878 -0.1431
  616MOL0     C84937  10.287   2.978   6.816  0.1296  0.1625 -0.7384
  616MOL0     C84938  10.392   3.070   6.878  0.4884  0.0888  0.0090
  616MOL0     H84939  10.364   2.764   7.266  1.2124  0.8840  0.0394
  616MOL0     H84940  10.289   2.717   7.505 -0.8661 -0.4900  0.0447
  616MOL0     H84941  10.245   3.046   7.702 -2.2059  1.1690  0.5744
  616MOL0     H84942  10.312   2.878   7.736 -1.9176 -3.5350 -2.1698
  616MOL0     H84943  10.231   3.008   7.937 -0.6846  0.7452 -0.9779
  616MOL0     H84944  10.069   3.013   7.860 -0.2152  1.3608  2.3761
  616MOL0     H84945  10.032   2.810   7.931 -0.2819 -1.2936  1.0496
  616MOL0     H84946  10.163   2.742   7.847  0.8531 -0.1009  0.6459
  616MOL0     H84947  10.321   2.781   8.053  1.4070 -2.7580 -0.5050
  616MOL0     H84948  10.181   2.853   8.129 -0.4371  1.5374 -2.2901
  616MOL0     H84949  10.070   2.632   8.090  0.8138  3.9719  2.6916
  616MOL0     H84950  10.202   2.631   8.204  0.2685  1.5609 -0.3394
  616MOL0     H84951  10.169   2.484   7.935  0.7114 -1.3266  0.5493
  616MOL0     H84952  10.332   2.545   7.969  0.6628  0.2716  1.5119
  616MOL0     H84953  10.316   2.323   8.019 -0.9402  1.4816 -1.9326
  616MOL0     H84954  10.168   2.355   8.126 -1.6492  1.6482  0.7437
  616MOL0     H84955  10.282   2.392   8.292 -1.8020  1.8623 -1.7984
  616MOL0     H84956  10.423   2.299   8.218  2.8925  1.7575  1.5408
  616MOL0     H84957  10.588   2.499   8.060  0.2066 -1.3703  2.0717
  616MOL0     H84958  10.784   2.744   8.206  0.5765 -0.3771 -0.7417
  616MOL0     H84959  10.665   2.853   8.149  0.5613 -0.3529 -0.5859
  616MOL0     H84960  10.752   2.612   7.983  2.6830  0.6509 -0.5580
  616MOL0     H84961  10.647   2.741   7.928 -1.9340  0.9299  0.0527
  616MOL0     H84962  10.936   2.710   7.944  1.9954  2.1106  0.4564
  616MOL0     H84963  10.839   2.821   7.838 -3.0950  0.6562  0.9212
  616MOL0     H84964  10.827   2.988   8.003  0.0095 -0.6807 -0.4733
  616MOL0     H84965  10.926   2.894   8.122 -0.3492  0.2193 -0.1888
  616MOL0     H84966  11.248   2.963   7.839  0.3203 -1.9758  1.7311
  616MOL0     H84967  11.508   3.096   7.954 -2.6104  4.1449  3.9902
  616MOL0     H84968  11.492   3.205   7.813 -0.4887  0.0885  0.3412
  616MOL0     H84969  11.446   3.041   7.796  2.3272  0.2307  0.5233
  616MOL0     H84970  11.518   3.595   8.089 -1.0173 -1.3053 -2.3310
  616MOL0     H84971  11.709   3.723   8.194  1.3362 -0.8973  0.1792
  616MOL0     H84972  12.097   3.525   8.349  0.0367  0.1229 -0.2371
  616MOL0     H84973  12.044   3.514   8.182 -1.8255  2.2230 -1.6610
  616MOL0     H84974  12.073   3.737   8.146  2.7244  0.6746  0.0894
  616MOL0     H84975  12.104   3.776   8.325  0.6273  2.9393 -1.3245
  616MOL0     H84976  12.276   3.614   8.138  1.4906  0.8889  0.1717
  616MOL0     H84977  12.313   3.658   8.302 -0.1599  1.5967  0.9939
  616MOL0     H84978  12.298   3.886   8.262 -3.1731 -2.6200  0.4994
  616MOL0     H84979  12.241   3.867   8.097  0.0829 -1.1747 -0.5141
  616MOL0     H84980  12.514   3.783   8.223  2.8162  2.7692  1.4562
  616MOL0     H84981  12.487   3.775   8.047 -0.2099  1.1441 -1.1490
  616MOL0     H84982  12.506   4.040   8.207  1.8330 -1.1583  0.5697
  616MOL0     H84983  12.442   4.023   8.042  0.0332 -1.9765 -1.5881
  616MOL0     H84984  12.641   3.975   7.947  1.3736  0.1821 -0.2281
  616MOL0     H84985  12.711   3.892   8.085 -1.1534  0.6702  1.7251
  616MOL0     H84986  12.844   4.091   8.062  0.2308 -0.3005  0.4241
  616MOL0     H84987  12.751   4.091   8.206  2.2237 -4.7489 -0.3736
  616MOL0     H84988  11.869   3.343   8.320 -0.3556  1.1349  1.6736
  616MOL0     H84989  11.707   3.228   8.186 -1.2213 -0.3630 -3.2388
  616MOL0     H84990  11.135   3.305   8.177  3.4693  0.5524  0.9417
  616MOL0     H84991  10.976   3.126   8.121 -1.5840  2.4840 -3.2114
  616MOL0     H84992  10.058   3.089   7.474  1.4684  4.3721 -4.5480
  616MOL0     H84993  10.120   3.108   7.239 -2.0564 -0.8300  1.0101
  616MOL0     H84994  10.053   2.746   6.851 -0.5446 -0.5639 -1.6888
  616MOL0     H84995  10.006   2.804   6.623  0.0687 -2.6982 -0.3027
  616MOL0     H84996  10.166   2.737   6.383 -0.7711  0.5061  1.4549
  616MOL0     H84997  10.019   2.810   6.412  0.9224 -2.8719 -0.6339
  616MOL0     H84998  10.025   2.939   6.194 -1.1377 -2.4076 -1.1087
  616MOL0     H84999  10.101   2.777   6.169  0.4424 -1.3056  0.7795
  616MOL0     H85000  10.257   3.024   6.233  3.9253 -0.0970 -1.9306
  616MOL0     H85001  10.312   2.867   6.159  1.1227  2.6007 -2.4071
  616MOL0     H85002  10.143   3.088   6.043 -3.0269 -1.3241 -1.1593
  616MOL0     H85003  10.165   2.924   5.970  3.2634 -1.9160  0.4179
  616MOL0     H85004  10.503   3.144   5.853 -4.1132  3.9316 -1.6088
  616MOL0     H85005  10.341   3.057   6.618  2.8315 -0.5541  0.2365
  616MOL0     H85006  10.456   3.122   6.806  0.0001 -0.6510 -0.9804
  616MOL0     H85007  10.348   3.138   6.952 -2.4619  1.7817 -3.0468
  616MOL0     H85008  10.466   3.003   6.922 -0.1047 -0.7031 -0.1874
  617MOL0     O85009   3.713   0.979   1.539  0.3622 -0.1403 -0.4372
  617MOL0     C85010   3.772   0.950   1.641 -0.9068  0.7648 -0.0504
  617MOL0     O85011   3.910   0.919   1.649  1.0678 -0.4558  0.0218
  617MOL0     C85012   3.991   0.985   1.562 -0.9010  0.0759  0.3809
  617MOL0     C85013   4.108   0.916   1.504  0.1080  0.3721 -1.3433
  617MOL0     C85014   4.197   0.984   1.417 -1.1220 -0.1578  0.2124
  617MOL0     C85015   4.172   1.112   1.373 -0.6140 -0.3768 -0.0367
  617MOL0     O85016   4.262   1.171   1.279 -0.2272  0.3284  0.1814
  617MOL0     C85017   4.276   1.313   1.288 -0.5526  0.1881  0.6314
  617MOL0     C85018   4.393   1.348   1.197 -0.0083 -0.4172 -0.4630
  617MOL0     C85019   4.417   1.515   1.193 -0.1041 -0.1500 -0.9674
  617MOL0     C85020   4.502   1.556   1.076 -0.3638 -0.0919  1.2931
  617MOL0     C85021   4.435   1.533   0.934  0.3339 -0.1512  0.5255
  617MOL0     C85022   4.503   1.617   0.822  0.5239  0.4502  0.5536
  617MOL0     C85023   4.651   1.581   0.817 -0.5002  0.2935  0.0375
  617MOL0     C85024   4.679   1.431   0.813 -0.1354 -1.2165 -0.8936
  617MOL0     N85025   4.819   1.394   0.854 -0.2539 -0.4492 -0.6322
  617MOL0     C85026   4.844   1.341   0.981 -0.2565  1.3006  0.9873
  617MOL0     C85027   4.975   1.318   0.975  0.0004 -0.7791 -0.0978
  617MOL0     C85028   5.058   1.256   1.080 -0.4436  0.4575 -0.0233
  617MOL0     C85029   5.074   1.107   1.066 -0.5785  0.3618 -0.8539
  617MOL0     C85030   5.151   1.033   1.194 -0.1369 -0.1893  0.3549
  617MOL0     C85031   5.276   1.102   1.242 -0.4840 -0.5467 -0.0254
  617MOL0     O85032   5.379   1.081   1.143 -0.3100 -0.5897 -0.0448
  617MOL0     C85033   5.504   1.119   1.180 -0.5110  0.1443  0.3140
  617MOL0     C85034   5.599   1.109   1.078  0.0334  1.1068 -0.3107
  617MOL0     C85035   5.730   1.127   1.090 -0.4852  0.2347 -0.3475
  617MOL0     C85036   5.827   1.070   0.982 -0.5005 -0.3703  0.6522
  617MOL0     C85037   5.777   1.175   1.216 -0.4075 -0.5136 -0.2528
  617MOL0     C85038   5.926   1.202   1.243 -0.0802 -0.2090 -0.6074
  617MOL0     O85039   5.968   1.191   1.375 -0.3127  0.4825  0.0422
  617MOL0     C85040   6.107   1.188   1.403 -1.3012  0.2761  0.2002
  617MOL0     C85041   6.196   1.098   1.347 -0.3225 -0.4758 -0.9127
  617MOL0     C85042   6.334   1.118   1.372 -0.2320  0.4017  0.1925
  617MOL0     C85043   6.386   1.216   1.457  0.7816  0.5960  0.8643
  617MOL0     O85044   6.528   1.218   1.464  0.5877 -0.1990  1.1137
  617MOL0     C85045   6.594   1.316   1.539  0.4278  0.0490 -1.0258
  617MOL0     C85046   6.574   1.282   1.693  0.6132  0.7190 -0.4229
  617MOL0     C85047   6.666   1.162   1.737  0.8537  0.1247  0.5550
  617MOL0     C85048   6.658   1.138   1.887 -0.6081  0.5139  0.4489
  617MOL0     C85049   6.749   1.021   1.927 -0.5783  1.2246 -0.1693
  617MOL0     C85050   6.721   0.959   2.068 -0.1893 -0.5169  0.0482
  617MOL0     C85051   6.596   0.878   2.086 -0.8382  0.2809 -0.0686
  617MOL0     C85052   6.612   0.746   2.163  0.1745 -0.9488  0.4474
  617MOL0    Cl85053   6.713   0.759   2.321  0.1912  0.1686  0.3389
  617MOL0     C85054   6.293   1.315   1.501 -0.3107 -0.2685 -0.2695
  617MOL0     C85055   6.156   1.297   1.478  0.1171  0.6516 -0.5199
  617MOL0     O85056   5.991   1.244   1.141  0.5438  0.4229 -0.4608
  617MOL0     C85057   5.692   1.191   1.320 -0.1548 -0.1352  0.5460
  617MOL0     C85058   5.552   1.173   1.301 -0.2644 -0.3883  0.0084
  617MOL0     N85059   5.016   1.339   0.848  0.8778 -0.8467  0.1849
  617MOL0     N85060   4.922   1.382   0.776  0.2403  0.8424  0.0145
  617MOL0     C85061   4.050   1.174   1.414  0.6436 -1.0583 -0.4398
  617MOL0     C85062   3.972   1.116   1.515 -1.0892 -0.2329  0.0547
  617MOL0     C85063   3.684   0.923   1.765  0.4596 -1.0688 -1.2545
  617MOL0     C85064   3.748   0.922   1.892 -0.2829  1.0930  0.8281
  617MOL0     C85065   3.682   0.898   2.015  0.6852  0.1945 -0.4407
  617MOL0     C85066   3.544   0.895   2.021 -1.1220  1.3481 -0.1640
  617MOL0     O85067   3.492   0.875   2.152 -0.7788 -0.4411 -0.3007
  617MOL0     C85068   3.353   0.901   2.176 -0.3370 -0.5787 -0.0528
  617MOL0     C85069   3.310   1.028   2.258 -0.3685 -0.4594  0.3367
  617MOL0     C85070   3.373   1.033   2.393 -0.7091 -0.4313  0.0352
  617MOL0     C85071   3.306   0.940   2.493 -0.4083  0.6883 -1.2705
  617MOL0     C85072   3.332   0.978   2.634  0.0317  0.5479 -0.2743
  617MOL0     C85073   3.347   1.023   2.745 -0.7360  0.3858 -0.8341
  617MOL0     C85074   3.476   0.897   1.900  0.0307 -0.6131  0.4978
  617MOL0     C85075   3.545   0.913   1.772  0.5061 -0.7954 -0.1190
  617MOL0     C85076   3.462   0.919   1.653 -0.4687  0.2933  0.2671
  617MOL0     H85077   4.103   0.815   1.542 -2.2585  0.9966  0.2734
  617MOL0     H85078   4.295   0.939   1.400 -2.4178 -2.3405 -2.1319
  617MOL0     H85079   4.293   1.336   1.393 -0.7154 -1.6216  1.0883
  617MOL0     H85080   4.183   1.358   1.251 -2.9136 -3.0286  2.1396
  617MOL0     H85081   4.483   1.302   1.238  0.2473 -0.8323 -1.4491
  617MOL0     H85082   4.402   1.300   1.099 -0.3385 -1.4032 -0.0296
  617MOL0     H85083   4.330   1.579   1.175  1.9660  3.2505  0.2349
  617MOL0     H85084   4.462   1.545   1.287 -1.0317 -0.3300 -0.4488
  617MOL0     H85085   4.532   1.662   1.080  2.5574 -0.7784  0.0151
  617MOL0     H85086   4.592   1.495   1.070  1.8337  2.9605  0.7148
  617MOL0     H85087   4.332   1.563   0.953 -0.6017 -1.4387 -2.0504
  617MOL0     H85088   4.422   1.429   0.903 -1.1990 -0.3486  1.7359
  617MOL0     H85089   4.459   1.597   0.724  0.6489 -0.3122  0.6410
  617MOL0     H85090   4.487   1.723   0.843  2.4120  0.6661  1.0605
  617MOL0     H85091   4.703   1.632   0.899  2.2408 -0.1265 -1.3092
  617MOL0     H85092   4.702   1.633   0.735  2.0058 -0.4106  1.0580
  617MOL0     H85093   4.607   1.372   0.870 -0.3257  0.0469  0.2237
  617MOL0     H85094   4.671   1.405   0.707  1.0260  1.7937 -1.8185
  617MOL0     H85095   4.776   1.326   1.064 -2.2691 -0.2615 -0.8336
  617MOL0     H85096   5.042   1.292   1.182  0.2847  0.8391 -0.0324
  617MOL0     H85097   5.160   1.290   1.060  0.7579 -1.7403  1.8834
  617MOL0     H85098   4.978   1.057   1.052 -2.2673  1.9827  3.2284
  617MOL0     H85099   5.141   1.090   0.982  0.1962  0.9547 -0.3654
  617MOL0     H85100   5.084   1.024   1.280  0.0102  0.6147  0.5592
  617MOL0     H85101   5.170   0.935   1.150  0.7809  0.9831 -2.0596
  617MOL0     H85102   5.249   1.207   1.256  0.4265 -0.5972  2.6505
  617MOL0     H85103   5.313   1.072   1.340  0.5874 -2.0159 -0.8422
  617MOL0     H85104   5.573   1.064   0.983 -2.3131 -0.6506  1.0583
  617MOL0     H85105   5.771   1.001   0.917 -0.4603  0.6812 -0.5203
  617MOL0     H85106   5.910   1.010   1.019 -0.2564 -0.7466 -0.4621
  617MOL0     H85107   5.870   1.150   0.922  5.5357 -3.5932 -0.0189
  617MOL0     H85108   6.172   1.003   1.301 -0.3971 -2.3528  2.6378
  617MOL0     H85109   6.400   1.050   1.318 -0.0779  0.3154  0.4846
  617MOL0     H85110   6.702   1.318   1.520  0.4010  3.0005 -1.3807
  617MOL0     H85111   6.547   1.414   1.522  2.4786  0.8771 -2.2596
  617MOL0     H85112   6.603   1.360   1.763 -1.6043  2.0485 -0.9241
  617MOL0     H85113   6.470   1.250   1.698  1.7873 -3.8870  0.0691
  617MOL0     H85114   6.768   1.179   1.702 -0.3754  0.9405 -3.0609
  617MOL0     H85115   6.624   1.082   1.676  2.9350  1.0582 -2.3196
  617MOL0     H85116   6.554   1.118   1.910 -0.0564  1.4564  4.4957
  617MOL0     H85117   6.686   1.223   1.951 -1.5008  0.0116  1.5392
  617MOL0     H85118   6.734   0.934   1.862 -2.5021  0.2383  1.5002
  617MOL0     H85119   6.851   1.058   1.910  0.5722 -2.0527 -1.1471
  617MOL0     H85120   6.706   1.045   2.135 -1.8221 -0.1265 -0.7533
  617MOL0     H85121   6.812   0.905   2.095 -1.4790 -2.8214  0.0036
  617MOL0     H85122   6.544   0.859   1.992 -0.6610 -2.2431  0.2708
  617MOL0     H85123   6.522   0.932   2.146 -0.7168 -0.5067  0.8178
  617MOL0     H85124   6.655   0.662   2.108  1.0333 -0.7435  0.7892
  617MOL0     H85125   6.511   0.712   2.188 -0.1121 -0.1829  0.3442
  617MOL0     H85126   6.332   1.414   1.524 -0.6827  0.3885 -2.2423
  617MOL0     H85127   6.080   1.369   1.506 -0.9049 -0.5671 -0.0738
  617MOL0     H85128   5.726   1.227   1.416 -1.8388  1.1407  0.6881
  617MOL0     H85129   5.487   1.185   1.387  2.5122 -0.5967  2.3160
  617MOL0     H85130   4.023   1.276   1.389  0.6052 -0.6580  1.1287
  617MOL0     H85131   3.879   1.162   1.546 -1.2877 -0.6487  0.0830
  617MOL0     H85132   3.856   0.935   1.893  0.0534 -0.7898 -1.7201
  617MOL0     H85133   3.738   0.904   2.108 -0.0452  0.4750 -0.0138
  617MOL0     H85134   3.294   0.906   2.084 -0.8287  0.9781  0.3112
  617MOL0     H85135   3.318   0.809   2.225  3.8829 -0.3235  4.2037
  617MOL0     H85136   3.207   1.015   2.291 -0.0001  0.6066  2.0434
  617MOL0     H85137   3.322   1.123   2.205 -2.3941 -0.8446 -0.9244
  617MOL0     H85138   3.477   1.007   2.372 -0.1779  3.7070 -4.1914
  617MOL0     H85139   3.365   1.133   2.439 -2.3175 -1.1144  1.3504
  617MOL0     H85140   3.340   0.836   2.496  0.9531  1.1333  0.4053
  617MOL0     H85141   3.198   0.938   2.475 -0.5294  0.9472 -0.5987
  617MOL0     H85142   3.381   1.071   2.835 -2.9631  0.9403 -0.2337
  617MOL0     H85143   3.371   0.873   1.893 -0.6366  1.6934  1.5336
  617MOL0     H85144   3.364   0.873   1.672 -0.7349  0.8697  0.3003
  617MOL0     H85145   3.435   1.021   1.626 -0.9978 -0.2555 -1.4043
  617MOL0     H85146   3.501   0.861   1.569 -1.5801  1.2873 -0.9818
  618MOL0     O85147  11.500   4.576   1.095 -0.1966 -0.1547 -0.5776
  618MOL0     C85148  11.533   4.552   1.209  0.3870  0.7427  0.2189
  618MOL0     O85149  11.476   4.602   1.317 -0.1768 -0.3096  0.4718
  618MOL0     C85150  11.369   4.679   1.292  0.6264 -0.3233  0.3776
  618MOL0     C85151  11.242   4.626   1.253  0.0504 -0.3937  1.6964
  618MOL0     C85152  11.132   4.714   1.231 -0.2789 -0.5196  0.2782
  618MOL0     C85153  11.140   4.855   1.240  0.3655 -0.9887  0.0025
  618MOL0     O85154  11.040   4.943   1.220 -0.3770 -0.3423  0.3511
  618MOL0     C85155  10.914   4.887   1.185 -0.5246 -0.4805  0.3436
  618MOL0     C85156  10.821   5.012   1.182  0.3087 -0.2014 -0.1369
  618MOL0     C85157  10.673   4.969   1.145 -0.2101  0.9786  0.1393
  618MOL0     C85158  10.587   5.095   1.153  0.1328  0.2430  1.2252
  618MOL0     C85159  10.444   5.058   1.128  0.1456  1.3273 -0.6822
  618MOL0     C85160  10.381   4.987   1.253 -0.7149  0.7771 -0.5639
  618MOL0     C85161  10.229   4.977   1.248  0.0939  0.7857  0.2795
  618MOL0     C85162  10.178   4.880   1.128 -0.2932  0.2228 -0.2284
  618MOL0     N85163  10.146   4.957   1.006  0.0356  1.9429  0.1463
  618MOL0     C85164  10.225   4.948   0.892  0.1835 -0.3178  0.1350
  618MOL0     C85165  10.154   4.974   0.777 -0.0091 -0.7026 -1.1018
  618MOL0     C85166  10.213   4.956   0.635  0.2944  0.2827 -0.3331
  618MOL0     C85167  10.296   5.070   0.584  0.7138  0.3358 -0.6878
  618MOL0     C85168  10.425   5.098   0.673  0.3619  1.4956  0.0814
  618MOL0     C85169  10.543   5.140   0.587 -0.4112  0.9386 -0.5549
  618MOL0     O85170  10.666   5.135   0.665 -0.2747  0.2508  0.2978
  618MOL0     C85171  10.699   5.230   0.755  0.2325  0.3657 -0.0954
  618MOL0     C85172  10.633   5.349   0.794  0.3465 -0.1434  0.5621
  618MOL0     C85173  10.681   5.444   0.875 -0.8045 -0.7065  0.3687
  618MOL0     C85174  10.594   5.562   0.911  0.0445 -1.2351 -0.2296
  618MOL0     C85175  10.808   5.431   0.930 -0.1736  0.6885  0.1121
  618MOL0     C85176  10.862   5.504   1.040 -1.1005 -0.4318 -0.4329
  618MOL0     O85177  10.996   5.530   1.040 -0.2676  0.4575  0.3194
  618MOL0     C85178  11.066   5.481   1.146  0.1645 -0.0914  0.9721
  618MOL0     C85179  11.194   5.536   1.177  0.6795  0.9148  0.7951
  618MOL0     C85180  11.271   5.475   1.278  1.0031  0.0875 -0.4353
  618MOL0     C85181  11.234   5.365   1.346  1.4195 -0.7475 -0.8072
  618MOL0     O85182  11.304   5.321   1.454 -0.8447 -0.1693 -0.2827
  618MOL0     C85183  11.446   5.347   1.471  0.1893 -0.6074  0.3139
  618MOL0     C85184  11.518   5.260   1.577 -1.4810 -0.3720  0.1217
  618MOL0     C85185  11.534   5.119   1.540 -0.2830  0.9049 -1.3975
  618MOL0     C85186  11.574   5.042   1.663  0.6037  0.2188 -0.8586
  618MOL0     C85187  11.611   4.890   1.642 -0.5047  0.7543 -0.0629
  618MOL0     C85188  11.700   4.868   1.528 -0.2350  0.4039  1.1786
  618MOL0     C85189  11.787   4.740   1.543 -0.0026  0.2415 -0.3674
  618MOL0     C85190  11.912   4.738   1.458  0.4059 -0.3710 -0.3241
  618MOL0    Cl85191  12.057   4.811   1.533 -0.1703  0.0982  0.4616
  618MOL0     C85192  11.113   5.304   1.314  0.2800 -1.3060  0.2853
  618MOL0     C85193  11.039   5.355   1.205 -0.1978  0.4480 -1.6053
  618MOL0     O85194  10.791   5.512   1.137  0.6461  0.0172  0.0813
  618MOL0     C85195  10.885   5.314   0.892  0.0388  0.1839 -0.2116
  618MOL0     C85196  10.829   5.215   0.807 -0.2680 -0.5868 -0.4599
  618MOL0     N85197  10.028   4.984   0.826 -0.0175 -0.6205 -0.2758
  618MOL0     N85198  10.018   4.977   0.960 -0.1917  0.1357  0.1035
  618MOL0     C85199  11.257   4.898   1.297 -0.6053  0.2757 -0.3029
  618MOL0     C85200  11.370   4.819   1.315 -0.3728  0.4198 -0.4923
  618MOL0     C85201  11.657   4.468   1.231  0.4797  0.6294 -0.0300
  618MOL0     C85202  11.656   4.401   1.354 -0.3166  0.5576  0.1615
  618MOL0     C85203  11.755   4.307   1.382  0.2623  0.3010  0.8627
  618MOL0     C85204  11.863   4.295   1.289  0.1506 -0.8803  0.0106
  618MOL0     O85205  11.956   4.194   1.315  0.7354 -0.4576  0.0872
  618MOL0     C85206  12.066   4.156   1.228 -0.0859  0.6648  0.4239
  618MOL0     C85207  12.094   4.007   1.247 -0.8580 -1.1752 -0.5197
  618MOL0     C85208  12.215   3.969   1.167 -0.4211  0.0882 -0.0818
  618MOL0     C85209  12.241   3.821   1.189  0.2918  0.4138  0.2584
  618MOL0     C85210  12.285   3.799   1.324 -0.1470 -0.1720 -0.2981
  618MOL0     C85211  12.326   3.793   1.439  0.7283 -1.4741 -0.4981
  618MOL0     C85212  11.863   4.368   1.173  0.0842  0.1171  0.7026
  618MOL0     C85213  11.771   4.462   1.149 -0.1399 -0.3268  0.3047
  618MOL0     C85214  11.795   4.554   1.025 -1.1739 -0.0200 -0.5014
  618MOL0     H85215  11.230   4.523   1.222  2.3049 -0.8158  2.0517
  618MOL0     H85216  11.038   4.669   1.201  0.4118 -1.5195 -0.4441
  618MOL0     H85217  10.888   4.814   1.262  0.6021 -2.2050 -0.8128
  618MOL0     H85218  10.919   4.843   1.084 -4.1582  0.2142 -0.2790
  618MOL0     H85219  10.825   5.058   1.281  2.5983  0.0753 -0.3128
  618MOL0     H85220  10.867   5.086   1.116 -0.1075  0.3206  0.1475
  618MOL0     H85221  10.671   4.922   1.046 -2.9326  1.2744 -0.0123
  618MOL0     H85222  10.655   4.885   1.213 -1.0735  0.2718 -0.9393
  618MOL0     H85223  10.596   5.154   1.246 -0.0618 -0.8835  1.9743
  618MOL0     H85224  10.625   5.162   1.075 -0.2033  2.7033  3.0544
  618MOL0     H85225  10.455   4.992   1.041  1.9456  0.9196 -0.1951
  618MOL0     H85226  10.380   5.145   1.114  0.0619  1.3568 -0.1375
  618MOL0     H85227  10.423   4.886   1.256 -3.0207 -0.2155 -0.0286
  618MOL0     H85228  10.407   5.043   1.343  1.3480 -0.3896 -0.3514
  618MOL0     H85229  10.190   5.080   1.247  0.5257  0.9554  0.5552
  618MOL0     H85230  10.201   4.935   1.345 -1.4593 -0.5036 -0.6876
  618MOL0     H85231  10.256   4.807   1.107  2.6480  2.5806  1.6833
  618MOL0     H85232  10.092   4.822   1.162 -0.5221 -0.8233 -2.4438
  618MOL0     H85233  10.328   4.914   0.899  0.4039  0.3304  0.0740
  618MOL0     H85234  10.137   4.935   0.560  0.2797  2.5832 -1.0435
  618MOL0     H85235  10.277   4.868   0.647 -0.0501  0.1474  0.6252
  618MOL0     H85236  10.311   5.067   0.476 -0.7151 -0.1103 -0.8894
  618MOL0     H85237  10.243   5.165   0.600  0.9232  0.4167 -0.4580
  618MOL0     H85238  10.407   5.176   0.747  3.4550  2.6067 -0.1910
  618MOL0     H85239  10.450   5.002   0.720  1.1721 -0.3953 -3.7739
  618MOL0     H85240  10.559   5.089   0.492  1.6031  0.6309 -0.0918
  618MOL0     H85241  10.519   5.243   0.560  1.1134  1.2031 -0.9821
  618MOL0     H85242  10.536   5.354   0.747  1.8041 -2.1196 -3.1332
  618MOL0     H85243  10.552   5.610   0.822  0.1921 -0.8008 -0.0698
  618MOL0     H85244  10.633   5.641   0.977 -0.3647  0.9362 -2.4345
  618MOL0     H85245  10.503   5.524   0.959 -0.2763  0.0158  0.2064
  618MOL0     H85246  11.237   5.615   1.116  0.5756 -0.4156 -1.1234
  618MOL0     H85247  11.371   5.516   1.293  1.6019 -0.7877 -1.8176
  618MOL0     H85248  11.507   5.325   1.383 -2.0180 -1.4390 -1.0940
  618MOL0     H85249  11.455   5.452   1.499  0.0495 -0.5638  0.2013
  618MOL0     H85250  11.612   5.308   1.604 -2.9149  2.3338  0.6206
  618MOL0     H85251  11.461   5.265   1.670  5.2312  3.8652  4.9463
  618MOL0     H85252  11.614   5.119   1.466 -0.9452  1.9525 -2.1533
  618MOL0     H85253  11.438   5.078   1.507 -0.9726  0.3960  1.0501
  618MOL0     H85254  11.501   5.053   1.743 -2.3849 -1.3120 -3.1361
  618MOL0     H85255  11.662   5.093   1.702  1.1584 -0.3979 -1.2707
  618MOL0     H85256  11.640   4.843   1.737  1.1817 -0.8551 -1.2995
  618MOL0     H85257  11.516   4.842   1.615 -1.1652  3.2378 -2.6807
  618MOL0     H85258  11.764   4.956   1.522  0.8793 -0.4013  0.9827
  618MOL0     H85259  11.650   4.852   1.433  2.4637 -1.6003 -0.0463
  618MOL0     H85260  11.736   4.649   1.509 -2.3330  0.9101  1.1466
  618MOL0     H85261  11.809   4.722   1.649 -0.2064  1.5213 -0.0869
  618MOL0     H85262  11.880   4.778   1.361 -2.8621 -1.5687  0.1281
  618MOL0     H85263  11.947   4.637   1.435  2.0358 -0.2987  1.5210
  618MOL0     H85264  11.075   5.222   1.373 -4.5016  1.1500  1.2042
  618MOL0     H85265  10.945   5.305   1.183 -0.0520 -1.6582  1.8254
  618MOL0     H85266  10.982   5.289   0.934  2.0001  2.2204 -3.2121
  618MOL0     H85267  10.884   5.123   0.789 -1.2458 -1.0435 -1.2640
  618MOL0     H85268  11.256   5.004   1.323  0.3593 -0.6444  4.4122
  618MOL0     H85269  11.469   4.858   1.337 -0.7757  1.2550 -0.1123
  618MOL0     H85270  11.573   4.419   1.421 -0.1278  2.9078 -0.1580
  618MOL0     H85271  11.758   4.251   1.475 -1.5292  2.0215  2.0129
  618MOL0     H85272  12.040   4.177   1.124 -0.3965 -0.0789  0.3415
  618MOL0     H85273  12.157   4.209   1.258  0.4544  0.8286 -1.3827
  618MOL0     H85274  12.012   3.947   1.207  1.0719 -2.1936 -3.2783
  618MOL0     H85275  12.104   3.998   1.355 -2.6659  3.0514  0.2116
  618MOL0     H85276  12.208   4.013   1.067  0.7042  0.8207  0.1329
  618MOL0     H85277  12.298   4.023   1.215  0.6409 -3.0666  1.9668
  618MOL0     H85278  12.321   3.786   1.124 -1.3211  0.4271 -1.8318
  618MOL0     H85279  12.150   3.763   1.171 -1.0910  1.3921  3.3389
  618MOL0     H85280  12.362   3.790   1.540  3.4790  1.8451 -1.2035
  618MOL0     H85281  11.951   4.351   1.111  0.2324 -1.7003  1.3503
  618MOL0     H85282  11.899   4.587   1.024 -1.2654  0.3563  0.5822
  618MOL0     H85283  11.787   4.491   0.936 -1.6872 -0.9695  0.1947
  618MOL0     H85284  11.731   4.643   1.019 -2.1545 -0.8167 -2.5516
  619MOL0     O85285   8.757   4.668  11.349  0.4251 -0.1439 -0.0282
  619MOL0     C85286   8.836   4.759  11.333 -1.2072  1.3126  0.9078
  619MOL0     O85287   8.958   4.753  11.273  0.5582 -0.1569  0.3215
  619MOL0     C85288   9.052   4.663  11.317 -0.0500  0.0876 -0.2022
  619MOL0     C85289   9.035   4.580  11.434 -0.6085 -0.1407 -0.8170
  619MOL0     C85290   9.147   4.502  11.484 -0.4670 -0.4951  0.2509
  619MOL0     C85291   9.268   4.498  11.417 -0.3109  0.3772  0.6011
  619MOL0     O85292   9.380   4.432  11.458 -0.2386  0.5298  0.5057
  619MOL0     C85293   9.390   4.384  11.599  0.0432  1.0458 -0.4375
  619MOL0     C85294   9.538   4.348  11.639  0.0382  0.1830  0.0084
  619MOL0     C85295   9.630   4.269  11.540  0.0110  0.0002  0.8283
  619MOL0     C85296   9.771   4.232  11.597  0.6040  0.1714  0.0085
  619MOL0     C85297   9.872   4.345  11.628 -0.7108  1.5976 -0.1457
  619MOL0     C85298   9.934   4.406  11.511 -0.2127 -0.5214  0.0046
  619MOL0     C85299  10.085   4.387  11.504 -0.1437  1.6692  0.5179
  619MOL0     C85300  10.159   4.489  11.587 -0.1029 -0.2369 -0.6153
  619MOL0     N85301  10.300   4.482  11.555 -0.2741 -0.0818 -0.1771
  619MOL0     C85302  10.347   4.551  11.445  1.5425  0.9869 -0.2944
  619MOL0     C85303  10.480   4.540  11.447 -0.5698 -0.1780  0.1565
  619MOL0     C85304  10.571   4.605  11.342  0.3041  0.8170  0.7412
  619MOL0     C85305  10.644   4.507  11.241  0.1695 -0.0881 -0.2642
  619MOL0     C85306  10.736   4.578  11.149 -0.2179  0.2018 -0.0082
  619MOL0     C85307  10.790   4.482  11.048 -0.3390  0.0261  0.1378
  619MOL0     O85308  10.890   4.402  11.113 -0.3678  0.3464  0.6696
  619MOL0     C85309  10.921   4.283  11.049  0.2755 -0.2653  0.4669
  619MOL0     C85310  10.918   4.247  10.914  1.3274 -0.1657 -0.3262
  619MOL0     C85311  10.949   4.126  10.870  0.0784  0.2756 -0.8755
  619MOL0     C85312  10.947   4.093  10.724  0.5663  0.2548 -0.2677
  619MOL0     C85313  10.993   4.031  10.966  0.1357 -0.1197 -0.4019
  619MOL0     C85314  11.015   3.892  10.922 -0.0727  0.4478  0.1330
  619MOL0     O85315  11.120   3.819  10.967 -0.3420 -0.3737  0.2964
  619MOL0     C85316  11.247   3.868  11.001  0.5918 -0.5447 -0.1027
  619MOL0     C85317  11.330   3.797  11.091 -0.2884  0.1883 -0.9874
  619MOL0     C85318  11.460   3.838  11.115 -0.3525  0.2924 -0.3979
  619MOL0     C85319  11.517   3.941  11.048  0.6210 -0.5005 -0.9652
  619MOL0     O85320  11.647   3.971  11.100  0.4809  1.0161  0.0945
  619MOL0     C85321  11.733   4.060  11.027  0.7781  0.6999 -0.4560
  619MOL0     C85322  11.873   4.034  11.071 -0.7582  0.3357  0.0245
  619MOL0     C85323  11.910   4.033  11.220 -0.8228 -0.6731  0.7529
  619MOL0     C85324  11.932   4.176  11.290  0.4878  0.2931  0.5749
  619MOL0     C85325  11.790   4.240  11.322 -0.3853  0.0420  0.1084
  619MOL0     C85326  11.811   4.387  11.368 -0.4212 -0.3361  0.6847
  619MOL0     C85327  11.702   4.418  11.472  0.9298 -0.2328  0.4270
  619MOL0     C85328  11.718   4.566  11.498  0.2103  0.0871  0.4660
  619MOL0    Cl85329  11.651   4.661  11.358  0.1337  0.0713  0.0858
  619MOL0     C85330  11.441   4.007  10.943  0.6780  0.3540 -0.2928
  619MOL0     C85331  11.306   3.970  10.928  0.0827  0.7492  0.6685
  619MOL0     O85332  10.915   3.838  10.874  0.0367 -0.7070 -0.1005
  619MOL0     C85333  11.014   4.062  11.100 -0.0576  0.2610  0.6390
  619MOL0     C85334  10.975   4.190  11.137 -0.0144 -0.5082  0.7639
  619MOL0     N85335  10.513   4.443  11.540  0.6588 -0.8473 -1.0719
  619MOL0     N85336  10.407   4.421  11.609  1.2056  0.8336 -0.0928
  619MOL0     C85337   9.284   4.589  11.304 -0.3018  0.8121 -0.2883
  619MOL0     C85338   9.174   4.671  11.247 -0.7245 -0.3881 -0.0286
  619MOL0     C85339   8.798   4.894  11.383  0.3115 -0.1274 -1.1484
  619MOL0     C85340   8.662   4.919  11.414  0.2232  0.0499 -0.3173
  619MOL0     C85341   8.608   5.031  11.479 -0.3261 -0.1635  0.1252
  619MOL0     C85342   8.701   5.140  11.508  0.1716  0.2616  0.6004
  619MOL0     O85343   8.642   5.256  11.557 -0.5017  0.0530 -0.0947
  619MOL0     C85344   8.591   5.258  11.695  0.4723 -0.0016  0.7228
  619MOL0     C85345   8.708   5.329  11.784  0.2518 -0.2544  1.0799
  619MOL0     C85346   8.695   5.487  11.757  0.1574  0.1879  0.2980
  619MOL0     C85347   8.800   5.570  11.823 -0.2627 -0.1652 -1.1968
  619MOL0     C85348   8.772   5.708  11.799 -0.0464  0.9532 -0.2250
  619MOL0     C85349   8.766   5.827  11.763  0.0367 -0.2479 -0.3213
  619MOL0     C85350   8.832   5.123  11.471  0.0403 -0.4412 -0.2982
  619MOL0     C85351   8.880   5.002  11.424 -0.2968  0.1665 -0.2546
  619MOL0     C85352   9.034   4.998  11.409 -0.1544 -0.6151 -0.0779
  619MOL0     H85353   8.938   4.578  11.483 -0.4880  1.0876 -0.5010
  619MOL0     H85354   9.128   4.439  11.570  1.2162  0.8330  1.6876
  619MOL0     H85355   9.334   4.290  11.604 -1.6911  2.0179 -0.8191
  619MOL0     H85356   9.352   4.456  11.672 -0.2710  1.1142 -0.6679
  619MOL0     H85357   9.590   4.444  11.648 -0.3191  0.4999 -1.1011
  619MOL0     H85358   9.532   4.300  11.737  1.4887  0.1315  0.1046
  619MOL0     H85359   9.574   4.183  11.502 -1.2468  1.8161 -1.6970
  619MOL0     H85360   9.635   4.321  11.444 -2.8919 -1.2981 -0.1373
  619MOL0     H85361   9.744   4.176  11.687  2.9629 -2.8137 -0.9593
  619MOL0     H85362   9.815   4.166  11.521 -1.3058  1.5027 -2.4065
  619MOL0     H85363   9.945   4.289  11.687 -1.1560  2.1042  0.8983
  619MOL0     H85364   9.835   4.430  11.684  0.0796  0.4167  2.3050
  619MOL0     H85365   9.891   4.353  11.426  2.4146 -2.6080 -0.1828
  619MOL0     H85366   9.904   4.511  11.504  2.2358  0.3540  1.3022
  619MOL0     H85367  10.112   4.403  11.399 -0.7506  0.6067  0.1818
  619MOL0     H85368  10.120   4.290  11.542 -1.6818  0.5675 -0.7209
  619MOL0     H85369  10.114   4.584  11.557  0.5322  0.3521  0.2464
  619MOL0     H85370  10.147   4.480  11.696 -1.3675  1.9265 -0.5276
  619MOL0     H85371  10.287   4.600  11.369  0.2357 -1.2161 -0.7839
  619MOL0     H85372  10.644   4.653  11.407 -1.6752  0.5054  3.3448
  619MOL0     H85373  10.508   4.683  11.299  0.2982  0.0838 -0.6431
  619MOL0     H85374  10.705   4.442  11.304 -1.3278 -2.1672 -0.8604
  619MOL0     H85375  10.567   4.444  11.195 -2.1297 -0.1171  3.1760
  619MOL0     H85376  10.678   4.650  11.090  1.6803 -1.0481 -3.7086
  619MOL0     H85377  10.816   4.638  11.193  0.6019 -0.9828  0.1583
  619MOL0     H85378  10.708   4.417  11.015 -0.9256 -0.4760  2.4239
  619MOL0     H85379  10.836   4.538  10.966 -0.5470 -2.3199 -1.7038
  619MOL0     H85380  10.874   4.309  10.837  1.7919  0.5253 -0.0510
  619MOL0     H85381  10.872   4.016  10.707 -0.7485  1.2194  0.8888
  619MOL0     H85382  11.049   4.062  10.696  0.4539  1.9831 -3.0303
  619MOL0     H85383  10.925   4.179  10.659  1.5778  2.4359  2.0853
  619MOL0     H85384  11.298   3.711  11.149 -1.4285  1.4303  0.2964
  619MOL0     H85385  11.521   3.788  11.190 -1.1317  1.9676  1.4440
  619MOL0     H85386  11.735   4.037  10.920  0.0515 -1.0497 -0.1248
  619MOL0     H85387  11.708   4.166  11.039  4.5453  1.8138 -1.1152
  619MOL0     H85388  11.892   3.933  11.034  0.1339  1.4194 -2.7310
  619MOL0     H85389  11.941   4.096  11.012 -0.2553 -1.8476 -1.8668
  619MOL0     H85390  12.012   3.993  11.222  0.0564  1.4656  2.0779
  619MOL0     H85391  11.839   3.962  11.264  1.7533 -3.0020  1.4531
  619MOL0     H85392  11.996   4.246  11.237  0.3958  1.1776  1.6104
  619MOL0     H85393  11.982   4.147  11.383  0.6867  1.4266  0.8352
  619MOL0     H85394  11.727   4.238  11.232 -0.9595 -1.6360  0.5128
  619MOL0     H85395  11.735   4.182  11.396 -1.8198  0.9408 -0.2066
  619MOL0     H85396  11.816   4.461  11.288 -0.4658  1.8237  2.5828
  619MOL0     H85397  11.908   4.396  11.418 -0.2564  0.6463  0.2090
  619MOL0     H85398  11.715   4.365  11.567 -0.1473 -1.5320 -0.1234
  619MOL0     H85399  11.604   4.409  11.425 -0.7670  2.6979  3.0235
  619MOL0     H85400  11.818   4.595  11.533  1.7808  0.9271 -4.0733
  619MOL0     H85401  11.651   4.586  11.582  1.7355 -2.6722  2.5092
  619MOL0     H85402  11.483   4.088  10.884 -0.6863  1.2008 -0.1575
  619MOL0     H85403  11.244   4.015  10.852  1.1995  0.0524 -0.6990
  619MOL0     H85404  11.055   3.996  11.176 -1.3744 -2.4405 -0.8324
  619MOL0     H85405  10.979   4.227  11.239 -2.4193  2.4789 -0.0886
  619MOL0     H85406   9.378   4.597  11.251 -0.6472  1.3251 -0.8382
  619MOL0     H85407   9.179   4.732  11.158  2.2970 -4.0055 -2.7002
  619MOL0     H85408   8.590   4.838  11.402  0.6436 -0.5680  1.1456
  619MOL0     H85409   8.509   5.062  11.510  0.4777  0.2233  2.4712
  619MOL0     H85410   8.498   5.315  11.686  0.8301  0.5350  0.3634
  619MOL0     H85411   8.566   5.158  11.732 -0.9399 -0.5417 -1.4961
  619MOL0     H85412   8.806   5.290  11.752 -1.0416 -2.4720 -0.4934
  619MOL0     H85413   8.709   5.309  11.891 -0.9551 -6.4467  0.2933
  619MOL0     H85414   8.711   5.496  11.649  4.4136  0.6758  0.7790
  619MOL0     H85415   8.598   5.525  11.790 -0.0669 -0.3182  0.2380
  619MOL0     H85416   8.902   5.554  11.786 -0.1660  0.1911 -1.0944
  619MOL0     H85417   8.813   5.549  11.930 -1.9842 -1.0214 -1.1265
  619MOL0     H85418   8.766   5.923  11.717 -0.5083 -0.6787 -1.2363
  619MOL0     H85419   8.886   5.217  11.471  0.2788 -0.5247 -2.2676
  619MOL0     H85420   9.044   5.001  11.300 -3.3183  1.1936 -0.4271
  619MOL0     H85421   9.081   5.083  11.459  0.9717 -0.5247 -1.2151
  619MOL0     H85422   9.065   4.903  11.453  0.4398 -0.0420  0.7598
  620MOL0     O85423   2.580   8.156  10.929 -0.2920 -0.3187 -0.7188
  620MOL0     C85424   2.540   8.271  10.943  0.6753 -0.0150  0.0353
  620MOL0     O85425   2.562   8.372  10.846 -0.2625  0.0522  0.1592
  620MOL0     C85426   2.657   8.336  10.751  0.4440 -0.3423 -0.5945
  620MOL0     C85427   2.792   8.291  10.780 -0.1299 -0.2493 -0.4590
  620MOL0     C85428   2.879   8.261  10.675  0.6215  0.7119 -0.5509
  620MOL0     C85429   2.847   8.292  10.537 -0.1717 -0.4984  0.7276
  620MOL0     O85430   2.933   8.278  10.436  0.4088  1.1586  0.5440
  620MOL0     C85431   3.050   8.190  10.440  0.6323 -0.6428 -0.1623
  620MOL0     C85432   3.082   8.157  10.292  0.6142  0.5396 -0.1959
  620MOL0     C85433   3.221   8.113  10.273 -0.9126  0.0704  1.0028
  620MOL0     C85434   3.273   7.986  10.342 -0.6335 -1.0194 -0.1982
  620MOL0     C85435   3.422   7.965  10.312  1.1408  0.1702 -0.0279
  620MOL0     C85436   3.449   7.833  10.394 -0.7509  1.1291 -0.6778
  620MOL0     C85437   3.593   7.784  10.385 -0.3204  1.0226 -0.7016
  620MOL0     C85438   3.699   7.875  10.457  0.0117 -0.0365  0.6386
  620MOL0     N85439   3.710   7.853  10.606 -0.2796 -0.2563  0.1982
  620MOL0     C85440   3.612   7.874  10.695  0.0357 -1.1353 -0.5054
  620MOL0     C85441   3.675   7.875  10.816  0.3371  0.0579 -0.2675
  620MOL0     C85442   3.601   7.860  10.944 -0.1273 -0.7728 -0.4556
  620MOL0     C85443   3.600   7.991  11.026  0.1612  0.6569  0.3305
  620MOL0     C85444   3.736   8.044  11.080  0.0207  0.5315  0.1233
  620MOL0     C85445   3.818   7.939  11.153  0.2311  0.3337 -0.3960
  620MOL0     O85446   3.935   8.009  11.197  0.0223  0.7435 -0.3892
  620MOL0     C85447   4.044   7.929  11.231  0.4909  0.1515 -0.2284
  620MOL0     C85448   4.044   7.791  11.254  0.2439 -0.0195  0.0680
  620MOL0     C85449   4.157   7.709  11.268 -0.7163  0.3972  0.4886
  620MOL0     C85450   4.127   7.560  11.268  0.2588  0.3221  1.3478
  620MOL0     C85451   4.279   7.773  11.264  0.2977  0.3054  0.4760
  620MOL0     C85452   4.410   7.698  11.271  0.0264 -0.7347  0.0096
  620MOL0     O85453   4.530   7.774  11.297 -0.1913 -0.1410  0.5227
  620MOL0     C85454   4.646   7.719  11.336 -0.6603  1.2433  0.4411
  620MOL0     C85455   4.636   7.620  11.439 -0.2344 -0.4973  0.3652
  620MOL0     C85456   4.762   7.564  11.484 -0.3332 -0.4126  0.5863
  620MOL0     C85457   4.890   7.612  11.441  0.7394 -0.7771 -0.1719
  620MOL0     O85458   5.000   7.548  11.489 -0.4542 -0.5815 -0.4995
  620MOL0     C85459   5.134   7.592  11.448  0.8711 -0.2832  0.3623
  620MOL0     C85460   5.229   7.502  11.517  0.0906 -0.2474  0.5966
  620MOL0     C85461   5.272   7.559  11.659 -0.5639  0.0598  0.5518
  620MOL0     C85462   5.411   7.517  11.696 -0.7074  0.2645  0.2096
  620MOL0     C85463   5.418   7.502  11.848 -0.3411 -0.2811  0.1712
  620MOL0     C85464   5.560   7.450  11.885 -1.1287 -0.2610 -0.0005
  620MOL0     C85465   5.556   7.427  12.041  0.6374  0.1361  0.0108
  620MOL0     C85466   5.594   7.562  12.127  0.5988 -0.3960 -0.8018
  620MOL0    Cl85467   5.451   7.652  12.182  0.1469 -0.3797  0.4333
  620MOL0     C85468   4.892   7.714  11.341 -0.6099  0.0824 -1.2122
  620MOL0     C85469   4.771   7.753  11.290 -0.2027 -0.0436  0.7277
  620MOL0     O85470   4.410   7.590  11.218 -0.0561 -0.3993 -0.5623
  620MOL0     C85471   4.282   7.913  11.256 -0.4823  0.4054  0.0344
  620MOL0     C85472   4.166   7.990  11.250 -0.0299 -0.2036  0.1024
  620MOL0     N85473   3.815   7.877  10.800 -0.2055  0.7107 -0.0713
  620MOL0     N85474   3.833   7.861  10.668  0.0297  0.0508 -0.8730
  620MOL0     C85475   2.727   8.341  10.514  0.4702  0.6148 -0.3848
  620MOL0     C85476   2.633   8.361  10.617 -0.2779  0.2458 -0.6657
  620MOL0     C85477   2.488   8.305  11.071  0.8216 -1.1148  0.4554
  620MOL0     C85478   2.485   8.443  11.096  0.1165 -0.1892 -0.0086
  620MOL0     C85479   2.444   8.478  11.226 -0.9754 -0.5745 -0.2289
  620MOL0     C85480   2.394   8.399  11.331 -0.1557  0.4118  0.0672
  620MOL0     O85481   2.362   8.444  11.456  0.4476 -0.1475 -0.2675
  620MOL0     C85482   2.406   8.585  11.491  0.1973 -0.2011  0.2914
  620MOL0     C85483   2.364   8.622  11.633  0.6750  0.3224  0.6767
  620MOL0     C85484   2.497   8.606  11.720  1.9634  0.2732 -0.3588
  620MOL0     C85485   2.500   8.698  11.834  0.6011 -0.7464 -0.0366
  620MOL0     C85486   2.470   8.620  11.957 -0.2478  0.2074 -0.2769
  620MOL0     C85487   2.456   8.558  12.059 -0.8205  0.1284 -0.6046
  620MOL0     C85488   2.383   8.260  11.301  0.4853 -0.3635 -0.5267
  620MOL0     C85489   2.431   8.217  11.173  0.3581  0.0984  1.0582
  620MOL0     C85490   2.406   8.077  11.143  1.0926  1.1617  0.1556
  620MOL0     H85491   2.827   8.269  10.881 -0.9399 -2.8671 -0.6650
  620MOL0     H85492   2.979   8.222  10.685  0.2999 -0.7669 -2.5125
  620MOL0     H85493   3.041   8.102  10.504 -2.0522  0.6069  1.3496
  620MOL0     H85494   3.133   8.253  10.473 -0.0083  0.6759 -0.9827
  620MOL0     H85495   3.022   8.068  10.269  0.9328  0.4418 -0.6853
  620MOL0     H85496   3.053   8.231  10.217  0.7633  0.2254 -0.5712
  620MOL0     H85497   3.239   8.092  10.167  0.3030 -3.3776  1.7679
  620MOL0     H85498   3.277   8.202  10.305 -3.0488  0.4174  4.2332
  620MOL0     H85499   3.240   7.986  10.446  0.0264 -0.6434  0.0139
  620MOL0     H85500   3.227   7.901  10.291 -0.1833 -0.6456 -1.2546
  620MOL0     H85501   3.470   8.054  10.354  1.9651  0.6429 -1.8551
  620MOL0     H85502   3.446   7.973  10.206  0.2659  0.1729 -0.2302
  620MOL0     H85503   3.425   7.844  10.501  0.1584 -0.5295 -0.2787
  620MOL0     H85504   3.392   7.753  10.347  1.5199 -0.2259 -1.2736
  620MOL0     H85505   3.606   7.762  10.279  1.4349 -1.7282 -0.0135
  620MOL0     H85506   3.607   7.689  10.437  5.6228  0.8410 -2.0019
  620MOL0     H85507   3.797   7.857  10.413  0.7974 -0.7022  2.5543
  620MOL0     H85508   3.670   7.977  10.429 -1.0958 -0.9486 -1.7715
  620MOL0     H85509   3.508   7.892  10.670  0.4194  0.3340 -1.1404
  620MOL0     H85510   3.636   7.774  11.002  0.8808 -0.2594 -0.2848
  620MOL0     H85511   3.494   7.840  10.930 -0.9938  1.4180  2.1009
  620MOL0     H85512   3.549   8.061  10.959  2.1283  2.6231  0.7452
  620MOL0     H85513   3.540   7.963  11.113 -1.0594 -2.1982 -1.2931
  620MOL0     H85514   3.796   8.073  10.993  1.2747  1.7008  1.3338
  620MOL0     H85515   3.705   8.132  11.138 -2.3819 -0.6878  0.8415
  620MOL0     H85516   3.757   7.901  11.236 -1.8845  1.5739 -1.3110
  620MOL0     H85517   3.831   7.866  11.073 -0.1516  1.1996 -1.2686
  620MOL0     H85518   3.946   7.745  11.263  0.2213  0.2703  1.4811
  620MOL0     H85519   4.100   7.542  11.164 -1.3026  2.7093  1.2647
  620MOL0     H85520   4.034   7.533  11.319 -1.0152  0.4394 -0.8259
  620MOL0     H85521   4.207   7.491  11.297  2.2586  1.2319 -1.6135
  620MOL0     H85522   4.545   7.571  11.470 -3.5891  2.7158 -3.2581
  620MOL0     H85523   4.771   7.487  11.560 -0.9977 -0.4480  0.6319
  620MOL0     H85524   5.153   7.560  11.345  2.4824  3.3493 -0.6011
  620MOL0     H85525   5.162   7.697  11.460  6.0139 -1.0991 -1.5450
  620MOL0     H85526   5.180   7.405  11.520  0.2625 -0.3459  0.3130
  620MOL0     H85527   5.321   7.503  11.456  0.0053  1.9849  0.4011
  620MOL0     H85528   5.200   7.503  11.719 -0.8038 -1.4329 -1.0534
  620MOL0     H85529   5.252   7.663  11.687  0.6654 -0.1008  2.1606
  620MOL0     H85530   5.473   7.597  11.655  2.5549 -1.5077  1.3327
  620MOL0     H85531   5.451   7.428  11.647  0.1892  1.1717 -0.7426
  620MOL0     H85532   5.395   7.602  11.884  0.4924  0.2273 -0.6650
  620MOL0     H85533   5.352   7.423  11.884  1.1030 -0.6036  2.3066
  620MOL0     H85534   5.641   7.520  11.861  0.2564 -0.7818  2.8008
  620MOL0     H85535   5.582   7.356  11.835 -1.9906 -0.3696 -0.1947
  620MOL0     H85536   5.625   7.354  12.083 -1.2866 -1.0157  1.3323
  620MOL0     H85537   5.456   7.392  12.068  0.9135  0.3801  1.4370
  620MOL0     H85538   5.662   7.628  12.073 -0.0093  0.4108 -0.5934
  620MOL0     H85539   5.648   7.533  12.217 -0.4136 -0.8225 -0.3133
  620MOL0     H85540   4.989   7.754  11.315  2.2130 -1.0227  5.4369
  620MOL0     H85541   4.771   7.827  11.212 -0.9225  1.2439  1.8998
  620MOL0     H85542   4.373   7.971  11.261 -0.3139  0.3471 -1.6138
  620MOL0     H85543   4.179   8.097  11.252  0.1039 -0.0575 -2.9869
  620MOL0     H85544   2.713   8.389  10.418  0.9808  0.5531 -0.4889
  620MOL0     H85545   2.544   8.415  10.588 -1.3817 -1.2931 -0.2776
  620MOL0     H85546   2.532   8.526  11.044  0.2115  0.4815  1.0997
  620MOL0     H85547   2.446   8.584  11.252 -1.3046 -1.0138  1.6705
  620MOL0     H85548   2.513   8.594  11.467 -0.2519  0.5016 -1.6607
  620MOL0     H85549   2.359   8.652  11.419  0.2201 -2.2434 -1.7540
  620MOL0     H85550   2.298   8.541  11.665  0.7887  1.1933  3.4340
  620MOL0     H85551   2.324   8.724  11.636 -4.3778 -1.2449 -1.9031
  620MOL0     H85552   2.513   8.508  11.766  3.0297  1.0957  1.1339
  620MOL0     H85553   2.581   8.646  11.663 -0.0065  0.8051 -3.0675
  620MOL0     H85554   2.424   8.776  11.825 -1.1208 -2.5337 -1.6993
  620MOL0     H85555   2.600   8.734  11.862  0.2598 -0.6735  1.1334
  620MOL0     H85556   2.436   8.494  12.143 -0.7300 -0.1916 -0.8288
  620MOL0     H85557   2.355   8.200  11.386 -0.7380 -2.2185 -2.1392
  620MOL0     H85558   2.316   8.049  11.198 -0.1017  2.6023 -0.9901
  620MOL0     H85559   2.377   8.058  11.040  1.5063 -0.2717  0.2767
  620MOL0     H85560   2.483   8.005  11.172 -0.9371 -0.1238  2.8062
  621MOL0     O85561   5.912   8.465   6.302  0.8957 -0.8272 -0.1174
  621MOL0     C85562   5.991   8.418   6.388  0.2613 -0.7130 -0.6975
  621MOL0     O85563   6.009   8.287   6.425  0.4232 -0.2665 -0.6983
  621MOL0     C85564   5.938   8.194   6.351 -0.3709 -0.5891 -0.1422
  621MOL0     C85565   5.945   8.183   6.217  0.3516 -0.3826  0.1550
  621MOL0     C85566   5.867   8.076   6.157  0.0730  0.3909  0.0310
  621MOL0     C85567   5.791   7.986   6.236  0.6307  0.5625 -0.7933
  621MOL0     O85568   5.725   7.896   6.159 -0.4144  1.0529 -0.1797
  621MOL0     C85569   5.592   7.858   6.189  0.1882 -0.1077 -0.0575
  621MOL0     C85570   5.483   7.966   6.156  0.0759  0.0918 -0.1212
  621MOL0     C85571   5.488   8.026   6.011 -0.0456  1.2929  0.6481
  621MOL0     C85572   5.420   7.930   5.915  0.4580  0.4882  0.9160
  621MOL0     C85573   5.443   7.970   5.771 -0.0267  0.1923  0.6274
  621MOL0     C85574   5.342   7.910   5.674  0.1206  0.9763 -0.0090
  621MOL0     C85575   5.371   7.966   5.533 -0.3166 -0.2801  0.6752
  621MOL0     C85576   5.266   7.937   5.429  0.4004  0.9497 -0.0942
  621MOL0     N85577   5.259   7.791   5.403 -0.0219  0.6251 -0.1080
  621MOL0     C85578   5.303   7.717   5.292 -0.1052 -0.0662 -1.6293
  621MOL0     C85579   5.236   7.593   5.303  0.4240 -0.0709 -0.4932
  621MOL0     C85580   5.243   7.478   5.207  0.7540 -0.5274  0.2694
  621MOL0     C85581   5.378   7.399   5.235  0.6302 -0.3752 -0.1356
  621MOL0     C85582   5.378   7.261   5.309  0.4902  0.3025 -0.8566
  621MOL0     C85583   5.288   7.263   5.444 -0.1241 -0.0726  0.2570
  621MOL0     O85584   5.328   7.161   5.536 -0.3265 -0.2137 -0.3091
  621MOL0     C85585   5.237   7.056   5.569 -0.8038 -0.1420  0.5440
  621MOL0     C85586   5.133   6.995   5.499 -0.2213 -1.2860 -0.2696
  621MOL0     C85587   5.053   6.890   5.542 -0.4850  1.0373  0.3734
  621MOL0     C85588   4.943   6.841   5.446 -0.3023  0.7422 -0.0338
  621MOL0     C85589   5.082   6.833   5.669 -0.0783 -0.7693  0.8921
  621MOL0     C85590   5.012   6.723   5.730  0.3449 -0.2444  0.0307
  621MOL0     O85591   4.928   6.646   5.652 -0.1626 -0.4881 -0.0107
  621MOL0     C85592   4.870   6.533   5.701  0.6117 -0.0347  0.1465
  621MOL0     C85593   4.935   6.421   5.769 -0.7848 -0.5385 -0.1811
  621MOL0     C85594   4.872   6.299   5.786  0.1036 -0.1021 -0.1478
  621MOL0     C85595   4.747   6.280   5.748  0.2418 -0.0748 -0.3301
  621MOL0     O85596   4.700   6.158   5.779 -0.1694 -0.0264  0.1698
  621MOL0     C85597   4.570   6.133   5.720  0.3057 -0.0019 -0.4240
  621MOL0     C85598   4.532   5.995   5.764 -0.3676  0.3894  0.5241
  621MOL0     C85599   4.646   5.893   5.737 -0.1992  0.9830  0.1640
  621MOL0     C85600   4.676   5.876   5.587 -0.6914  0.0201  0.5885
  621MOL0     C85601   4.759   5.758   5.569  0.0044 -0.7656  0.1020
  621MOL0     C85602   4.779   5.737   5.416  0.3466  0.0179  0.3555
  621MOL0     C85603   4.864   5.605   5.399  0.4850 -0.0159 -0.0387
  621MOL0     C85604   4.786   5.481   5.426 -0.4168 -0.9892 -0.3548
  621MOL0    Cl85605   4.835   5.367   5.322 -0.3704 -0.1412 -0.0276
  621MOL0     C85606   4.680   6.389   5.688  0.0901 -0.8524  0.1376
  621MOL0     C85607   4.739   6.511   5.657 -0.2146  0.4452 -0.0919
  621MOL0     O85608   5.032   6.699   5.851 -0.5681  0.6191  0.3290
  621MOL0     C85609   5.186   6.893   5.737 -0.9927 -0.1698 -0.2864
  621MOL0     C85610   5.264   7.000   5.696 -0.8262 -0.1373  0.8020
  621MOL0     N85611   5.152   7.594   5.420 -0.7295  0.1573  0.2170
  621MOL0     N85612   5.174   7.707   5.473  0.1060  0.3953  0.5991
  621MOL0     C85613   5.775   8.009   6.381  0.2394 -1.0167  0.9929
  621MOL0     C85614   5.851   8.118   6.429  0.1504 -0.6704  0.5090
  621MOL0     C85615   6.076   8.526   6.446  0.7219  0.4350  0.4024
  621MOL0     C85616   6.120   8.625   6.355  1.2954 -0.1539 -0.4133
  621MOL0     C85617   6.228   8.706   6.389  0.3395  0.2145  0.5295
  621MOL0     C85618   6.282   8.707   6.519  0.0673 -0.0637  0.9138
  621MOL0     O85619   6.373   8.807   6.537 -0.4901 -0.2578 -0.7404
  621MOL0     C85620   6.430   8.824   6.665  0.3592 -0.1379  0.3310
  621MOL0     C85621   6.510   8.957   6.686 -0.1031 -0.3676 -0.5641
  621MOL0     C85622   6.514   8.992   6.829  0.3365  0.2921  0.0738
  621MOL0     C85623   6.561   9.140   6.836 -0.1928  0.3468 -1.2049
  621MOL0     C85624   6.565   9.163   6.984  0.0075 -0.5780 -0.0531
  621MOL0     C85625   6.577   9.195   7.099  1.0217  0.8607 -0.4877
  621MOL0     C85626   6.224   8.621   6.616  0.0351 -0.7886 -0.4806
  621MOL0     C85627   6.129   8.521   6.583  0.6043 -0.1704 -0.8247
  621MOL0     C85628   6.095   8.417   6.684  0.5649 -0.1434  0.1839
  621MOL0     H85629   6.010   8.253   6.165 -1.0294 -1.1367 -2.7863
  621MOL0     H85630   5.870   8.053   6.051  3.7703 -0.5114  0.2138
  621MOL0     H85631   5.601   7.823   6.292  0.5732 -1.4150 -0.5022
  621MOL0     H85632   5.568   7.766   6.134  1.6743  1.8794 -4.5210
  621MOL0     H85633   5.388   7.912   6.169  0.2700 -1.1243 -3.0821
  621MOL0     H85634   5.499   8.049   6.225  3.3635  0.1434 -0.8106
  621MOL0     H85635   5.455   8.130   6.015  1.3072  1.7169  2.3593
  621MOL0     H85636   5.591   8.047   5.982 -0.1613  3.4828  1.6753
  621MOL0     H85637   5.461   7.829   5.923  2.8209  1.1291 -1.4624
  621MOL0     H85638   5.316   7.931   5.949 -0.1381 -1.3072 -0.6860
  621MOL0     H85639   5.541   7.936   5.736 -1.8696 -3.1471 -1.8946
  621MOL0     H85640   5.441   8.079   5.763 -2.2501  0.0879 -1.0084
  621MOL0     H85641   5.356   7.802   5.679 -0.4811  0.8624 -0.5364
  621MOL0     H85642   5.243   7.940   5.709 -1.0890 -2.0822 -0.5099
  621MOL0     H85643   5.467   7.925   5.499  0.0219 -1.2152  2.6281
  621MOL0     H85644   5.382   8.074   5.532 -4.1838  0.3391 -2.7829
  621MOL0     H85645   5.180   7.973   5.485  1.5399  2.7935  0.5621
  621MOL0     H85646   5.277   7.989   5.333 -1.2629  0.5118 -0.5495
  621MOL0     H85647   5.377   7.753   5.221  0.2048  1.5046 -0.5482
  621MOL0     H85648   5.251   7.527   5.110  0.3950 -2.1835 -0.6423
  621MOL0     H85649   5.157   7.410   5.206 -2.2551  2.9992 -0.5335
  621MOL0     H85650   5.422   7.377   5.137  0.2194  2.7615 -1.1391
  621MOL0     H85651   5.441   7.467   5.293 -2.6132  2.2387  0.6466
  621MOL0     H85652   5.358   7.174   5.246  2.4829 -1.5261  0.8794
  621MOL0     H85653   5.479   7.244   5.346  0.3876  0.7406 -0.3712
  621MOL0     H85654   5.304   7.352   5.507 -0.7629 -0.9745  1.7374
  621MOL0     H85655   5.187   7.244   5.409  1.0807 -2.7393 -2.2233
  621MOL0     H85656   5.111   7.045   5.406  1.5521  0.2733  0.0723
  621MOL0     H85657   4.957   6.735   5.423 -1.1057  0.9681 -1.7664
  621MOL0     H85658   4.946   6.900   5.354  0.9913  2.0303  0.8126
  621MOL0     H85659   4.843   6.851   5.489  0.1458  0.5560  1.0853
  621MOL0     H85660   5.036   6.437   5.805 -0.7813 -2.5391  0.8534
  621MOL0     H85661   4.922   6.212   5.828  0.2100  1.5052  3.3369
  621MOL0     H85662   4.499   6.207   5.758  1.3396  0.0483  1.5669
  621MOL0     H85663   4.558   6.155   5.614 -1.6810  0.1955 -0.1915
  621MOL0     H85664   4.507   6.010   5.870  2.4303 -1.1489  1.5235
  621MOL0     H85665   4.447   5.954   5.709  1.3910  1.1370 -3.0524
  621MOL0     H85666   4.618   5.796   5.779 -1.1669  1.4431  0.6122
  621MOL0     H85667   4.738   5.921   5.790 -0.3844  2.6786 -0.3346
  621MOL0     H85668   4.741   5.951   5.540 -0.4267  0.5987  1.8392
  621MOL0     H85669   4.585   5.860   5.529  0.3286 -0.1662 -1.0435
  621MOL0     H85670   4.851   5.790   5.620 -0.3475  0.4432  0.0088
  621MOL0     H85671   4.717   5.667   5.614 -0.6026 -0.1781  0.7338
  621MOL0     H85672   4.821   5.822   5.362  0.4056 -0.3501 -0.1838
  621MOL0     H85673   4.686   5.711   5.363  1.4429 -0.1086 -1.5802
  621MOL0     H85674   4.956   5.620   5.456  0.4505  4.1706 -0.7802
  621MOL0     H85675   4.903   5.598   5.297 -0.3224  2.7515 -0.6347
  621MOL0     H85676   4.681   5.503   5.407 -0.4064 -1.2702 -0.7453
  621MOL0     H85677   4.806   5.449   5.529 -0.4478  1.4691  0.4994
  621MOL0     H85678   4.580   6.377   5.648 -0.1125 -1.9332  0.9125
  621MOL0     H85679   4.688   6.580   5.590 -0.5588 -1.4746 -1.8878
  621MOL0     H85680   5.207   6.844   5.831  1.0640 -0.7627 -0.9996
  621MOL0     H85681   5.351   7.039   5.747 -1.9088  0.3374  2.3646
  621MOL0     H85682   5.704   7.949   6.437  1.1673 -0.0827  3.3125
  621MOL0     H85683   5.830   8.151   6.530 -2.6923  0.7892 -0.4668
  621MOL0     H85684   6.069   8.636   6.260 -2.9213 -1.8705  1.3656
  621MOL0     H85685   6.269   8.777   6.318  1.9881 -0.5389  0.6817
  621MOL0     H85686   6.341   8.825   6.729  0.9461  1.0388  1.1598
  621MOL0     H85687   6.488   8.733   6.684 -2.1542 -1.9954 -0.3870
  621MOL0     H85688   6.464   9.041   6.633  2.2164  2.2341  1.2517
  621MOL0     H85689   6.611   8.942   6.646 -0.7437 -2.0666 -1.6436
  621MOL0     H85690   6.411   8.987   6.865 -0.9552  1.3804 -3.0854
  621MOL0     H85691   6.584   8.923   6.876 -0.3744 -0.0532  0.6358
  621MOL0     H85692   6.493   9.214   6.791 -1.8139  1.1135  2.1632
  621MOL0     H85693   6.660   9.143   6.789 -0.5221  0.6087 -1.8980
  621MOL0     H85694   6.590   9.222   7.202 -1.5754  2.3743 -0.4665
  621MOL0     H85695   6.263   8.622   6.717 -0.2048 -0.6560 -0.3888
  621MOL0     H85696   5.992   8.379   6.681  0.7701 -0.8175  1.3771
  621MOL0     H85697   6.167   8.337   6.665  1.3939  0.4125  0.9140
  621MOL0     H85698   6.118   8.457   6.783  0.3936 -1.1318  0.6399
  622MOL0     O85699   4.227   3.248   8.490  0.0340  0.3479 -0.1139
  622MOL0     C85700   4.312   3.340   8.503 -0.1276  0.6173 -0.6740
  622MOL0     O85701   4.315   3.420   8.607 -0.3242 -0.6721 -0.1949
  622MOL0     C85702   4.250   3.376   8.716  0.7033  0.2896  0.6778
  622MOL0     C85703   4.123   3.432   8.761  0.7926  0.5261 -0.1033
  622MOL0     C85704   4.049   3.364   8.864 -0.5418  0.4234  0.6516
  622MOL0     C85705   4.109   3.257   8.937  0.0985 -0.3440 -0.1886
  622MOL0     O85706   4.059   3.209   9.052  0.5445  0.1148 -0.5659
  622MOL0     C85707   3.952   3.274   9.134  0.3644  0.5797  0.7682
  622MOL0     C85708   3.914   3.204   9.262 -0.2950 -0.4376 -0.9005
  622MOL0     C85709   4.036   3.186   9.353 -0.4492  0.1827  0.1019
  622MOL0     C85710   3.994   3.096   9.474 -0.5885  0.1330 -0.4360
  622MOL0     C85711   4.101   3.065   9.577  0.6416  0.4496  0.9712
  622MOL0     C85712   4.043   3.001   9.708 -0.5710 -1.1361 -0.4908
  622MOL0     C85713   3.998   2.857   9.670 -0.5538 -0.5651  0.2887
  622MOL0     C85714   3.905   2.814   9.779 -0.9568 -0.3744 -0.2069
  622MOL0     N85715   3.864   2.677   9.768  0.5126  0.3565  0.0569
  622MOL0     C85716   3.934   2.567   9.808  1.2591  1.3574 -0.4754
  622MOL0     C85717   3.861   2.461   9.751 -0.8959 -1.0598 -0.5172
  622MOL0     C85718   3.871   2.316   9.757  0.4840 -0.5930  0.4907
  622MOL0     C85719   3.798   2.262   9.880  0.3747 -0.5791 -0.5276
  622MOL0     C85720   3.748   2.124   9.867 -0.3633 -0.3289  0.3208
  622MOL0     C85721   3.836   2.024   9.942 -0.8849  0.1829  0.2144
  622MOL0     O85722   3.976   2.030   9.904 -0.1572 -0.2697 -0.3771
  622MOL0     C85723   4.062   1.939   9.963 -0.7423 -0.0730 -0.2588
  622MOL0     C85724   4.016   1.853  10.072 -0.5877 -1.0562  0.0128
  622MOL0     C85725   4.112   1.773  10.138 -0.2049  0.5720 -0.0388
  622MOL0     C85726   4.070   1.697  10.257  0.1962 -0.0824  0.0113
  622MOL0     C85727   4.247   1.774  10.081  0.6777 -0.1287  0.2275
  622MOL0     C85728   4.361   1.721  10.161  0.0372  0.6263 -0.0196
  622MOL0     O85729   4.352   1.588  10.196 -0.0464  0.0694 -1.0050
  622MOL0     C85730   4.429   1.544  10.308  0.0522 -0.7791  0.9751
  622MOL0     C85731   4.474   1.633  10.412  0.1400 -0.0734  0.2068
  622MOL0     C85732   4.570   1.593  10.497  0.2057 -0.5134 -0.7751
  622MOL0     C85733   4.629   1.467  10.503 -0.0987 -0.4440 -0.4586
  622MOL0     O85734   4.719   1.440  10.602 -0.7049  0.4957  0.7258
  622MOL0     C85735   4.784   1.311  10.613 -0.2051 -0.0462  0.7326
  622MOL0     C85736   4.899   1.328  10.711  0.2300 -0.6105 -0.4059
  622MOL0     C85737   4.835   1.311  10.853 -0.0583  0.2139  0.6900
  622MOL0     C85738   4.918   1.403  10.956 -0.2661  0.9060  0.5542
  622MOL0     C85739   4.900   1.345  11.103  1.3936  0.0403  0.7496
  622MOL0     C85740   4.978   1.423  11.205 -0.8926 -0.2288  0.3123
  622MOL0     C85741   4.912   1.427  11.338  0.0036 -0.1420 -0.7248
  622MOL0     C85742   5.004   1.477  11.451  1.2383  0.3521  0.2221
  622MOL0    Cl85743   5.105   1.335  11.487 -0.0580  0.0828 -0.2361
  622MOL0     C85744   4.562   1.376  10.422  0.6906 -0.0834 -0.8023
  622MOL0     C85745   4.462   1.414  10.325 -1.3535  0.1231 -0.1617
  622MOL0     O85746   4.459   1.792  10.175 -0.6178  0.0493 -0.1125
  622MOL0     C85747   4.283   1.843   9.963  0.5328 -0.4578 -0.2061
  622MOL0     C85748   4.189   1.929   9.913  0.5197  0.5607  0.4626
  622MOL0     N85749   3.756   2.515   9.683 -0.6089  0.0003 -0.3815
  622MOL0     N85750   3.757   2.645   9.690  0.8150  0.5166 -1.0800
  622MOL0     C85751   4.234   3.210   8.891 -0.0398  0.1699 -0.8439
  622MOL0     C85752   4.306   3.277   8.787  0.3615  0.6425  0.4523
  622MOL0     C85753   4.401   3.360   8.388 -0.1233  0.5237 -0.2220
  622MOL0     C85754   4.367   3.304   8.266  0.2410 -0.2055 -0.3776
  622MOL0     C85755   4.423   3.337   8.152 -0.5657  0.5747 -0.0017
  622MOL0     C85756   4.546   3.407   8.147  0.0547 -0.6131  0.7345
  622MOL0     O85757   4.616   3.442   8.033 -0.2351 -0.0931 -0.4752
  622MOL0     C85758   4.537   3.468   7.919 -0.1313 -0.8758 -0.0795
  622MOL0     C85759   4.628   3.510   7.800 -0.1554  0.9556  0.6986
  622MOL0     C85760   4.710   3.387   7.744  0.0685  0.1625 -1.5774
  622MOL0     C85761   4.859   3.413   7.717  0.5047 -0.6984  0.3173
  622MOL0     C85762   4.886   3.494   7.599  0.5220 -0.1463 -0.8634
  622MOL0     C85763   4.920   3.546   7.501 -0.5689 -0.9588 -0.4505
  622MOL0     C85764   4.599   3.455   8.271 -0.0037 -0.0600 -0.5875
  622MOL0     C85765   4.526   3.436   8.392  0.6855 -0.2163  0.0697
  622MOL0     C85766   4.589   3.499   8.509  0.4408  0.3008  0.6188
  622MOL0     H85767   4.088   3.516   8.703  0.8600  0.4293 -0.2868
  622MOL0     H85768   3.965   3.423   8.901 -1.5103  0.7034 -1.8058
  622MOL0     H85769   3.862   3.268   9.073  2.6687 -1.6157 -2.7636
  622MOL0     H85770   3.972   3.378   9.162 -1.6129  1.0389  0.6053
  622MOL0     H85771   3.838   3.276   9.294 -0.5198 -0.3764 -1.5543
  622MOL0     H85772   3.862   3.111   9.236 -0.4023 -0.2113 -1.5129
  622MOL0     H85773   4.118   3.137   9.300 -1.4857 -0.8882 -0.5444
  622MOL0     H85774   4.071   3.277   9.403 -1.2257 -0.4752  1.9456
  622MOL0     H85775   3.923   3.150   9.538  1.1022  0.8036  0.9621
  622MOL0     H85776   3.941   3.007   9.440 -3.0450  1.2581  0.1968
  622MOL0     H85777   4.146   3.162   9.601  2.6313  0.2274 -1.4515
  622MOL0     H85778   4.179   3.007   9.525  0.3737  2.6749 -2.2367
  622MOL0     H85779   4.117   2.994   9.789 -1.0784  0.4229  0.1593
  622MOL0     H85780   3.963   3.068   9.740  1.2522  1.1454 -0.4079
  622MOL0     H85781   4.091   2.802   9.660  0.5760  1.4871 -1.2233
  622MOL0     H85782   3.936   2.858   9.580  0.5155  1.5154 -0.5025
  622MOL0     H85783   3.949   2.830   9.878 -0.7056 -6.0264  0.9215
  622MOL0     H85784   3.822   2.886   9.776  0.5082  1.5827  2.0598
  622MOL0     H85785   4.019   2.562   9.876  1.9701 -1.4811 -1.4525
  622MOL0     H85786   3.975   2.288   9.735 -0.1406 -1.1324 -2.0994
  622MOL0     H85787   3.818   2.272   9.672  2.2740  1.2492 -1.7535
  622MOL0     H85788   3.856   2.274   9.972 -2.4435  0.3650  1.2262
  622MOL0     H85789   3.713   2.329   9.893 -0.1288 -1.2975 -0.0283
  622MOL0     H85790   3.646   2.129   9.907 -0.7051  0.7294 -0.6441
  622MOL0     H85791   3.747   2.094   9.762  0.8706  3.5956 -0.9781
  622MOL0     H85792   3.822   2.050  10.047 -1.5966  0.7037 -0.0011
  622MOL0     H85793   3.810   1.922   9.913  2.1142 -0.2604 -1.2900
  622MOL0     H85794   3.915   1.856  10.111 -0.9033  2.8498 -0.7477
  622MOL0     H85795   4.138   1.715  10.341  1.2847 -0.6157 -0.7363
  622MOL0     H85796   4.067   1.589  10.242 -1.2498 -0.6634  3.4371
  622MOL0     H85797   3.974   1.724  10.302  0.3334  0.6812 -0.1389
  622MOL0     H85798   4.429   1.731  10.410 -1.6164 -0.8438 -0.0904
  622MOL0     H85799   4.604   1.657  10.577  0.8716  0.1124 -1.5373
  622MOL0     H85800   4.718   1.232  10.651 -2.7921  0.5582 -2.1001
  622MOL0     H85801   4.814   1.275  10.514 -0.4636  1.1018  0.2219
  622MOL0     H85802   4.979   1.254  10.699 -0.4306 -2.2812  3.7344
  622MOL0     H85803   4.947   1.426  10.709 -0.7914 -0.0423  0.9126
  622MOL0     H85804   4.836   1.202  10.864 -1.6459 -0.2791 -2.7215
  622MOL0     H85805   4.730   1.344  10.848 -0.2984 -0.5305  0.7410
  622MOL0     H85806   4.897   1.507  10.933 -0.0282  0.9412  0.4903
  622MOL0     H85807   5.027   1.389  10.946 -0.5889 -1.1612 -0.7465
  622MOL0     H85808   4.794   1.340  11.130  0.5705  1.7541 -1.7779
  622MOL0     H85809   4.941   1.244  11.117  1.8422  0.0466 -0.4296
  622MOL0     H85810   4.988   1.524  11.165  3.5134 -1.2729 -1.7442
  622MOL0     H85811   5.075   1.374  11.200 -0.4723  0.6688 -0.8707
  622MOL0     H85812   4.871   1.327  11.358 -0.8014  0.7710  2.8894
  622MOL0     H85813   4.828   1.496  11.326 -1.7063 -2.3208 -2.0556
  622MOL0     H85814   4.950   1.510  11.540 -1.1812 -0.6491 -0.7954
  622MOL0     H85815   5.068   1.561  11.423  0.8040  0.7150  0.3046
  622MOL0     H85816   4.579   1.270  10.437 -1.3010 -0.3142  0.2104
  622MOL0     H85817   4.410   1.347  10.257 -1.5203  2.8568 -2.9054
  622MOL0     H85818   4.387   1.844   9.932  0.7801 -2.0281  0.5165
  622MOL0     H85819   4.215   1.991   9.828 -1.8259 -1.7200 -2.1263
  622MOL0     H85820   4.280   3.123   8.937 -0.7642  1.8379  3.4162
  622MOL0     H85821   4.401   3.232   8.757 -0.0306  1.2757 -1.9846
  622MOL0     H85822   4.279   3.242   8.252  0.0144  0.1440 -0.5406
  622MOL0     H85823   4.376   3.295   8.064 -2.1162 -0.0642  1.0900
  622MOL0     H85824   4.468   3.389   7.890  0.5780 -0.6304 -2.6886
  622MOL0     H85825   4.477   3.557   7.940  2.4422  0.9573 -0.0407
  622MOL0     H85826   4.698   3.591   7.822 -1.2142  1.9766  0.3374
  622MOL0     H85827   4.577   3.550   7.713  2.7212 -1.0762 -2.1488
  622MOL0     H85828   4.693   3.303   7.812 -0.4621  0.8882 -0.7916
  622MOL0     H85829   4.663   3.350   7.653 -2.0917  2.5021 -1.5233
  622MOL0     H85830   4.898   3.312   7.703  1.3789  0.0731 -4.6602
  622MOL0     H85831   4.916   3.441   7.806  1.1730  1.2760 -0.6604
  622MOL0     H85832   4.960   3.593   7.413 -1.2579  0.5264 -0.0194
  622MOL0     H85833   4.686   3.519   8.258  0.3888 -0.0149  1.8483
  622MOL0     H85834   4.659   3.574   8.472 -1.8765  1.5960 -1.4088
  622MOL0     H85835   4.512   3.559   8.558  0.1750  0.0242  0.5397
  622MOL0     H85836   4.637   3.430   8.579  0.3033 -0.8398 -0.3840
  623MOL0     O85837   0.723   5.777   9.094 -0.3404 -0.0780 -0.0720
  623MOL0     C85838   0.714   5.652   9.097  0.0300 -0.9996 -0.0870
  623MOL0     O85839   0.813   5.576   9.074 -0.1140  0.3924 -0.3966
  623MOL0     C85840   0.921   5.623   8.993  0.1564 -0.7368  0.4489
  623MOL0     C85841   0.904   5.682   8.865  0.3010 -0.1589 -0.3409
  623MOL0     C85842   1.009   5.711   8.791  0.8567  0.0664  0.5720
  623MOL0     C85843   1.143   5.704   8.833  0.2792 -0.0606 -0.6610
  623MOL0     O85844   1.235   5.761   8.753 -0.0109  1.5409 -0.5690
  623MOL0     C85845   1.369   5.723   8.748 -0.2600 -0.4396 -0.5037
  623MOL0     C85846   1.457   5.832   8.816  0.2917  0.8148 -0.2467
  623MOL0     C85847   1.587   5.833   8.741  0.2323  0.6153 -0.0854
  623MOL0     C85848   1.654   5.971   8.757  0.2252  0.2986  0.2400
  623MOL0     C85849   1.806   5.965   8.720 -0.7064 -0.6848  0.1005
  623MOL0     C85850   1.858   6.092   8.655  0.0898 -0.7496 -0.4004
  623MOL0     C85851   2.011   6.111   8.649 -0.1832 -0.6938  0.7024
  623MOL0     C85852   2.083   6.048   8.527 -0.8909  0.2653 -0.0848
  623MOL0     N85853   2.084   6.114   8.400 -0.7630  0.8487 -0.5590
  623MOL0     C85854   1.995   6.201   8.346  0.2890  1.0842  0.1596
  623MOL0     C85855   2.047   6.217   8.224 -1.3598 -0.5019 -0.0666
  623MOL0     C85856   2.001   6.302   8.109  0.0748 -0.7529  1.3843
  623MOL0     C85857   2.063   6.443   8.109  1.3954 -0.1460  0.5115
  623MOL0     C85858   2.225   6.457   8.080  0.4102 -0.3483  0.1132
  623MOL0     C85859   2.269   6.372   7.952  0.4291 -0.3696 -0.6929
  623MOL0     O85860   2.212   6.424   7.831  0.3114 -0.7269  0.2037
  623MOL0     C85861   2.300   6.479   7.741  0.5417  0.8428  0.5169
  623MOL0     C85862   2.416   6.410   7.701  0.3055 -0.0967 -0.5753
  623MOL0     C85863   2.509   6.462   7.614 -0.4678 -0.5551  0.1055
  623MOL0     C85864   2.626   6.372   7.578  0.1639 -0.3324  0.1115
  623MOL0     C85865   2.467   6.581   7.555 -0.5040 -0.1933 -0.8042
  623MOL0     C85866   2.558   6.646   7.447  0.4169  1.2896 -0.4610
  623MOL0     O85867   2.534   6.780   7.429  0.2201  0.0656 -0.5597
  623MOL0     C85868   2.623   6.844   7.362 -0.1751 -0.1226 -0.3922
  623MOL0     C85869   2.637   6.832   7.222  1.0017 -0.6453  0.0558
  623MOL0     C85870   2.733   6.895   7.145  0.0175 -0.2936  0.5566
  623MOL0     C85871   2.838   6.961   7.209 -0.4969  0.3688 -0.4588
  623MOL0     O85872   2.934   7.007   7.125 -0.1009  1.0797 -0.5678
  623MOL0     C85873   3.046   7.056   7.196 -0.4530 -1.0923  0.5566
  623MOL0     C85874   3.117   7.148   7.096 -0.1695 -0.1447  0.0293
  623MOL0     C85875   3.100   7.296   7.121 -0.2705 -0.6724  0.0327
  623MOL0     C85876   2.953   7.346   7.157  0.2232 -0.6570 -0.5358
  623MOL0     C85877   2.935   7.489   7.121  0.3512  0.3526  0.6483
  623MOL0     C85878   2.783   7.513   7.122  0.4193 -0.9898  0.1594
  623MOL0     C85879   2.736   7.633   7.036  0.3855 -0.4267  0.0341
  623MOL0     C85880   2.587   7.622   7.008  0.4342 -0.1356  0.0434
  623MOL0    Cl85881   2.469   7.614   7.144 -0.1400 -0.0254  0.2101
  623MOL0     C85882   2.827   6.963   7.353  0.8397 -0.0857  0.3106
  623MOL0     C85883   2.720   6.912   7.424 -0.0156 -1.3087 -1.2093
  623MOL0     O85884   2.654   6.584   7.402 -0.0757  0.4311 -0.1610
  623MOL0     C85885   2.339   6.645   7.584  0.3067  0.7794 -0.2680
  623MOL0     C85886   2.259   6.596   7.681  0.7996  0.4674 -0.3880
  623MOL0     N85887   2.176   6.177   8.217 -0.3001 -0.6819  0.0879
  623MOL0     N85888   2.197   6.101   8.321 -0.4854 -0.5844  0.1155
  623MOL0     C85889   1.163   5.628   8.950  0.2034  0.0797  0.2097
  623MOL0     C85890   1.059   5.605   9.033  0.7030 -0.8253 -0.7833
  623MOL0     C85891   0.580   5.586   9.122 -0.7231 -0.1560 -1.1974
  623MOL0     C85892   0.578   5.461   9.183  0.6441 -0.4938 -1.3032
  623MOL0     C85893   0.452   5.391   9.208 -0.8093  0.2469  0.9140
  623MOL0     C85894   0.333   5.447   9.172  0.2133  0.2521 -0.2584
  623MOL0     O85895   0.213   5.388   9.217  0.7437 -0.8599  0.0347
  623MOL0     C85896   0.176   5.450   9.343 -0.5492  0.4716 -0.0173
  623MOL0     C85897   0.088   5.362   9.428 -0.5705 -1.1597  0.1081
  623MOL0     C85898   0.165   5.290   9.535 -0.3368  0.1994 -0.2212
  623MOL0     C85899   0.080   5.196   9.627  0.3301 -0.6131  0.2716
  623MOL0     C85900  -0.023   5.267   9.705  0.8101 -0.5891 -0.0350
  623MOL0     C85901  -0.097   5.314   9.788 -1.3525 -0.6841 -0.4398
  623MOL0     C85902   0.337   5.580   9.124 -0.8869  0.2190 -1.2062
  623MOL0     C85903   0.456   5.651   9.099 -0.7022  0.6133 -0.1328
  623MOL0     C85904   0.455   5.795   9.061  0.8625 -0.1268 -1.5751
  623MOL0     H85905   0.801   5.702   8.837 -0.3015 -0.6666  1.3406
  623MOL0     H85906   1.002   5.780   8.707  4.0352 -0.3597 -0.1802
  623MOL0     H85907   1.391   5.723   8.641 -3.1082  2.5753 -1.2526
  623MOL0     H85908   1.386   5.623   8.787 -2.5837 -2.6730 -4.6049
  623MOL0     H85909   1.400   5.925   8.823 -0.8333 -0.0014  2.9586
  623MOL0     H85910   1.465   5.803   8.921 -0.0105  0.8770 -0.2051
  623MOL0     H85911   1.657   5.756   8.774 -1.0435  0.1827  1.8201
  623MOL0     H85912   1.586   5.811   8.634 -2.3314 -2.9309  0.4879
  623MOL0     H85913   1.611   6.041   8.684 -0.7840  1.8578  2.2372
  623MOL0     H85914   1.648   6.021   8.854 -1.1775 -0.3502  0.5123
  623MOL0     H85915   1.829   5.876   8.662 -0.1092 -1.0285  0.8550
  623MOL0     H85916   1.850   5.958   8.819 -2.5682  0.2571  1.0665
  623MOL0     H85917   1.821   6.100   8.552 -2.1897  2.6642  0.5122
  623MOL0     H85918   1.806   6.172   8.709 -0.0896  0.3553 -2.1173
  623MOL0     H85919   2.057   6.075   8.742  2.0555  1.9863  0.7777
  623MOL0     H85920   2.028   6.218   8.634  0.0991 -0.3985  2.8535
  623MOL0     H85921   2.187   6.058   8.562 -1.1918  0.2912  0.8197
  623MOL0     H85922   2.060   5.942   8.515  3.8392 -1.0468  0.0771
  623MOL0     H85923   1.902   6.235   8.391 -0.0427  1.0434 -0.4843
  623MOL0     H85924   1.893   6.315   8.123 -0.0350 -1.0654  0.8536
  623MOL0     H85925   2.019   6.261   8.010  1.1752 -1.2635  1.7832
  623MOL0     H85926   2.006   6.495   8.032 -0.6945 -3.1723 -0.2036
  623MOL0     H85927   2.040   6.508   8.193  0.3329 -0.1984  0.2735
  623MOL0     H85928   2.243   6.562   8.058  0.1021 -0.6466 -1.7410
  623MOL0     H85929   2.279   6.427   8.171  1.7272 -1.5503 -1.0259
  623MOL0     H85930   2.378   6.382   7.956  0.2890  1.2081 -0.2225
  623MOL0     H85931   2.238   6.269   7.973  1.7389 -0.6934 -0.2854
  623MOL0     H85932   2.412   6.311   7.745 -4.1267 -0.0226 -0.4192
  623MOL0     H85933   2.621   6.282   7.641  3.4416 -0.8664 -0.2431
  623MOL0     H85934   2.719   6.417   7.613 -1.0200  3.3044 -1.0108
  623MOL0     H85935   2.629   6.345   7.472 -1.2541 -1.2668  0.2719
  623MOL0     H85936   2.566   6.761   7.180  0.4921  0.3221 -0.7709
  623MOL0     H85937   2.713   6.902   7.038 -3.2620  2.8865  1.1773
  623MOL0     H85938   3.031   7.103   7.293  0.2881 -1.1219  0.6865
  623MOL0     H85939   3.105   6.965   7.205  0.0316 -0.8560 -0.0936
  623MOL0     H85940   3.223   7.135   7.120 -0.7914 -2.9238  1.7171
  623MOL0     H85941   3.103   7.122   6.991 -1.9524  1.8573 -0.2987
  623MOL0     H85942   3.132   7.347   7.029  0.8809  2.5814  2.0413
  623MOL0     H85943   3.175   7.334   7.192  1.7344 -1.4020 -1.5815
  623MOL0     H85944   2.920   7.336   7.261  1.8075 -1.4392 -0.0714
  623MOL0     H85945   2.880   7.284   7.104 -3.6500  1.9348  1.2665
  623MOL0     H85946   2.986   7.548   7.197  1.0858 -0.2224  0.6129
  623MOL0     H85947   2.963   7.505   7.016 -0.8715 -1.0864  0.0675
  623MOL0     H85948   2.746   7.530   7.223  2.7579 -0.5302  0.9916
  623MOL0     H85949   2.716   7.432   7.091 -2.9537  2.2662 -1.9321
  623MOL0     H85950   2.778   7.633   6.935 -1.2216  1.6101 -0.7190
  623MOL0     H85951   2.755   7.730   7.084  1.2068 -0.4800 -0.1732
  623MOL0     H85952   2.572   7.520   6.974 -2.7191 -0.2680  1.5039
  623MOL0     H85953   2.557   7.687   6.925  0.2203 -2.0864 -1.4749
  623MOL0     H85954   2.905   6.992   7.421  0.8772 -2.3461  1.3269
  623MOL0     H85955   2.736   6.920   7.531  3.2822  6.3002 -1.6041
  623MOL0     H85956   2.311   6.739   7.539 -0.2367  1.8575  2.1873
  623MOL0     H85957   2.161   6.632   7.711  0.4264  0.8210 -1.9886
  623MOL0     H85958   1.256   5.603   9.001 -0.5031  1.3703  2.2533
  623MOL0     H85959   1.086   5.582   9.136  0.1055  4.4865  0.8964
  623MOL0     H85960   0.669   5.415   9.222  1.1651  0.9961 -0.6481
  623MOL0     H85961   0.455   5.289   9.243 -2.4117  0.3884  1.5411
  623MOL0     H85962   0.270   5.477   9.392 -0.1418  1.7960 -1.4772
  623MOL0     H85963   0.131   5.546   9.317  2.2881  1.4583 -1.7150
  623MOL0     H85964   0.042   5.284   9.367  1.0062 -1.3755 -0.8695
  623MOL0     H85965   0.021   5.429   9.483  1.1314  1.2633 -0.5612
  623MOL0     H85966   0.230   5.213   9.492 -2.6330 -1.2878 -1.2814
  623MOL0     H85967   0.231   5.353   9.595 -0.6539 -0.0224  0.3752
  623MOL0     H85968   0.151   5.164   9.703  0.1669  0.9456  1.1305
  623MOL0     H85969   0.044   5.105   9.579  0.2572 -1.8059  2.4690
  623MOL0     H85970  -0.164   5.339   9.867 -2.1264 -2.2114 -0.5781
  623MOL0     H85971   0.247   5.627   9.085 -0.6079  2.1981  0.3901
  623MOL0     H85972   0.484   5.808   8.956  1.4644 -1.9778 -1.6809
  623MOL0     H85973   0.353   5.835   9.068 -0.5993 -3.6946 -0.1783
  623MOL0     H85974   0.511   5.864   9.125  1.8799 -0.6922 -1.8446
  624MOL0     O85975   5.876   7.195   4.312 -0.2334  0.2480 -0.2298
  624MOL0     C85976   5.906   7.167   4.198 -1.1644  0.0861 -1.0029
  624MOL0     O85977   6.036   7.130   4.166  0.1339 -0.5800  0.7205
  624MOL0     C85978   6.139   7.170   4.252  0.4757 -0.2322 -0.2883
  624MOL0     C85979   6.158   7.301   4.298 -1.0655 -0.5636  0.9894
  624MOL0     C85980   6.282   7.329   4.350 -0.3463 -0.9080 -0.5496
  624MOL0     C85981   6.383   7.233   4.362  0.0276  0.5663  0.9801
  624MOL0     O85982   6.504   7.271   4.410 -0.0183  0.0335 -0.3703
  624MOL0     C85983   6.599   7.172   4.448  0.1882 -0.2586  0.2334
  624MOL0     C85984   6.707   7.235   4.531  0.2400 -0.0690  0.2995
  624MOL0     C85985   6.814   7.133   4.582  0.6643 -0.0501 -0.2569
  624MOL0     C85986   6.911   7.218   4.670  0.5971  0.2538 -0.2375
  624MOL0     C85987   7.029   7.145   4.738  0.1528  0.2348 -1.5256
  624MOL0     C85988   6.971   7.048   4.852 -0.7699  0.3474 -0.0511
  624MOL0     C85989   6.947   7.120   4.982 -0.7488 -0.6950  0.5028
  624MOL0     C85990   6.869   7.049   5.090 -0.1403  0.3174 -0.3753
  624MOL0     N85991   6.730   7.014   5.047 -0.1786  0.0888 -0.2432
  624MOL0     C85992   6.627   7.087   5.078  1.2195 -0.3401  0.0097
  624MOL0     C85993   6.514   7.026   5.019  0.7629  0.8473  0.6139
  624MOL0     C85994   6.374   7.061   5.026 -0.1974  0.2846 -0.1178
  624MOL0     C85995   6.304   6.955   5.106 -0.3309  0.1034  0.7680
  624MOL0     C85996   6.332   6.961   5.249 -1.1103 -0.0382 -0.4941
  624MOL0     C85997   6.272   6.848   5.330  0.4304  0.0785 -0.2867
  624MOL0     O85998   6.137   6.877   5.348  0.4878  0.9936 -0.2896
  624MOL0     C85999   6.050   6.796   5.416 -0.0277 -0.0928  0.6303
  624MOL0     C86000   5.913   6.814   5.405  0.6203 -1.1132 -0.1924
  624MOL0     C86001   5.820   6.742   5.486  0.8230  0.3126 -0.3799
  624MOL0     C86002   5.674   6.770   5.492 -0.3443 -0.2758  0.5799
  624MOL0     C86003   5.870   6.646   5.574  0.4427 -0.3150 -0.5479
  624MOL0     C86004   5.797   6.560   5.659 -0.5106  0.0795 -0.4416
  624MOL0     O86005   5.660   6.570   5.655 -0.3105  0.3251  0.4068
  624MOL0     C86006   5.585   6.527   5.755  0.4793 -0.2783 -0.8507
  624MOL0     C86007   5.493   6.625   5.794  0.3821  0.6920 -0.3198
  624MOL0     C86008   5.387   6.606   5.881  0.6505 -0.7249 -0.0855
  624MOL0     C86009   5.371   6.483   5.939  0.3921 -0.5120  0.1403
  624MOL0     O86010   5.273   6.450   6.029 -0.7189 -0.2209 -0.2394
  624MOL0     C86011   5.211   6.542   6.117  0.2822  0.4402 -1.1048
  624MOL0     C86012   5.066   6.485   6.163 -0.2233 -0.0673 -0.1611
  624MOL0     C86013   5.023   6.546   6.302  1.3094  0.3115  0.3827
  624MOL0     C86014   5.092   6.475   6.412 -0.5718  0.1478  1.0176
  624MOL0     C86015   5.056   6.515   6.557  0.2893 -0.0533  0.2739
  624MOL0     C86016   5.131   6.431   6.669 -0.2823 -0.2655  1.6603
  624MOL0     C86017   5.091   6.490   6.810  0.3286 -0.0241  0.0081
  624MOL0     C86018   5.204   6.474   6.910 -0.6851 -0.0954 -0.2514
  624MOL0    Cl86019   5.149   6.522   7.085  0.1729 -0.1538  0.3876
  624MOL0     C86020   5.470   6.383   5.901  0.8940  0.4722  0.0503
  624MOL0     C86021   5.576   6.403   5.810 -1.1837  0.0478  0.3527
  624MOL0     O86022   5.861   6.493   5.746  0.0653 -0.0103  0.9366
  624MOL0     C86023   6.013   6.632   5.581  0.1184  0.6440 -0.3653
  624MOL0     C86024   6.097   6.699   5.501 -0.6570 -1.0044  0.5447
  624MOL0     N86025   6.564   6.908   4.964  0.1876  0.3730  0.3185
  624MOL0     N86026   6.693   6.896   4.983  0.0011 -0.3051  0.1956
  624MOL0     C86027   6.358   7.103   4.319  0.9413 -0.0991 -0.4404
  624MOL0     C86028   6.240   7.073   4.272  0.7172  0.1962  1.6783
  624MOL0     C86029   5.811   7.148   4.096 -0.7732  0.0055 -0.2887
  624MOL0     C86030   5.839   7.055   3.995  0.0616 -0.4500 -0.0998
  624MOL0     C86031   5.749   7.036   3.893  0.1708 -0.0673  0.1088
  624MOL0     C86032   5.642   7.112   3.888  0.3140  0.5973 -0.2160
  624MOL0     O86033   5.546   7.077   3.803  0.2383  0.2576  0.1482
  624MOL0     C86034   5.408   7.121   3.815 -0.7303  0.3232 -0.2085
  624MOL0     C86035   5.330   7.108   3.680 -0.3271  0.9028  0.1822
  624MOL0     C86036   5.381   7.203   3.569  0.8459  0.1113  0.5355
  624MOL0     C86037   5.517   7.165   3.510  0.1770 -0.5475  0.0710
  624MOL0     C86038   5.553   7.246   3.390 -0.1852  0.5336  0.5390
  624MOL0     C86039   5.601   7.292   3.288 -0.0732  0.6813  0.7505
  624MOL0     C86040   5.621   7.224   3.979  0.1239  0.0714  0.0112
  624MOL0     C86041   5.697   7.233   4.094 -0.1179  0.0711  0.0284
  624MOL0     C86042   5.673   7.354   4.184  0.1112 -0.3284  0.7805
  624MOL0     H86043   6.075   7.370   4.281 -1.8446 -1.0048  2.7837
  624MOL0     H86044   6.297   7.429   4.391 -1.1696 -2.3737  3.9956
  624MOL0     H86045   6.641   7.119   4.362 -1.1941  0.3312 -0.8372
  624MOL0     H86046   6.542   7.098   4.506 -1.7422  0.8520 -0.1672
  624MOL0     H86047   6.766   7.310   4.478 -0.1375  0.0687  0.0732
  624MOL0     H86048   6.664   7.294   4.613  0.6526  0.6507  0.0048
  624MOL0     H86049   6.754   7.053   4.626  2.4598 -1.1621  0.2402
  624MOL0     H86050   6.883   7.089   4.510  2.0640  0.2297  0.8878
  624MOL0     H86051   6.956   7.300   4.613 -0.9126  3.2621  2.5495
  624MOL0     H86052   6.848   7.269   4.744  0.2282  2.3836 -1.9173
  624MOL0     H86053   7.105   7.215   4.773  2.5224 -1.0806 -3.7338
  624MOL0     H86054   7.083   7.094   4.658  2.5176  1.5497 -0.8728
  624MOL0     H86055   6.880   7.005   4.810 -0.2172 -0.6035 -0.2888
  624MOL0     H86056   7.043   6.971   4.882  0.3354  1.7764  1.1638
  624MOL0     H86057   6.905   7.221   4.968  1.5546 -0.0931 -3.8459
  624MOL0     H86058   7.041   7.124   5.037 -1.1275  0.7308  1.1119
  624MOL0     H86059   6.921   6.956   5.115 -0.7124 -0.6467 -2.5382
  624MOL0     H86060   6.868   7.112   5.179  1.1025  2.0525 -1.5390
  624MOL0     H86061   6.628   7.178   5.138 -1.5433  1.4469 -2.4108
  624MOL0     H86062   6.331   7.055   4.925  0.6398 -2.0312 -0.4059
  624MOL0     H86063   6.378   7.165   5.060 -0.3669  1.6666 -3.8638
  624MOL0     H86064   6.196   6.967   5.090 -0.3804 -0.8304  0.3419
  624MOL0     H86065   6.314   6.854   5.065  1.5266 -0.3720  2.2823
  624MOL0     H86066   6.438   6.938   5.265 -1.6501 -1.3767  1.4118
  624MOL0     H86067   6.305   7.058   5.291 -1.7706 -0.3066 -0.2937
  624MOL0     H86068   6.277   6.746   5.290  2.4520 -0.7681  1.9091
  624MOL0     H86069   6.325   6.847   5.425 -0.3316 -1.1688  0.1605
  624MOL0     H86070   5.882   6.898   5.344 -0.6208 -2.5269 -1.5816
  624MOL0     H86071   5.632   6.678   5.450  2.6428 -0.4389 -2.4670
  624MOL0     H86072   5.661   6.845   5.414  1.6595 -3.3258 -3.0440
  624MOL0     H86073   5.627   6.801   5.586 -1.7506 -1.0587  0.1583
  624MOL0     H86074   5.492   6.721   5.743  1.4397  1.7954  1.6289
  624MOL0     H86075   5.319   6.689   5.896 -2.1029 -2.1462 -3.2343
  624MOL0     H86076   5.280   6.563   6.199 -0.4493  0.3277 -0.4559
  624MOL0     H86077   5.182   6.634   6.066 -2.8996  1.0228  1.4821
  624MOL0     H86078   4.985   6.501   6.091  1.2437  0.6536 -1.7301
  624MOL0     H86079   5.070   6.375   6.170  3.5610 -0.4391 -4.1762
  624MOL0     H86080   4.915   6.540   6.320  1.5182 -3.0850  1.1202
  624MOL0     H86081   5.053   6.651   6.290 -0.9366  1.1044  1.0711
  624MOL0     H86082   5.200   6.489   6.398 -0.8565 -1.0916 -4.4014
  624MOL0     H86083   5.083   6.368   6.394 -0.9861  0.6299 -2.2313
  624MOL0     H86084   5.089   6.618   6.576 -2.1823  0.4398  2.6265
  624MOL0     H86085   4.947   6.519   6.569  0.4772  2.7114  2.0704
  624MOL0     H86086   5.235   6.455   6.646 -0.6456  0.8423  1.1310
  624MOL0     H86087   5.115   6.323   6.657  0.3821 -0.1593 -0.7354
  624MOL0     H86088   5.013   6.426   6.851 -1.6180  2.2451  0.0925
  624MOL0     H86089   5.042   6.588   6.806 -2.0903 -1.1919 -0.1571
  624MOL0     H86090   5.287   6.539   6.884  0.1055 -1.0016 -0.0586
  624MOL0     H86091   5.240   6.373   6.888  2.6731  1.3156 -1.8232
  624MOL0     H86092   5.460   6.281   5.938 -1.8826  0.5909 -0.1549
  624MOL0     H86093   5.623   6.315   5.768 -0.9231  2.1187 -4.2825
  624MOL0     H86094   6.048   6.558   5.652 -1.0952 -0.5576 -0.9825
  624MOL0     H86095   6.203   6.678   5.508 -1.2024 -3.6432  2.7550
  624MOL0     H86096   6.421   7.015   4.321 -0.1903 -0.9144  0.8677
  624MOL0     H86097   6.202   6.985   4.221 -0.3616  1.3417  0.4266
  624MOL0     H86098   5.927   6.992   4.004  1.1372  1.0268  0.0471
  624MOL0     H86099   5.752   6.956   3.820  3.0193  1.3337 -1.4610
  624MOL0     H86100   5.362   7.071   3.900  1.2060  2.5553  2.3468
  624MOL0     H86101   5.399   7.229   3.833 -2.7326  0.3068 -0.9043
  624MOL0     H86102   5.222   7.126   3.682 -0.3330  0.8285  2.0135
  624MOL0     H86103   5.351   7.004   3.653  2.7546  0.4076  3.6019
  624MOL0     H86104   5.294   7.208   3.503  0.3594  2.4803  1.2539
  624MOL0     H86105   5.393   7.302   3.613 -0.7109  1.2732 -1.5154
  624MOL0     H86106   5.497   7.062   3.478 -0.3018  0.0806 -1.7422
  624MOL0     H86107   5.602   7.162   3.580 -0.3109  0.2351  0.7159
  624MOL0     H86108   5.651   7.332   3.202 -0.3218 -0.0132  0.2752
  624MOL0     H86109   5.549   7.304   3.969  2.9311  2.8864  0.7507
  624MOL0     H86110   5.587   7.413   4.152  1.7762  1.6662 -0.1764
  624MOL0     H86111   5.640   7.325   4.284 -0.7653 -1.7193  0.1300
  624MOL0     H86112   5.762   7.417   4.184 -0.0266 -0.1120 -0.2218
  625MOL0     O86113   8.869  11.346   9.802  0.6069  0.1638  0.0181
  625MOL0     C86114   8.882  11.439   9.723  0.8980  0.4098 -0.8155
  625MOL0     O86115   8.785  11.477   9.643  0.1911 -0.8701  1.2097
  625MOL0     C86116   8.653  11.440   9.657 -0.0244  0.6764 -0.2739
  625MOL0     C86117   8.606  11.409   9.791  0.3068  0.7534  0.4948
  625MOL0     C86118   8.479  11.355   9.806  0.0109  0.5500 -1.2575
  625MOL0     C86119   8.401  11.328   9.696 -0.2556  0.1433 -0.4592
  625MOL0     O86120   8.271  11.291   9.711  0.1145 -0.4649 -0.7292
  625MOL0     C86121   8.226  11.214   9.823  0.2787 -0.4724  0.1414
  625MOL0     C86122   8.148  11.291   9.927 -0.3349  0.0603  0.6911
  625MOL0     C86123   8.022  11.212   9.969 -0.0879 -0.4373  0.6046
  625MOL0     C86124   7.937  11.262  10.090 -0.4826 -0.6709  0.2732
  625MOL0     C86125   7.801  11.187  10.103  1.1318  0.6955  1.4387
  625MOL0     C86126   7.679  11.260  10.160  0.2412 -0.0961 -0.0359
  625MOL0     C86127   7.692  11.286  10.308  0.7239  0.0601 -0.4535
  625MOL0     C86128   7.573  11.378  10.326 -0.0525  0.0729  0.5804
  625MOL0     N86129   7.557  11.436  10.462 -0.5535  0.5937  0.1031
  625MOL0     C86130   7.546  11.572  10.483 -0.6539 -0.7040  0.5228
  625MOL0     C86131   7.591  11.588  10.613 -0.2156  0.2079  0.6272
  625MOL0     C86132   7.637  11.708  10.671  0.0458 -0.0722  0.1435
  625MOL0     C86133   7.773  11.739  10.620  0.9087  0.2865  0.5164
  625MOL0     C86134   7.847  11.862  10.688 -0.3581 -0.7296  0.1075
  625MOL0     C86135   7.905  11.836  10.821  0.1739 -0.2688  0.1920
  625MOL0     O86136   8.037  11.791  10.802 -0.5016  0.0863 -0.8375
  625MOL0     C86137   8.123  11.831  10.907  0.8062  0.8381  0.2343
  625MOL0     C86138   8.262  11.828  10.881 -0.2979  1.1113  0.3322
  625MOL0     C86139   8.356  11.879  10.979  0.6270  0.8411 -1.7798
  625MOL0     C86140   8.506  11.895  10.938  0.5578 -0.4179 -0.1130
  625MOL0     C86141   8.303  11.911  11.110  0.0871  0.2479  0.0511
  625MOL0     C86142   8.387  11.968  11.223 -1.0686  0.0609 -0.0078
  625MOL0     O86143   8.320  12.048  11.309 -0.0405 -0.5081 -0.1701
  625MOL0     C86144   8.387  12.083  11.426  0.8915 -0.0821 -0.2880
  625MOL0     C86145   8.452  12.206  11.433 -0.0759 -0.4265 -0.8554
  625MOL0     C86146   8.524  12.245  11.541 -0.0932  0.8835  0.2608
  625MOL0     C86147   8.539  12.155  11.652 -0.6479  1.3743  0.0061
  625MOL0     O86148   8.631  12.192  11.737  0.5176  0.4975 -0.0223
  625MOL0     C86149   8.657  12.118  11.856  1.0598  0.2384 -0.0160
  625MOL0     C86150   8.807  12.117  11.867  0.3505 -0.3815 -0.2179
  625MOL0     C86151   8.850  12.088  12.005  0.5774 -0.5804 -0.7750
  625MOL0     C86152   9.006  12.094  12.017 -0.4461 -0.3526  0.2236
  625MOL0     C86153   9.039  12.106  12.162 -0.1649  0.3129 -0.4203
  625MOL0     C86154   8.991  12.237  12.237  0.3858 -0.0375  0.3030
  625MOL0     C86155   9.020  12.373  12.179 -0.0867 -0.9263  0.2741
  625MOL0     C86156   8.927  12.478  12.258 -0.5068 -0.2402 -0.0615
  625MOL0    Cl86157   8.995  12.644  12.235  0.6524 -0.0162 -0.4416
  625MOL0     C86158   8.473  12.028  11.643 -0.0295 -0.4152 -0.2864
  625MOL0     C86159   8.405  11.990  11.531  0.4186  0.7754  0.3421
  625MOL0     O86160   8.509  11.941  11.233 -0.2201  0.2582 -0.2894
  625MOL0     C86161   8.160  11.914  11.134  0.7599  0.1536 -0.4138
  625MOL0     C86162   8.079  11.866  11.032 -0.1231  0.2267 -0.4927
  625MOL0     N86163   7.607  11.462  10.672 -0.4197  0.1752 -0.4214
  625MOL0     N86164   7.591  11.374  10.578 -0.1135 -0.1182  0.2486
  625MOL0     C86165   8.446  11.357   9.565 -1.6847  0.7064 -0.2957
  625MOL0     C86166   8.574  11.407   9.545 -0.2799 -0.7344 -0.3781
  625MOL0     C86167   9.005  11.504   9.707 -0.1137 -0.8996 -0.2886
  625MOL0     C86168   9.000  11.648   9.714  0.8697  0.9931 -0.6231
  625MOL0     C86169   9.111  11.728   9.678  0.9297  1.5175  0.2720
  625MOL0     C86170   9.222  11.661   9.637 -0.7243 -0.6201  1.2979
  625MOL0     O86171   9.328  11.749   9.617  0.3688 -0.4380 -0.3324
  625MOL0     C86172   9.451  11.708   9.550 -0.0183  0.0640 -0.3177
  625MOL0     C86173   9.444  11.755   9.400  0.4814  0.2141 -0.9484
  625MOL0     C86174   9.582  11.809   9.360  0.0053 -0.1452 -0.0770
  625MOL0     C86175   9.677  11.699   9.300  0.1571 -0.5663  0.4945
  625MOL0     C86176   9.816  11.750   9.303  0.2542  0.4263 -0.4414
  625MOL0     C86177   9.927  11.786   9.317  0.3956  0.3016  0.2125
  625MOL0     C86178   9.231  11.525   9.631  0.3855 -0.1523 -0.0071
  625MOL0     C86179   9.121  11.445   9.658 -0.4496 -0.4099 -0.7914
  625MOL0     C86180   9.134  11.295   9.631  1.1104  0.3268  0.6725
  625MOL0     H86181   8.674  11.425   9.874 -0.8135  0.5598  1.4625
  625MOL0     H86182   8.440  11.352   9.908 -0.7480  1.3903 -1.5116
  625MOL0     H86183   8.308  11.167   9.878  0.8506  1.6469  1.2336
  625MOL0     H86184   8.159  11.145   9.771  0.1709  1.3885 -2.4246
  625MOL0     H86185   8.224  11.307  10.005  1.5663  2.0849 -1.4236
  625MOL0     H86186   8.115  11.392   9.900  1.3927  0.7343  0.9489
  625MOL0     H86187   7.957  11.183   9.886  0.6538  2.7029 -1.2273
  625MOL0     H86188   8.068  11.119  10.005 -2.9752 -3.7208 -3.2165
  625MOL0     H86189   7.980  11.260  10.190 -2.1978 -1.5517  1.0397
  625MOL0     H86190   7.910  11.367  10.077  1.2305 -0.4482 -2.2168
  625MOL0     H86191   7.811  11.091  10.154 -1.6827 -1.5486 -1.7217
  625MOL0     H86192   7.768  11.166  10.001  2.6273  2.0836  0.6123
  625MOL0     H86193   7.666  11.360  10.118  0.9392  0.4158  0.9155
  625MOL0     H86194   7.594  11.197  10.131  0.3141 -0.3917  0.3709
  625MOL0     H86195   7.788  11.336  10.325  3.3669 -1.9538 -6.5135
  625MOL0     H86196   7.684  11.189  10.358 -2.5117 -1.0948 -2.8218
  625MOL0     H86197   7.585  11.465  10.261 -3.5750  2.0182  2.2478
  625MOL0     H86198   7.484  11.319  10.302  0.4444  0.0397 -1.3831
  625MOL0     H86199   7.524  11.648  10.410 -1.5181 -1.0656  0.4005
  625MOL0     H86200   7.635  11.702  10.780 -0.5982  2.7992  0.3621
  625MOL0     H86201   7.580  11.800  10.653  1.3502  0.4092 -1.8872
  625MOL0     H86202   7.832  11.647  10.628 -2.5618 -2.1756  0.4589
  625MOL0     H86203   7.776  11.765  10.514  0.3991 -2.4271 -0.2379
  625MOL0     H86204   7.929  11.900  10.626 -0.3934  0.7097  0.9092
  625MOL0     H86205   7.775  11.941  10.710 -0.3137 -0.2362 -1.4191
  625MOL0     H86206   7.896  11.932  10.874 -2.2618 -1.0740  1.4104
  625MOL0     H86207   7.851  11.767  10.886  2.2254 -0.9082  1.2955
  625MOL0     H86208   8.288  11.787  10.784  1.0801  0.2427  1.0358
  625MOL0     H86209   8.573  11.808  10.948  3.3756  1.8106  2.7060
  625MOL0     H86210   8.557  11.974  10.994  2.2226 -0.5542 -1.3608
  625MOL0     H86211   8.520  11.922  10.833  0.4412  0.4359  0.0838
  625MOL0     H86212   8.452  12.278  11.352  3.4302  1.5120  0.6596
  625MOL0     H86213   8.598  12.324  11.533 -0.3443  1.3485  2.1347
  625MOL0     H86214   8.611  12.172  11.939  1.4257  1.0320 -0.3108
  625MOL0     H86215   8.612  12.019  11.861 -0.1676  0.8345  2.7662
  625MOL0     H86216   8.846  12.047  11.792  0.8200 -1.4898  1.0238
  625MOL0     H86217   8.848  12.215  11.841  2.9798 -1.5660 -0.9955
  625MOL0     H86218   8.805  11.998  12.048 -0.0372 -1.2141 -2.6396
  625MOL0     H86219   8.808  12.173  12.061  0.7025 -1.4196  0.6361
  625MOL0     H86220   9.035  12.188  11.968  0.3710  0.5957  2.3970
  625MOL0     H86221   9.056  12.013  11.964  1.3409  0.8310  0.0284
  625MOL0     H86222   8.996  12.025  12.223 -1.3973  0.1347 -1.4986
  625MOL0     H86223   9.147  12.096  12.178 -0.2638 -0.4449 -0.1904
  625MOL0     H86224   9.032  12.230  12.338 -2.0273  0.9688  1.4330
  625MOL0     H86225   8.884  12.220  12.243  0.5435 -0.7214  1.4751
  625MOL0     H86226   9.015  12.380  12.070  2.9189  0.2367  0.1226
  625MOL0     H86227   9.125  12.403  12.191 -0.8132  1.9231  0.0488
  625MOL0     H86228   8.918  12.465  12.366  0.0101  0.4558  0.0720
  625MOL0     H86229   8.828  12.468  12.213  1.3623  1.1212 -5.2184
  625MOL0     H86230   8.486  11.949  11.717 -1.0566 -0.3175  0.0181
  625MOL0     H86231   8.357  11.893  11.522  0.3649  0.8973 -1.0286
  625MOL0     H86232   8.110  11.942  11.226 -2.4238 -3.7988 -0.6519
  625MOL0     H86233   7.972  11.869  11.053 -0.0164  3.1663 -0.0335
  625MOL0     H86234   8.372  11.354   9.485 -2.3270  3.3372  0.1099
  625MOL0     H86235   8.603  11.423   9.442 -2.3381 -0.0869 -0.9075
  625MOL0     H86236   8.907  11.683   9.757 -0.4525 -3.2054  0.3295
  625MOL0     H86237   9.102  11.835   9.692  1.3786  1.2970  2.6958
  625MOL0     H86238   9.522  11.766   9.610 -1.4123 -0.0803  1.5870
  625MOL0     H86239   9.477  11.602   9.548 -0.2430 -0.0493  1.3835
  625MOL0     H86240   9.370  11.833   9.381  0.7601  0.8814  0.5425
  625MOL0     H86241   9.418  11.663   9.346 -1.0347  1.0899 -1.7562
  625MOL0     H86242   9.564  11.862   9.266 -1.3761 -2.4402 -1.2126
  625MOL0     H86243   9.627  11.886   9.424 -0.9898  1.8146 -1.6143
  625MOL0     H86244   9.637  11.667   9.204 -0.0241 -0.0061  0.3807
  625MOL0     H86245   9.665  11.602   9.350 -0.4237 -0.9776 -0.4173
  625MOL0     H86246  10.027  11.824   9.304  0.3641  1.6002  3.1046
  625MOL0     H86247   9.321  11.476   9.595  0.1900  0.8762 -2.0454
  625MOL0     H86248   9.207  11.264   9.556 -0.0010 -0.2268 -0.2013
  625MOL0     H86249   9.149  11.237   9.722  2.7969  0.2547  0.3804
  625MOL0     H86250   9.041  11.262   9.584  0.6116  0.0645  1.8076
  626MOL0     O86251   6.225   9.385   6.638  0.2158 -0.3751  0.9604
  626MOL0     C86252   6.219   9.316   6.738 -0.2361  0.5941 -0.2848
  626MOL0     O86253   6.265   9.359   6.860 -0.6198  0.1074 -0.6702
  626MOL0     C86254   6.334   9.472   6.883  0.1898 -0.1705 -0.2973
  626MOL0     C86255   6.390   9.481   7.009 -1.0256 -0.6064 -1.0689
  626MOL0     C86256   6.463   9.586   7.063  0.3625  0.1720 -0.3477
  626MOL0     C86257   6.479   9.699   6.977 -0.1818  1.4483  0.2754
  626MOL0     O86258   6.552   9.809   7.004  0.4674  0.6732  0.2139
  626MOL0     C86259   6.582   9.839   7.147  0.0890  0.1191  0.8431
  626MOL0     C86260   6.464   9.882   7.222  0.3579 -0.6939 -0.4000
  626MOL0     C86261   6.403  10.012   7.182  0.3104 -0.2735  0.0042
  626MOL0     C86262   6.260  10.020   7.241 -0.3044  0.0339 -0.3210
  626MOL0     C86263   6.158   9.962   7.143  0.2612 -0.9353  0.9837
  626MOL0     C86264   6.026   9.932   7.198 -0.3906  0.1524  0.8235
  626MOL0     C86265   5.932  10.047   7.229 -0.4098  0.9119  0.0895
  626MOL0     C86266   5.830  10.007   7.335  0.0411  0.0305 -0.4310
  626MOL0     N86267   5.737  10.115   7.358 -0.0076 -0.0424 -0.5713
  626MOL0     C86268   5.626  10.138   7.282 -0.6563  0.6585 -0.1618
  626MOL0     C86269   5.579  10.249   7.321  0.7524 -0.9403  0.0394
  626MOL0     C86270   5.456  10.302   7.258 -0.2701 -0.4675 -0.2942
  626MOL0     C86271   5.390  10.406   7.338  0.3949  0.2594 -0.3249
  626MOL0     C86272   5.299  10.495   7.259  0.6390  1.2108  0.6266
  626MOL0     C86273   5.152  10.441   7.277 -0.3533  0.0870  0.1568
  626MOL0     O86274   5.114  10.470   7.415  0.3713  0.5237 -0.4490
  626MOL0     C86275   4.982  10.443   7.451  0.0014 -0.3701  0.1439
  626MOL0     C86276   4.908  10.349   7.382  0.4278  0.1767  0.0053
  626MOL0     C86277   4.779  10.312   7.429  0.4386  1.3512  0.3034
  626MOL0     C86278   4.713  10.196   7.347 -0.2023 -0.2163 -0.1404
  626MOL0     C86279   4.722  10.381   7.540 -1.3576 -0.9467 -0.2133
  626MOL0     C86280   4.602  10.342   7.617 -0.2126  0.4208 -0.8330
  626MOL0     O86281   4.551  10.439   7.691  0.3307  0.8695  0.1928
  626MOL0     C86282   4.453  10.427   7.786 -0.0702 -0.4799 -0.0385
  626MOL0     C86283   4.417  10.313   7.852 -0.0210  1.0752 -0.4965
  626MOL0     C86284   4.338  10.308   7.971 -0.4696 -0.9015  0.2372
  626MOL0     C86285   4.275  10.435   8.002 -1.0765 -0.8566 -1.1686
  626MOL0     O86286   4.196  10.437   8.111  0.3366 -0.0164  0.0355
  626MOL0     C86287   4.104  10.331   8.132 -0.1812 -0.1391 -0.0330
  626MOL0     C86288   3.974  10.384   8.201 -0.4706 -0.4606 -0.3295
  626MOL0     C86289   3.985  10.529   8.258 -0.2367  0.1345 -0.3985
  626MOL0     C86290   3.860  10.548   8.349 -0.0273  0.0822 -0.0102
  626MOL0     C86291   3.853  10.693   8.408  0.0631 -0.2560 -0.3181
  626MOL0     C86292   3.975  10.739   8.487  0.9485 -0.0671 -0.3570
  626MOL0     C86293   3.977  10.706   8.644 -0.0951 -0.0807  0.4351
  626MOL0     C86294   4.094  10.775   8.704 -0.0044 -0.4116  0.0763
  626MOL0    Cl86295   4.233  10.689   8.643 -0.3894  0.0176 -0.1467
  626MOL0     C86296   4.314  10.553   7.937 -0.1378 -0.3313  1.3318
  626MOL0     C86297   4.402  10.550   7.827  0.8718 -0.0322  0.6445
  626MOL0     O86298   4.548  10.232   7.601 -0.8967  1.3173 -0.2825
  626MOL0     C86299   4.790  10.496   7.587 -0.1255  0.7032 -0.4480
  626MOL0     C86300   4.922  10.523   7.546 -1.0091  0.4544  0.1252
  626MOL0     N86301   5.664  10.301   7.420  0.0726  0.4658  0.0408
  626MOL0     N86302   5.763  10.218   7.446 -1.1802  0.2314 -1.2326
  626MOL0     C86303   6.411   9.697   6.853 -1.0610  0.8134  0.0903
  626MOL0     C86304   6.341   9.589   6.810  0.9527  0.3542  1.0563
  626MOL0     C86305   6.167   9.181   6.720  0.7024 -0.6704 -0.5571
  626MOL0     C86306   6.132   9.120   6.841 -0.6521  0.1742 -1.7680
  626MOL0     C86307   6.083   8.988   6.851  0.9397  0.1392 -0.6724
  626MOL0     C86308   6.057   8.921   6.730 -1.1417 -0.5163 -0.3890
  626MOL0     O86309   6.001   8.795   6.728  0.2933  0.9254 -0.6038
  626MOL0     C86310   5.889   8.777   6.639  0.2485  0.3408  0.1144
  626MOL0     C86311   5.767   8.706   6.711 -1.0194  1.3087  0.6040
  626MOL0     C86312   5.659   8.674   6.604 -0.1948  0.7696  0.5452
  626MOL0     C86313   5.700   8.565   6.502 -0.3638 -0.2874 -0.1097
  626MOL0     C86314   5.671   8.432   6.558  0.0026  0.2890 -0.0847
  626MOL0     C86315   5.640   8.318   6.574  0.4795  0.3421  0.4994
  626MOL0     C86316   6.092   8.985   6.606  0.0190  0.7403 -0.5057
  626MOL0     C86317   6.152   9.106   6.599  0.0676  0.1052 -0.3843
  626MOL0     C86318   6.201   9.143   6.456  0.8822  0.5006 -0.5165
  626MOL0     H86319   6.383   9.388   7.066 -1.5747 -0.7553 -1.3716
  626MOL0     H86320   6.518   9.581   7.156  1.3450 -0.0831 -0.9188
  626MOL0     H86321   6.651   9.924   7.153  2.7554 -1.8299  0.0962
  626MOL0     H86322   6.632   9.754   7.195  0.7497  1.1383  1.9990
  626MOL0     H86323   6.386   9.808   7.202  0.6551 -0.4969 -2.4365
  626MOL0     H86324   6.486   9.881   7.330  1.2717  4.7847 -0.2624
  626MOL0     H86325   6.461  10.097   7.220  1.0785 -0.5777 -0.4577
  626MOL0     H86326   6.402  10.020   7.072  0.7135  2.9577  0.1121
  626MOL0     H86327   6.263   9.969   7.338 -0.5836  2.9677  1.3680
  626MOL0     H86328   6.247  10.127   7.261  4.4842  1.1633 -2.0292
  626MOL0     H86329   6.199   9.875   7.090 -1.5977 -1.3712  0.1853
  626MOL0     H86330   6.141  10.040   7.068 -0.5884  2.6773  4.6187
  626MOL0     H86331   5.981   9.846   7.148 -1.2899  0.3778  1.2276
  626MOL0     H86332   6.045   9.881   7.293 -0.5921 -0.8245  0.3539
  626MOL0     H86333   5.870  10.074   7.143 -0.9872 -2.6792 -0.7689
  626MOL0     H86334   5.991  10.138   7.248  0.3508  0.2280  1.0559
  626MOL0     H86335   5.779   9.913   7.308 -0.2479 -0.1836  0.7877
  626MOL0     H86336   5.886   9.988   7.427  0.8287  0.7748 -0.7544
  626MOL0     H86337   5.592  10.087   7.192  2.6348 -0.9008 -0.6723
  626MOL0     H86338   5.387  10.221   7.234 -2.4850 -0.0133  3.7184
  626MOL0     H86339   5.488  10.356   7.168 -1.0393  1.4735  0.5441
  626MOL0     H86340   5.332  10.364   7.420  0.6110  2.0324  0.7628
  626MOL0     H86341   5.467  10.469   7.381  0.3684 -1.7992  3.1115
  626MOL0     H86342   5.306  10.597   7.296 -1.3809  0.6022  2.9692
  626MOL0     H86343   5.326  10.499   7.153  0.0947  2.2589  0.5135
  626MOL0     H86344   5.090  10.496   7.205  0.5692  1.0472  0.0764
  626MOL0     H86345   5.169  10.333   7.269  5.0070  0.2721  3.9249
  626MOL0     H86346   4.957  10.293   7.302 -1.5570 -0.4314 -0.8642
  626MOL0     H86347   4.772  10.104   7.348  2.9199  1.5987 -1.0034
  626MOL0     H86348   4.720  10.231   7.244 -0.0780  1.9379  0.5459
  626MOL0     H86349   4.609  10.183   7.377  0.2382  0.5765  1.9569
  626MOL0     H86350   4.452  10.216   7.820  0.3135  1.4630 -1.3329
  626MOL0     H86351   4.326  10.218   8.031 -1.0502 -1.8727 -1.2638
  626MOL0     H86352   4.078  10.283   8.038  1.3598  0.0938 -0.5989
  626MOL0     H86353   4.145  10.259   8.203  1.5460  0.3707 -0.4658
  626MOL0     H86354   3.899  10.379   8.121  1.6866 -0.5158 -2.4806
  626MOL0     H86355   3.957  10.315   8.284  0.8600 -1.9598 -1.2358
  626MOL0     H86356   3.995  10.603   8.177  0.8322 -1.2780 -1.6277
  626MOL0     H86357   4.080  10.521   8.312 -0.7766 -0.8937  0.4342
  626MOL0     H86358   3.854  10.482   8.436 -0.2471  0.8413  0.5598
  626MOL0     H86359   3.769  10.545   8.289  0.7557 -0.3460 -1.2010
  626MOL0     H86360   3.843  10.759   8.321  0.6403  1.0912  0.6027
  626MOL0     H86361   3.760  10.712   8.462 -2.0263  0.7871 -3.9614
  626MOL0     H86362   3.979  10.848   8.484 -1.9805  0.1269  0.1443
  626MOL0     H86363   4.063  10.689   8.446  3.0329  0.0185  3.4754
  626MOL0     H86364   3.996  10.599   8.659 -0.2858  0.0804  1.9773
  626MOL0     H86365   3.881  10.742   8.681 -0.3544 -2.0583  1.8094
  626MOL0     H86366   4.092  10.754   8.811 -0.1205 -1.3054 -0.0920
  626MOL0     H86367   4.107  10.882   8.681  1.1196 -1.1351 -3.1487
  626MOL0     H86368   4.277  10.651   7.967  1.9417  0.8586  0.2352
  626MOL0     H86369   4.418  10.641   7.769 -0.7899  2.1973  3.4550
  626MOL0     H86370   4.752  10.548   7.675 -2.3510 -1.4008 -0.0746
  626MOL0     H86371   4.989  10.598   7.587 -0.9807  0.0029  0.9139
  626MOL0     H86372   6.413   9.779   6.783 -1.9733  1.1007  0.3811
  626MOL0     H86373   6.287   9.592   6.715 -0.4387 -0.1439  1.8084
  626MOL0     H86374   6.151   9.165   6.938  0.6285  0.8833 -2.3190
  626MOL0     H86375   6.069   8.943   6.948 -1.4246  1.0124 -0.5664
  626MOL0     H86376   5.859   8.872   6.594  1.3357  0.5630 -0.1695
  626MOL0     H86377   5.926   8.722   6.551 -0.9891  1.0312 -0.8712
  626MOL0     H86378   5.731   8.753   6.804 -2.0563 -0.1028  0.9448
  626MOL0     H86379   5.812   8.612   6.742 -0.4210  0.8765 -1.4413
  626MOL0     H86380   5.574   8.637   6.662  0.8876  0.9398  2.3088
  626MOL0     H86381   5.624   8.761   6.549  0.4929 -0.1912 -1.5204
  626MOL0     H86382   5.807   8.574   6.480 -0.8483  0.2071 -2.6355
  626MOL0     H86383   5.640   8.578   6.411  2.2521 -2.6006 -2.4042
  626MOL0     H86384   5.621   8.215   6.596  2.6501 -0.2325  0.0057
  626MOL0     H86385   6.101   8.925   6.517  2.0720  1.8612 -1.1253
  626MOL0     H86386   6.219   9.050   6.401  0.2747  0.6255 -0.9426
  626MOL0     H86387   6.140   9.219   6.407 -1.3525 -1.6873 -1.3142
  626MOL0     H86388   6.299   9.191   6.467  0.4402  1.1697  0.6236
  627MOL0     O86389   7.101   5.266   3.203 -0.5457  0.4415  0.0024
  627MOL0     C86390   7.184   5.307   3.114  0.0362  0.6121 -0.1287
  627MOL0     O86391   7.205   5.435   3.074  0.7235 -0.3474 -0.2662
  627MOL0     C86392   7.107   5.532   3.108 -0.0527  0.2172  0.3150
  627MOL0     C86393   7.004   5.557   3.017  0.3596  0.5986 -0.5360
  627MOL0     C86394   6.898   5.644   3.053  0.0701  0.3846  0.0643
  627MOL0     C86395   6.892   5.698   3.181 -0.2770 -1.4033  0.2625
  627MOL0     O86396   6.792   5.783   3.217  0.2520  0.8055 -0.2056
  627MOL0     C86397   6.684   5.715   3.278 -1.0752 -0.0073  0.2648
  627MOL0     C86398   6.607   5.804   3.378 -0.3826 -0.6307  0.4646
  627MOL0     C86399   6.493   5.707   3.426 -0.3862 -0.4771  1.0417
  627MOL0     C86400   6.387   5.779   3.524  0.2174  1.0176  0.7317
  627MOL0     C86401   6.292   5.664   3.572  0.6804 -0.5999 -0.2286
  627MOL0     C86402   6.202   5.738   3.663  0.1169  0.4781  0.0698
  627MOL0     C86403   6.109   5.652   3.755 -0.0192  0.0646  0.6014
  627MOL0     C86404   6.018   5.743   3.839 -0.2175  0.3336  0.6651
  627MOL0     N86405   5.900   5.803   3.773  0.0379 -1.1273  0.5537
  627MOL0     C86406   5.906   5.927   3.702  0.0824  0.5482 -0.2867
  627MOL0     C86407   5.782   5.936   3.654 -0.3461 -0.5956 -0.2144
  627MOL0     C86408   5.754   6.030   3.540  0.5608  0.5234 -1.1431
  627MOL0     C86409   5.692   6.168   3.601 -1.0290 -0.4839  0.1820
  627MOL0     C86410   5.639   6.245   3.473  0.0632 -0.7591  0.1572
  627MOL0     C86411   5.746   6.332   3.415 -1.1684 -1.5205  0.2637
  627MOL0     O86412   5.799   6.437   3.507  0.1085 -0.7827  1.2298
  627MOL0     C86413   5.855   6.537   3.428 -1.0196 -0.3158 -0.2221
  627MOL0     C86414   5.787   6.646   3.380  0.6772 -1.0628  0.4600
  627MOL0     C86415   5.839   6.743   3.291  0.5187  0.8865  0.3661
  627MOL0     C86416   5.745   6.858   3.247  0.3672  0.1967 -0.3567
  627MOL0     C86417   5.974   6.715   3.246 -0.3176  0.3277 -0.3846
  627MOL0     C86418   6.056   6.799   3.153 -0.9008 -0.0073 -0.5213
  627MOL0     O86419   6.167   6.743   3.109 -1.1996 -0.6097  0.1534
  627MOL0     C86420   6.258   6.817   3.030  0.5358  0.4427  0.2002
  627MOL0     C86421   6.393   6.813   3.051  0.3250 -0.4129  0.1675
  627MOL0     C86422   6.473   6.873   2.961 -0.1335  0.4188 -1.2915
  627MOL0     C86423   6.442   6.964   2.858  0.4824  0.6229  0.4655
  627MOL0     O86424   6.525   7.049   2.785 -0.1073  0.0094  0.3228
  627MOL0     C86425   6.500   7.068   2.647  0.4527  0.3753  0.4757
  627MOL0     C86426   6.633   7.121   2.586 -0.5695  0.0453 -0.8087
  627MOL0     C86427   6.733   7.000   2.595 -0.8438 -1.0825  0.0701
  627MOL0     C86428   6.873   7.063   2.565  0.9906  0.3215  0.1097
  627MOL0     C86429   6.973   6.944   2.526  0.6803  0.1840 -0.9394
  627MOL0     C86430   7.091   7.012   2.464 -0.3964 -0.1031 -0.3492
  627MOL0     C86431   7.176   6.919   2.386 -0.0907 -0.2038  0.1315
  627MOL0     C86432   7.210   6.786   2.463 -0.3842  0.1253 -0.2566
  627MOL0    Cl86433   7.067   6.664   2.485 -0.1901 -0.7083 -0.2965
  627MOL0     C86434   6.307   6.962   2.844  0.6538  0.1960 -0.3866
  627MOL0     C86435   6.216   6.892   2.922  0.1083 -0.7900 -0.5624
  627MOL0     O86436   6.016   6.919   3.141  0.2619  0.2500 -0.0006
  627MOL0     C86437   6.044   6.599   3.301  0.8313  0.1472 -0.1337
  627MOL0     C86438   5.992   6.527   3.401 -0.3060  0.2853 -0.0126
  627MOL0     N86439   5.696   5.844   3.703  0.1864 -0.0344  0.1014
  627MOL0     N86440   5.776   5.754   3.765  0.1554  0.6939  0.4399
  627MOL0     C86441   7.002   5.678   3.268  0.0430 -0.6037  0.4856
  627MOL0     C86442   7.108   5.592   3.234 -0.2104  0.2809 -0.1825
  627MOL0     C86443   7.272   5.206   3.051 -0.1116 -0.2639  0.5911
  627MOL0     C86444   7.406   5.250   3.053  0.5775 -0.6707  0.8302
  627MOL0     C86445   7.513   5.181   3.017  1.7336 -0.0133 -0.5017
  627MOL0     C86446   7.489   5.055   2.961  0.0566  0.5948  0.0507
  627MOL0     O86447   7.601   5.004   2.910  0.0320  0.0205 -0.5323
  627MOL0     C86448   7.603   4.892   2.823 -0.1463  0.3672  0.1709
  627MOL0     C86449   7.718   4.906   2.725 -0.3995 -0.4427 -0.0343
  627MOL0     C86450   7.701   5.026   2.618 -0.3649  0.3755 -0.0263
  627MOL0     C86451   7.640   4.972   2.487  0.0458 -1.1726  0.3132
  627MOL0     C86452   7.572   5.079   2.416 -0.5233  0.1453 -0.5417
  627MOL0     C86453   7.514   5.166   2.363  1.3684  0.6385  0.8964
  627MOL0     C86454   7.359   5.001   2.968  1.0739 -0.2884  0.3025
  627MOL0     C86455   7.247   5.074   3.007  0.0641 -0.4547  0.4359
  627MOL0     C86456   7.114   5.012   3.002  0.3408  0.2261  0.6349
  627MOL0     H86457   7.012   5.502   2.924  2.0291 -2.2282  1.1325
  627MOL0     H86458   6.809   5.664   2.995 -0.3153 -1.6092 -0.1151
  627MOL0     H86459   6.724   5.632   3.337 -2.6988 -0.3638  0.9143
  627MOL0     H86460   6.610   5.686   3.202 -0.8532  1.9017 -0.7533
  627MOL0     H86461   6.665   5.841   3.462 -0.8367 -0.2665  0.6212
  627MOL0     H86462   6.551   5.885   3.330 -0.9755 -1.4470 -0.2537
  627MOL0     H86463   6.436   5.670   3.340 -0.9719  0.9887  0.7694
  627MOL0     H86464   6.537   5.622   3.478 -0.9630 -0.9068  0.8460
  627MOL0     H86465   6.445   5.826   3.604  1.1100  0.9178  0.1539
  627MOL0     H86466   6.330   5.858   3.474 -1.3765  0.4785  1.6383
  627MOL0     H86467   6.347   5.580   3.616  2.3642 -0.7488 -2.4577
  627MOL0     H86468   6.227   5.618   3.497  1.5769 -2.3275  0.0111
  627MOL0     H86469   6.259   5.793   3.738  1.7586 -1.7991  0.6058
  627MOL0     H86470   6.147   5.803   3.596 -0.4783 -1.1522 -1.0821
  627MOL0     H86471   6.172   5.593   3.822 -0.7164 -0.3731  0.8804
  627MOL0     H86472   6.050   5.597   3.681  1.4095  1.6935 -1.9078
  627MOL0     H86473   5.996   5.680   3.926  0.4483 -0.6982  0.1111
  627MOL0     H86474   6.075   5.818   3.895 -2.5866 -0.5814  4.7136
  627MOL0     H86475   5.994   5.988   3.688  0.3401 -0.0436 -1.3605
  627MOL0     H86476   5.690   5.974   3.471 -1.5944 -0.8231  1.7695
  627MOL0     H86477   5.849   6.061   3.494  0.0137  0.5361 -2.3100
  627MOL0     H86478   5.612   6.148   3.673 -1.1813  1.2495  0.5470
  627MOL0     H86479   5.759   6.228   3.664 -0.6282 -0.2307 -0.4727
  627MOL0     H86480   5.597   6.191   3.388 -1.4722  2.3397 -1.2108
  627MOL0     H86481   5.557   6.310   3.502 -0.3118  0.2555 -2.8507
  627MOL0     H86482   5.827   6.262   3.393  0.5012  1.1709 -3.0050
  627MOL0     H86483   5.709   6.379   3.324  0.1329 -0.0386  0.4665
  627MOL0     H86484   5.685   6.649   3.416  0.7033 -0.1178  0.4679
  627MOL0     H86485   5.762   6.942   3.316  0.5607 -2.0459  2.5223
  627MOL0     H86486   5.638   6.833   3.253  0.2539 -0.0740 -2.8099
  627MOL0     H86487   5.765   6.885   3.143  0.2231 -0.8476 -0.6624
  627MOL0     H86488   6.440   6.756   3.130  1.2698  0.2766  0.1232
  627MOL0     H86489   6.579   6.861   2.982 -0.3839  1.6512  0.8703
  627MOL0     H86490   6.475   6.980   2.588  2.6412  0.2384 -0.3064
  627MOL0     H86491   6.420   7.142   2.631 -0.6849 -0.9071 -0.0128
  627MOL0     H86492   6.616   7.158   2.485 -0.7668  0.3693 -0.6576
  627MOL0     H86493   6.653   7.211   2.645 -0.9955 -1.0041  1.0455
  627MOL0     H86494   6.696   6.927   2.522 -1.8172 -0.0706 -0.4844
  627MOL0     H86495   6.748   6.952   2.692 -1.0124  1.1367  1.2591
  627MOL0     H86496   6.910   7.127   2.645  1.3145 -2.1809  2.0813
  627MOL0     H86497   6.871   7.124   2.474  2.6239  0.8309  0.3846
  627MOL0     H86498   7.003   6.902   2.623  0.3116  2.7784  0.3942
  627MOL0     H86499   6.931   6.868   2.460 -0.6419 -1.1264  1.2906
  627MOL0     H86500   7.142   7.055   2.551 -3.0744  1.6148  0.5039
  627MOL0     H86501   7.056   7.088   2.393  1.7232  0.1962 -1.1611
  627MOL0     H86502   7.268   6.973   2.365 -1.0115  0.8769 -1.3602
  627MOL0     H86503   7.124   6.895   2.292 -2.9140 -0.5163  1.6606
  627MOL0     H86504   7.264   6.806   2.556 -2.6038 -1.1132  1.4183
  627MOL0     H86505   7.275   6.720   2.406  0.4376 -0.3362  1.1642
  627MOL0     H86506   6.261   7.024   2.768 -0.3991 -1.8533 -1.5066
  627MOL0     H86507   6.110   6.904   2.901 -0.1310  0.7369  1.2257
  627MOL0     H86508   6.148   6.590   3.271  1.8448  1.3306  2.7336
  627MOL0     H86509   6.050   6.445   3.443  0.6970  0.4491 -1.0440
  627MOL0     H86510   7.001   5.718   3.369 -0.6928  2.0138 -0.4884
  627MOL0     H86511   7.186   5.543   3.291 -0.1271 -0.0928 -0.6162
  627MOL0     H86512   7.440   5.344   3.094 -1.5456  0.6990 -0.3528
  627MOL0     H86513   7.609   5.230   3.021  1.9839 -0.5179 -0.2477
  627MOL0     H86514   7.612   4.794   2.872  2.4868 -1.1187 -2.9000
  627MOL0     H86515   7.518   4.892   2.755  0.5083 -2.5794 -0.8168
  627MOL0     H86516   7.728   4.812   2.669  1.2951 -0.5045  0.3044
  627MOL0     H86517   7.806   4.914   2.790  1.1395  0.3024 -2.1056
  627MOL0     H86518   7.635   5.105   2.656 -1.3768 -0.1449 -0.6725
  627MOL0     H86519   7.795   5.073   2.588 -1.2706  3.7176  1.8015
  627MOL0     H86520   7.573   4.887   2.501  1.1807 -1.7181  3.0928
  627MOL0     H86521   7.724   4.950   2.420  1.5787  4.3937 -0.0650
  627MOL0     H86522   7.454   5.245   2.322  0.1835  0.0094  1.3709
  627MOL0     H86523   7.352   4.899   2.932  0.0706  1.0414 -3.7649
  627MOL0     H86524   7.140   4.907   2.989  3.0632  1.0037 -1.1877
  627MOL0     H86525   7.054   5.032   3.091  2.3951 -1.8643  2.6166
  627MOL0     H86526   7.051   5.043   2.918  0.0789 -2.7659 -0.4003
  628MOL0     O86527   5.886   3.948   3.551  0.8138  0.1207  0.5716
  628MOL0     C86528   5.850   4.033   3.630  0.2213 -0.1561 -0.5168
  628MOL0     O86529   5.942   4.130   3.681  0.5988  0.2826  0.1423
  628MOL0     C86530   6.062   4.150   3.622  0.8661  0.1536  1.3372
  628MOL0     C86531   6.086   4.285   3.568  0.3082  0.7780 -0.0395
  628MOL0     C86532   6.199   4.318   3.498 -0.6053 -0.1969  0.6720
  628MOL0     C86533   6.298   4.213   3.480  0.3626 -0.2337  0.1130
  628MOL0     O86534   6.417   4.244   3.421 -0.0335  1.3397  0.2662
  628MOL0     C86535   6.493   4.343   3.490 -1.0258 -0.2371  0.6135
  628MOL0     C86536   6.645   4.348   3.450  0.0854 -0.0405  0.0430
  628MOL0     C86537   6.737   4.229   3.465  0.6072  0.0829  0.2157
  628MOL0     C86538   6.873   4.255   3.402  0.5877 -0.1609  0.8097
  628MOL0     C86539   6.999   4.214   3.483  1.0788  0.2242  1.2208
  628MOL0     C86540   7.117   4.307   3.455  0.0822 -0.1278 -1.1770
  628MOL0     C86541   7.173   4.314   3.320  0.0349 -0.5955 -0.1955
  628MOL0     C86542   7.205   4.194   3.246 -0.1618 -0.2627  0.3797
  628MOL0     N86543   7.208   4.222   3.103  0.3617  0.9536  0.2486
  628MOL0     C86544   7.307   4.290   3.038 -0.3885  1.0013  0.8036
  628MOL0     C86545   7.244   4.328   2.920 -0.0249  0.6809  0.6600
  628MOL0     C86546   7.314   4.378   2.802  1.1637  0.5364 -0.1424
  628MOL0     C86547   7.275   4.286   2.679 -0.2305 -0.4676  0.5585
  628MOL0     C86548   7.360   4.152   2.665 -0.7628 -0.5376  1.2102
  628MOL0     C86549   7.329   4.074   2.532  0.8608 -0.4956  0.1197
  628MOL0     O86550   7.373   4.144   2.412  0.4860  0.1586 -0.4496
  628MOL0     C86551   7.490   4.121   2.353  0.9801  1.2252  0.4185
  628MOL0     C86552   7.577   4.016   2.395  0.6012  0.2071  0.4331
  628MOL0     C86553   7.689   3.979   2.319 -0.4186  0.4868 -0.3804
  628MOL0     C86554   7.779   3.876   2.379  1.2821  0.6036 -0.0447
  628MOL0     C86555   7.717   4.052   2.198  0.8189  0.1301 -0.2009
  628MOL0     C86556   7.819   4.016   2.099  0.5884  0.0887  0.0827
  628MOL0     O86557   7.890   4.105   2.027 -0.2528 -0.7482  0.0810
  628MOL0     C86558   7.964   4.067   1.912 -0.9259 -0.0157  0.6090
  628MOL0     C86559   8.060   3.961   1.912 -0.4010 -0.1289  0.3160
  628MOL0     C86560   8.125   3.929   1.796 -1.2723  1.0353 -0.4524
  628MOL0     C86561   8.101   4.002   1.673  0.4668  0.6929 -0.4473
  628MOL0     O86562   8.168   3.957   1.561  0.1715  0.8195  0.1227
  628MOL0     C86563   8.102   3.963   1.438 -0.1358 -0.6662 -0.3458
  628MOL0     C86564   8.178   3.894   1.338 -0.3695  0.1274 -0.1976
  628MOL0     C86565   8.090   3.878   1.204  0.9398 -0.4260 -0.5798
  628MOL0     C86566   8.163   3.851   1.080  0.1904  0.0335  0.8439
  628MOL0     C86567   8.082   3.877   0.946  0.3555  0.1668  0.0697
  628MOL0     C86568   8.155   3.893   0.816  0.0113  0.0440 -0.1560
  628MOL0     C86569   8.247   3.765   0.791 -0.0305 -0.9629  0.5285
  628MOL0     C86570   8.175   3.667   0.685 -0.3954 -0.0104  0.1978
  628MOL0    Cl86571   8.301   3.586   0.577  0.2832  0.0041 -0.2377
  628MOL0     C86572   8.002   4.101   1.677  0.1901  0.1506  0.0845
  628MOL0     C86573   7.940   4.137   1.795  0.4775  0.0046 -0.1059
  628MOL0     O86574   7.820   3.897   2.072  0.2559  0.6941  0.9006
  628MOL0     C86575   7.634   4.159   2.166 -1.0613 -0.0589  0.0752
  628MOL0     C86576   7.518   4.191   2.237 -0.3957 -0.1604 -0.3655
  628MOL0     N86577   7.116   4.287   2.928  0.0790 -0.3353 -0.5054
  628MOL0     N86578   7.101   4.220   3.028 -0.0619  0.5604  0.0536
  628MOL0     C86579   6.282   4.083   3.522  0.3549 -0.1303 -0.3893
  628MOL0     C86580   6.158   4.057   3.592 -0.5907  0.2268  0.2533
  628MOL0     C86581   5.712   4.040   3.688  0.6021  0.3470  0.3996
  628MOL0     C86582   5.655   3.931   3.755  0.0153 -0.1053 -0.3960
  628MOL0     C86583   5.531   3.954   3.808 -0.4932 -0.1553 -0.3374
  628MOL0     C86584   5.458   4.074   3.801 -0.5156 -0.0659 -0.3045
  628MOL0     O86585   5.333   4.076   3.844 -0.0660  0.6651  0.3383
  628MOL0     C86586   5.245   4.194   3.842  0.2960  0.6923 -0.8719
  628MOL0     C86587   5.116   4.166   3.917 -1.1058 -0.4116  0.1511
  628MOL0     C86588   5.008   4.278   3.908 -0.0887 -0.6978  0.1327
  628MOL0     C86589   4.891   4.244   4.001 -0.1136  0.0171  0.1202
  628MOL0     C86590   4.810   4.140   3.952  0.5384  0.1298 -0.4603
  628MOL0     C86591   4.721   4.063   3.918  0.2308  0.1361  0.2983
  628MOL0     C86592   5.519   4.176   3.744  0.5278 -0.1719  0.3183
  628MOL0     C86593   5.651   4.172   3.695  0.0946  0.0934  0.5720
  628MOL0     C86594   5.705   4.302   3.639 -0.6724  0.6895  0.1864
  628MOL0     H86595   6.015   4.367   3.575  2.3871  2.4912  2.8879
  628MOL0     H86596   6.209   4.422   3.468 -1.5070  0.7245  3.3180
  628MOL0     H86597   6.488   4.339   3.600  2.7615  5.1054  1.3280
  628MOL0     H86598   6.450   4.438   3.457 -1.2570 -0.7431 -0.5707
  628MOL0     H86599   6.648   4.383   3.347 -3.8265  3.7841  0.9417
  628MOL0     H86600   6.696   4.426   3.507  0.3899  1.0239 -1.6122
  628MOL0     H86601   6.741   4.226   3.575  0.9677  1.9509  0.2956
  628MOL0     H86602   6.692   4.140   3.420  0.3104  0.2284  0.2250
  628MOL0     H86603   6.880   4.224   3.297  0.3645  4.0774 -0.6719
  628MOL0     H86604   6.885   4.364   3.408  1.7994 -0.2848  0.9594
  628MOL0     H86605   7.025   4.107   3.482 -0.0124 -0.0630  2.0582
  628MOL0     H86606   6.966   4.230   3.586  1.7891  2.0162  1.2030
  628MOL0     H86607   7.094   4.404   3.498 -2.1376 -1.4910  0.9546
  628MOL0     H86608   7.203   4.281   3.518 -1.5071 -0.8944  0.7791
  628MOL0     H86609   7.265   4.373   3.321  0.4189 -1.1515  1.6338
  628MOL0     H86610   7.091   4.370   3.274 -0.5869 -2.0795 -0.9440
  628MOL0     H86611   7.302   4.154   3.275 -0.2643 -0.9842 -0.2309
  628MOL0     H86612   7.133   4.112   3.257  0.6188 -1.2594 -1.4905
  628MOL0     H86613   7.411   4.316   3.060 -0.6953  0.9332  2.4624
  628MOL0     H86614   7.422   4.380   2.818  0.8689 -0.6017  2.5072
  628MOL0     H86615   7.280   4.482   2.800  1.1800  0.5647  0.8246
  628MOL0     H86616   7.170   4.257   2.675  0.0049 -1.3374  0.4423
  628MOL0     H86617   7.296   4.334   2.583  2.1766 -1.6323  0.4262
  628MOL0     H86618   7.468   4.167   2.676 -1.3087  2.5753  3.7736
  628MOL0     H86619   7.330   4.094   2.752 -2.9305 -2.4472 -0.6568
  628MOL0     H86620   7.359   3.968   2.530 -1.5357 -1.2476 -2.8550
  628MOL0     H86621   7.221   4.065   2.525  0.6784 -0.7404  2.4342
  628MOL0     H86622   7.546   3.961   2.483 -2.8121  2.9534  1.1673
  628MOL0     H86623   7.882   3.908   2.360  1.7363  0.2700  1.7145
  628MOL0     H86624   7.780   3.774   2.338 -0.8044  0.0708  1.1254
  628MOL0     H86625   7.763   3.871   2.487  0.6843 -0.3917 -0.1667
  628MOL0     H86626   8.099   3.905   1.996 -1.5526 -0.4401  0.6597
  628MOL0     H86627   8.193   3.847   1.818 -2.9583 -0.0918  0.7899
  628MOL0     H86628   8.008   3.906   1.436  0.5303 -1.8228  0.2362
  628MOL0     H86629   8.079   4.067   1.415  0.6414 -0.3283  0.3805
  628MOL0     H86630   8.272   3.934   1.300  0.0210 -3.0016 -2.9648
  628MOL0     H86631   8.202   3.793   1.373 -0.2228 -0.0971 -0.9284
  628MOL0     H86632   8.021   3.962   1.196  2.6863  1.3412  1.5956
  628MOL0     H86633   8.018   3.797   1.221  0.3767 -0.0641 -1.1548
  628MOL0     H86634   8.206   3.750   1.082  1.2041  0.4277 -0.0344
  628MOL0     H86635   8.252   3.914   1.082 -1.0636  1.9500 -0.6369
  628MOL0     H86636   8.004   3.800   0.943  0.6947 -0.1521 -1.7053
  628MOL0     H86637   8.033   3.973   0.960  1.1025  0.5753 -0.0480
  628MOL0     H86638   8.216   3.984   0.827  1.6992 -0.6932 -2.5684
  628MOL0     H86639   8.094   3.921   0.730  1.7855  1.1438 -1.1352
  628MOL0     H86640   8.283   3.718   0.883  1.0608  1.6178  1.5202
  628MOL0     H86641   8.343   3.796   0.749 -0.2198 -1.5087 -0.3321
  628MOL0     H86642   8.095   3.714   0.627  0.3936 -1.0205 -1.7884
  628MOL0     H86643   8.125   3.584   0.735 -0.3470 -1.7484 -2.4752
  628MOL0     H86644   7.988   4.157   1.585  0.0091 -0.1708 -0.0876
  628MOL0     H86645   7.868   4.218   1.807 -1.6719 -1.2107 -3.3897
  628MOL0     H86646   7.661   4.218   2.079  0.3394 -0.6647  0.0772
  628MOL0     H86647   7.453   4.273   2.207  0.5077  0.9389  0.6195
  628MOL0     H86648   6.360   4.013   3.492  1.1135  0.1328  0.9136
  628MOL0     H86649   6.131   3.953   3.600 -2.5507  0.7477  0.9490
  628MOL0     H86650   5.705   3.835   3.762  1.6247  0.6778 -0.6805
  628MOL0     H86651   5.487   3.869   3.859  1.4366 -1.0677 -0.1006
  628MOL0     H86652   5.293   4.286   3.876 -3.6410  2.1707  1.4295
  628MOL0     H86653   5.210   4.202   3.739 -0.6628 -1.9409 -0.8330
  628MOL0     H86654   5.147   4.151   4.021  1.2223 -0.9285 -0.5455
  628MOL0     H86655   5.075   4.075   3.873  1.1359 -1.1353 -0.5934
  628MOL0     H86656   5.039   4.376   3.945 -0.3030 -1.4795  2.5587
  628MOL0     H86657   4.970   4.279   3.806  1.0894 -1.0093 -0.3260
  628MOL0     H86658   4.817   4.324   4.007  0.4235  0.4777  0.7194
  628MOL0     H86659   4.922   4.231   4.105  1.8407  2.2701 -0.1105
  628MOL0     H86660   4.640   3.998   3.891 -0.0153  1.9448 -4.3079
  628MOL0     H86661   5.464   4.270   3.746  0.0759 -0.2792 -2.7841
  628MOL0     H86662   5.644   4.383   3.599  1.5156  3.6167  2.2876
  628MOL0     H86663   5.751   4.343   3.730 -0.0054 -2.1970  1.2442
  628MOL0     H86664   5.780   4.285   3.561  0.4292  1.0459  1.1407
  629MOL0     O86665   3.201   3.009   5.545  0.3427 -0.2606 -0.1665
  629MOL0     C86666   3.114   3.092   5.522  0.6412  0.1826  0.2219
  629MOL0     O86667   3.010   3.126   5.612 -0.1706  0.0945  0.4051
  629MOL0     C86668   3.029   3.066   5.735 -0.0271  0.8260  0.2477
  629MOL0     C86669   2.915   3.004   5.794 -1.2378 -0.0227 -0.4017
  629MOL0     C86670   2.928   2.935   5.914 -0.7870 -0.6166 -0.1048
  629MOL0     C86671   3.054   2.920   5.967 -0.0952  0.6149 -0.2450
  629MOL0     O86672   3.093   2.836   6.064  0.6518 -0.0791  0.6216
  629MOL0     C86673   3.021   2.719   6.077  0.1328  0.1559 -0.9434
  629MOL0     C86674   3.081   2.622   6.169  0.4193  0.1706 -0.1886
  629MOL0     C86675   2.986   2.513   6.198  0.1110  0.0262 -0.3291
  629MOL0     C86676   3.065   2.379   6.222  0.0804 -0.7326 -0.2598
  629MOL0     C86677   2.969   2.262   6.236  0.3610  0.8419 -0.0044
  629MOL0     C86678   2.863   2.268   6.345  0.3630 -0.3887  0.4469
  629MOL0     C86679   2.787   2.134   6.336  0.4564 -0.4509  0.8023
  629MOL0     C86680   2.636   2.135   6.326  0.0439 -0.3205  0.4614
  629MOL0     N86681   2.598   2.212   6.200  0.6419 -0.4508  0.3012
  629MOL0     C86682   2.485   2.295   6.200  0.2725 -0.0387 -0.2013
  629MOL0     C86683   2.467   2.321   6.068  0.7014  1.0158  0.8865
  629MOL0     C86684   2.345   2.381   6.010  0.9808 -0.0658 -0.4236
  629MOL0     C86685   2.329   2.377   5.864  0.6725 -0.7045 -0.6469
  629MOL0     C86686   2.226   2.489   5.826 -1.1162 -0.1870 -0.3865
  629MOL0     C86687   2.087   2.483   5.898 -0.4535  0.5685 -0.0170
  629MOL0     O86688   2.007   2.604   5.865  0.8804 -0.2385  0.2894
  629MOL0     C86689   1.870   2.578   5.848 -0.1391  0.2757  0.6495
  629MOL0     C86690   1.783   2.648   5.917 -0.2571 -0.8251  0.6104
  629MOL0     C86691   1.645   2.623   5.926 -1.0823  0.4084  0.3935
  629MOL0     C86692   1.560   2.715   6.013 -0.3800 -0.2244  0.6548
  629MOL0     C86693   1.596   2.512   5.860  0.7589 -0.5943  0.8504
  629MOL0     C86694   1.459   2.470   5.874 -0.0392 -0.0967 -0.0755
  629MOL0     O86695   1.430   2.338   5.873  1.0066  0.2067 -0.7393
  629MOL0     C86696   1.302   2.284   5.901  0.2178 -0.0052  0.2386
  629MOL0     C86697   1.276   2.159   5.858 -0.8424 -0.1667 -1.6536
  629MOL0     C86698   1.149   2.099   5.868  0.2019 -0.1719 -1.5625
  629MOL0     C86699   1.044   2.168   5.914  0.4705 -0.4655 -0.6695
  629MOL0     O86700   0.915   2.120   5.898  0.2148 -0.1607 -0.8503
  629MOL0     C86701   0.809   2.172   5.980 -0.2310  0.7667 -0.7519
  629MOL0     C86702   0.702   2.072   5.938 -0.3073 -0.1983  0.3073
  629MOL0     C86703   0.722   1.930   5.970  0.7883 -0.3239  1.3321
  629MOL0     C86704   0.721   1.897   6.112  0.2014 -0.6822 -0.1676
  629MOL0     C86705   0.585   1.921   6.180 -0.1545  0.1909 -0.2273
  629MOL0     C86706   0.602   1.885   6.325 -0.0874  0.8396 -0.2887
  629MOL0     C86707   0.463   1.863   6.379 -0.0169  0.9380  0.4740
  629MOL0     C86708   0.466   1.842   6.536  0.5616  0.6287 -0.1734
  629MOL0    Cl86709   0.320   1.787   6.613  0.2625  0.2080  0.2341
  629MOL0     C86710   1.065   2.297   5.975 -0.6896  0.0172  0.0969
  629MOL0     C86711   1.192   2.356   5.953  0.1124  1.1292  1.2961
  629MOL0     O86712   1.376   2.561   5.877  0.3480 -0.6007 -0.0422
  629MOL0     C86713   1.682   2.437   5.784  0.2128 -0.8001  0.0972
  629MOL0     C86714   1.821   2.466   5.768 -0.1009 -0.5183  0.1740
  629MOL0     N86715   2.568   2.272   5.991 -0.5824  0.0828 -0.2877
  629MOL0     N86716   2.652   2.214   6.073  0.1451 -0.0478  0.1520
  629MOL0     C86717   3.165   2.998   5.915  0.0237 -0.3754  0.6482
  629MOL0     C86718   3.147   3.084   5.799  0.0457 -0.2962 -0.1688
  629MOL0     C86719   3.115   3.134   5.384  0.7298 -0.0779 -0.3546
  629MOL0     C86720   3.003   3.123   5.307  0.0568 -1.1311  0.1221
  629MOL0     C86721   3.007   3.159   5.168 -0.8134 -0.7723  0.4414
  629MOL0     C86722   3.127   3.199   5.113  0.6767 -0.1571 -0.1699
  629MOL0     O86723   3.127   3.224   4.980  0.5662 -0.0105  0.1673
  629MOL0     C86724   3.070   3.341   4.925  0.0228 -0.4137 -0.2712
  629MOL0     C86725   3.127   3.344   4.782  0.9346  0.0457  0.1367
  629MOL0     C86726   3.152   3.483   4.724  0.3723  0.5869  0.9943
  629MOL0     C86727   3.017   3.561   4.705  0.0442 -0.1960  0.3159
  629MOL0     C86728   2.946   3.535   4.578  0.5228  0.6416 -1.4418
  629MOL0     C86729   2.860   3.512   4.499  0.9444  0.2165 -0.8707
  629MOL0     C86730   3.240   3.201   5.188  0.1388  0.7059 -0.3435
  629MOL0     C86731   3.243   3.164   5.320  0.2233 -0.0546  0.5181
  629MOL0     C86732   3.376   3.182   5.389  0.6784 -0.1502 -1.0722
  629MOL0     H86733   2.824   2.996   5.736 -1.6010 -1.3509  0.2842
  629MOL0     H86734   2.848   2.883   5.967 -0.9313  1.3205  1.6811
  629MOL0     H86735   3.019   2.672   5.978  1.9079 -0.0074 -0.9401
  629MOL0     H86736   2.921   2.746   6.112  0.4139  1.1364 -0.8549
  629MOL0     H86737   3.164   2.592   6.105  1.3096 -0.6368  1.2817
  629MOL0     H86738   3.114   2.666   6.264 -1.7487 -1.8345  1.6502
  629MOL0     H86739   2.919   2.537   6.281 -1.8603  1.7105 -2.2706
  629MOL0     H86740   2.927   2.497   6.107 -0.0244 -0.9815 -0.0768
  629MOL0     H86741   3.125   2.349   6.136 -2.8050  1.8179 -3.4447
  629MOL0     H86742   3.133   2.399   6.305  1.5792  1.4000 -1.9034
  629MOL0     H86743   3.019   2.166   6.253 -1.6460 -0.1090  0.9199
  629MOL0     H86744   2.922   2.255   6.138  0.9085 -2.4012 -0.1382
  629MOL0     H86745   2.914   2.289   6.440  1.1871  0.9632 -0.2571
  629MOL0     H86746   2.787   2.343   6.323  1.7764  0.3812 -2.2390
  629MOL0     H86747   2.823   2.083   6.426  2.6256  0.6111  0.5994
  629MOL0     H86748   2.826   2.073   6.253 -0.6976 -0.7690  0.4798
  629MOL0     H86749   2.595   2.035   6.310 -1.2030  0.3234 -0.6011
  629MOL0     H86750   2.574   2.171   6.408 -2.3831  3.4837 -2.6559
  629MOL0     H86751   2.432   2.333   6.287 -2.9590 -1.4677 -1.3810
  629MOL0     H86752   2.358   2.482   6.049  0.5488  0.6690 -2.1164
  629MOL0     H86753   2.259   2.338   6.062  1.2085  1.8238  1.6696
  629MOL0     H86754   2.421   2.398   5.808  0.3222  1.1131 -0.5778
  629MOL0     H86755   2.287   2.285   5.822 -4.3039  1.4870 -1.1542
  629MOL0     H86756   2.275   2.584   5.851  1.3155 -2.0060  2.5459
  629MOL0     H86757   2.221   2.475   5.718  0.6004 -0.6725 -0.4377
  629MOL0     H86758   2.048   2.385   5.871  0.5328 -0.5461  2.3828
  629MOL0     H86759   2.096   2.484   6.007 -1.2822  2.4579  0.0723
  629MOL0     H86760   1.809   2.744   5.960 -1.2427 -1.3078  2.3799
  629MOL0     H86761   1.480   2.672   6.074 -2.4004 -0.9092 -2.2710
  629MOL0     H86762   1.514   2.789   5.947 -0.7582 -2.0881 -1.2928
  629MOL0     H86763   1.620   2.780   6.076 -0.9040  1.6588 -0.6960
  629MOL0     H86764   1.355   2.098   5.815  1.6510  1.2098  0.7031
  629MOL0     H86765   1.137   2.003   5.820  1.8789  0.2861 -3.0309
  629MOL0     H86766   0.836   2.170   6.086  0.5800 -1.4280 -0.9417
  629MOL0     H86767   0.783   2.275   5.957  0.2353  1.1003  0.1634
  629MOL0     H86768   0.607   2.105   5.981 -2.5790 -0.0077 -4.2562
  629MOL0     H86769   0.695   2.091   5.830 -0.2802 -1.9261 -0.0218
  629MOL0     H86770   0.818   1.890   5.937  1.0878 -1.1274  3.0742
  629MOL0     H86771   0.649   1.876   5.909  0.9559  1.0036 -0.1136
  629MOL0     H86772   0.796   1.953   6.169 -0.1199 -0.6052  0.1944
  629MOL0     H86773   0.753   1.794   6.127  0.9798 -0.2066  1.8554
  629MOL0     H86774   0.554   2.025   6.164  1.3887  0.8800  1.1009
  629MOL0     H86775   0.514   1.848   6.138 -0.2357  1.6989 -2.9615
  629MOL0     H86776   0.658   1.956   6.386  2.7743 -0.1816 -1.5588
  629MOL0     H86777   0.651   1.787   6.328 -1.3062  0.1365 -1.8254
  629MOL0     H86778   0.417   1.772   6.339  2.1952 -0.6116  1.2085
  629MOL0     H86779   0.397   1.945   6.352 -0.5414  0.2850 -0.2751
  629MOL0     H86780   0.490   1.940   6.577  0.4878  0.0349  1.3343
  629MOL0     H86781   0.549   1.775   6.558 -0.7815 -2.1416 -2.6764
  629MOL0     H86782   0.988   2.351   6.028  1.4066  1.8441  1.4591
  629MOL0     H86783   1.208   2.457   5.991 -0.6803  1.3833  0.9763
  629MOL0     H86784   1.638   2.361   5.722 -0.8361  0.9530 -1.4158
  629MOL0     H86785   1.889   2.420   5.698 -1.0326 -0.9870 -0.4440
  629MOL0     H86786   3.260   2.986   5.966 -0.0619 -1.8647  0.5236
  629MOL0     H86787   3.225   3.152   5.764 -0.2308  0.6365  0.9818
  629MOL0     H86788   2.912   3.104   5.365  1.4416  3.4656  4.6053
  629MOL0     H86789   2.915   3.164   5.111 -1.6498  1.1073  1.8178
  629MOL0     H86790   2.962   3.354   4.920  0.1513  3.5724  2.5893
  629MOL0     H86791   3.106   3.427   4.982 -1.8823 -1.2049  2.2880
  629MOL0     H86792   3.061   3.287   4.716  3.0814 -2.7333  0.2310
  629MOL0     H86793   3.213   3.277   4.778  1.2357  0.3990  0.6266
  629MOL0     H86794   3.234   3.533   4.776 -0.1923  2.6358 -0.0045
  629MOL0     H86795   3.194   3.458   4.626  1.8602 -0.2959  1.8035
  629MOL0     H86796   3.033   3.669   4.710 -0.3114 -0.1841  4.1872
  629MOL0     H86797   2.956   3.546   4.795 -2.3393 -0.9230 -1.3065
  629MOL0     H86798   2.788   3.513   4.420 -1.0746 -0.4878  0.8692
  629MOL0     H86799   3.328   3.225   5.128  0.8660  0.6369  0.6743
  629MOL0     H86800   3.452   3.237   5.332  0.6969 -0.3531 -1.2458
  629MOL0     H86801   3.361   3.240   5.480  3.5449  0.3326 -0.7873
  629MOL0     H86802   3.416   3.088   5.428 -1.1319 -0.2955  0.5680
  630MOL0     O86803   6.396   4.707   1.155  0.0704  0.3707 -1.4660
  630MOL0     C86804   6.315   4.743   1.069 -0.0302 -0.8389  0.2380
  630MOL0     O86805   6.255   4.666   0.982  0.0362  0.5947 -0.7510
  630MOL0     C86806   6.257   4.531   1.012 -0.6467 -0.2668 -0.1212
  630MOL0     C86807   6.158   4.475   1.092  0.5316 -0.7288  0.0344
  630MOL0     C86808   6.149   4.338   1.104  0.0295 -0.4904  0.8993
  630MOL0     C86809   6.237   4.250   1.033  0.1211 -0.1166 -0.3765
  630MOL0     O86810   6.205   4.119   1.027  1.0106  0.3142 -0.0269
  630MOL0     C86811   6.168   4.039   1.140  0.6687 -0.0325  0.9974
  630MOL0     C86812   6.139   3.895   1.084 -0.2126 -0.2133  0.2044
  630MOL0     C86813   6.179   3.779   1.186 -0.4325 -0.3246  0.6912
  630MOL0     C86814   6.323   3.751   1.142 -0.5798  0.3281  0.1603
  630MOL0     C86815   6.409   3.663   1.240 -0.4326 -0.8963 -0.5687
  630MOL0     C86816   6.349   3.526   1.273  0.4462  1.0811 -0.5585
  630MOL0     C86817   6.453   3.444   1.364  0.1816 -0.6494 -0.1903
  630MOL0     C86818   6.372   3.368   1.474  0.1696 -0.6303 -0.3889
  630MOL0     N86819   6.446   3.293   1.578  0.3161 -0.2677  0.7268
  630MOL0     C86820   6.417   3.170   1.612 -0.4481  0.0024 -0.5097
  630MOL0     C86821   6.459   3.149   1.735 -0.3749 -0.2362  0.3191
  630MOL0     C86822   6.471   3.019   1.809 -0.1752  1.0136 -0.4355
  630MOL0     C86823   6.602   3.006   1.892 -0.8539  0.0364  0.7299
  630MOL0     C86824   6.727   3.020   1.809 -0.3379 -0.4460 -0.1452
  630MOL0     C86825   6.842   3.019   1.913 -0.4977  0.8943  1.0414
  630MOL0     O86826   6.962   3.045   1.843 -0.0206  1.0858  0.2597
  630MOL0     C86827   7.081   3.065   1.908  0.2960 -0.0091  0.2094
  630MOL0     C86828   7.177   3.135   1.840 -0.1178 -0.3794  0.3915
  630MOL0     C86829   7.306   3.158   1.895  0.2486  0.6324 -0.3624
  630MOL0     C86830   7.396   3.241   1.832 -0.5133  0.0293  0.4604
  630MOL0     C86831   7.342   3.091   2.015 -1.1341 -0.5875 -0.3630
  630MOL0     C86832   7.483   3.093   2.077  0.6421 -0.0320 -0.1176
  630MOL0     O86833   7.587   3.122   1.997 -0.2947 -0.2264  0.0114
  630MOL0     C86834   7.721   3.143   2.045  0.7930 -0.4982 -1.0579
  630MOL0     C86835   7.774   3.273   2.047  0.0754 -0.3426  0.0066
  630MOL0     C86836   7.906   3.303   2.094  1.1534  0.3232 -0.5246
  630MOL0     C86837   7.985   3.194   2.106 -0.0567  0.3692  0.2486
  630MOL0     O86838   8.117   3.215   2.131  0.0812  0.4638  0.4064
  630MOL0     C86839   8.190   3.302   2.041  0.0550  0.8086 -0.2882
  630MOL0     C86840   8.225   3.433   2.110 -0.2800 -1.4674 -0.6238
  630MOL0     C86841   8.270   3.543   2.016 -0.2392 -0.1239  0.9197
  630MOL0     C86842   8.391   3.498   1.930 -0.0586  0.5872  0.2952
  630MOL0     C86843   8.471   3.609   1.873 -0.3237 -0.5128 -1.3569
  630MOL0     C86844   8.584   3.551   1.787 -0.1040 -0.1978 -0.5899
  630MOL0     C86845   8.643   3.419   1.828 -0.6786  0.5093  0.1393
  630MOL0     C86846   8.766   3.368   1.745  0.8989 -0.8131 -0.1645
  630MOL0    Cl86847   8.804   3.201   1.810 -0.1312 -0.0332 -0.1253
  630MOL0     C86848   7.933   3.064   2.098 -0.1470 -0.5612 -0.1955
  630MOL0     C86849   7.796   3.033   2.080 -0.0609 -0.3608 -0.6533
  630MOL0     O86850   7.490   3.056   2.195  0.3675  0.4350  0.4570
  630MOL0     C86851   7.241   3.018   2.091  0.1139  0.4294 -0.1621
  630MOL0     C86852   7.119   3.012   2.031  0.6677  0.4114 -0.2841
  630MOL0     N86853   6.495   3.269   1.788 -0.1908  0.0401  0.2906
  630MOL0     N86854   6.484   3.363   1.695 -0.4904  0.3608 -0.2736
  630MOL0     C86855   6.327   4.306   0.947  0.2903 -0.0277  0.0199
  630MOL0     C86856   6.348   4.444   0.939  0.1466 -0.3034 -0.3603
  630MOL0     C86857   6.269   4.880   1.080  0.3361 -1.3877 -0.2175
  630MOL0     C86858   6.377   4.972   1.117 -0.0612  0.4172 -0.4144
  630MOL0     C86859   6.351   5.104   1.115  0.5257 -0.3748  0.0647
  630MOL0     C86860   6.224   5.153   1.067  0.8111 -0.9892 -0.2029
  630MOL0     O86861   6.193   5.282   1.063 -0.6659  0.3692 -0.0930
  630MOL0     C86862   6.295   5.376   1.091 -0.3408  0.2173  0.1175
  630MOL0     C86863   6.405   5.382   0.986 -0.3569  0.1408  1.0820
  630MOL0     C86864   6.515   5.490   1.015  0.9771 -0.1952  0.0242
  630MOL0     C86865   6.570   5.478   1.157 -1.0258  0.2926  0.4949
  630MOL0     C86866   6.648   5.355   1.186  0.4436 -0.8437 -0.3222
  630MOL0     C86867   6.698   5.254   1.227 -0.4570  0.0201  0.0995
  630MOL0     C86868   6.127   5.063   1.042  0.5050  0.9896 -0.5843
  630MOL0     C86869   6.142   4.925   1.043 -0.4884  0.2669  0.5759
  630MOL0     C86870   6.020   4.841   0.997 -0.0976  0.1466 -0.4228
  630MOL0     H86871   6.087   4.540   1.141 -0.8452 -1.5272 -0.8498
  630MOL0     H86872   6.075   4.301   1.174  0.0233 -0.2140  1.0411
  630MOL0     H86873   6.082   4.071   1.198  1.2063  2.8030  0.3684
  630MOL0     H86874   6.257   4.039   1.204  0.1797 -2.6330  1.7966
  630MOL0     H86875   6.032   3.881   1.070 -0.1680 -1.5910  1.0508
  630MOL0     H86876   6.189   3.884   0.988  0.0593 -0.7626  0.4044
  630MOL0     H86877   6.166   3.816   1.288 -2.3537 -0.2093  0.4339
  630MOL0     H86878   6.116   3.691   1.168 -0.6647  0.4037 -2.8083
  630MOL0     H86879   6.307   3.703   1.045 -2.3019  1.7352 -0.3022
  630MOL0     H86880   6.384   3.842   1.139  1.2967 -0.8171  1.5017
  630MOL0     H86881   6.427   3.715   1.334  2.4696 -1.9262 -0.4802
  630MOL0     H86882   6.507   3.651   1.194 -0.3823  0.0150 -0.7055
  630MOL0     H86883   6.252   3.536   1.323 -1.5663  3.8549 -4.5208
  630MOL0     H86884   6.329   3.463   1.186 -1.6584  0.8078  0.0641
  630MOL0     H86885   6.515   3.516   1.419 -0.7692  0.9342 -1.1031
  630MOL0     H86886   6.511   3.371   1.307  1.1873 -0.4528  0.5485
  630MOL0     H86887   6.319   3.440   1.537 -0.9312 -0.9036 -0.9632
  630MOL0     H86888   6.298   3.301   1.428 -1.0722  0.9103 -0.7338
  630MOL0     H86889   6.366   3.099   1.548 -2.3615 -1.1274  2.0536
  630MOL0     H86890   6.485   2.936   1.739 -1.4421 -0.0374  0.4871
  630MOL0     H86891   6.383   2.994   1.870 -1.0969  1.7336 -1.4390
  630MOL0     H86892   6.583   3.085   1.965 -0.9756  0.8832 -0.2055
  630MOL0     H86893   6.611   2.916   1.954 -0.4205 -0.4259  0.0106
  630MOL0     H86894   6.738   2.936   1.740  2.7743  0.4504 -0.9037
  630MOL0     H86895   6.734   3.112   1.750  0.1838 -1.1040 -1.1351
  630MOL0     H86896   6.820   3.089   1.994 -0.7072  1.5997  0.3882
  630MOL0     H86897   6.844   2.922   1.963  0.2592  0.6986  0.6433
  630MOL0     H86898   7.137   3.170   1.745 -2.3981 -0.5689  1.2093
  630MOL0     H86899   7.455   3.285   1.913 -0.7859 -0.1418  0.7529
  630MOL0     H86900   7.349   3.321   1.772  0.0164  0.7012  0.9255
  630MOL0     H86901   7.465   3.177   1.777  0.9479  3.4993 -2.1245
  630MOL0     H86902   7.704   3.345   2.005  0.7928 -1.5800 -3.6386
  630MOL0     H86903   7.938   3.406   2.104  1.6386 -0.0012  2.0114
  630MOL0     H86904   8.282   3.251   2.011  0.2751 -1.7025  3.9053
  630MOL0     H86905   8.133   3.312   1.948  1.4908  1.7150 -1.1088
  630MOL0     H86906   8.146   3.467   2.178 -0.8668 -3.2701 -0.3530
  630MOL0     H86907   8.318   3.423   2.165  1.5688  2.6952 -2.5232
  630MOL0     H86908   8.291   3.635   2.070 -1.0211  0.5431  0.1162
  630MOL0     H86909   8.185   3.564   1.950 -0.1381  2.7110  1.5657
  630MOL0     H86910   8.364   3.434   1.846  2.0175  0.6759 -0.4950
  630MOL0     H86911   8.460   3.439   1.992 -1.4592 -2.1606 -0.6086
  630MOL0     H86912   8.405   3.653   1.798 -0.1239  1.2400 -0.5528
  630MOL0     H86913   8.520   3.676   1.944  1.3913  1.6464 -4.3370
  630MOL0     H86914   8.658   3.632   1.788 -1.3505  1.0066  1.6086
  630MOL0     H86915   8.541   3.525   1.690 -0.0766  1.1475 -0.9768
  630MOL0     H86916   8.563   3.347   1.809 -1.1843  1.1897 -0.3592
  630MOL0     H86917   8.666   3.422   1.935 -3.7809 -0.0683  0.9212
  630MOL0     H86918   8.845   3.438   1.774 -1.3266  0.5469  3.3420
  630MOL0     H86919   8.757   3.363   1.636  2.8438 -0.6965 -0.3640
  630MOL0     H86920   7.993   2.984   2.141  2.3803  1.3423  0.0629
  630MOL0     H86921   7.758   2.931   2.077  1.7050 -1.0293 -1.5387
  630MOL0     H86922   7.252   2.982   2.193 -3.4632 -1.9553 -0.4382
  630MOL0     H86923   7.039   2.960   2.083  1.5983  1.2293  2.1234
  630MOL0     H86924   6.371   4.243   0.870  1.6695  0.4076  0.4263
  630MOL0     H86925   6.431   4.476   0.876  0.3834 -2.6062 -1.3071
  630MOL0     H86926   6.464   4.930   1.166 -1.5704 -1.8078  0.5150
  630MOL0     H86927   6.422   5.176   1.155 -3.0418  3.4190  0.2697
  630MOL0     H86928   6.248   5.473   1.075 -1.3284  0.0245  1.6099
  630MOL0     H86929   6.331   5.362   1.194  1.6342 -2.7603 -0.8362
  630MOL0     H86930   6.371   5.400   0.884  6.6267  1.7453 -1.5316
  630MOL0     H86931   6.448   5.282   0.976  1.8457  1.1600 -0.3047
  630MOL0     H86932   6.607   5.484   0.955 -0.1437  1.6072 -2.0347
  630MOL0     H86933   6.465   5.582   0.982  0.0853 -1.5166 -2.5642
  630MOL0     H86934   6.493   5.489   1.234 -1.7349 -3.1832  0.4130
  630MOL0     H86935   6.642   5.560   1.174 -0.7364  0.0264  0.5643
  630MOL0     H86936   6.740   5.163   1.265 -0.7260  0.0620  0.5079
  630MOL0     H86937   6.034   5.113   1.019  0.4962  2.1120  1.5784
  630MOL0     H86938   5.934   4.905   1.019  2.0796  2.6356  1.4772
  630MOL0     H86939   6.042   4.816   0.893  2.5964 -1.6679  0.4737
  630MOL0     H86940   6.002   4.745   1.046  1.7753  0.4558  0.9619
  631MOL0     O86941   8.302   3.444   6.384  0.4778 -0.1981  0.1595
  631MOL0     C86942   8.271   3.552   6.432  0.3987 -0.2147  0.6341
  631MOL0     O86943   8.356   3.625   6.517  0.2597 -0.6133  0.1794
  631MOL0     C86944   8.490   3.620   6.524 -0.6154  0.6782  0.9783
  631MOL0     C86945   8.549   3.643   6.647  0.6729 -1.1411 -0.4757
  631MOL0     C86946   8.682   3.650   6.674  0.3463  0.6302 -0.7308
  631MOL0     C86947   8.769   3.624   6.572  0.4905 -0.3807 -0.0918
  631MOL0     O86948   8.900   3.644   6.594 -1.0526  0.1829  0.4806
  631MOL0     C86949   8.961   3.523   6.642 -0.2807 -0.0645  0.2656
  631MOL0     C86950   9.097   3.560   6.677 -0.4304 -0.0742  0.1676
  631MOL0     C86951   9.186   3.576   6.554 -0.7043 -0.1708  0.0505
  631MOL0     C86952   9.334   3.594   6.598 -0.1577 -0.5390 -0.1745
  631MOL0     C86953   9.391   3.474   6.662 -0.2845 -0.5111  1.1522
  631MOL0     C86954   9.545   3.481   6.635 -0.3007 -1.6976 -0.2573
  631MOL0     C86955   9.619   3.389   6.723 -1.2830  0.2309  0.8277
  631MOL0     C86956   9.588   3.240   6.683 -0.4788  0.0031  0.4523
  631MOL0     N86957   9.673   3.156   6.772  0.3022 -0.3126 -0.1023
  631MOL0     C86958   9.649   3.114   6.904 -0.0860  0.3334  0.0364
  631MOL0     C86959   9.756   3.040   6.930 -0.7230 -0.1002 -0.5266
  631MOL0     C86960   9.789   2.973   7.055 -0.5344  0.3232 -0.0064
  631MOL0     C86961   9.696   2.854   7.078 -0.8107  0.3339  0.5077
  631MOL0     C86962   9.743   2.741   7.178 -0.2247 -1.4098  0.5244
  631MOL0     C86963   9.635   2.633   7.192 -1.3834 -0.7470  0.4873
  631MOL0     O86964   9.612   2.595   7.328 -0.5110 -0.4442 -0.1360
  631MOL0     C86965   9.494   2.625   7.391 -0.2790 -0.1804 -0.1268
  631MOL0     C86966   9.451   2.539   7.491 -0.2733 -0.1742 -0.6320
  631MOL0     C86967   9.331   2.559   7.560  0.3163 -0.7699  0.2729
  631MOL0     C86968   9.293   2.465   7.671  0.3398 -0.0421  0.0748
  631MOL0     C86969   9.244   2.664   7.515 -1.3971 -0.4459 -0.3215
  631MOL0     C86970   9.118   2.697   7.582  0.8111  1.7111  0.0333
  631MOL0     O86971   9.038   2.763   7.492  0.3480  0.5132  0.7200
  631MOL0     C86972   8.924   2.816   7.547 -0.6185 -0.8777  0.2956
  631MOL0     C86973   8.930   2.958   7.574  0.5402  0.8257 -0.0397
  631MOL0     C86974   8.813   3.027   7.629  0.0539 -0.1670  0.7418
  631MOL0     C86975   8.691   2.946   7.652  0.1558 -0.0636 -0.4613
  631MOL0     O86976   8.583   3.006   7.703  0.5567  0.1233  0.0394
  631MOL0     C86977   8.457   2.930   7.720 -1.3422  0.6418 -0.5584
  631MOL0     C86978   8.341   3.015   7.746  0.3676 -0.6583  0.8497
  631MOL0     C86979   8.327   3.085   7.883 -0.3981  0.4385  0.1392
  631MOL0     C86980   8.189   3.153   7.898 -1.3398  0.1058  0.8763
  631MOL0     C86981   8.206   3.245   8.015  0.3996 -0.7815 -0.0767
  631MOL0     C86982   8.085   3.335   8.053 -0.7516 -0.6543  0.0488
  631MOL0     C86983   8.115   3.427   8.160 -0.4568 -0.6845 -1.3542
  631MOL0     C86984   7.999   3.515   8.207  0.2581 -0.5689  0.5428
  631MOL0    Cl86985   8.089   3.664   8.262 -0.6902 -0.0961  0.4212
  631MOL0     C86986   8.692   2.803   7.622  0.0829 -0.7225 -0.0469
  631MOL0     C86987   8.816   2.747   7.585  0.7994  1.1877 -0.3278
  631MOL0     O86988   9.102   2.697   7.708  0.3459 -0.3869  1.5727
  631MOL0     C86989   9.288   2.747   7.412 -0.9445  0.4998  0.2684
  631MOL0     C86990   9.415   2.734   7.358 -1.0778 -0.3769 -0.1171
  631MOL0     N86991   9.841   3.028   6.823 -0.3034 -0.0408 -0.2711
  631MOL0     N86992   9.796   3.112   6.733 -0.3942  0.4939  0.5456
  631MOL0     C86993   8.712   3.604   6.445 -0.3569  0.0411 -0.1224
  631MOL0     C86994   8.577   3.601   6.415  1.0071 -0.1664 -0.4354
  631MOL0     C86995   8.134   3.609   6.403 -0.5278 -0.3889  0.0268
  631MOL0     C86996   8.090   3.706   6.496  0.0451 -0.6821  0.3957
  631MOL0     C86997   7.971   3.779   6.468  1.3370  0.6483  0.4243
  631MOL0     C86998   7.902   3.754   6.350 -0.7186  0.3235  0.5042
  631MOL0     O86999   7.791   3.820   6.308 -0.5796 -0.1801  0.4495
  631MOL0     C87000   7.771   3.951   6.354  1.1258  0.5120  0.1293
  631MOL0     C87001   7.660   3.997   6.250 -0.3635  0.4987 -0.3672
  631MOL0     C87002   7.644   4.155   6.259  0.2396 -0.2859  0.0275
  631MOL0     C87003   7.510   4.190   6.198  0.4694  0.2913  0.4295
  631MOL0     C87004   7.473   4.324   6.243  0.0749  0.2047  0.4749
  631MOL0     C87005   7.450   4.434   6.292  1.0570  0.3403  0.4449
  631MOL0     C87006   7.949   3.653   6.264 -0.2209  1.6139 -0.2427
  631MOL0     C87007   8.057   3.570   6.292  0.6754  0.2362 -0.5434
  631MOL0     C87008   8.078   3.448   6.198 -0.9152 -0.4636  0.1439
  631MOL0     H87009   8.489   3.680   6.730  4.5403  2.0780  1.2220
  631MOL0     H87010   8.721   3.668   6.773 -0.2053 -0.5516 -0.2791
  631MOL0     H87011   8.946   3.447   6.565 -1.0814  0.2184  0.1316
  631MOL0     H87012   8.920   3.482   6.734 -1.4970  2.0020  0.7040
  631MOL0     H87013   9.106   3.644   6.746  0.3413  1.2105 -1.4284
  631MOL0     H87014   9.138   3.471   6.726 -3.0968 -0.7317  1.3383
  631MOL0     H87015   9.183   3.486   6.492 -1.3046 -1.3906  1.7585
  631MOL0     H87016   9.149   3.669   6.511 -0.6828  0.8847  2.1737
  631MOL0     H87017   9.395   3.637   6.518  1.5809 -0.9713  0.8559
  631MOL0     H87018   9.346   3.670   6.675 -1.4707 -1.5274  1.0518
  631MOL0     H87019   9.347   3.386   6.614 -0.5068  0.1423  0.1280
  631MOL0     H87020   9.356   3.461   6.764  0.6893  1.5365  1.8064
  631MOL0     H87021   9.565   3.463   6.529 -1.1119 -1.5217 -0.4431
  631MOL0     H87022   9.576   3.585   6.654 -4.0380 -0.5513  0.2910
  631MOL0     H87023   9.596   3.421   6.825  0.3423 -1.0867  1.6509
  631MOL0     H87024   9.725   3.407   6.701 -1.5178  0.4474 -0.2178
  631MOL0     H87025   9.483   3.212   6.696 -0.2691 -0.1287  2.0298
  631MOL0     H87026   9.613   3.217   6.579  2.5924  1.1419  0.8242
  631MOL0     H87027   9.562   3.131   6.967 -0.8800 -0.1461 -0.9170
  631MOL0     H87028   9.775   3.044   7.138 -0.5382 -2.5251  2.6158
  631MOL0     H87029   9.893   2.938   7.055 -0.9208 -0.9340 -1.9925
  631MOL0     H87030   9.608   2.901   7.123 -1.5870  0.2853 -0.8962
  631MOL0     H87031   9.673   2.820   6.976 -1.0394 -1.4749  1.1292
  631MOL0     H87032   9.838   2.703   7.141  1.2073  2.6856 -0.5735
  631MOL0     H87033   9.763   2.781   7.278  0.7765  0.0877 -0.2393
  631MOL0     H87034   9.537   2.659   7.151 -1.2169 -1.0736 -0.1365
  631MOL0     H87035   9.657   2.539   7.139 -0.4216  0.2003 -0.8473
  631MOL0     H87036   9.511   2.450   7.508  0.0621 -0.2184 -1.9451
  631MOL0     H87037   9.387   2.418   7.703 -0.0121 -0.0302  1.1657
  631MOL0     H87038   9.212   2.408   7.626  0.7256  1.4176 -2.6452
  631MOL0     H87039   9.255   2.526   7.753 -2.0201 -2.3722  0.8618
  631MOL0     H87040   9.019   3.012   7.543  1.7366 -0.9468  0.1005
  631MOL0     H87041   8.815   3.132   7.657 -0.0151  0.4887 -1.5456
  631MOL0     H87042   8.422   2.892   7.624  0.1404  0.5571 -1.0973
  631MOL0     H87043   8.463   2.851   7.795 -3.0771  2.8959  2.1500
  631MOL0     H87044   8.339   3.092   7.668 -0.5794  2.4422  3.6838
  631MOL0     H87045   8.251   2.953   7.745  0.8502 -1.3601  0.4001
  631MOL0     H87046   8.411   3.154   7.879  2.1956 -2.5800 -2.6565
  631MOL0     H87047   8.333   3.015   7.967 -0.9350 -1.0577 -1.0342
  631MOL0     H87048   8.117   3.075   7.923 -0.4049 -1.8908 -2.1334
  631MOL0     H87049   8.165   3.202   7.803 -0.9542 -1.9421 -0.3450
  631MOL0     H87050   8.236   3.187   8.102 -1.4092 -2.2483 -0.3800
  631MOL0     H87051   8.283   3.323   8.003  1.1864 -0.5925  4.3630
  631MOL0     H87052   7.996   3.276   8.074 -2.6597  2.2063  0.5135
  631MOL0     H87053   8.052   3.394   7.968  0.2822 -1.0789 -0.6749
  631MOL0     H87054   8.190   3.496   8.120 -1.0775  2.0596  1.8063
  631MOL0     H87055   8.145   3.377   8.252 -1.0859 -0.1665 -0.8547
  631MOL0     H87056   7.937   3.479   8.289 -1.4818  2.6454  0.8427
  631MOL0     H87057   7.929   3.542   8.127  0.8727  2.4896  0.9194
  631MOL0     H87058   8.605   2.746   7.652  1.3971 -1.9037  1.7009
  631MOL0     H87059   8.805   2.640   7.575  1.5150  0.9205  1.4498
  631MOL0     H87060   9.226   2.829   7.376 -2.9358 -0.7538  0.6831
  631MOL0     H87061   9.448   2.813   7.292 -4.0884  1.8116  0.7865
  631MOL0     H87062   8.780   3.578   6.364  0.9452  1.2633  0.5311
  631MOL0     H87063   8.527   3.584   6.320  0.4312  0.2123 -0.2026
  631MOL0     H87064   8.151   3.726   6.583  0.0612 -2.3925  0.8151
  631MOL0     H87065   7.933   3.858   6.531 -1.1932  0.2978 -0.5243
  631MOL0     H87066   7.734   3.940   6.457 -0.5500  1.4115 -0.3287
  631MOL0     H87067   7.858   4.017   6.355  3.0549 -1.8834 -0.0233
  631MOL0     H87068   7.562   3.953   6.269 -1.0875  1.2630 -2.1031
  631MOL0     H87069   7.678   3.968   6.146 -1.2843  1.3118 -0.7721
  631MOL0     H87070   7.642   4.197   6.360  0.0811  0.3588 -0.2376
  631MOL0     H87071   7.718   4.199   6.192 -1.0931  2.3326  0.1382
  631MOL0     H87072   7.431   4.130   6.244  2.2488 -0.6004  2.5755
  631MOL0     H87073   7.505   4.194   6.089 -3.0052  1.0469  0.5191
  631MOL0     H87074   7.450   4.527   6.346  1.4460  0.7226 -0.2083
  631MOL0     H87075   7.905   3.641   6.166  2.1961 -0.4765 -1.1922
  631MOL0     H87076   7.980   3.399   6.188 -1.5556  0.9401 -0.8237
  631MOL0     H87077   8.119   3.495   6.108 -1.4565  1.5205  0.9066
  631MOL0     H87078   8.145   3.376   6.247 -1.0682  1.4480  3.4468
  632MOL0     O87079   5.034   5.489  10.649 -0.3999  0.5675 -0.2011
  632MOL0     C87080   4.936   5.554  10.693  0.1413 -0.2506  0.0407
  632MOL0     O87081   4.905   5.677  10.645  0.2215 -0.2024 -0.0385
  632MOL0     C87082   4.783   5.722  10.617 -0.3576 -0.7806 -0.1262
  632MOL0     C87083   4.702   5.675  10.517  0.2430 -0.1436  0.2758
  632MOL0     C87084   4.591   5.742  10.483  0.5081 -0.1735 -0.6853
  632MOL0     C87085   4.552   5.865  10.561 -0.7668  0.2233  0.1888
  632MOL0     O87086   4.452   5.950  10.529  0.1920 -0.1306 -0.5067
  632MOL0     C87087   4.324   5.898  10.508  0.1507  0.7958 -0.2861
  632MOL0     C87088   4.227   5.958  10.613 -0.4190  0.3157 -0.2570
  632MOL0     C87089   4.079   5.955  10.573 -0.3534  0.0353 -0.2728
  632MOL0     C87090   4.013   6.092  10.582  0.7186 -0.1229 -0.1280
  632MOL0     C87091   4.018   6.146  10.723 -0.2366 -0.0969  0.3379
  632MOL0     C87092   3.955   6.286  10.729  1.0530 -0.2098 -0.5205
  632MOL0     C87093   3.941   6.346  10.871 -0.6106 -0.6259 -0.0440
  632MOL0     C87094   4.074   6.391  10.926 -0.0269 -0.0468  0.4427
  632MOL0     N87095   4.160   6.481  10.860  1.2128  0.0700  0.0359
  632MOL0     C87096   4.167   6.620  10.875 -0.0470  1.2424  0.4305
  632MOL0     C87097   4.265   6.651  10.784 -0.6206  0.5952 -0.0603
  632MOL0     C87098   4.307   6.799  10.768 -0.1631 -0.3040  0.1843
  632MOL0     C87099   4.187   6.880  10.708 -0.3721  0.1885  0.8246
  632MOL0     C87100   4.256   7.001  10.647  0.2483 -0.5431 -0.1134
  632MOL0     C87101   4.149   7.096  10.586  0.6433 -0.6595 -0.1962
  632MOL0     O87102   4.197   7.122  10.457  0.4482 -0.0522  0.6699
  632MOL0     C87103   4.262   7.243  10.435 -0.4160 -0.0213  0.1242
  632MOL0     C87104   4.205   7.374  10.438  0.1523  1.1784  0.0057
  632MOL0     C87105   4.279   7.491  10.413 -0.1748  1.0314 -0.2003
  632MOL0     C87106   4.207   7.627  10.421 -0.6288 -0.5711  0.6425
  632MOL0     C87107   4.415   7.477  10.374  0.2001 -0.7041 -0.9659
  632MOL0     C87108   4.492   7.598  10.340 -0.1407 -0.5757  0.7731
  632MOL0     O87109   4.495   7.704  10.428  0.4121 -0.1480  0.3347
  632MOL0     C87110   4.566   7.817  10.405 -0.4278 -0.8204 -0.8111
  632MOL0     C87111   4.507   7.921  10.481 -0.8806  0.0596  0.8190
  632MOL0     C87112   4.561   8.039  10.477 -0.3813  0.3057 -0.3528
  632MOL0     C87113   4.690   8.063  10.414  0.2941 -0.1392  0.1419
  632MOL0     O87114   4.750   8.174  10.413 -0.3348 -0.5386 -0.4496
  632MOL0     C87115   4.769   8.231  10.546 -0.2872  0.2040  0.2962
  632MOL0     C87116   4.859   8.354  10.511 -0.5834  0.7508 -0.1731
  632MOL0     C87117   4.957   8.398  10.623  0.7601  1.0116 -0.3857
  632MOL0     C87118   5.066   8.479  10.565 -0.0283  0.7154  0.6729
  632MOL0     C87119   5.170   8.526  10.688  0.6141 -0.4089 -0.0472
  632MOL0     C87120   5.314   8.544  10.642 -0.0602  0.4235  0.4365
  632MOL0     C87121   5.399   8.418  10.644  0.1732 -0.1520 -0.2141
  632MOL0     C87122   5.547   8.438  10.635  0.0719  0.0360  0.4385
  632MOL0    Cl87123   5.629   8.290  10.677 -0.1097 -0.2554 -0.0781
  632MOL0     C87124   4.759   7.956  10.349  1.3973  0.4195  0.0134
  632MOL0     C87125   4.690   7.833  10.351  0.5384  0.5636  0.7580
  632MOL0     O87126   4.537   7.598  10.227  1.0054  0.4800 -0.5912
  632MOL0     C87127   4.470   7.349  10.353  0.1128  0.3572  0.4739
  632MOL0     C87128   4.400   7.234  10.390  0.3234 -0.8835 -0.0935
  632MOL0     N87129   4.316   6.536  10.729 -1.0480 -0.6200  1.0889
  632MOL0     N87130   4.245   6.434  10.769  0.5044  0.0585  0.0775
  632MOL0     C87131   4.637   5.909  10.663 -0.2745  0.0141  0.3638
  632MOL0     C87132   4.749   5.826  10.698  0.3919 -0.0415 -0.2888
  632MOL0     C87133   4.847   5.476  10.786  0.3453  0.4786 -0.1784
  632MOL0     C87134   4.750   5.394  10.725  0.5895 -0.4931  0.0176
  632MOL0     C87135   4.660   5.337  10.816 -0.2042  0.3409  0.0203
  632MOL0     C87136   4.681   5.335  10.953  0.6024  0.2196 -0.4678
  632MOL0     O87137   4.583   5.272  11.024 -0.2390 -0.9307  0.1729
  632MOL0     C87138   4.597   5.267  11.175 -0.3283 -0.0274  0.6747
  632MOL0     C87139   4.507   5.156  11.235 -0.1636  0.6305  0.0714
  632MOL0     C87140   4.563   5.108  11.368  0.2912 -0.3401  0.1680
  632MOL0     C87141   4.457   5.048  11.469  0.3114 -0.1939 -0.6157
  632MOL0     C87142   4.344   5.138  11.497 -0.6826 -0.2105 -0.7726
  632MOL0     C87143   4.244   5.211  11.506 -0.4799  0.3988  0.0530
  632MOL0     C87144   4.794   5.408  11.010 -0.4381  0.1065 -0.5730
  632MOL0     C87145   4.865   5.483  10.919  0.3963 -0.6877  0.6727
  632MOL0     C87146   4.977   5.567  10.965 -0.3676 -0.1289  0.1118
  632MOL0     H87147   4.746   5.594  10.460  1.4251  1.0186 -0.5193
  632MOL0     H87148   4.528   5.705  10.403  0.4601 -2.1859  0.2260
  632MOL0     H87149   4.329   5.789  10.519 -0.0807  0.7731 -0.4038
  632MOL0     H87150   4.292   5.924  10.407  1.0804  2.3739 -0.2124
  632MOL0     H87151   4.237   5.903  10.707 -0.7232 -1.1032 -1.0148
  632MOL0     H87152   4.261   6.062  10.616  1.1435 -0.1989  1.1364
  632MOL0     H87153   4.054   5.943  10.468  1.7307  0.3404 -0.8481
  632MOL0     H87154   4.037   5.873  10.632  1.6154 -0.4076  0.6153
  632MOL0     H87155   4.061   6.168  10.520 -0.5103 -0.6369 -1.7845
  632MOL0     H87156   3.910   6.076  10.548  0.3305 -2.8570  1.9219
  632MOL0     H87157   4.120   6.152  10.764  1.1600  0.6867 -2.9629
  632MOL0     H87158   3.979   6.065  10.785  2.1769 -0.4441  1.5582
  632MOL0     H87159   4.022   6.350  10.670 -0.0968  0.3886 -1.1966
  632MOL0     H87160   3.858   6.287  10.680  0.6268 -1.1063  0.2834
  632MOL0     H87161   3.911   6.267  10.940  5.1409 -1.6238  1.8261
  632MOL0     H87162   3.875   6.433  10.864  3.4087  2.6087 -1.1118
  632MOL0     H87163   4.049   6.426  11.027 -0.2812 -0.0351  0.3776
  632MOL0     H87164   4.134   6.303  10.949 -1.8938 -1.5050  0.0448
  632MOL0     H87165   4.103   6.676  10.943  2.1963 -0.0378  3.8354
  632MOL0     H87166   4.381   6.808  10.688 -2.7859  3.5735 -2.2102
  632MOL0     H87167   4.341   6.842  10.862 -0.4348 -2.4351  1.3175
  632MOL0     H87168   4.148   6.817  10.628 -0.9234  1.1763  0.2914
  632MOL0     H87169   4.109   6.909  10.779  1.1759  1.4162  2.0994
  632MOL0     H87170   4.313   7.049  10.727 -0.7550  0.3882  0.0705
  632MOL0     H87171   4.331   6.963  10.577 -0.9095 -0.7511 -1.2981
  632MOL0     H87172   4.052   7.049  10.568  0.9440 -1.4650  0.2750
  632MOL0     H87173   4.131   7.178  10.657 -1.5433 -2.1356  1.0491
  632MOL0     H87174   4.100   7.378  10.465  0.6365  1.6167  2.0232
  632MOL0     H87175   4.225   7.666  10.521  0.0370  0.4271  0.1409
  632MOL0     H87176   4.101   7.630  10.394 -0.0459  2.4478 -1.8548
  632MOL0     H87177   4.261   7.694  10.354  2.4071  0.0657  3.5066
  632MOL0     H87178   4.421   7.895  10.542  0.7171 -0.4576  2.9797
  632MOL0     H87179   4.510   8.119  10.530  0.8640  1.7586 -1.2609
  632MOL0     H87180   4.680   8.248  10.607 -1.1316 -0.7671 -0.6198
  632MOL0     H87181   4.829   8.150  10.589 -2.0933 -0.6620  1.3135
  632MOL0     H87182   4.919   8.337  10.421 -0.1803  1.1477  0.0173
  632MOL0     H87183   4.791   8.437  10.490 -0.8181  0.8872  1.0487
  632MOL0     H87184   4.989   8.315  10.687  0.5578  2.0532  1.1013
  632MOL0     H87185   4.910   8.459  10.700  1.3348 -0.5038  1.2214
  632MOL0     H87186   5.023   8.562  10.508  0.2982  2.8845  3.3674
  632MOL0     H87187   5.129   8.416  10.501 -0.6240  0.3790  0.4092
  632MOL0     H87188   5.124   8.604  10.749  0.4572 -1.3846  1.1213
  632MOL0     H87189   5.171   8.439  10.754 -3.0316  0.2091  1.0120
  632MOL0     H87190   5.366   8.625  10.693  1.2063  3.9142 -5.4284
  632MOL0     H87191   5.310   8.584  10.540  1.1345  0.3656  0.3578
  632MOL0     H87192   5.364   8.365  10.555 -2.5873  1.4189 -0.1737
  632MOL0     H87193   5.394   8.359  10.736 -1.5469 -1.0617 -0.8543
  632MOL0     H87194   5.587   8.513  10.703  0.0126  0.7420 -0.2828
  632MOL0     H87195   5.573   8.464  10.532  0.0744  0.8497  0.6422
  632MOL0     H87196   4.858   7.969  10.306  0.9818 -1.0427 -1.4911
  632MOL0     H87197   4.745   7.749  10.310  2.0241  1.2604  1.2546
  632MOL0     H87198   4.573   7.330  10.328  0.5618  0.3852  2.1516
  632MOL0     H87199   4.450   7.139  10.375 -0.6489 -1.4423  0.1292
  632MOL0     H87200   4.614   6.002  10.714  0.5203  1.1918 -1.3403
  632MOL0     H87201   4.809   5.849  10.785  0.3458  2.5356 -0.8710
  632MOL0     H87202   4.742   5.390  10.617  0.0758  1.4527 -0.0547
  632MOL0     H87203   4.571   5.290  10.775  0.1831 -1.0961  0.7555
  632MOL0     H87204   4.701   5.240  11.193  0.4950  2.3169 -0.2373
  632MOL0     H87205   4.581   5.368  11.215 -0.2043  0.0488  0.5300
  632MOL0     H87206   4.507   5.069  11.170  0.8644 -0.3629  1.3457
  632MOL0     H87207   4.405   5.194  11.222 -0.0579  0.8190 -0.2146
  632MOL0     H87208   4.627   5.025  11.335 -1.3453 -0.7696 -2.1741
  632MOL0     H87209   4.622   5.185  11.418 -0.1164  1.3289 -1.7612
  632MOL0     H87210   4.503   5.027  11.566  2.4567  3.7218 -0.5992
  632MOL0     H87211   4.420   4.961  11.413  1.9603  1.4442 -4.7024
  632MOL0     H87212   4.157   5.273  11.508 -0.0412  1.3276 -3.2508
  632MOL0     H87213   4.812   5.406  11.117 -2.9370 -3.4885 -0.0106
  632MOL0     H87214   4.977   5.564  11.074  1.3198 -3.4060  0.1606
  632MOL0     H87215   5.077   5.540  10.928  0.2309  0.2983  1.3703
  632MOL0     H87216   4.964   5.673  10.939 -2.4063 -0.0452  1.3179
  633MOL0     O87217   3.719   2.610   7.647  1.5268 -0.2635  0.7153
  633MOL0     C87218   3.737   2.496   7.605 -0.0837 -0.3140 -0.1054
  633MOL0     O87219   3.685   2.379   7.662 -0.1855  0.5997  0.6565
  633MOL0     C87220   3.595   2.398   7.758  0.2265 -0.1897  0.9747
  633MOL0     C87221   3.631   2.369   7.887 -0.4674 -0.0500  0.3753
  633MOL0     C87222   3.539   2.388   8.001  0.7665 -0.4347  0.0782
  633MOL0     C87223   3.410   2.434   7.979 -0.7981 -0.2631  1.2155
  633MOL0     O87224   3.325   2.466   8.084 -0.7195  0.7965  0.1252
  633MOL0     C87225   3.216   2.553   8.078 -0.1072 -0.2844 -0.0444
  633MOL0     C87226   3.204   2.635   8.207 -1.0276  0.6396  0.4131
  633MOL0     C87227   3.210   2.544   8.333 -1.4049 -0.0815  0.0823
  633MOL0     C87228   3.149   2.612   8.448 -0.6134  0.0127  0.5132
  633MOL0     C87229   3.139   2.510   8.566 -0.2533 -0.4031 -0.0564
  633MOL0     C87230   3.145   2.566   8.708 -0.2615 -0.9520 -0.8717
  633MOL0     C87231   3.064   2.496   8.820  0.3724 -0.9754  0.2698
  633MOL0     C87232   3.114   2.370   8.877 -0.1173 -0.2050 -0.4773
  633MOL0     N87233   3.012   2.319   8.966  0.1242 -0.9179 -0.7080
  633MOL0     C87234   2.950   2.395   9.055  0.6584 -0.9102 -0.5121
  633MOL0     C87235   2.879   2.309   9.133  0.1711 -0.7244 -1.2455
  633MOL0     C87236   2.799   2.363   9.259  0.1769  0.0840  0.2185
  633MOL0     C87237   2.868   2.321   9.398 -0.3762  0.2080 -0.1658
  633MOL0     C87238   3.023   2.346   9.402  0.2857 -0.0877 -0.2663
  633MOL0     C87239   3.083   2.301   9.535  0.2983  0.0997  1.0217
  633MOL0     O87240   3.021   2.382   9.641  0.6047  0.4229  0.5364
  633MOL0     C87241   3.038   2.341   9.768  0.6118 -0.2034  0.0793
  633MOL0     C87242   3.155   2.302   9.830  0.2547  0.0821  0.1153
  633MOL0     C87243   3.161   2.249   9.963 -0.5460  0.6114 -0.5002
  633MOL0     C87244   3.301   2.215  10.031  0.2780  0.8569  0.5718
  633MOL0     C87245   3.038   2.234  10.037  1.4043 -0.6653  0.3097
  633MOL0     C87246   3.012   2.208  10.179 -0.5585  0.1793 -0.3794
  633MOL0     O87247   2.888   2.232  10.226  0.2517  0.5126  0.0089
  633MOL0     C87248   2.858   2.191  10.351 -0.8338 -0.2751 -1.1274
  633MOL0     C87249   2.806   2.055  10.368  0.2302  0.3460 -0.1888
  633MOL0     C87250   2.756   2.015  10.489 -0.0675 -1.1771  0.5562
  633MOL0     C87251   2.763   2.096  10.602  0.2716  0.6685 -0.4498
  633MOL0     O87252   2.720   2.037  10.720  0.2514 -0.2685  0.7986
  633MOL0     C87253   2.668   2.129  10.823  0.0198 -0.6316 -0.0143
  633MOL0     C87254   2.776   2.183  10.914  0.2531 -1.2262 -0.1487
  633MOL0     C87255   2.718   2.293  11.011  0.3317  0.4520  0.1752
  633MOL0     C87256   2.706   2.435  10.949 -0.6133  0.7730  0.1686
  633MOL0     C87257   2.631   2.519  11.049  0.8743 -0.2539  0.0995
  633MOL0     C87258   2.644   2.668  11.002  0.3760 -0.3055 -1.2232
  633MOL0     C87259   2.611   2.754  11.126  1.0919  0.4561  0.1566
  633MOL0     C87260   2.616   2.908  11.101 -0.8848  0.4530 -0.1012
  633MOL0    Cl87261   2.467   2.962  11.015 -0.6061  0.2094  0.3836
  633MOL0     C87262   2.807   2.228  10.583 -0.3537  0.5572  0.4322
  633MOL0     C87263   2.859   2.277  10.460  0.8065  0.0635  0.4031
  633MOL0     O87264   3.102   2.164  10.242  0.0741  0.3858 -0.5592
  633MOL0     C87265   2.915   2.278   9.971 -0.5857  0.3158 -0.0394
  633MOL0     C87266   2.918   2.335   9.842  0.2059  0.3490 -0.5153
  633MOL0     N87267   2.887   2.186   9.077  0.4779  0.0268 -1.0471
  633MOL0     N87268   2.955   2.198   8.970  0.2369 -0.4619  0.3227
  633MOL0     C87269   3.371   2.461   7.846 -0.4698 -0.6856  0.7723
  633MOL0     C87270   3.467   2.463   7.738 -0.4134 -0.0254  0.5451
  633MOL0     C87271   3.827   2.474   7.488  0.7673 -0.3006  0.0825
  633MOL0     C87272   3.850   2.341   7.452 -0.1285  0.3412  0.4118
  633MOL0     C87273   3.940   2.316   7.348 -0.2787  0.4566  0.3098
  633MOL0     C87274   4.011   2.417   7.275  0.8051  0.1041  0.5778
  633MOL0     O87275   4.083   2.386   7.161 -0.3177  0.4487 -0.5347
  633MOL0     C87276   4.099   2.245   7.134  0.0949 -0.2618 -0.4052
  633MOL0     C87277   4.205   2.234   7.029 -0.0609  0.0771 -1.2805
  633MOL0     C87278   4.247   2.086   6.990  0.0983  0.8581  0.2227
  633MOL0     C87279   4.131   1.983   6.954 -1.2980  1.0213  0.4225
  633MOL0     C87280   4.055   2.024   6.829 -0.7493  0.9103 -0.6654
  633MOL0     C87281   3.985   2.069   6.740 -0.8277  0.2172  1.0595
  633MOL0     C87282   3.982   2.548   7.308 -0.1088 -0.0387 -0.1137
  633MOL0     C87283   3.902   2.576   7.422  0.4379 -0.3908 -0.3304
  633MOL0     C87284   3.892   2.719   7.457  0.2843  0.4439  0.0866
  633MOL0     H87285   3.732   2.331   7.894 -0.1657  0.9022  1.4030
  633MOL0     H87286   3.580   2.365   8.099 -0.7649 -5.5455 -0.2191
  633MOL0     H87287   3.128   2.489   8.064 -1.0629  1.5254 -3.9489
  633MOL0     H87288   3.221   2.627   7.997  3.3897  1.1691  1.2702
  633MOL0     H87289   3.282   2.712   8.206  0.1151 -0.4934 -0.2427
  633MOL0     H87290   3.108   2.687   8.215 -1.0595  0.3870  2.0589
  633MOL0     H87291   3.153   2.453   8.311  0.1530 -1.7684  2.5146
  633MOL0     H87292   3.309   2.501   8.351  2.1836  6.3760 -1.2752
  633MOL0     H87293   3.218   2.690   8.480 -1.9754  0.3732  2.8313
  633MOL0     H87294   3.050   2.653   8.426 -0.9673 -1.2004 -0.2080
  633MOL0     H87295   3.218   2.434   8.567 -1.2611 -1.5024 -0.6621
  633MOL0     H87296   3.050   2.446   8.558  0.7070 -1.5730 -3.5227
  633MOL0     H87297   3.249   2.571   8.741 -1.2410  3.1618  2.5527
  633MOL0     H87298   3.118   2.672   8.717  5.1842  0.6703 -0.0173
  633MOL0     H87299   2.964   2.470   8.783  1.3882 -4.1647 -0.5763
  633MOL0     H87300   3.051   2.562   8.905  2.4517 -0.9826  0.6627
  633MOL0     H87301   3.126   2.316   8.782  0.3121  2.3901 -1.9959
  633MOL0     H87302   3.213   2.379   8.924  0.4774 -2.1057 -1.2547
  633MOL0     H87303   2.966   2.495   9.093 -5.1750 -0.0890  0.6811
  633MOL0     H87304   2.700   2.316   9.253 -0.4160  1.1500  1.2005
  633MOL0     H87305   2.780   2.470   9.265 -1.8504 -0.3066  1.9737
  633MOL0     H87306   2.811   2.379   9.471 -0.5988 -0.2420  0.0266
  633MOL0     H87307   2.839   2.218   9.423 -4.7004  1.3503  0.4875
  633MOL0     H87308   3.080   2.294   9.325  0.2682  0.6028 -0.7501
  633MOL0     H87309   3.051   2.451   9.389 -1.8409  0.4732 -0.7144
  633MOL0     H87310   3.075   2.193   9.552 -2.3900  0.1856  0.7780
  633MOL0     H87311   3.188   2.329   9.530 -0.0686  1.3598 -2.5715
  633MOL0     H87312   3.248   2.304   9.775 -2.4670 -1.3155 -5.2531
  633MOL0     H87313   3.310   2.247  10.135 -1.4305 -0.6574  1.2509
  633MOL0     H87314   3.390   2.252   9.979 -0.7176  2.5248 -0.0213
  633MOL0     H87315   3.302   2.106  10.031 -1.7643  0.7761  1.5227
  633MOL0     H87316   2.789   1.994  10.280  1.1181 -2.9908  1.7706
  633MOL0     H87317   2.713   1.916  10.503 -1.0936 -0.5238  2.4196
  633MOL0     H87318   2.625   2.218  10.777  3.2565  0.8115 -0.5177
  633MOL0     H87319   2.593   2.072  10.879 -0.3734 -1.0354 -0.9329
  633MOL0     H87320   2.811   2.097  10.972  0.6622 -2.3190 -1.9296
  633MOL0     H87321   2.865   2.227  10.868 -0.7195  0.5563 -0.4236
  633MOL0     H87322   2.780   2.294  11.101  1.7424 -0.0389 -0.7666
  633MOL0     H87323   2.619   2.256  11.040  0.6099  0.8326  1.6986
  633MOL0     H87324   2.663   2.433  10.848  0.1567  1.0197 -0.1666
  633MOL0     H87325   2.808   2.472  10.935 -1.0049  2.4333  1.4230
  633MOL0     H87326   2.528   2.483  11.056  2.1237 -4.4744 -0.3418
  633MOL0     H87327   2.669   2.509  11.151  0.1705 -0.4148  0.3541
  633MOL0     H87328   2.578   2.698  10.920  0.2375 -0.5942 -1.2160
  633MOL0     H87329   2.749   2.695  10.983  0.9160 -0.8391  0.7617
  633MOL0     H87330   2.667   2.727  11.216  1.4917  1.8981  0.3637
  633MOL0     H87331   2.507   2.741  11.158  0.7659 -0.1583 -1.0680
  633MOL0     H87332   2.699   2.933  11.034 -2.3521  1.6354 -1.5566
  633MOL0     H87333   2.638   2.966  11.191 -1.3984 -0.4183  0.5949
  633MOL0     H87334   2.810   2.284  10.675 -2.3212  0.8014  0.3915
  633MOL0     H87335   2.909   2.373  10.461 -1.6940  1.5019 -1.2987
  633MOL0     H87336   2.820   2.271  10.021  0.7935 -3.1921  2.5277
  633MOL0     H87337   2.829   2.358   9.784  1.2684 -2.4596 -3.5941
  633MOL0     H87338   3.270   2.497   7.829 -0.1328  1.6059  3.0850
  633MOL0     H87339   3.434   2.493   7.639 -0.0933  1.9504  1.0026
  633MOL0     H87340   3.802   2.258   7.503 -2.7933  1.7694  0.3669
  633MOL0     H87341   3.952   2.210   7.331 -1.7532  0.6073 -2.0596
  633MOL0     H87342   4.128   2.192   7.225 -0.0748  3.1815  1.8314
  633MOL0     H87343   4.003   2.201   7.103 -0.0720 -1.6165  1.8590
  633MOL0     H87344   4.291   2.291   7.063 -1.4678 -0.1348  3.3114
  633MOL0     H87345   4.169   2.274   6.933  2.1262  3.0385 -1.0080
  633MOL0     H87346   4.296   2.103   6.894  0.5059 -0.2757  0.2273
  633MOL0     H87347   4.302   2.042   7.073  0.1992 -1.1082 -0.8384
  633MOL0     H87348   4.062   1.980   7.039  1.2269 -1.8365  2.5772
  633MOL0     H87349   4.176   1.885   6.939 -0.2253  1.2780  1.8221
  633MOL0     H87350   3.938   2.111   6.654  0.5408  0.9719  0.6403
  633MOL0     H87351   4.008   2.628   7.239  0.3957 -1.5333 -1.7304
  633MOL0     H87352   3.910   2.730   7.565  0.4141  1.8440 -0.0645
  633MOL0     H87353   3.967   2.781   7.408  0.8259 -0.4948 -0.3120
  633MOL0     H87354   3.795   2.762   7.434  0.8302  1.8235  0.2999
  634MOL0     O87355   9.153   0.400   7.009  0.0766  1.0990 -0.1783
  634MOL0     C87356   9.157   0.428   6.890 -0.3194 -0.4995 -0.2584
  634MOL0     O87357   9.275   0.420   6.805 -0.1118 -0.5209 -0.6962
  634MOL0     C87358   9.376   0.356   6.870  0.3365  0.8045 -0.7093
  634MOL0     C87359   9.381   0.223   6.849 -0.2528  1.0176  0.8613
  634MOL0     C87360   9.478   0.136   6.903  0.7592 -0.4419  0.1267
  634MOL0     C87361   9.576   0.199   6.986  0.1799  0.0792 -0.6408
  634MOL0     O87362   9.676   0.107   7.030 -0.8051 -0.1647 -0.3911
  634MOL0     C87363   9.701   0.124   7.171  0.3480 -0.3395  0.4347
  634MOL0     C87364   9.853   0.130   7.193 -0.3479 -0.3570 -0.3250
  634MOL0     C87365   9.867   0.152   7.352 -0.4996  0.4158  1.0755
  634MOL0     C87366   9.950   0.276   7.370 -0.0353 -0.9195  1.1022
  634MOL0     C87367   9.973   0.304   7.512  0.4345  0.0074 -0.0536
  634MOL0     C87368  10.060   0.426   7.538 -0.0516  0.2616  0.3407
  634MOL0     C87369  10.194   0.413   7.628 -0.7640 -0.1189  0.3815
  634MOL0     C87370  10.173   0.341   7.756  0.3089  0.4303  0.4845
  634MOL0     N87371  10.295   0.311   7.824 -0.6396 -0.7911  0.6875
  634MOL0     C87372  10.326   0.222   7.925  0.5202  0.1525  0.6008
  634MOL0     C87373  10.457   0.248   7.955  0.3837  0.1574 -0.2921
  634MOL0     C87374  10.533   0.163   8.050  0.3779  0.8463 -0.8127
  634MOL0     C87375  10.568   0.031   7.989 -0.5185  0.0053 -0.8751
  634MOL0     C87376  10.636  -0.060   8.087  0.3080  0.4578 -0.2875
  634MOL0     C87377  10.575  -0.069   8.219 -0.3750 -0.1395  0.0508
  634MOL0     O87378  10.438  -0.090   8.229  0.1301  0.3092  0.1026
  634MOL0     C87379  10.395  -0.219   8.261 -1.3710 -0.4517  0.1702
  634MOL0     C87380  10.291  -0.221   8.347 -0.0061  0.3437 -0.8242
  634MOL0     C87381  10.229  -0.336   8.376  0.5706  0.0956 -0.5505
  634MOL0     C87382  10.116  -0.328   8.478  0.4949 -0.6928 -0.6299
  634MOL0     C87383  10.291  -0.464   8.340  1.2897 -0.0658 -0.8994
  634MOL0     C87384  10.266  -0.597   8.397 -0.2140  0.5267 -0.6573
  634MOL0     O87385  10.352  -0.698   8.349  0.1747  0.1327 -0.2537
  634MOL0     C87386  10.364  -0.823   8.400  1.1694  0.6051  0.1336
  634MOL0     C87387  10.375  -0.850   8.537  0.2356 -0.6002 -0.8908
  634MOL0     C87388  10.385  -0.972   8.582 -0.2412 -0.6761 -0.0620
  634MOL0     C87389  10.370  -1.088   8.497  0.8917 -0.3501 -0.0773
  634MOL0     O87390  10.394  -1.208   8.555  0.5055 -0.0896 -0.2627
  634MOL0     C87391  10.281  -1.271   8.621  0.8009 -0.1484 -0.4407
  634MOL0     C87392  10.165  -1.312   8.536  0.1861  0.8084  1.3189
  634MOL0     C87393  10.199  -1.440   8.445 -0.2455 -0.6337 -0.0408
  634MOL0     C87394  10.068  -1.495   8.391 -0.9961  0.4751  0.9138
  634MOL0     C87395   9.965  -1.554   8.492  0.2011 -0.6316  0.6965
  634MOL0     C87396   9.832  -1.569   8.427 -1.4803 -0.4638  0.0358
  634MOL0     C87397   9.737  -1.659   8.511 -0.2138  0.3555 -0.4374
  634MOL0     C87398   9.601  -1.675   8.442  0.3929  0.5931  0.6951
  634MOL0    Cl87399   9.624  -1.733   8.272 -0.8804 -0.0764  0.0423
  634MOL0     C87400  10.365  -1.059   8.363  0.4304 -0.6961 -0.1784
  634MOL0     C87401  10.353  -0.932   8.311  0.1900 -0.2592  0.4263
  634MOL0     O87402  10.175  -0.603   8.484 -0.6269  0.7286  0.3802
  634MOL0     C87403  10.371  -0.460   8.229 -1.0897 -0.1625  1.1836
  634MOL0     C87404  10.431  -0.335   8.196  0.5690 -0.7750  0.2880
  634MOL0     N87405  10.501   0.342   7.875  0.0610 -0.5313 -0.5950
  634MOL0     N87406  10.400   0.392   7.811 -0.0557  0.1246  0.3261
  634MOL0     C87407   9.581   0.337   7.005  0.1457  0.0302  0.0023
  634MOL0     C87408   9.479   0.411   6.949  0.3868  0.7502 -0.2669
  634MOL0     C87409   9.031   0.473   6.829 -0.4503  1.1579 -1.2480
  634MOL0     C87410   9.004   0.425   6.697 -0.2041  0.3247 -0.2744
  634MOL0     C87411   8.894   0.468   6.622 -0.3659 -1.0235  0.0737
  634MOL0     C87412   8.803   0.563   6.671  0.7417 -0.4100  0.2094
  634MOL0     O87413   8.697   0.601   6.594  0.1256 -0.2667  0.3865
  634MOL0     C87414   8.623   0.721   6.625 -0.5348 -0.2279  0.0779
  634MOL0     C87415   8.507   0.738   6.520 -0.5449 -0.1283 -1.0497
  634MOL0     C87416   8.571   0.776   6.377 -0.1175 -0.5578  0.1836
  634MOL0     C87417   8.627   0.656   6.293  0.0653 -0.1910 -1.3922
  634MOL0     C87418   8.525   0.552   6.282 -0.2005 -1.1071  0.7794
  634MOL0     C87419   8.439   0.466   6.269  0.6102  0.0303 -0.1941
  634MOL0     C87420   8.831   0.604   6.804  0.8047  0.1889 -0.2896
  634MOL0     C87421   8.937   0.560   6.888 -0.8472 -1.0637  0.6865
  634MOL0     C87422   8.946   0.614   7.029  0.1517  0.4035 -0.0917
  634MOL0     H87423   9.307   0.176   6.785  3.0585 -2.5675 -0.7795
  634MOL0     H87424   9.495   0.030   6.884 -0.5003 -0.7027  0.3235
  634MOL0     H87425   9.670   0.029   7.216 -0.0500  1.0902  3.4664
  634MOL0     H87426   9.643   0.197   7.229 -0.8974 -1.2251  0.3445
  634MOL0     H87427   9.901   0.037   7.162 -1.7972 -1.9861  1.9469
  634MOL0     H87428   9.884   0.219   7.137 -1.1258  0.0714 -0.0860
  634MOL0     H87429   9.768   0.154   7.397 -1.5916 -4.6503 -0.3859
  634MOL0     H87430   9.913   0.064   7.398  0.5458  0.6709  0.5658
  634MOL0     H87431  10.045   0.256   7.318 -0.3337  0.6878 -0.1177
  634MOL0     H87432   9.915   0.367   7.322  1.7449 -0.8265 -0.1231
  634MOL0     H87433  10.021   0.210   7.541 -0.8524 -0.9236 -0.8624
  634MOL0     H87434   9.877   0.319   7.561 -0.4545  2.0115 -2.2368
  634MOL0     H87435  10.091   0.476   7.446 -1.6545 -0.7632 -0.8094
  634MOL0     H87436  10.002   0.500   7.594 -0.9699 -0.5656  0.5123
  634MOL0     H87437  10.229   0.515   7.645  1.2074 -0.2530 -2.3285
  634MOL0     H87438  10.274   0.371   7.567  0.1164  0.0986  1.3645
  634MOL0     H87439  10.107   0.393   7.825  0.0891 -0.8060  1.2429
  634MOL0     H87440  10.130   0.244   7.729  3.4842 -0.5204 -1.7905
  634MOL0     H87441  10.263   0.145   7.969  0.5653 -0.6872 -0.7371
  634MOL0     H87442  10.460   0.150   8.130  1.7925  1.4714  0.6237
  634MOL0     H87443  10.615   0.223   8.090  1.8304 -0.4655 -1.7267
  634MOL0     H87444  10.473  -0.015   7.959 -1.2899  0.5792  0.5782
  634MOL0     H87445  10.634   0.045   7.903 -3.3614  0.3935 -3.1584
  634MOL0     H87446  10.655  -0.160   8.049  1.0749  0.2868  0.5161
  634MOL0     H87447  10.738  -0.023   8.098  0.2600  0.6054 -0.3435
  634MOL0     H87448  10.622  -0.149   8.278  0.5836 -3.0338 -4.1510
  634MOL0     H87449  10.587   0.026   8.271  1.6814 -1.2973  1.8594
  634MOL0     H87450  10.250  -0.125   8.376 -1.1561 -0.5614  0.7056
  634MOL0     H87451  10.088  -0.225   8.500 -0.8381 -0.8471 -1.5134
  634MOL0     H87452  10.143  -0.378   8.572 -0.9135  0.1383  0.2549
  634MOL0     H87453  10.028  -0.365   8.425  0.7219  0.6714 -2.0437
  634MOL0     H87454  10.397  -0.766   8.602 -0.5139 -1.3598  0.4015
  634MOL0     H87455  10.413  -0.969   8.687  2.2111 -0.1006 -0.6614
  634MOL0     H87456  10.322  -1.361   8.669  1.8120 -0.7100 -2.2545
  634MOL0     H87457  10.248  -1.208   8.704 -0.3365  0.9793 -1.7083
  634MOL0     H87458  10.088  -1.325   8.613  0.8684 -0.5306  1.8106
  634MOL0     H87459  10.132  -1.238   8.462  2.3688 -3.1109 -4.2523
  634MOL0     H87460  10.248  -1.506   8.518 -0.2547  0.4329  0.9654
  634MOL0     H87461  10.267  -1.402   8.369 -1.7919  2.0362 -0.2013
  634MOL0     H87462  10.086  -1.575   8.318 -0.2422  2.1393 -0.7905
  634MOL0     H87463  10.014  -1.425   8.327  1.0629 -1.3188 -3.1135
  634MOL0     H87464  10.007  -1.648   8.526 -2.7664 -1.6595  1.8752
  634MOL0     H87465   9.943  -1.489   8.578 -1.7772 -0.7330  0.3313
  634MOL0     H87466   9.854  -1.599   8.324 -3.8658 -0.2880 -0.5640
  634MOL0     H87467   9.793  -1.468   8.415  2.2568  0.9507 -2.0638
  634MOL0     H87468   9.730  -1.612   8.610 -1.8279 -1.6187  0.4597
  634MOL0     H87469   9.774  -1.758   8.537 -1.2567  0.8612  3.6713
  634MOL0     H87470   9.549  -1.579   8.448 -0.9033 -0.1666  3.7903
  634MOL0     H87471   9.532  -1.739   8.499  3.4723 -3.1253  0.6354
  634MOL0     H87472  10.352  -1.139   8.291  1.7660  1.8949 -3.5879
  634MOL0     H87473  10.326  -0.910   8.209 -3.2348 -1.5436  0.9378
  634MOL0     H87474  10.406  -0.544   8.170  0.9087  2.5743 -1.9201
  634MOL0     H87475  10.496  -0.314   8.112  0.1399  1.2563  0.4065
  634MOL0     H87476   9.663   0.390   7.052  1.9218 -2.9231  0.4302
  634MOL0     H87477   9.480   0.520   6.948  3.2397  0.8078  0.7654
  634MOL0     H87478   9.071   0.360   6.641  0.9195  1.6309 -0.4932
  634MOL0     H87479   8.880   0.438   6.519  3.2995 -0.2310 -0.8079
  634MOL0     H87480   8.596   0.722   6.731  0.0416 -1.8526  0.2579
  634MOL0     H87481   8.688   0.806   6.603 -0.8172  0.0946  0.4725
  634MOL0     H87482   8.449   0.824   6.557  2.2399  0.3515  2.9240
  634MOL0     H87483   8.437   0.655   6.519 -2.1628  1.0073  1.9479
  634MOL0     H87484   8.490   0.819   6.319  0.2820 -1.3814 -1.0149
  634MOL0     H87485   8.641   0.859   6.391  0.4407 -0.7069 -1.5620
  634MOL0     H87486   8.709   0.614   6.352 -1.7030  0.1793  1.5590
  634MOL0     H87487   8.664   0.682   6.194 -0.4281  0.0089 -1.5292
  634MOL0     H87488   8.370   0.388   6.291  0.3951  0.7717  1.9151
  634MOL0     H87489   8.762   0.679   6.841 -1.3675 -1.1342 -1.4482
  634MOL0     H87490   8.918   0.718   7.048  0.4986  0.3931  0.5019
  634MOL0     H87491   8.908   0.545   7.105  3.6926 -0.2425  1.2838
  634MOL0     H87492   9.051   0.622   7.057  0.0110  1.8902  0.1168
  635MOL0     O87493   7.439   2.651   8.813 -0.1163 -0.4480 -0.1302
  635MOL0     C87494   7.533   2.642   8.734  0.9695  0.1453 -0.4424
  635MOL0     O87495   7.574   2.527   8.677 -0.2502  0.1059  0.5839
  635MOL0     C87496   7.515   2.401   8.697  0.2383  0.0991  0.4740
  635MOL0     C87497   7.512   2.317   8.591  0.4433  0.7761  1.1000
  635MOL0     C87498   7.466   2.192   8.601 -0.4985  0.2566 -0.7085
  635MOL0     C87499   7.405   2.149   8.722 -0.8715  0.4784  0.7903
  635MOL0     O87500   7.379   2.021   8.750 -0.3092 -0.4530  0.8248
  635MOL0     C87501   7.461   1.921   8.682  0.6695  0.3265 -0.1971
  635MOL0     C87502   7.421   1.782   8.709 -0.0048 -0.3937  0.5844
  635MOL0     C87503   7.386   1.741   8.852 -0.3151 -0.2652  0.2901
  635MOL0     C87504   7.470   1.831   8.951 -0.1974  0.0483 -0.0594
  635MOL0     C87505   7.483   1.768   9.087  0.2901  0.9284 -0.1790
  635MOL0     C87506   7.574   1.851   9.168 -0.5408 -0.2559 -0.7323
  635MOL0     C87507   7.573   1.826   9.325  0.3045  0.0403 -0.2726
  635MOL0     C87508   7.459   1.888   9.399 -0.4092  0.2913 -0.3976
  635MOL0     N87509   7.453   1.827   9.535  0.3333  1.0655  0.2114
  635MOL0     C87510   7.463   1.894   9.654 -0.1810 -0.4031 -0.3708
  635MOL0     C87511   7.402   1.809   9.741  0.2628  0.1680  0.4868
  635MOL0     C87512   7.381   1.832   9.885 -0.1221  0.3643 -0.1445
  635MOL0     C87513   7.499   1.768   9.962 -0.6700 -0.5522 -0.2719
  635MOL0     C87514   7.471   1.750  10.113 -0.3291  0.3424 -0.0940
  635MOL0     C87515   7.363   1.642  10.158  0.0096  0.0951 -0.7143
  635MOL0     O87516   7.375   1.513  10.090 -0.1842 -0.6978  0.0401
  635MOL0     C87517   7.468   1.429  10.152  0.1741  0.2174  0.3893
  635MOL0     C87518   7.499   1.306  10.086  0.2802  0.5949 -0.5410
  635MOL0     C87519   7.597   1.218  10.125  0.1836  0.2590 -0.4224
  635MOL0     C87520   7.629   1.096  10.039 -0.8479  0.3201  0.2761
  635MOL0     C87521   7.689   1.270  10.223 -0.0642  0.4189  0.3835
  635MOL0     C87522   7.821   1.200  10.255  0.3018  0.0562 -0.4974
  635MOL0     O87523   7.931   1.265  10.297 -0.8102  0.2950  0.3162
  635MOL0     C87524   8.056   1.212  10.275 -0.2828  0.2701 -0.6072
  635MOL0     C87525   8.097   1.108  10.187  0.2381  0.5462 -0.6869
  635MOL0     C87526   8.224   1.057  10.191  0.8050 -0.0210 -0.6494
  635MOL0     C87527   8.314   1.095  10.293  0.5937  0.2012  0.0336
  635MOL0     O87528   8.443   1.050  10.307  0.2605  0.7995 -0.0292
  635MOL0     C87529   8.471   0.914  10.278  0.6690  0.4326  0.0687
  635MOL0     C87530   8.563   0.903  10.155  0.2367  0.2235 -1.0152
  635MOL0     C87531   8.595   1.024  10.072 -1.4894  0.0940 -0.3018
  635MOL0     C87532   8.700   1.006   9.954 -0.0165 -0.9041  0.4285
  635MOL0     C87533   8.647   0.894   9.861  0.5797  0.0571 -0.4954
  635MOL0     C87534   8.742   0.874   9.733  0.0238 -0.1946  0.8678
  635MOL0     C87535   8.653   0.843   9.615  0.1921 -0.5417 -0.5112
  635MOL0     C87536   8.717   0.825   9.473  0.1749 -1.2195 -0.9302
  635MOL0    Cl87537   8.589   0.858   9.342 -0.1854  0.2456 -0.1569
  635MOL0     C87538   8.279   1.204  10.373 -0.3342  1.3927  0.4929
  635MOL0     C87539   8.154   1.260  10.362  0.4141 -0.9086 -1.0407
  635MOL0     O87540   7.819   1.074  10.244 -0.5910 -0.6295 -0.5208
  635MOL0     C87541   7.656   1.380  10.293  0.3362 -0.5271  0.4459
  635MOL0     C87542   7.545   1.455  10.271 -0.1025  0.6453  0.8761
  635MOL0     N87543   7.376   1.688   9.683  0.3455 -0.9240  0.2816
  635MOL0     N87544   7.400   1.704   9.556 -0.0080 -0.5158  1.0594
  635MOL0     C87545   7.388   2.241   8.824  0.0289  1.1038 -0.1075
  635MOL0     C87546   7.450   2.365   8.818 -0.1350  1.0111  0.1537
  635MOL0     C87547   7.606   2.764   8.703 -0.0801 -0.1940 -0.7152
  635MOL0     C87548   7.633   2.801   8.573 -0.3986 -0.1328  0.0984
  635MOL0     C87549   7.693   2.914   8.528 -0.9321 -0.8403 -0.2124
  635MOL0     C87550   7.723   3.012   8.626  0.7444  0.3737  0.0840
  635MOL0     O87551   7.776   3.129   8.587  0.2668  0.4274 -0.0251
  635MOL0     C87552   7.672   3.229   8.580 -0.1105  0.1643 -0.6829
  635MOL0     C87553   7.679   3.333   8.689 -0.4850  0.2095 -0.5940
  635MOL0     C87554   7.560   3.427   8.685  0.8328  0.1851  0.1125
  635MOL0     C87555   7.580   3.536   8.580  0.8796  0.1056  0.8166
  635MOL0     C87556   7.548   3.501   8.437  0.5694 -0.7886  0.2299
  635MOL0     C87557   7.532   3.472   8.324 -0.1849 -0.5990 -0.0861
  635MOL0     C87558   7.701   2.984   8.759  1.4370 -0.1181  0.3346
  635MOL0     C87559   7.650   2.855   8.800  0.2917 -1.1384 -0.1418
  635MOL0     C87560   7.632   2.837   8.943 -0.5278  0.1555 -0.7313
  635MOL0     H87561   7.550   2.358   8.497 -1.3642  2.3499  1.0057
  635MOL0     H87562   7.470   2.136   8.508 -0.6470  1.6210 -1.5531
  635MOL0     H87563   7.568   1.929   8.706  0.8237  0.4361 -0.9123
  635MOL0     H87564   7.441   1.934   8.575 -2.2136 -0.0225  0.2295
  635MOL0     H87565   7.333   1.767   8.646  0.1250  2.9198 -0.5541
  635MOL0     H87566   7.503   1.716   8.676 -0.2858 -1.2238  1.4709
  635MOL0     H87567   7.282   1.761   8.881 -0.4903 -1.9490  0.8933
  635MOL0     H87568   7.411   1.637   8.870  1.1240  0.1992  1.0832
  635MOL0     H87569   7.566   1.832   8.899 -0.2986  0.1844 -0.2448
  635MOL0     H87570   7.421   1.928   8.963 -0.4415  0.1780 -1.8287
  635MOL0     H87571   7.511   1.664   9.068  2.5163  1.6792 -1.4320
  635MOL0     H87572   7.385   1.765   9.135 -0.3151  0.0899 -1.3989
  635MOL0     H87573   7.678   1.839   9.136  0.1156 -4.6165  2.2316
  635MOL0     H87574   7.563   1.959   9.154 -1.3920  0.1334  2.1720
  635MOL0     H87575   7.670   1.867   9.354  1.2128 -2.0856 -0.1114
  635MOL0     H87576   7.590   1.725   9.364  1.4952 -0.2964 -1.5815
  635MOL0     H87577   7.474   1.996   9.411  1.4401  0.4795 -3.3963
  635MOL0     H87578   7.376   1.859   9.334 -0.9397 -3.4719  1.6760
  635MOL0     H87579   7.489   1.998   9.667 -0.4894 -0.3631 -0.0692
  635MOL0     H87580   7.287   1.786   9.917  0.8023 -1.0612  0.5980
  635MOL0     H87581   7.393   1.938   9.911  2.4173  1.1971 -3.9108
  635MOL0     H87582   7.533   1.670   9.929  0.8285 -1.6340  3.8767
  635MOL0     H87583   7.590   1.827   9.948 -0.0252 -1.4698 -0.0569
  635MOL0     H87584   7.567   1.723  10.157 -0.9781 -1.8588  0.0846
  635MOL0     H87585   7.452   1.850  10.153  1.9995  0.3667  1.1517
  635MOL0     H87586   7.356   1.631  10.267 -2.1072 -2.0814 -0.9862
  635MOL0     H87587   7.259   1.672  10.142 -0.7869 -0.3697  2.7789
  635MOL0     H87588   7.438   1.281  10.000 -2.1608  3.5728  0.1408
  635MOL0     H87589   7.732   1.103  10.003 -0.8159  0.1726  0.3382
  635MOL0     H87590   7.558   1.090   9.956 -2.3097  1.0937  1.4275
  635MOL0     H87591   7.624   1.003  10.096  2.8650  0.2084  0.6863
  635MOL0     H87592   8.038   1.068  10.105  1.0946 -1.9634 -0.1729
  635MOL0     H87593   8.265   0.986  10.120  1.4150  1.1373 -1.4907
  635MOL0     H87594   8.531   0.880  10.363  1.5542 -0.7224 -0.9866
  635MOL0     H87595   8.384   0.851  10.255  0.8764  0.7555 -1.6965
  635MOL0     H87596   8.655   0.860  10.197 -0.5842 -0.1745  0.4645
  635MOL0     H87597   8.519   0.826  10.091  2.0639 -1.9635  0.1775
  635MOL0     H87598   8.636   1.099  10.140 -0.2676 -1.1734  0.4097
  635MOL0     H87599   8.502   1.065  10.031 -1.0426  1.0393 -0.3865
  635MOL0     H87600   8.796   0.971   9.993 -0.7298 -4.4030 -0.6263
  635MOL0     H87601   8.714   1.100   9.900 -0.1955 -0.1764  1.6135
  635MOL0     H87602   8.634   0.801   9.917  2.2435 -0.2488 -0.5714
  635MOL0     H87603   8.544   0.921   9.838  0.3372  0.3984  0.9199
  635MOL0     H87604   8.823   0.802   9.744  1.1467  0.8628 -0.1656
  635MOL0     H87605   8.801   0.964   9.710 -0.6165 -0.0903 -0.4460
  635MOL0     H87606   8.597   0.937   9.611  1.6102  0.3836  0.6326
  635MOL0     H87607   8.576   0.769   9.636 -1.0374  0.2934 -1.8302
  635MOL0     H87608   8.751   0.722   9.461 -0.4307 -1.6356  0.6623
  635MOL0     H87609   8.796   0.901   9.475 -0.6423 -0.3299  1.2490
  635MOL0     H87610   8.365   1.228  10.436  2.7095 -0.6664 -2.5195
  635MOL0     H87611   8.116   1.332  10.434  2.3129 -1.7028  0.8885
  635MOL0     H87612   7.728   1.403  10.370 -0.0972  0.3568  0.6058
  635MOL0     H87613   7.530   1.542  10.335  1.3484  1.0881  0.6641
  635MOL0     H87614   7.350   2.197   8.916  4.0106 -1.4914  0.5327
  635MOL0     H87615   7.442   2.427   8.907 -1.0818  0.9180  0.1466
  635MOL0     H87616   7.606   2.728   8.497  5.0724  0.0599 -2.4651
  635MOL0     H87617   7.706   2.930   8.421 -2.8265 -0.6818 -0.4519
  635MOL0     H87618   7.697   3.284   8.489  0.6554  2.0411  0.5797
  635MOL0     H87619   7.571   3.186   8.582  0.6683 -2.1360  4.0867
  635MOL0     H87620   7.770   3.389   8.667  0.1350 -1.1606 -1.6948
  635MOL0     H87621   7.684   3.288   8.789 -4.1419 -1.5359 -1.0153
  635MOL0     H87622   7.466   3.378   8.660  0.3694  0.7201  0.7778
  635MOL0     H87623   7.553   3.465   8.788 -2.2527  2.0068 -0.6555
  635MOL0     H87624   7.684   3.570   8.583  0.1072  2.6662  1.6046
  635MOL0     H87625   7.518   3.619   8.615  1.8343  0.5609  1.4772
  635MOL0     H87626   7.524   3.431   8.225 -2.0688 -0.2757 -0.0914
  635MOL0     H87627   7.698   3.063   8.834 -3.8762 -2.1570  2.8253
  635MOL0     H87628   7.526   2.856   8.962 -0.4263  1.8876 -1.7086
  635MOL0     H87629   7.667   2.735   8.963 -1.6696 -0.3728 -1.3308
  635MOL0     H87630   7.681   2.915   9.002  0.5609  0.5085 -2.0497
  636MOL0     O87631   5.226   4.133   9.883  0.3577  0.6324 -0.4333
  636MOL0     C87632   5.106   4.162   9.884  0.4791 -0.0086  1.6506
  636MOL0     O87633   5.028   4.170   9.768  0.2389 -0.4559 -0.5568
  636MOL0     C87634   5.071   4.245   9.662 -0.1195  0.1911  0.3012
  636MOL0     C87635   5.151   4.362   9.672 -0.8904  0.5819  0.2566
  636MOL0     C87636   5.207   4.440   9.567 -0.3188  0.0259 -0.5263
  636MOL0     C87637   5.162   4.407   9.440 -0.5303  0.6391  0.7251
  636MOL0     O87638   5.210   4.468   9.321 -0.7215  0.1343  0.5189
  636MOL0     C87639   5.296   4.583   9.326 -0.1146 -0.7943 -0.6686
  636MOL0     C87640   5.218   4.710   9.363 -1.2587  0.4616 -0.6679
  636MOL0     C87641   5.319   4.812   9.435  0.8854  0.5595 -0.7314
  636MOL0     C87642   5.424   4.867   9.336  0.3226  0.0832  0.2318
  636MOL0     C87643   5.420   5.024   9.325 -0.7392  0.6210 -0.5390
  636MOL0     C87644   5.472   5.093   9.444 -0.2580  0.0599 -0.7515
  636MOL0     C87645   5.612   5.124   9.432 -0.9557 -0.3110  0.6287
  636MOL0     C87646   5.629   5.244   9.340 -0.0584 -0.1381  0.3563
  636MOL0     N87647   5.764   5.305   9.353  0.7865  0.5419  0.7300
  636MOL0     C87648   5.778   5.439   9.332  0.0168  0.3649  0.6824
  636MOL0     C87649   5.905   5.458   9.362 -0.5306 -0.3346 -1.1273
  636MOL0     C87650   5.980   5.588   9.383  0.4900  1.0157 -0.0898
  636MOL0     C87651   5.979   5.681   9.258 -0.2056  0.7223  0.6048
  636MOL0     C87652   6.060   5.800   9.276 -0.9350  0.1476 -0.0875
  636MOL0     C87653   6.202   5.773   9.229  0.4905 -0.3005  0.9547
  636MOL0     O87654   6.287   5.885   9.257 -0.2846  0.2729  0.2170
  636MOL0     C87655   6.260   5.994   9.182 -0.5141  0.2162  0.0806
  636MOL0     C87656   6.294   5.986   9.050  1.1313 -0.3358 -0.9464
  636MOL0     C87657   6.285   6.100   8.967 -0.5786  1.1699  0.0413
  636MOL0     C87658   6.333   6.077   8.828 -0.8985  0.3648 -0.3155
  636MOL0     C87659   6.225   6.216   9.012 -0.6104  0.0235 -0.4423
  636MOL0     C87660   6.205   6.345   8.932  0.0704 -0.1802  0.3274
  636MOL0     O87661   6.203   6.461   9.002  0.2883 -0.1621  0.4799
  636MOL0     C87662   6.193   6.576   8.924 -0.4506  0.1440  0.1517
  636MOL0     C87663   6.304   6.627   8.864  0.6563  0.4667  1.1241
  636MOL0     C87664   6.293   6.742   8.783  0.3958 -0.2306  0.5076
  636MOL0     C87665   6.174   6.815   8.773  0.4189 -0.8184 -0.1941
  636MOL0     O87666   6.182   6.930   8.713  0.3533  0.4929  0.7579
  636MOL0     C87667   6.060   6.968   8.637 -0.0285 -0.5291  0.5238
  636MOL0     C87668   6.101   7.057   8.516 -0.0063 -1.1486 -0.6068
  636MOL0     C87669   6.231   7.020   8.447 -0.0898 -0.0241  0.5117
  636MOL0     C87670   6.246   6.876   8.392  0.3647  0.2198 -0.2075
  636MOL0     C87671   6.136   6.840   8.297  0.3802 -0.8601 -0.9561
  636MOL0     C87672   6.166   6.712   8.208  0.1391  0.1043  0.1575
  636MOL0     C87673   6.041   6.665   8.124  0.0897  0.3968 -1.1975
  636MOL0     C87674   6.077   6.542   8.042  0.0117  0.1544 -0.0024
  636MOL0    Cl87675   6.185   6.589   7.913 -0.2195  0.0687 -0.2360
  636MOL0     C87676   6.058   6.759   8.837 -1.5487 -0.3303 -0.0096
  636MOL0     C87677   6.069   6.640   8.902  0.2126  1.0133  1.2592
  636MOL0     O87678   6.173   6.339   8.817 -0.0490  0.1772 -0.2286
  636MOL0     C87679   6.214   6.223   9.148  1.0421 -0.1063  0.3466
  636MOL0     C87680   6.225   6.115   9.231 -0.7208  0.0937 -0.8886
  636MOL0     N87681   5.960   5.340   9.399  0.0651  0.8009 -0.4391
  636MOL0     N87682   5.879   5.248   9.388  0.0226  1.3357 -0.3996
  636MOL0     C87683   5.080   4.293   9.425 -0.9033 -0.4960  0.4476
  636MOL0     C87684   5.036   4.222   9.536  0.1193 -0.3479  0.1209
  636MOL0     C87685   5.051   4.174  10.016 -0.7395  0.0450  0.4284
  636MOL0     C87686   5.126   4.172  10.126 -1.0015  0.3192  0.8366
  636MOL0     C87687   5.082   4.214  10.251 -0.3614 -0.1591 -0.8772
  636MOL0     C87688   4.949   4.244  10.272  0.7856 -0.1048  1.1802
  636MOL0     O87689   4.911   4.277  10.400  0.2451 -0.3983  0.3381
  636MOL0     C87690   4.768   4.274  10.429 -0.0124 -1.0912 -0.3165
  636MOL0     C87691   4.741   4.255  10.584 -0.8508 -0.2830 -0.8688
  636MOL0     C87692   4.765   4.384  10.666 -0.2432 -0.2879 -0.5734
  636MOL0     C87693   4.694   4.370  10.804 -0.5343  0.4013  0.0426
  636MOL0     C87694   4.560   4.402  10.781 -0.1683  0.5252  0.2160
  636MOL0     C87695   4.440   4.433  10.778 -0.9396 -0.2307  0.9469
  636MOL0     C87696   4.861   4.237  10.171 -1.2735  0.3799  1.2034
  636MOL0     C87697   4.912   4.193  10.043 -0.1509 -0.5274  0.2981
  636MOL0     C87698   4.803   4.190   9.938  0.4541  0.9694 -0.5152
  636MOL0     H87699   5.165   4.404   9.771 -1.8802  1.4118  0.0680
  636MOL0     H87700   5.256   4.534   9.589  0.9446 -0.0576 -2.7717
  636MOL0     H87701   5.349   4.594   9.231  1.0129 -2.2475 -0.2313
  636MOL0     H87702   5.377   4.571   9.398  1.3233 -2.7480 -2.4708
  636MOL0     H87703   5.184   4.759   9.271 -2.5308 -0.8252 -0.9204
  636MOL0     H87704   5.127   4.677   9.414 -2.8018 -0.3626 -3.6871
  636MOL0     H87705   5.256   4.894   9.472  1.8612  4.0432 -5.6776
  636MOL0     H87706   5.365   4.756   9.516 -1.1017  1.1738  0.9152
  636MOL0     H87707   5.526   4.841   9.365  1.2751  0.0021 -2.8503
  636MOL0     H87708   5.410   4.832   9.234  0.8471 -0.3695  0.3111
  636MOL0     H87709   5.318   5.064   9.331 -0.3100  2.0151 -1.9623
  636MOL0     H87710   5.469   5.047   9.231  0.0917  0.5725 -0.1269
  636MOL0     H87711   5.415   5.183   9.469 -1.8556 -0.2337 -3.0621
  636MOL0     H87712   5.454   5.027   9.529 -1.0745 -0.7680 -1.5527
  636MOL0     H87713   5.677   5.041   9.404  2.8389  2.7245 -0.4971
  636MOL0     H87714   5.646   5.145   9.534 -0.2031  1.2789  0.0850
  636MOL0     H87715   5.598   5.219   9.238 -0.7374 -1.7706  0.9307
  636MOL0     H87716   5.555   5.317   9.374 -0.3865 -0.2756 -0.0483
  636MOL0     H87717   5.711   5.524   9.321  1.5565  1.5722  0.3711
  636MOL0     H87718   6.086   5.568   9.405  0.0285 -0.4895  0.9233
  636MOL0     H87719   5.945   5.645   9.470 -0.3668  0.9457 -0.3807
  636MOL0     H87720   6.001   5.630   9.163 -0.6345 -1.3320  1.5501
  636MOL0     H87721   5.877   5.717   9.245 -0.3589 -0.4544 -2.1447
  636MOL0     H87722   6.025   5.883   9.215  2.3586  1.2627 -0.6388
  636MOL0     H87723   6.059   5.821   9.383  1.1075  0.7218 -0.1434
  636MOL0     H87724   6.252   5.685   9.270  1.1571 -0.1889  0.3991
  636MOL0     H87725   6.191   5.753   9.121  0.0701  0.4639  0.8548
  636MOL0     H87726   6.336   5.895   9.007  1.4825 -1.1839  1.0778
  636MOL0     H87727   6.269   6.094   8.741  2.5543  1.3738 -2.8397
  636MOL0     H87728   6.378   5.979   8.815 -1.2739 -0.3450  2.8400
  636MOL0     H87729   6.412   6.153   8.823 -0.6367  0.2846  1.6990
  636MOL0     H87730   6.404   6.588   8.879  0.6781 -1.6223 -3.0584
  636MOL0     H87731   6.385   6.785   8.745 -1.6870  5.4516  0.9863
  636MOL0     H87732   6.013   6.879   8.594  0.5326 -2.3375  3.4018
  636MOL0     H87733   5.993   7.034   8.692 -1.3259 -1.4192  0.0760
  636MOL0     H87734   6.014   7.069   8.451 -0.8835  2.6951  1.0181
  636MOL0     H87735   6.114   7.157   8.559  1.4741 -1.0226 -1.2743
  636MOL0     H87736   6.310   7.040   8.520 -0.0329  1.7861  0.0016
  636MOL0     H87737   6.249   7.094   8.369 -1.9809  0.7445  0.7358
  636MOL0     H87738   6.251   6.804   8.475 -0.4846 -0.4951 -0.7520
  636MOL0     H87739   6.349   6.865   8.359  0.8442 -1.1382  1.5979
  636MOL0     H87740   6.048   6.825   8.362  0.7988  1.0087  0.1040
  636MOL0     H87741   6.115   6.914   8.220  0.1689 -2.9565 -3.0341
  636MOL0     H87742   6.183   6.630   8.279 -0.7275 -0.9116 -0.7783
  636MOL0     H87743   6.251   6.734   8.142 -0.8050  2.0951 -0.4804
  636MOL0     H87744   6.005   6.744   8.057 -0.7739  1.0652  0.0178
  636MOL0     H87745   5.960   6.647   8.196 -1.3526  1.4103 -2.4844
  636MOL0     H87746   5.987   6.524   7.982 -0.2755  0.3011  0.3773
  636MOL0     H87747   6.107   6.455   8.101 -1.2297 -0.6871 -0.5860
  636MOL0     H87748   5.963   6.813   8.842 -2.2166 -1.5368  0.6988
  636MOL0     H87749   5.979   6.600   8.947  0.6576  0.0444  1.3072
  636MOL0     H87750   6.190   6.320   9.190 -0.0791  0.8910 -2.3277
  636MOL0     H87751   6.216   6.122   9.339  0.3197  0.5202 -0.8233
  636MOL0     H87752   5.059   4.268   9.321 -1.5132  1.8411 -0.0610
  636MOL0     H87753   4.974   4.134   9.522  1.2850 -1.5947  2.3822
  636MOL0     H87754   5.227   4.135  10.114 -1.9971 -1.6449 -2.8337
  636MOL0     H87755   5.146   4.207  10.338 -0.2628 -0.9866 -1.0049
  636MOL0     H87756   4.723   4.369  10.396  1.6536  0.1662  0.8335
  636MOL0     H87757   4.712   4.194  10.381 -0.4325 -1.3067  0.5169
  636MOL0     H87758   4.810   4.176  10.615  0.7186  1.4377  0.1840
  636MOL0     H87759   4.635   4.229  10.595 -1.2591  2.0302  1.8305
  636MOL0     H87760   4.872   4.404  10.678 -0.3099 -1.1378  1.9807
  636MOL0     H87761   4.716   4.466  10.613 -0.4380 -1.3954 -2.1881
  636MOL0     H87762   4.732   4.441  10.878  1.8600 -0.0687 -0.6514
  636MOL0     H87763   4.709   4.269  10.844  2.4889  1.4275  1.8853
  636MOL0     H87764   4.341   4.471  10.765 -0.0520  2.6225  1.7359
  636MOL0     H87765   4.758   4.272  10.169 -2.1883 -2.1698  0.5698
  636MOL0     H87766   4.822   4.265   9.860  0.3438 -0.4313 -1.9586
  636MOL0     H87767   4.805   4.089   9.896 -2.1639  0.4146  0.5260
  636MOL0     H87768   4.703   4.217   9.974 -0.0002 -0.4967 -0.6300
  637MOL0     O87769  10.922   0.965   6.055 -0.1505 -0.2641  0.0745
  637MOL0     C87770  10.885   1.025   6.158  1.1301 -1.0778 -0.2620
  637MOL0     O87771  10.909   1.163   6.181  0.1372 -0.4866 -0.5736
  637MOL0     C87772  10.983   1.224   6.088  0.2943  0.4268  0.3226
  637MOL0     C87773  11.122   1.191   6.057  0.7030 -0.1059 -0.1937
  637MOL0     C87774  11.186   1.276   5.973 -0.4041 -0.3325  0.1971
  637MOL0     C87775  11.134   1.393   5.917  0.8389 -0.9558  0.0136
  637MOL0     O87776  11.215   1.471   5.844 -0.1865  0.0007  0.4565
  637MOL0     C87777  11.346   1.506   5.900  0.0670  0.1095 -0.4969
  637MOL0     C87778  11.327   1.595   6.016  1.0749 -0.2579 -0.2035
  637MOL0     C87779  11.271   1.739   5.977  0.1282  0.2003  0.0680
  637MOL0     C87780  11.252   1.803   6.120  0.9386  0.0958  0.5990
  637MOL0     C87781  11.225   1.959   6.112 -0.2724  0.5441  0.2907
  637MOL0     C87782  11.351   2.040   6.070  0.2439  0.0205 -0.1906
  637MOL0     C87783  11.313   2.194   6.088 -0.3186 -0.1201 -0.1386
  637MOL0     C87784  11.433   2.285   6.125 -0.3566 -0.4827  1.2820
  637MOL0     N87785  11.448   2.300   6.268  0.5480 -0.1316 -1.1283
  637MOL0     C87786  11.551   2.247   6.340  0.1466 -0.2733 -0.7684
  637MOL0     C87787  11.517   2.279   6.472 -0.3015 -0.6212  0.3572
  637MOL0     C87788  11.593   2.256   6.598 -0.6182 -0.0954 -1.0282
  637MOL0     C87789  11.738   2.317   6.600 -0.5855  0.1434  0.2196
  637MOL0     C87790  11.837   2.239   6.514  0.0763  0.3856  0.2669
  637MOL0     C87791  11.983   2.266   6.559  0.0874 -0.2329 -0.0561
  637MOL0     O87792  12.068   2.178   6.497 -0.6921 -0.8270 -0.6967
  637MOL0     C87793  12.202   2.226   6.497 -0.2735  1.0977  0.1358
  637MOL0     C87794  12.269   2.222   6.615  0.0678 -0.3512  0.4194
  637MOL0     C87795  12.408   2.244   6.621 -0.1449  0.2051  0.2569
  637MOL0     C87796  12.480   2.261   6.760  0.4648 -0.0772 -0.1833
  637MOL0     C87797  12.478   2.258   6.498  1.0081 -0.3897 -0.2877
  637MOL0     C87798  12.624   2.256   6.475 -0.1642  0.1928 -0.2626
  637MOL0     O87799  12.680   2.289   6.355 -0.1199 -0.5205 -0.9052
  637MOL0     C87800  12.807   2.360   6.353  0.0133 -0.0028 -0.4850
  637MOL0     C87801  12.829   2.471   6.438 -0.1438  0.2452 -0.1474
  637MOL0     C87802  12.943   2.548   6.429  0.8892  0.3775 -0.4458
  637MOL0     C87803  13.034   2.520   6.325  0.1225 -0.5726 -0.0214
  637MOL0     O87804  13.158   2.591   6.318  0.6021 -0.0977 -0.1887
  637MOL0     C87805  13.276   2.532   6.263 -0.7359 -0.1508 -0.0847
  637MOL0     C87806  13.358   2.460   6.362 -1.1260 -0.1790  0.5122
  637MOL0     C87807  13.303   2.323   6.399 -0.1376  0.2379 -0.0532
  637MOL0     C87808  13.397   2.264   6.512 -0.4260 -0.6538  0.0458
  637MOL0     C87809  13.340   2.132   6.574 -0.2039 -0.7933 -0.2104
  637MOL0     C87810  13.433   2.013   6.544 -0.4427  0.1448  0.7108
  637MOL0     C87811  13.374   1.878   6.600  0.6442  0.4742  0.5163
  637MOL0     C87812  13.337   1.875   6.752 -0.0070 -0.3374  0.0005
  637MOL0    Cl87813  13.329   1.710   6.837 -0.3901  0.1445  0.0838
  637MOL0     C87814  13.007   2.413   6.235 -0.3237  0.2962  0.2496
  637MOL0     C87815  12.894   2.333   6.255  0.2813  0.4678 -0.8243
  637MOL0     O87816  12.694   2.233   6.573  0.0154 -0.1149 -0.4665
  637MOL0     C87817  12.402   2.279   6.383  0.1718  0.5500 -0.7568
  637MOL0     C87818  12.263   2.252   6.373  0.2627 -0.5393 -0.1351
  637MOL0     N87819  11.391   2.343   6.467 -0.6259 -0.5098 -0.5567
  637MOL0     N87820  11.359   2.366   6.348 -0.5276 -0.1992 -0.5121
  637MOL0     C87821  11.002   1.422   5.942 -0.5127 -0.0838  0.4754
  637MOL0     C87822  10.930   1.347   6.026 -0.2718  0.2530 -0.0192
  637MOL0     C87823  10.803   0.950   6.255  0.5287 -0.7733 -0.4277
  637MOL0     C87824  10.712   0.848   6.206  0.8413 -0.2865 -0.1774
  637MOL0     C87825  10.617   0.784   6.287  0.0878 -0.6250  0.2726
  637MOL0     C87826  10.606   0.821   6.421  0.7474  0.2748  0.5552
  637MOL0     O87827  10.495   0.774   6.491 -0.2817 -0.2103 -0.1467
  637MOL0     C87828  10.519   0.697   6.617  1.2237 -0.3759 -0.5148
  637MOL0     C87829  10.574   0.553   6.570  0.7725  0.1613  0.1604
  637MOL0     C87830  10.472   0.479   6.481  0.3748  0.1237  0.4609
  637MOL0     C87831  10.340   0.426   6.558 -0.0148 -0.0734 -0.6001
  637MOL0     C87832  10.365   0.309   6.642 -0.6422  1.0185  0.3601
  637MOL0     C87833  10.365   0.210   6.713 -0.9765 -0.6668 -0.1403
  637MOL0     C87834  10.703   0.907   6.475 -0.5796 -0.1286  0.5722
  637MOL0     C87835  10.800   0.969   6.397 -0.6701 -0.6366  1.1221
  637MOL0     C87836  10.891   1.078   6.464 -0.5011  0.2832 -0.4034
  637MOL0     H87837  11.181   1.113   6.105  2.0247  1.7225  1.3361
  637MOL0     H87838  11.289   1.259   5.943  0.3983 -2.0387  3.4406
  637MOL0     H87839  11.404   1.553   5.820 -1.2991 -0.0364 -1.6138
  637MOL0     H87840  11.412   1.426   5.933  1.8361  1.4412 -0.6355
  637MOL0     H87841  11.255   1.544   6.080 -1.3524  0.1418 -2.4407
  637MOL0     H87842  11.420   1.613   6.071  0.8561 -1.8640  0.7661
  637MOL0     H87843  11.340   1.798   5.917 -0.5988  0.3415 -0.6547
  637MOL0     H87844  11.172   1.738   5.928  0.2290  1.9056 -0.2269
  637MOL0     H87845  11.163   1.763   6.169  0.5901  1.0298  0.7564
  637MOL0     H87846  11.340   1.778   6.180  1.6476 -4.5851 -1.9415
  637MOL0     H87847  11.180   1.992   6.207  2.3504  2.1627  1.0693
  637MOL0     H87848  11.149   1.971   6.035 -0.1465 -1.8801 -0.3049
  637MOL0     H87849  11.439   2.018   6.131 -1.8219  0.1863  3.0976
  637MOL0     H87850  11.393   2.024   5.970  0.2468  0.6474 -0.2991
  637MOL0     H87851  11.236   2.221   6.161  1.8704  3.5832  1.0967
  637MOL0     H87852  11.278   2.221   5.987  3.0686  2.2993 -0.8348
  637MOL0     H87853  11.528   2.249   6.084 -0.0913  1.8359 -0.3692
  637MOL0     H87854  11.410   2.381   6.077  0.3064 -1.0068 -0.1286
  637MOL0     H87855  11.643   2.197   6.311  0.1106 -0.9412  0.2111
  637MOL0     H87856  11.590   2.150   6.624 -0.6529  0.2581  0.4981
  637MOL0     H87857  11.530   2.313   6.667  0.0855  3.6069 -3.1800
  637MOL0     H87858  11.743   2.424   6.575 -2.0902  0.0228 -0.7763
  637MOL0     H87859  11.766   2.310   6.705  1.7336 -0.8082 -0.4126
  637MOL0     H87860  11.817   2.132   6.514  0.8516  0.2207  1.5482
  637MOL0     H87861  11.810   2.265   6.411 -0.3008 -3.1441 -0.6239
  637MOL0     H87862  12.022   2.367   6.543 -0.9399  0.8325  3.2583
  637MOL0     H87863  11.989   2.249   6.667 -0.8698  0.6062  0.1414
  637MOL0     H87864  12.219   2.216   6.711 -0.3208  0.3791  0.2708
  637MOL0     H87865  12.414   2.308   6.833 -1.1201 -1.0066 -0.9720
  637MOL0     H87866  12.579   2.307   6.757  0.7966 -0.7525  0.2038
  637MOL0     H87867  12.482   2.160   6.802 -1.8685 -0.1391 -0.1126
  637MOL0     H87868  12.752   2.483   6.514  0.9672 -0.8931  1.2361
  637MOL0     H87869  12.935   2.627   6.504 -0.7514 -0.0398 -0.1193
  637MOL0     H87870  13.259   2.479   6.169 -0.9681 -0.1484 -0.0445
  637MOL0     H87871  13.358   2.602   6.245  2.0052 -3.4230 -1.3306
  637MOL0     H87872  13.458   2.445   6.319 -2.2551 -1.7472 -1.7451
  637MOL0     H87873  13.366   2.533   6.443  3.0338 -0.4157  0.5627
  637MOL0     H87874  13.299   2.254   6.315 -3.1088 -0.4544  0.5283
  637MOL0     H87875  13.203   2.336   6.441 -0.7179  0.8578 -1.5432
  637MOL0     H87876  13.394   2.338   6.593  0.2408  0.9141 -1.3181
  637MOL0     H87877  13.501   2.250   6.484 -0.8408 -1.3888 -1.1980
  637MOL0     H87878  13.345   2.153   6.681 -1.1195 -0.3557 -0.2484
  637MOL0     H87879  13.238   2.113   6.541 -0.0034  0.5818 -1.7853
  637MOL0     H87880  13.524   2.029   6.602  1.8092  0.8526 -2.7809
  637MOL0     H87881  13.433   1.997   6.436 -1.8162 -2.5003  1.0233
  637MOL0     H87882  13.454   1.806   6.585 -0.7356 -0.7276 -1.5306
  637MOL0     H87883  13.289   1.835   6.546  2.4517 -1.4627 -0.9610
  637MOL0     H87884  13.239   1.923   6.754  0.1487  0.0473 -0.8414
  637MOL0     H87885  13.419   1.935   6.791 -0.9865  0.7704  0.3879
  637MOL0     H87886  13.068   2.384   6.150  0.9778  4.3625 -0.3800
  637MOL0     H87887  12.881   2.236   6.207 -0.0350 -0.7470  1.5665
  637MOL0     H87888  12.457   2.283   6.290  1.1289 -0.1674 -0.2403
  637MOL0     H87889  12.198   2.254   6.287 -1.5620 -0.9480  1.1755
  637MOL0     H87890  10.962   1.513   5.898 -2.0606 -0.8081  0.3049
  637MOL0     H87891  10.828   1.378   6.044 -0.5701  0.7973 -2.4184
  637MOL0     H87892  10.724   0.812   6.105  0.2613  0.6509 -0.5844
  637MOL0     H87893  10.557   0.702   6.248 -0.9628 -0.5064  1.5637
  637MOL0     H87894  10.578   0.747   6.694 -0.6867  1.7412 -0.3046
  637MOL0     H87895  10.422   0.672   6.662  1.8871 -2.1668  0.0143
  637MOL0     H87896  10.597   0.487   6.654 -1.4564 -0.5181  0.3152
  637MOL0     H87897  10.669   0.566   6.519  0.8663 -1.0593  0.0112
  637MOL0     H87898  10.439   0.538   6.396 -1.3789 -0.4417  0.7089
  637MOL0     H87899  10.522   0.396   6.431  0.4034  1.6575 -2.1928
  637MOL0     H87900  10.258   0.409   6.487  1.0023  1.7190 -2.3154
  637MOL0     H87901  10.304   0.504   6.627  1.6355  1.7175 -1.6561
  637MOL0     H87902  10.377   0.131   6.784 -2.1096  2.1493  3.5266
  637MOL0     H87903  10.709   0.932   6.581 -1.9147 -1.6773  1.0568
  637MOL0     H87904  10.846   1.178   6.468  0.2129  0.6517 -1.1581
  637MOL0     H87905  10.928   1.049   6.563  0.3002  0.6401 -0.5896
  637MOL0     H87906  10.985   1.086   6.407 -1.2447 -2.5067 -2.1962
  638MOL0     O87907  10.303   8.672   1.711  0.4575  0.3518  0.8156
  638MOL0     C87908  10.183   8.651   1.693 -0.2099 -0.3793  0.7916
  638MOL0     O87909  10.082   8.745   1.691 -0.5222  1.0016 -0.1791
  638MOL0     C87910  10.121   8.872   1.690  0.1319  0.0513  1.1964
  638MOL0     C87911  10.205   8.929   1.590  1.8943 -0.0014  0.4834
  638MOL0     C87912  10.254   9.059   1.608  0.2812  0.0413 -0.1285
  638MOL0     C87913  10.215   9.136   1.717 -0.7744  0.9079  0.3701
  638MOL0     O87914  10.271   9.256   1.719  0.1691 -0.7679 -0.6351
  638MOL0     C87915  10.202   9.365   1.784 -0.0106 -0.2133  0.4585
  638MOL0     C87916  10.302   9.475   1.784  0.9637 -0.1069 -0.1624
  638MOL0     C87917  10.255   9.611   1.844 -0.1978  0.1329  0.8348
  638MOL0     C87918  10.126   9.670   1.769  0.5383 -0.0286  0.2893
  638MOL0     C87919  10.123   9.819   1.757 -0.2007 -0.2727 -0.1533
  638MOL0     C87920  10.207   9.870   1.640  0.7267  0.4964  0.8415
  638MOL0     C87921  10.122   9.918   1.520 -0.3579  0.1484  0.1921
  638MOL0     C87922  10.059  10.050   1.555 -0.6164  0.5369  1.4596
  638MOL0     N87923   9.951  10.068   1.460  0.6966 -0.0560 -0.0896
  638MOL0     C87924   9.942  10.160   1.365 -0.1300 -0.0493 -0.3470
  638MOL0     C87925   9.810  10.168   1.329 -0.1534 -0.1487 -0.5611
  638MOL0     C87926   9.760  10.238   1.207  0.2036 -0.1354 -0.5228
  638MOL0     C87927   9.612  10.266   1.209 -0.0632  0.7604 -0.5633
  638MOL0     C87928   9.583  10.275   1.057 -0.6701 -0.2006  0.1349
  638MOL0     C87929   9.643  10.392   0.977 -0.5163 -0.1153 -0.0237
  638MOL0     O87930   9.639  10.514   1.058  0.0199  0.1614 -0.0594
  638MOL0     C87931   9.672  10.630   0.982  0.4045 -0.4854 -0.6643
  638MOL0     C87932   9.701  10.640   0.837  0.0648  0.5286 -0.3087
  638MOL0     C87933   9.751  10.748   0.771  0.1941 -1.4326  0.2766
  638MOL0     C87934   9.773  10.727   0.620  0.5528 -0.4153 -0.4307
  638MOL0     C87935   9.773  10.865   0.850 -0.7096  0.2643 -0.3583
  638MOL0     C87936   9.804  11.001   0.783  0.0556 -0.5992 -0.9260
  638MOL0     O87937   9.796  11.108   0.872  0.4841  0.9723  0.2272
  638MOL0     C87938   9.841  11.228   0.820  0.6749 -0.2587 -0.7853
  638MOL0     C87939   9.766  11.326   0.749  0.4130  0.6515 -0.2297
  638MOL0     C87940   9.823  11.446   0.699  0.2323 -0.0697  0.2495
  638MOL0     C87941   9.958  11.464   0.708 -0.0755 -0.9198  0.5030
  638MOL0     O87942  10.009  11.587   0.662 -0.9144 -0.2506 -0.6963
  638MOL0     C87943  10.124  11.645   0.714  0.1156 -1.0261  0.0134
  638MOL0     C87944  10.084  11.729   0.836 -0.6527  0.3226 -0.4520
  638MOL0     C87945   9.939  11.795   0.829 -0.9344 -0.7522  1.2474
  638MOL0     C87946   9.926  11.906   0.937  0.0506 -0.1743  0.6352
  638MOL0     C87947   9.804  11.990   0.899  0.0162  0.4207  0.4100
  638MOL0     C87948   9.802  12.089   1.015 -0.4008  0.2638  0.9534
  638MOL0     C87949   9.919  12.186   1.025 -0.4026  0.6272  0.5880
  638MOL0     C87950   9.877  12.295   1.126 -0.5496  0.8645  1.2278
  638MOL0    Cl87951  10.034  12.389   1.135  0.0748  0.1084  0.2209
  638MOL0     C87952  10.034  11.377   0.778 -0.8802  1.3578 -0.1720
  638MOL0     C87953   9.979  11.259   0.842  0.3175 -0.0674  0.6655
  638MOL0     O87954   9.848  11.008   0.672 -0.2264  0.5996  0.4979
  638MOL0     C87955   9.746  10.863   0.988 -0.4853  0.3707 -1.2973
  638MOL0     C87956   9.705  10.746   1.054  0.7612  0.4618 -0.6385
  638MOL0     N87957   9.748  10.073   1.420 -0.7867 -0.2171  0.0335
  638MOL0     N87958   9.829  10.024   1.495  0.5107  0.3042  0.4103
  638MOL0     C87959  10.121   9.090   1.808  0.0961  0.2466 -0.2973
  638MOL0     C87960  10.086   8.957   1.797 -0.3850  1.0359 -0.6893
  638MOL0     C87961  10.138   8.512   1.702 -0.6424  0.9690  0.1371
  638MOL0     C87962  10.014   8.482   1.631 -0.6075 -0.8166  0.2977
  638MOL0     C87963   9.980   8.356   1.592  0.2484  0.5320  0.1209
  638MOL0     C87964  10.059   8.249   1.631 -0.3956 -0.4029  0.1971
  638MOL0     O87965  10.027   8.128   1.571  0.5837  0.0052  0.2572
  638MOL0     C87966  10.110   8.015   1.597 -0.4806 -0.5434 -0.2876
  638MOL0     C87967  10.060   7.886   1.528  0.3521 -0.2676 -0.5785
  638MOL0     C87968  10.031   7.914   1.383  0.7444  0.5845 -0.2674
  638MOL0     C87969   9.961   7.789   1.313 -0.4118  0.2786 -1.0618
  638MOL0     C87970   9.942   7.817   1.175 -0.2211 -0.0007  0.1740
  638MOL0     C87971   9.921   7.853   1.058 -0.8475 -1.2139  0.1141
  638MOL0     C87972  10.177   8.271   1.710  0.1050  0.5926 -0.9376
  638MOL0     C87973  10.214   8.404   1.755  0.3303 -0.9227  0.3921
  638MOL0     C87974  10.348   8.414   1.821  0.1182  0.4035 -0.9324
  638MOL0     H87975  10.232   8.867   1.505 -2.8951  2.1220 -3.1435
  638MOL0     H87976  10.332   9.100   1.545 -0.7896  3.3831  0.5194
  638MOL0     H87977  10.178   9.343   1.888  2.2812  1.3916  1.3865
  638MOL0     H87978  10.111   9.392   1.730  1.5947  2.4473 -1.1649
  638MOL0     H87979  10.386   9.433   1.840  1.9803 -0.2821 -1.7435
  638MOL0     H87980  10.326   9.484   1.677  0.0208 -5.0846 -1.0108
  638MOL0     H87981  10.220   9.583   1.944  0.0018 -0.9571  0.6203
  638MOL0     H87982  10.335   9.685   1.847 -0.4097  0.6100 -2.0477
  638MOL0     H87983  10.134   9.635   1.666  0.4131  1.4809 -0.2586
  638MOL0     H87984  10.034   9.637   1.818  1.1358  0.7647  2.0378
  638MOL0     H87985  10.157   9.861   1.852  1.1068 -4.6251  1.5619
  638MOL0     H87986  10.018   9.849   1.752 -0.5398 -1.4345 -0.4862
  638MOL0     H87987  10.259   9.959   1.678  0.5670  1.0973 -0.3031
  638MOL0     H87988  10.287   9.810   1.596  0.5798  1.9738 -1.6581
  638MOL0     H87989  10.051   9.842   1.487 -0.5047  0.1940  0.4001
  638MOL0     H87990  10.196   9.938   1.443  1.5537 -0.1405  1.8614
  638MOL0     H87991  10.024  10.070   1.656  0.7307 -0.0384  2.0594
  638MOL0     H87992  10.138  10.123   1.541  1.8444 -2.3973 -1.7223
  638MOL0     H87993  10.027  10.212   1.321  2.0080 -3.3034 -0.3929
  638MOL0     H87994   9.789  10.176   1.122 -0.0250 -1.9366  0.6558
  638MOL0     H87995   9.819  10.330   1.197 -0.4026  0.1408 -1.6959
  638MOL0     H87996   9.549  10.191   1.257  2.2719 -1.6532 -1.0205
  638MOL0     H87997   9.579  10.359   1.257 -1.2732  0.1606 -0.2028
  638MOL0     H87998   9.612  10.186   1.000 -2.1363 -0.6163  0.0118
  638MOL0     H87999   9.476  10.289   1.039 -1.0670 -3.5234 -0.6975
  638MOL0     H88000   9.749  10.373   0.954 -1.0740 -4.5043  0.2060
  638MOL0     H88001   9.580  10.397   0.889 -2.4758 -2.4521  1.1351
  638MOL0     H88002   9.689  10.553   0.774  1.2735 -2.9812  3.8539
  638MOL0     H88003   9.772  10.619   0.600 -2.3077 -0.9780  2.1049
  638MOL0     H88004   9.876  10.756   0.598  1.0177 -1.9891 -0.4293
  638MOL0     H88005   9.699  10.782   0.563  1.0869  1.0625  0.2455
  638MOL0     H88006   9.661  11.312   0.727  0.4705  2.6687 -2.1895
  638MOL0     H88007   9.756  11.511   0.645  1.5720  0.2196 -1.1322
  638MOL0     H88008  10.209  11.577   0.728 -0.2202 -2.0210 -2.3045
  638MOL0     H88009  10.146  11.726   0.644  0.0037  0.2301  1.3783
  638MOL0     H88010  10.099  11.674   0.930 -1.4650 -0.1373 -0.5835
  638MOL0     H88011  10.159  11.809   0.836  0.9300 -1.0981  0.0280
  638MOL0     H88012   9.857  11.722   0.830 -0.5986 -1.2030 -0.6279
  638MOL0     H88013   9.938  11.841   0.730 -3.0188  2.9702  2.7789
  638MOL0     H88014  10.013  11.968   0.962  0.8212 -1.1062  0.3275
  638MOL0     H88015   9.903  11.853   1.030  3.0681  0.3371  1.7975
  638MOL0     H88016   9.833  12.046   0.810 -0.0971 -1.3959 -0.8178
  638MOL0     H88017   9.715  11.927   0.895 -0.6960  1.3378  1.0898
  638MOL0     H88018   9.781  12.031   1.105 -1.2943 -1.4022 -0.2631
  638MOL0     H88019   9.716  12.154   0.999 -0.8719 -0.4983  0.2810
  638MOL0     H88020   9.936  12.227   0.925 -1.5914 -0.7748 -0.2431
  638MOL0     H88021  10.005  12.138   1.072 -2.3096 -0.6010  3.0511
  638MOL0     H88022   9.842  12.249   1.219 -1.3866 -0.3754  0.3537
  638MOL0     H88023   9.793  12.354   1.087  0.3236  1.5815  0.3889
  638MOL0     H88024  10.141  11.384   0.794 -0.7126 -2.2905  1.2348
  638MOL0     H88025  10.042  11.184   0.889  0.6464  0.0739  0.4569
  638MOL0     H88026   9.762  10.948   1.053  1.2250 -0.1992 -0.9186
  638MOL0     H88027   9.686  10.732   1.159  3.5054 -1.6475 -0.3044
  638MOL0     H88028  10.082   9.148   1.891  0.6237  0.5039 -0.2254
  638MOL0     H88029  10.028   8.917   1.880  0.1651  1.3825 -0.1275
  638MOL0     H88030   9.959   8.564   1.586 -0.7170 -0.5058  0.9957
  638MOL0     H88031   9.897   8.331   1.527 -0.1396 -3.3848  1.8142
  638MOL0     H88032  10.211   8.028   1.559  0.1900 -3.0360  0.4223
  638MOL0     H88033  10.135   7.991   1.701 -0.2435  0.0057 -0.2165
  638MOL0     H88034   9.975   7.853   1.589  0.1773  2.3769  0.7253
  638MOL0     H88035  10.145   7.817   1.538  0.3016 -0.0157  2.2835
  638MOL0     H88036   9.958   7.994   1.377 -1.2979 -1.1241  0.5525
  638MOL0     H88037  10.123   7.935   1.326 -0.9321 -0.6183 -3.7479
  638MOL0     H88038   9.859   7.776   1.352  0.0117 -1.9857 -0.6003
  638MOL0     H88039  10.003   7.696   1.351 -0.3717  0.8169  0.2799
  638MOL0     H88040   9.902   7.893   0.960  1.6178 -2.1182 -0.8262
  638MOL0     H88041  10.252   8.195   1.729 -1.5797 -0.3081  3.2391
  638MOL0     H88042  10.354   8.505   1.882 -2.4170 -1.1861  1.9515
  638MOL0     H88043  10.354   8.329   1.890 -2.7306  1.3164  0.6025
  638MOL0     H88044  10.427   8.421   1.745  1.2512  0.4809  0.2147
  639MOL0     O88045   8.850   3.374   1.346 -0.4700 -0.0119 -0.5837
  639MOL0     C88046   8.893   3.418   1.243  0.1173 -0.4422  0.2255
  639MOL0     O88047   8.908   3.555   1.213 -0.1557  0.3500  0.1419
  639MOL0     C88048   8.843   3.652   1.291 -0.3616 -0.0240  0.1322
  639MOL0     C88049   8.925   3.762   1.322 -0.2288 -0.4120  0.9969
  639MOL0     C88050   8.856   3.879   1.360 -0.2086 -0.7123 -0.1297
  639MOL0     C88051   8.716   3.882   1.385  0.4751 -0.1396  0.2298
  639MOL0     O88052   8.667   4.005   1.416 -0.2448 -0.9105  0.1181
  639MOL0     C88053   8.525   4.028   1.432 -1.0489 -0.3870 -1.0500
  639MOL0     C88054   8.517   4.172   1.477 -0.3483 -0.5924  0.2834
  639MOL0     C88055   8.384   4.205   1.545 -0.0589 -0.5807  0.2349
  639MOL0     C88056   8.373   4.359   1.563  0.9932  0.6828  0.4536
  639MOL0     C88057   8.210   4.379   1.555 -0.3763 -0.9313  0.3229
  639MOL0     C88058   8.176   4.536   1.588 -0.4677  0.3410  0.7779
  639MOL0     C88059   8.046   4.557   1.658  0.7220 -1.0732 -0.7350
  639MOL0     C88060   8.074   4.557   1.811 -0.4835 -0.1494 -0.4873
  639MOL0     N88061   7.951   4.592   1.880 -0.7099  0.5977 -0.3566
  639MOL0     C88062   7.884   4.510   1.966  0.4147  0.3328 -0.4789
  639MOL0     C88063   7.783   4.591   2.018  0.5652 -0.2260 -0.8668
  639MOL0     C88064   7.700   4.552   2.142  0.0687  0.0302 -0.9802
  639MOL0     C88065   7.722   4.651   2.268  0.6961  1.0041  0.0879
  639MOL0     C88066   7.741   4.591   2.406  0.5390  0.9526  0.5013
  639MOL0     C88067   7.611   4.556   2.475  0.0106 -0.2566  0.9039
  639MOL0     O88068   7.616   4.531   2.619  0.3615 -0.4362 -0.4429
  639MOL0     C88069   7.705   4.431   2.657 -0.4465  0.2289  0.7098
  639MOL0     C88070   7.804   4.467   2.749 -0.1897  0.6199 -1.0858
  639MOL0     C88071   7.881   4.367   2.808  0.4059  0.0724  0.5399
  639MOL0     C88072   7.985   4.393   2.912  0.1190  0.0935 -0.2488
  639MOL0     C88073   7.867   4.234   2.751  0.2168 -0.3116 -0.7885
  639MOL0     C88074   7.950   4.122   2.797 -0.0132  0.0721  0.0517
  639MOL0     O88075   7.990   4.026   2.704  0.1078 -0.4380 -0.8442
  639MOL0     C88076   8.051   3.916   2.759  0.8436  0.2208 -1.4084
  639MOL0     C88077   7.976   3.812   2.811  0.0319 -0.3657 -0.4311
  639MOL0     C88078   8.037   3.682   2.835  0.2170 -0.1680 -0.6288
  639MOL0     C88079   8.172   3.666   2.834  0.2277  1.1407 -1.0435
  639MOL0     O88080   8.219   3.545   2.886 -0.8937  0.0465 -0.1029
  639MOL0     C88081   8.357   3.532   2.941  0.4070  0.2556 -0.6017
  639MOL0     C88082   8.377   3.395   3.001 -0.3169 -0.8727  0.4941
  639MOL0     C88083   8.525   3.370   3.040  0.0652  0.1171 -0.8508
  639MOL0     C88084   8.554   3.416   3.188 -0.1777  0.8025 -0.4070
  639MOL0     C88085   8.711   3.407   3.228 -0.4585 -1.0382 -0.4263
  639MOL0     C88086   8.740   3.468   3.369 -0.5025 -0.3264 -0.1594
  639MOL0     C88087   8.893   3.487   3.367  0.0588  0.1690 -0.2909
  639MOL0     C88088   8.929   3.532   3.509  0.2652 -0.3622  0.7228
  639MOL0    Cl88089   9.104   3.517   3.541 -0.3288 -0.0886  0.0732
  639MOL0     C88090   8.243   3.773   2.780  0.2589  0.1089 -0.0617
  639MOL0     C88091   8.189   3.900   2.738  0.4488  0.5528 -0.3884
  639MOL0     O88092   7.970   4.116   2.921 -0.0599  0.3987 -0.1873
  639MOL0     C88093   7.770   4.201   2.652  0.4371 -0.0315 -0.4610
  639MOL0     C88094   7.684   4.298   2.613  0.2976 -0.3248  0.4882
  639MOL0     N88095   7.798   4.715   1.965  0.4401 -0.1400  0.2056
  639MOL0     N88096   7.905   4.719   1.886 -0.1136  0.4271  0.4291
  639MOL0     C88097   8.635   3.766   1.353  0.5709  0.6349 -0.2199
  639MOL0     C88098   8.704   3.651   1.313  0.2753 -0.6418  0.4394
  639MOL0     C88099   8.943   3.322   1.136  0.3044  0.7019  0.3128
  639MOL0     C88100   9.051   3.379   1.060 -0.4174 -0.3628 -0.4277
  639MOL0     C88101   9.122   3.297   0.974 -1.2183  0.0338  0.0302
  639MOL0     C88102   9.096   3.156   0.966 -0.4279 -0.3816  0.7043
  639MOL0     O88103   9.171   3.073   0.888  0.6432  0.0335 -0.6721
  639MOL0     C88104   9.118   3.044   0.759 -0.0652 -0.5746  0.2967
  639MOL0     C88105   9.148   2.893   0.723 -0.0454  0.7024  0.5004
  639MOL0     C88106   9.123   2.852   0.577  0.4452  0.2039 -0.1626
  639MOL0     C88107   8.980   2.882   0.536 -0.4842  0.1907 -0.1303
  639MOL0     C88108   8.976   2.834   0.399  0.4513  0.5760 -0.5122
  639MOL0     C88109   8.982   2.767   0.298  0.9053  0.0554  0.6184
  639MOL0     C88110   8.986   3.106   1.048 -0.4978  0.3726  0.0029
  639MOL0     C88111   8.911   3.184   1.130  0.2665 -0.8998 -0.9981
  639MOL0     C88112   8.811   3.123   1.224 -0.2744 -0.8626 -0.0294
  639MOL0     H88113   9.029   3.762   1.293 -1.1066 -0.9621 -2.7239
  639MOL0     H88114   8.922   3.964   1.374  0.6851 -1.0176 -2.1168
  639MOL0     H88115   8.482   3.958   1.504  0.3170 -0.9221 -0.7282
  639MOL0     H88116   8.480   4.019   1.333  0.8354  1.7569 -2.2162
  639MOL0     H88117   8.609   4.198   1.531  1.7624  1.1993 -3.7332
  639MOL0     H88118   8.530   4.233   1.387  1.7216 -2.7893 -1.0207
  639MOL0     H88119   8.302   4.173   1.480  1.4132  0.5475 -2.3440
  639MOL0     H88120   8.375   4.150   1.639  1.8829  2.1012  2.1330
  639MOL0     H88121   8.408   4.406   1.655 -0.8132  3.9242 -0.3363
  639MOL0     H88122   8.424   4.411   1.481  1.3340  1.5640  1.1998
  639MOL0     H88123   8.160   4.315   1.629 -0.1168 -1.9712 -0.3847
  639MOL0     H88124   8.172   4.350   1.457 -0.6971 -1.4673  0.6007
  639MOL0     H88125   8.263   4.575   1.641 -0.1717  0.8637 -0.0727
  639MOL0     H88126   8.174   4.578   1.487 -0.3178 -1.0093  0.1909
  639MOL0     H88127   7.964   4.487   1.639 -2.8102  1.8651  2.1181
  639MOL0     H88128   8.017   4.654   1.617  0.5358 -0.9924 -0.4174
  639MOL0     H88129   8.113   4.457   1.833  2.4691  0.8620 -0.6248
  639MOL0     H88130   8.156   4.615   1.855  1.9627 -4.6784  1.7256
  639MOL0     H88131   7.907   4.406   1.989  1.3861  0.1245 -2.2239
  639MOL0     H88132   7.709   4.445   2.162  1.5620  0.6283  2.1582
  639MOL0     H88133   7.593   4.569   2.124 -0.1688 -0.1367  0.2129
  639MOL0     H88134   7.813   4.700   2.233  1.4718 -1.5642 -1.7953
  639MOL0     H88135   7.652   4.734   2.274  0.3364  0.6243  1.4126
  639MOL0     H88136   7.801   4.500   2.401  1.5534  1.6088  0.4067
  639MOL0     H88137   7.803   4.657   2.469  2.8174 -1.2157  0.7136
  639MOL0     H88138   7.543   4.640   2.466 -0.7119 -1.0143 -1.3810
  639MOL0     H88139   7.560   4.472   2.426 -0.5471  0.1444  0.8006
  639MOL0     H88140   7.812   4.572   2.777 -3.6184  1.2337 -1.9829
  639MOL0     H88141   8.014   4.499   2.917 -1.8654  0.6335  1.4063
  639MOL0     H88142   8.076   4.333   2.913  0.1170  0.0747  1.4403
  639MOL0     H88143   7.940   4.363   3.007 -2.5724  0.8544 -1.1746
  639MOL0     H88144   7.872   3.827   2.837 -0.6505 -1.6272 -2.2077
  639MOL0     H88145   7.971   3.604   2.871  1.8059  0.2141  3.7118
  639MOL0     H88146   8.432   3.550   2.864  0.1800  2.4558 -0.3869
  639MOL0     H88147   8.361   3.613   3.014 -3.0524  1.8560 -1.9675
  639MOL0     H88148   8.319   3.386   3.093 -0.2844 -1.0245  0.4992
  639MOL0     H88149   8.348   3.320   2.927  0.6888 -2.8114  1.9589
  639MOL0     H88150   8.589   3.409   2.960 -1.2164  0.7125 -1.6308
  639MOL0     H88151   8.534   3.261   3.032  0.0648  0.1419 -1.2475
  639MOL0     H88152   8.498   3.347   3.251  0.0517  1.8052  0.9648
  639MOL0     H88153   8.516   3.518   3.203 -3.7400 -0.4827  0.1450
  639MOL0     H88154   8.752   3.305   3.224  0.6249 -0.6240 -0.1986
  639MOL0     H88155   8.761   3.462   3.149  0.8695 -2.6956 -0.7964
  639MOL0     H88156   8.695   3.409   3.449  0.4485  0.2861  0.8476
  639MOL0     H88157   8.693   3.566   3.370 -1.3036 -0.6682 -1.3372
  639MOL0     H88158   8.934   3.557   3.294 -1.7279  2.4602  0.7441
  639MOL0     H88159   8.942   3.391   3.351  0.6840  0.3783  0.3166
  639MOL0     H88160   8.867   3.476   3.579 -1.0534  0.4822  0.2689
  639MOL0     H88161   8.908   3.638   3.526 -0.6513 -0.5301  0.6691
  639MOL0     H88162   8.351   3.768   2.766  0.5374  2.8111  0.5836
  639MOL0     H88163   8.249   3.978   2.694 -0.1192  3.0120  2.8678
  639MOL0     H88164   7.766   4.108   2.598  2.2347 -2.7606  3.5867
  639MOL0     H88165   7.612   4.283   2.533  2.1519  0.5620 -1.4432
  639MOL0     H88166   8.527   3.773   1.369  0.4637  0.7181 -0.9666
  639MOL0     H88167   8.645   3.565   1.285 -0.6772  0.4911 -1.1890
  639MOL0     H88168   9.068   3.486   1.066 -0.9571 -0.3326  0.8016
  639MOL0     H88169   9.203   3.340   0.916 -0.3325  0.2524  1.3798
  639MOL0     H88170   9.010   3.054   0.750 -0.1546 -1.6054  0.0859
  639MOL0     H88171   9.177   3.101   0.686 -0.3007  0.2346  0.7286
  639MOL0     H88172   9.086   2.836   0.793 -1.9135  1.4292 -0.4940
  639MOL0     H88173   9.255   2.877   0.744 -0.0156 -1.2573 -0.9161
  639MOL0     H88174   9.195   2.896   0.507  0.9708  0.1828  0.3606
  639MOL0     H88175   9.131   2.746   0.551  0.9078  0.2771 -0.3266
  639MOL0     H88176   8.972   2.991   0.542  1.0340  0.4763 -2.1383
  639MOL0     H88177   8.908   2.841   0.608  0.8834 -1.0822  0.5614
  639MOL0     H88178   8.987   2.713   0.206  0.7239 -2.2214  1.8609
  639MOL0     H88179   8.970   3.001   1.027  4.2418 -0.4571 -0.7257
  639MOL0     H88180   8.847   3.108   1.327  0.1251  3.2018  0.5712
  639MOL0     H88181   8.717   3.177   1.236  0.3812  0.2686  0.0899
  639MOL0     H88182   8.787   3.030   1.172 -0.9126  0.6264 -2.5302
  640MOL0     O88183   7.357   0.886   9.923 -0.4346  0.6617 -0.7246
  640MOL0     C88184   7.361   0.789   9.997  0.5617  1.0528  1.0481
  640MOL0     O88185   7.329   0.790  10.135 -0.1804  0.5652  0.3364
  640MOL0     C88186   7.294   0.914  10.185 -1.3679  0.4341  0.4146
  640MOL0     C88187   7.395   0.977  10.263 -0.3271 -0.1952  0.2975
  640MOL0     C88188   7.365   1.102  10.326 -0.7173 -0.5081  0.3774
  640MOL0     C88189   7.235   1.147  10.330 -0.0820 -0.0580 -0.2300
  640MOL0     O88190   7.203   1.267  10.405  0.4313  1.2329  0.7885
  640MOL0     C88191   7.102   1.342  10.332 -0.1818 -0.4631 -1.0033
  640MOL0     C88192   7.085   1.484  10.394 -0.2356  0.0495  0.1969
  640MOL0     C88193   6.955   1.546  10.348 -1.2705  0.8631 -0.5300
  640MOL0     C88194   6.916   1.668  10.442  0.0860 -1.0327  0.7906
  640MOL0     C88195   6.782   1.739  10.389 -0.3242 -0.0347  0.3186
  640MOL0     C88196   6.805   1.835  10.280  0.1733  0.6672  0.1616
  640MOL0     C88197   6.669   1.868  10.209 -0.4457 -1.0836 -0.1233
  640MOL0     C88198   6.689   1.959  10.079  0.1964 -0.0774 -0.5192
  640MOL0     N88199   6.576   1.985   9.989 -0.3407  0.5192  0.8729
  640MOL0     C88200   6.438   1.994   9.994  0.1090 -0.0220  0.3213
  640MOL0     C88201   6.395   2.012   9.864  0.1899 -0.5053  1.5181
  640MOL0     C88202   6.243   2.031   9.825  0.5122  0.5568 -0.3381
  640MOL0     C88203   6.191   1.920   9.739 -0.4269 -0.9267  0.1156
  640MOL0     C88204   6.035   1.909   9.731 -0.6139 -0.0205  0.9043
  640MOL0     C88205   5.966   1.815   9.833 -0.1308  0.3391  0.3173
  640MOL0     O88206   6.025   1.681   9.833 -0.7924  0.6875  0.1112
  640MOL0     C88207   6.007   1.591   9.941 -0.6125 -0.4806  0.3974
  640MOL0     C88208   6.059   1.464   9.956  0.0108  0.7675  0.4459
  640MOL0     C88209   6.031   1.374  10.059 -0.0490  0.2505 -0.3408
  640MOL0     C88210   6.101   1.242  10.052 -0.4469  0.2661 -0.3073
  640MOL0     C88211   5.957   1.424  10.170  0.5284 -0.1631 -0.1171
  640MOL0     C88212   5.915   1.344  10.283 -0.1863 -0.3710 -0.8751
  640MOL0     O88213   5.862   1.224  10.256 -0.3858  0.6418  0.0012
  640MOL0     C88214   5.864   1.138  10.365  0.0721  0.2518 -0.5844
  640MOL0     C88215   5.924   1.019  10.343  0.1459  0.5294 -0.1489
  640MOL0     C88216   5.925   0.913  10.437 -0.8447 -0.9744  0.4533
  640MOL0     C88217   5.858   0.925  10.558 -0.0619  0.2276 -0.8902
  640MOL0     O88218   5.846   0.820  10.648  0.5912  0.0261 -0.5068
  640MOL0     C88219   5.765   0.720  10.595  1.2989  0.5799  0.3339
  640MOL0     C88220   5.609   0.745  10.603 -0.9126 -0.4039 -0.9923
  640MOL0     C88221   5.565   0.757  10.755 -0.3762 -0.0319 -0.0507
  640MOL0     C88222   5.418   0.799  10.757 -0.6710  0.3306  0.0033
  640MOL0     C88223   5.365   0.891  10.876 -0.8244 -0.3819  0.4598
  640MOL0     C88224   5.305   1.008  10.819  0.5938 -1.0067  0.4499
  640MOL0     C88225   5.242   1.087  10.935 -0.7043  0.2220  0.1474
  640MOL0     C88226   5.283   1.230  10.944  0.4869  0.3776 -0.0403
  640MOL0    Cl88227   5.249   1.323  10.792  0.2218  0.2448 -0.1590
  640MOL0     C88228   5.796   1.050  10.589  0.5147  0.3855  0.5933
  640MOL0     C88229   5.801   1.150  10.492  0.4128 -0.4944  0.3393
  640MOL0     O88230   5.945   1.398  10.387  0.1486  0.4154 -1.2414
  640MOL0     C88231   5.905   1.550  10.166 -0.7047 -0.3656 -0.3848
  640MOL0     C88232   5.933   1.633  10.054 -1.0332 -0.1283  0.0726
  640MOL0     N88233   6.504   2.034   9.781 -0.0745 -0.8456 -0.3318
  640MOL0     N88234   6.606   2.007   9.855 -0.4368  0.0917 -0.0689
  640MOL0     C88235   7.136   1.074  10.257 -0.6467 -0.5724 -0.2505
  640MOL0     C88236   7.161   0.963  10.182  0.5632  0.1721 -0.3714
  640MOL0     C88237   7.380   0.651   9.942 -0.9907  0.3150  0.7649
  640MOL0     C88238   7.463   0.551  10.005 -0.2349 -0.2045  0.4371
  640MOL0     C88239   7.507   0.431   9.935 -0.1916 -0.8451 -0.3100
  640MOL0     C88240   7.480   0.408   9.804  0.1193  0.5540 -0.0674
  640MOL0     O88241   7.504   0.288   9.731  0.4408 -0.6971  0.1487
  640MOL0     C88242   7.628   0.226   9.764 -0.3679  0.5198  0.0584
  640MOL0     C88243   7.635   0.115   9.655  0.2909  0.3995 -0.3320
  640MOL0     C88244   7.760   0.027   9.676 -0.0745  0.5422  0.9960
  640MOL0     C88245   7.895   0.110   9.665 -0.1400  0.3622  0.5447
  640MOL0     C88246   8.022   0.028   9.689 -0.8436 -0.2506  0.2896
  640MOL0     C88247   8.131  -0.028   9.700 -0.3058  0.9624 -0.0587
  640MOL0     C88248   7.404   0.508   9.738 -0.2059  0.1701  0.2151
  640MOL0     C88249   7.343   0.614   9.808 -0.2615  0.0687  1.4310
  640MOL0     C88250   7.272   0.713   9.730  0.3019  0.4687 -1.1096
  640MOL0     H88251   7.495   0.938  10.250  1.2325  4.2142 -4.4188
  640MOL0     H88252   7.441   1.163  10.374 -1.0667  1.0111 -0.8982
  640MOL0     H88253   7.007   1.293  10.356 -2.0724  2.3651 -2.2489
  640MOL0     H88254   7.115   1.356  10.225 -1.8328  1.7427 -0.9742
  640MOL0     H88255   7.092   1.484  10.503  1.5558 -1.1992  0.1280
  640MOL0     H88256   7.170   1.542  10.356  0.6974 -3.0973 -3.1657
  640MOL0     H88257   6.974   1.594  10.251  0.0887  2.7642  0.6005
  640MOL0     H88258   6.873   1.474  10.343 -1.7611  1.2479  1.1863
  640MOL0     H88259   6.891   1.630  10.542 -1.1898  4.2820  2.8456
  640MOL0     H88260   6.998   1.738  10.454 -0.7797  0.6870 -2.2778
  640MOL0     H88261   6.737   1.799  10.468 -4.3704 -2.1389 -0.1441
  640MOL0     H88262   6.705   1.670  10.354 -0.1621  0.3344 -0.8290
  640MOL0     H88263   6.860   1.920  10.321  0.1680 -0.0728  1.7652
  640MOL0     H88264   6.863   1.791  10.198 -3.4578  3.8705 -4.6900
  640MOL0     H88265   6.613   1.932  10.278 -0.6145  1.2030 -2.2487
  640MOL0     H88266   6.626   1.772  10.178  2.0747 -2.0807 -0.7753
  640MOL0     H88267   6.728   2.055  10.114  1.2204  0.1814 -2.2624
  640MOL0     H88268   6.770   1.907  10.027 -0.4314 -1.2101 -0.4215
  640MOL0     H88269   6.377   2.009  10.083  1.0326  0.4248  0.8936
  640MOL0     H88270   6.236   2.117   9.758 -1.6789 -0.5293 -1.6509
  640MOL0     H88271   6.182   2.035   9.915  0.3221 -1.0629 -0.3560
  640MOL0     H88272   6.218   1.943   9.636 -2.5177 -0.1058 -0.2977
  640MOL0     H88273   6.235   1.824   9.764  3.1244  0.3160 -0.7860
  640MOL0     H88274   5.985   2.006   9.741  1.3214  1.1479 -0.0548
  640MOL0     H88275   6.021   1.872   9.629  0.9691 -1.0090  1.0109
  640MOL0     H88276   5.990   1.861   9.929  0.9583 -1.0382  0.7344
  640MOL0     H88277   5.861   1.803   9.806  0.8911 -0.1508 -4.2992
  640MOL0     H88278   6.137   1.435   9.886  3.7232  2.6769  3.3832
  640MOL0     H88279   6.053   1.166  10.116  0.4280  1.6952  2.1854
  640MOL0     H88280   6.207   1.257  10.072 -0.4774  0.7815 -0.5215
  640MOL0     H88281   6.085   1.201   9.952 -5.0251  2.5211 -0.7466
  640MOL0     H88282   5.952   0.994  10.241 -1.3583  0.6208 -0.6066
  640MOL0     H88283   5.984   0.826  10.413  3.6973  1.8136  0.1816
  640MOL0     H88284   5.781   0.698  10.489  1.9288  0.4663  0.4504
  640MOL0     H88285   5.785   0.631  10.656 -3.1764 -0.3819  0.7873
  640MOL0     H88286   5.579   0.836  10.550  1.2381  1.0232  0.0965
  640MOL0     H88287   5.558   0.660  10.557  1.4179 -2.3000 -0.2594
  640MOL0     H88288   5.630   0.836  10.795 -1.0067 -0.1832  1.3115
  640MOL0     H88289   5.587   0.673  10.822  1.1502 -0.3190 -0.8708
  640MOL0     H88290   5.354   0.710  10.755  1.5059 -1.3934  1.4251
  640MOL0     H88291   5.399   0.859  10.668 -2.1278  0.1747  0.1803
  640MOL0     H88292   5.299   0.832  10.940 -0.6562  1.4174  2.4343
  640MOL0     H88293   5.451   0.916  10.940 -1.1745 -1.0454  1.2038
  640MOL0     H88294   5.229   0.978  10.745 -1.0164 -0.6911  1.9032
  640MOL0     H88295   5.376   1.062  10.755 -2.4038 -0.5572 -2.8353
  640MOL0     H88296   5.275   1.059  11.035  0.1788  3.7397  0.9744
  640MOL0     H88297   5.133   1.079  10.940 -0.6544  0.3044  1.7096
  640MOL0     H88298   5.391   1.223  10.956  0.3667  0.6329  1.4901
  640MOL0     H88299   5.238   1.283  11.029  1.5521 -0.5805  1.1599
  640MOL0     H88300   5.729   1.066  10.673  0.7585  0.5232  0.7632
  640MOL0     H88301   5.753   1.245  10.511  2.1656  0.3456  0.7149
  640MOL0     H88302   5.840   1.586  10.245 -1.7093 -2.2542 -0.2865
  640MOL0     H88303   5.912   1.739  10.069  0.6704  0.6872 -2.6867
  640MOL0     H88304   7.034   1.112  10.256  0.3211  2.3363 -1.8448
  640MOL0     H88305   7.083   0.912  10.126  0.7355  0.3701 -0.8022
  640MOL0     H88306   7.490   0.555  10.110 -0.3263  2.3627  0.4092
  640MOL0     H88307   7.551   0.344   9.982  0.3167  0.9191  2.7822
  640MOL0     H88308   7.713   0.295   9.763  0.1409 -0.0027  2.3116
  640MOL0     H88309   7.627   0.189   9.866 -2.5913  3.6809  1.3769
  640MOL0     H88310   7.631   0.174   9.563 -0.9054  1.9221  0.6524
  640MOL0     H88311   7.545   0.053   9.660 -0.7561  1.7663 -1.5495
  640MOL0     H88312   7.761  -0.023   9.773 -2.6408 -1.7732 -0.0347
  640MOL0     H88313   7.750  -0.049   9.598 -3.0242  1.4044  0.4166
  640MOL0     H88314   7.894   0.194   9.735 -0.7870 -1.3289  2.6496
  640MOL0     H88315   7.893   0.156   9.566  0.5283  2.5715  1.4997
  640MOL0     H88316   8.224  -0.077   9.721  0.1967  1.1396 -1.7150
  640MOL0     H88317   7.382   0.493   9.633 -0.0607 -0.7819  0.3136
  640MOL0     H88318   7.229   0.674   9.637  0.0223  1.3482 -1.3636
  640MOL0     H88319   7.191   0.758   9.787 -0.3506  0.6120 -2.1301
  640MOL0     H88320   7.354   0.781   9.702  0.8674  0.4692  0.4589
  641MOL0     O88321   3.933   6.783   0.905  0.4545  0.2981  0.0490
  641MOL0     C88322   3.848   6.839   0.839  0.5603 -0.0355  0.2574
  641MOL0     O88323   3.719   6.850   0.883 -0.4788  0.0005 -0.5441
  641MOL0     C88324   3.670   6.771   0.988 -0.3671  0.3751 -0.7627
  641MOL0     C88325   3.729   6.759   1.110 -1.1216 -0.9860 -0.0796
  641MOL0     C88326   3.680   6.681   1.215 -0.9063  0.8231  0.4133
  641MOL0     C88327   3.568   6.599   1.197 -0.0763  0.8364  0.2039
  641MOL0     O88328   3.504   6.526   1.295 -0.6159  0.4189  0.3555
  641MOL0     C88329   3.566   6.429   1.383  0.3933 -0.2425 -0.0949
  641MOL0     C88330   3.458   6.379   1.483  0.3068  0.4607 -0.0209
  641MOL0     C88331   3.520   6.279   1.589  0.9322  0.0952  0.2014
  641MOL0     C88332   3.425   6.258   1.711 -0.0583 -0.4830  0.0567
  641MOL0     C88333   3.488   6.199   1.839  0.2722  0.4458  0.8043
  641MOL0     C88334   3.536   6.065   1.803  0.7280 -0.7025 -1.3114
  641MOL0     C88335   3.579   5.993   1.938 -0.5425  0.4356  0.9210
  641MOL0     C88336   3.562   5.846   1.909 -0.2795  0.4704 -0.4347
  641MOL0     N88337   3.597   5.765   2.020 -0.2703  0.3135  0.1401
  641MOL0     C88338   3.563   5.793   2.157 -0.8341 -1.0107  0.1116
  641MOL0     C88339   3.649   5.713   2.224 -0.1065 -0.4914 -0.6312
  641MOL0     C88340   3.650   5.709   2.376 -0.5956 -0.8953  0.2760
  641MOL0     C88341   3.793   5.738   2.435 -1.3842 -0.1444  0.4518
  641MOL0     C88342   3.853   5.878   2.389 -0.0094 -0.3204  0.0891
  641MOL0     C88343   3.994   5.898   2.448  0.2817 -0.5835 -0.3012
  641MOL0     O88344   4.034   6.035   2.460 -0.6908  0.5926 -0.3906
  641MOL0     C88345   4.168   6.052   2.503 -0.1502 -0.0275 -0.6749
  641MOL0     C88346   4.241   5.970   2.588 -1.1501 -0.0349 -0.1409
  641MOL0     C88347   4.374   6.002   2.625 -0.6943 -0.7347 -0.6028
  641MOL0     C88348   4.441   5.906   2.718 -0.1115 -0.5487 -0.0800
  641MOL0     C88349   4.438   6.124   2.584 -0.1917  0.0880 -0.4686
  641MOL0     C88350   4.561   6.176   2.639 -0.5248  0.2852 -0.0975
  641MOL0     O88351   4.604   6.299   2.590 -0.0153  0.3272  0.3600
  641MOL0     C88352   4.711   6.362   2.653  0.9166 -0.1560  0.0910
  641MOL0     C88353   4.744   6.358   2.791 -0.0057 -0.6889 -0.4965
  641MOL0     C88354   4.850   6.428   2.843  0.3960  0.6008 -0.7938
  641MOL0     C88355   4.947   6.483   2.758  0.7860 -0.8463 -0.0932
  641MOL0     O88356   5.059   6.545   2.816 -0.2306 -0.5784 -0.0122
  641MOL0     C88357   5.158   6.635   2.752 -0.2201  0.1795 -0.8141
  641MOL0     C88358   5.296   6.576   2.807 -0.5332 -0.9961  1.1131
  641MOL0     C88359   5.316   6.617   2.953 -0.0892  0.6051 -0.1450
  641MOL0     C88360   5.473   6.592   2.992 -0.4396  0.1947 -0.5736
  641MOL0     C88361   5.495   6.445   3.035  0.1480 -0.4629  0.1212
  641MOL0     C88362   5.642   6.389   3.058  0.6739  0.0272 -0.1597
  641MOL0     C88363   5.699   6.385   2.914  0.2782  0.2171 -0.2907
  641MOL0     C88364   5.639   6.280   2.820  0.5084  0.7540  0.9696
  641MOL0    Cl88365   5.746   6.130   2.820  0.0940 -0.1127  0.1055
  641MOL0     C88366   4.919   6.484   2.617 -0.4556 -0.1658  0.3822
  641MOL0     C88367   4.803   6.426   2.568 -0.1756 -0.1724  0.0478
  641MOL0     O88368   4.611   6.108   2.725 -0.1019 -0.4966 -0.9074
  641MOL0     C88369   4.363   6.210   2.498 -0.1411  0.2601  0.9098
  641MOL0     C88370   4.233   6.171   2.460  0.6841  0.6939  0.0443
  641MOL0     N88371   3.734   5.640   2.142 -0.5628  0.4747  0.4018
  641MOL0     N88372   3.707   5.674   2.020  0.5978 -0.8926  0.9644
  641MOL0     C88373   3.502   6.617   1.074  0.3138  0.0840  0.4685
  641MOL0     C88374   3.552   6.699   0.974 -0.4362 -0.8929 -0.8971
  641MOL0     C88375   3.897   6.930   0.727 -0.4002 -0.5226 -0.5340
  641MOL0     C88376   3.821   7.034   0.695  0.6684 -0.2360 -0.4472
  641MOL0     C88377   3.859   7.132   0.606 -0.1465 -0.0616 -1.1497
  641MOL0     C88378   3.990   7.125   0.559 -0.9989  0.3448 -0.0073
  641MOL0     O88379   4.028   7.229   0.474  0.3891  0.1732 -0.5370
  641MOL0     C88380   4.102   7.333   0.540  0.5295  0.1099 -0.2092
  641MOL0     C88381   4.050   7.470   0.505  1.3377  0.4094 -0.7879
  641MOL0     C88382   4.130   7.575   0.579 -0.1784 -1.0625  0.5372
  641MOL0     C88383   4.057   7.706   0.608 -0.4542  0.0592  0.4714
  641MOL0     C88384   3.957   7.737   0.504 -0.7437  0.6586  1.1542
  641MOL0     C88385   3.888   7.771   0.409 -0.5278 -0.0304  0.1357
  641MOL0     C88386   4.084   7.022   0.590 -0.5453  0.2321  0.5379
  641MOL0     C88387   4.032   6.920   0.669  1.3463  0.0356  0.8737
  641MOL0     C88388   4.124   6.803   0.687  0.7919 -0.2059  0.2780
  641MOL0     H88389   3.824   6.803   1.136  0.5152 -4.8092  1.2223
  641MOL0     H88390   3.736   6.693   1.307 -0.9806  0.5948  0.4887
  641MOL0     H88391   3.655   6.470   1.433  0.8625 -0.7015 -0.5456
  641MOL0     H88392   3.594   6.346   1.318 -0.7198  0.2636 -1.2569
  641MOL0     H88393   3.413   6.466   1.531 -0.2854  0.9301 -1.3726
  641MOL0     H88394   3.385   6.318   1.430  0.0422  0.0257  0.8267
  641MOL0     H88395   3.535   6.182   1.541 -2.3405 -0.0051 -0.9199
  641MOL0     H88396   3.609   6.325   1.632  0.1842  3.6966 -1.6844
  641MOL0     H88397   3.384   6.357   1.734  0.0388 -0.2840 -0.6201
  641MOL0     H88398   3.339   6.202   1.672 -0.7526  1.4796 -1.3848
  641MOL0     H88399   3.414   6.194   1.920  0.3386  0.2355  0.8533
  641MOL0     H88400   3.562   6.269   1.877  0.7281  0.3432  0.1173
  641MOL0     H88401   3.447   6.019   1.757 -1.8272  1.7703  0.8010
  641MOL0     H88402   3.619   6.068   1.732  2.8799  1.6108  1.0752
  641MOL0     H88403   3.526   6.025   2.028 -1.3916 -1.7847  1.2553
  641MOL0     H88404   3.688   6.007   1.935 -0.2760 -1.5510 -0.7549
  641MOL0     H88405   3.467   5.816   1.863  1.2943 -0.5456 -3.3107
  641MOL0     H88406   3.632   5.817   1.829 -1.1033 -1.6059 -0.4696
  641MOL0     H88407   3.483   5.863   2.178 -2.2004 -2.2392 -0.8155
  641MOL0     H88408   3.624   5.604   2.395  1.8573 -1.4971  0.6452
  641MOL0     H88409   3.575   5.779   2.413 -1.4483 -0.3094 -2.3752
  641MOL0     H88410   3.783   5.726   2.543 -1.6461 -2.2561  0.2416
  641MOL0     H88411   3.856   5.659   2.394 -2.2033 -0.8688  0.5533
  641MOL0     H88412   3.849   5.873   2.280 -1.1128  1.4958  0.0101
  641MOL0     H88413   3.792   5.958   2.432  0.2460  1.4437 -2.6533
  641MOL0     H88414   4.001   5.846   2.544 -2.0339  0.4710  0.5284
  641MOL0     H88415   4.060   5.848   2.377 -1.6433  0.0956 -2.7160
  641MOL0     H88416   4.188   5.878   2.611 -1.1540 -0.3325 -1.2707
  641MOL0     H88417   4.463   5.955   2.814 -0.4357  2.3577 -1.3558
  641MOL0     H88418   4.538   5.882   2.673  0.5924  1.8276 -0.0263
  641MOL0     H88419   4.386   5.813   2.730 -0.7207 -0.6299 -2.9553
  641MOL0     H88420   4.681   6.307   2.864  0.5850  1.2349  1.4727
  641MOL0     H88421   4.858   6.429   2.951 -2.1432 -0.1655 -0.5201
  641MOL0     H88422   5.161   6.633   2.643 -1.6450  2.7330 -0.9650
  641MOL0     H88423   5.150   6.739   2.784  0.0033 -0.0941  0.1676
  641MOL0     H88424   5.300   6.469   2.787 -3.7114 -0.8864 -0.7061
  641MOL0     H88425   5.367   6.625   2.740 -2.0545  1.0481  0.9069
  641MOL0     H88426   5.241   6.564   3.013  1.5045 -1.6639 -0.0306
  641MOL0     H88427   5.296   6.724   2.967 -0.5990  0.2112  2.7416
  641MOL0     H88428   5.510   6.662   3.068  0.0911  0.7093 -1.2897
  641MOL0     H88429   5.533   6.628   2.908  1.5426 -4.5241 -1.4626
  641MOL0     H88430   5.437   6.422   3.124  0.8172 -0.2779  0.6175
  641MOL0     H88431   5.448   6.390   2.953  0.1442  2.2966 -1.8927
  641MOL0     H88432   5.643   6.290   3.103  1.1119  0.1597  0.1243
  641MOL0     H88433   5.692   6.466   3.118 -0.2726 -2.7290  4.6346
  641MOL0     H88434   5.807   6.371   2.914  0.2539  0.0180  0.0898
  641MOL0     H88435   5.689   6.486   2.872  1.1418 -0.2303 -1.6390
  641MOL0     H88436   5.635   6.322   2.719  1.2440  1.8554  1.3805
  641MOL0     H88437   5.535   6.248   2.834  0.2106  0.4167 -1.5282
  641MOL0     H88438   4.994   6.533   2.556 -1.4576  0.2069 -0.5835
  641MOL0     H88439   4.782   6.425   2.462  0.3725  0.5513 -0.0738
  641MOL0     H88440   4.402   6.305   2.461  3.2936 -2.9261 -5.1960
  641MOL0     H88441   4.170   6.241   2.404 -2.4563  1.1763  3.7480
  641MOL0     H88442   3.411   6.563   1.052  0.1947 -0.0166  1.1920
  641MOL0     H88443   3.501   6.736   0.886  0.6143  0.1502 -1.0873
  641MOL0     H88444   3.725   7.046   0.745  0.3346 -2.5189 -0.4349
  641MOL0     H88445   3.795   7.212   0.570 -0.4051  0.5453  0.5488
  641MOL0     H88446   4.102   7.320   0.649  0.5575  0.6491 -0.1429
  641MOL0     H88447   4.206   7.336   0.508  0.0916  2.8589 -1.6110
  641MOL0     H88448   3.945   7.480   0.533  1.7050  1.2522  0.3911
  641MOL0     H88449   4.052   7.494   0.398 -2.7904  1.6989 -0.7358
  641MOL0     H88450   4.177   7.534   0.669 -1.6353 -1.4598  1.1393
  641MOL0     H88451   4.211   7.612   0.515 -1.6729  0.1906 -0.7435
  641MOL0     H88452   4.132   7.785   0.617  1.5405 -1.8985  2.0324
  641MOL0     H88453   4.002   7.688   0.701 -0.2953  0.4772  0.6505
  641MOL0     H88454   3.817   7.793   0.331  0.6856 -0.3037 -1.0863
  641MOL0     H88455   4.186   7.024   0.552 -0.7574 -1.2109 -0.1775
  641MOL0     H88456   4.178   6.812   0.782  2.1712 -3.5248 -0.0370
  641MOL0     H88457   4.063   6.712   0.693 -1.1089  1.0596  1.1245
  641MOL0     H88458   4.193   6.787   0.604  0.5837  0.7113 -0.0862
  642MOL0     O88459  10.353   7.462   3.331 -0.1886 -0.0657  0.3973
  642MOL0     C88460  10.339   7.418   3.446 -0.0631  0.4238  0.0037
  642MOL0     O88461  10.400   7.306   3.493  0.1179  0.3969  0.0859
  642MOL0     C88462  10.461   7.205   3.409  0.5246 -0.0253  0.1249
  642MOL0     C88463  10.456   7.193   3.263 -0.9934 -1.3666 -0.1275
  642MOL0     C88464  10.531   7.090   3.208 -0.4555  1.4411  0.2565
  642MOL0     C88465  10.581   6.985   3.292  0.4249  0.2425  0.4220
  642MOL0     O88466  10.630   6.872   3.234 -0.0982 -0.0774  0.2414
  642MOL0     C88467  10.610   6.830   3.105 -0.4424 -0.5455  0.3849
  642MOL0     C88468  10.682   6.698   3.079 -0.0275  0.1983  0.4489
  642MOL0     C88469  10.636   6.588   3.180 -0.3256  0.0377 -0.6278
  642MOL0     C88470  10.725   6.469   3.177  0.1008  0.9155  0.1695
  642MOL0     C88471  10.702   6.375   3.299  0.3714  0.0589  0.4493
  642MOL0     C88472  10.601   6.265   3.286 -0.5354  0.0236  1.1846
  642MOL0     C88473  10.571   6.197   3.432 -0.7265 -0.3842  0.3146
  642MOL0     C88474  10.500   6.061   3.401 -0.4343 -0.1601 -0.1021
  642MOL0     N88475  10.404   6.073   3.285 -0.6492  0.1965 -0.3942
  642MOL0     C88476  10.300   6.155   3.287  0.6107 -0.0495  0.6868
  642MOL0     C88477  10.234   6.131   3.167 -0.2346 -1.1368  1.2935
  642MOL0     C88478  10.102   6.184   3.124 -0.6382  0.2804  0.4106
  642MOL0     C88479  10.139   6.290   3.014  0.4405  0.6882  0.4067
  642MOL0     C88480  10.012   6.363   2.978 -0.1004 -0.1165 -1.0129
  642MOL0     C88481  10.018   6.468   2.871  0.3017 -0.5226 -0.5409
  642MOL0     O88482   9.891   6.530   2.849  0.2018 -0.4608  0.7135
  642MOL0     C88483   9.866   6.634   2.761 -0.1961 -0.6496  0.3296
  642MOL0     C88484   9.978   6.704   2.705  0.2170 -0.4867  0.3569
  642MOL0     C88485   9.960   6.814   2.617 -0.7589  0.5883  0.2272
  642MOL0     C88486  10.073   6.884   2.545 -0.1618  0.3834 -0.5028
  642MOL0     C88487   9.830   6.863   2.586 -0.9225  0.1676 -0.2675
  642MOL0     C88488   9.801   6.989   2.515  0.2841 -0.2183  1.0391
  642MOL0     O88489   9.715   6.970   2.410 -0.1142 -0.6803 -0.0995
  642MOL0     C88490   9.699   7.072   2.326 -0.7707 -0.3248  1.0538
  642MOL0     C88491   9.756   7.068   2.191  0.6775  0.4441  0.7528
  642MOL0     C88492   9.727   7.177   2.099 -0.0484  0.5715 -0.3518
  642MOL0     C88493   9.642   7.279   2.142 -0.0821  0.2504  0.1765
  642MOL0     O88494   9.605   7.361   2.046 -0.5442  0.0452  0.0198
  642MOL0     C88495   9.577   7.497   2.081 -0.0909  0.3941  0.3899
  642MOL0     C88496   9.547   7.591   1.964  0.3771  0.4026 -1.1407
  642MOL0     C88497   9.658   7.585   1.865 -0.2925  0.8396 -0.4544
  642MOL0     C88498   9.613   7.668   1.744 -1.0196 -0.3515 -0.4272
  642MOL0     C88499   9.725   7.672   1.632 -0.3008  0.1105  0.8121
  642MOL0     C88500   9.809   7.555   1.590 -0.1436  0.3045 -0.3636
  642MOL0     C88501   9.697   7.475   1.510 -0.2274 -0.1743  0.0174
  642MOL0     C88502   9.755   7.385   1.402 -0.3274  0.4109  0.6007
  642MOL0    Cl88503   9.800   7.489   1.269  0.0398  0.0911 -0.3175
  642MOL0     C88504   9.598   7.289   2.276 -0.7821  1.0362 -0.0076
  642MOL0     C88505   9.623   7.180   2.359  0.6912  0.0231 -0.0324
  642MOL0     O88506   9.840   7.098   2.546 -0.1059  0.1443  0.2706
  642MOL0     C88507   9.723   6.796   2.657  0.5357  0.2854  0.2560
  642MOL0     C88508   9.743   6.689   2.740 -0.4767 -0.5088 -0.3264
  642MOL0     N88509  10.305   6.044   3.096  0.0299  0.0585 -0.0220
  642MOL0     N88510  10.405   6.013   3.165 -0.0259 -0.6096  0.2502
  642MOL0     C88511  10.563   6.992   3.431 -0.3866 -0.4575  1.1324
  642MOL0     C88512  10.501   7.103   3.491 -1.0427  0.1062  1.0053
  642MOL0     C88513  10.260   7.494   3.552  0.1996 -0.0072  1.1452
  642MOL0     C88514  10.216   7.435   3.667  0.0739  1.0432 -0.4593
  642MOL0     C88515  10.155   7.515   3.760 -0.6091 -0.2694 -0.0359
  642MOL0     C88516  10.125   7.646   3.745 -0.0136  1.0091  0.6211
  642MOL0     O88517  10.043   7.689   3.846  0.1014  0.0882 -0.2082
  642MOL0     C88518   9.956   7.798   3.824 -0.1118 -0.4975 -0.4259
  642MOL0     C88519   9.861   7.813   3.942  0.4402  0.6938 -0.5921
  642MOL0     C88520   9.941   7.864   4.060  0.1516 -0.3584  0.3133
  642MOL0     C88521   9.850   7.931   4.162  1.1228  0.1658  1.1326
  642MOL0     C88522   9.842   8.081   4.129 -0.0343  0.6892  0.3164
  642MOL0     C88523   9.850   8.200   4.112 -0.1186  0.9403  0.8285
  642MOL0     C88524  10.156   7.714   3.627  0.8174  0.2072 -0.6800
  642MOL0     C88525  10.227   7.636   3.529 -0.2711 -0.1487  0.5319
  642MOL0     C88526  10.290   7.720   3.431  0.9288 -0.5797  0.5644
  642MOL0     H88527  10.402   7.263   3.200 -2.1101 -3.8731 -2.1074
  642MOL0     H88528  10.544   7.092   3.101  0.6313  0.3571  0.3406
  642MOL0     H88529  10.645   6.908   3.036  1.0912 -0.3819  1.3017
  642MOL0     H88530  10.507   6.809   3.074 -0.2940 -1.7668  0.6835
  642MOL0     H88531  10.671   6.680   2.972 -1.1977  4.0264 -0.2023
  642MOL0     H88532  10.791   6.710   3.084  0.4922 -2.4820 -1.6183
  642MOL0     H88533  10.629   6.629   3.281  1.1567  1.4777 -1.0513
  642MOL0     H88534  10.533   6.552   3.173 -0.7727  0.8712  1.1436
  642MOL0     H88535  10.705   6.407   3.088 -1.0055  3.5418 -1.5238
  642MOL0     H88536  10.827   6.509   3.175  0.4475  0.0622  0.2216
  642MOL0     H88537  10.682   6.438   3.386 -0.3970  1.1620 -0.5004
  642MOL0     H88538  10.799   6.332   3.326 -0.2646 -1.9072 -0.2091
  642MOL0     H88539  10.507   6.301   3.244  0.1468 -1.0215 -1.4428
  642MOL0     H88540  10.647   6.196   3.214  0.5603 -1.4260  3.1634
  642MOL0     H88541  10.486   6.249   3.476 -2.3665 -1.6391 -1.1800
  642MOL0     H88542  10.662   6.193   3.491 -0.7949 -0.8068  0.3907
  642MOL0     H88543  10.580   5.987   3.389  0.8623  0.8096  1.9293
  642MOL0     H88544  10.441   6.025   3.486  0.2226 -0.9932  0.0223
  642MOL0     H88545  10.272   6.221   3.369 -0.4516  0.1667  0.1612
  642MOL0     H88546  10.039   6.225   3.203 -3.0775 -0.7671 -0.8815
  642MOL0     H88547  10.037   6.105   3.085 -1.2704  0.3150  1.3695
  642MOL0     H88548  10.214   6.362   3.048 -1.1640  3.2484 -1.2112
  642MOL0     H88549  10.178   6.242   2.923  0.4639 -1.1480  1.3255
  642MOL0     H88550   9.930   6.294   2.955  0.9564 -2.1136  0.9260
  642MOL0     H88551  10.000   6.423   3.068 -1.7963  0.0471 -1.3047
  642MOL0     H88552  10.094   6.544   2.888 -1.6092  1.5851 -0.8230
  642MOL0     H88553  10.048   6.423   2.776  1.8047 -0.1642 -0.2519
  642MOL0     H88554  10.083   6.677   2.705  1.0371  1.7081 -4.0978
  642MOL0     H88555  10.045   6.973   2.487 -1.8657  2.6286  3.3855
  642MOL0     H88556  10.111   6.816   2.469 -2.8549 -2.5047  0.5311
  642MOL0     H88557  10.144   6.916   2.622  1.9137 -1.5064 -1.5288
  642MOL0     H88558   9.809   6.978   2.164  1.6449  1.6322 -1.5737
  642MOL0     H88559   9.765   7.173   1.997 -0.7181 -0.9119 -0.5548
  642MOL0     H88560   9.481   7.501   2.133 -0.5710 -1.2636 -0.3026
  642MOL0     H88561   9.653   7.536   2.149  1.5171 -1.0472 -0.4903
  642MOL0     H88562   9.449   7.572   1.920 -0.4979  1.3277  0.3119
  642MOL0     H88563   9.544   7.689   2.013  2.8230  0.3526 -0.7525
  642MOL0     H88564   9.681   7.484   1.831 -0.8981  0.3892  0.4333
  642MOL0     H88565   9.739   7.631   1.923  0.7072 -1.0084 -0.3396
  642MOL0     H88566   9.583   7.765   1.785 -1.1331  0.4369 -2.3024
  642MOL0     H88567   9.524   7.633   1.691 -0.2047  0.6584 -2.6006
  642MOL0     H88568   9.680   7.724   1.547 -0.4217  1.0766  1.4493
  642MOL0     H88569   9.798   7.743   1.673  1.2194  0.5142 -2.3065
  642MOL0     H88570   9.857   7.497   1.670 -1.1783 -0.6031 -0.3702
  642MOL0     H88571   9.887   7.588   1.522  0.7135  0.3855  0.6292
  642MOL0     H88572   9.623   7.538   1.459  0.2728 -1.7800 -2.8969
  642MOL0     H88573   9.643   7.412   1.580 -0.5051  0.1313  0.0811
  642MOL0     H88574   9.677   7.311   1.382 -0.9448  1.3433 -0.5235
  642MOL0     H88575   9.842   7.332   1.443 -0.5366 -1.2192 -0.9432
  642MOL0     H88576   9.538   7.374   2.306  2.0332  2.2103  2.7666
  642MOL0     H88577   9.588   7.182   2.461  4.1334 -1.5597  1.3235
  642MOL0     H88578   9.626   6.842   2.645  2.9985  5.9613 -1.4810
  642MOL0     H88579   9.653   6.642   2.780 -0.1620  0.4660  1.6522
  642MOL0     H88580  10.603   6.911   3.492  2.5378  1.3383  1.8412
  642MOL0     H88581  10.490   7.113   3.599 -0.1145 -1.1100  1.2263
  642MOL0     H88582  10.219   7.331   3.698 -0.2795  1.1335 -0.1012
  642MOL0     H88583  10.134   7.466   3.854  1.6763  0.8307  1.1226
  642MOL0     H88584  10.016   7.887   3.805  0.9222 -1.4667 -1.8813
  642MOL0     H88585   9.902   7.774   3.732  1.2651  0.2759 -1.4600
  642MOL0     H88586   9.825   7.711   3.955  2.3793  0.0273 -0.0403
  642MOL0     H88587   9.782   7.884   3.915 -0.6638 -0.8764 -1.6542
  642MOL0     H88588  10.001   7.786   4.108 -0.3303 -1.8130 -1.3539
  642MOL0     H88589  10.010   7.940   4.022 -1.8941  2.3803  1.7345
  642MOL0     H88590   9.885   7.909   4.263  3.2066 -0.6023  0.2964
  642MOL0     H88591   9.756   7.876   4.153  2.4037 -2.0522  0.5920
  642MOL0     H88592   9.847   8.303   4.084  0.9448  0.6799 -0.3292
  642MOL0     H88593  10.124   7.817   3.611  1.3766  1.2558  3.6151
  642MOL0     H88594  10.396   7.703   3.409  1.4399 -1.1285  3.1952
  642MOL0     H88595  10.230   7.731   3.340 -1.2293  2.4235  2.1492
  642MOL0     H88596  10.288   7.827   3.455  1.1352 -0.1312 -1.2803
  643MOL0     O88597   7.172   3.731   1.471  0.6411  0.3284  0.3114
  643MOL0     C88598   7.128   3.717   1.356  0.1963  1.3705  0.5214
  643MOL0     O88599   7.038   3.803   1.295  0.4749 -0.1615  0.6856
  643MOL0     C88600   7.020   3.935   1.333  0.4311  0.6035 -0.4911
  643MOL0     C88601   7.119   4.016   1.401  0.1685 -0.0081 -0.4455
  643MOL0     C88602   7.090   4.153   1.432 -0.6478  0.2213 -0.5432
  643MOL0     C88603   6.963   4.213   1.391  0.8517 -0.0034 -0.2901
  643MOL0     O88604   6.917   4.341   1.421 -0.5845 -0.6257 -0.3275
  643MOL0     C88605   6.955   4.378   1.560  0.7105  0.1719  1.1983
  643MOL0     C88606   6.840   4.478   1.606  0.1300  1.2793 -0.2132
  643MOL0     C88607   6.814   4.600   1.529 -0.6049 -0.1710  0.3418
  643MOL0     C88608   6.694   4.680   1.591 -0.4250 -0.3406  0.1510
  643MOL0     C88609   6.647   4.808   1.512 -0.6815  0.7474  0.0974
  643MOL0     C88610   6.528   4.887   1.581  0.4103  0.9530  0.5141
  643MOL0     C88611   6.515   5.027   1.522 -0.3991  0.2325 -0.0804
  643MOL0     C88612   6.403   5.102   1.583 -0.6195  0.2032  1.5439
  643MOL0     N88613   6.271   5.049   1.549 -0.3262 -0.1034 -0.7640
  643MOL0     C88614   6.189   5.064   1.437 -0.6428 -0.4733  0.3485
  643MOL0     C88615   6.067   5.024   1.484  0.9467 -0.2297 -0.3028
  643MOL0     C88616   5.936   5.034   1.400  0.3875 -1.2437  0.2021
  643MOL0     C88617   5.859   5.163   1.437 -0.2256 -0.2116 -0.1528
  643MOL0     C88618   5.708   5.176   1.412  0.4824 -0.2318  0.1593
  643MOL0     C88619   5.653   5.276   1.505  0.1164  0.4715 -0.3487
  643MOL0     O88620   5.582   5.209   1.610 -0.5734  0.1291  0.2889
  643MOL0     C88621   5.506   5.281   1.697 -0.8290  0.5138  1.0751
  643MOL0     C88622   5.476   5.417   1.695 -0.5479  0.5499  0.1382
  643MOL0     C88623   5.385   5.476   1.791 -0.8459 -0.6319 -0.1214
  643MOL0     C88624   5.366   5.629   1.794 -0.1344 -0.5047 -1.2214
  643MOL0     C88625   5.328   5.394   1.890  0.3965  0.9001 -0.1312
  643MOL0     C88626   5.241   5.440   1.998 -0.1331 -0.3192 -0.0467
  643MOL0     O88627   5.214   5.341   2.093  0.0036 -0.5897 -0.1324
  643MOL0     C88628   5.106   5.364   2.175  0.0173  0.1509  0.2655
  643MOL0     C88629   5.121   5.348   2.317  0.4042 -1.1600  0.8729
  643MOL0     C88630   5.020   5.379   2.401 -0.0050 -0.1540 -0.2233
  643MOL0     C88631   4.890   5.407   2.340 -0.1661  0.1970 -0.4167
  643MOL0     O88632   4.784   5.454   2.417  0.5591 -0.3417  1.1584
  643MOL0     C88633   4.732   5.352   2.510 -0.1635 -0.2222  0.5861
  643MOL0     C88634   4.586   5.396   2.518 -0.9845  0.4842 -0.4070
  643MOL0     C88635   4.514   5.392   2.385 -0.1105  0.1149 -0.6421
  643MOL0     C88636   4.383   5.327   2.386  0.0797 -0.3760 -0.2544
  643MOL0     C88637   4.278   5.408   2.470  0.3781 -0.0510 -0.6329
  643MOL0     C88638   4.135   5.351   2.470  0.0140  0.1345  0.3383
  643MOL0     C88639   4.041   5.401   2.582 -0.3242 -0.0110  0.5150
  643MOL0     C88640   3.908   5.319   2.595  0.2813 -0.4513  0.0442
  643MOL0    Cl88641   3.782   5.364   2.480 -0.2127 -0.2756 -0.2257
  643MOL0     C88642   4.875   5.417   2.207 -0.0905  0.9761  0.4538
  643MOL0     C88643   4.980   5.384   2.121  0.3709 -0.6267  0.2330
  643MOL0     O88644   5.198   5.556   2.012 -0.1962  0.7846  0.7142
  643MOL0     C88645   5.367   5.262   1.900  0.8555  0.5028  0.2187
  643MOL0     C88646   5.457   5.210   1.807 -0.5689  0.0923 -0.1232
  643MOL0     N88647   6.072   4.980   1.610  0.4168  0.4475  0.0342
  643MOL0     N88648   6.194   4.993   1.648  0.0457  0.8217 -0.2139
  643MOL0     C88649   6.879   4.130   1.318  1.3226  0.4179 -0.7513
  643MOL0     C88650   6.903   3.992   1.285 -0.3568 -0.6079  0.3745
  643MOL0     C88651   7.167   3.587   1.288  0.0852 -0.0664  0.1083
  643MOL0     C88652   7.166   3.592   1.147 -0.9190 -0.6284  0.4454
  643MOL0     C88653   7.191   3.478   1.071 -0.2737  0.0161 -0.6051
  643MOL0     C88654   7.226   3.354   1.134 -1.0577 -0.2290  0.3513
  643MOL0     O88655   7.260   3.259   1.040 -0.2089 -0.1024  0.2969
  643MOL0     C88656   7.378   3.186   1.081  0.6408  0.0792  0.5214
  643MOL0     C88657   7.461   3.158   0.957  0.2463  0.6548  0.0083
  643MOL0     C88658   7.379   3.098   0.832  0.8606  0.2602 -0.2274
  643MOL0     C88659   7.307   2.964   0.866 -0.2234  0.1764  0.1142
  643MOL0     C88660   7.401   2.870   0.933  0.1302 -0.4036  0.2021
  643MOL0     C88661   7.466   2.776   0.985 -0.6670 -0.3373 -0.5443
  643MOL0     C88662   7.229   3.346   1.272  0.0637  0.3430 -0.4224
  643MOL0     C88663   7.195   3.462   1.352 -1.1051  1.4635 -0.7938
  643MOL0     C88664   7.176   3.437   1.496 -0.5227 -0.4267 -0.4843
  643MOL0     H88665   7.211   3.970   1.433  0.0553  0.2953  0.3509
  643MOL0     H88666   7.166   4.209   1.486 -0.6187  0.0353 -0.3919
  643MOL0     H88667   7.047   4.437   1.557  0.9510 -0.1788 -2.2637
  643MOL0     H88668   6.957   4.286   1.619 -2.7853  0.9621  2.7634
  643MOL0     H88669   6.749   4.421   1.584  1.2005 -1.5536  2.0053
  643MOL0     H88670   6.832   4.511   1.710 -1.9766  1.5621 -0.4273
  643MOL0     H88671   6.903   4.663   1.531  0.4840 -1.6634 -0.0262
  643MOL0     H88672   6.799   4.585   1.421 -1.5103  1.4892  0.1993
  643MOL0     H88673   6.614   4.605   1.598 -0.0723 -0.7543 -0.2211
  643MOL0     H88674   6.728   4.709   1.690 -0.6389 -0.7775  0.3558
  643MOL0     H88675   6.606   4.773   1.417 -1.8686 -1.3761  1.3079
  643MOL0     H88676   6.741   4.863   1.499  3.1810 -5.1683 -0.6039
  643MOL0     H88677   6.434   4.834   1.563  0.7690  0.3458  0.4147
  643MOL0     H88678   6.543   4.894   1.689  0.9274  0.3314  0.4899
  643MOL0     H88679   6.492   5.016   1.416 -1.9409 -2.1210  0.4197
  643MOL0     H88680   6.610   5.081   1.530 -1.5556  2.3884 -0.1407
  643MOL0     H88681   6.402   5.116   1.691 -1.7579  1.7282  1.3705
  643MOL0     H88682   6.401   5.204   1.541  1.4895  0.8775  2.9153
  643MOL0     H88683   6.226   5.096   1.340  5.2460 -1.7573  1.7767
  643MOL0     H88684   5.872   4.948   1.422 -2.0104  0.4285  0.1046
  643MOL0     H88685   5.955   5.037   1.292  3.2836  1.6586  0.6348
  643MOL0     H88686   5.879   5.167   1.545 -3.0881 -2.3717  0.5685
  643MOL0     H88687   5.899   5.258   1.402 -2.2239  0.9344  0.5611
  643MOL0     H88688   5.693   5.204   1.308  0.3024  0.3907  0.3462
  643MOL0     H88689   5.655   5.083   1.433 -0.8741 -0.5789 -3.9912
  643MOL0     H88690   5.742   5.320   1.551  1.2044 -1.3807 -0.6007
  643MOL0     H88691   5.586   5.338   1.444  0.1244 -0.2347 -1.0907
  643MOL0     H88692   5.512   5.477   1.612 -2.2444  0.6108 -0.5951
  643MOL0     H88693   5.389   5.664   1.894 -1.9803 -1.3330 -0.4474
  643MOL0     H88694   5.270   5.665   1.755 -0.2243 -0.1130 -0.6445
  643MOL0     H88695   5.436   5.675   1.724 -0.5253  0.8387 -0.7531
  643MOL0     H88696   5.219   5.328   2.360 -0.4719 -1.2901  2.9358
  643MOL0     H88697   5.026   5.374   2.510  1.7103  0.5324 -0.2543
  643MOL0     H88698   4.748   5.253   2.467 -0.2585 -0.1828  0.4584
  643MOL0     H88699   4.780   5.350   2.609  1.3363  1.2596 -0.0827
  643MOL0     H88700   4.539   5.320   2.582 -0.9983  1.7155  1.1304
  643MOL0     H88701   4.564   5.495   2.559 -1.1377  0.2074  0.1971
  643MOL0     H88702   4.584   5.337   2.321  0.3753  0.9605 -0.8626
  643MOL0     H88703   4.519   5.494   2.346  1.9689  0.0400 -0.7050
  643MOL0     H88704   4.386   5.221   2.413  2.2824 -1.0661 -2.8101
  643MOL0     H88705   4.355   5.327   2.280  4.3990  1.5221 -1.6543
  643MOL0     H88706   4.306   5.412   2.576 -2.6593  2.1315  0.2134
  643MOL0     H88707   4.273   5.505   2.419  4.4144  1.3298  1.1695
  643MOL0     H88708   4.141   5.243   2.486  1.5800  0.4396  2.0285
  643MOL0     H88709   4.086   5.375   2.375 -0.7396 -1.7170  0.2200
  643MOL0     H88710   4.010   5.502   2.554  3.2325  0.1648 -3.9022
  643MOL0     H88711   4.102   5.403   2.673  0.5124 -0.5034 -0.0214
  643MOL0     H88712   3.876   5.336   2.699  0.4169 -4.7796  1.0050
  643MOL0     H88713   3.935   5.213   2.598  0.8867 -0.5544 -3.8240
  643MOL0     H88714   4.779   5.435   2.161  0.6698 -1.2729 -2.2707
  643MOL0     H88715   4.966   5.394   2.014  1.5669 -1.2921 -0.0007
  643MOL0     H88716   5.326   5.183   1.962  0.4540  1.1740  0.8212
  643MOL0     H88717   5.491   5.107   1.802 -0.1032  0.2660 -0.6383
  643MOL0     H88718   6.791   4.172   1.272  0.4258 -0.4820  0.1079
  643MOL0     H88719   6.832   3.936   1.224 -1.8194  0.6743  0.8182
  643MOL0     H88720   7.123   3.680   1.101 -1.5176 -0.7634  0.7303
  643MOL0     H88721   7.204   3.478   0.963  0.8751  0.7596 -0.4891
  643MOL0     H88722   7.441   3.241   1.152  1.1620 -2.1190  1.8475
  643MOL0     H88723   7.346   3.090   1.121 -0.0223  0.8382  1.9111
  643MOL0     H88724   7.541   3.088   0.983  0.2514  0.7334  0.2018
  643MOL0     H88725   7.507   3.253   0.928  2.1805  0.1161  1.1558
  643MOL0     H88726   7.306   3.166   0.789 -1.1541 -1.9786 -0.5634
  643MOL0     H88727   7.448   3.070   0.752  1.2084 -1.1929  0.5345
  643MOL0     H88728   7.262   2.928   0.773 -1.7652  2.9445 -0.3238
  643MOL0     H88729   7.229   3.000   0.934  0.4356  2.4687 -0.2775
  643MOL0     H88730   7.517   2.687   1.013 -0.9709  0.2017  1.9111
  643MOL0     H88731   7.248   3.249   1.317 -2.1865  0.9705  2.1101
  643MOL0     H88732   7.197   3.331   1.513 -3.4329 -1.4906 -2.8155
  643MOL0     H88733   7.247   3.487   1.563 -1.1342  1.5314 -1.2403
  643MOL0     H88734   7.070   3.462   1.508 -0.6612  1.9252 -4.6713
  644MOL0     O88735   8.720   6.856  10.340 -0.1886 -0.2893 -0.2890
  644MOL0     C88736   8.610   6.915  10.330 -0.8285  0.2173 -1.1062
  644MOL0     O88737   8.530   6.909  10.226  0.5324  0.9996  0.5589
  644MOL0     C88738   8.559   6.830  10.120 -0.3113  0.3748  0.0324
  644MOL0     C88739   8.671   6.853  10.047  0.0597 -0.3484  0.1050
  644MOL0     C88740   8.705   6.776   9.932  0.0486  0.9349 -0.4291
  644MOL0     C88741   8.621   6.655   9.910  0.4135 -0.9117 -0.9535
  644MOL0     O88742   8.657   6.561   9.814 -0.6345  0.6159  0.5133
  644MOL0     C88743   8.753   6.586   9.716 -0.3148  0.0355 -0.0713
  644MOL0     C88744   8.761   6.481   9.610  0.1411 -0.6987 -0.3607
  644MOL0     C88745   8.814   6.353   9.665 -0.3791 -0.1588 -1.0278
  644MOL0     C88746   8.965   6.359   9.683 -0.5339 -0.2466  0.1346
  644MOL0     C88747   9.011   6.225   9.743 -0.2857  0.3624  0.0197
  644MOL0     C88748   9.065   6.138   9.626 -0.3016  0.4316  0.0395
  644MOL0     C88749   9.186   6.193   9.551  0.5855  0.4032  0.6144
  644MOL0     C88750   9.311   6.220   9.635 -0.0888  0.7268 -0.2522
  644MOL0     N88751   9.316   6.350   9.696 -0.4578  0.1879  0.1466
  644MOL0     C88752   9.329   6.389   9.826  0.0469 -1.3321 -1.1965
  644MOL0     C88753   9.346   6.531   9.825  0.4456 -0.2505  0.7105
  644MOL0     C88754   9.401   6.618   9.931  0.0286 -0.4067  0.5096
  644MOL0     C88755   9.437   6.761   9.881 -0.2209 -0.2394  0.3553
  644MOL0     C88756   9.583   6.771   9.823  0.0131 -0.2616  1.1152
  644MOL0     C88757   9.693   6.755   9.935 -0.0531 -0.3931 -0.3861
  644MOL0     O88758   9.820   6.783   9.874 -0.3686 -0.0053  0.1804
  644MOL0     C88759   9.928   6.836   9.952 -1.1394  0.3754 -0.2093
  644MOL0     C88760  10.043   6.876   9.886 -0.3000 -0.3256 -0.4341
  644MOL0     C88761  10.169   6.909   9.947 -0.1031 -1.1529  0.3997
  644MOL0     C88762  10.281   6.960   9.857  0.5564  0.3083 -0.0059
  644MOL0     C88763  10.184   6.892  10.088  0.0618  0.7293 -0.0331
  644MOL0     C88764  10.304   6.902  10.171 -0.5162 -0.3101  0.8498
  644MOL0     O88765  10.287   6.858  10.300  0.9708  1.0897  0.3571
  644MOL0     C88766  10.390   6.867  10.396  0.0076 -0.4348  0.6587
  644MOL0     C88767  10.467   6.980  10.423 -0.6623 -0.1036 -0.3471
  644MOL0     C88768  10.589   6.973  10.499  0.2285  0.3149  1.1831
  644MOL0     C88769  10.635   6.840  10.546 -0.4737  0.6157  0.0056
  644MOL0     O88770  10.750   6.801  10.604 -0.7424  0.0906 -0.2926
  644MOL0     C88771  10.834   6.900  10.663 -0.1409  0.3332  1.2909
  644MOL0     C88772  10.919   6.959  10.557 -0.0337 -0.2157 -0.1006
  644MOL0     C88773  11.010   7.078  10.601  0.5498 -0.4511 -0.0912
  644MOL0     C88774  10.950   7.217  10.613 -0.1166 -0.5317  0.3237
  644MOL0     C88775  11.061   7.331  10.614  1.0731 -0.3724 -0.7876
  644MOL0     C88776  11.166   7.319  10.734 -0.1280  0.4486 -0.8447
  644MOL0     C88777  11.316   7.317  10.705  0.8537  0.4008  0.1866
  644MOL0     C88778  11.381   7.424  10.797  0.1293  0.1431  0.5675
  644MOL0    Cl88779  11.363   7.581  10.722 -0.2790  0.5557  0.1267
  644MOL0     C88780  10.547   6.739  10.541  0.3172  0.7626  0.4174
  644MOL0     C88781  10.428   6.751  10.467  0.3619  0.0109 -0.2122
  644MOL0     O88782  10.407   6.954  10.127 -0.4744 -0.5343 -0.2961
  644MOL0     C88783  10.066   6.860  10.158 -0.7716 -0.4455 -1.4066
  644MOL0     C88784   9.946   6.839  10.094  0.1707  0.6387  0.0191
  644MOL0     N88785   9.343   6.566   9.693  0.9266  0.9023  0.1272
  644MOL0     N88786   9.315   6.458   9.625  0.1200  0.0668  0.2955
  644MOL0     C88787   8.505   6.626   9.987 -0.0142  0.4947 -0.8935
  644MOL0     C88788   8.477   6.716  10.089  0.2072  1.2974 -0.7733
  644MOL0     C88789   8.566   7.012  10.437 -0.3035 -0.5058  0.3700
  644MOL0     C88790   8.430   7.049  10.436  0.9512 -0.1640 -1.2289
  644MOL0     C88791   8.377   7.126  10.542  0.0852 -0.5534  1.4237
  644MOL0     C88792   8.464   7.181  10.640  0.5424  0.3566  0.1705
  644MOL0     O88793   8.401   7.249  10.741 -0.6567 -0.3653  0.5760
  644MOL0     C88794   8.481   7.323  10.833 -0.2882 -0.1404  0.0362
  644MOL0     C88795   8.380   7.373  10.936 -0.5219 -0.8704 -0.1212
  644MOL0     C88796   8.336   7.271  11.037 -0.7351 -0.3293 -0.3665
  644MOL0     C88797   8.394   7.272  11.182 -0.3629 -0.6638  0.0006
  644MOL0     C88798   8.533   7.278  11.176 -0.8480 -0.0330  1.1735
  644MOL0     C88799   8.655   7.266  11.172 -1.0134 -0.7898 -0.8947
  644MOL0     C88800   8.601   7.155  10.635 -0.2020  0.0995 -0.3319
  644MOL0     C88801   8.654   7.071  10.536  0.6524  0.1822 -0.7710
  644MOL0     C88802   8.796   7.035  10.542  0.7216  0.0218 -0.5014
  644MOL0     H88803   8.734   6.936  10.079 -0.9020  0.1663  0.7208
  644MOL0     H88804   8.788   6.799   9.866  0.6393 -0.8153 -0.3449
  644MOL0     H88805   8.855   6.587   9.756 -0.3099 -2.0544  0.0421
  644MOL0     H88806   8.730   6.683   9.670 -0.2415  0.0187 -0.1419
  644MOL0     H88807   8.659   6.470   9.574  0.0141 -0.5860 -0.0421
  644MOL0     H88808   8.830   6.514   9.532 -0.2222  3.2812  0.7591
  644MOL0     H88809   8.771   6.331   9.763  1.0184  2.7308  0.3544
  644MOL0     H88810   8.773   6.271   9.605 -1.5489 -0.4199  0.0997
  644MOL0     H88811   9.012   6.388   9.588  0.9408  4.2272  1.9314
  644MOL0     H88812   8.999   6.430   9.759  1.5888 -1.2595  0.2137
  644MOL0     H88813   8.930   6.173   9.796  0.5611  1.0705  2.1410
  644MOL0     H88814   9.078   6.234   9.829 -2.5851 -0.6765  2.0365
  644MOL0     H88815   9.096   6.046   9.677  1.0152  1.5944  1.4286
  644MOL0     H88816   8.993   6.119   9.546 -0.2544 -3.0150  0.6541
  644MOL0     H88817   9.159   6.278   9.487 -1.0287  0.3195  1.1361
  644MOL0     H88818   9.195   6.117   9.473 -1.0746  1.3479 -0.5631
  644MOL0     H88819   9.313   6.144   9.715  1.1774 -0.7978 -1.6433
  644MOL0     H88820   9.409   6.202   9.589 -0.9832 -0.3938 -1.8148
  644MOL0     H88821   9.318   6.322   9.911  1.3607 -1.4964 -1.1355
  644MOL0     H88822   9.486   6.567   9.978  0.3663 -0.3441 -0.0262
  644MOL0     H88823   9.328   6.623  10.012 -1.1495 -0.3395 -0.5394
  644MOL0     H88824   9.364   6.793   9.807  1.3601 -0.6883 -1.4909
  644MOL0     H88825   9.430   6.813   9.977 -0.2483 -0.0227  0.2359
  644MOL0     H88826   9.601   6.700   9.742  2.7679  0.3443  1.1106
  644MOL0     H88827   9.584   6.870   9.774  2.8860 -0.4033  0.7116
  644MOL0     H88828   9.675   6.828  10.014 -0.9623 -0.6666 -0.3350
  644MOL0     H88829   9.687   6.654   9.978  0.9380 -1.1166 -1.8376
  644MOL0     H88830  10.012   6.911   9.788 -3.5195  1.0346  0.9178
  644MOL0     H88831  10.244   6.991   9.759 -0.0935 -0.3564  0.0173
  644MOL0     H88832  10.365   6.890   9.863 -0.2257 -0.5689  0.9753
  644MOL0     H88833  10.318   7.054   9.899  0.5710 -0.8457  2.7992
  644MOL0     H88834  10.445   7.082  10.395  1.3978  0.1906 -1.0673
  644MOL0     H88835  10.643   7.066  10.515 -0.2455  0.8883 -0.3142
  644MOL0     H88836  10.779   6.983  10.709  0.0282  0.8488  0.5864
  644MOL0     H88837  10.910   6.870  10.735  0.9326  1.7110  0.7786
  644MOL0     H88838  10.981   6.887  10.503 -0.8085 -0.3125 -0.8952
  644MOL0     H88839  10.851   7.002  10.483  1.7284  1.9055 -0.5816
  644MOL0     H88840  11.092   7.072  10.529 -1.3777 -1.0539 -2.3589
  644MOL0     H88841  11.046   7.052  10.701 -3.0070 -0.8732  1.2370
  644MOL0     H88842  10.897   7.221  10.708  1.4122  2.0767  1.1610
  644MOL0     H88843  10.885   7.228  10.526  1.1071 -0.3726 -0.6015
  644MOL0     H88844  11.102   7.327  10.513  1.8554 -2.0481 -0.4398
  644MOL0     H88845  11.013   7.430  10.615  1.5529 -0.1238 -1.7639
  644MOL0     H88846  11.147   7.235  10.802  2.4963 -1.5064 -2.3644
  644MOL0     H88847  11.135   7.410  10.787 -1.9785  1.5374 -3.5469
  644MOL0     H88848  11.329   7.346  10.600  0.1516 -0.8117 -0.2528
  644MOL0     H88849  11.355   7.215  10.712  0.3838 -0.2943 -4.4689
  644MOL0     H88850  11.486   7.393  10.801 -0.1067 -1.1383 -1.7247
  644MOL0     H88851  11.336   7.410  10.896 -2.7864 -2.3416 -0.9197
  644MOL0     H88852  10.565   6.655  10.608  0.0419  2.5904  2.9413
  644MOL0     H88853  10.370   6.659  10.472  3.7221 -2.2311  1.3900
  644MOL0     H88854  10.061   6.864  10.267 -2.5303 -1.0812 -1.4417
  644MOL0     H88855   9.859   6.805  10.148  1.0873 -0.9215  0.5846
  644MOL0     H88856   8.440   6.546   9.953 -1.2583 -0.1084  2.4918
  644MOL0     H88857   8.386   6.696  10.145 -0.2517 -0.1922 -1.9639
  644MOL0     H88858   8.351   6.997  10.381 -0.3377  0.5636 -0.1245
  644MOL0     H88859   8.273   7.157  10.546  0.6374  1.5232  0.9586
  644MOL0     H88860   8.562   7.272  10.887  1.5874  3.5238  1.0427
  644MOL0     H88861   8.525   7.405  10.776 -0.5555 -0.3280 -0.4412
  644MOL0     H88862   8.296   7.418  10.882  1.1042 -0.8657 -2.8553
  644MOL0     H88863   8.420   7.460  10.989  0.1975 -0.2786 -1.5705
  644MOL0     H88864   8.227   7.284  11.043 -0.8297 -1.6215  1.5206
  644MOL0     H88865   8.363   7.181  10.981 -1.2960  0.3585 -1.8065
  644MOL0     H88866   8.347   7.188  11.234 -1.1191 -0.3040 -0.0888
  644MOL0     H88867   8.356   7.360  11.235  2.4197  0.2485  0.6076
  644MOL0     H88868   8.760   7.248  11.175 -0.6840  0.7503  2.9500
  644MOL0     H88869   8.665   7.210  10.703 -3.5947  3.1831  0.7261
  644MOL0     H88870   8.815   6.945  10.602 -3.7255  0.4476  2.0029
  644MOL0     H88871   8.853   7.023  10.450 -1.4952 -2.5374 -1.7020
  644MOL0     H88872   8.833   7.123  10.595 -1.4310 -2.0852  5.3829
  645MOL0     O88873   0.763   0.093   6.598  0.0342 -0.0038  0.1502
  645MOL0     C88874   0.884   0.096   6.552 -0.4190  0.4412 -0.1272
  645MOL0     O88875   0.993   0.141   6.631 -0.1859  0.5244  0.8172
  645MOL0     C88876   0.971   0.241   6.720 -0.4296  0.1884 -0.2351
  645MOL0     C88877   0.920   0.377   6.709  0.6860  0.0734 -0.4785
  645MOL0     C88878   0.911   0.458   6.823  0.5729  0.2974  0.2168
  645MOL0     C88879   0.947   0.408   6.950 -0.0336  0.4739 -0.4267
  645MOL0     O88880   0.922   0.494   7.054  0.5333  0.1764 -0.3182
  645MOL0     C88881   0.921   0.435   7.185 -0.7281  0.6461  0.2213
  645MOL0     C88882   0.864   0.537   7.289 -0.0894  0.2308 -0.5687
  645MOL0     C88883   0.717   0.555   7.269 -0.3145  0.1862 -0.5325
  645MOL0     C88884   0.654   0.616   7.398  0.4675  0.6089 -0.3678
  645MOL0     C88885   0.501   0.613   7.389 -0.4658 -0.2159 -0.5260
  645MOL0     C88886   0.419   0.687   7.494  0.3822  0.3832 -0.5786
  645MOL0     C88887   0.411   0.619   7.630  0.4790  0.4459 -0.6884
  645MOL0     C88888   0.302   0.679   7.726  0.5473 -0.3526  1.4445
  645MOL0     N88889   0.299   0.632   7.859 -0.2620  0.0894  0.1352
  645MOL0     C88890   0.210   0.539   7.903  0.0907 -0.3452 -0.5790
  645MOL0     C88891   0.251   0.512   8.027  0.1365  0.3880  0.3661
  645MOL0     C88892   0.194   0.399   8.102  0.4725  0.6065  0.3848
  645MOL0     C88893   0.294   0.282   8.109 -0.4912 -0.0263 -0.1120
  645MOL0     C88894   0.289   0.238   8.253  0.5302  0.6588 -0.6848
  645MOL0     C88895   0.408   0.149   8.288 -0.1767  0.6025  0.0644
  645MOL0     O88896   0.375   0.012   8.251 -0.5664 -0.4800  1.4536
  645MOL0     C88897   0.475  -0.082   8.263  0.2908  0.1257 -0.1781
  645MOL0     C88898   0.431  -0.204   8.215 -0.1959 -1.0903  0.3523
  645MOL0     C88899   0.508  -0.321   8.215 -0.1709  0.1428 -0.2805
  645MOL0     C88900   0.451  -0.454   8.168 -0.1434 -0.3115 -1.1372
  645MOL0     C88901   0.639  -0.312   8.281 -0.2066  0.3756 -0.3495
  645MOL0     C88902   0.730  -0.432   8.304  0.2882  0.1891  0.4376
  645MOL0     O88903   0.838  -0.410   8.387 -0.5288  0.4863  0.1583
  645MOL0     C88904   0.931  -0.515   8.396  1.1477  0.0958 -0.3259
  645MOL0     C88905   0.899  -0.632   8.457 -0.3533  0.1670  1.4876
  645MOL0     C88906   1.009  -0.730   8.472  0.9782 -1.0885 -0.2695
  645MOL0     C88907   1.149  -0.695   8.438 -0.5362 -0.4815 -1.0243
  645MOL0     O88908   1.259  -0.778   8.455 -0.5437  0.5778  0.4460
  645MOL0     C88909   1.233  -0.912   8.485  0.0433  0.0930  0.7233
  645MOL0     C88910   1.359  -0.991   8.457  0.2384 -0.0754  0.6969
  645MOL0     C88911   1.344  -1.144   8.479  0.1013  0.2507 -0.4501
  645MOL0     C88912   1.374  -1.191   8.620  0.2181 -0.1277  0.1261
  645MOL0     C88913   1.362  -1.342   8.638  0.5558 -0.4139 -0.5103
  645MOL0     C88914   1.348  -1.381   8.785  0.2947 -0.0131 -0.2796
  645MOL0     C88915   1.203  -1.388   8.846 -0.9533  0.0335  0.3786
  645MOL0     C88916   1.199  -1.455   8.976  0.3014  0.2640 -0.3102
  645MOL0    Cl88917   1.256  -1.618   8.965 -0.3353 -0.1399 -0.2873
  645MOL0     C88918   1.173  -0.575   8.374  0.9809  1.0993 -0.9698
  645MOL0     C88919   1.065  -0.483   8.351 -0.1040 -0.6228 -0.9389
  645MOL0     O88920   0.719  -0.533   8.235  0.6283  0.1729  0.2816
  645MOL0     C88921   0.681  -0.187   8.331  0.2630  0.0240  0.5903
  645MOL0     C88922   0.598  -0.078   8.321  0.4488 -0.2590 -0.3999
  645MOL0     N88923   0.347   0.600   8.060  0.3559 -0.2232  0.0630
  645MOL0     N88924   0.374   0.676   7.963  0.0621  0.0317  0.5599
  645MOL0     C88925   0.993   0.283   6.965 -0.3457 -0.2756  0.8084
  645MOL0     C88926   1.010   0.196   6.850  0.0089 -0.2587  0.0686
  645MOL0     C88927   0.915   0.011   6.429 -0.0384  0.4410  0.1314
  645MOL0     C88928   0.823  -0.084   6.384 -0.1906  0.0611  0.6468
  645MOL0     C88929   0.836  -0.168   6.268 -0.7433 -0.9156  0.1417
  645MOL0     C88930   0.961  -0.149   6.195  0.4999 -0.4448 -0.6758
  645MOL0     O88931   0.976  -0.223   6.085 -0.1892 -0.1132 -0.0220
  645MOL0     C88932   0.979  -0.165   5.954  0.1472 -0.9087 -0.8059
  645MOL0     C88933   1.042  -0.274   5.865 -0.2281  0.7357 -0.7359
  645MOL0     C88934   0.973  -0.411   5.862 -0.3833  0.3055 -0.4901
  645MOL0     C88935   0.829  -0.396   5.819 -0.5740 -0.7045  0.7975
  645MOL0     C88936   0.735  -0.362   5.928 -1.1519 -0.0610 -0.0852
  645MOL0     C88937   0.659  -0.346   6.016  0.0167 -0.0589 -0.3398
  645MOL0     C88938   1.043  -0.038   6.232  0.6869 -0.0241  0.4331
  645MOL0     C88939   1.023   0.045   6.343  0.1850 -0.3786  0.4834
  645MOL0     C88940   1.120   0.165   6.372  0.1091  1.1778  0.7723
  645MOL0     H88941   0.910   0.403   6.604 -1.1309  0.6483 -0.1903
  645MOL0     H88942   0.867   0.557   6.814 -0.9409 -0.4965 -1.9014
  645MOL0     H88943   1.024   0.410   7.215 -0.7141  0.6559  0.1819
  645MOL0     H88944   0.855   0.348   7.191 -1.4238  1.1899  0.5590
  645MOL0     H88945   0.876   0.487   7.385 -0.7521 -3.3672 -2.1785
  645MOL0     H88946   0.911   0.635   7.292 -0.4796  0.3950  1.0453
  645MOL0     H88947   0.699   0.622   7.184  0.2501  1.0652  0.0215
  645MOL0     H88948   0.663   0.461   7.259  0.7136 -0.5024  0.1992
  645MOL0     H88949   0.687   0.544   7.473  1.3120 -0.8136 -2.0230
  645MOL0     H88950   0.685   0.715   7.431 -3.7172  1.9937  0.0650
  645MOL0     H88951   0.469   0.509   7.378 -0.1918 -0.0950 -2.9943
  645MOL0     H88952   0.478   0.655   7.291 -2.9846  4.2504  1.6711
  645MOL0     H88953   0.450   0.790   7.513  1.0468  0.1630 -0.4075
  645MOL0     H88954   0.318   0.702   7.455 -0.6778 -2.8047  0.6012
  645MOL0     H88955   0.498   0.653   7.688 -0.6631 -1.7946  2.6624
  645MOL0     H88956   0.413   0.510   7.635  2.7602  0.4739  3.2003
  645MOL0     H88957   0.303   0.787   7.712 -0.1725 -0.5246 -0.1828
  645MOL0     H88958   0.212   0.641   7.676  2.9358 -3.0640 -1.1872
  645MOL0     H88959   0.141   0.490   7.835  1.1933 -2.3414 -0.3353
  645MOL0     H88960   0.100   0.362   8.059  2.4286  0.5070 -4.3179
  645MOL0     H88961   0.176   0.446   8.199  0.9015 -0.6529  1.0941
  645MOL0     H88962   0.259   0.207   8.037 -0.5967  1.2633 -1.4603
  645MOL0     H88963   0.397   0.316   8.095 -0.3542 -0.6684 -0.6804
  645MOL0     H88964   0.306   0.322   8.321  6.7022  0.4884 -1.4286
  645MOL0     H88965   0.192   0.201   8.288  1.6327 -2.4635 -0.6140
  645MOL0     H88966   0.501   0.184   8.244 -0.5002 -0.1397 -1.2513
  645MOL0     H88967   0.421   0.155   8.397  1.6470 -0.3150 -0.0705
  645MOL0     H88968   0.325  -0.203   8.190 -0.0447 -2.7511 -0.4335
  645MOL0     H88969   0.499  -0.499   8.081  0.3672 -0.8601 -0.5815
  645MOL0     H88970   0.346  -0.445   8.142  0.1345 -0.3902 -2.3494
  645MOL0     H88971   0.465  -0.514   8.258  1.4619  0.4891 -0.7948
  645MOL0     H88972   0.794  -0.642   8.480 -1.4801  2.3988 -1.9462
  645MOL0     H88973   0.975  -0.821   8.520 -1.3210  0.8300  2.0337
  645MOL0     H88974   1.205  -0.921   8.590 -2.0426  0.7725  0.2625
  645MOL0     H88975   1.145  -0.950   8.432  0.2631  0.8480 -0.2235
  645MOL0     H88976   1.383  -0.980   8.351 -0.9096  4.7104  0.6680
  645MOL0     H88977   1.447  -0.955   8.511  0.1855  3.5759 -1.2843
  645MOL0     H88978   1.407  -1.195   8.406 -1.4049 -4.1154  0.9782
  645MOL0     H88979   1.239  -1.174   8.475 -0.2016  1.2872 -0.6626
  645MOL0     H88980   1.299  -1.144   8.685  0.8496 -1.5068  1.9468
  645MOL0     H88981   1.472  -1.158   8.656 -0.2150  1.8527 -0.3856
  645MOL0     H88982   1.267  -1.374   8.595  0.9018 -0.7473 -1.0573
  645MOL0     H88983   1.449  -1.383   8.586  1.7965 -0.0080  1.1646
  645MOL0     H88984   1.407  -1.313   8.846  2.7479 -1.7513 -0.5639
  645MOL0     H88985   1.396  -1.479   8.797  1.4820  0.7104  1.1213
  645MOL0     H88986   1.134  -1.434   8.776  2.6526 -0.7960 -2.9938
  645MOL0     H88987   1.170  -1.288   8.874 -1.9353 -0.7177  1.9994
  645MOL0     H88988   1.092  -1.451   8.999  0.4064 -2.4731  1.1235
  645MOL0     H88989   1.244  -1.400   9.059 -0.3761  0.7724 -0.2650
  645MOL0     H88990   1.270  -0.545   8.335  0.3385  3.0261 -1.1926
  645MOL0     H88991   1.067  -0.382   8.311 -4.4422 -0.1567 -0.4394
  645MOL0     H88992   0.768  -0.183   8.396  0.7005  1.6250 -0.0234
  645MOL0     H88993   0.636   0.015   8.363 -0.7504 -0.5189  1.3567
  645MOL0     H88994   1.033   0.238   7.056  0.5443  0.2338  0.6841
  645MOL0     H88995   1.073   0.108   6.859 -2.4742 -1.9910  1.9804
  645MOL0     H88996   0.736  -0.089   6.449  0.5216 -0.5690  1.5743
  645MOL0     H88997   0.760  -0.240   6.239 -1.0177 -0.4255 -0.3817
  645MOL0     H88998   0.881  -0.156   5.907  0.8457 -0.0870 -2.1523
  645MOL0     H88999   1.034  -0.071   5.952 -1.1791 -0.0716  0.3147
  645MOL0     H89000   1.142  -0.272   5.909 -0.8600 -0.6878  0.8549
  645MOL0     H89001   1.051  -0.249   5.759 -0.2350  1.7095 -0.5109
  645MOL0     H89002   1.023  -0.482   5.795 -2.8356 -1.6507 -0.3681
  645MOL0     H89003   0.971  -0.455   5.962 -0.6152  1.1443 -0.1198
  645MOL0     H89004   0.796  -0.482   5.761 -0.6656  1.5807 -2.8488
  645MOL0     H89005   0.813  -0.312   5.751 -1.3480  1.9882  4.0205
  645MOL0     H89006   0.588  -0.298   6.080 -1.6063  0.8548 -2.7042
  645MOL0     H89007   1.126  -0.007   6.169 -0.0159  2.3337  0.5749
  645MOL0     H89008   1.174   0.192   6.280  0.3273  0.6039  0.7243
  645MOL0     H89009   1.064   0.257   6.391 -0.2980  1.0911  0.0621
  645MOL0     H89010   1.197   0.142   6.445  1.3466  1.0980 -0.5117
  646MOL0     O89011   0.991   3.658   6.724  0.6616 -0.1147 -1.0584
  646MOL0     C89012   0.991   3.549   6.778  0.3397  1.1255 -0.5083
  646MOL0     O89013   0.881   3.483   6.826  0.1023 -0.3239  0.8347
  646MOL0     C89014   0.763   3.488   6.744  0.4668 -1.2706 -0.1576
  646MOL0     C89015   0.641   3.485   6.805 -0.0801  0.3511 -0.1354
  646MOL0     C89016   0.528   3.488   6.729 -0.0139  0.0432 -0.1429
  646MOL0     C89017   0.521   3.516   6.593 -1.1385  0.8108 -0.0240
  646MOL0     O89018   0.417   3.547   6.509  0.7790  0.2096  0.3815
  646MOL0     C89019   0.288   3.521   6.560 -0.8665 -0.4664 -0.0144
  646MOL0     C89020   0.193   3.484   6.447 -0.5564  0.3941  1.2231
  646MOL0     C89021   0.132   3.595   6.364 -0.5372 -0.3215 -0.1005
  646MOL0     C89022   0.026   3.660   6.455 -0.6859  0.0034 -0.6104
  646MOL0     C89023  -0.064   3.755   6.372  0.5784 -0.7681 -0.0568
  646MOL0     C89024  -0.001   3.889   6.327 -0.3495  0.2519 -0.6320
  646MOL0     C89025   0.039   3.986   6.446  0.3601  0.2501 -0.7221
  646MOL0     C89026   0.129   4.102   6.395  0.2035  0.0036 -0.1096
  646MOL0     N89027   0.075   4.171   6.278 -1.1671 -0.2052  0.0504
  646MOL0     C89028  -0.053   4.226   6.272 -0.1616  0.4018  0.4059
  646MOL0     C89029  -0.076   4.239   6.135  0.3973 -0.3483 -1.3188
  646MOL0     C89030  -0.206   4.296   6.083 -0.8392 -0.1500  0.0638
  646MOL0     C89031  -0.204   4.447   6.067  0.8123  0.0239  0.4291
  646MOL0     C89032  -0.229   4.511   6.207  0.0278 -0.5851  0.5081
  646MOL0     C89033  -0.292   4.653   6.213 -1.2969  0.3865  0.6994
  646MOL0     O89034  -0.403   4.654   6.123 -0.4574  0.1931 -0.2711
  646MOL0     C89035  -0.466   4.775   6.129 -1.0416  0.2556 -0.5238
  646MOL0     C89036  -0.420   4.878   6.045 -0.6827 -0.2229  0.1167
  646MOL0     C89037  -0.483   5.001   6.038 -0.4127 -0.8449  0.2830
  646MOL0     C89038  -0.417   5.102   5.929  0.2461  1.2148 -0.7678
  646MOL0     C89039  -0.602   5.014   6.109  0.4550 -0.7427 -0.3976
  646MOL0     C89040  -0.678   5.147   6.088 -0.0597 -0.3460 -0.6042
  646MOL0     O89041  -0.803   5.126   6.041  0.0397 -0.9788  1.0174
  646MOL0     C89042  -0.879   5.238   6.014 -0.3184  0.4026 -0.5601
  646MOL0     C89043  -0.961   5.290   6.123 -0.6222  0.1742  0.8540
  646MOL0     C89044  -1.035   5.407   6.100  0.1862 -0.3413 -0.1015
  646MOL0     C89045  -1.029   5.479   5.983 -0.0857 -0.6412 -0.2028
  646MOL0     O89046  -1.090   5.603   5.965 -0.1648  0.1389  0.4665
  646MOL0     C89047  -1.115   5.679   6.085  1.2969 -0.2791 -0.7788
  646MOL0     C89048  -1.148   5.826   6.051  1.0494  1.2274 -0.4349
  646MOL0     C89049  -1.216   5.920   6.148 -0.1929  0.7719 -0.8932
  646MOL0     C89050  -1.357   5.866   6.172 -0.2495 -0.8408 -0.6645
  646MOL0     C89051  -1.455   5.958   6.261  0.0202  0.2850 -0.1513
  646MOL0     C89052  -1.395   6.008   6.395  1.0887 -0.0914  0.7725
  646MOL0     C89053  -1.509   6.086   6.481  0.0991  0.5525 -0.5683
  646MOL0     C89054  -1.459   6.129   6.620  0.5723 -0.6909 -0.0102
  646MOL0    Cl89055  -1.515   6.013   6.757 -0.1865 -0.2712 -0.2876
  646MOL0     C89056  -0.952   5.434   5.883  1.2261 -0.9749 -0.1418
  646MOL0     C89057  -0.875   5.322   5.898 -0.0342 -0.0599  0.2117
  646MOL0     O89058  -0.639   5.256   6.130  0.2357  1.1987  0.0320
  646MOL0     C89059  -0.655   4.915   6.189  0.4006  0.4767 -0.1240
  646MOL0     C89060  -0.584   4.787   6.195  0.4716 -0.2068  0.3032
  646MOL0     N89061   0.027   4.192   6.067 -0.6067  0.1159  0.3635
  646MOL0     N89062   0.124   4.163   6.152 -0.1626 -0.3506 -0.0886
  646MOL0     C89063   0.649   3.494   6.533 -0.3229  0.2655 -0.0121
  646MOL0     C89064   0.766   3.498   6.604 -0.0326 -0.4087  0.2675
  646MOL0     C89065   1.113   3.497   6.841  0.3299  0.0720 -0.4025
  646MOL0     C89066   1.237   3.566   6.829 -0.9802 -0.5683 -0.6905
  646MOL0     C89067   1.361   3.521   6.883  0.1460  0.0278 -0.1644
  646MOL0     C89068   1.370   3.403   6.961  0.8517  0.1865  0.1526
  646MOL0     O89069   1.483   3.343   7.012  0.6109  0.0013  0.1604
  646MOL0     C89070   1.603   3.386   6.955 -0.6170 -0.9047 -0.8805
  646MOL0     C89071   1.709   3.297   7.024 -0.8286  0.5019  0.0398
  646MOL0     C89072   1.697   3.285   7.170  0.5201  0.1539  0.3511
  646MOL0     C89073   1.790   3.182   7.239 -0.3867 -0.7422 -0.5144
  646MOL0     C89074   1.923   3.182   7.193 -0.3857  0.8783 -0.8731
  646MOL0     C89075   2.038   3.175   7.144  0.5976  0.1318 -0.5220
  646MOL0     C89076   1.254   3.338   6.974  0.4221 -1.0240 -0.3025
  646MOL0     C89077   1.135   3.373   6.908  0.5754 -0.1677 -0.9914
  646MOL0     C89078   1.038   3.262   6.902 -0.3257 -0.0808  1.1519
  646MOL0     H89079   0.619   3.479   6.911 -0.0735 -4.9823 -0.1873
  646MOL0     H89080   0.433   3.494   6.781 -1.0527  3.3058 -2.1111
  646MOL0     H89081   0.253   3.613   6.609 -4.0669 -2.8666  2.6531
  646MOL0     H89082   0.281   3.447   6.640 -2.2648 -0.8958 -0.5170
  646MOL0     H89083   0.256   3.427   6.379 -4.0199 -1.6895 -0.5369
  646MOL0     H89084   0.119   3.409   6.477 -0.9150 -0.2473 -1.0665
  646MOL0     H89085   0.206   3.667   6.329 -2.0386  2.3071  1.8027
  646MOL0     H89086   0.090   3.552   6.273 -2.7289  0.3006  0.5585
  646MOL0     H89087  -0.055   3.588   6.471  0.2652 -0.5818  2.0051
  646MOL0     H89088   0.057   3.690   6.556  1.6319 -2.2567 -0.5651
  646MOL0     H89089  -0.154   3.776   6.431  0.1585  1.5242 -1.4074
  646MOL0     H89090  -0.106   3.713   6.280 -0.1421 -0.2947  0.0510
  646MOL0     H89091   0.092   3.860   6.278  0.0998 -1.4891  1.1174
  646MOL0     H89092  -0.077   3.927   6.258 -0.7946 -1.6415 -1.2653
  646MOL0     H89093   0.098   3.935   6.523 -0.6129  0.2547  0.0478
  646MOL0     H89094  -0.053   4.032   6.483 -0.2649  0.7508 -2.7665
  646MOL0     H89095   0.156   4.165   6.480 -3.1844  0.4293  0.8050
  646MOL0     H89096   0.225   4.062   6.360 -0.7147 -0.4638 -2.2616
  646MOL0     H89097  -0.127   4.241   6.350  0.1370  1.9136  0.4271
  646MOL0     H89098  -0.291   4.259   6.141 -1.4434 -3.4289 -2.5993
  646MOL0     H89099  -0.219   4.252   5.984 -0.9680 -1.3706  0.5998
  646MOL0     H89100  -0.109   4.492   6.037  0.4190  0.4177 -0.2569
  646MOL0     H89101  -0.287   4.479   6.004  0.5292 -0.7730  0.3797
  646MOL0     H89102  -0.304   4.448   6.256 -0.2265 -0.3691  0.4000
  646MOL0     H89103  -0.131   4.513   6.255  0.0560 -2.2906  0.5814
  646MOL0     H89104  -0.315   4.681   6.316  1.5382 -1.4336  1.9288
  646MOL0     H89105  -0.215   4.722   6.179 -1.3849 -0.1257 -0.6234
  646MOL0     H89106  -0.339   4.859   5.976 -1.1383 -0.8772 -0.2499
  646MOL0     H89107  -0.344   5.162   5.984 -0.2565  1.0048  0.1374
  646MOL0     H89108  -0.487   5.171   5.881  0.5545  0.9630 -1.6136
  646MOL0     H89109  -0.372   5.049   5.844  0.0126  0.7367 -0.5971
  646MOL0     H89110  -0.958   5.218   6.205 -1.4755  2.3019  2.8631
  646MOL0     H89111  -1.104   5.427   6.182  1.0054  0.9623  0.2926
  646MOL0     H89112  -1.207   5.631   6.121  0.1545 -1.0824 -4.2784
  646MOL0     H89113  -1.043   5.680   6.167 -1.4394  1.8158  1.8109
  646MOL0     H89114  -1.048   5.871   6.049  1.4992  0.6499  3.0408
  646MOL0     H89115  -1.191   5.830   5.950 -2.5038 -3.0084  0.5947
  646MOL0     H89116  -1.234   6.024   6.118 -1.2619  1.6791  2.4259
  646MOL0     H89117  -1.152   5.932   6.236  1.9342 -2.4672 -1.7965
  646MOL0     H89118  -1.349   5.771   6.225  0.2287 -1.5381 -1.9459
  646MOL0     H89119  -1.402   5.849   6.074 -0.3464  0.2005 -0.8092
  646MOL0     H89120  -1.480   6.052   6.211 -0.3622  0.3784  0.2084
  646MOL0     H89121  -1.554   5.911   6.262 -0.2087  0.7657 -0.1109
  646MOL0     H89122  -1.322   6.086   6.374  0.7072 -0.3679 -1.9830
  646MOL0     H89123  -1.356   5.925   6.454  1.0800 -1.0479 -0.5248
  646MOL0     H89124  -1.602   6.029   6.491  0.6939 -0.1112  1.7705
  646MOL0     H89125  -1.539   6.170   6.418 -1.8979 -1.1156 -2.0282
  646MOL0     H89126  -1.495   6.227   6.653  1.3650  0.1333 -1.5351
  646MOL0     H89127  -1.350   6.140   6.623  0.4391  0.7525  0.8240
  646MOL0     H89128  -0.953   5.502   5.799 -1.1698  0.1577  0.7322
  646MOL0     H89129  -0.819   5.284   5.813  1.2686  0.6828  0.7174
  646MOL0     H89130  -0.732   4.931   6.263  0.7978 -1.2292  0.6937
  646MOL0     H89131  -0.616   4.711   6.266  2.0597  1.9326  3.5866
  646MOL0     H89132   0.659   3.497   6.425 -0.6486  0.3775 -0.0408
  646MOL0     H89133   0.854   3.518   6.544  0.2462  2.7025  1.5097
  646MOL0     H89134   1.210   3.660   6.780 -2.1209  0.2283  1.3529
  646MOL0     H89135   1.448   3.586   6.882 -1.7328  2.7003 -1.0624
  646MOL0     H89136   1.596   3.375   6.846  0.5964 -1.4788 -0.9048
  646MOL0     H89137   1.623   3.486   6.995  2.8160 -0.7186 -2.7597
  646MOL0     H89138   1.801   3.354   7.010 -1.7493  2.5069  1.6346
  646MOL0     H89139   1.722   3.195   6.985 -1.8667 -0.2388  1.5215
  646MOL0     H89140   1.702   3.389   7.205 -3.0152  0.6060 -0.0972
  646MOL0     H89141   1.597   3.246   7.193  1.2856 -1.3372  1.2687
  646MOL0     H89142   1.746   3.083   7.222 -0.0530 -0.8427 -0.8232
  646MOL0     H89143   1.790   3.206   7.345  0.6477  1.4465 -0.9570
  646MOL0     H89144   2.130   3.156   7.093  0.1997  0.2515 -1.2969
  646MOL0     H89145   1.243   3.243   7.025 -4.1590 -1.9851 -2.4913
  646MOL0     H89146   0.946   3.302   6.946  0.1875  1.7280  0.6495
  646MOL0     H89147   1.015   3.240   6.798 -1.3344  0.5641  1.2281
  646MOL0     H89148   1.069   3.172   6.958  0.8025  1.8404  3.8428
  647MOL0     O89149   4.285   5.810   4.299  0.2537 -0.2972 -0.3273
  647MOL0     C89150   4.306   5.725   4.208  0.5368  0.2941 -0.3834
  647MOL0     O89151   4.211   5.673   4.128  0.0984 -0.5372  0.0776
  647MOL0     C89152   4.083   5.731   4.099  0.5322  0.5436 -0.5957
  647MOL0     C89153   4.009   5.810   4.199  0.8214  0.7871  0.3248
  647MOL0     C89154   3.885   5.869   4.165 -0.9980  0.1766  1.0839
  647MOL0     C89155   3.822   5.835   4.045  0.7221  0.0766 -0.1213
  647MOL0     O89156   3.696   5.884   4.030 -0.4011 -1.0146  1.0099
  647MOL0     C89157   3.598   5.817   3.940 -0.7478 -0.1080 -0.3641
  647MOL0     C89158   3.462   5.868   3.994 -0.4698 -0.4290 -0.0801
  647MOL0     C89159   3.413   6.000   3.926  0.6011 -0.9571 -0.0624
  647MOL0     C89160   3.341   5.975   3.795  0.0535 -0.4446 -0.1817
  647MOL0     C89161   3.321   6.109   3.710  0.0954 -0.0928  0.7959
  647MOL0     C89162   3.232   6.096   3.590 -0.8222 -0.9872 -0.3628
  647MOL0     C89163   3.260   6.232   3.508  1.2790  1.2809 -0.0201
  647MOL0     C89164   3.181   6.225   3.371 -0.1178 -0.0631 -0.5483
  647MOL0     N89165   3.241   6.124   3.284 -0.6443 -0.4823 -0.1661
  647MOL0     C89166   3.371   6.105   3.252 -0.7587  1.1980  0.9649
  647MOL0     C89167   3.376   5.993   3.175  0.0225  0.3359 -0.0221
  647MOL0     C89168   3.494   5.952   3.108 -0.7041  0.2799 -0.5866
  647MOL0     C89169   3.496   5.989   2.963 -0.1350  0.5779 -0.6062
  647MOL0     C89170   3.630   5.975   2.885 -0.1111 -0.2002 -0.1226
  647MOL0     C89171   3.681   5.833   2.876  0.3492  0.2780 -1.2181
  647MOL0     O89172   3.802   5.866   2.821  0.1780 -0.3641  0.1287
  647MOL0     C89173   3.914   5.796   2.863  0.0496 -0.1841 -0.6806
  647MOL0     C89174   3.918   5.658   2.906 -0.2854 -0.2403  0.6887
  647MOL0     C89175   4.032   5.592   2.955  0.8789 -0.5995  0.6927
  647MOL0     C89176   4.009   5.452   3.003 -0.0609  0.1929 -0.6212
  647MOL0     C89177   4.157   5.656   2.956  0.3351 -0.8513  0.3479
  647MOL0     C89178   4.281   5.601   2.995  0.4172  0.5240 -1.2127
  647MOL0     O89179   4.385   5.625   2.920 -0.6099  0.6573 -0.0671
  647MOL0     C89180   4.491   5.535   2.917  0.2687  0.5730  0.5447
  647MOL0     C89181   4.615   5.599   2.925  0.1340 -0.2140 -0.4253
  647MOL0     C89182   4.734   5.521   2.918 -0.0670 -0.7010 -0.6569
  647MOL0     C89183   4.726   5.384   2.907 -0.9447  0.7560 -0.5548
  647MOL0     O89184   4.845   5.300   2.909  0.2883  0.3120 -0.8800
  647MOL0     C89185   4.972   5.368   2.923  0.0976  0.4014  0.3020
  647MOL0     C89186   5.085   5.276   2.921  0.4075 -0.0186  0.3202
  647MOL0     C89187   5.101   5.192   2.787  0.5106 -0.2706  1.0958
  647MOL0     C89188   5.233   5.110   2.784  0.5669  0.4736 -0.9939
  647MOL0     C89189   5.245   4.987   2.694 -0.0284  0.4011 -0.0925
  647MOL0     C89190   5.198   5.026   2.553  0.1607  0.8006  0.8732
  647MOL0     C89191   5.271   4.932   2.454 -0.2902  0.1133  0.4939
  647MOL0     C89192   5.219   4.788   2.472 -1.0842  0.4952 -0.4830
  647MOL0    Cl89193   5.059   4.766   2.399  0.4834  0.5189 -0.1826
  647MOL0     C89194   4.606   5.322   2.907 -0.2842  0.3056 -0.0918
  647MOL0     C89195   4.488   5.394   2.907  0.0510  0.5052 -0.5918
  647MOL0     O89196   4.286   5.533   3.103 -0.2014  0.3364  0.4911
  647MOL0     C89197   4.157   5.788   2.901  0.7665 -0.4685  0.3406
  647MOL0     C89198   4.043   5.855   2.862 -0.0402 -0.4205  0.1184
  647MOL0     N89199   3.248   5.938   3.185 -0.3918 -0.1511  0.9861
  647MOL0     N89200   3.169   6.010   3.250 -0.0468 -0.8626 -0.2358
  647MOL0     C89201   3.888   5.758   3.951 -0.4653 -0.3628 -0.2239
  647MOL0     C89202   4.012   5.706   3.978 -0.4496 -0.5009 -0.4306
  647MOL0     C89203   4.445   5.663   4.209  0.1931  0.6206  0.0979
  647MOL0     C89204   4.536   5.723   4.294 -0.3940 -0.4801 -0.1137
  647MOL0     C89205   4.666   5.675   4.306  0.9585  0.2092 -0.7245
  647MOL0     C89206   4.713   5.566   4.226 -0.4068 -1.0498 -0.5902
  647MOL0     O89207   4.860   5.545   4.217  0.2328 -0.3748  0.2557
  647MOL0     C89208   4.964   5.627   4.276 -0.4941 -0.0186 -0.4321
  647MOL0     C89209   4.971   5.769   4.211 -0.0160  0.1202  1.1576
  647MOL0     C89210   4.976   5.750   4.059  0.5546 -0.1506 -0.2038
  647MOL0     C89211   4.996   5.887   3.980  0.7443  1.4307 -0.4482
  647MOL0     C89212   5.125   5.941   4.023 -0.1463  0.6795 -0.0085
  647MOL0     C89213   5.228   5.996   4.059  0.0433  0.0069  0.4267
  647MOL0     C89214   4.623   5.509   4.146  0.0971  0.6269 -0.3727
  647MOL0     C89215   4.487   5.545   4.140  0.2742  0.5899 -0.0083
  647MOL0     C89216   4.391   5.456   4.075  0.2307  0.8663  0.2309
  647MOL0     H89217   4.042   5.832   4.300  0.2206 -0.8856  0.9216
  647MOL0     H89218   3.834   5.936   4.233 -1.2144  3.0891 -1.6854
  647MOL0     H89219   3.597   5.710   3.961 -0.0378  0.1902  1.4727
  647MOL0     H89220   3.604   5.846   3.835 -0.5164  0.8734 -0.0959
  647MOL0     H89221   3.389   5.788   3.980  0.7494 -2.1643  2.5873
  647MOL0     H89222   3.454   5.881   4.102 -0.1594  1.4871 -0.2591
  647MOL0     H89223   3.338   6.054   3.984  0.6700 -0.0907 -0.7526
  647MOL0     H89224   3.495   6.066   3.896  0.0765 -0.4401 -0.3739
  647MOL0     H89225   3.407   5.914   3.731  2.3851 -0.3733  2.0058
  647MOL0     H89226   3.246   5.928   3.823  1.1435 -1.5602  1.8765
  647MOL0     H89227   3.416   6.154   3.681  1.9433 -2.7218  2.3983
  647MOL0     H89228   3.273   6.176   3.782  0.6019  0.9013  0.2218
  647MOL0     H89229   3.279   6.013   3.537 -0.3348 -1.8210  1.3269
  647MOL0     H89230   3.127   6.084   3.620 -0.8511  2.1006  1.1398
  647MOL0     H89231   3.364   6.249   3.481  1.2795  2.2940  0.5849
  647MOL0     H89232   3.221   6.310   3.574  1.2934  0.5302  0.9152
  647MOL0     H89233   3.079   6.196   3.397 -0.1541  0.9713  0.5689
  647MOL0     H89234   3.175   6.327   3.332  0.6061 -1.1614 -3.7757
  647MOL0     H89235   3.455   6.168   3.281 -0.5295  2.4724 -2.0657
  647MOL0     H89236   3.499   5.843   3.117  0.8495  0.3782  0.0527
  647MOL0     H89237   3.575   5.998   3.164 -1.4696  1.1756 -0.1892
  647MOL0     H89238   3.421   5.942   2.898 -0.5330  1.0076 -0.4714
  647MOL0     H89239   3.448   6.088   2.963  0.6274  1.0092  1.7290
  647MOL0     H89240   3.598   6.017   2.790 -2.8997  0.3855  0.9794
  647MOL0     H89241   3.707   6.038   2.930 -1.8652  0.2640  2.4890
  647MOL0     H89242   3.676   5.792   2.977 -2.6652  0.8954 -1.0262
  647MOL0     H89243   3.625   5.770   2.807 -1.3889  1.7559 -1.2181
  647MOL0     H89244   3.822   5.607   2.905 -0.1195 -0.5901 -1.3822
  647MOL0     H89245   3.908   5.433   3.040 -0.1624  1.3964 -0.2522
  647MOL0     H89246   4.067   5.444   3.095  0.0477  1.8469 -0.5129
  647MOL0     H89247   4.045   5.380   2.928 -1.9767  1.7890 -3.2366
  647MOL0     H89248   4.621   5.708   2.928 -2.7724  0.0256 -0.5755
  647MOL0     H89249   4.829   5.572   2.921  0.7123 -2.1288 -0.3160
  647MOL0     H89250   4.981   5.430   2.834 -2.5451  0.9893  0.3701
  647MOL0     H89251   4.969   5.424   3.017 -2.6680  1.4764 -0.3232
  647MOL0     H89252   5.180   5.330   2.928 -0.4470  2.0983 -2.4943
  647MOL0     H89253   5.073   5.218   3.012 -1.9064 -0.5952 -0.3053
  647MOL0     H89254   5.086   5.262   2.704  1.6024 -0.7074  0.5021
  647MOL0     H89255   5.016   5.126   2.768 -2.2892  2.6912  2.4045
  647MOL0     H89256   5.242   5.078   2.888 -1.8547  2.3877 -0.1108
  647MOL0     H89257   5.315   5.179   2.763 -1.1624  1.8822 -3.6678
  647MOL0     H89258   5.346   4.947   2.707  0.4014  0.5380 -2.5367
  647MOL0     H89259   5.184   4.903   2.729 -1.2106  1.4615  0.5033
  647MOL0     H89260   5.238   5.123   2.522  0.5498  1.0335  2.0492
  647MOL0     H89261   5.092   5.007   2.539  0.6684 -0.0672 -3.5798
  647MOL0     H89262   5.376   4.915   2.481  0.2898  0.7552 -1.1931
  647MOL0     H89263   5.285   4.965   2.350  3.1532  0.1024  0.8210
  647MOL0     H89264   5.220   4.745   2.573 -2.8719 -2.0302 -1.4408
  647MOL0     H89265   5.291   4.727   2.417  1.0684  1.0347  1.5660
  647MOL0     H89266   4.622   5.215   2.902 -0.7303  0.2827 -1.4607
  647MOL0     H89267   4.398   5.333   2.908  0.8333 -0.6994 -0.6377
  647MOL0     H89268   4.257   5.832   2.905  0.6814 -0.2696  0.3241
  647MOL0     H89269   4.028   5.956   2.825 -1.0994 -0.5446  0.1736
  647MOL0     H89270   3.845   5.724   3.857  1.5438 -0.9604 -0.9643
  647MOL0     H89271   4.075   5.654   3.907  1.4133  0.6295  0.3029
  647MOL0     H89272   4.504   5.801   4.362 -1.6218 -0.1295 -1.0590
  647MOL0     H89273   4.728   5.728   4.377 -1.6648  1.8141  0.5511
  647MOL0     H89274   4.953   5.646   4.383 -0.6014  1.3483 -0.6727
  647MOL0     H89275   5.050   5.563   4.255 -0.6582 -0.7853  1.0810
  647MOL0     H89276   5.053   5.832   4.246 -0.9319  2.6058 -0.8628
  647MOL0     H89277   4.878   5.816   4.244  1.2291  2.2592  1.8022
  647MOL0     H89278   5.059   5.685   4.033  0.0816 -0.4046 -1.1296
  647MOL0     H89279   4.884   5.700   4.028  0.1873  1.1357 -1.2867
  647MOL0     H89280   4.908   5.948   4.001 -1.1315 -2.3203  4.4276
  647MOL0     H89281   5.002   5.850   3.877  1.9580 -0.7565  0.3561
  647MOL0     H89282   5.316   6.039   4.103  1.0723 -0.4777 -1.0742
  647MOL0     H89283   4.648   5.420   4.089  3.5814  0.6340  0.9263
  647MOL0     H89284   4.304   5.439   4.138 -1.4604  3.5566 -1.1614
  647MOL0     H89285   4.349   5.505   3.986 -1.5679 -0.0744  0.5196
  647MOL0     H89286   4.426   5.358   4.042 -1.4350  0.7892 -1.5127
  648MOL0     O89287   6.657   3.967   3.970  0.4149  0.7327  0.6289
  648MOL0     C89288   6.625   3.847   3.977 -0.2323 -0.2291  0.2843
  648MOL0     O89289   6.599   3.786   4.097 -0.4118 -0.0996 -0.5686
  648MOL0     C89290   6.649   3.843   4.213 -0.0276  0.0304 -0.1403
  648MOL0     C89291   6.786   3.859   4.236  0.5365 -0.3757  0.5323
  648MOL0     C89292   6.842   3.919   4.352  0.2395 -1.1859  0.5595
  648MOL0     C89293   6.756   3.968   4.445 -0.3135  0.2442  0.2918
  648MOL0     O89294   6.809   4.024   4.558  0.1457 -0.3950  0.4938
  648MOL0     C89295   6.912   3.955   4.620 -0.5377  0.1272  0.5159
  648MOL0     C89296   6.899   3.952   4.772 -0.6594  0.3192 -0.2034
  648MOL0     C89297   6.886   4.096   4.828  0.9026 -0.0606 -0.6529
  648MOL0     C89298   6.873   4.068   4.989 -0.1932  0.6768  0.7524
  648MOL0     C89299   7.005   4.061   5.057 -0.5655 -0.0483 -0.0925
  648MOL0     C89300   7.000   4.142   5.192  1.4713  0.6141  0.4932
  648MOL0     C89301   7.130   4.105   5.271  0.0531  0.3974  0.5397
  648MOL0     C89302   7.177   4.226   5.358 -0.3017  0.4619 -0.5284
  648MOL0     N89303   7.075   4.283   5.438  0.9705 -0.7211 -0.4679
  648MOL0     C89304   7.042   4.229   5.564 -0.0520 -0.0483  0.0927
  648MOL0     C89305   6.934   4.300   5.598 -0.1422 -0.6992 -0.7283
  648MOL0     C89306   6.845   4.257   5.711 -0.6607 -1.1448  0.0381
  648MOL0     C89307   6.819   4.373   5.816 -1.1550  0.3449  0.2577
  648MOL0     C89308   6.942   4.413   5.905  0.6187 -0.1027 -0.9135
  648MOL0     C89309   7.078   4.459   5.846  0.0664  1.2116  0.3595
  648MOL0     O89310   7.170   4.517   5.946  0.5081  0.2518 -0.1129
  648MOL0     C89311   7.138   4.637   6.002 -0.3241 -0.4290 -0.8061
  648MOL0     C89312   7.199   4.667   6.125  0.0369 -0.4905 -0.2329
  648MOL0     C89313   7.145   4.777   6.203 -0.1215 -0.3424 -0.0468
  648MOL0     C89314   7.181   4.781   6.348  0.0282  0.2326  0.7349
  648MOL0     C89315   7.047   4.872   6.150 -0.2755 -0.4152  0.4013
  648MOL0     C89316   6.994   4.994   6.219 -0.8401 -0.0475 -0.8154
  648MOL0     O89317   6.859   5.017   6.193 -0.0035 -0.3745 -0.2367
  648MOL0     C89318   6.781   5.096   6.277 -0.7479  0.1836 -1.0017
  648MOL0     C89319   6.807   5.140   6.410 -0.7418  0.4105 -0.1596
  648MOL0     C89320   6.714   5.225   6.480 -0.2891  0.0906  0.1647
  648MOL0     C89321   6.598   5.269   6.418  0.7684  0.0177 -0.0745
  648MOL0     O89322   6.516   5.352   6.495  0.2303 -0.5529  0.6835
  648MOL0     C89323   6.420   5.270   6.556  0.4641 -0.8401 -0.9102
  648MOL0     C89324   6.339   5.361   6.647  0.2993  0.3913 -0.4883
  648MOL0     C89325   6.273   5.269   6.753  0.6473  0.3607 -0.3649
  648MOL0     C89326   6.173   5.345   6.837 -0.1364  0.2580 -0.7648
  648MOL0     C89327   6.234   5.464   6.910 -0.7927  0.1396  0.3655
  648MOL0     C89328   6.135   5.547   7.006  0.0293  0.5917 -0.2256
  648MOL0     C89329   6.193   5.689   7.015  0.4463  1.3379  0.2718
  648MOL0     C89330   6.139   5.795   6.916  0.3446 -0.3009  1.0613
  648MOL0    Cl89331   5.963   5.827   6.922 -0.1582  0.2048 -0.5818
  648MOL0     C89332   6.563   5.228   6.290 -0.3462 -0.7784  0.6236
  648MOL0     C89333   6.648   5.134   6.232 -0.6896 -1.0533 -0.1749
  648MOL0     O89334   7.067   5.070   6.281 -0.2385 -0.0829 -0.5048
  648MOL0     C89335   6.993   4.836   6.030  0.3765 -0.1563 -0.2777
  648MOL0     C89336   7.034   4.719   5.962 -0.3151 -0.7381  0.0769
  648MOL0     N89337   6.901   4.393   5.510 -0.3889  1.1276  0.6413
  648MOL0     N89338   6.985   4.380   5.407  0.2857 -0.2427 -0.4250
  648MOL0     C89339   6.618   3.970   4.425  0.8716  0.8213  0.4891
  648MOL0     C89340   6.567   3.900   4.314  0.6088  0.6472  0.4768
  648MOL0     C89341   6.609   3.763   3.854 -0.0729 -0.2696 -0.2736
  648MOL0     C89342   6.555   3.633   3.869  0.1804  0.3757 -0.6817
  648MOL0     C89343   6.562   3.540   3.767  0.0373 -0.0180 -0.4137
  648MOL0     C89344   6.609   3.572   3.642 -0.3391  0.0701 -0.0328
  648MOL0     O89345   6.599   3.477   3.544 -1.0322 -0.5311 -0.1346
  648MOL0     C89346   6.705   3.483   3.442  0.5014 -0.0545  0.2437
  648MOL0     C89347   6.714   3.342   3.373 -1.1575 -0.2891 -0.5118
  648MOL0     C89348   6.583   3.287   3.329  0.4977  0.0214 -0.1149
  648MOL0     C89349   6.599   3.144   3.284 -0.0018  1.4120  0.0497
  648MOL0     C89350   6.672   3.137   3.162 -0.5305 -0.1467  0.5417
  648MOL0     C89351   6.735   3.139   3.059  0.0615 -0.6671 -0.7906
  648MOL0     C89352   6.665   3.703   3.618 -0.4202 -1.1370 -0.2542
  648MOL0     C89353   6.656   3.799   3.724  0.4495 -1.0502  0.5323
  648MOL0     C89354   6.725   3.929   3.691  0.1183  0.2898 -0.3996
  648MOL0     H89355   6.850   3.824   4.156  3.0988 -1.0238  2.6970
  648MOL0     H89356   6.948   3.936   4.368 -0.4721  4.3073  1.3668
  648MOL0     H89357   7.009   4.000   4.596  0.8372 -2.2883  1.2021
  648MOL0     H89358   6.916   3.849   4.597 -2.8982  0.0928 -0.0012
  648MOL0     H89359   6.810   3.891   4.790  0.3923 -0.8213  1.4428
  648MOL0     H89360   6.986   3.898   4.812 -0.4152  0.2490 -0.8212
  648MOL0     H89361   6.967   4.168   4.812  0.3960  1.2403  2.0219
  648MOL0     H89362   6.792   4.144   4.799  0.4616 -0.1831  0.5262
  648MOL0     H89363   6.814   4.147   5.038  0.0431  0.8819  0.7080
  648MOL0     H89364   6.810   3.982   5.014 -1.5711  1.0639 -1.1677
  648MOL0     H89365   7.079   4.111   4.994 -0.5463 -0.4433 -0.3850
  648MOL0     H89366   7.038   3.956   5.062 -1.9671 -0.4681  2.3619
  648MOL0     H89367   6.999   4.247   5.163 -0.6870  1.0119  1.7896
  648MOL0     H89368   6.912   4.124   5.254  1.4034 -1.7829 -0.2010
  648MOL0     H89369   7.209   4.066   5.206 -1.7902 -2.7481 -0.0698
  648MOL0     H89370   7.098   4.016   5.326 -1.5436 -0.9815 -2.3464
  648MOL0     H89371   7.256   4.182   5.420 -2.2295 -2.5720 -0.0442
  648MOL0     H89372   7.217   4.310   5.301  0.9103  1.8622  2.2022
  648MOL0     H89373   7.085   4.156   5.632 -1.2069 -0.7630  0.1010
  648MOL0     H89374   6.897   4.181   5.771  2.4549  0.9060  0.1883
  648MOL0     H89375   6.749   4.225   5.671 -1.2919 -0.1470  0.7152
  648MOL0     H89376   6.787   4.463   5.762 -1.6286  0.2322  0.3445
  648MOL0     H89377   6.736   4.344   5.881 -4.3920 -0.3401 -3.7640
  648MOL0     H89378   6.900   4.490   5.971  2.3931  2.1581 -2.2605
  648MOL0     H89379   6.970   4.317   5.949  0.6556 -0.2520 -1.2620
  648MOL0     H89380   7.131   4.369   5.813  0.3799  0.3204  3.0157
  648MOL0     H89381   7.062   4.538   5.773  0.4668  1.0488  0.0958
  648MOL0     H89382   7.271   4.600   6.172 -0.0004  0.5372  1.3615
  648MOL0     H89383   7.230   4.876   6.372 -0.4575  1.0401 -1.2525
  648MOL0     H89384   7.238   4.698   6.390 -2.5081 -1.6206  0.7108
  648MOL0     H89385   7.091   4.787   6.410  0.0025 -2.2232  1.0040
  648MOL0     H89386   6.896   5.112   6.465 -0.3243  2.0750  0.0814
  648MOL0     H89387   6.721   5.274   6.576 -1.1459  0.4325  0.0623
  648MOL0     H89388   6.355   5.223   6.481  1.9573 -0.1464 -2.7285
  648MOL0     H89389   6.466   5.194   6.619 -0.8887 -0.4051  0.6566
  648MOL0     H89390   6.412   5.434   6.684  0.0960  0.0694  0.5904
  648MOL0     H89391   6.276   5.415   6.576  0.4270  1.4605  0.1933
  648MOL0     H89392   6.343   5.225   6.825 -2.2861 -1.1202  1.7947
  648MOL0     H89393   6.219   5.186   6.707 -0.2754 -0.0400  1.3764
  648MOL0     H89394   6.126   5.273   6.906 -2.8404 -1.1313 -3.8210
  648MOL0     H89395   6.087   5.380   6.780 -1.6133  0.8813  1.6780
  648MOL0     H89396   6.321   5.435   6.970 -1.5777  0.2890  1.6225
  648MOL0     H89397   6.280   5.534   6.840 -0.8128  0.7827  0.9726
  648MOL0     H89398   6.132   5.504   7.106  2.4060  1.0758  0.1053
  648MOL0     H89399   6.035   5.554   6.961 -1.7228 -2.5837  2.6928
  648MOL0     H89400   6.299   5.678   6.993  0.4622 -1.7657  1.4876
  648MOL0     H89401   6.167   5.727   7.114  0.2716 -0.0062  0.7521
  648MOL0     H89402   6.152   5.752   6.816 -0.4145 -0.8623  1.1953
  648MOL0     H89403   6.184   5.894   6.926  1.4417 -0.8039  1.2376
  648MOL0     H89404   6.474   5.266   6.241 -0.9010 -3.3407 -0.5568
  648MOL0     H89405   6.625   5.111   6.128  0.7759 -0.1896 -0.7207
  648MOL0     H89406   6.923   4.904   5.983  2.4785  0.0212 -3.4377
  648MOL0     H89407   6.979   4.673   5.880 -0.6723 -2.7098  1.3532
  648MOL0     H89408   6.557   4.012   4.505  1.9955 -0.7282  2.2445
  648MOL0     H89409   6.460   3.885   4.305  0.4857  1.6886  0.0259
  648MOL0     H89410   6.519   3.616   3.970 -0.1157  1.7613 -0.5324
  648MOL0     H89411   6.511   3.444   3.772  4.5685 -2.7075  0.5241
  648MOL0     H89412   6.678   3.558   3.367  2.2556  1.8289  1.4078
  648MOL0     H89413   6.801   3.506   3.490  0.1649 -1.0750  1.4757
  648MOL0     H89414   6.761   3.279   3.450  1.2109 -0.0349 -1.6396
  648MOL0     H89415   6.784   3.337   3.289 -1.5291 -3.3316 -0.7727
  648MOL0     H89416   6.516   3.288   3.415 -1.1358 -1.2712 -1.3190
  648MOL0     H89417   6.544   3.344   3.244 -2.3739  0.3819  1.3487
  648MOL0     H89418   6.501   3.096   3.282  0.9221 -0.6916  1.4569
  648MOL0     H89419   6.647   3.084   3.362  3.5347  2.4630 -1.1274
  648MOL0     H89420   6.801   3.136   2.976 -1.2952  0.6143 -1.9751
  648MOL0     H89421   6.716   3.723   3.524  0.5733 -0.9127  0.3183
  648MOL0     H89422   6.829   3.933   3.726 -0.7554 -0.4611  2.5700
  648MOL0     H89423   6.729   3.955   3.585  3.5138  0.2156 -0.3917
  648MOL0     H89424   6.674   4.013   3.740 -1.0737  0.0287 -1.1537
  649MOL0     O89425   0.924   8.637   9.648 -0.1889 -0.0601  0.0102
  649MOL0     C89426   0.834   8.578   9.595  0.5539 -0.1183 -0.0536
  649MOL0     O89427   0.752   8.629   9.493  0.2972 -0.2769 -0.8280
  649MOL0     C89428   0.772   8.765   9.460 -0.1839  1.0590 -0.8493
  649MOL0     C89429   0.674   8.860   9.513 -0.7450  0.2792 -0.0169
  649MOL0     C89430   0.675   8.994   9.467 -0.4168 -0.0324 -0.1547
  649MOL0     C89431   0.773   9.043   9.367  1.0588  0.0068 -0.9714
  649MOL0     O89432   0.763   9.174   9.344 -0.6854  0.2925 -0.7593
  649MOL0     C89433   0.832   9.226   9.238  0.6287 -0.7503 -0.2611
  649MOL0     C89434   0.762   9.344   9.157 -0.7296 -0.1236  0.6620
  649MOL0     C89435   0.668   9.288   9.060  0.1342 -0.3138  0.4373
  649MOL0     C89436   0.600   9.385   8.964  0.0853 -0.5711  0.1714
  649MOL0     C89437   0.498   9.316   8.869  0.3583  0.9361 -0.3972
  649MOL0     C89438   0.467   9.385   8.733  0.3664 -0.8272 -0.3796
  649MOL0     C89439   0.456   9.543   8.752  0.2276 -0.3586 -0.1695
  649MOL0     C89440   0.451   9.595   8.611 -0.4882 -0.4389 -0.3979
  649MOL0     N89441   0.452   9.736   8.610  0.2147 -0.5920  0.5031
  649MOL0     C89442   0.337   9.809   8.632  0.4013 -1.2723  0.5941
  649MOL0     C89443   0.385   9.940   8.631 -0.5741  0.2372  0.3428
  649MOL0     C89444   0.301  10.056   8.671 -0.3854 -0.2438 -0.1250
  649MOL0     C89445   0.392  10.174   8.730  0.2100 -0.4300  0.1139
  649MOL0     C89446   0.303  10.271   8.808  1.0038  0.8553 -0.0753
  649MOL0     C89447   0.373  10.384   8.884  0.1108  0.1271 -0.6474
  649MOL0     O89448   0.263  10.474   8.915  0.6084  0.2652  0.2961
  649MOL0     C89449   0.286  10.604   8.906 -0.4300  0.2368  0.6556
  649MOL0     C89450   0.184  10.690   8.868 -0.3281  1.0201  0.3648
  649MOL0     C89451   0.197  10.832   8.852  0.1105  1.3273 -0.1950
  649MOL0     C89452   0.077  10.910   8.805  0.4638 -0.4755 -0.5829
  649MOL0     C89453   0.319  10.886   8.894  0.0116  0.1105 -0.5479
  649MOL0     C89454   0.357  11.035   8.885  1.2654  0.4950  0.4893
  649MOL0     O89455   0.322  11.088   8.758  0.0028 -0.3449  0.1938
  649MOL0     C89456   0.286  11.214   8.739  0.4547 -0.9629  0.3689
  649MOL0     C89457   0.328  11.274   8.621 -0.7459  0.0337  0.4122
  649MOL0     C89458   0.305  11.413   8.601 -0.0243  0.6089  0.7167
  649MOL0     C89459   0.222  11.484   8.682 -0.5321 -0.3371 -0.7871
  649MOL0     O89460   0.201  11.614   8.646  0.0364 -1.0279  0.1479
  649MOL0     C89461   0.065  11.655   8.633 -0.5625  0.1829  0.2814
  649MOL0     C89462   0.042  11.794   8.559 -0.4591  0.6572 -0.4374
  649MOL0     C89463   0.119  11.894   8.648  1.0526  0.3952  1.4041
  649MOL0     C89464   0.082  12.051   8.611  0.2165  0.9784 -0.2809
  649MOL0     C89465   0.163  12.160   8.665 -0.0444 -0.8695 -0.3814
  649MOL0     C89466   0.282  12.186   8.573 -0.4783 -0.3168  0.0127
  649MOL0     C89467   0.334  12.325   8.619 -0.9953 -1.0852 -0.5996
  649MOL0     C89468   0.426  12.372   8.511 -0.5893 -0.6794  0.2860
  649MOL0    Cl89469   0.560  12.253   8.471  0.5199  0.0649 -0.0043
  649MOL0     C89470   0.180  11.426   8.804  0.4789  0.3476  0.2050
  649MOL0     C89471   0.205  11.284   8.830 -0.0260 -0.2318  0.9846
  649MOL0     O89472   0.395  11.090   8.986  0.0255  0.3228 -0.3294
  649MOL0     C89473   0.420  10.798   8.943  1.0943 -0.7237 -0.4408
  649MOL0     C89474   0.405  10.660   8.938  0.3136  0.1012 -0.4342
  649MOL0     N89475   0.514   9.935   8.598 -0.8968  0.7220 -0.4532
  649MOL0     N89476   0.564   9.814   8.602  0.7520  0.9283  0.5020
  649MOL0     C89477   0.878   8.958   9.324 -0.3821 -0.2626 -0.0272
  649MOL0     C89478   0.865   8.816   9.363 -0.5022  0.2549 -0.8446
  649MOL0     C89479   0.796   8.446   9.644 -0.0763  0.0915  0.5067
  649MOL0     C89480   0.684   8.383   9.583 -0.1292 -0.5787 -0.9507
  649MOL0     C89481   0.646   8.257   9.636 -0.4188 -0.2915  0.9481
  649MOL0     C89482   0.726   8.186   9.720  0.0028  0.3133 -0.3645
  649MOL0     O89483   0.667   8.063   9.761 -0.1508  0.1960 -0.3138
  649MOL0     C89484   0.745   7.975   9.853 -0.2513  0.7795 -0.2534
  649MOL0     C89485   0.872   7.897   9.790 -0.5318  0.6417  0.3125
  649MOL0     C89486   0.913   7.803   9.896 -0.4049  0.6847 -0.0930
  649MOL0     C89487   0.999   7.689   9.842 -0.5132 -0.1681 -0.3993
  649MOL0     C89488   0.994   7.583   9.937 -0.1716 -0.4660 -0.7100
  649MOL0     C89489   0.981   7.497  10.020 -0.6148 -0.5885 -0.0233
  649MOL0     C89490   0.852   8.239   9.759 -0.7521 -0.3806 -0.2022
  649MOL0     C89491   0.888   8.368   9.725 -0.8733  0.6762  0.4253
  649MOL0     C89492   0.996   8.419   9.811 -0.0288  0.1911  0.1466
  649MOL0     H89493   0.605   8.828   9.590  2.2933 -0.7671  2.4691
  649MOL0     H89494   0.608   9.068   9.509  0.2685  1.3292 -1.3637
  649MOL0     H89495   0.844   9.143   9.168 -3.0447 -4.7549  3.2535
  649MOL0     H89496   0.919   9.271   9.286 -0.7574 -1.1409  2.9400
  649MOL0     H89497   0.717   9.417   9.226 -0.5596  0.1849  0.4491
  649MOL0     H89498   0.835   9.398   9.096 -0.7079  0.5206  1.2336
  649MOL0     H89499   0.717   9.216   8.995 -0.1951  1.6600 -2.1670
  649MOL0     H89500   0.586   9.246   9.119 -0.5320 -1.9066 -1.5294
  649MOL0     H89501   0.556   9.466   9.023 -0.6672  0.0228 -1.1520
  649MOL0     H89502   0.685   9.436   8.916  1.5661 -1.3937  1.8123
  649MOL0     H89503   0.405   9.320   8.927 -1.6633  4.1121 -3.4173
  649MOL0     H89504   0.520   9.209   8.863 -2.6117  0.2266 -0.1030
  649MOL0     H89505   0.546   9.360   8.662 -0.0962  1.5367 -1.8203
  649MOL0     H89506   0.379   9.339   8.685 -2.3453  1.7470  1.7693
  649MOL0     H89507   0.549   9.580   8.797  2.4376 -1.9228 -3.1117
  649MOL0     H89508   0.368   9.584   8.801 -1.2078 -0.7751 -2.2567
  649MOL0     H89509   0.541   9.556   8.562  0.7627  1.5896  0.2027
  649MOL0     H89510   0.361   9.558   8.560  0.4040 -0.2229 -2.2179
  649MOL0     H89511   0.232   9.783   8.644  0.4659 -2.0440 -0.3928
  649MOL0     H89512   0.222  10.024   8.740 -3.1162  3.6004 -1.1171
  649MOL0     H89513   0.241  10.098   8.590  0.5611 -1.4254 -1.4652
  649MOL0     H89514   0.461  10.122   8.798  1.5041 -2.3498 -2.5012
  649MOL0     H89515   0.445  10.228   8.652  3.9587  0.1821  2.8075
  649MOL0     H89516   0.225  10.312   8.743  0.0835  1.7829  1.5476
  649MOL0     H89517   0.257  10.220   8.893  1.9948  0.3431  0.1677
  649MOL0     H89518   0.424  10.356   8.976  0.2949  0.5655 -0.6164
  649MOL0     H89519   0.449  10.444   8.834  2.0302  3.4071  5.3197
  649MOL0     H89520   0.086  10.644   8.856 -0.8007  1.8695  0.8483
  649MOL0     H89521  -0.013  10.873   8.855  0.3834  1.7740  1.1395
  649MOL0     H89522   0.061  10.904   8.697 -0.3958 -3.5394 -0.3815
  649MOL0     H89523   0.093  11.014   8.835  1.1721 -0.5514 -0.6786
  649MOL0     H89524   0.397  11.215   8.561  1.6184  1.2105  1.8111
  649MOL0     H89525   0.349  11.467   8.518  2.1415 -3.4046 -1.0254
  649MOL0     H89526   0.004  11.575   8.591  3.0180 -1.9478 -1.3452
  649MOL0     H89527   0.041  11.666   8.740  2.8981  0.2469  1.1641
  649MOL0     H89528   0.078  11.798   8.456  2.7888  3.9283  0.6085
  649MOL0     H89529  -0.067  11.803   8.565 -0.4616 -0.0038  1.0992
  649MOL0     H89530   0.226  11.889   8.624  0.5746 -0.7451 -0.7349
  649MOL0     H89531   0.093  11.881   8.753 -1.2947  0.9773  0.9515
  649MOL0     H89532  -0.020  12.055   8.652 -0.0994 -1.6983 -0.6234
  649MOL0     H89533   0.065  12.061   8.503 -0.0901  4.4854 -0.0236
  649MOL0     H89534   0.103  12.251   8.673  0.6060  0.1007 -4.2768
  649MOL0     H89535   0.209  12.132   8.760  1.6669  2.3634 -0.1265
  649MOL0     H89536   0.254  12.204   8.468 -4.2853 -0.5732  0.8415
  649MOL0     H89537   0.362  12.113   8.588 -0.9994 -0.9614 -0.2872
  649MOL0     H89538   0.401  12.318   8.705  0.0470  3.3646 -0.7943
  649MOL0     H89539   0.253  12.387   8.659  0.3658  0.5050 -0.1706
  649MOL0     H89540   0.479  12.467   8.520  1.0907 -1.3186 -1.9882
  649MOL0     H89541   0.368  12.389   8.420  2.1760  1.8287 -1.1873
  649MOL0     H89542   0.137  11.492   8.878 -1.3343  1.7572 -1.9693
  649MOL0     H89543   0.162  11.241   8.920 -2.3697 -0.6921 -0.2713
  649MOL0     H89544   0.511  10.841   8.983 -0.4710  3.4030 -0.9002
  649MOL0     H89545   0.489  10.603   8.975  1.4509  1.2975 -1.0581
  649MOL0     H89546   0.960   8.989   9.260 -2.9162  0.9923 -2.9762
  649MOL0     H89547   0.939   8.746   9.327  2.6304  1.0262  3.2820
  649MOL0     H89548   0.620   8.435   9.512 -0.9426 -4.6303 -3.5745
  649MOL0     H89549   0.544   8.224   9.621 -0.9182  1.7705 -0.7886
  649MOL0     H89550   0.771   8.026   9.946 -1.5139 -0.2306  0.6775
  649MOL0     H89551   0.680   7.898   9.895  0.7614 -0.1546 -0.3374
  649MOL0     H89552   0.964   7.949   9.761  0.3061 -2.3829 -3.1939
  649MOL0     H89553   0.833   7.847   9.701  1.3593  1.6255 -1.1598
  649MOL0     H89554   0.973   7.861   9.966 -1.0162 -0.6360  1.5724
  649MOL0     H89555   0.831   7.753   9.947 -1.8160  0.4277 -2.4430
  649MOL0     H89556   1.093   7.730   9.806 -1.2647 -1.4861 -4.3995
  649MOL0     H89557   0.946   7.655   9.752  0.9255 -3.4237 -0.1390
  649MOL0     H89558   0.967   7.405  10.073  2.8968 -0.7446  0.8409
  649MOL0     H89559   0.928   8.179   9.807 -1.1072 -0.9891 -0.3986
  649MOL0     H89560   1.054   8.496   9.760  3.4968 -3.2015 -1.4903
  649MOL0     H89561   0.956   8.467   9.901  1.0041  1.8053 -0.2080
  649MOL0     H89562   1.066   8.339   9.838 -0.3103  0.4340  1.7386
  650MOL0     O89563  11.172   2.651   4.139  0.6168  0.4512 -0.6040
  650MOL0     C89564  11.077   2.723   4.168  0.2453 -0.1102  0.3977
  650MOL0     O89565  10.967   2.682   4.229 -0.2552 -0.1496  0.2462
  650MOL0     C89566  10.951   2.557   4.279  0.1207  0.3722 -0.4317
  650MOL0     C89567  10.997   2.510   4.400  0.2533  0.3195  0.0321
  650MOL0     C89568  10.969   2.382   4.456 -0.5913  0.4133  0.8742
  650MOL0     C89569  10.897   2.292   4.377 -0.0119 -0.3017  0.3730
  650MOL0     O89570  10.852   2.176   4.437  0.5680 -0.1173  0.8897
  650MOL0     C89571  10.772   2.198   4.551  0.2831  0.5938 -0.8065
  650MOL0     C89572  10.725   2.058   4.597 -0.7067 -0.1777  0.4211
  650MOL0     C89573  10.597   1.999   4.524 -0.2594  0.0416 -0.0437
  650MOL0     C89574  10.591   1.959   4.374  1.0879  0.4916 -0.0551
  650MOL0     C89575  10.441   1.906   4.322 -0.0352 -0.1779  0.5511
  650MOL0     C89576  10.435   1.850   4.179  0.2299  0.5457  0.0580
  650MOL0     C89577  10.304   1.765   4.145 -0.2628 -0.1758  0.0886
  650MOL0     C89578  10.171   1.845   4.151 -0.0185  0.0163 -0.4828
  650MOL0     N89579  10.113   1.861   4.020  0.6462 -0.0000 -0.1057
  650MOL0     C89580  10.082   1.980   3.948 -0.4661  0.0895 -0.7002
  650MOL0     C89581  10.000   1.953   3.855  0.4942 -0.1096  0.4537
  650MOL0     C89582   9.952   2.057   3.751 -0.0626  0.4678 -0.3509
  650MOL0     C89583   9.856   2.157   3.817 -0.0206 -0.7292 -0.6934
  650MOL0     C89584   9.823   2.276   3.733  0.1054  0.6978  0.4945
  650MOL0     C89585   9.922   2.391   3.744 -0.5314  0.4074  0.6036
  650MOL0     O89586  10.066   2.355   3.726  0.5935  0.2192  0.9589
  650MOL0     C89587  10.149   2.383   3.835  0.1158  0.1162 -0.5538
  650MOL0     C89588  10.240   2.286   3.880 -0.3412 -0.3540 -0.5394
  650MOL0     C89589  10.337   2.316   3.987  0.5294  0.1586  0.4859
  650MOL0     C89590  10.435   2.209   4.035 -0.1468  1.0783  0.8287
  650MOL0     C89591  10.331   2.446   4.040 -0.4633  0.2140 -0.2203
  650MOL0     C89592  10.406   2.488   4.157 -0.8208 -0.6202 -1.7065
  650MOL0     O89593  10.477   2.602   4.146  0.5661  0.2260 -0.3046
  650MOL0     C89594  10.539   2.663   4.247  0.8733  0.4149 -0.4508
  650MOL0     C89595  10.546   2.800   4.242 -0.9566 -0.6830 -0.8331
  650MOL0     C89596  10.591   2.876   4.339 -0.8591 -0.9957 -0.0530
  650MOL0     C89597  10.639   2.817   4.453  0.1598  0.8248 -0.6743
  650MOL0     O89598  10.674   2.902   4.560 -0.0369  0.2723  0.0071
  650MOL0     C89599  10.763   2.849   4.659 -0.5951 -0.4202 -0.6553
  650MOL0     C89600  10.913   2.867   4.615  0.6214 -1.0837 -0.3509
  650MOL0     C89601  10.972   3.011   4.631  0.2731 -0.2617 -0.3737
  650MOL0     C89602  10.909   3.102   4.520 -1.1144 -0.5864 -0.0808
  650MOL0     C89603  11.005   3.198   4.444  0.3318 -0.6838 -0.5175
  650MOL0     C89604  10.939   3.306   4.360 -0.1244  0.5525  0.3678
  650MOL0     C89605  10.868   3.410   4.439 -0.5032  0.6389  0.3027
  650MOL0     C89606  10.790   3.499   4.343  0.2805 -1.0083  0.2035
  650MOL0    Cl89607  10.696   3.618   4.436 -0.4257 -0.1392 -0.4857
  650MOL0     C89608  10.656   2.671   4.453 -0.0423 -0.4675 -0.5997
  650MOL0     C89609  10.593   2.595   4.358  0.3651 -0.1488  0.1292
  650MOL0     O89610  10.416   2.404   4.245 -1.0118  0.5730 -1.3836
  650MOL0     C89611  10.243   2.537   3.991  0.6457  0.3277  0.1368
  650MOL0     C89612  10.150   2.511   3.896 -0.1774 -0.3541  0.6482
  650MOL0     N89613   9.992   1.811   3.856  0.3791  0.4759 -0.0416
  650MOL0     N89614  10.046   1.764   3.954  0.1539  0.1407  0.1298
  650MOL0     C89615  10.863   2.332   4.248  0.4430  0.7590  0.3739
  650MOL0     C89616  10.887   2.458   4.204  0.4131  0.6975  0.8867
  650MOL0     C89617  11.074   2.857   4.109  0.3435  0.1479 -0.3673
  650MOL0     C89618  10.954   2.891   4.033  0.1192 -0.0017 -0.0468
  650MOL0     C89619  10.954   3.019   3.971 -0.0209  0.3955  0.0978
  650MOL0     C89620  11.051   3.113   3.993 -0.5998  0.7890  0.0074
  650MOL0     O89621  11.049   3.246   3.949  0.0616 -0.6965  0.5052
  650MOL0     C89622  11.027   3.265   3.807 -1.1843  0.5491  0.5203
  650MOL0     C89623  11.075   3.408   3.782  0.6223 -0.3714 -0.7347
  650MOL0     C89624  10.960   3.503   3.817 -0.4601  0.1604  0.5429
  650MOL0     C89625  11.008   3.646   3.824  0.0886 -0.2834 -0.5786
  650MOL0     C89626  10.986   3.703   3.686 -0.1615 -0.7377 -0.6454
  650MOL0     C89627  10.971   3.740   3.568  0.0678  0.2459  0.3720
  650MOL0     C89628  11.159   3.085   4.078 -1.2915 -0.4025 -0.0007
  650MOL0     C89629  11.178   2.955   4.132  0.7910  0.5121 -0.0675
  650MOL0     C89630  11.302   2.941   4.213 -0.0890  1.0205 -0.1123
  650MOL0     H89631  11.065   2.577   4.452  1.2725  0.3164 -1.2450
  650MOL0     H89632  11.008   2.355   4.554 -0.5729  0.2947  0.8338
  650MOL0     H89633  10.687   2.264   4.533 -3.6610 -4.5242 -3.3081
  650MOL0     H89634  10.835   2.229   4.635  1.5309 -1.6175 -0.8503
  650MOL0     H89635  10.808   1.988   4.586 -3.0742 -2.9971 -0.6293
  650MOL0     H89636  10.690   2.065   4.701 -2.6338 -4.0121  0.2249
  650MOL0     H89637  10.572   1.908   4.579 -1.9044  0.2370 -0.3896
  650MOL0     H89638  10.509   2.065   4.527 -0.4567  0.0405 -2.6832
  650MOL0     H89639  10.617   2.046   4.312 -2.1359 -1.2331 -4.3466
  650MOL0     H89640  10.658   1.875   4.351 -1.2522 -1.9695  1.5203
  650MOL0     H89641  10.364   1.982   4.340  0.3291  0.2065  0.4849
  650MOL0     H89642  10.415   1.822   4.388  4.0725 -0.2140  2.4230
  650MOL0     H89643  10.435   1.936   4.111 -1.9721  1.5076  1.1554
  650MOL0     H89644  10.529   1.796   4.169  1.0180  1.9764 -0.6159
  650MOL0     H89645  10.302   1.675   4.206 -0.7116 -4.0967 -5.0241
  650MOL0     H89646  10.327   1.749   4.039  0.5295  3.6370 -0.4531
  650MOL0     H89647  10.091   1.790   4.201  1.4433 -3.0818 -1.3199
  650MOL0     H89648  10.182   1.936   4.210  2.0055 -0.9668  0.7523
  650MOL0     H89649  10.115   2.078   3.982  0.6601 -0.2130 -0.8866
  650MOL0     H89650   9.900   2.017   3.664 -2.0162  0.5796  0.6897
  650MOL0     H89651  10.037   2.120   3.726  1.0876  0.4933  3.1309
  650MOL0     H89652   9.766   2.099   3.841  0.6939 -0.9106  1.9240
  650MOL0     H89653   9.898   2.204   3.907  2.2626 -1.5079 -1.2801
  650MOL0     H89654   9.829   2.241   3.630 -0.1953  0.1937  0.6464
  650MOL0     H89655   9.724   2.312   3.762 -1.0202 -3.7185  3.0422
  650MOL0     H89656   9.907   2.463   3.664  1.7597  1.4174  0.9884
  650MOL0     H89657   9.893   2.434   3.840  0.3034 -0.5274  1.3009
  650MOL0     H89658  10.241   2.189   3.831  1.8860  0.5257 -2.3724
  650MOL0     H89659  10.535   2.253   4.044 -0.3354  1.4599  1.0923
  650MOL0     H89660  10.447   2.128   3.963 -0.5716  0.2846  1.6210
  650MOL0     H89661  10.397   2.156   4.124 -0.1961  0.1379  0.2583
  650MOL0     H89662  10.508   2.866   4.165  1.9684  0.8422 -1.0894
  650MOL0     H89663  10.597   2.984   4.339  1.5515 -1.0511 -1.7952
  650MOL0     H89664  10.754   2.907   4.751  0.9043  1.0949 -1.4026
  650MOL0     H89665  10.732   2.751   4.696  2.2567 -0.1909  2.7913
  650MOL0     H89666  10.970   2.801   4.682  2.3228 -1.4803 -2.1071
  650MOL0     H89667  10.921   2.831   4.512 -0.5032 -1.6974 -0.2407
  650MOL0     H89668  11.081   3.007   4.629  0.2492 -0.9984 -1.1841
  650MOL0     H89669  10.952   3.050   4.731  0.7329 -0.4053 -0.2226
  650MOL0     H89670  10.826   3.159   4.562 -0.3056  2.1486 -1.9421
  650MOL0     H89671  10.882   3.034   4.439 -0.3995 -0.8198 -0.1350
  650MOL0     H89672  11.073   3.241   4.518  0.3367 -1.0671 -0.2925
  650MOL0     H89673  11.067   3.133   4.381  2.2379 -0.5481  1.1158
  650MOL0     H89674  10.870   3.249   4.297  0.1848 -0.8002  1.2198
  650MOL0     H89675  11.005   3.351   4.284 -0.5138 -4.2433 -3.3136
  650MOL0     H89676  10.942   3.457   4.504  1.1420 -1.5046  0.1043
  650MOL0     H89677  10.805   3.348   4.503  1.5192 -1.3658  0.4617
  650MOL0     H89678  10.731   3.436   4.276  0.3225 -2.3113  1.3515
  650MOL0     H89679  10.867   3.547   4.282  0.5833 -0.9846  0.5960
  650MOL0     H89680  10.711   2.617   4.530  1.2143  1.5898  0.0446
  650MOL0     H89681  10.607   2.488   4.357 -1.3355 -0.4314  1.9510
  650MOL0     H89682  10.233   2.627   4.052  1.1802  0.2241  0.3855
  650MOL0     H89683  10.072   2.583   3.870  0.5515  0.7112  1.3350
  650MOL0     H89684  10.813   2.259   4.186  0.1514 -0.2899  1.7952
  650MOL0     H89685  10.847   2.486   4.107 -2.4790 -2.0020  1.1757
  650MOL0     H89686  10.871   2.822   4.018  1.2041 -1.9076  2.1576
  650MOL0     H89687  10.874   3.045   3.902 -2.2659 -0.4077  2.2295
  650MOL0     H89688  11.085   3.187   3.757 -1.3359  2.2513 -2.5659
  650MOL0     H89689  10.922   3.251   3.778 -0.3110 -2.6963 -1.7465
  650MOL0     H89690  11.118   3.429   3.684  5.0471  2.0993  1.4562
  650MOL0     H89691  11.166   3.433   3.837  0.9087  1.5325 -1.9818
  650MOL0     H89692  10.873   3.488   3.751 -0.8652  3.8218  0.0600
  650MOL0     H89693  10.924   3.477   3.917  0.4708  1.6588  1.3054
  650MOL0     H89694  11.115   3.656   3.845  0.0664 -1.3823  0.1549
  650MOL0     H89695  10.953   3.696   3.904  0.8806 -1.7414  0.9484
  650MOL0     H89696  10.968   3.750   3.462  2.4887  3.1591  0.4444
  650MOL0     H89697  11.216   3.176   4.090  1.9418 -2.0549 -1.6775
  650MOL0     H89698  11.293   2.862   4.288 -1.5073  1.2373 -0.0282
  650MOL0     H89699  11.388   2.908   4.154 -0.2093  1.7073 -0.6878
  650MOL0     H89700  11.329   3.030   4.270 -0.6252  1.7798 -1.0190
  651MOL0     O89701   0.435   5.921   4.950 -0.2148  0.2560 -0.6025
  651MOL0     C89702   0.390   6.009   5.014  0.6761  0.0288 -0.5859
  651MOL0     O89703   0.312   6.105   4.967  0.5946 -0.4780  0.1541
  651MOL0     C89704   0.313   6.122   4.829 -0.7699  0.2812 -0.2267
  651MOL0     C89705   0.202   6.147   4.755  0.6622 -0.0092 -0.0311
  651MOL0     C89706   0.205   6.186   4.618 -0.5340 -0.6199 -0.9556
  651MOL0     C89707   0.322   6.196   4.554  0.1973 -0.3050  1.0327
  651MOL0     O89708   0.338   6.231   4.426 -0.6585 -0.6951  0.7144
  651MOL0     C89709   0.227   6.284   4.359  1.0115  0.2352  0.5691
  651MOL0     C89710   0.257   6.298   4.209  0.7169  0.1226  0.0376
  651MOL0     C89711   0.264   6.172   4.121 -0.0106 -0.3138  0.0522
  651MOL0     C89712   0.267   6.191   3.967 -0.6156 -0.5378  1.1575
  651MOL0     C89713   0.266   6.058   3.884  1.2594  0.5326 -0.0598
  651MOL0     C89714   0.125   5.999   3.859  0.3243  0.3925  0.6084
  651MOL0     C89715   0.045   6.080   3.752 -1.2084  0.5685 -0.5995
  651MOL0     C89716  -0.087   6.008   3.739 -0.5270  0.4587 -0.9133
  651MOL0     N89717  -0.176   6.101   3.665  0.2983  0.1312  1.1403
  651MOL0     C89718  -0.154   6.196   3.567 -0.3758  0.0153  0.7560
  651MOL0     C89719  -0.275   6.215   3.523 -0.0739  0.2906 -0.9165
  651MOL0     C89720  -0.287   6.329   3.432 -0.9615 -0.0666  1.0015
  651MOL0     C89721  -0.320   6.280   3.284 -0.3190 -0.6918 -0.5433
  651MOL0     C89722  -0.369   6.402   3.202  0.1760 -0.3568  0.0103
  651MOL0     C89723  -0.399   6.359   3.048 -0.1943 -0.0347 -0.9741
  651MOL0     O89724  -0.480   6.452   2.975 -1.5054  0.7952 -0.6339
  651MOL0     C89725  -0.525   6.394   2.859  0.4659 -0.8928 -0.3049
  651MOL0     C89726  -0.449   6.411   2.748 -0.2019 -0.3685  0.7568
  651MOL0     C89727  -0.492   6.354   2.623  0.2516  0.4420 -0.1039
  651MOL0     C89728  -0.389   6.368   2.509  0.2804 -0.3969 -0.3837
  651MOL0     C89729  -0.609   6.269   2.620 -0.2912  0.1695 -0.4700
  651MOL0     C89730  -0.663   6.228   2.489  0.0168  0.0971 -0.0710
  651MOL0     O89731  -0.798   6.221   2.480 -0.6795  0.2267  0.2500
  651MOL0     C89732  -0.861   6.156   2.381  0.2927  0.7172 -0.4413
  651MOL0     C89733  -1.001   6.177   2.382 -0.1024 -0.9026  0.6183
  651MOL0     C89734  -1.078   6.134   2.271 -0.5109  1.5311  0.8625
  651MOL0     C89735  -1.022   6.072   2.161 -0.9893  0.5702 -0.2147
  651MOL0     O89736  -1.099   6.042   2.053  0.2234 -0.2521  0.6076
  651MOL0     C89737  -1.198   5.943   2.064  0.0128 -0.8237 -0.9388
  651MOL0     C89738  -1.241   5.893   1.926 -0.1648  0.7617  0.4418
  651MOL0     C89739  -1.346   5.777   1.912 -0.5590 -0.1594 -0.3991
  651MOL0     C89740  -1.475   5.817   1.989  0.1065  0.1826  0.2782
  651MOL0     C89741  -1.607   5.752   1.955 -1.0541 -0.1604  0.4683
  651MOL0     C89742  -1.601   5.601   1.942  0.0634  0.3926  0.4392
  651MOL0     C89743  -1.587   5.540   2.076  0.1694 -0.3156 -0.1842
  651MOL0     C89744  -1.567   5.391   2.060 -0.4912  0.0937  0.1688
  651MOL0    Cl89745  -1.669   5.311   1.929 -0.1210  0.3647 -0.3816
  651MOL0     C89746  -0.885   6.033   2.169 -0.1237  0.0132  0.6737
  651MOL0     C89747  -0.810   6.075   2.278 -0.0536 -0.1635  0.6919
  651MOL0     O89748  -0.575   6.175   2.417  0.1665 -0.0464  0.6675
  651MOL0     C89749  -0.680   6.248   2.740  0.0589  0.3170 -0.5949
  651MOL0     C89750  -0.637   6.311   2.860 -0.6319  0.3830 -0.1412
  651MOL0     N89751  -0.371   6.160   3.595  0.3681 -0.3497 -0.1952
  651MOL0     N89752  -0.315   6.089   3.686 -0.5870 -0.5340  0.9455
  651MOL0     C89753   0.434   6.157   4.619 -0.0653  0.0034  0.3579
  651MOL0     C89754   0.437   6.120   4.757 -0.1020 -1.3308  0.5930
  651MOL0     C89755   0.396   5.987   5.156  0.5793  0.7776 -0.3264
  651MOL0     C89756   0.335   5.875   5.204 -0.1075 -0.7772 -0.5688
  651MOL0     C89757   0.349   5.837   5.339 -0.2543  0.4016  0.1677
  651MOL0     C89758   0.406   5.926   5.422 -0.9666  0.4687 -0.1857
  651MOL0     O89759   0.405   5.891   5.558 -0.4223  0.3907  0.0001
  651MOL0     C89760   0.441   5.991   5.651  0.0556 -0.6238 -0.3546
  651MOL0     C89761   0.407   5.943   5.793  0.0898 -0.4200  0.9380
  651MOL0     C89762   0.260   5.920   5.810  0.1304 -0.3232 -0.2778
  651MOL0     C89763   0.218   5.919   5.954 -0.1856  0.1986 -0.3545
  651MOL0     C89764   0.077   5.898   5.976 -0.3440  0.8887  0.2022
  651MOL0     C89765  -0.028   5.857   5.984  0.5999  0.0509  0.7519
  651MOL0     C89766   0.468   6.047   5.375  1.1547  0.0876 -0.3589
  651MOL0     C89767   0.464   6.074   5.241 -0.6422 -0.9512 -0.4482
  651MOL0     C89768   0.536   6.198   5.188  0.0995 -0.5160  0.3239
  651MOL0     H89769   0.109   6.147   4.811  0.9499 -0.5463  0.4585
  651MOL0     H89770   0.114   6.232   4.580 -2.5247  1.1560  4.9023
  651MOL0     H89771   0.201   6.382   4.400 -0.8329  0.2917 -0.6000
  651MOL0     H89772   0.143   6.214   4.365  1.8826 -1.0167 -1.0708
  651MOL0     H89773   0.185   6.373   4.175  1.2179  1.5690  1.9901
  651MOL0     H89774   0.357   6.341   4.204  0.4840  0.9548  1.6662
  651MOL0     H89775   0.355   6.121   4.151 -1.7538 -2.5867  1.9113
  651MOL0     H89776   0.182   6.103   4.144  0.4842 -0.5448  1.1319
  651MOL0     H89777   0.181   6.245   3.927  2.0416  2.0832 -1.6085
  651MOL0     H89778   0.355   6.246   3.931 -0.8261 -1.3815 -0.7290
  651MOL0     H89779   0.314   5.977   3.939 -2.1747 -2.2957 -0.8534
  651MOL0     H89780   0.312   6.063   3.785 -0.5179 -1.0918 -1.0498
  651MOL0     H89781   0.139   5.896   3.826 -0.7431  0.5486 -0.3514
  651MOL0     H89782   0.067   5.991   3.951  1.0751 -0.8868  1.0007
  651MOL0     H89783   0.097   6.079   3.656 -1.0305  0.6835 -0.5047
  651MOL0     H89784   0.023   6.178   3.795 -1.6731 -0.0179  0.5401
  651MOL0     H89785  -0.084   5.905   3.702  0.3587 -0.0402  0.4589
  651MOL0     H89786  -0.129   5.997   3.839  1.7245  0.4047  0.0821
  651MOL0     H89787  -0.056   6.233   3.537  0.0136  1.0674  3.1359
  651MOL0     H89788  -0.192   6.382   3.444 -0.6132 -0.6945  1.1026
  651MOL0     H89789  -0.363   6.401   3.463  0.0138  0.2902  2.6911
  651MOL0     H89790  -0.244   6.215   3.240  0.8563 -3.8429  5.1453
  651MOL0     H89791  -0.403   6.209   3.292  1.2227 -2.7587 -1.8379
  651MOL0     H89792  -0.463   6.439   3.245 -0.1676  2.0373 -2.4866
  651MOL0     H89793  -0.299   6.485   3.212  0.2565 -0.4261  0.0227
  651MOL0     H89794  -0.303   6.338   3.000  1.1508 -0.8355  1.8323
  651MOL0     H89795  -0.450   6.263   3.063  2.6110 -1.4965  0.1852
  651MOL0     H89796  -0.359   6.472   2.753 -2.0691  3.1515 -2.8625
  651MOL0     H89797  -0.372   6.269   2.466 -1.8995 -0.4398 -1.2893
  651MOL0     H89798  -0.303   6.418   2.554 -0.0966 -0.7670  0.7677
  651MOL0     H89799  -0.431   6.434   2.433 -0.8358 -0.2473  0.3381
  651MOL0     H89800  -1.034   6.246   2.459 -3.5299 -1.0131 -0.5729
  651MOL0     H89801  -1.186   6.149   2.271 -1.1011 -1.4403 -2.1489
  651MOL0     H89802  -1.168   5.856   2.124 -2.6530 -0.4004  1.1824
  651MOL0     H89803  -1.283   5.984   2.120 -0.3385 -1.0936 -1.2682
  651MOL0     H89804  -1.287   5.974   1.868  0.1834 -0.6663 -1.9773
  651MOL0     H89805  -1.152   5.865   1.869 -0.0642  4.1476 -1.3101
  651MOL0     H89806  -1.307   5.684   1.954 -1.9787 -0.8623 -0.5920
  651MOL0     H89807  -1.367   5.764   1.805  3.3710  1.4951 -1.5647
  651MOL0     H89808  -1.487   5.921   1.954  0.9839  0.0863 -0.3641
  651MOL0     H89809  -1.457   5.824   2.096 -1.0093 -2.6920  0.7214
  651MOL0     H89810  -1.675   5.785   2.033 -1.8400 -1.8655  0.5331
  651MOL0     H89811  -1.652   5.804   1.870 -1.0647  0.7811  1.0392
  651MOL0     H89812  -1.534   5.566   1.864  2.3529  1.6719  1.7230
  651MOL0     H89813  -1.703   5.577   1.912 -0.0149  0.4377  0.6645
  651MOL0     H89814  -1.647   5.585   2.155  6.6829  3.3592  3.5346
  651MOL0     H89815  -1.491   5.568   2.122  0.8994 -1.8731 -0.6819
  651MOL0     H89816  -1.584   5.341   2.156 -2.8373  2.8124  1.3218
  651MOL0     H89817  -1.467   5.376   2.018 -0.9087  2.1926 -1.7765
  651MOL0     H89818  -0.836   5.984   2.085 -2.9401 -0.0988 -1.0122
  651MOL0     H89819  -0.707   6.044   2.264 -1.4041 -3.6762 -3.7641
  651MOL0     H89820  -0.768   6.186   2.751  1.2958 -1.2367  1.1705
  651MOL0     H89821  -0.694   6.302   2.953  0.6719  0.3963  0.6765
  651MOL0     H89822   0.533   6.157   4.574  0.7769  2.1977  2.0284
  651MOL0     H89823   0.533   6.092   4.799  1.2732 -0.5858 -1.8206
  651MOL0     H89824   0.272   5.811   5.144 -1.7782  2.2859 -2.3053
  651MOL0     H89825   0.315   5.738   5.370  1.1384 -0.0401  0.3576
  651MOL0     H89826   0.549   6.009   5.647 -0.3188  2.2986  0.6183
  651MOL0     H89827   0.396   6.089   5.632 -0.3154 -0.8513 -0.6831
  651MOL0     H89828   0.440   6.014   5.869 -0.7805  0.9913  0.0539
  651MOL0     H89829   0.446   5.841   5.798 -3.9795 -2.1585  1.4703
  651MOL0     H89830   0.200   5.992   5.755  2.0921 -1.1538 -3.7922
  651MOL0     H89831   0.226   5.823   5.772  0.3809 -0.8224  0.7304
  651MOL0     H89832   0.247   6.009   6.009  2.1558 -2.4215  3.1215
  651MOL0     H89833   0.277   5.841   6.004 -0.1721 -0.1117 -0.8507
  651MOL0     H89834  -0.127   5.825   6.012 -1.5508  5.3432  0.4518
  651MOL0     H89835   0.499   6.128   5.440 -0.7952  0.9967 -0.4880
  651MOL0     H89836   0.472   6.283   5.213 -1.6476 -1.9145  0.9036
  651MOL0     H89837   0.642   6.191   5.215 -0.0803 -1.1210  0.9054
  651MOL0     H89838   0.540   6.195   5.079  2.8333 -1.4225  0.3856
  652MOL0     O89839   1.547   5.437   1.200  0.0518 -0.5649  0.1163
  652MOL0     C89840   1.543   5.493   1.087  0.4263 -0.5714  0.5093
  652MOL0     O89841   1.642   5.565   1.024  0.2184  0.4734 -0.2923
  652MOL0     C89842   1.761   5.578   1.094 -0.7769 -0.0965 -0.4074
  652MOL0     C89843   1.816   5.709   1.121  0.5108  0.6314 -0.4376
  652MOL0     C89844   1.955   5.732   1.154 -0.1004 -0.3002  0.2092
  652MOL0     C89845   2.039   5.623   1.173  0.4996  0.5769  0.5979
  652MOL0     O89846   2.166   5.633   1.208 -0.1062 -0.5315 -0.5354
  652MOL0     C89847   2.232   5.757   1.186 -0.0137 -0.3610  0.4242
  652MOL0     C89848   2.231   5.870   1.290  0.1842  0.1390  0.4475
  652MOL0     C89849   2.304   6.001   1.247  0.4048  0.3006 -0.5984
  652MOL0     C89850   2.248   6.085   1.130  0.2409  0.5980 -0.1724
  652MOL0     C89851   2.331   6.205   1.097  0.2423  0.2417 -0.6352
  652MOL0     C89852   2.282   6.297   0.991  0.6793 -0.4101 -0.4267
  652MOL0     C89853   2.275   6.240   0.852  0.8265  0.0055  0.7557
  652MOL0     C89854   2.148   6.171   0.807  0.4193  0.0478 -0.2786
  652MOL0     N89855   2.042   6.270   0.762  0.2212  0.4010 -0.6228
  652MOL0     C89856   2.036   6.317   0.631  0.2589  0.8236 -0.7079
  652MOL0     C89857   1.948   6.418   0.639 -0.1373  0.0615 -0.4056
  652MOL0     C89858   1.898   6.498   0.525 -0.1965  0.4524 -0.7130
  652MOL0     C89859   1.751   6.467   0.477  0.6320 -0.2870  0.3525
  652MOL0     C89860   1.750   6.327   0.410  0.0494  0.5064  0.6645
  652MOL0     C89861   1.622   6.301   0.335 -0.1010  0.5194 -0.3666
  652MOL0     O89862   1.575   6.411   0.259  0.7088 -0.0873 -0.0040
  652MOL0     C89863   1.438   6.427   0.237  0.0422 -0.1800  1.2529
  652MOL0     C89864   1.348   6.323   0.244 -0.2744  0.0434 -0.9432
  652MOL0     C89865   1.211   6.325   0.237  0.8440  0.6522  0.3256
  652MOL0     C89866   1.123   6.207   0.249 -0.3599  0.3052 -0.0686
  652MOL0     C89867   1.160   6.461   0.205  0.7625  0.2163 -1.0645
  652MOL0     C89868   1.018   6.487   0.176  0.1459  0.1992  0.1861
  652MOL0     O89869   0.927   6.388   0.154 -0.1016  0.4793  0.1063
  652MOL0     C89870   0.797   6.418   0.160 -0.3119  0.1550  0.0353
  652MOL0     C89871   0.729   6.417   0.280  0.3935  0.0063  0.6356
  652MOL0     C89872   0.584   6.415   0.285  0.4555 -1.2852  1.5242
  652MOL0     C89873   0.508   6.432   0.168  0.4248 -0.6102 -0.9364
  652MOL0     O89874   0.378   6.431   0.154  0.6280  0.0515 -0.2842
  652MOL0     C89875   0.300   6.350   0.245  1.0790  0.1512  0.5857
  652MOL0     C89876   0.162   6.327   0.196 -0.4283 -0.5048  0.3395
  652MOL0     C89877   0.177   6.255   0.063 -0.0204 -0.2114  0.8312
  652MOL0     C89878   0.050   6.263  -0.016  0.1605 -0.1215  0.2703
  652MOL0     C89879   0.051   6.164  -0.145  0.1284 -0.3741 -1.1670
  652MOL0     C89880  -0.082   6.183  -0.220  0.3197 -1.0571 -1.0256
  652MOL0     C89881  -0.110   6.096  -0.347  0.3214  0.0904  0.2802
  652MOL0     C89882  -0.030   6.119  -0.472  0.3509 -0.0418  0.2814
  652MOL0    Cl89883  -0.042   5.985  -0.600  0.1971 -0.3765  0.4547
  652MOL0     C89884   0.581   6.460   0.051 -0.0922 -0.6906 -0.5388
  652MOL0     C89885   0.720   6.446   0.048  0.5175  0.0765  0.6822
  652MOL0     O89886   0.984   6.608   0.179 -0.4333 -0.2229 -0.2864
  652MOL0     C89887   1.250   6.571   0.194 -0.5127  0.3435  0.1793
  652MOL0     C89888   1.390   6.554   0.205 -0.1314 -0.3543  0.2893
  652MOL0     N89889   1.908   6.427   0.774 -0.5915 -0.8307  0.1900
  652MOL0     N89890   1.969   6.343   0.847 -0.1843 -0.0394  0.4516
  652MOL0     C89891   1.988   5.491   1.169  0.7447  0.3237 -0.6848
  652MOL0     C89892   1.852   5.471   1.127 -0.5582  0.0871 -0.5131
  652MOL0     C89893   1.419   5.461   1.012  0.4195 -0.5579 -0.2974
  652MOL0     C89894   1.367   5.337   1.018 -0.1290  0.0956  0.6760
  652MOL0     C89895   1.255   5.308   0.941 -0.3294 -0.4293 -1.3084
  652MOL0     C89896   1.193   5.400   0.856  0.3508  0.4318  0.4288
  652MOL0     O89897   1.099   5.359   0.765 -0.1905 -0.3068  0.8534
  652MOL0     C89898   1.138   5.347   0.631 -0.8387  0.1292  0.1056
  652MOL0     C89899   1.017   5.379   0.541 -0.4791  0.1142 -0.2553
  652MOL0     C89900   0.919   5.259   0.555 -0.5877 -0.0005  0.1831
  652MOL0     C89901   0.963   5.136   0.466 -0.1140 -0.7052  0.5498
  652MOL0     C89902   0.961   5.150   0.319 -1.3274 -0.6409 -0.3433
  652MOL0     C89903   0.966   5.165   0.199  0.0594 -0.4277 -0.7371
  652MOL0     C89904   1.253   5.530   0.852  0.0613 -0.3597 -0.0530
  652MOL0     C89905   1.366   5.568   0.928 -0.4854 -0.7147  0.2326
  652MOL0     C89906   1.418   5.714   0.918  0.0123  0.4403  0.0619
  652MOL0     H89907   1.757   5.798   1.103 -0.6959  0.3504  1.7551
  652MOL0     H89908   1.989   5.836   1.156 -1.0544  0.0125  1.3748
  652MOL0     H89909   2.195   5.794   1.090  1.2104 -2.5498 -0.9867
  652MOL0     H89910   2.336   5.726   1.171 -0.4356 -1.7313  0.2154
  652MOL0     H89911   2.124   5.879   1.310  0.1981  3.5128 -0.3894
  652MOL0     H89912   2.286   5.844   1.381  1.9235  2.0997  0.0605
  652MOL0     H89913   2.299   6.062   1.338  0.4665 -2.0500  1.0712
  652MOL0     H89914   2.410   5.993   1.223  0.5809  2.8507 -0.9418
  652MOL0     H89915   2.246   6.011   1.049  2.4359 -3.4989  3.0885
  652MOL0     H89916   2.145   6.113   1.154  0.1604 -1.1772  1.9163
  652MOL0     H89917   2.427   6.165   1.062  1.0972 -1.4651  3.1106
  652MOL0     H89918   2.349   6.271   1.182  3.7136  1.4814 -2.1057
  652MOL0     H89919   2.185   6.339   1.019  0.2617 -0.2805 -1.9850
  652MOL0     H89920   2.347   6.385   0.984 -0.3395  0.7468  2.8662
  652MOL0     H89921   2.353   6.168   0.828  0.1961 -0.3340 -0.3710
  652MOL0     H89922   2.281   6.331   0.791 -1.1391 -0.5082 -0.3112
  652MOL0     H89923   2.166   6.106   0.721  1.7285 -0.1322  0.0994
  652MOL0     H89924   2.108   6.115   0.892  5.1974 -2.2837  0.7764
  652MOL0     H89925   2.081   6.274   0.542 -2.5751 -1.2272 -1.2821
  652MOL0     H89926   1.960   6.477   0.438 -1.4244  1.6525 -1.9384
  652MOL0     H89927   1.922   6.605   0.533 -1.7746  1.1014 -3.3591
  652MOL0     H89928   1.698   6.463   0.572  1.1771 -2.2195  0.6288
  652MOL0     H89929   1.704   6.547   0.419 -0.3569 -1.3879 -0.3936
  652MOL0     H89930   1.835   6.303   0.345 -1.3453 -0.1771 -0.9502
  652MOL0     H89931   1.754   6.268   0.502 -1.0493 -0.4060  0.1371
  652MOL0     H89932   1.638   6.210   0.277  1.7656  0.3509  0.3453
  652MOL0     H89933   1.553   6.273   0.416 -0.5446  0.6911 -0.6844
  652MOL0     H89934   1.400   6.229   0.265 -1.0097 -0.2563 -0.4275
  652MOL0     H89935   1.068   6.180   0.158  0.2549  0.4478 -0.4828
  652MOL0     H89936   1.056   6.213   0.336  1.9453 -2.6521  2.1362
  652MOL0     H89937   1.188   6.122   0.272  1.9187  1.6591 -1.2481
  652MOL0     H89938   0.787   6.408   0.371  0.4795 -0.1336  0.5672
  652MOL0     H89939   0.540   6.401   0.384 -1.3523 -1.0296  0.7824
  652MOL0     H89940   0.356   6.262   0.279 -1.8672 -2.4254 -0.6851
  652MOL0     H89941   0.289   6.411   0.336 -2.6845 -2.0732  1.8519
  652MOL0     H89942   0.110   6.265   0.269  0.9421 -0.6363  1.2401
  652MOL0     H89943   0.112   6.425   0.192 -0.7214 -0.6136  1.1653
  652MOL0     H89944   0.201   6.148   0.062  0.6571 -0.0774 -1.4972
  652MOL0     H89945   0.251   6.301  -0.002  0.2666 -1.4104  0.2795
  652MOL0     H89946   0.039   6.365  -0.053  0.5948  0.0733  0.6634
  652MOL0     H89947  -0.034   6.239   0.051  1.5662 -0.4033  2.0131
  652MOL0     H89948   0.136   6.184  -0.211  0.5883  0.7946 -0.2304
  652MOL0     H89949   0.050   6.058  -0.117 -0.7807  0.1515  0.9627
  652MOL0     H89950  -0.092   6.288  -0.248  4.3712  0.2572  1.4447
  652MOL0     H89951  -0.161   6.160  -0.148 -0.2322  0.6747 -1.0349
  652MOL0     H89952  -0.216   6.089  -0.371  0.1031 -2.9508  1.6773
  652MOL0     H89953  -0.084   5.997  -0.308 -2.7898 -1.4976 -1.3262
  652MOL0     H89954   0.077   6.126  -0.449  0.0072 -1.4830  2.6940
  652MOL0     H89955  -0.051   6.218  -0.514  0.3118  0.9882  2.5562
  652MOL0     H89956   0.539   6.489  -0.045 -0.9672 -2.7518 -0.8399
  652MOL0     H89957   0.776   6.450  -0.045  0.9959 -1.7106  0.8556
  652MOL0     H89958   1.219   6.674   0.175 -0.4905  0.9242  2.9103
  652MOL0     H89959   1.469   6.628   0.193  0.8147 -1.1814  1.2615
  652MOL0     H89960   2.063   5.413   1.183  1.3855  0.9337 -0.6332
  652MOL0     H89961   1.815   5.372   1.102  0.0594 -1.0444  2.5707
  652MOL0     H89962   1.425   5.260   1.068 -0.3826 -1.0829 -0.7507
  652MOL0     H89963   1.207   5.213   0.964 -2.9514  1.4349  1.6741
  652MOL0     H89964   1.211   5.426   0.615  0.2603 -1.1262 -1.3496
  652MOL0     H89965   1.190   5.252   0.613  1.1537  1.0402  0.7679
  652MOL0     H89966   1.043   5.395   0.436  2.0706 -2.3511 -0.1201
  652MOL0     H89967   0.967   5.469   0.576 -0.1656 -0.3997  1.6163
  652MOL0     H89968   0.904   5.234   0.660 -0.8838  0.3178  0.2198
  652MOL0     H89969   0.825   5.300   0.519 -1.3013 -3.0963 -1.8792
  652MOL0     H89970   0.904   5.049   0.496  2.0104 -2.7816 -0.9502
  652MOL0     H89971   1.065   5.107   0.491 -0.7475 -2.8501  0.8427
  652MOL0     H89972   0.960   5.181   0.093 -2.9621  3.6308 -0.2102
  652MOL0     H89973   1.207   5.597   0.780 -0.4027 -1.4028 -0.7481
  652MOL0     H89974   1.510   5.712   0.858  0.4672 -5.5241  0.3724
  652MOL0     H89975   1.333   5.772   0.880 -2.8428 -2.4030  1.6708
  652MOL0     H89976   1.435   5.747   1.021  0.4154 -0.3683  0.2647
  653MOL0     O89977   6.657  10.949   1.486  1.1135 -0.0551  1.1272
  653MOL0     C89978   6.631  10.961   1.605  0.1097  0.5443  0.1141
  653MOL0     O89979   6.513  10.920   1.666 -0.2303 -0.0637 -0.0237
  653MOL0     C89980   6.429  10.866   1.573  0.6525  0.7320 -0.5728
  653MOL0     C89981   6.394  10.724   1.569 -0.6164 -1.2104 -0.6490
  653MOL0     C89982   6.296  10.676   1.482  0.6139 -0.0307  0.9090
  653MOL0     C89983   6.217  10.768   1.409 -0.3051  0.9343  0.8079
  653MOL0     O89984   6.098  10.720   1.345 -0.2535 -0.7296  0.5365
  653MOL0     C89985   6.150  10.623   1.247  0.1181  0.0483 -0.3316
  653MOL0     C89986   6.147  10.692   1.103  1.1949 -0.2440 -0.2902
  653MOL0     C89987   6.198  10.604   0.991  0.1153 -1.4238  0.5957
  653MOL0     C89988   6.173  10.691   0.864 -0.3807  0.2603 -0.1104
  653MOL0     C89989   6.254  10.637   0.754 -1.1666  0.0208 -0.4158
  653MOL0     C89990   6.213  10.718   0.621 -0.1714  0.4277 -0.3604
  653MOL0     C89991   6.283  10.660   0.504 -0.8294 -0.7269 -0.2924
  653MOL0     C89992   6.249  10.518   0.473 -0.3305 -0.5383 -0.9498
  653MOL0     N89993   6.282  10.470   0.338 -0.0845  0.1148 -0.3591
  653MOL0     C89994   6.391  10.495   0.271 -0.7154  0.4634  0.8190
  653MOL0     C89995   6.374  10.454   0.144  0.6175  0.1781  0.3426
  653MOL0     C89996   6.479  10.479   0.047 -0.2329 -0.1971 -0.2344
  653MOL0     C89997   6.437  10.593  -0.049 -1.4648 -0.3484  0.4395
  653MOL0     C89998   6.338  10.552  -0.157  0.9036  0.0152  0.6470
  653MOL0     C89999   6.304  10.671  -0.257  0.0544 -0.5340 -0.6530
  653MOL0     O90000   6.191  10.643  -0.350 -0.3113 -0.1091 -0.3447
  653MOL0     C90001   6.153  10.740  -0.443 -0.4263  1.4164 -0.7563
  653MOL0     C90002   6.228  10.856  -0.468 -0.1354  0.0761  0.3242
  653MOL0     C90003   6.190  10.943  -0.573  0.3910  1.1941 -0.1572
  653MOL0     C90004   6.299  11.038  -0.627  0.2705 -0.5805  0.0562
  653MOL0     C90005   6.060  10.914  -0.630 -0.3129 -0.1585 -0.1374
  653MOL0     C90006   6.006  11.007  -0.735  0.2552  0.2168 -0.0126
  653MOL0     O90007   5.900  10.957  -0.799  0.2627 -0.5591 -0.3714
  653MOL0     C90008   5.819  11.048  -0.862 -0.2668 -0.1024 -0.4334
  653MOL0     C90009   5.773  11.041  -0.994 -0.4256  0.2581  0.5546
  653MOL0     C90010   5.694  11.144  -1.045 -0.3790  1.0840  0.2520
  653MOL0     C90011   5.656  11.247  -0.965 -0.4185 -1.0395 -1.3971
  653MOL0     O90012   5.573  11.337  -1.013  0.1682  0.0434  0.1034
  653MOL0     C90013   5.560  11.461  -0.951  0.2573 -0.4999  0.5833
  653MOL0     C90014   5.465  11.539  -1.031  0.1689  1.3263 -0.4862
  653MOL0     C90015   5.411  11.665  -0.960 -1.2097  1.0138  0.2820
  653MOL0     C90016   5.364  11.769  -1.057 -0.8497  0.5336  0.0152
  653MOL0     C90017   5.315  11.896  -0.980  0.2022 -1.3322  0.1044
  653MOL0     C90018   5.293  12.022  -1.076  0.7430 -0.7162 -0.4609
  653MOL0     C90019   5.191  12.126  -1.016 -0.0641  0.2094 -0.0429
  653MOL0     C90020   5.197  12.250  -1.101 -0.9777 -0.0929 -0.0965
  653MOL0    Cl90021   5.162  12.216  -1.265  0.1496 -0.0090 -0.1436
  653MOL0     C90022   5.697  11.251  -0.828  0.1011  0.0681 -0.8493
  653MOL0     C90023   5.768  11.150  -0.780 -0.1458 -0.3034  0.8913
  653MOL0     O90024   6.060  11.123  -0.745  0.1522  0.5895 -0.7927
  653MOL0     C90025   5.997  10.793  -0.600  0.1214 -0.4623 -0.1526
  653MOL0     C90026   6.034  10.712  -0.501 -0.2411  0.0121  0.6129
  653MOL0     N90027   6.249  10.389   0.135 -0.1920 -1.0077  0.8748
  653MOL0     N90028   6.203  10.394   0.256  0.3287  0.1566 -0.2323
  653MOL0     C90029   6.242  10.904   1.409  0.1426  0.2682 -0.3898
  653MOL0     C90030   6.347  10.955   1.494 -0.9683  1.3629  0.6498
  653MOL0     C90031   6.707  11.061   1.680 -0.3799  0.3341  0.6150
  653MOL0     C90032   6.743  11.040   1.809  0.1229  0.8985 -0.6800
  653MOL0     C90033   6.811  11.124   1.901 -1.1517 -0.7494  0.1692
  653MOL0     C90034   6.852  11.254   1.848 -0.0363  0.2573  0.2796
  653MOL0     O90035   6.909  11.353   1.928 -0.2035 -0.5716  0.9927
  653MOL0     C90036   6.942  11.327   2.062 -0.1797 -0.2794  0.1124
  653MOL0     C90037   7.027  11.442   2.089 -0.9239  0.0245  0.7610
  653MOL0     C90038   7.163  11.468   2.008 -0.5601  0.3181 -0.5899
  653MOL0     C90039   7.266  11.367   2.046  0.3916  0.0640 -0.6606
  653MOL0     C90040   7.274  11.265   1.941 -0.3531 -0.0470 -0.5471
  653MOL0     C90041   7.272  11.181   1.855  0.0170  0.3803  0.0225
  653MOL0     C90042   6.809  11.288   1.722  0.8855  0.6932 -0.3710
  653MOL0     C90043   6.736  11.190   1.635 -0.1255  0.1702  0.4785
  653MOL0     C90044   6.667  11.235   1.510 -0.6077  0.4211  0.0823
  653MOL0     H90045   6.445  10.668   1.647 -1.4459 -1.7438 -0.4698
  653MOL0     H90046   6.254  10.576   1.482  0.4911  0.0150  0.2415
  653MOL0     H90047   6.094  10.529   1.245  0.2828 -0.1094  1.2489
  653MOL0     H90048   6.254  10.591   1.257 -0.0893 -0.0231  2.0793
  653MOL0     H90049   6.041  10.706   1.083  0.8285 -3.5238 -1.2913
  653MOL0     H90050   6.193  10.791   1.103 -1.0999  0.8787  0.0213
  653MOL0     H90051   6.300  10.583   1.024  0.0981 -0.6448  1.1798
  653MOL0     H90052   6.145  10.509   0.980  1.9098 -2.4963  0.9135
  653MOL0     H90053   6.067  10.698   0.838 -0.8751  1.6017  1.9769
  653MOL0     H90054   6.205  10.795   0.880 -0.8395  0.6540 -1.5981
  653MOL0     H90055   6.241  10.529   0.740  1.7171 -0.3606 -0.8160
  653MOL0     H90056   6.355  10.663   0.785 -0.8454 -0.5630 -0.9447
  653MOL0     H90057   6.104  10.709   0.613 -0.1905 -4.5837  1.9786
  653MOL0     H90058   6.243  10.823   0.618 -0.3234  0.4633 -2.3387
  653MOL0     H90059   6.390  10.673   0.523 -0.8055  2.1654 -1.7740
  653MOL0     H90060   6.254  10.709   0.410  1.1979 -1.7548 -1.5297
  653MOL0     H90061   6.278  10.447   0.551  0.1155 -0.5392 -1.1168
  653MOL0     H90062   6.140  10.517   0.489  0.0623 -1.1247  2.6157
  653MOL0     H90063   6.473  10.561   0.300  0.9354 -1.6834  1.2994
  653MOL0     H90064   6.505  10.390  -0.011  0.4751  0.7073 -1.3504
  653MOL0     H90065   6.575  10.507   0.092  0.0117 -1.1109 -0.1772
  653MOL0     H90066   6.377  10.668   0.003 -2.0453 -1.0910  0.8498
  653MOL0     H90067   6.529  10.626  -0.098 -1.1721 -0.7540  0.7072
  653MOL0     H90068   6.380  10.474  -0.222  1.6828  0.8377  0.1334
  653MOL0     H90069   6.243  10.518  -0.116 -1.8132  1.5367 -3.7317
  653MOL0     H90070   6.279  10.764  -0.206  3.7753  0.9726 -1.2040
  653MOL0     H90071   6.398  10.687  -0.312  0.2536 -0.6966 -0.3624
  653MOL0     H90072   6.318  10.864  -0.409 -1.3442 -2.5128  2.7955
  653MOL0     H90073   6.395  11.024  -0.576 -0.1804  1.2388  1.5066
  653MOL0     H90074   6.252  11.131  -0.594  3.6211  0.5937  2.0437
  653MOL0     H90075   6.309  11.030  -0.736 -2.4055 -0.7916 -0.2493
  653MOL0     H90076   5.788  10.958  -1.062 -0.4297  0.5649  0.1765
  653MOL0     H90077   5.667  11.125  -1.148 -0.9757  0.0232  0.5904
  653MOL0     H90078   5.518  11.446  -0.851 -2.0276 -1.0463 -0.3935
  653MOL0     H90079   5.651  11.521  -0.949 -0.2242  0.5320 -2.9882
  653MOL0     H90080   5.518  11.570  -1.122  0.4277  2.2461 -0.0264
  653MOL0     H90081   5.379  11.481  -1.067 -0.7061  1.9138  0.6047
  653MOL0     H90082   5.495  11.711  -0.906 -1.1565  2.0305 -0.6364
  653MOL0     H90083   5.330  11.628  -0.897  0.7583  2.9605  4.3404
  653MOL0     H90084   5.282  11.731  -1.120 -0.7357 -3.0416  1.7565
  653MOL0     H90085   5.450  11.795  -1.119  0.7326 -2.6158  0.6604
  653MOL0     H90086   5.219  11.868  -0.938 -0.9296 -0.2631 -1.6263
  653MOL0     H90087   5.388  11.922  -0.903 -0.3124  0.7944 -0.0702
  653MOL0     H90088   5.268  11.986  -1.176  0.0219 -1.6764  0.0486
  653MOL0     H90089   5.389  12.073  -1.087  1.0782 -1.3863 -0.7089
  653MOL0     H90090   5.209  12.137  -0.908  0.8214 -2.7661  0.1870
  653MOL0     H90091   5.092  12.081  -1.027  1.3098 -3.2774  0.7312
  653MOL0     H90092   5.298  12.288  -1.082 -1.6038  0.8565  1.6612
  653MOL0     H90093   5.139  12.330  -1.054  0.3668  0.2207  1.1284
  653MOL0     H90094   5.679  11.328  -0.754 -1.6509 -1.0785 -0.0201
  653MOL0     H90095   5.803  11.153  -0.678 -1.3383  0.3413  1.3028
  653MOL0     H90096   5.907  10.765  -0.655 -1.1735 -1.2704  2.2323
  653MOL0     H90097   5.969  10.626  -0.492  2.2106 -3.2718 -5.9473
  653MOL0     H90098   6.190  10.978   1.349  1.3018  1.3883 -0.0717
  653MOL0     H90099   6.384  11.057   1.500  0.6218  0.7934  1.2400
  653MOL0     H90100   6.719  10.945   1.856 -2.9148  1.0073 -1.8075
  653MOL0     H90101   6.843  11.083   1.996 -1.4638  2.1612  1.6551
  653MOL0     H90102   6.849  11.324   2.119  0.9535  1.0782  2.1305
  653MOL0     H90103   7.006  11.239   2.075 -1.5413 -1.1740  1.1139
  653MOL0     H90104   7.058  11.448   2.194  1.2981 -2.0528  0.3198
  653MOL0     H90105   6.961  11.529   2.082  0.1371  1.1229  3.2029
  653MOL0     H90106   7.154  11.480   1.900  1.2014  1.6536 -0.6231
  653MOL0     H90107   7.205  11.563   2.042 -2.4910  0.0484  3.2045
  653MOL0     H90108   7.245  11.314   2.140 -1.9823  0.0730 -1.1258
  653MOL0     H90109   7.362  11.414   2.069 -0.0750  0.0749  1.4261
  653MOL0     H90110   7.293  11.106   1.781  1.3034 -0.9224  1.6051
  653MOL0     H90111   6.842  11.385   1.686  0.8020  0.3321 -1.4427
  653MOL0     H90112   6.717  11.190   1.423  1.5368  1.9428  0.4422
  653MOL0     H90113   6.559  11.217   1.500 -0.6562  0.5461  0.3844
  653MOL0     H90114   6.691  11.342   1.509  0.6094  0.2007  2.0778
  654MOL0     O90115   2.898   8.341   3.093 -0.1264  0.2360 -0.0346
  654MOL0     C90116   2.987   8.290   3.163  0.1709 -0.1096  0.5342
  654MOL0     O90117   3.010   8.151   3.153 -0.3320 -0.6002 -0.0597
  654MOL0     C90118   2.972   8.079   3.048  0.5618 -0.1348  0.3534
  654MOL0     C90119   2.956   8.121   2.920  0.2651  0.0841 -0.8594
  654MOL0     C90120   2.916   8.038   2.807 -0.3467  0.8767 -0.3849
  654MOL0     C90121   2.900   7.897   2.825  0.6364 -1.0004 -0.1091
  654MOL0     O90122   2.866   7.819   2.726  0.0037 -0.2258 -0.0063
  654MOL0     C90123   2.948   7.704   2.700 -0.0332 -0.5052 -0.7359
  654MOL0     C90124   2.928   7.673   2.556 -1.2240 -0.5133  0.0461
  654MOL0     C90125   2.963   7.791   2.460  0.1572 -0.2066  0.3462
  654MOL0     C90126   3.111   7.814   2.436  0.3259  0.5759  0.3825
  654MOL0     C90127   3.143   7.864   2.298 -0.3994 -0.0070 -0.3244
  654MOL0     C90128   3.053   7.984   2.253 -0.0770 -0.8382 -0.7691
  654MOL0     C90129   3.091   8.072   2.128  0.1667  0.7526  0.4698
  654MOL0     C90130   3.090   8.004   1.993 -0.3130  0.5440  0.3556
  654MOL0     N90131   2.986   7.902   1.960 -0.0056 -0.0110 -0.5643
  654MOL0     C90132   2.847   7.921   1.940 -0.8882  0.0514  0.2763
  654MOL0     C90133   2.811   7.810   1.876 -0.1592  0.6028  0.7628
  654MOL0     C90134   2.675   7.765   1.824 -0.0530  0.1902  0.4557
  654MOL0     C90135   2.654   7.829   1.685 -1.1939  0.9532 -0.4145
  654MOL0     C90136   2.517   7.797   1.624  0.6986 -0.7941 -0.0307
  654MOL0     C90137   2.507   7.874   1.487 -0.0498  0.5298 -0.0473
  654MOL0     O90138   2.365   7.856   1.444 -0.2054 -0.1342  0.0679
  654MOL0     C90139   2.343   7.839   1.303  0.6772 -0.1496 -0.4532
  654MOL0     C90140   2.441   7.810   1.208  0.4944 -0.0346 -0.3437
  654MOL0     C90141   2.399   7.796   1.073  0.8107  0.1613 -0.6054
  654MOL0     C90142   2.502   7.730   0.989 -0.4978 -0.4837  0.7399
  654MOL0     C90143   2.270   7.838   1.030  0.5224 -0.6223  1.1151
  654MOL0     C90144   2.235   7.849   0.885 -0.8269  0.7368 -1.0277
  654MOL0     O90145   2.102   7.832   0.865 -0.6285 -0.1825 -0.2642
  654MOL0     C90146   2.053   7.814   0.735  0.1601  0.4523 -0.5596
  654MOL0     C90147   1.978   7.698   0.706  0.3657 -0.1723 -0.4715
  654MOL0     C90148   1.904   7.682   0.589 -0.2386 -0.2273 -0.1952
  654MOL0     C90149   1.925   7.772   0.485  0.7021  0.6080 -1.0444
  654MOL0     O90150   1.871   7.743   0.363  1.0417  0.6742  1.3312
  654MOL0     C90151   1.749   7.826   0.347 -0.2567 -0.0858  0.2898
  654MOL0     C90152   1.772   7.920   0.230 -0.2014 -0.1040 -1.0887
  654MOL0     C90153   1.671   8.014   0.181  0.9151  0.4833  0.4462
  654MOL0     C90154   1.535   7.938   0.136 -0.2187  0.1429  0.6295
  654MOL0     C90155   1.462   8.011   0.028 -0.2134 -0.2537  1.3310
  654MOL0     C90156   1.308   7.986   0.050 -0.5418 -0.7007  0.2700
  654MOL0     C90157   1.226   8.061  -0.054  0.6471 -0.3244 -0.3827
  654MOL0     C90158   1.184   8.202  -0.008 -0.6100  0.1680  0.1981
  654MOL0    Cl90159   1.065   8.271  -0.118 -0.4278  0.1963 -0.6654
  654MOL0     C90160   2.011   7.884   0.511 -0.2530  0.5838  0.2381
  654MOL0     C90161   2.075   7.900   0.633 -0.2179  0.1232 -0.3414
  654MOL0     O90162   2.321   7.841   0.798  0.1970 -1.2507  0.0531
  654MOL0     C90163   2.184   7.883   1.128 -1.1804  0.4615  0.2343
  654MOL0     C90164   2.213   7.875   1.265  0.1654  0.8400  0.3152
  654MOL0     N90165   2.920   7.733   1.847 -0.4977 -0.2466  0.1368
  654MOL0     N90166   3.022   7.788   1.896 -0.2323  0.0314 -0.3779
  654MOL0     C90167   2.925   7.849   2.957 -0.5591 -1.0849  0.5679
  654MOL0     C90168   2.966   7.931   3.054 -0.1910 -0.2660 -0.4565
  654MOL0     C90169   3.030   8.372   3.278 -0.9147  0.0230 -0.8282
  654MOL0     C90170   3.078   8.304   3.388 -0.9218  0.6078  0.0741
  654MOL0     C90171   3.098   8.372   3.504 -0.0932  0.3116 -0.3263
  654MOL0     C90172   3.076   8.510   3.518 -0.2933 -0.8341  0.8437
  654MOL0     O90173   3.080   8.571   3.639 -0.3994  0.4218 -0.6201
  654MOL0     C90174   2.991   8.525   3.745  0.3543 -0.8318  1.0715
  654MOL0     C90175   2.956   8.626   3.850  0.5896 -0.7012 -0.3118
  654MOL0     C90176   3.073   8.665   3.947  0.1352 -0.6314  0.4955
  654MOL0     C90177   3.184   8.762   3.886  0.3180 -0.5020 -0.7599
  654MOL0     C90178   3.124   8.878   3.821  0.1079  0.4483 -0.5069
  654MOL0     C90179   3.087   8.986   3.771  0.0957  0.1100 -0.3543
  654MOL0     C90180   3.051   8.582   3.410  0.4005  0.2464  0.1162
  654MOL0     C90181   3.024   8.515   3.284 -0.9969  0.2614  0.1920
  654MOL0     C90182   2.981   8.606   3.170  0.4379 -0.4131 -1.1621
  654MOL0     H90183   2.978   8.226   2.903 -0.5757  0.0856 -2.0809
  654MOL0     H90184   2.899   8.091   2.714  0.4602 -0.1210 -1.1183
  654MOL0     H90185   2.898   7.624   2.756 -2.2190  0.8204 -0.7017
  654MOL0     H90186   3.055   7.710   2.723 -0.4943  0.6746  1.4257
  654MOL0     H90187   2.993   7.586   2.539 -0.7721 -0.0190 -0.8028
  654MOL0     H90188   2.822   7.645   2.554 -2.5718  3.8895 -0.4680
  654MOL0     H90189   2.907   7.763   2.370 -0.8598 -3.3024  1.7936
  654MOL0     H90190   2.917   7.880   2.503 -1.4591 -1.0928  0.5396
  654MOL0     H90191   3.144   7.884   2.513  2.0079 -0.0037  0.2258
  654MOL0     H90192   3.176   7.726   2.441  0.3138  0.4611 -1.1086
  654MOL0     H90193   3.134   7.789   2.219 -1.9797 -2.6382  2.2051
  654MOL0     H90194   3.246   7.901   2.305 -0.7512  1.0758 -0.6826
  654MOL0     H90195   2.954   7.951   2.220  0.3767 -2.8781 -0.2162
  654MOL0     H90196   3.031   8.045   2.341 -3.1307 -2.9433  0.1045
  654MOL0     H90197   3.193   8.110   2.132  0.8098  0.2525 -4.5888
  654MOL0     H90198   3.025   8.158   2.115  0.5744  0.7788 -1.9295
  654MOL0     H90199   3.102   8.086   1.921 -1.5708  4.8029  4.5100
  654MOL0     H90200   3.186   7.952   1.990 -0.3646  0.4804 -0.3094
  654MOL0     H90201   2.779   7.998   1.977 -1.9979 -1.5959  1.8904
  654MOL0     H90202   2.591   7.800   1.884 -1.1366  0.8958 -1.3897
  654MOL0     H90203   2.669   7.656   1.814  2.9778 -0.1499  1.4851
  654MOL0     H90204   2.676   7.936   1.690  2.0488  0.3103  1.4133
  654MOL0     H90205   2.728   7.787   1.616  0.7632  1.5949  1.2020
  654MOL0     H90206   2.505   7.691   1.603  0.2436 -0.7186 -0.1745
  654MOL0     H90207   2.439   7.836   1.691  0.0012 -1.3429 -0.5059
  654MOL0     H90208   2.514   7.981   1.510  0.4554  0.0100  2.5221
  654MOL0     H90209   2.585   7.842   1.419  1.2739  0.3749  1.4937
  654MOL0     H90210   2.544   7.783   1.229 -0.2630 -3.7226 -0.7639
  654MOL0     H90211   2.592   7.696   1.041 -2.0840 -3.3228  1.8194
  654MOL0     H90212   2.536   7.792   0.905 -1.2807 -0.2017  0.6202
  654MOL0     H90213   2.469   7.640   0.937  2.4113  0.9474 -4.2642
  654MOL0     H90214   1.975   7.625   0.787 -2.4480  1.2459  0.8822
  654MOL0     H90215   1.844   7.591   0.585  1.2750 -1.2265 -1.1274
  654MOL0     H90216   1.665   7.756   0.344  0.3412 -0.8029  0.1483
  654MOL0     H90217   1.717   7.883   0.435  0.4984  0.2910  0.3276
  654MOL0     H90218   1.859   7.978   0.265  0.2757 -0.0846 -2.2655
  654MOL0     H90219   1.805   7.858   0.146 -3.4393 -1.9781 -1.0996
  654MOL0     H90220   1.704   8.081   0.102 -0.1708  1.2828  0.6398
  654MOL0     H90221   1.648   8.082   0.263  0.4641  1.3494 -0.3813
  654MOL0     H90222   1.474   7.925   0.226  3.2038 -2.7203  2.8209
  654MOL0     H90223   1.570   7.841   0.099  0.8753  0.3866  0.9938
  654MOL0     H90224   1.480   8.118   0.042 -2.3119  0.1926  1.0046
  654MOL0     H90225   1.498   7.984  -0.072  1.0895  1.9809  1.1231
  654MOL0     H90226   1.281   8.003   0.154  2.4780 -0.4446  1.1188
  654MOL0     H90227   1.286   7.883   0.018 -0.8041  0.6461 -4.7036
  654MOL0     H90228   1.134   8.005  -0.073 -1.0275  1.2200  2.4063
  654MOL0     H90229   1.280   8.065  -0.149 -1.6579 -4.7634 -2.1891
  654MOL0     H90230   1.279   8.256   0.000 -0.3925 -0.3201  1.0967
  654MOL0     H90231   1.142   8.200   0.093 -0.5950  1.4772  0.2449
  654MOL0     H90232   2.025   7.954   0.430 -0.9945  0.4449 -0.0209
  654MOL0     H90233   2.134   7.987   0.660  1.1430 -0.3730 -1.6057
  654MOL0     H90234   2.081   7.914   1.117 -2.1798 -1.9567  1.9988
  654MOL0     H90235   2.148   7.898   1.349  0.1540  0.1901  0.4861
  654MOL0     H90236   2.899   7.748   2.984 -5.8844  0.2654  1.6169
  654MOL0     H90237   2.982   7.888   3.153 -3.3974  1.9165  1.1768
  654MOL0     H90238   3.092   8.197   3.396 -0.7218  0.1838 -3.9880
  654MOL0     H90239   3.119   8.313   3.593  0.8491  0.6480 -0.3141
  654MOL0     H90240   2.893   8.496   3.707 -0.2289 -2.6582  3.7443
  654MOL0     H90241   3.029   8.428   3.775  1.1761 -1.7036 -2.3484
  654MOL0     H90242   2.877   8.587   3.915  3.5745 -1.9729  2.8571
  654MOL0     H90243   2.912   8.712   3.798 -0.6983 -0.6571  0.8012
  654MOL0     H90244   3.028   8.716   4.033  1.6620 -0.1672  1.0545
  654MOL0     H90245   3.124   8.579   3.992 -1.6557 -1.4298  1.1028
  654MOL0     H90246   3.254   8.715   3.816  0.5893 -0.5816 -0.4359
  654MOL0     H90247   3.255   8.798   3.961 -2.4509  1.4132  1.0917
  654MOL0     H90248   3.051   9.080   3.733  1.2647  0.0608 -1.6222
  654MOL0     H90249   3.046   8.690   3.421 -2.2229  0.2976 -0.7493
  654MOL0     H90250   2.877   8.576   3.155  0.7703 -0.6589 -3.3279
  654MOL0     H90251   2.972   8.709   3.207 -3.1110 -0.9976  0.0721
  654MOL0     H90252   3.048   8.592   3.085  0.1499 -1.3966 -1.2408
  655MOL0     O90253   3.956   4.546   0.189 -0.3082 -0.6600  0.4163
  655MOL0     C90254   4.073   4.557   0.203 -0.0267  0.7331  0.6407
  655MOL0     O90255   4.172   4.463   0.184  0.1360 -0.5308  0.4958
  655MOL0     C90256   4.156   4.346   0.133  0.3369  0.7109 -0.2560
  655MOL0     C90257   4.260   4.289   0.062 -0.7470 -0.4035  0.0075
  655MOL0     C90258   4.257   4.164   0.012  0.2929  0.2846 -0.1639
  655MOL0     C90259   4.139   4.091   0.014  0.1734  0.3022 -1.4040
  655MOL0     O90260   4.140   3.970  -0.052 -0.3107 -0.4354 -1.0244
  655MOL0     C90261   4.018   3.916  -0.098  0.4480 -1.1308 -0.6536
  655MOL0     C90262   4.042   3.778  -0.160 -0.4076 -0.3434  0.5573
  655MOL0     C90263   4.129   3.791  -0.294  0.3288 -0.4779 -0.0935
  655MOL0     C90264   4.143   3.659  -0.376  0.1374 -0.5931 -0.8010
  655MOL0     C90265   4.187   3.693  -0.520  0.0651  0.8627  0.4222
  655MOL0     C90266   4.100   3.642  -0.625  0.5406 -0.4683  0.1276
  655MOL0     C90267   4.114   3.491  -0.633 -0.4844 -0.1014 -0.5198
  655MOL0     C90268   3.996   3.432  -0.711  0.0009 -0.5544 -0.4936
  655MOL0     N90269   3.860   3.440  -0.650 -0.3566  0.7169  0.4168
  655MOL0     C90270   3.825   3.446  -0.513  0.1611 -0.3922  0.0554
  655MOL0     C90271   3.693   3.477  -0.512 -0.1163  0.0374  0.0816
  655MOL0     C90272   3.615   3.493  -0.387  0.0636  0.8442  0.4009
  655MOL0     C90273   3.525   3.370  -0.367 -0.1665  0.3520 -0.0252
  655MOL0     C90274   3.423   3.397  -0.258  1.3381 -0.3276 -0.1999
  655MOL0     C90275   3.300   3.466  -0.315  0.7148 -0.8194  0.3339
  655MOL0     O90276   3.190   3.390  -0.248  0.7804  0.1924  0.5958
  655MOL0     C90277   3.128   3.453  -0.147  1.0462 -0.3141  0.5870
  655MOL0     C90278   2.987   3.463  -0.144 -0.1184  0.4236 -0.6202
  655MOL0     C90279   2.923   3.521  -0.027  0.2718  0.8557 -0.2691
  655MOL0     C90280   2.761   3.516  -0.023 -0.2958 -0.0350  0.4205
  655MOL0     C90281   3.004   3.582   0.071  0.5413  0.4070  0.6110
  655MOL0     C90282   2.957   3.648   0.195 -0.1283 -0.5292 -0.3722
  655MOL0     O90283   3.035   3.672   0.307  0.5940 -0.0898 -1.3466
  655MOL0     C90284   2.959   3.692   0.417  0.5084  0.1979  0.3105
  655MOL0     C90285   2.886   3.587   0.478  0.6477 -0.7139 -0.4261
  655MOL0     C90286   2.799   3.619   0.580 -0.2140 -0.0930 -0.1539
  655MOL0     C90287   2.783   3.744   0.627  0.4088  1.2594 -0.1424
  655MOL0     O90288   2.699   3.752   0.735  0.3197  0.4802 -0.2385
  655MOL0     C90289   2.616   3.862   0.729  0.7090  0.2275 -0.4842
  655MOL0     C90290   2.515   3.832   0.851  0.0795  0.0789 -0.2829
  655MOL0     C90291   2.601   3.820   0.972  0.2067 -0.1739  0.1378
  655MOL0     C90292   2.519   3.763   1.095 -1.3980  0.7223  1.8610
  655MOL0     C90293   2.416   3.860   1.143  0.5409 -0.2468 -1.8615
  655MOL0     C90294   2.324   3.822   1.254 -0.5810  0.1021 -0.1196
  655MOL0     C90295   2.237   3.698   1.221  0.0569 -0.0217 -0.1019
  655MOL0     C90296   2.095   3.717   1.257  0.4903 -0.6087 -0.0532
  655MOL0    Cl90297   1.993   3.601   1.169  1.0358  0.0068 -0.4031
  655MOL0     C90298   2.858   3.848   0.571 -0.3958  0.2539  0.3358
  655MOL0     C90299   2.948   3.821   0.468  0.2512 -0.1647  0.2319
  655MOL0     O90300   2.834   3.671   0.190  0.2825  0.3247 -0.3322
  655MOL0     C90301   3.141   3.570   0.064 -1.3969 -0.4320 -0.1698
  655MOL0     C90302   3.198   3.494  -0.036  0.2831 -0.2689  0.2373
  655MOL0     N90303   3.658   3.496  -0.645  0.5213 -0.6308 -0.8995
  655MOL0     N90304   3.754   3.476  -0.728  0.3109 -0.5806 -0.3235
  655MOL0     C90305   4.030   4.142   0.083  0.0631 -0.2646 -1.1988
  655MOL0     C90306   4.041   4.265   0.145 -0.3401  0.7367  0.3330
  655MOL0     C90307   4.111   4.662   0.293 -0.6336  0.0000 -0.4275
  655MOL0     C90308   4.042   4.681   0.411 -0.0843  0.2754 -0.0989
  655MOL0     C90309   4.065   4.795   0.483  0.7061 -0.0876 -0.0462
  655MOL0     C90310   4.165   4.886   0.449 -0.5088  0.7037  0.1633
  655MOL0     O90311   4.192   4.993   0.533  0.1108  0.3340  0.6203
  655MOL0     C90312   4.316   5.077   0.512 -0.4229 -0.3537 -0.3666
  655MOL0     C90313   4.426   5.027   0.600 -0.3272 -0.1076 -0.3633
  655MOL0     C90314   4.411   5.059   0.750  0.7902  0.4750  0.2119
  655MOL0     C90315   4.313   4.979   0.824  0.3373  0.2797 -1.0407
  655MOL0     C90316   4.322   5.018   0.967  0.5769  0.5920  0.6607
  655MOL0     C90317   4.334   5.062   1.083 -0.7532  0.8047  0.5046
  655MOL0     C90318   4.247   4.853   0.343 -0.1983  0.4067  0.6422
  655MOL0     C90319   4.220   4.746   0.260  0.5888  0.1698  1.2271
  655MOL0     C90320   4.290   4.731   0.127 -0.7996 -0.4470  0.8515
  655MOL0     H90321   4.346   4.354   0.048 -1.1507  1.0412  3.2138
  655MOL0     H90322   4.333   4.120  -0.053  2.3717  1.2600  1.4796
  655MOL0     H90323   3.982   3.990  -0.170  0.5424  3.3406  3.3578
  655MOL0     H90324   3.946   3.913  -0.015  1.2206  0.2457  0.0949
  655MOL0     H90325   4.097   3.720  -0.085 -0.5827 -2.6476 -0.9906
  655MOL0     H90326   3.943   3.735  -0.176 -1.9948  2.0827  2.9319
  655MOL0     H90327   4.077   3.855  -0.366  0.0522 -3.0101 -2.3268
  655MOL0     H90328   4.226   3.833  -0.268  1.0012  0.1069 -3.1333
  655MOL0     H90329   4.214   3.595  -0.323  0.6646  1.0643  0.6148
  655MOL0     H90330   4.051   3.599  -0.381  0.6790 -1.4529 -0.6363
  655MOL0     H90331   4.277   3.633  -0.540  0.0788  1.2121 -0.6104
  655MOL0     H90332   4.201   3.801  -0.529 -2.4388  1.1807 -0.3140
  655MOL0     H90333   3.998   3.663  -0.594  0.3867  0.2390 -0.8298
  655MOL0     H90334   4.109   3.682  -0.727 -1.0700  2.0806  0.9081
  655MOL0     H90335   4.119   3.442  -0.535 -0.5062  1.5941  0.3574
  655MOL0     H90336   4.205   3.463  -0.685 -1.7610 -2.3527 -1.7062
  655MOL0     H90337   4.004   3.475  -0.812 -2.3813  0.5622 -0.2739
  655MOL0     H90338   4.016   3.325  -0.717  2.3714 -0.2788  1.1495
  655MOL0     H90339   3.891   3.443  -0.426  0.4800 -2.0382 -0.2063
  655MOL0     H90340   3.557   3.586  -0.388 -0.6399  0.4313  1.1941
  655MOL0     H90341   3.696   3.498  -0.314  1.4839 -1.0548 -0.9213
  655MOL0     H90342   3.480   3.343  -0.463 -1.2651  0.4385  0.4442
  655MOL0     H90343   3.599   3.297  -0.331  0.4400  0.9388 -0.0757
  655MOL0     H90344   3.388   3.298  -0.227  3.7498 -1.7263 -1.6770
  655MOL0     H90345   3.472   3.445  -0.173 -0.8995 -0.6721  1.3698
  655MOL0     H90346   3.294   3.570  -0.283  2.6287 -0.6148  0.1645
  655MOL0     H90347   3.301   3.464  -0.425  4.1157  1.2911  0.1712
  655MOL0     H90348   2.928   3.425  -0.227 -1.2471  1.2595 -0.2320
  655MOL0     H90349   2.733   3.488   0.079  1.0047 -0.5475  0.6493
  655MOL0     H90350   2.712   3.443  -0.089 -1.2189 -1.3472  2.4239
  655MOL0     H90351   2.726   3.613  -0.059 -1.6402 -0.7656 -0.3218
  655MOL0     H90352   2.908   3.482   0.457 -3.5300 -2.9647  4.2606
  655MOL0     H90353   2.749   3.531   0.621 -0.5723  0.1609 -0.0438
  655MOL0     H90354   2.674   3.954   0.720 -1.7110  1.7679 -1.3113
  655MOL0     H90355   2.562   3.845   0.635  2.1654  0.2172 -1.3648
  655MOL0     H90356   2.448   3.916   0.865  0.1607  0.4380 -1.8290
  655MOL0     H90357   2.455   3.742   0.835  0.9144 -0.5234 -0.0849
  655MOL0     H90358   2.650   3.914   0.997 -3.2388  1.3725  1.8705
  655MOL0     H90359   2.685   3.752   0.957 -1.3416 -1.6999 -2.6898
  655MOL0     H90360   2.590   3.732   1.172 -0.0991 -1.9411 -0.2238
  655MOL0     H90361   2.467   3.671   1.068 -1.6377  0.8169  1.9947
  655MOL0     H90362   2.465   3.949   1.185 -2.3405  0.3765  0.5610
  655MOL0     H90363   2.355   3.898   1.060  0.7007  1.8189 -1.0952
  655MOL0     H90364   2.264   3.910   1.279 -2.2675 -1.0147 -0.0386
  655MOL0     H90365   2.392   3.797   1.336  2.4220  1.2299 -2.1012
  655MOL0     H90366   2.271   3.615   1.283 -3.8315 -0.2163  2.0379
  655MOL0     H90367   2.240   3.680   1.113 -2.2020  3.1089 -0.8381
  655MOL0     H90368   2.067   3.818   1.225 -1.9782 -0.9298  0.8274
  655MOL0     H90369   2.091   3.706   1.366  0.6572  1.3812  0.1866
  655MOL0     H90370   2.855   3.947   0.616  0.3864 -0.0717  1.1377
  655MOL0     H90371   3.008   3.904   0.431  0.3463 -0.0642  0.6029
  655MOL0     H90372   3.205   3.622   0.135  1.0324 -1.0585 -1.7811
  655MOL0     H90373   3.301   3.460  -0.031  0.4417  0.0128 -0.8370
  655MOL0     H90374   3.937   4.088   0.095 -0.9135  1.9750  3.8457
  655MOL0     H90375   3.964   4.285   0.219 -1.0438 -1.6624  0.3211
  655MOL0     H90376   3.958   4.614   0.427  1.1535 -1.0224  1.2613
  655MOL0     H90377   4.007   4.810   0.574  3.4551  1.5810  1.5657
  655MOL0     H90378   4.337   5.076   0.405 -0.8636 -2.1374 -0.4741
  655MOL0     H90379   4.295   5.182   0.533 -2.3657  0.0519 -3.6122
  655MOL0     H90380   4.512   5.088   0.570  0.0157 -1.3084 -2.0033
  655MOL0     H90381   4.443   4.919   0.591  0.9213  0.2356 -3.3996
  655MOL0     H90382   4.506   5.039   0.800 -0.5059  0.8751  3.0655
  655MOL0     H90383   4.385   5.162   0.773  0.2497 -0.4636  4.9952
  655MOL0     H90384   4.326   4.871   0.808 -1.2629 -0.2837  1.0461
  655MOL0     H90385   4.212   5.000   0.789  0.1027  0.7156 -0.1283
  655MOL0     H90386   4.338   5.102   1.183 -0.5197  1.4250  0.2531
  655MOL0     H90387   4.330   4.915   0.310  0.6038 -1.4416 -0.9865
  655MOL0     H90388   4.227   4.718   0.038  0.8531 -6.3640  0.1364
  655MOL0     H90389   4.340   4.824   0.097 -2.7238  0.8110  1.3434
  655MOL0     H90390   4.355   4.643   0.130 -1.3833 -0.9282 -0.0294
  656MOL0     O90391   3.567   8.849   2.653  0.7988 -0.0536 -1.1012
  656MOL0     C90392   3.624   8.765   2.582  0.2004  0.3507  0.3310
  656MOL0     O90393   3.674   8.645   2.630  0.2324  1.2706  0.3177
  656MOL0     C90394   3.781   8.587   2.572  0.6780  0.7600  0.3147
  656MOL0     C90395   3.905   8.644   2.572 -0.0077 -0.2937  0.1728
  656MOL0     C90396   4.011   8.576   2.521 -1.1210  0.6547 -0.6673
  656MOL0     C90397   4.004   8.446   2.465 -0.1951 -0.2051 -0.4882
  656MOL0     O90398   4.118   8.392   2.397  0.8239  0.1350 -0.6068
  656MOL0     C90399   4.096   8.253   2.350 -0.9622 -0.9256  0.0331
  656MOL0     C90400   4.236   8.216   2.295  0.5625  0.1102 -0.2755
  656MOL0     C90401   4.322   8.158   2.404  0.3292  0.4886 -0.2020
  656MOL0     C90402   4.470   8.149   2.361  0.5187 -0.1232 -0.5871
  656MOL0     C90403   4.546   8.050   2.450 -1.1312  0.6138  0.2156
  656MOL0     C90404   4.688   8.049   2.404  0.0684  0.6210 -0.9407
  656MOL0     C90405   4.780   7.942   2.474  0.8269 -0.2916 -0.2022
  656MOL0     C90406   4.771   7.960   2.627 -0.3491 -0.1887 -0.4227
  656MOL0     N90407   4.890   7.905   2.693 -0.0910  0.1275 -0.7489
  656MOL0     C90408   4.897   7.786   2.768  0.4739  0.5829 -0.1261
  656MOL0     C90409   5.009   7.801   2.842 -0.1528 -0.8230 -0.7776
  656MOL0     C90410   5.073   7.699   2.937 -0.6071 -0.1296 -0.5083
  656MOL0     C90411   4.988   7.657   3.054  0.1866 -0.2792  1.0016
  656MOL0     C90412   4.943   7.776   3.141  0.5362 -0.0397 -0.3446
  656MOL0     C90413   4.884   7.710   3.274 -0.0205 -0.0502 -0.0566
  656MOL0     O90414   4.768   7.622   3.255 -0.3445 -0.0838  0.6997
  656MOL0     C90415   4.649   7.644   3.327 -0.3213 -0.1764  0.4186
  656MOL0     C90416   4.556   7.541   3.321 -0.8254  0.8292 -0.0026
  656MOL0     C90417   4.435   7.544   3.384  0.3713 -0.4182  0.0173
  656MOL0     C90418   4.359   7.414   3.382  0.0167 -0.2368 -0.4120
  656MOL0     C90419   4.393   7.658   3.447  0.1031 -0.3959 -0.8119
  656MOL0     C90420   4.259   7.678   3.508  0.5071  0.4499  0.8239
  656MOL0     O90421   4.200   7.572   3.563  0.2035  1.0745  0.7525
  656MOL0     C90422   4.072   7.567   3.615  0.1408 -0.8551 -0.3483
  656MOL0     C90423   3.975   7.664   3.595  0.1249 -0.1000 -0.2351
  656MOL0     C90424   3.840   7.634   3.651  0.3870  0.2661  0.4726
  656MOL0     C90425   3.809   7.509   3.713 -0.8637 -0.2462 -0.4087
  656MOL0     O90426   3.684   7.469   3.753 -0.2745 -0.2898  0.2232
  656MOL0     C90427   3.577   7.559   3.730  0.3412  0.0139  0.2255
  656MOL0     C90428   3.524   7.570   3.587  0.3276  0.1382 -0.6222
  656MOL0     C90429   3.400   7.647   3.578  0.7324  0.1427 -0.0393
  656MOL0     C90430   3.413   7.797   3.604  0.7017  0.3175 -0.2168
  656MOL0     C90431   3.262   7.849   3.612  0.1403  0.1687 -0.2517
  656MOL0     C90432   3.268   7.993   3.673  0.2365 -0.3596  0.3724
  656MOL0     C90433   3.281   8.040   3.830 -0.4408 -0.0297 -0.0197
  656MOL0     C90434   3.402   7.983   3.889 -0.2549 -0.2708 -0.2421
  656MOL0    Cl90435   3.412   8.046   4.064  0.2741 -0.5492 -0.1219
  656MOL0     C90436   3.913   7.426   3.751  0.3692 -0.2680 -0.1259
  656MOL0     C90437   4.043   7.453   3.701 -0.1714 -0.3011  1.3530
  656MOL0     O90438   4.233   7.798   3.539 -0.3296  0.3885 -0.0178
  656MOL0     C90439   4.486   7.770   3.448 -0.6943  0.4875  0.3566
  656MOL0     C90440   4.607   7.761   3.381  0.1827 -0.1281 -0.0160
  656MOL0     N90441   5.051   7.933   2.826  0.3385 -0.2744  0.3052
  656MOL0     N90442   4.983   7.999   2.734 -0.4187  0.2752 -0.5330
  656MOL0     C90443   3.881   8.380   2.472 -0.0704 -0.0255  0.2206
  656MOL0     C90444   3.774   8.452   2.531  0.1657 -0.0156 -0.1167
  656MOL0     C90445   3.610   8.783   2.440 -0.6217  0.0691  0.2867
  656MOL0     C90446   3.534   8.683   2.364  0.0876 -1.0405 -0.7669
  656MOL0     C90447   3.515   8.711   2.227 -0.4377  0.5834 -0.2838
  656MOL0     C90448   3.558   8.823   2.166  0.7793 -0.0364  1.0036
  656MOL0     O90449   3.524   8.831   2.029  0.4057  0.7078 -0.0874
  656MOL0     C90450   3.600   8.928   1.947  0.8420 -0.0137  0.2645
  656MOL0     C90451   3.529   8.946   1.809 -0.2765 -0.1017  0.1515
  656MOL0     C90452   3.527   8.818   1.716  0.2398 -0.7746  0.3795
  656MOL0     C90453   3.427   8.834   1.599 -0.0221 -0.4869 -0.8406
  656MOL0     C90454   3.464   8.959   1.522  0.3426 -0.3935 -0.7185
  656MOL0     C90455   3.475   9.064   1.454 -0.6340 -0.0055 -0.8648
  656MOL0     C90456   3.634   8.912   2.243 -0.5631  0.3354  0.8987
  656MOL0     C90457   3.665   8.896   2.375  0.6716 -0.7516  0.9633
  656MOL0     C90458   3.743   9.004   2.447 -1.0062  0.3993 -0.5205
  656MOL0     H90459   3.922   8.742   2.615  2.0243 -0.6270  0.2350
  656MOL0     H90460   4.108   8.624   2.520 -0.3775 -0.7813 -0.3427
  656MOL0     H90461   4.018   8.251   2.273  0.4520  0.3859 -1.5413
  656MOL0     H90462   4.065   8.183   2.427 -0.7099 -1.7646 -0.6065
  656MOL0     H90463   4.218   8.141   2.218 -0.2068  0.6331 -0.6222
  656MOL0     H90464   4.284   8.309   2.264  1.9109 -0.1561  0.9150
  656MOL0     H90465   4.325   8.216   2.496  0.1634  0.9052 -0.4548
  656MOL0     H90466   4.280   8.057   2.409 -0.8338  0.7598 -2.5709
  656MOL0     H90467   4.480   8.112   2.259  3.6311 -2.2530  0.3448
  656MOL0     H90468   4.518   8.247   2.357 -1.0674  0.7843  1.0264
  656MOL0     H90469   4.506   7.949   2.439  0.9761  0.0183 -3.3603
  656MOL0     H90470   4.544   8.093   2.551  2.0220  3.6780 -0.8342
  656MOL0     H90471   4.696   8.039   2.295 -1.5783  2.5336 -1.2970
  656MOL0     H90472   4.731   8.144   2.437  1.3149 -0.9526  2.4023
  656MOL0     H90473   4.881   7.952   2.434 -0.0734  0.2693 -2.5606
  656MOL0     H90474   4.746   7.841   2.450  0.2475 -0.9930  3.0723
  656MOL0     H90475   4.772   8.067   2.649 -1.1029 -0.0898 -0.8389
  656MOL0     H90476   4.676   7.920   2.664 -0.4825 -0.5691 -1.1545
  656MOL0     H90477   4.821   7.708   2.766  2.4357 -1.5040  1.3778
  656MOL0     H90478   5.172   7.736   2.965  0.5688 -1.6236 -2.4696
  656MOL0     H90479   5.102   7.609   2.881  0.7858  0.1165 -0.2103
  656MOL0     H90480   4.901   7.613   3.005  1.6216 -0.3650 -1.6187
  656MOL0     H90481   5.038   7.582   3.115  0.0070 -2.4568 -1.3719
  656MOL0     H90482   5.032   7.836   3.162  0.5318 -1.0174  3.0678
  656MOL0     H90483   4.866   7.843   3.102 -0.0695 -1.4433 -1.6613
  656MOL0     H90484   4.956   7.640   3.317 -1.8494 -4.0227 -2.9203
  656MOL0     H90485   4.862   7.789   3.347 -2.1857 -1.9889  1.5119
  656MOL0     H90486   4.598   7.457   3.266  2.1591  2.7733 -0.9585
  656MOL0     H90487   4.370   7.369   3.481  3.3565  1.2973  0.0352
  656MOL0     H90488   4.410   7.344   3.315  0.7263 -1.4788  1.3619
  656MOL0     H90489   4.254   7.435   3.356  0.6424  1.6173 -1.6028
  656MOL0     H90490   4.002   7.749   3.534 -0.3552 -0.9757 -1.7168
  656MOL0     H90491   3.776   7.722   3.644 -0.4772 -0.3479  0.5278
  656MOL0     H90492   3.490   7.527   3.788  0.8863 -0.7788  0.6315
  656MOL0     H90493   3.609   7.659   3.759  0.4083 -0.2610  1.1331
  656MOL0     H90494   3.593   7.584   3.503  0.5109 -1.7628 -0.8267
  656MOL0     H90495   3.487   7.469   3.569 -0.9411  0.7847 -1.8875
  656MOL0     H90496   3.324   7.611   3.648 -0.1362  2.2939  0.2166
  656MOL0     H90497   3.365   7.633   3.476  3.6555 -1.0745 -0.9615
  656MOL0     H90498   3.479   7.846   3.532  2.3520  1.7704  2.1404
  656MOL0     H90499   3.458   7.822   3.700 -0.1337  2.7198 -0.3694
  656MOL0     H90500   3.215   7.856   3.513  1.2201 -3.5605 -1.2080
  656MOL0     H90501   3.194   7.778   3.660 -0.6958  0.8238 -0.4584
  656MOL0     H90502   3.171   8.038   3.653 -0.4865 -1.7778  0.5941
  656MOL0     H90503   3.342   8.049   3.614 -0.6579 -0.2297 -0.6550
  656MOL0     H90504   3.202   7.993   3.889 -0.5115 -2.0417 -1.6120
  656MOL0     H90505   3.282   8.149   3.829  3.7175  0.1064 -2.5014
  656MOL0     H90506   3.491   8.015   3.834 -0.2307 -0.7619 -0.5034
  656MOL0     H90507   3.388   7.874   3.892  0.6796 -0.4338 -1.0127
  656MOL0     H90508   3.884   7.338   3.808 -0.8734 -0.5551 -1.1627
  656MOL0     H90509   4.125   7.387   3.728  0.5553 -1.7491 -3.5000
  656MOL0     H90510   4.456   7.861   3.498 -4.0078  0.8214 -1.8644
  656MOL0     H90511   4.672   7.846   3.397  0.0912 -0.3344  1.6814
  656MOL0     H90512   3.853   8.289   2.419 -0.2446  1.1788 -1.9003
  656MOL0     H90513   3.677   8.404   2.538  1.1666 -2.1391  0.0285
  656MOL0     H90514   3.497   8.588   2.401  1.8010 -1.6659 -0.5820
  656MOL0     H90515   3.461   8.645   2.160  0.5198 -1.0041  0.4617
  656MOL0     H90516   3.606   9.027   1.995  3.6406 -0.5907  1.3430
  656MOL0     H90517   3.699   8.883   1.929  0.7488 -1.1068  2.2302
  656MOL0     H90518   3.575   9.035   1.766  2.5898 -0.2930  2.4752
  656MOL0     H90519   3.424   8.974   1.825 -0.8886 -2.7550  1.3753
  656MOL0     H90520   3.624   8.794   1.674 -0.4338  0.1209 -1.8177
  656MOL0     H90521   3.500   8.727   1.772  1.2085 -2.0901 -1.2230
  656MOL0     H90522   3.321   8.844   1.626 -0.0518 -0.5874 -0.9147
  656MOL0     H90523   3.431   8.742   1.540  2.5204 -0.9820 -0.0341
  656MOL0     H90524   3.485   9.152   1.395  1.1482 -0.6965 -1.6440
  656MOL0     H90525   3.677   8.998   2.192 -0.6242 -0.3369 -0.3196
  656MOL0     H90526   3.834   9.035   2.395 -0.4848  1.9462  1.2130
  656MOL0     H90527   3.684   9.091   2.476 -0.1812  1.2802 -1.4214
  656MOL0     H90528   3.795   8.953   2.530  0.3807  0.5790 -1.2513
  657MOL0     O90529   4.854   9.964   9.274 -0.0587 -0.4249 -0.5121
  657MOL0     C90530   4.891   9.999   9.384  0.9336 -0.2688  0.0179
  657MOL0     O90531   4.847   9.949   9.501  0.0076  0.2430 -0.6166
  657MOL0     C90532   4.748   9.859   9.533 -0.9071 -0.4205  0.3291
  657MOL0     C90533   4.717   9.752   9.448 -0.6270  0.4880 -0.0321
  657MOL0     C90534   4.621   9.666   9.482 -0.2560  0.0714  0.0997
  657MOL0     C90535   4.548   9.671   9.602  0.9981  0.7456  0.2166
  657MOL0     O90536   4.443   9.596   9.620 -0.1797 -0.3307 -0.5591
  657MOL0     C90537   4.480   9.462   9.645  0.5384 -0.0416  0.2159
  657MOL0     C90538   4.352   9.374   9.649 -0.1343  0.1964  0.3114
  657MOL0     C90539   4.273   9.404   9.772 -0.8067  0.6934 -0.6519
  657MOL0     C90540   4.209   9.285   9.832  0.0430  1.1831  1.0211
  657MOL0     C90541   4.135   9.305   9.962 -0.3079 -0.0206  0.7738
  657MOL0     C90542   4.005   9.228   9.964 -0.8499 -1.0514 -0.4986
  657MOL0     C90543   3.914   9.238  10.087 -0.2530  0.1869 -0.6853
  657MOL0     C90544   3.993   9.209  10.221  0.0537  0.3399 -0.6280
  657MOL0     N90545   3.909   9.225  10.341 -0.5926  0.3119  0.4310
  657MOL0     C90546   3.812   9.140  10.386 -0.6090 -1.1949 -0.3730
  657MOL0     C90547   3.776   9.189  10.507 -0.3902 -0.6477  1.2205
  657MOL0     C90548   3.687   9.112  10.594 -0.1510 -0.0067 -0.5539
  657MOL0     C90549   3.767   9.013  10.677  1.1569 -0.1079 -0.0031
  657MOL0     C90550   3.822   9.078  10.808 -0.8738  0.2028 -0.4489
  657MOL0     C90551   3.906   8.978  10.891 -0.4075  0.0682  0.9542
  657MOL0     O90552   3.820   8.884  10.971  0.3394 -0.4244 -0.2138
  657MOL0     C90553   3.887   8.779  11.019  0.9928  0.2946  0.2262
  657MOL0     C90554   3.841   8.643  11.001 -0.1793  0.1481 -0.5428
  657MOL0     C90555   3.915   8.538  11.046  0.1385  1.4688  1.1985
  657MOL0     C90556   3.848   8.400  11.012 -0.6110  0.4592  1.0725
  657MOL0     C90557   4.038   8.558  11.120  0.4664 -0.1563  0.9328
  657MOL0     C90558   4.124   8.457  11.186 -0.1680 -0.3593  0.4350
  657MOL0     O90559   4.241   8.507  11.253 -0.4422 -0.4414  0.4069
  657MOL0     C90560   4.336   8.419  11.315  1.2892 -0.4292  0.0469
  657MOL0     C90561   4.357   8.425  11.448  0.3768 -0.2390 -0.3289
  657MOL0     C90562   4.457   8.347  11.510  0.2145  0.6668  0.4785
  657MOL0     C90563   4.544   8.262  11.439  0.3248  0.7105 -1.5843
  657MOL0     O90564   4.628   8.179  11.527 -0.1349 -0.0782  0.5311
  657MOL0     C90565   4.754   8.146  11.458 -0.2572  0.0276 -0.0993
  657MOL0     C90566   4.821   8.042  11.548 -0.6283  0.4739  0.2289
  657MOL0     C90567   4.842   8.081  11.695 -0.2185 -0.8640  1.0426
  657MOL0     C90568   4.873   7.964  11.793 -0.0848  0.4420  0.8863
  657MOL0     C90569   4.935   8.009  11.921 -0.2070  0.6989  0.0056
  657MOL0     C90570   5.007   7.903  11.999 -0.4229  0.2909  0.0530
  657MOL0     C90571   4.918   7.779  12.025  0.3971  0.6207  0.4084
  657MOL0     C90572   4.992   7.675  12.100  0.3118  0.2436 -0.0116
  657MOL0    Cl90573   5.089   7.740  12.248  0.0351  0.3099 -1.1963
  657MOL0     C90574   4.528   8.269  11.304  0.4855 -0.3236  0.0344
  657MOL0     C90575   4.428   8.354  11.237 -0.0095  1.1873 -0.6675
  657MOL0     O90576   4.098   8.336  11.177  0.1806 -0.0993 -0.2772
  657MOL0     C90577   4.078   8.697  11.142  0.8585  0.3178  0.7797
  657MOL0     C90578   4.009   8.801  11.080 -0.0321 -0.2368 -0.0592
  657MOL0     N90579   3.843   9.308  10.544  0.5606  0.8003 -0.1054
  657MOL0     N90580   3.915   9.326  10.439  0.9881 -0.6553  0.5812
  657MOL0     C90581   4.568   9.786   9.683 -0.8201 -0.4150  0.4022
  657MOL0     C90582   4.673   9.876   9.648  0.2109  0.8480  0.4084
  657MOL0     C90583   5.000  10.106   9.385 -0.2815  0.8921 -1.0416
  657MOL0     C90584   4.969  10.221   9.463  0.7332  0.1277 -0.1466
  657MOL0     C90585   5.067  10.311   9.471  0.7910 -0.2549  0.1783
  657MOL0     C90586   5.176  10.319   9.388  0.7090 -0.2246 -0.0547
  657MOL0     O90587   5.255  10.434   9.390  0.2781 -0.2708  0.4952
  657MOL0     C90588   5.361  10.463   9.298 -1.1488  0.7753  0.2083
  657MOL0     C90589   5.393  10.607   9.297  0.0151 -0.7412  0.4901
  657MOL0     C90590   5.264  10.693   9.320  0.1264 -0.3312 -0.9351
  657MOL0     C90591   5.273  10.822   9.254 -0.1207  0.1915 -0.8093
  657MOL0     C90592   5.369  10.922   9.326  1.0799  0.3860  0.3636
  657MOL0     C90593   5.433  11.008   9.377 -0.3502  0.3632 -0.2130
  657MOL0     C90594   5.211  10.210   9.309 -0.7590 -0.6595  0.6452
  657MOL0     C90595   5.120  10.095   9.302  0.1785  0.4229 -0.0176
  657MOL0     C90596   5.154   9.975   9.214 -1.2210 -0.2018  0.4653
  657MOL0     H90597   4.768   9.742   9.353  1.9032  3.7745  0.7954
  657MOL0     H90598   4.587   9.584   9.420 -2.1993  2.4381 -2.1643
  657MOL0     H90599   4.548   9.456   9.730 -0.2796 -2.0498  0.7822
  657MOL0     H90600   4.530   9.416   9.560  1.0761 -0.0092  0.5105
  657MOL0     H90601   4.296   9.391   9.557  1.8293  0.0097 -0.9833
  657MOL0     H90602   4.382   9.269   9.649 -1.3082 -0.3372 -4.3782
  657MOL0     H90603   4.347   9.434   9.847 -1.0256 -0.1003 -0.1035
  657MOL0     H90604   4.199   9.482   9.756 -1.0886  0.8736  1.2984
  657MOL0     H90605   4.142   9.249   9.754  0.6513  0.4781  0.8176
  657MOL0     H90606   4.282   9.204   9.833 -1.6880 -0.4658  2.9501
  657MOL0     H90607   4.114   9.412   9.969 -1.4961 -0.0266 -1.6709
  657MOL0     H90608   4.206   9.273  10.039  0.8174  0.7282  0.0733
  657MOL0     H90609   3.932   9.246   9.884 -1.2871 -0.8048 -0.0522
  657MOL0     H90610   4.042   9.130   9.934  0.5727  0.2554 -3.3986
  657MOL0     H90611   3.842   9.156  10.091 -0.4025  0.3687  0.8735
  657MOL0     H90612   3.865   9.336  10.095 -4.5362 -1.9207  3.7325
  657MOL0     H90613   4.012   9.102  10.209  3.1822  0.4560  1.7936
  657MOL0     H90614   4.081   9.271  10.235 -0.8582  1.1787  2.0877
  657MOL0     H90615   3.777   9.047  10.341  1.4826 -2.0681 -0.3181
  657MOL0     H90616   3.603   9.067  10.540  1.9833 -0.1671 -4.0176
  657MOL0     H90617   3.640   9.183  10.662 -0.3567 -2.7827  2.4429
  657MOL0     H90618   3.705   8.928  10.707  1.1156 -0.5528 -1.3022
  657MOL0     H90619   3.850   8.971  10.620  0.4362 -0.0855 -1.0818
  657MOL0     H90620   3.888   9.162  10.781  0.9364 -0.7059  0.9092
  657MOL0     H90621   3.744   9.126  10.867  2.5448  2.8435  2.3718
  657MOL0     H90622   3.987   8.928  10.837  0.2097  4.3582 -2.7916
  657MOL0     H90623   3.954   9.045  10.963  1.8313  0.9494 -1.2076
  657MOL0     H90624   3.741   8.631  10.961  0.6388  2.4428 -3.7484
  657MOL0     H90625   3.750   8.414  10.966  0.1296  2.1917 -0.0800
  657MOL0     H90626   3.847   8.331  11.097 -1.9625  0.3581  0.9922
  657MOL0     H90627   3.915   8.350  10.942 -1.0530  0.0063  0.9755
  657MOL0     H90628   4.283   8.477  11.507 -0.0523 -1.8871  0.6186
  657MOL0     H90629   4.474   8.341  11.618  2.8881  1.3928  0.1898
  657MOL0     H90630   4.743   8.095  11.362 -1.2288 -0.6079  0.3333
  657MOL0     H90631   4.827   8.227  11.448  1.1778 -1.2312 -0.1384
  657MOL0     H90632   4.765   7.949  11.559  1.1155 -0.3196  4.0006
  657MOL0     H90633   4.918   8.011  11.507 -0.5526  0.8538  0.1178
  657MOL0     H90634   4.751   8.132  11.729 -1.6850 -0.4621 -2.9064
  657MOL0     H90635   4.927   8.150  11.691  0.6090 -1.8780 -2.4201
  657MOL0     H90636   4.935   7.894  11.737  1.3732  0.4984  2.3508
  657MOL0     H90637   4.775   7.914  11.800 -1.0449  2.2555  1.0321
  657MOL0     H90638   5.007   8.086  11.891 -2.9013  3.4761  0.2325
  657MOL0     H90639   4.857   8.050  11.986 -2.1144 -0.3338 -1.5339
  657MOL0     H90640   5.043   7.945  12.093 -0.5413 -0.4944  0.4624
  657MOL0     H90641   5.083   7.878  11.925  0.1202  0.5172  0.5356
  657MOL0     H90642   4.873   7.734  11.936 -0.5630 -0.0687  1.2258
  657MOL0     H90643   4.836   7.815  12.087  0.6688  0.4899  0.8427
  657MOL0     H90644   5.054   7.627  12.023 -1.2414  0.3201 -1.3665
  657MOL0     H90645   4.917   7.604  12.139  0.0973  1.0139  1.0145
  657MOL0     H90646   4.592   8.208  11.240 -1.2468 -0.4792 -1.6645
  657MOL0     H90647   4.433   8.345  11.129 -3.1860 -0.7503 -0.7781
  657MOL0     H90648   4.174   8.724  11.186  1.1248  3.6368 -1.4823
  657MOL0     H90649   4.042   8.905  11.081 -1.5534  0.4685 -3.7303
  657MOL0     H90650   4.510   9.805   9.774  0.3872 -4.6458  2.3103
  657MOL0     H90651   4.691   9.961   9.713 -0.4237 -0.3993  2.3057
  657MOL0     H90652   4.880  10.232   9.525  1.4495 -3.0176  1.6818
  657MOL0     H90653   5.047  10.409   9.514 -1.3206  0.3860 -2.0523
  657MOL0     H90654   5.445  10.400   9.325 -4.0692 -3.2232  0.8938
  657MOL0     H90655   5.331  10.439   9.195 -0.1448  4.7984 -1.2446
  657MOL0     H90656   5.433  10.634   9.200  1.2020  0.6617  1.3379
  657MOL0     H90657   5.472  10.635   9.367 -1.2549  3.4032  0.5281
  657MOL0     H90658   5.168  10.653   9.289 -1.1959  2.2627 -0.5043
  657MOL0     H90659   5.236  10.722   9.422  0.9500  5.7078 -2.0492
  657MOL0     H90660   5.182  10.883   9.260  0.7366  1.5313 -0.8865
  657MOL0     H90661   5.306  10.815   9.150  0.6325  0.0268 -0.5712
  657MOL0     H90662   5.477  11.087   9.435 -2.9034  1.6935  0.0959
  657MOL0     H90663   5.307  10.198   9.260 -1.8438 -4.1362 -0.8956
  657MOL0     H90664   5.101   9.974   9.119 -0.7991  0.5323  0.2164
  657MOL0     H90665   5.255   9.970   9.173 -0.9087 -0.0741  1.1967
  657MOL0     H90666   5.121   9.889   9.272 -1.5286 -3.4259 -3.9952
  658MOL0     O90667   6.377   6.438  10.581  0.1831  0.5744 -0.0307
  658MOL0     C90668   6.324   6.550  10.578 -0.0480  0.5548  0.2403
  658MOL0     O90669   6.376   6.661  10.531  0.0332  0.8834  0.2175
  658MOL0     C90670   6.503   6.658  10.482  0.2065  0.8582 -0.5921
  658MOL0     C90671   6.617   6.650  10.563 -0.5591 -0.1758  0.1581
  658MOL0     C90672   6.738   6.687  10.495  0.0859  0.0584 -0.6221
  658MOL0     C90673   6.748   6.728  10.367 -0.5107 -0.6333 -0.2795
  658MOL0     O90674   6.871   6.765  10.330 -0.1926 -0.2374  0.4033
  658MOL0     C90675   6.895   6.881  10.237 -0.2837 -0.6971 -0.5269
  658MOL0     C90676   6.865   6.997  10.340  0.8472 -0.0043 -0.1545
  658MOL0     C90677   6.989   7.015  10.430  0.0254  0.6160  0.0645
  658MOL0     C90678   6.952   7.122  10.525 -0.7510 -0.0331  0.0484
  658MOL0     C90679   7.060   7.121  10.631  0.4297  0.6913 -0.0638
  658MOL0     C90680   7.002   7.197  10.754  0.1724  1.0774 -0.4117
  658MOL0     C90681   7.077   7.186  10.889 -0.8401 -0.2233 -0.1316
  658MOL0     C90682   7.114   7.047  10.949 -0.3104  0.5568 -0.1046
  658MOL0     N90683   6.997   6.958  10.937  0.0153 -0.0779  0.3733
  658MOL0     C90684   6.894   6.949  11.031  0.4122 -0.0226  0.2978
  658MOL0     C90685   6.811   6.850  10.983  0.6021 -0.7644  0.4585
  658MOL0     C90686   6.684   6.802  11.045 -0.1178  0.4973 -0.8603
  658MOL0     C90687   6.720   6.735  11.182  0.3393  1.1933 -0.6881
  658MOL0     C90688   6.605   6.652  11.243  1.1792  0.0779 -0.3270
  658MOL0     C90689   6.572   6.527  11.166  0.2127  0.6144 -0.3179
  658MOL0     O90690   6.679   6.428  11.161  0.3820 -0.0381 -0.1738
  658MOL0     C90691   6.691   6.344  11.270 -1.3223  0.5715  0.2158
  658MOL0     C90692   6.777   6.235  11.259 -0.5919  0.2723  0.5358
  658MOL0     C90693   6.810   6.137  11.351 -0.8141  0.6672 -0.9685
  658MOL0     C90694   6.922   6.039  11.309 -0.5500  0.1328  0.3401
  658MOL0     C90695   6.736   6.133  11.467  0.1506  1.2645 -0.4243
  658MOL0     C90696   6.750   6.035  11.577 -0.8036 -0.5772 -1.1881
  658MOL0     O90697   6.638   6.037  11.666 -0.9781  0.1260  0.0330
  658MOL0     C90698   6.641   5.936  11.760 -0.0809 -0.4683  0.2718
  658MOL0     C90699   6.620   5.799  11.720  0.0626 -0.0178 -0.1444
  658MOL0     C90700   6.619   5.694  11.812  0.5225 -0.0268 -0.2273
  658MOL0     C90701   6.642   5.712  11.948  0.3925  0.3419  0.5327
  658MOL0     O90702   6.629   5.617  12.044  0.2138  0.2755 -0.2926
  658MOL0     C90703   6.622   5.477  12.001  0.0886 -0.4467 -0.1607
  658MOL0     C90704   6.590   5.405  12.129 -0.0674  0.3479  0.1998
  658MOL0     C90705   6.475   5.438  12.219 -0.2838  0.4309 -0.4142
  658MOL0     C90706   6.345   5.404  12.158  0.6417  0.1820 -0.0831
  658MOL0     C90707   6.321   5.255  12.156 -0.2009 -0.1055  0.0940
  658MOL0     C90708   6.177   5.216  12.163 -0.8329  0.4108  0.5392
  658MOL0     C90709   6.086   5.289  12.057  0.1321 -0.3030 -0.3630
  658MOL0     C90710   5.937   5.253  12.068  0.6107  0.5162 -0.0478
  658MOL0    Cl90711   5.911   5.083  12.022 -0.1208 -0.5804  0.4050
  658MOL0     C90712   6.668   5.846  11.986  0.7671  0.2077  0.3693
  658MOL0     C90713   6.659   5.959  11.900 -0.0396 -0.1680  0.1180
  658MOL0     O90714   6.843   5.957  11.589  0.3109  1.3330  0.6915
  658MOL0     C90715   6.632   6.232  11.486  0.4009 -0.4236 -0.0678
  658MOL0     C90716   6.607   6.329  11.387  0.2902 -0.4758 -0.0460
  658MOL0     N90717   6.862   6.801  10.863 -0.1996  0.0158 -0.2168
  658MOL0     N90718   6.968   6.870  10.830  0.1702  0.2209  0.1738
  658MOL0     C90719   6.628   6.744  10.291 -0.6856 -0.2751 -0.2828
  658MOL0     C90720   6.509   6.703  10.352  0.6965  0.6172  0.6385
  658MOL0     C90721   6.189   6.541  10.650 -0.3526  0.2924 -0.2082
  658MOL0     C90722   6.141   6.420  10.712 -0.2014  0.1226  0.8426
  658MOL0     C90723   6.028   6.415  10.782 -0.0026 -0.9597  0.2718
  658MOL0     C90724   5.946   6.525  10.805 -0.0183 -0.6307 -1.6339
  658MOL0     O90725   5.822   6.521  10.860  0.4269  0.5178 -0.5562
  658MOL0     C90726   5.739   6.399  10.835  0.7068  0.0716  0.1146
  658MOL0     C90727   5.592   6.450  10.810 -0.0970  0.2288 -0.7665
  658MOL0     C90728   5.559   6.492  10.667 -0.7494 -0.3484 -0.5142
  658MOL0     C90729   5.651   6.609  10.619  0.4088 -0.0828  0.7630
  658MOL0     C90730   5.641   6.738  10.683  0.4717 -0.1944 -1.1608
  658MOL0     C90731   5.605   6.847  10.717 -0.2231  0.4128 -0.8619
  658MOL0     C90732   5.990   6.650  10.756  0.2942 -0.7890  0.0423
  658MOL0     C90733   6.109   6.656  10.677 -0.1052 -0.5092 -0.9906
  658MOL0     C90734   6.135   6.787  10.615  0.4934 -0.3512  0.9918
  658MOL0     H90735   6.608   6.629  10.669 -3.4610  2.5400  0.5745
  658MOL0     H90736   6.827   6.660  10.552 -0.4510 -1.0048 -0.2659
  658MOL0     H90737   6.827   6.887  10.152 -3.1533  1.3671  1.7359
  658MOL0     H90738   7.000   6.885  10.204 -0.0625  1.9880  0.2504
  658MOL0     H90739   6.841   7.086  10.282  2.2987 -0.8638 -2.1943
  658MOL0     H90740   6.769   6.972  10.386  0.2184  0.3504 -1.2375
  658MOL0     H90741   7.001   6.917  10.475 -0.8548 -1.1643 -3.2452
  658MOL0     H90742   7.076   7.045  10.371 -0.1236 -0.4052 -0.6829
  658MOL0     H90743   6.942   7.214  10.466 -0.7687 -0.0348  0.0492
  658MOL0     H90744   6.854   7.099  10.567  0.8459 -2.5972  2.7406
  658MOL0     H90745   7.155   7.160  10.594  1.5550  0.3183  2.2490
  658MOL0     H90746   7.081   7.015  10.653  2.0062  0.8260 -0.7824
  658MOL0     H90747   6.985   7.300  10.723 -3.7329 -0.6319 -5.2386
  658MOL0     H90748   6.904   7.159  10.786  2.6135 -4.0620  2.2619
  658MOL0     H90749   7.022   7.250  10.959 -3.2031 -0.1034 -1.9728
  658MOL0     H90750   7.174   7.230  10.862 -0.6360  1.5691  3.0279
  658MOL0     H90751   7.193   7.009  10.884  2.1434 -1.6781  3.8505
  658MOL0     H90752   7.157   7.060  11.048 -1.7951  1.6076  0.4489
  658MOL0     H90753   6.858   7.003  11.118  0.7845  0.8812 -0.0936
  658MOL0     H90754   6.638   6.729  10.977 -0.0073 -0.7384  0.3444
  658MOL0     H90755   6.613   6.882  11.064 -0.1411 -0.2503  3.0854
  658MOL0     H90756   6.809   6.672  11.178 -2.0026 -2.9273  2.6254
  658MOL0     H90757   6.748   6.821  11.242  2.4531 -1.1477  1.9851
  658MOL0     H90758   6.639   6.617  11.340 -2.1103 -2.1921  0.1807
  658MOL0     H90759   6.523   6.725  11.248  0.6376 -0.4446 -1.3332
  658MOL0     H90760   6.478   6.492  11.209  0.0488  1.8457  0.3912
  658MOL0     H90761   6.546   6.555  11.063 -4.7523 -0.9077  0.2363
  658MOL0     H90762   6.833   6.241  11.166 -0.0826  2.8522  0.9368
  658MOL0     H90763   6.953   6.039  11.204  0.4935 -0.5933  0.6407
  658MOL0     H90764   6.889   5.937  11.330 -0.9879  0.0057 -0.8729
  658MOL0     H90765   7.010   6.059  11.370  1.4424 -5.2231 -0.2447
  658MOL0     H90766   6.608   5.761  11.619 -0.7314 -4.4737  1.4073
  658MOL0     H90767   6.590   5.595  11.778  0.2059 -0.1442  0.3682
  658MOL0     H90768   6.544   5.440  11.934  0.2109 -3.1616  1.0799
  658MOL0     H90769   6.722   5.449  11.967 -0.0031  0.2365 -1.0434
  658MOL0     H90770   6.581   5.300  12.100 -4.0700  0.9204 -1.2022
  658MOL0     H90771   6.681   5.416  12.190  0.3481  2.4876 -0.7061
  658MOL0     H90772   6.484   5.546  12.236 -1.9558  0.1588  3.2563
  658MOL0     H90773   6.488   5.389  12.316  2.8441  0.0485 -0.8980
  658MOL0     H90774   6.331   5.445  12.058  0.7462  3.9343  1.2921
  658MOL0     H90775   6.273   5.439  12.233 -1.2507 -1.3567 -1.0891
  658MOL0     H90776   6.355   5.222  12.057 -1.7209 -2.4885  0.2967
  658MOL0     H90777   6.371   5.203  12.238 -1.6573  0.0360  1.0982
  658MOL0     H90778   6.129   5.238  12.259  3.5048  2.8467  2.4249
  658MOL0     H90779   6.181   5.108  12.143  0.5259  0.7509 -1.2198
  658MOL0     H90780   6.099   5.268  11.950  0.3783  0.4594 -0.4860
  658MOL0     H90781   6.094   5.397  12.067  0.0730 -0.1900 -1.4540
  658MOL0     H90782   5.882   5.310  11.993 -1.8646 -1.2134  0.3152
  658MOL0     H90783   5.891   5.279  12.164 -0.7624  0.4692 -0.6684
  658MOL0     H90784   6.679   5.857  12.094 -2.6694  0.8416  0.7482
  658MOL0     H90785   6.670   6.061  11.934 -1.7167 -0.9688  3.4643
  658MOL0     H90786   6.563   6.235  11.569 -1.3629  0.2500 -1.4781
  658MOL0     H90787   6.538   6.405  11.423  0.4375 -0.3228 -0.0881
  658MOL0     H90788   6.629   6.786  10.191  0.0298  0.9826  0.2336
  658MOL0     H90789   6.421   6.711  10.289  1.3649 -0.6132 -0.5061
  658MOL0     H90790   6.197   6.328  10.695 -2.3586 -0.9529 -1.0244
  658MOL0     H90791   6.000   6.317  10.818  1.7541 -2.3160 -1.8016
  658MOL0     H90792   5.771   6.342  10.747  0.4954 -1.7963  1.1952
  658MOL0     H90793   5.754   6.327  10.915  0.3998 -0.4105 -0.2525
  658MOL0     H90794   5.567   6.521  10.889 -2.8909 -2.2181  0.7459
  658MOL0     H90795   5.523   6.366  10.825  0.9732 -0.4622  0.4601
  658MOL0     H90796   5.568   6.414  10.591  1.0737  1.1788 -1.9763
  658MOL0     H90797   5.453   6.518  10.667 -0.5435  0.8509  1.9638
  658MOL0     H90798   5.617   6.632  10.518  0.1066 -1.1935  0.6023
  658MOL0     H90799   5.754   6.577  10.602  0.2413  0.5918 -2.0316
  658MOL0     H90800   5.568   6.933  10.769 -0.9822 -1.0609  1.1957
  658MOL0     H90801   5.919   6.732  10.769  2.4875  0.9497  1.9375
  658MOL0     H90802   6.220   6.831  10.669  0.2872  2.2567 -0.6537
  658MOL0     H90803   6.170   6.779  10.512  0.5642 -0.6411  1.0352
  658MOL0     H90804   6.050   6.855  10.610  1.7577  1.2375  0.1971
  659MOL0     O90805   6.618  11.443  10.495 -0.5089 -0.3178 -0.6943
  659MOL0     C90806   6.535  11.429  10.399 -0.1531 -1.1199 -0.2470
  659MOL0     O90807   6.496  11.534  10.318 -0.3015  0.0659 -0.6712
  659MOL0     C90808   6.489  11.659  10.379 -0.0781  0.7082  0.0204
  659MOL0     C90809   6.435  11.688  10.508  1.0529  0.2391  0.2329
  659MOL0     C90810   6.419  11.819  10.554  0.1304  1.3646 -0.0429
  659MOL0     C90811   6.471  11.920  10.487 -0.4548 -0.3141 -0.4574
  659MOL0     O90812   6.456  12.042  10.559 -0.3248  0.1461 -0.0062
  659MOL0     C90813   6.579  12.094  10.602  0.3090 -0.2324 -0.8108
  659MOL0     C90814   6.578  12.126  10.754  0.0477  0.4778 -0.0494
  659MOL0     C90815   6.462  12.214  10.793  0.5822 -0.4175 -0.3591
  659MOL0     C90816   6.466  12.349  10.722 -0.3724 -0.1216 -0.8639
  659MOL0     C90817   6.393  12.457  10.812  0.3806 -1.1299 -0.6817
  659MOL0     C90818   6.258  12.410  10.863 -0.9363 -0.5516 -0.6468
  659MOL0     C90819   6.186  12.515  10.959 -0.3923  0.1897  0.6189
  659MOL0     C90820   6.065  12.467  11.038  0.5190  0.6515 -0.7260
  659MOL0     N90821   5.981  12.571  11.100  0.0003 -0.4549  0.9057
  659MOL0     C90822   5.842  12.577  11.085  0.1583 -0.6512 -0.0253
  659MOL0     C90823   5.807  12.697  11.113 -0.1645 -0.4918  0.2623
  659MOL0     C90824   5.665  12.751  11.130 -0.1199 -0.7787  0.5782
  659MOL0     C90825   5.654  12.824  11.260 -1.1756  0.4111  0.0405
  659MOL0     C90826   5.507  12.856  11.269  0.4608 -0.0406  0.2429
  659MOL0     C90827   5.462  12.888  11.412  0.4048  0.2531  0.0291
  659MOL0     O90828   5.533  13.004  11.432  0.0729 -0.5395 -0.0606
  659MOL0     C90829   5.496  13.080  11.536  0.6000  0.1818  0.8588
  659MOL0     C90830   5.432  13.028  11.650 -0.6770 -0.0143  0.3903
  659MOL0     C90831   5.398  13.103  11.757  0.1177  0.5260 -0.7122
  659MOL0     C90832   5.324  13.040  11.872  0.7793 -0.0517  1.1502
  659MOL0     C90833   5.436  13.239  11.761  0.6695 -0.2484 -0.1000
  659MOL0     C90834   5.406  13.327  11.875  1.0060 -1.0722 -0.3461
  659MOL0     O90835   5.404  13.468  11.854  0.6670  0.3787 -0.5672
  659MOL0     C90836   5.338  13.551  11.948 -0.7114 -0.0697 -0.0228
  659MOL0     C90837   5.378  13.567  12.074  0.2035  0.1706 -0.4023
  659MOL0     C90838   5.318  13.665  12.152  0.0031 -0.3405 -0.4378
  659MOL0     C90839   5.209  13.740  12.109  0.1934  0.4486  0.2798
  659MOL0     O90840   5.152  13.839  12.181 -0.3173  0.2024 -0.0019
  659MOL0     C90841   5.184  13.869  12.320 -0.6248  0.3444  0.6369
  659MOL0     C90842   5.091  13.804  12.413  0.2051  0.4332 -0.7543
  659MOL0     C90843   5.155  13.779  12.551 -0.5294  0.2897  0.1290
  659MOL0     C90844   5.049  13.716  12.640  0.2143 -1.1457 -0.9042
  659MOL0     C90845   5.105  13.664  12.775 -0.5824  0.3076 -0.1347
  659MOL0     C90846   5.159  13.774  12.862  0.4640  0.3217  0.3208
  659MOL0     C90847   5.059  13.881  12.873  0.1098  0.7528  0.5620
  659MOL0     C90848   5.109  13.982  12.977  0.5006  0.2667 -0.5574
  659MOL0    Cl90849   5.001  14.124  13.007 -0.0212 -0.1047  0.2593
  659MOL0     C90850   5.166  13.723  11.981  0.6071  0.3684  0.5829
  659MOL0     C90851   5.233  13.625  11.899 -0.3581 -0.4366  1.3062
  659MOL0     O90852   5.389  13.280  11.984  0.1284  0.5059 -0.5714
  659MOL0     C90853   5.497  13.293  11.645 -0.6109 -0.0948  1.4244
  659MOL0     C90854   5.529  13.215  11.528  0.5160 -0.2671 -0.1470
  659MOL0     N90855   5.922  12.770  11.138  0.0630 -0.2533 -0.6727
  659MOL0     N90856   6.021  12.699  11.123  0.4080  0.1916  0.7486
  659MOL0     C90857   6.533  11.901  10.365  0.3402  0.3268  0.5971
  659MOL0     C90858   6.536  11.771  10.302  0.0637  0.3441 -1.2745
  659MOL0     C90859   6.485  11.307  10.364 -0.4645 -0.3917 -0.3904
  659MOL0     C90860   6.383  11.297  10.258  0.5523  0.1076 -0.6886
  659MOL0     C90861   6.329  11.176  10.217  0.5152 -0.3059  0.3584
  659MOL0     C90862   6.358  11.057  10.287 -0.4575 -0.1121  0.0055
  659MOL0     O90863   6.275  10.945  10.269 -0.2807  0.2326 -0.4072
  659MOL0     C90864   6.166  10.924  10.367 -0.3316  0.1980  1.0077
  659MOL0     C90865   6.210  10.808  10.466  0.3049  0.0771 -0.3772
  659MOL0     C90866   6.193  10.834  10.604  0.8705 -0.0625 -1.1805
  659MOL0     C90867   6.233  10.720  10.696 -0.3852  0.0070 -0.0405
  659MOL0     C90868   6.375  10.707  10.723  0.1849  0.4031 -0.0661
  659MOL0     C90869   6.494  10.708  10.760  0.0878 -0.5401 -0.0384
  659MOL0     C90870   6.450  11.057  10.393 -0.4765  0.1896 -0.1666
  659MOL0     C90871   6.512  11.178  10.430 -0.4855 -0.1157  0.1168
  659MOL0     C90872   6.592  11.169  10.564  0.0869  0.4732  0.1212
  659MOL0     H90873   6.390  11.607  10.565 -1.6324  2.5252  1.6158
  659MOL0     H90874   6.384  11.818  10.657  0.6993  0.6833  0.1520
  659MOL0     H90875   6.610  12.184  10.548  1.5992  1.3282  2.2725
  659MOL0     H90876   6.666  12.030  10.589  0.4589 -1.0963  3.1715
  659MOL0     H90877   6.555  12.033  10.806  1.8026  0.3830  0.6116
  659MOL0     H90878   6.680  12.160  10.775 -0.0411  1.9605 -1.7864
  659MOL0     H90879   6.368  12.163  10.773  0.0429 -0.3080  1.6572
  659MOL0     H90880   6.457  12.221  10.902  0.4435 -0.5775 -0.3533
  659MOL0     H90881   6.569  12.382  10.708 -0.5792 -0.4184 -3.3814
  659MOL0     H90882   6.425  12.350  10.621  2.8530  1.6596 -2.3064
  659MOL0     H90883   6.388  12.547  10.750 -0.4939  0.8182  2.0610
  659MOL0     H90884   6.453  12.494  10.896 -0.4196 -0.6508 -0.3173
  659MOL0     H90885   6.193  12.399  10.776 -1.6430 -3.6443  0.1551
  659MOL0     H90886   6.266  12.317  10.921  0.5005 -1.1080 -1.6881
  659MOL0     H90887   6.156  12.599  10.894  2.9568 -0.1648 -1.6096
  659MOL0     H90888   6.256  12.552  11.034  1.9428  1.1757 -1.8913
  659MOL0     H90889   5.992  12.410  10.980 -0.7689  1.5088 -0.0042
  659MOL0     H90890   6.084  12.403  11.124 -1.9566  0.9695  0.1564
  659MOL0     H90891   5.784  12.491  11.054 -0.0855 -1.2387  1.9725
  659MOL0     H90892   5.586  12.675  11.127  1.1948 -2.1996 -1.3147
  659MOL0     H90893   5.652  12.824  11.050 -1.8824  1.2490  2.6050
  659MOL0     H90894   5.684  12.756  11.340 -0.8185 -1.8903 -1.9425
  659MOL0     H90895   5.719  12.909  11.283  1.7016 -1.8502  0.8443
  659MOL0     H90896   5.493  12.945  11.207  0.5392  0.7784  1.3822
  659MOL0     H90897   5.440  12.783  11.222  0.1799  0.8537 -0.7826
  659MOL0     H90898   5.356  12.912  11.402  0.3282  1.7649  3.2521
  659MOL0     H90899   5.491  12.811  11.485  0.4758  2.2532  2.2115
  659MOL0     H90900   5.396  12.926  11.640 -0.0319 -0.1583 -0.6292
  659MOL0     H90901   5.243  13.098  11.916 -0.2775 -2.4981  2.6972
  659MOL0     H90902   5.387  13.012  11.957 -0.1358 -2.2810  1.1771
  659MOL0     H90903   5.260  12.954  11.846 -1.3823  1.3390  1.5771
  659MOL0     H90904   5.456  13.513  12.127  0.3179  1.2008  0.5110
  659MOL0     H90905   5.362  13.668  12.251  2.9030  2.5782 -1.6394
  659MOL0     H90906   5.285  13.835  12.344 -0.1027  1.2806 -0.1515
  659MOL0     H90907   5.168  13.975  12.341 -2.5604  0.0132  1.0216
  659MOL0     H90908   4.997  13.858  12.429  0.1794  0.9631 -2.4233
  659MOL0     H90909   5.068  13.704  12.373 -0.0189  0.3047 -0.3136
  659MOL0     H90910   5.177  13.877  12.594  2.5917 -1.2248  2.3767
  659MOL0     H90911   5.242  13.714  12.555 -2.0467 -1.9435 -0.8869
  659MOL0     H90912   4.996  13.635  12.589  0.5051 -1.0033 -1.4346
  659MOL0     H90913   4.968  13.789  12.648  2.3655  1.4568 -1.5578
  659MOL0     H90914   5.020  13.616  12.823 -2.4537  3.5048  0.0707
  659MOL0     H90915   5.183  13.591  12.751 -0.9822 -0.3333  0.4968
  659MOL0     H90916   5.252  13.813  12.819  1.6654 -1.6345  1.0210
  659MOL0     H90917   5.184  13.739  12.963 -2.5331  1.2597  1.4959
  659MOL0     H90918   4.965  13.839  12.910  1.7560 -2.8447  1.0229
  659MOL0     H90919   5.061  13.945  12.784  1.9946 -0.2592 -0.1830
  659MOL0     H90920   5.211  14.017  12.958 -0.0291  1.9034 -0.4966
  659MOL0     H90921   5.114  13.939  13.078 -3.9900  2.7830  1.0155
  659MOL0     H90922   5.084  13.786  11.949 -2.5777 -1.9425  3.4901
  659MOL0     H90923   5.205  13.616  11.794  2.5600  0.2097  0.3648
  659MOL0     H90924   5.499  13.402  11.640  1.5622 -0.1660 -0.2153
  659MOL0     H90925   5.593  13.258  11.451  0.2556  2.1032  0.8767
  659MOL0     H90926   6.572  11.990  10.316  3.4425 -0.7873  0.8324
  659MOL0     H90927   6.581  11.744  10.207  0.5659 -2.2237 -0.3928
  659MOL0     H90928   6.353  11.385  10.202  1.2326  0.7317 -0.0850
  659MOL0     H90929   6.269  11.171  10.127  2.0070  0.0269 -0.7085
  659MOL0     H90930   6.147  11.018  10.419  2.0280  0.6249  1.2329
  659MOL0     H90931   6.073  10.898  10.316  1.7390 -6.0826 -0.4357
  659MOL0     H90932   6.316  10.783  10.466  0.2438 -0.4081 -2.6350
  659MOL0     H90933   6.144  10.732  10.422  0.6401  2.1395 -4.9417
  659MOL0     H90934   6.241  10.929  10.630 -0.9646  0.2241  1.7517
  659MOL0     H90935   6.089  10.843  10.637  1.8750  3.5737  1.7878
  659MOL0     H90936   6.183  10.629  10.662 -0.5354  0.4996 -1.1836
  659MOL0     H90937   6.186  10.738  10.793 -0.0650  0.9261 -0.0443
  659MOL0     H90938   6.593  10.728  10.797 -0.0519  0.0034  0.0521
  659MOL0     H90939   6.474  10.967  10.448  2.1534  0.4484 -0.7784
  659MOL0     H90940   6.538  11.098  10.628  2.6036 -0.9171  0.8324
  659MOL0     H90941   6.694  11.131  10.557 -0.7365 -2.0009  0.6136
  659MOL0     H90942   6.594  11.263  10.619  4.1623  0.5875  0.0381
  660MOL0     O90943  10.829  10.771  10.422 -0.1659 -0.1501  0.1617
  660MOL0     C90944  10.793  10.768  10.543 -0.1087 -0.5371  0.8589
  660MOL0     O90945  10.824  10.850  10.636 -0.0700 -0.0664  0.5258
  660MOL0     C90946  10.919  10.942  10.619  0.6082  0.4426  0.3896
  660MOL0     C90947  10.887  11.075  10.628 -0.5408 -0.1482  0.6613
  660MOL0     C90948  10.982  11.171  10.636  0.6621 -0.8483  1.1374
  660MOL0     C90949  11.114  11.129  10.658 -1.0148 -0.2868  0.1484
  660MOL0     O90950  11.216  11.227  10.640  0.6481 -0.1183  0.4841
  660MOL0     C90951  11.204  11.335  10.733  0.0808 -1.0547  0.1526
  660MOL0     C90952  11.344  11.358  10.800 -0.3179  0.0553  0.2975
  660MOL0     C90953  11.408  11.258  10.905 -0.3293 -0.1804 -0.3170
  660MOL0     C90954  11.318  11.233  11.029 -0.8201  0.0527  0.0357
  660MOL0     C90955  11.373  11.296  11.154 -0.1055 -0.5714 -0.0102
  660MOL0     C90956  11.275  11.269  11.268 -0.3676 -0.4236  0.1696
  660MOL0     C90957  11.328  11.309  11.408 -0.0531  0.2950 -0.6823
  660MOL0     C90958  11.214  11.372  11.489 -0.1533 -1.4745  0.3737
  660MOL0     N90959  11.257  11.394  11.623  0.7305 -0.2434 -0.8170
  660MOL0     C90960  11.278  11.302  11.723 -0.1797 -0.1586  0.3980
  660MOL0     C90961  11.346  11.366  11.820  0.2158 -0.0632 -0.3352
  660MOL0     C90962  11.359  11.321  11.962  0.7434 -0.2218  0.0600
  660MOL0     C90963  11.379  11.171  11.980  1.0014  0.4241  0.2507
  660MOL0     C90964  11.356  11.124  12.126  0.5234 -0.8858 -0.8311
  660MOL0     C90965  11.418  10.983  12.141  0.0640  0.0020  0.3441
  660MOL0     O90966  11.554  10.979  12.096 -0.4932 -0.0085  0.4101
  660MOL0     C90967  11.618  10.858  12.104 -0.9394  0.1211 -0.0054
  660MOL0     C90968  11.753  10.859  12.080 -0.1647  0.6120  0.9522
  660MOL0     C90969  11.815  10.739  12.058  0.2082  0.5241  0.3455
  660MOL0     C90970  11.958  10.752  12.017 -0.1880  0.4433 -0.7423
  660MOL0     C90971  11.753  10.603  12.081  0.2329 -1.7934  0.7643
  660MOL0     C90972  11.821  10.476  12.090 -0.4992 -0.9577 -0.6224
  660MOL0     O90973  11.745  10.367  12.059  0.3445 -0.1105 -0.4341
  660MOL0     C90974  11.788  10.243  12.066  0.1673  0.2687 -0.5889
  660MOL0     C90975  11.695  10.146  12.117 -0.0122  0.0363 -0.9803
  660MOL0     C90976  11.735  10.004  12.110  0.7453  0.3356  0.1972
  660MOL0     C90977  11.852   9.965  12.043  0.2884 -0.2977  0.9279
  660MOL0     O90978  11.878   9.832  12.036  0.1384  0.3172  0.2595
  660MOL0     C90979  11.934   9.775  11.924  0.0880  0.1993  0.1619
  660MOL0     C90980  11.852   9.658  11.888  0.0036  0.5142  0.2214
  660MOL0     C90981  11.714   9.697  11.832 -0.7743 -0.4796  0.3762
  660MOL0     C90982  11.642   9.573  11.793 -0.1681  0.0038  0.5545
  660MOL0     C90983  11.527   9.608  11.701  0.2705  0.9815 -0.2913
  660MOL0     C90984  11.421   9.698  11.747 -0.4304 -0.1095  1.0700
  660MOL0     C90985  11.286   9.693  11.660 -0.1998  0.2548  0.1252
  660MOL0     C90986  11.294   9.771  11.531  0.4577  0.7092 -0.3145
  660MOL0    Cl90987  11.186   9.720  11.392 -0.0349  0.2480  0.0853
  660MOL0     C90988  11.938  10.064  11.991  1.1351 -0.1774  0.0341
  660MOL0     C90989  11.902  10.194  12.002 -1.0312 -0.0420  0.3189
  660MOL0     O90990  11.924  10.479  12.154 -0.5555  0.5931 -0.0675
  660MOL0     C90991  11.619  10.612  12.115  0.0060 -0.8396 -1.1215
  660MOL0     C90992  11.559  10.736  12.135  0.3066  0.1576  0.4062
  660MOL0     N90993  11.383  11.496  11.776  0.3528 -1.0117  0.3297
  660MOL0     N90994  11.329  11.502  11.651 -0.4597  0.9234  0.5489
  660MOL0     C90995  11.151  10.999  10.644 -0.4902 -0.4231 -0.7374
  660MOL0     C90996  11.051  10.904  10.635  0.0021  0.7028  0.1424
  660MOL0     C90997  10.670  10.685  10.557 -0.5171 -0.2500 -0.5465
  660MOL0     C90998  10.684  10.544  10.528 -0.7869  0.5920  0.7088
  660MOL0     C90999  10.580  10.448  10.533 -0.0615 -0.7105 -0.6233
  660MOL0     C91000  10.453  10.496  10.577  0.2599  0.1974 -0.1625
  660MOL0     O91001  10.350  10.405  10.590  0.0298  0.7249  0.1522
  660MOL0     C91002  10.359  10.318  10.709  0.1375  0.0981  0.7824
  660MOL0     C91003  10.240  10.221  10.727  0.0528  0.7210  0.1170
  660MOL0     C91004  10.119  10.268  10.817 -0.5202 -0.4052 -0.0945
  660MOL0     C91005  10.114  10.255  10.965 -0.9419  0.7250  1.0433
  660MOL0     C91006  10.236  10.298  11.023  0.8740 -0.6057  0.0305
  660MOL0     C91007  10.348  10.337  11.073  0.7766 -0.7118 -0.1949
  660MOL0     C91008  10.437  10.631  10.604 -0.0730 -0.7345 -0.6108
  660MOL0     C91009  10.539  10.728  10.596  0.4672 -0.4271  0.6073
  660MOL0     C91010  10.497  10.878  10.613 -1.0048  0.0199  0.3874
  660MOL0     H91011  10.782  11.096  10.646 -0.8263 -3.3185  3.7504
  660MOL0     H91012  10.946  11.274  10.644 -0.5001 -0.6181 -3.6939
  660MOL0     H91013  11.123  11.311  10.802 -0.2757  0.0711  0.1411
  660MOL0     H91014  11.180  11.427  10.680  0.4896 -0.0852  1.6026
  660MOL0     H91015  11.417  11.362  10.719 -0.9057  0.2997 -0.2291
  660MOL0     H91016  11.330  11.457  10.845 -4.0622 -1.1940  2.3472
  660MOL0     H91017  11.426  11.162  10.857  0.3316 -0.2978  0.1513
  660MOL0     H91018  11.506  11.298  10.935 -0.4930 -1.6724  2.5046
  660MOL0     H91019  11.214  11.262  11.015 -0.2487  1.6252 -1.2824
  660MOL0     H91020  11.314  11.124  11.037 -1.7189 -0.0943 -1.8511
  660MOL0     H91021  11.379  11.406  11.151  0.5784 -0.5894  0.4735
  660MOL0     H91022  11.475  11.265  11.177  0.7094  0.5453 -1.7965
  660MOL0     H91023  11.180  11.320  11.248  1.3000  2.8090 -0.1215
  660MOL0     H91024  11.267  11.160  11.268  2.9971 -0.7631  0.2674
  660MOL0     H91025  11.420  11.369  11.406 -0.7205  1.4112  0.8248
  660MOL0     H91026  11.363  11.218  11.459 -1.1100  0.4333  0.3083
  660MOL0     H91027  11.193  11.472  11.451  4.0091  0.9567  3.5885
  660MOL0     H91028  11.124  11.311  11.498 -0.6463 -1.0360 -1.2328
  660MOL0     H91029  11.248  11.198  11.719 -0.4403 -0.0795 -3.0223
  660MOL0     H91030  11.260  11.336  12.006  0.2559 -0.9097 -0.7737
  660MOL0     H91031  11.430  11.380  12.021  1.2244 -2.0167  1.3656
  660MOL0     H91032  11.325  11.111  11.906 -2.4465 -0.0012  2.8346
  660MOL0     H91033  11.484  11.152  11.955  0.9296 -3.0277  1.9615
  660MOL0     H91034  11.394  11.190  12.204 -1.5514 -0.1993 -0.3481
  660MOL0     H91035  11.250  11.108  12.148  1.0059 -2.1948  0.7966
  660MOL0     H91036  11.413  10.952  12.246  1.0730 -2.4271 -0.2388
  660MOL0     H91037  11.353  10.918  12.082 -1.9678  1.5557  0.7624
  660MOL0     H91038  11.802  10.955  12.067  1.7799 -0.5426 -0.9479
  660MOL0     H91039  11.988  10.665  11.958 -0.9935  0.0068 -0.5146
  660MOL0     H91040  12.019  10.779  12.104  0.9515 -0.6544 -1.1749
  660MOL0     H91041  11.977  10.833  11.946  1.8844 -1.2301 -2.2428
  660MOL0     H91042  11.602  10.171  12.167  0.9201 -2.6908  2.5118
  660MOL0     H91043  11.683   9.917  12.148  2.6698 -0.6384  0.7279
  660MOL0     H91044  11.950   9.846  11.842  0.9477  1.6869  1.5674
  660MOL0     H91045  12.033   9.741  11.954  0.6365  0.8122 -0.8902
  660MOL0     H91046  11.918   9.602  11.822  2.3299 -0.1389  2.8894
  660MOL0     H91047  11.831   9.588  11.969  0.2084 -1.0503 -1.0282
  660MOL0     H91048  11.731   9.754  11.741 -1.3326 -0.9133 -0.0049
  660MOL0     H91049  11.661   9.763  11.903  1.8026  3.2929 -0.9016
  660MOL0     H91050  11.585   9.519  11.869 -1.1369 -1.6553 -1.2725
  660MOL0     H91051  11.710   9.503  11.744 -0.1229  0.3595  0.1034
  660MOL0     H91052  11.564   9.656  11.610  1.7793 -2.0240 -1.4035
  660MOL0     H91053  11.476   9.517  11.667 -4.1247  2.4420  1.6549
  660MOL0     H91054  11.471   9.796  11.739 -0.2888 -0.3184 -2.7269
  660MOL0     H91055  11.395   9.665  11.847 -2.2190 -2.5208 -0.0897
  660MOL0     H91056  11.204   9.729  11.722  0.3678 -1.0997  1.7083
  660MOL0     H91057  11.264   9.587  11.646 -2.5883  0.8129 -0.8153
  660MOL0     H91058  11.397   9.767  11.494  0.0939  0.4569 -1.3326
  660MOL0     H91059  11.280   9.876  11.558  1.1207  0.5360  0.7766
  660MOL0     H91060  12.034  10.047  11.943  1.5012  2.1451 -0.1628
  660MOL0     H91061  11.970  10.265  11.957 -0.7503 -0.4171  0.1439
  660MOL0     H91062  11.550  10.531  12.135 -1.0726  0.0458 -1.1291
  660MOL0     H91063  11.454  10.726  12.157  0.1440 -0.7948 -0.7404
  660MOL0     H91064  11.255  10.969  10.650 -0.2149  0.7540  1.5339
  660MOL0     H91065  11.077  10.799  10.634 -1.2540  0.3811 -0.2477
  660MOL0     H91066  10.779  10.509  10.490 -1.7521 -0.1388 -1.1007
  660MOL0     H91067  10.605  10.346  10.506 -1.1402 -1.0853 -0.2681
  660MOL0     H91068  10.453  10.262  10.700  0.9308  1.7029 -2.9110
  660MOL0     H91069  10.375  10.378  10.799  1.8617 -0.6659  1.0236
  660MOL0     H91070  10.277  10.125  10.763  1.8153  1.5999  0.8121
  660MOL0     H91071  10.187  10.208  10.633 -1.8580 -2.2018  1.4733
  660MOL0     H91072  10.124  10.375  10.796  0.4626 -0.7358 -1.7877
  660MOL0     H91073  10.027  10.225  10.779 -1.5698  2.1196 -0.6158
  660MOL0     H91074  10.077  10.156  10.993 -3.6092  2.1038  2.8156
  660MOL0     H91075  10.038  10.321  11.007  0.6781  1.6233  2.7135
  660MOL0     H91076  10.440  10.362  11.121 -0.2872 -1.4308  2.3677
  660MOL0     H91077  10.342  10.681  10.622  0.2773  0.7612 -2.6242
  660MOL0     H91078  10.403  10.899  10.560 -1.0119  0.4832  0.5724
  660MOL0     H91079  10.489  10.923  10.713 -3.4480 -2.8800  1.6592
  660MOL0     H91080  10.567  10.937  10.554  0.8247 -2.0203  0.4329
  661MOL0     O91081   2.919   1.992   6.792 -0.1624  0.4330 -0.5799
  661MOL0     C91082   2.936   1.965   6.910 -0.4447  1.0191  0.2899
  661MOL0     O91083   2.991   1.844   6.957  0.1301 -0.2661  0.3876
  661MOL0     C91084   3.048   1.756   6.864 -0.2477 -0.6025  0.3753
  661MOL0     C91085   2.991   1.723   6.743 -0.4320 -1.6987  0.6527
  661MOL0     C91086   3.063   1.656   6.648  0.3911 -0.1926  1.5431
  661MOL0     C91087   3.184   1.595   6.682 -0.4262  0.5308 -0.4499
  661MOL0     O91088   3.258   1.539   6.580 -0.0979  0.2544 -0.1904
  661MOL0     C91089   3.288   1.397   6.598  0.0030  0.6216 -0.6390
  661MOL0     C91090   3.360   1.342   6.478  0.4848 -0.0026  0.6886
  661MOL0     C91091   3.493   1.413   6.442  0.3425  0.3552  0.3892
  661MOL0     C91092   3.573   1.335   6.329 -0.1822  0.8043  0.0926
  661MOL0     C91093   3.701   1.412   6.296  0.0865 -0.7901 -0.1146
  661MOL0     C91094   3.669   1.548   6.244 -0.1736  0.0232 -1.1394
  661MOL0     C91095   3.799   1.612   6.185 -0.6073  0.9130 -0.3435
  661MOL0     C91096   3.756   1.752   6.109 -0.1444  0.2280 -1.3652
  661MOL0     N91097   3.875   1.812   6.042  0.9453 -0.6730  0.5057
  661MOL0     C91098   3.988   1.861   6.095  0.0418  0.6611  0.3598
  661MOL0     C91099   4.057   1.924   6.002  0.3545 -0.7765 -0.7173
  661MOL0     C91100   4.185   1.985   6.036 -1.3764 -0.4510  0.2252
  661MOL0     C91101   4.200   2.125   5.976 -0.6835  0.2087 -0.0513
  661MOL0     C91102   4.097   2.229   6.009 -0.2854  0.0825 -0.6461
  661MOL0     C91103   4.152   2.376   5.992  0.9233  0.0285 -0.0043
  661MOL0     O91104   4.228   2.399   6.113 -0.1682 -0.4902  0.0301
  661MOL0     C91105   4.354   2.462   6.110  0.7556  0.1049  0.6912
  661MOL0     C91106   4.393   2.551   6.204  0.3427  0.4902 -0.7164
  661MOL0     C91107   4.521   2.604   6.200 -0.8285 -0.0680 -0.4784
  661MOL0     C91108   4.540   2.727   6.296 -0.0402  1.2355  0.0676
  661MOL0     C91109   4.611   2.570   6.099  0.7683  0.6443 -1.0086
  661MOL0     C91110   4.746   2.631   6.097 -1.0570 -0.6605 -0.1505
  661MOL0     O91111   4.811   2.652   5.973 -0.0438  0.2720  0.4247
  661MOL0     C91112   4.947   2.663   5.969  0.3223  0.0959 -0.3108
  661MOL0     C91113   4.994   2.611   5.850 -1.4208 -0.0954  0.0295
  661MOL0     C91114   5.131   2.629   5.824  0.3470  1.3296 -0.1853
  661MOL0     C91115   5.221   2.679   5.922  0.3391 -0.1744 -0.4414
  661MOL0     O91116   5.364   2.680   5.916  0.6704 -0.6590  0.5211
  661MOL0     C91117   5.421   2.600   5.814 -0.1660  0.8453 -0.4552
  661MOL0     C91118   5.580   2.585   5.836 -0.2262  0.0858  0.4316
  661MOL0     C91119   5.656   2.722   5.807 -0.6041 -0.5275  0.4123
  661MOL0     C91120   5.690   2.758   5.664  0.3983 -0.0083  0.0631
  661MOL0     C91121   5.700   2.900   5.629 -0.0372 -1.0672  0.5323
  661MOL0     C91122   5.794   2.965   5.728 -0.5713 -0.1676 -0.1731
  661MOL0     C91123   5.800   3.115   5.684  0.0051  0.7054  0.1841
  661MOL0     C91124   5.868   3.209   5.781 -0.5772 -0.3877  0.1687
  661MOL0    Cl91125   6.020   3.148   5.828  0.4392 -0.0812  0.0893
  661MOL0     C91126   5.168   2.717   6.051 -0.0059  0.2919  0.1581
  661MOL0     C91127   5.032   2.714   6.065  0.4832  0.0147 -0.1394
  661MOL0     O91128   4.798   2.644   6.207  0.0122 -0.8804  0.1284
  661MOL0     C91129   4.566   2.481   5.994  0.2837  0.3895  0.2641
  661MOL0     C91130   4.446   2.431   6.002  0.1170 -0.1068 -0.4559
  661MOL0     N91131   3.990   1.917   5.877 -0.6215  0.2237  0.6729
  661MOL0     N91132   3.878   1.855   5.911 -0.3492 -0.3952  0.1345
  661MOL0     C91133   3.231   1.600   6.809 -0.5323 -0.1956 -0.4230
  661MOL0     C91134   3.159   1.678   6.904  0.2668  0.9762 -0.2690
  661MOL0     C91135   2.894   2.054   7.020  0.4055 -0.1374  0.1285
  661MOL0     C91136   2.879   1.998   7.147 -1.2474 -0.6511 -1.3188
  661MOL0     C91137   2.848   2.067   7.263 -0.3471 -0.8004  0.4609
  661MOL0     C91138   2.842   2.206   7.260  0.8097 -0.3422  0.8510
  661MOL0     O91139   2.810   2.279   7.372 -0.1199 -0.4183 -0.0718
  661MOL0     C91140   2.766   2.207   7.489 -0.9520 -0.3652 -0.2136
  661MOL0     C91141   2.692   2.299   7.585  0.2365  0.8704 -0.4083
  661MOL0     C91142   2.604   2.210   7.680  0.7559 -0.6897 -0.1016
  661MOL0     C91143   2.515   2.289   7.778 -0.6879  0.4415 -0.5070
  661MOL0     C91144   2.475   2.199   7.884  0.8310  0.3387  0.0196
  661MOL0     C91145   2.435   2.130   7.986  0.5039 -0.3348 -0.3729
  661MOL0     C91146   2.857   2.264   7.127  0.2869 -0.2438 -0.8816
  661MOL0     C91147   2.888   2.198   7.009 -0.1311  0.7957  0.0250
  661MOL0     C91148   2.894   2.277   6.884  0.5889  0.9883  0.2883
  661MOL0     H91149   2.892   1.748   6.707  0.4014 -3.1174 -3.1416
  661MOL0     H91150   3.025   1.641   6.548  1.5818  2.7742  0.5290
  661MOL0     H91151   3.199   1.335   6.610 -1.3251  2.7339  1.2591
  661MOL0     H91152   3.352   1.377   6.684 -0.2065  0.8610 -0.4239
  661MOL0     H91153   3.382   1.239   6.506  2.0287 -0.2126 -1.1030
  661MOL0     H91154   3.296   1.350   6.390 -0.5786  0.7981  1.5098
  661MOL0     H91155   3.473   1.514   6.404  1.2928  1.0271  1.6035
  661MOL0     H91156   3.554   1.429   6.532  0.6795 -0.4911  0.3163
  661MOL0     H91157   3.582   1.231   6.362 -2.1318  0.4447 -0.4083
  661MOL0     H91158   3.512   1.332   6.239 -0.3232  0.6348  0.1932
  661MOL0     H91159   3.768   1.361   6.226 -1.1946 -0.7584 -1.4145
  661MOL0     H91160   3.757   1.427   6.389 -0.1639  2.3160 -0.3559
  661MOL0     H91161   3.601   1.538   6.159 -1.0888 -3.7312 -0.1519
  661MOL0     H91162   3.633   1.617   6.320  0.9562 -2.3946  1.7987
  661MOL0     H91163   3.841   1.546   6.110  0.8470  1.0362  0.3234
  661MOL0     H91164   3.875   1.634   6.261  0.0337  1.1875 -1.0527
  661MOL0     H91165   3.672   1.737   6.041 -1.1196  0.7332 -0.2877
  661MOL0     H91166   3.718   1.815   6.189 -1.1520  0.4441 -1.9952
  661MOL0     H91167   4.023   1.841   6.196  0.5176  3.4938  0.8387
  661MOL0     H91168   4.278   1.931   6.014 -1.1611 -0.6994  1.6041
  661MOL0     H91169   4.195   1.995   6.145  3.9796 -1.8377  0.1577
  661MOL0     H91170   4.285   2.156   6.038 -1.1527 -1.5487  1.5610
  661MOL0     H91171   4.226   2.119   5.870  1.6896  1.6333  0.3771
  661MOL0     H91172   4.011   2.198   5.948 -0.3319 -0.9021 -0.1104
  661MOL0     H91173   4.077   2.204   6.113 -2.0777 -4.2144 -1.7596
  661MOL0     H91174   4.208   2.383   5.898  1.8038  0.2820  0.5285
  661MOL0     H91175   4.065   2.442   5.987 -0.7021 -1.6389  3.2376
  661MOL0     H91176   4.321   2.569   6.284  0.4874 -0.4236 -0.3713
  661MOL0     H91177   4.559   2.679   6.393  1.0220  1.9194  0.2144
  661MOL0     H91178   4.443   2.776   6.310 -0.1903  0.1437  4.7691
  661MOL0     H91179   4.617   2.800   6.270 -1.6350  2.7827 -0.5511
  661MOL0     H91180   4.929   2.567   5.775 -1.0043  0.6156 -0.7639
  661MOL0     H91181   5.161   2.599   5.724  0.0964  0.1991  0.0722
  661MOL0     H91182   5.377   2.500   5.822  2.8766 -0.5692  0.1317
  661MOL0     H91183   5.403   2.644   5.715  2.9603 -0.4481 -1.7618
  661MOL0     H91184   5.611   2.551   5.935  0.0581 -0.1056  0.2790
  661MOL0     H91185   5.634   2.508   5.780  1.1958 -1.2412  3.4039
  661MOL0     H91186   5.747   2.738   5.865 -0.6280  2.7094 -0.2072
  661MOL0     H91187   5.596   2.809   5.838 -1.3266 -0.2857 -1.4917
  661MOL0     H91188   5.623   2.715   5.588  3.5892  0.4703 -3.3347
  661MOL0     H91189   5.784   2.706   5.647  0.4665 -0.7766  2.4468
  661MOL0     H91190   5.730   2.916   5.525 -2.9484  0.3755 -0.1859
  661MOL0     H91191   5.599   2.944   5.628  0.3731  0.1063 -2.7119
  661MOL0     H91192   5.892   2.918   5.712 -0.9863 -0.7174 -1.2098
  661MOL0     H91193   5.764   2.966   5.833  1.0531 -1.3720  0.3525
  661MOL0     H91194   5.708   3.164   5.648  0.1375 -0.9364 -2.7348
  661MOL0     H91195   5.866   3.119   5.597  1.9736  1.4254  1.6387
  661MOL0     H91196   5.801   3.237   5.864  0.2670 -3.8335  2.2279
  661MOL0     H91197   5.879   3.297   5.717 -5.6704  0.3604 -0.1481
  661MOL0     H91198   5.232   2.746   6.133 -0.4599  0.1072  0.5851
  661MOL0     H91199   5.003   2.754   6.162 -1.5973  0.0941 -0.7516
  661MOL0     H91200   4.634   2.468   5.911 -1.2636  1.3643 -1.2196
  661MOL0     H91201   4.407   2.355   5.935  0.0518  0.4750 -1.0882
  661MOL0     H91202   3.321   1.547   6.839 -1.4800 -2.8445 -1.9251
  661MOL0     H91203   3.177   1.674   7.011 -2.7100  1.3623  0.3393
  661MOL0     H91204   2.893   1.892   7.161 -0.6888 -0.1636  4.7646
  661MOL0     H91205   2.820   2.002   7.346 -0.5718 -0.5388  0.5905
  661MOL0     H91206   2.702   2.120   7.467 -0.9313 -0.1137 -1.3392
  661MOL0     H91207   2.860   2.171   7.531 -1.7793 -0.1594  1.9598
  661MOL0     H91208   2.628   2.369   7.530 -3.5656 -2.4794 -0.6730
  661MOL0     H91209   2.763   2.353   7.648  3.1606  0.8817 -3.4407
  661MOL0     H91210   2.537   2.148   7.620 -0.3269  0.3170  0.0297
  661MOL0     H91211   2.659   2.132   7.734 -2.8943 -0.9356  3.7755
  661MOL0     H91212   2.434   2.337   7.722 -0.6870 -1.5823 -2.4278
  661MOL0     H91213   2.576   2.371   7.817  1.4748  0.7923 -4.0902
  661MOL0     H91214   2.406   2.094   8.083 -1.0348  0.3142 -0.5725
  661MOL0     H91215   2.846   2.372   7.128  1.3395 -0.0980  1.4994
  661MOL0     H91216   2.963   2.362   6.893  2.8770 -0.5113 -1.6304
  661MOL0     H91217   2.924   2.232   6.789 -0.6549  1.3566 -0.3018
  661MOL0     H91218   2.790   2.304   6.866 -0.4347 -0.9795  2.7172
  662MOL0     O91219   5.642  10.831   3.407  0.1954  0.2445 -0.4975
  662MOL0     C91220   5.766  10.856   3.387 -1.3061  0.6705 -0.1938
  662MOL0     O91221   5.851  10.774   3.326 -0.8762  0.7118  0.7300
  662MOL0     C91222   5.794  10.664   3.269 -0.2327 -0.1841  0.0916
  662MOL0     C91223   5.707  10.665   3.160  1.0130 -0.5474  0.5109
  662MOL0     C91224   5.633  10.545   3.126  0.4154  0.5509  0.3679
  662MOL0     C91225   5.669  10.425   3.183  0.6158 -0.1523  0.0386
  662MOL0     O91226   5.614  10.306   3.134 -0.2475 -0.0944 -0.2872
  662MOL0     C91227   5.706  10.232   3.061 -0.9286  0.6581  0.5532
  662MOL0     C91228   5.681  10.077   3.078  0.0695 -0.3578 -0.0655
  662MOL0     C91229   5.790   9.993   3.013 -0.1815  0.0477 -0.1557
  662MOL0     C91230   5.783   9.837   3.049 -0.7634 -0.1736 -0.2343
  662MOL0     C91231   5.909   9.756   3.008  1.4982  0.3077 -0.2317
  662MOL0     C91232   6.031   9.806   3.075 -1.0325 -0.6102 -0.4872
  662MOL0     C91233   6.159   9.726   3.037  0.0245 -0.5591 -0.2844
  662MOL0     C91234   6.275   9.721   3.140  0.5947 -0.0426  0.5672
  662MOL0     N91235   6.364   9.610   3.131 -0.4542  0.6154 -0.1137
  662MOL0     C91236   6.420   9.562   3.018  0.2005 -0.0293  0.2761
  662MOL0     C91237   6.526   9.488   3.057  0.8843  0.9273 -0.9472
  662MOL0     C91238   6.629   9.424   2.975 -0.8074  0.9604  0.0199
  662MOL0     C91239   6.766   9.496   2.966 -0.0288 -0.5531 -0.0477
  662MOL0     C91240   6.756   9.647   2.975 -0.6221  0.9749 -0.3183
  662MOL0     C91241   6.724   9.724   2.849 -0.0246  1.5137 -0.0802
  662MOL0     O91242   6.636   9.648   2.762  0.0874 -0.1219  0.5911
  662MOL0     C91243   6.557   9.717   2.667  0.9900 -0.5699 -0.2605
  662MOL0     C91244   6.460   9.642   2.603 -0.0226  1.3363 -0.4235
  662MOL0     C91245   6.378   9.693   2.506  0.5008 -1.0296  0.7192
  662MOL0     C91246   6.297   9.590   2.424  0.3784 -0.3839  0.3779
  662MOL0     C91247   6.395   9.837   2.458  0.1524 -0.1186 -0.5685
  662MOL0     C91248   6.321   9.903   2.354  0.0209  0.4610  0.2030
  662MOL0     O91249   6.372  10.024   2.316 -0.8230  0.1211  0.0304
  662MOL0     C91250   6.296  10.126   2.270 -0.7209 -0.0329  0.8403
  662MOL0     C91251   6.226  10.111   2.148  0.3590 -0.4176  0.1597
  662MOL0     C91252   6.162  10.226   2.101  0.8954 -0.0557 -0.2211
  662MOL0     C91253   6.162  10.347   2.175 -1.2124 -0.8790 -0.5414
  662MOL0     O91254   6.091  10.459   2.131 -0.1022  0.3905 -0.2907
  662MOL0     C91255   6.173  10.528   2.028  0.1451  0.8139 -0.2172
  662MOL0     C91256   6.136  10.682   2.017  0.4532  1.3517  0.2226
  662MOL0     C91257   6.227  10.736   1.904  0.4150  0.2294  0.0912
  662MOL0     C91258   6.193  10.878   1.864 -1.0057  0.2044  0.7430
  662MOL0     C91259   6.064  10.887   1.785 -0.7111 -0.4731  0.5771
  662MOL0     C91260   6.051  11.019   1.702 -0.2119 -0.2633  0.5623
  662MOL0     C91261   6.014  11.150   1.783 -0.0759 -0.0381  0.1748
  662MOL0     C91262   6.013  11.271   1.681  0.3208  0.0508 -1.1471
  662MOL0    Cl91263   5.911  11.241   1.534  0.1254 -0.3350  0.5784
  662MOL0     C91264   6.224  10.358   2.297 -0.0658  0.4514  0.0986
  662MOL0     C91265   6.293  10.248   2.342  0.7463  1.0713 -0.1622
  662MOL0     O91266   6.212   9.858   2.318  0.1325 -0.3744  1.1859
  662MOL0     C91267   6.504   9.903   2.522  0.0364  0.2354  0.1957
  662MOL0     C91268   6.582   9.844   2.620  0.6300 -0.3415 -0.2040
  662MOL0     N91269   6.535   9.506   3.196  0.3485  0.0552 -0.4400
  662MOL0     N91270   6.441   9.577   3.241 -0.1834  0.2035 -0.0825
  662MOL0     C91271   5.762  10.422   3.289  1.0115  0.9000 -0.5086
  662MOL0     C91272   5.820  10.541   3.329  0.9172 -0.7017  0.3047
  662MOL0     C91273   5.837  10.975   3.440  0.2266 -0.1486  0.2146
  662MOL0     C91274   5.913  10.955   3.551 -0.0707  0.7089 -0.7243
  662MOL0     C91275   5.960  11.070   3.609  0.0521 -0.2351  0.2703
  662MOL0     C91276   5.942  11.205   3.570 -0.7136 -0.0478  0.4834
  662MOL0     O91277   5.973  11.302   3.656  0.2067  0.3962  0.0047
  662MOL0     C91278   5.972  11.438   3.610 -0.3374  0.0972 -0.6576
  662MOL0     C91279   5.996  11.528   3.726 -0.8144 -0.3029  0.5674
  662MOL0     C91280   5.886  11.533   3.836  0.0409 -0.6729 -0.1469
  662MOL0     C91281   5.741  11.553   3.788 -0.1572  0.0605  0.5773
  662MOL0     C91282   5.723  11.671   3.704 -0.8290 -0.1919  0.5241
  662MOL0     C91283   5.711  11.771   3.639  0.4587 -0.2897 -0.8063
  662MOL0     C91284   5.872  11.218   3.446  0.5595  0.0349  0.2688
  662MOL0     C91285   5.812  11.107   3.386  0.1494 -0.3485 -0.2224
  662MOL0     C91286   5.732  11.131   3.260  0.0351 -0.6314  0.0080
  662MOL0     H91287   5.680  10.758   3.113  0.0214 -0.1231  1.8639
  662MOL0     H91288   5.560  10.570   3.051 -0.8931  2.1879  2.1045
  662MOL0     H91289   5.805  10.262   3.096 -0.3936  1.1368 -1.2483
  662MOL0     H91290   5.686  10.241   2.953  0.8020 -0.7926  0.0631
  662MOL0     H91291   5.667  10.067   3.186 -0.3597  0.2078 -0.0633
  662MOL0     H91292   5.582  10.052   3.038 -1.1508  4.1046 -0.3626
  662MOL0     H91293   5.779  10.018   2.907  1.6233  4.4427  0.4652
  662MOL0     H91294   5.889  10.036   3.032 -0.2024  0.2474 -0.4896
  662MOL0     H91295   5.775   9.824   3.157 -0.3030 -3.9697 -0.5322
  662MOL0     H91296   5.694   9.795   3.001 -0.4320 -1.8433  0.5439
  662MOL0     H91297   5.903   9.768   2.899  0.9059  0.7063 -0.1584
  662MOL0     H91298   5.889   9.652   3.034 -1.8371  0.9990  0.4614
  662MOL0     H91299   6.050   9.910   3.047  1.8443 -1.5168 -2.3098
  662MOL0     H91300   6.032   9.799   3.184  1.3708  1.2685 -0.3238
  662MOL0     H91301   6.201   9.757   2.941  0.8358  2.6985  1.0078
  662MOL0     H91302   6.131   9.622   3.014  0.5907 -0.4738 -1.5001
  662MOL0     H91303   6.323   9.818   3.154 -0.0604  0.5830 -1.2197
  662MOL0     H91304   6.227   9.698   3.236 -0.6921  0.2542  0.0254
  662MOL0     H91305   6.402   9.586   2.914 -3.2187  2.0777  1.2122
  662MOL0     H91306   6.597   9.411   2.871  0.3237 -2.7795 -0.0175
  662MOL0     H91307   6.636   9.323   3.017 -0.4785  0.7753 -0.4776
  662MOL0     H91308   6.831   9.473   3.051  3.3450  3.1973 -1.3008
  662MOL0     H91309   6.815   9.483   2.869 -0.0088  2.5106 -0.5393
  662MOL0     H91310   6.705   9.696   3.059 -0.9427 -0.2213  0.2096
  662MOL0     H91311   6.862   9.661   3.000 -0.1226 -2.6711  0.0419
  662MOL0     H91312   6.682   9.823   2.873 -0.3986  0.8986  1.9894
  662MOL0     H91313   6.809   9.744   2.784 -0.6647 -0.1220 -1.4956
  662MOL0     H91314   6.439   9.542   2.638 -2.3095  1.5800 -0.9364
  662MOL0     H91315   6.194   9.594   2.459 -0.4825 -0.0300 -1.9884
  662MOL0     H91316   6.337   9.493   2.456  0.0147 -0.7770 -0.3333
  662MOL0     H91317   6.300   9.610   2.316  1.3255 -0.3857  0.3983
  662MOL0     H91318   6.227  10.019   2.090  1.1217  0.4684 -1.3044
  662MOL0     H91319   6.107  10.227   2.007  0.8041  3.0208 -0.2181
  662MOL0     H91320   6.275  10.521   2.065 -0.4581 -1.8101  1.1921
  662MOL0     H91321   6.163  10.479   1.930  0.3355 -1.2709  0.7578
  662MOL0     H91322   6.035  10.683   1.976  0.9134 -3.1583 -1.5638
  662MOL0     H91323   6.143  10.742   2.108  1.7976 -1.1738  1.8847
  662MOL0     H91324   6.228  10.668   1.818 -1.3231  0.8519 -0.4629
  662MOL0     H91325   6.324  10.738   1.953  2.1283 -0.8522 -2.9860
  662MOL0     H91326   6.274  10.934   1.817 -2.7500  2.4136  0.1823
  662MOL0     H91327   6.176  10.927   1.960  3.8807 -1.1950  2.5950
  662MOL0     H91328   6.074  10.810   1.708 -0.3279  0.5250 -0.4115
  662MOL0     H91329   5.972  10.863   1.839  0.3115 -3.4419  1.1851
  662MOL0     H91330   5.982  11.014   1.617  0.2764  1.3420  0.0248
  662MOL0     H91331   6.150  11.035   1.657 -0.6598 -5.3254 -3.1155
  662MOL0     H91332   6.083  11.168   1.866  3.3426 -1.7508 -2.0758
  662MOL0     H91333   5.913  11.133   1.822  0.8969 -2.4125  1.9339
  662MOL0     H91334   6.116  11.283   1.646  0.9130 -0.8374  0.1779
  662MOL0     H91335   5.989  11.364   1.732 -1.0418  0.1614 -1.9621
  662MOL0     H91336   6.210  10.450   2.354 -1.4165  0.2323  0.1608
  662MOL0     H91337   6.345  10.244   2.437 -0.0560  0.0982  0.2493
  662MOL0     H91338   6.532  10.004   2.496 -2.9033  0.4672 -2.8748
  662MOL0     H91339   6.680   9.888   2.638 -0.1935  1.6695 -0.3876
  662MOL0     H91340   5.785  10.333   3.345  0.4755  0.0521 -1.6001
  662MOL0     H91341   5.883  10.535   3.417  1.0276 -1.3894  0.1877
  662MOL0     H91342   5.917  10.855   3.594 -0.9966  1.4992  1.2957
  662MOL0     H91343   6.009  11.079   3.706 -0.0241  3.5601  0.1193
  662MOL0     H91344   6.058  11.444   3.542 -1.0150 -0.0163 -1.5339
  662MOL0     H91345   5.883  11.472   3.556  0.5885  0.2841 -2.1459
  662MOL0     H91346   5.999  11.626   3.677  0.5285  0.3194  1.8387
  662MOL0     H91347   6.093  11.498   3.764 -0.9450 -2.5590 -0.7002
  662MOL0     H91348   5.878  11.450   3.906 -2.0073 -1.3475 -1.1037
  662MOL0     H91349   5.897  11.628   3.887 -1.0611  0.7618 -2.4052
  662MOL0     H91350   5.677  11.553   3.877 -0.1273  0.5268  0.6037
  662MOL0     H91351   5.695  11.469   3.736 -3.5589  2.3384 -0.4441
  662MOL0     H91352   5.711  11.865   3.588  0.4334  0.2960  0.2275
  662MOL0     H91353   5.868  11.318   3.404  1.7153  0.5606  1.3693
  662MOL0     H91354   5.709  11.237   3.247  1.7464 -0.2386 -0.0956
  662MOL0     H91355   5.778  11.096   3.167 -1.3252 -0.2074 -0.8472
  662MOL0     H91356   5.637  11.079   3.274  0.1454 -0.4569  1.5060
  663MOL0     O91357   7.481   1.987  11.223  0.3323  0.2688  0.5716
  663MOL0     C91358   7.574   1.979  11.303 -0.2271  0.0863 -0.0570
  663MOL0     O91359   7.706   2.001  11.283  1.1746 -0.0159  0.3479
  663MOL0     C91360   7.753   2.076  11.173 -0.2319 -0.2898 -1.1586
  663MOL0     C91361   7.889   2.093  11.193 -0.4781 -0.1360 -0.1533
  663MOL0     C91362   7.954   2.175  11.103 -0.3929 -0.9658  0.2627
  663MOL0     C91363   7.886   2.248  11.002 -0.7007  0.4314 -0.2163
  663MOL0     O91364   7.947   2.342  10.923  0.5637 -0.0829 -0.6353
  663MOL0     C91365   8.045   2.425  10.979 -0.8879 -0.5288  0.7892
  663MOL0     C91366   8.096   2.542  10.885 -0.3501 -0.8811  0.4577
  663MOL0     C91367   8.191   2.647  10.946 -0.3516  1.2255 -0.5105
  663MOL0     C91368   8.242   2.744  10.847  0.2378 -1.0763 -0.3904
  663MOL0     C91369   8.351   2.834  10.897  0.4486  1.3157  0.8353
  663MOL0     C91370   8.414   2.924  10.796 -0.8234 -1.2476  0.3545
  663MOL0     C91371   8.500   2.868  10.689  0.2685  0.8805  0.1949
  663MOL0     C91372   8.569   2.975  10.604  0.1853  0.3670 -0.9767
  663MOL0     N91373   8.672   2.908  10.521 -0.2588  0.2436 -0.1691
  663MOL0     C91374   8.729   2.949  10.404 -0.3582  0.4528 -0.7302
  663MOL0     C91375   8.833   2.863  10.380  0.2655 -0.4018  0.2590
  663MOL0     C91376   8.940   2.872  10.272 -0.3830  0.7920 -0.4498
  663MOL0     C91377   9.025   3.003  10.281 -0.2101 -0.4823  0.1432
  663MOL0     C91378   9.143   2.980  10.180  0.7449  1.1321  0.2973
  663MOL0     C91379   9.242   3.097  10.165  0.0684 -0.0571 -0.5880
  663MOL0     O91380   9.176   3.203  10.087  0.1132 -0.1215 -0.2413
  663MOL0     C91381   9.227   3.328  10.090 -0.1179 -0.0527 -0.8322
  663MOL0     C91382   9.201   3.416   9.987  0.5646 -1.1580  0.2926
  663MOL0     C91383   9.239   3.553   9.995 -0.0042 -0.5211 -0.6039
  663MOL0     C91384   9.202   3.648   9.881 -0.1766 -1.0147  0.7788
  663MOL0     C91385   9.304   3.605  10.118 -0.2750 -1.4099  0.9141
  663MOL0     C91386   9.365   3.742  10.118 -0.2848 -0.1997  0.1921
  663MOL0     O91387   9.279   3.846  10.145 -0.3519 -0.6289  0.7047
  663MOL0     C91388   9.322   3.972  10.108 -0.3150  0.0673 -0.2222
  663MOL0     C91389   9.407   4.038  10.193  0.7383 -0.4084 -0.7462
  663MOL0     C91390   9.433   4.174  10.181  0.4755 -0.6222  1.1721
  663MOL0     C91391   9.358   4.235  10.082 -0.8452 -0.0431 -0.8204
  663MOL0     O91392   9.364   4.369  10.044  0.3061  0.2245  0.3748
  663MOL0     C91393   9.395   4.467  10.145  0.9585  0.4332  0.0962
  663MOL0     C91394   9.389   4.602  10.067  0.3214 -0.1291 -0.2166
  663MOL0     C91395   9.406   4.726  10.159  0.7408 -0.4002 -0.9322
  663MOL0     C91396   9.433   4.861  10.082 -0.3647 -0.7257  0.9016
  663MOL0     C91397   9.444   4.984  10.166  0.2384 -0.2890  0.3115
  663MOL0     C91398   9.575   4.982  10.255 -0.2470 -0.8868 -0.7533
  663MOL0     C91399   9.564   5.091  10.358  0.4745 -0.3417 -0.3346
  663MOL0     C91400   9.687   5.106  10.451  0.0077 -0.5331 -1.4413
  663MOL0    Cl91401   9.829   5.129  10.331  0.0848  0.1729  0.4264
  663MOL0     C91402   9.281   4.164   9.995  0.7394  0.5637 -0.3669
  663MOL0     C91403   9.251   4.030  10.010 -0.7351 -0.4945  0.9073
  663MOL0     O91404   9.490   3.747  10.095  0.0520  0.8351  0.5377
  663MOL0     C91405   9.326   3.520  10.220  0.3408 -0.1231 -0.5651
  663MOL0     C91406   9.284   3.382  10.210  0.0726 -0.0028 -0.7646
  663MOL0     N91407   8.820   2.763  10.468 -0.4809  1.0690  0.1206
  663MOL0     N91408   8.736   2.792  10.560 -0.4398 -0.1949  0.1219
  663MOL0     C91409   7.755   2.220  10.981 -0.5360  0.2556 -0.0617
  663MOL0     C91410   7.679   2.143  11.073 -0.1144 -0.2879  0.0989
  663MOL0     C91411   7.548   1.893  11.423 -1.4014 -1.0441 -0.7701
  663MOL0     C91412   7.647   1.791  11.451  0.0498 -0.2052  0.5338
  663MOL0     C91413   7.632   1.681  11.525  0.1779  0.3515 -1.3829
  663MOL0     C91414   7.512   1.667  11.599  0.4310 -0.1666  0.5426
  663MOL0     O91415   7.489   1.568  11.688 -0.2942  0.6459 -1.4030
  663MOL0     C91416   7.587   1.472  11.730  0.1041  0.4523 -0.3101
  663MOL0     C91417   7.679   1.537  11.849 -0.3380 -0.2116 -0.0473
  663MOL0     C91418   7.799   1.619  11.800 -0.6928  0.0132 -0.2022
  663MOL0     C91419   7.908   1.633  11.909  0.3809  0.7632  0.5942
  663MOL0     C91420   8.024   1.693  11.836  0.9620  0.6916  0.0184
  663MOL0     C91421   8.106   1.755  11.773 -0.3233  0.0044 -0.2204
  663MOL0     C91422   7.417   1.769  11.576  0.7158 -1.1618 -0.9788
  663MOL0     C91423   7.427   1.878  11.490  0.1550  0.1160  0.0199
  663MOL0     C91424   7.312   1.963  11.478  0.9057  0.0035  0.0618
  663MOL0     H91425   7.935   2.032  11.270  1.0850  1.1077 -0.0592
  663MOL0     H91426   8.063   2.172  11.111 -0.4530 -0.4827  1.4007
  663MOL0     H91427   8.137   2.369  10.999 -0.3525 -0.4342 -1.1961
  663MOL0     H91428   8.014   2.476  11.071 -2.0738 -2.2907  1.4061
  663MOL0     H91429   8.145   2.494  10.800 -1.6733 -0.6060 -0.4921
  663MOL0     H91430   8.014   2.603  10.848  0.2892 -0.3498 -0.1036
  663MOL0     H91431   8.143   2.708  11.022  0.6015  0.0292  1.1071
  663MOL0     H91432   8.277   2.591  10.983 -2.8937 -1.7092  1.4625
  663MOL0     H91433   8.287   2.697  10.759 -1.3883 -1.6797 -0.9409
  663MOL0     H91434   8.160   2.807  10.812  1.0869 -1.0901 -2.5443
  663MOL0     H91435   8.427   2.759  10.923  0.3427  1.0593  0.4157
  663MOL0     H91436   8.311   2.886  10.984 -3.0297  0.6886 -0.2403
  663MOL0     H91437   8.323   2.974  10.762  0.6359  3.1153  2.1083
  663MOL0     H91438   8.466   3.005  10.849  1.3739 -0.1996 -3.0346
  663MOL0     H91439   8.432   2.800  10.638 -1.1053 -0.2046  3.2794
  663MOL0     H91440   8.581   2.810  10.735 -1.1259 -0.7620  0.6875
  663MOL0     H91441   8.490   3.009  10.536  0.2752  0.1087 -1.2136
  663MOL0     H91442   8.623   3.055  10.656  0.4615  0.4738 -1.4225
  663MOL0     H91443   8.706   3.050  10.371  1.4006  1.8819  2.0549
  663MOL0     H91444   8.883   2.874  10.178 -0.4100  0.4100 -0.4438
  663MOL0     H91445   8.996   2.777  10.271 -0.9717  0.4258 -1.8063
  663MOL0     H91446   8.960   3.088  10.259  0.5961  0.1175  0.0314
  663MOL0     H91447   9.060   3.027  10.382 -0.6565  0.2570  0.1274
  663MOL0     H91448   9.195   2.892  10.218 -1.8082 -0.3789  0.5498
  663MOL0     H91449   9.114   2.944  10.081 -0.7137  3.4902 -0.2215
  663MOL0     H91450   9.256   3.126  10.269 -2.3180  1.1806 -0.5387
  663MOL0     H91451   9.338   3.078  10.117  0.0945  0.8465 -0.9131
  663MOL0     H91452   9.148   3.376   9.900 -2.0227 -4.0044  2.9306
  663MOL0     H91453   9.289   3.703   9.843 -2.4487  2.3518 -0.0183
  663MOL0     H91454   9.128   3.726   9.903 -0.5187  0.7162 -4.8199
  663MOL0     H91455   9.154   3.601   9.794 -3.5687  1.9880  0.7873
  663MOL0     H91456   9.459   3.999  10.280  0.0631  1.7087  0.6824
  663MOL0     H91457   9.508   4.220  10.246  2.0806 -0.8995 -0.4143
  663MOL0     H91458   9.312   4.457  10.216 -0.7607 -2.6488 -2.1589
  663MOL0     H91459   9.490   4.455  10.199  0.4599 -1.6405  0.5918
  663MOL0     H91460   9.459   4.602   9.983 -0.4402 -0.7279 -0.8670
  663MOL0     H91461   9.290   4.607  10.021  0.3067 -4.3524 -1.0871
  663MOL0     H91462   9.483   4.716  10.236  0.5822  0.0134 -0.7148
  663MOL0     H91463   9.311   4.725  10.214  1.2348  0.0461 -0.0426
  663MOL0     H91464   9.361   4.872  10.001  1.5607 -3.4897 -1.3711
  663MOL0     H91465   9.531   4.854  10.033 -0.2097  3.6509  0.1094
  663MOL0     H91466   9.466   5.068  10.100 -1.6956 -0.7894 -1.0366
  663MOL0     H91467   9.355   4.990  10.228  1.4896 -1.8364  2.4067
  663MOL0     H91468   9.665   4.979  10.193  1.9955 -2.2529  2.2742
  663MOL0     H91469   9.576   4.892  10.317 -0.4252  0.0560  0.6783
  663MOL0     H91470   9.473   5.061  10.411  0.4397 -2.2310 -1.3693
  663MOL0     H91471   9.546   5.189  10.311  2.0219  2.9163  4.9994
  663MOL0     H91472   9.713   5.022  10.516 -2.5741 -1.0656 -0.9845
  663MOL0     H91473   9.662   5.195  10.510  0.1291  0.3410 -2.6693
  663MOL0     H91474   9.220   4.190   9.909 -0.9482 -1.7632  0.0387
  663MOL0     H91475   9.175   3.988   9.946 -0.8213 -0.3342  0.9016
  663MOL0     H91476   9.354   3.535  10.324 -1.4192 -0.3601 -0.0282
  663MOL0     H91477   9.292   3.328  10.304 -1.4023  4.4055  2.2176
  663MOL0     H91478   7.696   2.278  10.911  1.2965  1.7189 -0.4841
  663MOL0     H91479   7.571   2.154  11.071 -0.0712  0.7069  1.6311
  663MOL0     H91480   7.733   1.795  11.384 -0.2141  3.2699  0.2417
  663MOL0     H91481   7.704   1.600  11.515  0.6637  0.4186  0.9952
  663MOL0     H91482   7.530   1.395  11.783  2.1152  0.0599  1.4069
  663MOL0     H91483   7.641   1.419  11.651  0.4963  0.4527 -0.0421
  663MOL0     H91484   7.702   1.460  11.923 -4.9402  1.9805  4.2973
  663MOL0     H91485   7.624   1.601  11.918  1.2988 -2.5186  3.7412
  663MOL0     H91486   7.854   1.578  11.715  3.5497  2.0793  1.2621
  663MOL0     H91487   7.762   1.716  11.765 -0.5577  0.0283 -0.3059
  663MOL0     H91488   7.942   1.538  11.952 -1.4412 -1.0877 -1.8005
  663MOL0     H91489   7.872   1.700  11.988  1.9120  0.1251  1.8864
  663MOL0     H91490   8.199   1.773  11.724 -1.9748  2.7906 -2.6917
  663MOL0     H91491   7.322   1.754  11.626  1.4406 -0.5529  0.6601
  663MOL0     H91492   7.251   1.916  11.400  0.6030 -0.1296  0.3734
  663MOL0     H91493   7.248   1.957  11.566 -0.1830 -4.6341 -0.7753
  663MOL0     H91494   7.339   2.063  11.444 -1.9148  0.6079 -0.6657
  664MOL0     O91495   3.203   4.033   9.281  0.1652 -0.2594  0.3289
  664MOL0     C91496   3.128   4.128   9.287  0.5612  0.2737  0.4570
  664MOL0     O91497   3.090   4.190   9.407  0.5459 -0.1546 -0.5389
  664MOL0     C91498   3.063   4.101   9.509 -0.3429 -1.2366 -0.8679
  664MOL0     C91499   3.037   4.164   9.638 -0.5279 -0.0931 -1.0021
  664MOL0     C91500   3.000   4.089   9.755  0.4806  0.4683 -0.0788
  664MOL0     C91501   2.988   3.949   9.743  0.4037 -0.5338 -0.1088
  664MOL0     O91502   2.948   3.874   9.853 -0.3148  0.9446  0.1919
  664MOL0     C91503   3.033   3.760   9.887  0.3021 -1.2480 -0.4333
  664MOL0     C91504   2.973   3.694  10.009 -0.6009 -0.0882  0.7228
  664MOL0     C91505   2.869   3.590   9.991 -0.5302 -0.0584 -0.3993
  664MOL0     C91506   2.723   3.660   9.976 -0.1481 -0.0743  0.4903
  664MOL0     C91507   2.615   3.552   9.953  0.6574 -0.9808  0.2210
  664MOL0     C91508   2.646   3.442   9.850  0.4724 -0.8677  0.7104
  664MOL0     C91509   2.650   3.514   9.711 -0.9552 -0.0413 -0.6341
  664MOL0     C91510   2.633   3.426   9.598 -0.0696  0.7612  0.3946
  664MOL0     N91511   2.646   3.500   9.475  1.2240  0.5864 -0.3916
  664MOL0     C91512   2.554   3.562   9.389 -0.5170 -0.3383 -0.4637
  664MOL0     C91513   2.639   3.628   9.305 -0.0994  0.3208 -0.1200
  664MOL0     C91514   2.586   3.714   9.193 -0.2957  1.1026 -0.3285
  664MOL0     C91515   2.504   3.636   9.098 -1.8634 -0.4508 -0.1060
  664MOL0     C91516   2.347   3.641   9.112  0.0194 -0.2638  0.0444
  664MOL0     C91517   2.300   3.779   9.056 -0.0930  0.2491 -1.0134
  664MOL0     O91518   2.299   3.880   9.163  0.3717  0.3728 -0.3105
  664MOL0     C91519   2.226   3.995   9.153 -0.0164  0.1105  0.6244
  664MOL0     C91520   2.137   4.022   9.052  0.0417 -0.2464  0.0965
  664MOL0     C91521   2.062   4.143   9.060  0.6536  0.3128  0.3872
  664MOL0     C91522   1.993   4.186   8.932  0.6696 -0.5045 -0.7111
  664MOL0     C91523   2.069   4.232   9.175 -0.3447  0.1073  0.0486
  664MOL0     C91524   1.990   4.352   9.192  0.7881 -0.0181 -0.2067
  664MOL0     O91525   2.047   4.446   9.267  0.4119 -1.0948 -0.3463
  664MOL0     C91526   2.005   4.581   9.244  0.7160  0.3851  0.2461
  664MOL0     C91527   1.981   4.632   9.112 -0.5207  0.5249  0.1309
  664MOL0     C91528   1.965   4.768   9.100 -0.2478 -0.6401 -0.4059
  664MOL0     C91529   1.960   4.851   9.210  0.1998 -0.5104 -0.4937
  664MOL0     O91530   1.932   4.989   9.213 -0.0614  0.2408 -0.0278
  664MOL0     C91531   1.966   5.051   9.091 -0.1479  0.2879 -0.3635
  664MOL0     C91532   1.983   5.197   9.120  0.0560  0.0988  0.0282
  664MOL0     C91533   2.115   5.246   9.175 -0.0010  0.3025  0.4702
  664MOL0     C91534   2.135   5.403   9.163 -0.2339  0.1094 -0.8154
  664MOL0     C91535   2.282   5.451   9.171  1.2801  0.9629 -0.4145
  664MOL0     C91536   2.341   5.417   9.309  0.1820  0.4958 -0.1847
  664MOL0     C91537   2.473   5.504   9.317  0.0498 -0.4616 -1.3271
  664MOL0     C91538   2.535   5.500   9.469  0.5092  1.3956  0.9300
  664MOL0    Cl91539   2.422   5.557   9.591  0.0293  0.1244 -0.3048
  664MOL0     C91540   1.967   4.799   9.340 -0.1392  0.1951 -0.7639
  664MOL0     C91541   2.012   4.664   9.350 -0.0409 -0.0657  1.1148
  664MOL0     O91542   1.879   4.357   9.147  0.4856 -0.2028  0.7301
  664MOL0     C91543   2.153   4.193   9.286 -1.0582  0.3829 -0.5863
  664MOL0     C91544   2.231   4.069   9.275  0.7590  0.0119  0.6323
  664MOL0     N91545   2.766   3.608   9.338 -0.1586  1.0737 -0.4107
  664MOL0     N91546   2.767   3.523   9.433 -0.5296 -0.9252  0.5355
  664MOL0     C91547   3.019   3.891   9.620  0.1697  0.7417 -0.8384
  664MOL0     C91548   3.034   3.966   9.504 -0.0999 -0.0930  0.5829
  664MOL0     C91549   3.077   4.174   9.158 -0.2322  0.0120  0.6474
  664MOL0     C91550   3.111   4.309   9.114 -0.7104  0.2506 -0.5942
  664MOL0     C91551   3.069   4.362   8.987 -0.4737 -0.9235  0.7275
  664MOL0     C91552   2.997   4.274   8.905 -0.7927 -0.3898  1.5849
  664MOL0     O91553   2.950   4.332   8.783 -0.4045  0.5057 -0.4324
  664MOL0     C91554   2.883   4.256   8.678  0.8239 -0.1616 -0.1492
  664MOL0     C91555   2.867   4.345   8.550  0.0927  0.1205 -0.1189
  664MOL0     C91556   2.785   4.474   8.578  0.2823  0.7813  0.3138
  664MOL0     C91557   2.697   4.525   8.465  0.9257 -0.3410  0.2480
  664MOL0     C91558   2.589   4.430   8.427 -0.4067 -0.2119 -0.4854
  664MOL0     C91559   2.512   4.338   8.409  0.3934  0.3866 -0.3849
  664MOL0     C91560   2.975   4.139   8.944 -0.0370  0.4907 -0.9909
  664MOL0     C91561   3.004   4.086   9.067  0.8253  0.2961 -0.4711
  664MOL0     C91562   2.953   3.962   9.123 -0.0777  0.2504 -0.7554
  664MOL0     H91563   3.062   4.268   9.656 -1.0276 -0.0352 -0.6291
  664MOL0     H91564   2.987   4.139   9.851 -0.0708  1.3113 -0.5821
  664MOL0     H91565   3.140   3.782   9.893  0.2862 -1.5388  1.5047
  664MOL0     H91566   3.027   3.689   9.804  1.9038  1.0601 -2.6980
  664MOL0     H91567   3.052   3.638  10.061 -0.5739  0.7100  1.5707
  664MOL0     H91568   2.921   3.762  10.076 -2.9152 -1.1616  0.1258
  664MOL0     H91569   2.891   3.531   9.902  3.6921  1.8166 -0.7862
  664MOL0     H91570   2.876   3.533  10.084  0.2741  3.1548  1.6864
  664MOL0     H91571   2.711   3.724  10.065 -0.3641 -2.2630  2.1229
  664MOL0     H91572   2.729   3.730   9.892  0.2582 -0.6548  0.0275
  664MOL0     H91573   2.525   3.602   9.916  0.6709 -3.3696 -3.6879
  664MOL0     H91574   2.587   3.497  10.043 -0.4626 -0.2567  0.3291
  664MOL0     H91575   2.740   3.394   9.879  0.1488 -1.0494  1.4994
  664MOL0     H91576   2.567   3.367   9.854 -0.4298  0.0549  0.8038
  664MOL0     H91577   2.734   3.583   9.701 -1.2004  0.2080 -0.9737
  664MOL0     H91578   2.565   3.583   9.709 -1.0442 -0.1280 -0.0778
  664MOL0     H91579   2.711   3.350   9.609  2.8046  3.8608  3.8034
  664MOL0     H91580   2.534   3.379   9.600 -0.6713  1.7952 -1.8730
  664MOL0     H91581   2.446   3.555   9.385 -0.4323 -1.3744 -2.7926
  664MOL0     H91582   2.667   3.762   9.138  0.6273  0.7040  0.6292
  664MOL0     H91583   2.522   3.793   9.234 -2.3937 -0.0998 -1.1524
  664MOL0     H91584   2.531   3.677   9.000 -0.7058  1.9349  1.1130
  664MOL0     H91585   2.549   3.537   9.101  0.2661  0.5079  1.7697
  664MOL0     H91586   2.300   3.562   9.052 -3.2123  1.0615  0.6003
  664MOL0     H91587   2.334   3.629   9.220  0.5416 -0.4464  0.0852
  664MOL0     H91588   2.353   3.818   8.969 -0.9557 -0.6158 -1.9516
  664MOL0     H91589   2.200   3.765   9.014  0.3634  1.4920 -2.6203
  664MOL0     H91590   2.127   3.958   8.964  0.1852  0.1565 -0.2185
  664MOL0     H91591   1.899   4.133   8.916  1.5248 -2.2529 -0.2059
  664MOL0     H91592   2.042   4.145   8.844 -1.7108 -0.3200 -2.2216
  664MOL0     H91593   1.982   4.293   8.912 -0.1416 -0.9521 -2.9836
  664MOL0     H91594   1.977   4.564   9.028 -0.7696  1.7459 -0.8705
  664MOL0     H91595   1.951   4.815   9.003 -0.0718 -2.5773 -1.4226
  664MOL0     H91596   2.060   5.020   9.044 -0.7291 -2.2531  0.0394
  664MOL0     H91597   1.885   5.021   9.024 -0.7632  0.3949  0.3243
  664MOL0     H91598   1.952   5.254   9.033 -0.9167 -1.2907 -0.5769
  664MOL0     H91599   1.902   5.221   9.190 -2.2255 -3.5621 -1.0395
  664MOL0     H91600   2.192   5.204   9.110  0.9688 -1.3426  2.5591
  664MOL0     H91601   2.127   5.206   9.277 -1.1001 -1.4345 -0.0410
  664MOL0     H91602   2.082   5.449   9.247  1.6021  0.4751  0.1908
  664MOL0     H91603   2.095   5.452   9.073 -0.7498  1.4929  0.1424
  664MOL0     H91604   2.336   5.402   9.089  0.3273  1.3387 -1.2902
  664MOL0     H91605   2.279   5.559   9.153 -1.4204  0.9344 -0.5536
  664MOL0     H91606   2.361   5.311   9.322  0.7645  0.3972 -1.6401
  664MOL0     H91607   2.275   5.436   9.394 -0.6201 -2.4886 -0.0544
  664MOL0     H91608   2.463   5.611   9.297  0.3617 -0.4953 -1.6795
  664MOL0     H91609   2.547   5.477   9.241  1.1921  1.5074 -1.0018
  664MOL0     H91610   2.619   5.569   9.473 -0.6021  2.9402 -0.6760
  664MOL0     H91611   2.575   5.403   9.500  0.2826  1.7112  2.2802
  664MOL0     H91612   1.960   4.864   9.426 -1.6247 -2.9172  1.6569
  664MOL0     H91613   2.034   4.622   9.447  1.2127 -2.0267  0.0485
  664MOL0     H91614   2.153   4.257   9.374 -1.4874 -0.0052 -0.2973
  664MOL0     H91615   2.299   4.049   9.357  2.4500  3.7563  0.3619
  664MOL0     H91616   3.015   3.783   9.610  2.2610  0.3439  1.6781
  664MOL0     H91617   3.029   3.926   9.404 -2.8460 -1.2375  1.0823
  664MOL0     H91618   3.168   4.378   9.176 -0.3437  0.6447 -1.3550
  664MOL0     H91619   3.083   4.466   8.961  2.1186 -0.5533  3.0848
  664MOL0     H91620   2.945   4.172   8.647  2.9327  1.1996  0.1497
  664MOL0     H91621   2.781   4.232   8.711  1.5463  1.9570  4.5003
  664MOL0     H91622   2.824   4.283   8.471  1.1561  0.7552 -1.2591
  664MOL0     H91623   2.969   4.373   8.519  0.7195  0.2099  1.9215
  664MOL0     H91624   2.718   4.456   8.662 -1.3570  1.9809 -0.6882
  664MOL0     H91625   2.853   4.557   8.599  3.7147 -1.2338 -1.6744
  664MOL0     H91626   2.755   4.545   8.375  0.5376 -0.6398 -0.0678
  664MOL0     H91627   2.657   4.623   8.491 -1.3141 -0.7959 -1.2121
  664MOL0     H91628   2.465   4.243   8.420  0.6859  0.4575  1.9062
  664MOL0     H91629   2.903   4.079   8.889 -1.3629  0.6670  0.4640
  664MOL0     H91630   2.874   3.932   9.052 -1.0237 -1.6613  0.9976
  664MOL0     H91631   3.021   3.877   9.137 -2.4951 -1.5635  0.6927
  664MOL0     H91632   2.921   3.981   9.226  0.0584 -0.8280 -0.4956
  665MOL0     O91633   1.058   1.655   9.949 -0.3469 -0.3619  0.5396
  665MOL0     C91634   0.939   1.655   9.977 -0.1196 -0.2164 -0.2401
  665MOL0     O91635   0.845   1.625   9.886  0.4828  0.1578  0.2505
  665MOL0     C91636   0.878   1.579   9.760 -0.0717 -0.0622 -0.1216
  665MOL0     C91637   0.855   1.448   9.731 -0.4610 -0.7850  0.8928
  665MOL0     C91638   0.900   1.396   9.608 -0.0328 -0.4431 -0.4132
  665MOL0     C91639   0.965   1.483   9.512  0.6668 -1.8298 -0.2098
  665MOL0     O91640   1.008   1.431   9.392  0.2860 -0.0969  0.1237
  665MOL0     C91641   1.109   1.490   9.320 -0.0829 -0.8638 -0.3672
  665MOL0     C91642   1.063   1.583   9.211  0.1839  0.1020  0.2735
  665MOL0     C91643   1.169   1.636   9.106 -0.7245  0.0884 -0.4239
  665MOL0     C91644   1.096   1.656   8.977 -0.0645  0.7344 -0.1693
  665MOL0     C91645   1.203   1.669   8.865 -0.2854 -0.1334 -0.1929
  665MOL0     C91646   1.278   1.808   8.853 -0.3668  0.1826  0.1624
  665MOL0     C91647   1.382   1.814   8.746 -0.2156  0.0797  0.2381
  665MOL0     C91648   1.428   1.962   8.705  0.5128  0.9465  0.4594
  665MOL0     N91649   1.544   1.946   8.609 -0.7327 -0.7250 -0.8324
  665MOL0     C91650   1.553   1.868   8.499  0.0127 -0.8101  0.4708
  665MOL0     C91651   1.669   1.903   8.440  0.6140 -0.6303 -0.7499
  665MOL0     C91652   1.719   1.827   8.319  0.0810  0.4192  0.0347
  665MOL0     C91653   1.614   1.768   8.226  1.0022 -0.8250 -0.4030
  665MOL0     C91654   1.506   1.860   8.160 -0.6586 -0.2118  0.5351
  665MOL0     C91655   1.571   1.942   8.048  0.0432 -0.0657 -0.0295
  665MOL0     O91656   1.482   2.051   8.012 -0.2385  0.0557 -0.2429
  665MOL0     C91657   1.477   2.166   8.092  0.5679 -1.0686  0.5138
  665MOL0     C91658   1.552   2.201   8.215  0.4508  0.5932  0.5799
  665MOL0     C91659   1.532   2.331   8.277 -1.8815  0.5539 -0.5045
  665MOL0     C91660   1.622   2.352   8.399 -0.4777  0.1926  0.2206
  665MOL0     C91661   1.460   2.439   8.220  0.2011 -0.3748 -0.3239
  665MOL0     C91662   1.447   2.586   8.269 -0.1883  0.6493 -0.9028
  665MOL0     O91663   1.384   2.678   8.197 -0.8001  0.2142  0.0990
  665MOL0     C91664   1.434   2.808   8.206 -0.1980  1.7364  0.3376
  665MOL0     C91665   1.567   2.846   8.245  0.9647 -0.4495 -1.6615
  665MOL0     C91666   1.615   2.975   8.237 -0.5233  0.6452  0.1966
  665MOL0     C91667   1.529   3.070   8.178 -0.6629 -0.3411 -1.1232
  665MOL0     O91668   1.564   3.200   8.189  0.3014 -0.1123  0.5391
  665MOL0     C91669   1.482   3.290   8.274 -0.6284 -0.0303  1.4423
  665MOL0     C91670   1.533   3.298   8.411  0.7771  0.8147 -0.2235
  665MOL0     C91671   1.674   3.342   8.421  0.5022 -0.5301 -0.1232
  665MOL0     C91672   1.683   3.427   8.553 -0.5934 -0.2942  0.4060
  665MOL0     C91673   1.821   3.501   8.560  0.6625  0.0305  0.6116
  665MOL0     C91674   1.934   3.405   8.599  0.1735 -0.3350 -1.0833
  665MOL0     C91675   2.063   3.496   8.604 -0.6587 -0.8548 -1.1397
  665MOL0     C91676   2.062   3.609   8.703 -0.0329  0.1593 -0.3114
  665MOL0    Cl91677   2.236   3.662   8.726  0.2101  0.4598 -0.2719
  665MOL0     C91678   1.406   3.039   8.128  0.1117 -0.8196  0.3131
  665MOL0     C91679   1.358   2.909   8.139 -1.0761  0.0589  0.7625
  665MOL0     O91680   1.497   2.601   8.384  0.0026  0.8797 -0.3637
  665MOL0     C91681   1.380   2.399   8.107  0.3120  0.1872 -0.6258
  665MOL0     C91682   1.399   2.272   8.041  0.3062  0.6168 -0.0519
  665MOL0     N91683   1.716   2.016   8.508 -0.6622 -0.7850 -0.0915
  665MOL0     N91684   1.649   2.028   8.621 -0.2394 -0.5029  0.2370
  665MOL0     C91685   0.985   1.612   9.549 -0.9369  0.3375  0.1143
  665MOL0     C91686   0.940   1.663   9.673  0.8378  0.1717  0.8476
  665MOL0     C91687   0.900   1.698  10.104  0.8602 -0.2806 -0.1769
  665MOL0     C91688   0.943   1.639  10.222  0.8719  0.0959  0.1016
  665MOL0     C91689   0.887   1.673  10.340 -0.4608 -0.7857  0.3455
  665MOL0     C91690   0.797   1.775  10.363 -0.2617  1.3709 -0.4549
  665MOL0     O91691   0.743   1.786  10.492  0.0420 -0.7742  0.0100
  665MOL0     C91692   0.671   1.901  10.520  0.5439  0.1738  0.1617
  665MOL0     C91693   0.649   1.906  10.674 -1.0596 -0.0673  0.3383
  665MOL0     C91694   0.761   1.994  10.741 -0.3250 -0.2981  0.7781
  665MOL0     C91695   0.803   1.931  10.879 -0.2221  0.8044 -0.0702
  665MOL0     C91696   0.705   1.957  10.981  0.7603 -0.0674 -0.1579
  665MOL0     C91697   0.628   1.966  11.079 -1.1458 -0.4082 -0.1427
  665MOL0     C91698   0.767   1.849  10.252  0.4520  0.1424  0.4437
  665MOL0     C91699   0.808   1.806  10.117 -0.5722  0.4639 -0.4846
  665MOL0     C91700   0.760   1.885  10.000 -0.0899 -0.0978 -0.5787
  665MOL0     H91701   0.811   1.376   9.800  1.2726 -1.1109  1.7240
  665MOL0     H91702   0.886   1.289   9.593  0.7298 -1.0152  2.3571
  665MOL0     H91703   1.162   1.408   9.272  1.6908 -0.9118  1.5497
  665MOL0     H91704   1.173   1.555   9.381 -0.8140 -0.2412 -0.2374
  665MOL0     H91705   0.985   1.527   9.159  0.7609  0.8524 -1.4462
  665MOL0     H91706   1.017   1.672   9.256 -2.0661 -1.8129  2.0412
  665MOL0     H91707   1.214   1.732   9.133 -1.4225 -0.3669  2.8473
  665MOL0     H91708   1.252   1.567   9.092 -1.3575 -0.7124 -0.3177
  665MOL0     H91709   1.039   1.566   8.954  1.4803 -0.1693 -0.6152
  665MOL0     H91710   1.032   1.745   8.980 -2.8007 -1.0329 -2.1094
  665MOL0     H91711   1.173   1.643   8.763  3.2827 -0.8339 -1.2004
  665MOL0     H91712   1.287   1.600   8.877  0.6651  0.9288 -0.5502
  665MOL0     H91713   1.211   1.894   8.846  0.6448  0.8892 -1.2049
  665MOL0     H91714   1.333   1.827   8.945  3.6616  0.4492 -2.0731
  665MOL0     H91715   1.354   1.755   8.658  3.9299 -1.8616  0.0093
  665MOL0     H91716   1.470   1.765   8.788  1.4926 -0.1237 -3.2416
  665MOL0     H91717   1.353   2.025   8.656  0.6159 -1.1977 -2.7192
  665MOL0     H91718   1.463   2.002   8.801  1.4593 -1.4696  1.2051
  665MOL0     H91719   1.476   1.799   8.469 -2.4525  0.8512  2.4974
  665MOL0     H91720   1.778   1.738   8.340  0.5167  0.3169 -1.4868
  665MOL0     H91721   1.778   1.888   8.249  2.2987 -3.3919 -1.7281
  665MOL0     H91722   1.664   1.710   8.148  2.5267 -0.9968  0.6427
  665MOL0     H91723   1.546   1.697   8.273  0.2793 -1.0671 -1.7671
  665MOL0     H91724   1.423   1.799   8.122  1.1483 -2.1434 -0.5877
  665MOL0     H91725   1.471   1.926   8.239  0.1980 -2.3793  2.8621
  665MOL0     H91726   1.666   1.981   8.083 -0.8107 -0.9487  3.6525
  665MOL0     H91727   1.601   1.884   7.960  0.4375  0.1219 -0.0212
  665MOL0     H91728   1.621   2.130   8.262 -1.1311 -1.2158  0.3068
  665MOL0     H91729   1.657   2.454   8.416 -1.7564  0.9176 -1.2062
  665MOL0     H91730   1.713   2.300   8.366  0.1750  1.2413  0.3152
  665MOL0     H91731   1.584   2.300   8.487 -0.7782 -1.8078 -1.0198
  665MOL0     H91732   1.627   2.768   8.291 -1.8388 -2.0842 -0.4866
  665MOL0     H91733   1.710   2.988   8.287  0.6490  0.2759 -1.8158
  665MOL0     H91734   1.497   3.387   8.226  0.5615 -0.9930 -0.2457
  665MOL0     H91735   1.373   3.284   8.268 -0.4980 -1.3047 -0.5875
  665MOL0     H91736   1.458   3.360   8.460 -0.7924 -1.5529  0.5755
  665MOL0     H91737   1.519   3.203   8.464  1.7832  0.1877 -1.0356
  665MOL0     H91738   1.698   3.405   8.335 -1.4025 -0.2852 -0.5383
  665MOL0     H91739   1.737   3.254   8.409 -2.1136 -2.2047 -2.9433
  665MOL0     H91740   1.670   3.356   8.635 -0.0876 -0.7974  0.0512
  665MOL0     H91741   1.596   3.494   8.557 -0.0240  0.5164 -0.4943
  665MOL0     H91742   1.852   3.544   8.465  2.7237  2.5247  2.2486
  665MOL0     H91743   1.799   3.584   8.628  0.6357  0.3645  0.1979
  665MOL0     H91744   1.955   3.327   8.526  0.0968 -1.8297  0.4157
  665MOL0     H91745   1.915   3.361   8.697  1.3023  1.4442  0.0141
  665MOL0     H91746   2.100   3.523   8.505  4.8516  1.2728  1.1403
  665MOL0     H91747   2.142   3.433   8.645  1.0982  1.8220 -0.1501
  665MOL0     H91748   2.039   3.574   8.804  1.3246 -1.9329 -0.6641
  665MOL0     H91749   1.991   3.690   8.683 -1.0237 -0.1525  1.7329
  665MOL0     H91750   1.347   3.118   8.083  0.6954 -1.2620 -1.2843
  665MOL0     H91751   1.258   2.885   8.103 -0.4540 -3.2636  0.9246
  665MOL0     H91752   1.315   2.465   8.052 -0.8942 -0.1717  0.3295
  665MOL0     H91753   1.353   2.261   7.943  1.8088  1.7527 -0.9315
  665MOL0     H91754   1.034   1.686   9.487 -2.6747  0.0908 -1.6445
  665MOL0     H91755   0.950   1.761   9.721 -0.7794  1.4938 -1.3308
  665MOL0     H91756   1.012   1.555  10.219  0.4350 -0.2749  0.3215
  665MOL0     H91757   0.911   1.611  10.426  1.2931  0.5881  0.9060
  665MOL0     H91758   0.732   1.986  10.489  1.2712 -0.1323  0.7402
  665MOL0     H91759   0.573   1.910  10.472 -0.1346 -4.2394  0.3011
  665MOL0     H91760   0.653   1.808  10.724  0.4674 -0.3891 -0.3626
  665MOL0     H91761   0.556   1.955  10.704 -0.9134 -0.3199  1.2526
  665MOL0     H91762   0.851   1.991  10.679 -0.4469 -2.0109  0.6375
  665MOL0     H91763   0.726   2.097  10.751  0.6320  0.0555  0.5423
  665MOL0     H91764   0.901   1.964  10.915 -1.0892  1.9652  1.3165
  665MOL0     H91765   0.816   1.823  10.867  1.2639  0.6119  2.4638
  665MOL0     H91766   0.571   1.969  11.169 -0.6400 -0.2600  0.1790
  665MOL0     H91767   0.692   1.928  10.253  0.5696  0.2654  1.6505
  665MOL0     H91768   0.839   1.921   9.934  2.6873 -1.8210  1.5594
  665MOL0     H91769   0.698   1.811   9.947  0.9999 -0.5256 -1.2857
  665MOL0     H91770   0.703   1.968  10.042  0.1702  0.3980 -1.2028
  666MOL0     O91771   7.597   8.029   3.974 -0.5392 -0.1326 -0.4117
  666MOL0     C91772   7.656   7.939   4.035  0.4125  0.2471  0.0130
  666MOL0     O91773   7.784   7.949   4.080 -0.9898 -0.0335  0.3207
  666MOL0     C91774   7.862   8.052   4.036 -0.2009  0.0162  0.3279
  666MOL0     C91775   7.879   8.157   4.124 -0.0368 -0.3233 -0.0387
  666MOL0     C91776   7.968   8.254   4.090 -0.7917  1.3153 -0.7498
  666MOL0     C91777   8.042   8.250   3.966  0.4553 -0.3202 -0.4059
  666MOL0     O91778   8.132   8.349   3.963 -0.1588 -0.5317 -0.2272
  666MOL0     C91779   8.201   8.359   3.842  0.8156 -0.3262 -0.1169
  666MOL0     C91780   8.344   8.430   3.865  0.3065 -0.7600  1.1616
  666MOL0     C91781   8.408   8.464   3.735  0.5450  0.4185 -0.0848
  666MOL0     C91782   8.550   8.517   3.759 -0.2618  0.4828 -0.4549
  666MOL0     C91783   8.608   8.548   3.622  0.9106 -0.2284  1.0022
  666MOL0     C91784   8.749   8.601   3.641  0.6225  0.8953 -1.1753
  666MOL0     C91785   8.845   8.513   3.726  0.0139  0.4725  0.3979
  666MOL0     C91786   8.996   8.546   3.709 -0.4163  0.1935  0.8473
  666MOL0     N91787   9.099   8.435   3.723  0.5272 -0.1219 -0.4370
  666MOL0     C91788   9.107   8.363   3.838  0.0269  0.1110 -0.3487
  666MOL0     C91789   9.215   8.290   3.814 -0.2774 -0.3382 -0.0908
  666MOL0     C91790   9.288   8.217   3.923  0.3565  0.7082  0.3458
  666MOL0     C91791   9.323   8.068   3.877  0.2166  0.7595  0.2449
  666MOL0     C91792   9.421   8.002   3.977 -0.5761 -1.1250  0.2631
  666MOL0     C91793   9.450   7.862   3.940  0.2686 -1.0231  1.1407
  666MOL0     O91794   9.509   7.778   4.030 -0.7261  0.0229  0.3691
  666MOL0     C91795   9.509   7.641   4.024 -0.0361 -0.0255 -0.0325
  666MOL0     C91796   9.598   7.580   4.114  0.2358 -0.5210  0.4440
  666MOL0     C91797   9.630   7.449   4.114 -0.7848  0.2890  0.0938
  666MOL0     C91798   9.734   7.402   4.215  0.1312 -0.3704  0.7796
  666MOL0     C91799   9.565   7.360   4.024  0.6053 -0.1228 -0.1406
  666MOL0     C91800   9.584   7.210   4.018  0.5204 -0.2528 -0.1031
  666MOL0     O91801   9.540   7.145   3.903 -0.3691 -0.7168  0.5972
  666MOL0     C91802   9.586   7.020   3.879 -0.0056  0.2338  0.0104
  666MOL0     C91803   9.667   6.987   3.772 -0.9389  0.0267  0.1742
  666MOL0     C91804   9.706   6.857   3.752 -0.4629  0.8930 -0.2060
  666MOL0     C91805   9.663   6.747   3.829 -0.4959 -0.1142  0.0164
  666MOL0     O91806   9.708   6.613   3.804 -1.1403 -0.1262  0.3790
  666MOL0     C91807   9.678   6.522   3.907 -0.4584 -0.1505 -0.0405
  666MOL0     C91808   9.713   6.382   3.862  0.8146  0.1447 -0.0005
  666MOL0     C91809   9.690   6.299   3.984  0.1476 -0.4007  0.0985
  666MOL0     C91810   9.737   6.159   3.942  0.1697 -0.6305 -0.7581
  666MOL0     C91811   9.744   6.067   4.074 -0.1435 -0.2345 -0.0621
  666MOL0     C91812   9.751   5.924   4.036 -0.3815 -0.1135 -0.2790
  666MOL0     C91813   9.723   5.829   4.150 -0.9257 -0.1914 -0.2416
  666MOL0     C91814   9.782   5.698   4.141 -0.0758  1.1902 -1.5667
  666MOL0    Cl91815   9.716   5.614   3.994 -0.3780  0.0163  0.5161
  666MOL0     C91816   9.586   6.784   3.938 -0.1820 -0.6207 -0.1717
  666MOL0     C91817   9.538   6.917   3.952  0.0595  0.1995  0.1638
  666MOL0     O91818   9.631   7.151   4.113 -0.9846 -0.4322  0.3105
  666MOL0     C91819   9.481   7.417   3.927  0.4632 -0.0954  0.4594
  666MOL0     C91820   9.458   7.557   3.913  0.6266  0.8237 -0.3112
  666MOL0     N91821   9.261   8.320   3.690 -0.2796 -0.2967  0.8553
  666MOL0     N91822   9.193   8.403   3.628  0.1886 -0.2011 -0.1710
  666MOL0     C91823   8.010   8.151   3.873  1.0100 -0.0968 -0.9768
  666MOL0     C91824   7.921   8.048   3.910 -0.9478  1.1358  0.9746
  666MOL0     C91825   7.572   7.820   4.091 -0.2080 -0.0916 -0.5624
  666MOL0     C91826   7.642   7.702   4.110  0.2484 -0.2798 -0.8559
  666MOL0     C91827   7.577   7.593   4.144  0.4408  0.9850  0.4505
  666MOL0     C91828   7.447   7.591   4.171  0.7928 -0.0291 -0.0558
  666MOL0     O91829   7.397   7.468   4.194 -0.5406  0.0381  0.0802
  666MOL0     C91830   7.287   7.422   4.112 -0.0463  0.3988  0.5977
  666MOL0     C91831   7.168   7.396   4.208 -0.3671 -0.3818  0.4944
  666MOL0     C91832   7.184   7.268   4.289 -0.2243  0.3603  0.6057
  666MOL0     C91833   7.139   7.146   4.206 -0.5760  0.4249 -0.2209
  666MOL0     C91834   7.164   7.025   4.279  0.1527 -0.5989  0.5958
  666MOL0     C91835   7.178   6.928   4.347 -0.0633 -0.3981 -0.8071
  666MOL0     C91836   7.376   7.713   4.180 -0.6414 -0.2794  0.2318
  666MOL0     C91837   7.437   7.830   4.131  1.1456  0.0267 -0.7756
  666MOL0     C91838   7.340   7.943   4.115 -0.3080 -0.1704  0.6926
  666MOL0     H91839   7.818   8.151   4.213 -1.3005 -0.6367 -0.9040
  666MOL0     H91840   7.985   8.331   4.165 -1.2755  0.8276 -0.1181
  666MOL0     H91841   8.136   8.406   3.768  1.2901 -0.5500 -0.6852
  666MOL0     H91842   8.222   8.260   3.800 -0.4840 -0.7380  0.1523
  666MOL0     H91843   8.318   8.517   3.926 -1.9703 -0.6158  0.0846
  666MOL0     H91844   8.415   8.361   3.914  4.2814 -0.1232 -3.0486
  666MOL0     H91845   8.402   8.367   3.685  0.8821  0.5393 -0.3575
  666MOL0     H91846   8.362   8.545   3.677  1.4679  2.7349  2.2184
  666MOL0     H91847   8.535   8.605   3.823  1.2156  0.1138  0.4711
  666MOL0     H91848   8.619   8.446   3.808  2.1940  2.9804 -0.0170
  666MOL0     H91849   8.539   8.620   3.576  1.9006  1.3067  1.8340
  666MOL0     H91850   8.605   8.468   3.548  2.9686  0.7499 -0.2064
  666MOL0     H91851   8.791   8.622   3.543  3.4838 -0.3009 -0.2933
  666MOL0     H91852   8.741   8.695   3.698 -2.7659 -1.6943  3.2890
  666MOL0     H91853   8.830   8.407   3.704  0.2434  0.1512  1.6828
  666MOL0     H91854   8.815   8.535   3.829  1.7898  2.4231  0.5668
  666MOL0     H91855   9.005   8.577   3.604 -0.8343  3.2456  1.6119
  666MOL0     H91856   9.031   8.628   3.772  3.7096 -1.2523  0.7274
  666MOL0     H91857   9.056   8.380   3.933  0.4136  0.4234 -0.1930
  666MOL0     H91858   9.230   8.213   4.015 -0.1631 -1.4774 -0.0261
  666MOL0     H91859   9.391   8.250   3.939  1.2686 -1.3607 -0.8654
  666MOL0     H91860   9.232   8.008   3.876 -1.3350  2.9796 -0.3527
  666MOL0     H91861   9.371   8.066   3.778  0.0403 -2.8254  0.1111
  666MOL0     H91862   9.507   8.069   3.976 -0.0711 -1.7545 -0.8658
  666MOL0     H91863   9.379   8.004   4.078  0.1537  0.3063  0.5599
  666MOL0     H91864   9.354   7.815   3.917  0.0144 -0.4460  0.9962
  666MOL0     H91865   9.500   7.854   3.843 -2.9493  0.1430 -0.7542
  666MOL0     H91866   9.658   7.650   4.170 -0.0623 -0.6847  0.9798
  666MOL0     H91867   9.822   7.364   4.162 -0.0270  1.0756 -0.5917
  666MOL0     H91868   9.695   7.325   4.282  0.7508 -1.1957  0.2040
  666MOL0     H91869   9.767   7.483   4.281 -0.1295 -0.4354  0.9891
  666MOL0     H91870   9.708   7.063   3.706  0.9182 -2.3319 -1.5670
  666MOL0     H91871   9.772   6.843   3.667 -2.7864 -2.2576 -1.7150
  666MOL0     H91872   9.727   6.547   4.001 -0.1094 -1.8417  0.2601
  666MOL0     H91873   9.570   6.526   3.926 -0.1689 -2.2319  2.6273
  666MOL0     H91874   9.659   6.350   3.772  2.5405 -0.8374 -0.7464
  666MOL0     H91875   9.821   6.377   3.842  1.0976 -2.3185  1.6391
  666MOL0     H91876   9.583   6.289   4.006  0.4027  0.0323  1.6604
  666MOL0     H91877   9.739   6.330   4.077  0.8936 -1.9088  0.2344
  666MOL0     H91878   9.836   6.165   3.895 -0.9730 -0.3376 -3.3243
  666MOL0     H91879   9.658   6.122   3.875 -4.0979  2.7968  1.8919
  666MOL0     H91880   9.824   6.093   4.144 -1.1458 -1.4465  1.6064
  666MOL0     H91881   9.658   6.092   4.137 -0.5321  0.2884 -0.7873
  666MOL0     H91882   9.857   5.903   4.014  0.4162 -1.3662  3.7861
  666MOL0     H91883   9.687   5.883   3.958  1.6275 -3.2148 -0.5113
  666MOL0     H91884   9.617   5.815   4.170 -0.9335  2.0315  1.5673
  666MOL0     H91885   9.758   5.887   4.236 -2.8681  2.0752 -0.8779
  666MOL0     H91886   9.758   5.634   4.226 -1.8725  0.2450 -2.7177
  666MOL0     H91887   9.891   5.700   4.137  0.4183 -5.4413 -2.8328
  666MOL0     H91888   9.550   6.715   4.014  1.2338 -2.1240 -0.8030
  666MOL0     H91889   9.462   6.940   4.026  1.4198 -0.4319  1.8222
  666MOL0     H91890   9.445   7.362   3.840 -2.0812  1.0728  0.6888
  666MOL0     H91891   9.398   7.597   3.832  0.6989 -0.3650 -0.9903
  666MOL0     H91892   8.040   8.165   3.770 -1.8367  0.8759 -1.7657
  666MOL0     H91893   7.910   7.983   3.824  3.4937  4.8320 -2.9600
  666MOL0     H91894   7.746   7.680   4.087  0.0013 -0.0313 -2.3103
  666MOL0     H91895   7.637   7.503   4.134  2.4612  2.4516 -1.8605
  666MOL0     H91896   7.271   7.491   4.029 -1.5859  1.3776  1.6488
  666MOL0     H91897   7.316   7.329   4.062  0.1476 -0.3949  2.1351
  666MOL0     H91898   7.072   7.388   4.155  0.2214  3.0606 -1.3936
  666MOL0     H91899   7.156   7.481   4.277  2.4617  3.3092 -3.0632
  666MOL0     H91900   7.288   7.261   4.322  1.5955 -0.6254 -4.5136
  666MOL0     H91901   7.117   7.281   4.375 -0.5110  3.6028  0.0154
  666MOL0     H91902   7.188   7.136   4.109  0.2332 -3.6354  0.4210
  666MOL0     H91903   7.032   7.154   4.182 -0.2795  0.6478 -1.5356
  666MOL0     H91904   7.195   6.847   4.415 -2.5097 -1.4574 -1.3263
  666MOL0     H91905   7.270   7.704   4.205 -1.4005 -3.0655 -3.1582
  666MOL0     H91906   7.359   7.991   4.018  0.3326  0.0730  0.9302
  666MOL0     H91907   7.236   7.912   4.111  0.2398 -1.9492 -1.6059
  666MOL0     H91908   7.358   8.018   4.193 -2.7667  2.7260 -1.3110
  667MOL0     O91909   6.427   0.081  11.020 -0.1382 -0.1862  0.6126
  667MOL0     C91910   6.528   0.138  11.061  0.0857 -0.8951 -0.2371
  667MOL0     O91911   6.658   0.094  11.038 -0.3327  0.0876 -0.4120
  667MOL0     C91912   6.676  -0.038  10.998 -0.1683 -0.4608 -0.8907
  667MOL0     C91913   6.678  -0.071  10.865  0.3950  0.4299 -0.9595
  667MOL0     C91914   6.718  -0.200  10.830  0.0094 -0.5699  0.3652
  667MOL0     C91915   6.769  -0.294  10.923  0.3745 -0.8990  0.0082
  667MOL0     O91916   6.805  -0.411  10.865 -0.3850 -0.8442 -0.2660
  667MOL0     C91917   6.854  -0.516  10.942 -0.0370 -0.0339  0.0416
  667MOL0     C91918   6.735  -0.605  10.982  0.1924  0.5553  0.2473
  667MOL0     C91919   6.782  -0.739  11.037 -0.5013  0.1626  1.0695
  667MOL0     C91920   6.665  -0.801  11.123 -0.0193 -0.1769  0.3746
  667MOL0     C91921   6.717  -0.909  11.214  0.1207  0.4830  0.8989
  667MOL0     C91922   6.820  -1.001  11.141 -0.4708 -0.0499 -0.0736
  667MOL0     C91923   6.838  -1.124  11.216 -0.6108  0.4675  0.2785
  667MOL0     C91924   6.938  -1.109  11.333  0.2201  0.1785 -0.3949
  667MOL0     N91925   6.992  -1.240  11.366 -0.2066  1.0687 -0.2349
  667MOL0     C91926   6.934  -1.370  11.365  0.2186 -0.4568  0.6552
  667MOL0     C91927   7.041  -1.449  11.374  0.5644 -0.0761 -0.4016
  667MOL0     C91928   7.038  -1.595  11.348  0.2891 -0.3214 -0.0377
  667MOL0     C91929   6.919  -1.666  11.419 -0.9207 -0.3382  1.2760
  667MOL0     C91930   6.952  -1.676  11.563  0.5862  0.1583 -1.2220
  667MOL0     C91931   6.842  -1.759  11.640 -0.6326 -0.6526  0.5026
  667MOL0     O91932   6.722  -1.676  11.649  0.2089  0.3132 -0.6460
  667MOL0     C91933   6.708  -1.588  11.752 -0.2325  1.0833  0.1951
  667MOL0     C91934   6.794  -1.563  11.857 -0.3811  0.0850  1.3377
  667MOL0     C91935   6.776  -1.472  11.964 -0.8117  0.6461  0.0883
  667MOL0     C91936   6.887  -1.468  12.070  0.5574 -0.5042  0.0308
  667MOL0     C91937   6.655  -1.405  11.975  1.8062  0.3369  1.3123
  667MOL0     C91938   6.619  -1.316  12.081  0.4887  0.2279 -0.4073
  667MOL0     O91939   6.671  -1.188  12.066  0.5718  0.2769 -0.1555
  667MOL0     C91940   6.657  -1.087  12.159 -0.0540 -0.3013 -0.5925
  667MOL0     C91941   6.654  -0.955  12.118 -0.7384 -0.0897  0.1097
  667MOL0     C91942   6.626  -0.848  12.202  0.4987  0.0446 -0.0042
  667MOL0     C91943   6.612  -0.874  12.340  0.3639 -0.3910  0.1326
  667MOL0     O91944   6.597  -0.752  12.406  0.2616 -0.2297  0.4215
  667MOL0     C91945   6.522  -0.771  12.530  0.1046 -0.0665  0.1010
  667MOL0     C91946   6.577  -0.665  12.620 -0.5353 -0.2105 -0.1918
  667MOL0     C91947   6.459  -0.579  12.665 -0.7307 -0.5694  0.7221
  667MOL0     C91948   6.521  -0.455  12.738 -0.5672 -0.2044 -0.8109
  667MOL0     C91949   6.416  -0.363  12.804 -0.6361 -1.1811 -0.7354
  667MOL0     C91950   6.340  -0.280  12.701 -0.1737  0.1471  0.4475
  667MOL0     C91951   6.281  -0.152  12.754 -0.7074 -0.1057  0.4805
  667MOL0     C91952   6.195  -0.177  12.874  0.0204 -0.9834 -0.1916
  667MOL0    Cl91953   6.083  -0.047  12.940 -0.0235  0.1493 -0.0655
  667MOL0     C91954   6.637  -1.002  12.390  0.0834 -0.0559 -0.2508
  667MOL0     C91955   6.659  -1.109  12.304  0.5187 -0.5220 -0.2246
  667MOL0     O91956   6.554  -1.362  12.176  0.5972 -0.5208 -0.4519
  667MOL0     C91957   6.561  -1.425  11.870  0.4999 -0.9550  0.6647
  667MOL0     C91958   6.581  -1.516  11.765  0.5631  0.0418  0.5485
  667MOL0     N91959   7.158  -1.375  11.386  0.2566 -0.0950  0.0696
  667MOL0     N91960   7.123  -1.247  11.397  0.6813  0.9444  0.2250
  667MOL0     C91961   6.761  -0.255  11.061  0.7219  0.9935  0.5103
  667MOL0     C91962   6.721  -0.129  11.099 -0.3918 -0.1585 -1.0031
  667MOL0     C91963   6.508   0.268  11.141  0.5929 -0.1262  0.2613
  667MOL0     C91964   6.604   0.303  11.235  1.0126  1.1645  0.0424
  667MOL0     C91965   6.597   0.425  11.294 -0.2750  0.6303 -0.0087
  667MOL0     C91966   6.515   0.525  11.254 -1.5704 -0.6299  1.6681
  667MOL0     O91967   6.499   0.643  11.312 -0.5510 -0.4795 -0.8642
  667MOL0     C91968   6.617   0.732  11.283 -0.6536  0.5298 -0.7665
  667MOL0     C91969   6.569   0.839  11.174  0.3487  0.0572  0.2173
  667MOL0     C91970   6.666   0.947  11.123  0.3243  0.3024  0.2724
  667MOL0     C91971   6.762   0.897  11.010 -0.1350  0.5146  0.3014
  667MOL0     C91972   6.847   0.781  11.046  0.4116 -0.7509  0.6154
  667MOL0     C91973   6.934   0.703  11.076 -1.2191  0.9422 -0.1521
  667MOL0     C91974   6.429   0.494  11.150 -0.1068 -1.2362  0.4347
  667MOL0     C91975   6.419   0.367  11.092 -0.0760  0.6484  0.0189
  667MOL0     C91976   6.311   0.336  10.986 -0.6912 -0.2392 -0.5916
  667MOL0     H91977   6.647   0.005  10.794  2.0525  0.2551 -1.9212
  667MOL0     H91978   6.718  -0.220  10.724  1.9777 -2.8388  0.7085
  667MOL0     H91979   6.910  -0.485  11.031  1.6904  1.3763 -1.4378
  667MOL0     H91980   6.929  -0.579  10.892 -0.4823 -3.0394  2.8007
  667MOL0     H91981   6.672  -0.551  11.053 -1.8011 -0.4417 -0.6832
  667MOL0     H91982   6.677  -0.634  10.894  1.7305 -1.2250 -0.2522
  667MOL0     H91983   6.809  -0.803  10.952  0.2930  1.7761  0.0525
  667MOL0     H91984   6.879  -0.717  11.084 -0.0062 -0.9222  0.5994
  667MOL0     H91985   6.599  -0.728  11.171 -1.3579  0.1985 -1.9106
  667MOL0     H91986   6.617  -0.853  11.039  2.3241 -0.0256 -1.1306
  667MOL0     H91987   6.636  -0.973  11.249  0.8999 -2.9480 -2.8171
  667MOL0     H91988   6.756  -0.869  11.308 -0.3100  0.6623  1.0044
  667MOL0     H91989   6.776  -1.021  11.043 -1.4581  0.6817  0.1981
  667MOL0     H91990   6.910  -0.940  11.134 -0.8242  0.5675  0.5416
  667MOL0     H91991   6.870  -1.197  11.140 -4.8531 -0.8329 -0.5226
  667MOL0     H91992   6.741  -1.156  11.254 -0.1699  0.0163  1.0522
  667MOL0     H91993   7.017  -1.036  11.313  3.3346 -2.0546  2.6399
  667MOL0     H91994   6.884  -1.071  11.421  2.0839 -1.4199  1.5462
  667MOL0     H91995   6.828  -1.394  11.357  0.0527  0.1658  0.9134
  667MOL0     H91996   7.136  -1.631  11.379  0.7931 -0.0297 -1.2320
  667MOL0     H91997   7.001  -1.606  11.246  0.3920 -1.5849  0.0352
  667MOL0     H91998   6.822  -1.624  11.393 -0.8812 -1.5230 -1.0291
  667MOL0     H91999   6.914  -1.768  11.379  0.0350  0.2865 -0.5459
  667MOL0     H92000   7.052  -1.721  11.570 -0.6902 -3.2043 -2.4416
  667MOL0     H92001   6.955  -1.574  11.601 -1.0595  0.3225 -1.4975
  667MOL0     H92002   6.817  -1.852  11.589 -1.7687  0.5189 -1.1947
  667MOL0     H92003   6.882  -1.782  11.739  0.3434 -1.0742  0.0234
  667MOL0     H92004   6.892  -1.611  11.853 -0.2085  0.1102  3.8744
  667MOL0     H92005   6.870  -1.386  12.140 -2.0581  1.7492 -2.9748
  667MOL0     H92006   6.979  -1.439  12.017  1.0740 -0.6554  0.8276
  667MOL0     H92007   6.901  -1.568  12.112 -2.1210 -0.4377  1.2498
  667MOL0     H92008   6.649  -0.933  12.012  1.8506 -1.1672 -0.2986
  667MOL0     H92009   6.635  -0.742  12.177  4.1416  0.1640  1.1508
  667MOL0     H92010   6.418  -0.752  12.503 -0.3388 -0.5593  1.3891
  667MOL0     H92011   6.542  -0.865  12.583 -0.5465  0.5996  1.5934
  667MOL0     H92012   6.623  -0.714  12.706 -2.6456 -4.0607 -0.9927
  667MOL0     H92013   6.649  -0.602  12.567 -1.0790  0.9316  0.3986
  667MOL0     H92014   6.379  -0.631  12.718 -0.1627 -2.0116  0.2223
  667MOL0     H92015   6.409  -0.537  12.577 -1.3361 -1.6128  0.5474
  667MOL0     H92016   6.585  -0.391  12.677 -1.6379  1.3500 -0.3679
  667MOL0     H92017   6.591  -0.487  12.816  0.5708 -0.5643 -1.9613
  667MOL0     H92018   6.353  -0.419  12.874 -0.7107 -0.2586 -0.0537
  667MOL0     H92019   6.468  -0.291  12.868  0.6259 -1.7767 -1.0537
  667MOL0     H92020   6.271  -0.346  12.647  1.3456 -0.9571 -0.2327
  667MOL0     H92021   6.413  -0.260  12.622  0.2250  0.5834  0.9215
  667MOL0     H92022   6.218  -0.116  12.672 -0.4400 -2.1486 -0.6753
  667MOL0     H92023   6.359  -0.077  12.771 -1.3018  0.2295  1.8156
  667MOL0     H92024   6.265  -0.190  12.956 -0.1191  0.1993  0.1271
  667MOL0     H92025   6.148  -0.276  12.868  0.6548 -1.3148  0.2720
  667MOL0     H92026   6.647  -1.037  12.492 -0.7602 -0.7641 -0.4016
  667MOL0     H92027   6.673  -1.205  12.352 -2.7855 -0.4800  1.0858
  667MOL0     H92028   6.463  -1.379  11.872  0.9941  0.2397 -0.8522
  667MOL0     H92029   6.509  -1.538  11.686 -0.3668 -0.9242  1.6295
  667MOL0     H92030   6.796  -0.331  11.131 -0.3516  0.0587  0.0670
  667MOL0     H92031   6.709  -0.115  11.206  1.0014 -1.0911 -0.6966
  667MOL0     H92032   6.680   0.231  11.263  2.4981  1.3095 -3.1462
  667MOL0     H92033   6.673   0.437  11.371 -4.6769  0.5947  4.8979
  667MOL0     H92034   6.660   0.789  11.366  1.0989 -0.0523 -1.2232
  667MOL0     H92035   6.707   0.676  11.253  0.8423  2.9272 -1.0291
  667MOL0     H92036   6.487   0.893  11.223  0.4948  2.1903 -1.7350
  667MOL0     H92037   6.511   0.790  11.096 -0.1295  1.1180 -0.1221
  667MOL0     H92038   6.611   1.031  11.078 -0.5035  0.7072  1.9692
  667MOL0     H92039   6.724   0.975  11.211  1.6721  1.2311 -0.8495
  667MOL0     H92040   6.823   0.977  10.966  0.1655 -0.0895 -0.3992
  667MOL0     H92041   6.698   0.867  10.927  1.3201 -1.8797 -0.0479
  667MOL0     H92042   6.995   0.623  11.112  1.4693  3.1047  0.4687
  667MOL0     H92043   6.368   0.578  11.119 -0.7849 -2.2863 -1.1529
  667MOL0     H92044   6.264   0.425  10.944 -2.8187  1.1318  3.9458
  667MOL0     H92045   6.359   0.296  10.897  2.4827  0.6953  0.5540
  667MOL0     H92046   6.236   0.263  11.017 -0.3433 -0.4311 -0.1785
  668MOL0     O92047   0.367   6.585   4.595 -0.1360  0.0391  0.2082
  668MOL0     C92048   0.395   6.681   4.668  0.5232  0.8255  0.2300
  668MOL0     O92049   0.366   6.814   4.648 -0.1595 -0.0074  0.0405
  668MOL0     C92050   0.280   6.845   4.545 -0.7409  0.9830 -0.9789
  668MOL0     C92051   0.331   6.855   4.423  0.3374 -0.7489 -0.4875
  668MOL0     C92052   0.240   6.894   4.324  0.3228 -0.4674 -0.3263
  668MOL0     C92053   0.102   6.915   4.349 -0.8271  0.0455 -0.5747
  668MOL0     O92054   0.013   6.931   4.253  0.5750 -0.5414  0.9396
  668MOL0     C92055   0.022   7.052   4.181  0.3035 -0.3971 -0.2350
  668MOL0     C92056  -0.085   7.060   4.080  0.2224 -0.9257  0.3191
  668MOL0     C92057  -0.088   6.950   3.976  0.7391  0.0754 -0.5511
  668MOL0     C92058   0.043   6.907   3.918 -0.4732  0.3929 -0.3363
  668MOL0     C92059   0.017   6.787   3.825 -0.4029 -1.0501  0.6046
  668MOL0     C92060   0.057   6.646   3.874 -0.1755  0.2059 -0.2853
  668MOL0     C92061   0.024   6.548   3.767  0.8228  0.7784 -0.2407
  668MOL0     C92062   0.145   6.532   3.674 -0.3871  0.4274 -0.5159
  668MOL0     N92063   0.112   6.456   3.561  0.4756  0.6542  0.2363
  668MOL0     C92064   0.061   6.499   3.444 -0.0261 -0.7929 -0.1856
  668MOL0     C92065   0.077   6.400   3.352  0.4721 -0.0075  0.4968
  668MOL0     C92066   0.038   6.414   3.208 -0.4270  0.4687 -0.6144
  668MOL0     C92067   0.025   6.562   3.168  0.6077 -0.2229  0.0573
  668MOL0     C92068  -0.000   6.575   3.015 -0.9396  0.8985  0.1191
  668MOL0     C92069  -0.125   6.649   2.995  0.3197 -0.3191 -0.1352
  668MOL0     O92070  -0.129   6.718   2.865 -0.4513  0.2024 -0.9176
  668MOL0     C92071  -0.250   6.722   2.802 -0.1338  0.3283 -0.2371
  668MOL0     C92072  -0.356   6.764   2.867 -0.4827 -0.0591 -0.3122
  668MOL0     C92073  -0.486   6.764   2.800 -0.2144 -0.3196 -0.3304
  668MOL0     C92074  -0.610   6.788   2.887 -1.4405  0.3071  0.4172
  668MOL0     C92075  -0.487   6.736   2.659  0.4350  0.7972  0.1480
  668MOL0     C92076  -0.611   6.730   2.579  0.3254  0.0347  0.3050
  668MOL0     O92077  -0.604   6.762   2.440  0.6723  1.2504 -0.2092
  668MOL0     C92078  -0.661   6.691   2.336 -0.0903  0.5278 -0.3077
  668MOL0     C92079  -0.701   6.558   2.343  0.5480 -0.0569 -0.2128
  668MOL0     C92080  -0.773   6.499   2.243  0.3106 -0.4176  0.1466
  668MOL0     C92081  -0.793   6.561   2.124 -0.4650 -0.2820 -0.2296
  668MOL0     O92082  -0.872   6.516   2.018 -1.2146 -0.5085 -0.0813
  668MOL0     C92083  -0.887   6.368   2.010 -0.5204 -0.1936  0.6703
  668MOL0     C92084  -0.998   6.340   1.897 -0.0840 -0.3404 -0.6725
  668MOL0     C92085  -0.945   6.246   1.797  0.7917  1.4008  0.5961
  668MOL0     C92086  -1.052   6.197   1.701  0.2455 -0.5947 -1.1587
  668MOL0     C92087  -1.005   6.090   1.600 -0.9813  0.9274  0.3495
  668MOL0     C92088  -1.116   6.062   1.509  0.6358  0.3128 -0.2498
  668MOL0     C92089  -1.074   5.988   1.381 -1.1227 -0.7867 -0.4745
  668MOL0     C92090  -1.060   6.081   1.265  0.0687  0.3105 -0.3535
  668MOL0    Cl92091  -0.920   6.181   1.266  0.1024 -0.0721 -0.9054
  668MOL0     C92092  -0.739   6.696   2.104 -0.4490  0.5763 -0.6253
  668MOL0     C92093  -0.678   6.761   2.215 -0.3078  1.1745 -0.7981
  668MOL0     O92094  -0.709   6.683   2.633  0.6257 -0.2428  0.5314
  668MOL0     C92095  -0.364   6.704   2.593 -1.1296 -0.3464 -0.2582
  668MOL0     C92096  -0.245   6.702   2.670 -0.2484  1.2372 -0.5903
  668MOL0     N92097   0.150   6.310   3.416  0.2944  0.1174  0.1651
  668MOL0     N92098   0.175   6.339   3.538 -0.1539  0.5191  0.3431
  668MOL0     C92099   0.055   6.912   4.482  0.1608 -0.6976 -1.0972
  668MOL0     C92100   0.150   6.880   4.583  0.6780 -0.4639 -0.7526
  668MOL0     C92101   0.476   6.658   4.791  0.0436 -0.0384 -0.8338
  668MOL0     C92102   0.529   6.532   4.806  0.0197 -0.1365 -0.2724
  668MOL0     C92103   0.617   6.510   4.913 -0.0728 -0.6071 -0.3344
  668MOL0     C92104   0.646   6.591   5.014  0.0796 -0.5800  0.2862
  668MOL0     O92105   0.723   6.575   5.124 -0.1314 -0.4718 -0.5040
  668MOL0     C92106   0.833   6.482   5.129 -0.4864  0.4085  0.0770
  668MOL0     C92107   0.947   6.554   5.187  0.2995 -0.3915 -0.1299
  668MOL0     C92108   0.997   6.690   5.124  0.4169  0.5267  0.4786
  668MOL0     C92109   1.141   6.686   5.072  0.9163 -0.3633  0.5771
  668MOL0     C92110   1.153   6.588   4.964 -0.9405  0.5436 -0.3017
  668MOL0     C92111   1.158   6.493   4.882  0.6444  0.1811 -0.1186
  668MOL0     C92112   0.584   6.714   5.003 -0.2725  0.0741  0.3964
  668MOL0     C92113   0.483   6.745   4.904  0.5358  0.4833 -0.1503
  668MOL0     C92114   0.386   6.857   4.933  0.7431  0.1492 -0.4099
  668MOL0     H92115   0.439   6.846   4.425  0.8437  3.6066  1.2702
  668MOL0     H92116   0.287   6.904   4.226  0.7975 -0.0256 -0.0567
  668MOL0     H92117   0.117   7.081   4.135 -0.1844  0.4653 -0.7400
  668MOL0     H92118   0.004   7.135   4.249  1.0382 -1.8889  1.8738
  668MOL0     H92119  -0.177   7.059   4.138 -0.7093 -1.3545 -1.1219
  668MOL0     H92120  -0.088   7.157   4.030 -2.8742  0.1136  2.2261
  668MOL0     H92121  -0.123   6.855   4.018  0.5126 -0.2513 -1.4311
  668MOL0     H92122  -0.156   6.978   3.894  0.1505  1.5039  0.4014
  668MOL0     H92123   0.078   6.993   3.860 -0.1646 -0.8943 -2.1548
  668MOL0     H92124   0.121   6.884   3.992 -0.9459 -3.1192 -0.7300
  668MOL0     H92125   0.070   6.814   3.733 -0.2135  1.0594  1.2966
  668MOL0     H92126  -0.088   6.783   3.793 -0.0909  0.8018 -0.7838
  668MOL0     H92127   0.162   6.646   3.905 -0.7235  1.1264  1.7863
  668MOL0     H92128   0.013   6.612   3.969  1.6388 -0.2034  0.4436
  668MOL0     H92129  -0.067   6.579   3.715  0.4836  0.9868  0.4649
  668MOL0     H92130  -0.010   6.455   3.812 -0.1297 -0.0940 -2.5892
  668MOL0     H92131   0.181   6.631   3.644 -3.8389  0.8982 -3.9472
  668MOL0     H92132   0.226   6.477   3.723  0.6366  0.4621 -2.0771
  668MOL0     H92133   0.013   6.596   3.438 -0.2683 -0.9773 -1.5008
  668MOL0     H92134  -0.058   6.362   3.209 -0.8531  1.2303  0.6565
  668MOL0     H92135   0.105   6.353   3.146 -1.2290  0.8151 -1.8528
  668MOL0     H92136  -0.050   6.610   3.231  2.4445  0.2227  2.0392
  668MOL0     H92137   0.121   6.610   3.188  1.1463  0.1125 -2.9308
  668MOL0     H92138   0.082   6.634   2.974 -1.2127 -0.7540 -3.0450
  668MOL0     H92139  -0.001   6.482   2.958 -2.8896  2.0010 -1.7724
  668MOL0     H92140  -0.213   6.585   3.010  0.2531 -0.0186  0.8696
  668MOL0     H92141  -0.133   6.734   3.064  3.1968  1.7585 -2.1098
  668MOL0     H92142  -0.337   6.807   2.965  0.0166  0.6891 -0.7263
  668MOL0     H92143  -0.676   6.871   2.858 -1.8709  0.8009  2.5991
  668MOL0     H92144  -0.583   6.805   2.992 -3.0038  0.6280  0.8091
  668MOL0     H92145  -0.674   6.699   2.889  1.8229 -2.4125 -3.0066
  668MOL0     H92146  -0.684   6.506   2.437  0.8078  0.1985 -0.1180
  668MOL0     H92147  -0.830   6.406   2.249  1.0620 -1.0526 -1.7263
  668MOL0     H92148  -0.788   6.328   1.985 -0.7662  0.1053 -0.8711
  668MOL0     H92149  -0.916   6.320   2.104  2.0794 -0.4577  1.4178
  668MOL0     H92150  -1.091   6.300   1.937 -0.8065 -1.2551 -3.1107
  668MOL0     H92151  -1.029   6.436   1.855  2.1526 -0.2376 -2.2676
  668MOL0     H92152  -0.926   6.157   1.857  1.2476  1.4011  0.4588
  668MOL0     H92153  -0.848   6.277   1.757  0.4210 -0.4126 -2.0033
  668MOL0     H92154  -1.101   6.283   1.654 -1.6029 -0.2931  1.1225
  668MOL0     H92155  -1.117   6.149   1.774  0.3984 -1.4632 -1.5829
  668MOL0     H92156  -0.917   6.126   1.545  1.2183 -2.0805  1.5716
  668MOL0     H92157  -0.977   5.996   1.649 -0.6903  1.0828  0.4863
  668MOL0     H92158  -1.175   6.150   1.482 -1.7857 -1.2996 -0.5464
  668MOL0     H92159  -1.188   6.003   1.567 -1.4563  2.8198 -0.1321
  668MOL0     H92160  -1.145   5.915   1.343  0.1455 -2.3567  0.0507
  668MOL0     H92161  -0.975   5.949   1.407  0.2691  2.5306 -0.2152
  668MOL0     H92162  -1.147   6.146   1.278 -0.7577 -0.9773  0.8867
  668MOL0     H92163  -1.067   6.031   1.168 -1.9104 -1.9832  0.8543
  668MOL0     H92164  -0.746   6.744   2.007  2.0965  0.8378 -0.7620
  668MOL0     H92165  -0.643   6.864   2.213 -0.0247  1.2570  2.6839
  668MOL0     H92166  -0.361   6.710   2.485  0.4039 -2.2300 -0.3927
  668MOL0     H92167  -0.155   6.679   2.615 -1.0077  2.8080 -2.5947
  668MOL0     H92168  -0.047   6.941   4.502  1.4595  3.4768  0.3690
  668MOL0     H92169   0.111   6.890   4.684 -2.0255 -1.5567 -1.5868
  668MOL0     H92170   0.515   6.456   4.730 -2.5631  0.4367 -0.4443
  668MOL0     H92171   0.650   6.408   4.928 -0.2752 -0.4637  1.2704
  668MOL0     H92172   0.812   6.385   5.173  1.3271  0.4058  1.0007
  668MOL0     H92173   0.868   6.477   5.025  0.8636 -1.2376  0.5731
  668MOL0     H92174   1.035   6.489   5.186  2.2418  2.0846 -0.5306
  668MOL0     H92175   0.919   6.578   5.290  2.0988  1.1297  0.0643
  668MOL0     H92176   0.918   6.719   5.054 -1.3805 -2.1090  1.2156
  668MOL0     H92177   0.980   6.766   5.201  0.0780 -0.1867  1.1316
  668MOL0     H92178   1.206   6.652   5.152  0.7235 -0.9590  0.4870
  668MOL0     H92179   1.177   6.781   5.030 -3.1275  0.4718 -1.5523
  668MOL0     H92180   1.176   6.409   4.819 -1.0049  1.9160 -3.1322
  668MOL0     H92181   0.579   6.784   5.086  0.5628 -0.4209  0.8863
  668MOL0     H92182   0.290   6.855   4.882  2.3904  0.6757 -3.7817
  668MOL0     H92183   0.370   6.896   5.034 -2.3207  0.2164 -0.8394
  668MOL0     H92184   0.437   6.948   4.897 -0.7120  0.5551 -1.5124
  669MOL0     O92185  11.489   7.925   0.956 -0.1466 -0.0712 -0.1118
  669MOL0     C92186  11.494   7.880   1.071 -0.1370  0.2708 -0.7811
  669MOL0     O92187  11.606   7.843   1.139  0.0145  0.4359  0.3830
  669MOL0     C92188  11.720   7.859   1.067 -0.8826 -0.6688 -0.0515
  669MOL0     C92189  11.764   7.769   0.978  0.0193  0.7281 -0.6944
  669MOL0     C92190  11.900   7.779   0.933  0.3396 -0.1467 -1.1541
  669MOL0     C92191  11.985   7.872   0.984  0.3348 -1.0549 -0.1053
  669MOL0     O92192  12.117   7.852   0.952 -0.1490 -0.9552 -0.8257
  669MOL0     C92193  12.184   7.789   1.054 -0.0707  0.5076 -0.4840
  669MOL0     C92194  12.301   7.878   1.087 -0.5690 -0.2215 -0.0483
  669MOL0     C92195  12.418   7.916   0.997  0.1365  0.4455  0.6063
  669MOL0     C92196  12.518   7.802   0.978  0.3321 -0.5370 -0.5316
  669MOL0     C92197  12.569   7.805   0.833  0.0057  0.6035 -0.0199
  669MOL0     C92198  12.634   7.664   0.803 -0.2672  0.1930  0.6968
  669MOL0     C92199  12.701   7.658   0.664 -0.2181  0.6831  0.0293
  669MOL0     C92200  12.607   7.704   0.548  0.4238  0.4491 -0.0208
  669MOL0     N92201  12.668   7.667   0.419 -0.4999 -0.0585  0.5978
  669MOL0     C92202  12.628   7.579   0.319 -0.4982 -1.4463 -0.0460
  669MOL0     C92203  12.709   7.590   0.217 -0.4027  0.0983  0.5087
  669MOL0     C92204  12.695   7.525   0.083  0.1584 -0.3476  0.0384
  669MOL0     C92205  12.595   7.609  -0.006  0.5401 -0.6048 -0.3410
  669MOL0     C92206  12.549   7.527  -0.125  0.3942 -1.0711 -0.1372
  669MOL0     C92207  12.656   7.448  -0.208  0.3560 -0.2531  0.5244
  669MOL0     O92208  12.758   7.536  -0.245  0.1653 -0.1699 -0.1795
  669MOL0     C92209  12.740   7.646  -0.321  0.7117 -0.0460 -0.1734
  669MOL0     C92210  12.633   7.672  -0.402  0.1684  0.3452 -0.0542
  669MOL0     C92211  12.617   7.790  -0.469 -0.1838 -0.3733  0.2196
  669MOL0     C92212  12.495   7.807  -0.563 -0.4686 -0.0168 -0.7553
  669MOL0     C92213  12.720   7.890  -0.449 -0.1441  0.2019 -0.1154
  669MOL0     C92214  12.722   8.021  -0.516 -0.0376  0.2994 -0.0172
  669MOL0     O92215  12.788   8.124  -0.461  0.9059 -0.5444 -0.8344
  669MOL0     C92216  12.797   8.244  -0.529  0.3525 -0.3349 -0.0817
  669MOL0     C92217  12.851   8.257  -0.657  0.5809 -0.3527  0.2113
  669MOL0     C92218  12.859   8.387  -0.718 -0.7186  0.4420  0.1992
  669MOL0     C92219  12.827   8.505  -0.636  0.4966  0.4664  0.3763
  669MOL0     O92220  12.810   8.633  -0.685  1.2443  0.9175 -0.7919
  669MOL0     C92221  12.853   8.669  -0.817 -0.9197 -0.4956 -0.4539
  669MOL0     C92222  12.865   8.821  -0.823  0.6866 -0.0771  0.7125
  669MOL0     C92223  12.725   8.880  -0.818  0.9663 -0.1835 -0.9571
  669MOL0     C92224  12.643   8.889  -0.947  0.2013 -0.2356 -0.4615
  669MOL0     C92225  12.507   8.961  -0.920  0.2771 -0.0436  0.7608
  669MOL0     C92226  12.414   8.972  -1.039 -0.4682  0.3151 -0.5075
  669MOL0     C92227  12.470   9.057  -1.165 -1.2402  0.0130  0.0838
  669MOL0     C92228  12.408   9.198  -1.167  0.7608 -0.1849 -0.2150
  669MOL0    Cl92229  12.457   9.274  -1.021  0.0020 -0.3492  0.3826
  669MOL0     C92230  12.785   8.488  -0.503  0.3467  0.3957 -0.2172
  669MOL0     C92231  12.766   8.361  -0.453  0.5832  0.6481 -0.1258
  669MOL0     O92232  12.673   8.019  -0.629  0.0189  0.6613  0.4760
  669MOL0     C92233  12.824   7.869  -0.359  0.1432  1.1140 -0.2663
  669MOL0     C92234  12.831   7.740  -0.289 -0.3735  0.1235 -0.6704
  669MOL0     N92235  12.802   7.681   0.245  0.7128  0.4495  0.2343
  669MOL0     N92236  12.778   7.728   0.361 -0.1339  0.5002  0.8010
  669MOL0     C92237  11.931   7.976   1.065 -1.1025  0.2728  0.0219
  669MOL0     C92238  11.799   7.973   1.107 -0.2007 -0.3557  0.0879
  669MOL0     C92239  11.358   7.878   1.132 -0.0740  0.5403 -0.5774
  669MOL0     C92240  11.354   7.914   1.275  0.0583 -1.4332  0.0980
  669MOL0     C92241  11.235   7.937   1.338 -0.0580  0.5157 -0.9880
  669MOL0     C92242  11.120   7.898   1.277  0.0398 -0.3453  0.4424
  669MOL0     O92243  10.995   7.912   1.321  0.4927  0.6497 -0.6577
  669MOL0     C92244  10.957   7.905   1.465 -0.5287  0.3646 -1.0980
  669MOL0     C92245  10.985   7.766   1.526 -0.4303 -0.2559 -0.2030
  669MOL0     C92246  10.938   7.762   1.668  0.8771 -0.0661 -0.0657
  669MOL0     C92247  11.030   7.811   1.778  0.9108 -0.4401 -0.1164
  669MOL0     C92248  11.011   7.953   1.810 -0.6803 -0.3787  0.3289
  669MOL0     C92249  11.001   8.077   1.814  0.1949  0.5132 -0.2416
  669MOL0     C92250  11.118   7.857   1.150  0.6038 -0.8604  0.5503
  669MOL0     C92251  11.235   7.849   1.073 -0.4096  0.5255 -0.5296
  669MOL0     C92252  11.220   7.795   0.936  0.2989  0.4394 -0.1874
  669MOL0     H92253  11.687   7.693   0.965 -1.5983  2.1626  0.0892
  669MOL0     H92254  11.940   7.701   0.869 -0.0490 -2.2174  0.9954
  669MOL0     H92255  12.213   7.685   1.035  4.4189  1.8138 -2.0881
  669MOL0     H92256  12.123   7.777   1.144  2.9085  0.0669  1.6187
  669MOL0     H92257  12.254   7.976   1.100  1.4797  0.5612  2.0465
  669MOL0     H92258  12.340   7.838   1.181 -2.6522 -0.0754  0.9337
  669MOL0     H92259  12.377   7.950   0.902  0.3434 -2.9429 -0.8062
  669MOL0     H92260  12.478   7.999   1.037 -0.0531  1.2685 -0.7776
  669MOL0     H92261  12.600   7.817   1.047 -1.4040  0.6024  1.3933
  669MOL0     H92262  12.469   7.704   0.988 -0.9504 -0.1365 -2.2273
  669MOL0     H92263  12.642   7.887   0.824  0.4925  0.1711 -0.0313
  669MOL0     H92264  12.479   7.814   0.771 -1.9194 -0.7801  2.4018
  669MOL0     H92265  12.708   7.648   0.882  2.1648  2.0514 -1.0780
  669MOL0     H92266  12.561   7.582   0.799  1.5314 -1.4602  0.1903
  669MOL0     H92267  12.727   7.552   0.653  1.0697  1.0005 -0.1186
  669MOL0     H92268  12.798   7.709   0.664 -0.3087  0.8853 -1.3645
  669MOL0     H92269  12.510   7.654   0.552  1.5237 -1.7045  1.1225
  669MOL0     H92270  12.599   7.813   0.554  0.7247  0.6598 -2.5282
  669MOL0     H92271  12.533   7.530   0.301 -1.6315  1.2977 -2.1296
  669MOL0     H92272  12.674   7.419   0.100 -3.5252  0.1868 -0.2264
  669MOL0     H92273  12.786   7.545   0.026  1.5847  0.2345  2.4006
  669MOL0     H92274  12.508   7.643   0.051  1.6860  0.6193  0.7446
  669MOL0     H92275  12.649   7.695  -0.046 -1.3405 -0.5411 -3.0003
  669MOL0     H92276  12.484   7.449  -0.084 -1.2997  1.8215  3.1756
  669MOL0     H92277  12.492   7.591  -0.193 -2.5143 -2.2118  1.0314
  669MOL0     H92278  12.711   7.374  -0.149  0.7665 -3.2016 -3.1133
  669MOL0     H92279  12.611   7.396  -0.293 -0.8188 -0.1253  1.0563
  669MOL0     H92280  12.564   7.590  -0.418  2.0635 -1.0852 -1.3371
  669MOL0     H92281  12.506   7.817  -0.671 -1.5927  0.1884 -0.8688
  669MOL0     H92282  12.429   7.886  -0.525  0.0819 -0.6306  1.6247
  669MOL0     H92283  12.435   7.716  -0.551  2.4385 -2.0118 -0.1627
  669MOL0     H92284  12.884   8.166  -0.707 -1.4198 -1.8666  1.5317
  669MOL0     H92285  12.894   8.406  -0.819 -2.4226 -0.2381 -0.5432
  669MOL0     H92286  12.956   8.637  -0.838 -0.9450 -0.3868 -0.7584
  669MOL0     H92287  12.780   8.640  -0.893 -1.5347  2.3971 -1.0849
  669MOL0     H92288  12.938   8.853  -0.748  5.0912 -1.1002 -2.7041
  669MOL0     H92289  12.916   8.849  -0.915  0.2423 -1.1203  0.1366
  669MOL0     H92290  12.742   8.983  -0.784 -5.2795  1.2085 -0.8761
  669MOL0     H92291  12.668   8.825  -0.743 -1.9712  4.5408  0.6828
  669MOL0     H92292  12.611   8.794  -0.991  0.2991 -1.2820  1.5826
  669MOL0     H92293  12.699   8.943  -1.024  0.6351  1.2094  0.8333
  669MOL0     H92294  12.447   8.911  -0.844 -1.9195  1.5743  0.1870
  669MOL0     H92295  12.514   9.059  -0.871 -2.9712  0.0109  1.3006
  669MOL0     H92296  12.326   9.021  -0.996  0.2909  2.1026 -0.9055
  669MOL0     H92297  12.390   8.873  -1.079  0.4238  0.9246 -2.7257
  669MOL0     H92298  12.448   9.008  -1.261  1.1963  1.5431 -1.3566
  669MOL0     H92299  12.579   9.062  -1.154 -1.3338  1.2724  0.6077
  669MOL0     H92300  12.299   9.186  -1.169  0.6737  0.5224  0.0256
  669MOL0     H92301  12.430   9.257  -1.257 -1.2271 -1.1519 -1.4115
  669MOL0     H92302  12.759   8.581  -0.454 -0.7765 -0.2646  0.4738
  669MOL0     H92303  12.731   8.348  -0.351 -3.4107  0.3901 -1.3360
  669MOL0     H92304  12.908   7.936  -0.346 -0.4209  2.5625 -3.3156
  669MOL0     H92305  12.915   7.722  -0.223  0.8169  0.6845 -1.9838
  669MOL0     H92306  12.003   8.048   1.104 -0.6120  0.3728 -1.0216
  669MOL0     H92307  11.775   8.062   1.165 -0.1363 -1.4151  1.7862
  669MOL0     H92308  11.437   7.941   1.339 -1.0482  0.5141  0.7889
  669MOL0     H92309  11.216   7.967   1.441  0.4655 -0.6799 -0.5284
  669MOL0     H92310  11.010   7.988   1.513  0.3799 -1.9708  2.2320
  669MOL0     H92311  10.847   7.905   1.472 -0.4927 -2.5635  2.8245
  669MOL0     H92312  11.092   7.747   1.517 -0.3453 -0.3259  0.7861
  669MOL0     H92313  10.924   7.697   1.467 -2.0763  0.4551  0.6123
  669MOL0     H92314  10.842   7.812   1.677  0.9880  0.2320 -0.5170
  669MOL0     H92315  10.908   7.661   1.697 -1.4639  0.6701  0.2802
  669MOL0     H92316  11.134   7.808   1.743  1.1172  3.3585 -0.2682
  669MOL0     H92317  11.020   7.751   1.868 -2.4051 -0.6099 -0.4839
  669MOL0     H92318  11.002   8.180   1.845  0.6647 -0.4348  3.2497
  669MOL0     H92319  11.026   7.824   1.103 -0.2842 -0.1992  1.7821
  669MOL0     H92320  11.269   7.860   0.863  0.3833  3.0153  1.9699
  669MOL0     H92321  11.265   7.695   0.942  3.3386  1.7269  0.1111
  669MOL0     H92322  11.116   7.774   0.908  0.4068 -0.0193 -0.2532
  670MOL0     O92323   5.725   2.634   9.494  0.0678  0.3256 -0.3877
  670MOL0     C92324   5.622   2.689   9.529 -0.3057 -1.4308 -0.1660
  670MOL0     O92325   5.497   2.660   9.486 -0.6141  0.0190  0.2947
  670MOL0     C92326   5.469   2.583   9.379  0.5496 -1.0873  0.5874
  670MOL0     C92327   5.556   2.514   9.304 -0.0415 -0.2062 -0.5955
  670MOL0     C92328   5.503   2.431   9.201  0.0695  0.8005 -0.3981
  670MOL0     C92329   5.368   2.404   9.188  0.0814  0.0151  0.9976
  670MOL0     O92330   5.320   2.327   9.085 -0.2299  0.7220 -0.2497
  670MOL0     C92331   5.282   2.194   9.125 -1.0279 -1.2131 -0.4359
  670MOL0     C92332   5.389   2.112   9.218  0.3569  0.5274  0.5740
  670MOL0     C92333   5.346   1.971   9.250  0.5888 -0.2319  0.2410
  670MOL0     C92334   5.211   1.961   9.329 -0.2261 -0.0570  0.6270
  670MOL0     C92335   5.173   1.815   9.364  0.1658  0.2005  0.1760
  670MOL0     C92336   5.057   1.815   9.459  0.1971  0.6309 -0.4796
  670MOL0     C92337   5.006   1.673   9.494 -0.0251  0.0482 -0.8895
  670MOL0     C92338   5.088   1.609   9.605  0.5660 -0.2551 -0.4575
  670MOL0     N92339   5.043   1.473   9.619  1.3138 -0.4156 -0.1630
  670MOL0     C92340   4.950   1.410   9.700  0.1381 -0.1771  0.3783
  670MOL0     C92341   4.925   1.283   9.658 -0.6885 -0.3879  0.8313
  670MOL0     C92342   4.834   1.174   9.716 -0.6007  0.0323 -0.2170
  670MOL0     C92343   4.915   1.063   9.780 -0.3372 -0.0905 -0.6761
  670MOL0     C92344   4.809   0.968   9.853 -0.7262 -0.1693 -0.1287
  670MOL0     C92345   4.857   0.834   9.894 -0.6327  0.5262 -0.1285
  670MOL0     O92346   4.904   0.756   9.779  0.0767  0.4136  0.1476
  670MOL0     C92347   4.954   0.626   9.802 -0.1901 -0.0625 -0.4560
  670MOL0     C92348   4.970   0.567   9.934 -0.1694 -0.1107 -0.0710
  670MOL0     C92349   5.002   0.432   9.948  0.7667 -0.0486  0.0128
  670MOL0     C92350   5.015   0.378  10.089  0.0328 -1.7912  0.4933
  670MOL0     C92351   5.025   0.353   9.838  0.7815 -0.0640  0.4496
  670MOL0     C92352   5.028   0.204   9.838 -0.3379  0.1471  0.0714
  670MOL0     O92353   4.922   0.144   9.908 -0.1215  0.2346 -0.2959
  670MOL0     C92354   4.925   0.002   9.913 -0.3040 -0.1559  0.6937
  670MOL0     C92355   5.038  -0.060   9.964  0.1372  0.9917 -0.2742
  670MOL0     C92356   5.034  -0.202   9.983 -0.5339  0.6527 -0.1982
  670MOL0     C92357   4.929  -0.284   9.931  0.1290  0.2064  0.1325
  670MOL0     O92358   4.936  -0.425   9.950  0.3798 -0.2834 -0.0203
  670MOL0     C92359   4.824  -0.508   9.904 -0.1844 -0.8646 -0.5920
  670MOL0     C92360   4.847  -0.651   9.921 -0.0897  0.6086 -0.0798
  670MOL0     C92361   4.872  -0.697  10.069 -0.8366  0.8893 -0.5979
  670MOL0     C92362   4.916  -0.848  10.079  0.5575  0.0482  0.0234
  670MOL0     C92363   4.920  -0.910  10.225 -0.8436  0.3117  0.9325
  670MOL0     C92364   4.937  -1.060  10.186 -0.1077  0.2160 -0.3472
  670MOL0     C92365   5.007  -1.154  10.293  0.8754  0.4664 -0.2683
  670MOL0     C92366   4.942  -1.137  10.434  1.0998 -0.0522  1.1949
  670MOL0    Cl92367   4.955  -1.288  10.527  0.0342 -0.2170  0.3160
  670MOL0     C92368   4.826  -0.219   9.853 -0.5758 -0.2723  0.0566
  670MOL0     C92369   4.821  -0.077   9.860 -0.6909 -0.3143 -0.6314
  670MOL0     O92370   5.108   0.144   9.774  0.3731 -0.6683  0.3758
  670MOL0     C92371   5.051   0.422   9.717 -0.4738  0.8008 -0.4087
  670MOL0     C92372   5.011   0.553   9.702 -0.0111 -0.1138  0.0974
  670MOL0     N92373   5.016   1.265   9.554 -0.1395 -0.2936 -0.1243
  670MOL0     N92374   5.077   1.374   9.537  0.0668  0.8421  1.3286
  670MOL0     C92375   5.273   2.472   9.272 -0.2643 -0.4895  0.0822
  670MOL0     C92376   5.331   2.564   9.365  0.4543 -0.2629 -0.2360
  670MOL0     C92377   5.637   2.789   9.642 -0.1156 -0.1261  0.5895
  670MOL0     C92378   5.688   2.748   9.765  0.1867 -0.4125 -0.3033
  670MOL0     C92379   5.715   2.831   9.870 -0.0538 -0.0467  0.1838
  670MOL0     C92380   5.669   2.968   9.854 -0.4233 -0.2432  0.5165
  670MOL0     O92381   5.685   3.064   9.952 -0.4350  0.9895  0.0028
  670MOL0     C92382   5.801   3.050  10.043  0.6953  0.0016 -0.1072
  670MOL0     C92383   5.939   3.085   9.975  0.5085 -0.5719 -0.6044
  670MOL0     C92384   5.934   3.213   9.897  0.2125 -0.0896  0.0092
  670MOL0     C92385   6.073   3.258   9.833  0.6248  0.3531 -0.3431
  670MOL0     C92386   6.134   3.151   9.756 -0.1751  0.1827  0.1926
  670MOL0     C92387   6.186   3.056   9.685 -0.9335  0.2125 -0.3631
  670MOL0     C92388   5.610   3.007   9.735  0.5851 -0.3795 -0.3698
  670MOL0     C92389   5.597   2.921   9.628  0.0980  0.3721  0.9504
  670MOL0     C92390   5.549   2.969   9.499  1.0142  0.1699  0.0607
  670MOL0     H92391   5.662   2.534   9.296 -0.1502  0.3608 -0.6738
  670MOL0     H92392   5.560   2.360   9.142  0.1039 -1.0107  1.7170
  670MOL0     H92393   5.257   2.131   9.039 -0.9825 -1.8826  0.0276
  670MOL0     H92394   5.192   2.200   9.187 -1.5415 -0.4962 -1.2280
  670MOL0     H92395   5.491   2.118   9.179  0.6720 -1.0681  1.1162
  670MOL0     H92396   5.393   2.161   9.316 -0.5542 -1.0088  1.4184
  670MOL0     H92397   5.334   1.916   9.156 -3.5312  1.7059 -0.5788
  670MOL0     H92398   5.420   1.931   9.320 -1.5141  1.4215  3.7399
  670MOL0     H92399   5.221   2.025   9.418  0.6399 -0.1738  0.6218
  670MOL0     H92400   5.124   1.996   9.274  1.0462 -1.1344 -2.2774
  670MOL0     H92401   5.260   1.776   9.418  0.1036  1.6086  1.3693
  670MOL0     H92402   5.153   1.759   9.273 -2.4251  3.9894 -1.8886
  670MOL0     H92403   5.075   1.865   9.555 -1.1031  1.3717 -0.5837
  670MOL0     H92404   4.977   1.860   9.399 -0.4183  1.0343  0.6149
  670MOL0     H92405   5.007   1.611   9.404  0.7566  0.0423 -0.8815
  670MOL0     H92406   4.906   1.691   9.534  0.4772  0.0820  0.3786
  670MOL0     H92407   5.193   1.615   9.574  0.8375 -2.5646 -0.2014
  670MOL0     H92408   5.080   1.666   9.698 -1.1839 -2.1263  0.6119
  670MOL0     H92409   4.897   1.468   9.775 -1.6752 -1.7040  0.3438
  670MOL0     H92410   4.766   1.138   9.639  2.2623 -0.1923 -2.8279
  670MOL0     H92411   4.774   1.231   9.788  1.3185  3.1608 -0.9256
  670MOL0     H92412   4.983   1.012   9.711  1.0312 -0.2222  0.7192
  670MOL0     H92413   4.975   1.101   9.863 -0.7842 -1.4071  0.2787
  670MOL0     H92414   4.778   1.017   9.946  1.4133 -0.0768  0.5857
  670MOL0     H92415   4.723   0.952   9.786 -1.2592 -0.9256  0.7245
  670MOL0     H92416   4.947   0.861   9.950  1.5631  0.6008 -3.4341
  670MOL0     H92417   4.786   0.784   9.961 -0.7246  2.0690  0.9913
  670MOL0     H92418   4.950   0.629  10.021  0.9193  0.1819 -0.0140
  670MOL0     H92419   4.913   0.364  10.125 -1.2163  2.7013 -0.6603
  670MOL0     H92420   5.064   0.457  10.147 -0.1699 -0.1058 -1.5326
  670MOL0     H92421   5.072   0.285  10.101  0.5443 -1.5880 -0.3214
  670MOL0     H92422   5.117  -0.000  10.007  0.3753 -0.0458  0.7953
  670MOL0     H92423   5.120  -0.247  10.031 -0.7787 -0.0665 -0.4346
  670MOL0     H92424   4.727  -0.474   9.941  0.8111  3.9083 -1.5973
  670MOL0     H92425   4.808  -0.487   9.798 -2.8473  1.1356  0.1031
  670MOL0     H92426   4.765  -0.706   9.875  0.4406  0.8417 -1.3599
  670MOL0     H92427   4.938  -0.672   9.864  0.9002  0.5043  1.4646
  670MOL0     H92428   4.778  -0.688  10.124  0.2047  0.0384  1.4552
  670MOL0     H92429   4.952  -0.637  10.113  0.2968  0.4454 -1.9570
  670MOL0     H92430   5.018  -0.859  10.041  1.1510  1.0695  1.2304
  670MOL0     H92431   4.846  -0.910  10.023  0.7436  0.6620 -0.9204
  670MOL0     H92432   5.000  -0.874  10.290 -1.4817 -1.3725  2.8022
  670MOL0     H92433   4.828  -0.887  10.280 -0.2054  1.6019  1.4963
  670MOL0     H92434   5.003  -1.068  10.100 -0.1343  0.8204 -0.4237
  670MOL0     H92435   4.837  -1.104  10.174  0.6505 -2.1929  1.2713
  670MOL0     H92436   5.115  -1.135  10.285  0.4855  1.9837 -4.4718
  670MOL0     H92437   4.981  -1.255  10.260 -2.5971  1.0291  0.3601
  670MOL0     H92438   4.835  -1.114  10.433  0.4097 -2.9128  0.9213
  670MOL0     H92439   4.980  -1.058  10.500 -1.0330  0.1707  2.2429
  670MOL0     H92440   4.742  -0.278   9.818  2.0361 -3.4027 -1.5463
  670MOL0     H92441   4.741  -0.017   9.819 -0.6487 -1.1211 -1.9492
  670MOL0     H92442   5.101   0.361   9.642  2.5313  0.8262  1.3953
  670MOL0     H92443   5.013   0.597   9.603 -5.0429 -1.3052 -0.8203
  670MOL0     H92444   5.170   2.445   9.254 -0.2205 -1.6948  1.4784
  670MOL0     H92445   5.271   2.624   9.432 -1.2753 -3.8191  1.6622
  670MOL0     H92446   5.725   2.647   9.784  1.7073 -0.0497 -1.1754
  670MOL0     H92447   5.763   2.787   9.957 -1.0984  2.1597  1.9631
  670MOL0     H92448   5.776   3.115  10.127 -5.4665 -2.8857  0.8251
  670MOL0     H92449   5.807   2.948  10.084 -2.5749 -0.2385  0.0546
  670MOL0     H92450   5.959   3.010   9.897  2.2390  0.4446 -1.2023
  670MOL0     H92451   6.027   3.074  10.040 -0.6790 -2.1613  0.8121
  670MOL0     H92452   5.860   3.194   9.818  1.7397 -2.1205 -1.0423
  670MOL0     H92453   5.904   3.294   9.963  2.5310  1.4706 -0.7102
  670MOL0     H92454   6.155   3.281   9.901  1.5540  1.1008 -1.6680
  670MOL0     H92455   6.049   3.329   9.754  0.3157 -1.3308 -1.8245
  670MOL0     H92456   6.215   2.974   9.622 -0.7137 -0.1410  0.1842
  670MOL0     H92457   5.561   3.103   9.726  0.0553 -0.4184  1.6242
  670MOL0     H92458   5.442   2.949   9.507  1.2244 -0.7498  0.8057
  670MOL0     H92459   5.556   3.077   9.486 -1.7099  0.5910  1.3414
  670MOL0     H92460   5.593   2.913   9.416  0.3700 -0.8768  0.4018
  671MOL0     O92461   5.033   5.850   1.444  0.3881 -0.0360 -0.3806
  671MOL0     C92462   5.090   5.771   1.521 -0.3812 -0.1806  0.1392
  671MOL0     O92463   5.046   5.734   1.635 -0.2956  0.2542 -0.1572
  671MOL0     C92464   4.944   5.796   1.704 -0.2473  0.1691  0.4335
  671MOL0     C92465   4.898   5.736   1.820  0.1994  0.9349  0.3135
  671MOL0     C92466   4.796   5.791   1.912 -0.2406  0.7231  0.2601
  671MOL0     C92467   4.724   5.909   1.869 -1.4600  0.3024 -0.7240
  671MOL0     O92468   4.628   5.953   1.953  0.2007  0.6506  0.4698
  671MOL0     C92469   4.527   6.031   1.898  0.0841  0.2071  0.6175
  671MOL0     C92470   4.442   6.097   2.002 -0.0937 -0.5040  0.1479
  671MOL0     C92471   4.306   6.158   1.955 -0.0966 -0.1078  0.7906
  671MOL0     C92472   4.221   6.217   2.073  0.9954  0.2018  0.0528
  671MOL0     C92473   4.097   6.301   2.023 -0.7573  0.6995  0.0877
  671MOL0     C92474   4.000   6.354   2.130  0.2606  0.0842  0.5308
  671MOL0     C92475   3.890   6.423   2.069 -0.3513  0.5724  0.2803
  671MOL0     C92476   3.928   6.554   1.991 -1.1223  0.1978  0.0326
  671MOL0     N92477   3.815   6.641   1.950 -0.3715  0.2041  0.6569
  671MOL0     C92478   3.730   6.615   1.841  0.3429  0.1722  1.1319
  671MOL0     C92479   3.655   6.722   1.827  0.5378 -0.0420 -0.8888
  671MOL0     C92480   3.548   6.750   1.736 -0.5345 -0.9136  0.6342
  671MOL0     C92481   3.410   6.772   1.798  0.2804 -0.0566 -0.7470
  671MOL0     C92482   3.402   6.916   1.853  0.4478 -0.2619 -0.4651
  671MOL0     C92483   3.269   6.937   1.931 -0.2827 -0.1835  0.3377
  671MOL0     O92484   3.251   7.081   1.937 -0.1215  0.0364 -0.0280
  671MOL0     C92485   3.155   7.131   2.018 -1.0257 -0.2211 -0.5995
  671MOL0     C92486   3.117   7.261   1.999  0.5313 -0.0927 -0.3286
  671MOL0     C92487   3.016   7.327   2.069  0.4953 -0.1900  0.1904
  671MOL0     C92488   2.977   7.471   2.021 -0.0683  0.2275 -0.4682
  671MOL0     C92489   2.941   7.262   2.168 -0.9612  0.0371 -0.6150
  671MOL0     C92490   2.819   7.323   2.232  0.6129 -0.4171  0.4035
  671MOL0     O92491   2.751   7.415   2.162  0.4563 -0.1233 -0.1726
  671MOL0     C92492   2.684   7.518   2.220 -0.7641  0.2047 -0.2419
  671MOL0     C92493   2.645   7.629   2.137 -0.1965  0.3843 -0.3317
  671MOL0     C92494   2.595   7.749   2.185 -2.0594  0.6778  0.1407
  671MOL0     C92495   2.583   7.764   2.324  0.6466  0.7045  0.5107
  671MOL0     O92496   2.512   7.861   2.392 -0.0346 -0.7121  0.3650
  671MOL0     C92497   2.548   7.884   2.526 -0.7884  0.2439 -0.6466
  671MOL0     C92498   2.500   8.021   2.571 -0.0752 -0.5553 -0.1597
  671MOL0     C92499   2.571   8.074   2.700 -0.4585 -0.2148 -0.5622
  671MOL0     C92500   2.512   8.206   2.750  1.0506 -0.5805  0.2467
  671MOL0     C92501   2.568   8.265   2.877  0.9565  0.4025 -0.8527
  671MOL0     C92502   2.465   8.369   2.913 -0.8885 -1.1389 -0.8515
  671MOL0     C92503   2.508   8.446   3.044 -0.1008  0.9402  0.4640
  671MOL0     C92504   2.424   8.577   3.058  0.1067 -1.1109  0.3882
  671MOL0    Cl92505   2.254   8.543   3.071  0.1727  0.2084  0.0339
  671MOL0     C92506   2.613   7.652   2.409  0.4069 -0.9530 -0.5370
  671MOL0     C92507   2.671   7.536   2.357  0.6090 -0.2143  0.1293
  671MOL0     O92508   2.770   7.262   2.327 -0.3050 -0.0015 -0.2256
  671MOL0     C92509   2.974   7.126   2.188  0.2655  0.5770  0.0088
  671MOL0     C92510   3.079   7.060   2.117 -0.3297  0.2864  0.3895
  671MOL0     N92511   3.695   6.819   1.919 -0.2927  0.4434  0.0731
  671MOL0     N92512   3.800   6.762   1.980 -0.4161 -0.4320 -0.5653
  671MOL0     C92513   4.763   5.964   1.746  0.6526 -0.4054  0.4199
  671MOL0     C92514   4.876   5.918   1.666  1.1152  0.1803  0.2440
  671MOL0     C92515   5.214   5.717   1.460  0.1679 -0.7012 -0.4076
  671MOL0     C92516   5.198   5.609   1.376 -0.1308  0.1321  0.1510
  671MOL0     C92517   5.299   5.562   1.300 -1.0838  1.5252  0.1727
  671MOL0     C92518   5.422   5.634   1.298 -0.5425  0.4642 -0.2567
  671MOL0     O92519   5.525   5.578   1.226  0.6057 -0.0285 -0.5493
  671MOL0     C92520   5.589   5.651   1.125 -0.1700  1.0244 -0.9312
  671MOL0     C92521   5.738   5.613   1.149 -0.4699  0.3413  1.0515
  671MOL0     C92522   5.782   5.465   1.106 -0.1822 -0.5181  0.5065
  671MOL0     C92523   5.766   5.465   0.944  0.7033 -0.1268 -0.3432
  671MOL0     C92524   5.892   5.482   0.864  0.4195  0.3591  0.3794
  671MOL0     C92525   5.992   5.485   0.791 -0.0846  0.0687 -0.7639
  671MOL0     C92526   5.440   5.747   1.372 -0.6982  1.0002 -0.3479
  671MOL0     C92527   5.335   5.787   1.456 -0.5165 -0.6863  1.1342
  671MOL0     C92528   5.371   5.897   1.558  0.8279  0.1743 -0.4688
  671MOL0     H92529   4.937   5.644   1.862  1.1725  1.2437  0.1003
  671MOL0     H92530   4.783   5.738   2.006  0.0045 -1.6393 -0.9671
  671MOL0     H92531   4.468   5.963   1.836 -1.0784 -2.0842  3.9333
  671MOL0     H92532   4.563   6.112   1.833  3.2193 -2.6011 -1.4901
  671MOL0     H92533   4.426   6.017   2.074 -0.7036  0.6225  1.2925
  671MOL0     H92534   4.491   6.185   2.045 -1.2489 -0.1130  0.6813
  671MOL0     H92535   4.317   6.226   1.869 -2.1695  1.7067  1.8737
  671MOL0     H92536   4.238   6.083   1.913 -0.5299  1.0126 -0.6098
  671MOL0     H92537   4.170   6.140   2.132  1.6720 -0.4950 -0.2526
  671MOL0     H92538   4.282   6.281   2.137 -0.5764  0.5632  1.2260
  671MOL0     H92539   4.041   6.242   1.951  3.3607 -1.6764 -1.5298
  671MOL0     H92540   4.138   6.382   1.962  0.8677 -2.0075 -2.6594
  671MOL0     H92541   3.967   6.265   2.185 -2.9353  1.4068  0.9339
  671MOL0     H92542   4.056   6.410   2.206  1.2649 -0.1885  0.0050
  671MOL0     H92543   3.817   6.440   2.148  0.2308 -1.4161  1.3119
  671MOL0     H92544   3.837   6.361   1.996  0.1975  0.0803  0.2875
  671MOL0     H92545   4.008   6.609   2.042  0.8147 -1.3364 -1.2135
  671MOL0     H92546   3.988   6.529   1.903  6.5738  2.4787  3.7175
  671MOL0     H92547   3.732   6.537   1.765 -0.9456  2.2953 -1.2117
  671MOL0     H92548   3.547   6.664   1.669  1.0695 -1.3583  1.1454
  671MOL0     H92549   3.576   6.833   1.671  1.2850 -2.1859 -0.2832
  671MOL0     H92550   3.329   6.753   1.728 -1.0695 -0.5297  0.8830
  671MOL0     H92551   3.391   6.701   1.880  3.1067  0.2316  0.2769
  671MOL0     H92552   3.491   6.936   1.913 -0.2478 -0.9982  0.8864
  671MOL0     H92553   3.397   6.982   1.766  0.8749 -1.0761 -1.1236
  671MOL0     H92554   3.179   6.898   1.884 -2.7821  3.3868  1.7414
  671MOL0     H92555   3.274   6.889   2.030 -0.9444  1.0754  1.0081
  671MOL0     H92556   3.166   7.315   1.918  1.2934  0.4564  0.4787
  671MOL0     H92557   2.968   7.540   2.106  2.9747  0.1466  0.0285
  671MOL0     H92558   2.890   7.455   1.957  0.7528 -1.0442 -1.2989
  671MOL0     H92559   3.061   7.505   1.958 -2.0914 -1.9281 -4.7357
  671MOL0     H92560   2.656   7.608   2.031  1.0757 -3.3530  0.3675
  671MOL0     H92561   2.556   7.827   2.121  0.8683  0.9406 -1.4945
  671MOL0     H92562   2.521   7.812   2.603 -1.2745  0.1513 -0.9030
  671MOL0     H92563   2.657   7.887   2.521 -0.7795  0.4377 -0.3557
  671MOL0     H92564   2.500   8.095   2.491 -0.4792  0.3122  0.6194
  671MOL0     H92565   2.397   7.995   2.598  0.3152 -2.8413 -0.6808
  671MOL0     H92566   2.678   8.088   2.685 -0.2178 -0.7363  0.5569
  671MOL0     H92567   2.571   7.999   2.780  1.7943 -0.7826 -1.0234
  671MOL0     H92568   2.406   8.183   2.768  1.9619 -5.6938  0.4693
  671MOL0     H92569   2.530   8.270   2.663  3.5176 -0.2208  0.9542
  671MOL0     H92570   2.566   8.198   2.964  2.0451  4.2641  2.4325
  671MOL0     H92571   2.673   8.288   2.855  0.4870  3.1698 -0.5205
  671MOL0     H92572   2.373   8.311   2.919  0.2893 -3.1461 -1.3006
  671MOL0     H92573   2.466   8.442   2.831 -0.4454 -0.6566 -0.4286
  671MOL0     H92574   2.613   8.475   3.037 -0.0446  0.9331  1.2109
  671MOL0     H92575   2.504   8.380   3.131 -2.9616 -0.2828 -0.4772
  671MOL0     H92576   2.443   8.648   2.976 -3.3107  1.7871  1.7913
  671MOL0     H92577   2.446   8.620   3.156 -3.4673 -0.0620  0.8785
  671MOL0     H92578   2.591   7.644   2.515 -5.3514 -2.1679 -1.4752
  671MOL0     H92579   2.703   7.465   2.433  2.7394  1.3484  0.7924
  671MOL0     H92580   2.912   7.077   2.262 -0.8489 -0.2581 -1.4441
  671MOL0     H92581   3.092   6.954   2.140  1.2755 -0.7078 -4.0841
  671MOL0     H92582   4.726   6.061   1.714  0.7351  0.2046  2.0903
  671MOL0     H92583   4.886   5.981   1.578  1.6121  2.6564  1.9694
  671MOL0     H92584   5.109   5.547   1.374  1.2683 -2.0256 -2.6991
  671MOL0     H92585   5.304   5.471   1.241 -2.4201  2.0024 -0.7438
  671MOL0     H92586   5.543   5.621   1.030 -1.2988 -0.4448  0.0335
  671MOL0     H92587   5.589   5.757   1.150  2.3778  1.1434 -1.1187
  671MOL0     H92588   5.761   5.635   1.254 -4.0609 -0.8548  2.2524
  671MOL0     H92589   5.786   5.689   1.087  0.0327 -0.0670  0.9414
  671MOL0     H92590   5.880   5.441   1.148 -0.7322 -0.0780  2.1075
  671MOL0     H92591   5.707   5.400   1.152 -1.4951 -0.0036 -0.8365
  671MOL0     H92592   5.693   5.540   0.911 -0.7979 -1.1353  0.5568
  671MOL0     H92593   5.722   5.374   0.901 -2.2253  1.5870 -1.2843
  671MOL0     H92594   6.072   5.487   0.719  0.8704  2.0952  0.2640
  671MOL0     H92595   5.536   5.798   1.365  0.9570 -2.0558 -5.7801
  671MOL0     H92596   5.314   5.871   1.648  2.0397 -0.5115  0.1277
  671MOL0     H92597   5.475   5.915   1.586 -0.3742  1.2418  4.0646
  671MOL0     H92598   5.338   5.992   1.515  0.9063  0.1380 -0.6096
  672MOL0     O92599   3.584   4.196   2.998 -0.3696  0.3863  0.2130
  672MOL0     C92600   3.579   4.074   3.005 -1.1305  1.5853 -0.0764
  672MOL0     O92601   3.533   4.006   3.116  0.0502  0.4706  0.5747
  672MOL0     C92602   3.439   4.057   3.203  0.2399  0.1905  0.0360
  672MOL0     C92603   3.357   4.165   3.176  1.1064 -1.1300 -0.7353
  672MOL0     C92604   3.268   4.209   3.272  0.3894 -0.2242  0.0447
  672MOL0     C92605   3.261   4.160   3.401 -0.4983 -0.0542 -0.0777
  672MOL0     O92606   3.179   4.227   3.482 -0.0100 -0.0820  0.7992
  672MOL0     C92607   3.113   4.147   3.574  0.0322  0.7687 -0.0733
  672MOL0     C92608   3.168   4.172   3.715 -0.5179  0.2197 -1.0952
  672MOL0     C92609   3.178   4.320   3.763 -0.0049 -1.0511  0.7788
  672MOL0     C92610   3.305   4.365   3.829  0.4694 -0.3877  0.7012
  672MOL0     C92611   3.287   4.520   3.869 -1.0944 -1.0340 -0.1526
  672MOL0     C92612   3.407   4.572   3.960  0.3048  0.3162  1.5333
  672MOL0     C92613   3.411   4.725   3.941 -0.8805 -0.8587 -0.1936
  672MOL0     C92614   3.550   4.774   3.991  0.3064 -0.2693  0.4855
  672MOL0     N92615   3.578   4.767   4.136 -0.4867  0.2008 -0.5095
  672MOL0     C92616   3.693   4.813   4.195  0.2162 -0.4168  0.2355
  672MOL0     C92617   3.661   4.819   4.329  0.8781 -0.8699  0.2317
  672MOL0     C92618   3.758   4.897   4.422  0.5591  0.1024 -0.2038
  672MOL0     C92619   3.757   5.052   4.406 -0.2013  0.1324 -0.4127
  672MOL0     C92620   3.628   5.126   4.433 -0.5004  0.3882 -1.2847
  672MOL0     C92621   3.587   5.152   4.580  0.3554 -0.2949  0.0064
  672MOL0     O92622   3.535   5.285   4.591 -0.7516  0.0518  0.3944
  672MOL0     C92623   3.550   5.342   4.716  0.6299 -0.2027  0.3042
  672MOL0     C92624   3.531   5.480   4.728 -0.9530  0.0973 -0.0329
  672MOL0     C92625   3.535   5.546   4.848 -0.2103 -0.7130 -0.5422
  672MOL0     C92626   3.519   5.700   4.854 -0.4625  0.9768 -0.2605
  672MOL0     C92627   3.583   5.477   4.963 -0.5387  0.0931 -0.2635
  672MOL0     C92628   3.600   5.541   5.100  0.2990 -0.5897  0.6352
  672MOL0     O92629   3.616   5.446   5.194  0.3562 -0.4257 -0.0861
  672MOL0     C92630   3.616   5.467   5.331 -0.6693 -0.1507  0.5138
  672MOL0     C92631   3.647   5.355   5.401 -0.3598  0.0040  0.6585
  672MOL0     C92632   3.672   5.363   5.538  0.5984  0.3216  0.0582
  672MOL0     C92633   3.662   5.487   5.611 -0.8255 -0.8114  0.2353
  672MOL0     O92634   3.685   5.497   5.745 -0.6286  0.2146 -0.0952
  672MOL0     C92635   3.817   5.507   5.781 -0.3532  0.2525  0.1976
  672MOL0     C92636   3.823   5.599   5.892 -0.0138  0.5088 -0.7922
  672MOL0     C92637   3.810   5.749   5.848 -0.5356 -0.4619 -0.4230
  672MOL0     C92638   3.781   5.843   5.960 -0.2974 -0.0868 -0.4470
  672MOL0     C92639   3.907   5.886   6.031 -0.8869 -0.4723 -0.4390
  672MOL0     C92640   3.902   5.994   6.140  0.5246  1.1453 -0.0384
  672MOL0     C92641   3.821   5.963   6.259  0.3295  0.4038 -0.1333
  672MOL0     C92642   3.807   6.070   6.371 -0.0251  0.1198  0.2673
  672MOL0    Cl92643   3.658   6.014   6.474 -0.3819  0.3093 -0.0448
  672MOL0     C92644   3.634   5.599   5.533 -0.6843 -0.0680 -0.6310
  672MOL0     C92645   3.613   5.596   5.398  0.8913 -0.5933 -0.3675
  672MOL0     O92646   3.602   5.666   5.117 -0.1730  0.0569  0.6477
  672MOL0     C92647   3.607   5.343   4.951  0.3189  1.5463  0.2403
  672MOL0     C92648   3.591   5.270   4.830  0.3482  0.4539  0.4972
  672MOL0     N92649   3.526   4.764   4.338  0.2586 -0.6110  0.0075
  672MOL0     N92650   3.484   4.732   4.229  0.4311 -0.3997  0.1021
  672MOL0     C92651   3.352   4.056   3.433  0.6791  0.6336 -0.1399
  672MOL0     C92652   3.433   4.004   3.331  0.7212 -0.4078 -0.7331
  672MOL0     C92653   3.647   3.995   2.896 -0.3571 -0.4101 -0.9660
  672MOL0     C92654   3.666   3.856   2.922  0.7049  0.0433  0.4277
  672MOL0     C92655   3.725   3.776   2.833  0.3685 -0.8666  0.2770
  672MOL0     C92656   3.767   3.825   2.709 -0.8177 -0.4079 -0.8902
  672MOL0     O92657   3.837   3.749   2.618 -0.1823 -0.0648 -0.5645
  672MOL0     C92658   3.970   3.794   2.613 -0.4580  0.2157  0.1165
  672MOL0     C92659   4.063   3.676   2.627 -0.2349  0.8395  0.2777
  672MOL0     C92660   4.089   3.632   2.777  0.8693  0.0160 -0.9367
  672MOL0     C92661   4.196   3.524   2.785 -0.6085  0.1167  0.1951
  672MOL0     C92662   4.269   3.501   2.914  0.3158  0.0287 -0.4750
  672MOL0     C92663   4.317   3.472   3.024 -0.2372  0.6088 -0.2956
  672MOL0     C92664   3.753   3.958   2.686 -0.1696  0.7633  0.3987
  672MOL0     C92665   3.689   4.043   2.765 -0.1101  0.5999 -0.0255
  672MOL0     C92666   3.662   4.186   2.724  0.7280  0.9978  0.4795
  672MOL0     H92667   3.359   4.217   3.082 -0.7962  1.0470  0.3289
  672MOL0     H92668   3.203   4.292   3.249  1.6864  0.6386 -0.6359
  672MOL0     H92669   3.126   4.039   3.559  1.3314  0.6499  1.5537
  672MOL0     H92670   3.005   4.159   3.581 -0.1282 -1.4065  2.7602
  672MOL0     H92671   3.093   4.121   3.776 -2.5276  4.3653  0.2584
  672MOL0     H92672   3.268   4.129   3.731 -0.0358  1.7958  0.4573
  672MOL0     H92673   3.163   4.380   3.673  2.4502  0.4731  1.3032
  672MOL0     H92674   3.095   4.337   3.831  0.2297  2.7747  0.2857
  672MOL0     H92675   3.305   4.310   3.924 -2.6263 -1.8964 -0.0681
  672MOL0     H92676   3.393   4.337   3.769 -0.1721 -3.3387  0.9788
  672MOL0     H92677   3.190   4.533   3.919 -0.4810 -1.8980  1.3252
  672MOL0     H92678   3.282   4.576   3.776  0.4205  0.1663  0.4584
  672MOL0     H92679   3.401   4.535   4.063  0.7975  0.3882  1.5886
  672MOL0     H92680   3.501   4.537   3.917  1.2617  3.2827  0.9940
  672MOL0     H92681   3.337   4.782   3.998  0.3955  0.8008 -0.1416
  672MOL0     H92682   3.406   4.741   3.833 -4.2030 -3.3479 -0.5932
  672MOL0     H92683   3.628   4.716   3.941  1.1824  0.6079  0.8068
  672MOL0     H92684   3.559   4.879   3.964  0.3430 -0.4301 -0.1268
  672MOL0     H92685   3.784   4.838   4.143 -0.6242 -1.3061 -1.7444
  672MOL0     H92686   3.860   4.857   4.419  0.5864 -0.6197  3.6900
  672MOL0     H92687   3.723   4.871   4.523 -2.1916  1.3578 -0.7369
  672MOL0     H92688   3.842   5.093   4.463  0.6757  1.0776 -2.3019
  672MOL0     H92689   3.787   5.075   4.303 -1.7068  4.1892 -0.1462
  672MOL0     H92690   3.649   5.223   4.387  0.8214  1.6836  1.7638
  672MOL0     H92691   3.538   5.084   4.386 -0.6410  1.7405 -2.2980
  672MOL0     H92692   3.511   5.080   4.611  0.8226 -1.5591 -1.6299
  672MOL0     H92693   3.675   5.128   4.641 -0.2879 -0.9575  0.6991
  672MOL0     H92694   3.501   5.533   4.638  5.5583 -0.0691 -2.9126
  672MOL0     H92695   3.445   5.734   4.926 -1.3617 -1.2305 -0.0656
  672MOL0     H92696   3.502   5.743   4.755  2.5292  0.6294 -1.0322
  672MOL0     H92697   3.618   5.736   4.885  0.6578 -1.1941 -1.1125
  672MOL0     H92698   3.647   5.254   5.363 -0.1509  0.0235  0.6071
  672MOL0     H92699   3.687   5.266   5.584 -3.7150 -0.7988 -0.4564
  672MOL0     H92700   3.851   5.416   5.832 -0.7230  1.3703  2.5957
  672MOL0     H92701   3.888   5.535   5.703 -0.1714 -1.4159 -0.2572
  672MOL0     H92702   3.742   5.592   5.965 -1.6592  2.4321 -2.3044
  672MOL0     H92703   3.919   5.583   5.942 -0.4970  3.1717  1.1681
  672MOL0     H92704   3.726   5.755   5.778 -1.8999 -0.0501  1.1572
  672MOL0     H92705   3.901   5.784   5.800 -0.7240  1.3661  0.4504
  672MOL0     H92706   3.708   5.820   6.038  1.9006 -2.5476  1.0530
  672MOL0     H92707   3.753   5.932   5.903 -1.9798  0.3578  1.0057
  672MOL0     H92708   3.955   5.802   6.083 -1.2615 -1.6164 -1.8799
  672MOL0     H92709   3.983   5.924   5.961  0.1762  1.5779  1.6915
  672MOL0     H92710   3.846   6.068   6.082 -2.1930 -2.1975 -2.1025
  672MOL0     H92711   4.003   6.026   6.165  0.0354  1.4322  1.7091
  672MOL0     H92712   3.837   5.872   6.318 -1.8134  1.0450  1.5500
  672MOL0     H92713   3.717   5.945   6.230  0.0027 -1.8000  2.0495
  672MOL0     H92714   3.794   6.167   6.322  1.0626  0.9637  1.5788
  672MOL0     H92715   3.902   6.080   6.425 -0.7455 -0.0081  1.6270
  672MOL0     H92716   3.651   5.690   5.590 -1.6736  0.8284 -1.7050
  672MOL0     H92717   3.599   5.694   5.354 -1.0331 -1.0888 -0.9936
  672MOL0     H92718   3.649   5.289   5.035 -0.1246 -0.8223 -0.9781
  672MOL0     H92719   3.622   5.167   4.823 -0.4810  0.1721  0.8502
  672MOL0     H92720   3.346   4.005   3.529 -0.5924 -1.0469 -1.0504
  672MOL0     H92721   3.504   3.923   3.347  0.3081 -0.8845 -1.2400
  672MOL0     H92722   3.637   3.809   3.016  0.3525  1.3484  0.9855
  672MOL0     H92723   3.717   3.669   2.844 -2.0555 -0.5363  2.9055
  672MOL0     H92724   3.988   3.830   2.511 -1.7026 -0.0221 -0.1956
  672MOL0     H92725   3.992   3.874   2.684  0.9927 -0.6530  0.6886
  672MOL0     H92726   4.159   3.707   2.587  0.1338  0.7249  1.0482
  672MOL0     H92727   4.014   3.599   2.567 -1.0632  2.3703 -1.0984
  672MOL0     H92728   4.117   3.719   2.838 -0.2152  0.5339 -1.1527
  672MOL0     H92729   4.001   3.582   2.816  2.1493 -0.5969  1.3195
  672MOL0     H92730   4.271   3.539   2.707  0.8949  0.7031  1.6815
  672MOL0     H92731   4.134   3.441   2.751 -3.2710  1.4112  1.5251
  672MOL0     H92732   4.371   3.452   3.114 -0.6045 -0.7141 -0.3597
  672MOL0     H92733   3.781   4.002   2.591 -1.0519  1.4767  0.4513
  672MOL0     H92734   3.554   4.198   2.723  0.8433  2.1010  0.0495
  672MOL0     H92735   3.707   4.250   2.801 -0.1926 -2.0409  3.8422
  672MOL0     H92736   3.704   4.206   2.626 -1.5818 -0.7378 -0.9657
  673MOL0     O92737   5.418   9.992  10.469  0.6422  0.5348  0.1726
  673MOL0     C92738   5.458  10.056  10.564 -0.9766 -0.1989 -0.6401
  673MOL0     O92739   5.490  10.188  10.558 -0.0636  0.3328  0.2787
  673MOL0     C92740   5.488  10.258  10.443 -0.0472 -0.3461 -0.1100
  673MOL0     C92741   5.384  10.287  10.369 -0.2026  0.0838 -0.0756
  673MOL0     C92742   5.386  10.378  10.265 -0.9231 -0.0102  0.8009
  673MOL0     C92743   5.518  10.436  10.230 -1.2184 -1.0014 -0.5166
  673MOL0     O92744   5.540  10.541  10.142 -0.2863  0.3926  0.0416
  673MOL0     C92745   5.439  10.638  10.138 -0.3216  0.4374  0.5251
  673MOL0     C92746   5.411  10.707  10.271 -0.3568 -1.3116  1.3730
  673MOL0     C92747   5.345  10.843  10.255  0.1799 -0.7249 -0.4912
  673MOL0     C92748   5.333  10.907  10.389 -0.3598 -0.1140 -0.2014
  673MOL0     C92749   5.267  11.043  10.373 -1.0698 -0.5343  0.2735
  673MOL0     C92750   5.215  11.106  10.496 -0.4220  0.1327  0.3927
  673MOL0     C92751   5.110  11.218  10.490  0.4530  0.1054 -0.6873
  673MOL0     C92752   4.995  11.211  10.598 -0.2901  0.1781 -0.2439
  673MOL0     N92753   5.053  11.265  10.718 -0.0620  0.8327 -0.8299
  673MOL0     C92754   5.183  11.269  10.760 -0.5976 -0.7914  0.4715
  673MOL0     C92755   5.174  11.358  10.864 -0.1954 -0.2212 -0.5281
  673MOL0     C92756   5.299  11.393  10.940 -0.5512 -1.0084 -0.7216
  673MOL0     C92757   5.377  11.267  10.984 -0.1600 -0.8476  0.8554
  673MOL0     C92758   5.450  11.309  11.118 -0.2677  0.5593 -0.5505
  673MOL0     C92759   5.493  11.187  11.204  0.2380  0.1789 -0.1482
  673MOL0     O92760   5.546  11.100  11.114  0.9857  0.2642  0.5490
  673MOL0     C92761   5.577  10.972  11.151 -0.2320  0.6173 -0.3106
  673MOL0     C92762   5.572  10.920  11.277 -0.6006 -0.3904  1.0210
  673MOL0     C92763   5.605  10.780  11.309 -0.2418 -0.1539  0.9896
  673MOL0     C92764   5.591  10.732  11.455 -0.1193  0.7995 -0.4745
  673MOL0     C92765   5.636  10.695  11.201  0.4698 -1.0872 -0.3482
  673MOL0     C92766   5.684  10.557  11.216  0.5155  1.2295  1.2541
  673MOL0     O92767   5.641  10.475  11.104 -0.3132 -0.2148 -0.1005
  673MOL0     C92768   5.694  10.350  11.101 -0.3344  0.5257  0.4274
  673MOL0     C92769   5.829  10.318  11.133 -0.4803 -0.6101  0.7947
  673MOL0     C92770   5.884  10.195  11.127 -0.4834  0.9079 -0.1414
  673MOL0     C92771   5.797  10.084  11.116 -0.2410 -0.3626  0.2896
  673MOL0     O92772   5.859   9.964  11.126 -0.9711  1.0752  1.1522
  673MOL0     C92773   5.790   9.835  11.131  0.7128  0.0664 -0.6026
  673MOL0     C92774   5.875   9.728  11.074 -0.7186 -0.1609 -0.2772
  673MOL0     C92775   5.810   9.586  11.100  0.1653 -0.6012  0.2599
  673MOL0     C92776   5.791   9.529  10.967 -0.3200 -0.1170  0.4030
  673MOL0     C92777   5.752   9.377  10.969  0.1192  0.3418 -0.1893
  673MOL0     C92778   5.880   9.299  10.940 -0.7626 -0.0738  0.0753
  673MOL0     C92779   5.932   9.243  11.072 -1.0780 -0.6540  1.2091
  673MOL0     C92780   5.955   9.091  11.060 -0.7855  0.2147  0.1641
  673MOL0    Cl92781   5.812   9.004  11.010  0.7886  0.2167 -0.0462
  673MOL0     C92782   5.665  10.108  11.088  0.3727 -0.6026 -0.4798
  673MOL0     C92783   5.615  10.241  11.079 -0.8476 -0.6330 -0.2330
  673MOL0     O92784   5.749  10.520  11.311 -0.2089 -0.0873  0.4205
  673MOL0     C92785   5.638  10.754  11.072  0.2406 -0.0272 -0.3630
  673MOL0     C92786   5.607  10.885  11.053 -0.1016  0.4950 -0.3926
  673MOL0     N92787   5.044  11.397  10.894  0.6331  0.0282 -0.2231
  673MOL0     N92788   4.974  11.328  10.812  0.3621 -0.6546 -0.2324
  673MOL0     C92789   5.626  10.386  10.294  0.2252  0.5394  1.2641
  673MOL0     C92790   5.610  10.298  10.395 -0.0021  0.2217  0.1191
  673MOL0     C92791   5.432  10.009  10.704  0.7427  0.0874  0.0785
  673MOL0     C92792   5.373  10.105  10.797 -0.2356  0.5850  0.8433
  673MOL0     C92793   5.354  10.065  10.929  1.6892  0.0358 -0.2806
  673MOL0     C92794   5.382   9.934  10.972 -0.4273  0.2405  0.5095
  673MOL0     O92795   5.334   9.890  11.098 -0.4998  0.1457 -0.3878
  673MOL0     C92796   5.199   9.838  11.097 -0.2345  0.4569  0.2305
  673MOL0     C92797   5.198   9.691  11.043  0.3200  0.4664 -0.3110
  673MOL0     C92798   5.287   9.600  11.121 -0.3792 -0.0231 -0.8045
  673MOL0     C92799   5.322   9.467  11.053  0.3853  0.3933  0.2111
  673MOL0     C92800   5.398   9.478  10.929 -0.4620 -0.3823 -0.5447
  673MOL0     C92801   5.461   9.485  10.825  0.8802  0.3043 -0.4540
  673MOL0     C92802   5.449   9.857  10.885  1.0570  0.3816  0.7812
  673MOL0     C92803   5.477   9.883  10.754 -0.0421 -0.7894  0.2672
  673MOL0     C92804   5.571   9.794  10.677 -0.4859  0.9377  0.9278
  673MOL0     H92805   5.288  10.249  10.401  0.3515 -0.4283  1.0151
  673MOL0     H92806   5.298  10.417  10.216  0.0130  1.2689  0.0800
  673MOL0     H92807   5.342  10.598  10.105  0.1183  1.4229 -2.3160
  673MOL0     H92808   5.473  10.699  10.053 -2.2730 -1.5323 -1.8382
  673MOL0     H92809   5.344  10.646  10.333 -1.0825 -0.0243  1.8974
  673MOL0     H92810   5.513  10.724  10.309  0.9555 -0.7352 -2.0846
  673MOL0     H92811   5.404  10.914  10.197  2.0936 -1.3294  0.6345
  673MOL0     H92812   5.245  10.823  10.216 -1.1023  3.9455 -0.1508
  673MOL0     H92813   5.278  10.840  10.455 -0.8129  0.0467 -0.4148
  673MOL0     H92814   5.428  10.921  10.442 -1.1881 -0.3663  1.4064
  673MOL0     H92815   5.179  11.019  10.313 -2.1447  0.8330  1.2166
  673MOL0     H92816   5.322  11.120  10.319 -1.7271  0.1303  0.5182
  673MOL0     H92817   5.172  11.027  10.559 -1.8247 -0.8415 -1.6894
  673MOL0     H92818   5.303  11.156  10.538  0.4039 -0.6366 -0.3874
  673MOL0     H92819   5.052  11.211  10.398 -0.1423 -2.5105 -0.1912
  673MOL0     H92820   5.168  11.311  10.492  0.4797  0.0784 -0.0070
  673MOL0     H92821   4.897  11.255  10.576 -0.7983 -0.3040  0.9533
  673MOL0     H92822   4.970  11.105  10.601 -3.0249  0.7213  3.2612
  673MOL0     H92823   5.272  11.224  10.717  2.7044  4.1464  1.3203
  673MOL0     H92824   5.246  11.440  11.024 -1.9680 -0.4783 -1.8773
  673MOL0     H92825   5.358  11.476  10.900  0.0370 -0.6692  0.7937
  673MOL0     H92826   5.300  11.194  11.009 -0.8709  0.2572  2.0651
  673MOL0     H92827   5.459  11.243  10.916 -0.3343 -1.1256  0.7440
  673MOL0     H92828   5.545  11.359  11.095  0.5631 -1.1111 -0.9142
  673MOL0     H92829   5.388  11.379  11.173 -1.3473 -0.1721 -0.8145
  673MOL0     H92830   5.574  11.207  11.275  1.2316 -0.5856 -1.0461
  673MOL0     H92831   5.397  11.151  11.242 -2.1736  0.1041 -5.5204
  673MOL0     H92832   5.541  10.998  11.346 -0.2931  0.2356  0.4597
  673MOL0     H92833   5.564  10.818  11.517  0.6324  0.4944  0.2921
  673MOL0     H92834   5.688  10.698  11.492  0.0894  1.0063 -0.8224
  673MOL0     H92835   5.528  10.646  11.478 -0.4638  1.7676  2.6213
  673MOL0     H92836   5.897  10.400  11.153 -2.4511  2.0090 -2.0771
  673MOL0     H92837   5.988  10.166  11.134 -0.6546  0.0011 -1.1335
  673MOL0     H92838   5.764   9.816  11.236 -1.0552 -3.0935 -1.4633
  673MOL0     H92839   5.695   9.846  11.078 -1.4911 -0.0481  2.9508
  673MOL0     H92840   5.900   9.748  10.969 -1.5888 -1.0333 -0.6669
  673MOL0     H92841   5.974   9.732  11.121  1.0469  3.2550 -3.7323
  673MOL0     H92842   5.711   9.598  11.144  1.2609 -0.8713  2.9945
  673MOL0     H92843   5.867   9.512  11.157  2.6111 -0.7847 -2.2094
  673MOL0     H92844   5.879   9.541  10.904 -2.1005  0.8149 -2.0809
  673MOL0     H92845   5.708   9.575  10.911  1.6512  1.2057 -1.6099
  673MOL0     H92846   5.688   9.347  11.052 -2.3036  3.8345 -0.5863
  673MOL0     H92847   5.702   9.371  10.872  3.1420  2.3287 -2.0373
  673MOL0     H92848   5.960   9.353  10.890 -0.7793 -0.6758 -0.6175
  673MOL0     H92849   5.862   9.220  10.867 -0.0218  1.6928 -2.1375
  673MOL0     H92850   5.864   9.256  11.156  2.6641  1.2517  4.2871
  673MOL0     H92851   6.027   9.294  11.090  0.4562 -2.5396 -0.8060
  673MOL0     H92852   5.972   9.043  11.157  3.1654 -4.4379 -2.3355
  673MOL0     H92853   6.045   9.072  11.001  0.5193  2.1891  1.3942
  673MOL0     H92854   5.600  10.021  11.081  0.4264 -0.6696 -0.1574
  673MOL0     H92855   5.512  10.248  11.044 -1.7538  0.1512  2.3512
  673MOL0     H92856   5.659  10.692  10.986  2.4384 -1.8424  1.3478
  673MOL0     H92857   5.606  10.923  10.952 -5.9301 -1.2740 -1.3721
  673MOL0     H92858   5.729  10.410  10.269  0.9640  1.3719  4.6340
  673MOL0     H92859   5.697  10.253  10.440 -0.4068 -0.4159  0.2679
  673MOL0     H92860   5.354  10.209  10.772  0.1321  0.0270 -2.2189
  673MOL0     H92861   5.295  10.130  10.993 -2.1939  0.1542 -3.6036
  673MOL0     H92862   5.159   9.846  11.199  0.2355 -1.7991  0.6426
  673MOL0     H92863   5.128   9.897  11.038 -0.4287  2.3577  2.2452
  673MOL0     H92864   5.224   9.703  10.938  0.8870 -1.5082 -0.4371
  673MOL0     H92865   5.109   9.628  11.042  2.3113 -2.5873  0.2559
  673MOL0     H92866   5.378   9.651  11.152 -0.3834 -1.1211  1.2205
  673MOL0     H92867   5.240   9.581  11.219  0.5233 -2.1475 -0.7147
  673MOL0     H92868   5.235   9.406  11.027  2.2071 -1.5767 -1.5570
  673MOL0     H92869   5.379   9.408  11.125  3.3117  2.2271 -0.4278
  673MOL0     H92870   5.513   9.491  10.732  0.0401  4.0575 -0.8505
  673MOL0     H92871   5.490   9.762  10.918 -1.1899 -1.2303 -0.8159
  673MOL0     H92872   5.637   9.860  10.620 -1.3141  0.2949 -0.8866
  673MOL0     H92873   5.630   9.726  10.739 -0.2255 -0.1179 -0.4307
  673MOL0     H92874   5.526   9.751  10.586  0.6836  4.8835 -1.7831
  674MOL0     O92875   7.527   2.348   1.680  0.2737 -0.1216 -0.0596
  674MOL0     C92876   7.445   2.399   1.756 -0.1714  0.9857 -0.9216
  674MOL0     O92877   7.455   2.520   1.816 -0.3870 -0.1821 -0.2288
  674MOL0     C92878   7.575   2.596   1.810  0.3824  0.2486 -0.1048
  674MOL0     C92879   7.705   2.545   1.790  0.7081 -0.1409 -0.1389
  674MOL0     C92880   7.818   2.625   1.786  0.6645  0.7031  1.1058
  674MOL0     C92881   7.800   2.762   1.814  0.0728 -0.9834  0.1309
  674MOL0     O92882   7.895   2.856   1.820 -0.8528 -0.0609  0.1314
  674MOL0     C92883   8.018   2.830   1.750  0.7816  0.7594 -0.9665
  674MOL0     C92884   8.101   2.958   1.770  0.2081 -0.4902  0.5553
  674MOL0     C92885   8.056   3.085   1.698  0.2355 -0.5326  0.6916
  674MOL0     C92886   8.176   3.165   1.632 -0.6447 -0.5053  0.7898
  674MOL0     C92887   8.135   3.312   1.590  0.0808 -0.3768 -0.3927
  674MOL0     C92888   8.250   3.391   1.514  0.9013  0.1836 -0.6045
  674MOL0     C92889   8.189   3.529   1.449  0.3149 -0.7917 -0.0215
  674MOL0     C92890   8.148   3.495   1.301 -0.4899  0.5482 -0.4843
  674MOL0     N92891   8.273   3.456   1.229 -0.2050 -0.2876  0.7320
  674MOL0     C92892   8.270   3.353   1.136 -0.8723  0.4358 -0.6092
  674MOL0     C92893   8.393   3.353   1.074 -0.8742 -1.5574  0.5964
  674MOL0     C92894   8.426   3.262   0.961  0.0851 -0.7225  0.0526
  674MOL0     C92895   8.576   3.238   0.965 -0.3679  1.0494 -0.1714
  674MOL0     C92896   8.634   3.132   0.860 -0.4828 -0.2635 -0.8741
  674MOL0     C92897   8.570   2.986   0.845 -0.2575  0.9923 -0.2735
  674MOL0     O92898   8.575   2.950   0.995 -0.0494 -0.5019 -0.3585
  674MOL0     C92899   8.622   2.828   1.035 -0.7525 -0.8397 -0.9302
  674MOL0     C92900   8.591   2.805   1.172 -0.6378  0.2993  0.1157
  674MOL0     C92901   8.621   2.689   1.240 -0.2541  0.4257 -0.0617
  674MOL0     C92902   8.546   2.676   1.370  0.2466  0.1597 -0.2660
  674MOL0     C92903   8.709   2.599   1.176 -0.1733  0.0849  0.7423
  674MOL0     C92904   8.766   2.477   1.252 -0.6138  0.4049  0.8370
  674MOL0     O92905   8.683   2.389   1.304 -0.0679  0.1556  0.1842
  674MOL0     C92906   8.721   2.313   1.415 -0.1398 -0.5448 -0.4754
  674MOL0     C92907   8.638   2.209   1.437 -0.6103 -0.1603  0.0196
  674MOL0     C92908   8.660   2.113   1.534  0.6021 -0.5240 -0.1139
  674MOL0     C92909   8.755   2.142   1.635  0.7580  0.8080 -0.3756
  674MOL0     O92910   8.788   2.067   1.741  0.2416 -0.0153 -0.2959
  674MOL0     C92911   8.723   1.945   1.752 -0.5117 -0.3248 -0.8225
  674MOL0     C92912   8.781   1.862   1.867 -0.2619 -0.9111  0.9294
  674MOL0     C92913   8.729   1.717   1.876  0.5351  0.4559 -0.1184
  674MOL0     C92914   8.807   1.629   1.979 -1.0739  0.8923 -0.1239
  674MOL0     C92915   8.761   1.480   1.987 -0.3179  0.1805 -0.2026
  674MOL0     C92916   8.861   1.398   2.065  0.2140 -0.7095 -0.4919
  674MOL0     C92917   8.836   1.254   2.045 -0.3514  0.6658  0.7796
  674MOL0     C92918   8.952   1.178   2.108  0.3342  0.6590 -1.0057
  674MOL0    Cl92919   8.906   1.009   2.066 -0.2066  0.0822  0.4152
  674MOL0     C92920   8.831   2.256   1.622 -0.4778  0.6688 -0.0985
  674MOL0     C92921   8.814   2.342   1.517 -0.5261 -0.3140  1.3696
  674MOL0     O92922   8.892   2.467   1.258 -0.1000 -0.0619  0.0345
  674MOL0     C92923   8.752   2.629   1.040  0.5502 -0.0761  0.6754
  674MOL0     C92924   8.700   2.742   0.967 -0.1027 -0.0524 -0.3462
  674MOL0     N92925   8.454   3.481   1.116 -0.6508  0.0995 -0.2370
  674MOL0     N92926   8.382   3.541   1.207  1.0577 -0.6467 -0.5067
  674MOL0     C92927   7.670   2.823   1.836 -0.9305  0.0617 -0.1520
  674MOL0     C92928   7.560   2.736   1.848 -0.8707  0.9235  0.2264
  674MOL0     C92929   7.322   2.326   1.801 -0.4680 -0.1544  0.6489
  674MOL0     C92930   7.263   2.360   1.926 -1.4484  0.8993  0.1583
  674MOL0     C92931   7.186   2.270   1.989  0.2421  0.3860 -0.2193
  674MOL0     C92932   7.119   2.167   1.932  0.4811 -0.2609  0.4638
  674MOL0     O92933   7.033   2.087   1.992 -0.3374  0.0640 -0.0360
  674MOL0     C92934   7.013   2.103   2.133 -0.5928  0.1906  0.5268
  674MOL0     C92935   7.114   2.027   2.225 -0.4356 -0.3001  1.2930
  674MOL0     C92936   7.129   1.877   2.193 -0.0155 -0.4654 -0.0554
  674MOL0     C92937   7.239   1.843   2.094  0.2906 -0.8536 -0.1214
  674MOL0     C92938   7.368   1.885   2.155 -0.2148  0.6905 -0.5306
  674MOL0     C92939   7.465   1.882   2.229 -1.2841 -0.4473  0.5989
  674MOL0     C92940   7.165   2.137   1.802  0.5430  0.1605  1.1011
  674MOL0     C92941   7.265   2.213   1.735 -0.9035  0.4370 -0.4548
  674MOL0     C92942   7.288   2.175   1.584  0.1968 -1.2548 -0.2225
  674MOL0     H92943   7.722   2.438   1.785  1.5387  0.0421 -1.9911
  674MOL0     H92944   7.918   2.587   1.767  0.2359  0.5911 -1.1412
  674MOL0     H92945   8.004   2.811   1.643  1.4685 -1.9306 -0.6601
  674MOL0     H92946   8.060   2.743   1.800 -3.4016 -1.6241 -1.0779
  674MOL0     H92947   8.125   2.981   1.874 -3.8626  1.0836  1.3544
  674MOL0     H92948   8.195   2.926   1.723 -0.5841 -3.5803  0.8291
  674MOL0     H92949   7.975   3.057   1.629  0.5561 -2.5116  1.0563
  674MOL0     H92950   8.018   3.155   1.773 -0.6951 -0.1089 -0.1486
  674MOL0     H92951   8.242   3.184   1.717  1.7897 -2.0264 -0.6486
  674MOL0     H92952   8.229   3.113   1.552 -1.3354  1.3831 -0.9911
  674MOL0     H92953   8.099   3.375   1.672  1.4715  1.8031 -1.3546
  674MOL0     H92954   8.057   3.299   1.515  1.2965 -0.1427 -1.7534
  674MOL0     H92955   8.318   3.418   1.595  0.2206 -4.4125  1.8402
  674MOL0     H92956   8.302   3.320   1.449  0.3184 -0.8781  0.0589
  674MOL0     H92957   8.269   3.602   1.459 -0.5991 -0.0310  2.4132
  674MOL0     H92958   8.105   3.568   1.507  0.1191  2.3946 -2.2294
  674MOL0     H92959   8.069   3.420   1.295 -2.1154  2.0907  0.6718
  674MOL0     H92960   8.103   3.585   1.259 -4.4846 -0.3555  1.3906
  674MOL0     H92961   8.204   3.267   1.129 -1.6056  1.0293 -1.1181
  674MOL0     H92962   8.421   3.315   0.865 -2.3864 -3.1611 -1.3262
  674MOL0     H92963   8.379   3.164   0.968  2.2881 -2.1167 -2.6481
  674MOL0     H92964   8.639   3.327   0.963  0.9448  0.1544  0.0735
  674MOL0     H92965   8.591   3.191   1.063  0.2586  0.0670 -0.7149
  674MOL0     H92966   8.616   3.178   0.762  2.2695  2.2640 -0.3302
  674MOL0     H92967   8.741   3.122   0.881  0.1326 -1.1587 -3.9010
  674MOL0     H92968   8.467   2.980   0.809 -0.2636  1.2976 -0.3171
  674MOL0     H92969   8.625   2.924   0.774 -2.0062 -0.5639 -0.3246
  674MOL0     H92970   8.530   2.886   1.209 -0.8015  1.8643 -3.2552
  674MOL0     H92971   8.545   2.570   1.397  0.0833 -0.1945 -1.5755
  674MOL0     H92972   8.445   2.717   1.360  0.9014  1.8528 -0.1833
  674MOL0     H92973   8.596   2.735   1.447 -0.3313  3.9468 -2.5264
  674MOL0     H92974   8.574   2.201   1.350  0.5956  0.3835 -0.9348
  674MOL0     H92975   8.617   2.014   1.544  2.8175 -1.6883 -1.1919
  674MOL0     H92976   8.617   1.956   1.778 -0.2118 -0.1874  0.4043
  674MOL0     H92977   8.743   1.886   1.662  1.1803 -0.2742 -0.5041
  674MOL0     H92978   8.890   1.858   1.860 -0.3656 -2.1404 -0.5650
  674MOL0     H92979   8.760   1.915   1.960  1.0340  0.1971  0.6114
  674MOL0     H92980   8.745   1.655   1.788 -1.1997  1.2867 -1.0585
  674MOL0     H92981   8.621   1.710   1.890  0.5306  1.2751  0.3087
  674MOL0     H92982   8.794   1.659   2.083 -2.2984 -1.5358  0.4898
  674MOL0     H92983   8.913   1.623   1.950 -1.2490  0.4802 -0.7021
  674MOL0     H92984   8.665   1.470   2.037  1.6545  0.1497  4.0340
  674MOL0     H92985   8.753   1.451   1.882 -1.4185  2.0338 -0.6662
  674MOL0     H92986   8.844   1.417   2.171  0.0718  2.3791 -0.9858
  674MOL0     H92987   8.962   1.435   2.041  0.8583 -1.5467  0.8161
  674MOL0     H92988   8.840   1.237   1.937  3.5783  0.3729  0.8618
  674MOL0     H92989   8.744   1.224   2.098  0.6642 -0.4385  1.9762
  674MOL0     H92990   8.965   1.189   2.216  0.8065  1.0736 -1.1032
  674MOL0     H92991   9.043   1.201   2.053 -0.0117  0.6323 -1.6054
  674MOL0     H92992   8.910   2.279   1.693  0.0733  3.6079 -1.5296
  674MOL0     H92993   8.879   2.427   1.534 -0.8383  0.3937 -0.5849
  674MOL0     H92994   8.804   2.547   0.991 -0.4727 -0.8004  0.7710
  674MOL0     H92995   8.727   2.766   0.865  0.9671 -2.1085 -0.6003
  674MOL0     H92996   7.663   2.929   1.858 -0.9467 -0.4593  2.6990
  674MOL0     H92997   7.458   2.763   1.874 -1.5860 -0.4010 -1.0775
  674MOL0     H92998   7.300   2.445   1.983  2.2942 -1.4041  1.5066
  674MOL0     H92999   7.170   2.295   2.093 -0.9568  1.1055 -0.5599
  674MOL0     H93000   6.995   2.208   2.158  0.7435  0.7914 -0.8782
  674MOL0     H93001   6.917   2.059   2.162 -1.4533  1.2610 -0.6041
  674MOL0     H93002   7.089   2.030   2.332  0.8409 -3.2239  1.7741
  674MOL0     H93003   7.209   2.082   2.217 -0.3954 -0.6424 -2.1089
  674MOL0     H93004   7.152   1.833   2.290 -1.2179  1.8280  1.3462
  674MOL0     H93005   7.029   1.843   2.163  0.1895  1.1476 -2.9642
  674MOL0     H93006   7.241   1.894   1.997  3.1810 -0.5812  0.0085
  674MOL0     H93007   7.238   1.733   2.086  0.6965 -0.9300  0.8081
  674MOL0     H93008   7.555   1.890   2.287 -1.0107 -0.9913  0.2554
  674MOL0     H93009   7.114   2.055   1.754  0.7295  0.9243 -0.4693
  674MOL0     H93010   7.217   2.102   1.544  0.2827 -2.2773  1.3804
  674MOL0     H93011   7.292   2.263   1.520 -0.4795 -1.9773 -1.2940
  674MOL0     H93012   7.385   2.126   1.569  0.8874  0.6746 -2.7108
  675MOL0     O93013   2.415   1.831   8.074  0.6004 -0.0600  0.0192
  675MOL0     C93014   2.485   1.751   8.136 -0.3128 -0.3743 -0.7694
  675MOL0     O93015   2.529   1.782   8.267  0.2556  0.2709  0.3568
  675MOL0     C93016   2.499   1.906   8.320 -1.1042  0.8395 -0.1496
  675MOL0     C93017   2.396   1.926   8.421 -0.4593  0.6524  1.9534
  675MOL0     C93018   2.381   2.054   8.476  0.2842 -0.5926 -0.9112
  675MOL0     C93019   2.450   2.162   8.439  0.1068  0.8615  1.9198
  675MOL0     O93020   2.434   2.280   8.507 -0.1636  0.5779 -0.0023
  675MOL0     C93021   2.556   2.318   8.566 -1.0531 -0.5265  0.1494
  675MOL0     C93022   2.532   2.411   8.681 -0.5147 -1.1726  0.2606
  675MOL0     C93023   2.480   2.343   8.811 -0.0440 -0.0950  0.0645
  675MOL0     C93024   2.437   2.447   8.918  0.2307 -1.0103 -0.2462
  675MOL0     C93025   2.559   2.513   8.999 -0.5865 -0.9572 -0.4850
  675MOL0     C93026   2.506   2.627   9.091 -0.3927  0.1710  1.0507
  675MOL0     C93027   2.433   2.576   9.216  0.1073  0.2358  0.4072
  675MOL0     C93028   2.277   2.561   9.180 -0.1529 -0.2654 -0.8813
  675MOL0     N93029   2.201   2.598   9.300 -1.0253  0.5766  0.2618
  675MOL0     C93030   2.192   2.526   9.417 -0.5456  0.1785  0.4984
  675MOL0     C93031   2.078   2.570   9.478  0.2166 -0.4219  0.9629
  675MOL0     C93032   2.021   2.531   9.604  0.1558 -0.5045 -1.0819
  675MOL0     C93033   2.101   2.540   9.750  0.2236  0.0640  0.0885
  675MOL0     C93034   2.160   2.690   9.788 -0.3932 -0.3022  0.9672
  675MOL0     C93035   2.271   2.678   9.890  0.5934 -0.4280  0.1409
  675MOL0     O93036   2.250   2.576   9.985 -0.0838 -0.1478 -0.6535
  675MOL0     C93037   2.184   2.621  10.092  0.4843 -0.0979 -0.4572
  675MOL0     C93038   2.141   2.743  10.123  0.1362 -0.4463 -0.7288
  675MOL0     C93039   2.067   2.774  10.246 -0.1669  0.6018  0.4954
  675MOL0     C93040   2.017   2.912  10.270  0.5416 -0.3224  0.0678
  675MOL0     C93041   2.035   2.667  10.337  0.3633  0.3877  0.2276
  675MOL0     C93042   1.967   2.685  10.477  0.2877 -0.0304  0.0786
  675MOL0     O93043   1.943   2.811  10.519  0.9611 -0.3672  1.1936
  675MOL0     C93044   1.863   2.824  10.627 -0.1132  0.0486  0.3149
  675MOL0     C93045   1.930   2.837  10.749  0.0898 -0.6186  0.2431
  675MOL0     C93046   1.862   2.860  10.866 -0.1372 -0.2667 -0.8610
  675MOL0     C93047   1.721   2.865  10.859  0.1295  0.2942  0.7187
  675MOL0     O93048   1.655   2.884  10.978 -0.8138 -0.0415 -0.8795
  675MOL0     C93049   1.543   2.966  10.997 -0.3535  0.1313 -0.1820
  675MOL0     C93050   1.505   2.971  11.140  0.1818  0.0146 -0.1509
  675MOL0     C93051   1.597   3.054  11.230 -0.5650 -0.0372  0.0145
  675MOL0     C93052   1.548   3.064  11.375  0.1950 -0.1259  0.6445
  675MOL0     C93053   1.659   3.129  11.456 -0.2558 -0.2711 -0.6885
  675MOL0     C93054   1.591   3.194  11.572 -0.7927  0.4297  0.2216
  675MOL0     C93055   1.549   3.343  11.546  0.3905  0.4745  0.2644
  675MOL0     C93056   1.484   3.412  11.667  0.7947  0.0415 -0.7110
  675MOL0    Cl93057   1.604   3.433  11.791  0.1458  0.0512 -0.0368
  675MOL0     C93058   1.656   2.856  10.729 -0.7023  0.8976 -0.2495
  675MOL0     C93059   1.727   2.830  10.610 -0.3932  0.4487 -0.6561
  675MOL0     O93060   1.935   2.586  10.539 -0.7374  0.2571 -0.2315
  675MOL0     C93061   2.064   2.537  10.290  0.5051 -0.2500 -0.0667
  675MOL0     C93062   2.143   2.519  10.181  0.6448 -0.0003 -0.3822
  675MOL0     N93063   2.026   2.667   9.394  0.3884  0.2650  1.0352
  675MOL0     N93064   2.095   2.682   9.287  0.3598  0.1996 -0.3842
  675MOL0     C93065   2.547   2.138   8.336 -0.2176 -0.0198 -0.4998
  675MOL0     C93066   2.569   2.016   8.277 -0.7346  0.7820 -0.1426
  675MOL0     C93067   2.522   1.629   8.071  0.2973 -0.2256  1.0708
  675MOL0     C93068   2.641   1.572   8.119 -0.2030  0.8999 -0.3680
  675MOL0     C93069   2.699   1.467   8.050  0.2404 -0.7392  0.5364
  675MOL0     C93070   2.639   1.424   7.928 -1.0455  0.1901 -0.2449
  675MOL0     O93071   2.709   1.315   7.869  0.5398  0.1586  0.0351
  675MOL0     C93072   2.643   1.248   7.765 -0.0654 -0.6408  0.0715
  675MOL0     C93073   2.686   1.311   7.636 -0.7534 -0.4273  0.6952
  675MOL0     C93074   2.826   1.260   7.602 -0.1690 -0.3646 -0.8752
  675MOL0     C93075   2.926   1.366   7.543 -0.3671 -0.7449  0.1381
  675MOL0     C93076   2.945   1.478   7.642  0.1553 -0.1674  0.9518
  675MOL0     C93077   2.954   1.578   7.712  0.1055  0.1207 -0.0363
  675MOL0     C93078   2.517   1.477   7.887  0.0928 -0.0452  0.2379
  675MOL0     C93079   2.457   1.574   7.956 -0.1849 -0.1331  0.2751
  675MOL0     C93080   2.326   1.619   7.886  0.5060  0.7181  0.5491
  675MOL0     H93081   2.337   1.844   8.459 -1.3707 -1.0249 -2.4926
  675MOL0     H93082   2.312   2.077   8.557  1.2953  1.7524 -0.6321
  675MOL0     H93083   2.606   2.359   8.477  2.3728 -2.5868  0.9278
  675MOL0     H93084   2.606   2.229   8.604 -0.9420 -0.4891  0.0928
  675MOL0     H93085   2.626   2.457   8.714  1.0045 -0.4869 -4.3160
  675MOL0     H93086   2.466   2.491   8.646 -1.2257 -3.6163 -4.9876
  675MOL0     H93087   2.394   2.279   8.791  1.2539 -2.1414  0.7162
  675MOL0     H93088   2.561   2.278   8.845  0.5374  1.2996  1.4558
  675MOL0     H93089   2.383   2.531   8.872  0.2617 -1.0685 -0.3901
  675MOL0     H93090   2.371   2.392   8.986  2.0242 -4.1127 -0.8352
  675MOL0     H93091   2.630   2.573   8.940 -1.8149 -0.8890 -1.9743
  675MOL0     H93092   2.609   2.437   9.059  0.7259  0.0735 -0.2364
  675MOL0     H93093   2.595   2.682   9.123  0.1992 -0.4650  0.5124
  675MOL0     H93094   2.439   2.691   9.032 -0.4681 -1.6623 -0.9606
  675MOL0     H93095   2.440   2.660   9.286 -1.0004 -0.6218  1.5899
  675MOL0     H93096   2.478   2.481   9.247 -0.5427 -0.0917  0.3515
  675MOL0     H93097   2.266   2.620   9.089  0.6409  0.2579 -0.6425
  675MOL0     H93098   2.262   2.455   9.158 -0.9253 -0.7044  1.4618
  675MOL0     H93099   2.260   2.445   9.444 -0.7413 -0.4230 -0.7445
  675MOL0     H93100   1.990   2.426   9.596 -0.3926 -0.4676  0.2931
  675MOL0     H93101   1.927   2.585   9.621  0.9902  0.1185  2.3445
  675MOL0     H93102   2.021   2.505   9.816  0.7246 -0.9904  0.1514
  675MOL0     H93103   2.176   2.462   9.762  0.0648  0.1851  2.4307
  675MOL0     H93104   2.195   2.739   9.696 -0.7134 -1.3188  0.2815
  675MOL0     H93105   2.083   2.752   9.832 -0.7482  0.2047 -0.3207
  675MOL0     H93106   2.359   2.644   9.835 -1.0731 -1.6596 -1.9029
  675MOL0     H93107   2.306   2.772   9.934  0.1271  0.1310 -0.6605
  675MOL0     H93108   2.150   2.833  10.064  0.5273  1.1128  1.5594
  675MOL0     H93109   1.910   2.913  10.294  0.8729  2.7366  1.8561
  675MOL0     H93110   2.034   2.974  10.181 -1.7506  0.1350 -0.1359
  675MOL0     H93111   2.068   2.954  10.357 -2.8772  2.1074  1.1274
  675MOL0     H93112   2.038   2.841  10.743  0.1293 -1.4766  0.2424
  675MOL0     H93113   1.917   2.868  10.959  2.7725 -1.8808 -2.2729
  675MOL0     H93114   1.571   3.053  10.937  1.4655 -0.7585 -0.6829
  675MOL0     H93115   1.456   2.919  10.950 -1.6855  3.1758 -0.9643
  675MOL0     H93116   1.410   3.024  11.127 -0.6199 -1.7802 -2.1054
  675MOL0     H93117   1.487   2.869  11.174 -1.3041  0.0413 -0.7638
  675MOL0     H93118   1.606   3.156  11.191 -0.4724  0.9720  2.5173
  675MOL0     H93119   1.692   3.001  11.238 -1.3937 -1.3586  1.7334
  675MOL0     H93120   1.520   2.977  11.435 -0.4482  1.7420  3.2345
  675MOL0     H93121   1.462   3.132  11.372  2.3912  2.8305 -1.0457
  675MOL0     H93122   1.729   3.051  11.486 -0.5725  0.0133  0.8953
  675MOL0     H93123   1.711   3.206  11.399 -0.9213  0.2216 -0.6488
  675MOL0     H93124   1.652   3.196  11.662 -0.4795  2.2480  0.0026
  675MOL0     H93125   1.501   3.137  11.601  0.2910 -1.2396  0.4538
  675MOL0     H93126   1.482   3.357  11.461  2.4689  3.0433 -1.1129
  675MOL0     H93127   1.638   3.405  11.530 -0.1954  1.5948  1.1897
  675MOL0     H93128   1.397   3.360  11.708  1.0886 -0.5377 -0.7989
  675MOL0     H93129   1.450   3.511  11.638 -0.2215  0.1051  0.6228
  675MOL0     H93130   1.548   2.857  10.717 -0.7352  1.5513  0.0661
  675MOL0     H93131   1.675   2.792  10.522  1.7866 -0.3218 -1.6876
  675MOL0     H93132   2.030   2.460  10.359  3.5126  1.4883  3.7220
  675MOL0     H93133   2.181   2.422  10.150 -0.3439  1.0295 -5.6675
  675MOL0     H93134   2.592   2.221   8.282 -3.1049  2.6626  0.8591
  675MOL0     H93135   2.635   2.014   8.191  0.2320  4.1945  0.3744
  675MOL0     H93136   2.682   1.605   8.213  0.3036  0.9201 -0.5933
  675MOL0     H93137   2.791   1.427   8.090 -1.1296 -1.3966  3.3079
  675MOL0     H93138   2.685   1.147   7.766 -0.3738 -0.8004  2.1637
  675MOL0     H93139   2.534   1.238   7.777  0.1136 -2.9451  0.3054
  675MOL0     H93140   2.688   1.420   7.644  1.5385 -0.4597  1.1990
  675MOL0     H93141   2.620   1.286   7.553 -3.4478  2.5784  1.7333
  675MOL0     H93142   2.881   1.222   7.689 -0.1331 -1.9030 -1.5399
  675MOL0     H93143   2.829   1.173   7.536  3.6397 -1.0927  0.0363
  675MOL0     H93144   2.879   1.412   7.456 -0.7723 -0.8376  0.3040
  675MOL0     H93145   3.023   1.322   7.518  1.3723  0.2485  4.3092
  675MOL0     H93146   2.981   1.663   7.770  0.9610 -1.5632  2.1634
  675MOL0     H93147   2.474   1.439   7.795 -0.7100 -2.6646  1.5887
  675MOL0     H93148   2.343   1.695   7.809 -0.0982  0.4630  0.1592
  675MOL0     H93149   2.262   1.541   7.844  2.2403 -0.5216  0.1236
  675MOL0     H93150   2.265   1.664   7.966  1.7640  3.3498  0.1409
  676MOL0     O93151  10.035   3.656   1.062  0.2947  0.8158  0.0189
  676MOL0     C93152  10.131   3.640   1.143 -0.1860  0.1657 -0.2428
  676MOL0     O93153  10.147   3.706   1.261  0.7191  0.4101 -0.6378
  676MOL0     C93154  10.082   3.819   1.290 -0.2598  0.1286 -0.4273
  676MOL0     C93155   9.999   3.893   1.202 -0.5498 -0.9666  1.0268
  676MOL0     C93156   9.939   4.018   1.252  0.4122  0.2981 -0.3611
  676MOL0     C93157   9.935   4.045   1.392  0.1555  0.2653  0.0273
  676MOL0     O93158   9.856   4.142   1.459 -0.2222  0.4740  0.1852
  676MOL0     C93159   9.815   4.251   1.378  0.7985 -0.1168  0.2580
  676MOL0     C93160   9.919   4.337   1.299 -0.4424 -0.1202  0.1306
  676MOL0     C93161   9.875   4.492   1.281 -0.0286  0.2636  0.1998
  676MOL0     C93162   9.761   4.527   1.175  0.3626  0.2090 -0.0289
  676MOL0     C93163   9.762   4.682   1.157 -0.7333 -1.0281 -0.2296
  676MOL0     C93164   9.663   4.718   1.044  0.2090 -0.5082  0.3710
  676MOL0     C93165   9.644   4.876   1.007  0.0225 -0.2447 -0.1248
  676MOL0     C93166   9.520   4.921   0.938 -0.3228 -0.5424 -0.3958
  676MOL0     N93167   9.523   4.897   0.794 -0.0968 -0.1293 -0.4070
  676MOL0     C93168   9.610   4.942   0.695 -0.1756  0.2472  0.0334
  676MOL0     C93169   9.567   4.876   0.583 -1.1090  0.8697 -0.1302
  676MOL0     C93170   9.608   4.914   0.442 -0.2996 -0.2522 -0.3005
  676MOL0     C93171   9.746   4.890   0.411 -1.0982 -0.3684 -0.0893
  676MOL0     C93172   9.759   4.775   0.314  0.9559  0.2004 -0.6340
  676MOL0     C93173   9.901   4.714   0.333  1.2158  0.5331 -0.3418
  676MOL0     O93174   9.983   4.786   0.246 -0.6514 -0.3268 -0.0122
  676MOL0     C93175  10.117   4.774   0.258  0.1667  0.9630  0.2916
  676MOL0     C93176  10.210   4.684   0.327  1.0309 -0.2879  0.2208
  676MOL0     C93177  10.343   4.682   0.306  0.3005  0.6630 -0.0897
  676MOL0     C93178  10.432   4.572   0.370 -0.4059  0.3892  0.2626
  676MOL0     C93179  10.401   4.781   0.227 -0.5235  0.2138  1.0137
  676MOL0     C93180  10.554   4.808   0.217  0.3206  0.4515  0.4387
  676MOL0     O93181  10.605   4.887   0.116  0.1901 -0.3106  0.3247
  676MOL0     C93182  10.731   4.928   0.105  0.0919  0.7635 -0.3047
  676MOL0     C93183  10.787   4.924  -0.019 -0.6444  0.1271 -0.2647
  676MOL0     C93184  10.913   4.979  -0.049 -0.0309  1.2401  0.6937
  676MOL0     C93185  10.981   5.043   0.052  0.7873 -0.1763 -0.1061
  676MOL0     O93186  11.096   5.092   0.014  0.4604 -0.1053 -1.1353
  676MOL0     C93187  11.149   5.212   0.081 -0.1626  0.2029 -0.1923
  676MOL0     C93188  11.266   5.257  -0.003  0.3099  0.0377  0.4132
  676MOL0     C93189  11.389   5.189   0.046  0.3104 -0.4713 -0.4357
  676MOL0     C93190  11.517   5.257  -0.004 -0.4573  0.2996  0.2076
  676MOL0     C93191  11.516   5.299  -0.157 -1.1816 -0.8793  0.0560
  676MOL0     C93192  11.647   5.360  -0.198  0.1111 -0.3328 -0.7145
  676MOL0     C93193  11.722   5.436  -0.095  0.5556 -0.9345  0.0093
  676MOL0     C93194  11.848   5.501  -0.150 -0.8721  0.4000 -0.2763
  676MOL0    Cl93195  11.926   5.398  -0.275 -0.1268 -0.2581 -0.1027
  676MOL0     C93196  10.933   5.045   0.184  0.7888  0.2560 -0.1267
  676MOL0     C93197  10.806   4.989   0.206 -0.4031  0.1627 -0.1962
  676MOL0     O93198  10.620   4.762   0.312 -0.0242 -0.2568  0.3506
  676MOL0     C93199  10.322   4.862   0.145  0.3577  0.2482 -0.4986
  676MOL0     C93200  10.180   4.853   0.158  0.0163 -0.7952  0.1199
  676MOL0     N93201   9.469   4.780   0.618  0.1196 -0.2992 -0.2345
  676MOL0     N93202   9.434   4.808   0.744 -0.1661 -0.3109  0.8461
  676MOL0     C93203  10.016   3.963   1.476  0.7534  0.0190 -1.5833
  676MOL0     C93204  10.092   3.858   1.428  0.1516  0.0856  1.0249
  676MOL0     C93205  10.233   3.534   1.110  0.5538  0.8692  0.5105
  676MOL0     C93206  10.336   3.517   1.198  0.7231 -0.6219 -0.4834
  676MOL0     C93207  10.443   3.430   1.176 -0.1904  0.0394 -0.5416
  676MOL0     C93208  10.456   3.369   1.051  0.0442  0.7051 -0.5600
  676MOL0     O93209  10.566   3.309   1.001  0.0905  0.2266  0.5938
  676MOL0     C93210  10.696   3.313   1.062  0.2851  0.2182 -0.5137
  676MOL0     C93211  10.757   3.448   1.023  0.1476 -0.3540  0.7362
  676MOL0     C93212  10.821   3.454   0.886 -0.9297  0.1300 -0.9210
  676MOL0     C93213  10.724   3.418   0.781 -0.2934 -0.6341  0.8805
  676MOL0     C93214  10.787   3.441   0.648  0.0042 -0.2196 -0.0427
  676MOL0     C93215  10.837   3.451   0.541  0.4808 -0.6607 -0.0546
  676MOL0     C93216  10.342   3.367   0.964 -0.5255 -0.1669 -0.5229
  676MOL0     C93217  10.236   3.458   0.988 -0.5144 -0.2503  0.1151
  676MOL0     C93218  10.133   3.459   0.881  0.8797  0.1446 -0.4927
  676MOL0     H93219   9.995   3.885   1.094  0.8700 -0.2446  0.9006
  676MOL0     H93220   9.880   4.068   1.176  1.0840 -3.9203 -4.0277
  676MOL0     H93221   9.774   4.323   1.449 -0.5170 -0.0873 -0.4982
  676MOL0     H93222   9.740   4.224   1.302  1.2557  1.0613 -0.6479
  676MOL0     H93223  10.009   4.329   1.361  0.8264 -0.0151 -1.6113
  676MOL0     H93224   9.951   4.293   1.203 -2.7406  1.3664 -1.4152
  676MOL0     H93225   9.843   4.519   1.381  1.2366 -2.6195  1.5050
  676MOL0     H93226   9.970   4.543   1.261  0.2661 -0.2651  0.2248
  676MOL0     H93227   9.791   4.462   1.092 -1.7795 -1.4494  0.4112
  676MOL0     H93228   9.665   4.489   1.211  0.5100  0.2338  0.4029
  676MOL0     H93229   9.861   4.724   1.141 -0.7987 -1.4323 -1.8062
  676MOL0     H93230   9.718   4.720   1.250  0.4917  0.2440 -0.1522
  676MOL0     H93231   9.691   4.653   0.961 -1.1594  0.0122 -0.5427
  676MOL0     H93232   9.560   4.688   1.066 -1.3824  3.5160 -0.5661
  676MOL0     H93233   9.731   4.914   0.953 -0.4674 -2.1077 -2.3345
  676MOL0     H93234   9.650   4.924   1.106  2.9752 -0.3951 -0.1194
  676MOL0     H93235   9.446   4.865   0.995  0.8149 -2.0457 -0.3162
  676MOL0     H93236   9.507   5.029   0.947 -4.6726 -0.2446 -5.3595
  676MOL0     H93237   9.685   5.020   0.687 -0.3487  0.7311  2.2672
  676MOL0     H93238   9.597   5.022   0.446 -0.2137 -0.2499 -0.1495
  676MOL0     H93239   9.534   4.875   0.371 -1.8726  0.1688  1.0256
  676MOL0     H93240   9.785   4.975   0.353  0.0736 -0.2940  0.7710
  676MOL0     H93241   9.808   4.875   0.500 -0.6308 -1.3468 -0.5634
  676MOL0     H93242   9.668   4.715   0.319 -0.4537  2.3302  0.9263
  676MOL0     H93243   9.752   4.810   0.210 -0.9823  1.4760 -0.1068
  676MOL0     H93244   9.924   4.720   0.440 -0.0651 -1.2046  0.0751
  676MOL0     H93245   9.903   4.611   0.298  2.3324  1.4122 -3.1518
  676MOL0     H93246  10.168   4.620   0.403  0.2769  1.6638  1.5280
  676MOL0     H93247  10.472   4.610   0.464 -2.9946  0.6178  1.3291
  676MOL0     H93248  10.507   4.545   0.295  0.6239  0.1494  1.3468
  676MOL0     H93249  10.380   4.480   0.397  1.0181  0.1456  2.3790
  676MOL0     H93250  10.723   4.890  -0.100 -0.6373  1.0033 -0.6449
  676MOL0     H93251  10.939   4.969  -0.154  1.1777 -0.4153  1.0915
  676MOL0     H93252  11.075   5.292   0.083 -1.9544 -1.3576  1.8547
  676MOL0     H93253  11.181   5.195   0.185 -1.5166  0.6583  0.3184
  676MOL0     H93254  11.258   5.247  -0.112 -2.1631  2.4088  0.2730
  676MOL0     H93255  11.277   5.364   0.017 -1.3019  0.1206  1.0082
  676MOL0     H93256  11.372   5.085   0.016 -0.1219 -0.6385  0.3641
  676MOL0     H93257  11.385   5.175   0.155 -0.0565 -2.2239 -0.6387
  676MOL0     H93258  11.604   5.193   0.011 -0.1470  0.2287 -1.7327
  676MOL0     H93259  11.535   5.350   0.052  1.3782 -0.4072  0.8749
  676MOL0     H93260  11.503   5.207  -0.215 -2.6160 -0.8343  0.2763
  676MOL0     H93261  11.444   5.379  -0.177  2.7165  2.8717 -0.3605
  676MOL0     H93262  11.614   5.432  -0.273 -1.8866  0.1758  0.5549
  676MOL0     H93263  11.708   5.284  -0.247  1.0272  0.3357 -0.6403
  676MOL0     H93264  11.765   5.365  -0.023 -1.0574 -1.8257  0.1488
  676MOL0     H93265  11.661   5.505  -0.036 -0.5537 -0.4098 -1.7000
  676MOL0     H93266  11.912   5.555  -0.080 -1.4295  1.1385 -0.3295
  676MOL0     H93267  11.811   5.586  -0.209  3.4644  2.2139 -0.7518
  676MOL0     H93268  10.973   5.112   0.260 -1.5180 -0.5191  1.9149
  676MOL0     H93269  10.755   5.010   0.300  1.6789  3.1492  0.4245
  676MOL0     H93270  10.357   4.938   0.076  1.7186  2.0667  2.0452
  676MOL0     H93271  10.107   4.916   0.108  0.6611  1.9680  2.4107
  676MOL0     H93272  10.029   3.996   1.579 -1.5815 -3.0504 -0.1491
  676MOL0     H93273  10.163   3.822   1.503 -0.1704  5.5562  4.4821
  676MOL0     H93274  10.356   3.591   1.275  1.9241  1.1743 -2.3844
  676MOL0     H93275  10.530   3.432   1.242  1.8099 -4.0978 -2.6774
  676MOL0     H93276  10.691   3.291   1.169 -1.8058 -3.2513 -1.1507
  676MOL0     H93277  10.755   3.234   1.014  0.6261  0.2644 -0.1701
  676MOL0     H93278  10.837   3.477   1.091 -0.5148  2.3375  0.4783
  676MOL0     H93279  10.682   3.522   1.051  0.8899  0.4275  0.6883
  676MOL0     H93280  10.846   3.557   0.863 -0.8809  0.0932 -1.0308
  676MOL0     H93281  10.917   3.402   0.878  0.4338  1.9248  2.0099
  676MOL0     H93282  10.634   3.479   0.793  0.2512  0.6499 -0.9684
  676MOL0     H93283  10.694   3.313   0.786 -2.8407  0.0754  1.9717
  676MOL0     H93284  10.888   3.438   0.448  1.3086 -1.1623  0.4597
  676MOL0     H93285  10.344   3.320   0.866 -0.4756 -1.9999  0.3210
  676MOL0     H93286  10.129   3.555   0.828 -2.4211  0.1425 -0.4587
  676MOL0     H93287  10.144   3.397   0.791 -1.0966 -0.4744 -0.3707
  676MOL0     H93288  10.032   3.428   0.911 -0.3843  3.0928 -1.3506
  677MOL0     O93289   4.479   6.205   3.187 -0.4010  0.4578 -0.0658
  677MOL0     C93290   4.360   6.231   3.197  0.4141  1.1490  0.6354
  677MOL0     O93291   4.304   6.354   3.187  0.6040  0.3535 -0.5414
  677MOL0     C93292   4.346   6.459   3.106 -0.3118  0.4925  0.3068
  677MOL0     C93293   4.249   6.556   3.066  0.0629 -0.3999 -0.0106
  677MOL0     C93294   4.303   6.680   3.005  0.1697  0.4915 -0.3154
  677MOL0     C93295   4.439   6.699   2.971  0.3907  1.1918  0.3497
  677MOL0     O93296   4.488   6.816   2.919 -0.2685 -0.7105  0.1163
  677MOL0     C93297   4.585   6.799   2.810 -0.1850  0.0682 -0.1049
  677MOL0     C93298   4.607   6.930   2.740 -0.3948 -0.0818 -0.3119
  677MOL0     C93299   4.679   6.918   2.605 -0.5868 -0.4033 -0.1384
  677MOL0     C93300   4.828   6.935   2.596  1.0504 -0.0592 -0.2272
  677MOL0     C93301   4.865   6.940   2.448 -0.1015  0.3907 -0.0816
  677MOL0     C93302   4.894   6.794   2.391 -0.2379  0.8887 -0.7660
  677MOL0     C93303   4.905   6.800   2.245 -0.8209 -0.2301  0.1413
  677MOL0     C93304   5.038   6.742   2.198  0.1942 -0.0843 -0.3793
  677MOL0     N93305   5.159   6.800   2.261 -0.3844 -0.4828 -0.1974
  677MOL0     C93306   5.220   6.915   2.222  0.6256 -0.3379 -0.6825
  677MOL0     C93307   5.336   6.914   2.298 -0.5571 -0.5429  0.0404
  677MOL0     C93308   5.444   7.021   2.290 -0.5396  0.0703 -0.0000
  677MOL0     C93309   5.555   6.973   2.200 -0.6900  0.6123 -0.2821
  677MOL0     C93310   5.627   6.864   2.275  0.4726 -0.3714 -0.8913
  677MOL0     C93311   5.755   6.817   2.199 -0.3597 -0.2078  0.2676
  677MOL0     O93312   5.834   6.933   2.163 -0.4212 -0.1644 -0.3061
  677MOL0     C93313   5.961   6.913   2.111  0.8881  0.0555  0.8503
  677MOL0     C93314   5.984   6.805   2.033  0.0509 -0.2575  0.0536
  677MOL0     C93315   6.099   6.778   1.969 -0.1533 -0.6469  0.4166
  677MOL0     C93316   6.110   6.659   1.871  0.0074 -0.3928  0.9979
  677MOL0     C93317   6.213   6.871   1.981  0.6329  0.2284 -1.2251
  677MOL0     C93318   6.349   6.850   1.911 -0.2354 -0.8368 -0.6253
  677MOL0     O93319   6.341   6.790   1.790 -0.1304  1.1832  0.3660
  677MOL0     C93320   6.461   6.785   1.721  0.6285 -0.3316  0.3308
  677MOL0     C93321   6.573   6.723   1.762  0.6326  0.2782 -0.0446
  677MOL0     C93322   6.688   6.717   1.682  0.6766 -0.5150  0.1119
  677MOL0     C93323   6.690   6.776   1.562 -0.7242 -0.0260  0.0026
  677MOL0     O93324   6.802   6.773   1.479 -0.8870 -0.0972  0.1419
  677MOL0     C93325   6.924   6.723   1.535  0.5901  0.7262 -0.3067
  677MOL0     C93326   7.036   6.759   1.445 -0.1555  1.1983 -1.5071
  677MOL0     C93327   7.095   6.905   1.471  0.1845  0.1752 -0.6925
  677MOL0     C93328   7.236   6.901   1.529 -0.4350 -0.0768 -0.6897
  677MOL0     C93329   7.355   6.909   1.420 -0.0982 -0.6230 -0.3315
  677MOL0     C93330   7.383   6.781   1.337 -0.1288  0.8957  0.6483
  677MOL0     C93331   7.446   6.667   1.414  0.0653 -0.1548  0.4168
  677MOL0     C93332   7.592   6.687   1.446 -0.3175 -0.3753  0.2324
  677MOL0    Cl93333   7.666   6.560   1.562  0.3915  0.3051 -0.0224
  677MOL0     C93334   6.582   6.841   1.521  0.5113  0.1002 -0.1089
  677MOL0     C93335   6.461   6.843   1.590 -0.1575  0.0792 -0.5260
  677MOL0     O93336   6.443   6.871   1.984  0.2367  0.1032  0.0422
  677MOL0     C93337   6.187   6.983   2.069  0.0406 -0.1480  0.4343
  677MOL0     C93338   6.069   7.001   2.132 -0.9667  0.1044  0.3058
  677MOL0     N93339   5.326   6.806   2.381 -0.5183 -0.3289 -0.3713
  677MOL0     N93340   5.224   6.734   2.355 -0.4576 -0.6675 -0.1282
  677MOL0     C93341   4.527   6.601   3.020 -0.3088 -0.4855  0.3098
  677MOL0     C93342   4.484   6.479   3.077 -0.4039  0.1029  0.0930
  677MOL0     C93343   4.281   6.108   3.228 -0.1813 -0.0290  0.4195
  677MOL0     C93344   4.144   6.130   3.220 -0.7427 -1.0160 -0.6069
  677MOL0     C93345   4.045   6.034   3.246  0.7394  0.1807  0.3839
  677MOL0     C93346   4.093   5.903   3.286 -0.1104 -0.6979  0.8953
  677MOL0     O93347   3.984   5.833   3.339 -0.5580  0.8364 -0.0627
  677MOL0     C93348   4.014   5.707   3.403 -0.0492 -0.6153  1.0978
  677MOL0     C93349   3.904   5.683   3.506  0.1616 -0.5623 -0.4215
  677MOL0     C93350   3.764   5.680   3.443  0.9877 -0.5133 -0.0239
  677MOL0     C93351   3.645   5.667   3.543  0.2156 -0.4757 -0.1270
  677MOL0     C93352   3.666   5.591   3.670  0.4474 -0.6614 -0.2502
  677MOL0     C93353   3.674   5.532   3.781  0.3548  0.5479 -0.6788
  677MOL0     C93354   4.223   5.876   3.276  0.6996 -0.7530  0.0483
  677MOL0     C93355   4.316   5.968   3.238 -0.4269 -1.2332  0.0864
  677MOL0     C93356   4.445   5.918   3.186 -0.2389  0.0837  0.9122
  677MOL0     H93357   4.143   6.551   3.086 -0.1433 -1.2485 -1.1718
  677MOL0     H93358   4.226   6.755   2.988 -0.6478  0.4592  2.7164
  677MOL0     H93359   4.541   6.739   2.730 -0.0284  0.1849 -0.2788
  677MOL0     H93360   4.677   6.755   2.850 -0.5269  1.8564  3.0223
  677MOL0     H93361   4.509   6.974   2.722 -0.0534  0.7548 -0.1927
  677MOL0     H93362   4.661   6.999   2.806 -2.7414  2.7623 -1.1961
  677MOL0     H93363   4.655   6.822   2.558  1.6022 -0.1378 -1.9647
  677MOL0     H93364   4.643   7.003   2.547  3.7063  0.8062 -1.3469
  677MOL0     H93365   4.849   7.027   2.652 -0.2090 -0.1499  0.4194
  677MOL0     H93366   4.886   6.854   2.639  1.4137 -0.6613 -1.7591
  677MOL0     H93367   4.956   6.995   2.420 -0.7989  1.4017 -0.4156
  677MOL0     H93368   4.784   6.978   2.386 -0.8501  1.5313  1.5274
  677MOL0     H93369   4.974   6.744   2.445 -1.4186  2.5498  2.8672
  677MOL0     H93370   4.812   6.722   2.397 -1.2393  2.0475 -0.0296
  677MOL0     H93371   4.904   6.905   2.216  0.7259  0.3289  1.8826
  677MOL0     H93372   4.830   6.746   2.188  2.7211 -1.4942 -3.8053
  677MOL0     H93373   5.028   6.638   2.228  1.5177 -0.1273 -0.0114
  677MOL0     H93374   5.050   6.744   2.089  0.6204 -0.1614 -0.3352
  677MOL0     H93375   5.187   6.989   2.150  0.1258 -0.9766 -1.1221
  677MOL0     H93376   5.484   7.032   2.391 -0.4966  0.6859 -0.0808
  677MOL0     H93377   5.398   7.112   2.249 -3.7622 -1.6049 -0.4238
  677MOL0     H93378   5.519   6.947   2.100  1.8552 -0.5454 -0.9835
  677MOL0     H93379   5.618   7.060   2.183  0.6870 -0.3739 -0.4041
  677MOL0     H93380   5.643   6.907   2.374 -2.4447  2.6024 -1.5550
  677MOL0     H93381   5.567   6.776   2.298 -4.7679  3.5389  2.7329
  677MOL0     H93382   5.815   6.756   2.267  1.1478  2.3088  1.3306
  677MOL0     H93383   5.726   6.754   2.114  1.3736  0.2360 -0.6984
  677MOL0     H93384   5.900   6.741   2.006  0.9685 -0.8752 -1.4084
  677MOL0     H93385   6.029   6.587   1.883  0.2552 -0.6849  0.9379
  677MOL0     H93386   6.195   6.601   1.908 -0.4940 -0.2930  2.3685
  677MOL0     H93387   6.113   6.704   1.772  0.4505  1.9695  2.0053
  677MOL0     H93388   6.582   6.665   1.853 -3.6152 -1.2485 -0.3479
  677MOL0     H93389   6.764   6.657   1.730  0.2100 -1.3282 -0.1395
  677MOL0     H93390   6.940   6.760   1.637 -2.1457 -0.2348  0.5604
  677MOL0     H93391   6.925   6.614   1.541  1.4340  0.7164 -0.4088
  677MOL0     H93392   7.114   6.687   1.475 -0.1704  1.4685 -0.7993
  677MOL0     H93393   7.007   6.733   1.343 -0.6848 -0.5580 -0.9438
  677MOL0     H93394   7.034   6.957   1.545 -0.2785  0.6091 -1.3760
  677MOL0     H93395   7.099   6.962   1.378 -0.2787  0.0382 -0.7943
  677MOL0     H93396   7.246   6.807   1.584 -1.8130  1.0348  1.5746
  677MOL0     H93397   7.250   6.983   1.600  0.0864  0.0719 -0.9545
  677MOL0     H93398   7.343   6.993   1.351  0.0917  0.5078  0.9901
  677MOL0     H93399   7.447   6.926   1.476 -1.4735 -1.3961  2.2960
  677MOL0     H93400   7.449   6.811   1.255 -0.1699  1.1209  0.6980
  677MOL0     H93401   7.291   6.743   1.292 -0.5741 -0.2718  2.4245
  677MOL0     H93402   7.435   6.572   1.362  0.7836  0.6753 -1.3229
  677MOL0     H93403   7.397   6.668   1.512 -3.6898  0.2010 -1.2662
  677MOL0     H93404   7.600   6.774   1.513  0.1122 -0.7260  0.6476
  677MOL0     H93405   7.656   6.702   1.359 -1.3098  1.6491 -0.2268
  677MOL0     H93406   6.579   6.899   1.430 -3.7848  0.8131  0.2555
  677MOL0     H93407   6.375   6.899   1.556  0.2155  1.0843  0.1246
  677MOL0     H93408   6.268   7.055   2.078  1.3269 -1.0576 -2.6162
  677MOL0     H93409   6.052   7.095   2.184 -1.5719 -0.2737  0.8164
  677MOL0     H93410   4.634   6.618   3.022  0.0681 -2.6514  1.5244
  677MOL0     H93411   4.556   6.408   3.116  1.5908 -0.6325 -4.3304
  677MOL0     H93412   4.102   6.227   3.196  0.7816 -0.2989 -0.5653
  677MOL0     H93413   3.940   6.046   3.222  0.1775  1.1680  3.0646
  677MOL0     H93414   4.033   5.628   3.329  1.1015 -0.7828  1.5500
  677MOL0     H93415   4.100   5.723   3.469  1.6564 -0.2922 -1.0793
  677MOL0     H93416   3.905   5.749   3.594 -0.8870 -1.2758  0.1528
  677MOL0     H93417   3.912   5.588   3.560 -0.6922 -0.0399  0.6683
  677MOL0     H93418   3.749   5.778   3.397  1.3990 -1.4905 -2.3798
  677MOL0     H93419   3.754   5.590   3.382  0.5683 -0.2741 -0.3129
  677MOL0     H93420   3.562   5.634   3.480  0.2397  1.7232 -1.4172
  677MOL0     H93421   3.609   5.763   3.581  1.8394 -0.2939  1.0641
  677MOL0     H93422   3.687   5.488   3.878 -0.3065 -2.9000 -2.0152
  677MOL0     H93423   4.253   5.777   3.308 -0.0427 -0.7278  0.8819
  677MOL0     H93424   4.528   5.925   3.258 -0.2616 -1.4378  1.1181
  677MOL0     H93425   4.440   5.810   3.174 -1.8174  0.2708 -0.3562
  677MOL0     H93426   4.485   5.964   3.095 -4.3071  0.4568 -0.8784
  678MOL0     O93427   3.449   8.209  10.542 -1.2553 -0.4735 -0.1649
  678MOL0     C93428   3.540   8.277  10.582 -0.0289 -0.2418 -0.8775
  678MOL0     O93429   3.524   8.372  10.672 -0.1017 -0.6470 -1.2393
  678MOL0     C93430   3.406   8.413  10.721 -0.0346 -0.3839  0.9962
  678MOL0     C93431   3.401   8.447  10.861 -0.3433 -0.2506 -0.0135
  678MOL0     C93432   3.275   8.485  10.913  0.2071  0.0494 -0.0895
  678MOL0     C93433   3.169   8.515  10.827 -0.4627  0.0547  0.8160
  678MOL0     O93434   3.057   8.562  10.890 -0.0113 -0.5321 -0.7747
  678MOL0     C93435   2.941   8.606  10.820  0.3093 -0.3450 -0.7785
  678MOL0     C93436   2.818   8.613  10.912 -0.5472  0.2243  0.4185
  678MOL0     C93437   2.842   8.690  11.042 -0.7854 -0.4365  0.1311
  678MOL0     C93438   2.846   8.842  11.026  0.3919 -0.2350 -0.5333
  678MOL0     C93439   2.711   8.907  10.995  0.2730 -0.2184 -0.5082
  678MOL0     C93440   2.607   8.864  11.103 -0.7131  0.4439  0.3186
  678MOL0     C93441   2.478   8.956  11.086 -0.6069  0.3353  0.2469
  678MOL0     C93442   2.393   8.919  11.210 -0.3775 -0.2243 -0.0865
  678MOL0     N93443   2.461   8.965  11.338  0.4990  0.0858 -1.0314
  678MOL0     C93444   2.465   9.098  11.374 -0.3134 -0.3439 -0.2418
  678MOL0     C93445   2.516   9.090  11.504  0.6358  0.1288  0.3249
  678MOL0     C93446   2.518   9.230  11.582 -0.5327  0.6833 -0.1612
  678MOL0     C93447   2.457   9.212  11.731  0.1066 -0.7966 -1.0511
  678MOL0     C93448   2.306   9.181  11.745 -0.2143 -0.9916  0.5738
  678MOL0     C93449   2.263   9.186  11.893 -0.4095 -0.0565  0.1926
  678MOL0     O93450   2.333   9.090  11.969 -0.4277  0.6928  0.6427
  678MOL0     C93451   2.322   9.099  12.103 -0.1147 -0.9079 -0.5295
  678MOL0     C93452   2.366   8.983  12.173  0.6255  0.4911  0.0680
  678MOL0     C93453   2.338   8.973  12.308  0.3101 -0.2447 -0.3160
  678MOL0     C93454   2.370   8.851  12.378 -0.1148  0.3235  0.1685
  678MOL0     C93455   2.267   9.080  12.377 -0.1071 -1.1991  0.5978
  678MOL0     C93456   2.238   9.084  12.528 -0.1233 -0.5569 -0.6051
  678MOL0     O93457   2.161   9.201  12.576 -0.1274  0.1689 -0.0417
  678MOL0     C93458   2.107   9.201  12.699  0.2708 -0.7827  0.0698
  678MOL0     C93459   2.179   9.206  12.812  0.2016  0.1350  0.3662
  678MOL0     C93460   2.126   9.204  12.940 -0.0546 -1.0196 -0.1050
  678MOL0     C93461   1.988   9.188  12.955 -0.3044 -0.1167 -0.1503
  678MOL0     O93462   1.924   9.149  13.068  0.2893 -0.1885  0.4647
  678MOL0     C93463   1.991   9.084  13.179 -0.3299 -0.1192 -0.4418
  678MOL0     C93464   2.046   9.173  13.293  0.5143 -0.2702  0.2569
  678MOL0     C93465   2.007   9.126  13.429  0.4795  0.2093  0.5915
  678MOL0     C93466   2.077   8.988  13.457 -1.1560 -0.6789  0.4909
  678MOL0     C93467   2.067   8.955  13.603  0.0354  0.4243  1.3067
  678MOL0     C93468   1.927   8.955  13.660 -0.9313 -0.1449  0.1200
  678MOL0     C93469   1.918   8.896  13.801  0.0685 -0.0603  1.2470
  678MOL0     C93470   1.781   8.924  13.865  0.1806  0.3721  0.1666
  678MOL0    Cl93471   1.699   8.765  13.877 -0.5193  0.0966  0.2912
  678MOL0     C93472   1.918   9.177  12.837  0.1920 -0.9440 -0.4826
  678MOL0     C93473   1.978   9.191  12.714 -0.3790  1.0237 -0.0137
  678MOL0     O93474   2.278   8.995  12.603  0.5418  0.2715 -0.0566
  678MOL0     C93475   2.216   9.187  12.305  0.4637 -0.0409  0.5489
  678MOL0     C93476   2.251   9.207  12.171  0.7276 -0.1975 -0.1143
  678MOL0     N93477   2.536   8.955  11.543  0.3225  0.1981 -0.5975
  678MOL0     N93478   2.495   8.885  11.445  0.8606  0.0818  0.0161
  678MOL0     C93479   3.181   8.491  10.691  0.8178  0.0832  0.0375
  678MOL0     C93480   3.299   8.440  10.631  0.1073  0.4291  0.8790
  678MOL0     C93481   3.669   8.246  10.520 -0.3604  0.0165 -0.1266
  678MOL0     C93482   3.769   8.199  10.599 -0.5520 -0.1392 -0.5845
  678MOL0     C93483   3.886   8.156  10.550 -1.3298  0.8775 -0.1509
  678MOL0     C93484   3.909   8.158  10.407  1.0837 -0.1201 -0.2383
  678MOL0     O93485   4.028   8.148  10.341 -0.0548  0.1372  0.2181
  678MOL0     C93486   4.140   8.174  10.428 -0.2680  0.3112 -0.0615
  678MOL0     C93487   4.249   8.217  10.342 -0.6086 -0.3242  0.3615
  678MOL0     C93488   4.197   8.305  10.223 -0.6334  0.5413 -0.2109
  678MOL0     C93489   4.321   8.376  10.153 -0.2241 -0.5608 -0.2495
  678MOL0     C93490   4.384   8.477  10.245 -0.4513 -0.5729  0.4247
  678MOL0     C93491   4.450   8.551  10.317 -0.1866  0.3243  0.7301
  678MOL0     C93492   3.809   8.212  10.326  0.1278 -0.6211 -0.3788
  678MOL0     C93493   3.691   8.250  10.381  1.2802 -0.5675  0.9209
  678MOL0     C93494   3.594   8.316  10.281  0.0078 -0.1103  0.1972
  678MOL0     H93495   3.480   8.433  10.934 -0.1723  0.9325  0.0521
  678MOL0     H93496   3.262   8.486  11.020 -2.2822 -2.2219 -0.2614
  678MOL0     H93497   2.923   8.533  10.741  0.2201 -1.6417  0.4130
  678MOL0     H93498   2.963   8.703  10.774  0.9496 -0.9767 -1.8453
  678MOL0     H93499   2.728   8.649  10.862 -1.2616  1.3895  2.4356
  678MOL0     H93500   2.801   8.508  10.938  2.6253 -0.0593  1.8452
  678MOL0     H93501   2.758   8.663  11.107 -1.6602  1.4525 -0.1609
  678MOL0     H93502   2.938   8.656  11.083  0.1867  3.2144  1.2417
  678MOL0     H93503   2.881   8.889  11.118 -2.5316  1.8898 -0.3278
  678MOL0     H93504   2.914   8.876  10.947  0.7598 -1.3355 -0.6964
  678MOL0     H93505   2.663   8.864  10.907  0.2940 -1.6387  0.1401
  678MOL0     H93506   2.710   9.016  10.993 -0.9077 -0.1884  0.4271
  678MOL0     H93507   2.578   8.759  11.095  2.0244 -0.2304 -4.4634
  678MOL0     H93508   2.651   8.881  11.202  0.4792  0.6579 -0.2235
  678MOL0     H93509   2.416   8.933  10.999  0.5723 -0.3014 -0.4493
  678MOL0     H93510   2.501   9.062  11.075 -2.0020  0.6942  0.6455
  678MOL0     H93511   2.294   8.965  11.195 -1.9534 -2.7744  1.5705
  678MOL0     H93512   2.382   8.810  11.219 -1.3757  0.0052  2.3702
  678MOL0     H93513   2.442   9.192  11.325 -1.8450 -1.9194 -2.7555
  678MOL0     H93514   2.464   9.312  11.534  1.2268  0.6348 -2.3556
  678MOL0     H93515   2.622   9.260  11.591 -0.9520  1.8662  1.0135
  678MOL0     H93516   2.515   9.127  11.771  2.0374  0.0847 -1.8449
  678MOL0     H93517   2.493   9.299  11.786  1.8067  0.5647 -4.0966
  678MOL0     H93518   2.246   9.260  11.699  1.1582 -1.4492 -2.2376
  678MOL0     H93519   2.286   9.083  11.700 -0.1199 -0.0167 -1.7442
  678MOL0     H93520   2.281   9.288  11.928 -1.7487  1.1734 -2.4425
  678MOL0     H93521   2.156   9.163  11.896 -0.5317  0.5817  0.9489
  678MOL0     H93522   2.412   8.905  12.113 -0.1550  0.1742 -0.1330
  678MOL0     H93523   2.288   8.803  12.433  1.1866  0.0053  1.9138
  678MOL0     H93524   2.449   8.870  12.450 -1.7194  3.3878  1.2859
  678MOL0     H93525   2.394   8.781  12.297  2.1091  0.8075  0.3486
  678MOL0     H93526   2.286   9.211  12.796  0.3148  0.7223  1.2329
  678MOL0     H93527   2.188   9.209  13.030 -0.2602 -0.0585 -0.0027
  678MOL0     H93528   1.939   9.002  13.229 -1.3128  0.4646 -0.4835
  678MOL0     H93529   2.075   9.026  13.139  1.7790  2.5075 -0.0689
  678MOL0     H93530   2.154   9.183  13.287  0.4729 -0.0253 -0.0778
  678MOL0     H93531   2.012   9.277  13.283 -0.8050 -0.2745  3.3054
  678MOL0     H93532   1.898   9.118  13.430  0.4237  0.9224  0.3260
  678MOL0     H93533   2.031   9.203  13.503  2.0483 -1.8487  2.3466
  678MOL0     H93534   2.182   8.990  13.427 -1.0488  1.2797  0.8740
  678MOL0     H93535   2.042   8.905  13.394  0.8454 -0.4273 -1.0513
  678MOL0     H93536   2.116   8.860  13.627  1.6591  1.9605  4.6099
  678MOL0     H93537   2.129   9.033  13.649 -2.1815  3.5105 -0.5844
  678MOL0     H93538   1.854   8.901  13.599 -2.9063  1.2795  1.0893
  678MOL0     H93539   1.890   9.058  13.661  0.0315  0.2834 -2.3904
  678MOL0     H93540   2.004   8.916  13.866  0.9809  1.6028 -0.3555
  678MOL0     H93541   1.923   8.788  13.783 -1.6433  0.3993 -3.5148
  678MOL0     H93542   1.714   8.992  13.812 -3.0616  0.1406  3.5841
  678MOL0     H93543   1.790   8.970  13.964 -1.8335  0.4703  0.3344
  678MOL0     H93544   1.813   9.150  12.834 -0.8556  1.0388  5.3578
  678MOL0     H93545   1.910   9.176  12.631 -1.0313 -0.6029  0.7674
  678MOL0     H93546   2.147   9.263  12.342 -0.0784 -1.1394  1.9121
  678MOL0     H93547   2.204   9.293  12.123  2.3711  0.7687 -0.0870
  678MOL0     H93548   3.103   8.520  10.620 -0.7998 -1.6641  1.0112
  678MOL0     H93549   3.322   8.429  10.525 -0.2737  3.5880  0.3771
  678MOL0     H93550   3.756   8.205  10.707  2.4428  0.7999 -0.1800
  678MOL0     H93551   3.965   8.120  10.615 -1.7186  1.0186  0.4013
  678MOL0     H93552   4.130   8.265  10.488 -0.6792  2.3326 -2.9971
  678MOL0     H93553   4.176   8.091  10.489  2.4335  1.7592  0.4814
  678MOL0     H93554   4.299   8.129  10.301 -0.1992  0.5543 -1.0986
  678MOL0     H93555   4.321   8.279  10.398  1.8441 -0.4611 -2.4041
  678MOL0     H93556   4.136   8.250  10.150  0.1130  0.8015 -1.0535
  678MOL0     H93557   4.127   8.382  10.257  0.1292  0.6002  1.2887
  678MOL0     H93558   4.278   8.445  10.079  0.8470  0.5732  0.1633
  678MOL0     H93559   4.388   8.298  10.115  0.6707  0.3470 -0.5610
  678MOL0     H93560   4.521   8.607  10.374 -1.0378  2.4292 -0.1619
  678MOL0     H93561   3.845   8.224  10.224 -1.8934  3.2631 -0.8417
  678MOL0     H93562   3.558   8.408  10.328  2.5182  0.3276  1.4221
  678MOL0     H93563   3.650   8.336  10.189 -2.3980 -0.7156 -1.5161
  678MOL0     H93564   3.515   8.247  10.250  0.5461  1.3208 -5.3243
  679MOL0     O93565   3.704   9.563   5.795 -0.2181 -0.1833 -0.4456
  679MOL0     C93566   3.631   9.655   5.833 -0.3170 -0.0010 -1.1741
  679MOL0     O93567   3.584   9.755   5.753 -0.4240 -0.7061 -0.0297
  679MOL0     C93568   3.597   9.742   5.620 -0.1786 -0.3765 -0.4347
  679MOL0     C93569   3.517   9.649   5.556  0.1805  0.6024  0.0152
  679MOL0     C93570   3.502   9.646   5.422 -0.3768 -0.5226  0.2039
  679MOL0     C93571   3.580   9.729   5.341  0.0982 -0.2545  0.0628
  679MOL0     O93572   3.567   9.714   5.200 -0.6766  0.1697 -0.9981
  679MOL0     C93573   3.665   9.774   5.118  0.5437  0.4905 -0.1387
  679MOL0     C93574   3.644   9.727   4.973 -0.5429  0.1820  0.3252
  679MOL0     C93575   3.504   9.780   4.925  1.4213 -0.6017  0.1551
  679MOL0     C93576   3.400   9.660   4.919  0.4419  0.3689 -0.1836
  679MOL0     C93577   3.262   9.717   4.876 -0.5838  0.6578  0.3582
  679MOL0     C93578   3.149   9.616   4.895  0.2007  0.1258 -0.6878
  679MOL0     C93579   3.014   9.666   4.839  0.5664 -0.1454 -0.1069
  679MOL0     C93580   3.007   9.651   4.686 -0.2025 -0.3007  0.5225
  679MOL0     N93581   2.915   9.745   4.624 -0.3871 -0.0285 -0.0188
  679MOL0     C93582   2.914   9.877   4.656 -0.3293 -0.7657 -0.8765
  679MOL0     C93583   2.801   9.922   4.598 -0.3470  0.3289  0.4846
  679MOL0     C93584   2.753  10.062   4.601 -0.2011 -0.3636  0.6044
  679MOL0     C93585   2.695  10.090   4.738  0.0124 -0.0588  0.1983
  679MOL0     C93586   2.627  10.215   4.744  0.2081 -0.0171 -0.3723
  679MOL0     C93587   2.532  10.233   4.868  0.0775 -0.4610  0.1457
  679MOL0     O93588   2.488  10.370   4.875  0.1903 -0.3208 -0.7201
  679MOL0     C93589   2.400  10.389   4.976 -0.7639 -0.2173  0.1177
  679MOL0     C93590   2.375  10.520   5.025  1.2505 -0.5947  1.0653
  679MOL0     C93591   2.290  10.549   5.135 -0.2364  0.4209  0.1932
  679MOL0     C93592   2.287  10.690   5.187  0.1375  0.6990 -0.0183
  679MOL0     C93593   2.243  10.437   5.216 -1.0528 -0.1874  0.3315
  679MOL0     C93594   2.154  10.448   5.342 -0.8995 -0.0491  0.3342
  679MOL0     O93595   2.158  10.565   5.401  0.4253  0.7591 -0.1288
  679MOL0     C93596   2.090  10.583   5.520 -0.7850  0.3484 -0.1303
  679MOL0     C93597   1.956  10.616   5.519 -0.4874  0.6339 -0.0674
  679MOL0     C93598   1.883  10.634   5.638  0.2095  0.0124  0.2774
  679MOL0     C93599   1.945  10.613   5.764 -0.2464 -0.0237 -0.3480
  679MOL0     O93600   1.861  10.612   5.872  0.5221 -0.1815  0.1118
  679MOL0     C93601   1.908  10.644   6.001 -0.8984 -0.4831 -0.5909
  679MOL0     C93602   1.796  10.602   6.096 -0.3586 -0.2669  0.5446
  679MOL0     C93603   1.821  10.628   6.248  1.1071 -0.7775  0.6992
  679MOL0     C93604   1.680  10.607   6.321 -0.4117 -0.0654  0.1977
  679MOL0     C93605   1.681  10.677   6.452  0.5211  0.4422 -0.0482
  679MOL0     C93606   1.808  10.640   6.543  0.0932  0.0771  0.3051
  679MOL0     C93607   1.776  10.690   6.686 -0.5432  0.0114  0.4373
  679MOL0     C93608   1.788  10.842   6.695  1.0180  0.5431 -0.3785
  679MOL0    Cl93609   1.950  10.883   6.671  0.2010 -0.1823  0.2167
  679MOL0     C93610   2.084  10.565   5.752  0.2705 -0.4843 -0.9986
  679MOL0     C93611   2.157  10.546   5.641  0.4282  0.3215 -0.1006
  679MOL0     O93612   2.103  10.344   5.387  0.1444 -0.8804 -0.1653
  679MOL0     C93613   2.267  10.308   5.170  1.1080 -0.4841 -0.1783
  679MOL0     C93614   2.341  10.285   5.051  1.3120  0.3627 -0.4537
  679MOL0     N93615   2.756   9.816   4.517 -0.2049 -0.3187  0.1373
  679MOL0     N93616   2.813   9.703   4.541 -0.3286 -0.5278 -0.2258
  679MOL0     C93617   3.669   9.814   5.405  0.0849  0.3659  0.0421
  679MOL0     C93618   3.673   9.823   5.547 -0.7286  0.8052 -0.1205
  679MOL0     C93619   3.607   9.663   5.981 -0.5015  0.2606  0.6460
  679MOL0     C93620   3.687   9.591   6.070 -0.8885 -0.3641  0.5074
  679MOL0     C93621   3.677   9.601   6.208  0.0045  0.0817  0.6261
  679MOL0     C93622   3.567   9.660   6.266 -0.4772  0.5283 -1.0960
  679MOL0     O93623   3.546   9.657   6.396  0.2197 -0.1710  0.0251
  679MOL0     C93624   3.667   9.671   6.487  0.4312  0.1105 -0.9476
  679MOL0     C93625   3.623   9.750   6.607  0.0143  1.5591 -0.9118
  679MOL0     C93626   3.723   9.753   6.726 -0.0168 -0.6797 -0.2462
  679MOL0     C93627   3.782   9.891   6.721  0.4696 -0.3116 -0.3006
  679MOL0     C93628   3.888   9.913   6.821  0.3161  0.0014 -0.5960
  679MOL0     C93629   3.972   9.943   6.904  0.3219 -0.6761  0.4537
  679MOL0     C93630   3.474   9.720   6.183  0.2581 -0.8997  0.2520
  679MOL0     C93631   3.488   9.721   6.041 -0.7457 -0.2361  0.1651
  679MOL0     C93632   3.374   9.774   5.962 -0.0879 -0.0906  0.3376
  679MOL0     H93633   3.452   9.577   5.604  3.9222 -2.3262  1.1848
  679MOL0     H93634   3.423   9.585   5.379 -0.5778 -0.1128 -0.0054
  679MOL0     H93635   3.758   9.727   5.151 -0.4608  0.1958  2.4543
  679MOL0     H93636   3.670   9.883   5.128 -0.2444  0.2902  3.8563
  679MOL0     H93637   3.720   9.776   4.912 -0.1714 -0.1342  0.5250
  679MOL0     H93638   3.652   9.618   4.963 -2.3901  0.2012 -2.7462
  679MOL0     H93639   3.462   9.865   4.981 -1.6318  1.1154 -4.1964
  679MOL0     H93640   3.492   9.834   4.831 -2.8026  0.7503  1.2490
  679MOL0     H93641   3.425   9.577   4.852  1.4531 -0.7639  1.5099
  679MOL0     H93642   3.380   9.616   5.018 -0.9579 -0.7296 -0.9285
  679MOL0     H93643   3.263   9.754   4.773 -0.0787 -1.1071 -0.2943
  679MOL0     H93644   3.239   9.805   4.937  0.5623  1.3111 -0.1265
  679MOL0     H93645   3.185   9.520   4.858  2.1389 -1.2201  3.9490
  679MOL0     H93646   3.141   9.591   5.002 -0.4771 -4.8073 -1.6460
  679MOL0     H93647   3.001   9.772   4.862  0.5417  0.2373 -1.8270
  679MOL0     H93648   2.935   9.600   4.878  2.1876 -2.6491 -0.7781
  679MOL0     H93649   3.109   9.663   4.649 -1.1857 -0.0713 -2.3615
  679MOL0     H93650   2.981   9.549   4.655  0.0043  0.5008 -2.6081
  679MOL0     H93651   2.980   9.947   4.706 -2.6657  1.4434 -0.6535
  679MOL0     H93652   2.682  10.079   4.520  2.0806  1.3558 -1.1680
  679MOL0     H93653   2.839  10.126   4.578  1.5707 -3.0564 -0.6718
  679MOL0     H93654   2.625  10.012   4.769 -0.9062  1.3872  2.0035
  679MOL0     H93655   2.772  10.093   4.816  1.1609 -1.7149 -0.8258
  679MOL0     H93656   2.697  10.299   4.752  0.9298 -0.5220 -1.2053
  679MOL0     H93657   2.579  10.221   4.646  0.7742  1.9670 -0.5786
  679MOL0     H93658   2.452  10.160   4.860  1.3359 -1.6979 -3.2063
  679MOL0     H93659   2.578  10.205   4.963 -1.8029 -3.7775  0.2157
  679MOL0     H93660   2.422  10.604   4.976 -3.1417 -0.0700 -2.9491
  679MOL0     H93661   2.373  10.703   5.252  1.3015 -0.5964 -1.2371
  679MOL0     H93662   2.190  10.717   5.230 -0.6678 -1.2726 -0.4842
  679MOL0     H93663   2.309  10.753   5.100  1.2623 -3.1054 -2.7584
  679MOL0     H93664   1.919  10.624   5.418  0.8755 -0.3407 -0.6798
  679MOL0     H93665   1.778  10.661   5.639 -0.2675 -1.7166  0.6887
  679MOL0     H93666   2.009  10.610   6.027 -0.1692  0.7423 -1.7142
  679MOL0     H93667   1.932  10.751   6.003  0.8156 -0.8212 -0.9413
  679MOL0     H93668   1.710  10.665   6.073  0.8109  2.4237  2.9790
  679MOL0     H93669   1.765  10.503   6.063  1.6000  0.0395 -2.6518
  679MOL0     H93670   1.863  10.728   6.259  1.8455 -0.9320 -0.4616
  679MOL0     H93671   1.900  10.561   6.283  2.5788  1.3551  1.6726
  679MOL0     H93672   1.669  10.501   6.343  2.7408  0.2360  4.4733
  679MOL0     H93673   1.602  10.655   6.261  0.3160  3.3007  1.7027
  679MOL0     H93674   1.676  10.783   6.427 -4.5682  0.6436  0.5820
  679MOL0     H93675   1.586  10.662   6.505  1.1815  2.8545  2.0243
  679MOL0     H93676   1.901  10.682   6.503  0.3379 -0.1549  0.6264
  679MOL0     H93677   1.824  10.533   6.556  0.5176  0.0955 -0.0345
  679MOL0     H93678   1.857  10.650   6.749 -1.0264  0.8682  1.6365
  679MOL0     H93679   1.680  10.654   6.723 -1.1598  0.2773 -0.8416
  679MOL0     H93680   1.770  10.895   6.789  0.2399 -0.2128 -0.0912
  679MOL0     H93681   1.724  10.893   6.622 -1.8098 -1.5862  0.4313
  679MOL0     H93682   2.135  10.535   5.843 -0.9656  1.3185  0.3608
  679MOL0     H93683   2.259  10.512   5.652  0.7114  0.9135 -0.8026
  679MOL0     H93684   2.235  10.220   5.225 -0.2785 -1.4632 -2.3908
  679MOL0     H93685   2.381  10.184   5.050 -0.1724 -0.2565 -1.6257
  679MOL0     H93686   3.730   9.880   5.345 -1.0108  0.9436 -0.4775
  679MOL0     H93687   3.750   9.887   5.588  0.8942  0.0991 -1.9347
  679MOL0     H93688   3.764   9.536   6.017 -0.5859  1.0888 -0.6083
  679MOL0     H93689   3.746   9.529   6.251 -1.6881 -1.4817  0.8620
  679MOL0     H93690   3.702   9.573   6.519  0.5909  0.4478 -0.0567
  679MOL0     H93691   3.752   9.723   6.442 -1.1735  0.9201 -3.3021
  679MOL0     H93692   3.544   9.680   6.637  1.6797 -1.0462 -2.1973
  679MOL0     H93693   3.588   9.850   6.583  1.6444  1.9885 -1.6540
  679MOL0     H93694   3.667   9.750   6.821 -1.3071  1.1489 -0.8826
  679MOL0     H93695   3.795   9.671   6.721  0.5313 -0.1137 -1.9795
  679MOL0     H93696   3.697   9.953   6.751 -1.3015 -3.6912  2.3369
  679MOL0     H93697   3.836   9.906   6.627  1.4623  3.4197  0.6880
  679MOL0     H93698   4.041   9.972   6.981  1.2898  0.3662 -0.7573
  679MOL0     H93699   3.387   9.762   6.233  1.0064  3.3890 -1.6146
  679MOL0     H93700   3.354   9.695   5.889  3.2834 -1.3467  0.5742
  679MOL0     H93701   3.294   9.806   6.029  1.5939  1.1646  1.8427
  679MOL0     H93702   3.406   9.862   5.905 -0.5080  1.5442  2.5090
  680MOL0     O93703  11.137   1.588   4.585  0.7730 -0.1370  0.7214
  680MOL0     C93704  11.058   1.506   4.536 -0.6034  0.2803 -0.1491
  680MOL0     O93705  11.015   1.393   4.602 -0.1702  0.4171 -0.2659
  680MOL0     C93706  11.071   1.349   4.721 -1.1758  0.1311  0.1434
  680MOL0     C93707  11.212   1.364   4.752  0.0404 -1.6762 -0.8047
  680MOL0     C93708  11.251   1.343   4.883 -0.0490 -0.0794  0.6725
  680MOL0     C93709  11.171   1.281   4.983 -0.2670 -0.0062 -0.1351
  680MOL0     O93710  11.218   1.266   5.117 -0.3398 -0.0416  0.9989
  680MOL0     C93711  11.338   1.335   5.152 -0.7288 -0.2352 -0.4313
  680MOL0     C93712  11.346   1.301   5.309 -0.0176  0.7060  0.1905
  680MOL0     C93713  11.221   1.347   5.388  0.4729  0.1400 -0.1503
  680MOL0     C93714  11.123   1.239   5.437 -0.4552  0.0990 -1.3368
  680MOL0     C93715  10.994   1.287   5.494 -0.0124 -0.1952 -0.3172
  680MOL0     C93716  10.904   1.169   5.544 -0.8339  0.4387  0.6097
  680MOL0     C93717  10.977   1.094   5.652  0.1911 -0.2692  0.2730
  680MOL0     C93718  10.899   0.967   5.698  0.3149 -0.0943 -0.2453
  680MOL0     N93719  10.762   0.992   5.757 -0.1919 -0.3532 -0.1300
  680MOL0     C93720  10.707   1.092   5.829 -0.2154  0.0460  0.4084
  680MOL0     C93721  10.571   1.056   5.842 -0.0793 -0.1400 -0.3645
  680MOL0     C93722  10.477   1.142   5.927 -0.1111  0.0289  0.0044
  680MOL0     C93723  10.503   1.120   6.072  0.9350 -0.1546  1.1761
  680MOL0     C93724  10.387   1.166   6.156  0.1832  0.3586 -0.1518
  680MOL0     C93725  10.406   1.156   6.308  0.0733 -0.5326  0.1148
  680MOL0     O93726  10.500   1.257   6.347 -0.1928 -0.4874  0.4693
  680MOL0     C93727  10.545   1.269   6.474 -0.2077 -0.2048 -0.8068
  680MOL0     C93728  10.511   1.179   6.572 -0.5480  0.5592 -0.7803
  680MOL0     C93729  10.548   1.210   6.706 -0.5231 -0.2935  0.8146
  680MOL0     C93730  10.503   1.113   6.815  0.2654  0.1642 -0.3395
  680MOL0     C93731  10.613   1.332   6.729  0.4150 -0.1903 -0.0128
  680MOL0     C93732  10.619   1.388   6.865  1.6773  0.1093  0.3817
  680MOL0     O93733  10.742   1.395   6.928 -0.1168  0.0435  0.5980
  680MOL0     C93734  10.748   1.442   7.052  0.9558 -0.1512 -1.5784
  680MOL0     C93735  10.728   1.571   7.107 -0.1632 -0.7327 -0.3035
  680MOL0     C93736  10.757   1.605   7.235  0.1278  0.1056 -0.2624
  680MOL0     C93737  10.776   1.499   7.320  0.1727 -0.0984  0.2724
  680MOL0     O93738  10.816   1.515   7.439  0.6486 -0.0753 -0.5513
  680MOL0     C93739  10.727   1.582   7.529 -0.4862 -0.5211 -0.2676
  680MOL0     C93740  10.777   1.722   7.543  0.1543  0.1715 -1.1762
  680MOL0     C93741  10.685   1.800   7.643  0.5863  1.1862  0.4759
  680MOL0     C93742  10.695   1.940   7.620 -0.3669 -0.2653 -0.2606
  680MOL0     C93743  10.601   2.025   7.711  0.0874 -0.2980  0.0822
  680MOL0     C93744  10.534   2.152   7.655  0.0720  0.0406  0.4522
  680MOL0     C93745  10.442   2.215   7.756  0.0576 -0.6180 -0.3232
  680MOL0     C93746  10.326   2.301   7.705  0.8409 -0.4693 -0.0651
  680MOL0    Cl93747  10.408   2.389   7.573  0.2677 -0.1024  0.2498
  680MOL0     C93748  10.787   1.372   7.273  0.1177 -0.2241 -0.6259
  680MOL0     C93749  10.769   1.340   7.139  0.8352  0.0776 -0.1962
  680MOL0     O93750  10.513   1.417   6.932  0.3252  1.0776  0.0176
  680MOL0     C93751  10.636   1.426   6.631 -0.3352  0.1193  0.4044
  680MOL0     C93752  10.610   1.386   6.500  0.2461  0.5717 -0.2749
  680MOL0     N93753  10.550   0.927   5.798 -0.8005 -0.3624 -0.4858
  680MOL0     N93754  10.667   0.887   5.754 -0.3804  0.0081  0.2675
  680MOL0     C93755  11.037   1.262   4.941  0.5121  0.1946  0.0385
  680MOL0     C93756  10.988   1.287   4.811 -0.0913 -0.4479 -0.4393
  680MOL0     C93757  11.009   1.527   4.391  0.7016 -0.1256 -0.0040
  680MOL0     C93758  10.967   1.657   4.357 -0.2938  1.0471 -0.2270
  680MOL0     C93759  10.922   1.680   4.225  1.2320  0.4573  0.0908
  680MOL0     C93760  10.914   1.571   4.126  0.2044  0.3703  0.1306
  680MOL0     O93761  10.874   1.584   3.996  0.5484 -0.0287 -0.3418
  680MOL0     C93762  10.809   1.713   3.964 -0.4777  0.7495 -1.3801
  680MOL0     C93763  10.787   1.703   3.817  0.4896  0.8725  0.3725
  680MOL0     C93764  10.796   1.831   3.722 -0.3638  0.7880 -0.4781
  680MOL0     C93765  10.728   1.939   3.784  0.4419 -0.3427  0.5978
  680MOL0     C93766  10.579   1.907   3.803 -0.1606  0.5645 -0.0863
  680MOL0     C93767  10.460   1.869   3.811  0.5694 -0.1741  0.2653
  680MOL0     C93768  10.953   1.445   4.173 -0.0333  0.3329  0.7267
  680MOL0     C93769  10.998   1.416   4.291 -0.3448 -0.0510 -0.2051
  680MOL0     C93770  11.041   1.266   4.321 -0.2135 -0.1311 -0.4636
  680MOL0     H93771  11.283   1.416   4.688  0.9216 -0.2530  1.2217
  680MOL0     H93772  11.354   1.369   4.904 -0.5740  2.6095  0.3005
  680MOL0     H93773  11.328   1.443   5.136  2.9676  0.0531 -1.8608
  680MOL0     H93774  11.429   1.292   5.109 -0.8780 -0.6865 -0.2969
  680MOL0     H93775  11.358   1.193   5.322 -1.2068  0.6487  0.9242
  680MOL0     H93776  11.436   1.343   5.355 -0.3692  1.2511  0.3876
  680MOL0     H93777  11.263   1.394   5.477 -0.6315  3.2059 -1.0935
  680MOL0     H93778  11.167   1.424   5.332  0.9688  1.3213  0.9362
  680MOL0     H93779  11.094   1.170   5.357 -1.3256  2.3569 -3.0806
  680MOL0     H93780  11.176   1.181   5.513 -0.1737  0.5880 -1.1540
  680MOL0     H93781  10.947   1.339   5.410 -1.3073 -1.9685 -0.7342
  680MOL0     H93782  11.017   1.360   5.572  3.3513 -2.4075  0.9932
  680MOL0     H93783  10.805   1.204   5.574 -2.3258 -1.6138 -1.5618
  680MOL0     H93784  10.881   1.107   5.456  0.9006 -0.2666  0.6088
  680MOL0     H93785  10.993   1.158   5.739  0.8062  0.7636 -0.5653
  680MOL0     H93786  11.081   1.064   5.638  0.1258 -0.3177 -0.1347
  680MOL0     H93787  10.892   0.900   5.613  1.4388  1.2876 -1.4688
  680MOL0     H93788  10.968   0.915   5.765  0.4103  0.4245  0.0659
  680MOL0     H93789  10.758   1.178   5.871 -0.8430  0.5101  0.2230
  680MOL0     H93790  10.374   1.124   5.897 -0.1180 -1.1501  0.6828
  680MOL0     H93791  10.496   1.248   5.906  1.7815  0.2253  2.2625
  680MOL0     H93792  10.520   1.015   6.098  2.2504 -0.4257 -0.5808
  680MOL0     H93793  10.591   1.180   6.099 -0.8907  2.7491  1.1259
  680MOL0     H93794  10.373   1.273   6.135  1.4926  0.6546  0.3195
  680MOL0     H93795  10.297   1.112   6.129  0.6876  0.3557 -1.9610
  680MOL0     H93796  10.309   1.187   6.348  0.6502  0.8948  0.4870
  680MOL0     H93797  10.439   1.058   6.342 -1.3781 -0.5362  1.6295
  680MOL0     H93798  10.459   1.086   6.553  1.5063 -1.3182  1.9150
  680MOL0     H93799  10.483   1.018   6.764 -2.0648 -1.7804  3.6953
  680MOL0     H93800  10.405   1.154   6.841 -1.0041 -2.3156 -0.8628
  680MOL0     H93801  10.571   1.094   6.899  2.9767  2.7799 -1.7565
  680MOL0     H93802  10.704   1.652   7.038 -1.8964 -0.5082  0.5097
  680MOL0     H93803  10.750   1.712   7.253  2.4568  0.4948 -1.3032
  680MOL0     H93804  10.624   1.560   7.497 -0.1817 -0.3689 -1.4098
  680MOL0     H93805  10.726   1.546   7.632  0.9960  4.0026  1.5755
  680MOL0     H93806  10.878   1.730   7.584  0.4655  3.6187 -2.3157
  680MOL0     H93807  10.776   1.777   7.449  3.0827  2.8727  0.1769
  680MOL0     H93808  10.710   1.776   7.747  2.2564  1.7950  0.2475
  680MOL0     H93809  10.581   1.774   7.624  0.9543  0.4042 -0.5222
  680MOL0     H93810  10.672   1.973   7.518 -1.7385 -0.0596  0.0943
  680MOL0     H93811  10.799   1.969   7.637 -0.5901  1.0286 -0.9836
  680MOL0     H93812  10.514   1.965   7.740 -0.5222  1.1187  1.2734
  680MOL0     H93813  10.656   2.050   7.803 -2.1919  0.4913  1.2983
  680MOL0     H93814  10.463   2.124   7.577  0.1432  0.3216  0.2858
  680MOL0     H93815  10.619   2.214   7.626  3.6028 -3.6120  1.8972
  680MOL0     H93816  10.495   2.277   7.828  1.0441 -1.5536 -0.2131
  680MOL0     H93817  10.382   2.143   7.812 -0.3948  0.6325  0.8416
  680MOL0     H93818  10.291   2.367   7.785  0.2016  0.6427 -1.2400
  680MOL0     H93819  10.235   2.248   7.676  0.6321  1.1713 -2.6811
  680MOL0     H93820  10.833   1.297   7.337 -0.7205 -0.7371 -0.5988
  680MOL0     H93821  10.779   1.245   7.088  0.2749  0.8145 -1.7562
  680MOL0     H93822  10.689   1.514   6.665  2.0816 -1.7818  1.8537
  680MOL0     H93823  10.634   1.457   6.422  1.0077 -2.3236 -2.8693
  680MOL0     H93824  10.967   1.221   5.014 -3.1181 -0.5432 -3.4957
  680MOL0     H93825  10.882   1.270   4.794 -0.4428  0.9438  0.1495
  680MOL0     H93826  10.975   1.736   4.431  0.0959  0.9110 -0.1232
  680MOL0     H93827  10.888   1.780   4.202 -1.1201  0.0061  1.3533
  680MOL0     H93828  10.722   1.712   4.030  1.6417 -1.8150  1.7118
  680MOL0     H93829  10.880   1.795   3.983  1.0182 -0.5598 -1.0775
  680MOL0     H93830  10.691   1.653   3.802  1.0769 -0.7858  1.7804
  680MOL0     H93831  10.864   1.634   3.781 -0.4559 -0.1270  0.2081
  680MOL0     H93832  10.897   1.855   3.687 -0.0945  1.0450  0.4292
  680MOL0     H93833  10.743   1.798   3.632  0.6321 -0.6907 -0.5595
  680MOL0     H93834  10.735   2.021   3.712  0.9942 -1.3095 -0.4756
  680MOL0     H93835  10.773   1.972   3.878  0.5558  3.6518 -0.6742
  680MOL0     H93836  10.356   1.849   3.825  0.1599  2.3634  1.1933
  680MOL0     H93837  10.950   1.357   4.110  2.9541  0.3589  0.4129
  680MOL0     H93838  10.955   1.209   4.358  0.3913 -0.6563  0.1358
  680MOL0     H93839  11.080   1.212   4.234 -1.9867 -3.0554  0.4021
  680MOL0     H93840  11.117   1.249   4.398 -0.3850 -1.2227 -0.5286
  681MOL0     O93841   9.898   5.184   4.478 -0.1683  0.1697 -0.0561
  681MOL0     C93842   9.803   5.237   4.532  0.0622  0.0840 -0.1890
  681MOL0     O93843   9.782   5.245   4.666  0.2442  0.2194  0.3450
  681MOL0     C93844   9.887   5.213   4.752 -0.2301  0.0405 -0.2548
  681MOL0     C93845   9.953   5.084   4.760  1.3567  0.0446 -0.2923
  681MOL0     C93846  10.060   5.072   4.844  0.3711 -0.7220 -0.2159
  681MOL0     C93847  10.102   5.183   4.924 -0.0710 -0.2210  0.0732
  681MOL0     O93848  10.186   5.163   5.025  0.0686 -0.1707 -0.6954
  681MOL0     C93849  10.171   5.061   5.129  0.5155  0.4841  0.3119
  681MOL0     C93850  10.024   5.058   5.180  0.2820 -0.1018 -0.2122
  681MOL0     C93851   9.987   4.980   5.302 -0.0946  0.7821  0.4867
  681MOL0     C93852  10.076   4.873   5.342  0.1813 -0.1784 -0.3769
  681MOL0     C93853  10.038   4.796   5.470 -0.0125 -0.3247  0.4602
  681MOL0     C93854  10.090   4.870   5.598  0.2339 -0.7549  1.1788
  681MOL0     C93855  10.056   4.783   5.719 -0.0926 -0.2292  0.5182
  681MOL0     C93856  10.119   4.634   5.722 -0.3167  0.4787  0.2822
  681MOL0     N93857  10.070   4.550   5.830  0.0171 -1.0674 -0.7323
  681MOL0     C93858  10.040   4.415   5.803 -0.2621 -0.1257  0.5609
  681MOL0     C93859  10.036   4.360   5.924  0.5653  0.1080 -0.2578
  681MOL0     C93860  10.011   4.209   5.964  0.1490 -0.7546  0.5153
  681MOL0     C93861  10.148   4.155   6.028  1.1470 -0.5782 -0.2216
  681MOL0     C93862  10.140   4.009   6.035 -0.5832 -0.2672 -0.1509
  681MOL0     C93863  10.251   3.984   6.140 -0.4225  0.2658  0.7594
  681MOL0     O93864  10.382   4.034   6.104 -0.8567  0.3428 -0.1665
  681MOL0     C93865  10.479   4.020   6.201 -1.1793  0.0246 -0.8411
  681MOL0     C93866  10.491   3.920   6.296  0.7003  0.2796  0.2619
  681MOL0     C93867  10.600   3.907   6.382 -0.1514  0.6991  0.6743
  681MOL0     C93868  10.588   3.799   6.487  0.1303 -0.7568  1.3803
  681MOL0     C93869  10.701   4.004   6.381 -0.1336 -0.1010  0.3653
  681MOL0     C93870  10.822   3.999   6.463 -0.4049  0.2095  0.4997
  681MOL0     O93871  10.878   3.874   6.464 -0.3787 -0.5830  0.0357
  681MOL0     C93872  10.972   3.853   6.562 -0.9266  0.4793  0.2766
  681MOL0     C93873  10.949   3.768   6.666 -0.3808  0.8537  1.1543
  681MOL0     C93874  11.053   3.716   6.734 -0.7153  0.1202  0.2789
  681MOL0     C93875  11.189   3.749   6.711  0.3254 -0.8951  0.3830
  681MOL0     O93876  11.300   3.719   6.793  0.0055  0.2361  0.0897
  681MOL0     C93877  11.312   3.583   6.843 -0.1425  0.5331 -0.3509
  681MOL0     C93878  11.420   3.587   6.957  0.7368 -0.2243 -0.6596
  681MOL0     C93879  11.569   3.591   6.908  0.3184 -0.0126  0.1359
  681MOL0     C93880  11.660   3.567   7.026 -0.1376  0.8389 -0.1235
  681MOL0     C93881  11.801   3.598   7.001 -0.5638  0.1012 -0.1008
  681MOL0     C93882  11.903   3.528   7.099 -0.7125  0.6080 -0.8909
  681MOL0     C93883  12.044   3.613   7.108  0.1820  0.3245 -0.4095
  681MOL0     C93884  12.158   3.536   7.181  0.6513 -0.6818  0.1969
  681MOL0    Cl93885  12.120   3.508   7.347  0.2677 -0.4969  0.2516
  681MOL0     C93886  11.222   3.837   6.606  0.0527  1.1720  0.5361
  681MOL0     C93887  11.111   3.876   6.526  1.0870 -1.1527  0.2164
  681MOL0     O93888  10.861   4.102   6.525  0.2620  0.4253  0.3573
  681MOL0     C93889  10.695   4.113   6.285 -0.5655  0.6895  0.0666
  681MOL0     C93890  10.582   4.123   6.203  0.8601  0.3163  0.6031
  681MOL0     N93891  10.086   4.451   6.019 -0.2429  0.4195 -1.2474
  681MOL0     N93892  10.124   4.561   5.958 -0.5532  0.2132 -1.1275
  681MOL0     C93893  10.031   5.308   4.917  0.8612  0.4500 -0.4666
  681MOL0     C93894   9.925   5.317   4.827 -0.9302  0.2853 -0.3052
  681MOL0     C93895   9.698   5.313   4.457  0.6825  0.9065 -0.6618
  681MOL0     C93896   9.579   5.343   4.521 -0.7077 -0.6058 -0.4746
  681MOL0     C93897   9.466   5.392   4.450 -0.2718  0.6017 -0.0636
  681MOL0     C93898   9.479   5.426   4.321 -0.8544  0.2620  0.2757
  681MOL0     O93899   9.372   5.478   4.249  0.0136  0.0733  0.2685
  681MOL0     C93900   9.251   5.400   4.250  0.2406 -0.4451 -0.2383
  681MOL0     C93901   9.241   5.308   4.135  0.0064  0.0289  0.7192
  681MOL0     C93902   9.088   5.286   4.087  0.0319 -0.4477 -0.5896
  681MOL0     C93903   9.012   5.169   4.148  0.4202 -0.8117 -0.2406
  681MOL0     C93904   8.969   5.192   4.293 -0.1675  0.3672  0.0373
  681MOL0     C93905   8.923   5.223   4.402  0.5135  0.4957  0.3660
  681MOL0     C93906   9.602   5.404   4.255  0.2562  0.8239  0.6171
  681MOL0     C93907   9.714   5.343   4.320 -0.3417 -0.6846  0.9295
  681MOL0     C93908   9.832   5.301   4.228 -0.0513  0.3034 -0.2765
  681MOL0     H93909   9.933   4.997   4.699 -3.9549 -0.1602  1.2923
  681MOL0     H93910  10.121   4.982   4.856 -1.5686 -2.2012 -0.9572
  681MOL0     H93911  10.227   5.092   5.218  1.9704  1.8055 -1.0057
  681MOL0     H93912  10.193   4.960   5.092 -0.9310  0.2172  0.1111
  681MOL0     H93913   9.995   5.162   5.201 -0.8996 -0.4357 -0.0843
  681MOL0     H93914   9.969   5.023   5.092  0.1417  0.0064 -0.1691
  681MOL0     H93915   9.978   5.059   5.378 -2.1296 -1.4665  2.7494
  681MOL0     H93916   9.887   4.935   5.297  0.7077 -0.9064 -1.8869
  681MOL0     H93917  10.108   4.813   5.256 -0.5409 -0.5597 -0.3802
  681MOL0     H93918  10.172   4.921   5.364 -0.4984  1.2567 -0.4223
  681MOL0     H93919  10.093   4.702   5.460 -0.1363 -0.6222  2.2868
  681MOL0     H93920   9.931   4.771   5.469 -0.1521  0.2671 -0.3044
  681MOL0     H93921  10.198   4.888   5.595  0.3206 -1.1931  1.5302
  681MOL0     H93922  10.034   4.964   5.605 -0.3108 -1.2004  3.6356
  681MOL0     H93923   9.951   4.774   5.747 -0.3488  1.2382  0.1170
  681MOL0     H93924  10.097   4.839   5.803  2.7985 -1.3661 -0.0297
  681MOL0     H93925  10.099   4.584   5.627  0.3796 -0.4197  0.5988
  681MOL0     H93926  10.227   4.648   5.733 -0.3777  2.2330 -0.7829
  681MOL0     H93927  10.029   4.366   5.707  1.9987 -4.7679  2.3455
  681MOL0     H93928   9.984   4.155   5.873 -0.0069  2.0206 -1.1808
  681MOL0     H93929   9.927   4.196   6.033  1.6514  0.1957  2.6323
  681MOL0     H93930  10.221   4.169   5.948  1.2285  0.9885  0.0910
  681MOL0     H93931  10.155   4.206   6.124 -0.4643 -2.3061  0.8530
  681MOL0     H93932  10.043   3.980   6.078  0.1155  2.0152  3.4388
  681MOL0     H93933  10.168   3.968   5.938  2.2623  1.2035 -0.0594
  681MOL0     H93934  10.228   4.015   6.242 -2.4870 -3.4183  1.5860
  681MOL0     H93935  10.256   3.874   6.142  1.4423  0.2832 -0.3151
  681MOL0     H93936  10.419   3.839   6.303 -0.1870  1.1111  0.9367
  681MOL0     H93937  10.686   3.755   6.507  3.0943  3.2207 -2.4869
  681MOL0     H93938  10.525   3.717   6.449  0.6975 -0.5814  0.0283
  681MOL0     H93939  10.533   3.832   6.575 -2.1611  0.3990 -0.3799
  681MOL0     H93940  10.846   3.742   6.689 -0.7003  1.4694  0.4539
  681MOL0     H93941  11.018   3.646   6.810  2.4860  0.5692  2.3888
  681MOL0     H93942  11.215   3.553   6.882 -2.5572  1.3042 -5.0287
  681MOL0     H93943  11.341   3.509   6.767 -1.6055 -0.4639  0.0183
  681MOL0     H93944  11.397   3.681   7.008 -0.7374  1.1483 -3.5779
  681MOL0     H93945  11.403   3.510   7.032 -1.7688 -0.7009 -1.6056
  681MOL0     H93946  11.593   3.692   6.873 -2.8355  0.4350 -1.0879
  681MOL0     H93947  11.576   3.529   6.817 -0.3446  2.0583 -1.4010
  681MOL0     H93948  11.646   3.461   7.049  1.8344 -0.3387 -3.5490
  681MOL0     H93949  11.635   3.615   7.122  3.1304  2.7716 -0.0822
  681MOL0     H93950  11.809   3.569   6.896 -4.5980  2.6443 -1.3613
  681MOL0     H93951  11.817   3.705   7.013  1.9860 -0.0798 -1.2662
  681MOL0     H93952  11.925   3.425   7.068  1.5997 -0.0386  2.3558
  681MOL0     H93953  11.865   3.523   7.202  0.3715 -0.4176 -0.5125
  681MOL0     H93954  12.024   3.712   7.151 -2.3969 -0.6151  0.7820
  681MOL0     H93955  12.085   3.635   7.009  1.5714  0.6679  0.2221
  681MOL0     H93956  12.243   3.604   7.176 -0.9174  1.5561  2.0759
  681MOL0     H93957  12.188   3.443   7.132 -1.7973 -1.6513  0.4109
  681MOL0     H93958  11.326   3.862   6.589  0.2394 -0.5284 -1.1509
  681MOL0     H93959  11.133   3.941   6.442 -3.1750  1.6681  0.9335
  681MOL0     H93960  10.756   4.202   6.290  0.3478  0.4440 -3.4723
  681MOL0     H93961  10.573   4.211   6.140 -0.9338 -0.6855 -0.6260
  681MOL0     H93962  10.047   5.386   4.992  0.9637  0.3464 -0.3797
  681MOL0     H93963   9.857   5.401   4.827  1.1657  2.1758 -3.5233
  681MOL0     H93964   9.561   5.324   4.627  1.9602  0.4091  0.2384
  681MOL0     H93965   9.368   5.406   4.492 -0.6150  0.3834 -0.7762
  681MOL0     H93966   9.224   5.340   4.338  0.4503 -1.8425 -1.0950
  681MOL0     H93967   9.172   5.470   4.222  0.8215 -1.0676 -3.9693
  681MOL0     H93968   9.265   5.204   4.162 -1.3945 -0.1785  1.2500
  681MOL0     H93969   9.302   5.345   4.052  0.4427  1.7987  1.7825
  681MOL0     H93970   9.025   5.375   4.085 -2.1266 -1.8839 -2.2970
  681MOL0     H93971   9.104   5.261   3.981  1.5138 -1.2415 -0.2023
  681MOL0     H93972   9.064   5.074   4.130  4.6291  1.3747 -0.8448
  681MOL0     H93973   8.920   5.154   4.090 -2.6752  0.3135  3.8814
  681MOL0     H93974   8.880   5.266   4.490  0.1598 -3.1512  2.1323
  681MOL0     H93975   9.599   5.422   4.148 -0.4986  2.1435  0.8454
  681MOL0     H93976   9.799   5.336   4.129 -0.3439 -1.6163 -0.8913
  681MOL0     H93977   9.915   5.362   4.264 -1.1549  1.7158 -0.0121
  681MOL0     H93978   9.862   5.196   4.224 -0.5590  0.1703 -1.0229
  682MOL0     O93979  10.477   0.012   0.181  0.5762 -0.4913 -0.3216
  682MOL0     C93980  10.529   0.121   0.159  0.0725  0.5277  0.3265
  682MOL0     O93981  10.596   0.187   0.260  0.2464  0.2762  0.2089
  682MOL0     C93982  10.570   0.158   0.388 -1.1873 -1.2866 -0.7026
  682MOL0     C93983  10.488   0.238   0.454  1.1135  0.0558  0.2568
  682MOL0     C93984  10.458   0.214   0.587  0.2631  0.9472  0.3048
  682MOL0     C93985  10.501   0.096   0.652  0.1509 -0.3358  1.3896
  682MOL0     O93986  10.443   0.068   0.772  0.0730  0.7095 -0.4279
  682MOL0     C93987  10.448   0.172   0.871  0.1287 -0.3841  0.5042
  682MOL0     C93988  10.528   0.124   0.984 -0.2485  0.4994 -0.7876
  682MOL0     C93989  10.686   0.142   0.977  0.2204 -0.4846  0.0781
  682MOL0     C93990  10.718   0.294   0.989 -0.8480  1.8459 -0.0013
  682MOL0     C93991  10.869   0.308   0.952  0.0996  0.1840 -0.4627
  682MOL0     C93992  10.913   0.457   0.967 -0.7251  0.5913 -0.3609
  682MOL0     C93993  11.056   0.486   0.936  0.7624  0.1685  0.2664
  682MOL0     C93994  11.113   0.416   0.811 -0.4195 -0.3782 -0.5588
  682MOL0     N93995  11.062   0.482   0.695 -0.4965  0.2857 -0.5271
  682MOL0     C93996  11.139   0.584   0.636 -0.2468  0.6438  0.3118
  682MOL0     C93997  11.051   0.643   0.553  0.0892  0.6201  1.0005
  682MOL0     C93998  11.080   0.756   0.450  0.3899 -0.8884  0.3904
  682MOL0     C93999  11.033   0.889   0.514  0.5228  0.1555 -0.5681
  682MOL0     C94000  11.124   0.940   0.630  0.2503 -0.9181 -0.4172
  682MOL0     C94001  11.249   1.007   0.587 -0.2911  0.2714  0.4936
  682MOL0     O94002  11.362   0.917   0.577  0.6981 -0.5526  0.6345
  682MOL0     C94003  11.391   0.839   0.681 -1.3189  0.6308 -0.3000
  682MOL0     C94004  11.363   0.862   0.815  0.0790  0.0781  0.5515
  682MOL0     C94005  11.418   0.776   0.910  0.1275  0.7235 -0.1826
  682MOL0     C94006  11.391   0.809   1.058 -0.2411 -1.0285  0.6825
  682MOL0     C94007  11.506   0.667   0.881  0.0987 -0.2185  0.7316
  682MOL0     C94008  11.580   0.577   0.968  0.0648  1.0415 -0.2034
  682MOL0     O94009  11.555   0.447   0.948  0.0038 -0.1770 -0.5591
  682MOL0     C94010  11.660   0.373   0.986  0.0960 -0.0597  0.2922
  682MOL0     C94011  11.779   0.379   0.900 -0.2150 -0.0542  0.6717
  682MOL0     C94012  11.894   0.315   0.947  0.6181  0.7007  0.0634
  682MOL0     C94013  11.908   0.247   1.070  0.6111 -0.3093 -0.6860
  682MOL0     O94014  12.035   0.202   1.118 -0.2180  0.4065 -0.5953
  682MOL0     C94015  12.037   0.105   1.223 -0.0262  1.1607 -0.1260
  682MOL0     C94016  12.160   0.017   1.227 -0.6699 -0.3255  0.3791
  682MOL0     C94017  12.151  -0.100   1.328 -0.4284 -0.6125 -0.6826
  682MOL0     C94018  12.281  -0.164   1.379  0.2568  0.9743  0.4015
  682MOL0     C94019  12.335  -0.285   1.289 -0.5450  0.3302 -0.3310
  682MOL0     C94020  12.235  -0.405   1.283 -0.6445 -0.3661 -0.9779
  682MOL0     C94021  12.286  -0.514   1.193 -0.0715 -0.2604 -0.2605
  682MOL0     C94022  12.209  -0.639   1.220 -0.4059 -1.2241  0.7272
  682MOL0    Cl94023  12.264  -0.779   1.123  0.5573 -0.2474  0.5294
  682MOL0     C94024  11.790   0.241   1.148 -0.4090  0.7412  0.1898
  682MOL0     C94025  11.670   0.308   1.106  0.6988  0.1347  0.1685
  682MOL0     O94026  11.654   0.626   1.056 -1.4794 -0.7767 -0.1121
  682MOL0     C94027  11.534   0.659   0.748 -0.0053  1.4383  0.4330
  682MOL0     C94028  11.486   0.742   0.649  0.6788  0.2851 -0.0720
  682MOL0     N94029  10.924   0.594   0.577 -0.2318 -0.0739  0.2419
  682MOL0     N94030  10.934   0.498   0.663  0.1373 -0.1061  0.8033
  682MOL0     C94031  10.593   0.017   0.585 -0.2249 -0.4102  0.5247
  682MOL0     C94032  10.633   0.055   0.456 -0.5576 -0.3994 -0.0324
  682MOL0     C94033  10.518   0.191   0.028 -0.0549  0.9809 -0.9324
  682MOL0     C94034  10.536   0.328   0.026 -0.7352 -0.5592 -0.1527
  682MOL0     C94035  10.539   0.414  -0.081 -0.0746  0.2392  1.1984
  682MOL0     C94036  10.496   0.354  -0.204  1.4171  0.0096 -0.3658
  682MOL0     O94037  10.500   0.425  -0.315 -0.3904  0.1325 -0.4032
  682MOL0     C94038  10.598   0.406  -0.415 -0.1310 -1.0011 -0.2738
  682MOL0     C94039  10.571   0.513  -0.520 -0.3407 -0.3483 -0.2937
  682MOL0     C94040  10.630   0.638  -0.458  0.8458  0.0364 -0.6701
  682MOL0     C94041  10.583   0.755  -0.543 -0.1466 -0.8153 -0.2169
  682MOL0     C94042  10.587   0.882  -0.461 -0.7816  0.8308 -1.4532
  682MOL0     C94043  10.583   0.973  -0.370  0.2517 -0.1925 -0.5787
  682MOL0     C94044  10.469   0.215  -0.213  0.3156  0.4976 -0.1291
  682MOL0     C94045  10.481   0.131  -0.095 -0.5499  0.6147 -0.1894
  682MOL0     C94046  10.458  -0.016  -0.117 -0.0287  0.9255 -0.7330
  682MOL0     H94047  10.456   0.338   0.426 -0.5734 -0.0872  1.4915
  682MOL0     H94048  10.385   0.279   0.634 -1.1092  0.8981 -1.6158
  682MOL0     H94049  10.354   0.207   0.916 -1.5546  1.3281 -3.8492
  682MOL0     H94050  10.490   0.268   0.841 -2.7877  0.7887 -0.1256
  682MOL0     H94051  10.505   0.177   1.077 -1.4331  1.3929 -1.5567
  682MOL0     H94052  10.519   0.015   0.983  0.1402  0.3744  1.9599
  682MOL0     H94053  10.742   0.086   1.053 -0.7894 -2.4750 -0.5810
  682MOL0     H94054  10.711   0.103   0.878 -2.6344 -4.2793  0.6598
  682MOL0     H94055  10.672   0.361   0.916 -1.6554  3.3864  1.8366
  682MOL0     H94056  10.690   0.332   1.087 -2.5077  0.2100  0.2125
  682MOL0     H94057  10.875   0.275   0.847 -2.2198  0.4708 -0.7487
  682MOL0     H94058  10.930   0.249   1.021  0.4064  1.1380  0.0971
  682MOL0     H94059  10.844   0.514   0.904 -1.6004 -0.2597 -0.1855
  682MOL0     H94060  10.889   0.487   1.069  0.3321  1.3986 -0.3282
  682MOL0     H94061  11.127   0.460   1.015  2.1075  2.6912 -0.0188
  682MOL0     H94062  11.064   0.594   0.928  0.9349  0.2123  0.9738
  682MOL0     H94063  11.222   0.424   0.809  0.2833 -6.2045 -1.7475
  682MOL0     H94064  11.095   0.309   0.815  0.2324 -0.4737  1.7379
  682MOL0     H94065  11.242   0.615   0.651 -0.6198  2.6884 -0.9048
  682MOL0     H94066  11.023   0.748   0.357  1.0478  2.3606 -0.4131
  682MOL0     H94067  11.186   0.765   0.426 -0.1492  2.4257 -1.2941
  682MOL0     H94068  11.018   0.965   0.436 -0.1167  0.1054 -0.4966
  682MOL0     H94069  10.933   0.882   0.557  1.1204  0.0645  0.8774
  682MOL0     H94070  11.082   1.031   0.676 -1.3239 -2.1015  0.5736
  682MOL0     H94071  11.128   0.861   0.705  0.3537 -1.6364 -1.1710
  682MOL0     H94072  11.224   1.065   0.499  2.4264  3.2429  1.4871
  682MOL0     H94073  11.280   1.077   0.666  5.0695 -1.8670  0.7135
  682MOL0     H94074  11.316   0.952   0.851  1.2303  0.5790  0.8567
  682MOL0     H94075  11.427   0.724   1.116  3.0219 -2.7056 -3.2965
  682MOL0     H94076  11.287   0.838   1.078  0.6986  0.9734  3.1723
  682MOL0     H94077  11.459   0.887   1.092 -2.8699 -0.4496  5.6036
  682MOL0     H94078  11.776   0.438   0.809  2.0113 -0.8811  0.0030
  682MOL0     H94079  11.989   0.304   0.896  0.5554 -1.0500  0.2847
  682MOL0     H94080  12.011   0.143   1.322  0.7584 -0.9336  0.9613
  682MOL0     H94081  11.961   0.032   1.192  1.7105 -1.1772  0.7743
  682MOL0     H94082  12.194  -0.017   1.129 -0.7727 -0.4852  0.3979
  682MOL0     H94083  12.241   0.079   1.264 -1.0567  1.3655 -1.4492
  682MOL0     H94084  12.074  -0.169   1.291  1.4112 -2.2008 -1.6885
  682MOL0     H94085  12.116  -0.067   1.426  1.9468 -0.8964  0.3173
  682MOL0     H94086  12.256  -0.214   1.474  4.0853 -2.1674  0.0170
  682MOL0     H94087  12.361  -0.095   1.405  0.2483  0.6993  1.1894
  682MOL0     H94088  12.337  -0.252   1.185 -0.3913 -3.8741 -1.8655
  682MOL0     H94089  12.441  -0.304   1.309 -0.2460  3.7207  2.1659
  682MOL0     H94090  12.139  -0.361   1.253  0.0207  1.8920  0.0104
  682MOL0     H94091  12.229  -0.435   1.388 -2.2283 -2.0471 -1.4945
  682MOL0     H94092  12.394  -0.533   1.191  0.0920  0.6386 -2.2000
  682MOL0     H94093  12.262  -0.479   1.092  3.0979  1.8554 -0.4265
  682MOL0     H94094  12.104  -0.619   1.198  0.4446  0.1866 -2.6462
  682MOL0     H94095  12.217  -0.656   1.328  1.5702 -0.9825  0.6603
  682MOL0     H94096  11.799   0.196   1.246  0.0732  3.9561  1.7556
  682MOL0     H94097  11.584   0.309   1.172  0.0844  1.1483 -0.6289
  682MOL0     H94098  11.595   0.575   0.717 -1.2618  0.6087  0.1668
  682MOL0     H94099  11.517   0.713   0.549  3.0081 -0.1226  0.6913
  682MOL0     H94100  10.634  -0.081   0.608 -1.2556 -1.0381 -0.2581
  682MOL0     H94101  10.693  -0.009   0.391 -1.6105 -1.5412  0.0804
  682MOL0     H94102  10.583   0.368   0.115  1.4887 -1.4088 -0.8762
  682MOL0     H94103  10.558   0.520  -0.072 -0.7407  0.7706 -2.1860
  682MOL0     H94104  10.700   0.410  -0.378 -0.2025  0.1761 -0.1570
  682MOL0     H94105  10.580   0.310  -0.464 -1.5584 -0.8222 -0.1453
  682MOL0     H94106  10.464   0.516  -0.542  0.3644  1.0766 -4.4649
  682MOL0     H94107  10.630   0.483  -0.608  0.3989 -0.4895  0.2398
  682MOL0     H94108  10.596   0.656  -0.356  1.5572  2.4032 -0.7859
  682MOL0     H94109  10.739   0.631  -0.458  0.9842  0.6121  2.6731
  682MOL0     H94110  10.478   0.744  -0.572 -0.0615 -1.2205 -0.3848
  682MOL0     H94111  10.646   0.774  -0.630 -0.4728 -5.5354 -1.7475
  682MOL0     H94112  10.584   1.040  -0.286  1.5015  1.2533 -1.6832
  682MOL0     H94113  10.447   0.171  -0.310 -0.4770  0.4477  0.0684
  682MOL0     H94114  10.378  -0.042  -0.048  0.7214 -3.1732 -1.1673
  682MOL0     H94115  10.442  -0.051  -0.219  0.0898  0.7184 -0.6816
  682MOL0     H94116  10.547  -0.069  -0.084  1.5600  2.4929 -2.2131
  683MOL0     O94117   7.296   9.995   0.097 -0.5788  0.3481  0.4651
  683MOL0     C94118   7.414   9.960   0.084 -0.2786  0.2408  0.9720
  683MOL0     O94119   7.512   9.958   0.179 -0.6777  0.3444 -0.2377
  683MOL0     C94120   7.486  10.033   0.300  0.9436  0.3200  0.2495
  683MOL0     C94121   7.475  10.167   0.299 -1.5459 -0.2682 -0.2601
  683MOL0     C94122   7.450  10.231   0.414 -0.1011  0.2987 -0.1060
  683MOL0     C94123   7.440  10.168   0.541  0.6178  0.5932 -0.0079
  683MOL0     O94124   7.409  10.241   0.646 -0.1335 -0.0242  0.3357
  683MOL0     C94125   7.446  10.207   0.781  0.4401 -0.0381  0.8985
  683MOL0     C94126   7.411  10.316   0.878 -0.5431 -0.4550 -0.5612
  683MOL0     C94127   7.419  10.272   1.019  1.0149 -0.3005  0.3830
  683MOL0     C94128   7.388  10.375   1.132  0.7193 -0.0808  0.7109
  683MOL0     C94129   7.400  10.301   1.265  1.0686 -0.0307 -0.4348
  683MOL0     C94130   7.404  10.402   1.379  0.2643  0.2060 -0.2884
  683MOL0     C94131   7.284  10.489   1.394  0.9371 -0.1169 -0.3372
  683MOL0     C94132   7.144  10.424   1.440 -0.4866  0.1581  0.1034
  683MOL0     N94133   7.152  10.346   1.566  0.5230 -0.1028  0.7399
  683MOL0     C94134   7.098  10.382   1.687  0.1036  0.0435  0.6379
  683MOL0     C94135   7.135  10.289   1.776 -0.1132  0.3991  0.7151
  683MOL0     C94136   7.089  10.283   1.912  0.8686 -0.3996 -0.1557
  683MOL0     C94137   7.201  10.307   2.019  0.2542  0.0847 -0.1729
  683MOL0     C94138   7.143  10.361   2.151  0.0454  0.5411 -0.3137
  683MOL0     C94139   7.109  10.505   2.145  0.6444 -0.0083  0.3761
  683MOL0     O94140   7.208  10.605   2.197 -0.0560  1.0538 -0.1183
  683MOL0     C94141   7.200  10.607   2.333 -0.5454  0.1616 -0.8002
  683MOL0     C94142   7.089  10.646   2.409  1.1920 -0.5655 -0.5789
  683MOL0     C94143   7.085  10.659   2.553  0.6226  0.2958 -0.6362
  683MOL0     C94144   6.959  10.709   2.605 -0.0454 -0.1928 -1.1194
  683MOL0     C94145   7.196  10.614   2.625  0.3396  0.5919 -1.0560
  683MOL0     C94146   7.192  10.603   2.775 -0.0678  0.4304 -0.4403
  683MOL0     O94147   7.146  10.699   2.852  0.3121 -0.2032  0.2972
  683MOL0     C94148   7.211  10.729   2.972  0.7039 -0.2448 -0.5565
  683MOL0     C94149   7.336  10.692   3.021  0.9730  0.2531 -0.2935
  683MOL0     C94150   7.386  10.753   3.147 -0.5692  0.6226  0.7205
  683MOL0     C94151   7.316  10.851   3.213 -0.0894  0.3951 -1.3189
  683MOL0     O94152   7.360  10.916   3.321  0.1000  0.6576  0.0461
  683MOL0     C94153   7.382  11.061   3.301 -0.2543 -0.0339 -0.3590
  683MOL0     C94154   7.478  11.117   3.399  0.1842 -0.4297 -0.7451
  683MOL0     C94155   7.498  11.270   3.378 -0.2335  0.4976 -0.9570
  683MOL0     C94156   7.392  11.361   3.447  0.0791 -0.0915  0.3205
  683MOL0     C94157   7.426  11.512   3.446 -0.3329  0.1896  0.0231
  683MOL0     C94158   7.538  11.549   3.551  0.5130 -0.0375  0.1272
  683MOL0     C94159   7.491  11.568   3.690 -0.3699  0.4323  0.1465
  683MOL0     C94160   7.583  11.648   3.775 -0.7311  0.0905  0.1776
  683MOL0    Cl94161   7.535  11.633   3.952  0.0144  0.0037  0.0025
  683MOL0     C94162   7.188  10.863   3.185  0.6432  0.7548 -0.7599
  683MOL0     C94163   7.134  10.805   3.067 -0.0961 -1.0236 -0.6419
  683MOL0     O94164   7.229  10.495   2.815  0.8269 -0.6300  0.2312
  683MOL0     C94165   7.312  10.571   2.550  0.2980 -0.0755 -0.8531
  683MOL0     C94166   7.311  10.568   2.410  0.5333  0.9423 -0.3497
  683MOL0     N94167   7.217  10.196   1.712  0.0587  0.4554  0.3354
  683MOL0     N94168   7.228  10.232   1.580 -0.0572  0.4871 -0.5549
  683MOL0     C94169   7.453  10.030   0.538 -0.3595  0.1743  0.0654
  683MOL0     C94170   7.471   9.971   0.419 -0.3341  0.6415 -0.4347
  683MOL0     C94171   7.444   9.902  -0.043  0.3165 -0.2194 -0.3741
  683MOL0     C94172   7.432   9.991  -0.158 -0.3674 -0.4140 -1.3580
  683MOL0     C94173   7.440   9.930  -0.281  0.8589 -1.0679 -0.1022
  683MOL0     C94174   7.487   9.795  -0.293  0.4469  0.1373  1.1843
  683MOL0     O94175   7.497   9.743  -0.420  0.0081 -0.3704  0.0796
  683MOL0     C94176   7.568   9.817  -0.521  0.4690  0.3842  0.5769
  683MOL0     C94177   7.713   9.820  -0.465  0.5995 -0.0967  1.2389
  683MOL0     C94178   7.803   9.858  -0.573 -0.0080  0.0746 -0.4054
  683MOL0     C94179   7.946   9.868  -0.528  0.7760 -0.0046 -1.1107
  683MOL0     C94180   8.043   9.852  -0.637  0.1010  0.7456 -1.0922
  683MOL0     C94181   8.114   9.847  -0.733  0.4391 -0.5094  0.1522
  683MOL0     C94182   7.501   9.713  -0.185 -0.3693 -0.3891 -0.8397
  683MOL0     C94183   7.493   9.770  -0.061  0.3684  0.8101 -0.0255
  683MOL0     C94184   7.528   9.689   0.064  0.3093 -0.1681  0.3644
  683MOL0     H94185   7.491  10.233   0.215 -0.3461  0.0133  0.1686
  683MOL0     H94186   7.433  10.339   0.417  2.9094  0.8307  1.1943
  683MOL0     H94187   7.549  10.172   0.782  0.6102  0.3899 -0.2627
  683MOL0     H94188   7.392  10.124   0.827  3.6981 -0.5880  4.1723
  683MOL0     H94189   7.472  10.407   0.876 -2.3680  1.0573  3.2737
  683MOL0     H94190   7.306  10.339   0.856 -1.2631  0.7557  3.3058
  683MOL0     H94191   7.357  10.183   1.032 -0.7686  0.3951 -2.3920
  683MOL0     H94192   7.523  10.241   1.034  1.3291  1.8672  3.6699
  683MOL0     H94193   7.463  10.453   1.115 -1.7010  1.9413 -1.5989
  683MOL0     H94194   7.286  10.410   1.114 -0.1827 -3.1213 -0.6315
  683MOL0     H94195   7.473  10.220   1.275  4.2965  2.8764  1.7823
  683MOL0     H94196   7.308  10.242   1.275  1.5950 -0.6328  1.0664
  683MOL0     H94197   7.404  10.335   1.466 -0.0486  0.9943  0.3365
  683MOL0     H94198   7.498  10.458   1.385 -0.2195  0.9445  0.6221
  683MOL0     H94199   7.269  10.545   1.301  1.1171  1.1956  0.3956
  683MOL0     H94200   7.312  10.562   1.472  3.4163 -2.1222  0.7962
  683MOL0     H94201   7.072  10.506   1.443  0.0204  0.5982  0.5858
  683MOL0     H94202   7.094  10.373   1.358 -2.0780  3.2652 -1.0290
  683MOL0     H94203   7.041  10.470   1.715  1.4086  1.2974 -0.4770
  683MOL0     H94204   7.043  10.184   1.919 -1.1547  0.5532  0.8496
  683MOL0     H94205   7.018  10.366   1.915  1.8698  0.5377 -1.2597
  683MOL0     H94206   7.250  10.213   2.044 -1.2814  0.1574  3.6982
  683MOL0     H94207   7.278  10.377   1.984  0.6824  0.6582  1.7712
  683MOL0     H94208   7.053  10.304   2.176  0.1399  1.4016  2.2461
  683MOL0     H94209   7.209  10.342   2.236 -1.0921  1.9022  0.9269
  683MOL0     H94210   7.094  10.526   2.039 -2.6567 -1.6831  0.3700
  683MOL0     H94211   7.019  10.503   2.208  0.9406 -0.2846  0.7963
  683MOL0     H94212   7.003  10.662   2.344  0.4637 -2.2261 -0.0743
  683MOL0     H94213   6.977  10.800   2.663 -0.1026  0.9161 -2.7768
  683MOL0     H94214   6.906  10.631   2.662  1.9013 -2.8235 -2.6889
  683MOL0     H94215   6.893  10.737   2.522  0.3689 -1.1166 -1.7783
  683MOL0     H94216   7.399  10.625   2.964  1.8112  0.8300 -0.0587
  683MOL0     H94217   7.483  10.727   3.187  0.1751  2.3207  0.1147
  683MOL0     H94218   7.410  11.079   3.197  2.3254 -0.3142  0.2329
  683MOL0     H94219   7.284  11.110   3.304 -0.2789 -0.0376 -0.9560
  683MOL0     H94220   7.431  11.101   3.496 -0.2641 -1.0083 -1.0457
  683MOL0     H94221   7.573  11.063   3.399  1.2240  1.2845  0.6449
  683MOL0     H94222   7.499  11.291   3.270  0.9027  1.4542 -0.7861
  683MOL0     H94223   7.601  11.289   3.410 -1.0272  0.1190  2.1325
  683MOL0     H94224   7.382  11.315   3.546  2.1324  0.6809  0.9492
  683MOL0     H94225   7.299  11.341   3.394  0.5425 -1.4329 -0.0305
  683MOL0     H94226   7.447  11.530   3.341 -3.0537 -1.2875 -0.8790
  683MOL0     H94227   7.337  11.573   3.468 -0.7287 -0.0500 -0.8915
  683MOL0     H94228   7.586  11.646   3.535  1.3829 -0.4752  0.0624
  683MOL0     H94229   7.615  11.471   3.548  0.4508 -0.0773 -1.1844
  683MOL0     H94230   7.489  11.466   3.728 -0.9467  0.8850  1.3988
  683MOL0     H94231   7.387  11.601   3.702 -0.2809  1.5300 -1.6301
  683MOL0     H94232   7.574  11.751   3.740 -5.8782 -1.4454 -4.4395
  683MOL0     H94233   7.686  11.611   3.770 -0.3000  1.4150 -2.4203
  683MOL0     H94234   7.136  10.942   3.238  3.6026 -0.2168  4.2493
  683MOL0     H94235   7.040  10.850   3.035 -0.1703 -0.8924 -0.2455
  683MOL0     H94236   7.398  10.541   2.608 -0.8198 -0.0739  0.8474
  683MOL0     H94237   7.399  10.529   2.359  0.3545 -2.0682  1.4364
  683MOL0     H94238   7.451   9.961   0.621 -2.1631 -0.3432 -0.3739
  683MOL0     H94239   7.497   9.866   0.412  1.5664  1.0327  0.1381
  683MOL0     H94240   7.423  10.098  -0.141  4.7713 -0.2732  3.4515
  683MOL0     H94241   7.437   9.988  -0.372  0.3468 -3.2961 -1.5918
  683MOL0     H94242   7.553   9.759  -0.612 -0.2844 -1.7421  1.9715
  683MOL0     H94243   7.528   9.918  -0.534 -2.4065 -0.5513  1.4684
  683MOL0     H94244   7.742   9.727  -0.416  1.5149 -0.9681 -0.8219
  683MOL0     H94245   7.713   9.903  -0.394 -2.3396  0.5167  0.6646
  683MOL0     H94246   7.807   9.778  -0.648  0.5358  0.0486 -0.3515
  683MOL0     H94247   7.765   9.951  -0.615 -2.6125 -0.5711  0.3109
  683MOL0     H94248   7.976   9.786  -0.461  2.5759  1.4129 -0.0781
  683MOL0     H94249   7.968   9.957  -0.469  3.9169 -1.2851 -0.1106
  683MOL0     H94250   8.186   9.865  -0.811 -0.3922  1.3541 -0.2391
  683MOL0     H94251   7.510   9.606  -0.199  0.7204 -0.8414  2.3371
  683MOL0     H94252   7.440   9.699   0.129  0.1010  2.6581 -0.2161
  683MOL0     H94253   7.543   9.581   0.059  0.5010 -0.0931 -0.8309
  683MOL0     H94254   7.616   9.737   0.109  1.1302 -2.8591  1.8719
  684MOL0     O94255   2.758   2.441   2.922  0.8317 -0.2552 -0.3434
  684MOL0     C94256   2.776   2.320   2.938 -0.4842  0.0668  0.7016
  684MOL0     O94257   2.711   2.219   2.863  0.9614 -0.0135 -0.1560
  684MOL0     C94258   2.623   2.252   2.766  0.5994  0.0390  0.5056
  684MOL0     C94259   2.648   2.220   2.632 -0.6667 -0.1928 -0.1309
  684MOL0     C94260   2.565   2.256   2.523 -1.2336 -0.9523  0.2751
  684MOL0     C94261   2.448   2.332   2.553  0.3803 -0.7515  0.5819
  684MOL0     O94262   2.369   2.362   2.440 -0.0812  0.7741  0.6627
  684MOL0     C94263   2.329   2.498   2.425  0.9769  0.4370  0.4718
  684MOL0     C94264   2.289   2.546   2.289 -0.0612 -0.4508 -0.9308
  684MOL0     C94265   2.135   2.522   2.243 -0.1789 -0.8315 -0.7202
  684MOL0     C94266   2.043   2.634   2.302  0.1243 -0.0235  0.1760
  684MOL0     C94267   1.898   2.618   2.235 -0.9268  0.4653  0.0590
  684MOL0     C94268   1.885   2.706   2.107  0.0609  0.1262  0.6322
  684MOL0     C94269   1.753   2.685   2.035 -0.1365 -0.9954 -0.7233
  684MOL0     C94270   1.741   2.541   1.991 -0.3642  0.1394  0.2077
  684MOL0     N94271   1.644   2.536   1.883  0.4697  0.8283 -0.7411
  684MOL0     C94272   1.671   2.527   1.747 -0.4131 -0.5285 -0.8583
  684MOL0     C94273   1.547   2.534   1.687 -0.3653 -0.7247 -0.6050
  684MOL0     C94274   1.527   2.554   1.545 -0.3020  0.0504  0.1372
  684MOL0     C94275   1.557   2.428   1.466  0.5056 -0.1736 -0.2792
  684MOL0     C94276   1.481   2.450   1.330 -0.6732  0.4216 -0.1273
  684MOL0     C94277   1.507   2.317   1.247  1.0860 -0.9095 -0.4482
  684MOL0     O94278   1.644   2.333   1.216  0.5705  0.1260  0.1285
  684MOL0     C94279   1.691   2.236   1.132  0.7150 -0.6434  0.4934
  684MOL0     C94280   1.811   2.258   1.071  0.0339 -0.2228 -0.2879
  684MOL0     C94281   1.862   2.171   0.976  0.7325  0.4542 -0.2997
  684MOL0     C94282   1.985   2.214   0.898 -0.1421 -0.2895 -1.0155
  684MOL0     C94283   1.805   2.041   0.971  0.0287  0.2609 -0.2749
  684MOL0     C94284   1.868   1.937   0.871  0.5513  0.8002 -0.4894
  684MOL0     O94285   1.897   1.985   0.743  0.0879 -0.1400  0.1481
  684MOL0     C94286   1.972   1.912   0.655 -0.8810  0.0569  0.6974
  684MOL0     C94287   1.948   1.783   0.594 -0.0589 -0.6587  0.6513
  684MOL0     C94288   2.034   1.727   0.495  0.1623 -0.1508 -0.4203
  684MOL0     C94289   2.131   1.808   0.435  0.2094 -0.1012  0.1865
  684MOL0     O94290   2.198   1.751   0.326 -0.4252  0.7296 -0.4073
  684MOL0     C94291   2.236   1.847   0.221 -0.4484 -0.0648  0.9156
  684MOL0     C94292   2.283   1.752   0.111 -0.6291  0.3473  0.5338
  684MOL0     C94293   2.367   1.817  -0.009  0.3208 -0.3689 -0.9941
  684MOL0     C94294   2.482   1.913   0.037  0.0909 -0.6702  0.5588
  684MOL0     C94295   2.592   1.834   0.102  0.2483  0.0459  0.6737
  684MOL0     C94296   2.714   1.930   0.121 -0.2245  0.3330 -0.2363
  684MOL0     C94297   2.722   1.977   0.271  0.1429 -0.2213  0.5978
  684MOL0     C94298   2.862   2.043   0.291  0.3221 -1.1030  0.1086
  684MOL0    Cl94299   2.874   2.202   0.196 -0.2082  0.0072  0.1096
  684MOL0     C94300   2.156   1.927   0.493 -0.9163 -0.1374 -0.2148
  684MOL0     C94301   2.077   1.981   0.593 -0.3535 -0.5098  0.3274
  684MOL0     O94302   1.892   1.823   0.911  0.0898  0.2050 -0.7293
  684MOL0     C94303   1.681   2.013   1.031 -0.7472  0.3363 -0.3634
  684MOL0     C94304   1.634   2.114   1.118 -0.2920 -0.1905  0.4640
  684MOL0     N94305   1.450   2.535   1.786 -0.5154 -0.9112  0.4867
  684MOL0     N94306   1.509   2.533   1.902  0.7940 -0.3381  0.6553
  684MOL0     C94307   2.428   2.378   2.679 -0.1523  0.2565 -0.0014
  684MOL0     C94308   2.511   2.334   2.785  0.3276 -0.5136  0.2515
  684MOL0     C94309   2.850   2.266   3.055 -0.5399 -0.2469  0.0092
  684MOL0     C94310   2.925   2.146   3.033 -0.0278 -0.1246  0.0569
  684MOL0     C94311   3.007   2.100   3.128  0.3603  1.2602  0.6422
  684MOL0     C94312   3.021   2.163   3.253 -1.0340  0.5703 -1.2829
  684MOL0     O94313   3.098   2.104   3.351 -0.5577  0.0931 -0.0992
  684MOL0     C94314   3.141   2.174   3.467  0.2527 -1.1140  0.4480
  684MOL0     C94315   3.208   2.081   3.571 -0.5594 -0.7504 -0.0546
  684MOL0     C94316   3.313   1.982   3.519 -0.1228 -0.6417  0.0033
  684MOL0     C94317   3.439   2.047   3.458 -0.1500  0.4922  0.9504
  684MOL0     C94318   3.442   2.076   3.309  0.9732 -0.2191 -0.2869
  684MOL0     C94319   3.432   2.108   3.190 -0.6643  0.2910 -0.5965
  684MOL0     C94320   2.940   2.282   3.281  1.0092 -0.2004  0.0574
  684MOL0     C94321   2.854   2.332   3.181 -0.6446 -0.4238  0.0283
  684MOL0     C94322   2.768   2.446   3.223 -0.0722 -0.4496  0.2999
  684MOL0     H94323   2.744   2.170   2.617 -0.9159 -0.1429 -2.0964
  684MOL0     H94324   2.586   2.234   2.419  3.1915 -0.4505  0.8463
  684MOL0     H94325   2.415   2.563   2.442  1.1558  0.2997  0.1114
  684MOL0     H94326   2.258   2.528   2.502  1.6022 -1.0048  1.6550
  684MOL0     H94327   2.310   2.654   2.288 -2.7509  0.1816  0.3237
  684MOL0     H94328   2.354   2.484   2.227  0.7295 -2.1186  1.4412
  684MOL0     H94329   2.131   2.537   2.134  2.9483  1.2472 -0.6895
  684MOL0     H94330   2.109   2.419   2.270  1.7466 -1.4169 -0.9269
  684MOL0     H94331   2.031   2.632   2.411 -4.4962 -0.8625 -0.1044
  684MOL0     H94332   2.088   2.731   2.280  0.7422 -0.2304  0.5360
  684MOL0     H94333   1.819   2.647   2.304  1.2417 -0.9443  3.3889
  684MOL0     H94334   1.874   2.511   2.228 -3.1546  0.9496 -0.2537
  684MOL0     H94335   1.896   2.809   2.141  0.5080  0.0284  0.7984
  684MOL0     H94336   1.966   2.686   2.035  3.5873  5.0571  2.6684
  684MOL0     H94337   1.742   2.759   1.954 -3.1495 -1.1680 -0.5827
  684MOL0     H94338   1.676   2.698   2.111  0.1974 -2.2265 -0.1624
  684MOL0     H94339   1.835   2.503   1.949  0.3335  1.1266  0.8154
  684MOL0     H94340   1.711   2.490   2.083  0.6103  1.7594  1.4859
  684MOL0     H94341   1.770   2.514   1.703 -0.3051  1.4449 -1.2821
  684MOL0     H94342   1.588   2.640   1.519  1.4286 -1.2681 -0.3703
  684MOL0     H94343   1.421   2.579   1.544 -0.7779 -1.3515  2.9149
  684MOL0     H94344   1.666   2.420   1.458  0.9782  1.9292  2.6008
  684MOL0     H94345   1.512   2.340   1.513  1.6528 -0.1992  0.8109
  684MOL0     H94346   1.373   2.459   1.347 -0.8670  0.4400 -1.2900
  684MOL0     H94347   1.512   2.539   1.276 -3.1416  2.9013  2.1769
  684MOL0     H94348   1.492   2.235   1.318 -1.8572  1.0629  1.3912
  684MOL0     H94349   1.436   2.324   1.164 -1.4230  4.2521  1.6565
  684MOL0     H94350   1.862   2.350   1.100  1.6390  0.1818 -3.9433
  684MOL0     H94351   2.032   2.300   0.947 -2.0063  2.4653 -3.6587
  684MOL0     H94352   1.958   2.246   0.797  0.0635 -2.6776 -1.8830
  684MOL0     H94353   2.059   2.133   0.895 -0.0143 -0.2239 -4.9077
  684MOL0     H94354   1.860   1.724   0.617 -1.7141 -0.7930 -4.5569
  684MOL0     H94355   2.026   1.622   0.469  2.0805 -1.3467  3.1511
  684MOL0     H94356   2.149   1.899   0.180  1.1083  3.1055  1.3819
  684MOL0     H94357   2.311   1.920   0.253  0.4542  0.0262 -1.2804
  684MOL0     H94358   2.348   1.672   0.150 -2.7483 -2.3536 -1.1152
  684MOL0     H94359   2.197   1.705   0.064  0.0750  0.4093 -0.8592
  684MOL0     H94360   2.300   1.879  -0.069  2.4453  3.1559  0.0008
  684MOL0     H94361   2.403   1.735  -0.071 -0.9160 -1.1105 -0.7676
  684MOL0     H94362   2.448   1.988   0.109  2.2060  0.4715  0.4540
  684MOL0     H94363   2.521   1.963  -0.052 -0.6287 -0.3857  0.3998
  684MOL0     H94364   2.554   1.785   0.192  0.0907  1.4615  1.3999
  684MOL0     H94365   2.617   1.746   0.042  0.6560  0.9417 -0.5113
  684MOL0     H94366   2.718   2.015   0.052 -1.0109  1.0189  0.5255
  684MOL0     H94367   2.796   1.862   0.098  1.0421  2.1832 -1.4522
  684MOL0     H94368   2.707   1.891   0.337  0.1741  1.0214  2.2888
  684MOL0     H94369   2.633   2.039   0.281 -0.6103 -1.0070 -0.9314
  684MOL0     H94370   2.949   1.977   0.287  2.8920  2.0059  0.6519
  684MOL0     H94371   2.859   2.065   0.398 -2.9903  1.5379 -0.3670
  684MOL0     H94372   2.231   1.996   0.455 -1.4879 -0.2102 -1.5256
  684MOL0     H94373   2.097   2.086   0.615 -1.8372  0.1221 -1.0824
  684MOL0     H94374   1.631   1.917   1.024 -0.5065 -0.0331  2.0762
  684MOL0     H94375   1.544   2.084   1.171 -0.8442  2.1255  0.9409
  684MOL0     H94376   2.346   2.441   2.711  0.3958  2.4751 -2.6103
  684MOL0     H94377   2.497   2.364   2.889 -1.4093 -2.8242  0.7834
  684MOL0     H94378   2.912   2.093   2.939 -1.4785 -3.7589  2.1158
  684MOL0     H94379   3.059   2.006   3.111  0.4905  1.4960 -0.3604
  684MOL0     H94380   3.216   2.248   3.438 -0.0596 -0.8639  0.2706
  684MOL0     H94381   3.059   2.228   3.517  0.3725 -2.2940  1.9970
  684MOL0     H94382   3.133   2.023   3.625 -0.6998  0.5261  1.1812
  684MOL0     H94383   3.267   2.146   3.636 -0.5440  0.5688 -1.3286
  684MOL0     H94384   3.348   1.915   3.598  4.4787  0.6893 -0.6281
  684MOL0     H94385   3.261   1.910   3.455 -1.3308  1.3575 -1.3952
  684MOL0     H94386   3.527   1.987   3.484  0.3665  0.8260 -0.0094
  684MOL0     H94387   3.455   2.141   3.511 -2.0990  1.8844 -0.7883
  684MOL0     H94388   3.399   2.136   3.092 -0.7972  1.4128 -0.2504
  684MOL0     H94389   2.950   2.330   3.378  3.0480 -2.4441  1.0648
  684MOL0     H94390   2.816   2.541   3.198  0.0015 -0.1720  1.4359
  684MOL0     H94391   2.669   2.435   3.177  0.2421  1.8520 -1.1018
  684MOL0     H94392   2.756   2.448   3.332  5.0995  0.8224  1.1226
  685MOL0     O94393   7.448   7.178  11.247  0.1112  0.4676 -0.9245
  685MOL0     C94394   7.450   7.274  11.180  0.2748 -0.8099  0.3940
  685MOL0     O94395   7.441   7.407  11.232 -0.1270  0.2280  0.4556
  685MOL0     C94396   7.400   7.411  11.369  0.3581  0.1806  0.5885
  685MOL0     C94397   7.260   7.386  11.395 -0.1940  0.7905  0.1745
  685MOL0     C94398   7.211   7.405  11.524 -1.3728 -0.5310 -0.1285
  685MOL0     C94399   7.290   7.448  11.632  0.4881 -0.6397 -0.0555
  685MOL0     O94400   7.227   7.456  11.758  0.1653  0.2168 -0.1845
  685MOL0     C94401   7.314   7.482  11.865  1.3526  0.5333  1.1917
  685MOL0     C94402   7.239   7.460  11.992 -0.7472  0.6335  0.7721
  685MOL0     C94403   7.318   7.498  12.109 -0.3560  0.0281 -0.9337
  685MOL0     C94404   7.245   7.465  12.250  0.4680 -0.1734  0.5947
  685MOL0     C94405   7.326   7.525  12.371 -1.2149  0.2456 -0.0020
  685MOL0     C94406   7.263   7.464  12.497  0.6596 -0.0929 -0.7874
  685MOL0     C94407   7.126   7.526  12.526 -0.3098  0.7062 -0.4562
  685MOL0     C94408   7.061   7.455  12.648 -0.1224 -0.7403 -1.0540
  685MOL0     N94409   6.916   7.448  12.633 -0.6057 -0.1305 -0.5818
  685MOL0     C94410   6.856   7.384  12.530 -0.2195 -0.7054 -0.9979
  685MOL0     C94411   6.720   7.411  12.549  0.2056  0.6453 -1.6137
  685MOL0     C94412   6.623   7.348  12.455 -0.2636 -0.1850  0.3921
  685MOL0     C94413   6.566   7.457  12.351 -0.1043  0.1316  0.3683
  685MOL0     C94414   6.501   7.580  12.403  0.5180 -0.6634 -1.0036
  685MOL0     C94415   6.434   7.648  12.291  0.3094  0.0154 -0.1955
  685MOL0     O94416   6.302   7.585  12.257 -0.7296  0.5107 -0.1409
  685MOL0     C94417   6.200   7.585  12.358 -0.3410 -0.1457 -0.3241
  685MOL0     C94418   6.171   7.683  12.458  0.1836 -0.2961  0.3664
  685MOL0     C94419   6.060   7.669  12.545 -0.0409  0.8031  0.9628
  685MOL0     C94420   6.034   7.792  12.628 -0.1021 -0.0314 -0.1393
  685MOL0     C94421   5.983   7.542  12.538 -0.6232 -0.0989 -0.0710
  685MOL0     C94422   5.869   7.500  12.625  0.5950 -0.7613 -0.2291
  685MOL0     O94423   5.800   7.379  12.598 -0.2682 -0.9450 -0.0654
  685MOL0     C94424   5.690   7.328  12.667  0.7337 -0.5209 -0.2038
  685MOL0     C94425   5.661   7.191  12.637 -0.4493 -0.2794 -0.4051
  685MOL0     C94426   5.564   7.114  12.700  0.3384  0.9458 -0.7134
  685MOL0     C94427   5.494   7.171  12.809  0.2608 -0.2307  0.6171
  685MOL0     O94428   5.411   7.115  12.896  0.2298 -0.3956  0.1512
  685MOL0     C94429   5.392   6.975  12.889  0.2557  0.3295  0.2842
  685MOL0     C94430   5.332   6.920  13.012  1.1836  0.3724 -0.2340
  685MOL0     C94431   5.223   7.003  13.070  0.3163 -0.4888 -0.2745
  685MOL0     C94432   5.131   6.911  13.152 -0.5195  0.3299 -0.3907
  685MOL0     C94433   4.981   6.945  13.129 -0.1080 -0.2104  0.3238
  685MOL0     C94434   4.886   6.857  13.213  0.5946 -0.1534  0.1705
  685MOL0     C94435   4.854   6.921  13.354 -0.1314 -0.2798  0.6081
  685MOL0     C94436   4.742   6.833  13.419 -0.0758 -0.7866 -0.4591
  685MOL0    Cl94437   4.697   6.925  13.574  0.1340 -0.4126 -0.4957
  685MOL0     C94438   5.524   7.309  12.840 -0.2349 -0.4085  0.5322
  685MOL0     C94439   5.612   7.389  12.767  0.1383  0.1881 -0.3794
  685MOL0     O94440   5.850   7.572  12.721  0.7085  0.4493 -0.9874
  685MOL0     C94441   6.039   7.442  12.449  1.1249 -0.0040  0.2255
  685MOL0     C94442   6.143   7.462  12.362  0.1202  0.0088 -0.3984
  685MOL0     N94443   6.703   7.507  12.650 -0.0902 -0.1699  0.5219
  685MOL0     N94444   6.823   7.519  12.703 -0.1348 -0.0685  0.0520
  685MOL0     C94445   7.431   7.470  11.604  0.1703  0.0680  0.5895
  685MOL0     C94446   7.477   7.446  11.472  0.2101 -0.0022 -0.9399
  685MOL0     C94447   7.455   7.274  11.026 -0.7223 -0.3842 -0.1924
  685MOL0     C94448   7.434   7.393  10.948 -0.1968 -0.4396 -0.5755
  685MOL0     C94449   7.438   7.394  10.803  0.2348  0.1694 -0.5501
  685MOL0     C94450   7.466   7.280  10.736 -0.0447 -0.6936 -0.0779
  685MOL0     O94451   7.481   7.270  10.601  0.1131 -0.3274 -0.0344
  685MOL0     C94452   7.495   7.386  10.521  0.8525  0.0677 -0.6020
  685MOL0     C94453   7.533   7.359  10.378 -0.3166 -1.6986 -0.0432
  685MOL0     C94454   7.475   7.239  10.306  0.5802 -0.4658 -0.1708
  685MOL0     C94455   7.331   7.248  10.284 -0.1007 -0.0516  0.6426
  685MOL0     C94456   7.277   7.166  10.173 -0.0521 -0.7017 -0.5731
  685MOL0     C94457   7.216   7.094  10.102 -0.0548  0.3369 -0.5915
  685MOL0     C94458   7.471   7.159  10.811  0.0121 -0.9109  0.1891
  685MOL0     C94459   7.471   7.146  10.952 -0.5238  0.0933 -0.1228
  685MOL0     C94460   7.475   7.013  11.012  0.1362  0.2886 -0.2515
  685MOL0     H94461   7.204   7.333  11.317 -1.3791  0.0530  1.4757
  685MOL0     H94462   7.109   7.380  11.551 -0.3161 -1.2037  4.1234
  685MOL0     H94463   7.341   7.588  11.859 -2.3232  1.5677  0.6182
  685MOL0     H94464   7.402   7.417  11.862  2.0369  1.4144  1.3888
  685MOL0     H94465   7.144   7.515  11.991 -0.6314  0.9761  3.2842
  685MOL0     H94466   7.208   7.355  11.990 -2.1651  1.0194  1.0520
  685MOL0     H94467   7.415   7.448  12.108  0.2714  1.1373 -3.7418
  685MOL0     H94468   7.337   7.605  12.118 -1.4118  0.0529  3.4364
  685MOL0     H94469   7.141   7.501  12.248  1.0522  1.5817 -0.5388
  685MOL0     H94470   7.237   7.355  12.251 -3.5054 -0.1354 -2.0977
  685MOL0     H94471   7.321   7.634  12.364 -0.2713  0.4988  2.4362
  685MOL0     H94472   7.430   7.499  12.352 -1.5439 -1.9031  0.8164
  685MOL0     H94473   7.266   7.355  12.492 -1.0446 -0.2612  0.7298
  685MOL0     H94474   7.328   7.496  12.579 -1.7722  1.4244  0.6748
  685MOL0     H94475   7.062   7.519  12.438 -1.3331  2.4022  0.0996
  685MOL0     H94476   7.134   7.633  12.547 -1.9181  0.7612 -0.0354
  685MOL0     H94477   7.080   7.348  12.658 -3.4475 -1.7305 -3.5220
  685MOL0     H94478   7.086   7.503  12.743  1.3298  2.5340 -2.9287
  685MOL0     H94479   6.892   7.300  12.472 -3.6903 -3.1657  0.0806
  685MOL0     H94480   6.548   7.288  12.507  1.6916 -2.4463  0.7615
  685MOL0     H94481   6.685   7.274  12.403  3.5896  2.3012  0.9935
  685MOL0     H94482   6.654   7.482  12.289 -1.0340  0.6938 -0.7693
  685MOL0     H94483   6.483   7.408  12.301 -0.9343  0.7184  1.1512
  685MOL0     H94484   6.429   7.562  12.484  0.2440 -1.1042 -1.3406
  685MOL0     H94485   6.580   7.647  12.437  1.4055 -1.9242 -0.5220
  685MOL0     H94486   6.412   7.754  12.303 -1.4502 -0.2735 -0.6087
  685MOL0     H94487   6.498   7.643  12.203 -0.4168  0.7442 -0.7755
  685MOL0     H94488   6.230   7.773  12.461  1.8988 -1.2048 -2.1576
  685MOL0     H94489   5.977   7.870  12.576  1.5918  0.7835 -0.8396
  685MOL0     H94490   6.126   7.844  12.656 -1.7400  3.2411 -0.3071
  685MOL0     H94491   5.972   7.772  12.715  2.6581  0.1453  1.9879
  685MOL0     H94492   5.716   7.140  12.559  1.4160  3.7635 -2.0165
  685MOL0     H94493   5.545   7.010  12.675 -2.7679  0.5921  2.4039
  685MOL0     H94494   5.325   6.950  12.806  1.0746  2.4053 -1.0680
  685MOL0     H94495   5.487   6.922  12.884 -0.3251 -0.6696 -0.6530
  685MOL0     H94496   5.289   6.822  12.988  4.2289 -1.5263  1.5539
  685MOL0     H94497   5.409   6.904  13.087  2.2879 -2.1102 -1.7748
  685MOL0     H94498   5.169   7.059  12.993  1.3197 -0.7444 -1.1873
  685MOL0     H94499   5.275   7.073  13.137 -1.1254 -0.3704  0.7975
  685MOL0     H94500   5.159   6.922  13.257 -1.4576 -0.1423 -0.0810
  685MOL0     H94501   5.137   6.804  13.133  0.3623  0.3309 -0.1529
  685MOL0     H94502   4.970   7.052  13.151  0.2202  0.3130 -1.8235
  685MOL0     H94503   4.958   6.934  13.023 -1.5853  4.1276 -0.0116
  685MOL0     H94504   4.923   6.755  13.222  4.8057  1.2158  0.7812
  685MOL0     H94505   4.785   6.855  13.170  1.6624  2.3198 -2.8685
  685MOL0     H94506   4.835   7.026  13.330 -1.4005 -0.9619 -1.6616
  685MOL0     H94507   4.940   6.914  13.422 -1.3039 -1.2971  2.0450
  685MOL0     H94508   4.771   6.731  13.446  0.6270 -1.2689 -2.8319
  685MOL0     H94509   4.654   6.834  13.354  0.9458 -1.7562 -1.8968
  685MOL0     H94510   5.472   7.331  12.933 -0.3172  1.0134  0.1704
  685MOL0     H94511   5.610   7.496  12.785 -2.3189 -0.0518  1.3647
  685MOL0     H94512   5.999   7.341  12.448  1.9556 -0.3408 -0.4903
  685MOL0     H94513   6.180   7.388  12.292  1.5011 -1.2523  1.5724
  685MOL0     H94514   7.501   7.508  11.677 -3.6666  4.2056  2.5963
  685MOL0     H94515   7.582   7.461  11.449  0.1950 -0.6049 -1.4450
  685MOL0     H94516   7.415   7.486  11.000 -2.1911 -1.6277  0.9841
  685MOL0     H94517   7.411   7.482  10.747  1.3398 -0.6950 -2.5455
  685MOL0     H94518   7.405   7.448  10.518 -0.4833 -1.7694 -3.7130
  685MOL0     H94519   7.578   7.446  10.558  1.2126 -0.1574 -1.0390
  685MOL0     H94520   7.641   7.349  10.381 -0.4553 -3.7228 -0.3091
  685MOL0     H94521   7.519   7.451  10.321  1.5789 -1.2275  0.1836
  685MOL0     H94522   7.523   7.223  10.209  1.0409  1.0762 -0.2302
  685MOL0     H94523   7.488   7.146  10.362 -0.1064 -0.3784  0.1344
  685MOL0     H94524   7.300   7.351  10.267  3.5028  1.0008 -0.3515
  685MOL0     H94525   7.284   7.219  10.379  0.9163 -0.1318  1.1302
  685MOL0     H94526   7.172   7.011  10.049 -2.6706 -0.6124  2.7257
  685MOL0     H94527   7.483   7.071  10.749 -1.3655  0.3862 -2.0807
  685MOL0     H94528   7.474   6.930  10.941  1.2254 -1.0823  1.2639
  685MOL0     H94529   7.553   6.999  11.087 -0.8181 -1.9965  0.4252
  685MOL0     H94530   7.386   7.001  11.074  1.4548 -2.6667  1.2709
  686MOL0     O94531   6.198   7.941   7.600  0.3316 -0.3737  0.2321
  686MOL0     C94532   6.108   7.868   7.644  0.2048  0.0507  0.5638
  686MOL0     O94533   5.991   7.920   7.691 -0.1494  1.5020 -0.2618
  686MOL0     C94534   5.917   7.975   7.591  0.2170 -0.5405 -0.1317
  686MOL0     C94535   5.930   7.950   7.453  0.4303  0.0984 -0.5709
  686MOL0     C94536   5.835   7.996   7.368  0.5227 -0.0405  0.4913
  686MOL0     C94537   5.748   8.100   7.402 -0.3020 -0.0061  0.5263
  686MOL0     O94538   5.664   8.163   7.317 -0.8323 -0.5138  0.5982
  686MOL0     C94539   5.531   8.168   7.356 -0.4079 -0.1765 -0.8228
  686MOL0     C94540   5.431   8.157   7.246 -0.3887  0.5954 -0.4658
  686MOL0     C94541   5.289   8.210   7.282  0.0708  0.0637  0.6130
  686MOL0     C94542   5.177   8.128   7.204 -0.0513 -0.8593 -0.2616
  686MOL0     C94543   5.188   8.134   7.053 -0.7250 -0.0353  0.7727
  686MOL0     C94544   5.160   8.277   7.001  0.7969 -0.3783 -0.7469
  686MOL0     C94545   5.011   8.328   6.989 -0.5761 -0.6546 -0.2407
  686MOL0     C94546   5.013   8.451   6.901 -0.0833 -0.0150 -0.3070
  686MOL0     N94547   4.969   8.568   6.985  0.9252  0.8067  0.3765
  686MOL0     C94548   5.050   8.670   7.034 -0.3204  0.3060 -0.9142
  686MOL0     C94549   4.978   8.777   7.058 -0.6983  0.7345 -0.0978
  686MOL0     C94550   5.021   8.909   7.083 -0.7732  0.3875 -0.2737
  686MOL0     C94551   4.930   8.994   7.177 -1.0588 -0.4525  0.9248
  686MOL0     C94552   4.962   8.950   7.328  0.0373 -0.0080  1.6327
  686MOL0     C94553   4.853   9.004   7.427  0.6513  1.0470 -0.1633
  686MOL0     O94554   4.725   8.940   7.395  0.1358 -0.1340  0.2157
  686MOL0     C94555   4.613   8.991   7.465 -0.2927  0.3108  0.2115
  686MOL0     C94556   4.489   8.943   7.424 -1.0024  0.2403 -0.3356
  686MOL0     C94557   4.371   8.979   7.488 -0.5259  0.5347 -0.1713
  686MOL0     C94558   4.236   8.917   7.444 -0.1741  0.6860 -0.3591
  686MOL0     C94559   4.361   9.074   7.595  0.1997 -0.1121 -0.2148
  686MOL0     C94560   4.240   9.094   7.687 -0.9300  0.6500  0.3053
  686MOL0     O94561   4.240   9.207   7.773  0.6764 -0.0411  0.1329
  686MOL0     C94562   4.160   9.200   7.886 -0.1780  0.3919 -0.0899
  686MOL0     C94563   4.217   9.190   8.010  0.6956  0.3822  0.0164
  686MOL0     C94564   4.150   9.182   8.128  0.2956  0.2601  0.7157
  686MOL0     C94565   4.008   9.177   8.123  0.4349  0.4817  0.0652
  686MOL0     O94566   3.941   9.172   8.247  0.5643  0.5842  0.2711
  686MOL0     C94567   3.968   9.056   8.333  0.7342 -0.8007  0.0079
  686MOL0     C94568   3.861   9.050   8.445 -0.9237 -0.0948  0.1453
  686MOL0     C94569   3.873   9.159   8.553  0.5822  0.6053  0.6766
  686MOL0     C94570   3.746   9.168   8.634 -0.5691 -0.3780  0.3562
  686MOL0     C94571   3.747   9.255   8.759 -0.2378  0.3597  0.3287
  686MOL0     C94572   3.779   9.396   8.728  0.7590 -1.1644  0.4815
  686MOL0     C94573   3.782   9.476   8.853  0.2326  0.3440  0.3110
  686MOL0     C94574   3.790   9.624   8.842 -0.5172 -0.4022  0.1925
  686MOL0    Cl94575   3.646   9.699   8.770  0.0471 -0.2033  0.1296
  686MOL0     C94576   3.949   9.204   8.002 -0.6770  0.3416 -0.4577
  686MOL0     C94577   4.021   9.210   7.879  0.5741 -0.5323  0.0400
  686MOL0     O94578   4.174   8.995   7.706 -0.4318 -0.0290  0.3439
  686MOL0     C94579   4.482   9.138   7.628 -0.1374 -0.4635 -0.5975
  686MOL0     C94580   4.606   9.088   7.572  1.0605  0.1298 -0.5969
  686MOL0     N94581   4.850   8.745   7.010  0.1401 -0.7666 -0.2544
  686MOL0     N94582   4.841   8.623   6.966 -0.5240 -1.0474 -0.0302
  686MOL0     C94583   5.748   8.140   7.532  0.7290 -0.4242 -0.6565
  686MOL0     C94584   5.828   8.078   7.628 -1.7014  0.2856  0.6837
  686MOL0     C94585   6.119   7.717   7.662 -0.3927 -0.3658  0.2490
  686MOL0     C94586   6.028   7.662   7.761 -0.3582  1.0298  0.2188
  686MOL0     C94587   6.057   7.532   7.800 -0.2621  1.0802 -0.5021
  686MOL0     C94588   6.155   7.459   7.748  0.2830  1.0625 -0.2770
  686MOL0     O94589   6.181   7.328   7.773  0.3326  0.1047  0.0050
  686MOL0     C94590   6.074   7.241   7.795  1.2547 -0.1899 -0.0774
  686MOL0     C94591   6.082   7.200   7.944  0.4079 -0.1777 -0.5895
  686MOL0     C94592   6.206   7.145   8.020 -0.2167 -0.4760  0.1188
  686MOL0     C94593   6.270   7.044   7.924 -1.6967  1.0819  0.3236
  686MOL0     C94594   6.377   6.957   7.981  0.7189  0.0839 -0.9529
  686MOL0     C94595   6.471   6.888   8.024 -0.1125 -1.5914 -0.1711
  686MOL0     C94596   6.227   7.504   7.639 -1.1490  0.4349 -0.0627
  686MOL0     C94597   6.219   7.636   7.601 -0.3171 -0.7835 -1.5105
  686MOL0     C94598   6.325   7.687   7.499 -0.2576 -0.2702  0.8699
  686MOL0     H94599   6.002   7.882   7.409  2.5376  2.1967 -0.5719
  686MOL0     H94600   5.844   7.987   7.260  0.0238  1.9149  0.2510
  686MOL0     H94601   5.525   8.263   7.410 -1.0877  0.7881 -2.5021
  686MOL0     H94602   5.502   8.086   7.422 -3.4305 -1.9793 -4.0342
  686MOL0     H94603   5.481   8.203   7.160 -0.9559 -0.9572 -1.6701
  686MOL0     H94604   5.423   8.051   7.219 -0.4896  0.8943 -1.6846
  686MOL0     H94605   5.277   8.188   7.388 -0.0116  0.3179  0.6564
  686MOL0     H94606   5.284   8.318   7.263 -0.1070 -0.3068 -1.7351
  686MOL0     H94607   5.200   8.024   7.232  1.3112 -0.3359  0.7026
  686MOL0     H94608   5.080   8.157   7.244  0.7024  0.4476  0.7153
  686MOL0     H94609   5.117   8.061   7.011 -0.2331 -2.0967  3.2878
  686MOL0     H94610   5.289   8.110   7.019 -1.2457  1.4270 -2.1064
  686MOL0     H94611   5.208   8.345   7.072 -4.3113  2.5087  0.4275
  686MOL0     H94612   5.211   8.287   6.905 -1.5203 -3.8059 -2.5341
  686MOL0     H94613   4.968   8.331   7.089 -2.0379 -2.8103 -0.7338
  686MOL0     H94614   4.956   8.252   6.931  0.5619 -0.4596 -1.6300
  686MOL0     H94615   5.113   8.469   6.862  0.4218 -0.0399  0.9235
  686MOL0     H94616   4.944   8.432   6.819 -4.1532  1.8272  2.3532
  686MOL0     H94617   5.157   8.662   7.049 -0.4955  0.5117  0.6536
  686MOL0     H94618   5.023   8.962   6.987  2.3999 -0.0601 -0.5643
  686MOL0     H94619   5.118   8.900   7.132 -0.0548  0.7210 -1.5839
  686MOL0     H94620   4.949   9.102   7.173 -0.9738 -0.5058 -0.5474
  686MOL0     H94621   4.828   8.990   7.138 -0.1804  1.5000 -1.8748
  686MOL0     H94622   4.972   8.841   7.322 -0.7700 -0.0201 -1.2293
  686MOL0     H94623   5.051   9.004   7.362 -1.5073  2.3053  2.2283
  686MOL0     H94624   4.875   8.985   7.532 -0.9068  2.5133  0.4649
  686MOL0     H94625   4.838   9.110   7.408  0.0409  0.4878 -3.5833
  686MOL0     H94626   4.488   8.885   7.332 -0.5461  1.3621 -1.0751
  686MOL0     H94627   4.160   8.995   7.440 -1.5520 -0.4934  1.2736
  686MOL0     H94628   4.201   8.847   7.521  2.9266  2.2538  2.8097
  686MOL0     H94629   4.259   8.873   7.347  1.3832  1.5554 -0.4170
  686MOL0     H94630   4.325   9.202   8.007  0.5153  2.0263 -0.5133
  686MOL0     H94631   4.203   9.175   8.222  2.1375 -0.1908 -0.3122
  686MOL0     H94632   3.955   8.966   8.273 -2.8628  1.9544 -3.9109
  686MOL0     H94633   4.056   9.087   8.391 -1.3491  2.7069  1.6269
  686MOL0     H94634   3.772   9.057   8.382 -0.7843  0.0157 -0.0429
  686MOL0     H94635   3.847   8.953   8.494 -1.4446  1.0790  2.4823
  686MOL0     H94636   3.900   9.259   8.517  0.2713  0.0347 -1.2731
  686MOL0     H94637   3.960   9.134   8.614  1.4638 -0.5347 -0.9859
  686MOL0     H94638   3.717   9.067   8.662 -3.3583 -0.5181 -2.4153
  686MOL0     H94639   3.668   9.213   8.572  0.8586 -0.6906 -1.7748
  686MOL0     H94640   3.645   9.263   8.797 -0.5841 -3.1510  0.5328
  686MOL0     H94641   3.808   9.210   8.838 -2.1469 -2.6604  0.2607
  686MOL0     H94642   3.702   9.431   8.659  0.1450 -2.2563  0.5831
  686MOL0     H94643   3.874   9.409   8.676  0.4074 -0.3894  0.0210
  686MOL0     H94644   3.866   9.442   8.914  0.1180 -1.7643 -0.6185
  686MOL0     H94645   3.689   9.443   8.898 -2.0037 -0.7368 -4.4482
  686MOL0     H94646   3.879   9.647   8.783  0.3684  1.5505  2.1487
  686MOL0     H94647   3.811   9.660   8.943 -0.2279  0.3328 -0.1236
  686MOL0     H94648   3.844   9.229   8.005 -1.2360 -1.7715 -0.7681
  686MOL0     H94649   3.971   9.226   7.784 -1.8405 -3.6759  0.6354
  686MOL0     H94650   4.482   9.211   7.708 -2.0687  1.7906 -2.5176
  686MOL0     H94651   4.686   9.154   7.604  2.1176 -1.8975  1.1811
  686MOL0     H94652   5.696   8.233   7.551  0.1911 -1.0146  0.8940
  686MOL0     H94653   5.829   8.107   7.732  2.0428 -1.9633  1.4562
  686MOL0     H94654   5.945   7.698   7.821 -0.1188 -2.5332  3.0323
  686MOL0     H94655   5.997   7.505   7.887  1.2999  0.1529  0.3153
  686MOL0     H94656   5.978   7.287   7.769  1.5283  0.7288  0.5156
  686MOL0     H94657   6.083   7.149   7.736 -0.3825 -1.3508  1.3922
  686MOL0     H94658   5.995   7.136   7.961 -0.6156  1.8204  2.6221
  686MOL0     H94659   6.064   7.296   7.995  3.4681  1.7959 -2.8561
  686MOL0     H94660   6.282   7.220   8.042  0.5347 -1.2471  0.2198
  686MOL0     H94661   6.171   7.115   8.119 -2.0055  1.1367  0.0455
  686MOL0     H94662   6.313   7.095   7.838  1.3792 -2.4939 -0.5562
  686MOL0     H94663   6.185   6.980   7.896  0.1364 -1.1303 -0.5360
  686MOL0     H94664   6.553   6.821   8.041 -1.6002 -3.4166  0.1097
  686MOL0     H94665   6.308   7.444   7.600  0.5728  2.6389 -0.0341
  686MOL0     H94666   6.419   7.714   7.548 -0.0888 -0.0307  0.4207
  686MOL0     H94667   6.341   7.616   7.417  1.4087  0.2227  0.7173
  686MOL0     H94668   6.281   7.772   7.446  2.0518 -0.0120 -0.7969
  687MOL0     O94669  10.016  11.140  10.184  0.4748  0.0350 -0.3818
  687MOL0     C94670   9.994  11.193  10.076  0.5830 -0.5683 -0.4103
  687MOL0     O94671   9.984  11.128   9.959  0.0854  0.0006 -0.4579
  687MOL0     C94672   9.952  10.993   9.970  0.2520 -0.6858 -0.2908
  687MOL0     C94673   9.818  10.945   9.999 -0.1784 -0.6496 -0.1438
  687MOL0     C94674   9.810  10.804   9.984  0.5434 -1.0280 -0.1953
  687MOL0     C94675   9.912  10.711   9.942 -0.1008  0.8576 -0.8012
  687MOL0     O94676   9.887  10.576   9.940  0.5466  0.5716 -0.0358
  687MOL0     C94677   9.991  10.495   9.896 -0.1824  0.0717 -0.0255
  687MOL0     C94678   9.939  10.348   9.902 -0.7849 -0.5488 -1.1040
  687MOL0     C94679  10.053  10.247   9.877 -0.4955 -0.3566  0.2952
  687MOL0     C94680  10.000  10.118   9.803  0.3209  1.0675  0.5441
  687MOL0     C94681  10.109  10.006   9.771  0.3740  0.0114 -0.0924
  687MOL0     C94682  10.051   9.880   9.715  0.8522  1.1281 -0.6984
  687MOL0     C94683  10.022   9.868   9.564 -0.6130  0.4095  0.0913
  687MOL0     C94684   9.933   9.744   9.531  1.2335 -0.6139  0.5789
  687MOL0     N94685  10.010   9.618   9.552  0.0114  0.2701  0.2992
  687MOL0     C94686  10.087   9.549   9.459  0.4888 -0.4111  0.0517
  687MOL0     C94687  10.145   9.437   9.525  0.4065 -1.2546 -0.3066
  687MOL0     C94688  10.238   9.325   9.486 -0.4079 -0.9246  0.7594
  687MOL0     C94689  10.167   9.188   9.440 -0.7896  0.1771 -1.0654
  687MOL0     C94690  10.246   9.074   9.506  1.4337 -1.1021  0.3203
  687MOL0     C94691  10.197   8.934   9.471 -0.6357 -0.1415  0.3449
  687MOL0     O94692  10.090   8.896   9.558 -0.0219  0.3892  0.3435
  687MOL0     C94693  10.119   8.863   9.690  0.0998 -0.5593  0.4928
  687MOL0     C94694  10.013   8.835   9.771  0.0985  0.6191 -0.6986
  687MOL0     C94695  10.023   8.782   9.905  0.3007 -1.2836  0.7043
  687MOL0     C94696   9.901   8.760   9.984  0.1001  0.4076 -0.3650
  687MOL0     C94697  10.146   8.766   9.962 -0.0603 -0.1631  0.5576
  687MOL0     C94698  10.172   8.734  10.091 -0.4539  0.2873 -0.5494
  687MOL0     O94699  10.131   8.610  10.141 -0.6924 -0.3871 -0.2600
  687MOL0     C94700  10.124   8.583  10.277  0.2554  0.3160 -0.1632
  687MOL0     C94701  10.136   8.448  10.313  0.8365  0.9143 -0.2117
  687MOL0     C94702  10.098   8.405  10.440  0.0567 -0.1680 -0.1134
  687MOL0     C94703  10.072   8.494  10.540 -1.0712  0.1694 -0.5761
  687MOL0     O94704  10.048   8.443  10.666  0.0759 -0.2700 -0.2057
  687MOL0     C94705  10.143   8.476  10.772  0.1895 -0.2642  0.7426
  687MOL0     C94706  10.135   8.382  10.894  0.3284 -0.2132 -0.6248
  687MOL0     C94707  10.007   8.405  10.986 -0.5674  0.0176  0.4161
  687MOL0     C94708  10.038   8.514  11.082 -0.6300 -0.4507  0.2467
  687MOL0     C94709   9.916   8.593  11.136 -0.1566  0.3926  0.3848
  687MOL0     C94710   9.946   8.654  11.276  0.2459 -0.6926 -0.0291
  687MOL0     C94711   9.951   8.540  11.377 -0.2473 -0.4317  0.5717
  687MOL0     C94712  10.009   8.571  11.511 -0.3259  0.0311  0.2266
  687MOL0    Cl94713   9.976   8.731  11.584  0.0025  0.0909  0.1683
  687MOL0     C94714  10.070   8.628  10.508 -0.2795 -0.4496  0.7972
  687MOL0     C94715  10.095   8.676  10.380  0.0735  0.3440  0.2331
  687MOL0     O94716  10.241   8.817  10.152 -0.3581  0.7630 -0.6613
  687MOL0     C94717  10.258   8.792   9.879 -0.2049 -0.2163  0.5754
  687MOL0     C94718  10.243   8.843   9.746 -0.2492 -0.2526 -0.0285
  687MOL0     N94719  10.102   9.451   9.655  0.2589 -1.2795  0.3438
  687MOL0     N94720  10.018   9.543   9.670 -0.9893  0.1401  0.2214
  687MOL0     C94721  10.029  10.768   9.908 -0.5280  0.4515  0.7487
  687MOL0     C94722  10.052  10.901   9.925 -0.3120  0.5465  0.0663
  687MOL0     C94723   9.987  11.342  10.072 -0.0785  1.0587 -0.1049
  687MOL0     C94724   9.892  11.406   9.991 -0.3576 -0.1948 -0.1919
  687MOL0     C94725   9.883  11.546  10.004  0.2000  0.5404  0.1145
  687MOL0     C94726   9.960  11.621  10.087 -0.0717  0.0592  0.2627
  687MOL0     O94727   9.933  11.755  10.087 -1.2561 -0.3626 -0.5838
  687MOL0     C94728   9.975  11.845  10.189 -0.6643 -0.2802 -0.3276
  687MOL0     C94729   9.888  11.821  10.305  0.0629  0.3433 -0.1401
  687MOL0     C94730   9.736  11.810  10.267  0.2309  0.6719 -1.0683
  687MOL0     C94731   9.644  11.867  10.377 -0.1326 -0.6174 -0.3257
  687MOL0     C94732   9.675  11.812  10.507 -0.1537  0.2356 -0.1073
  687MOL0     C94733   9.712  11.787  10.620 -0.7905  0.4019  0.8360
  687MOL0     C94734  10.058  11.561  10.165  0.4511  0.4611 -0.3525
  687MOL0     C94735  10.075  11.423  10.153 -0.5776 -0.1762  0.0137
  687MOL0     C94736  10.195  11.376  10.230 -1.0016  0.1689 -1.1626
  687MOL0     H94737   9.739  11.009  10.035  1.9379  2.7130 -0.9731
  687MOL0     H94738   9.715  10.763  10.018 -0.8911  0.9495 -1.5606
  687MOL0     H94739  10.064  10.496   9.977 -1.9436 -2.0178  1.7056
  687MOL0     H94740  10.025  10.522   9.795  2.5820  0.7663  0.9900
  687MOL0     H94741   9.895  10.331  10.001 -0.0993  2.0224 -0.2736
  687MOL0     H94742   9.859  10.338   9.828 -1.5734 -0.9479 -0.2254
  687MOL0     H94743  10.135  10.289   9.818 -1.4201  0.6787 -0.2994
  687MOL0     H94744  10.090  10.223   9.977 -0.1917  5.3306  1.8916
  687MOL0     H94745   9.913  10.072   9.851 -0.3543  2.6253  0.8603
  687MOL0     H94746   9.955  10.157   9.711  1.8786 -1.3249 -1.3750
  687MOL0     H94747  10.157   9.989   9.867 -1.9918 -0.2797  1.1260
  687MOL0     H94748  10.174  10.052   9.696  3.0224  1.3652  2.8192
  687MOL0     H94749  10.126   9.801   9.727 -0.2222  0.2731  0.6174
  687MOL0     H94750   9.969   9.857   9.784  0.7254  1.3373 -0.7793
  687MOL0     H94751  10.116   9.863   9.508  0.9636  1.7209  2.4940
  687MOL0     H94752   9.969   9.952   9.518  3.1593  3.0652  0.1776
  687MOL0     H94753   9.846   9.755   9.596 -0.8662 -0.4324 -2.0654
  687MOL0     H94754   9.889   9.744   9.431 -0.6414  1.4983  1.3389
  687MOL0     H94755  10.096   9.573   9.353  1.4843  2.9513  0.7880
  687MOL0     H94756  10.299   9.308   9.575  1.7752  2.6877  0.1705
  687MOL0     H94757  10.308   9.372   9.416  0.7564 -0.5610  2.1147
  687MOL0     H94758  10.068   9.194   9.486  1.3022 -1.5896  4.4867
  687MOL0     H94759  10.157   9.162   9.335  2.5735 -0.1607 -1.4059
  687MOL0     H94760  10.355   9.087   9.499  1.4225 -1.6984 -1.4725
  687MOL0     H94761  10.223   9.100   9.610  0.6586 -0.8960  0.1014
  687MOL0     H94762  10.162   8.920   9.368 -4.5735 -0.3354  1.5400
  687MOL0     H94763  10.283   8.872   9.497  0.9755  2.7619  2.5471
  687MOL0     H94764   9.913   8.831   9.730  1.3114 -2.0571 -3.8845
  687MOL0     H94765   9.883   8.850  10.043  0.9291  1.4697 -1.6713
  687MOL0     H94766   9.910   8.666  10.039 -0.6755 -0.1467 -1.1524
  687MOL0     H94767   9.815   8.742   9.919  0.5287 -3.5322 -0.0767
  687MOL0     H94768  10.178   8.386  10.234 -1.5242 -0.8719 -0.1651
  687MOL0     H94769  10.079   8.303  10.472  0.9456  0.1576  1.5167
  687MOL0     H94770  10.241   8.475  10.724  0.4599 -1.3656  1.2786
  687MOL0     H94771  10.128   8.577  10.809 -0.1360 -0.2384  0.5419
  687MOL0     H94772  10.130   8.281  10.851 -1.9830  0.1641 -1.4060
  687MOL0     H94773  10.229   8.372  10.948  0.0457 -2.8908 -0.4703
  687MOL0     H94774   9.977   8.315  11.040  1.2650  1.1237  3.5424
  687MOL0     H94775   9.923   8.430  10.919  1.4141  1.7122 -1.5922
  687MOL0     H94776  10.103   8.591  11.039  0.5901 -2.1442 -1.0700
  687MOL0     H94777  10.106   8.466  11.153  1.5402 -2.5700 -3.0494
  687MOL0     H94778   9.909   8.670  11.058  3.3126 -1.0677 -1.6014
  687MOL0     H94779   9.824   8.533  11.134 -1.3118  2.0881 -0.3712
  687MOL0     H94780   9.860   8.718  11.298 -0.3385 -1.3796 -0.2809
  687MOL0     H94781  10.041   8.708  11.267  0.3181 -0.9415 -0.8393
  687MOL0     H94782  10.015   8.457  11.344  0.2720 -1.0727  2.9388
  687MOL0     H94783   9.855   8.488  11.390  0.3305 -1.1064  2.5837
  687MOL0     H94784  10.117   8.569  11.491 -0.6331 -0.7390 -1.5059
  687MOL0     H94785   9.990   8.484  11.576  0.5095 -0.1206  0.2901
  687MOL0     H94786  10.037   8.706  10.577  0.3298  1.5691 -1.0825
  687MOL0     H94787  10.089   8.781  10.357 -0.3403  0.2469 -0.1242
  687MOL0     H94788  10.356   8.774   9.923 -0.3679  3.0304  2.6125
  687MOL0     H94789  10.335   8.853   9.691 -1.5719  3.9401 -1.8946
  687MOL0     H94790  10.114  10.709   9.877 -0.9565  0.7205 -1.0643
  687MOL0     H94791  10.152  10.930   9.897  0.2118 -1.8778 -0.7936
  687MOL0     H94792   9.821  11.353   9.929  1.2729 -1.4697 -1.0230
  687MOL0     H94793   9.798  11.593   9.956  0.3916  0.9650  0.1898
  687MOL0     H94794  10.076  11.810  10.214 -0.4994  1.9521  2.6274
  687MOL0     H94795   9.970  11.950  10.158 -0.5274  0.3831  1.7672
  687MOL0     H94796   9.915  11.894  10.383  0.8244 -0.0320 -0.0418
  687MOL0     H94797   9.924  11.723  10.338  3.3865  1.5359  0.1956
  687MOL0     H94798   9.723  11.873  10.178 -0.9982  1.0558 -0.6372
  687MOL0     H94799   9.721  11.704  10.245  0.2776  0.3283  0.4835
  687MOL0     H94800   9.541  11.833  10.366 -0.8279  1.0995  0.4205
  687MOL0     H94801   9.647  11.977  10.377 -2.4831 -0.5029  0.3399
  687MOL0     H94802   9.744  11.771  10.721  4.3875 -1.4112 -0.7641
  687MOL0     H94803  10.122  11.622  10.228 -1.8577  0.5694  2.0595
  687MOL0     H94804  10.248  11.294  10.180 -1.8682 -0.9240 -0.3438
  687MOL0     H94805  10.261  11.461  10.251  2.3016 -2.7949  1.8040
  687MOL0     H94806  10.170  11.322  10.321  1.4309 -1.6677 -1.4928
  688MOL0     O94807   4.855   1.513   6.040  0.3829  0.0949 -0.8630
  688MOL0     C94808   4.772   1.592   6.004  0.0998 -0.7645 -0.3269
  688MOL0     O94809   4.681   1.562   5.906 -0.0131 -0.5329  1.1505
  688MOL0     C94810   4.704   1.457   5.832  0.1495  0.0746  0.6490
  688MOL0     C94811   4.788   1.469   5.722  0.4107  0.1148  0.3727
  688MOL0     C94812   4.812   1.366   5.635  0.2301  0.6451  0.1801
  688MOL0     C94813   4.753   1.242   5.653 -0.0464  0.3079  0.3784
  688MOL0     O94814   4.784   1.138   5.572  0.5027  0.2780  0.8728
  688MOL0     C94815   4.693   1.039   5.548  0.8528  0.4803 -0.2955
  688MOL0     C94816   4.738   0.918   5.470 -1.2611  1.0938  1.9225
  688MOL0     C94817   4.785   0.965   5.327 -0.8423  0.1433  0.6550
  688MOL0     C94818   4.821   0.849   5.236 -0.6442  0.9490 -0.3929
  688MOL0     C94819   4.865   0.899   5.101  0.2154 -0.4340  0.3226
  688MOL0     C94820   4.752   0.969   5.034 -0.7973 -0.2580 -0.2991
  688MOL0     C94821   4.788   0.979   4.884  1.3565 -0.2251 -0.0983
  688MOL0     C94822   4.719   0.877   4.791  0.0765 -0.1011  0.1566
  688MOL0     N94823   4.583   0.916   4.750  0.0262 -0.6442 -0.2052
  688MOL0     C94824   4.532   0.949   4.626  0.1837  0.6034 -0.3520
  688MOL0     C94825   4.396   0.952   4.632 -0.1770  0.5522 -0.4913
  688MOL0     C94826   4.299   0.998   4.533  0.8622  0.4799  0.4700
  688MOL0     C94827   4.341   0.981   4.383 -0.5210 -0.9010  0.1556
  688MOL0     C94828   4.271   0.858   4.325  1.4130 -0.2540 -1.3714
  688MOL0     C94829   4.319   0.823   4.180  0.0743 -0.1931 -0.1561
  688MOL0     O94830   4.282   0.685   4.147 -0.1987 -0.0702  0.5903
  688MOL0     C94831   4.287   0.652   4.009  0.1902  0.1461 -0.0223
  688MOL0     C94832   4.392   0.581   3.960  0.2921  0.3664  0.1973
  688MOL0     C94833   4.392   0.532   3.825 -0.8664 -0.9528 -1.2963
  688MOL0     C94834   4.501   0.437   3.793  0.7936 -0.5780 -0.3124
  688MOL0     C94835   4.290   0.562   3.742  0.3056  0.5777  0.3870
  688MOL0     C94836   4.287   0.524   3.589 -0.7257 -0.5965  0.4762
  688MOL0     O94837   4.160   0.518   3.527 -0.2112 -0.3255  0.3467
  688MOL0     C94838   4.162   0.454   3.408  0.0023 -0.1250 -0.1309
  688MOL0     C94839   4.227   0.496   3.294  0.9832 -0.0373 -1.1363
  688MOL0     C94840   4.228   0.409   3.183 -1.1136 -0.4602 -0.0573
  688MOL0     C94841   4.162   0.288   3.180  0.2747  0.3772  0.0122
  688MOL0     O94842   4.176   0.190   3.077  0.2456  0.3899 -0.5416
  688MOL0     C94843   4.284   0.203   2.990 -0.2146 -0.2931  0.1214
  688MOL0     C94844   4.308   0.071   2.914  0.6828  0.2140 -0.6845
  688MOL0     C94845   4.241   0.067   2.774 -0.5627  0.3705 -0.1651
  688MOL0     C94846   4.267  -0.061   2.704  0.9694 -0.5496  0.0280
  688MOL0     C94847   4.175  -0.073   2.569  0.1054 -0.5959 -0.0921
  688MOL0     C94848   4.225  -0.184   2.481  0.8452 -0.2170  0.6095
  688MOL0     C94849   4.187  -0.151   2.332  0.3242  0.0647  0.4315
  688MOL0     C94850   4.262  -0.251   2.238 -0.8266 -0.2446 -0.7272
  688MOL0    Cl94851   4.212  -0.417   2.269 -0.1304  0.1466  0.4930
  688MOL0     C94852   4.098   0.248   3.300 -0.3196 -0.2987  0.2200
  688MOL0     C94853   4.098   0.333   3.413 -0.1239  0.5631 -0.7493
  688MOL0     O94854   4.395   0.507   3.529  0.6687 -0.1616 -0.5307
  688MOL0     C94855   4.181   0.637   3.787  0.2276  1.1046 -0.4910
  688MOL0     C94856   4.192   0.687   3.921  0.7722  0.4267 -0.8966
  688MOL0     N94857   4.363   0.906   4.762  0.2669 -0.3036  0.1456
  688MOL0     N94858   4.475   0.886   4.826 -0.2093 -0.1034  0.0208
  688MOL0     C94859   4.665   1.221   5.767  0.8404  0.7289  0.6289
  688MOL0     C94860   4.644   1.329   5.855  0.8368 -0.6136  0.3393
  688MOL0     C94861   4.737   1.705   6.094 -0.1218  0.1529 -0.2042
  688MOL0     C94862   4.606   1.752   6.095  0.1657  0.1814  0.8291
  688MOL0     C94863   4.566   1.859   6.179 -0.3860  0.4203  0.4338
  688MOL0     C94864   4.647   1.910   6.274  0.4232  0.4876  0.5887
  688MOL0     O94865   4.602   1.969   6.393  0.6861  0.1160 -0.2592
  688MOL0     C94866   4.456   1.993   6.420  0.2854 -0.1279 -0.2703
  688MOL0     C94867   4.421   2.100   6.531 -0.5346 -0.5890 -0.7664
  688MOL0     C94868   4.492   2.073   6.665 -0.0806  1.0229  0.5658
  688MOL0     C94869   4.450   1.943   6.733  0.5318  0.0616  0.6555
  688MOL0     C94870   4.500   1.928   6.864 -0.9920  0.0340  0.0719
  688MOL0     C94871   4.558   1.918   6.971 -0.0617 -0.0120  0.0562
  688MOL0     C94872   4.775   1.862   6.276  1.2250 -0.1148 -0.4689
  688MOL0     C94873   4.826   1.762   6.191 -0.1804  0.7776 -0.2316
  688MOL0     C94874   4.970   1.714   6.223 -0.5057  0.4359 -0.8726
  688MOL0     H94875   4.836   1.566   5.712  0.7889  0.2403  2.7860
  688MOL0     H94876   4.880   1.372   5.551 -2.0627  2.1079 -1.7205
  688MOL0     H94877   4.603   1.066   5.491  0.4990 -2.1966 -1.1724
  688MOL0     H94878   4.670   1.001   5.648 -0.1931 -0.6551 -0.9424
  688MOL0     H94879   4.815   0.871   5.532  0.0198 -1.9491 -1.5927
  688MOL0     H94880   4.669   0.835   5.454  1.0274 -0.3915 -1.5232
  688MOL0     H94881   4.705   1.023   5.280  0.4992  2.8499  1.4550
  688MOL0     H94882   4.865   1.039   5.339  2.1175 -2.3455 -1.8844
  688MOL0     H94883   4.904   0.798   5.285 -2.9908 -3.6415 -0.7072
  688MOL0     H94884   4.739   0.778   5.227  0.5036 -0.3628 -0.8449
  688MOL0     H94885   4.909   0.817   5.044 -0.2504 -0.7292  0.3863
  688MOL0     H94886   4.952   0.963   5.121  0.1606  0.1512 -1.1779
  688MOL0     H94887   4.657   0.919   5.052 -0.4788 -0.4623  0.9193
  688MOL0     H94888   4.759   1.069   5.078 -0.4259 -1.1080  1.6955
  688MOL0     H94889   4.894   0.953   4.868  1.6548  0.7205  0.2800
  688MOL0     H94890   4.765   1.080   4.850 -0.3806  0.4599  2.7997
  688MOL0     H94891   4.784   0.878   4.703 -1.7295 -0.1949 -1.2337
  688MOL0     H94892   4.715   0.775   4.831 -0.5090 -1.8713 -3.9036
  688MOL0     H94893   4.588   0.970   4.535 -0.0831 -0.6318 -0.8223
  688MOL0     H94894   4.285   1.106   4.540 -0.1876  0.3512  0.4959
  688MOL0     H94895   4.206   0.941   4.541 -0.9558  3.2146  0.1841
  688MOL0     H94896   4.309   1.073   4.333 -2.8366 -0.8973  1.4852
  688MOL0     H94897   4.448   0.965   4.371 -0.4820  0.6325 -2.1273
  688MOL0     H94898   4.302   0.784   4.399 -0.7004  2.7459  2.9392
  688MOL0     H94899   4.164   0.878   4.323  1.2985  0.3256  2.6836
  688MOL0     H94900   4.258   0.885   4.114 -0.4541 -0.2861  0.2300
  688MOL0     H94901   4.424   0.850   4.176  0.4821 -1.4561  1.1890
  688MOL0     H94902   4.469   0.544   4.027  1.1390  1.0420 -0.3742
  688MOL0     H94903   4.490   0.364   3.712 -2.3107 -4.6215  3.3034
  688MOL0     H94904   4.536   0.380   3.879  1.3394 -0.9517 -0.7681
  688MOL0     H94905   4.585   0.496   3.755  0.0923 -0.3307 -1.5411
  688MOL0     H94906   4.287   0.587   3.298  0.3674  0.3318  2.3143
  688MOL0     H94907   4.300   0.440   3.108 -0.2920 -0.5677  0.6704
  688MOL0     H94908   4.258   0.280   2.916  1.1677  0.2794  0.1966
  688MOL0     H94909   4.381   0.237   3.027  0.5706  3.0176 -4.0706
  688MOL0     H94910   4.416   0.078   2.906  0.9703  0.0835  2.1281
  688MOL0     H94911   4.279  -0.015   2.976 -1.6504  1.2945 -0.1578
  688MOL0     H94912   4.278   0.145   2.708 -0.3852  1.7159  1.4532
  688MOL0     H94913   4.136   0.085   2.799 -0.2257 -0.4457  2.1046
  688MOL0     H94914   4.253  -0.147   2.771  2.5580 -0.5997  0.3161
  688MOL0     H94915   4.373  -0.070   2.678  0.9185  0.5110 -0.5859
  688MOL0     H94916   4.070  -0.083   2.596  0.1196 -1.9145 -0.4554
  688MOL0     H94917   4.191   0.015   2.506 -3.1415  0.0526 -0.1630
  688MOL0     H94918   4.167  -0.272   2.510 -0.8613  0.9132  0.7497
  688MOL0     H94919   4.334  -0.195   2.488  0.8845 -2.9765 -2.3288
  688MOL0     H94920   4.218  -0.052   2.297  3.0965 -1.4055 -1.7559
  688MOL0     H94921   4.080  -0.161   2.316  0.1386 -0.1808  1.7373
  688MOL0     H94922   4.369  -0.241   2.260 -0.6575 -2.2964 -0.3548
  688MOL0     H94923   4.261  -0.220   2.133  3.3262 -0.1664 -0.9223
  688MOL0     H94924   4.041   0.158   3.318 -0.2570  0.0576  2.5407
  688MOL0     H94925   4.053   0.311   3.509  0.0167 -1.5550 -1.1178
  688MOL0     H94926   4.084   0.657   3.741 -1.0417  0.1608  1.6324
  688MOL0     H94927   4.112   0.750   3.959  0.1552  1.2672 -3.3978
  688MOL0     H94928   4.610   1.129   5.783  0.1369  0.9895 -0.1934
  688MOL0     H94929   4.568   1.316   5.931 -1.6970 -1.4653 -2.1421
  688MOL0     H94930   4.536   1.705   6.027  2.0466 -3.2012  1.0086
  688MOL0     H94931   4.467   1.900   6.159 -0.2684 -0.0056 -1.1560
  688MOL0     H94932   4.414   2.021   6.323 -0.9537  0.1600  0.3329
  688MOL0     H94933   4.420   1.891   6.442 -0.1203  0.2002  0.6442
  688MOL0     H94934   4.312   2.111   6.540 -0.1996  1.0861  4.2633
  688MOL0     H94935   4.466   2.193   6.495  1.5607 -0.6429  1.4356
  688MOL0     H94936   4.598   2.066   6.638 -0.5452 -1.5602 -0.9375
  688MOL0     H94937   4.476   2.158   6.731  3.9820  1.9924  0.5462
  688MOL0     H94938   4.487   1.857   6.676  0.5340  0.4176  0.1089
  688MOL0     H94939   4.341   1.933   6.738  0.3788  1.0764 -0.2253
  688MOL0     H94940   4.610   1.903   7.063  3.3445  1.4454 -1.4244
  688MOL0     H94941   4.842   1.907   6.349  1.2984 -0.4019 -0.3598
  688MOL0     H94942   4.969   1.611   6.260 -0.0537  0.7086 -0.0680
  688MOL0     H94943   5.023   1.715   6.128  1.2380 -0.8164  0.0383
  688MOL0     H94944   5.020   1.778   6.297 -2.9335  2.8825 -1.1721
  689MOL0     O94945   6.655   6.571   5.653  0.0011  0.2180 -0.2864
  689MOL0     C94946   6.780   6.560   5.659 -0.6057 -0.6942 -0.7015
  689MOL0     O94947   6.863   6.609   5.761 -0.0495 -0.3046 -0.5470
  689MOL0     C94948   6.807   6.692   5.857 -0.5870 -0.5200  0.0289
  689MOL0     C94949   6.707   6.786   5.845 -0.0881  0.2892  0.9820
  689MOL0     C94950   6.654   6.870   5.944 -0.5154  0.2653 -0.7670
  689MOL0     C94951   6.709   6.849   6.075  0.0771 -0.3051 -0.1947
  689MOL0     O94952   6.665   6.933   6.180 -0.1900  0.7123 -0.2577
  689MOL0     C94953   6.750   6.937   6.294 -0.0727  0.6831 -1.5797
  689MOL0     C94954   6.714   7.054   6.379  0.8645  0.2453 -0.4599
  689MOL0     C94955   6.598   7.024   6.481 -1.4857 -0.4111 -0.4443
  689MOL0     C94956   6.468   6.960   6.424 -0.6294  0.2631 -0.2297
  689MOL0     C94957   6.360   6.956   6.520 -0.9903  0.1845  0.0926
  689MOL0     C94958   6.295   7.085   6.579 -0.5689 -0.3368  0.7313
  689MOL0     C94959   6.214   7.169   6.475  1.1479 -0.3891 -0.9037
  689MOL0     C94960   6.133   7.080   6.383 -0.4182  0.2421 -0.1994
  689MOL0     N94961   6.018   7.010   6.453 -0.6919  0.0606  0.2609
  689MOL0     C94962   6.024   6.892   6.525 -0.1931 -0.0221 -0.1471
  689MOL0     C94963   5.893   6.864   6.549  0.8449 -0.9857  0.6893
  689MOL0     C94964   5.852   6.750   6.634 -1.0282  1.7127  1.1796
  689MOL0     C94965   5.707   6.704   6.614 -0.8637  0.3944  0.1762
  689MOL0     C94966   5.592   6.790   6.680 -0.0874  0.2313 -1.1489
  689MOL0     C94967   5.461   6.715   6.656 -0.5130  0.0541  0.7013
  689MOL0     O94968   5.357   6.816   6.655 -0.4634 -0.7023  0.2382
  689MOL0     C94969   5.293   6.858   6.771 -0.2486  0.8672 -0.1216
  689MOL0     C94970   5.171   6.915   6.746 -0.1861  0.1190 -0.2602
  689MOL0     C94971   5.100   6.965   6.850  1.0966  0.0174 -0.0678
  689MOL0     C94972   4.971   7.042   6.811  0.2836 -0.1883 -0.3654
  689MOL0     C94973   5.136   6.930   6.987 -0.0050  0.3593 -0.2682
  689MOL0     C94974   5.046   6.968   7.101  0.0825  0.3285  0.7637
  689MOL0     O94975   5.099   6.947   7.226  0.2649  0.4369  0.1665
  689MOL0     C94976   5.034   7.002   7.332  1.0134  0.2045 -0.8356
  689MOL0     C94977   5.090   7.111   7.400  0.2676  0.7253 -0.4375
  689MOL0     C94978   5.028   7.167   7.517  0.3654 -0.3831 -0.2879
  689MOL0     C94979   4.918   7.100   7.574  0.2961 -0.2069  0.2528
  689MOL0     O94980   4.866   7.136   7.687 -0.6999  0.8318 -1.3125
  689MOL0     C94981   4.920   7.251   7.768 -0.3221  0.0192  0.2781
  689MOL0     C94982   4.849   7.378   7.729  0.0843  0.0576 -0.1435
  689MOL0     C94983   4.873   7.496   7.831 -0.3706 -1.2206 -0.6110
  689MOL0     C94984   4.845   7.638   7.776 -0.4047  0.0108 -0.4997
  689MOL0     C94985   4.822   7.728   7.890  0.2988 -0.2649 -0.0495
  689MOL0     C94986   4.823   7.875   7.835 -0.4385 -0.0325  0.0646
  689MOL0     C94987   4.778   7.978   7.947  0.1284  0.7012  0.2929
  689MOL0     C94988   4.753   8.123   7.895  0.2755 -0.2122  0.8463
  689MOL0    Cl94989   4.662   8.146   7.748  0.0336  0.3133  0.4670
  689MOL0     C94990   4.883   6.986   7.519  0.7894  0.7100  0.4504
  689MOL0     C94991   4.933   6.932   7.401  0.2285 -0.1902 -0.7722
  689MOL0     O94992   4.925   7.001   7.089  0.1686 -0.2640 -0.0144
  689MOL0     C94993   5.261   6.875   7.001  0.6746  0.0766 -0.0372
  689MOL0     C94994   5.337   6.832   6.900  0.3208 -1.0952 -0.0751
  689MOL0     N94995   5.812   6.971   6.497 -0.1142  0.2915 -0.3371
  689MOL0     N94996   5.891   7.057   6.435 -0.2761 -0.6807 -0.5365
  689MOL0     C94997   6.801   6.743   6.097 -0.7530  0.2628  0.1364
  689MOL0     C94998   6.855   6.673   5.988 -0.0736  0.5987  0.3593
  689MOL0     C94999   6.854   6.478   5.554  0.5020  0.4364  0.2078
  689MOL0     C95000   6.993   6.481   5.557 -0.8536 -0.0898  0.3679
  689MOL0     C95001   7.080   6.381   5.496 -0.4205 -0.3097 -0.8414
  689MOL0     C95002   7.027   6.293   5.404 -0.6019 -0.0158 -0.3498
  689MOL0     O95003   7.108   6.227   5.321 -0.7860  0.5977 -0.5724
  689MOL0     C95004   7.092   6.088   5.338  1.0391  0.2600  0.3028
  689MOL0     C95005   7.154   6.033   5.469  0.0442 -0.3848 -1.9737
  689MOL0     C95006   7.306   6.046   5.482  0.2407 -0.2841  0.3979
  689MOL0     C95007   7.379   5.947   5.567  0.0866 -0.0202 -0.8223
  689MOL0     C95008   7.333   5.976   5.707 -0.6974 -0.2477  0.0483
  689MOL0     C95009   7.306   5.969   5.831 -0.2055 -0.8702  0.4318
  689MOL0     C95010   6.895   6.305   5.379 -0.0719 -0.0787  0.5646
  689MOL0     C95011   6.810   6.389   5.457 -0.2815  0.6338 -0.2481
  689MOL0     C95012   6.667   6.363   5.425  0.1425  0.1147 -1.0540
  689MOL0     H95013   6.672   6.812   5.745  4.0888  1.9400 -0.2667
  689MOL0     H95014   6.572   6.941   5.937  1.8179  3.0943 -1.1956
  689MOL0     H95015   6.854   6.951   6.261 -0.2865  3.7999 -1.2282
  689MOL0     H95016   6.742   6.851   6.360 -2.2141  1.4045 -0.8197
  689MOL0     H95017   6.795   7.088   6.443 -0.2772  1.3389  0.4578
  689MOL0     H95018   6.684   7.136   6.313 -0.1626 -1.1696 -1.8488
  689MOL0     H95019   6.633   6.962   6.564  1.7835 -0.3679 -1.6554
  689MOL0     H95020   6.584   7.127   6.515  0.4961 -0.6259  1.1947
  689MOL0     H95021   6.439   6.995   6.324  3.0911 -1.8938 -2.3121
  689MOL0     H95022   6.492   6.857   6.398  0.6489  0.8327 -1.4869
  689MOL0     H95023   6.381   6.897   6.609 -2.3229  1.6055  1.4192
  689MOL0     H95024   6.281   6.897   6.474 -1.1975  0.8620 -0.4464
  689MOL0     H95025   6.225   7.058   6.659  2.0030 -3.1266  2.2396
  689MOL0     H95026   6.363   7.157   6.626 -1.3015  1.0482 -0.2378
  689MOL0     H95027   6.290   7.232   6.428  0.0882  0.8180 -1.0637
  689MOL0     H95028   6.145   7.237   6.526  0.7142 -0.7676 -0.9789
  689MOL0     H95029   6.094   7.156   6.314 -0.1224  0.5087 -0.0729
  689MOL0     H95030   6.203   7.022   6.323 -0.1551 -1.6334  1.8097
  689MOL0     H95031   6.107   6.837   6.568  0.3952  1.7090  1.0674
  689MOL0     H95032   5.862   6.774   6.740 -1.5018 -1.0636  1.9496
  689MOL0     H95033   5.909   6.660   6.609 -4.1367  0.2341 -1.3741
  689MOL0     H95034   5.689   6.704   6.507 -0.8619 -0.6056  0.1717
  689MOL0     H95035   5.694   6.600   6.645 -0.1317  0.1711 -0.2463
  689MOL0     H95036   5.613   6.810   6.785  3.0271  0.4092 -1.7106
  689MOL0     H95037   5.597   6.884   6.623  1.5721  0.9258  0.0549
  689MOL0     H95038   5.461   6.673   6.555  3.4899  0.6882  0.2905
  689MOL0     H95039   5.454   6.639   6.735  0.6154 -2.0772 -1.1573
  689MOL0     H95040   5.143   6.943   6.645 -2.4138 -3.0688 -0.6625
  689MOL0     H95041   4.989   7.086   6.713 -0.3326  2.2726  0.5364
  689MOL0     H95042   4.936   7.119   6.880 -1.5895 -2.5370  1.5206
  689MOL0     H95043   4.892   6.968   6.794 -1.1835  1.4200 -0.8153
  689MOL0     H95044   5.179   7.159   7.360  1.6619 -1.4355 -0.1183
  689MOL0     H95045   5.065   7.265   7.544  2.4787 -1.4866  1.1275
  689MOL0     H95046   4.886   7.231   7.870 -0.1686  0.4599  0.4180
  689MOL0     H95047   5.027   7.272   7.759 -0.2784  0.7388  2.1214
  689MOL0     H95048   4.880   7.405   7.627 -0.7012  0.0574 -0.3912
  689MOL0     H95049   4.742   7.356   7.723 -0.7053  3.1731  0.5899
  689MOL0     H95050   4.980   7.488   7.853 -0.6303 -0.4112  1.0788
  689MOL0     H95051   4.820   7.480   7.926 -0.1803 -1.0463 -0.4771
  689MOL0     H95052   4.757   7.630   7.712 -2.1728 -1.5183  1.9468
  689MOL0     H95053   4.935   7.674   7.724 -1.0848  2.5199 -0.0423
  689MOL0     H95054   4.728   7.712   7.944 -0.9167 -1.4831 -2.3557
  689MOL0     H95055   4.896   7.718   7.971 -0.3812 -0.1564  0.5986
  689MOL0     H95056   4.749   7.897   7.757  2.6162  1.5468 -2.6107
  689MOL0     H95057   4.918   7.900   7.786 -1.4973 -1.9729 -3.3487
  689MOL0     H95058   4.850   7.977   8.029  1.4962 -1.1743 -0.8823
  689MOL0     H95059   4.680   7.951   7.987  1.0127 -0.4714  1.7749
  689MOL0     H95060   4.854   8.165   7.892  2.2982 -4.5756 -0.4647
  689MOL0     H95061   4.697   8.175   7.973  2.1035  2.4339  0.4942
  689MOL0     H95062   4.801   6.940   7.574  0.5491  1.7518  0.9873
  689MOL0     H95063   4.886   6.847   7.353 -3.5175  1.9020 -1.1470
  689MOL0     H95064   5.303   6.867   7.101 -0.6017  0.2772  0.5329
  689MOL0     H95065   5.433   6.784   6.913  1.0199  0.3746  0.4557
  689MOL0     H95066   6.849   6.713   6.190  1.5909  0.6501 -0.8598
  689MOL0     H95067   6.937   6.603   6.000  1.2479  2.1884  0.9179
  689MOL0     H95068   7.040   6.556   5.620 -2.2771 -0.2832  1.7245
  689MOL0     H95069   7.184   6.393   5.524 -0.9303  4.6810 -0.1306
  689MOL0     H95070   6.988   6.056   5.333  0.4584  1.7699  1.9433
  689MOL0     H95071   7.132   6.047   5.244  2.5781  2.8615 -0.2765
  689MOL0     H95072   7.116   5.930   5.480 -1.6302  0.4710  2.3004
  689MOL0     H95073   7.114   6.080   5.559  3.5887  0.2988 -0.6065
  689MOL0     H95074   7.345   6.036   5.380 -1.2696 -2.2188 -0.0496
  689MOL0     H95075   7.333   6.148   5.510  0.3016  0.8873 -3.3656
  689MOL0     H95076   7.489   5.942   5.568  0.0865 -0.2348 -1.7638
  689MOL0     H95077   7.345   5.844   5.553 -1.8254  0.7726 -2.2397
  689MOL0     H95078   7.271   5.970   5.932 -0.9286 -1.9498  0.2149
  689MOL0     H95079   6.863   6.269   5.282  2.0120  2.0349 -1.0454
  689MOL0     H95080   6.645   6.285   5.498  1.2032  1.3296  0.6408
  689MOL0     H95081   6.602   6.447   5.450  2.1516  0.9110  1.9639
  689MOL0     H95082   6.652   6.329   5.322  0.7084 -2.3031 -0.4050
  690MOL0     O95083   2.459  10.304   0.801 -0.8769  0.3176 -0.0772
  690MOL0     C95084   2.367  10.376   0.774  0.3031  0.4840 -0.3726
  690MOL0     O95085   2.238  10.344   0.802  0.6822 -0.8564 -0.2104
  690MOL0     C95086   2.219  10.252   0.898 -0.0519  0.8039  0.1774
  690MOL0     C95087   2.203  10.112   0.876 -0.0164 -1.0540  0.1387
  690MOL0     C95088   2.185  10.019   0.982  0.1658 -0.4956  0.1114
  690MOL0     C95089   2.200  10.063   1.108  0.2164  0.7438 -0.7145
  690MOL0     O95090   2.185   9.971   1.213 -0.0747 -0.0165  0.1331
  690MOL0     C95091   2.061   9.904   1.222 -0.4703 -0.0464  0.5622
  690MOL0     C95092   2.103   9.753   1.219 -0.2802 -0.2103  0.4187
  690MOL0     C95093   2.192   9.705   1.339 -0.4202  0.0534 -0.3304
  690MOL0     C95094   2.135   9.568   1.386  0.3558  1.4165  0.5709
  690MOL0     C95095   2.051   9.552   1.505 -0.3526  0.6046 -0.1499
  690MOL0     C95096   1.912   9.624   1.468 -0.6931 -0.5905  0.0848
  690MOL0     C95097   1.809   9.628   1.574  0.4054  0.1266 -0.0725
  690MOL0     C95098   1.757   9.488   1.605  0.6145 -0.0597  0.0184
  690MOL0     N95099   1.675   9.488   1.727 -0.5107  0.6585 -0.2423
  690MOL0     C95100   1.732   9.466   1.840  0.5282  0.3428 -0.0198
  690MOL0     C95101   1.622   9.463   1.925 -1.0193 -0.6311 -0.3790
  690MOL0     C95102   1.637   9.443   2.070  0.6895  0.2652  0.1782
  690MOL0     C95103   1.757   9.347   2.104  0.4301 -0.0209 -0.5631
  690MOL0     C95104   1.724   9.275   2.241  0.2735  0.5347 -0.4343
  690MOL0     C95105   1.692   9.383   2.354  0.2876  0.0948 -0.0353
  690MOL0     O95106   1.548   9.406   2.351 -0.1152 -0.3625 -0.3110
  690MOL0     C95107   1.506   9.508   2.420  0.8544 -0.2740 -0.4376
  690MOL0     C95108   1.401   9.594   2.376  0.1634  0.5423 -0.0858
  690MOL0     C95109   1.344   9.688   2.462  0.0155  0.9890  0.8573
  690MOL0     C95110   1.224   9.759   2.392 -0.3515  0.1706  0.3922
  690MOL0     C95111   1.406   9.719   2.585  0.0313 -0.4641 -0.5506
  690MOL0     C95112   1.369   9.844   2.662  0.6744  0.1442 -0.0854
  690MOL0     O95113   1.436   9.859   2.782 -0.6709 -0.0503 -0.0151
  690MOL0     C95114   1.372   9.938   2.869  0.3340  1.1355 -0.3233
  690MOL0     C95115   1.453  10.035   2.929  0.2819 -0.5197  0.1859
  690MOL0     C95116   1.409  10.123   3.022 -1.4589 -0.2036  0.0287
  690MOL0     C95117   1.282  10.107   3.072 -0.2683 -0.8290  0.2175
  690MOL0     O95118   1.230  10.193   3.164 -0.1886 -0.6293  0.6892
  690MOL0     C95119   1.311  10.256   3.266  1.1345  0.1208 -0.7266
  690MOL0     C95120   1.227  10.284   3.402 -0.4985 -0.1606 -0.1316
  690MOL0     C95121   1.097  10.368   3.374  0.2386  0.4433  0.1502
  690MOL0     C95122   0.962  10.285   3.382 -0.7214 -0.1132 -0.0590
  690MOL0     C95123   0.843  10.364   3.320  0.1196  0.7491 -0.3436
  690MOL0     C95124   0.805  10.487   3.404  0.3303 -1.1033  0.0412
  690MOL0     C95125   0.697  10.567   3.340 -0.4510  1.1242 -0.0238
  690MOL0     C95126   0.569  10.488   3.343 -0.0581  0.3301  0.2503
  690MOL0    Cl95127   0.424  10.597   3.333  0.2210 -0.1029  0.0467
  690MOL0     C95128   1.202  10.001   3.015  0.5409  0.0957  0.1218
  690MOL0     C95129   1.240   9.923   2.905  1.1939 -0.8343  0.1371
  690MOL0     O95130   1.285   9.923   2.621 -0.3133  0.2115 -0.0515
  690MOL0     C95131   1.515   9.637   2.632  0.6047  0.6489 -0.3761
  690MOL0     C95132   1.555   9.538   2.548 -0.0452  0.5202  0.1099
  690MOL0     N95133   1.508   9.481   1.851  0.6876  0.3371 -0.0645
  690MOL0     N95134   1.538   9.498   1.732  0.0206  0.2798  0.2016
  690MOL0     C95135   2.245  10.194   1.130 -0.0218  0.0366  0.3673
  690MOL0     C95136   2.238  10.295   1.029  0.5704 -0.1358 -0.3338
  690MOL0     C95137   2.390  10.518   0.739  0.1106  0.1361 -1.0870
  690MOL0     C95138   2.338  10.554   0.618  0.5804 -0.3465 -0.2702
  690MOL0     C95139   2.348  10.687   0.584 -0.5737 -1.0873 -0.3140
  690MOL0     C95140   2.422  10.780   0.661  0.5581 -0.8113 -0.4809
  690MOL0     O95141   2.426  10.910   0.609  0.0817 -0.1295 -0.4284
  690MOL0     C95142   2.329  11.007   0.655  0.2754  0.3077 -0.1736
  690MOL0     C95143   2.333  11.127   0.564 -0.6298  0.4804 -0.1172
  690MOL0     C95144   2.255  11.245   0.614  0.2359 -0.3512 -0.3211
  690MOL0     C95145   2.193  11.346   0.508 -0.3385 -0.0229  0.0152
  690MOL0     C95146   2.291  11.417   0.433 -0.6560  0.3681 -0.0664
  690MOL0     C95147   2.367  11.485   0.370 -1.1021 -0.1921  0.3082
  690MOL0     C95148   2.487  10.734   0.776 -0.6075 -0.0780  1.1594
  690MOL0     C95149   2.456  10.608   0.828 -0.6139  0.0575 -0.6585
  690MOL0     C95150   2.499  10.569   0.972  0.7777  0.1078 -0.1591
  690MOL0     H95151   2.194  10.062   0.780 -1.5178 -0.2322 -0.1821
  690MOL0     H95152   2.168   9.918   0.945 -1.6552 -0.4133  0.6526
  690MOL0     H95153   2.002   9.923   1.131 -0.9162  1.2342  1.0917
  690MOL0     H95154   2.004   9.938   1.309 -0.3958 -1.3508  1.1516
  690MOL0     H95155   2.011   9.694   1.210  1.1706 -2.9447  1.9518
  690MOL0     H95156   2.157   9.734   1.125  0.4219  0.0503  0.7684
  690MOL0     H95157   2.297   9.706   1.308 -0.6744  0.7238 -1.2025
  690MOL0     H95158   2.180   9.775   1.421 -1.6233  0.8628 -1.1596
  690MOL0     H95159   2.087   9.515   1.303  2.8107  1.5575 -1.0692
  690MOL0     H95160   2.228   9.512   1.401 -0.6300 -0.9488 -1.5117
  690MOL0     H95161   2.092   9.598   1.596 -1.6550  2.9543 -0.6734
  690MOL0     H95162   2.034   9.446   1.525 -3.1396  0.8900 -0.5191
  690MOL0     H95163   1.931   9.731   1.449 -0.2565 -0.6656  0.0960
  690MOL0     H95164   1.880   9.575   1.376  0.1216 -0.4540 -0.2848
  690MOL0     H95165   1.732   9.697   1.540 -1.4748 -1.6178  0.4650
  690MOL0     H95166   1.848   9.676   1.664  0.8230  0.7307 -0.5624
  690MOL0     H95167   1.687   9.465   1.524  1.7680 -2.0523 -0.4986
  690MOL0     H95168   1.840   9.418   1.618  1.6393  1.3423  1.2074
  690MOL0     H95169   1.837   9.456   1.865 -0.2694 -2.0646  2.8140
  690MOL0     H95170   1.546   9.398   2.110  1.4260 -0.9503  0.5391
  690MOL0     H95171   1.653   9.548   2.098 -0.6025  1.5221 -3.2526
  690MOL0     H95172   1.744   9.270   2.027  0.8979  1.8997 -2.6649
  690MOL0     H95173   1.861   9.379   2.108 -0.1305  1.8044  2.2941
  690MOL0     H95174   1.646   9.199   2.228 -0.7516  1.4145  0.4141
  690MOL0     H95175   1.808   9.219   2.284  0.9943  2.7206  1.2140
  690MOL0     H95176   1.729   9.359   2.454  0.7645  1.3996  0.1241
  690MOL0     H95177   1.745   9.478   2.342 -2.5330  2.5986  4.6599
  690MOL0     H95178   1.368   9.566   2.277  1.5434 -1.0173 -0.1294
  690MOL0     H95179   1.192   9.699   2.306  0.2040  1.5433 -0.8022
  690MOL0     H95180   1.247   9.856   2.349 -3.1832  0.5906 -0.3779
  690MOL0     H95181   1.143   9.779   2.463 -0.7275  0.7890 -0.2081
  690MOL0     H95182   1.560  10.037   2.913  0.7088  0.9347  2.6587
  690MOL0     H95183   1.470  10.201   3.067 -1.9426 -1.1817  2.5068
  690MOL0     H95184   1.384  10.192   3.317  2.6648  2.9850  0.9270
  690MOL0     H95185   1.370  10.341   3.233  3.7728 -1.9388 -1.7159
  690MOL0     H95186   1.204  10.188   3.450 -0.6792 -0.4696 -0.8151
  690MOL0     H95187   1.298  10.333   3.468  2.7617 -4.4070 -0.0550
  690MOL0     H95188   1.090  10.414   3.274  3.0528  0.2201 -0.2118
  690MOL0     H95189   1.096  10.450   3.446  1.8488 -0.1880  0.9281
  690MOL0     H95190   0.950  10.256   3.486 -2.1820  1.4308  0.2360
  690MOL0     H95191   0.978  10.195   3.321  2.2606  0.2366  0.0182
  690MOL0     H95192   0.852  10.397   3.217  0.5963  3.0643  0.3944
  690MOL0     H95193   0.755  10.300   3.311 -0.8297  1.6680  1.7685
  690MOL0     H95194   0.888  10.556   3.418 -1.2048  1.0128 -0.8395
  690MOL0     H95195   0.768  10.447   3.499  0.2746 -0.7230  0.1804
  690MOL0     H95196   0.737  10.585   3.239 -1.3514  3.2165 -0.0452
  690MOL0     H95197   0.706  10.663   3.391  2.9868  1.2034 -0.5423
  690MOL0     H95198   0.572  10.429   3.435 -0.3993 -1.2492 -0.7074
  690MOL0     H95199   0.571  10.411   3.265  1.6458 -1.5330  2.0166
  690MOL0     H95200   1.099   9.991   3.047  1.2978 -1.9711  2.2020
  690MOL0     H95201   1.173   9.855   2.854 -0.0862 -0.1179  0.7880
  690MOL0     H95202   1.571   9.648   2.724  0.5249 -1.4875 -0.0340
  690MOL0     H95203   1.638   9.475   2.581 -0.5814 -0.2755 -0.0314
  690MOL0     H95204   2.269  10.207   1.235 -4.2709 -0.1027  1.5389
  690MOL0     H95205   2.265  10.397   1.052 -1.9011  0.5577 -0.2002
  690MOL0     H95206   2.274  10.490   0.558 -0.5735  0.4117  0.1092
  690MOL0     H95207   2.301  10.728   0.495  0.9703  1.9260  0.1390
  690MOL0     H95208   2.232  10.957   0.654 -0.8730  2.4016 -0.7673
  690MOL0     H95209   2.355  11.042   0.756  3.6076  1.6967 -1.3530
  690MOL0     H95210   2.303  11.097   0.463 -2.3873 -0.1987  0.5613
  690MOL0     H95211   2.435  11.160   0.544 -1.1779  2.0660 -0.4256
  690MOL0     H95212   2.170  11.200   0.666 -0.8022 -1.0913 -2.5279
  690MOL0     H95213   2.320  11.303   0.680  0.3815 -2.8314  1.9171
  690MOL0     H95214   2.137  11.428   0.555  2.2006  2.8380 -1.5687
  690MOL0     H95215   2.118  11.290   0.451 -0.5690 -2.4599  2.5462
  690MOL0     H95216   2.430  11.546   0.307 -2.8064  0.9100 -0.3972
  690MOL0     H95217   2.546  10.800   0.840 -0.4649 -0.1409  1.0951
  690MOL0     H95218   2.538  10.654   1.028  0.9920 -1.5620  2.3510
  690MOL0     H95219   2.409  10.530   1.020 -1.5539  1.1110 -3.3468
  690MOL0     H95220   2.582  10.498   0.970  3.1249  2.7243 -0.1298
  691MOL0     O95221   4.868   0.772   2.888 -0.1008  0.3866  0.0024
  691MOL0     C95222   4.823   0.812   2.993 -0.7036  0.0278 -0.1581
  691MOL0     O95223   4.810   0.949   3.030  0.2655  0.7632  0.0236
  691MOL0     C95224   4.834   1.060   2.939  0.6763  0.1344  0.5652
  691MOL0     C95225   4.839   1.184   2.997  0.0448 -0.0049 -0.5415
  691MOL0     C95226   4.821   1.300   2.913 -0.0913 -0.0109 -0.3567
  691MOL0     C95227   4.834   1.290   2.773 -0.3770 -0.0010  0.8351
  691MOL0     O95228   4.824   1.408   2.702 -0.8155  0.4140  0.4908
  691MOL0     C95229   4.899   1.438   2.583  0.2416  0.5253  0.5964
  691MOL0     C95230   4.950   1.573   2.583  0.4149 -0.2271 -0.2470
  691MOL0     C95231   4.848   1.679   2.560 -0.3521  0.9695  0.5515
  691MOL0     C95232   4.908   1.826   2.588  0.4035 -0.7406  0.7299
  691MOL0     C95233   4.798   1.927   2.590 -0.4124 -0.2036  0.3154
  691MOL0     C95234   4.721   1.934   2.718 -0.2345 -0.8966  0.3458
  691MOL0     C95235   4.632   2.063   2.726  0.5638  0.3054 -0.5018
  691MOL0     C95236   4.561   2.082   2.854 -0.9956 -0.1263 -1.4438
  691MOL0     N95237   4.486   2.206   2.849 -0.8658  0.5395 -0.4595
  691MOL0     C95238   4.395   2.243   2.751  0.3607  0.2696 -0.3807
  691MOL0     C95239   4.330   2.355   2.800 -0.4460  0.6357  0.1366
  691MOL0     C95240   4.222   2.420   2.725 -0.4943  0.4031  0.6524
  691MOL0     C95241   4.085   2.363   2.750  0.1540 -0.3494  0.2042
  691MOL0     C95242   3.987   2.444   2.673 -0.2280 -0.4499 -0.5968
  691MOL0     C95243   3.847   2.394   2.708 -0.6722 -0.5364 -0.8124
  691MOL0     O95244   3.824   2.278   2.624  0.0829  0.2243  0.5953
  691MOL0     C95245   3.750   2.292   2.513  0.0282  0.3380  0.6315
  691MOL0     C95246   3.617   2.344   2.510  0.2003 -0.1348 -0.2024
  691MOL0     C95247   3.555   2.371   2.379  0.0835  0.4754  0.2520
  691MOL0     C95248   3.416   2.426   2.381  1.0449  1.0966 -0.1063
  691MOL0     C95249   3.613   2.352   2.256  0.1627  0.2718  0.3402
  691MOL0     C95250   3.559   2.388   2.120 -0.1970  0.9480 -0.4290
  691MOL0     O95251   3.647   2.372   2.018  0.1585  1.4368 -0.6339
  691MOL0     C95252   3.588   2.385   1.894 -0.4797  0.0221 -0.1541
  691MOL0     C95253   3.601   2.507   1.825 -0.1054  1.5802  0.0107
  691MOL0     C95254   3.532   2.536   1.706 -0.1079 -0.5532 -0.4908
  691MOL0     C95255   3.436   2.448   1.670 -0.4971  0.6628  0.9438
  691MOL0     O95256   3.368   2.480   1.556  0.4345 -0.0412 -0.3041
  691MOL0     C95257   3.232   2.425   1.538  0.4839 -0.8689  0.1200
  691MOL0     C95258   3.187   2.468   1.397 -0.4633  0.3091 -0.1896
  691MOL0     C95259   3.249   2.364   1.295 -0.2346  0.1826 -0.6639
  691MOL0     C95260   3.175   2.375   1.166  0.2889  0.4456  0.6291
  691MOL0     C95261   3.232   2.275   1.055  0.5070  0.3230  0.4825
  691MOL0     C95262   3.151   2.297   0.929  0.5642 -0.6503 -0.0049
  691MOL0     C95263   3.186   2.193   0.828 -0.0563 -0.3298  0.5351
  691MOL0     C95264   3.120   2.202   0.691 -0.7766 -0.1205 -0.6680
  691MOL0    Cl95265   3.163   2.357   0.622 -0.1650 -0.0699  0.4465
  691MOL0     C95266   3.423   2.324   1.736  0.6329  0.8670 -0.8131
  691MOL0     C95267   3.500   2.297   1.842 -0.2882 -0.4835 -0.7058
  691MOL0     O95268   3.446   2.431   2.107  0.3684  0.5102 -0.5872
  691MOL0     C95269   3.744   2.294   2.270 -0.9983 -0.1311 -0.4404
  691MOL0     C95270   3.816   2.281   2.390  0.1548 -0.1869 -0.5117
  691MOL0     N95271   4.395   2.383   2.919  0.6606  0.3630  0.3510
  691MOL0     N95272   4.490   2.304   2.951  0.0204  0.5580 -0.1649
  691MOL0     C95273   4.857   1.174   2.718 -0.2353 -0.8968 -0.3367
  691MOL0     C95274   4.846   1.061   2.795 -0.4490  0.6820 -0.5310
  691MOL0     C95275   4.788   0.707   3.094  0.3474  0.2803  0.8385
  691MOL0     C95276   4.827   0.578   3.062 -0.3725 -0.0361 -0.2194
  691MOL0     C95277   4.774   0.462   3.119 -0.5243 -0.2992 -0.9836
  691MOL0     C95278   4.673   0.485   3.216  0.7102 -0.7792  0.7939
  691MOL0     O95279   4.620   0.385   3.289 -0.1752  0.1738 -0.0304
  691MOL0     C95280   4.683   0.260   3.294 -0.2093 -0.0082 -0.0378
  691MOL0     C95281   4.614   0.174   3.401 -0.6095 -0.4127 -0.6450
  691MOL0     C95282   4.474   0.133   3.352  1.0005  0.1068 -0.2610
  691MOL0     C95283   4.411   0.032   3.445  0.1318 -0.4715  0.1141
  691MOL0     C95284   4.373   0.073   3.586  0.3381 -0.6191 -1.0292
  691MOL0     C95285   4.351   0.119   3.697  0.2257  0.5802  0.4416
  691MOL0     C95286   4.635   0.612   3.253 -0.3462 -0.4245 -0.9756
  691MOL0     C95287   4.695   0.726   3.199 -0.6441  1.0666  0.9778
  691MOL0     C95288   4.649   0.860   3.255 -0.8844  0.1043  0.4818
  691MOL0     H95289   4.854   1.184   3.105  0.1956 -3.4678 -0.4589
  691MOL0     H95290   4.819   1.390   2.973 -0.1169 -1.6007  2.1504
  691MOL0     H95291   4.832   1.426   2.497 -1.9671  0.3530  2.2697
  691MOL0     H95292   4.975   1.360   2.572 -1.5889 -1.3030  0.3044
  691MOL0     H95293   4.988   1.591   2.684 -0.8092  1.6861 -0.0639
  691MOL0     H95294   5.037   1.580   2.517 -0.4647  0.3770 -1.3707
  691MOL0     H95295   4.791   1.656   2.469 -0.4063 -0.6367  0.9665
  691MOL0     H95296   4.780   1.660   2.643 -1.9291 -1.8636 -1.2530
  691MOL0     H95297   4.973   1.840   2.676  3.0897  3.6229 -1.6032
  691MOL0     H95298   4.959   1.859   2.498 -2.5401  0.4503 -0.6186
  691MOL0     H95299   4.743   1.908   2.498  0.3113  0.8205 -0.3534
  691MOL0     H95300   4.838   2.021   2.552  1.7143 -1.7042 -1.4204
  691MOL0     H95301   4.654   1.849   2.732  0.0850 -1.1601  0.2935
  691MOL0     H95302   4.802   1.942   2.791  2.1280 -2.8499 -1.8761
  691MOL0     H95303   4.557   2.058   2.646 -0.1278  1.1142  0.0822
  691MOL0     H95304   4.700   2.147   2.712 -1.7012  2.3041 -0.0629
  691MOL0     H95305   4.491   2.004   2.882 -1.6897  1.5765  2.1701
  691MOL0     H95306   4.637   2.084   2.932  0.1023 -2.5969 -2.3675
  691MOL0     H95307   4.363   2.180   2.668  0.7725 -1.1172  0.4784
  691MOL0     H95308   4.248   2.418   2.619 -1.5740  2.1333  0.3223
  691MOL0     H95309   4.220   2.527   2.746 -0.2370  1.0497 -2.2030
  691MOL0     H95310   4.090   2.260   2.713  0.5394 -0.3795  0.3366
  691MOL0     H95311   4.069   2.377   2.857 -1.2407 -1.1238  0.1147
  691MOL0     H95312   3.994   2.547   2.709  1.1574 -0.7167 -0.0592
  691MOL0     H95313   4.003   2.448   2.565 -2.4067 -0.8379 -0.9866
  691MOL0     H95314   3.842   2.387   2.817  0.3813  1.8488 -0.5543
  691MOL0     H95315   3.785   2.481   2.683  4.1409  3.0078 -1.9980
  691MOL0     H95316   3.564   2.367   2.601  1.0133  3.8939 -0.5955
  691MOL0     H95317   3.344   2.368   2.323 -1.0251  3.3198  0.1192
  691MOL0     H95318   3.404   2.528   2.343 -0.5840  0.4101 -1.5740
  691MOL0     H95319   3.381   2.426   2.484 -0.9744  1.3354 -0.7651
  691MOL0     H95320   3.678   2.576   1.857  2.2721  0.3588 -2.6426
  691MOL0     H95321   3.543   2.624   1.644 -0.9162 -1.9056 -2.6572
  691MOL0     H95322   3.222   2.316   1.540 -1.8727 -0.7359 -0.6653
  691MOL0     H95323   3.152   2.465   1.601 -0.4723 -0.7805 -1.1086
  691MOL0     H95324   3.077   2.466   1.393 -1.0868  1.4786  6.0842
  691MOL0     H95325   3.221   2.572   1.388 -0.1435  0.2653  0.4729
  691MOL0     H95326   3.241   2.262   1.335  1.0267 -0.4356 -1.9054
  691MOL0     H95327   3.353   2.395   1.282  0.2580 -1.1222  0.0195
  691MOL0     H95328   3.182   2.477   1.129  4.2403  0.3454  0.7213
  691MOL0     H95329   3.071   2.352   1.191  0.8503 -3.2942  0.2258
  691MOL0     H95330   3.335   2.303   1.031  0.1124 -0.0745 -1.8898
  691MOL0     H95331   3.233   2.172   1.091 -0.4423  0.2038  0.2113
  691MOL0     H95332   3.172   2.393   0.880 -0.0498 -0.4835  0.0434
  691MOL0     H95333   3.045   2.311   0.955  0.3719  0.4058 -1.2871
  691MOL0     H95334   3.166   2.095   0.874 -1.1067 -0.3154  0.1368
  691MOL0     H95335   3.293   2.195   0.807 -0.3870 -1.2953 -1.5173
  691MOL0     H95336   3.012   2.212   0.699 -0.5800  2.2234  0.0403
  691MOL0     H95337   3.135   2.115   0.627 -0.1662 -0.7449  0.2993
  691MOL0     H95338   3.338   2.262   1.709  1.0952  0.0206 -0.3744
  691MOL0     H95339   3.486   2.204   1.897 -1.0038 -0.4824 -0.8791
  691MOL0     H95340   3.798   2.285   2.176 -0.2102 -2.5114  0.1890
  691MOL0     H95341   3.912   2.232   2.390  1.7282  2.6592 -1.0945
  691MOL0     H95342   4.871   1.160   2.611  1.5366 -3.3912  0.1351
  691MOL0     H95343   4.849   0.958   2.760  1.8997 -0.0292  1.4384
  691MOL0     H95344   4.910   0.572   2.993 -1.6387  2.5556 -2.1314
  691MOL0     H95345   4.822   0.370   3.089 -0.4410 -1.5888  2.5799
  691MOL0     H95346   4.697   0.216   3.195  0.9306  0.8074 -0.2654
  691MOL0     H95347   4.780   0.280   3.342  0.4707  1.3620 -1.8604
  691MOL0     H95348   4.596   0.240   3.487  2.2792  2.6699 -2.1631
  691MOL0     H95349   4.673   0.084   3.418 -0.3315 -0.3093 -1.0472
  691MOL0     H95350   4.404   0.215   3.337  0.3324 -0.1677  1.1704
  691MOL0     H95351   4.499   0.091   3.253  2.2203 -1.3152  0.5937
  691MOL0     H95352   4.463  -0.064   3.450 -0.2066 -0.6833 -0.4005
  691MOL0     H95353   4.319   0.014   3.389 -0.7918  2.9537  0.2677
  691MOL0     H95354   4.320   0.159   3.791  0.1684  2.4326 -0.3293
  691MOL0     H95355   4.558   0.622   3.330 -3.1935  0.3437 -3.7043
  691MOL0     H95356   4.707   0.947   3.224 -1.8974  1.0178  1.0812
  691MOL0     H95357   4.549   0.886   3.218 -0.4396  3.3376  1.2843
  691MOL0     H95358   4.647   0.859   3.364  0.5953 -1.3987  0.5509
  692MOL0     O95359   1.372   7.603   4.368 -0.0766  0.0906 -0.3478
  692MOL0     C95360   1.485   7.588   4.417  0.5145  0.2868  0.5420
  692MOL0     O95361   1.589   7.522   4.354  1.0737 -0.1181 -0.6403
  692MOL0     C95362   1.583   7.474   4.224 -0.9209  0.2077  0.5336
  692MOL0     C95363   1.504   7.528   4.117 -0.2950 -0.1273  0.4545
  692MOL0     C95364   1.488   7.454   3.997 -0.6649 -0.4425  0.3086
  692MOL0     C95365   1.553   7.339   3.974  0.2663  0.3466  0.6665
  692MOL0     O95366   1.573   7.273   3.855  0.6920 -0.3657  0.5440
  692MOL0     C95367   1.452   7.217   3.793  1.0118 -0.6174  0.0486
  692MOL0     C95368   1.489   7.132   3.672 -0.1425 -0.0140  0.1776
  692MOL0     C95369   1.565   7.006   3.715  0.6384  0.0355 -0.9387
  692MOL0     C95370   1.603   6.927   3.588  0.4379 -0.7722  0.3151
  692MOL0     C95371   1.716   6.820   3.610  0.7023 -0.2183 -0.0878
  692MOL0     C95372   1.711   6.694   3.524  0.2289  0.0389 -0.2959
  692MOL0     C95373   1.837   6.603   3.535  0.0047 -0.3702  0.3432
  692MOL0     C95374   1.801   6.452   3.489  0.8980  0.4152  0.4916
  692MOL0     N95375   1.891   6.354   3.512 -0.1966 -0.5302 -0.3365
  692MOL0     C95376   1.957   6.332   3.635 -0.4324  0.2629  0.6025
  692MOL0     C95377   2.054   6.238   3.599 -0.3874  0.3453 -0.0919
  692MOL0     C95378   2.169   6.168   3.666 -0.0450 -0.4917  0.0446
  692MOL0     C95379   2.291   6.259   3.654  0.2852 -0.2799  0.3136
  692MOL0     C95380   2.392   6.238   3.757 -0.2209  0.4458  1.1902
  692MOL0     C95381   2.534   6.285   3.709  0.7151  1.1500 -0.0436
  692MOL0     O95382   2.623   6.242   3.806 -0.5907 -0.6584 -0.7357
  692MOL0     C95383   2.691   6.346   3.862 -0.9716  0.2796 -0.0037
  692MOL0     C95384   2.832   6.343   3.853  0.6237 -0.9771  0.1097
  692MOL0     C95385   2.906   6.438   3.919 -0.0312  0.0134 -0.1352
  692MOL0     C95386   3.064   6.408   3.914  0.5419 -0.2015 -0.4610
  692MOL0     C95387   2.847   6.557   3.985 -0.6433 -0.0946  0.0192
  692MOL0     C95388   2.921   6.660   4.064  0.2633  0.4546 -0.5932
  692MOL0     O95389   2.835   6.726   4.150  0.3685 -0.7115 -0.4852
  692MOL0     C95390   2.874   6.821   4.243 -0.5636 -0.4495 -0.5159
  692MOL0     C95391   2.772   6.891   4.313  0.1893 -0.4867 -0.5980
  692MOL0     C95392   2.796   6.988   4.409  0.2647 -0.0051  0.4671
  692MOL0     C95393   2.929   7.007   4.454 -0.8776  0.6411  1.2067
  692MOL0     O95394   2.971   7.091   4.559 -0.1004 -0.0247  0.1153
  692MOL0     C95395   2.878   7.173   4.621 -0.0890 -0.7067 -0.7263
  692MOL0     C95396   2.947   7.238   4.732 -0.5365 -0.3632  0.1890
  692MOL0     C95397   2.853   7.301   4.845  0.1684  0.1887  0.5933
  692MOL0     C95398   2.803   7.210   4.960 -0.6974  0.0960 -1.0689
  692MOL0     C95399   2.672   7.132   4.931 -0.5837 -0.0994 -0.0058
  692MOL0     C95400   2.639   7.028   5.049 -0.3788 -0.1824  0.5512
  692MOL0     C95401   2.600   7.106   5.174 -0.4513  0.3950 -0.4058
  692MOL0     C95402   2.555   7.000   5.273  0.2022  0.3327 -0.4735
  692MOL0    Cl95403   2.518   7.084   5.432 -0.5086 -0.3463  0.3796
  692MOL0     C95404   3.030   6.938   4.391  0.4760 -0.9108 -0.5445
  692MOL0     C95405   3.009   6.844   4.290  1.2235 -0.0906  0.4513
  692MOL0     O95406   3.040   6.675   4.052 -0.3008  0.0785  0.1275
  692MOL0     C95407   2.707   6.544   3.997  1.1057 -0.3620 -0.1136
  692MOL0     C95408   2.633   6.447   3.933  0.5191  0.6706  0.5853
  692MOL0     N95409   2.046   6.219   3.462 -0.1684 -0.7244  0.3046
  692MOL0     N95410   1.955   6.300   3.416  0.8435  0.0821  0.5018
  692MOL0     C95411   1.640   7.292   4.077 -0.0661  0.7243  1.2268
  692MOL0     C95412   1.662   7.353   4.196  0.3374 -1.0847  0.6475
  692MOL0     C95413   1.509   7.616   4.552 -0.5038  0.3976 -0.1038
  692MOL0     C95414   1.543   7.511   4.650  0.8954  0.9082  0.6872
  692MOL0     C95415   1.581   7.535   4.783  0.1221  0.1702  0.7097
  692MOL0     C95416   1.578   7.664   4.824  0.4319 -0.6347 -0.1623
  692MOL0     O95417   1.584   7.675   4.961  0.7438 -0.4915 -0.2860
  692MOL0     C95418   1.565   7.815   5.019  0.4311  0.0525  0.1767
  692MOL0     C95419   1.623   7.813   5.167 -0.7933 -0.4629  0.0422
  692MOL0     C95420   1.777   7.821   5.176  0.1737  0.4879  0.7600
  692MOL0     C95421   1.825   7.855   5.314 -0.3311  0.4481 -0.2052
  692MOL0     C95422   1.968   7.864   5.322 -0.3408  0.8852  0.3612
  692MOL0     C95423   2.094   7.857   5.315  0.4370 -1.3144 -1.5741
  692MOL0     C95424   1.565   7.767   4.728 -0.6481 -0.0644  0.3044
  692MOL0     C95425   1.528   7.747   4.596 -1.6202  0.1114  0.6637
  692MOL0     C95426   1.527   7.866   4.492  0.0236  0.3059 -1.1582
  692MOL0     H95427   1.447   7.620   4.124 -0.1852 -0.0551  0.4008
  692MOL0     H95428   1.429   7.499   3.917  0.8793  2.2175  0.5439
  692MOL0     H95429   1.388   7.299   3.759  1.5931 -0.4114 -0.5896
  692MOL0     H95430   1.407   7.147   3.863  2.9862 -3.0212 -0.9363
  692MOL0     H95431   1.395   7.103   3.623 -0.7378  0.0418  1.2505
  692MOL0     H95432   1.545   7.184   3.594  0.3552 -2.8449 -1.5377
  692MOL0     H95433   1.663   7.030   3.758  1.0582  1.4091 -2.5512
  692MOL0     H95434   1.506   6.944   3.784 -2.0798  1.9122 -1.3860
  692MOL0     H95435   1.513   6.874   3.556 -1.2096  0.5114  2.5230
  692MOL0     H95436   1.619   7.001   3.509 -0.6863  1.5525  2.1276
  692MOL0     H95437   1.724   6.788   3.714 -1.4122 -0.2869  0.0971
  692MOL0     H95438   1.812   6.871   3.597  1.4004 -0.5954  2.9047
  692MOL0     H95439   1.614   6.643   3.532  0.6504 -0.9054 -0.9247
  692MOL0     H95440   1.713   6.744   3.427 -1.0554  1.6536  0.4587
  692MOL0     H95441   1.869   6.604   3.639 -1.6761 -0.3837  0.8833
  692MOL0     H95442   1.926   6.646   3.488 -0.3018 -1.2578 -1.1134
  692MOL0     H95443   1.706   6.421   3.534 -0.2630  0.0673 -2.0464
  692MOL0     H95444   1.795   6.460   3.380  4.4576  1.6176  0.2540
  692MOL0     H95445   1.928   6.367   3.733 -0.3545  1.9869  0.0374
  692MOL0     H95446   2.187   6.073   3.615 -3.9382 -1.4246  0.0919
  692MOL0     H95447   2.145   6.161   3.773  0.9059 -0.9519  0.2368
  692MOL0     H95448   2.340   6.251   3.557  0.5089  1.5727  0.2383
  692MOL0     H95449   2.246   6.358   3.668 -2.3044 -1.0086 -1.9584
  692MOL0     H95450   2.357   6.288   3.848  1.1518  3.4615  0.1868
  692MOL0     H95451   2.394   6.130   3.774 -2.0370  0.5124  2.0525
  692MOL0     H95452   2.568   6.237   3.617  0.8342 -1.2794  1.1782
  692MOL0     H95453   2.521   6.393   3.699 -3.2938  0.8451  0.3175
  692MOL0     H95454   2.869   6.253   3.805 -1.2466 -0.4894 -2.4302
  692MOL0     H95455   3.094   6.434   3.812  0.5557 -1.8804 -0.9186
  692MOL0     H95456   3.069   6.300   3.904 -2.6427 -0.4981 -0.0224
  692MOL0     H95457   3.131   6.452   3.989  0.3153  1.5539 -1.2440
  692MOL0     H95458   2.668   6.867   4.298  0.0323 -0.0148 -0.3009
  692MOL0     H95459   2.713   7.031   4.463  1.6019  0.3738  2.3248
  692MOL0     H95460   2.837   7.255   4.562 -4.4601 -1.1012  1.3382
  692MOL0     H95461   2.793   7.116   4.661 -0.0925  0.8132  1.6359
  692MOL0     H95462   3.017   7.176   4.789 -0.5041  0.0158  0.5650
  692MOL0     H95463   3.003   7.316   4.680 -0.6769 -1.1476 -1.1994
  692MOL0     H95464   2.773   7.359   4.798 -1.7205 -1.8516  1.0738
  692MOL0     H95465   2.923   7.365   4.899 -0.5494  0.9506  0.6471
  692MOL0     H95466   2.796   7.273   5.049  1.6591 -2.6159  1.2026
  692MOL0     H95467   2.883   7.137   4.973  0.5316  1.6522  0.6379
  692MOL0     H95468   2.587   7.201   4.932 -1.2084 -0.8223  2.2821
  692MOL0     H95469   2.669   7.079   4.835 -3.0960  0.2166 -0.1609
  692MOL0     H95470   2.718   6.954   5.067 -1.0288 -1.7943 -2.5438
  692MOL0     H95471   2.555   6.972   5.008 -0.2072  1.2917 -2.0624
  692MOL0     H95472   2.518   7.175   5.156 -1.6083 -1.1157 -1.2137
  692MOL0     H95473   2.691   7.155   5.211  0.8549 -1.2247 -1.3037
  692MOL0     H95474   2.635   6.928   5.290 -0.1068 -0.4548 -2.1986
  692MOL0     H95475   2.474   6.937   5.234  0.4713 -0.9911  1.0010
  692MOL0     H95476   3.130   6.966   4.421  0.1520 -0.7362  0.4236
  692MOL0     H95477   3.091   6.792   4.243  0.9437 -1.5325  1.4903
  692MOL0     H95478   2.645   6.595   4.070  1.7588  1.1466 -0.5773
  692MOL0     H95479   2.525   6.436   3.932  0.3252  2.4392  0.2197
  692MOL0     H95480   1.701   7.204   4.060  1.2808  1.0849  3.6422
  692MOL0     H95481   1.741   7.319   4.263  1.4507 -2.8890 -1.4476
  692MOL0     H95482   1.548   7.405   4.625 -0.4488  1.4386 -2.2305
  692MOL0     H95483   1.590   7.452   4.852 -0.6311 -0.5432 -0.0291
  692MOL0     H95484   1.617   7.893   4.963 -0.7501  1.5237  1.0620
  692MOL0     H95485   1.463   7.854   5.016  0.9408  1.3697 -1.1820
  692MOL0     H95486   1.583   7.725   5.219  1.2998 -1.0881  0.7216
  692MOL0     H95487   1.577   7.890   5.229  2.8653  1.0588  1.1474
  692MOL0     H95488   1.811   7.722   5.144  0.3885  0.6692  0.4304
  692MOL0     H95489   1.809   7.899   5.107 -1.3973 -0.9625 -1.7357
  692MOL0     H95490   1.811   7.765   5.374  1.1073  2.0022  2.6897
  692MOL0     H95491   1.778   7.947   5.351 -0.3014 -0.0191  1.0384
  692MOL0     H95492   2.197   7.856   5.345  0.0916  1.3507  0.1418
  692MOL0     H95493   1.602   7.865   4.759 -0.5473 -0.0342  0.0899
  692MOL0     H95494   1.428   7.913   4.496 -1.2231 -2.0508 -2.2994
  692MOL0     H95495   1.595   7.948   4.519 -1.4293  0.7003  1.6439
  692MOL0     H95496   1.543   7.839   4.387 -0.5929  1.1457 -1.4772
  693MOL0     O95497   8.136   4.710   4.190 -0.6682 -0.5765 -0.2154
  693MOL0     C95498   8.225   4.691   4.281  0.3036  0.8886  0.3198
  693MOL0     O95499   8.302   4.567   4.293  0.7894  0.3197  0.1394
  693MOL0     C95500   8.353   4.524   4.175 -0.1940 -0.1172  0.3978
  693MOL0     C95501   8.488   4.489   4.162 -0.4128 -0.0461  0.7206
  693MOL0     C95502   8.546   4.428   4.049  0.1271  0.8046 -0.2251
  693MOL0     C95503   8.456   4.392   3.948  0.1367  0.2584 -0.3131
  693MOL0     O95504   8.515   4.342   3.839  0.1421 -0.7029  0.4548
  693MOL0     C95505   8.446   4.226   3.781  0.2763 -0.2037 -0.1883
  693MOL0     C95506   8.519   4.173   3.655  0.6640  0.7497 -0.0059
  693MOL0     C95507   8.518   4.281   3.549 -0.7934 -1.2587 -0.8707
  693MOL0     C95508   8.507   4.230   3.405 -0.1098 -0.2454 -0.0086
  693MOL0     C95509   8.391   4.285   3.330  0.5669  0.6627  0.2510
  693MOL0     C95510   8.262   4.229   3.398 -0.1264 -0.0018 -0.1240
  693MOL0     C95511   8.138   4.293   3.329  0.0008  0.7416 -0.4094
  693MOL0     C95512   8.112   4.437   3.379  0.0032  0.3946 -0.3510
  693MOL0     N95513   7.972   4.485   3.360  0.8801 -0.3655 -0.1264
  693MOL0     C95514   7.922   4.553   3.257  0.7905  0.0515 -0.1994
  693MOL0     C95515   7.799   4.588   3.282  0.7094  0.1427 -0.7196
  693MOL0     C95516   7.701   4.675   3.198  0.2049  1.2766 -0.2253
  693MOL0     C95517   7.552   4.654   3.226 -0.1331 -0.3448  0.0071
  693MOL0     C95518   7.517   4.723   3.356  0.9358 -0.3413  0.1891
  693MOL0     C95519   7.375   4.699   3.414  0.4150 -0.1912 -0.3686
  693MOL0     O95520   7.279   4.689   3.310  0.3811 -0.6952  0.5786
  693MOL0     C95521   7.147   4.676   3.342  0.1587 -0.0854  0.4765
  693MOL0     C95522   7.061   4.652   3.229  0.3740 -0.1136 -0.0918
  693MOL0     C95523   6.920   4.676   3.238 -0.1129 -1.6138 -0.1414
  693MOL0     C95524   6.841   4.654   3.108  0.3425 -0.7943  0.4337
  693MOL0     C95525   6.861   4.706   3.364 -0.0130  0.9272 -0.0564
  693MOL0     C95526   6.709   4.729   3.380 -0.0705 -1.0485  0.2313
  693MOL0     O95527   6.624   4.717   3.273 -0.3877  0.4045 -0.0776
  693MOL0     C95528   6.488   4.733   3.293 -0.1313  0.1424  0.3556
  693MOL0     C95529   6.423   4.832   3.379  0.5194 -0.0656 -1.1340
  693MOL0     C95530   6.284   4.816   3.412  0.2988  0.2220 -0.1557
  693MOL0     C95531   6.209   4.723   3.345  0.4940 -0.2570  0.8654
  693MOL0     O95532   6.074   4.712   3.360 -0.5451  0.0201  0.1548
  693MOL0     C95533   6.032   4.705   3.500  0.5871  0.5473  0.2979
  693MOL0     C95534   5.879   4.694   3.504  0.5678  0.0768  0.1048
  693MOL0     C95535   5.810   4.824   3.480 -0.2996  0.1164 -0.1588
  693MOL0     C95536   5.665   4.842   3.537 -1.0880  0.0416  0.6505
  693MOL0     C95537   5.605   4.986   3.509 -0.4368  0.0129  0.5946
  693MOL0     C95538   5.457   4.986   3.524  0.1361  0.3533 -0.0999
  693MOL0     C95539   5.388   4.924   3.401 -0.0885 -0.0865 -1.4107
  693MOL0     C95540   5.246   4.980   3.399  0.4129  0.7958  0.2970
  693MOL0    Cl95541   5.164   4.937   3.240 -0.1727  0.2595  0.1508
  693MOL0     C95542   6.270   4.648   3.245  0.8307  0.3104  0.5454
  693MOL0     C95543   6.406   4.652   3.213 -0.2711 -0.6237  0.7681
  693MOL0     O95544   6.670   4.762   3.491 -0.1006 -0.2996 -0.3960
  693MOL0     C95545   6.951   4.718   3.477 -0.6751 -0.2162  0.7347
  693MOL0     C95546   7.090   4.687   3.473  0.4829 -0.3531  0.0200
  693MOL0     N95547   7.768   4.531   3.405  0.6189 -0.2503  0.5597
  693MOL0     N95548   7.877   4.481   3.448 -0.1833  0.2571 -0.1069
  693MOL0     C95549   8.317   4.406   3.961 -0.3974  0.2739 -0.3382
  693MOL0     C95550   8.262   4.475   4.069 -0.3698 -0.0821 -0.1897
  693MOL0     C95551   8.263   4.794   4.379 -0.0197 -1.2220  1.0432
  693MOL0     C95552   8.357   4.760   4.470 -0.4388 -0.3197 -0.1562
  693MOL0     C95553   8.435   4.852   4.538  0.7458 -0.7739 -0.2135
  693MOL0     C95554   8.386   4.981   4.545  0.8998 -0.6794  0.6525
  693MOL0     O95555   8.453   5.057   4.629 -0.3760 -0.5343 -0.4013
  693MOL0     C95556   8.399   5.190   4.672 -0.6790 -0.3117  0.2501
  693MOL0     C95557   8.482   5.247   4.796 -0.2650 -0.6987 -0.5519
  693MOL0     C95558   8.425   5.348   4.891  0.4535 -0.2410  1.3192
  693MOL0     C95559   8.523   5.425   4.974 -0.2616  0.3804  0.6788
  693MOL0     C95560   8.468   5.548   5.029 -0.2704  0.4656  0.3045
  693MOL0     C95561   8.408   5.637   5.085 -0.4526  0.5188 -0.3969
  693MOL0     C95562   8.271   5.021   4.474 -0.2844 -0.5484 -0.9664
  693MOL0     C95563   8.221   4.931   4.381  1.0972  0.3509 -0.2063
  693MOL0     C95564   8.124   4.994   4.287 -0.1841 -0.6389  0.3686
  693MOL0     H95565   8.551   4.505   4.249  1.4581 -1.9576 -0.1973
  693MOL0     H95566   8.652   4.406   4.047 -0.1135 -0.9877  2.3049
  693MOL0     H95567   8.342   4.249   3.759  0.1479  0.3652  0.9402
  693MOL0     H95568   8.450   4.141   3.850 -0.4298  0.4994  0.7540
  693MOL0     H95569   8.617   4.145   3.695 -0.6506 -3.1132  0.9023
  693MOL0     H95570   8.467   4.086   3.615 -0.5306  1.5003 -0.1417
  693MOL0     H95571   8.448   4.362   3.569  1.4119  0.0256  2.6845
  693MOL0     H95572   8.608   4.343   3.558 -2.6284  1.3574  0.3522
  693MOL0     H95573   8.600   4.248   3.350  0.4855 -1.8121  0.4461
  693MOL0     H95574   8.490   4.123   3.391 -1.6932  0.0738 -0.6868
  693MOL0     H95575   8.399   4.241   3.230  1.8904  0.0156  0.6217
  693MOL0     H95576   8.402   4.394   3.332 -2.1716  0.9991  0.6844
  693MOL0     H95577   8.259   4.119   3.391 -0.4299 -0.0411  0.5435
  693MOL0     H95578   8.254   4.253   3.504 -1.6718 -0.1667 -0.1790
  693MOL0     H95579   8.057   4.220   3.341  0.5152  0.4851  1.9338
  693MOL0     H95580   8.157   4.287   3.221 -1.4776  0.8247 -0.6976
  693MOL0     H95581   8.125   4.438   3.487  0.9899 -2.5855 -0.3481
  693MOL0     H95582   8.183   4.511   3.339 -0.9639  1.2721 -0.5021
  693MOL0     H95583   7.978   4.586   3.171  2.2423 -0.5970  0.4559
  693MOL0     H95584   7.717   4.657   3.092  1.7256 -0.3029  0.2302
  693MOL0     H95585   7.713   4.783   3.216 -1.3282  1.2347  1.3883
  693MOL0     H95586   7.491   4.683   3.140  2.7079 -2.1850 -2.8570
  693MOL0     H95587   7.535   4.546   3.236 -0.6151 -0.1566  1.4383
  693MOL0     H95588   7.585   4.689   3.434  0.7400  0.5941  0.7798
  693MOL0     H95589   7.529   4.831   3.351  2.0525 -0.4807 -0.5619
  693MOL0     H95590   7.372   4.610   3.479  4.9552  0.7459  1.5445
  693MOL0     H95591   7.348   4.781   3.481 -0.2706  0.9009 -1.9280
  693MOL0     H95592   7.111   4.632   3.135 -0.2289 -2.5842  0.0438
  693MOL0     H95593   6.789   4.745   3.079 -1.9940 -1.6772  1.6103
  693MOL0     H95594   6.763   4.580   3.128  1.6515 -2.3917 -0.1497
  693MOL0     H95595   6.898   4.614   3.024 -1.6532 -2.3381 -0.2560
  693MOL0     H95596   6.484   4.899   3.439 -1.5201  2.5216 -1.7368
  693MOL0     H95597   6.241   4.882   3.486  2.3680  2.2027 -0.6121
  693MOL0     H95598   6.076   4.621   3.553  0.2182 -1.0715 -1.8458
  693MOL0     H95599   6.045   4.800   3.553  2.9063  1.0144 -0.9468
  693MOL0     H95600   5.851   4.605   3.447  1.0727  0.0406 -0.0974
  693MOL0     H95601   5.858   4.648   3.600  1.8207  0.1954  0.4580
  693MOL0     H95602   5.806   4.847   3.373  1.9007  0.3103 -0.2322
  693MOL0     H95603   5.869   4.910   3.513  0.3833  0.4768 -2.1569
  693MOL0     H95604   5.667   4.812   3.642  1.3843  1.2538  1.0264
  693MOL0     H95605   5.601   4.775   3.479  0.9428 -1.0070 -0.4542
  693MOL0     H95606   5.645   5.056   3.583 -1.0141  1.1376 -0.1311
  693MOL0     H95607   5.623   5.026   3.409 -2.6389 -1.2961 -0.3987
  693MOL0     H95608   5.433   5.092   3.533  0.3051  0.3850 -0.0165
  693MOL0     H95609   5.425   4.929   3.611 -0.7986 -3.5936 -2.7541
  693MOL0     H95610   5.386   4.815   3.406  0.7269 -0.0739 -0.6705
  693MOL0     H95611   5.421   4.962   3.304 -1.9637 -0.6471 -2.3188
  693MOL0     H95612   5.253   5.089   3.400 -2.2024  1.1068 -2.2684
  693MOL0     H95613   5.181   4.941   3.478 -0.4362  0.9827 -0.2996
  693MOL0     H95614   6.190   4.591   3.201 -1.5479  4.1355 -0.5269
  693MOL0     H95615   6.446   4.590   3.133 -0.3056 -2.5653  2.1668
  693MOL0     H95616   6.900   4.752   3.566  0.4684  3.5507  0.1049
  693MOL0     H95617   7.153   4.697   3.561 -0.7966 -0.5621  0.9834
  693MOL0     H95618   8.244   4.374   3.888 -0.7957  0.3686  0.0168
  693MOL0     H95619   8.156   4.490   4.088 -0.4146 -0.1650 -0.3682
  693MOL0     H95620   8.393   4.658   4.474 -1.2394 -0.7682 -2.6756
  693MOL0     H95621   8.518   4.810   4.594  0.4392 -0.0291  0.8477
  693MOL0     H95622   8.403   5.261   4.589  1.5747 -1.4179 -0.6718
  693MOL0     H95623   8.296   5.177   4.707 -1.2222 -0.6206 -1.3829
  693MOL0     H95624   8.574   5.283   4.749 -1.1380 -1.9534 -3.3986
  693MOL0     H95625   8.508   5.157   4.854 -0.9052 -0.6377 -0.1621
  693MOL0     H95626   8.360   5.415   4.834  1.4588 -2.7766 -3.2987
  693MOL0     H95627   8.364   5.287   4.957  1.2766 -2.2185  0.3241
  693MOL0     H95628   8.596   5.463   4.902  0.4580 -0.1511  1.1208
  693MOL0     H95629   8.559   5.375   5.064  0.8773  1.1803  0.6889
  693MOL0     H95630   8.346   5.702   5.144 -1.0979  0.1110 -0.6121
  693MOL0     H95631   8.234   5.122   4.492 -0.0968 -0.5533 -0.5544
  693MOL0     H95632   8.104   5.098   4.312  0.3998 -0.5131  0.3199
  693MOL0     H95633   8.177   5.003   4.192  1.1801 -1.0910  1.0531
  693MOL0     H95634   8.027   4.943   4.279 -0.8657  0.8823 -2.2794
  694MOL0     O95635   6.404  10.370   7.842  0.6903 -0.1946  0.2063
  694MOL0     C95636   6.326  10.333   7.748 -0.0634  0.4473 -0.0137
  694MOL0     O95637   6.363  10.239   7.645 -0.4609  0.5443  0.6186
  694MOL0     C95638   6.478  10.163   7.656  0.2363  0.1597 -0.0081
  694MOL0     C95639   6.462  10.035   7.608 -0.2527  0.3332 -1.0839
  694MOL0     C95640   6.573   9.943   7.600 -0.3056  0.0840  0.2608
  694MOL0     C95641   6.698   9.987   7.638 -0.7758  0.1736 -0.1467
  694MOL0     O95642   6.803   9.904   7.614 -0.2656 -0.4094 -0.6109
  694MOL0     C95643   6.863   9.920   7.485 -0.1531  0.2340  1.1775
  694MOL0     C95644   7.018   9.862   7.488 -0.3701 -0.0981 -0.1935
  694MOL0     C95645   7.084   9.851   7.357  0.0735 -0.3978  0.1854
  694MOL0     C95646   7.215   9.772   7.351  0.2321 -0.2457 -0.3093
  694MOL0     C95647   7.248   9.721   7.211  0.1369 -0.6741 -0.1075
  694MOL0     C95648   7.253   9.836   7.103 -0.5107  0.7138  0.2982
  694MOL0     C95649   7.347   9.806   6.992 -1.0331 -0.5914 -0.2498
  694MOL0     C95650   7.325   9.683   6.910  0.0428 -0.1216 -0.0239
  694MOL0     N95651   7.460   9.643   6.867  0.7275 -0.1089 -0.8667
  694MOL0     C95652   7.531   9.699   6.763 -0.1870  0.3490  0.0562
  694MOL0     C95653   7.633   9.612   6.725 -0.5638 -0.3519  1.2292
  694MOL0     C95654   7.737   9.640   6.620  0.3480  0.1256 -0.1056
  694MOL0     C95655   7.858   9.708   6.693 -0.1107  0.8531 -0.5337
  694MOL0     C95656   7.821   9.855   6.704  0.4994 -0.7170  0.0048
  694MOL0     C95657   7.939   9.942   6.769  0.7776 -0.0381  0.1611
  694MOL0     O95658   8.043   9.972   6.681  0.1429 -0.5414  0.2281
  694MOL0     C95659   8.173   9.989   6.713  0.0529  0.1413 -0.0415
  694MOL0     C95660   8.244  10.075   6.634 -0.0744  0.2509  0.3037
  694MOL0     C95661   8.383  10.074   6.632 -0.4272 -0.5452  0.2774
  694MOL0     C95662   8.457  10.181   6.550 -0.1100 -0.6283  0.5994
  694MOL0     C95663   8.447   9.986   6.721  0.5839 -0.0670 -0.0602
  694MOL0     C95664   8.590   9.958   6.715 -0.5250 -0.2247  0.5497
  694MOL0     O95665   8.633   9.894   6.602  0.4141  0.2055 -0.0495
  694MOL0     C95666   8.768   9.889   6.581 -0.0664 -0.4692  0.0507
  694MOL0     C95667   8.837   9.764   6.575 -0.7236 -0.6179 -0.5492
  694MOL0     C95668   8.968   9.756   6.522  0.1957 -0.0482  0.3048
  694MOL0     C95669   9.035   9.875   6.489 -0.6472 -0.1877 -0.2001
  694MOL0     O95670   9.165   9.855   6.459 -0.1764 -0.0223 -0.2407
  694MOL0     C95671   9.252   9.954   6.524 -0.0340  0.0290 -0.4226
  694MOL0     C95672   9.368   9.886   6.592 -0.6290  0.1986  0.0961
  694MOL0     C95673   9.323   9.776   6.685 -0.8574 -0.6849 -0.8249
  694MOL0     C95674   9.445   9.716   6.747 -0.0496 -0.4022 -0.8078
  694MOL0     C95675   9.408   9.593   6.835  0.2320 -0.0751 -0.7428
  694MOL0     C95676   9.381   9.477   6.748 -0.0378  0.6617  0.3782
  694MOL0     C95677   9.376   9.349   6.832  0.5022  0.3960 -1.2615
  694MOL0     C95678   9.355   9.226   6.742 -0.2268  0.8104  0.3544
  694MOL0    Cl95679   9.192   9.228   6.661  0.4003 -0.0297  0.7196
  694MOL0     C95680   8.969   9.995   6.494 -1.5495  0.0283  0.6710
  694MOL0     C95681   8.833  10.002   6.525 -0.3052 -0.8754 -0.4324
  694MOL0     O95682   8.660  10.014   6.797  0.0032  0.3670 -0.3800
  694MOL0     C95683   8.369   9.919   6.818 -0.2993  0.3790  0.7240
  694MOL0     C95684   8.227   9.923   6.819  0.1105 -0.0832 -0.1000
  694MOL0     N95685   7.630   9.511   6.813 -0.3058 -0.0504 -0.0938
  694MOL0     N95686   7.536   9.536   6.903  0.0063  0.6337 -1.6496
  694MOL0     C95687   6.713  10.112   7.693  0.7037 -0.3002 -0.7729
  694MOL0     C95688   6.602  10.203   7.700  0.5575 -0.9141  0.0462
  694MOL0     C95689   6.195  10.393   7.744 -0.9203  0.7473  0.4850
  694MOL0     C95690   6.141  10.427   7.869 -0.1257 -0.2240  0.0672
  694MOL0     C95691   6.023  10.497   7.879 -1.0291 -0.0505  0.0235
  694MOL0     C95692   5.937  10.518   7.775 -0.1520 -0.0882  1.1365
  694MOL0     O95693   5.817  10.586   7.797  0.2853  0.5257  0.0640
  694MOL0     C95694   5.700  10.528   7.726  0.7582 -0.0222  0.2827
  694MOL0     C95695   5.573  10.568   7.805 -0.8138  0.6238 -0.0665
  694MOL0     C95696   5.451  10.544   7.721  0.2051  0.0640  0.3043
  694MOL0     C95697   5.399  10.669   7.637 -0.0325 -0.1387 -0.5399
  694MOL0     C95698   5.381  10.789   7.719  0.4807 -0.2185 -0.2352
  694MOL0     C95699   5.369  10.893   7.783 -0.2031  0.4894 -0.0676
  694MOL0     C95700   5.983  10.485   7.643 -0.4568  0.3181 -0.6608
  694MOL0     C95701   6.118  10.419   7.628  0.1435  0.6149  0.0687
  694MOL0     C95702   6.150  10.365   7.487 -0.9583 -0.4724 -0.2690
  694MOL0     H95703   6.369   9.990   7.575 -0.3914  1.0991 -1.7500
  694MOL0     H95704   6.566   9.839   7.570  1.1731  0.0283  0.0554
  694MOL0     H95705   6.882  10.024   7.456  1.7696  0.2385  2.3054
  694MOL0     H95706   6.817   9.865   7.403  0.3626 -1.0453  1.7181
  694MOL0     H95707   7.075   9.926   7.557 -0.0387 -1.5586  0.9594
  694MOL0     H95708   7.004   9.758   7.519 -2.2041 -1.2306 -4.2059
  694MOL0     H95709   7.013   9.804   7.288  0.3878 -0.2514 -0.2489
  694MOL0     H95710   7.099   9.949   7.310 -3.3840  0.2840  0.2576
  694MOL0     H95711   7.298   9.830   7.393  2.8855 -2.5628 -1.9285
  694MOL0     H95712   7.210   9.674   7.398  3.5902 -0.4852 -0.1650
  694MOL0     H95713   7.178   9.641   7.182  0.0680 -0.2462 -1.1619
  694MOL0     H95714   7.350   9.685   7.222  0.3764 -0.0162 -0.1382
  694MOL0     H95715   7.150   9.849   7.071 -1.3790  0.2321  2.6830
  694MOL0     H95716   7.285   9.934   7.140  0.8777  1.1181 -1.8221
  694MOL0     H95717   7.438   9.789   7.050 -2.1932 -1.0421  1.5145
  694MOL0     H95718   7.363   9.893   6.928 -2.2611 -0.2906 -0.1903
  694MOL0     H95719   7.279   9.608   6.975  0.5791  0.6346  1.2686
  694MOL0     H95720   7.266   9.713   6.823  1.2941  0.9337 -0.5434
  694MOL0     H95721   7.504   9.789   6.708 -1.6205 -1.1783 -1.9076
  694MOL0     H95722   7.701   9.701   6.537  0.8054  0.1047 -0.3242
  694MOL0     H95723   7.768   9.541   6.588  0.3728  0.1090 -0.0319
  694MOL0     H95724   7.879   9.671   6.794  0.8853  0.2785 -0.9383
  694MOL0     H95725   7.948   9.686   6.636  0.0451  2.1523 -0.7991
  694MOL0     H95726   7.793   9.897   6.607  0.9993  3.5239  1.4967
  694MOL0     H95727   7.735   9.871   6.770  2.5496  0.1001  2.6380
  694MOL0     H95728   7.906  10.043   6.795  1.4499  1.0614 -2.7898
  694MOL0     H95729   7.972   9.889   6.858  2.0153 -2.1404 -1.4619
  694MOL0     H95730   8.187  10.140   6.568  0.4135  1.4560  1.0349
  694MOL0     H95731   8.425  10.281   6.582 -1.9088  0.3344 -3.5464
  694MOL0     H95732   8.428  10.173   6.445 -2.3512  4.1445  0.5712
  694MOL0     H95733   8.566  10.175   6.549  0.0364  1.2516 -1.4408
  694MOL0     H95734   8.781   9.674   6.600 -1.0690 -0.4474 -0.7116
  694MOL0     H95735   9.019   9.660   6.523 -1.1273 -0.7704  0.9898
  694MOL0     H95736   9.278  10.036   6.457  0.5525 -0.9454 -1.4240
  694MOL0     H95737   9.191  10.002   6.601  1.3747 -0.7660  1.2531
  694MOL0     H95738   9.431   9.843   6.513  1.1647  3.8449 -0.6602
  694MOL0     H95739   9.418   9.959   6.656  0.6436 -1.1289  0.6687
  694MOL0     H95740   9.267   9.700   6.628 -1.1280  1.6338 -3.9038
  694MOL0     H95741   9.250   9.824   6.750 -0.2581 -0.8808  0.0072
  694MOL0     H95742   9.493   9.800   6.798 -1.5435  0.6397 -1.0486
  694MOL0     H95743   9.513   9.677   6.670  1.1806 -1.5639  0.7883
  694MOL0     H95744   9.505   9.580   6.884  0.3176 -0.2171 -0.9494
  694MOL0     H95745   9.328   9.617   6.905  2.0388 -0.7095  1.6460
  694MOL0     H95746   9.456   9.459   6.670 -1.3427  0.2165 -0.8039
  694MOL0     H95747   9.287   9.494   6.695  0.6558 -1.5332 -1.7387
  694MOL0     H95748   9.304   9.349   6.915  1.1788  0.5355 -0.6716
  694MOL0     H95749   9.468   9.331   6.888  0.3307 -1.5142 -1.5143
  694MOL0     H95750   9.368   9.135   6.800 -0.6468  0.1098 -0.6374
  694MOL0     H95751   9.437   9.237   6.670  2.1215  0.2447  2.7753
  694MOL0     H95752   9.022  10.082   6.455 -3.1671 -0.1672 -2.3363
  694MOL0     H95753   8.772  10.090   6.511  0.3075 -0.4371 -0.4116
  694MOL0     H95754   8.422   9.848   6.880 -1.8065 -0.6392  0.9119
  694MOL0     H95755   8.172   9.872   6.896 -0.5252 -1.1695 -1.2391
  694MOL0     H95756   6.810  10.155   7.715 -0.0586 -0.8475  5.0880
  694MOL0     H95757   6.615  10.309   7.717 -0.6550 -0.0694 -3.4587
  694MOL0     H95758   6.205  10.419   7.956 -2.2852 -3.6941  1.4986
  694MOL0     H95759   5.994  10.537   7.976  1.2308  1.7780  0.0457
  694MOL0     H95760   5.695  10.545   7.618 -2.2510 -1.3543  0.1180
  694MOL0     H95761   5.703  10.419   7.730 -1.5951 -0.1756 -0.4752
  694MOL0     H95762   5.572  10.674   7.834 -4.1342  0.3548  1.2926
  694MOL0     H95763   5.571  10.506   7.895 -1.8274 -1.7509 -1.6315
  694MOL0     H95764   5.462  10.471   7.640 -1.1397  0.2209 -0.0438
  694MOL0     H95765   5.366  10.514   7.783 -0.8516  3.2429  0.5854
  694MOL0     H95766   5.303  10.631   7.600  0.3557 -1.6183 -0.1191
  694MOL0     H95767   5.465  10.701   7.557 -0.3369  0.1925 -0.6620
  694MOL0     H95768   5.346  10.982   7.838  0.7634  0.7714 -0.0941
  694MOL0     H95769   5.931  10.487   7.548 -2.8115 -4.0350  0.3041
  694MOL0     H95770   6.245  10.395   7.443 -1.4404 -1.7880 -2.3500
  694MOL0     H95771   6.155  10.256   7.478  2.8206 -0.3849 -0.7919
  694MOL0     H95772   6.071  10.399   7.419 -0.7309  2.0262  0.6329
  695MOL0     O95773   7.262   1.426   7.036  0.2933 -0.3710 -0.1496
  695MOL0     C95774   7.151   1.401   6.980 -0.4995 -0.9038  0.3747
  695MOL0     O95775   7.134   1.310   6.885  0.0936  0.3463 -0.7891
  695MOL0     C95776   7.231   1.259   6.806  0.4361  0.5060  0.5355
  695MOL0     C95777   7.195   1.170   6.696 -0.3105 -0.0660  0.3022
  695MOL0     C95778   7.293   1.109   6.610  0.5884 -0.8993 -0.3997
  695MOL0     C95779   7.434   1.139   6.630  0.6595  0.2025 -0.3652
  695MOL0     O95780   7.537   1.067   6.561  0.3657  0.3095  0.4099
  695MOL0     C95781   7.534   0.924   6.569  0.2929 -0.5199  0.3033
  695MOL0     C95782   7.597   0.866   6.437 -0.5545 -1.1037  0.2656
  695MOL0     C95783   7.755   0.911   6.433 -0.1928  0.3210  0.2524
  695MOL0     C95784   7.811   0.834   6.300  0.1939 -1.0499 -0.4558
  695MOL0     C95785   7.959   0.861   6.267 -0.4901  0.0350 -0.7913
  695MOL0     C95786   7.993   0.783   6.124 -0.4343  0.8379  0.1680
  695MOL0     C95787   8.145   0.821   6.081  1.0547  0.6618  1.0374
  695MOL0     C95788   8.237   0.716   6.143  0.4036 -0.4304  0.5400
  695MOL0     N95789   8.250   0.600   6.055 -0.3126 -0.6112  0.2745
  695MOL0     C95790   8.348   0.571   5.969  0.3479 -0.5380  0.5666
  695MOL0     C95791   8.302   0.455   5.923 -1.0096  0.4406 -0.0552
  695MOL0     C95792   8.373   0.363   5.834 -0.8948  0.8820  0.2637
  695MOL0     C95793   8.391   0.411   5.697  0.2032  1.0608 -0.6511
  695MOL0     C95794   8.474   0.319   5.600  0.5502  0.9153  0.4772
  695MOL0     C95795   8.422   0.171   5.586  0.0275  0.7064 -0.8524
  695MOL0     O95796   8.314   0.175   5.493 -0.3481 -0.3924  0.7029
  695MOL0     C95797   8.218   0.083   5.532 -0.0112 -0.3086  0.9563
  695MOL0     C95798   8.111   0.139   5.609  0.0925 -0.4208 -0.0295
  695MOL0     C95799   8.011   0.066   5.677 -0.4140  0.1419 -0.7586
  695MOL0     C95800   7.896   0.144   5.738  0.4435  0.2926 -0.1867
  695MOL0     C95801   8.028  -0.073   5.664  0.4779  0.4971 -0.0898
  695MOL0     C95802   7.930  -0.178   5.722  0.2223  0.2935 -0.1581
  695MOL0     O95803   7.947  -0.308   5.699 -0.0548  0.9322  0.1269
  695MOL0     C95804   7.857  -0.417   5.702 -0.2820 -0.4050 -0.4631
  695MOL0     C95805   7.723  -0.413   5.676 -0.0291  0.5631 -0.8290
  695MOL0     C95806   7.643  -0.523   5.700 -0.0019 -0.8147 -0.4715
  695MOL0     C95807   7.695  -0.643   5.751  0.6515 -0.3938 -0.3135
  695MOL0     O95808   7.608  -0.734   5.797 -0.0165  0.4683 -0.0382
  695MOL0     C95809   7.551  -0.825   5.706 -0.8085 -0.3296 -0.1841
  695MOL0     C95810   7.550  -0.964   5.765  0.2708  0.6118 -0.1572
  695MOL0     C95811   7.489  -1.059   5.652 -0.1044 -0.4559 -0.3190
  695MOL0     C95812   7.510  -1.200   5.695 -1.1136 -0.3526 -0.7309
  695MOL0     C95813   7.478  -1.300   5.585 -0.8676 -0.9424  0.1474
  695MOL0     C95814   7.557  -1.420   5.603 -0.2524 -0.2300  0.3899
  695MOL0     C95815   7.552  -1.512   5.490 -0.3718  0.2673  0.3097
  695MOL0     C95816   7.683  -1.604   5.479 -0.4151  0.0111  0.5579
  695MOL0    Cl95817   7.727  -1.668   5.635 -0.1033  0.1180  0.3720
  695MOL0     C95818   7.832  -0.654   5.777 -0.3282  0.4172  0.0566
  695MOL0     C95819   7.907  -0.537   5.757 -0.5294 -0.0850 -0.4590
  695MOL0     O95820   7.834  -0.129   5.780  0.0498 -0.4642 -0.4386
  695MOL0     C95821   8.126  -0.136   5.579 -0.2744  0.3393 -0.7585
  695MOL0     C95822   8.222  -0.055   5.518  0.2984 -0.3672 -0.1808
  695MOL0     N95823   8.172   0.430   5.950 -0.1456  0.0965  0.4407
  695MOL0     N95824   8.144   0.516   6.045  0.1400 -0.3231  0.6514
  695MOL0     C95825   7.470   1.235   6.730  0.0658 -0.1857 -0.8451
  695MOL0     C95826   7.369   1.290   6.817 -0.8838 -0.0913 -1.1438
  695MOL0     C95827   7.039   1.474   7.040  0.0971  0.6155  0.0135
  695MOL0     C95828   7.066   1.593   7.100 -0.4046  1.1273  0.0367
  695MOL0     C95829   6.962   1.679   7.144  0.6169  0.1737  0.2937
  695MOL0     C95830   6.828   1.642   7.136  0.6486 -1.3920 -0.9689
  695MOL0     O95831   6.723   1.715   7.189  0.2002 -0.5728  0.0134
  695MOL0     C95832   6.731   1.842   7.251  0.2137 -0.7312 -0.1150
  695MOL0     C95833   6.769   1.964   7.144  0.5879  1.6057  0.7932
  695MOL0     C95834   6.679   1.956   7.022 -0.1107  0.3421  0.9241
  695MOL0     C95835   6.675   2.099   6.953 -0.4393 -0.8368 -0.0061
  695MOL0     C95836   6.611   2.082   6.830 -0.2965  0.4888 -1.3086
  695MOL0     C95837   6.563   2.064   6.718 -0.1489 -0.7249 -0.4021
  695MOL0     C95838   6.804   1.511   7.088 -1.1266 -0.3190 -0.2375
  695MOL0     C95839   6.901   1.437   7.029  0.5035  0.0054 -0.2401
  695MOL0     C95840   6.861   1.298   6.982 -0.4597  0.1958  0.0018
  695MOL0     H95841   7.093   1.138   6.674 -1.5147  2.2289  2.0690
  695MOL0     H95842   7.249   1.057   6.526  0.2483 -2.0118  0.4370
  695MOL0     H95843   7.430   0.890   6.572 -0.9122  2.4527 -2.2745
  695MOL0     H95844   7.588   0.891   6.659 -0.1979  1.8383  1.5344
  695MOL0     H95845   7.583   0.758   6.442 -0.4984 -1.1600 -0.6023
  695MOL0     H95846   7.562   0.913   6.345 -0.8405 -2.5725 -0.4059
  695MOL0     H95847   7.778   1.017   6.439  0.1503  0.2222  0.6869
  695MOL0     H95848   7.817   0.869   6.513 -0.1585  2.1978  1.2543
  695MOL0     H95849   7.791   0.727   6.313 -0.8464 -0.9221 -0.8661
  695MOL0     H95850   7.752   0.871   6.215 -3.4955 -4.3352  0.3567
  695MOL0     H95851   8.027   0.826   6.345  0.4868  1.3331 -1.0458
  695MOL0     H95852   7.975   0.968   6.254  2.4061 -0.6354 -4.0175
  695MOL0     H95853   7.981   0.676   6.141  2.1014  0.4079 -0.3563
  695MOL0     H95854   7.926   0.810   6.042  0.2080  2.6498  0.1759
  695MOL0     H95855   8.171   0.923   6.111  1.0859  0.5910  1.2493
  695MOL0     H95856   8.162   0.819   5.973  1.0649 -0.5213  1.0472
  695MOL0     H95857   8.329   0.768   6.172 -1.0434  2.5591  0.1322
  695MOL0     H95858   8.194   0.676   6.235 -0.5283 -0.3451  0.1479
  695MOL0     H95859   8.435   0.629   5.940  0.1445  0.4605  1.8598
  695MOL0     H95860   8.334   0.260   5.831 -1.4281  1.0959 -0.5236
  695MOL0     H95861   8.470   0.347   5.881 -1.1267  0.3622  0.5879
  695MOL0     H95862   8.288   0.413   5.662 -0.1464  3.9574  0.2294
  695MOL0     H95863   8.437   0.511   5.699 -0.0751  1.1807  0.7486
  695MOL0     H95864   8.456   0.358   5.499 -2.1484  1.1420  0.9942
  695MOL0     H95865   8.583   0.319   5.613  0.6665  1.5951 -0.3832
  695MOL0     H95866   8.484   0.099   5.532 -3.0203 -0.3662 -3.2175
  695MOL0     H95867   8.395   0.127   5.683  3.3608  0.6323  0.1553
  695MOL0     H95868   8.099   0.247   5.613  1.1296 -0.3187  1.1280
  695MOL0     H95869   7.898   0.108   5.842  0.9893 -0.1984 -0.3656
  695MOL0     H95870   7.800   0.112   5.697  0.8050 -2.0906  0.6608
  695MOL0     H95871   7.909   0.252   5.746  1.5599  0.0496  2.2852
  695MOL0     H95872   7.676  -0.320   5.646 -1.2438  0.2965  0.1443
  695MOL0     H95873   7.537  -0.509   5.683 -0.2212  0.8894  1.8641
  695MOL0     H95874   7.453  -0.782   5.685  0.7639  2.2157 -3.3510
  695MOL0     H95875   7.621  -0.827   5.622  0.6146  0.1347  0.9544
  695MOL0     H95876   7.646  -1.002   5.799  0.7025 -1.4547 -3.3072
  695MOL0     H95877   7.468  -0.951   5.837  0.0546  1.4101 -0.5336
  695MOL0     H95878   7.544  -1.047   5.559 -0.1137  2.4431 -0.0590
  695MOL0     H95879   7.384  -1.035   5.634 -0.7358  2.3565  5.0155
  695MOL0     H95880   7.445  -1.238   5.774  1.9852  0.6205  2.5344
  695MOL0     H95881   7.612  -1.220   5.730 -1.2005  0.5264  0.0691
  695MOL0     H95882   7.373  -1.328   5.570 -1.2352  0.2440  0.3614
  695MOL0     H95883   7.504  -1.247   5.492  4.1674 -0.0354  1.7623
  695MOL0     H95884   7.526  -1.462   5.699 -2.5451 -2.1703 -1.1092
  695MOL0     H95885   7.658  -1.378   5.613 -0.5325  0.4805  0.2329
  695MOL0     H95886   7.508  -1.469   5.400  3.3830 -0.0515 -1.8967
  695MOL0     H95887   7.476  -1.582   5.525 -1.2275  1.1085  0.1661
  695MOL0     H95888   7.762  -1.539   5.439  0.1650  1.0075  3.1552
  695MOL0     H95889   7.675  -1.689   5.411 -0.6869 -1.0843  1.9243
  695MOL0     H95890   7.872  -0.746   5.819  1.0596  0.1439 -1.7048
  695MOL0     H95891   8.008  -0.545   5.795 -0.9505 -3.9558  0.2782
  695MOL0     H95892   8.131  -0.245   5.577  0.9762  0.3978 -2.3723
  695MOL0     H95893   8.306  -0.110   5.478 -0.0526  0.2975 -1.9019
  695MOL0     H95894   7.572   1.270   6.740  1.0632 -3.1832  0.8416
  695MOL0     H95895   7.403   1.354   6.898 -1.1969 -0.8675 -0.3870
  695MOL0     H95896   7.168   1.628   7.103 -1.0114  3.1571 -1.2367
  695MOL0     H95897   6.985   1.777   7.185 -1.0151 -0.5434  3.2287
  695MOL0     H95898   6.634   1.859   7.298 -0.3868  1.5715 -2.0137
  695MOL0     H95899   6.806   1.827   7.330  1.5477  2.6440 -0.5826
  695MOL0     H95900   6.873   1.958   7.111 -0.1319 -3.1933 -1.4230
  695MOL0     H95901   6.746   2.058   7.195 -2.5891 -0.1770  2.9125
  695MOL0     H95902   6.708   1.868   6.964  2.3358 -0.9970  3.9246
  695MOL0     H95903   6.576   1.927   7.045 -1.0548  2.4786 -0.3047
  695MOL0     H95904   6.769   2.154   6.943 -1.0850  0.5220  1.0674
  695MOL0     H95905   6.614   2.172   7.007 -0.7622 -0.3289 -1.0407
  695MOL0     H95906   6.520   2.047   6.621 -1.0821  0.6271 -0.2588
  695MOL0     H95907   6.701   1.477   7.083 -1.6349  1.1916 -0.5065
  695MOL0     H95908   6.926   1.216   7.016 -0.1865  0.9732  1.4332
  695MOL0     H95909   6.762   1.262   7.010  0.9210 -2.2196  2.3289
  695MOL0     H95910   6.871   1.291   6.874  1.3367  0.4363  0.1180
  696MOL0     O95911   8.187   1.904  11.259 -0.3883  0.4796 -0.0889
  696MOL0     C95912   8.269   1.822  11.224  0.4925 -0.5769  0.3481
  696MOL0     O95913   8.333   1.834  11.110  0.1681  0.4246 -0.5739
  696MOL0     C95914   8.323   1.950  11.037  0.0422 -0.7072 -0.1280
  696MOL0     C95915   8.438   2.018  11.028 -0.1802 -0.5011 -0.2854
  696MOL0     C95916   8.451   2.136  10.946  0.1056 -0.5992  0.6803
  696MOL0     C95917   8.351   2.171  10.865  0.5910 -0.8144 -0.2491
  696MOL0     O95918   8.363   2.279  10.781 -0.5447  0.1191  0.9912
  696MOL0     C95919   8.471   2.286  10.681  0.4029  0.0259  0.1547
  696MOL0     C95920   8.461   2.397  10.587  1.1148 -0.0118  0.5960
  696MOL0     C95921   8.328   2.384  10.506  1.1478  0.6040 -1.2662
  696MOL0     C95922   8.307   2.507  10.426 -0.0524 -1.3923 -0.0817
  696MOL0     C95923   8.168   2.503  10.343  0.0849 -0.3231 -0.8407
  696MOL0     C95924   8.174   2.430  10.210 -0.1447 -0.2525 -0.6113
  696MOL0     C95925   8.028   2.439  10.145  0.1700  1.3225 -1.3525
  696MOL0     C95926   7.981   2.596  10.141  0.6061  0.0205 -0.3624
  696MOL0     N95927   7.886   2.623  10.033 -0.1874 -0.4651 -0.3119
  696MOL0     C95928   7.812   2.748  10.040 -1.0492  0.4654  0.6621
  696MOL0     C95929   7.705   2.725   9.951 -0.3341  0.6376 -0.8391
  696MOL0     C95930   7.588   2.821   9.925  0.4512 -0.0757 -0.3409
  696MOL0     C95931   7.461   2.805  10.017  0.2623 -0.0539  0.0653
  696MOL0     C95932   7.425   2.938  10.100 -0.2255  0.2806  1.5638
  696MOL0     C95933   7.510   2.960  10.214 -0.1612 -0.5738  0.6132
  696MOL0     O95934   7.495   2.851  10.302  0.4092 -0.8284  0.4704
  696MOL0     C95935   7.514   2.872  10.432  0.7316  0.0083  0.3404
  696MOL0     C95936   7.584   2.979  10.495  0.0219 -1.1189  0.2217
  696MOL0     C95937   7.615   2.970  10.635  0.3048  0.1945  0.7959
  696MOL0     C95938   7.688   3.081  10.696  0.2968 -1.5434  0.0123
  696MOL0     C95939   7.557   2.875  10.719 -1.0061 -0.4570 -0.0396
  696MOL0     C95940   7.574   2.876  10.875 -0.0019 -0.1294 -0.1945
  696MOL0     O95941   7.561   2.753  10.943 -0.6252 -0.3870 -0.2133
  696MOL0     C95942   7.581   2.769  11.079 -0.0553  0.0167 -0.2822
  696MOL0     C95943   7.677   2.695  11.148 -0.0850 -0.3317 -0.5635
  696MOL0     C95944   7.689   2.681  11.285  0.6020 -0.6213 -0.1688
  696MOL0     C95945   7.599   2.755  11.371 -0.5570 -0.3075 -0.3534
  696MOL0     O95946   7.629   2.755  11.509  0.9138 -0.2741 -0.3267
  696MOL0     C95947   7.570   2.860  11.588 -0.1816  0.5672  0.6675
  696MOL0     C95948   7.648   2.872  11.714  0.6099 -0.0864  0.6261
  696MOL0     C95949   7.573   2.934  11.831  0.1047 -0.5981  0.0897
  696MOL0     C95950   7.667   2.974  11.951  0.0188  0.5605 -0.6531
  696MOL0     C95951   7.742   2.847  11.999 -0.5964  0.0564  0.1676
  696MOL0     C95952   7.849   2.889  12.101 -1.3163 -0.2102 -0.1782
  696MOL0     C95953   7.946   2.779  12.155  0.4543  0.2046  0.9500
  696MOL0     C95954   8.059   2.720  12.061 -0.0831  0.3421  0.6609
  696MOL0    Cl95955   8.204   2.819  12.075  0.5245  0.2290  0.5892
  696MOL0     C95956   7.498   2.830  11.309 -0.0796  0.1193 -0.0982
  696MOL0     C95957   7.490   2.833  11.167 -0.2410  0.1027  0.4119
  696MOL0     O95958   7.595   2.981  10.934 -0.5632  0.7674  0.3905
  696MOL0     C95959   7.487   2.775  10.653 -0.2921  0.0710 -0.3856
  696MOL0     C95960   7.465   2.773  10.509 -0.6637 -0.2228 -0.2802
  696MOL0     N95961   7.729   2.602   9.897 -0.0364  0.4180  0.3269
  696MOL0     N95962   7.839   2.540   9.944  1.1841  0.2304 -0.8480
  696MOL0     C95963   8.225   2.097  10.865  0.3790  0.1836 -0.1052
  696MOL0     C95964   8.217   1.990  10.957  0.5984 -0.3437  0.4099
  696MOL0     C95965   8.306   1.703  11.318 -0.2210  0.4000  0.9600
  696MOL0     C95966   8.423   1.638  11.298 -0.5642  0.3271 -0.1040
  696MOL0     C95967   8.464   1.539  11.388  0.0219 -0.0379  0.3789
  696MOL0     C95968   8.384   1.494  11.496 -0.2850 -0.8789 -0.3010
  696MOL0     O95969   8.422   1.392  11.581  0.5490  0.4059 -0.2264
  696MOL0     C95970   8.536   1.308  11.544 -0.4925  0.3554 -0.3186
  696MOL0     C95971   8.572   1.230  11.662 -0.7822 -0.6531 -0.5028
  696MOL0     C95972   8.657   1.105  11.639 -0.4484 -0.4041 -0.6383
  696MOL0     C95973   8.679   1.030  11.776  0.2211  0.3024 -0.2508
  696MOL0     C95974   8.794   1.075  11.852  0.6586 -0.1451 -0.6312
  696MOL0     C95975   8.886   1.118  11.921 -0.7478 -0.2295  0.6382
  696MOL0     C95976   8.259   1.549  11.507  0.1235 -0.2210 -0.4667
  696MOL0     C95977   8.215   1.649  11.419 -0.5604  1.0651  0.0122
  696MOL0     C95978   8.071   1.699  11.436 -0.9756 -0.1051  0.1907
  696MOL0     H95979   8.530   1.984  11.074  1.2151  3.5934  0.3199
  696MOL0     H95980   8.549   2.183  10.944  0.1023 -0.5529  1.3554
  696MOL0     H95981   8.474   2.196  10.620  2.8340  0.2806 -0.2105
  696MOL0     H95982   8.567   2.287  10.734  0.1156  1.5998  0.6949
  696MOL0     H95983   8.458   2.492  10.640 -0.7664 -0.5448  1.5387
  696MOL0     H95984   8.544   2.379  10.517  3.0345 -1.9775  3.1685
  696MOL0     H95985   8.330   2.293  10.445 -1.6550 -0.4395  0.0479
  696MOL0     H95986   8.234   2.381  10.561  1.5548  2.2363 -0.4457
  696MOL0     H95987   8.307   2.592  10.494 -1.9819 -2.8077  1.8371
  696MOL0     H95988   8.381   2.516  10.346  2.1646  2.2941  2.1195
  696MOL0     H95989   8.134   2.603  10.317 -2.0835 -0.9703 -0.7172
  696MOL0     H95990   8.086   2.451  10.394 -1.4080  0.8455 -1.9501
  696MOL0     H95991   8.243   2.475  10.139  0.6136 -0.2540  0.1079
  696MOL0     H95992   8.206   2.326  10.220  0.4804 -0.1156 -1.1349
  696MOL0     H95993   7.953   2.385  10.205 -2.8297  1.5881 -4.5541
  696MOL0     H95994   8.023   2.395  10.045  1.1829 -3.4446  0.4200
  696MOL0     H95995   7.930   2.624  10.234  0.2726  1.8917 -1.0643
  696MOL0     H95996   8.066   2.663  10.129 -0.8479  1.4985 -3.6995
  696MOL0     H95997   7.821   2.832  10.107 -1.0316  0.8887  0.1308
  696MOL0     H95998   7.570   2.806   9.818  1.2769 -2.3622 -0.2284
  696MOL0     H95999   7.618   2.924   9.942 -1.0153 -0.1288  3.7440
  696MOL0     H96000   7.378   2.786   9.948  1.1253 -2.9508 -0.3049
  696MOL0     H96001   7.478   2.727  10.091  0.1938  0.6424  0.8316
  696MOL0     H96002   7.430   3.024  10.032  0.0882  0.7995  2.2295
  696MOL0     H96003   7.322   2.947  10.133 -1.3681  1.6905 -1.9464
  696MOL0     H96004   7.615   2.971  10.185 -0.0989  1.7038  1.4619
  696MOL0     H96005   7.479   3.051  10.266 -0.6339  0.2183 -0.9672
  696MOL0     H96006   7.612   3.067  10.438 -1.1169  0.0084  1.3494
  696MOL0     H96007   7.730   3.154  10.626 -0.8447 -0.5840  0.2878
  696MOL0     H96008   7.772   3.044  10.756  0.6849 -2.0265 -0.8275
  696MOL0     H96009   7.641   3.138  10.777  3.9295 -0.1421  1.3256
  696MOL0     H96010   7.747   2.635  11.091 -1.5057 -1.9369 -0.7259
  696MOL0     H96011   7.769   2.621  11.327 -1.6172 -2.2171  2.0996
  696MOL0     H96012   7.579   2.957  11.539  0.5655 -0.0229 -0.4099
  696MOL0     H96013   7.466   2.831  11.609 -1.0442  0.1870 -3.4317
  696MOL0     H96014   7.676   2.774  11.752  1.4821  0.0075  0.2548
  696MOL0     H96015   7.736   2.934  11.691 -1.1932  2.7512  0.7910
  696MOL0     H96016   7.501   2.862  11.870  0.3800 -0.0334  1.7339
  696MOL0     H96017   7.518   3.025  11.804  0.7753 -1.1498 -3.7105
  696MOL0     H96018   7.615   3.021  12.035 -1.0835 -0.8311 -0.5361
  696MOL0     H96019   7.745   3.044  11.918  0.5887 -0.0598 -0.6307
  696MOL0     H96020   7.668   2.775  12.035 -0.5530 -0.1139 -0.0793
  696MOL0     H96021   7.808   2.803  11.924  0.0032  3.2856 -1.3915
  696MOL0     H96022   7.805   2.938  12.188  0.4107  1.0884  0.0194
  696MOL0     H96023   7.907   2.962  12.044  0.7830 -3.6315 -2.8440
  696MOL0     H96024   7.893   2.690  12.190  0.9645  0.6274  2.9565
  696MOL0     H96025   8.001   2.820  12.241  2.1732 -1.3242  0.6499
  696MOL0     H96026   8.012   2.728  11.963 -2.9253  0.4681  1.9341
  696MOL0     H96027   8.087   2.618  12.091  1.0209  0.3408 -0.3327
  696MOL0     H96028   7.422   2.873  11.373 -0.4817 -4.1539  2.6451
  696MOL0     H96029   7.406   2.895  11.138 -1.7575  0.2949  4.5511
  696MOL0     H96030   7.442   2.693  10.709  0.0354  1.3422  1.8296
  696MOL0     H96031   7.413   2.688  10.467 -0.4002  0.2220 -1.5388
  696MOL0     H96032   8.143   2.133  10.804 -0.3799 -1.0721  0.1381
  696MOL0     H96033   8.123   1.936  10.958 -0.1945  0.8508 -1.6950
  696MOL0     H96034   8.483   1.670  11.213  1.1208  0.7930  1.2103
  696MOL0     H96035   8.562   1.495  11.372  0.5854 -0.2876  3.7638
  696MOL0     H96036   8.519   1.249  11.453  1.3307  0.5117 -0.8144
  696MOL0     H96037   8.626   1.369  11.527 -1.2225  1.0263 -2.0502
  696MOL0     H96038   8.496   1.207  11.738 -0.2480  0.9596  0.5546
  696MOL0     H96039   8.629   1.307  11.714 -0.7417 -0.5299 -0.7278
  696MOL0     H96040   8.589   1.043  11.580 -0.1981 -0.8342 -0.4762
  696MOL0     H96041   8.744   1.119  11.575  0.2935 -0.0714  0.4217
  696MOL0     H96042   8.711   0.927  11.757 -2.5412 -0.3337 -1.9850
  696MOL0     H96043   8.588   1.029  11.836  0.8521 -0.3384  0.7329
  696MOL0     H96044   8.965   1.132  11.992  0.1155 -2.5672  0.2353
  696MOL0     H96045   8.190   1.525  11.587  0.0244 -0.7069 -0.6937
  696MOL0     H96046   8.029   1.711  11.336  4.1514 -0.6904 -2.3148
  696MOL0     H96047   8.006   1.632  11.494  2.2344 -1.3658  2.6037
  696MOL0     H96048   8.067   1.801  11.476  1.7666 -0.2677  1.0827
  697MOL0     O96049  10.569   8.462   8.176 -0.0385  0.0708  0.1625
  697MOL0     C96050  10.493   8.369   8.142  1.1194 -0.3165 -0.2115
  697MOL0     O96051  10.504   8.234   8.168 -0.2937  0.4236 -0.7901
  697MOL0     C96052  10.619   8.174   8.232  0.6056 -0.2843  0.2553
  697MOL0     C96053  10.739   8.241   8.282  0.1426  0.2000  0.2759
  697MOL0     C96054  10.834   8.163   8.355 -0.6119  0.2472  0.1434
  697MOL0     C96055  10.818   8.021   8.359 -0.3510  0.6381 -0.9757
  697MOL0     O96056  10.914   7.949   8.424 -0.1943 -0.0584 -0.5221
  697MOL0     C96057  11.013   7.908   8.336 -0.2200  0.4420 -0.3997
  697MOL0     C96058  11.107   7.813   8.402 -0.3147 -0.0727 -0.1375
  697MOL0     C96059  11.037   7.694   8.472  0.6259  0.1608  0.1952
  697MOL0     C96060  10.989   7.590   8.360 -0.3018 -0.5256  0.9616
  697MOL0     C96061  10.907   7.479   8.425  0.3118 -0.2918  1.0970
  697MOL0     C96062  11.007   7.367   8.477  0.2750 -0.2093 -1.1232
  697MOL0     C96063  10.933   7.263   8.559 -0.5397  0.2266 -0.0722
  697MOL0     C96064  10.792   7.220   8.507  1.4076 -0.0567 -0.1281
  697MOL0     N96065  10.739   7.121   8.605  0.0514  0.2611 -0.3649
  697MOL0     C96066  10.796   7.002   8.640 -0.3026 -0.0107  0.2620
  697MOL0     C96067  10.711   6.954   8.730  0.2748 -0.1088  0.1936
  697MOL0     C96068  10.738   6.825   8.793  0.0189  0.1193  0.8540
  697MOL0     C96069  10.749   6.710   8.682 -0.8105  0.3446  0.0297
  697MOL0     C96070  10.609   6.664   8.655 -0.2299  0.2949 -0.8461
  697MOL0     C96071  10.599   6.554   8.549  0.0601 -0.9268 -0.8955
  697MOL0     O96072  10.462   6.526   8.527  0.2914  0.4901 -1.2545
  697MOL0     C96073  10.426   6.480   8.402 -0.6314 -0.7564 -0.6251
  697MOL0     C96074  10.288   6.466   8.367 -0.4446  0.1637 -0.4354
  697MOL0     C96075  10.245   6.425   8.238 -0.2816  0.4345 -0.0281
  697MOL0     C96076  10.105   6.437   8.201  0.9819 -0.6501  0.4801
  697MOL0     C96077  10.346   6.393   8.139  1.2945  0.5250 -0.1510
  697MOL0     C96078  10.320   6.367   7.995 -0.1467 -1.0102 -1.0239
  697MOL0     O96079  10.415   6.409   7.899  0.2895  0.5656  0.7131
  697MOL0     C96080  10.381   6.385   7.766  0.9535 -0.3951  0.3412
  697MOL0     C96081  10.456   6.313   7.675 -0.2291 -0.1063 -0.2129
  697MOL0     C96082  10.422   6.302   7.548 -0.3595  0.3573  0.0980
  697MOL0     C96083  10.304   6.365   7.492  0.1319  0.0534 -0.5276
  697MOL0     O96084  10.280   6.365   7.360 -1.2267 -0.6292 -1.1087
  697MOL0     C96085  10.306   6.246   7.284 -0.1894  0.8120 -0.5985
  697MOL0     C96086  10.271   6.270   7.138  0.1400  0.1973 -0.2547
  697MOL0     C96087  10.343   6.399   7.079 -0.1346  0.0957  0.2854
  697MOL0     C96088  10.320   6.440   6.924 -0.5976 -0.5608  1.1590
  697MOL0     C96089  10.347   6.584   6.876  0.1133 -0.7742 -0.7733
  697MOL0     C96090  10.494   6.617   6.912 -0.7724  0.0332 -0.6688
  697MOL0     C96091  10.535   6.755   6.858  0.0992  0.0558 -1.0039
  697MOL0     C96092  10.666   6.808   6.918 -0.0394 -0.3228 -0.5366
  697MOL0    Cl96093  10.673   6.791   7.090  0.2245 -0.2248  0.2816
  697MOL0     C96094  10.226   6.443   7.576 -0.2908  0.8499  0.2724
  697MOL0     C96095  10.267   6.455   7.710  0.5118 -0.4443  0.6310
  697MOL0     O96096  10.218   6.308   7.976 -0.4667 -0.2823  0.8949
  697MOL0     C96097  10.479   6.391   8.181  0.2337  0.0902 -0.5405
  697MOL0     C96098  10.519   6.436   8.305 -0.8874 -0.1910 -0.5223
  697MOL0     N96099  10.596   7.026   8.729 -0.2578 -1.2297 -0.1459
  697MOL0     N96100  10.615   7.128   8.656  0.4179  0.3262  0.6788
  697MOL0     C96101  10.701   7.965   8.308  0.3042  0.0967  0.0628
  697MOL0     C96102  10.601   8.044   8.242  0.1452  0.2598  0.2072
  697MOL0     C96103  10.372   8.409   8.054  0.4824  0.5686  0.8231
  697MOL0     C96104  10.353   8.554   8.045 -1.4459 -0.5713 -0.7681
  697MOL0     C96105  10.241   8.603   7.969 -0.7468 -0.4312  0.2436
  697MOL0     C96106  10.157   8.523   7.890  0.0621  0.0272 -0.7630
  697MOL0     O96107  10.064   8.577   7.814 -0.0942  0.1109  0.1945
  697MOL0     C96108   9.973   8.658   7.889  1.2301  0.3892  0.1224
  697MOL0     C96109   9.858   8.570   7.947 -0.3393  0.6491  0.6777
  697MOL0     C96110   9.744   8.656   7.988  1.0512 -1.7647 -0.3435
  697MOL0     C96111   9.610   8.650   7.913 -0.1096  0.2197  0.1200
  697MOL0     C96112   9.529   8.533   7.960 -0.7129  0.7381 -0.4204
  697MOL0     C96113   9.455   8.443   7.994 -0.7799 -0.3793  0.2126
  697MOL0     C96114  10.188   8.386   7.891  0.0708 -0.4107  0.9133
  697MOL0     C96115  10.290   8.325   7.973  0.6488 -1.0843 -0.0609
  697MOL0     C96116  10.297   8.181   7.964  0.2264  0.5667  0.0921
  697MOL0     H96117  10.767   8.344   8.264  0.6250 -0.0759 -0.6137
  697MOL0     H96118  10.924   8.202   8.401 -1.9283  3.1269  0.4981
  697MOL0     H96119  11.069   7.986   8.284  1.7150  0.7090  1.9276
  697MOL0     H96120  10.956   7.854   8.260 -1.7525 -1.1053  1.7100
  697MOL0     H96121  11.172   7.769   8.326 -1.5719 -1.3512 -0.5103
  697MOL0     H96122  11.170   7.864   8.476 -0.5893 -0.3620  0.2985
  697MOL0     H96123  11.102   7.643   8.544 -0.8488  0.1531  1.5767
  697MOL0     H96124  10.949   7.731   8.525 -1.3637 -0.4806 -2.4772
  697MOL0     H96125  10.930   7.642   8.284  1.7883  0.5296 -0.0288
  697MOL0     H96126  11.073   7.539   8.312 -0.6302 -2.3292  2.1777
  697MOL0     H96127  10.839   7.433   8.352 -1.5089  2.8142  0.6583
  697MOL0     H96128  10.845   7.520   8.505  0.2096  1.4511  0.1908
  697MOL0     H96129  11.058   7.329   8.389 -0.3157  1.8422 -2.4016
  697MOL0     H96130  11.075   7.408   8.552 -0.4992 -0.9402  0.0150
  697MOL0     H96131  10.936   7.286   8.666  2.9494 -5.6047  1.5726
  697MOL0     H96132  10.996   7.173   8.558  1.4105  1.2931  4.0743
  697MOL0     H96133  10.719   7.301   8.512  2.3456  0.7278  1.3803
  697MOL0     H96134  10.801   7.172   8.409  1.4123  1.0196 -0.6710
  697MOL0     H96135  10.894   6.956   8.623 -0.3785 -0.0714 -0.0349
  697MOL0     H96136  10.646   6.805   8.850  0.1480 -3.8632 -0.0616
  697MOL0     H96137  10.819   6.829   8.866 -0.2038 -0.5302  1.1488
  697MOL0     H96138  10.805   6.744   8.595  1.8199 -3.1005  0.1855
  697MOL0     H96139  10.814   6.628   8.712 -2.1003 -1.5360 -2.0256
  697MOL0     H96140  10.581   6.608   8.745  1.7057 -0.9497 -0.9733
  697MOL0     H96141  10.540   6.747   8.633  0.7847  1.0635 -1.2016
  697MOL0     H96142  10.650   6.591   8.460 -0.8368 -2.3925 -2.0696
  697MOL0     H96143  10.647   6.461   8.582 -0.7262 -1.2627 -0.6799
  697MOL0     H96144  10.210   6.500   8.434 -0.8704  3.4983 -2.3696
  697MOL0     H96145  10.056   6.343   8.173  1.5206  0.0273 -3.3303
  697MOL0     H96146  10.087   6.497   8.111 -2.5249 -1.5267  0.4589
  697MOL0     H96147  10.053   6.481   8.286 -1.1619 -1.7035 -0.2117
  697MOL0     H96148  10.544   6.268   7.720 -2.4468 -0.8916  3.8686
  697MOL0     H96149  10.492   6.247   7.485  0.5370 -1.0644  2.2064
  697MOL0     H96150  10.410   6.211   7.281  0.1641  1.5786  1.3105
  697MOL0     H96151  10.247   6.159   7.315  1.5919 -0.9927 -2.0031
  697MOL0     H96152  10.296   6.176   7.087  2.0987 -1.1593  2.8624
  697MOL0     H96153  10.162   6.275   7.138  0.1865  1.9173  1.4383
  697MOL0     H96154  10.451   6.391   7.089  0.2851  0.7869 -2.8316
  697MOL0     H96155  10.305   6.482   7.140  0.4566 -0.8211  1.9712
  697MOL0     H96156  10.217   6.425   6.891  1.0273 -3.1655 -3.8133
  697MOL0     H96157  10.385   6.379   6.860  1.3021  0.6745  1.8192
  697MOL0     H96158  10.344   6.593   6.767 -2.3078 -0.0763 -0.7039
  697MOL0     H96159  10.279   6.658   6.921  0.4278 -1.0245  0.1358
  697MOL0     H96160  10.560   6.544   6.861 -1.2934 -2.2389  1.6965
  697MOL0     H96161  10.513   6.595   7.017 -1.9376 -5.9927 -1.3299
  697MOL0     H96162  10.456   6.818   6.899 -2.8534 -4.4868  1.1624
  697MOL0     H96163  10.533   6.753   6.749 -3.5199  0.1764 -1.0487
  697MOL0     H96164  10.677   6.910   6.880 -3.4023 -0.0309 -1.0841
  697MOL0     H96165  10.744   6.752   6.865  0.8972  0.3659  0.0878
  697MOL0     H96166  10.146   6.508   7.539 -1.3564  0.3614  1.5988
  697MOL0     H96167  10.220   6.518   7.785 -0.2521 -1.6954  1.2175
  697MOL0     H96168  10.565   6.364   8.120  0.9093  2.2507 -0.6546
  697MOL0     H96169  10.627   6.431   8.306 -0.7909  0.2121 -2.7875
  697MOL0     H96170  10.683   7.859   8.313 -1.0745  0.2558 -0.8805
  697MOL0     H96171  10.517   7.983   8.209 -1.3442  2.2483  0.1526
  697MOL0     H96172  10.429   8.623   8.079 -0.4931 -1.5426 -0.8410
  697MOL0     H96173  10.233   8.711   7.968  3.0335  0.0106  0.8962
  697MOL0     H96174  10.015   8.728   7.961  0.3164 -0.0462  1.0997
  697MOL0     H96175   9.924   8.727   7.820  0.5296 -1.0649 -0.8877
  697MOL0     H96176   9.914   8.524   8.029  3.2597 -0.7936 -2.3151
  697MOL0     H96177   9.828   8.493   7.876 -2.2315  1.1285  0.9063
  697MOL0     H96178   9.744   8.647   8.097  4.2926 -0.2901 -0.0983
  697MOL0     H96179   9.772   8.761   7.980  0.9905 -1.7402 -0.2461
  697MOL0     H96180   9.630   8.646   7.806  3.3913 -1.8992  0.6870
  697MOL0     H96181   9.552   8.739   7.937 -0.7261  0.5351 -2.3130
  697MOL0     H96182   9.387   8.369   8.029 -2.4998  0.3610 -1.3925
  697MOL0     H96183  10.135   8.315   7.827  2.6134 -0.7945 -0.9238
  697MOL0     H96184  10.355   8.127   8.040  0.5124 -0.6644 -0.9535
  697MOL0     H96185  10.192   8.154   7.975  0.7384 -2.2369 -0.9777
  697MOL0     H96186  10.327   8.138   7.867 -0.0938 -1.1046  0.6904
  698MOL0     O96187   5.545   1.873   1.714  0.2140  0.2799  0.3545
  698MOL0     C96188   5.423   1.867   1.703  0.7047 -0.0527 -0.2571
  698MOL0     O96189   5.354   1.876   1.588  0.5263  0.2535 -0.5487
  698MOL0     C96190   5.404   1.935   1.484 -0.3928 -0.3176 -0.6306
  698MOL0     C96191   5.391   1.865   1.366 -0.1069 -0.8535 -0.4836
  698MOL0     C96192   5.432   1.914   1.239 -0.4330 -0.2263  0.2651
  698MOL0     C96193   5.491   2.037   1.238  0.4442  0.7298 -0.2580
  698MOL0     O96194   5.564   2.073   1.131 -0.1286 -0.3805 -0.5005
  698MOL0     C96195   5.555   1.992   1.005  0.2352 -0.3871 -0.2180
  698MOL0     C96196   5.646   2.050   0.904  0.1160 -0.3047  0.4975
  698MOL0     C96197   5.678   2.201   0.911 -1.0474  0.4068 -0.3996
  698MOL0     C96198   5.807   2.234   0.987 -0.2065  0.5755 -0.2677
  698MOL0     C96199   5.929   2.268   0.894  0.2055 -0.3626 -0.6298
  698MOL0     C96200   5.925   2.403   0.828 -0.2236  0.4062 -1.0045
  698MOL0     C96201   6.054   2.426   0.749 -0.0086 -0.0142  0.8368
  698MOL0     C96202   6.038   2.545   0.646 -0.0465  0.0872 -0.9554
  698MOL0     N96203   6.156   2.566   0.570  0.0010 -0.1686  0.0202
  698MOL0     C96204   6.227   2.475   0.487  0.3823 -0.6056  0.0912
  698MOL0     C96205   6.342   2.545   0.450 -0.1574 -0.0941 -0.1469
  698MOL0     C96206   6.453   2.489   0.353 -0.4711 -0.4473  0.4881
  698MOL0     C96207   6.585   2.500   0.429 -0.0891 -0.6621 -0.2932
  698MOL0     C96208   6.694   2.396   0.397  0.1123  0.7790  0.4252
  698MOL0     C96209   6.814   2.423   0.476 -0.5686 -0.4523 -0.1873
  698MOL0     O96210   6.887   2.294   0.482  0.0867  0.1608  0.1034
  698MOL0     C96211   6.956   2.296   0.601  0.6557 -0.0195 -0.3141
  698MOL0     C96212   6.910   2.229   0.710 -0.0712 -0.0355 -0.3204
  698MOL0     C96213   6.982   2.235   0.833 -0.3624 -0.7160  0.1151
  698MOL0     C96214   6.926   2.167   0.956  0.0507  0.1834  0.0598
  698MOL0     C96215   7.112   2.292   0.836  0.2296 -0.3463  0.6149
  698MOL0     C96216   7.204   2.292   0.947 -0.5264 -1.0243  0.5795
  698MOL0     O96217   7.331   2.337   0.924  0.0273  0.5052 -0.0722
  698MOL0     C96218   7.433   2.338   1.026 -1.5458 -0.1155 -0.1470
  698MOL0     C96219   7.410   2.316   1.166 -0.0754 -0.7079  0.5953
  698MOL0     C96220   7.518   2.323   1.252 -0.5349  0.9569  0.6144
  698MOL0     C96221   7.649   2.319   1.206  0.3696 -0.0164  0.0478
  698MOL0     O96222   7.761   2.293   1.281  0.5243 -0.2813  0.1634
  698MOL0     C96223   7.741   2.276   1.428  0.1770 -0.5753  0.6399
  698MOL0     C96224   7.869   2.258   1.506  0.4832 -0.1926 -0.5588
  698MOL0     C96225   7.995   2.308   1.447 -0.9082  0.1070 -0.1197
  698MOL0     C96226   8.115   2.328   1.550 -1.1543  1.1426  0.1797
  698MOL0     C96227   8.242   2.376   1.485  1.1296 -0.4764 -0.5656
  698MOL0     C96228   8.379   2.380   1.571  0.4282  0.0937 -0.2282
  698MOL0     C96229   8.360   2.436   1.716  0.5849  0.9372 -0.0308
  698MOL0     C96230   8.493   2.467   1.788  0.4910  0.4567  0.1903
  698MOL0    Cl96231   8.525   2.328   1.911 -0.0160 -0.0251 -0.3487
  698MOL0     C96232   7.671   2.359   1.073 -1.0557 -0.4506 -0.3703
  698MOL0     C96233   7.567   2.368   0.982  0.1320 -0.0738  0.1985
  698MOL0     O96234   7.168   2.231   1.049  0.3892  0.3245  0.4198
  698MOL0     C96235   7.154   2.362   0.716  0.1387  0.5550 -0.3116
  698MOL0     C96236   7.075   2.368   0.606 -1.5342  0.0433 -0.0173
  698MOL0     N96237   6.353   2.660   0.530 -0.1651  0.5700 -0.6210
  698MOL0     N96238   6.241   2.671   0.590  0.0498  0.0303 -0.0317
  698MOL0     C96239   5.503   2.117   1.351  0.4143 -0.3926  0.4264
  698MOL0     C96240   5.452   2.069   1.477  0.3323  0.1892 -0.5219
  698MOL0     C96241   5.347   1.857   1.828  0.3658 -0.4913  0.2612
  698MOL0     C96242   5.262   1.748   1.829  0.9248 -0.3334 -0.0002
  698MOL0     C96243   5.199   1.719   1.951  0.7817 -0.4707 -0.8647
  698MOL0     C96244   5.203   1.818   2.061 -0.7404 -0.6888  0.7031
  698MOL0     O96245   5.129   1.790   2.176 -0.2415 -0.0021  0.5809
  698MOL0     C96246   5.172   1.854   2.295 -0.2704  0.6425 -0.0135
  698MOL0     C96247   5.284   1.778   2.359 -0.6898  0.8169  1.0735
  698MOL0     C96248   5.293   1.836   2.502 -0.4566 -0.3632 -0.8538
  698MOL0     C96249   5.412   1.786   2.584 -0.6198 -0.1330  0.4315
  698MOL0     C96250   5.435   1.637   2.594 -0.2335  0.4143  0.7236
  698MOL0     C96251   5.438   1.516   2.593 -1.1104 -0.8633  0.1155
  698MOL0     C96252   5.291   1.928   2.049  0.3144 -0.0240 -0.5962
  698MOL0     C96253   5.367   1.945   1.937  0.4155 -0.4303 -0.2937
  698MOL0     C96254   5.466   2.052   1.938 -0.0587 -0.5908 -0.2161
  698MOL0     H96255   5.357   1.762   1.359  1.3200 -1.4502  0.8687
  698MOL0     H96256   5.427   1.849   1.152 -0.7978 -1.2307  1.0127
  698MOL0     H96257   5.454   2.006   0.965  0.9780  1.8136 -1.4669
  698MOL0     H96258   5.570   1.884   1.012 -0.0795 -0.3843  0.6434
  698MOL0     H96259   5.729   1.979   0.895 -1.1039 -1.6478 -0.5088
  698MOL0     H96260   5.597   2.029   0.809  1.5848 -0.8553 -0.1661
  698MOL0     H96261   5.688   2.243   0.810 -1.6857  3.9418  0.8727
  698MOL0     H96262   5.604   2.261   0.964  0.1411  2.1012 -0.5858
  698MOL0     H96263   5.793   2.304   1.069  1.6328 -1.5500  2.0273
  698MOL0     H96264   5.834   2.141   1.038 -3.3605 -0.3325 -0.0856
  698MOL0     H96265   5.921   2.192   0.816 -3.3469 -0.4877 -0.2879
  698MOL0     H96266   6.020   2.260   0.955  0.7239 -3.2108 -1.6633
  698MOL0     H96267   5.841   2.402   0.758 -2.1042 -1.6234  1.0901
  698MOL0     H96268   5.909   2.488   0.894 -2.0479  1.2245 -2.4292
  698MOL0     H96269   6.082   2.348   0.678  1.3834  2.1849 -1.1444
  698MOL0     H96270   6.138   2.428   0.819  1.6261 -0.6180 -1.0148
  698MOL0     H96271   5.948   2.525   0.589  0.0942 -1.1815 -0.7684
  698MOL0     H96272   6.027   2.632   0.711  0.4569  3.1639 -4.6405
  698MOL0     H96273   6.195   2.379   0.450  0.8573 -1.8349  2.6288
  698MOL0     H96274   6.451   2.553   0.264 -2.4049 -3.1782 -1.6328
  698MOL0     H96275   6.430   2.386   0.325 -1.5886  0.1216 -0.8600
  698MOL0     H96276   6.630   2.592   0.389  3.4464 -2.2817 -0.4889
  698MOL0     H96277   6.573   2.496   0.537  0.5081  1.7446 -0.0938
  698MOL0     H96278   6.659   2.292   0.399  0.8355  0.4880 -0.7874
  698MOL0     H96279   6.724   2.407   0.292 -2.2696 -0.1225 -0.4378
  698MOL0     H96280   6.860   2.517   0.445 -3.4692  0.9246 -0.6070
  698MOL0     H96281   6.773   2.455   0.572  0.8795  2.0853 -0.3254
  698MOL0     H96282   6.814   2.179   0.719  1.8243 -4.1615 -0.6735
  698MOL0     H96283   6.923   2.239   1.039 -1.0746 -0.5992  0.7335
  698MOL0     H96284   6.984   2.077   0.980 -2.0392 -1.0871  0.5419
  698MOL0     H96285   6.821   2.139   0.947 -0.5456  2.0437  0.7217
  698MOL0     H96286   7.312   2.298   1.210 -0.1814 -0.1697  0.5860
  698MOL0     H96287   7.490   2.317   1.357 -0.7508  4.3287  0.8444
  698MOL0     H96288   7.701   2.367   1.473  1.6952 -1.1130  3.3150
  698MOL0     H96289   7.682   2.188   1.458 -0.1928 -0.2885  0.7628
  698MOL0     H96290   7.861   2.296   1.608  3.5549  2.6217 -1.1663
  698MOL0     H96291   7.887   2.150   1.509  1.6581 -0.1676 -3.1604
  698MOL0     H96292   7.984   2.411   1.412  2.4947  1.4526  2.2823
  698MOL0     H96293   8.023   2.245   1.362  1.7009 -0.1026  0.8068
  698MOL0     H96294   8.140   2.243   1.613  2.0031  1.0077 -1.0539
  698MOL0     H96295   8.076   2.408   1.614  0.0446  2.5857 -0.8170
  698MOL0     H96296   8.268   2.338   1.385  3.8272  3.9446 -1.8136
  698MOL0     H96297   8.212   2.479   1.467 -1.5109 -1.0829  0.0070
  698MOL0     H96298   8.448   2.451   1.523  1.9540 -0.7282  0.6812
  698MOL0     H96299   8.418   2.278   1.572 -0.3934 -0.2273  0.7319
  698MOL0     H96300   8.289   2.383   1.781  1.7452 -1.4497 -0.5962
  698MOL0     H96301   8.314   2.533   1.698  1.1647  0.8568 -2.2157
  698MOL0     H96302   8.480   2.558   1.846 -4.4586 -0.9499  1.7917
  698MOL0     H96303   8.577   2.481   1.719 -0.7991  2.2842 -1.1139
  698MOL0     H96304   7.764   2.400   1.036 -0.3377 -1.3399  0.4023
  698MOL0     H96305   7.579   2.409   0.882 -2.7203  0.8248  0.1409
  698MOL0     H96306   7.250   2.411   0.727 -0.6238  1.6695  1.8946
  698MOL0     H96307   7.115   2.426   0.523  1.3649  1.7296  2.3613
  698MOL0     H96308   5.554   2.211   1.333  0.4429  0.0081  2.3539
  698MOL0     H96309   5.456   2.114   1.576 -0.1834 -2.1014  0.5920
  698MOL0     H96310   5.256   1.680   1.744 -0.0504 -1.1195  0.6737
  698MOL0     H96311   5.155   1.623   1.976 -1.3525  0.6651 -0.0169
  698MOL0     H96312   5.188   1.962   2.288 -0.1121  0.5446 -1.6516
  698MOL0     H96313   5.078   1.840   2.350  0.7088  0.4517  1.6652
  698MOL0     H96314   5.367   1.803   2.292 -0.1492 -1.6523  0.7154
  698MOL0     H96315   5.262   1.671   2.362  0.7181  0.5249  3.3517
  698MOL0     H96316   5.304   1.945   2.505 -3.1053 -0.0390 -0.8093
  698MOL0     H96317   5.197   1.814   2.547 -0.3972 -0.0587 -0.5696
  698MOL0     H96318   5.380   1.803   2.688  2.0064 -1.6864  1.6027
  698MOL0     H96319   5.504   1.846   2.584 -0.1168 -0.8308  2.2576
  698MOL0     H96320   5.462   1.413   2.608  1.4749 -0.1972  1.0360
  698MOL0     H96321   5.296   2.005   2.126  0.1322  2.5318 -2.9785
  698MOL0     H96322   5.549   2.027   2.005  0.0506  1.3557  0.4547
  698MOL0     H96323   5.513   2.084   1.845  1.7103  0.1472  0.8916
  698MOL0     H96324   5.418   2.139   1.985 -1.7620 -1.2255 -0.6803
  699MOL0     O96325   5.579   8.551  10.025 -0.1918  0.2058  0.6969
  699MOL0     C96326   5.606   8.617  10.123  0.2174 -0.9225 -0.8900
  699MOL0     O96327   5.566   8.592  10.251  0.3596  0.3771  0.3150
  699MOL0     C96328   5.492   8.470  10.276  0.2747 -0.5953  0.4718
  699MOL0     C96329   5.572   8.357  10.308  0.8313  0.0967 -0.2179
  699MOL0     C96330   5.504   8.237  10.312  0.0101  0.2594  0.0399
  699MOL0     C96331   5.366   8.226  10.281  0.1599 -0.1792 -1.1522
  699MOL0     O96332   5.302   8.109  10.264  0.1701 -0.7599  0.2470
  699MOL0     C96333   5.350   7.983  10.315  0.4270  1.0054  0.1566
  699MOL0     C96334   5.248   7.874  10.326 -0.7100  0.6873  0.2565
  699MOL0     C96335   5.299   7.738  10.387  0.3823 -1.5445 -0.0595
  699MOL0     C96336   5.194   7.627  10.366 -0.2657  0.4986 -0.1252
  699MOL0     C96337   5.244   7.480  10.373  0.0282  0.6803  0.2306
  699MOL0     C96338   5.140   7.372  10.318 -0.1364 -0.7324 -0.1275
  699MOL0     C96339   5.172   7.230  10.346  0.0225  0.2417  0.5293
  699MOL0     C96340   5.078   7.139  10.279  0.8168 -0.4263  0.2860
  699MOL0     N96341   4.952   7.133  10.343  0.7260 -0.4655 -0.9707
  699MOL0     C96342   4.922   7.053  10.442  0.7569 -0.2426 -1.3462
  699MOL0     C96343   4.790   7.073  10.459  0.3189 -0.5423 -0.0447
  699MOL0     C96344   4.694   7.030  10.570  0.1716  0.7296 -0.1027
  699MOL0     C96345   4.620   7.140  10.631  0.3968  0.2201  0.4867
  699MOL0     C96346   4.662   7.181  10.776 -0.5990 -0.9245 -0.1241
  699MOL0     C96347   4.550   7.264  10.833  0.4621  0.1409 -0.9313
  699MOL0     O96348   4.517   7.371  10.745  0.0141 -0.5248 -0.8319
  699MOL0     C96349   4.598   7.494  10.768  0.3071  0.1822 -1.0926
  699MOL0     C96350   4.701   7.538  10.689 -0.7311 -0.5334  0.3138
  699MOL0     C96351   4.764   7.661  10.712 -0.6215  0.2904  0.1710
  699MOL0     C96352   4.876   7.694  10.615  0.3290 -0.2444 -0.5497
  699MOL0     C96353   4.720   7.748  10.821  0.3644 -0.0284  0.6335
  699MOL0     C96354   4.778   7.885  10.856 -1.0018 -0.3856  0.6239
  699MOL0     O96355   4.756   7.941  10.984  0.5587 -0.9399 -0.0824
  699MOL0     C96356   4.793   8.073  11.015  0.2258 -0.6816  0.5517
  699MOL0     C96357   4.897   8.095  11.092 -0.4653  0.5444 -1.0049
  699MOL0     C96358   4.934   8.227  11.129  0.0088  0.0042  0.1306
  699MOL0     C96359   4.871   8.336  11.066 -0.1008 -1.5564 -0.4206
  699MOL0     O96360   4.899   8.471  11.087  0.3500  0.1583 -0.1463
  699MOL0     C96361   5.029   8.497  11.147 -0.1933 -0.7885 -0.0348
  699MOL0     C96362   5.094   8.630  11.113  0.1377 -0.9952  0.0480
  699MOL0     C96363   5.022   8.763  11.167  0.6708  0.0194  0.0807
  699MOL0     C96364   5.113   8.888  11.176 -0.2402 -0.3292  0.2264
  699MOL0     C96365   5.050   9.010  11.231  0.1791  0.2209 -1.2432
  699MOL0     C96366   4.999   8.998  11.376 -0.4370 -1.4710  0.5628
  699MOL0     C96367   4.924   9.120  11.422  0.1717 -0.6178  0.2688
  699MOL0     C96368   4.852   9.093  11.549  0.2275 -1.2080  0.3106
  699MOL0    Cl96369   4.842   9.256  11.607 -0.4660  0.3157 -0.2832
  699MOL0     C96370   4.776   8.310  10.967 -0.1338  0.0934 -0.0256
  699MOL0     C96371   4.741   8.183  10.945  0.8551 -0.0683  0.2137
  699MOL0     O96372   4.858   7.938  10.776 -0.0813 -0.2423 -0.4326
  699MOL0     C96373   4.618   7.700  10.910 -0.0096  0.2047 -0.2334
  699MOL0     C96374   4.563   7.564  10.885 -0.3708  0.1188 -0.7918
  699MOL0     N96375   4.743   7.133  10.349 -0.0274 -0.1312 -0.3677
  699MOL0     N96376   4.848   7.159  10.267  0.4029 -0.2823 -0.1292
  699MOL0     C96377   5.286   8.338  10.263  0.8787 -0.0762  0.2449
  699MOL0     C96378   5.352   8.458  10.266  0.7494  0.2323  0.1229
  699MOL0     C96379   5.681   8.734  10.091  0.0677  0.3546 -0.2370
  699MOL0     C96380   5.735   8.842  10.266  0.3815 -0.6563  0.2686
  699MOL0     C96381   5.840   9.029  10.247 -0.5572 -0.2933  1.2223
  699MOL0     C96382   5.886   9.098  10.050  1.0756  0.2897  0.3196
  699MOL0     O96383   5.962   9.216  10.031  0.1406 -0.5552 -0.1319
  699MOL0     C96384   5.961   9.264   9.892 -0.7653  1.0041 -0.0599
  699MOL0     C96385   5.957   9.412   9.879  0.7971 -0.0761 -1.2617
  699MOL0     C96386   5.927   9.455   9.730  0.0388  0.3323  0.5889
  699MOL0     C96387   5.861   9.591   9.733 -0.4271 -0.0219 -0.3175
  699MOL0     C96388   5.959   9.691   9.787  0.8184  0.2826  0.0528
  699MOL0     C96389   6.036   9.774   9.825 -0.6273 -0.7345  0.1391
  699MOL0     C96390   5.835   8.984   9.881  0.1339 -0.4461  0.2686
  699MOL0     C96391   5.730   8.802   9.904 -0.2217  0.6239  0.6933
  699MOL0     C96392   5.702   8.712   9.779  0.3122 -0.7564 -0.3046
  699MOL0     H96393   5.680   8.362  10.323  1.6561 -5.4167 -2.2598
  699MOL0     H96394   5.569   8.152  10.327  1.7790  1.8493  1.8852
  699MOL0     H96395   5.396   7.995  10.414  0.6137  0.5747  0.1290
  699MOL0     H96396   5.428   7.943  10.249 -1.6938 -3.9410  0.1915
  699MOL0     H96397   5.159   7.901  10.384 -3.9453 -3.5295 -2.1952
  699MOL0     H96398   5.203   7.855  10.228  3.4778 -2.7946 -1.2736
  699MOL0     H96399   5.399   7.712  10.350  0.5745 -5.1622  2.4188
  699MOL0     H96400   5.327   7.759  10.491  0.6603  0.3416 -0.4863
  699MOL0     H96401   5.113   7.640  10.438 -0.5426  2.5755 -0.7548
  699MOL0     H96402   5.140   7.643  10.272  1.0080  0.5247 -0.8706
  699MOL0     H96403   5.264   7.467  10.480  0.4023  2.5720  0.4332
  699MOL0     H96404   5.342   7.490  10.324  2.3500  4.2405  4.8255
  699MOL0     H96405   5.042   7.398  10.358  0.9694  3.9392  0.1845
  699MOL0     H96406   5.152   7.391  10.211 -3.2882  1.1506 -0.2596
  699MOL0     H96407   5.173   7.207  10.453 -0.0391 -1.4628  0.1945
  699MOL0     H96408   5.269   7.211  10.300 -1.8375 -4.4544 -2.1532
  699MOL0     H96409   5.066   7.193  10.185 -1.3544  0.9433  1.2833
  699MOL0     H96410   5.119   7.038  10.265  1.3513 -0.7457  3.4259
  699MOL0     H96411   4.982   7.019  10.525  1.2662  1.3460 -1.0375
  699MOL0     H96412   4.755   6.988  10.651  1.2592  1.5836 -0.4663
  699MOL0     H96413   4.628   6.958  10.520  2.3804  1.0779 -3.8998
  699MOL0     H96414   4.626   7.225  10.563 -1.4195  0.4248  0.5298
  699MOL0     H96415   4.520   7.094  10.634  0.6572 -0.5581 -1.2520
  699MOL0     H96416   4.666   7.084  10.826 -0.9862  0.7745  3.5043
  699MOL0     H96417   4.760   7.229  10.779 -1.4541  0.8700  0.1911
  699MOL0     H96418   4.458   7.208  10.852  0.6666  0.7619  2.6825
  699MOL0     H96419   4.579   7.297  10.933 -2.9018  2.4235 -0.5297
  699MOL0     H96420   4.716   7.471  10.605  0.8455 -0.6969  0.6869
  699MOL0     H96421   4.867   7.797  10.580 -1.3554 -0.3360 -0.4664
  699MOL0     H96422   4.872   7.639  10.520  2.9959 -0.9289 -0.3364
  699MOL0     H96423   4.976   7.675  10.653 -0.0455 -3.7102 -0.9278
  699MOL0     H96424   4.946   8.009  11.139  2.5822  1.5499 -2.0983
  699MOL0     H96425   5.010   8.240  11.205  0.6883  0.7412 -0.6518
  699MOL0     H96426   5.016   8.477  11.253  0.9414  0.9711  0.4716
  699MOL0     H96427   5.106   8.425  11.118  1.0861  0.3079  0.5694
  699MOL0     H96428   5.193   8.616  11.155  0.0330  1.5714  1.3413
  699MOL0     H96429   5.103   8.642  11.004 -1.1157  0.8684  0.0907
  699MOL0     H96430   4.971   8.738  11.260 -1.1270  0.1930 -0.8134
  699MOL0     H96431   4.946   8.798  11.097  1.7583  0.0897 -1.1123
  699MOL0     H96432   5.145   8.914  11.075 -1.3140  1.7252  0.3544
  699MOL0     H96433   5.204   8.869  11.233  0.0458  1.3055  0.3859
  699MOL0     H96434   5.115   9.099  11.230 -0.4261  0.6692 -1.4758
  699MOL0     H96435   4.974   9.042  11.159  1.0279  1.6547 -1.5617
  699MOL0     H96436   5.090   8.980  11.434  0.3981  3.6093  1.2142
  699MOL0     H96437   4.928   8.914  11.375 -2.5480  0.1560 -1.9307
  699MOL0     H96438   4.851   9.154  11.348 -1.3304 -2.0573  1.0070
  699MOL0     H96439   4.987   9.210  11.430 -0.1714  0.1156 -3.6015
  699MOL0     H96440   4.906   9.048  11.633 -0.4385 -1.0903  0.8131
  699MOL0     H96441   4.752   9.050  11.536 -0.3776  0.2244  0.0527
  699MOL0     H96442   4.703   8.382  10.931 -2.3617 -0.1791  3.5394
  699MOL0     H96443   4.665   8.163  10.870 -3.2558 -4.9080  4.8339
  699MOL0     H96444   4.585   7.758  10.995 -0.0651  1.5576 -1.1509
  699MOL0     H96445   4.489   7.512  10.946 -2.3142  1.0475 -2.2428
  699MOL0     H96446   5.179   8.335  10.241  0.1786  2.1727  2.7988
  699MOL0     H96447   5.297   8.549  10.246 -0.9357 -0.1689  2.5595
  699MOL0     H96448   5.708   8.796  10.361 -3.3555  3.0800  1.3255
  699MOL0     H96449   5.879   9.085  10.331 -2.7700 -0.1696  2.2348
  699MOL0     H96450   6.050   9.224   9.844 -0.5798  0.3722  0.7787
  699MOL0     H96451   5.873   9.222   9.842 -0.1512 -1.1147  0.5189
  699MOL0     H96452   6.052   9.457   9.911 -1.7700  3.5577  2.2613
  699MOL0     H96453   5.881   9.439   9.953 -0.2555 -3.1359 -1.0680
  699MOL0     H96454   6.014   9.459   9.664  0.7800  0.8488  1.5679
  699MOL0     H96455   5.857   9.383   9.688 -1.0665  1.8456 -0.2468
  699MOL0     H96456   5.767   9.608   9.787  0.0396 -0.4490  0.6472
  699MOL0     H96457   5.845   9.632   9.633 -0.6195 -2.0764 -1.1696
  699MOL0     H96458   6.107   9.844   9.864  1.2985 -1.8327 -1.2350
  699MOL0     H96459   5.862   9.006   9.778 -2.4281 -3.1282 -1.1357
  699MOL0     H96460   5.611   8.659   9.807 -0.8386  1.5066  0.5388
  699MOL0     H96461   5.692   8.764   9.683 -1.4238 -1.6075 -0.6320
  699MOL0     H96462   5.781   8.638   9.773 -1.8453 -3.0719 -2.3810
  700MOL0     O96463   8.472  10.774   5.732  0.2542 -0.6582  0.3359
  700MOL0     C96464   8.545  10.764   5.830  0.0606  0.0831 -0.2361
  700MOL0     O96465   8.501  10.780   5.956  0.3205  0.4457 -0.9538
  700MOL0     C96466   8.370  10.825   5.973 -0.0146  0.0941  0.5872
  700MOL0     C96467   8.259  10.741   5.981  0.2940  0.2212 -0.2412
  700MOL0     C96468   8.133  10.792   6.021  0.3925 -0.5180  0.4699
  700MOL0     C96469   8.118  10.928   6.053  0.4595  0.5817  0.4670
  700MOL0     O96470   7.993  10.986   6.077  0.0098 -0.2699  0.3185
  700MOL0     C96471   7.898  10.897   6.131 -1.1956  0.9933 -0.1426
  700MOL0     C96472   7.787  10.993   6.201 -0.2800  0.2358  0.2976
  700MOL0     C96473   7.725  11.094   6.114  0.3790 -0.9894  0.4078
  700MOL0     C96474   7.637  11.184   6.200  0.4218 -0.4093 -0.5430
  700MOL0     C96475   7.526  11.118   6.276 -0.3481 -0.1394 -0.2564
  700MOL0     C96476   7.416  11.219   6.302 -0.5855  0.4722  0.3903
  700MOL0     C96477   7.459  11.354   6.370 -0.9889 -0.8730 -1.2887
  700MOL0     C96478   7.356  11.461   6.400 -0.2700 -0.1061  0.3777
  700MOL0     N96479   7.238  11.416   6.476  0.2844 -0.3129  0.5903
  700MOL0     C96480   7.223  11.396   6.611  0.9092  0.0686 -1.4265
  700MOL0     C96481   7.116  11.312   6.617  0.0473  1.1206 -1.0948
  700MOL0     C96482   7.058  11.254   6.749 -0.2157  0.8977 -0.5234
  700MOL0     C96483   6.927  11.175   6.749 -0.9436 -0.2913  0.2108
  700MOL0     C96484   6.916  11.046   6.659  0.2570 -0.1459 -0.6587
  700MOL0     C96485   6.773  10.988   6.691  0.1183  0.1347 -0.5458
  700MOL0     O96486   6.760  10.851   6.638  0.6586 -0.3346 -0.3978
  700MOL0     C96487   6.635  10.797   6.631 -0.2760 -0.5135 -0.5963
  700MOL0     C96488   6.552  10.800   6.746 -0.9681  0.1405 -0.8396
  700MOL0     C96489   6.435  10.724   6.751  0.5028 -0.1662 -0.1491
  700MOL0     C96490   6.373  10.716   6.888  0.9148  0.3391  0.1079
  700MOL0     C96491   6.382  10.670   6.627  0.3711  0.1415 -0.0339
  700MOL0     C96492   6.251  10.598   6.617 -0.4917  0.7841  0.6332
  700MOL0     O96493   6.224  10.547   6.499  0.0393 -0.0710 -0.1631
  700MOL0     C96494   6.102  10.483   6.486 -0.1292  0.4929  0.1800
  700MOL0     C96495   6.058  10.380   6.571  0.0527 -0.1574 -0.3841
  700MOL0     C96496   5.935  10.329   6.538 -0.0755  0.1566 -0.7646
  700MOL0     C96497   5.853  10.364   6.432 -0.0738 -0.4256  0.3995
  700MOL0     O96498   5.738  10.299   6.395  0.8721  0.1651 -0.1526
  700MOL0     C96499   5.728  10.155   6.383 -0.1883 -0.2206  0.7052
  700MOL0     C96500   5.621  10.092   6.477 -0.2313  0.3480  0.0447
  700MOL0     C96501   5.488  10.135   6.423 -0.0717  1.3193  0.3334
  700MOL0     C96502   5.378  10.067   6.502  0.4465  0.2852 -0.5840
  700MOL0     C96503   5.238  10.112   6.449  0.3079 -0.2815 -0.1394
  700MOL0     C96504   5.140  10.077   6.554 -0.3249  1.2527 -0.5207
  700MOL0     C96505   4.997  10.094   6.513 -0.0471 -0.4462  0.4208
  700MOL0     C96506   4.898  10.046   6.612  1.0444  0.0533 -0.7548
  700MOL0    Cl96507   4.934   9.885   6.700 -0.1962  0.5492  0.1400
  700MOL0     C96508   5.904  10.465   6.346  0.0245  0.1477 -0.8735
  700MOL0     C96509   6.025  10.522   6.375  0.1377 -0.1222 -0.5107
  700MOL0     O96510   6.177  10.589   6.709  0.3594 -1.4200  0.0255
  700MOL0     C96511   6.448  10.697   6.504  0.1761  0.6296 -2.0139
  700MOL0     C96512   6.579  10.750   6.516  0.1291  0.7092  0.2259
  700MOL0     N96513   7.052  11.295   6.497  0.1047  0.1126  0.6397
  700MOL0     N96514   7.124  11.359   6.412  0.8315 -0.4170 -0.2702
  700MOL0     C96515   8.233  11.008   6.048  0.2931 -0.6994  0.4440
  700MOL0     C96516   8.353  10.964   6.006  0.1899  0.2137  0.3851
  700MOL0     C96517   8.688  10.735   5.806 -0.6509 -0.0970 -0.5422
  700MOL0     C96518   8.760  10.662   5.900  0.0798  0.2226 -0.4555
  700MOL0     C96519   8.897  10.647   5.888  0.7398 -0.2485 -0.7308
  700MOL0     C96520   8.973  10.697   5.782 -0.3562  0.6013  0.0441
  700MOL0     O96521   9.107  10.670   5.761 -0.3247  0.2872  0.9119
  700MOL0     C96522   9.193  10.767   5.810  0.2981  0.0078 -0.9907
  700MOL0     C96523   9.205  10.889   5.722 -0.0426  0.0997  0.1574
  700MOL0     C96524   9.308  10.986   5.769  0.2090 -0.9870  0.7812
  700MOL0     C96525   9.248  11.101   5.852 -0.5478 -0.8207  0.4190
  700MOL0     C96526   9.219  11.053   5.991 -0.2583  0.3426  0.7119
  700MOL0     C96527   9.197  11.011   6.101  1.0858 -0.9432  0.2493
  700MOL0     C96528   8.902  10.771   5.687  0.0767  0.8744 -0.3833
  700MOL0     C96529   8.760  10.790   5.700 -0.0880 -0.3298  0.0680
  700MOL0     C96530   8.697  10.863   5.577  0.7383  0.0427 -0.2354
  700MOL0     H96531   8.274  10.635   5.967  2.3747  0.4593 -0.0422
  700MOL0     H96532   8.057  10.717   6.037  2.1127 -2.2458  0.9998
  700MOL0     H96533   7.945  10.841   6.212  0.4883 -0.0591 -1.7561
  700MOL0     H96534   7.862  10.830   6.052  3.2967  0.1647 -1.7726
  700MOL0     H96535   7.707  10.923   6.225 -2.3828  2.5173  0.2373
  700MOL0     H96536   7.840  11.040   6.285  1.3980  2.9070 -2.0567
  700MOL0     H96537   7.796  11.163   6.068  2.1439 -1.9292  1.6396
  700MOL0     H96538   7.666  11.054   6.031 -3.0102  1.1089  1.5612
  700MOL0     H96539   7.700  11.238   6.271 -1.7375 -2.5304  3.2940
  700MOL0     H96540   7.596  11.267   6.141 -2.3243 -1.8489 -0.7931
  700MOL0     H96541   7.563  11.062   6.362 -2.0763 -2.2060 -0.7790
  700MOL0     H96542   7.482  11.043   6.210 -3.5872 -0.4096  1.9920
  700MOL0     H96543   7.365  11.243   6.209 -2.9224 -0.1178  1.4515
  700MOL0     H96544   7.333  11.169   6.352 -2.4502  2.9430 -0.0241
  700MOL0     H96545   7.535  11.399   6.306 -1.4853 -0.9685 -1.9631
  700MOL0     H96546   7.513  11.331   6.463  1.3770  0.8161 -2.1632
  700MOL0     H96547   7.407  11.536   6.461 -5.8851  2.7522  2.3566
  700MOL0     H96548   7.322  11.505   6.305 -3.2731 -2.2570  0.3296
  700MOL0     H96549   7.277  11.430   6.698  1.2653  0.9177 -1.9689
  700MOL0     H96550   7.025  11.334   6.816 -1.1042 -2.2714  3.2077
  700MOL0     H96551   7.131  11.188   6.797 -1.1273 -0.0182 -0.3761
  700MOL0     H96552   6.912  11.160   6.856  2.0899 -2.8849  0.4327
  700MOL0     H96553   6.857  11.254   6.720 -0.3951  1.0405  2.3156
  700MOL0     H96554   6.943  11.067   6.555  2.8336  0.9487  0.1514
  700MOL0     H96555   6.985  10.968   6.690 -1.3291 -0.1825  3.3953
  700MOL0     H96556   6.759  10.974   6.798 -2.7373  2.4441 -0.4871
  700MOL0     H96557   6.688  11.046   6.652 -0.4475  1.1340  2.0058
  700MOL0     H96558   6.581  10.855   6.835 -0.7054 -1.3718  0.0427
  700MOL0     H96559   6.304  10.801   6.897  1.6398  0.8240  1.3272
  700MOL0     H96560   6.449  10.726   6.966  1.3441  0.5208 -0.3332
  700MOL0     H96561   6.328  10.616   6.890  2.4333 -0.6170 -4.2417
  700MOL0     H96562   6.096  10.353   6.669 -0.9080  0.6122  0.2248
  700MOL0     H96563   5.917  10.246   6.605 -2.0131  1.1043 -0.0245
  700MOL0     H96564   5.716  10.132   6.276  2.3767 -0.0861  0.3196
  700MOL0     H96565   5.827  10.117   6.410  1.3341  2.9546  0.0757
  700MOL0     H96566   5.617   9.983   6.483  1.1436  0.2811  0.0334
  700MOL0     H96567   5.648  10.139   6.572  0.1019  1.1766 -0.4489
  700MOL0     H96568   5.487  10.089   6.323 -1.1857  0.7394  0.5910
  700MOL0     H96569   5.475  10.243   6.423 -0.7866  1.2444 -0.2581
  700MOL0     H96570   5.384  10.105   6.604  1.1826  1.2751 -0.9817
  700MOL0     H96571   5.384   9.958   6.493  1.6633  0.3154 -0.3524
  700MOL0     H96572   5.245  10.219   6.428  1.4393 -0.6580 -1.8613
  700MOL0     H96573   5.220  10.057   6.356  0.6468 -1.7759  0.6420
  700MOL0     H96574   5.151  10.140   6.642 -0.1835 -0.4587  0.7379
  700MOL0     H96575   5.151   9.972   6.582 -0.5377  1.7871  1.7211
  700MOL0     H96576   4.983  10.018   6.435 -0.1434  2.7630 -2.9906
  700MOL0     H96577   4.983  10.198   6.485 -0.1605 -0.4302  0.5376
  700MOL0     H96578   4.805  10.034   6.554 -0.0462 -0.0304  0.9450
  700MOL0     H96579   4.871  10.119   6.689 -0.5527 -0.7111 -0.5353
  700MOL0     H96580   5.850  10.511   6.265  2.8503  1.7015 -2.0078
  700MOL0     H96581   6.057  10.603   6.310  2.1611 -1.2679 -1.0072
  700MOL0     H96582   6.427  10.667   6.402 -1.0698 -4.1268 -0.6329
  700MOL0     H96583   6.642  10.746   6.428 -0.2210  1.3466 -0.0610
  700MOL0     H96584   8.228  11.115   6.061  3.2957 -0.5329  0.7381
  700MOL0     H96585   8.444  11.022   5.988  0.8295 -1.1736 -1.0296
  700MOL0     H96586   8.715  10.617   5.988  3.1060 -3.8210 -0.6906
  700MOL0     H96587   8.960  10.609   5.967  1.6833 -3.2240 -2.7104
  700MOL0     H96588   9.154  10.800   5.907  2.8240  3.1845 -0.8853
  700MOL0     H96589   9.291  10.719   5.817 -1.8028 -4.6785  0.3473
  700MOL0     H96590   9.108  10.937   5.712 -0.2297 -0.3527 -0.2286
  700MOL0     H96591   9.231  10.865   5.619 -1.4196  1.7602 -0.6035
  700MOL0     H96592   9.395  10.938   5.815 -0.6361 -2.9142  0.4415
  700MOL0     H96593   9.354  11.015   5.674 -0.6739 -4.6054 -0.9362
  700MOL0     H96594   9.163  11.154   5.808 -1.7086 -1.2716  2.0113
  700MOL0     H96595   9.328  11.175   5.864 -1.0745  0.1264 -1.5162
  700MOL0     H96596   9.182  10.977   6.201  0.5978 -0.8915  0.1968
  700MOL0     H96597   8.941  10.796   5.588 -2.8053 -3.1175 -2.8519
  700MOL0     H96598   8.657  10.791   5.505 -0.3356  1.4978 -1.1411
  700MOL0     H96599   8.611  10.924   5.606  0.0822  0.2657 -2.4873
  700MOL0     H96600   8.762  10.937   5.529  3.7754 -1.8128  0.7410
  701MOL0     O96601   3.081  10.811   5.624  0.5425  1.0197  0.2906
  701MOL0     C96602   3.133  10.797   5.740 -0.0883 -0.3664  0.0779
  701MOL0     O96603   3.267  10.784   5.757  0.8807  0.6785 -0.8420
  701MOL0     C96604   3.341  10.758   5.650 -1.1449  1.0779 -0.1331
  701MOL0     C96605   3.389  10.852   5.563  0.0010 -0.9532 -0.5717
  701MOL0     C96606   3.477  10.826   5.463  0.5149  0.0791  0.5829
  701MOL0     C96607   3.532  10.701   5.445 -0.7848  0.3827  1.0954
  701MOL0     O96608   3.627  10.682   5.347 -0.9530  0.7707  0.3424
  701MOL0     C96609   3.660  10.554   5.289 -0.6921  0.5965  0.8124
  701MOL0     C96610   3.768  10.573   5.179 -0.4598 -0.0232 -0.1183
  701MOL0     C96611   3.898  10.633   5.246 -0.3543  0.5520 -1.1049
  701MOL0     C96612   4.015  10.558   5.213 -0.0512 -0.4525 -0.4293
  701MOL0     C96613   4.140  10.622   5.271 -0.6596  0.4956  1.2213
  701MOL0     C96614   4.255  10.507   5.278 -1.0529  0.3312 -0.0401
  701MOL0     C96615   4.403  10.569   5.314  0.5039  0.8649  0.1903
  701MOL0     C96616   4.407  10.680   5.408 -0.5265 -0.1016 -0.3245
  701MOL0     N96617   4.380  10.636   5.548 -0.5748  1.1509 -0.0327
  701MOL0     C96618   4.261  10.662   5.595 -0.1822 -0.8575 -0.6013
  701MOL0     C96619   4.249  10.585   5.705  0.4298 -0.1143  0.5141
  701MOL0     C96620   4.122  10.553   5.783 -0.2577  0.5938  0.0109
  701MOL0     C96621   4.024  10.487   5.687 -0.4040  1.1992  1.0628
  701MOL0     C96622   3.914  10.429   5.768  0.0991  0.7222  0.4122
  701MOL0     C96623   3.815  10.365   5.680  0.6098 -1.1988  0.6026
  701MOL0     O96624   3.880  10.268   5.590  0.1118  0.0298 -0.5727
  701MOL0     C96625   3.907  10.141   5.643  0.5510 -0.0139  0.8757
  701MOL0     C96626   3.958  10.037   5.563  1.0153  0.3760  0.2799
  701MOL0     C96627   3.994   9.905   5.616 -0.6747  0.0705 -0.6875
  701MOL0     C96628   4.047   9.801   5.520  0.2913  0.3034  0.3164
  701MOL0     C96629   3.980   9.883   5.761  0.6264  1.0723  0.4596
  701MOL0     C96630   4.013   9.760   5.835 -0.1878  0.0920  0.9147
  701MOL0     O96631   4.055   9.646   5.776  0.2246 -0.1544  0.3937
  701MOL0     C96632   4.097   9.539   5.844 -0.3429  1.3530 -1.6010
  701MOL0     C96633   4.006   9.439   5.876  0.7135  0.6643 -0.3184
  701MOL0     C96634   4.049   9.330   5.942  0.0828  0.3380 -0.2616
  701MOL0     C96635   4.189   9.309   5.981  1.3290  0.5382  0.3860
  701MOL0     O96636   4.245   9.203   6.045 -0.1976 -0.4573 -0.2710
  701MOL0     C96637   4.182   9.074   6.068 -0.1966 -0.4292 -0.0775
  701MOL0     C96638   4.205   8.979   5.958  0.4663 -0.7916  0.5500
  701MOL0     C96639   4.078   8.900   5.914 -0.4843 -0.3736 -0.0121
  701MOL0     C96640   4.122   8.788   5.829 -0.3633 -0.5082  0.6774
  701MOL0     C96641   4.006   8.691   5.793 -1.0217  0.0069  0.3718
  701MOL0     C96642   3.968   8.613   5.918 -0.4402  0.2920 -0.7467
  701MOL0     C96643   3.875   8.495   5.893  0.3497  0.3521 -1.0284
  701MOL0     C96644   3.756   8.550   5.818 -0.5110  0.1600  0.3056
  701MOL0    Cl96645   3.611   8.447   5.840 -0.5340  0.0648  0.5991
  701MOL0     C96646   4.270   9.415   5.946  0.0976  1.3513 -0.5621
  701MOL0     C96647   4.228   9.524   5.874 -1.1967 -0.3538 -0.7537
  701MOL0     O96648   4.011   9.771   5.958 -0.2851 -0.1877 -0.9917
  701MOL0     C96649   3.926   9.987   5.835  0.5013 -0.8255  0.0161
  701MOL0     C96650   3.893  10.105   5.776  0.0615  0.9973 -0.0059
  701MOL0     N96651   4.367  10.531   5.729 -0.5689 -0.5296  0.2507
  701MOL0     N96652   4.450  10.558   5.637 -0.3766 -0.0928  0.1434
  701MOL0     C96653   3.479  10.593   5.531 -0.4300  0.0766  0.8355
  701MOL0     C96654   3.389  10.630   5.627  0.2433  0.5333 -0.2035
  701MOL0     C96655   3.044  10.802   5.859  0.1407 -0.1768  0.8013
  701MOL0     C96656   3.103  10.767   5.989  1.0313  0.0172  0.4252
  701MOL0     C96657   3.022  10.778   6.108 -0.9541 -0.2466 -1.1398
  701MOL0     C96658   2.893  10.825   6.098  0.5510 -0.3324  0.4224
  701MOL0     O96659   2.838  10.841   6.222  0.5003  0.3420  0.3642
  701MOL0     C96660   2.800  10.974   6.262  0.1585  0.1992  0.1129
  701MOL0     C96661   2.780  10.966   6.417  0.3477 -0.0290  0.9215
  701MOL0     C96662   2.695  11.085   6.447  0.7508 -0.4188  0.2544
  701MOL0     C96663   2.665  11.112   6.599 -0.6331 -0.2063  0.2186
  701MOL0     C96664   2.546  11.183   6.624 -0.5435  0.4843 -0.8988
  701MOL0     C96665   2.463  11.253   6.675 -0.2566 -0.0853 -0.1261
  701MOL0     C96666   2.835  10.867   5.981 -0.4872 -0.3777 -0.1739
  701MOL0     C96667   2.905  10.857   5.859 -0.3266 -0.3980 -1.0182
  701MOL0     C96668   2.840  10.916   5.742  0.0928 -0.2123  0.0341
  701MOL0     H96669   3.343  10.950   5.574 -1.2572 -1.3569 -1.8030
  701MOL0     H96670   3.518  10.907   5.404  3.3844 -1.4929  0.2136
  701MOL0     H96671   3.577  10.497   5.247  1.5812 -1.0996 -1.7046
  701MOL0     H96672   3.709  10.486   5.359 -1.3243  0.2819  0.9473
  701MOL0     H96673   3.794  10.481   5.126 -0.2660 -2.4953  3.9137
  701MOL0     H96674   3.729  10.643   5.103 -0.6308  1.7772  1.5471
  701MOL0     H96675   3.914  10.733   5.204  0.7838  0.6426 -0.4832
  701MOL0     H96676   3.884  10.649   5.353 -4.4715 -2.2177 -0.9932
  701MOL0     H96677   4.012  10.454   5.247  0.5409 -0.8962 -1.6724
  701MOL0     H96678   4.029  10.539   5.107  1.2270 -2.3881  0.0346
  701MOL0     H96679   4.112  10.668   5.366  0.9390  1.4995  1.2417
  701MOL0     H96680   4.167  10.697   5.195  1.2182 -1.0130  0.3158
  701MOL0     H96681   4.240  10.439   5.363  1.3986  2.1970  2.0326
  701MOL0     H96682   4.273  10.452   5.185 -0.2900  1.0919 -0.3556
  701MOL0     H96683   4.432  10.613   5.218  2.9370  1.7599  1.2382
  701MOL0     H96684   4.471  10.487   5.338  0.7549  0.5475 -1.4545
  701MOL0     H96685   4.501  10.736   5.403 -1.5315  1.6551 -0.3785
  701MOL0     H96686   4.338  10.761   5.384  1.9009  1.8019 -1.2314
  701MOL0     H96687   4.174  10.705   5.545  0.1152  2.5457  1.5470
  701MOL0     H96688   4.077  10.646   5.821  0.9437  1.0370  0.3899
  701MOL0     H96689   4.154  10.491   5.868 -0.5584  2.2655  1.3975
  701MOL0     H96690   3.996  10.567   5.617  0.2125  2.7174  2.4844
  701MOL0     H96691   4.081  10.406   5.641 -2.4723  0.6373 -0.6715
  701MOL0     H96692   3.963  10.360   5.838  4.5896  0.5212 -2.5514
  701MOL0     H96693   3.863  10.503   5.830  0.0835  1.8370 -0.8950
  701MOL0     H96694   3.735  10.318   5.740 -0.5568 -0.1477 -0.0815
  701MOL0     H96695   3.777  10.445   5.616  1.3166 -0.0282  1.6134
  701MOL0     H96696   3.982  10.067   5.462 -1.8783  1.8248 -0.0799
  701MOL0     H96697   3.959   9.764   5.466 -1.3801  3.8531  0.3030
  701MOL0     H96698   4.105   9.723   5.570  0.1318  0.0803  0.1520
  701MOL0     H96699   4.116   9.841   5.446  0.9998 -0.1503  0.7173
  701MOL0     H96700   3.910   9.440   5.827  0.6721 -0.5278 -0.2987
  701MOL0     H96701   3.986   9.241   5.951  0.4705  0.2917  4.2023
  701MOL0     H96702   4.231   9.037   6.159  1.1128  1.2835 -0.0351
  701MOL0     H96703   4.075   9.084   6.089  0.3491  1.4179  2.1936
  701MOL0     H96704   4.237   9.034   5.869  0.1655 -0.3398  0.7201
  701MOL0     H96705   4.286   8.915   5.993  0.7564  0.1898  1.7694
  701MOL0     H96706   4.005   8.959   5.858 -0.3192 -0.6135 -0.4767
  701MOL0     H96707   4.023   8.868   6.003  1.4557 -0.1373  1.3318
  701MOL0     H96708   4.196   8.729   5.884 -0.3876  1.3371  2.8656
  701MOL0     H96709   4.165   8.830   5.738  0.2582  0.7028  1.4920
  701MOL0     H96710   3.920   8.737   5.744 -0.7428  1.1274  0.9026
  701MOL0     H96711   4.040   8.617   5.720 -2.1283 -0.4215  0.2795
  701MOL0     H96712   3.918   8.686   5.982 -1.1531 -2.5482  2.2192
  701MOL0     H96713   4.054   8.577   5.975 -0.3693  0.6592 -0.6191
  701MOL0     H96714   3.845   8.458   5.992 -0.0733 -2.5302 -2.1190
  701MOL0     H96715   3.924   8.416   5.836 -1.5111 -3.1784  1.7737
  701MOL0     H96716   3.782   8.552   5.712 -1.5312  3.3748  0.0255
  701MOL0     H96717   3.730   8.649   5.857 -1.1802 -0.5810  1.8456
  701MOL0     H96718   4.370   9.402   5.984 -1.1094  1.0318  2.8769
  701MOL0     H96719   4.303   9.596   5.842 -0.0025 -0.4246  1.6505
  701MOL0     H96720   3.906   9.987   5.942 -1.6301 -0.0426 -0.3449
  701MOL0     H96721   3.853  10.180   5.843  1.9329  2.1911 -0.1544
  701MOL0     H96722   3.502  10.488   5.517 -0.0064  0.2967 -0.1984
  701MOL0     H96723   3.350  10.558   5.698 -2.6192  0.3769 -1.7914
  701MOL0     H96724   3.199  10.717   5.984  0.3984 -1.2092  0.1873
  701MOL0     H96725   3.060  10.750   6.205 -0.4743  1.1101 -0.9191
  701MOL0     H96726   2.876  11.047   6.233 -0.7471  1.6415  1.2525
  701MOL0     H96727   2.708  10.991   6.205  0.7997 -0.7459 -1.2563
  701MOL0     H96728   2.875  10.950   6.469 -0.8464  0.8309  3.5506
  701MOL0     H96729   2.723  10.876   6.443  0.4675  0.1594  1.9063
  701MOL0     H96730   2.747  11.175   6.411 -0.5374 -0.8254 -2.9398
  701MOL0     H96731   2.592  11.069   6.414  0.5797 -4.2707  2.0735
  701MOL0     H96732   2.749  11.159   6.651 -1.0384 -0.6639  1.3102
  701MOL0     H96733   2.668  11.011   6.640  0.9015 -2.1900 -4.2072
  701MOL0     H96734   2.389  11.313   6.723  1.6837 -1.4345  5.2753
  701MOL0     H96735   2.732  10.902   5.980 -0.6649 -0.8332  0.8875
  701MOL0     H96736   2.854  10.845   5.660  1.2975  0.8805 -0.7463
  701MOL0     H96737   2.733  10.938   5.751  0.0638 -0.7562  1.1845
  701MOL0     H96738   2.902  11.000   5.709  0.9524 -1.3430 -1.3051
  702MOL0     O96739   5.379   9.028   7.430  0.7123 -0.1693  0.1347
  702MOL0     C96740   5.345   9.068   7.320  0.4598 -0.1486  0.0665
  702MOL0     O96741   5.270   9.175   7.297 -0.3795 -0.1275  0.5187
  702MOL0     C96742   5.215   9.240   7.407  0.3185 -0.4840  0.6748
  702MOL0     C96743   5.275   9.278   7.530  0.0895  0.3616 -0.5344
  702MOL0     C96744   5.200   9.350   7.626 -0.1399 -0.2552  0.0270
  702MOL0     C96745   5.066   9.389   7.599 -0.1202 -0.1055  1.3616
  702MOL0     O96746   4.981   9.446   7.689 -0.0227 -0.0643  0.1329
  702MOL0     C96747   5.009   9.446   7.827  0.0368  0.3740 -0.3805
  702MOL0     C96748   4.894   9.521   7.897 -0.9045 -0.0977 -0.7208
  702MOL0     C96749   4.773   9.432   7.916  0.4598 -0.2565  0.8927
  702MOL0     C96750   4.656   9.502   7.995  0.3410  0.0765  0.4885
  702MOL0     C96751   4.530   9.416   7.989  0.1952  0.0370 -1.0267
  702MOL0     C96752   4.399   9.482   8.043 -0.2512  0.9285  0.1000
  702MOL0     C96753   4.422   9.549   8.179  0.6236 -0.4592  0.3225
  702MOL0     C96754   4.300   9.585   8.262 -0.6311  0.5086  0.1540
  702MOL0     N96755   4.337   9.625   8.397  0.0732 -0.1959  0.2381
  702MOL0     C96756   4.347   9.530   8.499 -0.8994  0.2619 -0.2624
  702MOL0     C96757   4.363   9.607   8.608 -0.4095 -0.4570 -0.3588
  702MOL0     C96758   4.409   9.543   8.738 -0.6330 -0.8140  0.0648
  702MOL0     C96759   4.536   9.451   8.707 -0.5417 -0.5889  0.1956
  702MOL0     C96760   4.579   9.366   8.833  0.2125  0.2740  0.1597
  702MOL0     C96761   4.667   9.252   8.787  0.8673  0.6037 -0.5064
  702MOL0     O96762   4.699   9.165   8.895 -0.4076 -1.0321  0.0821
  702MOL0     C96763   4.820   9.187   8.947 -0.5680 -0.1907  0.9661
  702MOL0     C96764   4.840   9.279   9.039  0.1132  0.0517 -0.5617
  702MOL0     C96765   4.955   9.297   9.111  0.0141 -0.1416 -0.2462
  702MOL0     C96766   4.964   9.411   9.218 -0.6225  0.6742 -0.1927
  702MOL0     C96767   5.074   9.214   9.079  0.7858  0.6007 -0.3861
  702MOL0     C96768   5.196   9.228   9.149  0.3442  0.5697 -0.2213
  702MOL0     O96769   5.302   9.211   9.067 -0.0299 -0.0056  1.3085
  702MOL0     C96770   5.403   9.306   9.055  0.6831 -0.1745 -0.1357
  702MOL0     C96771   5.490   9.282   8.956  0.7672  0.5268  1.1307
  702MOL0     C96772   5.597   9.376   8.935  0.1983  0.1314 -0.0146
  702MOL0     C96773   5.629   9.472   9.033 -0.7987  0.1423 -0.3300
  702MOL0     O96774   5.746   9.540   9.023  0.1805  0.0110 -0.7592
  702MOL0     C96775   5.750   9.683   9.061 -0.2287 -0.7225  0.0621
  702MOL0     C96776   5.863   9.747   8.981 -0.2856  0.3095  0.7927
  702MOL0     C96777   6.004   9.681   9.027 -0.1253  0.3426  0.7247
  702MOL0     C96778   6.052   9.750   9.155  0.0332  0.1199  0.3200
  702MOL0     C96779   6.172   9.694   9.226  0.1879  0.8833  0.4369
  702MOL0     C96780   6.303   9.729   9.144  0.8811  0.4707 -0.6508
  702MOL0     C96781   6.414   9.668   9.229  0.1505 -0.6011  0.1827
  702MOL0     C96782   6.547   9.695   9.166  0.4905 -1.0033 -0.3540
  702MOL0    Cl96783   6.581   9.594   9.018  0.2393  0.4147  0.3875
  702MOL0     C96784   5.560   9.467   9.151  0.0140 -0.1195 -0.6516
  702MOL0     C96785   5.438   9.393   9.154  0.0002  0.3071 -0.2496
  702MOL0     O96786   5.205   9.246   9.268 -0.2729 -0.3699 -0.5726
  702MOL0     C96787   5.048   9.121   8.978  0.7457  1.0643  0.5366
  702MOL0     C96788   4.926   9.120   8.900 -0.6804  0.1974  1.0462
  702MOL0     N96789   4.356   9.747   8.580  0.1458  0.1401 -0.3340
  702MOL0     N96790   4.334   9.752   8.447 -0.3048  0.4543 -0.6569
  702MOL0     C96791   5.021   9.369   7.467  0.3716 -0.2681 -0.9471
  702MOL0     C96792   5.093   9.293   7.365 -0.2137 -0.0330 -0.3180
  702MOL0     C96793   5.380   8.972   7.210 -0.0772 -0.6490 -0.7942
  702MOL0     C96794   5.393   8.842   7.249  0.6386  0.3283 -0.7691
  702MOL0     C96795   5.398   8.746   7.151 -0.3307 -0.0940 -0.6041
  702MOL0     C96796   5.414   8.774   7.017 -0.4248  1.0042  0.1631
  702MOL0     O96797   5.432   8.684   6.915 -0.1523 -0.3008  0.1186
  702MOL0     C96798   5.405   8.541   6.933  0.1268  0.0291 -1.2584
  702MOL0     C96799   5.531   8.466   6.973 -0.0761  0.2116 -0.2156
  702MOL0     C96800   5.538   8.327   6.904 -1.1826  0.3937 -0.8848
  702MOL0     C96801   5.672   8.259   6.900  0.5106 -0.6574 -0.0506
  702MOL0     C96802   5.655   8.117   6.876  0.6635  0.1656  0.3950
  702MOL0     C96803   5.627   7.995   6.878  0.2184  0.3327  0.5836
  702MOL0     C96804   5.426   8.908   6.982 -0.9390 -0.3347 -0.0664
  702MOL0     C96805   5.402   9.004   7.075 -0.4240 -0.0847 -0.1623
  702MOL0     C96806   5.375   9.135   7.017 -0.3872 -0.1524 -0.2195
  702MOL0     H96807   5.365   9.233   7.568 -0.2039  1.0280  1.0115
  702MOL0     H96808   5.241   9.366   7.726  0.1550  1.7864 -0.3662
  702MOL0     H96809   5.099   9.501   7.854  0.6266 -1.7783  2.4597
  702MOL0     H96810   5.019   9.342   7.860  2.3318  0.4737 -0.5815
  702MOL0     H96811   4.928   9.566   7.992 -0.7106 -0.1412 -0.7687
  702MOL0     H96812   4.872   9.611   7.839 -1.6169 -0.4617 -1.0196
  702MOL0     H96813   4.750   9.427   7.809  2.6296  2.0319  0.2378
  702MOL0     H96814   4.795   9.335   7.962 -0.5616  0.8067  3.8070
  702MOL0     H96815   4.677   9.521   8.101  1.1846 -2.1674  0.7769
  702MOL0     H96816   4.642   9.599   7.946  1.8467 -0.9739 -2.2587
  702MOL0     H96817   4.549   9.324   8.045 -2.6581  0.1888  0.3596
  702MOL0     H96818   4.513   9.377   7.888 -2.9217  0.3826 -0.7456
  702MOL0     H96819   4.353   9.555   7.976 -1.0698 -0.8931 -1.4148
  702MOL0     H96820   4.324   9.403   8.045 -0.1560  0.7723 -1.5851
  702MOL0     H96821   4.475   9.642   8.156 -0.1925 -1.1438 -5.7684
  702MOL0     H96822   4.490   9.485   8.237 -0.8688 -0.5702  2.0445
  702MOL0     H96823   4.241   9.653   8.201  1.8384  1.9746 -0.7550
  702MOL0     H96824   4.242   9.492   8.260 -0.0226  0.1119 -2.4909
  702MOL0     H96825   4.370   9.425   8.489  1.1961  0.6353  0.1514
  702MOL0     H96826   4.323   9.495   8.785 -0.3446 -0.2112  1.2503
  702MOL0     H96827   4.444   9.622   8.805 -0.6867 -0.4440 -0.3399
  702MOL0     H96828   4.514   9.371   8.637  0.1974 -1.8277  1.3344
  702MOL0     H96829   4.610   9.519   8.664 -1.4980 -0.9030 -2.0743
  702MOL0     H96830   4.632   9.433   8.901  0.8870 -0.3539  0.2609
  702MOL0     H96831   4.495   9.321   8.887  0.9449 -2.0679 -0.5608
  702MOL0     H96832   4.609   9.189   8.719  1.6596 -2.3072  1.3109
  702MOL0     H96833   4.753   9.297   8.736 -0.1663  0.2731 -2.6236
  702MOL0     H96834   4.753   9.340   9.064 -0.3329  0.0488 -2.0444
  702MOL0     H96835   4.886   9.487   9.211 -3.6418 -2.3609 -3.0177
  702MOL0     H96836   5.065   9.454   9.216  0.1912 -1.1953 -1.5543
  702MOL0     H96837   4.944   9.374   9.319 -0.1066  3.5129  1.0536
  702MOL0     H96838   5.467   9.198   8.891  0.0384  0.2832  1.6858
  702MOL0     H96839   5.657   9.377   8.844 -0.5275  1.7980 -0.5201
  702MOL0     H96840   5.656   9.728   9.027  0.2236 -2.2709 -3.6644
  702MOL0     H96841   5.760   9.690   9.170  2.6799 -4.3119  0.2032
  702MOL0     H96842   5.848   9.726   8.874 -1.6066  4.4940 -0.0233
  702MOL0     H96843   5.873   9.856   8.987  0.4631  0.3493 -0.8110
  702MOL0     H96844   6.078   9.704   8.950  2.3062  2.1328  3.3492
  702MOL0     H96845   5.997   9.574   9.050  1.7790  0.8124  4.2869
  702MOL0     H96846   5.970   9.749   9.228 -0.4276  0.4455 -0.1834
  702MOL0     H96847   6.076   9.855   9.136  1.0910 -0.2999 -0.7623
  702MOL0     H96848   6.177   9.734   9.328 -0.9738  1.3142  0.3309
  702MOL0     H96849   6.164   9.585   9.236 -1.0362  1.0230  1.1296
  702MOL0     H96850   6.314   9.837   9.141 -0.7161  0.7687  1.8097
  702MOL0     H96851   6.310   9.695   9.040 -4.0614 -0.9305 -0.7888
  702MOL0     H96852   6.400   9.560   9.246  0.3741 -1.0683 -2.2828
  702MOL0     H96853   6.408   9.721   9.325 -2.3750 -0.6953  0.1489
  702MOL0     H96854   6.622   9.693   9.246  0.7995  0.5614 -0.5662
  702MOL0     H96855   6.552   9.801   9.139 -0.2020 -0.5338  1.2383
  702MOL0     H96856   5.595   9.527   9.234 -2.1955 -0.2109  0.4237
  702MOL0     H96857   5.377   9.382   9.243  1.0563  2.9093  0.9074
  702MOL0     H96858   5.130   9.058   8.946  1.5142  1.8958  0.8298
  702MOL0     H96859   4.927   9.048   8.819  0.4618  1.4340 -0.1026
  702MOL0     H96860   4.925   9.411   7.437 -0.2136  0.3723  1.5676
  702MOL0     H96861   5.059   9.285   7.262 -2.6242  0.4071  0.3906
  702MOL0     H96862   5.399   8.812   7.353 -1.4952  0.7332 -0.4781
  702MOL0     H96863   5.411   8.644   7.185  1.5080 -0.5179 -2.4148
  702MOL0     H96864   5.331   8.524   7.013  0.7697  2.3409 -0.0977
  702MOL0     H96865   5.364   8.507   6.837 -1.1321 -1.2398 -0.3169
  702MOL0     H96866   5.549   8.469   7.081 -0.8658 -2.7919  0.0707
  702MOL0     H96867   5.615   8.523   6.932 -0.1141  0.6685  0.3179
  702MOL0     H96868   5.462   8.264   6.951 -0.9126  0.2277 -0.6761
  702MOL0     H96869   5.503   8.353   6.803  0.2617  2.9695 -0.8098
  702MOL0     H96870   5.733   8.273   6.990  1.7007  0.8226 -1.0335
  702MOL0     H96871   5.728   8.306   6.819  0.8883 -1.8429 -0.4949
  702MOL0     H96872   5.596   7.892   6.879 -0.0499  0.3299 -1.9497
  702MOL0     H96873   5.453   8.935   6.881  0.5987 -1.1265  0.1035
  702MOL0     H96874   5.303   9.200   7.067 -0.3022  0.3059 -0.6857
  702MOL0     H96875   5.469   9.189   7.002 -0.1990  0.1405  1.8460
  702MOL0     H96876   5.323   9.120   6.922 -2.2873 -0.5320  0.8328
  703MOL0     O96877   3.561   4.426   4.549 -0.1377 -0.1963  0.6389
  703MOL0     C96878   3.481   4.378   4.464 -0.4512 -0.1997 -0.5509
  703MOL0     O96879   3.351   4.345   4.501 -0.2829 -0.5604  0.1042
  703MOL0     C96880   3.285   4.422   4.604  0.2921 -0.3654 -0.6422
  703MOL0     C96881   3.291   4.567   4.610  0.0844  0.6044  0.3849
  703MOL0     C96882   3.207   4.635   4.700  0.3515  0.0098 -0.0097
  703MOL0     C96883   3.113   4.560   4.768 -0.7819  0.8770 -0.1123
  703MOL0     O96884   3.029   4.621   4.865 -0.2826  0.4423  0.2043
  703MOL0     C96885   2.890   4.598   4.854  0.7599  0.8880 -0.3991
  703MOL0     C96886   2.807   4.727   4.897  0.5745  0.1902  1.9367
  703MOL0     C96887   2.869   4.858   4.827 -0.4151  1.0835  0.1501
  703MOL0     C96888   2.881   4.844   4.675  0.5149 -0.3363  0.2391
  703MOL0     C96889   2.933   4.982   4.619  0.1987 -0.4789 -0.2882
  703MOL0     C96890   2.817   5.084   4.603  0.3532  0.1948 -0.4349
  703MOL0     C96891   2.865   5.203   4.529  0.1013 -0.3661  0.5972
  703MOL0     C96892   2.737   5.298   4.518 -0.3479 -0.0020  0.7044
  703MOL0     N96893   2.697   5.359   4.645  0.5935 -0.9603  0.8626
  703MOL0     C96894   2.775   5.368   4.761  0.0872  0.0787 -0.5380
  703MOL0     C96895   2.717   5.474   4.830 -0.9578  1.1025  0.6499
  703MOL0     C96896   2.769   5.530   4.956 -0.2215 -0.0888 -0.0217
  703MOL0     C96897   2.673   5.501   5.078  0.0368  0.0639 -1.0321
  703MOL0     C96898   2.658   5.349   5.096 -0.4483 -0.1048  0.1175
  703MOL0     C96899   2.782   5.283   5.148 -0.5770  0.0724 -0.4488
  703MOL0     O96900   2.751   5.149   5.168 -0.2234 -0.2017  0.2422
  703MOL0     C96901   2.657   5.115   5.255  0.4800  0.6459 -0.1129
  703MOL0     C96902   2.573   5.008   5.223  0.1924  0.0404  0.0242
  703MOL0     C96903   2.463   4.967   5.308  0.0382  0.4044  0.1057
  703MOL0     C96904   2.388   4.840   5.271  0.1929 -0.3916 -0.3904
  703MOL0     C96905   2.444   5.035   5.423  0.0280 -0.0626  0.1568
  703MOL0     C96906   2.334   5.004   5.515  0.2760 -0.6219 -0.5400
  703MOL0     O96907   2.285   5.113   5.571 -0.7385 -0.4961  0.5389
  703MOL0     C96908   2.181   5.105   5.660  0.7175 -0.4116  1.2173
  703MOL0     C96909   2.085   5.208   5.635 -0.1504 -0.2541  0.2910
  703MOL0     C96910   1.956   5.196   5.689  0.3902  0.1647 -0.0863
  703MOL0     C96911   1.933   5.119   5.810  0.4282 -0.7676  1.3500
  703MOL0     O96912   1.809   5.110   5.876 -0.4783  0.3169 -0.0402
  703MOL0     C96913   1.703   5.090   5.785  1.3520  0.3756  0.2367
  703MOL0     C96914   1.621   5.220   5.777 -0.1518 -0.1627 -0.7814
  703MOL0     C96915   1.491   5.219   5.868 -0.3238  1.3912  0.0620
  703MOL0     C96916   1.435   5.360   5.884 -0.2277  0.5406 -0.3658
  703MOL0     C96917   1.336   5.363   6.009 -0.0849 -0.4296  0.3251
  703MOL0     C96918   1.261   5.497   6.010  0.3870  0.3260 -0.3292
  703MOL0     C96919   1.163   5.501   6.136  0.2806  0.2133  0.4595
  703MOL0     C96920   1.228   5.534   6.275 -0.6559  0.3927  0.4226
  703MOL0    Cl96921   1.316   5.695   6.271 -0.1491  0.6746 -0.3072
  703MOL0     C96922   2.040   5.036   5.846 -0.7292  0.5887 -0.7081
  703MOL0     C96923   2.154   5.013   5.763  0.5627  0.3742  0.3180
  703MOL0     O96924   2.299   4.888   5.540 -0.8308  0.2287  0.0013
  703MOL0     C96925   2.528   5.153   5.453  0.4479 -0.2405  0.2785
  703MOL0     C96926   2.632   5.188   5.368 -0.5832 -0.6022 -0.4183
  703MOL0     N96927   2.602   5.520   4.763  0.7554  0.8879  0.2586
  703MOL0     N96928   2.595   5.450   4.661 -0.0736 -0.0815 -0.2231
  703MOL0     C96929   3.113   4.425   4.755 -0.3324 -0.9298 -0.1342
  703MOL0     C96930   3.191   4.357   4.674 -0.3427 -0.3414  0.1237
  703MOL0     C96931   3.531   4.341   4.333  0.5445  0.2142  0.1484
  703MOL0     C96932   3.674   4.341   4.319 -0.0055 -0.4831  0.1999
  703MOL0     C96933   3.733   4.296   4.197  0.1814 -0.2234 -0.5679
  703MOL0     C96934   3.658   4.256   4.087 -0.0316 -0.4440 -0.4420
  703MOL0     O96935   3.734   4.199   3.984 -0.1080  0.0299 -0.6974
  703MOL0     C96936   3.664   4.149   3.864  0.0972  0.5919 -0.3939
  703MOL0     C96937   3.618   4.002   3.884 -0.0162 -0.3667  0.3054
  703MOL0     C96938   3.509   3.962   3.786 -0.1875 -0.3856 -0.2595
  703MOL0     C96939   3.567   3.856   3.682  0.0062 -0.7412  0.2574
  703MOL0     C96940   3.679   3.908   3.596 -0.8928 -0.3437  0.6300
  703MOL0     C96941   3.785   3.945   3.540  0.3905  0.6201  0.4560
  703MOL0     C96942   3.515   4.248   4.108 -0.3024  0.3171 -0.5275
  703MOL0     C96943   3.455   4.278   4.228 -0.1477 -0.0226 -0.2800
  703MOL0     C96944   3.319   4.234   4.244  0.0928  0.0733 -0.0661
  703MOL0     H96945   3.350   4.618   4.535 -1.2313  0.5791 -0.7072
  703MOL0     H96946   3.219   4.743   4.703  1.0500  0.0227 -2.0350
  703MOL0     H96947   2.858   4.517   4.919 -0.4347  0.9039 -0.9456
  703MOL0     H96948   2.874   4.574   4.748 -0.1082 -1.0001  0.1326
  703MOL0     H96949   2.702   4.718   4.868  0.2183 -5.2853  3.7585
  703MOL0     H96950   2.816   4.744   5.005  1.7963  2.3988  1.5532
  703MOL0     H96951   2.830   4.949   4.874  0.5788  1.7090 -0.2101
  703MOL0     H96952   2.971   4.859   4.867 -1.0056  2.0614  1.7594
  703MOL0     H96953   2.958   4.772   4.645  3.3024  2.5620  0.0221
  703MOL0     H96954   2.782   4.817   4.636 -0.0693 -1.3268  2.2483
  703MOL0     H96955   2.967   4.965   4.517 -0.0723 -0.7452 -0.3392
  703MOL0     H96956   3.023   5.023   4.664  0.3262 -1.1908  0.1261
  703MOL0     H96957   2.738   5.030   4.550 -0.4338 -0.7843  1.6275
  703MOL0     H96958   2.779   5.114   4.701 -2.8206 -0.9002 -1.2111
  703MOL0     H96959   2.897   5.192   4.425  1.8498 -2.2848  1.2820
  703MOL0     H96960   2.949   5.256   4.575 -0.7653  0.7635  0.9379
  703MOL0     H96961   2.778   5.375   4.452 -0.3484 -0.5192  0.0999
  703MOL0     H96962   2.648   5.246   4.482 -0.3496  0.8939 -0.6502
  703MOL0     H96963   2.871   5.321   4.779 -1.2082 -2.0831  1.4092
  703MOL0     H96964   2.775   5.639   4.949 -1.1910 -0.0108  0.2805
  703MOL0     H96965   2.874   5.500   4.965 -0.3696  0.1139  4.2656
  703MOL0     H96966   2.710   5.545   5.171  2.1724 -3.5733  0.0562
  703MOL0     H96967   2.576   5.549   5.060 -1.0333 -1.3025  0.6533
  703MOL0     H96968   2.577   5.343   5.169 -2.3540  0.6762 -1.8409
  703MOL0     H96969   2.628   5.307   5.000 -0.9849  3.2801 -1.3477
  703MOL0     H96970   2.857   5.285   5.068  1.7008  1.4447  1.6072
  703MOL0     H96971   2.830   5.332   5.233  0.3922 -2.9732  0.8866
  703MOL0     H96972   2.582   4.944   5.135  0.3203 -1.1420  0.8757
  703MOL0     H96973   2.279   4.854   5.271 -0.2003 -2.9119  1.1911
  703MOL0     H96974   2.397   4.761   5.345  2.1922  0.9268  0.8606
  703MOL0     H96975   2.431   4.793   5.182  1.6951  0.0071  0.1036
  703MOL0     H96976   2.106   5.283   5.560 -0.8758  0.1051  0.4358
  703MOL0     H96977   1.870   5.255   5.659  0.6277  0.7042  0.2721
  703MOL0     H96978   1.734   5.067   5.683 -1.8183 -1.1534 -0.4933
  703MOL0     H96979   1.636   5.010   5.820 -0.4841  2.4860  1.8752
  703MOL0     H96980   1.693   5.301   5.793  0.1481 -0.3701 -1.0630
  703MOL0     H96981   1.579   5.230   5.676 -1.5297 -0.2615 -0.2433
  703MOL0     H96982   1.503   5.176   5.967 -0.0489 -0.8549 -0.8894
  703MOL0     H96983   1.411   5.162   5.819  0.6851  0.5990 -0.7055
  703MOL0     H96984   1.384   5.403   5.798 -0.2458  0.0138 -0.6225
  703MOL0     H96985   1.520   5.425   5.906 -0.5214  0.9180 -0.3266
  703MOL0     H96986   1.269   5.277   6.003  0.8562 -1.0965 -1.4535
  703MOL0     H96987   1.394   5.341   6.099 -0.8436  1.7222  1.4256
  703MOL0     H96988   1.195   5.510   5.924 -1.1488  0.1619  0.7664
  703MOL0     H96989   1.328   5.583   6.014 -1.6888  2.1072 -1.3937
  703MOL0     H96990   1.107   5.408   6.125 -1.8148  1.5334 -0.5423
  703MOL0     H96991   1.090   5.579   6.117  1.2310  0.6351 -1.6829
  703MOL0     H96992   1.296   5.452   6.299 -1.3131 -0.4783 -0.6058
  703MOL0     H96993   1.149   5.551   6.348  0.2485  4.2992  0.7076
  703MOL0     H96994   2.029   4.970   5.931  1.1580  1.2499  0.1093
  703MOL0     H96995   2.216   4.925   5.763 -1.1054 -0.8594 -0.5249
  703MOL0     H96996   2.516   5.207   5.545  2.9731  4.5927 -1.8903
  703MOL0     H96997   2.682   5.283   5.386 -2.3020  0.5157 -1.3131
  703MOL0     H96998   3.038   4.377   4.817  0.9702  0.3328  2.6075
  703MOL0     H96999   3.170   4.251   4.660 -0.4098 -0.8503  3.2381
  703MOL0     H97000   3.736   4.389   4.394  0.8592  0.9855 -1.4036
  703MOL0     H97001   3.841   4.289   4.186  0.4826  1.8616  0.5549
  703MOL0     H97002   3.586   4.217   3.830  0.8693  1.2801 -0.8325
  703MOL0     H97003   3.746   4.149   3.792  1.4321  1.0548  1.0648
  703MOL0     H97004   3.568   3.995   3.981 -2.9904  1.0517 -0.9882
  703MOL0     H97005   3.700   3.931   3.874  1.8088  0.8560  4.3633
  703MOL0     H97006   3.421   3.917   3.834 -1.1613  0.3804 -1.2860
  703MOL0     H97007   3.466   4.052   3.742 -2.2503  0.1141  2.4773
  703MOL0     H97008   3.485   3.823   3.617 -0.9791 -0.3095  1.2381
  703MOL0     H97009   3.606   3.767   3.731  3.2111  0.6208  0.4070
  703MOL0     H97010   3.863   3.979   3.475  0.5122  0.1611  0.3620
  703MOL0     H97011   3.464   4.184   4.036  0.0695 -0.3641 -0.1887
  703MOL0     H97012   3.277   4.181   4.159  0.1005  2.2433 -1.5000
  703MOL0     H97013   3.318   4.154   4.318  3.1964 -1.0274 -1.0432
  703MOL0     H97014   3.255   4.321   4.264  1.5405  0.8310  1.5584
  704MOL0     O97015   8.533   6.105  10.330 -1.0317 -0.4526 -0.0010
  704MOL0     C97016   8.596   6.206  10.311 -0.5669 -0.7696 -0.5441
  704MOL0     O97017   8.672   6.239  10.203 -0.2395  0.0748 -0.0684
  704MOL0     C97018   8.674   6.153  10.097  0.3619 -0.0048 -0.3389
  704MOL0     C97019   8.795   6.091  10.065 -0.4470  0.1774  0.3465
  704MOL0     C97020   8.811   6.003   9.960 -0.3157 -0.0988  0.0223
  704MOL0     C97021   8.701   5.962   9.881  0.2730  0.5808 -0.0560
  704MOL0     O97022   8.703   5.882   9.770  0.4794 -0.1801  0.0083
  704MOL0     C97023   8.804   5.909   9.677  2.1683  0.1567 -0.4208
  704MOL0     C97024   8.738   5.841   9.557  0.2354  0.0084  0.6023
  704MOL0     C97025   8.601   5.904   9.515  0.1363  0.2089 -0.3031
  704MOL0     C97026   8.593   6.054   9.499  0.4006 -0.7002 -0.8231
  704MOL0     C97027   8.530   6.097   9.362  1.0950  0.1955  0.5053
  704MOL0     C97028   8.374   6.059   9.353  0.2934  0.3954  0.0721
  704MOL0     C97029   8.301   6.092   9.217 -0.4567  0.4312 -0.1388
  704MOL0     C97030   8.379   6.052   9.100  0.7140 -0.0567  0.2580
  704MOL0     N97031   8.307   6.109   8.981 -0.5724  0.7164 -0.4585
  704MOL0     C97032   8.376   6.153   8.874 -0.6879 -0.4730 -0.1578
  704MOL0     C97033   8.300   6.140   8.768 -0.5678 -0.2049  0.1835
  704MOL0     C97034   8.335   6.193   8.628 -0.1601 -0.3290 -0.0679
  704MOL0     C97035   8.258   6.323   8.597 -0.1589 -0.6803  0.1770
  704MOL0     C97036   8.294   6.448   8.677 -1.0737 -0.4540  0.4696
  704MOL0     C97037   8.447   6.465   8.678  0.3813 -0.7463 -0.1936
  704MOL0     O97038   8.511   6.479   8.552 -0.6085  0.1230 -1.0682
  704MOL0     C97039   8.644   6.517   8.556  0.6469  0.0624  0.3433
  704MOL0     C97040   8.728   6.457   8.459  0.5359 -0.1572 -0.4483
  704MOL0     C97041   8.865   6.469   8.465  0.0998  0.1102  0.8624
  704MOL0     C97042   8.944   6.393   8.366 -1.4037  0.2444  0.0529
  704MOL0     C97043   8.925   6.555   8.561 -0.9458  0.1636 -0.0806
  704MOL0     C97044   9.067   6.578   8.561 -0.5891 -0.8901 -0.4634
  704MOL0     O97045   9.134   6.563   8.676 -0.1284 -0.7728  0.1119
  704MOL0     C97046   9.258   6.621   8.679 -0.3862 -0.0541  0.0940
  704MOL0     C97047   9.264   6.758   8.668 -0.1049  1.0459 -0.2563
  704MOL0     C97048   9.386   6.832   8.666  0.5438  0.8264  0.4244
  704MOL0     C97049   9.507   6.757   8.664 -0.6920 -1.0035  0.0250
  704MOL0     O97050   9.623   6.834   8.672 -0.1224 -0.1810 -0.2741
  704MOL0     C97051   9.746   6.764   8.703  0.2851 -0.1708  0.1819
  704MOL0     C97052   9.868   6.862   8.703  0.1250  0.6958  0.2850
  704MOL0     C97053   9.974   6.780   8.781 -0.3996 -0.0793  0.1801
  704MOL0     C97054  10.124   6.835   8.768 -0.0953  0.0385 -0.2956
  704MOL0     C97055  10.218   6.747   8.847  0.0276 -0.7848  0.1755
  704MOL0     C97056  10.207   6.770   8.997 -0.3219 -0.1663 -0.5351
  704MOL0     C97057  10.206   6.912   9.052  0.1070 -0.1142  0.1338
  704MOL0     C97058  10.236   6.893   9.205 -0.0987 -0.0818  0.1954
  704MOL0    Cl97059  10.149   6.751   9.275 -0.1360 -0.0997 -0.1767
  704MOL0     C97060   9.498   6.614   8.688 -0.5451  0.3469 -0.2882
  704MOL0     C97061   9.378   6.545   8.691  0.5273 -0.0778 -0.2600
  704MOL0     O97062   9.113   6.623   8.449 -0.0278  0.5686 -0.5435
  704MOL0     C97063   8.844   6.633   8.640  0.3529 -0.4293 -0.5553
  704MOL0     C97064   8.703   6.610   8.645 -0.7463  0.7623  0.3731
  704MOL0     N97065   8.184   6.086   8.807  0.2796  0.0664 -0.3683
  704MOL0     N97066   8.190   6.066   8.937  0.6473 -0.2118  0.1149
  704MOL0     C97067   8.575   6.014   9.923 -0.7347  0.2639  0.0993
  704MOL0     C97068   8.561   6.114  10.028  0.2068  0.8348  0.0071
  704MOL0     C97069   8.574   6.323  10.411  0.4278 -0.2755 -0.6569
  704MOL0     C97070   8.574   6.453  10.360 -1.0006 -0.4497 -0.0606
  704MOL0     C97071   8.565   6.554  10.453 -0.0853 -0.1888 -0.2472
  704MOL0     C97072   8.535   6.534  10.591  0.3392  0.4565 -0.2456
  704MOL0     O97073   8.511   6.626  10.685  0.8458  0.2081 -0.1687
  704MOL0     C97074   8.508   6.761  10.656 -0.4245  0.1609  0.1784
  704MOL0     C97075   8.490   6.838  10.786 -0.2722 -0.0322  0.0443
  704MOL0     C97076   8.620   6.812  10.874  0.3220  0.5367  0.8267
  704MOL0     C97077   8.631   6.904  10.995 -0.3984 -0.3091  0.5843
  704MOL0     C97078   8.736   6.860  11.081 -0.0561  0.3685  0.1719
  704MOL0     C97079   8.838   6.830  11.142 -0.5244 -0.1316  0.9965
  704MOL0     C97080   8.520   6.401  10.639 -0.7678 -0.0775  0.3707
  704MOL0     C97081   8.540   6.292  10.549 -0.6929 -1.4315  0.3200
  704MOL0     C97082   8.540   6.158  10.603 -1.0401  0.4700  0.3704
  704MOL0     H97083   8.885   6.116  10.119 -0.9752  0.6559  1.0273
  704MOL0     H97084   8.913   5.975   9.936  0.2705  1.6820  0.3143
  704MOL0     H97085   8.904   5.867   9.685  1.1848 -2.5173 -1.2506
  704MOL0     H97086   8.807   6.015   9.650 -1.3013  0.5297  0.1274
  704MOL0     H97087   8.811   5.844   9.475 -1.4823 -0.7656 -1.0367
  704MOL0     H97088   8.738   5.732   9.562  1.2729 -0.0777 -0.6766
  704MOL0     H97089   8.594   5.866   9.413 -1.0754  0.1170 -0.2036
  704MOL0     H97090   8.512   5.868   9.567 -0.2160  0.7109 -0.5503
  704MOL0     H97091   8.543   6.098   9.586  2.9379  0.6164  0.0756
  704MOL0     H97092   8.695   6.093   9.496  1.5665 -2.9612  2.9210
  704MOL0     H97093   8.580   6.049   9.278 -1.9565 -0.2448 -1.2262
  704MOL0     H97094   8.542   6.205   9.355  2.1245  0.0261 -0.5101
  704MOL0     H97095   8.365   5.951   9.368  0.6093  0.4390  0.5788
  704MOL0     H97096   8.330   6.108   9.441 -2.0606 -3.1877  1.1093
  704MOL0     H97097   8.278   6.199   9.221 -0.6975  0.3985 -0.7047
  704MOL0     H97098   8.209   6.033   9.217  0.9335 -1.8946 -1.3652
  704MOL0     H97099   8.480   6.094   9.092  1.5084 -2.2244 -2.7796
  704MOL0     H97100   8.398   5.945   9.093  0.4573 -0.5349  4.3427
  704MOL0     H97101   8.475   6.193   8.854 -0.2769 -2.2196 -1.9268
  704MOL0     H97102   8.297   6.115   8.562  0.3375 -1.3686  0.8364
  704MOL0     H97103   8.441   6.207   8.607 -0.6524  4.0440 -0.7205
  704MOL0     H97104   8.266   6.344   8.490  1.5864 -3.3616 -0.3223
  704MOL0     H97105   8.154   6.300   8.623  0.2625 -0.7402  1.9101
  704MOL0     H97106   8.232   6.529   8.637  0.6603 -0.1985 -1.8924
  704MOL0     H97107   8.276   6.433   8.784  2.5327 -2.5421  0.9286
  704MOL0     H97108   8.473   6.544   8.749  3.5281 -3.5053  2.0943
  704MOL0     H97109   8.497   6.383   8.731  1.0794  0.2955  0.8243
  704MOL0     H97110   8.664   6.404   8.388 -0.4488  0.8565 -0.3354
  704MOL0     H97111   8.888   6.311   8.321  1.1152 -2.2413  1.1725
  704MOL0     H97112   9.022   6.340   8.421 -1.5344 -0.2663 -0.2424
  704MOL0     H97113   8.992   6.460   8.294  1.2445 -1.7474 -0.1751
  704MOL0     H97114   9.176   6.822   8.668  0.9610  2.5618  0.6889
  704MOL0     H97115   9.394   6.939   8.653 -0.1935  0.8075 -0.2934
  704MOL0     H97116   9.743   6.701   8.792  0.7946 -0.1405  0.2262
  704MOL0     H97117   9.773   6.699   8.619  0.4911  0.6851 -0.4360
  704MOL0     H97118   9.903   6.888   8.603  1.7707 -1.0133  0.3581
  704MOL0     H97119   9.839   6.953   8.755 -1.2984 -0.3299  1.4029
  704MOL0     H97120   9.972   6.673   8.756 -0.6277  0.6235 -3.2315
  704MOL0     H97121   9.944   6.787   8.886 -2.1086  0.3423 -0.3016
  704MOL0     H97122  10.124   6.937   8.807  0.7315 -0.7392  1.8995
  704MOL0     H97123  10.152   6.836   8.662 -0.3283 -1.0366 -0.3768
  704MOL0     H97124  10.197   6.642   8.825  0.3855 -0.7043 -0.5595
  704MOL0     H97125  10.320   6.770   8.816 -0.4493 -0.2093 -1.0358
  704MOL0     H97126  10.287   6.720   9.052  0.2181 -0.6649 -1.7579
  704MOL0     H97127  10.114   6.717   9.022 -0.4410 -1.9278 -4.0683
  704MOL0     H97128  10.110   6.965   9.045  0.9101  1.1782 -2.9147
  704MOL0     H97129  10.282   6.975   9.005 -0.2337 -0.5125 -0.9797
  704MOL0     H97130  10.232   6.981   9.270  3.8439 -0.6250  1.4500
  704MOL0     H97131  10.342   6.868   9.217 -0.2757 -1.4991 -0.9231
  704MOL0     H97132   9.594   6.564   8.683 -0.8107 -0.2145  0.1383
  704MOL0     H97133   9.379   6.437   8.694 -1.6212 -0.1393  1.1109
  704MOL0     H97134   8.887   6.695   8.718  1.1906 -2.4798  0.7188
  704MOL0     H97135   8.649   6.668   8.720  0.2805  1.3366  0.6880
  704MOL0     H97136   8.492   5.973   9.867  1.7044 -2.1302 -2.0489
  704MOL0     H97137   8.475   6.171  10.062  1.3155  0.9176  2.9568
  704MOL0     H97138   8.587   6.468  10.253  2.1853 -0.8073  0.1958
  704MOL0     H97139   8.579   6.655  10.414  0.9633  1.0706  2.9790
  704MOL0     H97140   8.610   6.784  10.624  0.2478 -0.2126  1.9293
  704MOL0     H97141   8.445   6.784  10.570  1.1447 -3.0136 -2.0302
  704MOL0     H97142   8.394   6.808  10.829 -0.2318 -1.1671 -0.6175
  704MOL0     H97143   8.488   6.946  10.773 -1.5043 -0.3690 -3.6317
  704MOL0     H97144   8.615   6.707  10.904  1.7151 -0.0241 -0.7080
  704MOL0     H97145   8.707   6.821  10.809 -2.8075  1.8387 -3.7030
  704MOL0     H97146   8.533   6.902  11.046 -2.0899  1.7720 -2.3098
  704MOL0     H97147   8.649   7.008  10.968 -1.2402 -0.5689 -1.0890
  704MOL0     H97148   8.930   6.811  11.194  1.6709  1.2815 -2.1026
  704MOL0     H97149   8.479   6.379  10.737 -0.5928 -2.2363  0.0024
  704MOL0     H97150   8.455   6.104  10.559 -1.6847  1.0787  0.8544
  704MOL0     H97151   8.627   6.093  10.585 -1.2034  0.6833 -1.3426
  704MOL0     H97152   8.537   6.173  10.711  2.0204  1.4775  0.4216
  705MOL0     O97153   2.479   5.137   1.684  0.4866  0.0469 -0.4221
  705MOL0     C97154   2.382   5.060   1.690 -1.3457  0.3143 -0.8909
  705MOL0     O97155   2.301   5.058   1.800 -0.0551 -0.0540 -0.6594
  705MOL0     C97156   2.335   5.149   1.903 -0.1879  0.4304  0.3434
  705MOL0     C97157   2.451   5.122   1.981 -0.1428  0.2802  0.1213
  705MOL0     C97158   2.483   5.209   2.085  0.7136 -0.5991 -0.0375
  705MOL0     C97159   2.405   5.327   2.116 -0.1662 -1.2023 -0.0681
  705MOL0     O97160   2.439   5.411   2.224 -0.0238  0.1211  1.3357
  705MOL0     C97161   2.492   5.536   2.188 -0.6447 -0.7811 -0.2468
  705MOL0     C97162   2.551   5.615   2.300 -0.0961  0.2808 -0.0838
  705MOL0     C97163   2.441   5.637   2.409  0.4440 -0.0311  0.7965
  705MOL0     C97164   2.496   5.737   2.513 -0.0535  0.9822 -0.3786
  705MOL0     C97165   2.443   5.879   2.487 -1.1793  0.0601  0.5215
  705MOL0     C97166   2.563   5.986   2.477 -0.4465 -0.4601  0.3892
  705MOL0     C97167   2.635   6.003   2.610 -0.4281 -0.2292  0.7062
  705MOL0     C97168   2.544   6.032   2.732 -0.3314 -0.4638  0.1355
  705MOL0     N97169   2.480   6.167   2.734  0.4443 -0.4061 -0.0673
  705MOL0     C97170   2.370   6.210   2.662  0.9824  0.6937 -0.8580
  705MOL0     C97171   2.352   6.341   2.679  0.4713  1.0114 -0.2602
  705MOL0     C97172   2.227   6.407   2.634  0.6486 -0.0548  0.6287
  705MOL0     C97173   2.271   6.531   2.557 -0.1900 -0.1398  0.0534
  705MOL0     C97174   2.144   6.584   2.480 -0.2920  0.2743 -0.0604
  705MOL0     C97175   2.117   6.516   2.337 -0.2025 -0.1471 -0.2734
  705MOL0     O97176   2.011   6.581   2.251 -0.0639  0.3081 -0.1998
  705MOL0     C97177   1.901   6.502   2.252  0.2821 -0.9668  0.0776
  705MOL0     C97178   1.810   6.487   2.356  1.0278 -0.2010 -0.7902
  705MOL0     C97179   1.699   6.398   2.358 -0.1096  0.3204  0.5008
  705MOL0     C97180   1.607   6.398   2.481 -0.2084  0.9531 -0.8021
  705MOL0     C97181   1.683   6.313   2.245 -0.4009 -0.7207 -0.3619
  705MOL0     C97182   1.591   6.190   2.239 -0.4566  0.0966  0.3440
  705MOL0     O97183   1.587   6.134   2.116 -0.2980 -0.6422 -0.4002
  705MOL0     C97184   1.496   6.026   2.091 -0.1739 -0.0894  0.3968
  705MOL0     C97185   1.541   5.914   2.035  0.1961  0.2063 -0.1975
  705MOL0     C97186   1.454   5.813   2.002 -0.1033 -0.2964 -0.1116
  705MOL0     C97187   1.313   5.818   2.026 -0.6623  0.2124 -0.7158
  705MOL0     O97188   1.233   5.718   1.971  0.4475 -0.1013 -0.8005
  705MOL0     C97189   1.089   5.738   1.976 -0.1621 -0.4101  0.1937
  705MOL0     C97190   1.026   5.608   1.921 -0.5154  0.5458  0.7332
  705MOL0     C97191   0.880   5.608   1.971  0.2679 -0.1599 -0.4187
  705MOL0     C97192   0.770   5.702   1.905 -0.2721  0.1875 -0.7998
  705MOL0     C97193   0.637   5.679   1.977  0.0583  0.7426  1.0634
  705MOL0     C97194   0.513   5.737   1.898 -0.4026  0.6392 -0.1564
  705MOL0     C97195   0.536   5.891   1.883  0.0698  0.2167 -0.0538
  705MOL0     C97196   0.407   5.976   1.871  0.4352  0.1350  0.0209
  705MOL0    Cl97197   0.326   5.962   1.705  0.0417 -0.1045 -0.2600
  705MOL0     C97198   1.264   5.940   2.076 -0.3802 -0.3447 -0.3647
  705MOL0     C97199   1.357   6.042   2.109  0.3118 -0.0147 -0.1083
  705MOL0     O97200   1.523   6.160   2.334  0.9982  0.0772 -0.4051
  705MOL0     C97201   1.766   6.339   2.130 -0.4572 -0.1045  0.3505
  705MOL0     C97202   1.874   6.424   2.140 -0.0255 -0.3640 -0.0411
  705MOL0     N97203   2.456   6.373   2.769  0.4883  0.0002 -0.2565
  705MOL0     N97204   2.538   6.280   2.796 -0.2371 -0.5544 -0.3664
  705MOL0     C97205   2.293   5.351   2.029 -0.3016 -1.2538  0.8228
  705MOL0     C97206   2.256   5.265   1.931  0.1829  0.7037  0.3857
  705MOL0     C97207   2.350   4.953   1.590  0.4663  0.1561  0.3678
  705MOL0     C97208   2.449   4.924   1.496  0.9252 -0.0369  0.5724
  705MOL0     C97209   2.450   4.815   1.408  0.6224  0.9018 -0.2575
  705MOL0     C97210   2.347   4.728   1.415  0.6412 -0.0048  0.3015
  705MOL0     O97211   2.344   4.619   1.333  0.0788 -0.1149  0.6951
  705MOL0     C97212   2.252   4.611   1.218 -0.3188  1.3455 -0.3656
  705MOL0     C97213   2.324   4.532   1.107 -0.2938 -0.1531  0.3596
  705MOL0     C97214   2.319   4.385   1.133  0.7503 -0.2683  0.3759
  705MOL0     C97215   2.418   4.296   1.053 -0.2607  0.4971  0.4491
  705MOL0     C97216   2.561   4.325   1.080  0.5941  0.1034  0.7469
  705MOL0     C97217   2.676   4.347   1.105 -0.2560  0.0968 -0.0910
  705MOL0     C97218   2.235   4.750   1.506 -0.8277 -0.5170 -0.1080
  705MOL0     C97219   2.233   4.870   1.590 -0.4987  0.9268  0.0553
  705MOL0     C97220   2.115   4.882   1.682 -0.2515 -1.5359 -0.3850
  705MOL0     H97221   2.505   5.034   1.947 -0.1258  0.6411 -0.8107
  705MOL0     H97222   2.566   5.191   2.153  1.6019  0.9754 -0.6805
  705MOL0     H97223   2.414   5.591   2.134  0.7575 -2.0044 -3.7514
  705MOL0     H97224   2.578   5.515   2.124  0.3568 -1.8507  1.3748
  705MOL0     H97225   2.630   5.552   2.340 -0.1432  0.3919  0.1823
  705MOL0     H97226   2.584   5.708   2.252  1.7168 -1.2771 -2.0990
  705MOL0     H97227   2.347   5.672   2.366 -0.6264 -3.4688  0.0221
  705MOL0     H97228   2.433   5.535   2.449  2.3539 -0.7956 -0.6191
  705MOL0     H97229   2.477   5.701   2.615  1.4337  1.6691  0.1587
  705MOL0     H97230   2.604   5.721   2.517  0.1633  2.3568 -0.2920
  705MOL0     H97231   2.378   5.904   2.571  2.0433 -1.0442  3.5646
  705MOL0     H97232   2.384   5.892   2.395  0.4460 -1.0691 -0.7380
  705MOL0     H97233   2.632   5.956   2.397 -0.8713 -0.5393  0.0454
  705MOL0     H97234   2.524   6.082   2.439  1.3180 -0.4079 -1.5087
  705MOL0     H97235   2.715   6.078   2.607 -0.5018 -0.1749 -0.2904
  705MOL0     H97236   2.686   5.907   2.619  1.5638  0.6811 -0.2989
  705MOL0     H97237   2.476   5.949   2.757 -2.1007  1.7359  3.3731
  705MOL0     H97238   2.616   6.025   2.814  1.6362  0.0100 -1.4682
  705MOL0     H97239   2.297   6.157   2.601 -0.2121  0.6987  0.5145
  705MOL0     H97240   2.150   6.429   2.709 -2.8114 -0.2226 -2.5728
  705MOL0     H97241   2.177   6.339   2.564  0.3438  0.0768  0.7195
  705MOL0     H97242   2.304   6.611   2.624 -1.8290  0.1168  0.5937
  705MOL0     H97243   2.351   6.518   2.483  1.0502  2.6450  0.7862
  705MOL0     H97244   2.052   6.574   2.538  0.3160 -1.6328  0.6553
  705MOL0     H97245   2.162   6.691   2.465  1.1981 -0.0276 -0.5895
  705MOL0     H97246   2.209   6.512   2.279 -1.0544 -4.9523 -1.7147
  705MOL0     H97247   2.079   6.416   2.361 -1.5255  0.7517  1.5866
  705MOL0     H97248   1.817   6.561   2.436 -1.0701 -0.2507 -0.4958
  705MOL0     H97249   1.638   6.479   2.548 -1.4771  0.0955  0.9150
  705MOL0     H97250   1.604   6.306   2.540 -2.8213 -0.2162 -2.5531
  705MOL0     H97251   1.502   6.429   2.472 -0.3178  0.1475 -2.7544
  705MOL0     H97252   1.646   5.912   2.009  0.0903  3.6904 -1.3272
  705MOL0     H97253   1.508   5.723   1.975  1.6395 -0.6149  3.8407
  705MOL0     H97254   1.053   5.751   2.078 -1.9977 -2.0268 -0.1900
  705MOL0     H97255   1.054   5.831   1.930 -3.6350 -0.7650  1.7657
  705MOL0     H97256   1.021   5.618   1.812  0.9045  2.3255  0.7820
  705MOL0     H97257   1.065   5.510   1.947 -3.6949 -0.8520  0.7083
  705MOL0     H97258   0.878   5.633   2.078 -0.2387  5.3530 -1.4263
  705MOL0     H97259   0.844   5.506   1.954  3.6261 -1.6631  0.5259
  705MOL0     H97260   0.764   5.683   1.797  1.0114 -1.6067 -0.6089
  705MOL0     H97261   0.788   5.808   1.928 -0.2569 -0.2163  1.1516
  705MOL0     H97262   0.616   5.571   1.981  1.5092  0.4349  0.9637
  705MOL0     H97263   0.647   5.720   2.078 -1.6123  1.3137  1.0188
  705MOL0     H97264   0.423   5.707   1.953 -0.2782  2.5915  1.2308
  705MOL0     H97265   0.504   5.686   1.802 -1.8311 -1.1637  0.8652
  705MOL0     H97266   0.579   5.897   1.782 -3.1355 -2.9986 -1.8723
  705MOL0     H97267   0.609   5.927   1.956  1.0901 -0.9917 -0.4454
  705MOL0     H97268   0.434   6.079   1.895  0.3689  0.2043 -0.1958
  705MOL0     H97269   0.344   5.940   1.953 -0.5474  1.4216 -0.1344
  705MOL0     H97270   1.158   5.963   2.089 -0.7306 -1.6622 -0.6903
  705MOL0     H97271   1.305   6.134   2.134  1.6935  0.7947 -0.0721
  705MOL0     H97272   1.754   6.291   2.033 -0.8126 -1.3971  1.0271
  705MOL0     H97273   1.950   6.433   2.063  1.8776 -0.2153  1.7382
  705MOL0     H97274   2.238   5.443   2.048  1.9639  0.8932 -2.1735
  705MOL0     H97275   2.161   5.279   1.881 -0.7853 -2.2183  1.2097
  705MOL0     H97276   2.536   4.989   1.499  1.7965 -1.0620 -1.0991
  705MOL0     H97277   2.535   4.792   1.344 -0.9281  0.0241 -2.0900
  705MOL0     H97278   2.164   4.558   1.255  0.2836 -0.1760 -1.0597
  705MOL0     H97279   2.227   4.711   1.180 -0.0503  0.3683 -3.3429
  705MOL0     H97280   2.428   4.566   1.106 -0.5250  0.5850  0.6731
  705MOL0     H97281   2.281   4.543   1.007  0.3019 -4.1148 -0.5079
  705MOL0     H97282   2.343   4.376   1.240  2.6843  3.8866  0.4661
  705MOL0     H97283   2.219   4.342   1.121  1.1543 -1.1727  0.1864
  705MOL0     H97284   2.383   4.305   0.950 -6.1675 -2.4938  1.7489
  705MOL0     H97285   2.399   4.196   1.094  0.5549  0.8998  1.8746
  705MOL0     H97286   2.781   4.353   1.126  0.8107 -1.3054 -4.0283
  705MOL0     H97287   2.142   4.695   1.496 -1.3238  0.5822 -2.4703
  705MOL0     H97288   2.035   4.809   1.665 -3.3144  1.8659 -1.9279
  705MOL0     H97289   2.141   4.877   1.788 -0.2979 -1.8899 -0.3864
  705MOL0     H97290   2.070   4.980   1.662  1.3138 -0.0258  2.7892
  706MOL0     O97291   1.585   2.634   2.817  0.1178 -0.2141 -0.9738
  706MOL0     C97292   1.680   2.578   2.764  0.2036 -0.9307  0.6084
  706MOL0     O97293   1.692   2.568   2.637 -0.5381  0.9025  0.1785
  706MOL0     C97294   1.609   2.625   2.543 -0.6698 -1.3679 -0.1842
  706MOL0     C97295   1.565   2.539   2.446  1.0769 -0.3419 -0.2599
  706MOL0     C97296   1.486   2.583   2.343  0.5393  0.6403 -0.5091
  706MOL0     C97297   1.426   2.713   2.342 -0.6358 -0.5534  0.3865
  706MOL0     O97298   1.329   2.751   2.255  0.1676  0.4056 -0.0126
  706MOL0     C97299   1.350   2.735   2.114  0.1743 -0.2747  0.2896
  706MOL0     C97300   1.220   2.762   2.027 -1.0640  0.1186 -0.8471
  706MOL0     C97301   1.216   2.899   1.962  0.6992  0.0794  1.0694
  706MOL0     C97302   1.278   2.879   1.821 -0.7247  0.7812  0.2946
  706MOL0     C97303   1.260   2.995   1.719  0.4188  0.2159 -0.8730
  706MOL0     C97304   1.347   2.971   1.596 -0.1352 -0.3335  0.0470
  706MOL0     C97305   1.320   3.079   1.487  0.2233 -0.7874  0.7657
  706MOL0     C97306   1.361   3.033   1.344  0.1342  0.3009  0.6187
  706MOL0     N97307   1.415   3.129   1.250  0.1439 -0.1937 -0.6333
  706MOL0     C97308   1.546   3.165   1.236  0.3182  0.5181 -0.2908
  706MOL0     C97309   1.551   3.257   1.146  0.4974 -0.7255  0.0199
  706MOL0     C97310   1.675   3.315   1.082  1.2027 -0.2256  0.2748
  706MOL0     C97311   1.722   3.193   0.997  0.7505  0.1110 -0.3487
  706MOL0     C97312   1.864   3.223   0.934 -0.3109 -0.4497 -0.3785
  706MOL0     C97313   1.938   3.097   0.892 -0.0840  0.3333 -0.3512
  706MOL0     O97314   1.871   3.039   0.774  0.4768 -0.1333  0.5910
  706MOL0     C97315   1.908   3.098   0.663 -0.6285 -0.2001 -0.6166
  706MOL0     C97316   2.038   3.083   0.608  0.0583 -1.1961 -0.0563
  706MOL0     C97317   2.085   3.165   0.504  0.0577 -0.5626  0.0099
  706MOL0     C97318   2.237   3.163   0.471 -0.7394 -0.3384 -1.0776
  706MOL0     C97319   1.989   3.244   0.440 -0.0771  0.8334 -0.6534
  706MOL0     C97320   2.019   3.321   0.308  0.2638 -0.3332  0.2625
  706MOL0     O97321   1.984   3.457   0.298  0.0062 -0.4199 -0.7369
  706MOL0     C97322   2.002   3.510   0.170 -0.1386  0.0992  0.7360
  706MOL0     C97323   2.041   3.637   0.148 -0.0868  0.2424  0.6119
  706MOL0     C97324   2.074   3.693   0.027 -0.9905 -0.1876  0.2465
  706MOL0     C97325   2.071   3.610  -0.085  0.3233 -0.1668 -0.2298
  706MOL0     O97326   2.108   3.656  -0.210  0.1383 -0.5504  0.3150
  706MOL0     C97327   2.020   3.742  -0.270 -0.0025 -0.7528  0.7020
  706MOL0     C97328   2.063   3.749  -0.420  0.2197 -0.5716 -0.3235
  706MOL0     C97329   2.056   3.895  -0.476 -0.2378  0.4938 -0.0314
  706MOL0     C97330   1.923   3.964  -0.457 -0.6586 -0.5031 -0.5573
  706MOL0     C97331   1.936   4.115  -0.489 -0.0409 -1.1436  0.3816
  706MOL0     C97332   1.817   4.195  -0.425  0.0165 -0.8551  0.9919
  706MOL0     C97333   1.778   4.339  -0.475  0.4873 -0.2483  1.4158
  706MOL0     C97334   1.790   4.362  -0.618  0.8801 -0.5999 -1.2137
  706MOL0    Cl97335   1.963   4.390  -0.665 -0.2143  0.4335 -0.3784
  706MOL0     C97336   2.022   3.471  -0.071 -0.1055 -0.6238  0.0342
  706MOL0     C97337   1.971   3.431   0.048  0.0073 -1.0984  0.1925
  706MOL0     O97338   2.068   3.248   0.220  0.0410  0.7292  1.0772
  706MOL0     C97339   1.860   3.246   0.489 -0.1138 -0.4452 -0.1982
  706MOL0     C97340   1.818   3.183   0.598  0.4926 -0.3000 -0.9767
  706MOL0     N97341   1.428   3.265   1.092 -0.2821 -0.4792 -0.0839
  706MOL0     N97342   1.346   3.198   1.158  1.2049  0.3147  0.4986
  706MOL0     C97343   1.448   2.795   2.455  0.0902  0.1573  0.2278
  706MOL0     C97344   1.541   2.753   2.555 -0.5415  0.7554 -0.4790
  706MOL0     C97345   1.780   2.525   2.859  0.0080 -0.5826  0.9624
  706MOL0     C97346   1.733   2.488   2.988 -0.4717  0.7457 -1.2573
  706MOL0     C97347   1.826   2.451   3.082  0.3817  1.1832 -0.2721
  706MOL0     C97348   1.960   2.456   3.058  0.1639  0.4015  0.5640
  706MOL0     O97349   2.042   2.426   3.162  0.1657 -0.3799 -0.2780
  706MOL0     C97350   2.191   2.416   3.148  0.7602 -0.5118  0.1195
  706MOL0     C97351   2.255   2.559   3.155 -0.9299  0.6083  0.5845
  706MOL0     C97352   2.268   2.642   3.284  0.1801  0.1387 -0.1318
  706MOL0     C97353   2.346   2.572   3.399  0.4958 -0.0210  0.1834
  706MOL0     C97354   2.309   2.631   3.533  0.8699 -0.2742  0.8045
  706MOL0     C97355   2.263   2.673   3.632  0.0788 -1.1056 -0.3504
  706MOL0     C97356   2.012   2.484   2.926  0.7496 -0.4170  0.2999
  706MOL0     C97357   1.918   2.517   2.820 -0.2641 -0.0276  0.4525
  706MOL0     C97358   1.972   2.552   2.690  0.5874 -0.4664  0.1516
  706MOL0     H97359   1.601   2.437   2.447 -0.0519 -0.7889 -1.5641
  706MOL0     H97360   1.454   2.512   2.268 -0.3348 -0.0929  0.5296
  706MOL0     H97361   1.395   2.638   2.091  2.1791  0.6569  0.0881
  706MOL0     H97362   1.422   2.806   2.074  1.7304 -0.4877  2.5478
  706MOL0     H97363   1.217   2.678   1.957  1.3227 -1.7332  1.0540
  706MOL0     H97364   1.131   2.759   2.091 -0.9673  2.1253 -0.5534
  706MOL0     H97365   1.112   2.933   1.958  1.0831  1.2235 -0.5102
  706MOL0     H97366   1.269   2.975   2.021 -0.0377  0.9086  0.6988
  706MOL0     H97367   1.385   2.880   1.843 -0.3864  4.5058 -0.9028
  706MOL0     H97368   1.236   2.791   1.771  1.0252  0.7392 -1.1792
  706MOL0     H97369   1.291   3.087   1.769 -1.0681  0.5922 -0.6046
  706MOL0     H97370   1.155   2.999   1.689  0.2401 -1.8310 -0.6684
  706MOL0     H97371   1.450   2.969   1.633 -0.1800  1.9315  0.4722
  706MOL0     H97372   1.318   2.876   1.552 -0.1683  0.0459 -0.7807
  706MOL0     H97373   1.365   3.178   1.501 -0.0471 -0.3763 -0.9921
  706MOL0     H97374   1.211   3.084   1.483  0.2418  1.5630  1.6929
  706MOL0     H97375   1.433   2.952   1.353  0.3836  0.4276 -0.1121
  706MOL0     H97376   1.283   2.975   1.293  1.6008 -0.3662 -0.9743
  706MOL0     H97377   1.631   3.122   1.289  0.3545  0.6613 -0.2329
  706MOL0     H97378   1.749   3.334   1.160 -1.4921  1.0636  2.7066
  706MOL0     H97379   1.652   3.398   1.013  0.0885 -1.4928 -0.9488
  706MOL0     H97380   1.732   3.108   1.065  0.5073  0.9574  0.7838
  706MOL0     H97381   1.643   3.158   0.930 -0.5335 -0.0261  1.1756
  706MOL0     H97382   1.862   3.295   0.851  1.1516  0.3233  0.2185
  706MOL0     H97383   1.917   3.267   1.018 -0.5676  2.2020 -1.4950
  706MOL0     H97384   2.042   3.127   0.872  1.2598 -2.7913  1.2078
  706MOL0     H97385   1.934   3.031   0.978  3.0491  0.7449  0.2374
  706MOL0     H97386   2.114   3.027   0.661 -1.1587 -3.1418 -0.2848
  706MOL0     H97387   2.291   3.246   0.518 -1.7316  0.4386 -1.2825
  706MOL0     H97388   2.256   3.174   0.364  1.6978  0.7653 -0.5908
  706MOL0     H97389   2.272   3.068   0.513 -1.2142 -0.0803 -0.0578
  706MOL0     H97390   2.031   3.696   0.239 -0.1019 -0.9686  1.4094
  706MOL0     H97391   2.124   3.789   0.013  3.9494 -2.5912 -0.9148
  706MOL0     H97392   1.915   3.719  -0.250 -0.2758 -1.8439 -1.6344
  706MOL0     H97393   2.042   3.836  -0.219  0.2303 -1.6835  2.3735
  706MOL0     H97394   2.167   3.717  -0.410  0.4897  0.6390  1.1784
  706MOL0     H97395   2.007   3.678  -0.481 -0.4451 -1.5212  1.3210
  706MOL0     H97396   2.083   3.880  -0.581  0.6844  0.7035  0.1742
  706MOL0     H97397   2.136   3.951  -0.427 -1.1585 -0.3851  2.7162
  706MOL0     H97398   1.886   3.959  -0.354  0.1741  1.3550 -0.1311
  706MOL0     H97399   1.848   3.912  -0.517 -1.7275 -1.3447  1.3929
  706MOL0     H97400   2.029   4.163  -0.457  0.7101 -2.2285 -0.1094
  706MOL0     H97401   1.938   4.127  -0.598  1.5484  0.0517  0.5064
  706MOL0     H97402   1.843   4.209  -0.320  0.3454  1.9766  0.5943
  706MOL0     H97403   1.739   4.119  -0.440 -1.5554  0.8473  0.1380
  706MOL0     H97404   1.835   4.419  -0.427 -1.7765  2.6512 -0.3467
  706MOL0     H97405   1.672   4.348  -0.448 -0.9226 -3.0631 -2.2512
  706MOL0     H97406   1.729   4.450  -0.640 -0.8865 -1.7755 -1.2068
  706MOL0     H97407   1.757   4.286  -0.689  0.0487  0.7365 -2.3156
  706MOL0     H97408   2.008   3.402  -0.154 -3.3402 -2.5090  1.9405
  706MOL0     H97409   1.911   3.342   0.069  1.3647 -2.2125 -0.4704
  706MOL0     H97410   1.809   3.315   0.422 -0.2454  1.7793  2.0441
  706MOL0     H97411   1.718   3.189   0.640 -0.4961 -2.0880 -2.8747
  706MOL0     H97412   1.399   2.891   2.469  0.2465  0.0713  1.5649
  706MOL0     H97413   1.557   2.821   2.638 -4.5967  2.4613 -0.8820
  706MOL0     H97414   1.631   2.515   3.010 -0.2962  2.9084 -2.6983
  706MOL0     H97415   1.789   2.414   3.177  3.9097 -0.1217  0.7574
  706MOL0     H97416   2.225   2.353   3.231 -1.1599  0.7994  2.0118
  706MOL0     H97417   2.209   2.365   3.053 -0.8466  1.4681 -1.3384
  706MOL0     H97418   2.215   2.626   3.079  0.7353  2.5033  1.3073
  706MOL0     H97419   2.353   2.532   3.113 -2.9039 -3.5669 -2.0614
  706MOL0     H97420   2.324   2.733   3.262 -1.5782  1.0085 -1.2274
  706MOL0     H97421   2.167   2.669   3.315  0.4144  1.5127 -0.5133
  706MOL0     H97422   2.454   2.579   3.380  0.6759  0.9704  1.3986
  706MOL0     H97423   2.318   2.467   3.399  2.1973 -0.5054  0.3206
  706MOL0     H97424   2.210   2.696   3.722 -1.2931  2.1622 -1.8513
  706MOL0     H97425   2.118   2.482   2.904  0.8229 -0.4641  0.6580
  706MOL0     H97426   1.915   2.629   2.637  0.8101 -0.9012 -0.7375
  706MOL0     H97427   2.079   2.576   2.689  0.2917  0.9530 -0.6170
  706MOL0     H97428   1.950   2.461   2.634 -0.9772 -1.2725  1.9623
  707MOL0     O97429   2.931   9.522   6.791  0.0601 -0.2844  0.3882
  707MOL0     C97430   3.013   9.599   6.736  0.3170  0.1836  0.6163
  707MOL0     O97431   3.142   9.569   6.725 -0.5754  0.6457 -0.2160
  707MOL0     C97432   3.196   9.479   6.806  0.0314  0.8782 -0.3376
  707MOL0     C97433   3.277   9.385   6.746  0.1098 -0.0785 -0.1130
  707MOL0     C97434   3.344   9.294   6.826 -0.8007 -0.8849  0.0985
  707MOL0     C97435   3.335   9.291   6.969  1.0438  0.4740 -0.4049
  707MOL0     O97436   3.407   9.210   7.048  0.5267  0.0462 -0.9415
  707MOL0     C97437   3.450   9.080   6.997  0.3323  0.6536  0.0316
  707MOL0     C97438   3.451   8.983   7.111 -0.5163 -1.0262  0.4834
  707MOL0     C97439   3.327   8.994   7.196 -1.3712 -0.0501  0.2731
  707MOL0     C97440   3.286   8.862   7.254 -0.1950 -0.5901  0.3463
  707MOL0     C97441   3.386   8.820   7.365 -0.5625  0.5497 -0.1207
  707MOL0     C97442   3.336   8.703   7.447  0.3844 -0.3993  0.0123
  707MOL0     C97443   3.418   8.653   7.567 -0.2139 -0.6165 -0.2360
  707MOL0     C97444   3.392   8.513   7.619 -0.3682 -0.0795  0.7719
  707MOL0     N97445   3.497   8.468   7.710  0.4131 -0.0327  0.3097
  707MOL0     C97446   3.516   8.500   7.841 -0.2159  1.1414 -0.4238
  707MOL0     C97447   3.625   8.427   7.878  0.5980 -0.0364  1.0229
  707MOL0     C97448   3.698   8.434   8.014 -0.2802 -0.0819  0.3979
  707MOL0     C97449   3.674   8.316   8.102 -0.0590  0.3222 -0.2220
  707MOL0     C97450   3.732   8.187   8.040 -0.0472 -0.3964 -0.5530
  707MOL0     C97451   3.881   8.189   8.028 -0.0093  0.3255  0.0469
  707MOL0     O97452   3.948   8.261   8.131  0.6113  0.1018 -1.1869
  707MOL0     C97453   4.080   8.251   8.148  0.4522 -0.1853  0.4497
  707MOL0     C97454   4.175   8.192   8.066  0.1626  0.7810 -0.6210
  707MOL0     C97455   4.315   8.216   8.088  0.2810 -0.3600  1.0593
  707MOL0     C97456   4.400   8.165   7.974  0.5469  0.4007  0.1352
  707MOL0     C97457   4.359   8.291   8.199  0.2122  0.4276 -0.7554
  707MOL0     C97458   4.499   8.319   8.217 -0.1911  0.5525 -0.9818
  707MOL0     O97459   4.527   8.441   8.261 -0.1096 -0.0952 -0.1635
  707MOL0     C97460   4.654   8.491   8.260  0.0276 -0.7602  0.0213
  707MOL0     C97461   4.673   8.613   8.194  0.2279 -0.1130 -0.2799
  707MOL0     C97462   4.793   8.684   8.208 -0.4439 -0.5390  0.3257
  707MOL0     C97463   4.896   8.639   8.277 -0.5616 -1.0573  1.3731
  707MOL0     O97464   5.006   8.712   8.300  0.0820 -1.0992  0.5063
  707MOL0     C97465   5.130   8.664   8.247 -0.2484  0.3872 -0.4714
  707MOL0     C97466   5.233   8.778   8.241 -0.3810  1.4226  0.1947
  707MOL0     C97467   5.378   8.726   8.197  0.0006 -0.3648  0.2446
  707MOL0     C97468   5.467   8.848   8.188  0.0419  0.8437  0.1009
  707MOL0     C97469   5.583   8.812   8.091 -0.2743 -0.4700 -0.2231
  707MOL0     C97470   5.643   8.939   8.030  0.3714 -0.0225 -0.4545
  707MOL0     C97471   5.742   9.011   8.126 -0.2824  1.1987  1.0348
  707MOL0     C97472   5.835   9.123   8.074  0.0572  0.0854 -0.5977
  707MOL0    Cl97473   5.736   9.251   8.012 -0.2150 -0.1775 -0.1581
  707MOL0     C97474   4.881   8.513   8.338  0.0498  0.1092 -0.4968
  707MOL0     C97475   4.759   8.444   8.333 -0.5085 -0.1677  0.6909
  707MOL0     O97476   4.585   8.237   8.198 -0.1175 -0.7047  0.8398
  707MOL0     C97477   4.259   8.344   8.286  0.2786 -0.0415  0.3940
  707MOL0     C97478   4.128   8.313   8.265 -0.1417 -1.1350 -0.3703
  707MOL0     N97479   3.679   8.359   7.765  0.7046 -0.2154 -0.9982
  707MOL0     N97480   3.595   8.377   7.676 -0.9995 -0.8219  0.1287
  707MOL0     C97481   3.251   9.385   7.027 -0.1473  0.1728 -0.3837
  707MOL0     C97482   3.188   9.481   6.946 -0.2319 -0.1870  0.1674
  707MOL0     C97483   2.973   9.714   6.645  0.4343 -0.7691  0.0532
  707MOL0     C97484   3.072   9.789   6.587  0.2533 -0.7644  0.0948
  707MOL0     C97485   3.033   9.899   6.506  0.3337 -0.5059  0.3234
  707MOL0     C97486   2.899   9.930   6.483 -0.4971 -0.6828 -0.0400
  707MOL0     O97487   2.876  10.034   6.399 -0.0011 -0.0893  0.9815
  707MOL0     C97488   2.743  10.057   6.344 -0.7709  0.1050  0.3961
  707MOL0     C97489   2.691   9.943   6.247 -1.0047  0.3339  0.1661
  707MOL0     C97490   2.800   9.857   6.180  0.1840 -0.3863  0.0433
  707MOL0     C97491   2.741   9.724   6.138 -0.4257 -0.7128  0.5765
  707MOL0     C97492   2.840   9.624   6.087 -0.1614  0.0867  0.5838
  707MOL0     C97493   2.926   9.543   6.056 -0.0024 -0.2111 -0.9045
  707MOL0     C97494   2.809   9.855   6.541 -0.0369  0.1644 -0.1973
  707MOL0     C97495   2.831   9.744   6.625 -0.9796 -0.2903 -0.6320
  707MOL0     C97496   2.715   9.683   6.695  0.7839 -0.2835 -1.1152
  707MOL0     H97497   3.288   9.392   6.639  2.1607  2.1201  0.1529
  707MOL0     H97498   3.410   9.225   6.775 -0.6012 -1.2501  0.8358
  707MOL0     H97499   3.552   9.072   6.958  0.0136  0.1054 -0.7155
  707MOL0     H97500   3.376   9.043   6.926 -0.4851  0.0810  1.1617
  707MOL0     H97501   3.465   8.885   7.066 -1.2143  0.1646 -2.5685
  707MOL0     H97502   3.534   9.006   7.180 -0.0515 -0.8601 -0.1226
  707MOL0     H97503   3.341   9.060   7.282 -1.3701 -2.6153  2.3612
  707MOL0     H97504   3.245   9.041   7.141  0.5268  2.2268 -0.7663
  707MOL0     H97505   3.197   8.890   7.311  0.4762  0.2681  1.0034
  707MOL0     H97506   3.267   8.786   7.178 -1.3274  0.7857 -0.8001
  707MOL0     H97507   3.379   8.902   7.437 -2.4971  0.1487  0.2111
  707MOL0     H97508   3.486   8.802   7.325  1.1296  2.1742  2.9421
  707MOL0     H97509   3.243   8.740   7.491  0.0110  0.4865 -1.4470
  707MOL0     H97510   3.325   8.621   7.375  0.5916  1.2055 -1.9506
  707MOL0     H97511   3.401   8.723   7.649 -0.2756 -0.1273 -0.6612
  707MOL0     H97512   3.520   8.644   7.530 -0.6348 -2.6777 -1.0578
  707MOL0     H97513   3.299   8.495   7.674  0.8083 -2.4815  2.1225
  707MOL0     H97514   3.382   8.432   7.545 -1.7671 -0.9647  1.8728
  707MOL0     H97515   3.459   8.567   7.904  3.0581  0.6935  3.3505
  707MOL0     H97516   3.655   8.524   8.060 -0.2955 -0.2586  0.7301
  707MOL0     H97517   3.806   8.439   8.000 -0.4350 -2.6289 -3.1785
  707MOL0     H97518   3.714   8.325   8.204  0.1622 -1.1889 -0.1503
  707MOL0     H97519   3.567   8.294   8.108 -0.7200  3.1190 -0.5252
  707MOL0     H97520   3.713   8.103   8.108  1.5962 -1.2981 -1.1693
  707MOL0     H97521   3.690   8.165   7.942  2.2565 -1.2419 -1.3991
  707MOL0     H97522   3.930   8.092   8.019  1.1600  0.7895  1.1086
  707MOL0     H97523   3.918   8.241   7.940  5.2530 -0.7040  1.2831
  707MOL0     H97524   4.139   8.123   7.990 -0.1700  0.7792 -0.4646
  707MOL0     H97525   4.340   8.164   7.883  0.3764 -0.5645  0.2444
  707MOL0     H97526   4.457   8.073   7.989  0.1692 -0.3179 -2.4197
  707MOL0     H97527   4.468   8.249   7.956 -0.5619  1.7025  1.6935
  707MOL0     H97528   4.591   8.653   8.134  2.5358 -0.4323 -3.9543
  707MOL0     H97529   4.798   8.785   8.170 -2.3376 -0.9654 -1.2535
  707MOL0     H97530   5.180   8.589   8.309  2.9561  1.5715 -1.3932
  707MOL0     H97531   5.117   8.624   8.146  3.0711 -2.4144  0.0330
  707MOL0     H97532   5.200   8.844   8.160  2.7409  0.1626 -2.3390
  707MOL0     H97533   5.238   8.823   8.341  5.1001  0.5142  0.6430
  707MOL0     H97534   5.364   8.683   8.097  1.4479 -1.4393  0.4798
  707MOL0     H97535   5.421   8.645   8.256  0.3279 -1.8071 -1.8651
  707MOL0     H97536   5.506   8.878   8.286 -1.3496  2.3332  0.2474
  707MOL0     H97537   5.404   8.931   8.155  0.7851  1.3686 -0.0328
  707MOL0     H97538   5.649   8.744   8.145 -1.4998 -0.7103  1.0179
  707MOL0     H97539   5.541   8.761   8.003  1.7448  1.9562 -2.7653
  707MOL0     H97540   5.573   9.006   7.980 -1.5264 -2.0545 -0.6940
  707MOL0     H97541   5.693   8.907   7.938  0.6223  0.5719 -0.5277
  707MOL0     H97542   5.800   8.927   8.165  1.9490  2.7795  1.3091
  707MOL0     H97543   5.677   9.053   8.204 -0.9581  2.6586 -0.2502
  707MOL0     H97544   5.904   9.078   8.002  3.3647 -1.4534  3.1421
  707MOL0     H97545   5.890   9.167   8.158 -3.1719  1.2640  1.0690
  707MOL0     H97546   4.958   8.464   8.396  0.9983 -2.9857 -4.0117
  707MOL0     H97547   4.750   8.344   8.375  0.6687 -0.2124  0.8662
  707MOL0     H97548   4.297   8.396   8.373 -2.1960 -1.1368  2.2694
  707MOL0     H97549   4.051   8.360   8.326  1.8013  4.9400 -1.9120
  707MOL0     H97550   3.245   9.400   7.134  0.8684  1.2047 -0.4577
  707MOL0     H97551   3.124   9.558   6.988 -0.5060 -0.4386  0.2079
  707MOL0     H97552   3.178   9.776   6.603  0.0980 -0.9767  0.9552
  707MOL0     H97553   3.102   9.972   6.465  1.4095 -1.1578  0.9275
  707MOL0     H97554   2.677  10.078   6.429 -1.5550  1.3608 -0.5059
  707MOL0     H97555   2.745  10.151   6.289  2.2573  0.8269  1.5420
  707MOL0     H97556   2.625   9.977   6.167  0.4627  0.2251 -1.1402
  707MOL0     H97557   2.637   9.875   6.313 -1.6371  1.4996  0.8705
  707MOL0     H97558   2.843   9.908   6.094 -1.5986  1.1688 -0.0001
  707MOL0     H97559   2.874   9.825   6.253 -2.4702 -2.6239  1.9618
  707MOL0     H97560   2.653   9.747   6.076 -1.5675 -2.9205  1.2441
  707MOL0     H97561   2.707   9.675   6.230  4.0998  0.0854  2.9403
  707MOL0     H97562   3.015   9.487   6.040  0.8108  0.0241  2.1880
  707MOL0     H97563   2.704   9.877   6.529  0.1990  0.1239 -2.8375
  707MOL0     H97564   2.739   9.658   6.799 -1.6155 -1.3199 -0.7426
  707MOL0     H97565   2.631   9.752   6.712  1.1045 -0.1018 -0.2582
  707MOL0     H97566   2.682   9.585   6.658  0.5302 -1.0761  1.0976
  708MOL0     O97567   2.413  11.484   9.489 -0.1386 -0.1974  0.0089
  708MOL0     C97568   2.490  11.466   9.575  0.1409  0.2266  0.3486
  708MOL0     O97569   2.581  11.361   9.581 -0.3712  0.1164 -0.0412
  708MOL0     C97570   2.581  11.260   9.495  0.6877  0.4030  0.0475
  708MOL0     C97571   2.565  11.134   9.557 -0.1325 -0.7085 -0.1407
  708MOL0     C97572   2.584  11.019   9.481 -0.0954 -0.4708  0.6453
  708MOL0     C97573   2.598  11.025   9.336  0.9746  0.3876  0.2460
  708MOL0     O97574   2.610  10.922   9.240 -0.3777 -0.0173  0.1560
  708MOL0     C97575   2.604  10.783   9.278  0.5005  1.0389 -0.2170
  708MOL0     C97576   2.495  10.709   9.216 -0.0142  0.1097  0.6862
  708MOL0     C97577   2.487  10.710   9.058  0.5767 -0.4530  0.3200
  708MOL0     C97578   2.352  10.655   9.005 -0.2323  0.2771  0.3865
  708MOL0     C97579   2.224  10.717   9.054 -0.6153  0.8216  0.0122
  708MOL0     C97580   2.222  10.873   9.056 -0.7615 -0.3328 -0.7563
  708MOL0     C97581   2.102  10.935   9.120 -0.8316 -0.0378 -0.1509
  708MOL0     C97582   1.990  10.944   9.017  0.3572  0.4965 -0.5668
  708MOL0     N97583   1.863  10.986   9.076 -0.6631 -0.2689 -1.1291
  708MOL0     C97584   1.828  10.976   9.214 -0.3438 -0.1113  0.2875
  708MOL0     C97585   1.704  11.020   9.219  0.4488  0.6470  0.5899
  708MOL0     C97586   1.612  11.011   9.341  0.3306 -0.4636  0.6692
  708MOL0     C97587   1.642  11.129   9.442  0.3453 -1.2590  0.7145
  708MOL0     C97588   1.558  11.105   9.565 -0.5382 -0.6569 -0.4329
  708MOL0     C97589   1.582  11.217   9.680 -0.0375 -0.5619  0.7706
  708MOL0     O97590   1.715  11.275   9.699 -0.4768 -0.3713 -0.4509
  708MOL0     C97591   1.814  11.221   9.768 -0.4038 -1.0915  0.8400
  708MOL0     C97592   1.940  11.281   9.734  0.2065  0.4897  0.3868
  708MOL0     C97593   2.055  11.232   9.801 -0.6894  0.5437  1.0854
  708MOL0     C97594   2.182  11.323   9.771  0.5649  0.2913  0.0860
  708MOL0     C97595   2.039  11.125   9.896  0.8963  0.1522  0.3854
  708MOL0     C97596   2.162  11.080   9.969 -0.6264  0.6703 -0.2715
  708MOL0     O97597   2.269  11.171   9.988  0.8128  0.0010 -0.0091
  708MOL0     C97598   2.353  11.150  10.093  0.6364 -0.3278  0.4565
  708MOL0     C97599   2.316  11.085  10.209  0.3481  0.6379 -0.6196
  708MOL0     C97600   2.390  11.084  10.324  0.0043  0.2309  1.1056
  708MOL0     C97601   2.514  11.143  10.325  1.1720 -0.7142  0.4251
  708MOL0     O97602   2.602  11.125  10.428  0.2516  0.1844 -0.1275
  708MOL0     C97603   2.688  11.016  10.408 -0.6581  0.1314  1.0482
  708MOL0     C97604   2.748  10.985  10.543 -0.1849  0.6573  1.0320
  708MOL0     C97605   2.649  10.939  10.651 -0.2867  0.0749  0.0325
  708MOL0     C97606   2.619  10.785  10.648 -0.7459 -0.0701  0.0602
  708MOL0     C97607   2.742  10.701  10.688  0.1380 -1.0328  0.3297
  708MOL0     C97608   2.714  10.559  10.654 -0.7279  0.5827 -0.0020
  708MOL0     C97609   2.831  10.463  10.668 -0.3945  0.1783 -0.4779
  708MOL0     C97610   2.790  10.329  10.730 -0.1450  0.1159 -0.9231
  708MOL0    Cl97611   2.774  10.356  10.895 -0.0132 -0.6296  0.2223
  708MOL0     C97612   2.558  11.209  10.204 -0.4337  0.2775  0.5967
  708MOL0     C97613   2.475  11.222  10.085 -0.8104  0.7323 -0.0802
  708MOL0     O97614   2.154  10.958   9.993 -0.6059  0.0591 -0.2886
  708MOL0     C97615   1.914  11.077   9.916 -1.0276  1.2173 -0.1548
  708MOL0     C97616   1.802  11.123   9.859 -0.8347  1.1432 -0.3662
  708MOL0     N97617   1.663  11.056   9.082 -0.0274 -0.1141 -0.3040
  708MOL0     N97618   1.754  11.023   8.997  0.4981 -0.2387  0.0812
  708MOL0     C97619   2.589  11.149   9.279 -0.1533  0.0591 -0.5289
  708MOL0     C97620   2.589  11.267   9.358  0.6393 -0.6539  0.5535
  708MOL0     C97621   2.506  11.565   9.678 -1.0436  0.9384  0.4949
  708MOL0     C97622   2.603  11.554   9.775 -0.4905 -0.1187  0.3480
  708MOL0     C97623   2.628  11.654   9.869 -0.4491 -0.3879 -0.0158
  708MOL0     C97624   2.560  11.774   9.871 -0.0781 -0.6182  0.8654
  708MOL0     O97625   2.592  11.865   9.963  0.4656 -0.1002 -0.1728
  708MOL0     C97626   2.556  12.007   9.941 -0.6154  0.3395  0.1343
  708MOL0     C97627   2.666  12.096   9.999 -0.5269  0.0549 -0.7290
  708MOL0     C97628   2.803  12.082   9.938 -0.2184 -0.6615  0.0467
  708MOL0     C97629   2.889  12.208   9.976  0.8234  0.0811  0.1866
  708MOL0     C97630   2.935  12.198  10.116 -0.0981 -1.0327 -1.1305
  708MOL0     C97631   2.989  12.219  10.222  0.1734  0.3258 -0.8172
  708MOL0     C97632   2.457  11.794   9.774 -0.3387  0.7695 -0.7277
  708MOL0     C97633   2.438  11.693   9.677  0.0123 -0.0217  0.7174
  708MOL0     C97634   2.338  11.738   9.571 -0.1469 -0.1161  0.8285
  708MOL0     H97635   2.552  11.118   9.664  2.9723  0.3974  0.5044
  708MOL0     H97636   2.603  10.926   9.534  4.5166 -1.2589 -1.8606
  708MOL0     H97637   2.597  10.768   9.387 -0.6281 -2.2636 -0.6180
  708MOL0     H97638   2.697  10.734   9.248 -0.6579  0.3247 -2.8888
  708MOL0     H97639   2.508  10.605   9.246 -1.5961 -1.2661 -2.8807
  708MOL0     H97640   2.403  10.754   9.256  0.7773  2.0923  0.4259
  708MOL0     H97641   2.489  10.814   9.023 -0.0104 -1.0426 -1.5872
  708MOL0     H97642   2.567  10.647   9.016 -1.2678 -1.7424 -1.4507
  708MOL0     H97643   2.354  10.655   8.896 -1.3418 -4.7924  0.1236
  708MOL0     H97644   2.355  10.549   9.032  1.0125  0.3236  0.5141
  708MOL0     H97645   2.207  10.663   9.147 -0.6930  0.1198 -0.4002
  708MOL0     H97646   2.135  10.686   8.997  0.3163 -0.3632 -0.8697
  708MOL0     H97647   2.308  10.909   9.111  0.8424 -0.0616 -3.2629
  708MOL0     H97648   2.231  10.910   8.953  1.5223 -0.2871 -0.5897
  708MOL0     H97649   2.131  11.030   9.166  1.3981 -1.9495  2.7787
  708MOL0     H97650   2.081  10.881   9.213 -2.3027  2.5856  1.1385
  708MOL0     H97651   2.017  10.997   8.925  0.0455 -1.9736 -2.1859
  708MOL0     H97652   1.981  10.837   8.994  0.0963  0.8310 -2.1500
  708MOL0     H97653   1.889  10.945   9.299 -0.9278  1.6393  1.3932
  708MOL0     H97654   1.626  10.914   9.390  0.2146 -0.6453  0.3406
  708MOL0     H97655   1.505  11.030   9.324  0.8266  2.3645  0.3099
  708MOL0     H97656   1.750  11.142   9.453  0.5094  0.9365 -2.2446
  708MOL0     H97657   1.608  11.222   9.397  2.6831 -1.2312 -1.1958
  708MOL0     H97658   1.449  11.098   9.558 -0.9325  2.2105  1.2753
  708MOL0     H97659   1.594  11.007   9.596 -0.4033 -0.6738 -0.6470
  708MOL0     H97660   1.512  11.297   9.655 -0.0546 -0.2714  1.7052
  708MOL0     H97661   1.548  11.175   9.775 -0.7008 -2.2006 -0.1579
  708MOL0     H97662   1.937  11.369   9.671  0.4529  0.8648  0.8908
  708MOL0     H97663   2.197  11.381   9.862 -2.8942  1.9486 -0.2299
  708MOL0     H97664   2.155  11.396   9.694 -3.1891 -0.6290  0.3604
  708MOL0     H97665   2.269  11.262   9.744 -0.6086 -1.9294  1.1244
  708MOL0     H97666   2.219  11.042  10.229  0.4374  1.5608  2.2323
  708MOL0     H97667   2.342  11.030  10.405 -1.5665 -0.6024 -0.3094
  708MOL0     H97668   2.643  10.938  10.345 -1.3019  2.6008 -1.7476
  708MOL0     H97669   2.768  11.049  10.342 -1.0669 -2.2899 -0.8286
  708MOL0     H97670   2.838  10.922  10.538  0.5551  1.7930 -1.7603
  708MOL0     H97671   2.788  11.080  10.579 -3.4597  2.6476 -0.2117
  708MOL0     H97672   2.555  10.994  10.647 -0.0613  0.7563  2.4677
  708MOL0     H97673   2.695  10.975  10.743  0.6849 -1.6279  0.2386
  708MOL0     H97674   2.587  10.761  10.547 -1.8522  0.9773  0.1363
  708MOL0     H97675   2.531  10.766  10.711 -3.0359  3.0745 -1.9430
  708MOL0     H97676   2.827  10.722  10.623 -0.6443 -1.5421 -0.8865
  708MOL0     H97677   2.778  10.714  10.790 -0.1535 -2.1110  0.5841
  708MOL0     H97678   2.684  10.562  10.549 -1.0967  0.4197  0.0963
  708MOL0     H97679   2.630  10.516  10.710 -3.9307  1.9077 -3.3737
  708MOL0     H97680   2.915  10.504  10.724 -0.3323 -0.9933  0.3311
  708MOL0     H97681   2.872  10.448  10.568 -1.0627  2.0924 -1.0756
  708MOL0     H97682   2.856  10.246  10.701 -1.5946 -1.7222  0.7563
  708MOL0     H97683   2.691  10.298  10.697 -0.5476 -0.0063  0.3347
  708MOL0     H97684   2.650  11.266  10.212 -1.7559  2.7277 -0.5237
  708MOL0     H97685   2.505  11.272   9.993 -1.7033 -0.9917 -1.3754
  708MOL0     H97686   1.898  10.991   9.980 -0.4877  1.2192 -0.0131
  708MOL0     H97687   1.705  11.078   9.877 -0.1893  0.2046  1.0002
  708MOL0     H97688   2.603  11.155   9.172  0.0306  2.0569 -0.4353
  708MOL0     H97689   2.591  11.361   9.304 -1.3238 -1.6390 -1.3991
  708MOL0     H97690   2.664  11.465   9.788  1.2161  0.9120 -0.2955
  708MOL0     H97691   2.695  11.643   9.954 -1.8205 -1.8647  0.9342
  708MOL0     H97692   2.542  12.032   9.835 -1.1906  1.5762  0.4880
  708MOL0     H97693   2.458  12.026   9.985  0.0052  0.1443  1.6645
  708MOL0     H97694   2.666  12.068  10.105  1.3555 -0.5678 -0.8570
  708MOL0     H97695   2.628  12.198   9.990 -2.2279 -0.4793 -0.0060
  708MOL0     H97696   2.852  11.989   9.969 -1.6487 -1.4410  0.0453
  708MOL0     H97697   2.799  12.068   9.829 -3.2016 -1.9405  0.2208
  708MOL0     H97698   2.842  12.307   9.972  0.3061 -0.1177  1.1464
  708MOL0     H97699   2.979  12.210   9.914  1.9560 -3.5848  1.4517
  708MOL0     H97700   3.035  12.231  10.318 -0.0428  1.5714 -0.8463
  708MOL0     H97701   2.403  11.889   9.777  0.5428  1.2594  0.0167
  708MOL0     H97702   2.264  11.660   9.551  0.0813 -0.4670  1.3142
  708MOL0     H97703   2.294  11.833   9.601 -3.6102 -1.7885  1.5563
  708MOL0     H97704   2.386  11.746   9.473  0.3779 -0.6064  1.0318
  709MOL0     O97705   9.204   6.722  10.478  0.6874 -0.1796 -0.6351
  709MOL0     C97706   9.191   6.833  10.530  1.0348 -0.3451  0.4952
  709MOL0     O97707   9.089   6.863  10.609 -0.2244  0.1517  0.1758
  709MOL0     C97708   9.015   6.759  10.662 -0.3021 -0.0322  0.5304
  709MOL0     C97709   8.924   6.690  10.584  0.4837  0.4878  0.5610
  709MOL0     C97710   8.844   6.593  10.643 -0.1896  0.3848 -0.0878
  709MOL0     C97711   8.855   6.564  10.784 -0.3220 -0.6248  0.0674
  709MOL0     O97712   8.783   6.463  10.829  0.1857  1.4091  0.0934
  709MOL0     C97713   8.781   6.414  10.970  0.4089 -0.2212  0.8232
  709MOL0     C97714   8.648   6.350  11.015 -0.4615 -0.0570  0.3468
  709MOL0     C97715   8.539   6.449  11.058 -0.3073 -0.0807 -0.4747
  709MOL0     C97716   8.408   6.368  11.090  0.0703 -0.8110 -0.5564
  709MOL0     C97717   8.289   6.461  11.094  0.5666  0.0140 -1.0539
  709MOL0     C97718   8.297   6.566  11.209  1.1813 -0.5329  0.3925
  709MOL0     C97719   8.191   6.676  11.205  0.3939  0.0009  0.5763
  709MOL0     C97720   8.204   6.779  11.093  0.0168 -0.2938 -0.3869
  709MOL0     N97721   8.154   6.911  11.134  0.2784  0.0833 -0.4890
  709MOL0     C97722   8.175   6.980  11.252 -0.3745  1.2648 -0.1739
  709MOL0     C97723   8.082   7.079  11.247 -0.1919  0.3155  0.4553
  709MOL0     C97724   8.065   7.180  11.350 -0.0706 -0.3187 -0.3676
  709MOL0     C97725   7.912   7.203  11.384  0.6560 -0.4214 -0.5197
  709MOL0     C97726   7.846   7.073  11.443 -0.3182 -1.6309  0.6153
  709MOL0     C97727   7.698   7.101  11.471  0.2638  0.2306  0.2996
  709MOL0     O97728   7.698   7.202  11.570 -0.0784  0.8170 -0.7519
  709MOL0     C97729   7.633   7.171  11.692  0.5720  0.1713  0.2394
  709MOL0     C97730   7.709   7.175  11.807 -0.5600 -0.2658 -0.9677
  709MOL0     C97731   7.657   7.152  11.942  0.1004  0.1544  0.9773
  709MOL0     C97732   7.772   7.170  12.045  0.6250 -0.1124 -0.1456
  709MOL0     C97733   7.521   7.120  11.958  1.0577 -0.5724 -0.9068
  709MOL0     C97734   7.459   7.094  12.088 -0.5516  0.0761 -0.1432
  709MOL0     O97735   7.328   7.130  12.105  0.1029  0.0296  0.7661
  709MOL0     C97736   7.247   7.101  12.217  0.4970 -0.2269 -0.0381
  709MOL0     C97737   7.112   7.125  12.203  0.4315 -0.0284  0.4209
  709MOL0     C97738   7.019   7.112  12.312 -0.1863  0.1721 -0.2080
  709MOL0     C97739   7.070   7.077  12.439 -0.8624 -0.3495  0.5248
  709MOL0     O97740   6.972   7.063  12.532  0.6198 -0.4982 -0.2133
  709MOL0     C97741   6.996   6.965  12.631  0.3399  0.3769 -1.1993
  709MOL0     C97742   6.880   6.962  12.727  0.1967 -0.0787 -0.7330
  709MOL0     C97743   6.860   7.105  12.779  0.6652  0.9896  0.1974
  709MOL0     C97744   6.776   7.108  12.911  0.4656  0.7452 -0.5406
  709MOL0     C97745   6.685   7.229  12.924 -0.5060 -0.9267 -0.6025
  709MOL0     C97746   6.561   7.237  12.842  0.5179  0.0342 -0.2242
  709MOL0     C97747   6.444   7.146  12.898  0.2448 -0.3735  0.1005
  709MOL0     C97748   6.304   7.169  12.816  0.1733  0.3171 -0.1572
  709MOL0    Cl97749   6.300   7.175  12.636  0.6600 -0.2483 -0.0258
  709MOL0     C97750   7.207   7.061  12.456 -0.2049  0.5580 -0.0158
  709MOL0     C97751   7.291   7.075  12.345 -0.2975 -0.5247 -0.2841
  709MOL0     O97752   7.524   7.042  12.176 -0.2492 -0.5876  0.4986
  709MOL0     C97753   7.444   7.114  11.838  0.1832 -0.5516 -0.7737
  709MOL0     C97754   7.493   7.145  11.708 -0.0300  0.2899 -0.6356
  709MOL0     N97755   8.019   7.078  11.118  0.5062  0.2170 -0.4598
  709MOL0     N97756   8.062   6.977  11.055  0.2223 -0.7272 -0.4735
  709MOL0     C97757   8.945   6.641  10.860  0.2544 -0.3586 -0.5519
  709MOL0     C97758   9.027   6.733  10.804 -0.6463  0.3408  0.0171
  709MOL0     C97759   9.288   6.941  10.486 -0.1781  0.0723  0.5742
  709MOL0     C97760   9.404   6.900  10.410  0.1992 -0.1117 -0.0147
  709MOL0     C97761   9.502   6.990  10.373  0.1557 -0.2970  0.4061
  709MOL0     C97762   9.480   7.130  10.377 -0.2911  0.1382  0.7862
  709MOL0     O97763   9.560   7.237  10.328 -0.4383  0.0734 -0.5470
  709MOL0     C97764   9.704   7.207  10.315  0.2692  0.3965  0.0076
  709MOL0     C97765   9.785   7.342  10.290  0.9702  0.5755  0.6449
  709MOL0     C97766   9.759   7.391  10.141  0.1625  0.2176 -0.5200
  709MOL0     C97767   9.890   7.438  10.075 -0.2717  0.2394 -0.7366
  709MOL0     C97768   9.985   7.332  10.038  0.2986  0.0598  0.6329
  709MOL0     C97769  10.050   7.239   9.997  0.1015 -0.1645  0.3248
  709MOL0     C97770   9.369   7.168  10.443  0.3998  0.1330 -0.1881
  709MOL0     C97771   9.276   7.075  10.503  1.1000  0.7901 -0.0250
  709MOL0     C97772   9.165   7.141  10.579 -0.2226 -0.2956 -1.0218
  709MOL0     H97773   8.914   6.711  10.478 -1.1932  4.7497  1.3688
  709MOL0     H97774   8.788   6.527  10.577 -0.9250 -0.4896  1.3690
  709MOL0     H97775   8.802   6.503  11.030  1.1348  0.5601 -0.5392
  709MOL0     H97776   8.869   6.350  10.983 -1.2757 -2.9341 -0.2830
  709MOL0     H97777   8.616   6.284  10.933 -0.7180 -2.6793  2.4411
  709MOL0     H97778   8.670   6.285  11.100 -0.4999 -1.8086 -0.9138
  709MOL0     H97779   8.568   6.512  11.143 -0.2519  0.4797 -0.9074
  709MOL0     H97780   8.532   6.517  10.973  0.3420 -0.0165 -0.4821
  709MOL0     H97781   8.381   6.310  11.001  0.7614  1.2261 -2.2063
  709MOL0     H97782   8.412   6.313  11.184 -1.4252  1.6274  1.0378
  709MOL0     H97783   8.203   6.396  11.111 -1.1241  1.8195 -2.4091
  709MOL0     H97784   8.284   6.505  10.994 -1.9951 -1.6453 -1.7390
  709MOL0     H97785   8.286   6.522  11.308  1.1144 -2.1310 -0.2863
  709MOL0     H97786   8.393   6.618  11.207 -0.0921  2.0012  0.5428
  709MOL0     H97787   8.197   6.734  11.297  0.1773  2.2431 -0.7445
  709MOL0     H97788   8.088   6.639  11.197 -1.9735  5.3692  1.2375
  709MOL0     H97789   8.312   6.775  11.075 -0.1695  0.6702 -1.8955
  709MOL0     H97790   8.152   6.742  11.004  1.0260  3.1586 -2.6121
  709MOL0     H97791   8.234   6.951  11.338 -1.9398 -2.0535 -0.0649
  709MOL0     H97792   8.092   7.278  11.309 -0.3634 -0.9456 -2.1153
  709MOL0     H97793   8.119   7.150  11.440  1.7132  0.2868 -1.1830
  709MOL0     H97794   7.911   7.283  11.459  0.1177 -2.2975  1.5781
  709MOL0     H97795   7.857   7.230  11.293  3.5135 -0.0080 -2.2297
  709MOL0     H97796   7.862   6.988  11.376 -0.6926  1.6688 -4.1872
  709MOL0     H97797   7.903   7.045  11.532  1.3496 -0.4456 -0.0340
  709MOL0     H97798   7.653   7.133  11.376  0.6580 -0.6051 -0.1873
  709MOL0     H97799   7.638   7.013  11.496 -2.1206  0.9778 -2.2150
  709MOL0     H97800   7.814   7.198  11.794  0.1466 -2.3173  0.5503
  709MOL0     H97801   7.796   7.078  12.100  0.6075  0.1533  0.3065
  709MOL0     H97802   7.762   7.247  12.121  0.8268 -1.3648  1.1994
  709MOL0     H97803   7.861   7.208  11.995 -1.4419  2.6367 -2.0292
  709MOL0     H97804   7.080   7.154  12.104  1.8949 -0.5391 -0.2400
  709MOL0     H97805   6.913   7.115  12.289  0.5478 -2.5837 -6.0100
  709MOL0     H97806   6.990   6.868  12.580  0.5465  0.7006 -1.8384
  709MOL0     H97807   7.093   6.963  12.680  0.9462 -4.2935 -2.1558
  709MOL0     H97808   6.796   6.938  12.661 -0.3363  1.4451 -0.6388
  709MOL0     H97809   6.895   6.893  12.811 -0.1160 -0.3071 -0.8603
  709MOL0     H97810   6.814   7.158  12.695 -1.0474 -0.7029  0.0013
  709MOL0     H97811   6.958   7.152  12.794  1.1422  0.4371 -1.0528
  709MOL0     H97812   6.844   7.106  12.997 -0.2030  1.2439  0.0055
  709MOL0     H97813   6.720   7.015  12.901  0.9658  0.6150 -2.8510
  709MOL0     H97814   6.656   7.239  13.029 -1.9658  1.9431 -1.1927
  709MOL0     H97815   6.745   7.319  12.909  1.2046 -1.9072  0.0820
  709MOL0     H97816   6.580   7.197  12.742  0.7006 -3.5410  1.0935
  709MOL0     H97817   6.536   7.343  12.841  2.2551  0.8931  5.5737
  709MOL0     H97818   6.418   7.163  13.003 -1.2193 -0.2774 -0.2447
  709MOL0     H97819   6.471   7.041  12.895 -1.6199 -0.9330  1.1607
  709MOL0     H97820   6.259   7.256  12.863  0.1139 -1.1932  2.8241
  709MOL0     H97821   6.244   7.085  12.854  2.9861 -2.1922 -0.8096
  709MOL0     H97822   7.256   7.046  12.551  0.8232 -0.2828 -0.6639
  709MOL0     H97823   7.392   7.040  12.364 -1.2810 -3.8613 -0.6618
  709MOL0     H97824   7.341   7.089  11.861  0.4680 -0.7977  0.2393
  709MOL0     H97825   7.440   7.165  11.616 -0.3396  2.1391 -0.1011
  709MOL0     H97826   8.946   6.622  10.967  0.4578 -0.3711 -0.5555
  709MOL0     H97827   9.099   6.776  10.873  1.1631  1.1907 -2.2497
  709MOL0     H97828   9.435   6.798  10.391  0.8739  0.2230 -0.7998
  709MOL0     H97829   9.599   6.968  10.329 -0.6965 -0.4005 -1.5338
  709MOL0     H97830   9.730   7.161  10.410 -1.5500 -0.2481  0.2397
  709MOL0     H97831   9.710   7.134  10.234 -2.0532 -1.6745  1.5689
  709MOL0     H97832   9.890   7.315  10.301  0.4552 -1.0414  2.0685
  709MOL0     H97833   9.749   7.413  10.365  2.4927  0.3264  1.6444
  709MOL0     H97834   9.715   7.311  10.080 -0.0650  0.2858 -0.4451
  709MOL0     H97835   9.705   7.485  10.149  2.1263  1.2604  1.7354
  709MOL0     H97836   9.941   7.511  10.138 -4.2590  1.7110  1.1234
  709MOL0     H97837   9.864   7.499   9.988  2.5830  4.5368  1.0492
  709MOL0     H97838  10.104   7.153   9.963 -1.6873 -0.8443 -1.0001
  709MOL0     H97839   9.349   7.274  10.453 -0.4342 -0.0833  0.6158
  709MOL0     H97840   9.183   7.132  10.687  3.1637 -3.9978 -1.6273
  709MOL0     H97841   9.158   7.243  10.542 -1.1178  0.2579  0.5900
  709MOL0     H97842   9.070   7.091  10.559 -1.3727  0.5415  1.8902
  710MOL0     O97843  11.043   5.043   3.163 -0.0449 -0.2764 -0.0090
  710MOL0     C97844  11.064   5.116   3.261  0.7922  0.6147 -0.3012
  710MOL0     O97845  11.011   5.233   3.287  0.0344 -0.2893 -0.2972
  710MOL0     C97846  10.951   5.292   3.177  0.0864  0.7551 -0.0377
  710MOL0     C97847  10.845   5.233   3.111 -0.8491  0.0168 -1.0774
  710MOL0     C97848  10.787   5.274   2.995 -0.1683 -0.5038  0.0545
  710MOL0     C97849  10.828   5.399   2.942  0.0840  0.5862  0.1548
  710MOL0     O97850  10.758   5.459   2.836 -0.3279 -0.0510 -0.0828
  710MOL0     C97851  10.811   5.426   2.706  0.1517  0.4213 -0.6224
  710MOL0     C97852  10.755   5.298   2.647  0.2867  0.9923 -0.0694
  710MOL0     C97853  10.787   5.271   2.511 -0.2618  0.3014 -0.1769
  710MOL0     C97854  10.744   5.138   2.461  0.1663 -1.0137 -0.0441
  710MOL0     C97855  10.810   5.109   2.323 -0.2982  0.0659  0.7327
  710MOL0     C97856  10.771   5.202   2.218 -0.2761  0.0594 -0.1226
  710MOL0     C97857  10.789   5.136   2.075 -0.2427  0.2336 -0.1186
  710MOL0     C97858  10.923   5.074   2.015 -0.7902  0.1141  0.7749
  710MOL0     N97859  11.044   5.171   2.005 -0.1080 -0.4786  0.8166
  710MOL0     C97860  11.116   5.190   2.117  0.0793  0.1567  0.0126
  710MOL0     C97861  11.222   5.261   2.066  0.3951  0.5320 -0.6250
  710MOL0     C97862  11.353   5.273   2.140 -0.8997 -0.3835  0.3741
  710MOL0     C97863  11.472   5.298   2.042 -0.8773  0.1488 -0.6935
  710MOL0     C97864  11.608   5.322   2.115  1.0650  0.0909 -0.5936
  710MOL0     C97865  11.721   5.289   2.022 -0.5389  0.0875  0.1490
  710MOL0     O97866  11.726   5.389   1.928 -0.1534 -0.2257  0.5297
  710MOL0     C97867  11.800   5.380   1.815 -0.1433 -0.0683 -0.0681
  710MOL0     C97868  11.875   5.270   1.772  0.0093  0.7543  1.1973
  710MOL0     C97869  11.943   5.269   1.655 -0.2153 -0.6218  0.1387
  710MOL0     C97870  12.020   5.137   1.628 -0.2022 -1.1979 -0.6854
  710MOL0     C97871  11.933   5.377   1.564  2.1034 -1.0633  0.5548
  710MOL0     C97872  11.984   5.381   1.426 -0.5334  1.0825 -0.1739
  710MOL0     O97873  11.911   5.448   1.327 -0.6930 -1.0275  0.1977
  710MOL0     C97874  11.954   5.465   1.200 -0.7373  0.1584 -0.2448
  710MOL0     C97875  11.867   5.482   1.084 -0.2946  0.6184 -1.3174
  710MOL0     C97876  11.919   5.494   0.955 -0.4584 -0.1066 -0.0004
  710MOL0     C97877  12.060   5.512   0.940  0.4470 -0.6373 -0.0590
  710MOL0     O97878  12.127   5.547   0.832 -0.4586  0.0149  0.8025
  710MOL0     C97879  12.067   5.645   0.741 -0.1581 -0.1094 -0.6061
  710MOL0     C97880  12.008   5.574   0.618  0.3479 -0.1602  0.5373
  710MOL0     C97881  12.127   5.559   0.521 -0.5718 -0.0482  0.4870
  710MOL0     C97882  12.091   5.460   0.415 -1.2292 -0.3741 -0.7171
  710MOL0     C97883  12.195   5.469   0.299  0.0532  0.3139  0.1702
  710MOL0     C97884  12.157   5.395   0.173 -0.2541 -0.0442 -0.1855
  710MOL0     C97885  12.158   5.247   0.178  0.1295  0.3606  0.8667
  710MOL0     C97886  12.161   5.179   0.038  0.4107 -0.1608 -0.2624
  710MOL0    Cl97887  12.318   5.199  -0.047 -0.2924 -0.3019  0.4073
  710MOL0     C97888  12.142   5.510   1.050 -0.2616  0.1153 -0.3129
  710MOL0     C97889  12.096   5.476   1.171  0.3097 -0.7969  0.0554
  710MOL0     O97890  12.071   5.302   1.400 -0.6397  0.4963  0.1260
  710MOL0     C97891  11.871   5.501   1.608 -0.6930 -1.4232  0.2845
  710MOL0     C97892  11.811   5.499   1.738 -0.1548  0.5421  0.3011
  710MOL0     N97893  11.194   5.302   1.936  0.0925 -0.8797 -0.3312
  710MOL0     N97894  11.086   5.252   1.905  0.2969 -0.1025  0.6895
  710MOL0     C97895  10.934   5.465   3.006 -0.8164 -0.5488  0.3679
  710MOL0     C97896  11.004   5.414   3.118  1.2879  0.4846  0.5259
  710MOL0     C97897  11.166   5.078   3.363 -0.6973  0.1110  0.5410
  710MOL0     C97898  11.124   4.983   3.457 -0.5515 -0.5324 -0.4143
  710MOL0     C97899  11.205   4.948   3.560  0.2952 -0.3208  0.4012
  710MOL0     C97900  11.327   5.005   3.577 -1.7004  0.6388 -0.0008
  710MOL0     O97901  11.399   4.969   3.695 -0.9073 -0.7595 -0.4230
  710MOL0     C97902  11.397   5.069   3.804  0.5015  0.6699 -0.3979
  710MOL0     C97903  11.358   5.000   3.940 -0.2697  0.4557  0.2645
  710MOL0     C97904  11.272   5.093   4.032 -0.7355 -0.5524 -0.6786
  710MOL0     C97905  11.119   5.121   4.003  0.8206 -0.1213 -0.2609
  710MOL0     C97906  11.075   5.166   3.872  0.4008  0.3392  0.1138
  710MOL0     C97907  11.033   5.215   3.766 -0.9995  0.3645  0.6801
  710MOL0     C97908  11.366   5.101   3.490 -0.5010 -0.1996 -0.1640
  710MOL0     C97909  11.283   5.146   3.389 -0.2294  0.3654  0.1584
  710MOL0     C97910  11.330   5.276   3.324  0.1881  0.6039  0.0010
  710MOL0     H97911  10.816   5.136   3.151 -0.8030  0.5645  0.3564
  710MOL0     H97912  10.711   5.208   2.955 -3.2915  2.3959  0.7558
  710MOL0     H97913  10.921   5.422   2.708  0.1647 -1.1716 -1.9468
  710MOL0     H97914  10.783   5.515   2.648 -0.7830  0.3033 -0.3617
  710MOL0     H97915  10.774   5.215   2.716 -2.7666  0.3660  0.1639
  710MOL0     H97916  10.646   5.290   2.646  0.3966 -1.0223 -0.7721
  710MOL0     H97917  10.749   5.351   2.448 -2.5473  0.7672  1.6320
  710MOL0     H97918  10.896   5.276   2.515 -0.3170  1.0638  1.1706
  710MOL0     H97919  10.767   5.064   2.539 -2.0140 -0.1860  1.5098
  710MOL0     H97920  10.636   5.139   2.444  0.0097 -0.6338  0.9184
  710MOL0     H97921  10.788   5.009   2.286  4.2497 -1.1479  0.7650
  710MOL0     H97922  10.919   5.110   2.334 -0.1692  0.8472 -0.3930
  710MOL0     H97923  10.670   5.241   2.226 -1.2810 -2.0176 -1.5833
  710MOL0     H97924  10.851   5.276   2.219  0.7483 -0.9770 -1.4088
  710MOL0     H97925  10.773   5.208   1.994  1.9990 -0.0035 -0.8501
  710MOL0     H97926  10.711   5.060   2.067 -1.4124  1.5440 -2.4452
  710MOL0     H97927  10.953   4.991   2.080  2.4514 -0.5349 -1.3279
  710MOL0     H97928  10.888   5.028   1.922 -1.6939  0.9415  0.6874
  710MOL0     H97929  11.087   5.136   2.207  1.7635 -0.7352  0.0616
  710MOL0     H97930  11.374   5.185   2.201  0.8911  0.4081  0.9782
  710MOL0     H97931  11.345   5.357   2.210  0.0589 -0.2221  0.3101
  710MOL0     H97932  11.469   5.212   1.975 -1.5959 -0.4872  0.1258
  710MOL0     H97933  11.438   5.376   1.974 -1.6114 -0.5829 -1.1840
  710MOL0     H97934  11.594   5.424   2.150 -1.1194  0.0253 -1.1049
  710MOL0     H97935  11.611   5.258   2.204 -4.8897 -3.0713 -2.1074
  710MOL0     H97936  11.814   5.302   2.078 -2.5190  2.9745  3.1767
  710MOL0     H97937  11.711   5.186   1.989  0.5464 -0.6310  1.9318
  710MOL0     H97938  11.872   5.175   1.824 -0.9475  0.0602 -0.0760
  710MOL0     H97939  12.009   5.106   1.524 -3.0009  0.4211 -0.9522
  710MOL0     H97940  11.992   5.054   1.693  1.4831 -1.1776  0.1357
  710MOL0     H97941  12.122   5.167   1.653 -0.6376 -1.0115  0.9726
  710MOL0     H97942  11.760   5.484   1.098 -0.1779 -0.3042 -0.0894
  710MOL0     H97943  11.857   5.493   0.865 -1.9253 -0.1182  0.9663
  710MOL0     H97944  11.993   5.702   0.799  1.2753  0.0078  1.1781
  710MOL0     H97945  12.136   5.722   0.705  2.6381 -2.0071  0.3885
  710MOL0     H97946  11.974   5.474   0.647  3.6084 -1.2341  1.0882
  710MOL0     H97947  11.928   5.640   0.584  0.4265 -1.9975 -3.7632
  710MOL0     H97948  12.205   5.512   0.581 -2.6716 -1.8782  1.9547
  710MOL0     H97949  12.151   5.659   0.484 -0.8755  0.2063  0.9642
  710MOL0     H97950  11.986   5.462   0.384 -1.4309 -2.3000 -0.2729
  710MOL0     H97951  12.109   5.357   0.447  1.1402 -0.2807 -1.4930
  710MOL0     H97952  12.200   5.577   0.281 -0.3486  0.4134  0.6366
  710MOL0     H97953  12.298   5.445   0.325 -0.8752 -2.1220  1.9387
  710MOL0     H97954  12.225   5.413   0.089 -1.0054 -1.5377 -1.1608
  710MOL0     H97955  12.057   5.416   0.135  0.8716  1.4987 -2.5918
  710MOL0     H97956  12.074   5.216   0.241  0.0008  1.4866  1.2737
  710MOL0     H97957  12.248   5.217   0.232  1.0499  2.5557  0.6403
  710MOL0     H97958  12.097   5.223  -0.039  2.7393  1.7533 -1.2599
  710MOL0     H97959  12.130   5.075   0.051 -4.5081  0.6896 -2.8956
  710MOL0     H97960  12.246   5.537   1.030 -0.5149  0.8599 -0.6668
  710MOL0     H97961  12.172   5.474   1.249  1.2463  3.0557 -0.5323
  710MOL0     H97962  11.888   5.588   1.546  0.2256 -1.7324  0.0984
  710MOL0     H97963  11.753   5.587   1.764  0.0816  0.9518 -0.5333
  710MOL0     H97964  10.963   5.561   2.967 -1.7436 -0.7567 -0.9291
  710MOL0     H97965  11.096   5.450   3.163  1.9292 -2.6945  2.0320
  710MOL0     H97966  11.028   4.937   3.438 -0.9280 -1.2204  2.6247
  710MOL0     H97967  11.172   4.880   3.638 -2.0581  2.5443  2.1047
  710MOL0     H97968  11.483   5.133   3.826 -0.9367  1.9847  1.7947
  710MOL0     H97969  11.326   5.148   3.775 -0.4688 -0.2652 -0.6274
  710MOL0     H97970  11.448   4.965   3.994 -0.0215  1.5481  0.5724
  710MOL0     H97971  11.298   4.911   3.919 -0.7180  1.0272 -0.8990
  710MOL0     H97972  11.259   5.039   4.127  0.5664 -1.9030 -1.2272
  710MOL0     H97973  11.333   5.182   4.048  1.3884 -1.2656 -3.8112
  710MOL0     H97974  11.088   5.197   4.076  1.5342 -0.3230  0.2596
  710MOL0     H97975  11.074   5.023   4.016  2.6216 -1.3354 -2.5476
  710MOL0     H97976  11.007   5.255   3.671  0.7863 -1.0405 -0.4789
  710MOL0     H97977  11.458   5.156   3.507 -0.7203 -0.4668  2.1951
  710MOL0     H97978  11.280   5.363   3.369 -0.2098 -1.2447  3.4599
  710MOL0     H97979  11.436   5.294   3.343 -0.0496  2.2446 -0.0080
  710MOL0     H97980  11.318   5.280   3.215  0.5559 -2.4591 -0.2191
  711MOL0     O97981  11.530   4.188   5.014 -0.9954  0.2589  0.0461
  711MOL0     C97982  11.530   4.235   4.898 -0.1039  0.0725 -0.9143
  711MOL0     O97983  11.424   4.226   4.810 -0.2121  0.3170 -0.2265
  711MOL0     C97984  11.327   4.132   4.835 -0.1466  0.4679  0.1325
  711MOL0     C97985  11.356   3.999   4.867  0.1738  0.1331  0.3815
  711MOL0     C97986  11.254   3.909   4.900 -0.0685  0.2440 -0.0868
  711MOL0     C97987  11.118   3.948   4.883  0.0955 -0.1149 -0.1738
  711MOL0     O97988  11.017   3.859   4.913  0.2646 -0.3776  0.2586
  711MOL0     C97989  10.994   3.842   5.049 -0.3920  0.3007  0.3644
  711MOL0     C97990  10.866   3.763   5.057  0.5780  0.0732  0.4831
  711MOL0     C97991  10.742   3.812   4.982 -0.0406  0.0154  0.6093
  711MOL0     C97992  10.665   3.708   4.897 -0.1625  0.2622 -0.0002
  711MOL0     C97993  10.511   3.738   4.877 -0.2214  0.1298  0.0037
  711MOL0     C97994  10.478   3.717   4.730  0.0027  0.7532  0.6972
  711MOL0     C97995  10.333   3.657   4.739  0.9309 -0.2285  0.5518
  711MOL0     C97996  10.269   3.631   4.601 -0.0919 -0.3283 -0.6963
  711MOL0     N97997  10.130   3.580   4.621  0.0755 -0.1025 -1.1594
  711MOL0     C97998  10.094   3.480   4.709  0.4034 -0.9864 -1.0834
  711MOL0     C97999   9.962   3.455   4.682 -0.2908 -0.7177 -0.4054
  711MOL0     C98000   9.867   3.362   4.754  0.7001 -0.5607 -0.0307
  711MOL0     C98001   9.827   3.242   4.663 -0.4643 -0.1356  0.3730
  711MOL0     C98002   9.739   3.145   4.745 -1.0176 -0.2314 -0.6258
  711MOL0     C98003   9.635   3.064   4.665 -0.5295  0.9284  0.0978
  711MOL0     O98004   9.525   3.008   4.744 -0.3796 -0.0070 -0.7492
  711MOL0     C98005   9.401   3.068   4.728  0.3456  0.3072  0.3465
  711MOL0     C98006   9.290   2.984   4.763  0.4206 -0.5801  0.6332
  711MOL0     C98007   9.163   3.037   4.746  0.7282 -0.3930  0.3934
  711MOL0     C98008   9.054   2.943   4.766  1.8083  0.8343  0.5602
  711MOL0     C98009   9.134   3.163   4.686 -0.6829 -0.0776 -0.0786
  711MOL0     C98010   8.995   3.230   4.667  0.4216 -0.8710 -0.3623
  711MOL0     O98011   8.893   3.147   4.618  0.0080 -0.1352 -0.5272
  711MOL0     C98012   8.758   3.180   4.605 -1.0507 -0.0582 -0.2860
  711MOL0     C98013   8.661   3.087   4.628  0.0083  0.2405 -0.3891
  711MOL0     C98014   8.527   3.110   4.619  0.3689 -1.0577  0.8181
  711MOL0     C98015   8.480   3.232   4.581 -1.2856 -0.6195 -1.9460
  711MOL0     O98016   8.342   3.244   4.578 -0.0463 -0.4240 -0.4916
  711MOL0     C98017   8.286   3.347   4.497 -0.1416 -0.5991  0.1054
  711MOL0     C98018   8.131   3.365   4.514 -0.3666  1.4488  0.1339
  711MOL0     C98019   8.073   3.488   4.440 -0.1812  0.5086 -0.5517
  711MOL0     C98020   8.031   3.447   4.294 -0.7978 -0.0063 -0.5431
  711MOL0     C98021   7.962   3.556   4.217  0.4639  0.4147  0.4891
  711MOL0     C98022   7.900   3.491   4.094 -1.0021  0.9787  0.0680
  711MOL0     C98023   7.753   3.438   4.109  0.9015 -0.5157 -0.2941
  711MOL0     C98024   7.710   3.412   3.964 -0.0200  0.1078 -0.2651
  711MOL0    Cl98025   7.538   3.401   3.979 -0.1588  0.1898  0.2683
  711MOL0     C98026   8.575   3.330   4.540 -0.1547  0.9260 -0.1479
  711MOL0     C98027   8.716   3.301   4.547 -0.1592  0.3743 -0.2176
  711MOL0     O98028   8.984   3.348   4.705  0.4812  0.1469 -0.0493
  711MOL0     C98029   9.247   3.240   4.649  0.0716 -0.2142  0.1001
  711MOL0     C98030   9.377   3.192   4.667 -0.4420  0.8578 -0.2978
  711MOL0     N98031   9.912   3.551   4.594  0.3597 -0.4934  0.5296
  711MOL0     N98032  10.013   3.616   4.545 -0.9151 -0.8857  0.2136
  711MOL0     C98033  11.094   4.075   4.833  0.1448  0.6548 -0.0862
  711MOL0     C98034  11.199   4.172   4.814  0.7725 -0.0537  0.6838
  711MOL0     C98035  11.634   4.337   4.872 -0.3074 -0.2660  0.5053
  711MOL0     C98036  11.601   4.445   4.790  0.3192 -0.1639  0.3091
  711MOL0     C98037  11.695   4.538   4.748 -0.5157  0.6432  0.0019
  711MOL0     C98038  11.827   4.535   4.787  0.7505  0.2770 -1.2197
  711MOL0     O98039  11.937   4.609   4.745  0.4910 -0.1563 -0.6583
  711MOL0     C98040  11.923   4.692   4.632  0.4092  0.5848 -0.6490
  711MOL0     C98041  12.038   4.790   4.646 -0.5441 -0.4088  0.8622
  711MOL0     C98042  12.040   4.881   4.517  1.5936 -0.0375 -0.9292
  711MOL0     C98043  12.136   4.998   4.520  0.0019 -0.5770  0.6255
  711MOL0     C98044  12.118   5.101   4.409 -0.5533 -0.4685 -0.4725
  711MOL0     C98045  12.093   5.177   4.316 -0.1884  0.0922 -0.3518
  711MOL0     C98046  11.862   4.426   4.870 -0.0459  0.4100 -0.1115
  711MOL0     C98047  11.770   4.329   4.916 -0.4439 -0.2361  0.4890
  711MOL0     C98048  11.811   4.239   5.015 -0.3360  0.4890  0.7776
  711MOL0     H98049  11.460   3.971   4.878 -0.4646 -1.9423  1.6250
  711MOL0     H98050  11.286   3.811   4.935 -0.6300  0.1413  0.1380
  711MOL0     H98051  10.970   3.939   5.094  0.0071  1.9334 -2.6618
  711MOL0     H98052  11.075   3.790   5.101 -2.2907 -1.7193  1.4507
  711MOL0     H98053  10.880   3.661   5.020  1.8868  0.7825 -1.0996
  711MOL0     H98054  10.831   3.772   5.160  1.0548 -4.1157  1.1769
  711MOL0     H98055  10.676   3.837   5.065 -0.4538  0.9472  0.0167
  711MOL0     H98056  10.763   3.903   4.925 -1.9798  1.0760  1.5163
  711MOL0     H98057  10.706   3.705   4.796 -0.0308 -1.1644  0.0702
  711MOL0     H98058  10.657   3.611   4.949 -3.4305  0.8753  0.8372
  711MOL0     H98059  10.478   3.834   4.918  2.0737  1.4400 -1.0107
  711MOL0     H98060  10.458   3.664   4.937  2.9320 -1.0392  1.5585
  711MOL0     H98061  10.488   3.806   4.666 -0.6418  0.5078  0.2421
  711MOL0     H98062  10.527   3.637   4.675  0.4413  0.7885  1.0315
  711MOL0     H98063  10.258   3.717   4.791  1.8931  2.0835 -0.5600
  711MOL0     H98064  10.357   3.563   4.789  1.4119  1.4944  3.8748
  711MOL0     H98065  10.266   3.724   4.542 -2.0416 -1.2627 -2.1735
  711MOL0     H98066  10.328   3.568   4.534 -1.3892 -1.3951 -0.8678
  711MOL0     H98067  10.158   3.426   4.777 -0.0600 -1.6998 -1.2035
  711MOL0     H98068   9.780   3.416   4.794  0.9699  1.3878 -1.9565
  711MOL0     H98069   9.923   3.311   4.834  2.3596  2.0395  0.5993
  711MOL0     H98070   9.774   3.278   4.574  1.5636 -3.3382 -2.3936
  711MOL0     H98071   9.914   3.189   4.623 -1.9891 -1.3903 -1.4739
  711MOL0     H98072   9.793   3.076   4.811  0.0199  1.5119  0.4310
  711MOL0     H98073   9.679   3.197   4.821 -0.1735  0.1937 -0.2426
  711MOL0     H98074   9.597   3.113   4.575 -0.7252 -0.1468 -0.4346
  711MOL0     H98075   9.684   2.973   4.627 -1.8063 -0.8005  2.3708
  711MOL0     H98076   9.303   2.880   4.791  2.2768  0.0417  2.3015
  711MOL0     H98077   9.036   2.889   4.673 -2.9408  2.8153  0.0109
  711MOL0     H98078   8.953   2.968   4.800  0.8682 -0.8919 -0.8044
  711MOL0     H98079   9.075   2.860   4.834  0.1745 -1.6802 -1.7669
  711MOL0     H98080   8.687   2.984   4.653  2.1744  0.9741  0.5864
  711MOL0     H98081   8.447   3.040   4.638  0.7617 -1.6972  0.1770
  711MOL0     H98082   8.334   3.443   4.517 -0.8858 -0.3138  0.5610
  711MOL0     H98083   8.306   3.315   4.394  5.3676 -3.4285  1.7127
  711MOL0     H98084   8.073   3.275   4.490 -2.0907  2.9723 -1.8106
  711MOL0     H98085   8.124   3.374   4.623 -1.1437  1.2572  0.1082
  711MOL0     H98086   8.161   3.553   4.445  4.0591 -4.6632  1.7212
  711MOL0     H98087   7.994   3.529   4.504 -0.4346  0.9440 -1.1368
  711MOL0     H98088   7.963   3.360   4.295  0.8692 -1.4201 -2.3978
  711MOL0     H98089   8.119   3.413   4.239 -0.4650 -0.2591  0.1287
  711MOL0     H98090   7.879   3.604   4.270  0.1642  0.6332 -0.1688
  711MOL0     H98091   8.038   3.629   4.186 -2.2038  3.9796  1.6427
  711MOL0     H98092   7.961   3.404   4.066 -1.6037  0.7255 -0.4818
  711MOL0     H98093   7.904   3.556   4.006  0.2634 -0.3682 -0.9102
  711MOL0     H98094   7.694   3.518   4.155  2.2308  2.2363 -3.0595
  711MOL0     H98095   7.762   3.342   4.160  1.0283 -0.2725  0.1418
  711MOL0     H98096   7.742   3.310   3.938 -1.2783  0.1138 -2.0663
  711MOL0     H98097   7.747   3.485   3.891 -3.1630  2.4818  0.2823
  711MOL0     H98098   8.544   3.426   4.499  2.1102  2.3598  1.2604
  711MOL0     H98099   8.793   3.362   4.501  0.3226 -2.1792 -3.1156
  711MOL0     H98100   9.223   3.341   4.615  1.3155  0.7360  1.8445
  711MOL0     H98101   9.462   3.257   4.649 -0.4074  1.5178  1.9194
  711MOL0     H98102  10.993   4.108   4.811 -0.3826 -1.1566 -0.5183
  711MOL0     H98103  11.193   4.279   4.798  5.9342  0.6452  1.4787
  711MOL0     H98104  11.504   4.456   4.743  0.6095  0.4573 -0.1577
  711MOL0     H98105  11.645   4.616   4.691  2.9093  1.7585 -1.7389
  711MOL0     H98106  11.930   4.631   4.542 -1.0296  0.2372 -0.5571
  711MOL0     H98107  11.829   4.747   4.642 -0.3430 -0.2644 -2.5968
  711MOL0     H98108  12.136   4.745   4.663 -0.2314 -0.1069 -0.0341
  711MOL0     H98109  12.027   4.850   4.736  1.6535  1.8440 -0.2403
  711MOL0     H98110  12.040   4.819   4.427 -2.7124 -0.6990 -0.7069
  711MOL0     H98111  11.939   4.923   4.511  1.4488 -0.4166 -1.1790
  711MOL0     H98112  12.240   4.966   4.510  0.8265  2.0514  0.0391
  711MOL0     H98113  12.129   5.057   4.612  4.0906  1.2518 -0.0100
  711MOL0     H98114  12.075   5.231   4.225  0.0390  0.2848 -0.2848
  711MOL0     H98115  11.959   4.425   4.918 -0.8582  1.0756  1.6288
  711MOL0     H98116  11.760   4.255   5.111 -0.2498 -0.4282  0.9862
  711MOL0     H98117  11.786   4.134   4.998  0.7135  0.3092  0.2756
  711MOL0     H98118  11.919   4.234   5.033  0.4420  1.8467 -2.6939
  712MOL0     O98119   5.006   7.460   4.176 -0.3340 -0.3894 -0.0123
  712MOL0     C98120   4.961   7.530   4.089  0.5197  0.3045  0.9665
  712MOL0     O98121   4.905   7.652   4.114  0.9581 -0.1226 -0.6298
  712MOL0     C98122   4.875   7.692   4.241  0.1363  0.5422 -0.6644
  712MOL0     C98123   4.931   7.656   4.363  0.2542 -0.2310  0.1540
  712MOL0     C98124   4.903   7.739   4.476 -1.3701 -0.2875 -0.9726
  712MOL0     C98125   4.788   7.813   4.477 -0.5081 -0.3743  0.1482
  712MOL0     O98126   4.745   7.864   4.595 -0.1693  0.3196  0.4014
  712MOL0     C98127   4.638   7.949   4.622 -0.2152 -0.0677  0.4888
  712MOL0     C98128   4.614   7.999   4.760 -0.2503  1.0696  0.6266
  712MOL0     C98129   4.478   8.080   4.770 -0.2098 -0.1246  0.3120
  712MOL0     C98130   4.447   8.113   4.926  0.9442 -0.7423 -0.3480
  712MOL0     C98131   4.304   8.179   4.951  1.0001  0.5424 -0.5621
  712MOL0     C98132   4.258   8.179   5.103 -0.2641  1.1985 -0.2831
  712MOL0     C98133   4.341   8.266   5.192 -0.8369 -0.1318  0.7947
  712MOL0     C98134   4.272   8.281   5.328  0.7648 -0.7591  0.4909
  712MOL0     N98135   4.158   8.376   5.308  0.1613 -0.0435  0.3205
  712MOL0     C98136   4.169   8.515   5.294  0.4519  0.1159  0.6018
  712MOL0     C98137   4.042   8.568   5.308  0.0105  0.5762 -0.4288
  712MOL0     C98138   4.017   8.716   5.276  0.8985  0.1533  0.6846
  712MOL0     C98139   3.876   8.764   5.240  0.3249  0.3461  0.4060
  712MOL0     C98140   3.800   8.808   5.365 -0.9331 -0.4645 -0.0359
  712MOL0     C98141   3.654   8.857   5.335  0.1398 -1.1607 -0.9195
  712MOL0     O98142   3.570   8.845   5.457 -0.3716  0.0013 -0.0295
  712MOL0     C98143   3.597   8.910   5.579 -0.6167  0.6570  0.0085
  712MOL0     C98144   3.519   8.883   5.693 -0.0228 -0.5674 -0.2420
  712MOL0     C98145   3.548   8.942   5.823  1.1053  0.1791  0.2940
  712MOL0     C98146   3.454   8.896   5.939  0.1027  0.1155  1.0352
  712MOL0     C98147   3.656   9.032   5.838 -0.6771  0.0110  0.5350
  712MOL0     C98148   3.701   9.079   5.971 -0.3259  0.2036  0.5813
  712MOL0     O98149   3.684   9.008   6.083  0.2464 -0.1666 -0.2802
  712MOL0     C98150   3.721   9.062   6.196  0.8535 -0.7399 -1.6510
  712MOL0     C98151   3.825   8.997   6.255 -0.6657 -0.8053  0.5402
  712MOL0     C98152   3.859   9.035   6.387 -0.5614 -0.6805 -0.6504
  712MOL0     C98153   3.789   9.136   6.457 -0.4849  0.7390 -0.4429
  712MOL0     O98154   3.814   9.148   6.588  0.6272 -0.2473  0.3992
  712MOL0     C98155   3.756   9.265   6.655  0.8035 -0.0633  0.9966
  712MOL0     C98156   3.778   9.243   6.798 -1.6148 -0.9932  0.6678
  712MOL0     C98157   3.756   9.361   6.890 -1.7057 -0.0997 -0.0626
  712MOL0     C98158   3.829   9.342   7.029  0.2067 -0.1658 -0.3752
  712MOL0     C98159   3.781   9.238   7.125 -0.0637  0.8318 -1.5012
  712MOL0     C98160   3.854   9.226   7.259  0.1270 -0.0706  0.1477
  712MOL0     C98161   3.831   9.355   7.342 -0.3778 -0.8786  0.3348
  712MOL0     C98162   3.925   9.351   7.463  0.7950  0.2249 -0.9827
  712MOL0    Cl98163   3.854   9.481   7.573 -0.5541 -0.2309 -0.5571
  712MOL0     C98164   3.691   9.217   6.394 -0.4076  0.4018 -0.2815
  712MOL0     C98165   3.652   9.171   6.262 -0.0857 -1.1299  0.3779
  712MOL0     O98166   3.763   9.183   5.971 -0.2703 -0.2506  0.3812
  712MOL0     C98167   3.727   9.068   5.720  0.1017 -0.7391 -0.5269
  712MOL0     C98168   3.695   9.017   5.595  0.1718  0.6158  0.0821
  712MOL0     N98169   3.956   8.448   5.329 -0.6687  0.4194  0.1257
  712MOL0     N98170   4.030   8.340   5.320  0.7922  0.5405 -0.7720
  712MOL0     C98171   4.711   7.837   4.367  0.7181 -0.1675  0.7531
  712MOL0     C98172   4.757   7.773   4.249 -0.5546 -0.0077 -0.6480
  712MOL0     C98173   4.968   7.485   3.950  0.2267 -0.6727  0.2406
  712MOL0     C98174   4.889   7.558   3.857  0.9183 -0.4957 -0.0157
  712MOL0     C98175   4.877   7.519   3.722 -0.2665  0.0966 -0.3829
  712MOL0     C98176   4.953   7.418   3.670  0.7406  0.4239 -0.0271
  712MOL0     O98177   4.953   7.371   3.538 -0.3382 -0.7651 -0.1862
  712MOL0     C98178   4.872   7.257   3.510  0.1848 -0.4596  0.4285
  712MOL0     C98179   4.853   7.244   3.356 -0.3991 -0.1955 -2.0119
  712MOL0     C98180   4.990   7.222   3.287  0.6096 -0.2593 -0.3107
  712MOL0     C98181   4.967   7.190   3.141  0.3365  0.8420  0.7193
  712MOL0     C98182   4.913   7.060   3.100  0.5645 -0.2807 -0.1433
  712MOL0     C98183   4.867   6.966   3.037  0.1737 -0.3711  0.6223
  712MOL0     C98184   5.041   7.359   3.759 -0.0944 -0.2782  0.8031
  712MOL0     C98185   5.033   7.371   3.900  0.0981 -0.2069 -0.6929
  712MOL0     C98186   5.133   7.285   3.977  0.0482  0.2571 -0.3221
  712MOL0     H98187   5.006   7.579   4.380 -1.7900 -1.9596  1.9922
  712MOL0     H98188   4.949   7.728   4.573 -1.6083 -0.0309 -0.8320
  712MOL0     H98189   4.545   7.900   4.591  0.5339 -0.3500 -1.4116
  712MOL0     H98190   4.659   8.037   4.560  0.4309 -0.8111 -0.3695
  712MOL0     H98191   4.599   7.902   4.808 -0.2147  2.6959  4.2050
  712MOL0     H98192   4.700   8.057   4.797  2.9919 -3.0352  0.2156
  712MOL0     H98193   4.487   8.176   4.719  0.3400  2.2663  4.4770
  712MOL0     H98194   4.398   8.020   4.727 -1.8775  0.7427  2.0263
  712MOL0     H98195   4.434   8.021   4.984 -3.4569  0.7193  1.3885
  712MOL0     H98196   4.529   8.163   4.979  0.4085  1.0067 -1.1245
  712MOL0     H98197   4.222   8.127   4.899 -1.4925  0.8636  2.7179
  712MOL0     H98198   4.308   8.284   4.919  0.5780  0.4699 -0.8708
  712MOL0     H98199   4.156   8.218   5.113  0.9670  4.6562 -0.1658
  712MOL0     H98200   4.268   8.076   5.139  1.5173  2.3123  2.7667
  712MOL0     H98201   4.358   8.364   5.147 -1.8390  0.7426  2.2351
  712MOL0     H98202   4.429   8.201   5.191 -1.0958 -0.4816 -0.0902
  712MOL0     H98203   4.233   8.190   5.375  1.8993  0.0821  3.2141
  712MOL0     H98204   4.338   8.330   5.400  2.2191 -3.1272  0.9014
  712MOL0     H98205   4.259   8.574   5.276  1.1189 -0.9953  0.2363
  712MOL0     H98206   4.083   8.742   5.193  0.8160  0.4447  0.7062
  712MOL0     H98207   4.054   8.775   5.361 -2.7192  0.3096  2.3517
  712MOL0     H98208   3.889   8.854   5.179  4.8526 -0.4814 -0.2346
  712MOL0     H98209   3.812   8.697   5.183 -1.0428  1.4279  0.6222
  712MOL0     H98210   3.796   8.723   5.433  0.5310 -1.9434 -1.7090
  712MOL0     H98211   3.857   8.892   5.406  1.7333 -1.6251 -1.0920
  712MOL0     H98212   3.667   8.964   5.316  3.6848 -0.6662  2.8438
  712MOL0     H98213   3.608   8.798   5.255 -1.8833 -0.9891  0.0549
  712MOL0     H98214   3.462   8.790   5.688  3.1549 -3.0756  3.7124
  712MOL0     H98215   3.488   8.805   5.989  0.4627 -0.9942 -1.0684
  712MOL0     H98216   3.359   8.868   5.891 -0.3306 -2.6706  3.2815
  712MOL0     H98217   3.416   8.973   6.006  2.7399  1.7163  0.8502
  712MOL0     H98218   3.872   8.919   6.196 -2.5481 -1.2260 -0.4749
  712MOL0     H98219   3.934   8.995   6.453  3.3283  4.1946 -1.5241
  712MOL0     H98220   3.806   9.356   6.618 -0.7948  0.0333 -1.1208
  712MOL0     H98221   3.649   9.274   6.632  1.5504  0.4903 -3.1107
  712MOL0     H98222   3.718   9.160   6.834 -2.8212 -1.0953 -1.4173
  712MOL0     H98223   3.885   9.221   6.813 -1.4557 -0.1581  0.8162
  712MOL0     H98224   3.649   9.377   6.902 -1.7003  2.0877 -2.0913
  712MOL0     H98225   3.805   9.452   6.854  1.1492 -1.1538  0.9010
  712MOL0     H98226   3.839   9.435   7.087  0.9351 -1.1617  1.1629
  712MOL0     H98227   3.934   9.321   7.011 -0.0053 -0.8805 -0.8231
  712MOL0     H98228   3.675   9.241   7.151  0.1524 -2.5409  0.4212
  712MOL0     H98229   3.796   9.145   7.069  1.0708  0.1629 -0.1603
  712MOL0     H98230   3.961   9.213   7.237  0.0778  0.1136 -0.2262
  712MOL0     H98231   3.814   9.141   7.314 -0.7623  1.0937  1.3512
  712MOL0     H98232   3.726   9.358   7.374 -1.4920  4.8311 -2.5701
  712MOL0     H98233   3.837   9.445   7.280 -2.2755 -2.4149 -2.2326
  712MOL0     H98234   4.027   9.390   7.454 -0.7496  5.2547 -0.2356
  712MOL0     H98235   3.918   9.255   7.515  0.9926  0.5320 -0.3743
  712MOL0     H98236   3.639   9.303   6.436  0.3411  1.0685 -0.6903
  712MOL0     H98237   3.571   9.226   6.215  1.5521  1.4054  0.3430
  712MOL0     H98238   3.809   9.138   5.727 -0.5725  0.0437 -0.2795
  712MOL0     H98239   3.728   9.059   5.501 -2.8082  0.7320 -1.0296
  712MOL0     H98240   4.617   7.890   4.367  0.8961  0.2696 -1.8021
  712MOL0     H98241   4.695   7.782   4.160 -1.9234  0.3780  0.3134
  712MOL0     H98242   4.835   7.644   3.895 -0.1112 -1.2020  0.1690
  712MOL0     H98243   4.800   7.566   3.662  0.9962  2.1576 -0.4679
  712MOL0     H98244   4.906   7.160   3.547 -0.1452 -2.9954 -5.0512
  712MOL0     H98245   4.773   7.277   3.552  0.5429  1.6832  0.3573
  712MOL0     H98246   4.802   7.332   3.315 -1.9491 -0.6079 -1.0580
  712MOL0     H98247   4.794   7.153   3.343 -1.1418  0.0361 -0.5390
  712MOL0     H98248   5.039   7.319   3.278 -0.6380  0.1617 -4.9672
  712MOL0     H98249   5.061   7.160   3.342  3.6531  1.6373 -1.8393
  712MOL0     H98250   5.062   7.192   3.086  0.3061  0.2104  0.6353
  712MOL0     H98251   4.903   7.269   3.101  0.4942  0.6177  0.0036
  712MOL0     H98252   4.814   6.883   2.993  0.4352 -1.4697  2.2913
  712MOL0     H98253   5.122   7.298   3.719 -1.3222 -2.7389  1.8140
  712MOL0     H98254   5.229   7.337   3.980  0.6435 -0.8417  0.2047
  712MOL0     H98255   5.099   7.256   4.077 -0.4858  1.4644 -0.1317
  712MOL0     H98256   5.147   7.201   3.909  2.4391 -1.9931  2.6890
  713MOL0     O98257   2.806   8.209   9.547  0.1233 -0.5348  0.6060
  713MOL0     C98258   2.878   8.273   9.624  0.0081  0.3844 -0.3470
  713MOL0     O98259   3.017   8.269   9.626  0.0342 -0.0826  0.1737
  713MOL0     C98260   3.110   8.174   9.576  1.3778  0.7572 -0.2616
  713MOL0     C98261   3.237   8.202   9.593  0.0294 -0.1393 -0.5164
  713MOL0     C98262   3.344   8.119   9.537  0.0520 -0.0979 -0.6395
  713MOL0     C98263   3.305   8.005   9.459  1.0288 -0.0725 -0.2277
  713MOL0     O98264   3.402   7.943   9.387  0.1748 -0.2425 -0.6210
  713MOL0     C98265   3.380   7.822   9.325  0.2920 -0.8129 -0.2464
  713MOL0     C98266   3.514   7.743   9.349  0.4110 -0.6169  0.4490
  713MOL0     C98267   3.493   7.591   9.343  0.4674  0.6324 -0.0027
  713MOL0     C98268   3.618   7.506   9.312  0.6048  0.1197 -0.3968
  713MOL0     C98269   3.571   7.367   9.271  0.0876  0.8877 -0.5798
  713MOL0     C98270   3.685   7.278   9.242 -0.4151  0.6926 -0.3673
  713MOL0     C98271   3.645   7.134   9.190 -0.6715  0.9131  0.2138
  713MOL0     C98272   3.582   7.051   9.304 -0.2836 -0.0245  0.1242
  713MOL0     N98273   3.684   6.966   9.367 -0.5498 -0.8213 -0.2869
  713MOL0     C98274   3.765   7.008   9.463  0.6146  0.5938  0.3237
  713MOL0     C98275   3.843   6.901   9.484  0.9327 -0.6101 -0.5171
  713MOL0     C98276   3.965   6.895   9.564 -0.3786 -0.0600 -0.0961
  713MOL0     C98277   3.942   6.937   9.703  0.4912 -0.2083  0.0598
  713MOL0     C98278   3.822   6.862   9.766  0.3389 -0.9755  1.5669
  713MOL0     C98279   3.815   6.928   9.907 -0.1808  0.7338 -0.1891
  713MOL0     O98280   3.706   7.007   9.929 -0.5189  0.1742 -0.8803
  713MOL0     C98281   3.730   7.095  10.037 -0.4930 -0.4924  0.0158
  713MOL0     C98282   3.729   7.224  10.008  0.0413 -1.2950 -0.4755
  713MOL0     C98283   3.744   7.332  10.105  0.0432  1.1158  1.0288
  713MOL0     C98284   3.715   7.473  10.071 -0.1665 -0.8187 -0.1273
  713MOL0     C98285   3.778   7.294  10.240  0.7416  0.2982 -0.3023
  713MOL0     C98286   3.791   7.385  10.365  0.2329  0.2601  0.4098
  713MOL0     O98287   3.849   7.320  10.466  0.2064  0.1928 -1.0021
  713MOL0     C98288   3.815   7.356  10.596  0.1933  0.0621 -0.1221
  713MOL0     C98289   3.772   7.257  10.673 -0.5025  0.1813 -0.9532
  713MOL0     C98290   3.742   7.268  10.809  0.4609 -0.2526 -0.3452
  713MOL0     C98291   3.744   7.391  10.867 -0.1702 -0.5454  0.8100
  713MOL0     O98292   3.723   7.391  10.999 -0.1490  0.0466 -0.0595
  713MOL0     C98293   3.653   7.497  11.068 -0.8708  0.2525 -0.0854
  713MOL0     C98294   3.608   7.440  11.200 -0.0268 -0.1407  0.3239
  713MOL0     C98295   3.719   7.441  11.308  0.7898 -0.1422  0.6368
  713MOL0     C98296   3.827   7.335  11.298 -0.2078 -0.4282  0.1226
  713MOL0     C98297   3.801   7.188  11.278  0.2438  0.6658  0.9318
  713MOL0     C98298   3.747   7.108  11.401  1.1749  0.2015 -0.5880
  713MOL0     C98299   3.593   7.092  11.405 -0.8033 -0.3243  0.9416
  713MOL0     C98300   3.534   6.968  11.476  0.7031 -0.6390 -0.4146
  713MOL0    Cl98301   3.577   6.808  11.396  0.4533  0.4443 -0.1656
  713MOL0     C98302   3.792   7.505  10.794  0.2012 -0.6074  0.1252
  713MOL0     C98303   3.833   7.479  10.662 -0.2797  0.5541 -0.3109
  713MOL0     O98304   3.776   7.510  10.359  0.7935 -0.1007  0.0636
  713MOL0     C98305   3.793   7.151  10.257  0.3036  0.5368 -1.1105
  713MOL0     C98306   3.776   7.049  10.160  0.0986 -1.0015  0.1783
  713MOL0     N98307   3.813   6.799   9.388 -1.2156  0.7750 -0.0546
  713MOL0     N98308   3.707   6.834   9.336  0.2984  0.3872 -0.5367
  713MOL0     C98309   3.164   7.986   9.435 -0.3912  0.7880 -1.1023
  713MOL0     C98310   3.072   8.069   9.506  1.1751 -0.7641 -0.1205
  713MOL0     C98311   2.817   8.385   9.708  0.2809 -0.3739  0.2528
  713MOL0     C98312   2.891   8.501   9.760  1.1362  0.8451 -0.3115
  713MOL0     C98313   2.816   8.591   9.843 -0.9638 -0.3584  0.1917
  713MOL0     C98314   2.685   8.578   9.879  0.1627 -0.7188 -0.4697
  713MOL0     O98315   2.633   8.682   9.956  0.0132  0.1144  0.3498
  713MOL0     C98316   2.507   8.658  10.018 -0.4063 -0.1492 -0.4692
  713MOL0     C98317   2.387   8.656   9.920 -0.0069  0.2433 -0.0889
  713MOL0     C98318   2.267   8.579   9.982  0.4801 -0.1809  0.0014
  713MOL0     C98319   2.266   8.423   9.968  0.7899  0.2287  0.3922
  713MOL0     C98320   2.264   8.389   9.829 -0.1490  0.1080 -0.5876
  713MOL0     C98321   2.258   8.372   9.707  0.3144  0.1972 -0.0569
  713MOL0     C98322   2.624   8.459   9.844 -0.2664  0.2305  0.5281
  713MOL0     C98323   2.682   8.363   9.759  0.3370  0.9098  1.3593
  713MOL0     C98324   2.604   8.242   9.741  1.1625  0.1661  0.1947
  713MOL0     H98325   3.264   8.298   9.636 -1.3107 -0.6261  1.5050
  713MOL0     H98326   3.448   8.151   9.540 -0.1613  0.5234  0.6385
  713MOL0     H98327   3.361   7.821   9.217  0.2027  2.5043 -0.3686
  713MOL0     H98328   3.305   7.762   9.377  1.0645 -1.6957 -0.1172
  713MOL0     H98329   3.601   7.773   9.290  1.4488 -4.6345 -0.4098
  713MOL0     H98330   3.541   7.770   9.451 -0.2050 -1.4041  0.8358
  713MOL0     H98331   3.440   7.551   9.430  1.6768 -1.0494  0.0223
  713MOL0     H98332   3.424   7.578   9.259 -0.2861  2.5059  0.2800
  713MOL0     H98333   3.678   7.550   9.232 -1.3640  1.7238 -1.0705
  713MOL0     H98334   3.676   7.501   9.405  0.5565 -3.6230 -0.4122
  713MOL0     H98335   3.508   7.363   9.181 -0.7343 -1.2950  0.0267
  713MOL0     H98336   3.505   7.333   9.351  0.4727  1.7842  0.1350
  713MOL0     H98337   3.734   7.331   9.160  0.5347 -1.3091 -1.1798
  713MOL0     H98338   3.758   7.271   9.324  0.9366  1.1359 -1.4839
  713MOL0     H98339   3.740   7.092   9.157 -0.6057  0.9977  0.2943
  713MOL0     H98340   3.576   7.149   9.107 -1.1422  1.7554  0.7499
  713MOL0     H98341   3.540   7.120   9.378  5.9932  3.7129  0.9567
  713MOL0     H98342   3.513   6.984   9.253  0.6963 -1.1886  0.2998
  713MOL0     H98343   3.779   7.105   9.509 -4.2933  1.6304  0.1658
  713MOL0     H98344   4.048   6.955   9.525 -0.7354  0.8264  0.4983
  713MOL0     H98345   4.003   6.792   9.572  0.4969  0.4229  3.1736
  713MOL0     H98346   4.030   6.919   9.765  1.0447 -3.8360 -1.5108
  713MOL0     H98347   3.924   7.045   9.710 -1.1331 -0.4110 -0.4631
  713MOL0     H98348   3.730   6.873   9.707  1.7268 -3.7283 -1.4175
  713MOL0     H98349   3.843   6.755   9.774 -0.1088 -0.9878  2.9180
  713MOL0     H98350   3.797   6.839   9.967  0.0249 -1.3605 -3.0081
  713MOL0     H98351   3.908   6.965   9.950  1.1347 -2.4163 -0.0720
  713MOL0     H98352   3.711   7.252   9.904  1.4546  0.0918 -0.3874
  713MOL0     H98353   3.698   7.502   9.967 -1.4478  2.4027  0.8526
  713MOL0     H98354   3.802   7.528  10.109 -1.2150  0.1191  1.0082
  713MOL0     H98355   3.630   7.509  10.129  0.4277 -2.4298  1.8687
  713MOL0     H98356   3.760   7.153  10.643 -0.5667  0.0797 -0.5853
  713MOL0     H98357   3.727   7.190  10.883  1.4945  1.6871  2.0556
  713MOL0     H98358   3.716   7.584  11.088  1.2239 -0.9605 -1.0955
  713MOL0     H98359   3.562   7.535  11.020  0.3070  0.6452 -2.1118
  713MOL0     H98360   3.531   7.510  11.235 -0.5062 -1.2824  1.6571
  713MOL0     H98361   3.575   7.339  11.174 -2.5921  0.4376  1.0245
  713MOL0     H98362   3.660   7.413  11.396  1.8964 -0.9521  1.1462
  713MOL0     H98363   3.759   7.542  11.315  0.5245  0.0366 -0.2784
  713MOL0     H98364   3.883   7.325  11.392 -1.5796 -0.7902  0.9275
  713MOL0     H98365   3.897   7.363  11.219 -0.2619 -1.9286 -0.4965
  713MOL0     H98366   3.748   7.170  11.184  2.3780  2.7011 -0.7804
  713MOL0     H98367   3.903   7.151  11.262  0.5996  2.2023 -0.6065
  713MOL0     H98368   3.774   7.156  11.496  1.0671  0.2642 -0.5896
  713MOL0     H98369   3.794   7.009  11.397  0.7926 -0.0432  0.7520
  713MOL0     H98370   3.557   7.083  11.302  0.2342 -0.3176  0.5700
  713MOL0     H98371   3.553   7.175  11.464 -1.3737 -1.5642  2.3508
  713MOL0     H98372   3.426   6.986  11.478  1.0782  2.6609  3.7082
  713MOL0     H98373   3.564   6.978  11.581 -1.7505 -2.6389  0.5566
  713MOL0     H98374   3.806   7.605  10.833 -1.0702 -0.8579  1.3007
  713MOL0     H98375   3.854   7.564  10.598 -0.9999  2.5380  1.9710
  713MOL0     H98376   3.830   7.107  10.349  0.0941 -0.7712 -1.6307
  713MOL0     H98377   3.769   6.946  10.193 -1.1809 -0.6469  1.1122
  713MOL0     H98378   3.122   7.907   9.373  1.2337 -1.3087  0.3247
  713MOL0     H98379   2.971   8.034   9.491  1.0050 -0.9552  1.3596
  713MOL0     H98380   2.993   8.514   9.724  1.9936 -2.5742  0.5537
  713MOL0     H98381   2.865   8.681   9.880 -1.5819 -0.4635  1.2999
  713MOL0     H98382   2.515   8.563  10.072 -2.0591  1.5089  3.0109
  713MOL0     H98383   2.488   8.737  10.091 -2.1908  1.6308 -2.7173
  713MOL0     H98384   2.409   8.616   9.821 -1.5393 -2.6075  0.6051
  713MOL0     H98385   2.366   8.761   9.898 -2.1494  0.4632  2.4844
  713MOL0     H98386   2.259   8.604  10.089  2.5334  1.7037 -0.2245
  713MOL0     H98387   2.180   8.613   9.925  1.5830  0.7937 -1.1315
  713MOL0     H98388   2.168   8.384   9.996  0.1169 -0.3780 -2.5352
  713MOL0     H98389   2.358   8.385  10.014  1.4994 -1.7294 -2.3669
  713MOL0     H98390   2.242   8.364   9.602 -2.8160 -1.1863  0.4221
  713MOL0     H98391   2.529   8.433   9.890 -0.5198 -2.5517 -1.2869
  713MOL0     H98392   2.517   8.233   9.806  0.5903 -2.3388 -0.7790
  713MOL0     H98393   2.571   8.243   9.637 -1.9813  2.3298  1.0754
  713MOL0     H98394   2.661   8.151   9.764  1.9906  0.3523 -1.0522
  714MOL0     O98395   8.708   5.396  10.147 -0.0846 -0.3446  0.5233
  714MOL0     C98396   8.650   5.483  10.205 -0.1763 -0.2458  0.5298
  714MOL0     O98397   8.584   5.585  10.134 -0.1840 -0.1607 -0.0216
  714MOL0     C98398   8.557   5.574   9.997 -1.2397 -0.7539  0.5191
  714MOL0     C98399   8.498   5.695   9.948 -0.3655 -0.3970 -0.9802
  714MOL0     C98400   8.441   5.697   9.824  0.0698  0.3961 -0.0529
  714MOL0     C98401   8.426   5.588   9.746  0.1115  0.5709  0.5961
  714MOL0     O98402   8.364   5.592   9.624  0.1320  0.2696 -0.5331
  714MOL0     C98403   8.241   5.660   9.618 -1.1050  0.8523 -0.3496
  714MOL0     C98404   8.163   5.594   9.504  0.2040 -0.5866 -0.0086
  714MOL0     C98405   8.234   5.628   9.371  0.6211 -0.3750 -1.1041
  714MOL0     C98406   8.190   5.759   9.302  0.2497  0.0511  0.8964
  714MOL0     C98407   8.060   5.750   9.224  0.0879 -0.0769 -0.4492
  714MOL0     C98408   8.069   5.745   9.070 -0.7215  0.1688 -0.9296
  714MOL0     C98409   7.939   5.806   9.009 -0.5907 -0.0698 -0.0375
  714MOL0     C98410   7.814   5.717   9.030 -0.4359  0.6731  0.9304
  714MOL0     N98411   7.725   5.698   8.908  0.0386  0.0783  1.9589
  714MOL0     C98412   7.743   5.615   8.797  0.2628 -0.2744 -0.6415
  714MOL0     C98413   7.625   5.620   8.722 -0.7912 -0.6410  0.0703
  714MOL0     C98414   7.600   5.525   8.602 -0.7172 -0.4708 -0.3874
  714MOL0     C98415   7.564   5.614   8.482 -0.0249  0.1428 -0.7771
  714MOL0     C98416   7.672   5.712   8.435  0.1036 -0.7842 -1.0731
  714MOL0     C98417   7.636   5.772   8.292  0.0733 -0.7275 -0.3597
  714MOL0     O98418   7.654   5.667   8.195 -0.1366  0.5910 -0.8382
  714MOL0     C98419   7.654   5.705   8.065  0.1382  0.2579  0.8779
  714MOL0     C98420   7.625   5.836   8.020  0.2992  0.4331  0.2795
  714MOL0     C98421   7.622   5.864   7.882  0.2289  0.1633 -0.9240
  714MOL0     C98422   7.575   6.013   7.857 -0.0764  0.3643  0.5574
  714MOL0     C98423   7.645   5.768   7.783  0.0786  0.2612 -0.1986
  714MOL0     C98424   7.627   5.791   7.639 -0.8486 -0.3263 -0.2458
  714MOL0     O98425   7.688   5.696   7.559 -0.1522 -0.1539  0.8469
  714MOL0     C98426   7.709   5.707   7.425 -0.1119 -0.0152  0.4810
  714MOL0     C98427   7.610   5.728   7.335  0.0611  0.3913 -0.0718
  714MOL0     C98428   7.646   5.748   7.197 -0.5183 -0.1724  0.0473
  714MOL0     C98429   7.774   5.726   7.150 -0.1321  0.6859 -0.8861
  714MOL0     O98430   7.812   5.752   7.020  0.9512  0.2260  0.0508
  714MOL0     C98431   7.864   5.642   6.945  0.9374  0.2854 -0.8748
  714MOL0     C98432   7.795   5.634   6.808 -0.5700  0.3066  0.7477
  714MOL0     C98433   7.872   5.556   6.712 -0.4075  0.9531 -0.5313
  714MOL0     C98434   7.791   5.520   6.585  0.2725  0.0769 -0.8775
  714MOL0     C98435   7.863   5.452   6.477  0.5637 -0.8025  0.7991
  714MOL0     C98436   7.908   5.556   6.363 -0.2536 -0.0653 -0.4080
  714MOL0     C98437   7.969   5.477   6.234  0.5207 -0.1802 -0.8223
  714MOL0     C98438   7.868   5.403   6.154 -0.5825  0.1810 -0.4949
  714MOL0    Cl98439   7.955   5.266   6.064 -0.4140  0.1661  0.1208
  714MOL0     C98440   7.877   5.693   7.246 -0.6971 -0.5351  0.3854
  714MOL0     C98441   7.842   5.689   7.381  0.7027  0.3877  0.5202
  714MOL0     O98442   7.574   5.897   7.593 -0.7175  0.3747  0.1459
  714MOL0     C98443   7.691   5.650   7.830  0.3045  0.6117  0.4622
  714MOL0     C98444   7.703   5.615   7.965  1.1976  1.0773  0.2059
  714MOL0     N98445   7.549   5.719   8.784  0.8992  0.3941  0.9361
  714MOL0     N98446   7.612   5.771   8.886  0.1346  0.2978  0.0217
  714MOL0     C98447   8.485   5.476   9.789  1.0675  0.4252 -0.7111
  714MOL0     C98448   8.556   5.467   9.901 -0.2521 -0.2567 -0.4500
  714MOL0     C98449   8.661   5.488  10.352 -0.8650 -0.0050 -0.2331
  714MOL0     C98450   8.764   5.427  10.419 -0.2361  0.2916  0.2370
  714MOL0     C98451   8.785   5.430  10.556 -0.0199 -0.5956  0.1167
  714MOL0     C98452   8.705   5.512  10.629  0.2666 -0.1177 -1.1704
  714MOL0     O98453   8.727   5.542  10.766  0.2584 -0.1869  0.3300
  714MOL0     C98454   8.835   5.497  10.846  0.2400 -0.4006 -0.0385
  714MOL0     C98455   8.981   5.529  10.823 -0.5323 -0.5407  0.3982
  714MOL0     C98456   9.034   5.595  10.952  0.8509  0.0936  0.8878
  714MOL0     C98457   9.177   5.635  10.948 -0.1394  0.2643 -0.2538
  714MOL0     C98458   9.209   5.714  10.829 -0.7829 -0.1718  0.0524
  714MOL0     C98459   9.231   5.796  10.737 -0.3692 -1.1098 -0.3277
  714MOL0     C98460   8.601   5.578  10.569 -0.5907  0.1996  0.4822
  714MOL0     C98461   8.571   5.568  10.431 -0.7684 -0.1437  0.6385
  714MOL0     C98462   8.457   5.643  10.394 -0.1931  0.0653 -0.3138
  714MOL0     H98463   8.495   5.782  10.012  1.6967  1.0958 -2.7739
  714MOL0     H98464   8.408   5.792   9.783  1.3504 -0.0381 -2.2556
  714MOL0     H98465   8.263   5.764   9.597 -1.6184  0.6133 -2.2159
  714MOL0     H98466   8.206   5.643   9.721  2.6238  0.0787  0.9546
  714MOL0     H98467   8.157   5.489   9.535  0.7814 -0.6192 -0.0110
  714MOL0     H98468   8.058   5.626   9.496  0.7935  1.1032 -2.2063
  714MOL0     H98469   8.337   5.658   9.392 -0.4050  3.9399 -1.3531
  714MOL0     H98470   8.232   5.547   9.297  0.3947 -0.6873 -0.7638
  714MOL0     H98471   8.193   5.840   9.375  3.0110  5.4005 -4.2011
  714MOL0     H98472   8.271   5.806   9.244 -0.7410  1.9393  0.9634
  714MOL0     H98473   7.998   5.834   9.256  2.8883  2.9888 -2.3398
  714MOL0     H98474   8.000   5.664   9.254 -1.2865  0.6468 -1.0374
  714MOL0     H98475   8.153   5.806   9.038 -1.3423  0.2161 -2.5574
  714MOL0     H98476   8.085   5.642   9.037 -1.9338 -0.4206  0.2074
  714MOL0     H98477   7.965   5.817   8.903  2.1500  0.8123  0.6406
  714MOL0     H98478   7.921   5.911   9.035  0.2864  0.0855 -0.0268
  714MOL0     H98479   7.846   5.622   9.073 -0.1850  1.5081  2.6545
  714MOL0     H98480   7.747   5.766   9.102 -0.6378 -0.5172  1.5859
  714MOL0     H98481   7.810   5.532   8.774 -1.8745 -2.5317  0.8557
  714MOL0     H98482   7.504   5.473   8.613 -1.8493  1.6649  0.5456
  714MOL0     H98483   7.686   5.460   8.588 -1.4779 -1.8955  1.2376
  714MOL0     H98484   7.544   5.554   8.393 -0.1891 -0.4330 -0.3579
  714MOL0     H98485   7.479   5.680   8.500 -0.3099 -0.3526 -0.2553
  714MOL0     H98486   7.681   5.789   8.513 -0.8285 -1.8706  0.1359
  714MOL0     H98487   7.764   5.653   8.432 -1.7709 -3.9108 -3.7054
  714MOL0     H98488   7.535   5.814   8.297 -0.2530 -1.4132 -1.0750
  714MOL0     H98489   7.701   5.854   8.258 -1.6237  0.6995 -0.3317
  714MOL0     H98490   7.586   5.910   8.088 -1.3845 -3.0284  3.4177
  714MOL0     H98491   7.567   6.081   7.942 -0.9132  2.1409 -0.8785
  714MOL0     H98492   7.470   6.005   7.825 -0.0079  2.3575 -0.3156
  714MOL0     H98493   7.637   6.061   7.781 -0.9353 -2.4509 -2.1630
  714MOL0     H98494   7.513   5.749   7.380 -0.3636 -0.5199 -0.5435
  714MOL0     H98495   7.575   5.775   7.119 -0.0559 -3.1791 -1.6047
  714MOL0     H98496   7.973   5.641   6.935  1.5383  0.9230  3.6000
  714MOL0     H98497   7.841   5.548   6.996 -2.4991  0.7762 -1.3074
  714MOL0     H98498   7.696   5.590   6.816  0.3638 -2.2665 -0.7947
  714MOL0     H98499   7.792   5.735   6.767 -3.5335  1.3739  3.2047
  714MOL0     H98500   7.922   5.467   6.752 -1.4388  1.3223  1.7363
  714MOL0     H98501   7.959   5.614   6.681 -0.0019 -0.0279 -1.2949
  714MOL0     H98502   7.738   5.610   6.553 -2.7308  0.2555  3.7012
  714MOL0     H98503   7.717   5.452   6.628 -0.9672  1.4083 -0.8576
  714MOL0     H98504   7.948   5.388   6.504  0.4271 -1.1279  0.4542
  714MOL0     H98505   7.801   5.373   6.436  0.1613 -0.7425  1.2851
  714MOL0     H98506   7.993   5.617   6.396 -2.2931  2.6362  0.2389
  714MOL0     H98507   7.824   5.622   6.339  1.5634  2.2671 -0.7864
  714MOL0     H98508   8.043   5.407   6.272 -0.8309 -0.2983  1.8740
  714MOL0     H98509   8.028   5.537   6.164 -0.7256  0.0050 -1.7540
  714MOL0     H98510   7.818   5.470   6.084 -1.6508 -1.7755 -1.6793
  714MOL0     H98511   7.787   5.359   6.213  1.7060 -2.2483  1.0970
  714MOL0     H98512   7.974   5.661   7.211  0.1211  3.1173 -1.2254
  714MOL0     H98513   7.922   5.667   7.452  1.8835  0.2850 -0.8035
  714MOL0     H98514   7.710   5.571   7.758  1.0884 -0.6293  1.9703
  714MOL0     H98515   7.726   5.510   7.980 -2.4539  0.0689 -0.2013
  714MOL0     H98516   8.473   5.389   9.726 -2.8617  0.9816 -0.9960
  714MOL0     H98517   8.600   5.372   9.928  1.2569  0.9112  1.4893
  714MOL0     H98518   8.830   5.361  10.365 -2.2434 -0.9862 -0.7313
  714MOL0     H98519   8.878   5.394  10.598  0.8331  0.4678 -0.8068
  714MOL0     H98520   8.799   5.514  10.947 -3.0287 -2.1702 -0.7709
  714MOL0     H98521   8.841   5.387  10.842  0.2054 -0.4853  1.7466
  714MOL0     H98522   8.985   5.605  10.745 -1.4483 -0.6826  0.2030
  714MOL0     H98523   9.036   5.441  10.788  1.5668  0.9257 -0.2044
  714MOL0     H98524   8.976   5.679  10.991 -0.7402 -1.3135  1.6616
  714MOL0     H98525   9.035   5.511  11.021  2.3715  1.2266  2.3293
  714MOL0     H98526   9.248   5.554  10.967  1.5244  0.6723 -3.8389
  714MOL0     H98527   9.198   5.700  11.034  1.3444  0.5148 -0.7807
  714MOL0     H98528   9.236   5.862  10.653  1.3556 -0.9521 -0.1429
  714MOL0     H98529   8.545   5.632  10.645 -1.8342 -1.1270  0.5652
  714MOL0     H98530   8.490   5.727  10.332  2.2373 -0.9915 -0.5275
  714MOL0     H98531   8.391   5.580  10.334  0.6630 -0.5830 -0.5869
  714MOL0     H98532   8.398   5.662  10.484 -1.6271 -0.5762 -1.0717
  715MOL0     O98533   2.506   2.168   4.314 -0.0310 -0.7493 -0.1000
  715MOL0     C98534   2.538   2.072   4.385 -1.2520  0.9702  0.6551
  715MOL0     O98535   2.560   2.069   4.526 -0.4764 -1.1786 -0.0083
  715MOL0     C98536   2.521   2.195   4.579  0.0682  0.6178  0.2608
  715MOL0     C98537   2.385   2.215   4.584 -0.9288 -0.4287  0.7995
  715MOL0     C98538   2.334   2.343   4.618 -0.7432 -0.0552 -0.5941
  715MOL0     C98539   2.419   2.444   4.657  0.3829 -0.6623  1.0980
  715MOL0     O98540   2.394   2.574   4.701  0.1317 -0.6500  0.1056
  715MOL0     C98541   2.267   2.638   4.677 -0.5974 -0.0667 -0.5947
  715MOL0     C98542   2.247   2.755   4.775 -0.1059 -0.3695 -0.2791
  715MOL0     C98543   2.110   2.814   4.768 -0.6127 -0.5362  0.1568
  715MOL0     C98544   2.120   2.962   4.802 -0.5077 -0.7599 -0.2744
  715MOL0     C98545   2.181   2.977   4.945 -0.0569 -0.4942 -1.3546
  715MOL0     C98546   2.188   3.125   4.971  0.8811 -0.3096 -0.2190
  715MOL0     C98547   2.233   3.143   5.113  0.0296  0.2125  0.3041
  715MOL0     C98548   2.251   3.294   5.143  0.2808 -0.2755  0.0391
  715MOL0     N98549   2.260   3.323   5.284 -0.8518  0.3996  0.2736
  715MOL0     C98550   2.348   3.421   5.341 -0.1945  0.1803  0.9381
  715MOL0     C98551   2.305   3.422   5.475 -0.9450 -0.5212 -1.1580
  715MOL0     C98552   2.378   3.493   5.575  0.9272 -0.5492 -0.1327
  715MOL0     C98553   2.303   3.617   5.635  0.3974 -0.3108 -0.4368
  715MOL0     C98554   2.412   3.708   5.698  0.1174 -0.1362  0.4093
  715MOL0     C98555   2.364   3.815   5.799 -0.6017 -0.2264 -0.2422
  715MOL0     O98556   2.353   3.742   5.925 -0.3877  0.6212 -0.2777
  715MOL0     C98557   2.473   3.726   6.009 -0.3488  0.4625 -1.1652
  715MOL0     C98558   2.467   3.632   6.111 -0.7419 -0.7926  0.1450
  715MOL0     C98559   2.576   3.600   6.188 -0.1557  0.2897  0.7984
  715MOL0     C98560   2.560   3.482   6.283 -0.1028  0.3019  0.1071
  715MOL0     C98561   2.703   3.667   6.166 -0.9198 -0.7321  0.6857
  715MOL0     C98562   2.825   3.652   6.252 -0.8259  0.3131 -0.0955
  715MOL0     O98563   2.940   3.715   6.214  0.1610 -0.3268  0.2254
  715MOL0     C98564   3.063   3.670   6.245 -0.0739 -0.3299  0.0010
  715MOL0     C98565   3.098   3.568   6.333  0.2269 -0.4165  0.1073
  715MOL0     C98566   3.228   3.559   6.377 -0.4262  0.0161 -0.2619
  715MOL0     C98567   3.332   3.642   6.331 -0.4111 -0.6391  0.0810
  715MOL0     O98568   3.463   3.626   6.377 -0.0647 -0.1161 -0.8212
  715MOL0     C98569   3.487   3.593   6.514 -0.2723  0.2649  0.0595
  715MOL0     C98570   3.636   3.588   6.523 -0.1644  0.0002 -0.1394
  715MOL0     C98571   3.699   3.454   6.479  0.8979  0.0855  0.7155
  715MOL0     C98572   3.812   3.424   6.572 -0.2469 -0.0735 -0.1424
  715MOL0     C98573   3.894   3.298   6.527  0.4669  0.1238  0.3895
  715MOL0     C98574   4.006   3.269   6.623  0.1670 -0.0509 -0.0576
  715MOL0     C98575   4.087   3.145   6.601  0.1301  0.0069 -0.5332
  715MOL0     C98576   4.221   3.182   6.541  0.7452 -0.7412 -0.9731
  715MOL0    Cl98577   4.279   3.021   6.486 -0.3331 -0.5280 -0.3920
  715MOL0     C98578   3.298   3.752   6.253  0.0675  0.7310  0.4280
  715MOL0     C98579   3.165   3.768   6.219 -0.2394  0.5125 -0.5663
  715MOL0     O98580   2.811   3.585   6.353 -0.4567  0.0368  0.2048
  715MOL0     C98581   2.709   3.770   6.074  0.1826 -0.7092 -0.0790
  715MOL0     C98582   2.596   3.794   5.992 -0.0374  0.0814  0.9902
  715MOL0     N98583   2.203   3.329   5.503  0.0743  0.4358 -0.7298
  715MOL0     N98584   2.176   3.271   5.384 -0.2489 -0.4603  0.2538
  715MOL0     C98585   2.559   2.418   4.649 -0.6930 -0.4426 -0.1346
  715MOL0     C98586   2.613   2.292   4.607 -0.4313 -0.0703 -0.3511
  715MOL0     C98587   2.547   1.944   4.314 -0.8034 -0.0808 -0.1919
  715MOL0     C98588   2.674   1.898   4.295  0.0187 -0.9784  0.6407
  715MOL0     C98589   2.698   1.782   4.205  0.2288 -0.2909 -0.5741
  715MOL0     C98590   2.593   1.715   4.151  0.1631 -0.5088 -0.7188
  715MOL0     O98591   2.598   1.609   4.063  0.3367  0.7868  0.3634
  715MOL0     C98592   2.731   1.561   4.039  1.0122  0.6481  0.4335
  715MOL0     C98593   2.805   1.648   3.927  0.4250  0.5700  0.1628
  715MOL0     C98594   2.811   1.561   3.799  0.3250  0.0924 -0.6514
  715MOL0     C98595   2.898   1.641   3.692  0.2896  1.0129  0.4401
  715MOL0     C98596   2.811   1.736   3.618 -0.4782  0.0861 -1.1369
  715MOL0     C98597   2.737   1.814   3.554 -0.2375 -0.2717  0.2812
  715MOL0     C98598   2.465   1.769   4.165 -0.3134 -0.2192 -0.2565
  715MOL0     C98599   2.440   1.877   4.255  0.4182 -0.4202  0.5560
  715MOL0     C98600   2.303   1.926   4.285  0.3763  0.4413  0.1433
  715MOL0     H98601   2.308   2.142   4.560  0.4954 -1.8582  0.4158
  715MOL0     H98602   2.227   2.353   4.628 -0.5837  0.5376  0.7317
  715MOL0     H98603   2.186   2.566   4.695 -0.9892 -0.0614 -2.2523
  715MOL0     H98604   2.268   2.694   4.584  1.2034  3.8250  1.5081
  715MOL0     H98605   2.262   2.708   4.873 -3.4128 -2.4300 -0.6060
  715MOL0     H98606   2.332   2.820   4.752  0.9335 -1.6043 -0.0830
  715MOL0     H98607   2.087   2.806   4.661  3.2776 -1.6779 -0.7511
  715MOL0     H98608   2.038   2.759   4.829  0.5130 -0.4266  1.6176
  715MOL0     H98609   2.186   3.008   4.728 -0.3059 -1.1389 -0.3345
  715MOL0     H98610   2.023   3.012   4.801 -0.5877 -0.7028 -4.0604
  715MOL0     H98611   2.284   2.941   4.953  0.4067  1.0007  5.0529
  715MOL0     H98612   2.123   2.926   5.023  2.5472 -0.3869  0.8009
  715MOL0     H98613   2.256   3.173   4.899 -1.9655  1.2866 -2.0175
  715MOL0     H98614   2.086   3.163   4.965  1.5439  1.4398 -1.6249
  715MOL0     H98615   2.328   3.091   5.129 -0.8179 -1.7511 -0.7060
  715MOL0     H98616   2.170   3.091   5.186 -0.2089  0.2365  0.1146
  715MOL0     H98617   2.345   3.330   5.100  0.1724 -0.0220  0.0101
  715MOL0     H98618   2.163   3.342   5.099  1.0133  2.2442  1.0987
  715MOL0     H98619   2.429   3.479   5.299 -0.6406  1.0578  1.2648
  715MOL0     H98620   2.472   3.527   5.532  1.4851 -1.7673  0.0890
  715MOL0     H98621   2.395   3.430   5.663 -1.9819  2.3874  2.8323
  715MOL0     H98622   2.245   3.672   5.560  1.5430 -0.7894 -1.7241
  715MOL0     H98623   2.237   3.574   5.711 -1.9728 -0.9009 -2.6808
  715MOL0     H98624   2.498   3.648   5.730  1.6355  1.9028  0.3529
  715MOL0     H98625   2.451   3.757   5.609 -0.2483 -0.2917  0.1612
  715MOL0     H98626   2.433   3.899   5.802 -0.5968 -0.1857  3.6599
  715MOL0     H98627   2.261   3.837   5.769 -0.7321  0.3225  0.5803
  715MOL0     H98628   2.369   3.588   6.122 -0.2936 -2.0849 -0.7272
  715MOL0     H98629   2.565   3.492   6.391 -1.8102 -3.7758  0.7379
  715MOL0     H98630   2.633   3.407   6.252 -0.3139  0.4350 -0.7638
  715MOL0     H98631   2.462   3.436   6.269 -0.6327  0.7037  2.1800
  715MOL0     H98632   3.022   3.503   6.375 -1.1612  1.2043  0.1923
  715MOL0     H98633   3.250   3.485   6.453 -0.6213 -0.2358 -0.4452
  715MOL0     H98634   3.439   3.666   6.580  0.1477 -2.1693  3.3164
  715MOL0     H98635   3.455   3.491   6.540  0.0462 -0.6416 -2.7679
  715MOL0     H98636   3.693   3.662   6.467  1.6397 -2.2437 -1.4080
  715MOL0     H98637   3.642   3.602   6.632 -2.5515  2.2308 -0.1941
  715MOL0     H98638   3.731   3.466   6.375 -1.4381 -0.0485 -0.0765
  715MOL0     H98639   3.624   3.375   6.488  0.0224  0.5754 -1.5532
  715MOL0     H98640   3.777   3.405   6.674  1.8827 -1.0806  0.4662
  715MOL0     H98641   3.879   3.510   6.578 -2.9183  2.0279  2.7069
  715MOL0     H98642   3.828   3.210   6.519  1.1615 -0.3561 -0.1667
  715MOL0     H98643   3.947   3.313   6.433  2.1192 -1.4766  1.0028
  715MOL0     H98644   3.962   3.279   6.723  4.2105 -2.2354  2.2060
  715MOL0     H98645   4.069   3.358   6.628 -3.3035  2.6164 -0.1921
  715MOL0     H98646   4.035   3.072   6.538  1.4188 -2.2009  0.8043
  715MOL0     H98647   4.104   3.094   6.696  4.2969  1.1982 -0.4298
  715MOL0     H98648   4.276   3.229   6.623 -3.2074  2.6064  0.1032
  715MOL0     H98649   4.208   3.253   6.459 -0.7812  0.7755  0.4913
  715MOL0     H98650   3.383   3.816   6.233  1.0023 -1.0037 -1.7598
  715MOL0     H98651   3.134   3.858   6.165 -1.0280  2.6653  3.1182
  715MOL0     H98652   2.794   3.834   6.054  2.7732 -3.5769  0.9677
  715MOL0     H98653   2.626   3.856   5.908  0.9826 -1.6964 -0.0327
  715MOL0     H98654   2.629   2.491   4.688 -2.3137  0.7838  0.5851
  715MOL0     H98655   2.718   2.264   4.605  0.1924  2.0350 -0.1096
  715MOL0     H98656   2.757   1.952   4.339 -2.6393  4.8967 -0.5630
  715MOL0     H98657   2.798   1.758   4.170  0.4113 -2.7166  1.3209
  715MOL0     H98658   2.780   1.551   4.137  1.9550 -2.6035 -0.2754
  715MOL0     H98659   2.728   1.457   4.006  3.2887  0.8416 -0.5529
  715MOL0     H98660   2.905   1.668   3.965  1.1220 -0.9092 -0.8136
  715MOL0     H98661   2.758   1.746   3.910 -1.5607 -0.3682 -0.0749
  715MOL0     H98662   2.850   1.466   3.835 -0.1512  0.4439  0.8659
  715MOL0     H98663   2.712   1.549   3.755 -0.3922  2.6045  0.0707
  715MOL0     H98664   2.940   1.563   3.627  1.0892  0.8913  1.0944
  715MOL0     H98665   2.990   1.688   3.728  1.3351  0.6082 -1.5308
  715MOL0     H98666   2.672   1.875   3.494 -3.1324 -2.7924  0.6555
  715MOL0     H98667   2.384   1.725   4.108 -1.9289  2.0931  0.1278
  715MOL0     H98668   2.300   2.035   4.291 -0.3859  0.3581  3.0644
  715MOL0     H98669   2.239   1.911   4.197  1.9120  2.1473 -1.3375
  715MOL0     H98670   2.266   1.891   4.382  0.8990  0.6521  0.4226
  716MOL0     O98671   3.177   4.822   6.732  0.1617  0.2812  0.6432
  716MOL0     C98672   3.066   4.798   6.779  0.7564 -0.0718 -0.2146
  716MOL0     O98673   2.985   4.886   6.854 -0.1661  0.9394  0.0430
  716MOL0     C98674   3.031   5.010   6.900  0.2319 -0.0176 -0.3764
  716MOL0     C98675   3.165   5.015   6.962 -0.3160  0.2035  0.2335
  716MOL0     C98676   3.222   5.138   7.002 -0.4231 -0.4350 -0.3414
  716MOL0     C98677   3.140   5.253   7.006  0.1770  0.1068 -0.3921
  716MOL0     O98678   3.218   5.361   7.051 -0.3572  0.3497  0.3203
  716MOL0     C98679   3.164   5.490   7.050 -1.0941 -0.4035 -0.2706
  716MOL0     C98680   3.260   5.558   7.154 -0.3766  0.1938 -0.0604
  716MOL0     C98681   3.400   5.603   7.100 -0.1199 -0.4556 -0.1629
  716MOL0     C98682   3.492   5.636   7.213 -0.6527 -0.1858 -0.8507
  716MOL0     C98683   3.645   5.660   7.151  0.2671  0.8950 -0.0286
  716MOL0     C98684   3.717   5.533   7.114 -0.1188  0.1996  0.6336
  716MOL0     C98685   3.857   5.559   7.057  1.5171  0.1944 -0.4770
  716MOL0     C98686   3.922   5.437   7.001  0.6057  0.5874  0.5126
  716MOL0     N98687   3.997   5.355   7.100  0.3241  0.5576 -0.8446
  716MOL0     C98688   3.973   5.221   7.114 -0.7142 -0.3731 -0.0810
  716MOL0     C98689   4.059   5.175   7.206 -1.1647 -0.9394 -0.1238
  716MOL0     C98690   4.083   5.030   7.250  0.9042  0.7374 -0.6568
  716MOL0     C98691   4.078   4.923   7.130 -0.3875 -0.7925 -2.1157
  716MOL0     C98692   3.995   4.797   7.161  0.6975  0.3265  0.8824
  716MOL0     C98693   4.040   4.679   7.072  0.2173 -0.0512 -0.2659
  716MOL0     O98694   4.029   4.708   6.939 -0.2978 -0.0278  0.1470
  716MOL0     C98695   4.065   4.609   6.851 -1.0828  0.3751 -0.6901
  716MOL0     C98696   4.122   4.480   6.879 -0.1787  0.1801 -0.3306
  716MOL0     C98697   4.150   4.378   6.782 -0.2676 -0.5770 -0.7664
  716MOL0     C98698   4.169   4.236   6.814 -0.2631  0.6299  0.1246
  716MOL0     C98699   4.136   4.415   6.644 -0.9832 -0.8398 -0.0657
  716MOL0     C98700   4.167   4.323   6.536 -0.0903 -0.5535 -0.5677
  716MOL0     O98701   4.291   4.280   6.533  0.5999 -0.5100  0.3034
  716MOL0     C98702   4.326   4.177   6.451  0.7370  0.5264 -0.3140
  716MOL0     C98703   4.354   4.204   6.312 -0.4602  0.4072  0.5179
  716MOL0     C98704   4.411   4.097   6.243  0.2994 -0.3368  1.2275
  716MOL0     C98705   4.427   3.972   6.297 -0.2177  0.0075  0.8789
  716MOL0     O98706   4.493   3.869   6.231  0.4385  0.4789  1.3729
  716MOL0     C98707   4.431   3.858   6.098  0.0225 -0.2555 -0.8726
  716MOL0     C98708   4.461   3.720   6.048 -0.4813  0.0525  0.3756
  716MOL0     C98709   4.612   3.708   6.011  0.3552 -0.8851  0.1102
  716MOL0     C98710   4.630   3.565   5.962 -0.5938  0.2389  0.1343
  716MOL0     C98711   4.768   3.555   5.898  0.2250 -0.6765  0.2059
  716MOL0     C98712   4.819   3.419   5.869  0.4728  0.5964 -0.0035
  716MOL0     C98713   4.939   3.428   5.775 -1.1595  0.0863  0.5802
  716MOL0     C98714   4.984   3.299   5.712 -0.2882  0.2944 -0.3015
  716MOL0    Cl98715   5.117   3.356   5.605  0.7692 -0.5121 -0.4560
  716MOL0     C98716   4.396   3.958   6.430 -0.4405  0.5305 -0.1021
  716MOL0     C98717   4.343   4.058   6.518 -0.6022 -0.2029 -0.3520
  716MOL0     O98718   4.081   4.307   6.449  0.1275  0.3972 -0.1528
  716MOL0     C98719   4.071   4.542   6.627  0.0702 -0.4738 -0.1951
  716MOL0     C98720   4.030   4.634   6.720  0.7127  0.5250 -0.7017
  716MOL0     N98721   4.152   5.276   7.238  0.4641  1.4267 -0.0288
  716MOL0     N98722   4.113   5.381   7.170  0.8895  0.4944  0.4063
  716MOL0     C98723   3.004   5.246   6.965 -0.0727 -0.4531  0.4493
  716MOL0     C98724   2.955   5.127   6.908  0.2073  0.0019  0.0183
  716MOL0     C98725   3.009   4.657   6.778  0.1971  0.0953 -0.3754
  716MOL0     C98726   2.866   4.641   6.824  0.9545  0.7850 -0.5081
  716MOL0     C98727   2.801   4.518   6.830 -0.3230  0.3656 -0.6503
  716MOL0     C98728   2.857   4.399   6.795  1.0976 -0.1101  0.3732
  716MOL0     O98729   2.785   4.284   6.808 -0.0902  0.2798 -0.4639
  716MOL0     C98730   2.842   4.149   6.804  0.9973  0.3281 -0.7756
  716MOL0     C98731   2.893   4.126   6.658 -0.0903 -0.1680 -0.1518
  716MOL0     C98732   2.888   3.981   6.628 -0.1880  0.1123  1.1354
  716MOL0     C98733   2.902   3.943   6.484 -0.1205 -0.5237 -0.8124
  716MOL0     C98734   2.800   3.999   6.394  0.5140 -0.2931  0.4915
  716MOL0     C98735   2.727   4.028   6.305 -0.0709 -0.1663 -0.1998
  716MOL0     C98736   2.995   4.411   6.762  0.2792 -0.3627 -0.3867
  716MOL0     C98737   3.070   4.533   6.755 -0.1134  0.6966 -0.1598
  716MOL0     C98738   3.210   4.525   6.714 -0.4658  0.3812 -0.3465
  716MOL0     H98739   3.230   4.928   6.960  2.1146  1.8626 -3.0605
  716MOL0     H98740   3.323   5.135   7.041 -0.8129 -1.9659  0.6242
  716MOL0     H98741   3.063   5.491   7.092  0.4512  2.4521  4.0941
  716MOL0     H98742   3.174   5.537   6.952 -1.8362  0.6925  0.1616
  716MOL0     H98743   3.200   5.642   7.189  0.2408  0.7428 -0.2993
  716MOL0     H98744   3.286   5.486   7.231  1.9742 -2.0859 -2.7279
  716MOL0     H98745   3.439   5.519   7.042 -0.8882 -0.7305 -0.2964
  716MOL0     H98746   3.397   5.696   7.042 -1.3789 -2.2455 -3.2121
  716MOL0     H98747   3.470   5.731   7.261  2.1171  0.4650 -0.6786
  716MOL0     H98748   3.488   5.558   7.289 -0.6863  0.9752  0.3592
  716MOL0     H98749   3.704   5.720   7.220 -0.9910 -1.2359  3.1435
  716MOL0     H98750   3.640   5.717   7.058 -0.1250 -1.0254 -1.2553
  716MOL0     H98751   3.717   5.462   7.198  2.4529  0.2272  0.7547
  716MOL0     H98752   3.667   5.472   7.039  1.9877  0.6461 -1.2597
  716MOL0     H98753   3.918   5.592   7.142 -1.2304 -2.3468  2.7969
  716MOL0     H98754   3.866   5.639   6.983  0.2923  0.2823 -0.5499
  716MOL0     H98755   3.850   5.370   6.952  0.8971  0.3854  0.3515
  716MOL0     H98756   3.978   5.465   6.911 -1.4204  0.0175 -0.9922
  716MOL0     H98757   3.898   5.155   7.071 -0.9202 -0.8234  0.9497
  716MOL0     H98758   4.006   5.014   7.326  0.1745  0.4896 -1.4344
  716MOL0     H98759   4.177   5.027   7.306  1.4639 -0.2292 -1.6051
  716MOL0     H98760   4.047   4.980   7.042  1.3600  0.2030 -2.1453
  716MOL0     H98761   4.183   4.894   7.116 -1.1551 -3.0765 -3.6235
  716MOL0     H98762   4.006   4.763   7.265  2.3554 -0.0018  0.6274
  716MOL0     H98763   3.888   4.819   7.154  0.7144  0.0332 -0.4389
  716MOL0     H98764   4.145   4.662   7.099  0.5047  0.0036 -1.3018
  716MOL0     H98765   3.985   4.587   7.096  0.1793 -0.7429 -2.7362
  716MOL0     H98766   4.151   4.434   6.973 -0.6426 -0.0738 -0.3093
  716MOL0     H98767   4.084   4.184   6.769 -0.7674 -1.5358  3.3146
  716MOL0     H98768   4.180   4.206   6.918  4.5060  1.1816  0.0211
  716MOL0     H98769   4.265   4.201   6.775  0.4479  1.5702  0.9892
  716MOL0     H98770   4.327   4.296   6.261 -0.2384  1.2795  1.9245
  716MOL0     H98771   4.436   4.113   6.139 -2.2133  1.9480  0.8625
  716MOL0     H98772   4.324   3.880   6.103 -0.6365 -2.4825 -2.8692
  716MOL0     H98773   4.486   3.922   6.028  0.8028  0.6657  0.5306
  716MOL0     H98774   4.455   3.649   6.131 -0.8684 -0.1311  0.1938
  716MOL0     H98775   4.402   3.698   5.959 -0.1310  0.8956 -0.0782
  716MOL0     H98776   4.664   3.724   6.106 -0.2549  2.9904 -0.0407
  716MOL0     H98777   4.637   3.787   5.940 -0.0251 -1.5935 -0.8408
  716MOL0     H98778   4.555   3.533   5.889 -0.6956 -2.5623  1.3592
  716MOL0     H98779   4.614   3.495   6.044 -1.2314 -2.0712 -1.8484
  716MOL0     H98780   4.772   3.623   5.812  2.5441  1.2726  1.7205
  716MOL0     H98781   4.853   3.596   5.952  2.3461  1.5271 -4.2599
  716MOL0     H98782   4.740   3.355   5.829 -0.9927  0.7250  2.4467
  716MOL0     H98783   4.849   3.378   5.966  1.6988  4.6215  1.5363
  716MOL0     H98784   5.019   3.477   5.832 -2.0264  0.6927  1.2985
  716MOL0     H98785   4.926   3.507   5.701  1.8366 -0.7607 -0.9981
  716MOL0     H98786   4.902   3.247   5.662 -0.2425 -0.2063  0.1440
  716MOL0     H98787   5.020   3.224   5.782 -2.9926  0.2065  1.1263
  716MOL0     H98788   4.430   3.864   6.471 -1.1387  0.0674 -0.5437
  716MOL0     H98789   4.342   4.033   6.623  1.2589  2.2292  0.3387
  716MOL0     H98790   4.058   4.567   6.522 -2.9557 -3.7736 -0.7977
  716MOL0     H98791   3.989   4.730   6.691  0.8938  2.6249  4.8235
  716MOL0     H98792   2.942   5.335   6.972 -3.0828 -2.3153 -0.6898
  716MOL0     H98793   2.850   5.120   6.881 -0.4617 -0.3094  2.4077
  716MOL0     H98794   2.813   4.724   6.869  2.3181  1.3990  0.0348
  716MOL0     H98795   2.700   4.519   6.870 -0.7369 -1.4279 -1.5658
  716MOL0     H98796   2.926   4.140   6.873  1.2083 -0.4686 -1.1309
  716MOL0     H98797   2.770   4.074   6.839  1.9564 -1.6520 -2.8253
  716MOL0     H98798   2.997   4.156   6.646 -0.0347 -0.1068  0.4365
  716MOL0     H98799   2.831   4.193   6.598  0.7257  1.9601  1.2841
  716MOL0     H98800   2.963   3.923   6.683  0.6012 -0.7224 -0.7132
  716MOL0     H98801   2.791   3.941   6.658  0.7777 -2.8477  0.7115
  716MOL0     H98802   2.878   3.837   6.472  2.7867 -1.8162  2.6694
  716MOL0     H98803   3.006   3.966   6.460 -0.2211  1.5387  0.4934
  716MOL0     H98804   2.657   4.053   6.228  0.5334 -1.2282 -1.1205
  716MOL0     H98805   3.045   4.324   6.720  1.6104 -0.2265  0.8565
  716MOL0     H98806   3.284   4.568   6.784  2.7038 -1.9138 -2.0366
  716MOL0     H98807   3.234   4.425   6.677 -1.9651  0.6507 -2.1642
  716MOL0     H98808   3.217   4.591   6.627 -2.1786 -0.8164 -1.4472
  717MOL0     O98809   3.055   3.204   8.954  0.4725 -0.2497  0.6147
  717MOL0     C98810   3.073   3.286   9.037  0.2124  0.5580 -0.0980
  717MOL0     O98811   3.020   3.408   9.046 -0.1652 -0.3726  0.0826
  717MOL0     C98812   2.973   3.468   8.932  0.7245  1.1674  0.1714
  717MOL0     C98813   3.000   3.441   8.799  0.7859 -0.0437  0.8493
  717MOL0     C98814   2.935   3.500   8.694  1.0139  0.7700 -0.0227
  717MOL0     C98815   2.823   3.581   8.707  0.1698 -0.6401 -0.1947
  717MOL0     O98816   2.754   3.643   8.595 -0.3911  0.6084 -0.2042
  717MOL0     C98817   2.625   3.695   8.617  0.8489  0.4144 -0.4540
  717MOL0     C98818   2.572   3.760   8.497  0.2866 -0.7056  0.2791
  717MOL0     C98819   2.649   3.882   8.465 -0.1014  0.1613 -0.0603
  717MOL0     C98820   2.601   3.933   8.327  1.0594  0.3415 -0.2665
  717MOL0     C98821   2.696   4.051   8.289 -0.1765 -1.1456 -0.1728
  717MOL0     C98822   2.671   4.092   8.145 -0.2821  0.4155 -0.7611
  717MOL0     C98823   2.789   4.112   8.052 -0.1971  0.5788 -0.4696
  717MOL0     C98824   2.864   4.245   8.088  0.0824  0.2823  0.2550
  717MOL0     N98825   2.986   4.272   8.003 -0.0202 -0.6875  0.3048
  717MOL0     C98826   3.119   4.235   8.020 -0.4273  1.1116 -0.2172
  717MOL0     C98827   3.179   4.286   7.909 -0.6089  0.1124  0.1990
  717MOL0     C98828   3.334   4.271   7.897 -0.8272  0.1569  1.2103
  717MOL0     C98829   3.420   4.395   7.855  1.0564 -0.8034  0.4560
  717MOL0     C98830   3.567   4.356   7.818  0.1299  0.0187  0.0208
  717MOL0     C98831   3.634   4.472   7.765  0.0091 -1.1116 -0.0441
  717MOL0     O98832   3.760   4.429   7.695 -0.5422 -0.1941  0.1877
  717MOL0     C98833   3.852   4.526   7.693  0.2693 -0.2565 -0.1805
  717MOL0     C98834   3.819   4.645   7.642 -0.6838 -0.0824  0.2322
  717MOL0     C98835   3.917   4.740   7.621 -0.5160 -0.2580  0.1734
  717MOL0     C98836   3.873   4.865   7.558  0.1633 -0.0535  0.2351
  717MOL0     C98837   4.048   4.713   7.664 -0.3541  0.6889 -0.4253
  717MOL0     C98838   4.163   4.805   7.660  0.0486  0.8198 -0.2984
  717MOL0     O98839   4.280   4.753   7.622  0.3875  0.3971 -0.2321
  717MOL0     C98840   4.400   4.817   7.642 -0.4882 -0.7862  0.4112
  717MOL0     C98841   4.420   4.913   7.732  0.5580  0.0309 -0.2787
  717MOL0     C98842   4.544   4.967   7.764 -0.5274  0.0597 -0.5983
  717MOL0     C98843   4.659   4.919   7.701  0.4505 -0.0048 -0.4341
  717MOL0     O98844   4.787   4.962   7.735  0.3757 -0.1786 -0.0703
  717MOL0     C98845   4.891   4.964   7.638  0.6700 -0.3929  0.0142
  717MOL0     C98846   5.019   5.035   7.688  0.1933 -0.8798  0.6813
  717MOL0     C98847   5.000   5.193   7.668 -0.7074  0.3019 -0.0202
  717MOL0     C98848   5.031   5.229   7.521 -0.1628  0.1768  0.0924
  717MOL0     C98849   5.043   5.380   7.506 -0.1590  0.8384 -0.3098
  717MOL0     C98850   5.033   5.421   7.358  0.6497  0.2554  0.7554
  717MOL0     C98851   5.073   5.573   7.340 -1.2827 -0.3579  0.7075
  717MOL0     C98852   5.018   5.636   7.207 -0.2143 -1.0586  0.3597
  717MOL0    Cl98853   5.137   5.613   7.065  0.7082  0.0896 -0.5995
  717MOL0     C98854   4.633   4.820   7.597  0.3868  0.0350  0.1916
  717MOL0     C98855   4.508   4.770   7.568  0.5586 -0.7372 -0.3263
  717MOL0     O98856   4.138   4.925   7.657  0.0022  0.1030 -1.2465
  717MOL0     C98857   4.076   4.587   7.726  0.5868  0.4083  1.3226
  717MOL0     C98858   3.981   4.489   7.730 -0.6356 -0.2409 -0.1158
  717MOL0     N98859   3.089   4.345   7.819 -0.5510 -0.5066 -0.0571
  717MOL0     N98860   2.977   4.339   7.885  0.6179  0.1970 -0.3615
  717MOL0     C98861   2.786   3.603   8.844 -0.9034  0.0853 -0.1387
  717MOL0     C98862   2.865   3.548   8.954  0.4052  0.5120  0.1179
  717MOL0     C98863   3.201   3.260   9.108 -0.6098  0.4972 -0.6199
  717MOL0     C98864   3.190   3.188   9.226  0.0791  0.8719  0.0186
  717MOL0     C98865   3.291   3.178   9.319 -0.0904  0.5667 -0.1610
  717MOL0     C98866   3.415   3.241   9.290  0.0662  0.1962  0.0383
  717MOL0     O98867   3.516   3.235   9.387  0.2449  0.3480  0.1843
  717MOL0     C98868   3.565   3.106   9.419  0.2983  0.0284  1.1064
  717MOL0     C98869   3.559   3.086   9.574 -0.1682  0.3648  0.2727
  717MOL0     C98870   3.506   3.199   9.671 -0.0151 -0.5798  0.0761
  717MOL0     C98871   3.495   3.152   9.813 -0.1735  0.4029  0.0068
  717MOL0     C98872   3.616   3.180   9.890 -0.5425 -0.0553  0.6761
  717MOL0     C98873   3.710   3.222   9.944  0.0903  0.6868  0.1946
  717MOL0     C98874   3.433   3.299   9.163  1.1719  0.6492  0.4673
  717MOL0     C98875   3.322   3.315   9.076  0.1679 -0.0315 -0.1225
  717MOL0     C98876   3.346   3.382   8.947  0.1995 -0.5154  0.6962
  717MOL0     H98877   3.086   3.385   8.764  2.3555  2.5222  0.3336
  717MOL0     H98878   2.954   3.472   8.591  3.1765  0.0835  0.5082
  717MOL0     H98879   2.632   3.771   8.696  0.6640 -1.8806  1.8844
  717MOL0     H98880   2.558   3.613   8.644  0.2086  1.2737  0.6454
  717MOL0     H98881   2.587   3.697   8.409 -2.3826  1.8136 -2.2216
  717MOL0     H98882   2.468   3.792   8.511 -0.2509 -1.1575 -2.1851
  717MOL0     H98883   2.642   3.953   8.548  2.1439  1.7376 -1.1177
  717MOL0     H98884   2.753   3.856   8.443  0.3722  4.0731 -3.7976
  717MOL0     H98885   2.601   3.848   8.258  1.4411  0.7900 -0.8318
  717MOL0     H98886   2.497   3.955   8.354  1.3802 -2.6305  4.5705
  717MOL0     H98887   2.799   4.025   8.315 -0.0317 -4.3330 -3.1772
  717MOL0     H98888   2.673   4.137   8.352 -0.5329 -0.9202 -0.6016
  717MOL0     H98889   2.617   4.009   8.097 -0.1935  0.4360 -0.8962
  717MOL0     H98890   2.594   4.169   8.138 -2.9273 -2.1112 -1.7829
  717MOL0     H98891   2.742   4.105   7.954  1.5162 -1.7609 -1.1787
  717MOL0     H98892   2.858   4.028   8.053 -1.1325 -0.2505 -1.8915
  717MOL0     H98893   2.787   4.321   8.070 -1.0241 -0.1638  2.7165
  717MOL0     H98894   2.890   4.254   8.193 -2.3677 -4.3900  1.5204
  717MOL0     H98895   3.160   4.195   8.113 -0.2352  2.6756  0.3933
  717MOL0     H98896   3.351   4.183   7.833 -2.3975 -0.7013  1.9072
  717MOL0     H98897   3.360   4.231   7.995 -2.5592  1.3155  2.1829
  717MOL0     H98898   3.372   4.439   7.767  1.1982  2.2105  1.7658
  717MOL0     H98899   3.423   4.483   7.919 -0.8953 -0.5413  0.2611
  717MOL0     H98900   3.617   4.324   7.910  2.2928  0.3315 -0.9825
  717MOL0     H98901   3.562   4.272   7.748  1.9663 -0.9967  1.0276
  717MOL0     H98902   3.563   4.522   7.699 -0.6271  0.7861  1.9910
  717MOL0     H98903   3.640   4.542   7.849 -3.4524 -1.1117  0.3402
  717MOL0     H98904   3.716   4.663   7.612 -0.8471  1.3782  1.5537
  717MOL0     H98905   3.851   4.931   7.642  2.2961  0.8392  0.1433
  717MOL0     H98906   3.793   4.853   7.484  2.3110 -3.1557 -1.8279
  717MOL0     H98907   3.956   4.927   7.526  1.5563 -1.6757  0.5739
  717MOL0     H98908   4.334   4.947   7.788  3.0444  0.8571  3.3451
  717MOL0     H98909   4.565   5.057   7.820  1.9004  0.2343 -1.6870
  717MOL0     H98910   4.901   4.857   7.615 -0.5987 -0.3710 -0.7936
  717MOL0     H98911   4.848   5.013   7.550 -3.0948 -2.8062  0.2766
  717MOL0     H98912   5.038   5.011   7.793  0.7834 -0.6740  0.6233
  717MOL0     H98913   5.102   5.009   7.623 -0.9012  1.0239 -1.6522
  717MOL0     H98914   5.062   5.235   7.748  0.2176 -2.9582  1.1326
  717MOL0     H98915   4.898   5.230   7.685 -1.5596 -1.9370  0.1143
  717MOL0     H98916   4.943   5.197   7.464  1.3781 -1.6833 -1.3889
  717MOL0     H98917   5.115   5.179   7.473 -0.3515  2.0351 -2.3527
  717MOL0     H98918   4.970   5.440   7.562 -0.2015  0.0402  0.5063
  717MOL0     H98919   5.140   5.413   7.546 -0.1415  0.6072 -0.1660
  717MOL0     H98920   4.927   5.409   7.333  0.9801  2.3085 -2.0654
  717MOL0     H98921   5.105   5.362   7.301  1.8172  0.2348  2.1988
  717MOL0     H98922   5.177   5.599   7.364 -0.5749 -0.6893 -1.7499
  717MOL0     H98923   5.004   5.614   7.414 -0.8544  0.0165  0.9083
  717MOL0     H98924   4.989   5.738   7.235 -2.4330 -1.9363  1.5413
  717MOL0     H98925   4.917   5.596   7.196 -0.9944  1.0532 -0.8652
  717MOL0     H98926   4.721   4.788   7.542  0.2154  1.3558 -0.9050
  717MOL0     H98927   4.481   4.702   7.488  1.1043 -0.9284 -0.3554
  717MOL0     H98928   4.178   4.570   7.759  1.6233  1.3621 -1.1489
  717MOL0     H98929   3.991   4.391   7.775  0.6130 -0.3058 -0.4825
  717MOL0     H98930   2.714   3.676   8.880  0.3040  1.6293 -0.7545
  717MOL0     H98931   2.850   3.568   9.060  1.1570 -2.3670  0.8626
  717MOL0     H98932   3.089   3.155   9.249 -0.6844  2.3605 -0.9901
  717MOL0     H98933   3.265   3.127   9.411  0.2174 -0.6657 -0.7260
  717MOL0     H98934   3.502   3.029   9.374  0.3379 -0.5501  2.0173
  717MOL0     H98935   3.662   3.081   9.374  1.6709  0.4369  3.6682
  717MOL0     H98936   3.657   3.062   9.616 -0.1380 -1.6441 -0.7947
  717MOL0     H98937   3.493   3.002   9.595 -1.3624  1.3297  0.4710
  717MOL0     H98938   3.562   3.291   9.649  0.7012 -1.0855 -0.2890
  717MOL0     H98939   3.401   3.209   9.642  0.5128 -0.3904 -1.9559
  717MOL0     H98940   3.472   3.046   9.802 -0.5855  0.5612 -0.7560
  717MOL0     H98941   3.407   3.198   9.859 -0.9322 -1.3886  0.4424
  717MOL0     H98942   3.792   3.277   9.986  0.3029  2.5653 -2.4394
  717MOL0     H98943   3.536   3.321   9.135  0.4307 -1.6248 -5.6129
  717MOL0     H98944   3.369   3.318   8.862  1.2107  1.0194 -0.2404
  717MOL0     H98945   3.259   3.443   8.921  0.8644  0.1317 -0.1006
  717MOL0     H98946   3.426   3.457   8.948 -1.3436  1.2461 -0.8010
  718MOL0     O98947   8.815   8.746   8.398  0.5361 -0.4186 -0.6020
  718MOL0     C98948   8.817   8.837   8.477  0.9644  0.9947 -0.8425
  718MOL0     O98949   8.923   8.922   8.497  1.5299  0.6010  0.3431
  718MOL0     C98950   9.016   8.938   8.401  0.8262 -0.0086 -1.1436
  718MOL0     C98951   9.049   9.064   8.349  0.0157  0.4190 -0.2797
  718MOL0     C98952   9.160   9.089   8.273 -1.0952  0.6813  0.6482
  718MOL0     C98953   9.249   8.979   8.229  0.7264 -0.1706  0.4889
  718MOL0     O98954   9.372   8.989   8.170  0.7108 -0.4654 -0.7665
  718MOL0     C98955   9.450   9.111   8.194  0.0628 -0.3757 -0.0305
  718MOL0     C98956   9.517   9.148   8.061  0.6147 -0.0261  0.8271
  718MOL0     C98957   9.588   9.033   8.001 -0.7992  0.1511 -0.0541
  718MOL0     C98958   9.616   9.071   7.851 -0.4406 -0.0253  1.3657
  718MOL0     C98959   9.709   8.987   7.767  0.7934 -0.3343 -0.2419
  718MOL0     C98960   9.666   8.943   7.614  0.8253  0.0605 -0.4690
  718MOL0     C98961   9.796   8.892   7.545 -0.1439 -0.2489  0.1930
  718MOL0     C98962   9.774   8.857   7.389 -0.8355  0.3705 -0.6040
  718MOL0     N98963   9.682   8.932   7.307  0.3362 -0.4560  0.5543
  718MOL0     C98964   9.560   8.890   7.267  0.3676  0.3889  0.5286
  718MOL0     C98965   9.525   8.986   7.179 -0.0428  0.1320  0.0592
  718MOL0     C98966   9.401   9.001   7.098  0.9798  0.5276 -0.0933
  718MOL0     C98967   9.311   9.114   7.152  0.6457  0.7732 -0.4878
  718MOL0     C98968   9.263   9.083   7.297  0.7521 -0.2702 -0.2507
  718MOL0     C98969   9.146   9.172   7.350 -0.5713 -0.2272  0.2506
  718MOL0     O98970   9.051   9.208   7.250  0.4968  0.9156  0.2746
  718MOL0     C98971   8.949   9.296   7.272 -0.3808 -0.2091  0.2458
  718MOL0     C98972   8.925   9.368   7.393 -0.6210  0.2432  1.0377
  718MOL0     C98973   8.836   9.475   7.405  0.3649  0.3753  0.2268
  718MOL0     C98974   8.827   9.544   7.542 -0.6870  0.0808 -0.4902
  718MOL0     C98975   8.747   9.498   7.296 -0.1284  0.5609  0.8876
  718MOL0     C98976   8.649   9.607   7.295 -0.6261  0.5694 -0.0994
  718MOL0     O98977   8.591   9.639   7.174 -0.0196  0.1995 -0.2695
  718MOL0     C98978   8.506   9.744   7.175 -0.5303  0.4054  0.6139
  718MOL0     C98979   8.375   9.707   7.183 -0.6678  0.2948 -0.4019
  718MOL0     C98980   8.276   9.793   7.158  0.5028 -0.0265 -0.4925
  718MOL0     C98981   8.308   9.929   7.134  0.7410  0.1048 -0.0450
  718MOL0     O98982   8.195   9.998   7.095  0.8037  0.6638  0.6060
  718MOL0     C98983   8.211  10.131   7.053 -0.9295 -0.0316  0.0799
  718MOL0     C98984   8.082  10.188   7.045 -0.4474 -0.4456  0.1112
  718MOL0     C98985   8.064  10.339   7.053  0.0353  0.2930  0.8345
  718MOL0     C98986   7.926  10.391   6.990  0.2753  0.6100 -0.3879
  718MOL0     C98987   7.810  10.336   7.072 -0.1542  0.1774 -0.0337
  718MOL0     C98988   7.674  10.400   7.025  0.5721 -0.6099  0.2303
  718MOL0     C98989   7.556  10.367   7.107 -0.2939  0.1001  0.7677
  718MOL0     C98990   7.552  10.215   7.134  0.9601  0.3962 -0.4518
  718MOL0    Cl98991   7.558  10.118   6.976  0.8117 -0.3459 -0.7195
  718MOL0     C98992   8.435   9.973   7.137 -0.2158 -0.2059 -0.0769
  718MOL0     C98993   8.536   9.876   7.149  0.1932  0.7629 -0.4214
  718MOL0     O98994   8.627   9.668   7.398 -0.4789 -0.0830  0.4137
  718MOL0     C98995   8.758   9.421   7.177 -0.7588  0.0107 -0.2932
  718MOL0     C98996   8.859   9.327   7.169 -0.4276 -0.2465  0.2318
  718MOL0     N98997   9.614   9.093   7.184 -0.5727 -0.2619  0.5731
  718MOL0     N98998   9.705   9.059   7.262 -0.7670 -0.0025 -0.5115
  718MOL0     C98999   9.211   8.851   8.269  0.7701 -0.1955 -0.8305
  718MOL0     C99000   9.097   8.835   8.349 -0.1190 -0.2683  0.7255
  718MOL0     C99001   8.706   8.861   8.582  1.1156 -0.2032 -0.1103
  718MOL0     C99002   8.651   8.752   8.645  0.2075 -0.1550 -0.5017
  718MOL0     C99003   8.563   8.770   8.750  0.7257  0.5633  0.3388
  718MOL0     C99004   8.538   8.892   8.809  0.6501 -0.2037 -0.4422
  718MOL0     O99005   8.468   8.908   8.929 -0.4184 -0.2292  0.3080
  718MOL0     C99006   8.506   8.810   9.027 -0.4120  0.3063 -0.3885
  718MOL0     C99007   8.628   8.850   9.111  0.5278  0.1839  0.7308
  718MOL0     C99008   8.629   8.767   9.238  0.3375  0.4669  0.3103
  718MOL0     C99009   8.749   8.808   9.331  0.2487 -0.7122  0.2978
  718MOL0     C99010   8.776   8.701   9.425 -0.3169  0.3337  0.1640
  718MOL0     C99011   8.770   8.594   9.491  0.0906  0.6497  0.1770
  718MOL0     C99012   8.591   9.003   8.755  0.4625  0.7412  0.3169
  718MOL0     C99013   8.674   8.991   8.634 -1.0340  0.5227 -0.8085
  718MOL0     C99014   8.707   9.120   8.565  0.4897  0.0667  0.5694
  718MOL0     H99015   8.979   9.141   8.379 -1.5694 -1.0297 -0.0242
  718MOL0     H99016   9.173   9.191   8.239 -0.1314 -0.0879 -1.4880
  718MOL0     H99017   9.519   9.103   8.279  1.5581 -1.4730 -1.2759
  718MOL0     H99018   9.376   9.187   8.222  0.6393 -0.1991  1.0640
  718MOL0     H99019   9.444   9.182   7.987 -0.7922 -0.0105  2.1837
  718MOL0     H99020   9.592   9.227   8.073  0.5363  0.1863 -0.0327
  718MOL0     H99021   9.680   9.020   8.059 -0.5823  3.5358  0.5581
  718MOL0     H99022   9.534   8.938   8.001 -0.2985 -0.1796  2.1063
  718MOL0     H99023   9.518   9.079   7.804  0.4635  1.1139 -0.4015
  718MOL0     H99024   9.660   9.170   7.840  1.9288 -1.1699 -0.4761
  718MOL0     H99025   9.736   8.893   7.814 -0.6527  0.4762  2.3998
  718MOL0     H99026   9.802   9.044   7.762  2.6672 -3.0573  1.1203
  718MOL0     H99027   9.582   8.873   7.607  1.7170 -1.7262  3.7556
  718MOL0     H99028   9.624   9.029   7.561 -2.2315 -1.2641 -0.4018
  718MOL0     H99029   9.833   8.811   7.609 -1.4542 -0.5361  0.6054
  718MOL0     H99030   9.880   8.961   7.532  0.4154 -1.0577 -0.6258
  718MOL0     H99031   9.879   8.869   7.363  0.1376  1.1970  3.0794
  718MOL0     H99032   9.737   8.756   7.371  1.9331 -0.6458 -0.9826
  718MOL0     H99033   9.497   8.803   7.282 -0.7242  1.2315  0.9647
  718MOL0     H99034   9.346   8.906   7.102  4.6298 -1.7851  1.1051
  718MOL0     H99035   9.415   9.009   6.990 -0.5928 -1.4384 -0.5136
  718MOL0     H99036   9.366   9.208   7.139  0.2522  1.2286  1.0202
  718MOL0     H99037   9.217   9.116   7.097 -2.7572 -4.1618  4.1026
  718MOL0     H99038   9.230   8.979   7.303  0.3781 -0.1281  0.2146
  718MOL0     H99039   9.350   9.089   7.364 -0.3249 -0.1904  1.1856
  718MOL0     H99040   9.114   9.116   7.439  0.7298 -2.7181 -0.7537
  718MOL0     H99041   9.199   9.261   7.386  0.8793 -0.8249 -0.3186
  718MOL0     H99042   8.987   9.339   7.477  0.9396  0.4978  0.0287
  718MOL0     H99043   8.730   9.554   7.592 -1.2763 -1.2836 -1.3240
  718MOL0     H99044   8.868   9.644   7.524  4.1073 -1.9315 -2.5086
  718MOL0     H99045   8.897   9.494   7.611 -0.6045 -0.7930 -1.1984
  718MOL0     H99046   8.365   9.600   7.195  1.3747  0.0476 -0.5211
  718MOL0     H99047   8.171   9.769   7.151  0.1648 -0.2114  3.1773
  718MOL0     H99048   8.269  10.187   7.127 -1.4304  0.5133  0.0606
  718MOL0     H99049   8.276  10.134   6.965  2.0705 -1.2795  2.0717
  718MOL0     H99050   8.034  10.147   6.955  2.2445 -0.9193 -1.2258
  718MOL0     H99051   8.027  10.157   7.134 -0.3799  1.8966  1.0426
  718MOL0     H99052   8.151  10.384   7.004 -0.2198 -1.5447 -1.4519
  718MOL0     H99053   8.070  10.359   7.161  0.8735  0.9588  0.6768
  718MOL0     H99054   7.915  10.358   6.886  5.1501  0.3875 -1.0487
  718MOL0     H99055   7.917  10.500   6.997 -1.2373  0.4284  0.9743
  718MOL0     H99056   7.800  10.227   7.070  1.3168 -0.0006  0.5400
  718MOL0     H99057   7.819  10.365   7.177 -0.8782 -1.4490  0.5060
  718MOL0     H99058   7.654  10.391   6.918 -0.3768  0.0957  0.3310
  718MOL0     H99059   7.682  10.509   7.033 -1.8973 -0.3174 -0.5939
  718MOL0     H99060   7.472  10.400   7.045 -0.5702 -2.7886 -0.5342
  718MOL0     H99061   7.554  10.426   7.199  0.1248  0.7020  0.4020
  718MOL0     H99062   7.453  10.195   7.176  1.3893 -0.4943  0.1716
  718MOL0     H99063   7.627  10.181   7.206 -0.1441 -1.2014  0.0179
  718MOL0     H99064   8.462  10.076   7.113  1.0099 -0.5415 -0.2272
  718MOL0     H99065   8.640   9.904   7.139  0.7862 -1.4153 -0.8178
  718MOL0     H99066   8.687   9.440   7.097 -1.0282  0.8988  0.1540
  718MOL0     H99067   8.866   9.265   7.080  1.7441 -2.1804  1.6204
  718MOL0     H99068   9.275   8.767   8.244  1.5959  0.9366 -2.8224
  718MOL0     H99069   9.074   8.730   8.362 -1.0175 -0.0840  0.6631
  718MOL0     H99070   8.682   8.655   8.609  2.7945  0.5640 -0.4347
  718MOL0     H99071   8.513   8.679   8.784  1.8073 -0.6212 -1.0856
  718MOL0     H99072   8.426   8.795   9.100  1.9395  0.1768  2.3624
  718MOL0     H99073   8.530   8.706   9.003 -1.3179 -0.8477  3.0899
  718MOL0     H99074   8.611   8.953   9.143 -1.4263 -0.4285  1.8412
  718MOL0     H99075   8.715   8.839   9.046 -0.7532 -1.1397 -0.8645
  718MOL0     H99076   8.532   8.773   9.288 -0.0438  1.2991 -0.4926
  718MOL0     H99077   8.657   8.665   9.211  1.4598  1.2947 -1.8711
  718MOL0     H99078   8.727   8.907   9.371 -2.0851  0.4836 -3.3703
  718MOL0     H99079   8.835   8.809   9.264 -1.5703 -1.7682 -2.2317
  718MOL0     H99080   8.756   8.506   9.551 -1.2227  0.3343 -0.5428
  718MOL0     H99081   8.568   9.100   8.797  2.5751  1.0832  0.8101
  718MOL0     H99082   8.767   9.118   8.473 -0.0954  1.0528  0.1513
  718MOL0     H99083   8.628   9.181   8.521  0.9331 -0.5764 -1.2183
  718MOL0     H99084   8.759   9.182   8.639 -1.6324  1.3750  1.0329
  719MOL0     O99085  10.116   4.295   4.031 -0.2530 -0.0689  0.2442
  719MOL0     C99086  10.142   4.317   4.153  0.3830  0.3797  0.1687
  719MOL0     O99087  10.263   4.374   4.208  0.4720  0.8169  0.4332
  719MOL0     C99088  10.324   4.469   4.133 -0.5370  0.8196 -0.0445
  719MOL0     C99089  10.248   4.582   4.084 -0.9915 -0.0997 -0.3045
  719MOL0     C99090  10.299   4.697   4.027  0.4437 -0.3043 -0.1520
  719MOL0     C99091  10.437   4.700   4.023  0.8062 -0.4925  0.6516
  719MOL0     O99092  10.509   4.802   3.968  0.1464 -0.5713  0.3541
  719MOL0     C99093  10.437   4.907   3.907 -0.1440 -0.7965  0.2285
  719MOL0     C99094  10.542   4.999   3.838 -0.1162  0.2238  0.7398
  719MOL0     C99095  10.495   5.128   3.765 -0.3107  0.8798 -0.6065
  719MOL0     C99096  10.615   5.187   3.696  0.6056 -0.1671  0.7872
  719MOL0     C99097  10.571   5.264   3.563 -0.8669 -0.5953 -1.0286
  719MOL0     C99098  10.474   5.382   3.596 -0.1057  0.7887  0.0183
  719MOL0     C99099  10.438   5.460   3.468  0.2618  0.8280 -0.0988
  719MOL0     C99100  10.390   5.358   3.356 -0.5744  0.3308  0.0984
  719MOL0     N99101  10.357   5.435   3.238  0.0312  0.0174 -0.2878
  719MOL0     C99102  10.460   5.482   3.155  1.1957  0.7231  0.1682
  719MOL0     C99103  10.385   5.521   3.053  0.4215 -1.0841 -0.2855
  719MOL0     C99104  10.442   5.591   2.932  0.3028  0.7249 -0.2642
  719MOL0     C99105  10.356   5.704   2.888 -0.0101 -0.4167 -0.1334
  719MOL0     C99106  10.398   5.787   2.766  0.0355  0.1425  0.0533
  719MOL0     C99107  10.318   5.914   2.739 -0.2922 -0.1604  0.4123
  719MOL0     O99108  10.376   5.991   2.632  0.1514  0.5502  0.8165
  719MOL0     C99109  10.364   6.130   2.645 -0.1663 -0.4457  1.2658
  719MOL0     C99110  10.449   6.197   2.743 -0.1848  0.6519  0.4721
  719MOL0     C99111  10.431   6.331   2.767 -0.4767  0.1650 -0.8586
  719MOL0     C99112  10.508   6.386   2.875 -0.3478 -1.0260 -0.0519
  719MOL0     C99113  10.346   6.412   2.692  0.2359 -0.2047 -0.3001
  719MOL0     C99114  10.335   6.565   2.705  0.0346 -0.8316 -0.3460
  719MOL0     O99115  10.366   6.633   2.822  0.1181  1.2671  0.5331
  719MOL0     C99116  10.344   6.761   2.828 -0.8274 -0.0064  0.1072
  719MOL0     C99117  10.453   6.845   2.791  0.9180  0.8445  0.0181
  719MOL0     C99118  10.435   6.991   2.799 -1.0194  0.4197 -0.8671
  719MOL0     C99119  10.316   7.045   2.859  0.1001  1.1634 -0.2429
  719MOL0     O99120  10.292   7.176   2.880  0.3137 -0.5096  0.1664
  719MOL0     C99121  10.303   7.256   2.763  0.8365 -0.0598  0.4641
  719MOL0     C99122  10.243   7.392   2.788 -0.1864  0.7962  0.1941
  719MOL0     C99123  10.299   7.472   2.902 -0.1905 -0.3614 -0.5201
  719MOL0     C99124  10.229   7.601   2.911  0.3404  0.0322 -0.2885
  719MOL0     C99125  10.284   7.706   3.015  0.1524  1.1051 -0.0204
  719MOL0     C99126  10.200   7.832   3.032  0.1190  0.4243  0.4272
  719MOL0     C99127  10.262   7.932   3.132 -0.2192 -0.0106 -0.2434
  719MOL0     C99128  10.251   8.072   3.079  0.0922 -0.4889  0.2412
  719MOL0    Cl99129  10.078   8.127   3.104  0.2610  0.0789 -0.1695
  719MOL0     C99130  10.214   6.954   2.896  0.0798  0.3798  0.1044
  719MOL0     C99131  10.230   6.815   2.878 -0.7293 -0.9780 -0.6615
  719MOL0     O99132  10.299   6.626   2.607 -0.0238 -0.1609 -0.3398
  719MOL0     C99133  10.275   6.355   2.586 -0.4769 -0.1118 -0.0793
  719MOL0     C99134  10.284   6.215   2.564  0.6466 -0.3564  0.1599
  719MOL0     N99135  10.250   5.511   3.077 -0.3241  0.8385 -0.7181
  719MOL0     N99136  10.238   5.461   3.194 -0.2677 -0.5679 -0.6942
  719MOL0     C99137  10.511   4.597   4.072  0.1644  0.0538  0.1609
  719MOL0     C99138  10.458   4.477   4.119  0.2541 -0.2968 -0.1875
  719MOL0     C99139  10.056   4.256   4.254  0.3286  0.0754  0.3104
  719MOL0     C99140  10.086   4.279   4.390 -0.2565  0.0135  0.6014
  719MOL0     C99141  10.000   4.220   4.487 -1.4999  0.0241 -0.0089
  719MOL0     C99142   9.893   4.156   4.459 -0.0381  0.9658 -0.4137
  719MOL0     O99143   9.818   4.100   4.552  0.2981  0.1899  0.0237
  719MOL0     C99144   9.848   3.960   4.563  0.5250  0.4956  0.0715
  719MOL0     C99145   9.826   3.918   4.713  0.2900  0.2340  0.0201
  719MOL0     C99146   9.691   3.956   4.771  0.5675 -0.1631  0.8870
  719MOL0     C99147   9.570   3.909   4.688  0.7659 -0.4820  0.7050
  719MOL0     C99148   9.543   3.762   4.661  0.5129  0.7500  0.0340
  719MOL0     C99149   9.537   3.638   4.674  0.4326 -0.1052  0.8498
  719MOL0     C99150   9.853   4.151   4.329 -0.4253  0.8345  0.5762
  719MOL0     C99151   9.939   4.181   4.219  0.0755 -0.5107  0.5266
  719MOL0     C99152   9.897   4.108   4.092  0.2151  0.4293  0.5504
  719MOL0     H99153  10.143   4.579   4.111 -0.7046 -0.8909  0.8066
  719MOL0     H99154  10.215   4.759   3.999  0.4100 -1.2175 -2.2686
  719MOL0     H99155  10.370   4.960   3.975 -1.7244  0.1968 -1.9966
  719MOL0     H99156  10.369   4.871   3.830  1.0486 -2.6898 -0.0016
  719MOL0     H99157  10.611   5.029   3.917  1.0278  0.0138 -0.1472
  719MOL0     H99158  10.613   4.934   3.787  3.1329  1.1168  3.7109
  719MOL0     H99159  10.405   5.118   3.703 -2.3295  0.5689  2.1778
  719MOL0     H99160  10.474   5.209   3.835 -2.1992  0.5782 -0.7758
  719MOL0     H99161  10.666   5.263   3.755 -4.2682  2.3579  2.3571
  719MOL0     H99162  10.684   5.107   3.671 -0.2356 -0.1934 -1.7682
  719MOL0     H99163  10.540   5.179   3.502 -1.2464 -1.4137  0.2642
  719MOL0     H99164  10.666   5.300   3.521 -1.7788 -0.2420 -2.8803
  719MOL0     H99165  10.382   5.344   3.643  0.0875 -1.2369 -1.1244
  719MOL0     H99166  10.521   5.454   3.664 -1.7586  1.8623  0.0738
  719MOL0     H99167  10.531   5.507   3.437  0.4318  0.8223  0.3987
  719MOL0     H99168  10.363   5.537   3.489  0.1001  0.7247 -0.2816
  719MOL0     H99169  10.468   5.284   3.339 -0.5649  0.5295 -0.8077
  719MOL0     H99170  10.293   5.310   3.372 -0.9589  1.6686  2.0709
  719MOL0     H99171  10.569   5.480   3.154  1.2089  0.0020  1.5245
  719MOL0     H99172  10.440   5.515   2.853 -4.3532 -0.5644  0.7885
  719MOL0     H99173  10.537   5.636   2.962  0.0414  0.8125  0.4394
  719MOL0     H99174  10.248   5.686   2.895 -0.4304  1.1009 -1.7753
  719MOL0     H99175  10.359   5.789   2.958  0.4961  0.2022 -0.8936
  719MOL0     H99176  10.504   5.809   2.779  0.0034 -1.1285  3.4879
  719MOL0     H99177  10.379   5.720   2.681  3.4053  0.5695 -1.1821
  719MOL0     H99178  10.215   5.887   2.719 -0.3710 -1.1128  1.9626
  719MOL0     H99179  10.328   5.983   2.823  1.6514  0.1261  0.0049
  719MOL0     H99180  10.522   6.146   2.805 -0.0789 -1.1598 -1.0270
  719MOL0     H99181  10.556   6.480   2.845 -0.1048 -0.5494  1.6790
  719MOL0     H99182  10.590   6.319   2.899  0.0890 -0.6071 -0.3476
  719MOL0     H99183  10.445   6.414   2.960  0.9666 -0.6307  0.8240
  719MOL0     H99184  10.551   6.818   2.751  0.4456 -0.6568 -0.2100
  719MOL0     H99185  10.523   7.052   2.785 -1.4913  1.2934 -0.1566
  719MOL0     H99186  10.401   7.278   2.718 -0.8121  2.3581 -2.3091
  719MOL0     H99187  10.246   7.200   2.688  1.4994 -4.6065  2.9871
  719MOL0     H99188  10.232   7.447   2.694 -0.7868 -1.8890 -1.4333
  719MOL0     H99189  10.139   7.371   2.816  0.0609  1.4481  1.6794
  719MOL0     H99190  10.407   7.483   2.886 -0.4161  0.2309 -1.7565
  719MOL0     H99191  10.282   7.419   2.996  0.4181 -0.0299 -0.2158
  719MOL0     H99192  10.122   7.586   2.925  0.7587 -0.2115  3.8231
  719MOL0     H99193  10.238   7.661   2.820 -1.4114  0.7517 -0.0248
  719MOL0     H99194  10.307   7.659   3.111  0.7129 -1.2070 -1.2045
  719MOL0     H99195  10.382   7.734   2.976 -0.2215 -0.1131 -1.9513
  719MOL0     H99196  10.102   7.805   3.071  0.5947 -1.3305  0.5137
  719MOL0     H99197  10.189   7.885   2.937  0.6421 -0.4601 -0.1442
  719MOL0     H99198  10.369   7.910   3.128  0.0417  1.3515 -2.0671
  719MOL0     H99199  10.213   7.926   3.230 -1.5845  4.6498 -0.3781
  719MOL0     H99200  10.275   8.072   2.972 -0.8253 -1.2395  0.0246
  719MOL0     H99201  10.312   8.136   3.144 -1.8365 -1.7565  3.5187
  719MOL0     H99202  10.122   6.985   2.945  1.2905  2.5209  1.1434
  719MOL0     H99203  10.148   6.749   2.903  0.0272 -0.3686  4.5505
  719MOL0     H99204  10.208   6.415   2.524 -1.6395 -1.7670 -0.4729
  719MOL0     H99205  10.239   6.171   2.475  4.2204 -3.1660 -0.4925
  719MOL0     H99206  10.619   4.598   4.060  0.3505  3.9960  0.7237
  719MOL0     H99207  10.526   4.396   4.142  4.6843  3.6722  2.7499
  719MOL0     H99208  10.153   4.357   4.424 -0.0242 -0.5962  1.5588
  719MOL0     H99209  10.041   4.232   4.587 -0.1288 -0.3795 -0.5105
  719MOL0     H99210   9.793   3.905   4.486 -3.1441  3.0582  0.5889
  719MOL0     H99211   9.956   3.950   4.561  1.1032  4.7253  0.9997
  719MOL0     H99212   9.903   3.968   4.772 -1.4865  0.3667  2.3533
  719MOL0     H99213   9.838   3.811   4.731  1.6686  0.4434  0.4497
  719MOL0     H99214   9.670   3.912   4.869 -1.9113 -2.8549 -0.6863
  719MOL0     H99215   9.686   4.064   4.786 -0.5089 -0.5597  4.0433
  719MOL0     H99216   9.576   3.956   4.589  0.1608  1.1904  1.4412
  719MOL0     H99217   9.483   3.955   4.735 -1.0598 -0.7369 -2.1691
  719MOL0     H99218   9.538   3.534   4.697  0.5879 -0.2979 -0.0084
  719MOL0     H99219   9.751   4.119   4.314 -1.0530  2.3181  1.4604
  719MOL0     H99220   9.834   4.161   4.020  1.7090  3.1543  1.1296
  719MOL0     H99221   9.981   4.069   4.033 -0.7950 -2.8242  1.0326
  719MOL0     H99222   9.839   4.018   4.116 -0.5303  0.9816  0.8748
  720MOL0     O99223  10.555  11.305  10.567 -0.5267 -1.1367 -0.0334
  720MOL0     C99224  10.636  11.359  10.488  0.6969 -0.5522 -0.3248
  720MOL0     O99225  10.687  11.298  10.385  0.5709 -0.3309  0.3572
  720MOL0     C99226  10.637  11.189  10.329 -0.6109 -1.3139 -0.8126
  720MOL0     C99227  10.721  11.099  10.270  0.0306  0.6992  0.7441
  720MOL0     C99228  10.676  10.988  10.207 -0.2044  0.2018 -1.1528
  720MOL0     C99229  10.540  10.954  10.211 -0.3695  1.0347 -0.0635
  720MOL0     O99230  10.500  10.845  10.138  0.1710 -0.4867 -0.0128
  720MOL0     C99231  10.517  10.732  10.222  0.5591 -0.9032  0.0118
  720MOL0     C99232  10.454  10.611  10.165  1.4240  0.1147 -0.1823
  720MOL0     C99233  10.301  10.618  10.159  0.4826 -0.3344  0.6884
  720MOL0     C99234  10.228  10.633  10.292  0.6363 -0.3638 -0.0723
  720MOL0     C99235  10.086  10.623  10.269  0.8260 -0.0777  0.6775
  720MOL0     C99236  10.001  10.685  10.370  1.2849 -0.4618 -0.4326
  720MOL0     C99237  10.032  10.616  10.510 -0.6837  0.5615 -0.0767
  720MOL0     C99238   9.984  10.689  10.629  0.0390 -0.2451  0.1364
  720MOL0     N99239  10.030  10.828  10.641 -1.0597 -0.4360 -0.5171
  720MOL0     C99240   9.999  10.943  10.564  0.2769 -0.0664  0.5408
  720MOL0     C99241  10.104  11.022  10.589  1.0033  1.0678  0.6667
  720MOL0     C99242  10.117  11.152  10.522  0.7808  0.0328  0.3345
  720MOL0     C99243  10.128  11.266  10.617 -0.4822 -0.0057 -0.0200
  720MOL0     C99244  10.003  11.275  10.707  0.3014  0.0455  0.0685
  720MOL0     C99245  10.024  11.407  10.784  0.0477 -1.0042 -0.7135
  720MOL0     O99246   9.977  11.522  10.722  0.0208 -0.5517  0.9262
  720MOL0     C99247  10.045  11.639  10.748  0.0330  0.2214  1.8003
  720MOL0     C99248  10.057  11.699  10.871  0.3673 -0.6501 -0.0108
  720MOL0     C99249  10.144  11.811  10.886  0.4887 -0.2615 -0.6719
  720MOL0     C99250  10.174  11.862  11.027  0.4395 -0.6398 -0.3436
  720MOL0     C99251  10.201  11.879  10.774 -0.6372 -0.1596 -0.1970
  720MOL0     C99252  10.298  11.996  10.769 -0.5030 -0.4280  0.3903
  720MOL0     O99253  10.385  12.010  10.668 -0.3772  0.2594 -0.1528
  720MOL0     C99254  10.471  12.114  10.662  0.4798 -0.5110 -1.0190
  720MOL0     C99255  10.608  12.088  10.658 -0.0199  0.0694 -0.4620
  720MOL0     C99256  10.697  12.195  10.670 -0.3290 -0.1574 -0.0802
  720MOL0     C99257  10.647  12.336  10.671 -0.5086  0.0857 -0.0166
  720MOL0     O99258  10.718  12.455  10.666  0.6175  0.0957  0.0425
  720MOL0     C99259  10.863  12.451  10.694  0.2368 -0.2357 -0.0942
  720MOL0     C99260  10.926  12.592  10.669  0.0850  0.0762  0.3048
  720MOL0     C99261  11.034  12.630  10.772 -0.5712 -1.1334 -0.2515
  720MOL0     C99262  11.060  12.782  10.771 -0.5105 -0.0061  0.5308
  720MOL0     C99263  10.962  12.862  10.864 -0.0609 -0.4568  0.3637
  720MOL0     C99264  10.980  13.011  10.844 -0.0663  0.8773  0.7449
  720MOL0     C99265  10.893  13.088  10.935  0.2524 -0.5333 -0.4995
  720MOL0     C99266  10.783  13.157  10.858  0.4035  0.1606  0.1667
  720MOL0    Cl99267  10.844  13.284  10.743  0.1741  0.4454  0.0796
  720MOL0     C99268  10.508  12.361  10.668  0.5816 -0.0750  0.2078
  720MOL0     C99269  10.427  12.248  10.674  0.5381 -0.5563 -0.2568
  720MOL0     O99270  10.285  12.082  10.856 -0.1085 -0.4955  0.7858
  720MOL0     C99271  10.172  11.820  10.641 -0.5653  0.2393  0.3347
  720MOL0     C99272  10.096  11.703  10.633  0.2147  1.2062  0.6811
  720MOL0     N99273  10.195  10.970  10.687 -0.1588  0.3902 -0.1679
  720MOL0     N99274  10.147  10.851  10.712  0.1948  1.4293  0.9476
  720MOL0     C99275  10.459  11.042  10.274  0.9285 -0.0423  0.8662
  720MOL0     C99276  10.501  11.166  10.319 -0.1324 -0.2025 -0.1284
  720MOL0     C99277  10.697  11.488  10.507  0.2680 -0.3549  0.2713
  720MOL0     C99278  10.837  11.499  10.489 -0.1892 -0.0278  0.0077
  720MOL0     C99279  10.903  11.623  10.484 -0.3330  0.3772  0.3664
  720MOL0     C99280  10.828  11.742  10.519 -0.4694  0.9287 -0.0799
  720MOL0     O99281  10.879  11.870  10.516  0.5151  0.3433 -0.5429
  720MOL0     C99282  11.022  11.881  10.531 -0.4132  0.7643 -0.5968
  720MOL0     C99283  11.093  12.018  10.530  0.2743  0.3253  0.5784
  720MOL0     C99284  11.249  12.004  10.545 -0.2076  0.3182 -0.6063
  720MOL0     C99285  11.320  12.129  10.521 -0.0525 -0.2135 -0.1607
  720MOL0     C99286  11.459  12.126  10.572 -0.0397  0.5185  0.5796
  720MOL0     C99287  11.566  12.124  10.617 -0.8324  0.6856 -0.7625
  720MOL0     C99288  10.693  11.729  10.537 -0.3368 -0.6371 -0.3557
  720MOL0     C99289  10.632  11.606  10.537 -0.0488  0.5283  1.0254
  720MOL0     C99290  10.490  11.614  10.555 -0.0662 -0.7065  0.0041
  720MOL0     H99291  10.825  11.127  10.270 -0.1182  1.2524  0.6921
  720MOL0     H99292  10.749  10.932  10.149  1.4094  1.4389 -0.3938
  720MOL0     H99293  10.478  10.748  10.323  1.7759  0.2596  0.3288
  720MOL0     H99294  10.624  10.728  10.242  0.9524  1.0468 -1.3702
  720MOL0     H99295  10.495  10.588  10.066 -1.1323 -1.2267 -1.0303
  720MOL0     H99296  10.478  10.526  10.229  1.8253 -0.5860 -1.2272
  720MOL0     H99297  10.286  10.704  10.094  3.4746  0.7212  1.2201
  720MOL0     H99298  10.259  10.533  10.106 -0.3742  0.9155 -0.7080
  720MOL0     H99299  10.277  10.565  10.362  0.4972 -0.9547 -0.5437
  720MOL0     H99300  10.240  10.734  10.333 -1.7194 -0.8123  1.9094
  720MOL0     H99301  10.057  10.518  10.260 -0.8950  0.4916 -1.7215
  720MOL0     H99302  10.061  10.685  10.182  1.4974  0.6504  0.9976
  720MOL0     H99303  10.035  10.789  10.374 -1.0032  0.3049  0.4188
  720MOL0     H99304   9.896  10.676  10.339  0.8260  3.3899 -0.4034
  720MOL0     H99305  10.139  10.596  10.516 -0.0893  1.5984 -4.1991
  720MOL0     H99306   9.982  10.519  10.507  3.0372 -1.5205 -0.7702
  720MOL0     H99307   9.877  10.707  10.619  0.3500  3.2980  1.5904
  720MOL0     H99308  10.007  10.620  10.711  0.0876 -0.1935  0.1668
  720MOL0     H99309   9.916  10.967  10.499  0.2946  0.2249  0.6271
  720MOL0     H99310  10.032  11.178  10.458  1.4820 -1.2148 -1.1544
  720MOL0     H99311  10.206  11.144  10.460  0.8390  0.0143  0.4212
  720MOL0     H99312  10.216  11.240  10.675 -1.2181 -3.0440 -0.0521
  720MOL0     H99313  10.143  11.356  10.557  1.9622  0.7955  1.6562
  720MOL0     H99314   9.917  11.277  10.640  1.9940 -2.9982 -2.4756
  720MOL0     H99315   9.991  11.195  10.781 -1.5062  0.3056  0.0942
  720MOL0     H99316   9.968  11.390  10.876 -0.9131 -3.4427 -1.6558
  720MOL0     H99317  10.130  11.416  10.808 -0.0951  1.1473 -0.7182
  720MOL0     H99318  10.041  11.632  10.956 -0.0873  2.4613  2.5447
  720MOL0     H99319  10.115  11.809  11.102  1.5193  0.3777  1.2980
  720MOL0     H99320  10.154  11.969  11.037 -0.9468 -0.8401 -0.7682
  720MOL0     H99321  10.282  11.851  11.043  0.5475 -1.8908 -1.7672
  720MOL0     H99322  10.649  11.988  10.668  0.8448  0.4830  0.2842
  720MOL0     H99323  10.805  12.183  10.667 -0.3004 -0.0268  0.3687
  720MOL0     H99324  10.865  12.427  10.801 -1.2412  1.9512  0.5008
  720MOL0     H99325  10.919  12.371  10.646 -0.7406 -0.3997 -1.0042
  720MOL0     H99326  10.963  12.586  10.566  1.7285 -2.8699  0.9431
  720MOL0     H99327  10.843  12.662  10.655  0.9936  0.8071 -1.8699
  720MOL0     H99328  11.121  12.569  10.745 -0.4602 -1.5029  0.8733
  720MOL0     H99329  11.010  12.609  10.877 -0.8502 -3.5424 -0.7339
  720MOL0     H99330  11.081  12.825  10.673  1.5854  1.2559  1.4608
  720MOL0     H99331  11.157  12.805  10.816  0.3624 -3.6027  0.8559
  720MOL0     H99332  10.860  12.831  10.841 -0.3330 -1.8044  3.0002
  720MOL0     H99333  10.974  12.834  10.969 -1.0382 -2.5238 -0.0227
  720MOL0     H99334  10.959  13.024  10.737  2.8134 -0.8347 -0.1580
  720MOL0     H99335  11.085  13.027  10.867  0.7490  0.2638 -2.1081
  720MOL0     H99336  10.953  13.170  10.975  1.4372 -2.4034  1.8324
  720MOL0     H99337  10.861  13.035  11.026 -0.6713  1.4749  0.4132
  720MOL0     H99338  10.710  13.195  10.931  0.4920  0.7080 -0.0279
  720MOL0     H99339  10.725  13.088  10.796  1.5182 -1.8720  1.2837
  720MOL0     H99340  10.464  12.460  10.666  1.5079  0.3321 -0.4466
  720MOL0     H99341  10.321  12.269  10.678  0.3057 -1.8546  1.8324
  720MOL0     H99342  10.227  11.871  10.562 -0.5743  0.4627  0.4695
  720MOL0     H99343  10.084  11.652  10.538 -2.8882 -0.5788  1.8670
  720MOL0     H99344  10.353  11.021  10.260  0.9116  0.7634 -0.3799
  720MOL0     H99345  10.427  11.228  10.371 -2.5301 -2.9043 -0.0797
  720MOL0     H99346  10.889  11.405  10.471 -0.0204  0.2889 -1.2697
  720MOL0     H99347  11.010  11.621  10.468 -0.3830 -1.5737 -0.0255
  720MOL0     H99348  11.034  11.853  10.636 -0.3368  0.7206 -0.6171
  720MOL0     H99349  11.086  11.821  10.466  1.3454  3.0383 -1.0886
  720MOL0     H99350  11.059  12.075  10.617 -1.1012 -1.3895  1.2172
  720MOL0     H99351  11.060  12.063  10.436 -0.7233  0.6606  1.0804
  720MOL0     H99352  11.264  11.975  10.650 -0.4290  2.4241  0.0475
  720MOL0     H99353  11.286  11.937  10.467 -1.7808 -1.9493  0.4872
  720MOL0     H99354  11.270  12.212  10.571 -2.9887 -2.3599  0.7132
  720MOL0     H99355  11.310  12.145  10.413 -3.0754  2.9726  0.4003
  720MOL0     H99356  11.661  12.111  10.666 -0.1254  0.8729 -2.0456
  720MOL0     H99357  10.636  11.821  10.540  0.9847  0.2039 -0.3177
  720MOL0     H99358  10.448  11.714  10.541  0.7871 -0.2113  0.9063
  720MOL0     H99359  10.442  11.536  10.495 -0.4238 -2.2685  2.2045
  720MOL0     H99360  10.465  11.592  10.659  1.3345 -1.9487  0.1121
  721MOL0     O99361   2.268   5.109   1.058  0.9503  0.7222  0.1855
  721MOL0     C99362   2.199   5.017   1.049  0.3178  1.1277  0.4849
  721MOL0     O99363   2.211   4.922   0.953  0.2706  0.8072 -0.2118
  721MOL0     C99364   2.347   4.871   0.931  0.4465 -1.0082 -0.0828
  721MOL0     C99365   2.357   4.784   0.823  0.1982 -0.0388  0.3307
  721MOL0     C99366   2.480   4.732   0.777  0.4731 -1.1046  0.5534
  721MOL0     C99367   2.601   4.781   0.830 -0.5176 -0.1339  0.4806
  721MOL0     O99368   2.722   4.727   0.800  0.2506  0.1106  0.0468
  721MOL0     C99369   2.758   4.606   0.874  1.3137  0.6089 -0.6739
  721MOL0     C99370   2.877   4.530   0.811 -0.4032 -0.4051  0.0133
  721MOL0     C99371   2.852   4.535   0.660  0.1759  0.9911 -1.6411
  721MOL0     C99372   2.940   4.405   0.620  0.8372  0.2395  0.0615
  721MOL0     C99373   2.859   4.273   0.631  0.1418 -0.4176  0.0614
  721MOL0     C99374   2.749   4.236   0.527  0.6465  0.1347 -0.0841
  721MOL0     C99375   2.808   4.221   0.389  1.3759 -0.3219 -0.2341
  721MOL0     C99376   2.722   4.144   0.283 -0.0923  0.2622  0.0627
  721MOL0     N99377   2.789   4.124   0.155  0.7867 -0.7625 -0.9284
  721MOL0     C99378   2.805   4.010   0.098 -0.1207 -0.3947 -0.3032
  721MOL0     C99379   2.884   4.031  -0.012  0.6895  0.0416 -1.2999
  721MOL0     C99380   2.928   3.919  -0.104 -0.7018  0.2784 -0.8649
  721MOL0     C99381   3.078   3.951  -0.116  0.0450  0.7770 -0.2931
  721MOL0     C99382   3.149   3.858  -0.220  0.0455  0.5592  0.2751
  721MOL0     C99383   3.112   3.888  -0.363  0.5066 -1.1485  0.9193
  721MOL0     O99384   3.171   4.013  -0.387  0.0363  0.3610  0.4371
  721MOL0     C99385   3.105   4.070  -0.488 -0.2735  0.0774 -0.2867
  721MOL0     C99386   3.160   4.066  -0.615 -0.2625 -0.7074 -0.0076
  721MOL0     C99387   3.106   4.134  -0.720  0.5620  0.3102  0.8889
  721MOL0     C99388   3.180   4.160  -0.850 -0.5092  0.7257 -1.0637
  721MOL0     C99389   2.974   4.184  -0.715 -0.5077  0.0447 -0.2330
  721MOL0     C99390   2.901   4.220  -0.836 -0.0928  0.0053 -0.2172
  721MOL0     O99391   2.788   4.162  -0.861 -0.1962  0.0252  0.0448
  721MOL0     C99392   2.731   4.173  -0.986  0.3712 -0.2835 -0.5571
  721MOL0     C99393   2.621   4.264  -0.996  1.2008  0.5986 -1.0232
  721MOL0     C99394   2.575   4.298  -1.116 -0.4144 -0.3836 -0.8697
  721MOL0     C99395   2.633   4.261  -1.233 -0.3676 -0.3825  0.5965
  721MOL0     O99396   2.572   4.302  -1.346  0.3595 -0.2434 -0.6598
  721MOL0     C99397   2.579   4.228  -1.470 -0.1810  0.1872 -0.1391
  721MOL0     C99398   2.682   4.292  -1.569  1.1767  0.6838 -0.3393
  721MOL0     C99399   2.666   4.446  -1.585  0.0703  1.0503 -0.0838
  721MOL0     C99400   2.714   4.487  -1.728 -0.4041 -0.1038  0.1669
  721MOL0     C99401   2.606   4.569  -1.805  0.8210  0.6003 -0.2442
  721MOL0     C99402   2.485   4.487  -1.845  0.4242 -0.3869  0.2660
  721MOL0     C99403   2.505   4.403  -1.970  0.8234 -0.9906 -0.4107
  721MOL0     C99404   2.369   4.347  -2.026 -0.2989 -0.2017 -0.2344
  721MOL0    Cl99405   2.270   4.490  -2.091  0.2909  0.1073 -0.2683
  721MOL0     C99406   2.740   4.181  -1.228 -1.0520  0.7507  0.4434
  721MOL0     C99407   2.794   4.138  -1.103  0.1160 -0.3835  0.3612
  721MOL0     O99408   2.947   4.315  -0.898  0.0343 -0.4774 -0.6630
  721MOL0     C99409   2.909   4.181  -0.590 -0.3789 -0.4155  1.1723
  721MOL0     C99410   2.970   4.113  -0.481 -0.5249  0.4519  0.5360
  721MOL0     N99411   2.905   4.168  -0.021 -0.4243 -0.5276  0.0581
  721MOL0     N99412   2.855   4.221   0.083  0.0252 -1.0624 -0.2850
  721MOL0     C99413   2.586   4.856   0.941 -0.5184  0.2319 -0.3577
  721MOL0     C99414   2.468   4.903   1.001  0.5244  0.6767 -0.5410
  721MOL0     C99415   2.079   5.032   1.129  0.4465  0.2467  0.7266
  721MOL0     C99416   1.955   4.984   1.069 -0.3682 -0.3664  0.7368
  721MOL0     C99417   1.836   4.994   1.138 -0.2080  0.1254  0.6264
  721MOL0     C99418   1.837   5.040   1.266  0.5598 -0.7851  0.4701
  721MOL0     O99419   1.738   5.007   1.348  0.2751 -0.4488 -0.5237
  721MOL0     C99420   1.632   5.109   1.328 -0.4681  0.5912 -0.8590
  721MOL0     C99421   1.502   5.065   1.389 -0.2021  0.0326  0.5096
  721MOL0     C99422   1.433   4.959   1.310 -0.4157 -0.9713  0.6647
  721MOL0     C99423   1.476   4.816   1.356 -0.0590  1.3129 -0.3126
  721MOL0     C99424   1.380   4.718   1.301 -0.3311  0.5245 -0.2959
  721MOL0     C99425   1.290   4.638   1.278 -0.2288  0.8945 -0.1826
  721MOL0     C99426   1.952   5.087   1.323 -0.1430 -0.0987  0.0767
  721MOL0     C99427   2.070   5.094   1.258 -0.0323 -0.1857  1.0875
  721MOL0     C99428   2.192   5.125   1.335 -0.3912  0.4020  0.1626
  721MOL0     H99429   2.263   4.756   0.776 -2.0101  2.0505  3.1175
  721MOL0     H99430   2.476   4.650   0.707  1.8268  0.8404 -1.9805
  721MOL0     H99431   2.674   4.536   0.876  4.0359 -2.8962  1.1064
  721MOL0     H99432   2.766   4.628   0.981  1.6382 -3.3223  0.2538
  721MOL0     H99433   2.963   4.595   0.831  0.3367 -1.7393  1.3607
  721MOL0     H99434   2.895   4.434   0.860 -2.8786  0.3877  2.7419
  721MOL0     H99435   2.747   4.524   0.632 -0.4065  1.7361  0.1013
  721MOL0     H99436   2.895   4.633   0.638  0.5181  1.6839  1.6462
  721MOL0     H99437   2.981   4.431   0.522  1.0522  1.2996  0.4193
  721MOL0     H99438   3.023   4.393   0.689  0.5787 -1.0638  0.1634
  721MOL0     H99439   2.806   4.280   0.726 -0.1777  1.3724 -0.2041
  721MOL0     H99440   2.925   4.186   0.628 -2.5501 -2.5912 -0.5822
  721MOL0     H99441   2.699   4.147   0.565  1.4567 -0.4707 -0.3893
  721MOL0     H99442   2.671   4.313   0.527 -0.8958 -1.3653 -0.0942
  721MOL0     H99443   2.901   4.164   0.399  1.1086 -0.5513  1.1844
  721MOL0     H99444   2.831   4.323   0.358 -3.9646  1.0294 -0.8053
  721MOL0     H99445   2.689   4.046   0.317  0.4615 -0.9889 -2.7276
  721MOL0     H99446   2.630   4.202   0.270 -0.1839  0.8285  2.7330
  721MOL0     H99447   2.770   3.912   0.126 -0.4121 -0.3528 -0.5137
  721MOL0     H99448   2.886   3.920  -0.205  1.1153 -1.9748 -1.7314
  721MOL0     H99449   2.907   3.821  -0.060  0.3302  0.1339 -0.6714
  721MOL0     H99450   3.093   4.056  -0.142 -0.2338  0.9915  0.3885
  721MOL0     H99451   3.135   3.937  -0.023 -1.1001  1.6563  0.5758
  721MOL0     H99452   3.256   3.863  -0.199 -0.4586 -0.4826  3.9130
  721MOL0     H99453   3.125   3.753  -0.200  0.8204 -1.1989 -5.9673
  721MOL0     H99454   3.143   3.822  -0.444  3.5925 -0.5390  1.5014
  721MOL0     H99455   3.003   3.896  -0.363  0.5344 -0.3745  2.5979
  721MOL0     H99456   3.257   4.018  -0.618 -0.7671 -2.0992  2.6258
  721MOL0     H99457   3.284   4.131  -0.834 -0.1047  1.6079 -1.9707
  721MOL0     H99458   3.201   4.266  -0.865  3.0070  0.8811  2.9856
  721MOL0     H99459   3.134   4.112  -0.937 -3.3219 -1.4705  1.4396
  721MOL0     H99460   2.587   4.321  -0.910  0.1564  0.8404 -1.5822
  721MOL0     H99461   2.493   4.369  -1.114  0.1445  0.2676  1.4821
  721MOL0     H99462   2.604   4.124  -1.449 -1.5168 -0.0772  0.1792
  721MOL0     H99463   2.480   4.225  -1.515 -0.4893 -0.1193  0.5621
  721MOL0     H99464   2.782   4.262  -1.536 -0.3556  0.0613  4.6518
  721MOL0     H99465   2.663   4.243  -1.664 -1.7219  1.4296 -0.2287
  721MOL0     H99466   2.729   4.502  -1.516 -0.0790 -1.6972  2.4733
  721MOL0     H99467   2.566   4.488  -1.567  1.0979  4.1233 -0.8546
  721MOL0     H99468   2.742   4.401  -1.789  1.1244  1.9106 -2.1431
  721MOL0     H99469   2.805   4.547  -1.721 -1.3744  2.1178 -3.7214
  721MOL0     H99470   2.580   4.659  -1.749 -0.7923 -0.1813  0.3393
  721MOL0     H99471   2.641   4.607  -1.901  1.7921 -3.1257 -1.5483
  721MOL0     H99472   2.410   4.563  -1.870  0.0822 -1.3560 -1.8534
  721MOL0     H99473   2.453   4.434  -1.755  1.5175 -0.7132  0.4724
  721MOL0     H99474   2.579   4.323  -1.964  2.4059  0.4311 -0.4936
  721MOL0     H99475   2.535   4.465  -2.055 -3.0808 -0.5770 -1.7011
  721MOL0     H99476   2.306   4.298  -1.952  0.1032 -1.9495 -0.9976
  721MOL0     H99477   2.392   4.282  -2.111 -0.9605  0.7497 -1.1751
  721MOL0     H99478   2.788   4.158  -1.323 -0.5617  0.6950  0.7055
  721MOL0     H99479   2.884   4.079  -1.110 -1.3720 -2.5152 -3.9533
  721MOL0     H99480   2.808   4.213  -0.569  0.7578  3.3917  1.5518
  721MOL0     H99481   2.927   4.101  -0.383  1.0432 -1.7849  1.0350
  721MOL0     H99482   2.676   4.877   0.999 -1.6637  3.5537  0.4290
  721MOL0     H99483   2.490   4.957   1.093  1.2497  0.0913 -0.3622
  721MOL0     H99484   1.962   4.934   0.973  0.4053 -0.9747  1.0982
  721MOL0     H99485   1.743   4.946   1.107  0.3820 -1.0124  0.5676
  721MOL0     H99486   1.663   5.197   1.385 -1.6777 -0.8399  2.2174
  721MOL0     H99487   1.619   5.137   1.223  1.8893 -1.4968 -1.8261
  721MOL0     H99488   1.431   5.148   1.384 -2.6905 -2.0012 -0.2696
  721MOL0     H99489   1.514   5.035   1.493  0.4276 -2.6289 -0.2367
  721MOL0     H99490   1.326   4.967   1.327 -0.3643 -2.1161  1.7319
  721MOL0     H99491   1.471   4.965   1.208  0.6217 -0.9042  1.0421
  721MOL0     H99492   1.480   4.802   1.464  1.9009 -1.5940 -0.6409
  721MOL0     H99493   1.568   4.787   1.304 -1.7505  0.6559 -3.1503
  721MOL0     H99494   1.204   4.581   1.249  0.9287 -0.9310 -0.2093
  721MOL0     H99495   1.950   5.132   1.422  1.5864 -0.0954  0.1441
  721MOL0     H99496   2.168   5.184   1.424  0.0103  0.1330  0.4534
  721MOL0     H99497   2.248   5.036   1.364  0.4811  0.8632 -0.0729
  721MOL0     H99498   2.265   5.183   1.278 -0.7934 -0.2343 -1.0248
  722MOL0     O99499   7.846  10.091   8.149 -0.0985  1.2259  0.0332
  722MOL0     C99500   7.738  10.100   8.209 -0.1528 -0.1151 -0.5899
  722MOL0     O99501   7.687  10.003   8.292 -0.0971 -0.8034 -0.6730
  722MOL0     C99502   7.739   9.876   8.270 -0.1907  0.3476 -0.9267
  722MOL0     C99503   7.646   9.773   8.236  0.5949 -0.3582 -0.0085
  722MOL0     C99504   7.682   9.645   8.199 -0.3658 -0.2982 -0.3659
  722MOL0     C99505   7.822   9.621   8.199  0.8816 -0.3033  0.2096
  722MOL0     O99506   7.855   9.491   8.169  0.9565  0.3172  0.1958
  722MOL0     C99507   7.972   9.426   8.219  0.2804  0.2732 -0.0501
  722MOL0     C99508   7.929   9.283   8.214  1.2402  0.3353 -0.2162
  722MOL0     C99509   7.804   9.268   8.308  0.2796  0.6324 -0.0150
  722MOL0     C99510   7.774   9.116   8.347  0.3821 -0.3708 -0.1622
  722MOL0     C99511   7.652   9.102   8.450 -0.4068  0.6865  0.5472
  722MOL0     C99512   7.610   8.949   8.466 -0.1337  0.0955  0.0597
  722MOL0     C99513   7.528   8.914   8.591 -0.0793  0.7179 -0.2146
  722MOL0     C99514   7.605   8.944   8.722 -0.2128 -0.3357 -0.2917
  722MOL0     N99515   7.744   8.885   8.723 -0.9546 -0.5156  0.5359
  722MOL0     C99516   7.854   8.961   8.692 -0.8811 -0.7263 -1.4859
  722MOL0     C99517   7.964   8.893   8.748  0.2279  0.1977  0.7123
  722MOL0     C99518   8.110   8.946   8.743 -0.2895  0.6449  1.2469
  722MOL0     C99519   8.200   8.849   8.677 -1.1845  0.3633  0.2699
  722MOL0     C99520   8.203   8.836   8.521  0.4006 -0.8499  0.1094
  722MOL0     C99521   8.204   8.956   8.436  0.0069 -0.1878 -1.4612
  722MOL0     O99522   8.334   9.013   8.468  0.1815 -0.1469  0.1020
  722MOL0     C99523   8.349   9.141   8.447 -0.9214  0.5320  0.2427
  722MOL0     C99524   8.344   9.227   8.552  0.6554  0.6888 -0.1307
  722MOL0     C99525   8.338   9.364   8.533  0.2772  0.4896 -0.8163
  722MOL0     C99526   8.323   9.440   8.669  1.0072  0.9746 -0.0032
  722MOL0     C99527   8.361   9.419   8.414  0.2833  0.3810  0.6176
  722MOL0     C99528   8.385   9.567   8.383 -0.2673  0.5232  0.1513
  722MOL0     O99529   8.431   9.599   8.259 -0.0377  0.1127 -0.3770
  722MOL0     C99530   8.409   9.720   8.201 -0.5935 -0.3734  0.1918
  722MOL0     C99531   8.317   9.729   8.094 -0.4094  0.2650  0.4752
  722MOL0     C99532   8.276   9.847   8.046 -0.7285 -0.6816 -0.1193
  722MOL0     C99533   8.351   9.960   8.079 -0.6610  0.7638 -0.3249
  722MOL0     O99534   8.326  10.083   8.030 -0.5292  0.2779 -0.7261
  722MOL0     C99535   8.251  10.095   7.908 -0.0002  0.2268  0.5125
  722MOL0     C99536   8.260  10.222   7.841  0.4600 -0.6434 -0.2007
  722MOL0     C99537   8.188  10.335   7.927 -0.3670 -0.6702 -0.9149
  722MOL0     C99538   8.121  10.440   7.836 -0.2283  0.3737 -0.2172
  722MOL0     C99539   8.039  10.541   7.913 -0.1847  0.4331  0.4366
  722MOL0     C99540   8.123  10.632   7.985 -0.2310 -0.4264  0.9625
  722MOL0     C99541   8.063  10.744   8.061  0.1108  1.0042 -0.3289
  722MOL0     C99542   8.166  10.819   8.142 -0.3458 -0.1980  0.6707
  722MOL0    Cl99543   8.314  10.858   8.056 -0.6722  0.2201 -0.4524
  722MOL0     C99544   8.451   9.956   8.178 -0.1528 -0.1034  0.2688
  722MOL0     C99545   8.486   9.834   8.233 -1.5161  0.0196 -0.0611
  722MOL0     O99546   8.366   9.648   8.468 -0.4371  0.1051 -0.7656
  722MOL0     C99547   8.360   9.327   8.306  1.1641  0.7090 -0.6843
  722MOL0     C99548   8.350   9.193   8.317 -0.1039  0.5688 -0.2403
  722MOL0     N99549   7.910   8.770   8.794 -0.1973  0.3681  0.0419
  722MOL0     N99550   7.784   8.776   8.792 -0.0088 -0.2294  1.1929
  722MOL0     C99551   7.915   9.709   8.247 -0.3107  0.2720 -0.1335
  722MOL0     C99552   7.875   9.839   8.285 -0.1264 -0.7081  0.2137
  722MOL0     C99553   7.673  10.230   8.192  0.7347  1.0390 -0.5601
  722MOL0     C99554   7.724  10.335   8.116  0.2754 -0.0127 -0.1464
  722MOL0     C99555   7.670  10.467   8.102 -0.8059  0.9293  0.8341
  722MOL0     C99556   7.545  10.482   8.154  0.0408  0.6114  0.7099
  722MOL0     O99557   7.459  10.585   8.135  0.4892  0.1209 -0.7606
  722MOL0     C99558   7.518  10.701   8.201 -0.2859  0.1387 -0.2425
  722MOL0     C99559   7.415  10.813   8.207 -0.3211 -0.4860  0.6030
  722MOL0     C99560   7.289  10.790   8.293  0.0750  0.0013 -1.1690
  722MOL0     C99561   7.309  10.846   8.435  0.5455 -1.2216 -0.2694
  722MOL0     C99562   7.179  10.847   8.505  0.2336 -0.0293  0.8618
  722MOL0     C99563   7.079  10.855   8.568  0.5656  0.2368  0.2315
  722MOL0     C99564   7.485  10.372   8.217 -0.3508  0.3366 -0.0459
  722MOL0     C99565   7.540  10.249   8.244 -0.3777  0.5008 -0.4713
  722MOL0     C99566   7.452  10.152   8.326 -0.5976  0.2963  0.7362
  722MOL0     H99567   7.543   9.803   8.248  0.8295  0.3102  0.4241
  722MOL0     H99568   7.609   9.569   8.176 -1.7793  0.1433  2.2884
  722MOL0     H99569   8.013   9.462   8.313 -1.0959 -1.7898  1.4109
  722MOL0     H99570   8.045   9.435   8.138 -0.1099 -0.3999 -0.4828
  722MOL0     H99571   7.904   9.261   8.110 -1.5982  1.6022  0.1030
  722MOL0     H99572   8.007   9.215   8.251 -0.3445 -0.3661  2.1047
  722MOL0     H99573   7.815   9.324   8.401  0.9406 -0.0092  0.3065
  722MOL0     H99574   7.720   9.312   8.254  1.0396  1.2079 -0.7430
  722MOL0     H99575   7.739   9.061   8.259 -3.1455  0.1862  0.7326
  722MOL0     H99576   7.862   9.060   8.379  1.1613 -0.3897 -2.1866
  722MOL0     H99577   7.567   9.152   8.402 -0.0944 -0.9966 -1.9464
  722MOL0     H99578   7.676   9.140   8.550  1.6593 -1.2942  0.8910
  722MOL0     H99579   7.541   8.935   8.383 -0.6609 -1.7942  0.7509
  722MOL0     H99580   7.694   8.880   8.448  1.4793  1.8089  0.6895
  722MOL0     H99581   7.508   8.807   8.598  1.6717  0.3762  0.1654
  722MOL0     H99582   7.427   8.955   8.593 -1.0294 -1.4741  1.9650
  722MOL0     H99583   7.614   9.053   8.734  0.2563 -0.3460 -0.5014
  722MOL0     H99584   7.549   8.896   8.802  0.4699  1.1201  1.1189
  722MOL0     H99585   7.856   9.063   8.654 -0.0032  0.1806  0.8172
  722MOL0     H99586   8.145   8.935   8.846 -2.2622  0.5444  1.9539
  722MOL0     H99587   8.125   9.050   8.714 -0.2811  1.4367  3.9028
  722MOL0     H99588   8.302   8.883   8.697 -1.7584  3.0255 -0.9292
  722MOL0     H99589   8.198   8.754   8.730 -0.8571  0.2521  0.0833
  722MOL0     H99590   8.288   8.776   8.487 -0.1440 -0.6908 -1.6798
  722MOL0     H99591   8.114   8.781   8.490 -1.1447  1.8812 -0.6518
  722MOL0     H99592   8.190   8.920   8.334  1.3598 -1.1763 -1.3266
  722MOL0     H99593   8.119   9.021   8.460 -0.8203 -1.3474 -1.1866
  722MOL0     H99594   8.336   9.181   8.651  1.6085 -0.0065 -0.3689
  722MOL0     H99595   8.271   9.371   8.735  2.3214 -1.6246 -1.5359
  722MOL0     H99596   8.267   9.533   8.653  1.8911  1.1744 -2.2446
  722MOL0     H99597   8.419   9.453   8.719  0.2847 -0.7105  1.9253
  722MOL0     H99598   8.255   9.646   8.062 -3.1341  2.0005  0.9276
  722MOL0     H99599   8.193   9.855   7.977  0.4637 -0.4673 -1.5701
  722MOL0     H99600   8.292  10.022   7.837 -1.4493 -0.5691  0.4470
  722MOL0     H99601   8.148  10.075   7.940 -0.0758  0.3575  0.3517
  722MOL0     H99602   8.366  10.240   7.823  0.0914  0.6376 -1.3212
  722MOL0     H99603   8.208  10.215   7.744 -0.1409  3.3904 -0.3365
  722MOL0     H99604   8.262  10.391   7.985 -0.4671  0.4043 -1.7894
  722MOL0     H99605   8.114  10.295   7.998 -0.3143 -0.3825 -0.6946
  722MOL0     H99606   8.048  10.382   7.778  3.2691 -0.9279 -3.7084
  722MOL0     H99607   8.190  10.479   7.761  0.4106 -1.4218 -0.6107
  722MOL0     H99608   7.994  10.594   7.829  2.9793 -0.0844 -1.7795
  722MOL0     H99609   7.967  10.488   7.975 -1.0481  0.1611 -0.7790
  722MOL0     H99610   8.184  10.672   7.904 -0.2118  2.3600  2.2337
  722MOL0     H99611   8.182  10.564   8.049 -1.4226 -0.5717  1.9568
  722MOL0     H99612   7.988  10.692   8.122 -0.7326  0.3316 -1.8858
  722MOL0     H99613   8.004  10.813   8.000 -1.7359  0.9628  1.2950
  722MOL0     H99614   8.188  10.754   8.227 -6.3731 -2.6750  0.8086
  722MOL0     H99615   8.118  10.908   8.184  0.3750 -0.2074  1.5464
  722MOL0     H99616   8.498  10.050   8.205  0.7348 -0.0493 -1.3401
  722MOL0     H99617   8.558   9.816   8.312  0.0753 -2.1884 -1.9013
  722MOL0     H99618   8.365   9.361   8.203 -0.7495 -0.6076 -1.2594
  722MOL0     H99619   8.347   9.135   8.225 -0.0461  2.2469 -1.3375
  722MOL0     H99620   8.022   9.692   8.257 -0.3885  1.1305  3.4491
  722MOL0     H99621   7.946   9.916   8.312 -0.8457  0.2228 -0.5321
  722MOL0     H99622   7.817  10.321   8.060  1.7774  0.0796  2.1764
  722MOL0     H99623   7.717  10.540   8.037  1.5217 -1.2697 -0.1194
  722MOL0     H99624   7.558  10.682   8.301  2.3754  1.0317 -1.0518
  722MOL0     H99625   7.596  10.740   8.134  1.4917 -0.4145  1.4156
  722MOL0     H99626   7.372  10.832   8.108 -0.5492  1.1325  0.9789
  722MOL0     H99627   7.469  10.904   8.234 -3.3012  0.7237  2.9123
  722MOL0     H99628   7.209  10.852   8.249 -0.4606  1.4855  1.6641
  722MOL0     H99629   7.276  10.682   8.304  4.4074 -1.0920 -4.3040
  722MOL0     H99630   7.337  10.951   8.431 -0.7168 -0.9101 -2.0625
  722MOL0     H99631   7.370  10.778   8.496 -0.8780 -1.2113  1.2227
  722MOL0     H99632   6.990  10.870   8.626  1.0170  3.3968  0.3029
  722MOL0     H99633   7.383  10.405   8.231  0.3098  2.4699  0.2194
  722MOL0     H99634   7.446  10.055   8.275  2.2697  0.5164 -0.1821
  722MOL0     H99635   7.481  10.146   8.431 -1.0112 -3.5384  0.7666
  722MOL0     H99636   7.355  10.202   8.326  1.1522  4.2338 -2.2215
  723MOL0     O99637  10.715   3.431   2.945  0.4498  0.9258 -0.6609
  723MOL0     C99638  10.774   3.493   2.857 -0.4426  0.4241 -0.5093
  723MOL0     O99639  10.726   3.499   2.727  1.0790 -0.3438 -0.3067
  723MOL0     C99640  10.597   3.464   2.695  0.4229 -0.3188 -0.1025
  723MOL0     C99641  10.561   3.417   2.572 -0.1289  0.4132 -0.1122
  723MOL0     C99642  10.431   3.369   2.553 -0.3791  0.2480  0.0189
  723MOL0     C99643  10.335   3.382   2.648 -0.1772  0.4503  0.1655
  723MOL0     O99644  10.210   3.337   2.616  0.1533  0.0890  0.3816
  723MOL0     C99645  10.111   3.331   2.711  0.0322  0.3154 -0.4023
  723MOL0     C99646   9.982   3.269   2.654 -0.0899  0.1863  0.8629
  723MOL0     C99647   9.926   3.352   2.537 -0.7145 -0.2699  1.6286
  723MOL0     C99648   9.796   3.301   2.469  0.5402  0.5212 -0.7962
  723MOL0     C99649   9.720   3.418   2.402  0.1009 -0.3867  0.7551
  723MOL0     C99650   9.587   3.373   2.337 -0.6104 -0.1989  0.1625
  723MOL0     C99651   9.502   3.495   2.315  0.1509 -0.0927  0.2741
  723MOL0     C99652   9.369   3.455   2.248  0.1456 -0.3507 -0.5148
  723MOL0     N99653   9.386   3.405   2.114 -0.0925 -0.0238 -0.5677
  723MOL0     C99654   9.469   3.464   2.026 -0.5888 -0.3789  0.4432
  723MOL0     C99655   9.465   3.379   1.922 -0.4159  0.0209 -0.2822
  723MOL0     C99656   9.521   3.394   1.785  0.3053  0.2656  0.1399
  723MOL0     C99657   9.574   3.255   1.731 -0.8917 -0.5319 -0.1798
  723MOL0     C99658   9.570   3.271   1.580 -0.7498 -0.4728 -0.3868
  723MOL0     C99659   9.636   3.146   1.524  0.7759  0.0184  1.0912
  723MOL0     O99660   9.649   3.159   1.379  0.2027 -0.3888 -0.4322
  723MOL0     C99661   9.637   3.050   1.306 -0.3060 -0.4575  0.5601
  723MOL0     C99662   9.654   3.066   1.163 -0.3537  0.2731  0.3685
  723MOL0     C99663   9.627   2.979   1.064 -1.4836 -0.6040 -0.7657
  723MOL0     C99664   9.617   3.039   0.921 -0.2477  0.6980 -0.3599
  723MOL0     C99665   9.598   2.843   1.096  0.2612  0.0298 -0.5728
  723MOL0     C99666   9.585   2.743   0.988  0.0869  0.4613 -0.2835
  723MOL0     O99667   9.596   2.611   1.031 -0.4061  0.2210 -0.0066
  723MOL0     C99668   9.633   2.513   0.942  0.5250 -0.1085  0.7788
  723MOL0     C99669   9.728   2.414   0.982  0.2038  0.0962 -0.5595
  723MOL0     C99670   9.770   2.311   0.907  0.0209  0.4375  0.6305
  723MOL0     C99671   9.722   2.300   0.777  0.4404 -0.3144  0.3329
  723MOL0     O99672   9.782   2.197   0.709 -0.6038  0.8960  0.7061
  723MOL0     C99673   9.725   2.149   0.586  0.1451  0.3275 -0.1886
  723MOL0     C99674   9.806   2.203   0.465 -0.3505  0.5459  0.0883
  723MOL0     C99675   9.947   2.137   0.450  0.1435 -0.4629  0.1185
  723MOL0     C99676   9.936   1.989   0.407 -0.0907  0.5501 -0.3863
  723MOL0     C99677  10.073   1.932   0.396 -0.0955  0.3199  0.0085
  723MOL0     C99678  10.071   1.774   0.396  0.2694  0.4843 -0.0031
  723MOL0     C99679  10.186   1.727   0.304 -0.6591  0.9339  0.0207
  723MOL0     C99680  10.315   1.697   0.379 -0.0929 -0.6891  0.6641
  723MOL0    Cl99681  10.449   1.657   0.264 -0.0759 -0.3010  0.1473
  723MOL0     C99682   9.625   2.382   0.731 -0.3876 -0.5161 -0.0793
  723MOL0     C99683   9.576   2.490   0.813  0.0007  0.3384  0.4666
  723MOL0     O99684   9.588   2.779   0.872 -0.0015 -0.1796 -0.1548
  723MOL0     C99685   9.596   2.815   1.238  0.3020 -1.0175 -0.2869
  723MOL0     C99686   9.607   2.921   1.344  0.0488  0.1906 -0.1653
  723MOL0     N99687   9.390   3.267   1.953  0.8421 -0.1904  0.4815
  723MOL0     N99688   9.344   3.279   2.079 -0.5401  0.0251 -0.3405
  723MOL0     C99689  10.362   3.444   2.769 -0.6108  0.0540 -0.1256
  723MOL0     C99690  10.497   3.486   2.789  0.0279 -0.4733  0.2575
  723MOL0     C99691  10.915   3.559   2.874  0.2126 -0.0649  0.1994
  723MOL0     C99692  10.981   3.622   2.757  0.2190 -0.3085  0.1356
  723MOL0     C99693  11.107   3.683   2.756 -0.1747  0.2388  0.7423
  723MOL0     C99694  11.177   3.672   2.876 -0.0580  0.8517  0.9509
  723MOL0     O99695  11.307   3.709   2.872 -0.1598  0.2977  0.1522
  723MOL0     C99696  11.390   3.650   2.768  1.1004  0.3396 -0.3938
  723MOL0     C99697  11.533   3.625   2.842  0.7357  0.9629  0.4709
  723MOL0     C99698  11.513   3.522   2.955  0.4992 -0.0139 -1.1740
  723MOL0     C99699  11.563   3.577   3.089  0.1560 -0.0094  0.2799
  723MOL0     C99700  11.712   3.605   3.093 -0.7740 -0.4308  0.0126
  723MOL0     C99701  11.833   3.641   3.088  0.0164 -0.6372 -0.6577
  723MOL0     C99702  11.118   3.610   2.989 -0.7205  0.6414  0.4622
  723MOL0     C99703  10.989   3.558   2.991 -0.6778  1.1082 -0.3990
  723MOL0     C99704  10.924   3.512   3.121  0.7411  0.5140  0.7417
  723MOL0     H99705  10.632   3.391   2.493 -1.8019  0.3611 -1.6661
  723MOL0     H99706  10.402   3.323   2.459 -1.6946  0.8601  0.1012
  723MOL0     H99707  10.085   3.428   2.753 -4.0797 -0.8143  0.1139
  723MOL0     H99708  10.136   3.276   2.802 -3.2776  0.2704  0.6310
  723MOL0     H99709  10.000   3.169   2.612  0.6180  0.3738  0.7001
  723MOL0     H99710   9.901   3.271   2.727 -0.3571  4.9621  0.7811
  723MOL0     H99711   9.917   3.455   2.573  0.5378 -0.1999  1.7884
  723MOL0     H99712   9.995   3.356   2.452 -1.6935 -2.6076  0.6321
  723MOL0     H99713   9.815   3.217   2.402 -2.9592  0.1738 -1.5424
  723MOL0     H99714   9.733   3.251   2.543  4.6024 -1.2850  1.8090
  723MOL0     H99715   9.783   3.472   2.330 -0.9233 -1.7300 -1.2342
  723MOL0     H99716   9.696   3.490   2.481  0.6327 -0.8730  1.3637
  723MOL0     H99717   9.611   3.337   2.237 -1.7693 -0.2774 -0.0953
  723MOL0     H99718   9.540   3.303   2.407  0.6366 -0.0044  1.2425
  723MOL0     H99719   9.546   3.584   2.268  1.1404  0.5603  2.2875
  723MOL0     H99720   9.479   3.526   2.417  4.4446 -2.5778  2.2819
  723MOL0     H99721   9.315   3.379   2.305  0.2039  0.1735  0.2646
  723MOL0     H99722   9.296   3.536   2.240  0.8235  0.5290  1.3698
  723MOL0     H99723   9.526   3.554   2.042 -5.1282  3.1631 -1.0929
  723MOL0     H99724   9.604   3.466   1.795  1.1291 -0.2832 -2.0220
  723MOL0     H99725   9.444   3.438   1.721  2.3560  2.3930 -1.0688
  723MOL0     H99726   9.672   3.237   1.776  0.6604 -1.5992 -3.5949
  723MOL0     H99727   9.494   3.181   1.744 -4.4325  2.8271 -1.0355
  723MOL0     H99728   9.471   3.290   1.537 -0.8622 -1.2346 -0.4900
  723MOL0     H99729   9.632   3.355   1.548 -0.9266 -0.2891 -0.2482
  723MOL0     H99730   9.739   3.123   1.555  0.2050 -0.9420  2.3754
  723MOL0     H99731   9.559   3.072   1.547 -2.3804  2.4846 -0.6970
  723MOL0     H99732   9.692   3.164   1.135  4.5007 -1.6374 -0.6941
  723MOL0     H99733   9.513   3.038   0.890  0.1276 -0.1786 -1.6791
  723MOL0     H99734   9.687   2.990   0.853 -1.0975  1.7709 -2.0751
  723MOL0     H99735   9.640   3.146   0.926 -1.0993  1.0717 -2.8505
  723MOL0     H99736   9.770   2.417   1.082 -0.5314  4.9616 -0.1641
  723MOL0     H99737   9.854   2.249   0.937 -0.4462 -1.1842 -1.2330
  723MOL0     H99738   9.743   2.042   0.581 -1.2153  0.0536  0.5855
  723MOL0     H99739   9.623   2.178   0.562  0.2039  0.1077 -0.7322
  723MOL0     H99740   9.745   2.200   0.375  1.8456 -0.3659 -1.4641
  723MOL0     H99741   9.814   2.312   0.459 -3.4400  0.7610 -2.7905
  723MOL0     H99742   9.981   2.137   0.554 -0.5418 -1.1545  0.3530
  723MOL0     H99743  10.006   2.194   0.379 -0.3925 -1.5197 -1.2237
  723MOL0     H99744   9.890   1.982   0.308 -0.3039 -0.5915 -0.2214
  723MOL0     H99745   9.876   1.929   0.476  1.0922  0.0821  0.2620
  723MOL0     H99746  10.123   1.983   0.313  0.6741  1.8522  1.3628
  723MOL0     H99747  10.133   1.958   0.484 -1.1734 -1.9472  1.4955
  723MOL0     H99748   9.980   1.724   0.361  0.8399  0.6063 -1.7517
  723MOL0     H99749  10.084   1.728   0.495  0.7703 -0.7244 -0.6055
  723MOL0     H99750  10.209   1.792   0.219 -1.4011  1.7677  0.4318
  723MOL0     H99751  10.165   1.623   0.279  0.4528 -0.2866  3.5452
  723MOL0     H99752  10.308   1.596   0.422  2.1591 -1.0460  0.3405
  723MOL0     H99753  10.341   1.777   0.448  2.7164 -1.5466  0.7246
  723MOL0     H99754   9.587   2.359   0.632  2.7866  0.0558 -1.5712
  723MOL0     H99755   9.494   2.553   0.781  0.5712  0.8630  0.0410
  723MOL0     H99756   9.581   2.711   1.266 -0.0163 -0.4499  1.8843
  723MOL0     H99757   9.573   2.897   1.444  1.0214  2.1706  0.7120
  723MOL0     H99758  10.292   3.454   2.852  0.8659 -0.5652  1.2570
  723MOL0     H99759  10.509   3.532   2.887  2.0444 -2.3987  0.9797
  723MOL0     H99760  10.914   3.633   2.673  0.6054  1.1210 -0.0154
  723MOL0     H99761  11.149   3.733   2.669 -0.4454  1.1337  1.1099
  723MOL0     H99762  11.345   3.555   2.739  3.6105 -1.2374  0.5212
  723MOL0     H99763  11.410   3.713   2.681 -1.2742  0.2586 -1.0583
  723MOL0     H99764  11.573   3.723   2.868  1.6476  0.7033  0.0934
  723MOL0     H99765  11.606   3.571   2.780  0.6057  0.3898  0.8110
  723MOL0     H99766  11.408   3.497   2.972  1.0258 -0.2734  2.4868
  723MOL0     H99767  11.581   3.441   2.926  2.2206  0.9131  0.0200
  723MOL0     H99768  11.546   3.496   3.160  2.8001  0.1053  1.1341
  723MOL0     H99769  11.509   3.667   3.121  2.8548  1.8976 -0.1752
  723MOL0     H99770  11.932   3.677   3.104 -0.8719  0.6435  2.9947
  723MOL0     H99771  11.172   3.608   3.083 -0.1147  0.4775  0.1174
  723MOL0     H99772  10.846   3.576   3.165 -0.3675  1.6739 -2.6510
  723MOL0     H99773  10.890   3.408   3.121 -0.3222  0.8496  0.3951
  723MOL0     H99774  11.006   3.509   3.194 -0.7276  1.5147  2.5263
  724MOL0     O99775   9.130   6.459   2.160 -0.0308 -0.8681 -0.7660
  724MOL0     C99776   9.146   6.529   2.059 -0.9521 -0.0101  0.7543
  724MOL0     O99777   9.082   6.643   2.035 -0.2966  0.5046  0.5944
  724MOL0     C99778   8.962   6.674   2.107  0.7031 -0.0178 -0.0618
  724MOL0     C99779   8.959   6.679   2.254 -1.0311 -0.2246  0.6522
  724MOL0     C99780   8.840   6.693   2.324  0.1873  0.7692  0.5284
  724MOL0     C99781   8.722   6.714   2.247 -0.0210 -0.0808  0.0457
  724MOL0     O99782   8.597   6.736   2.305 -0.1495  0.5315 -0.5367
  724MOL0     C99783   8.575   6.690   2.447 -0.2506 -0.1409  0.2056
  724MOL0     C99784   8.438   6.756   2.484  0.5877  0.4186  0.9162
  724MOL0     C99785   8.405   6.765   2.636 -0.4626  0.1865 -0.2888
  724MOL0     C99786   8.400   6.620   2.688 -0.1945  0.5641 -0.7268
  724MOL0     C99787   8.356   6.625   2.839 -0.0334  0.5655  0.5570
  724MOL0     C99788   8.364   6.476   2.888  0.1090 -0.8641  0.0820
  724MOL0     C99789   8.350   6.474   3.038 -0.0035 -0.4393  0.3265
  724MOL0     C99790   8.214   6.533   3.086 -0.9943  0.7230  0.5550
  724MOL0     N99791   8.176   6.490   3.222  1.1035  0.1812  0.0269
  724MOL0     C99792   8.066   6.538   3.302 -0.0092  0.1027  1.6960
  724MOL0     C99793   8.056   6.467   3.414 -0.2663 -0.5768  0.4135
  724MOL0     C99794   7.960   6.474   3.532 -0.2288  1.0644 -0.6059
  724MOL0     C99795   7.860   6.362   3.515 -0.4504 -0.0757  0.0597
  724MOL0     C99796   7.760   6.386   3.398  1.0249 -0.7151 -0.6512
  724MOL0     C99797   7.688   6.526   3.415  0.4734  0.2061  0.7023
  724MOL0     O99798   7.626   6.540   3.544 -0.2988  0.7844 -0.0863
  724MOL0     C99799   7.573   6.658   3.568 -0.0813  1.1092 -0.4290
  724MOL0     C99800   7.551   6.685   3.702  0.6313 -0.6329 -0.8442
  724MOL0     C99801   7.509   6.814   3.751  0.1912 -0.5976 -0.2139
  724MOL0     C99802   7.495   6.840   3.903 -0.6632  0.2832  0.6798
  724MOL0     C99803   7.465   6.910   3.659  0.0290 -0.0406  0.5845
  724MOL0     C99804   7.402   7.045   3.694 -0.4245  1.0580 -0.3665
  724MOL0     O99805   7.328   7.113   3.592  0.5048  0.2093 -0.4771
  724MOL0     C99806   7.226   7.200   3.628 -0.6277  1.1825 -0.3501
  724MOL0     C99807   7.172   7.279   3.527  0.3632 -0.8639  0.0118
  724MOL0     C99808   7.074   7.375   3.550 -0.3830 -0.8189 -0.5415
  724MOL0     C99809   7.026   7.395   3.679 -0.5678 -0.5294 -0.1904
  724MOL0     O99810   6.936   7.493   3.706 -0.4804  0.7014  0.4151
  724MOL0     C99811   6.990   7.629   3.716 -0.8202  0.2007  1.1623
  724MOL0     C99812   6.903   7.712   3.808  0.8551 -0.6196  0.2729
  724MOL0     C99813   6.896   7.654   3.955 -0.1892 -0.1417  0.4709
  724MOL0     C99814   6.867   7.759   4.050 -0.9925 -0.1871 -1.1773
  724MOL0     C99815   6.864   7.719   4.199 -0.1693 -0.3165 -0.0856
  724MOL0     C99816   6.837   7.837   4.309 -0.3712 -0.5925 -0.6958
  724MOL0     C99817   6.935   7.963   4.287 -0.1453  0.0620 -0.6174
  724MOL0     C99818   6.941   8.062   4.399  0.2860 -0.3459  0.5228
  724MOL0    Cl99819   7.075   8.179   4.373  0.4309 -0.0075 -0.5224
  724MOL0     C99820   7.061   7.312   3.773 -0.1382  0.6483 -0.6211
  724MOL0     C99821   7.164   7.219   3.757  0.8724  0.5651  0.2552
  724MOL0     O99822   7.423   7.088   3.806 -0.1745  0.7670 -0.1046
  724MOL0     C99823   7.476   6.881   3.522 -0.0357 -0.3926 -0.4425
  724MOL0     C99824   7.543   6.760   3.482  0.4261 -0.2982 -0.3068
  724MOL0     N99825   8.167   6.382   3.404  0.0730  1.1592 -0.2604
  724MOL0     N99826   8.225   6.379   3.290 -0.4360  1.0514  0.1211
  724MOL0     C99827   8.726   6.714   2.113 -0.7724  0.0509  0.6490
  724MOL0     C99828   8.845   6.696   2.044 -0.7123  0.0586  0.2200
  724MOL0     C99829   9.247   6.493   1.952 -0.5147  0.7686 -0.5473
  724MOL0     C99830   9.257   6.576   1.845 -0.1543  0.6628  0.0356
  724MOL0     C99831   9.359   6.559   1.754 -0.1019 -0.1682  0.6581
  724MOL0     C99832   9.452   6.451   1.765  0.4004  0.7640  0.3220
  724MOL0     O99833   9.550   6.428   1.671 -0.6782  0.5233 -0.1853
  724MOL0     C99834   9.586   6.545   1.593  0.4432  0.5076  0.0158
  724MOL0     C99835   9.706   6.533   1.498  0.0623 -0.0809 -1.1087
  724MOL0     C99836   9.691   6.426   1.396  0.4524 -0.1114  0.1697
  724MOL0     C99837   9.591   6.464   1.289  0.0658 -0.2542 -0.1397
  724MOL0     C99838   9.625   6.592   1.219 -0.3283  0.4664 -1.5023
  724MOL0     C99839   9.661   6.696   1.172 -0.1008 -0.7014 -0.0523
  724MOL0     C99840   9.436   6.363   1.869  0.4908 -0.3216 -0.3936
  724MOL0     C99841   9.342   6.387   1.969  0.4060 -0.2853  0.4358
  724MOL0     C99842   9.339   6.293   2.084 -0.3547  0.1683  0.2145
  724MOL0     H99843   9.050   6.684   2.313 -0.5478 -1.6121  0.0620
  724MOL0     H99844   8.841   6.697   2.432 -0.8897  2.5841  0.5072
  724MOL0     H99845   8.652   6.729   2.513  1.4979 -0.1835 -1.6804
  724MOL0     H99846   8.554   6.583   2.455  1.2410 -0.5828 -1.0746
  724MOL0     H99847   8.441   6.857   2.442  3.6640  0.8712  1.9530
  724MOL0     H99848   8.364   6.696   2.430  1.8788 -1.4629  1.1616
  724MOL0     H99849   8.491   6.813   2.684  0.5232 -1.4485 -0.3544
  724MOL0     H99850   8.310   6.816   2.656 -2.0416 -1.1563 -3.6280
  724MOL0     H99851   8.329   6.558   2.632 -0.1267 -0.9779  0.8109
  724MOL0     H99852   8.500   6.577   2.684 -1.0344 -1.5042 -0.8875
  724MOL0     H99853   8.252   6.658   2.839 -0.9095 -1.8438 -1.5000
  724MOL0     H99854   8.415   6.706   2.882 -1.5503  1.6577  0.6430
  724MOL0     H99855   8.282   6.420   2.843 -1.1477  0.4632  0.6275
  724MOL0     H99856   8.467   6.442   2.873  0.1903 -0.5688 -0.0461
  724MOL0     H99857   8.427   6.541   3.076 -0.6718  3.6632 -4.5735
  724MOL0     H99858   8.366   6.366   3.048  1.0976 -0.4377 -1.1567
  724MOL0     H99859   8.217   6.642   3.086  0.6946  0.7555  2.5629
  724MOL0     H99860   8.142   6.493   3.015 -2.1602  0.3245  1.9147
  724MOL0     H99861   8.017   6.632   3.281 -0.5872 -0.2102  1.6105
  724MOL0     H99862   7.906   6.567   3.552 -3.9129 -1.4897  2.8002
  724MOL0     H99863   8.003   6.450   3.629 -1.2974 -2.9366 -0.9397
  724MOL0     H99864   7.920   6.273   3.497 -0.3667  0.3002 -1.6307
  724MOL0     H99865   7.805   6.354   3.610 -0.2775 -1.6395  0.0410
  724MOL0     H99866   7.817   6.384   3.305 -1.2671  0.3730 -2.1769
  724MOL0     H99867   7.678   6.313   3.403 -2.1857  2.4083 -2.8682
  724MOL0     H99868   7.759   6.608   3.395 -0.9933  1.9107  2.1618
  724MOL0     H99869   7.610   6.532   3.339 -0.6008  3.4266  1.8819
  724MOL0     H99870   7.571   6.597   3.763  0.4390 -3.1387 -4.1293
  724MOL0     H99871   7.392   6.870   3.924 -1.4790 -0.9965 -1.2321
  724MOL0     H99872   7.567   6.910   3.945  0.3064  0.2709 -0.8682
  724MOL0     H99873   7.518   6.751   3.961 -3.3029 -0.3673  0.8708
  724MOL0     H99874   7.216   7.252   3.432  1.3378 -1.6887  0.6701
  724MOL0     H99875   7.040   7.429   3.462  1.4120  2.2001  0.4576
  724MOL0     H99876   7.093   7.618   3.752  0.4394  0.6784 -1.9540
  724MOL0     H99877   7.006   7.678   3.620  2.2141 -2.0193  0.3632
  724MOL0     H99878   6.938   7.815   3.818 -2.8852  0.6567  1.8763
  724MOL0     H99879   6.806   7.718   3.758  1.2720 -2.0246 -0.7882
  724MOL0     H99880   6.993   7.619   3.989  0.8845  0.8300 -1.3961
  724MOL0     H99881   6.824   7.572   3.945 -1.2441  0.6857  1.0436
  724MOL0     H99882   6.768   7.799   4.025 -0.4166  2.8510  0.7387
  724MOL0     H99883   6.942   7.839   4.047 -4.3469  3.3457 -0.3689
  724MOL0     H99884   6.783   7.645   4.199  0.6726 -1.3883  3.0810
  724MOL0     H99885   6.953   7.664   4.230 -0.4752 -1.8279 -1.7266
  724MOL0     H99886   6.861   7.802   4.409 -1.2173  1.2518  0.1970
  724MOL0     H99887   6.733   7.872   4.301  0.2898  1.5259 -0.5743
  724MOL0     H99888   6.896   8.007   4.195 -1.2738 -1.8128 -1.1037
  724MOL0     H99889   7.038   7.932   4.269  0.3669 -0.4395  2.5523
  724MOL0     H99890   6.975   8.011   4.489  3.1060 -0.7575 -0.6872
  724MOL0     H99891   6.839   8.102   4.397 -1.1465 -3.6462 -0.2010
  724MOL0     H99892   7.009   7.331   3.866 -0.9564  3.3653 -1.5249
  724MOL0     H99893   7.192   7.141   3.827  1.2438 -0.7826 -1.3496
  724MOL0     H99894   7.444   6.955   3.450 -0.4573  1.4078  1.5156
  724MOL0     H99895   7.544   6.734   3.376 -0.9029 -2.4773  0.1390
  724MOL0     H99896   8.632   6.727   2.059 -0.6346 -0.5785  0.2390
  724MOL0     H99897   8.846   6.691   1.936  0.3381 -0.0099  0.2301
  724MOL0     H99898   9.189   6.658   1.823 -1.3446 -0.5775 -1.0701
  724MOL0     H99899   9.385   6.641   1.689 -3.2889 -0.0792 -0.7113
  724MOL0     H99900   9.507   6.584   1.529  0.0764 -1.3722 -0.7470
  724MOL0     H99901   9.624   6.625   1.657  2.4829 -1.8068  1.8899
  724MOL0     H99902   9.791   6.508   1.563 -1.7967  0.4336  1.7191
  724MOL0     H99903   9.723   6.634   1.460  1.4440  0.4292  0.6910
  724MOL0     H99904   9.790   6.415   1.350  2.6894  0.2659  4.3986
  724MOL0     H99905   9.654   6.331   1.437 -0.8008  0.2995  0.0397
  724MOL0     H99906   9.487   6.483   1.319  0.1130 -1.6097  0.9668
  724MOL0     H99907   9.594   6.391   1.208 -0.5204 -0.1246 -0.2873
  724MOL0     H99908   9.684   6.792   1.130  1.1687 -0.5317  0.9734
  724MOL0     H99909   9.509   6.282   1.873  0.3703 -0.3859  0.9367
  724MOL0     H99910   9.381   6.334   2.177  0.1745 -2.3944  1.1696
  724MOL0     H99911   9.233   6.265   2.089 -0.0865 -0.9904 -0.4526
  724MOL0     H99912   9.399   6.204   2.066 -0.7604  0.2023 -1.4484
  725MOL0     O99913   0.926   7.602  10.681  0.0991 -0.0246 -0.2461
  725MOL0     C99914   0.874   7.511  10.619 -0.3890 -0.7546  0.5757
  725MOL0     O99915   0.944   7.418  10.539  0.1114 -0.3435 -0.0999
  725MOL0     C99916   1.073   7.400  10.557 -0.3565  0.0630  0.0985
  725MOL0     C99917   1.111   7.319  10.663 -0.0614  0.0984 -0.6026
  725MOL0     C99918   1.246   7.286  10.657 -0.6878  0.3895  0.8487
  725MOL0     C99919   1.339   7.334  10.561  0.4190  0.1199 -0.4052
  725MOL0     O99920   1.458   7.283  10.574 -0.2808 -0.1385  0.2708
  725MOL0     C99921   1.562   7.368  10.525 -0.0259 -0.6383 -0.2415
  725MOL0     C99922   1.697   7.334  10.603 -0.2686 -0.2707 -0.3211
  725MOL0     C99923   1.729   7.185  10.580  0.4263  0.2017 -1.0203
  725MOL0     C99924   1.810   7.170  10.447 -0.3451 -0.7584 -0.0621
  725MOL0     C99925   1.884   7.036  10.418 -0.7824 -0.3138  0.4077
  725MOL0     C99926   1.946   7.051  10.278  0.5856  0.8652  0.2072
  725MOL0     C99927   2.035   6.925  10.244 -0.9817  0.6246 -0.2434
  725MOL0     C99928   2.056   6.920  10.091 -0.6818 -1.0337  0.0271
  725MOL0     N99929   2.146   6.824  10.037  0.1743 -0.4930 -0.0794
  725MOL0     C99930   2.198   6.709  10.101  0.0574  0.0718 -1.3042
  725MOL0     C99931   2.282   6.655  10.005 -0.2998 -0.6837 -0.3975
  725MOL0     C99932   2.386   6.549  10.045 -0.0126 -0.3082  0.4932
  725MOL0     C99933   2.331   6.405  10.021 -0.3910  0.2108  0.0308
  725MOL0     C99934   2.327   6.359   9.871 -0.0395  0.3867 -0.2450
  725MOL0     C99935   2.468   6.303   9.827 -0.0920  0.1000  0.5695
  725MOL0     O99936   2.470   6.242   9.696 -0.4490 -0.4962 -0.5239
  725MOL0     C99937   2.395   6.132   9.665  0.0241 -0.9116 -0.3865
  725MOL0     C99938   2.380   6.112   9.533  1.0226  0.4283 -0.2462
  725MOL0     C99939   2.317   5.995   9.476 -0.4383  0.8522 -0.3961
  725MOL0     C99940   2.309   5.979   9.328 -1.5920 -1.0015  0.3293
  725MOL0     C99941   2.246   5.901   9.569 -0.0910 -0.1046  0.5120
  725MOL0     C99942   2.170   5.779   9.526 -0.6795 -0.2597 -0.1988
  725MOL0     O99943   2.098   5.714   9.616  0.1977  0.0296 -0.3884
  725MOL0     C99944   2.054   5.584   9.586  0.1400  1.0202 -0.0374
  725MOL0     C99945   1.948   5.566   9.495  1.1348  0.0950 -0.2283
  725MOL0     C99946   1.875   5.443   9.482 -0.4152 -0.1997 -0.0851
  725MOL0     C99947   1.928   5.344   9.551 -0.2418  0.3045 -0.4518
  725MOL0     O99948   1.881   5.213   9.566 -0.1415  0.0761 -0.1430
  725MOL0     C99949   1.769   5.182   9.485  0.7714  0.2527 -0.1733
  725MOL0     C99950   1.711   5.050   9.518 -0.6139  0.0457  0.4784
  725MOL0     C99951   1.604   5.007   9.420  1.0438  0.5745 -0.3049
  725MOL0     C99952   1.575   4.857   9.406 -0.1531  0.4222 -0.6357
  725MOL0     C99953   1.464   4.812   9.310 -0.1955 -0.0135 -0.6265
  725MOL0     C99954   1.517   4.802   9.166  0.9266 -0.4828  0.0857
  725MOL0     C99955   1.418   4.719   9.089  0.3348  0.1789 -0.6822
  725MOL0     C99956   1.470   4.697   8.953  0.0702  0.7682  0.0292
  725MOL0    Cl99957   1.620   4.602   8.953 -0.2645 -0.4456 -0.1288
  725MOL0     C99958   2.029   5.358   9.648 -0.2320  0.3505 -0.1165
  725MOL0     C99959   2.098   5.481   9.671 -0.3348 -0.3727  0.1990
  725MOL0     O99960   2.184   5.744   9.409 -0.5006 -0.6672  0.6232
  725MOL0     C99961   2.253   5.937   9.701 -0.4394  0.2623  0.2881
  725MOL0     C99962   2.333   6.045   9.751  0.2699  0.2808 -0.8640
  725MOL0     N99963   2.268   6.727   9.887 -0.5631  0.4325 -0.4863
  725MOL0     N99964   2.186   6.830   9.905  0.2413  0.6767 -0.3796
  725MOL0     C99965   1.290   7.416  10.461 -0.1171  0.2621 -0.9481
  725MOL0     C99966   1.153   7.447  10.458  0.1289  0.0542  0.0995
  725MOL0     C99967   0.725   7.508  10.608  0.4812  0.1746 -0.2650
  725MOL0     C99968   0.663   7.415  10.519  0.7813 -1.2496  0.2247
  725MOL0     C99969   0.523   7.414  10.500 -1.0720 -0.3622  0.3100
  725MOL0     C99970   0.443   7.507  10.575 -0.1516  0.9531  0.2711
  725MOL0     O99971   0.303   7.483  10.568 -0.1761 -0.5746  0.2506
  725MOL0     C99972   0.207   7.594  10.572 -1.2253 -0.8545  0.0152
  725MOL0     C99973   0.075   7.538  10.540 -0.5810  0.3503 -0.5355
  725MOL0     C99974   0.065   7.486  10.400 -0.0314  0.2875  1.0309
  725MOL0     C99975  -0.077   7.408  10.380 -1.0559 -0.0539  0.6560
  725MOL0     C99976  -0.198   7.489  10.366  0.4847  0.5930  0.0521
  725MOL0     C99977  -0.299   7.564  10.370  0.1735  0.2125 -0.0013
  725MOL0     C99978   0.495   7.599  10.654 -0.5037 -0.4028 -0.6855
  725MOL0     C99979   0.637   7.601  10.675 -0.3168  0.2336 -0.6018
  725MOL0     C99980   0.681   7.716  10.769 -0.4767  1.2999 -0.4680
  725MOL0     H99981   1.042   7.268  10.730  0.0682  0.8655  0.1351
  725MOL0     H99982   1.290   7.221  10.732 -0.7223 -2.6255 -1.5917
  725MOL0     H99983   1.533   7.471  10.549 -0.7369 -0.5522 -1.3946
  725MOL0     H99984   1.597   7.360  10.421  1.2137 -1.4893  0.2201
  725MOL0     H99985   1.775   7.410  10.594 -0.7899  0.3972  0.7048
  725MOL0     H99986   1.680   7.334  10.711  1.3439  0.1337 -0.0393
  725MOL0     H99987   1.793   7.132  10.651 -0.9531  0.8639  0.7836
  725MOL0     H99988   1.643   7.117  10.577 -2.2511  2.9395  3.1312
  725MOL0     H99989   1.749   7.199  10.361 -0.6049 -3.0551 -0.7239
  725MOL0     H99990   1.892   7.242  10.460 -0.1850 -0.4757 -2.2261
  725MOL0     H99991   1.811   6.956  10.406 -1.3126 -0.2081  2.5299
  725MOL0     H99992   1.950   6.995  10.494 -0.8787 -3.1206 -0.8872
  725MOL0     H99993   1.862   7.061  10.209  1.1229  2.9258 -0.2080
  725MOL0     H99994   1.996   7.148  10.285 -0.8536  1.8179 -1.8254
  725MOL0     H99995   1.979   6.837  10.277 -1.2268  0.9958  0.3578
  725MOL0     H99996   2.127   6.934  10.303 -1.3682  0.9107  0.3307
  725MOL0     H99997   1.968   6.898  10.030  0.3140 -4.0233 -0.5070
  725MOL0     H99998   2.102   7.014  10.059  2.2834 -1.1997  3.1280
  725MOL0     H99999   2.201   6.677  10.204 -0.9634  0.2899 -1.1948
  725MOL0     H    0   2.401   6.568  10.151  2.9473  0.9795 -0.0573
  725MOL0     H    1   2.479   6.562   9.989  2.2491  3.4868  4.4900
  725MOL0     H    2   2.388   6.331  10.078 -0.0457  0.9613  0.6759
  725MOL0     H    3   2.234   6.394  10.069 -0.6830  0.8724 -0.3878
  725MOL0     H    4   2.258   6.276   9.855  2.6641 -1.9692 -0.4102
  725MOL0     H    5   2.308   6.449   9.811 -1.6866 -0.7269 -1.4684
  725MOL0     H    6   2.545   6.378   9.841 -0.0522 -0.1334  1.7129
  725MOL0     H    7   2.502   6.229   9.900  1.7182 -0.0356 -0.3639
  725MOL0     H    8   2.432   6.170   9.457 -0.4966 -1.6377 -3.0501
  725MOL0     H    9   2.365   6.055   9.271  2.4044 -4.9160 -1.5559
  725MOL0     H   10   2.203   5.967   9.303 -2.3334  3.2184  0.6908
  725MOL0     H   11   2.361   5.885   9.310  2.5404  1.5529 -3.2459
  725MOL0     H   12   1.902   5.652   9.448 -4.7462 -2.3007  0.2625
  725MOL0     H   13   1.783   5.423   9.428  1.3559 -2.6951 -2.4414
  725MOL0     H   14   1.684   5.247   9.505 -0.5323 -1.4983  0.2042
  725MOL0     H   15   1.805   5.182   9.382  1.1567 -0.8919 -0.0527
  725MOL0     H   16   1.800   4.987   9.523 -0.7992 -0.2100  0.5984
  725MOL0     H   17   1.661   5.054   9.615  0.1347  2.3400  0.8339
  725MOL0     H   18   1.636   5.036   9.319  0.3467 -0.8312 -0.9636
  725MOL0     H   19   1.509   5.050   9.452  0.7444 -2.0967  3.0615
  725MOL0     H   20   1.532   4.826   9.502  2.0134 -1.2954 -0.1537
  725MOL0     H   21   1.668   4.803   9.387 -0.2183  0.6858 -1.7295
  725MOL0     H   22   1.444   4.711   9.348 -2.4837  1.0294  1.2150
  725MOL0     H   23   1.378   4.875   9.332 -0.4495 -0.1648 -1.1687
  725MOL0     H   24   1.611   4.746   9.165  0.0595 -1.9808 -1.0643
  725MOL0     H   25   1.527   4.903   9.125  3.0268  0.2466  2.1729
  725MOL0     H   26   1.325   4.777   9.079  0.0419  0.0466  0.8922
  725MOL0     H   27   1.403   4.623   9.139  1.7054  0.0670 -0.4531
  725MOL0     H   28   1.483   4.787   8.892  0.5655  0.2394 -0.6675
  725MOL0     H   29   1.391   4.642   8.901  0.7307 -1.8626  1.6516
  725MOL0     H   30   2.065   5.281   9.715 -0.9704  0.7301  0.7349
  725MOL0     H   31   2.186   5.479   9.736  0.0370  1.6431 -0.1996
  725MOL0     H   32   2.206   5.867   9.769  0.8748 -2.3369 -1.3079
  725MOL0     H   33   2.340   6.054   9.859 -0.9142 -0.4766 -0.7008
  725MOL0     H   34   1.352   7.464  10.386  0.4591  0.3549 -0.4113
  725MOL0     H   35   1.112   7.508  10.379 -0.7144 -0.4591  0.1285
  725MOL0     H   36   0.719   7.337  10.469 -2.1841 -2.7885 -0.9240
  725MOL0     H   37   0.483   7.343  10.428 -0.1538 -0.2458 -0.3384
  725MOL0     H   38   0.204   7.634  10.674 -0.0600  2.0870 -0.9920
  725MOL0     H   39   0.238   7.679  10.510 -0.7383 -0.8383  0.2788
  725MOL0     H   40   0.010   7.627  10.547  1.8785  2.1904  0.1116
  725MOL0     H   41   0.054   7.463  10.617  1.4672 -3.1976 -3.1292
  725MOL0     H   42   0.063   7.568  10.327 -0.7071  2.0572  2.9594
  725MOL0     H   43   0.144   7.412  10.381  0.2623  0.6915  0.6478
  725MOL0     H   44  -0.094   7.350  10.471  1.5776 -2.2171 -0.1382
  725MOL0     H   45  -0.062   7.344  10.293  1.8044  0.2481  0.8465
  725MOL0     H   46  -0.376   7.638  10.382  3.8108  4.4256 -0.1023
  725MOL0     H   47   0.441   7.672  10.713  0.7034 -2.4241  3.2860
  725MOL0     H   48   0.741   7.682  10.854 -2.8965  3.0052  2.1624
  725MOL0     H   49   0.724   7.801  10.716  0.4757  0.1891 -1.5108
  725MOL0     H   50   0.596   7.764  10.820  0.5659  0.0858  2.6401
  726MOL0     O   51   6.085   4.589   9.104  0.0682 -1.1438 -0.4843
  726MOL0     C   52   6.073   4.466   9.128 -0.5454  0.1706  0.0756
  726MOL0     O   53   6.180   4.393   9.189  0.3907  0.2476 -0.0196
  726MOL0     C   54   6.264   4.457   9.270  0.2581  0.2484  0.4034
  726MOL0     C   55   6.223   4.553   9.367  0.6832  0.1820  0.7556
  726MOL0     C   56   6.302   4.612   9.458  0.7478 -0.9568 -0.3135
  726MOL0     C   57   6.439   4.588   9.453 -0.0499  0.9420  0.0562
  726MOL0     O   58   6.527   4.645   9.540  0.3122  0.7267 -0.3059
  726MOL0     C   59   6.493   4.785   9.571 -0.9961  0.1917  0.2165
  726MOL0     C   60   6.601   4.864   9.654 -0.1714  0.4634 -0.8511
  726MOL0     C   61   6.603   5.013   9.614 -1.1519  0.6768  0.2977
  726MOL0     C   62   6.722   5.078   9.691 -0.3748 -0.4069 -0.0630
  726MOL0     C   63   6.692   5.217   9.755  0.3083  0.3123  1.0181
  726MOL0     C   64   6.637   5.313   9.650  0.2819  0.6898 -0.1005
  726MOL0     C   65   6.662   5.456   9.692  0.0969 -0.2364  0.0420
  726MOL0     C   66   6.726   5.537   9.584 -0.2704  0.3277  0.1325
  726MOL0     N   67   6.650   5.551   9.464 -0.9175  0.7522  0.1131
  726MOL0     C   68   6.652   5.469   9.352 -0.3440  0.3649  0.0713
  726MOL0     C   69   6.564   5.515   9.262 -0.9954 -0.4900 -1.4235
  726MOL0     C   70   6.540   5.477   9.128  0.1958 -0.4893 -1.1022
  726MOL0     C   71   6.645   5.485   9.025 -0.0186 -0.5192  0.4007
  726MOL0     C   72   6.642   5.617   8.948  0.4125 -0.6669 -0.2995
  726MOL0     C   73   6.669   5.738   9.029 -0.1998 -0.1248  0.9010
  726MOL0     O   74   6.696   5.842   8.929  0.5118 -1.0709 -0.2071
  726MOL0     C   75   6.679   5.972   8.967 -0.4972 -0.4545  0.9805
  726MOL0     C   76   6.711   6.076   8.867 -0.2371 -0.1043 -0.8810
  726MOL0     C   77   6.706   6.214   8.902 -0.1794 -0.1343  0.3119
  726MOL0     C   78   6.749   6.314   8.805  0.0656  0.1350 -0.8066
  726MOL0     C   79   6.647   6.258   9.021 -0.0507  0.3634 -0.7362
  726MOL0     C   80   6.605   6.395   9.063  0.9164  0.4715  0.6371
  726MOL0     O   81   6.583   6.414   9.190 -0.4853  0.1205 -0.0495
  726MOL0     C   82   6.550   6.530   9.246 -0.2921 -1.2087 -0.5335
  726MOL0     C   83   6.425   6.593   9.227 -0.1037  0.4997  0.0947
  726MOL0     C   84   6.392   6.715   9.284 -0.2924  0.1662  1.0188
  726MOL0     C   85   6.485   6.771   9.375 -0.5399 -0.4058  0.6312
  726MOL0     O   86   6.460   6.897   9.429  0.4415  0.6357 -0.8903
  726MOL0     C   87   6.325   6.932   9.472  0.3587 -0.2225 -0.1521
  726MOL0     C   88   6.324   7.054   9.550 -0.4121  1.3354  0.3766
  726MOL0     C   89   6.185   7.124   9.516 -0.1989  0.0308 -0.1375
  726MOL0     C   90   6.172   7.258   9.591 -0.1029 -0.2833  0.5355
  726MOL0     C   91   6.262   7.366   9.536  0.7505  0.2895 -0.9654
  726MOL0     C   92   6.228   7.403   9.396 -0.1685 -0.1492 -0.4629
  726MOL0     C   93   6.084   7.466   9.381  0.6266  0.7727  0.4664
  726MOL0     C   94   6.073   7.541   9.245 -0.8212  0.5486 -0.8954
  726MOL0    Cl   95   5.898   7.571   9.209  0.1622  0.3914 -0.2365
  726MOL0     C   96   6.616   6.713   9.395  0.4489 -0.3655  0.2169
  726MOL0     C   97   6.644   6.593   9.333 -0.1078  0.6861 -0.8066
  726MOL0     O   98   6.581   6.478   8.974 -0.7403 -0.2572  0.1871
  726MOL0     C   99   6.620   6.154   9.120 -0.1334  0.1520  0.1483
  726MOL0     C  100   6.636   6.014   9.091 -0.7260 -0.0312  0.6351
  726MOL0     N  101   6.512   5.635   9.319 -0.5131  0.2954 -0.1288
  726MOL0     N  102   6.564   5.652   9.439 -0.1550  0.1446  0.2813
  726MOL0     C  103   6.486   4.484   9.367 -0.2187 -0.7192  0.5246
  726MOL0     C  104   6.390   4.404   9.285 -1.1455  0.5345 -0.0903
  726MOL0     C  105   5.960   4.379   9.088  0.2598  0.8418 -0.2106
  726MOL0     C  106   5.922   4.272   9.174 -0.2159 -0.0042 -0.0810
  726MOL0     C  107   5.809   4.191   9.142 -0.3435 -0.1991  0.1124
  726MOL0     C  108   5.745   4.199   9.018 -0.7842 -0.3843  0.6617
  726MOL0     O  109   5.645   4.113   8.992  0.2447  0.3206 -0.4822
  726MOL0     C  110   5.559   4.134   8.883  0.0621  0.6324  1.4223
  726MOL0     C  111   5.473   4.264   8.880 -0.0669  0.1607  0.0667
  726MOL0     C  112   5.368   4.277   8.997  0.0107 -0.7376  0.9273
  726MOL0     C  113   5.225   4.322   8.954  0.7334  0.2908 -0.1126
  726MOL0     C  114   5.226   4.442   8.873 -1.1863  0.5516 -0.5430
  726MOL0     C  115   5.226   4.539   8.805 -0.3145 -0.5918 -1.3879
  726MOL0     C  116   5.793   4.305   8.930  0.6131  0.5308  0.6553
  726MOL0     C  117   5.893   4.400   8.970  0.8896 -0.0177  0.1553
  726MOL0     C  118   5.921   4.511   8.872 -0.7511 -0.7226  0.3836
  726MOL0     H  119   6.118   4.579   9.379 -0.0345 -0.9993 -2.1398
  726MOL0     H  120   6.261   4.666   9.542  2.9280 -0.7817  0.7031
  726MOL0     H  121   6.408   4.769   9.639  0.7369  0.0840  2.4752
  726MOL0     H  122   6.488   4.840   9.477  2.0752  3.1684  1.5757
  726MOL0     H  123   6.595   4.842   9.761  0.3995 -1.8323 -1.2366
  726MOL0     H  124   6.701   4.826   9.628 -0.6235 -0.8730 -0.7126
  726MOL0     H  125   6.606   5.036   9.507  0.6553 -0.1355  0.1366
  726MOL0     H  126   6.505   5.050   9.647 -1.3385  2.0207 -1.5726
  726MOL0     H  127   6.760   5.002   9.760 -0.9100 -2.0152 -1.4644
  726MOL0     H  128   6.800   5.090   9.616 -0.3200 -0.3643  0.0010
  726MOL0     H  129   6.793   5.238   9.791  1.8572 -0.0343 -2.7070
  726MOL0     H  130   6.619   5.205   9.836  0.5045 -3.4175  0.8261
  726MOL0     H  131   6.709   5.291   9.571  2.3501 -0.1961  1.9389
  726MOL0     H  132   6.535   5.291   9.617  0.4764  1.8184 -1.5573
  726MOL0     H  133   6.728   5.452   9.779  1.0089 -1.4784 -0.6751
  726MOL0     H  134   6.566   5.500   9.721 -1.4243 -0.3551 -4.1428
  726MOL0     H  135   6.724   5.638   9.627 -1.4715  0.9655 -1.2999
  726MOL0     H  136   6.825   5.494   9.565 -0.6948 -0.5426 -0.1849
  726MOL0     H  137   6.719   5.389   9.323  0.7129  0.9846  0.7340
  726MOL0     H  138   6.458   5.533   9.082  0.4914  1.1317  0.2672
  726MOL0     H  139   6.507   5.373   9.138 -0.8304 -0.2310 -1.5801
  726MOL0     H  140   6.744   5.473   9.070  0.7533  0.4760 -0.9576
  726MOL0     H  141   6.637   5.405   8.951 -0.2408  0.2216 -0.3851
  726MOL0     H  142   6.716   5.610   8.868 -2.6366 -1.6233 -3.2676
  726MOL0     H  143   6.547   5.616   8.893 -0.3994 -0.6949  1.0586
  726MOL0     H  144   6.574   5.755   9.080 -1.9179 -4.0793 -0.5971
  726MOL0     H  145   6.752   5.720   9.098 -0.0321 -3.3144  0.0029
  726MOL0     H  146   6.762   6.042   8.778 -0.3650 -2.1806 -0.2276
  726MOL0     H  147   6.820   6.386   8.847 -1.9279  2.3614 -1.0602
  726MOL0     H  148   6.666   6.369   8.761 -1.2972 -0.7442  0.5899
  726MOL0     H  149   6.813   6.274   8.725  1.4769 -0.8574  0.7680
  726MOL0     H  150   6.366   6.546   9.150  0.6296  0.6641 -0.5802
  726MOL0     H  151   6.301   6.756   9.242  0.6859 -0.8864 -2.5336
  726MOL0     H  152   6.262   6.945   9.384 -1.5959 -0.5670  1.1260
  726MOL0     H  153   6.282   6.848   9.529  0.3613  0.6773  1.2283
  726MOL0     H  154   6.327   7.015   9.652  1.2451 -1.8410 -0.7492
  726MOL0     H  155   6.406   7.125   9.534  0.9770  0.0377  1.4086
  726MOL0     H  156   6.110   7.057   9.559  1.3373 -0.0199  2.7228
  726MOL0     H  157   6.171   7.140   9.409 -1.5534 -0.5120 -0.0613
  726MOL0     H  158   6.190   7.238   9.697  1.3669 -1.1007  0.1629
  726MOL0     H  159   6.069   7.294   9.587 -0.2612 -0.5670 -4.5055
  726MOL0     H  160   6.267   7.452   9.604  3.4671 -1.5633  1.4268
  726MOL0     H  161   6.366   7.334   9.548 -0.5473 -3.1169  5.0633
  726MOL0     H  162   6.254   7.322   9.328  1.4525  0.2392 -0.3558
  726MOL0     H  163   6.299   7.481   9.369 -1.9642  1.2947 -1.2219
  726MOL0     H  164   6.067   7.522   9.473 -0.0538  0.7294  0.3731
  726MOL0     H  165   6.009   7.388   9.372  1.5304 -0.7874  4.3389
  726MOL0     H  166   6.105   7.495   9.150 -0.0309 -0.2696 -0.2502
  726MOL0     H  167   6.140   7.626   9.261 -1.0274  0.1777  2.7535
  726MOL0     H  168   6.689   6.758   9.461 -0.1829 -0.9404  1.3448
  726MOL0     H  169   6.739   6.546   9.356 -0.1005  0.9852 -0.2400
  726MOL0     H  170   6.578   6.174   9.218  0.4136 -1.3478  0.7264
  726MOL0     H  171   6.631   5.946   9.176 -0.7472  1.9083  2.2506
  726MOL0     H  172   6.590   4.453   9.361  0.6349  0.8489  4.1952
  726MOL0     H  173   6.438   4.328   9.224  0.0534  0.5877  0.7702
  726MOL0     H  174   5.973   4.260   9.270  0.0481 -0.7503 -0.3068
  726MOL0     H  175   5.773   4.133   9.227 -1.9057  0.3816 -0.1128
  726MOL0     H  176   5.621   4.132   8.793  1.0092  0.6241  2.0538
  726MOL0     H  177   5.488   4.051   8.882 -0.7075  1.1231  4.4252
  726MOL0     H  178   5.418   4.247   8.786  2.0022  2.7152 -1.7598
  726MOL0     H  179   5.529   4.356   8.862 -0.4983  0.0090 -2.5152
  726MOL0     H  180   5.344   4.178   9.038 -1.0463 -1.4593 -1.2821
  726MOL0     H  181   5.396   4.341   9.081  0.4792 -2.9268  2.5617
  726MOL0     H  182   5.164   4.331   9.045  0.5416 -1.6695  0.0023
  726MOL0     H  183   5.180   4.242   8.895 -1.4441 -1.6444  3.7408
  726MOL0     H  184   5.218   4.635   8.757  0.8080 -1.0939 -2.6320
  726MOL0     H  185   5.744   4.317   8.834  0.8803 -1.1959  0.2734
  726MOL0     H  186   5.857   4.499   8.784 -4.1896  4.6259  1.6539
  726MOL0     H  187   5.888   4.609   8.908 -0.0557  0.4471 -1.9169
  726MOL0     H  188   6.028   4.520   8.854 -1.0369  3.1378 -0.1469
  727MOL0     O  189   2.956  10.609   7.223 -0.0377  0.4070 -0.3123
  727MOL0     C  190   3.071  10.611   7.268  0.3356 -0.6700 -0.6838
  727MOL0     O  191   3.094  10.615   7.398 -1.2755 -0.4505  0.5391
  727MOL0     C  192   2.993  10.616   7.484 -0.2326 -0.5071 -1.3484
  727MOL0     C  193   2.929  10.732   7.525 -0.4012 -0.2465  0.1966
  727MOL0     C  194   2.832  10.741   7.625 -0.9932 -0.2651 -0.0274
  727MOL0     C  195   2.809  10.623   7.688  0.2813  0.5327 -0.5061
  727MOL0     O  196   2.701  10.610   7.782 -0.1282 -0.3241 -0.1647
  727MOL0     C  197   2.731  10.527   7.893 -0.5434 -0.5908  0.2115
  727MOL0     C  198   2.602  10.535   7.978 -0.2568  0.1299 -0.9877
  727MOL0     C  199   2.592  10.411   8.081 -0.0327  0.5952  0.4476
  727MOL0     C  200   2.472  10.434   8.173 -0.4578  0.4973  0.3125
  727MOL0     C  201   2.435  10.322   8.259  1.0120  0.3302 -0.1073
  727MOL0     C  202   2.533  10.269   8.369  0.0513 -0.0645 -0.8754
  727MOL0     C  203   2.473  10.131   8.423  0.1150 -0.0553  0.0220
  727MOL0     C  204   2.573  10.061   8.519  0.0763 -0.1135  0.7426
  727MOL0     N  205   2.596  10.144   8.634 -0.0506 -0.4815  0.6823
  727MOL0     C  206   2.521  10.176   8.740  1.1940 -0.0675  0.3354
  727MOL0     C  207   2.596  10.257   8.819 -0.5498 -0.5959 -0.8039
  727MOL0     C  208   2.558  10.340   8.945  0.4641  1.1984  0.4938
  727MOL0     C  209   2.520  10.241   9.052  0.3398  0.1916 -0.2908
  727MOL0     C  210   2.641  10.186   9.125 -0.2292  0.8283 -0.6251
  727MOL0     C  211   2.764  10.276   9.156 -0.0332 -0.4853  1.1328
  727MOL0     O  212   2.851  10.212   9.246 -0.0010 -0.0823 -0.4927
  727MOL0     C  213   2.845  10.239   9.382  0.7350  0.0056  0.1382
  727MOL0     C  214   2.919  10.158   9.461 -0.1771 -0.4971 -0.3387
  727MOL0     C  215   2.914  10.160   9.598  0.5397  0.3281  0.1539
  727MOL0     C  216   3.014  10.063   9.665  1.0379 -0.9136  0.3390
  727MOL0     C  217   2.837  10.256   9.669 -1.0856 -0.6132  0.0226
  727MOL0     C  218   2.827  10.268   9.814  0.1009 -0.6576  0.0243
  727MOL0     O  219   2.813  10.158   9.895 -0.0249  0.4630 -0.8486
  727MOL0     C  220   2.878  10.159  10.017  0.8254 -0.2043 -0.5566
  727MOL0     C  221   2.967  10.252  10.068  0.0035 -0.5605  0.1957
  727MOL0     C  222   3.028  10.232  10.193 -1.2717 -0.9213  0.7954
  727MOL0     C  223   3.004  10.117  10.265 -0.8022 -0.3899  0.0034
  727MOL0     O  224   3.035  10.117  10.396  0.1393 -0.4374 -1.0060
  727MOL0     C  225   3.163  10.158  10.446 -0.0739  0.3652 -0.2883
  727MOL0     C  226   3.207  10.057  10.546 -0.2134 -0.5137 -0.4728
  727MOL0     C  227   3.344  10.076  10.590 -0.1967 -0.1608  0.6228
  727MOL0     C  228   3.366  10.000  10.722  0.3872 -0.0749  0.8014
  727MOL0     C  229   3.479  10.042  10.808 -0.1392  0.2538  0.6258
  727MOL0     C  230   3.514   9.944  10.921  0.2164  0.2757 -0.0269
  727MOL0     C  231   3.635   9.980  10.999  0.7225  0.1622 -0.7006
  727MOL0     C  232   3.681   9.859  11.084 -0.0026 -0.1114 -0.5455
  727MOL0    Cl  233   3.849   9.895  11.127  0.1702 -0.0205 -0.3806
  727MOL0     C  234   2.910  10.023  10.226 -0.1252 -0.1979  0.4142
  727MOL0     C  235   2.858  10.041  10.096 -0.3362  0.6059 -0.6768
  727MOL0     O  236   2.820  10.386   9.853  0.1194 -0.2060  0.3303
  727MOL0     C  237   2.760  10.343   9.590 -2.3578  0.1833  1.2270
  727MOL0     C  238   2.768  10.331   9.453 -0.2304 -0.3122  0.3436
  727MOL0     N  239   2.715  10.283   8.755 -0.0375 -0.4736  1.6033
  727MOL0     N  240   2.721  10.209   8.648  0.3734 -0.5860  0.7485
  727MOL0     C  241   2.880  10.507   7.653 -0.4241 -0.2576 -0.5471
  727MOL0     C  242   2.975  10.501   7.556  0.4349  0.0400 -0.3680
  727MOL0     C  243   3.194  10.616   7.182  0.2531 -0.5053  0.0290
  727MOL0     C  244   3.280  10.513   7.181  1.1246  0.9606  0.2625
  727MOL0     C  245   3.382  10.507   7.093  0.3671  0.3742  0.2213
  727MOL0     C  246   3.407  10.602   6.988 -0.1532 -0.6224 -0.5705
  727MOL0     O  247   3.516  10.582   6.898  0.3934 -0.3149 -0.3502
  727MOL0     C  248   3.564  10.701   6.839 -0.2181  0.0075  1.1474
  727MOL0     C  249   3.685  10.661   6.740  0.4844  0.0531  0.4530
  727MOL0     C  250   3.750  10.793   6.683  0.8127  0.0629  0.2554
  727MOL0     C  251   3.877  10.771   6.592  1.4593 -0.3678 -0.3063
  727MOL0     C  252   3.937  10.903   6.573 -1.5623  0.1653  0.7181
  727MOL0     C  253   3.987  11.016   6.581  0.2019  0.4401  0.1934
  727MOL0     C  254   3.315  10.711   6.994 -0.8147 -0.6557 -0.2441
  727MOL0     C  255   3.216  10.725   7.092 -0.0801  0.7133  0.6220
  727MOL0     C  256   3.124  10.849   7.092  0.0230  0.3371 -0.6844
  727MOL0     H  257   2.961  10.821   7.472  0.4575 -1.3315 -1.1635
  727MOL0     H  258   2.775  10.831   7.644 -0.9667 -0.3291  0.3744
  727MOL0     H  259   2.806  10.561   7.965 -1.9957  1.1520  0.9901
  727MOL0     H  260   2.741  10.424   7.859 -0.4402 -1.1776  1.9127
  727MOL0     H  261   2.606  10.618   8.049 -1.6920 -1.0776  0.5859
  727MOL0     H  262   2.505  10.540   7.926 -0.8556 -2.2533 -0.2424
  727MOL0     H  263   2.571  10.319   8.026  2.3071  0.6107 -0.5813
  727MOL0     H  264   2.676  10.392   8.148  0.0793  2.3356  0.8458
  727MOL0     H  265   2.497  10.516   8.240  1.3516 -0.4810  0.9267
  727MOL0     H  266   2.386  10.454   8.109 -1.5751 -0.9714  1.3003
  727MOL0     H  267   2.402  10.234   8.202 -1.5794 -1.0775  3.1951
  727MOL0     H  268   2.345  10.356   8.311  3.0347 -0.6528  4.5320
  727MOL0     H  269   2.633  10.258   8.327  1.9441  4.3848  1.7569
  727MOL0     H  270   2.541  10.352   8.441 -3.4206 -2.5681  2.8719
  727MOL0     H  271   2.446  10.067   8.339  1.6888 -0.3683 -0.2793
  727MOL0     H  272   2.382  10.134   8.483  1.9690 -0.5232  3.0684
  727MOL0     H  273   2.535   9.963   8.551  0.7596 -0.2155  1.2459
  727MOL0     H  274   2.662  10.043   8.459  0.0536  0.9921  0.3687
  727MOL0     H  275   2.423  10.134   8.760  1.3685  0.4596  2.5685
  727MOL0     H  276   2.466  10.391   8.915 -0.6409 -0.0102  1.6561
  727MOL0     H  277   2.634  10.409   8.984  1.2327 -0.0729  1.3610
  727MOL0     H  278   2.448  10.284   9.122  0.5246  1.5880 -0.9300
  727MOL0     H  279   2.475  10.157   8.998 -1.3420  1.1121 -0.3810
  727MOL0     H  280   2.602  10.143   9.218 -3.1992  2.5905 -0.9067
  727MOL0     H  281   2.680  10.095   9.079 -0.0710 -0.1970  1.3981
  727MOL0     H  282   2.821  10.286   9.064  1.0851 -2.1542  1.6065
  727MOL0     H  283   2.735  10.378   9.184 -2.8025 -0.2815 -1.8613
  727MOL0     H  284   2.988  10.086   9.418 -1.2621 -1.9009  0.1832
  727MOL0     H  285   3.114  10.094   9.634  0.3280 -0.8223 -2.0295
  727MOL0     H  286   2.978   9.962   9.646 -1.2280  0.2882 -2.6475
  727MOL0     H  287   2.986  10.060   9.771 -2.6101 -4.2171 -0.4996
  727MOL0     H  288   2.992  10.343  10.015 -0.9431 -1.6103 -2.1952
  727MOL0     H  289   3.076  10.314  10.245  1.2141 -2.1979  0.6304
  727MOL0     H  290   3.236  10.169  10.365 -1.0847  0.7076 -1.1805
  727MOL0     H  291   3.156  10.256  10.494  0.5351  1.8915 -3.0797
  727MOL0     H  292   3.141  10.068  10.633 -1.7074 -0.4854 -1.5563
  727MOL0     H  293   3.203   9.956  10.504 -1.9677 -0.6516 -0.0929
  727MOL0     H  294   3.364  10.181  10.612  0.9607 -0.7097  2.4247
  727MOL0     H  295   3.409  10.038  10.510 -3.0768 -4.6267  0.0698
  727MOL0     H  296   3.382   9.898  10.686  2.5282  1.1673 -2.1725
  727MOL0     H  297   3.270   9.996  10.775 -0.4504 -2.5127 -0.7070
  727MOL0     H  298   3.567  10.058  10.745  0.8790 -2.7317  1.1311
  727MOL0     H  299   3.472  10.146  10.843  1.9146  0.5714  0.2503
  727MOL0     H  300   3.549   9.853  10.873  3.4891  0.6670  1.3873
  727MOL0     H  301   3.428   9.921  10.985  0.9107 -0.2863  0.7294
  727MOL0     H  302   3.605  10.071  11.052 -2.2553 -2.0975  1.8535
  727MOL0     H  303   3.710  10.011  10.926  0.6631 -0.3219 -0.9720
  727MOL0     H  304   3.693   9.763  11.034  4.6400  0.4185 -0.9273
  727MOL0     H  305   3.621   9.847  11.175  1.2662 -0.5893  0.2632
  727MOL0     H  306   2.879   9.931  10.275  0.6106 -1.1472 -0.8508
  727MOL0     H  307   2.788   9.968  10.055 -0.3134  0.2527 -0.0988
  727MOL0     H  308   2.696  10.418   9.637  0.2077  1.4250  2.9783
  727MOL0     H  309   2.702  10.398   9.398 -0.3151  0.1357  0.9718
  727MOL0     H  310   2.887  10.417   7.713  0.7113 -0.6807 -1.2655
  727MOL0     H  311   3.034  10.415   7.525 -1.1060 -0.4438 -2.1136
  727MOL0     H  312   3.263  10.433   7.253  1.5847 -0.5893 -1.2681
  727MOL0     H  313   3.444  10.418   7.097  0.4804  0.5181  2.6930
  727MOL0     H  314   3.481  10.748   6.785 -0.5302 -1.5750  0.1903
  727MOL0     H  315   3.603  10.769   6.915  0.9172 -1.1593  1.6539
  727MOL0     H  316   3.635  10.607   6.659 -1.5314  0.6845  1.2030
  727MOL0     H  317   3.761  10.598   6.786 -0.5732 -0.6058  1.3334
  727MOL0     H  318   3.676  10.850   6.627  0.5652  2.6773  2.9726
  727MOL0     H  319   3.783  10.856   6.767  1.7495 -0.5521  0.3637
  727MOL0     H  320   3.836  10.726   6.502 -1.2420  0.3274  0.4782
  727MOL0     H  321   3.948  10.700   6.635 -0.7895 -2.6604 -0.1683
  727MOL0     H  322   4.052  11.101   6.587  0.7349  0.5953 -4.1427
  727MOL0     H  323   3.328  10.800   6.932 -1.8962 -0.4379 -0.1763
  727MOL0     H  324   3.023  10.809   7.095 -0.4876  1.5757  1.8634
  727MOL0     H  325   3.123  10.922   7.174  0.1844  1.1540 -1.4049
  727MOL0     H  326   3.125  10.904   6.998  0.2215  3.8602  1.1882
  728MOL0     O  327   6.262   2.553   5.347  0.3544  0.0240 -1.0416
  728MOL0     C  328   6.229   2.488   5.248 -0.2305  0.8426 -0.1027
  728MOL0     O  329   6.260   2.356   5.225  0.2028 -0.0781  0.0351
  728MOL0     C  330   6.355   2.295   5.295  0.2871  0.3657  0.2431
  728MOL0     C  331   6.496   2.315   5.277 -0.2345 -0.2794  0.5937
  728MOL0     C  332   6.591   2.243   5.347  0.6025  0.1694 -0.2358
  728MOL0     C  333   6.543   2.154   5.447  0.1167  0.2854  0.9644
  728MOL0     O  334   6.608   2.088   5.546  1.0840  0.1978  0.2645
  728MOL0     C  335   6.754   2.093   5.549  0.9976  0.3012 -0.2385
  728MOL0     C  336   6.814   1.979   5.465 -0.4290 -0.3027 -0.2370
  728MOL0     C  337   6.836   1.855   5.560 -1.0681  0.2320  0.4409
  728MOL0     C  338   6.886   1.723   5.490  0.0090 -0.0447 -0.7350
  728MOL0     C  339   7.033   1.695   5.528  0.8753  0.0147 -0.8319
  728MOL0     C  340   7.093   1.565   5.451 -0.0074 -0.1473  0.5519
  728MOL0     C  341   7.252   1.563   5.465  0.9054 -0.9880  0.5328
  728MOL0     C  342   7.317   1.435   5.385  0.3021 -0.5115  0.1578
  728MOL0     N  343   7.461   1.460   5.388  0.6913  0.7886  0.1833
  728MOL0     C  344   7.507   1.577   5.339 -0.1019 -0.1060 -0.1813
  728MOL0     C  345   7.644   1.582   5.371  0.5205  0.6975 -0.3976
  728MOL0     C  346   7.737   1.695   5.329  0.7893 -0.4505  0.1043
  728MOL0     C  347   7.776   1.780   5.453 -0.3039  1.1331  0.0789
  728MOL0     C  348   7.913   1.840   5.420 -0.2864 -0.3265 -0.4399
  728MOL0     C  349   8.025   1.759   5.485  0.1392 -0.1870  0.0765
  728MOL0     O  350   8.154   1.814   5.433 -0.5212  0.2172  0.1357
  728MOL0     C  351   8.281   1.781   5.488  0.9858 -0.3867 -0.2252
  728MOL0     C  352   8.304   1.764   5.634 -0.2601  0.0887  0.8083
  728MOL0     C  353   8.430   1.744   5.686 -0.2162  0.0116 -0.0619
  728MOL0     C  354   8.444   1.735   5.835  0.0934 -0.5397  0.2529
  728MOL0     C  355   8.537   1.743   5.597  0.1143 -0.7558 -0.4086
  728MOL0     C  356   8.681   1.719   5.630  0.7340  1.0423  0.3990
  728MOL0     O  357   8.719   1.739   5.750  0.6519 -0.8254 -0.2763
  728MOL0     C  358   8.844   1.778   5.783 -0.3611 -0.4049  0.4374
  728MOL0     C  359   8.922   1.684   5.848 -0.7171 -0.2475 -0.5935
  728MOL0     C  360   9.054   1.707   5.891  1.1373 -0.6185  0.1644
  728MOL0     C  361   9.104   1.832   5.858  0.0927  0.2622 -0.5112
  728MOL0     O  362   9.228   1.858   5.914  0.2805  0.5341 -0.0490
  728MOL0     C  363   9.249   1.992   5.970 -0.3969 -0.0367  0.3151
  728MOL0     C  364   9.393   2.027   5.990 -0.0845  0.3481  0.3597
  728MOL0     C  365   9.473   2.031   5.861  0.6230 -0.8176  0.0294
  728MOL0     C  366   9.450   2.162   5.790  0.1368  0.5536  0.8821
  728MOL0     C  367   9.509   2.147   5.642  0.2710  0.0289  0.1839
  728MOL0     C  368   9.665   2.137   5.625  0.7987  0.0514  0.4504
  728MOL0     C  369   9.712   2.049   5.507  1.2598  0.9369 -0.1982
  728MOL0     C  370   9.849   2.055   5.448  0.6129 -0.0150  0.1879
  728MOL0    Cl  371   9.955   2.001   5.581  0.4181 -0.1873 -0.3172
  728MOL0     C  372   9.033   1.934   5.792  0.1065  0.7414  0.5641
  728MOL0     C  373   8.906   1.896   5.739 -0.6034  0.0018 -0.6373
  728MOL0     O  374   8.760   1.690   5.541 -0.1541 -0.6198 -0.1482
  728MOL0     C  375   8.515   1.767   5.461  0.4434  0.2413 -0.5632
  728MOL0     C  376   8.390   1.790   5.404  0.2387 -0.1656 -0.0184
  728MOL0     N  377   7.665   1.473   5.453 -0.6121  0.2159 -0.1024
  728MOL0     N  378   7.555   1.411   5.473  0.4064  0.7767 -0.0049
  728MOL0     C  379   6.403   2.145   5.471 -0.1600  0.0726 -0.2796
  728MOL0     C  380   6.316   2.209   5.389 -0.0051  0.0737 -0.4012
  728MOL0     C  381   6.154   2.561   5.145  0.0356 -0.6136 -1.0576
  728MOL0     C  382   6.102   2.685   5.182  0.3611  0.1101 -0.0520
  728MOL0     C  383   6.041   2.775   5.094 -0.2537  0.8926  0.1984
  728MOL0     C  384   6.045   2.739   4.959  0.3051  0.4673 -0.7928
  728MOL0     O  385   6.004   2.820   4.853  0.3467 -0.7306  0.3900
  728MOL0     C  386   5.953   2.951   4.889  0.2622  0.1166 -0.1182
  728MOL0     C  387   5.882   3.029   4.771 -0.9730 -0.0399  0.2821
  728MOL0     C  388   5.888   3.185   4.797 -0.3627 -0.6055  0.0387
  728MOL0     C  389   5.809   3.252   4.689 -0.0080  0.1370 -0.4494
  728MOL0     C  390   5.870   3.249   4.558 -0.7968  0.4146  0.3605
  728MOL0     C  391   5.922   3.247   4.446 -0.0505  0.0414 -0.0116
  728MOL0     C  392   6.084   2.607   4.919 -0.3752  0.6563 -0.2549
  728MOL0     C  393   6.138   2.514   5.015  0.0054 -0.5438  0.7438
  728MOL0     C  394   6.156   2.369   4.958 -0.0796 -0.0709  0.3741
  728MOL0     H  395   6.523   2.390   5.204  1.3537 -1.6762 -0.3092
  728MOL0     H  396   6.694   2.267   5.321 -0.1579  0.4897 -3.2209
  728MOL0     H  397   6.789   2.094   5.652 -0.3298  0.6266  0.2328
  728MOL0     H  398   6.791   2.185   5.502  2.6481  0.3386  1.0433
  728MOL0     H  399   6.740   1.954   5.388 -0.1293  1.4262 -1.1353
  728MOL0     H  400   6.908   2.015   5.423  0.2719 -0.1895  1.3924
  728MOL0     H  401   6.900   1.879   5.645 -1.4433  1.3829  0.4184
  728MOL0     H  402   6.740   1.831   5.608  0.2740 -1.3147  2.5133
  728MOL0     H  403   6.823   1.639   5.521  0.9993  0.3458  2.8611
  728MOL0     H  404   6.888   1.736   5.382 -1.1981  2.7065 -0.5236
  728MOL0     H  405   7.049   1.689   5.636  2.4713  1.1544 -0.9746
  728MOL0     H  406   7.084   1.783   5.486 -2.2357  1.5813 -1.6393
  728MOL0     H  407   7.055   1.469   5.488  0.4721 -0.0867  1.2104
  728MOL0     H  408   7.066   1.571   5.345  2.9985  1.4388 -0.2160
  728MOL0     H  409   7.282   1.540   5.567 -0.4896 -0.1042  1.1660
  728MOL0     H  410   7.282   1.662   5.430  0.9298 -2.5509 -4.8482
  728MOL0     H  411   7.311   1.342   5.441  2.1458 -0.6128  0.2506
  728MOL0     H  412   7.283   1.439   5.281  1.7256 -0.3523 -0.3256
  728MOL0     H  413   7.456   1.649   5.275 -0.8410  0.8662  1.4221
  728MOL0     H  414   7.683   1.763   5.263  1.3490  0.2781  0.3947
  728MOL0     H  415   7.831   1.651   5.295  0.9478 -0.1906  0.2073
  728MOL0     H  416   7.699   1.852   5.482  0.8396  1.6761  1.9939
  728MOL0     H  417   7.802   1.719   5.540 -1.6980 -1.9277 -1.5082
  728MOL0     H  418   7.925   1.859   5.313  1.3349 -2.6461 -0.7323
  728MOL0     H  419   7.906   1.938   5.468  1.2210  0.1141 -1.0742
  728MOL0     H  420   8.022   1.786   5.591 -0.8007  1.0042 -0.2286
  728MOL0     H  421   8.011   1.651   5.481  0.4321 -0.2191 -0.1017
  728MOL0     H  422   8.231   1.757   5.714 -0.2496 -1.1735  0.7339
  728MOL0     H  423   8.503   1.650   5.871 -1.8978 -1.4580  1.4898
  728MOL0     H  424   8.359   1.736   5.903  0.7083 -4.2168  1.3224
  728MOL0     H  425   8.506   1.823   5.854  1.0729 -0.8792 -1.2170
  728MOL0     H  426   8.883   1.584   5.861 -0.7134 -0.0494  1.2570
  728MOL0     H  427   9.117   1.632   5.937  2.1834 -0.5713 -1.1484
  728MOL0     H  428   9.201   2.074   5.916  0.5147  0.6866  0.5733
  728MOL0     H  429   9.215   1.984   6.073  1.2770 -0.4151  0.8721
  728MOL0     H  430   9.396   2.127   6.033 -2.5078  0.3833  0.5839
  728MOL0     H  431   9.436   1.950   6.056  0.6202  0.8176  0.4633
  728MOL0     H  432   9.437   1.951   5.796  0.9104 -0.2552 -0.8441
  728MOL0     H  433   9.580   2.016   5.881  0.4029 -0.6665  1.3583
  728MOL0     H  434   9.504   2.245   5.836  1.0346  0.6723 -0.3151
  728MOL0     H  435   9.344   2.184   5.778  0.1676 -0.2623 -1.3542
  728MOL0     H  436   9.456   2.060   5.600 -0.4464  1.1852 -1.4393
  728MOL0     H  437   9.472   2.242   5.602 -3.9271 -1.3500  0.2373
  728MOL0     H  438   9.702   2.094   5.719 -0.4480 -3.0534 -0.3414
  728MOL0     H  439   9.715   2.234   5.622  1.4037 -0.2777 -0.7093
  728MOL0     H  440   9.650   2.059   5.417  1.5446 -2.6758 -0.9697
  728MOL0     H  441   9.708   1.943   5.535  0.6764  0.6019 -1.4493
  728MOL0     H  442   9.874   2.156   5.415  0.0131  0.0401 -0.1001
  728MOL0     H  443   9.846   2.004   5.351 -0.3776  1.6068 -0.6771
  728MOL0     H  444   9.064   2.037   5.773 -1.0180  1.5801  2.8131
  728MOL0     H  445   8.858   1.979   5.688 -2.4066 -0.1763  0.6706
  728MOL0     H  446   8.602   1.775   5.397  0.9811 -2.1845 -0.2265
  728MOL0     H  447   8.382   1.800   5.296  1.9368 -0.4155 -0.1969
  728MOL0     H  448   6.376   2.088   5.559  2.0855 -2.2951 -0.9898
  728MOL0     H  449   6.210   2.210   5.415 -0.1182 -0.9019 -0.7810
  728MOL0     H  450   6.088   2.719   5.284 -0.9538 -1.8060  0.4590
  728MOL0     H  451   6.013   2.870   5.139 -2.0772  0.8992 -0.8753
  728MOL0     H  452   5.884   2.912   4.965 -2.1804 -0.0202 -2.2764
  728MOL0     H  453   6.039   3.006   4.928  0.8116 -1.8629  1.6665
  728MOL0     H  454   5.785   2.989   4.740 -0.9396 -0.4074  0.6417
  728MOL0     H  455   5.952   2.998   4.693  2.5723  0.2148  3.0750
  728MOL0     H  456   5.837   3.217   4.888 -2.3861 -0.9406 -0.9044
  728MOL0     H  457   5.991   3.222   4.796  0.2668 -2.2197 -1.5351
  728MOL0     H  458   5.785   3.354   4.718  1.8034  0.6863 -0.7647
  728MOL0     H  459   5.711   3.205   4.683 -1.2696  2.3848  1.3544
  728MOL0     H  460   5.970   3.220   4.354 -0.9595  1.7208 -1.0209
  728MOL0     H  461   6.074   2.572   4.817 -2.8711 -1.7005  0.6794
  728MOL0     H  462   6.246   2.316   4.989 -0.8824 -1.7220 -0.0044
  728MOL0     H  463   6.070   2.305   4.983 -0.5743 -0.3225 -1.7888
  728MOL0     H  464   6.148   2.375   4.850 -2.1919 -1.7841  0.3690
  729MOL0     O  465  10.977   6.934   6.976  0.0664 -0.9301  0.7527
  729MOL0     C  466  11.094   6.946   6.928 -0.8052  0.5752  0.1239
  729MOL0     O  467  11.207   6.889   6.990 -0.0791 -0.0052  0.7481
  729MOL0     C  468  11.177   6.801   7.089 -0.0784 -0.9879  0.2737
  729MOL0     C  469  11.124   6.827   7.211 -0.2679  0.9331 -0.2381
  729MOL0     C  470  11.095   6.731   7.301  0.3949  0.8897  0.6717
  729MOL0     C  471  11.127   6.593   7.282 -0.6625 -0.4609  0.2288
  729MOL0     O  472  11.096   6.503   7.376  0.9253  0.0354  0.0192
  729MOL0     C  473  11.143   6.371   7.366 -0.5823  0.1474  0.1509
  729MOL0     C  474  11.176   6.309   7.500  0.1306  0.6006  0.1064
  729MOL0     C  475  11.055   6.275   7.591 -0.6957  0.2884 -0.2701
  729MOL0     C  476  11.084   6.198   7.726  0.2449 -0.8702 -0.6836
  729MOL0     C  477  10.983   6.225   7.834  0.0607 -0.2591 -0.5569
  729MOL0     C  478  10.990   6.365   7.898 -0.5569 -1.0341  0.6745
  729MOL0     C  479  10.897   6.380   8.024  0.0093 -0.0019  0.5027
  729MOL0     C  480  10.864   6.531   8.048 -0.1815 -0.2247  0.1713
  729MOL0     N  481  10.780   6.598   7.946 -0.1021  0.3703 -0.0963
  729MOL0     C  482  10.723   6.547   7.829  0.1423 -0.1025 -0.3975
  729MOL0     C  483  10.720   6.657   7.746 -0.0412  1.1701  0.9354
  729MOL0     C  484  10.666   6.654   7.608  0.2713 -0.2194  0.0732
  729MOL0     C  485  10.787   6.645   7.515  1.0911  0.3642  0.2254
  729MOL0     C  486  10.735   6.660   7.372  0.1711 -0.3207 -0.7221
  729MOL0     C  487  10.646   6.542   7.332  0.0021  0.1406 -0.1372
  729MOL0     O  488  10.694   6.404   7.345  0.2462 -0.0695  0.0059
  729MOL0     C  489  10.751   6.354   7.232 -0.7072 -0.2431  0.0737
  729MOL0     C  490  10.806   6.435   7.125 -0.1935  0.9800  1.0172
  729MOL0     C  491  10.860   6.358   7.011  0.4968 -0.3979  0.0586
  729MOL0     C  492  10.895   6.450   6.894 -0.7178  0.3453 -0.1254
  729MOL0     C  493  10.846   6.220   6.995 -0.4913  0.6220 -1.0365
  729MOL0     C  494  10.917   6.142   6.890 -0.0963 -0.5895  0.6020
  729MOL0     O  495  10.881   6.014   6.874 -0.3105  0.5006  0.1769
  729MOL0     C  496  10.984   5.923   6.844  0.2261 -0.2661  0.9732
  729MOL0     C  497  11.037   5.846   6.949 -1.3355 -0.2828 -0.3932
  729MOL0     C  498  11.136   5.748   6.920 -0.1928 -1.2559 -0.5723
  729MOL0     C  499  11.178   5.723   6.788 -0.0481  0.0727 -0.1996
  729MOL0     O  500  11.262   5.615   6.769  0.2270  0.1050  0.0067
  729MOL0     C  501  11.369   5.657   6.692 -0.9202 -0.6694 -0.4739
  729MOL0     C  502  11.481   5.561   6.717  0.1394 -0.0119  0.3326
  729MOL0     C  503  11.590   5.558   6.608 -0.5554 -0.1825  0.3071
  729MOL0     C  504  11.583   5.653   6.486 -0.0119  0.1794 -0.6402
  729MOL0     C  505  11.711   5.655   6.392  0.5471 -0.5413  0.0899
  729MOL0     C  506  11.759   5.518   6.344 -0.4194 -0.2647  0.0260
  729MOL0     C  507  11.870   5.518   6.253  0.0607  0.4045 -0.0336
  729MOL0     C  508  11.835   5.559   6.110 -0.4198  0.1820 -0.2224
  729MOL0    Cl  509  11.992   5.558   6.016  0.2367 -0.1970 -0.2208
  729MOL0     C  510  11.121   5.799   6.683 -0.3493  0.3166  0.1347
  729MOL0     C  511  11.013   5.895   6.708 -0.6945 -0.4356  0.3833
  729MOL0     O  512  11.015   6.198   6.846  0.1198 -0.8313 -0.5282
  729MOL0     C  513  10.790   6.147   7.111 -0.2603  0.2584  0.4145
  729MOL0     C  514  10.735   6.215   7.210 -0.5136  0.0604 -0.5678
  729MOL0     N  515  10.762   6.773   7.810  0.5501 -0.2647 -0.3259
  729MOL0     N  516  10.796   6.737   7.928  0.3560  0.3071 -1.2398
  729MOL0     C  517  11.204   6.563   7.163  0.5697  0.4885  0.7670
  729MOL0     C  518  11.214   6.667   7.063 -0.3181 -0.2695 -0.5655
  729MOL0     C  519  11.088   7.018   6.798 -0.2422 -0.3532 -1.0126
  729MOL0     C  520  11.183   6.980   6.701 -0.3101  0.5400  0.7279
  729MOL0     C  521  11.189   7.052   6.579  0.1107 -0.2676 -0.2142
  729MOL0     C  522  11.106   7.155   6.545 -0.2927 -1.1314 -0.4363
  729MOL0     O  523  11.120   7.218   6.424 -0.2116 -0.4303 -0.0248
  729MOL0     C  524  11.012   7.248   6.343 -0.0983  0.6174 -0.1375
  729MOL0     C  525  11.067   7.273   6.198 -0.2770  0.8474  0.6335
  729MOL0     C  526  11.178   7.379   6.196  0.1846 -0.3855  0.4414
  729MOL0     C  527  11.225   7.424   6.060  0.5954  0.3517 -0.2452
  729MOL0     C  528  11.347   7.499   6.091 -0.1447 -0.5437  0.0966
  729MOL0     C  529  11.452   7.554   6.117  0.1132 -1.3479 -1.1632
  729MOL0     C  530  11.032   7.197   6.652 -0.4481 -0.5202 -0.5105
  729MOL0     C  531  11.011   7.129   6.772 -0.2336 -1.3546  0.2962
  729MOL0     C  532  10.908   7.191   6.870  0.0327 -0.5189  0.7907
  729MOL0     H  533  11.088   6.926   7.238  0.0391  0.3257  2.7013
  729MOL0     H  534  11.032   6.754   7.387 -2.6799  0.6838 -1.3825
  729MOL0     H  535  11.238   6.361   7.313 -0.5126  1.4421  0.0186
  729MOL0     H  536  11.069   6.305   7.318 -0.1606 -3.1376  3.5731
  729MOL0     H  537  11.225   6.212   7.485  0.9301  0.8140  1.1713
  729MOL0     H  538  11.248   6.367   7.558 -1.8386  0.3617  3.0267
  729MOL0     H  539  11.003   6.369   7.613 -2.1531 -0.4190 -0.5802
  729MOL0     H  540  10.983   6.221   7.529 -0.0423 -1.0404  0.0941
  729MOL0     H  541  11.100   6.091   7.709 -0.4234 -1.0218 -0.3812
  729MOL0     H  542  11.170   6.241   7.778 -2.1113  1.4120  1.6544
  729MOL0     H  543  10.998   6.143   7.904  4.1959 -0.5001 -1.4276
  729MOL0     H  544  10.881   6.210   7.797 -0.8103 -1.3366  2.0456
  729MOL0     H  545  11.092   6.387   7.929 -1.0384  0.8130  1.0972
  729MOL0     H  546  10.960   6.442   7.826  1.9736 -0.1787  0.4334
  729MOL0     H  547  10.964   6.348   8.104 -1.5464  0.6561  2.1269
  729MOL0     H  548  10.808   6.317   8.018  0.1823 -0.1295 -1.5372
  729MOL0     H  549  10.815   6.535   8.146 -0.7687 -2.2060  0.0098
  729MOL0     H  550  10.956   6.589   8.062 -0.2045  0.4471 -2.1294
  729MOL0     H  551  10.693   6.444   7.816  5.1607 -2.0655  0.9784
  729MOL0     H  552  10.612   6.747   7.586 -0.5557 -1.0271 -1.4596
  729MOL0     H  553  10.588   6.578   7.597 -0.4076  0.3905  0.5624
  729MOL0     H  554  10.852   6.726   7.548  1.2752 -0.0353  0.8713
  729MOL0     H  555  10.843   6.552   7.532  2.2435  1.2414  1.3733
  729MOL0     H  556  10.679   6.754   7.367  1.1369  0.4442  1.4798
  729MOL0     H  557  10.825   6.674   7.311  1.8469 -1.6147  1.3167
  729MOL0     H  558  10.557   6.553   7.395 -1.6529  0.2628 -2.3651
  729MOL0     H  559  10.606   6.563   7.232  0.9655 -0.7132 -0.7327
  729MOL0     H  560  10.818   6.543   7.122  0.5653  0.9361  1.8443
  729MOL0     H  561  10.903   6.402   6.796  0.6332 -2.1422  1.0943
  729MOL0     H  562  10.997   6.477   6.922  1.3045 -3.8492 -2.4740
  729MOL0     H  563  10.825   6.534   6.888 -1.7964 -0.5336 -0.2558
  729MOL0     H  564  10.997   5.864   7.048  0.1345 -0.8296  0.3451
  729MOL0     H  565  11.199   5.702   6.995  0.6450 -0.1664 -0.5675
  729MOL0     H  566  11.338   5.652   6.587 -1.0422 -0.4039 -0.4518
  729MOL0     H  567  11.404   5.756   6.725 -1.6519  0.0932 -1.8636
  729MOL0     H  568  11.516   5.582   6.819 -0.8804  1.9694  0.3238
  729MOL0     H  569  11.437   5.462   6.732  0.1989  0.1424  1.6936
  729MOL0     H  570  11.599   5.454   6.574  0.7332  0.2145 -0.6698
  729MOL0     H  571  11.686   5.586   6.653  0.2063 -1.5934 -0.3556
  729MOL0     H  572  11.557   5.752   6.523 -2.6479 -1.5807  2.7613
  729MOL0     H  573  11.490   5.629   6.432 -1.1174  0.6072  1.0034
  729MOL0     H  574  11.700   5.725   6.308 -1.7633  1.1132  1.6605
  729MOL0     H  575  11.787   5.710   6.449  3.7232 -1.8971 -2.5067
  729MOL0     H  576  11.673   5.466   6.300  0.9571 -3.1284  0.5023
  729MOL0     H  577  11.771   5.457   6.434 -0.2622 -0.6071 -0.2258
  729MOL0     H  578  11.904   5.415   6.250  0.8577  0.5146  2.7244
  729MOL0     H  579  11.960   5.569   6.288  1.1208 -2.2861  1.4628
  729MOL0     H  580  11.801   5.662   6.101 -1.5218  0.1224  2.3376
  729MOL0     H  581  11.753   5.506   6.061 -1.7018  1.2594  0.6761
  729MOL0     H  582  11.141   5.771   6.580  0.1503 -2.8044  0.9801
  729MOL0     H  583  10.958   5.952   6.634 -1.9404  1.1220  2.4111
  729MOL0     H  584  10.783   6.039   7.117 -0.6021  0.3239  1.2094
  729MOL0     H  585  10.691   6.147   7.283 -0.0303 -0.1520 -0.4681
  729MOL0     H  586  11.257   6.470   7.142 -0.4124  0.0888 -0.0603
  729MOL0     H  587  11.267   6.648   6.970 -0.0362  3.1601 -1.2435
  729MOL0     H  588  11.237   6.891   6.732 -4.5649 -1.4628  3.2334
  729MOL0     H  589  11.261   7.026   6.502  0.5191  1.5579 -0.5041
  729MOL0     H  590  10.939   7.167   6.328  2.3368 -1.6116 -0.7513
  729MOL0     H  591  10.966   7.341   6.377  1.1709  0.7268  1.3998
  729MOL0     H  592  10.978   7.298   6.140 -0.6152 -0.6685  0.4403
  729MOL0     H  593  11.121   7.189   6.152  2.7213  2.7299  0.4386
  729MOL0     H  594  11.132   7.464   6.246 -2.4421 -1.2496 -0.3210
  729MOL0     H  595  11.262   7.336   6.252  1.0743  0.2410 -0.3915
  729MOL0     H  596  11.149   7.488   6.016  0.3505 -0.4704 -1.0408
  729MOL0     H  597  11.249   7.340   5.994 -0.0339 -0.9355  1.0999
  729MOL0     H  598  11.542   7.589   6.163  0.0587 -1.8899 -0.6268
  729MOL0     H  599  10.977   7.286   6.626  0.3720  0.3711  0.7005
  729MOL0     H  600  10.944   7.219   6.969 -0.9504 -0.1877  1.0718
  729MOL0     H  601  10.871   7.284   6.825 -1.9648 -0.3909  2.5439
  729MOL0     H  602  10.825   7.119   6.871  2.2668 -3.4209 -2.3586
  730MOL0     O  603  10.163   5.017   6.406  0.0900  0.2443 -1.2627
  730MOL0     C  604  10.087   4.965   6.485  0.7031 -0.5750  0.1307
  730MOL0     O  605  10.045   5.019   6.603  0.4536  0.0897 -0.1637
  730MOL0     C  606  10.036   5.154   6.634  0.6074  0.0063 -0.9032
  730MOL0     C  607  10.099   5.198   6.751 -0.1673  0.8623 -1.4669
  730MOL0     C  608  10.100   5.324   6.786 -0.0203 -0.4364  0.2548
  730MOL0     C  609  10.032   5.423   6.711 -0.3256  0.3002  0.8323
  730MOL0     O  610  10.043   5.555   6.755  0.0108  0.5971  0.3391
  730MOL0     C  611   9.974   5.658   6.693  0.9108  0.3032  0.1387
  730MOL0     C  612   9.830   5.660   6.727 -0.7701  0.3663  0.0340
  730MOL0     C  613   9.750   5.753   6.627 -0.2214  0.1598 -0.5449
  730MOL0     C  614   9.726   5.698   6.494 -0.4884 -1.1582 -0.6982
  730MOL0     C  615   9.631   5.794   6.414  0.0924  0.0049  0.3142
  730MOL0     C  616   9.658   5.760   6.262 -0.0846 -0.2378  0.1067
  730MOL0     C  617   9.544   5.840   6.196 -0.1632 -0.0394  0.2777
  730MOL0     C  618   9.568   5.860   6.043 -1.5487  0.6328 -0.5824
  730MOL0     N  619   9.473   5.954   5.977 -0.1418 -0.7432 -0.0920
  730MOL0     C  620   9.459   5.986   5.842 -0.7482  0.0954  0.7748
  730MOL0     C  621   9.351   6.064   5.831 -0.9195  0.1528 -0.1492
  730MOL0     C  622   9.310   6.135   5.696 -0.2198 -0.1407 -1.0450
  730MOL0     C  623   9.301   6.028   5.578 -0.1007 -0.0404  0.2493
  730MOL0     C  624   9.313   6.089   5.433  0.4129  0.2347 -0.4976
  730MOL0     C  625   9.325   5.997   5.314 -1.2675  0.2343  0.6164
  730MOL0     O  626   9.454   5.925   5.319 -0.2277 -0.1144  0.3900
  730MOL0     C  627   9.461   5.814   5.242 -0.3410  0.4846 -0.6263
  730MOL0     C  628   9.439   5.800   5.105  0.1443 -0.4110  0.3415
  730MOL0     C  629   9.437   5.676   5.033 -0.9172 -1.0312 -0.4611
  730MOL0     C  630   9.392   5.678   4.889  0.2628 -0.1267 -0.7497
  730MOL0     C  631   9.464   5.554   5.103  1.0699  0.3860 -0.2209
  730MOL0     C  632   9.459   5.410   5.041 -0.7799 -0.7449 -0.0909
  730MOL0     O  633   9.482   5.329   5.130  0.7103 -0.5211 -0.5664
  730MOL0     C  634   9.463   5.194   5.114 -0.0217 -0.0900 -0.7777
  730MOL0     C  635   9.542   5.109   5.033  0.6808 -0.1840 -0.1030
  730MOL0     C  636   9.518   4.968   5.034  0.4516 -0.3177  0.0705
  730MOL0     C  637   9.417   4.918   5.095 -0.0754 -0.3902  0.3392
  730MOL0     O  638   9.387   4.786   5.085  0.2838  0.1818 -0.2551
  730MOL0     C  639   9.260   4.759   5.029 -0.9991  0.0138  0.3478
  730MOL0     C  640   9.249   4.730   4.881 -0.3828  0.0620 -0.3652
  730MOL0     C  641   9.352   4.629   4.822  0.1494 -0.2643  0.3164
  730MOL0     C  642   9.358   4.634   4.670  0.1071  0.0616 -0.2068
  730MOL0     C  643   9.465   4.526   4.636 -0.3815  0.6752 -0.3217
  730MOL0     C  644   9.508   4.564   4.485 -0.2942  0.0445 -1.0622
  730MOL0     C  645   9.573   4.446   4.418 -0.0416 -0.2973  0.0800
  730MOL0     C  646   9.632   4.475   4.278 -0.3017  0.0389 -0.8959
  730MOL0    Cl  647   9.509   4.489   4.151  0.7551  0.2064  0.1401
  730MOL0     C  648   9.346   4.995   5.181  0.2723 -0.2301  0.5093
  730MOL0     C  649   9.367   5.129   5.194 -0.9671  1.0138  0.1520
  730MOL0     O  650   9.414   5.390   4.930 -0.1391  0.6712  0.0098
  730MOL0     C  651   9.505   5.569   5.241 -0.4943 -0.2069  0.0604
  730MOL0     C  652   9.495   5.696   5.301  0.0425  0.6874  0.2662
  730MOL0     N  653   9.294   6.074   5.962  0.1791 -0.4246  0.5054
  730MOL0     N  654   9.367   6.018   6.048  0.7045 -0.2373  0.1910
  730MOL0     C  655   9.968   5.385   6.591  0.4196  0.3226 -0.7212
  730MOL0     C  656   9.970   5.249   6.557 -0.8049 -0.9701 -0.1253
  730MOL0     C  657  10.062   4.817   6.473  0.0645  0.2013  0.1959
  730MOL0     C  658   9.976   4.765   6.574 -0.3736  0.2664 -0.7624
  730MOL0     C  659   9.950   4.635   6.570  0.3488  0.3862 -0.4128
  730MOL0     C  660  10.005   4.545   6.483 -0.3374  0.5552 -0.0809
  730MOL0     O  661   9.950   4.415   6.490 -0.8896  0.4830 -0.5360
  730MOL0     C  662  10.005   4.315   6.398  0.2383 -0.4386  0.2773
  730MOL0     C  663   9.956   4.189   6.461 -0.6049 -0.7102 -0.0287
  730MOL0     C  664   9.812   4.168   6.429 -0.6476  0.5423 -0.4375
  730MOL0     C  665   9.771   4.026   6.447  0.1742 -0.2316 -0.5668
  730MOL0     C  666   9.800   3.936   6.335 -0.4783 -0.1936  0.5236
  730MOL0     C  667   9.830   3.868   6.239  0.2468 -0.0677 -0.3854
  730MOL0     C  668  10.097   4.587   6.385  0.7248 -0.9195 -0.0014
  730MOL0     C  669  10.114   4.726   6.374  0.5360 -0.2219  0.4616
  730MOL0     C  670  10.182   4.772   6.244  0.2538 -0.5802 -0.1109
  730MOL0     H  671  10.154   5.126   6.809  1.7207  3.4583  0.1658
  730MOL0     H  672  10.155   5.344   6.877  3.0821 -0.9452 -1.3680
  730MOL0     H  673   9.986   5.652   6.584  2.7942  3.7064  0.0111
  730MOL0     H  674  10.017   5.755   6.720 -0.6178  1.3529 -1.0563
  730MOL0     H  675   9.807   5.556   6.702  0.7654  0.0285 -0.0866
  730MOL0     H  676   9.809   5.684   6.832 -0.6693 -2.0235  0.6667
  730MOL0     H  677   9.654   5.777   6.676 -0.5088 -1.8486 -0.0297
  730MOL0     H  678   9.815   5.838   6.606 -0.7623  0.3318 -1.5693
  730MOL0     H  679   9.821   5.679   6.444 -1.0286 -0.9675 -1.8380
  730MOL0     H  680   9.693   5.596   6.516  3.0126 -1.6819  3.4404
  730MOL0     H  681   9.667   5.896   6.436  5.0613 -0.8367 -2.4101
  730MOL0     H  682   9.525   5.781   6.437 -0.6317  4.6392  0.5698
  730MOL0     H  683   9.752   5.797   6.219 -1.2274  2.4379 -0.3288
  730MOL0     H  684   9.647   5.652   6.248 -2.4243  0.2189 -2.6385
  730MOL0     H  685   9.555   5.940   6.240  2.5159 -1.7086  3.8951
  730MOL0     H  686   9.447   5.792   6.210  0.1807 -0.9724 -0.4883
  730MOL0     H  687   9.669   5.900   6.030 -0.9265  0.2230  2.3292
  730MOL0     H  688   9.562   5.766   5.987  0.2192  0.3020 -0.2910
  730MOL0     H  689   9.513   5.947   5.756  1.7608  0.5152  2.0586
  730MOL0     H  690   9.390   6.208   5.682 -2.4388  2.7921  0.2765
  730MOL0     H  691   9.212   6.181   5.713 -0.6833 -1.5617  0.4444
  730MOL0     H  692   9.389   5.963   5.584 -0.5536 -0.5571  3.3053
  730MOL0     H  693   9.205   5.976   5.586 -1.4330  1.9653 -1.6831
  730MOL0     H  694   9.226   6.154   5.420 -0.4494 -1.0588 -1.4544
  730MOL0     H  695   9.404   6.150   5.441  2.4953 -2.8316  1.5796
  730MOL0     H  696   9.238   5.930   5.314  0.7312 -2.5837  1.8277
  730MOL0     H  697   9.327   6.060   5.225 -1.2123  1.6774  1.5978
  730MOL0     H  698   9.415   5.887   5.045  1.4720  0.4310  0.9930
  730MOL0     H  699   9.363   5.778   4.856 -3.0098 -0.3700  0.9589
  730MOL0     H  700   9.309   5.606   4.884 -0.0876  0.0143  1.8621
  730MOL0     H  701   9.475   5.654   4.822  0.0407  0.2590 -1.1669
  730MOL0     H  702   9.614   5.146   4.960 -0.0032 -0.8162 -1.1135
  730MOL0     H  703   9.590   4.917   4.970  1.8637  0.5199  0.9353
  730MOL0     H  704   9.225   4.672   5.086 -1.1031  0.6045  1.2046
  730MOL0     H  705   9.187   4.835   5.056 -2.0005 -1.8180  3.2297
  730MOL0     H  706   9.148   4.698   4.852 -0.9449 -0.5551  2.0708
  730MOL0     H  707   9.289   4.819   4.830  5.7320 -2.2770 -0.5034
  730MOL0     H  708   9.333   4.525   4.850  1.8904 -0.3035  1.4854
  730MOL0     H  709   9.448   4.659   4.864 -0.5380  2.0439  0.3931
  730MOL0     H  710   9.390   4.733   4.637  0.3143  0.4468  1.1014
  730MOL0     H  711   9.256   4.627   4.633  0.7120  0.2595 -2.0011
  730MOL0     H  712   9.553   4.539   4.700 -2.7953 -1.3018  3.7711
  730MOL0     H  713   9.427   4.425   4.655 -2.3991  1.1254 -1.6468
  730MOL0     H  714   9.572   4.652   4.495 -3.2818  2.1425  1.6089
  730MOL0     H  715   9.418   4.589   4.428 -1.8571  1.6660  1.8795
  730MOL0     H  716   9.507   4.360   4.411 -1.1541  0.5507 -0.3016
  730MOL0     H  717   9.662   4.423   4.477  1.0130 -0.0279 -1.3423
  730MOL0     H  718   9.696   4.387   4.272  1.1998  0.5740  3.3326
  730MOL0     H  719   9.695   4.564   4.278  0.1874 -0.3023 -0.7793
  730MOL0     H  720   9.268   4.937   5.229  1.2584 -1.1789  1.0003
  730MOL0     H  721   9.311   5.179   5.273  1.4995  1.7463  1.5322
  730MOL0     H  722   9.523   5.479   5.300  0.4560  0.8185  1.3999
  730MOL0     H  723   9.521   5.703   5.406  3.3341 -1.8179 -0.2343
  730MOL0     H  724   9.909   5.456   6.533 -1.5734  0.4575  1.3128
  730MOL0     H  725   9.926   5.216   6.464  0.8632  1.6126 -1.9452
  730MOL0     H  726   9.927   4.827   6.649  1.1087  0.6814 -0.1029
  730MOL0     H  727   9.886   4.592   6.647  1.3372  1.0599  0.8242
  730MOL0     H  728   9.979   4.327   6.293 -1.7434  0.0869  0.7870
  730MOL0     H  729  10.114   4.322   6.409  0.0083  1.0127  2.1149
  730MOL0     H  730   9.978   4.201   6.567  0.8590 -0.1701 -0.3706
  730MOL0     H  731  10.013   4.103   6.426  0.1728  0.1262 -0.8691
  730MOL0     H  732   9.751   4.226   6.500 -2.8762 -0.9624 -1.0307
  730MOL0     H  733   9.787   4.202   6.328  0.5103 -0.6675 -1.1507
  730MOL0     H  734   9.663   4.022   6.464 -0.2932  1.6654 -2.6544
  730MOL0     H  735   9.813   3.973   6.533  1.3421  1.6018  0.0524
  730MOL0     H  736   9.841   3.812   6.148 -3.2305  1.8551 -2.2320
  730MOL0     H  737  10.117   4.522   6.301 -0.5758 -2.9028  1.1550
  730MOL0     H  738  10.159   4.702   6.163  0.1522  1.1172 -1.6255
  730MOL0     H  739  10.127   4.862   6.213 -0.5703 -1.1340 -0.2835
  730MOL0     H  740  10.287   4.798   6.258  0.2186 -0.0488 -0.7752
  731MOL0     O  741   1.915   7.959  10.072  0.1939 -0.4118 -0.1516
  731MOL0     C  742   2.003   7.954  10.162 -0.6360  0.7216  0.8477
  731MOL0     O  743   1.997   8.009  10.278  0.2977 -0.4920 -0.4663
  731MOL0     C  744   1.876   8.072  10.319 -0.0070 -0.0648 -0.1050
  731MOL0     C  745   1.824   8.031  10.439 -0.8169  0.5790 -0.2315
  731MOL0     C  746   1.714   8.103  10.490 -1.1605  0.8275  0.3345
  731MOL0     C  747   1.666   8.215  10.428  0.2846  0.8793 -0.6777
  731MOL0     O  748   1.590   8.316  10.488 -0.2364  0.1885  0.8330
  731MOL0     C  749   1.447   8.285  10.501  0.4680 -0.1610 -0.4445
  731MOL0     C  750   1.399   8.164  10.592 -0.8629 -0.2056 -0.5090
  731MOL0     C  751   1.380   8.028  10.516  1.0520 -0.0868  0.5296
  731MOL0     C  752   1.254   8.020  10.440  0.6322  0.2155  0.1462
  731MOL0     C  753   1.264   7.886  10.352  0.4984 -0.3198  0.0047
  731MOL0     C  754   1.128   7.862  10.278  0.9443  0.1854  0.0289
  731MOL0     C  755   1.006   7.842  10.373  0.3091 -0.2691 -0.1810
  731MOL0     C  756   0.877   7.797  10.302 -0.1328 -0.2343 -0.0994
  731MOL0     N  757   0.762   7.886  10.317  0.6418  0.3140  0.1026
  731MOL0     C  758   0.644   7.863  10.382  0.0706  1.3140 -0.2461
  731MOL0     C  759   0.585   7.978  10.398 -0.5325  0.0244  0.0372
  731MOL0     C  760   0.465   8.018  10.476 -0.7785 -0.6032  0.3866
  731MOL0     C  761   0.341   7.961  10.414  0.8987  0.0769 -0.3166
  731MOL0     C  762   0.217   7.977  10.511  0.1247 -0.0046  0.0588
  731MOL0     C  763   0.088   7.922  10.450  0.0660 -0.2939  0.3571
  731MOL0     O  764   0.002   7.889  10.557  0.0587 -0.8073 -1.1768
  731MOL0     C  765  -0.050   7.975  10.657  0.1517 -0.0858 -0.3993
  731MOL0     C  766  -0.138   8.076  10.624  0.5882  0.1612 -0.9027
  731MOL0     C  767  -0.198   8.159  10.722 -0.2614  0.1421 -0.2428
  731MOL0     C  768  -0.275   8.283  10.673 -0.9817 -0.1180  0.4735
  731MOL0     C  769  -0.169   8.133  10.858  0.6562 -0.0630  0.1670
  731MOL0     C  770  -0.239   8.205  10.964 -0.9659 -0.1901  0.2000
  731MOL0     O  771  -0.362   8.249  10.950 -0.4052 -0.7865  0.1185
  731MOL0     C  772  -0.418   8.339  11.036  0.2960 -0.1096  0.0076
  731MOL0     C  773  -0.430   8.477  11.012 -0.7458 -0.0926 -0.0515
  731MOL0     C  774  -0.493   8.556  11.111  0.4788 -0.0223 -0.4825
  731MOL0     C  775  -0.543   8.501  11.224  0.4404  0.0207  0.3336
  731MOL0     O  776  -0.611   8.581  11.309  0.1703  0.1513 -0.4067
  731MOL0     C  777  -0.685   8.528  11.417  0.7474 -0.4784  0.1644
  731MOL0     C  778  -0.782   8.645  11.461  0.4247  0.2349  0.1864
  731MOL0     C  779  -0.854   8.610  11.592 -0.3692  0.1144 -0.2265
  731MOL0     C  780  -0.984   8.683  11.617 -0.1585  0.0096 -0.0164
  731MOL0     C  781  -1.055   8.622  11.735 -0.0313  0.1181 -0.1465
  731MOL0     C  782  -1.114   8.726  11.830  0.1610  0.5826 -0.9039
  731MOL0     C  783  -1.207   8.663  11.933  0.2226  0.1426 -0.2715
  731MOL0     C  784  -1.154   8.569  12.046 -0.3921 -0.3990  0.6835
  731MOL0    Cl  785  -1.044   8.665  12.157  0.5102 -0.4157  0.0022
  731MOL0     C  786  -0.534   8.363  11.236 -0.3446  0.1232 -0.3379
  731MOL0     C  787  -0.472   8.280  11.149 -0.1996 -0.0290  0.0331
  731MOL0     O  788  -0.165   8.235  11.059 -0.0620  0.6141  0.3510
  731MOL0     C  789  -0.076   8.035  10.890 -0.7978  0.8048 -0.4458
  731MOL0     C  790  -0.021   7.953  10.787  0.5783  0.0709 -0.0775
  731MOL0     N  791   0.659   8.079  10.335 -0.1346 -0.8314  0.7519
  731MOL0     N  792   0.762   8.020  10.279  0.4295 -0.5451 -0.0216
  731MOL0     C  793   1.728   8.250  10.311  0.6698  0.8075 -0.4389
  731MOL0     C  794   1.830   8.175  10.248  0.3053  0.0550 -0.2859
  731MOL0     C  795   2.131   7.884  10.143  0.1303  0.4919  0.9126
  731MOL0     C  796   2.299   7.905  10.276  0.4054 -0.1265 -0.6959
  731MOL0     C  797   2.482   7.808  10.233  0.4300 -0.3063 -0.1575
  731MOL0     C  798   2.504   7.696  10.058 -1.2903 -0.0958  0.0357
  731MOL0     O  799   2.629   7.638  10.025  0.4603  0.3522 -0.6562
  731MOL0     C  800   2.645   7.569   9.900 -0.1977 -0.0487  0.6527
  731MOL0     C  801   2.784   7.511   9.901  0.4066  0.4872  0.0548
  731MOL0     C  802   2.807   7.429   9.768 -0.8746  0.0462 -1.1333
  731MOL0     C  803   2.955   7.399   9.756  0.2926  0.0870 -0.1432
  731MOL0     C  804   3.044   7.502   9.710  0.1659 -0.0308  0.3443
  731MOL0     C  805   3.122   7.583   9.666  0.7629 -0.2008  0.3194
  731MOL0     C  806   2.336   7.676   9.928 -0.2993  1.0880  0.7500
  731MOL0     C  807   2.152   7.767   9.969  0.4127 -0.0429 -0.4108
  731MOL0     C  808   2.038   7.738   9.890 -0.7691  0.4354  0.9801
  731MOL0     H  809   1.867   7.955  10.503 -0.0375  1.3588  0.1931
  731MOL0     H  810   1.664   8.074  10.582  0.2713  0.9467  1.1895
  731MOL0     H  811   1.396   8.255  10.409  0.2702  0.9272 -0.7071
  731MOL0     H  812   1.402   8.379  10.535  0.2630 -0.4493  0.0827
  731MOL0     H  813   1.471   8.143  10.672  0.8979  2.6812 -1.1835
  731MOL0     H  814   1.301   8.188  10.634  0.2786  0.8233  1.7501
  731MOL0     H  815   1.462   8.008  10.447 -2.3567 -0.5062 -3.8124
  731MOL0     H  816   1.376   7.951  10.594 -1.0831 -0.3556  0.1998
  731MOL0     H  817   1.173   8.017  10.514  0.4408  0.9895 -0.0200
  731MOL0     H  818   1.261   8.101  10.366  4.5594 -0.5370 -0.4821
  731MOL0     H  819   1.283   7.805  10.422  2.4356  0.7152  0.7483
  731MOL0     H  820   1.343   7.890  10.277  1.4714  2.5383  1.0196
  731MOL0     H  821   1.112   7.944  10.207 -1.1131  1.8583  2.2562
  731MOL0     H  822   1.133   7.774  10.212 -2.4882  0.3371 -0.6605
  731MOL0     H  823   0.991   7.930  10.436  0.0012 -1.7750  1.9421
  731MOL0     H  824   1.050   7.762  10.433 -2.3859 -1.1530  0.7557
  731MOL0     H  825   0.901   7.780  10.197  0.2849 -1.3346  0.1594
  731MOL0     H  826   0.847   7.700  10.343 -2.8973  0.5476 -0.0892
  731MOL0     H  827   0.612   7.767  10.423 -0.1411  0.7495 -1.6638
  731MOL0     H  828   0.461   8.127  10.481  3.0536  0.0461 -3.8920
  731MOL0     H  829   0.476   7.992  10.582 -3.5340  4.9477  2.3936
  731MOL0     H  830   0.316   8.011  10.320 -1.4999 -0.2795  0.0611
  731MOL0     H  831   0.351   7.854  10.394  0.3608 -0.1548  0.6017
  731MOL0     H  832   0.236   7.924  10.604 -0.4972 -0.5672 -0.1255
  731MOL0     H  833   0.197   8.083  10.529  0.5039 -0.1493  1.3833
  731MOL0     H  834   0.036   7.990  10.381  0.0574  0.5354  1.1696
  731MOL0     H  835   0.120   7.834  10.392 -2.1184 -1.5527  0.9289
  731MOL0     H  836  -0.173   8.081  10.521 -0.9678  2.2093 -0.3489
  731MOL0     H  837  -0.384   8.278  10.684 -0.8351  0.6013  2.8132
  731MOL0     H  838  -0.261   8.314  10.569 -3.4196  3.1547  0.9487
  731MOL0     H  839  -0.243   8.374  10.724 -3.2794  1.6802 -1.0535
  731MOL0     H  840  -0.392   8.510  10.915 -0.0409 -0.6891  0.0143
  731MOL0     H  841  -0.516   8.660  11.092 -1.9513 -0.2531  0.7433
  731MOL0     H  842  -0.740   8.441  11.380 -1.2051 -1.1412  4.1238
  731MOL0     H  843  -0.622   8.497  11.500  0.5875  0.0912  0.5053
  731MOL0     H  844  -0.731   8.737  11.493  0.0104  0.4301  0.2948
  731MOL0     H  845  -0.858   8.660  11.383  2.1685 -2.4203 -2.2199
  731MOL0     H  846  -0.783   8.631  11.673 -1.6982 -1.1246  1.3242
  731MOL0     H  847  -0.881   8.505  11.594 -1.2789  0.3421 -0.0378
  731MOL0     H  848  -1.039   8.675  11.522  2.9152 -3.2024 -1.8044
  731MOL0     H  849  -0.962   8.789  11.632  1.6139 -0.0967 -1.3772
  731MOL0     H  850  -1.127   8.546  11.701 -0.3881  0.9680 -1.3394
  731MOL0     H  851  -0.971   8.578  11.791  1.1404 -1.4866 -2.9285
  731MOL0     H  852  -1.175   8.790  11.765  1.3706  0.6907 -1.9815
  731MOL0     H  853  -1.039   8.788  11.880  0.2469 -0.5079  0.3595
  731MOL0     H  854  -1.286   8.609  11.881 -0.6841  2.2628 -1.2127
  731MOL0     H  855  -1.254   8.754  11.970  0.7811  1.1489 -1.9547
  731MOL0     H  856  -1.094   8.490  12.000 -2.9092 -1.0639 -1.7823
  731MOL0     H  857  -1.239   8.526  12.098 -1.7544  1.3589  0.0404
  731MOL0     H  858  -0.582   8.310  11.317  0.9588 -3.4426 -1.6949
  731MOL0     H  859  -0.464   8.172  11.156  2.2003  0.1352  0.6286
  731MOL0     H  860  -0.043   8.019  10.992  1.0579  4.6955 -0.2754
  731MOL0     H  861   0.044   7.868  10.805  0.0500  0.0225  1.8700
  731MOL0     H  862   1.697   8.341  10.258 -0.1201  0.3201 -0.8395
  731MOL0     H  863   1.877   8.190  10.151  2.1161 -1.4566  0.2973
  731MOL0     H  864   2.295   7.958  10.370  1.3220  1.3997 -1.4678
  731MOL0     H  865   2.562   7.811  10.305  2.7843 -0.6799 -2.5852
  731MOL0     H  866   2.576   7.484   9.896  1.2259 -1.2459  0.4919
  731MOL0     H  867   2.617   7.641   9.823  2.1741 -0.7029 -0.9219
  731MOL0     H  868   2.802   7.459   9.996 -2.1928 -0.7863 -0.0776
  731MOL0     H  869   2.841   7.604   9.891  1.0774 -0.1052 -2.6772
  731MOL0     H  870   2.749   7.336   9.774  0.5206 -0.9194 -2.0522
  731MOL0     H  871   2.786   7.496   9.684  0.8698  1.7834 -0.2506
  731MOL0     H  872   2.961   7.326   9.675 -4.1573 -0.9281  0.2183
  731MOL0     H  873   2.989   7.351   9.848 -1.8450 -1.0835  0.1096
  731MOL0     H  874   3.189   7.650   9.617  0.8503 -2.6610 -3.2659
  731MOL0     H  875   2.339   7.606   9.845 -1.2460  0.1469  1.4828
  731MOL0     H  876   2.052   7.691   9.792 -0.7266  0.1449  1.1229
  731MOL0     H  877   1.971   7.674   9.949  0.6934 -1.1379  1.0015
  731MOL0     H  878   1.985   7.830   9.866  2.4784  2.0526 -0.6395
  732MOL0     O  879   2.332   0.666   6.118 -0.0300  0.6464  0.7726
  732MOL0     C  880   2.418   0.755   6.091  1.1129  0.4498 -0.2333
  732MOL0     O  881   2.389   0.882   6.092 -0.2370  0.4709  0.7630
  732MOL0     C  882   2.259   0.915   6.105  0.7508 -0.5604 -0.7527
  732MOL0     C  883   2.205   0.972   6.222  0.0639  0.8267  0.2367
  732MOL0     C  884   2.062   0.987   6.241 -0.5988 -0.4618  0.7312
  732MOL0     C  885   1.976   0.971   6.130 -0.2491 -0.0509  0.2769
  732MOL0     O  886   1.840   0.973   6.138  0.0307  0.2116  0.4916
  732MOL0     C  887   1.794   0.851   6.201 -0.0489 -0.4065  1.5798
  732MOL0     C  888   1.659   0.815   6.142  0.2807 -0.4610  0.2161
  732MOL0     C  889   1.671   0.766   6.004  0.4213 -0.4576 -0.0522
  732MOL0     C  890   1.540   0.706   5.949 -1.2850 -0.2199  0.3071
  732MOL0     C  891   1.421   0.804   5.945  0.4067 -0.1776 -0.6441
  732MOL0     C  892   1.459   0.934   5.868  0.1007 -0.2116 -1.1361
  732MOL0     C  893   1.337   1.025   5.864  0.6058  0.0498 -0.2881
  732MOL0     C  894   1.367   1.152   5.795  0.4555 -0.3418  0.1492
  732MOL0     N  895   1.425   1.252   5.887  0.4464  0.1225 -0.8479
  732MOL0     C  896   1.417   1.261   6.027 -0.1397  0.0029 -0.8348
  732MOL0     C  897   1.481   1.371   6.059 -0.1509  0.2935  0.1876
  732MOL0     C  898   1.502   1.417   6.198 -0.7972 -1.0901  0.3928
  732MOL0     C  899   1.655   1.424   6.235  0.5340  0.3154  0.3894
  732MOL0     C  900   1.700   1.298   6.300  0.3290 -0.1798  0.3088
  732MOL0     C  901   1.821   1.308   6.389  0.3875  0.1491 -0.1372
  732MOL0     O  902   1.813   1.386   6.513  0.6768  0.1213 -0.1639
  732MOL0     C  903   1.927   1.407   6.591  0.1699  1.5142 -1.1511
  732MOL0     C  904   2.056   1.352   6.560  0.3352 -0.2033  0.3494
  732MOL0     C  905   2.168   1.365   6.648 -0.1935 -0.8383  0.1264
  732MOL0     C  906   2.295   1.309   6.597 -0.6361  0.1042 -0.3445
  732MOL0     C  907   2.143   1.419   6.780 -0.6582 -0.0935 -0.5321
  732MOL0     C  908   2.244   1.413   6.894  0.2081  0.7192  0.1491
  732MOL0     O  909   2.344   1.329   6.874 -0.3149 -0.1756 -0.2862
  732MOL0     C  910   2.430   1.291   6.974  0.2917 -0.6631 -0.0288
  732MOL0     C  911   2.395   1.283   7.110 -0.2136  1.0812  0.4537
  732MOL0     C  912   2.498   1.255   7.210  0.2015 -0.5382  0.5879
  732MOL0     C  913   2.632   1.237   7.173 -0.2524 -0.9842  0.9044
  732MOL0     O  914   2.718   1.199   7.270 -0.1881 -0.1240 -0.2314
  732MOL0     C  915   2.836   1.126   7.235  0.2210  0.5925 -0.1558
  732MOL0     C  916   2.820   0.988   7.162  1.0249 -0.8424 -0.0402
  732MOL0     C  917   2.914   0.983   7.041 -0.5310  0.3170  0.0625
  732MOL0     C  918   2.942   0.849   6.988 -0.2654  0.5778  0.3247
  732MOL0     C  919   3.021   0.851   6.859  0.6521 -0.2791 -0.7373
  732MOL0     C  920   2.928   0.850   6.732 -1.3762  0.3170  0.6501
  732MOL0     C  921   2.994   0.809   6.596 -0.3952  0.8867  1.3370
  732MOL0     C  922   2.940   0.884   6.478 -0.2910 -0.5737  0.9619
  732MOL0    Cl  923   3.060   0.889   6.347  0.3152 -0.2535 -0.5621
  732MOL0     C  924   2.660   1.245   7.037  0.1778  0.6058  1.3130
  732MOL0     C  925   2.568   1.286   6.935 -0.5617  0.2345 -0.4325
  732MOL0     O  926   2.222   1.484   6.992 -0.1012  0.5777 -0.2896
  732MOL0     C  927   2.015   1.474   6.808 -0.0913 -1.1825  0.4026
  732MOL0     C  928   1.912   1.476   6.715 -0.8885  0.5737 -0.3229
  732MOL0     N  929   1.534   1.424   5.946 -0.1702 -1.0341  0.8347
  732MOL0     N  930   1.498   1.355   5.842 -0.6410 -0.4565 -0.4950
  732MOL0     C  931   2.035   0.937   6.007 -0.2199  0.4565 -0.6998
  732MOL0     C  932   2.166   0.903   5.996 -0.1906  0.3761 -1.2021
  732MOL0     C  933   2.555   0.711   6.060  0.6545 -0.2863 -0.4145
  732MOL0     C  934   2.571   0.592   5.974 -0.1774 -0.0275 -0.6956
  732MOL0     C  935   2.699   0.550   5.951 -0.2547  0.2094  0.1508
  732MOL0     C  936   2.815   0.611   6.000 -0.0195 -0.0817 -0.2660
  732MOL0     O  937   2.938   0.565   5.989 -0.6112 -0.0699 -0.1133
  732MOL0     C  938   2.959   0.473   5.877  0.6325  0.5692 -0.6102
  732MOL0     C  939   3.107   0.445   5.896  0.3883 -0.2848  0.3447
  732MOL0     C  940   3.196   0.421   5.770 -0.2426  0.3103 -0.0621
  732MOL0     C  941   3.182   0.519   5.658  0.2963  0.2716 -0.4545
  732MOL0     C  942   3.272   0.480   5.539  0.0563  0.8244  0.6664
  732MOL0     C  943   3.340   0.460   5.442 -0.9352 -1.0578 -0.2904
  732MOL0     C  944   2.801   0.733   6.070 -0.2820 -0.1105 -0.7342
  732MOL0     C  945   2.675   0.783   6.107 -0.4233 -0.4454 -1.4875
  732MOL0     C  946   2.662   0.902   6.197 -0.2960  0.5244  0.6953
  732MOL0     H  947   2.278   0.991   6.300  2.8842 -1.1030 -1.7635
  732MOL0     H  948   2.016   1.013   6.336  0.9560  2.7487  0.7503
  732MOL0     H  949   1.776   0.875   6.306 -2.9743 -0.8703  1.2526
  732MOL0     H  950   1.865   0.771   6.178 -1.0023 -0.9936  0.5971
  732MOL0     H  951   1.605   0.738   6.198 -1.9942 -0.1647 -1.4185
  732MOL0     H  952   1.600   0.907   6.145  1.4556  0.4474 -2.2920
  732MOL0     H  953   1.705   0.846   5.938  1.0913  0.1586  1.0072
  732MOL0     H  954   1.748   0.688   6.005 -1.0529 -2.0032  2.4738
  732MOL0     H  955   1.552   0.661   5.850 -1.4689  1.8530 -0.7239
  732MOL0     H  956   1.506   0.622   6.010  0.1667 -1.0402  0.0080
  732MOL0     H  957   1.382   0.829   6.044 -5.7021 -3.4894 -1.6917
  732MOL0     H  958   1.342   0.744   5.899  0.4230 -0.1360 -0.7256
  732MOL0     H  959   1.536   0.991   5.922 -1.5742 -0.4546  1.7040
  732MOL0     H  960   1.500   0.903   5.772 -0.1861  0.2780 -1.4160
  732MOL0     H  961   1.282   1.046   5.957 -1.1440  2.8765 -1.7895
  732MOL0     H  962   1.249   0.977   5.820  0.1910 -1.5283  2.0413
  732MOL0     H  963   1.441   1.124   5.720  2.1371 -1.8215  2.2595
  732MOL0     H  964   1.276   1.190   5.747  0.0359 -2.8937 -1.2342
  732MOL0     H  965   1.360   1.193   6.089  0.6636 -1.1756 -1.3558
  732MOL0     H  966   1.449   1.354   6.270 -1.0126 -0.8580  0.4390
  732MOL0     H  967   1.457   1.516   6.205  3.0675  1.3366 -3.6303
  732MOL0     H  968   1.716   1.454   6.150 -1.9311 -0.0909 -1.6144
  732MOL0     H  969   1.666   1.509   6.304  1.3943  1.7351 -1.4016
  732MOL0     H  970   1.621   1.250   6.359 -1.0454  0.1202 -1.2033
  732MOL0     H  971   1.740   1.234   6.222  2.3448 -1.9684  2.6445
  732MOL0     H  972   1.834   1.203   6.414  0.2694  0.2985  0.5775
  732MOL0     H  973   1.902   1.336   6.320 -1.0921  1.0025 -1.5917
  732MOL0     H  974   2.076   1.314   6.460  1.3789  1.2769 -0.0427
  732MOL0     H  975   2.292   1.300   6.488  1.0941 -0.7773 -0.3557
  732MOL0     H  976   2.305   1.209   6.639  0.5783 -0.3071 -1.5394
  732MOL0     H  977   2.389   1.355   6.629  2.6154 -4.2641 -2.6010
  732MOL0     H  978   2.292   1.298   7.143 -0.4863  1.8521 -0.6930
  732MOL0     H  979   2.461   1.246   7.312  1.2373 -1.5723  0.8855
  732MOL0     H  980   2.901   1.190   7.175  1.6265 -0.5724  0.0605
  732MOL0     H  981   2.881   1.117   7.334  0.0375  2.3871  0.1263
  732MOL0     H  982   2.829   0.913   7.240 -3.6667 -1.0868  0.5543
  732MOL0     H  983   2.720   0.968   7.122  0.9407 -1.4683  0.4849
  732MOL0     H  984   3.011   1.029   7.066  1.6096 -2.1209 -2.9140
  732MOL0     H  985   2.871   1.043   6.960  0.3600 -1.6178 -1.9486
  732MOL0     H  986   2.846   0.801   6.968  0.8448 -2.1028  1.0248
  732MOL0     H  987   2.982   0.780   7.063 -3.0556 -0.5070  0.9301
  732MOL0     H  988   3.086   0.939   6.852  0.7400 -0.4670 -3.2246
  732MOL0     H  989   3.086   0.763   6.856  0.2287 -0.5635 -2.2659
  732MOL0     H  990   2.884   0.950   6.728 -0.9658  0.7625  4.3152
  732MOL0     H  991   2.842   0.782   6.740  1.7455 -4.2531 -0.3516
  732MOL0     H  992   2.979   0.703   6.574  0.4955  0.8506  0.8278
  732MOL0     H  993   3.102   0.827   6.605  1.0125 -5.3226  1.5803
  732MOL0     H  994   2.920   0.989   6.500  0.9232  0.0688 -0.7903
  732MOL0     H  995   2.848   0.841   6.438 -0.1579  0.3549 -0.4457
  732MOL0     H  996   2.759   1.229   6.996  1.1702 -0.2861  3.8565
  732MOL0     H  997   2.597   1.291   6.830 -0.6822  0.2803 -0.4638
  732MOL0     H  998   1.995   1.529   6.900  3.2678  3.5288 -1.2954
  732MOL0     H  999   1.813   1.508   6.745 -1.2219 -2.5129  2.4621
  732MOL0     H 1000   1.950   0.930   5.940 -1.8879 -0.2130  1.3875
  732MOL0     H 1001   2.210   0.877   5.900  0.6855  1.4909 -1.1325
  732MOL0     H 1002   2.485   0.537   5.939 -0.8026 -2.1323  3.4676
  732MOL0     H 1003   2.716   0.461   5.890 -1.5353 -1.4378  2.0794
  732MOL0     H 1004   2.907   0.377   5.872 -1.7746  1.7410  0.2132
  732MOL0     H 1005   2.930   0.532   5.789 -0.4458 -1.1640 -1.4659
  732MOL0     H 1006   3.108   0.368   5.974 -3.8637 -0.5057  0.4647
  732MOL0     H 1007   3.145   0.536   5.942  3.5569 -1.4124  0.1584
  732MOL0     H 1008   3.298   0.418   5.809 -0.2046 -0.1559 -0.1886
  732MOL0     H 1009   3.174   0.320   5.734 -0.2022 -0.6132  2.3371
  732MOL0     H 1010   3.214   0.614   5.700 -0.7162  0.8339 -0.9088
  732MOL0     H 1011   3.078   0.522   5.625  0.3841 -2.0981 -1.1820
  732MOL0     H 1012   3.413   0.432   5.368 -2.4684 -1.4783 -1.7005
  732MOL0     H 1013   2.890   0.782   6.109 -1.5960  0.1307  2.2585
  732MOL0     H 1014   2.609   0.982   6.146 -1.0908 -0.6433 -0.3837
  732MOL0     H 1015   2.606   0.861   6.281  3.4960 -1.0320  2.7473
  732MOL0     H 1016   2.754   0.932   6.249  0.8507 -0.1600 -0.8474
  733MOL0     O 1017  11.099   6.204   4.005 -0.4721  0.5813 -0.4222
  733MOL0     C 1018  11.214   6.177   4.015  0.2177  0.5660 -0.8430
  733MOL0     O 1019  11.317   6.266   3.983  0.1382  0.3903  0.2310
  733MOL0     C 1020  11.291   6.396   3.937  0.0300  0.0996 -1.6501
  733MOL0     C 1021  11.347   6.494   4.018  0.6140  0.1069  0.1572
  733MOL0     C 1022  11.320   6.628   3.998 -0.4485  0.2796 -0.5574
  733MOL0     C 1023  11.245   6.666   3.895 -0.6157  0.4859 -0.0034
  733MOL0     O 1024  11.237   6.805   3.896 -0.1648  0.0995  0.1710
  733MOL0     C 1025  11.162   6.885   3.802 -0.5286  0.5869  0.1307
  733MOL0     C 1026  11.100   6.993   3.885 -0.8595 -0.9235  0.6703
  733MOL0     C 1027  11.009   7.085   3.792 -0.8613  0.3960  0.1993
  733MOL0     C 1028  10.924   7.186   3.876 -0.2752 -0.1367 -0.7898
  733MOL0     C 1029  10.818   7.275   3.804  0.2137 -0.9426  0.1893
  733MOL0     C 1030  10.862   7.351   3.675  0.0677 -0.5989  0.0863
  733MOL0     C 1031  10.726   7.390   3.597  0.4740 -0.8144 -0.6501
  733MOL0     C 1032  10.749   7.491   3.484  0.2592 -0.3764 -0.1110
  733MOL0     N 1033  10.797   7.632   3.518 -0.2280 -0.1321  0.0913
  733MOL0     C 1034  10.723   7.717   3.597  0.5781 -0.8960 -0.1869
  733MOL0     C 1035  10.814   7.823   3.610 -0.5905  0.8206  0.7014
  733MOL0     C 1036  10.783   7.956   3.663 -0.6016  0.1358  0.3263
  733MOL0     C 1037  10.791   7.944   3.813  0.4563  0.6406 -0.0795
  733MOL0     C 1038  10.766   8.064   3.899  1.1612  0.4996 -0.3007
  733MOL0     C 1039  10.878   8.173   3.893  0.1417  0.4118  0.5896
  733MOL0     O 1040  11.014   8.128   3.911  0.4021  0.4576 -0.2514
  733MOL0     C 1041  11.119   8.211   3.916  0.7546 -0.0486 -0.6498
  733MOL0     C 1042  11.235   8.158   3.963  0.3696  0.7382  0.1169
  733MOL0     C 1043  11.354   8.238   3.974 -0.0558  0.7467 -0.6029
  733MOL0     C 1044  11.482   8.168   4.036  0.0148  0.4724 -0.0935
  733MOL0     C 1045  11.349   8.373   3.941  0.3512  0.3310 -0.5199
  733MOL0     C 1046  11.469   8.451   3.925 -0.4743 -0.3721 -0.2537
  733MOL0     O 1047  11.554   8.465   4.032  0.0944  0.1259  0.1773
  733MOL0     C 1048  11.668   8.534   4.024 -1.2860  0.5318 -0.2677
  733MOL0     C 1049  11.771   8.488   4.116  0.0482  0.3050  0.9802
  733MOL0     C 1050  11.887   8.559   4.138 -0.2362 -0.7791  0.2939
  733MOL0     C 1051  11.917   8.668   4.057  0.0193 -0.8862  0.0926
  733MOL0     O 1052  12.038   8.729   4.065 -0.0475  0.2829  0.2308
  733MOL0     C 1053  12.093   8.820   3.970 -0.3984  0.2685  0.3772
  733MOL0     C 1054  12.239   8.841   4.017 -0.2682  0.4870 -0.9018
  733MOL0     C 1055  12.320   8.713   4.034 -0.2986 -0.7732  0.8652
  733MOL0     C 1056  12.457   8.742   4.106 -0.3680 -0.6019  0.6828
  733MOL0     C 1057  12.511   8.601   4.147 -0.0328 -0.0429 -1.3383
  733MOL0     C 1058  12.638   8.545   4.070 -0.3476  0.4494 -0.2899
  733MOL0     C 1059  12.614   8.467   3.943  1.0093 -0.2193 -0.4067
  733MOL0     C 1060  12.746   8.403   3.904  0.4919  0.6105  0.3779
  733MOL0    Cl 1061  12.856   8.503   3.806  0.4731 -0.4180  0.1125
  733MOL0     C 1062  11.818   8.721   3.965 -0.2761 -0.3826 -0.4340
  733MOL0     C 1063  11.689   8.659   3.954 -0.5598 -0.1814  0.1237
  733MOL0     O 1064  11.480   8.515   3.819  0.2684 -0.3756 -0.2922
  733MOL0     C 1065  11.219   8.425   3.916 -0.8000 -0.6355 -0.7394
  733MOL0     C 1066  11.099   8.345   3.906  0.0469 -0.4876  0.8872
  733MOL0     N 1067  10.937   7.784   3.563  0.1304 -0.4961 -0.1505
  733MOL0     N 1068  10.931   7.664   3.516 -0.2004 -0.1339 -0.7357
  733MOL0     C 1069  11.188   6.567   3.803 -0.7227  0.1352 -0.0578
  733MOL0     C 1070  11.215   6.431   3.827 -0.1689 -0.1004 -0.5689
  733MOL0     C 1071  11.264   6.035   4.055  0.4152 -0.8253 -0.8237
  733MOL0     C 1072  11.399   6.025   4.099 -0.4079 -0.2199 -0.3478
  733MOL0     C 1073  11.446   5.897   4.143 -1.0401 -0.2443  0.3941
  733MOL0     C 1074  11.376   5.788   4.123 -0.3648 -0.0170 -0.0670
  733MOL0     O 1075  11.425   5.666   4.148 -0.1681  0.6589  0.3678
  733MOL0     C 1076  11.528   5.615   4.051 -0.6195  0.2869 -0.2971
  733MOL0     C 1077  11.497   5.473   4.005  1.0206  0.5642  0.3380
  733MOL0     C 1078  11.368   5.459   3.916 -0.4085  1.0754 -1.0199
  733MOL0     C 1079  11.347   5.559   3.804  0.8519  0.8198  0.6083
  733MOL0     C 1080  11.461   5.592   3.723 -1.3999  0.2285  0.3117
  733MOL0     C 1081  11.555   5.636   3.656 -0.4516  0.3355 -0.1819
  733MOL0     C 1082  11.237   5.794   4.092 -0.4828 -0.5278  0.3809
  733MOL0     C 1083  11.185   5.915   4.049 -1.1399 -0.3224  0.1232
  733MOL0     C 1084  11.041   5.913   3.988 -0.8550 -0.6782  0.1036
  733MOL0     H 1085  11.401   6.460   4.106  1.5067 -2.0407 -1.1340
  733MOL0     H 1086  11.358   6.704   4.066 -0.1410  1.2792 -1.8090
  733MOL0     H 1087  11.084   6.823   3.755  1.0536 -1.4715  0.0940
  733MOL0     H 1088  11.232   6.914   3.724  2.7088 -5.4258  0.1565
  733MOL0     H 1089  11.045   6.953   3.970 -3.2730 -2.9344 -1.6345
  733MOL0     H 1090  11.184   7.056   3.914  0.9366 -0.9802 -3.5936
  733MOL0     H 1091  11.061   7.146   3.717 -0.5743 -0.4190 -0.2896
  733MOL0     H 1092  10.951   7.018   3.728  0.5293 -1.9800  1.2454
  733MOL0     H 1093  10.878   7.126   3.956  0.8506 -0.1674 -0.1504
  733MOL0     H 1094  10.995   7.258   3.917  0.1217  0.1197 -1.9001
  733MOL0     H 1095  10.768   7.342   3.876  1.2265 -2.5923  2.5660
  733MOL0     H 1096  10.733   7.213   3.772 -1.9490  2.1766 -0.5486
  733MOL0     H 1097  10.911   7.446   3.695  0.2108 -0.1943 -1.9768
  733MOL0     H 1098  10.923   7.291   3.607 -0.6564 -1.7847  0.4384
  733MOL0     H 1099  10.645   7.424   3.663  0.8564  3.8002 -2.2615
  733MOL0     H 1100  10.692   7.299   3.546 -3.4451 -0.0997  0.3596
  733MOL0     H 1101  10.823   7.457   3.411 -1.8244  2.0612 -3.6367
  733MOL0     H 1102  10.659   7.507   3.424  1.1486  0.1894 -1.3419
  733MOL0     H 1103  10.618   7.717   3.623  0.4189  1.8896 -0.4874
  733MOL0     H 1104  10.677   7.978   3.645 -1.6406 -1.9106  3.0639
  733MOL0     H 1105  10.858   8.031   3.639  0.8658  0.0424  3.9347
  733MOL0     H 1106  10.718   7.873   3.854 -1.5381  1.9868 -1.1172
  733MOL0     H 1107  10.892   7.909   3.835  1.1766  0.4575 -3.1345
  733MOL0     H 1108  10.667   8.094   3.864  1.8214 -0.1652 -2.9562
  733MOL0     H 1109  10.757   8.032   4.003 -2.1212  0.0880 -0.5715
  733MOL0     H 1110  10.875   8.219   3.793  0.4665 -2.0380 -0.6388
  733MOL0     H 1111  10.851   8.242   3.973 -2.6942 -1.9142  1.7767
  733MOL0     H 1112  11.228   8.055   3.994 -2.2649  1.0332  0.7691
  733MOL0     H 1113  11.532   8.123   3.950  0.3624  1.1691 -0.2609
  733MOL0     H 1114  11.457   8.092   4.112  0.4479 -2.1202 -2.3780
  733MOL0     H 1115  11.541   8.247   4.083  0.2268  0.5074 -0.4196
  733MOL0     H 1116  11.732   8.401   4.167  0.8591 -0.7067 -0.0652
  733MOL0     H 1117  11.968   8.535   4.205  0.8109  2.1506  0.2240
  733MOL0     H 1118  12.087   8.770   3.873 -2.0635  1.2818 -0.0672
  733MOL0     H 1119  12.046   8.918   3.964 -2.7774 -0.8500 -0.2991
  733MOL0     H 1120  12.279   8.895   3.931 -0.9898  0.0186 -1.5370
  733MOL0     H 1121  12.244   8.897   4.111 -0.6107 -1.9844  0.6856
  733MOL0     H 1122  12.342   8.659   3.942  2.6888  0.6194  0.6538
  733MOL0     H 1123  12.268   8.653   4.109  1.1300 -1.4706  1.3172
  733MOL0     H 1124  12.443   8.799   4.198 -0.3197 -1.0699  0.9823
  733MOL0     H 1125  12.527   8.788   4.036  1.6456 -3.2599  0.8084
  733MOL0     H 1126  12.543   8.627   4.249  1.2142  4.5226 -2.6548
  733MOL0     H 1127  12.433   8.527   4.169 -1.6150  2.8115  4.9597
  733MOL0     H 1128  12.694   8.475   4.132 -1.2241 -0.3314 -0.3670
  733MOL0     H 1129  12.702   8.631   4.046  1.6375 -0.8895  0.0106
  733MOL0     H 1130  12.563   8.508   3.855  0.2093  1.7802  0.9398
  733MOL0     H 1131  12.553   8.383   3.977 -0.6750  2.1263  2.7886
  733MOL0     H 1132  12.719   8.316   3.843  1.8660 -1.3291  2.4129
  733MOL0     H 1133  12.798   8.355   3.986  2.8846  0.9262 -0.8679
  733MOL0     H 1134  11.853   8.812   3.917  0.7616 -1.6662 -2.2267
  733MOL0     H 1135  11.613   8.709   3.894  0.6437  0.0214 -1.2922
  733MOL0     H 1136  11.197   8.531   3.901 -0.9613 -0.5933 -0.2018
  733MOL0     H 1137  11.005   8.395   3.889 -0.7213 -1.9514  0.7356
  733MOL0     H 1138  11.117   6.601   3.728  0.4448  0.0800 -1.2192
  733MOL0     H 1139  11.172   6.361   3.756 -1.1305 -0.3595  0.2370
  733MOL0     H 1140  11.453   6.118   4.109  0.7582 -0.9383  0.3916
  733MOL0     H 1141  11.549   5.884   4.173 -0.7722 -0.8354 -0.7296
  733MOL0     H 1142  11.551   5.678   3.964 -0.8044  1.0247  0.1795
  733MOL0     H 1143  11.621   5.617   4.108  0.6312  2.9488 -2.2169
  733MOL0     H 1144  11.498   5.410   4.094  0.7893 -1.6408 -1.1533
  733MOL0     H 1145  11.580   5.435   3.945  0.1786 -2.6904  1.0614
  733MOL0     H 1146  11.369   5.358   3.875  1.1359  0.5897  0.1111
  733MOL0     H 1147  11.278   5.464   3.978 -1.1350 -0.3334 -1.9286
  733MOL0     H 1148  11.307   5.650   3.849 -0.0108  1.0467 -0.5758
  733MOL0     H 1149  11.272   5.507   3.744 -0.7373  1.8702  1.6276
  733MOL0     H 1150  11.636   5.677   3.599  0.9915 -0.5075  1.1899
  733MOL0     H 1151  11.186   5.702   4.067  3.6758 -1.7483 -6.0024
  733MOL0     H 1152  11.010   5.809   3.979 -1.4471 -0.4549 -0.4489
  733MOL0     H 1153  10.967   5.974   4.041 -0.0483  2.5426 -2.2227
  733MOL0     H 1154  11.029   5.962   3.892 -1.6795  2.7137  1.7733
  734MOL0     O 1155   8.872   6.932   8.498 -0.4295  0.5192  0.1680
  734MOL0     C 1156   8.877   6.879   8.389  0.2120 -0.9997  0.9654
  734MOL0     O 1157   8.983   6.887   8.315 -0.0307 -0.8621 -0.2973
  734MOL0     C 1158   9.102   6.947   8.349 -0.8138 -0.3386 -0.5946
  734MOL0     C 1159   9.227   6.882   8.318  0.2496 -0.1549 -0.3795
  734MOL0     C 1160   9.354   6.940   8.333 -0.0876  0.2347 -0.0455
  734MOL0     C 1161   9.363   7.067   8.388  0.4834 -0.4357  0.0132
  734MOL0     O 1162   9.486   7.123   8.410  0.8840  0.0121 -0.1936
  734MOL0     C 1163   9.599   7.117   8.326  0.1611 -0.2572  1.1218
  734MOL0     C 1164   9.571   7.103   8.174 -0.0557 -0.6730  0.4609
  734MOL0     C 1165   9.691   7.149   8.086 -0.2955 -0.5191  1.0069
  734MOL0     C 1166   9.818   7.083   8.111 -0.9474 -0.2835  0.7449
  734MOL0     C 1167   9.915   7.124   7.997 -0.0815 -0.0342 -0.0838
  734MOL0     C 1168   9.958   7.277   8.014  0.9210  0.3953  0.2336
  734MOL0     C 1169  10.044   7.325   7.897 -0.4125 -1.4044  0.5842
  734MOL0     C 1170  10.179   7.253   7.883 -0.1919 -0.3034 -0.2081
  734MOL0     N 1171  10.259   7.253   8.003  0.4123 -0.6229 -0.5686
  734MOL0     C 1172  10.280   7.132   8.072  0.5535  0.1071  1.0990
  734MOL0     C 1173  10.383   7.172   8.151 -0.2802  0.0957 -0.0120
  734MOL0     C 1174  10.477   7.090   8.224 -0.3997  0.1764 -0.7144
  734MOL0     C 1175  10.585   7.052   8.131 -0.0842  0.3101  1.0590
  734MOL0     C 1176  10.698   6.965   8.191  0.6032  0.4767 -0.1425
  734MOL0     C 1177  10.644   6.850   8.273  0.4264 -0.4095  0.6173
  734MOL0     O 1178  10.594   6.752   8.185 -0.0228 -0.1509 -0.4952
  734MOL0     C 1179  10.471   6.760   8.131 -0.1566  0.4176  0.2673
  734MOL0     C 1180  10.366   6.773   8.219 -0.6882 -0.9125  0.2912
  734MOL0     C 1181  10.229   6.783   8.169 -0.0463 -0.6441 -0.6707
  734MOL0     C 1182  10.120   6.799   8.266 -0.2347  0.0824  0.3481
  734MOL0     C 1183  10.211   6.768   8.028  1.5687  0.3521  0.2117
  734MOL0     C 1184  10.077   6.772   7.960  0.7456  0.8610 -0.7748
  734MOL0     O 1185  10.084   6.789   7.826 -0.0537  0.7418 -0.3981
  734MOL0     C 1186   9.963   6.813   7.763 -0.2489  0.5373 -0.1824
  734MOL0     C 1187   9.863   6.717   7.760  0.6384 -0.0063 -0.1828
  734MOL0     C 1188   9.761   6.733   7.668 -0.4956 -0.7846  0.6832
  734MOL0     C 1189   9.740   6.853   7.592  1.0412 -0.0228 -0.8070
  734MOL0     O 1190   9.637   6.862   7.499  0.3232  0.0834  1.1502
  734MOL0     C 1191   9.558   6.760   7.444 -0.2101  0.6829  0.1632
  734MOL0     C 1192   9.506   6.798   7.308 -0.2645 -0.2402 -0.2172
  734MOL0     C 1193   9.613   6.765   7.196  0.3388  0.7291  0.0832
  734MOL0     C 1194   9.555   6.785   7.058  0.2690 -0.0400  0.7592
  734MOL0     C 1195   9.658   6.743   6.947 -1.1371  0.0795 -0.3533
  734MOL0     C 1196   9.672   6.591   6.937 -0.4762 -0.0356 -0.1191
  734MOL0     C 1197   9.767   6.559   6.817 -0.6416 -0.7166  0.2095
  734MOL0     C 1198   9.917   6.597   6.837 -0.6211 -0.8998 -1.4950
  734MOL0    Cl 1199   9.949   6.759   6.775 -0.2852 -0.2837 -0.3100
  734MOL0     C 1200   9.837   6.946   7.608  0.7160 -0.7932 -0.6036
  734MOL0     C 1201   9.941   6.926   7.690  0.1369 -0.2743  0.2225
  734MOL0     O 1202   9.985   6.720   8.018  0.4578  0.5697 -0.0721
  734MOL0     C 1203  10.320   6.766   7.939  1.2983  0.2315  0.1421
  734MOL0     C 1204  10.445   6.759   7.999  0.8685  0.0949  0.9413
  734MOL0     N 1205  10.407   7.304   8.151 -0.4942  0.4716  0.2391
  734MOL0     N 1206  10.332   7.353   8.056 -0.3666  0.6963  0.0938
  734MOL0     C 1207   9.247   7.133   8.410 -0.5421  0.1941 -0.7409
  734MOL0     C 1208   9.118   7.076   8.394  0.3257  0.2560 -0.7082
  734MOL0     C 1209   8.758   6.811   8.337  0.2260  0.5834 -0.2583
  734MOL0     C 1210   8.772   6.722   8.228  0.2546 -0.1283  0.1860
  734MOL0     C 1211   8.666   6.656   8.168  0.0142  0.3258 -0.7754
  734MOL0     C 1212   8.542   6.681   8.209 -0.5387 -0.4148 -0.2373
  734MOL0     O 1213   8.429   6.636   8.154  0.8233  0.5519 -0.2675
  734MOL0     C 1214   8.433   6.585   8.020 -0.0866  0.2111  0.5787
  734MOL0     C 1215   8.457   6.431   8.023 -0.8842  0.2172  0.2761
  734MOL0     C 1216   8.350   6.353   8.096  1.0183 -1.0341 -0.5250
  734MOL0     C 1217   8.383   6.202   8.111  0.2833 -0.6094  0.5945
  734MOL0     C 1218   8.500   6.183   8.188 -0.3567 -0.1771 -0.6536
  734MOL0     C 1219   8.595   6.173   8.258  0.6842 -0.7082 -1.4108
  734MOL0     C 1220   8.521   6.756   8.328  0.5215 -0.1238 -0.0633
  734MOL0     C 1221   8.621   6.821   8.396  0.5342 -0.2644  0.5637
  734MOL0     C 1222   8.582   6.913   8.513  0.7564  0.3685  0.1747
  734MOL0     H 1223   9.202   6.786   8.275 -3.7059  0.2770  0.6285
  734MOL0     H 1224   9.442   6.883   8.306  1.3123  1.7020  1.2412
  734MOL0     H 1225   9.681   7.048   8.349  0.4902 -0.9176 -1.6794
  734MOL0     H 1226   9.646   7.216   8.336 -0.4877  0.1252  0.4488
  734MOL0     H 1227   9.535   7.004   8.144  0.0836 -1.4711  2.7069
  734MOL0     H 1228   9.479   7.160   8.155 -0.6572 -1.5671  0.6196
  734MOL0     H 1229   9.664   7.142   7.981  0.6882 -1.5386  0.8142
  734MOL0     H 1230   9.693   7.257   8.107  3.9302  0.3625 -2.5357
  734MOL0     H 1231   9.861   7.125   8.202  3.6214 -1.4954 -0.5723
  734MOL0     H 1232   9.800   6.977   8.130 -0.1923 -0.0229  3.2004
  734MOL0     H 1233   9.876   7.115   7.895 -0.9128  0.7827  0.1449
  734MOL0     H 1234  10.002   7.059   8.011  0.8100  0.9578 -0.8416
  734MOL0     H 1235   9.872   7.345   8.010  0.7632  0.2618  1.2177
  734MOL0     H 1236  10.001   7.308   8.110  0.8636  0.7293  0.1519
  734MOL0     H 1237  10.056   7.433   7.886 -1.2525 -1.3334  0.3630
  734MOL0     H 1238   9.997   7.299   7.802  1.6303  0.9635 -1.2298
  734MOL0     H 1239  10.157   7.154   7.842 -1.1787 -0.6798  1.1773
  734MOL0     H 1240  10.242   7.296   7.805  2.2817 -2.1169  0.6833
  734MOL0     H 1241  10.243   7.033   8.047 -0.1360  0.9170 -1.4042
  734MOL0     H 1242  10.435   7.009   8.284 -2.2889  0.1566 -1.9956
  734MOL0     H 1243  10.543   7.144   8.292  0.8588 -1.5253 -0.5189
  734MOL0     H 1244  10.540   7.003   8.044 -1.8052  1.9695  0.9652
  734MOL0     H 1245  10.634   7.137   8.084 -0.4953 -0.7095 -1.3368
  734MOL0     H 1246  10.772   6.930   8.118  0.7642 -0.9716  0.6769
  734MOL0     H 1247  10.749   7.041   8.250 -0.0510  1.3003 -0.6237
  734MOL0     H 1248  10.725   6.797   8.324 -0.6201 -1.3932  1.3079
  734MOL0     H 1249  10.581   6.892   8.352  1.0425 -1.0228  1.4528
  734MOL0     H 1250  10.391   6.763   8.324  1.4879 -5.8355 -0.4245
  734MOL0     H 1251  10.151   6.834   8.364 -1.5032 -0.5163  0.9875
  734MOL0     H 1252  10.075   6.700   8.280  1.5003 -1.1660 -2.1191
  734MOL0     H 1253  10.033   6.858   8.236 -1.9891 -1.0681  2.8555
  734MOL0     H 1254   9.874   6.622   7.812  4.3076 -0.1861 -1.0520
  734MOL0     H 1255   9.699   6.646   7.647  0.0612 -0.8953 -0.5813
  734MOL0     H 1256   9.611   6.665   7.450  3.2870  2.5163  1.4385
  734MOL0     H 1257   9.478   6.756   7.518 -1.0528 -4.1949 -0.6745
  734MOL0     H 1258   9.413   6.743   7.288 -0.1233 -1.8504  3.0141
  734MOL0     H 1259   9.465   6.900   7.317  0.0834  0.1386 -2.2983
  734MOL0     H 1260   9.637   6.663   7.226  0.4001  0.2793 -1.4012
  734MOL0     H 1261   9.699   6.833   7.200  1.0187 -0.0095 -1.3594
  734MOL0     H 1262   9.536   6.892   7.046  1.3362 -0.0486 -1.5364
  734MOL0     H 1263   9.457   6.741   7.038  0.9522 -1.7080  0.9237
  734MOL0     H 1264   9.634   6.788   6.851  4.6085 -0.6842 -2.5481
  734MOL0     H 1265   9.755   6.791   6.969  2.2094 -5.1489 -1.8987
  734MOL0     H 1266   9.578   6.540   6.913  0.3873 -2.0910  0.6116
  734MOL0     H 1267   9.700   6.534   7.026  0.5358  0.8587  0.1604
  734MOL0     H 1268   9.718   6.602   6.729 -1.4672 -1.5218  0.2534
  734MOL0     H 1269   9.770   6.450   6.807 -1.4976 -0.7621  0.3563
  734MOL0     H 1270   9.973   6.521   6.783 -0.5024  0.5918 -3.5949
  734MOL0     H 1271   9.948   6.590   6.941 -1.4077 -1.5962 -1.2984
  734MOL0     H 1272   9.823   7.033   7.544 -0.4648 -1.7820 -1.7309
  734MOL0     H 1273  10.007   7.010   7.711  0.0365 -0.6127  2.0865
  734MOL0     H 1274  10.321   6.767   7.831  1.5699 -3.6172 -0.0287
  734MOL0     H 1275  10.528   6.754   7.929  0.6382  1.6330  0.5203
  734MOL0     H 1276   9.259   7.236   8.445 -4.7459  1.1088 -1.5387
  734MOL0     H 1277   9.032   7.142   8.401 -0.7856 -0.9417 -2.4594
  734MOL0     H 1278   8.864   6.717   8.170  0.9272  0.7326  1.1469
  734MOL0     H 1279   8.686   6.584   8.089 -2.3847  0.1927 -1.3308
  734MOL0     H 1280   8.333   6.595   7.976 -1.0592 -1.0514  2.3811
  734MOL0     H 1281   8.505   6.642   7.961 -0.0137 -0.9687 -0.5289
  734MOL0     H 1282   8.561   6.410   8.046 -0.0726  2.7898 -0.6703
  734MOL0     H 1283   8.439   6.393   7.921  0.0742  4.1046 -1.5387
  734MOL0     H 1284   8.335   6.393   8.196 -0.3589 -0.7939 -0.8159
  734MOL0     H 1285   8.255   6.360   8.042  1.1386 -2.7132 -1.0125
  734MOL0     H 1286   8.404   6.153   8.015  0.9944  1.9684 -0.6652
  734MOL0     H 1287   8.293   6.153   8.148 -0.4326  0.6795  0.5963
  734MOL0     H 1288   8.676   6.154   8.326  0.7564  0.0185 -1.2932
  734MOL0     H 1289   8.418   6.761   8.363  1.0316 -0.5776  1.5914
  734MOL0     H 1290   8.478   6.901   8.545  0.2265 -3.7931 -2.4163
  734MOL0     H 1291   8.649   6.906   8.600  1.3382 -4.3301 -0.4075
  734MOL0     H 1292   8.593   7.015   8.476 -1.5388  0.1356 -1.2981
  735MOL0     O 1293  10.552  10.992   9.335  0.0507 -0.0722 -0.0270
  735MOL0     C 1294  10.467  11.040   9.259 -0.5982  0.5175  0.3987
  735MOL0     O 1295  10.434  11.169   9.250  0.3115  0.2599  0.2615
  735MOL0     C 1296  10.487  11.258   9.331  0.0448 -0.6395 -0.6412
  735MOL0     C 1297  10.611  11.319   9.315  0.3290  0.2960 -0.2306
  735MOL0     C 1298  10.665  11.412   9.398  0.2055 -0.1442  0.3768
  735MOL0     C 1299  10.590  11.460   9.505 -0.8752 -0.0567  0.8014
  735MOL0     O 1300  10.654  11.552   9.583 -0.9503  0.6355 -0.8627
  735MOL0     C 1301  10.615  11.552   9.715 -0.9021 -0.0965  0.4371
  735MOL0     C 1302  10.716  11.634   9.799 -0.1008 -0.9156  0.2713
  735MOL0     C 1303  10.702  11.783   9.773 -1.0991  0.0357 -0.6763
  735MOL0     C 1304  10.781  11.883   9.869  0.0324 -0.4147  0.6561
  735MOL0     C 1305  10.756  12.033   9.840  0.2513 -0.5151  0.3137
  735MOL0     C 1306  10.611  12.076   9.869  0.6506  0.4652  0.4744
  735MOL0     C 1307  10.579  12.218   9.813  0.6583 -0.1461 -0.0362
  735MOL0     C 1308  10.471  12.298   9.876  0.1410 -1.7146  0.4695
  735MOL0     N 1309  10.341  12.235   9.830  0.4369  0.2242  1.5083
  735MOL0     C 1310  10.293  12.114   9.884  0.2881  0.0599 -0.1391
  735MOL0     C 1311  10.180  12.096   9.815  0.1336 -0.0272  0.0080
  735MOL0     C 1312  10.083  11.983   9.841 -0.7505 -1.5517  0.1836
  735MOL0     C 1313  10.050  11.926   9.703  0.1183  0.2908 -0.0796
  735MOL0     C 1314   9.975  11.790   9.708  0.4804 -0.0144  0.1246
  735MOL0     C 1315  10.067  11.672   9.747 -0.0851  0.0730  1.1588
  735MOL0     O 1316  10.147  11.636   9.631 -0.3534  0.5251  0.1332
  735MOL0     C 1317  10.077  11.556   9.536 -0.1671 -0.7364  0.3964
  735MOL0     C 1318  10.140  11.513   9.427 -0.7658  0.3620  1.4122
  735MOL0     C 1319  10.077  11.431   9.331  0.2677  0.1170  0.6149
  735MOL0     C 1320  10.167  11.394   9.219 -0.3071 -0.9908  0.9209
  735MOL0     C 1321   9.944  11.390   9.337  0.7619  0.6917  0.4944
  735MOL0     C 1322   9.876  11.295   9.249 -0.5564 -0.7264  0.4558
  735MOL0     O 1323   9.910  11.283   9.121 -0.0269 -0.6758  1.3776
  735MOL0     C 1324   9.880  11.172   9.045  0.1396  0.6657 -0.2860
  735MOL0     C 1325   9.848  11.050   9.091  0.2203  0.4146  0.3438
  735MOL0     C 1326   9.833  10.936   9.009 -0.3303 -0.1674 -0.1297
  735MOL0     C 1327   9.862  10.938   8.870 -0.9523  0.3738  0.0293
  735MOL0     O 1328   9.852  10.827   8.801 -0.7037  0.2953 -0.4267
  735MOL0     C 1329   9.851  10.852   8.656 -0.3344 -0.2063 -0.9082
  735MOL0     C 1330   9.828  10.715   8.591  0.4605  0.7352  0.5760
  735MOL0     C 1331   9.877  10.720   8.445 -0.7277 -0.1410 -0.2798
  735MOL0     C 1332   9.849  10.596   8.358  0.7344  0.5069 -0.0612
  735MOL0     C 1333   9.963  10.565   8.262 -0.0892 -1.0578 -0.5449
  735MOL0     C 1334   9.933  10.452   8.162  0.6684  0.3919  0.3113
  735MOL0     C 1335  10.049  10.403   8.091 -0.7029  0.1196 -0.0433
  735MOL0     C 1336  10.138  10.510   8.024  0.5188 -0.1315  0.8320
  735MOL0    Cl 1337  10.298  10.440   7.974  0.3853  0.0291  0.6948
  735MOL0     C 1338   9.888  11.070   8.823  0.4961 -0.4740 -0.3523
  735MOL0     C 1339   9.895  11.182   8.904  0.1359 -0.8260 -0.1351
  735MOL0     O 1340   9.792  11.222   9.303 -0.3998  0.0829 -0.2540
  735MOL0     C 1341   9.877  11.440   9.446  0.8651  0.5429 -0.4920
  735MOL0     C 1342   9.940  11.520   9.540  0.4761 -0.7261 -0.6350
  735MOL0     N 1343  10.165  12.189   9.713 -0.3349 -0.0891  0.0213
  735MOL0     N 1344  10.260  12.274   9.731 -0.1835 -0.2237  1.1521
  735MOL0     C 1345  10.476  11.395   9.535 -0.3553 -0.5567  0.2815
  735MOL0     C 1346  10.418  11.296   9.449 -0.5965 -0.0698  0.1160
  735MOL0     C 1347  10.399  10.941   9.176 -0.4343  1.0757 -0.4987
  735MOL0     C 1348  10.281  10.978   9.109  0.1115 -0.5093 -0.6851
  735MOL0     C 1349  10.220  10.885   9.029  0.3732  1.1571 -0.4218
  735MOL0     C 1350  10.260  10.746   9.020 -0.5845 -0.1415  0.0405
  735MOL0     O 1351  10.188  10.651   8.953 -0.9086 -0.0643 -0.5804
  735MOL0     C 1352  10.067  10.609   9.011  0.2440  0.3040 -0.2040
  735MOL0     C 1353  10.018  10.504   8.911  0.1409 -0.2530 -0.1299
  735MOL0     C 1354   9.869  10.473   8.949 -0.4642 -0.5034 -0.5836
  735MOL0     C 1355   9.813  10.334   8.909 -0.5976 -0.4684  0.7554
  735MOL0     C 1356   9.776  10.338   8.769 -0.3560  0.7524  0.8029
  735MOL0     C 1357   9.751  10.324   8.646  0.3930  0.1084 -0.0684
  735MOL0     C 1358  10.371  10.712   9.087  1.5009  0.6304 -0.8233
  735MOL0     C 1359  10.446  10.803   9.163  0.3336 -0.2252 -0.1858
  735MOL0     C 1360  10.569  10.741   9.239  0.3255 -0.9440  0.2723
  735MOL0     H 1361  10.663  11.297   9.222 -2.6073  0.1971 -1.9973
  735MOL0     H 1362  10.760  11.461   9.377  0.1085  0.3646  1.0995
  735MOL0     H 1363  10.619  11.445   9.738 -1.8928 -0.4241 -0.8099
  735MOL0     H 1364  10.516  11.588   9.742 -0.3800  0.4338  1.7234
  735MOL0     H 1365  10.698  11.625   9.906 -4.0972  2.2970  0.0888
  735MOL0     H 1366  10.823  11.616   9.779  0.0812  1.2018 -0.9574
  735MOL0     H 1367  10.729  11.801   9.668 -1.6330  1.2411 -0.6260
  735MOL0     H 1368  10.597  11.813   9.784 -0.6316  0.6801  3.4369
  735MOL0     H 1369  10.773  11.869   9.977 -1.4344  2.6002  1.0101
  735MOL0     H 1370  10.888  11.880   9.845 -0.3745  0.9436 -1.7202
  735MOL0     H 1371  10.779  12.056   9.736  0.8597 -2.3410  0.0073
  735MOL0     H 1372  10.824  12.089   9.904 -1.1896 -0.1516  1.5833
  735MOL0     H 1373  10.542  12.012   9.814  1.3433  0.6595 -0.6518
  735MOL0     H 1374  10.587  12.061   9.975 -1.2349  1.7042  0.2588
  735MOL0     H 1375  10.557  12.222   9.706 -1.7131  1.3826  0.4196
  735MOL0     H 1376  10.673  12.274   9.824 -0.2532  1.9417 -2.0839
  735MOL0     H 1377  10.466  12.310   9.984 -1.0608  1.8917  0.1412
  735MOL0     H 1378  10.483  12.400   9.837 -1.7861 -1.1436  1.2532
  735MOL0     H 1379  10.332  12.058   9.969 -1.4712  0.6234  1.0921
  735MOL0     H 1380   9.995  12.017   9.897 -0.4515  0.0051 -0.2397
  735MOL0     H 1381  10.129  11.915   9.913  0.3082 -0.1763  0.8493
  735MOL0     H 1382   9.982  11.992   9.648 -1.7307 -1.5303 -0.0938
  735MOL0     H 1383  10.142  11.905   9.648  0.3993 -2.5465  1.3153
  735MOL0     H 1384   9.887  11.803   9.771 -0.2577 -1.1136 -0.6531
  735MOL0     H 1385   9.928  11.779   9.610  2.0603  0.9614 -0.8038
  735MOL0     H 1386  10.131  11.702   9.830  0.5244  1.2922  0.2879
  735MOL0     H 1387  10.025  11.578   9.784  1.7541 -2.4610 -2.5201
  735MOL0     H 1388  10.245  11.537   9.417 -0.7003  0.2254  1.7425
  735MOL0     H 1389  10.273  11.405   9.244  0.4197 -2.0132 -1.4762
  735MOL0     H 1390  10.155  11.462   9.134 -3.9730 -1.5840  0.8141
  735MOL0     H 1391  10.151  11.292   9.182  0.3296  0.0810 -2.6700
  735MOL0     H 1392   9.816  11.043   9.194 -0.8489 -1.2043 -0.0586
  735MOL0     H 1393   9.800  10.839   9.043 -1.0365  0.0214 -0.2551
  735MOL0     H 1394   9.763  10.912   8.630 -0.4893 -0.1253 -0.2192
  735MOL0     H 1395   9.951  10.886   8.626 -0.0985  0.2755  0.3757
  735MOL0     H 1396   9.876  10.636   8.649  1.0067  1.3756  1.0243
  735MOL0     H 1397   9.720  10.700   8.595  0.7117 -2.1227 -0.9818
  735MOL0     H 1398   9.985  10.733   8.433 -0.5545 -1.3114 -0.1203
  735MOL0     H 1399   9.824  10.799   8.392 -1.6488 -1.0122 -0.7079
  735MOL0     H 1400   9.758  10.616   8.302  0.3071  5.0679  1.8237
  735MOL0     H 1401   9.843  10.506   8.421  4.1114  0.3111  0.1745
  735MOL0     H 1402   9.983  10.662   8.215 -0.8038  0.6796  2.4738
  735MOL0     H 1403  10.051  10.524   8.312 -0.8653 -3.0801 -0.7546
  735MOL0     H 1404   9.845  10.474   8.101  0.4285 -2.4549 -0.5048
  735MOL0     H 1405   9.890  10.366   8.213  0.3104 -0.1982 -0.9541
  735MOL0     H 1406  10.004  10.329   8.024  1.9956 -1.5522 -0.1787
  735MOL0     H 1407  10.113  10.350   8.163 -0.9292 -0.6846 -0.4180
  735MOL0     H 1408  10.155  10.598   8.085  0.5084  0.1855  0.3838
  735MOL0     H 1409  10.083  10.549   7.938  2.6830 -1.9134 -1.5209
  735MOL0     H 1410   9.905  11.090   8.718 -1.2065  2.3917 -0.1921
  735MOL0     H 1411   9.920  11.273   8.851 -1.6403 -1.5148 -2.3272
  735MOL0     H 1412   9.773  11.424   9.471  0.9729  0.9410  0.2647
  735MOL0     H 1413   9.886  11.549   9.629  1.4989  1.4655 -0.6602
  735MOL0     H 1414  10.424  11.430   9.623  3.3869 -1.4021  3.0624
  735MOL0     H 1415  10.316  11.259   9.461 -1.7938  2.9897  0.3107
  735MOL0     H 1416  10.240  11.078   9.114  3.0037  0.6999  2.8851
  735MOL0     H 1417  10.150  10.919   8.953  1.7277  0.3501 -2.0991
  735MOL0     H 1418  10.096  10.568   9.108 -1.9271  1.3663  0.9681
  735MOL0     H 1419   9.998  10.693   9.026 -3.1756 -2.5643  1.5427
  735MOL0     H 1420  10.078  10.415   8.932  1.5022  0.7255  0.2969
  735MOL0     H 1421  10.022  10.543   8.809  1.4259  1.0828  0.3968
  735MOL0     H 1422   9.870  10.473   9.058 -1.0948 -3.3544 -0.4869
  735MOL0     H 1423   9.801  10.548   8.908 -0.3591 -0.8769 -1.4686
  735MOL0     H 1424   9.730  10.306   8.974  1.0235 -2.1632  2.2075
  735MOL0     H 1425   9.894  10.261   8.921 -0.7392 -0.5103  1.4489
  735MOL0     H 1426   9.735  10.315   8.541  3.9904  4.5881 -1.3271
  735MOL0     H 1427  10.406  10.609   9.084  2.0294  0.8152 -1.2597
  735MOL0     H 1428  10.596  10.638   9.216  3.8077 -0.3350  1.0889
  735MOL0     H 1429  10.657  10.798   9.207  0.1749  1.1611  3.2484
  735MOL0     H 1430  10.556  10.749   9.347  0.6374 -1.5712  0.3643
  736MOL0     O 1431   0.331   5.617   8.031  0.6819 -0.5233 -0.7425
  736MOL0     C 1432   0.277   5.717   7.990 -0.5277  0.8826 -0.2315
  736MOL0     O 1433   0.150   5.718   7.946  0.4639 -0.0978  0.1338
  736MOL0     C 1434   0.075   5.634   8.013  0.1085 -0.7912  0.9894
  736MOL0     C 1435   0.081   5.492   8.006 -0.2824 -1.1859  0.8133
  736MOL0     C 1436  -0.010   5.417   8.075  0.4135 -0.0535 -0.1816
  736MOL0     C 1437  -0.129   5.471   8.118  0.8937 -0.0145  0.3341
  736MOL0     O 1438  -0.234   5.384   8.158 -0.6939 -0.3486 -0.3527
  736MOL0     C 1439  -0.225   5.243   8.177 -0.4995 -0.2936  0.8801
  736MOL0     C 1440  -0.343   5.222   8.269  0.5343 -0.7326  0.0301
  736MOL0     C 1441  -0.489   5.245   8.203 -0.0142  1.0190 -0.0889
  736MOL0     C 1442  -0.599   5.193   8.290 -0.1897 -1.0735 -0.7911
  736MOL0     C 1443  -0.739   5.208   8.237 -0.0013 -0.3352  0.2852
  736MOL0     C 1444  -0.762   5.108   8.123  0.9068  0.7055  0.1414
  736MOL0     C 1445  -0.913   5.077   8.110 -0.7102 -0.8505  0.0084
  736MOL0     C 1446  -0.982   4.980   8.210  0.5973 -0.5838  0.2775
  736MOL0     N 1447  -0.998   5.031   8.350  0.2125  0.1792 -0.5195
  736MOL0     C 1448  -1.063   5.144   8.394 -0.1367  0.4008 -0.5920
  736MOL0     C 1449  -1.070   5.138   8.529 -0.2633  0.0973 -0.8536
  736MOL0     C 1450  -1.095   5.259   8.618  0.0883 -0.6648 -0.1581
  736MOL0     C 1451  -0.984   5.361   8.614  1.0543  0.1158  0.6499
  736MOL0     C 1452  -1.002   5.480   8.714  0.1740  0.6430  0.2241
  736MOL0     C 1453  -0.924   5.601   8.651 -0.0043  0.2644 -0.0579
  736MOL0     O 1454  -0.969   5.643   8.525 -0.3003  0.2617 -0.0267
  736MOL0     C 1455  -0.864   5.703   8.446  0.6683  0.2919 -0.4167
  736MOL0     C 1456  -0.740   5.642   8.415  0.5287  1.0187  0.1400
  736MOL0     C 1457  -0.647   5.704   8.327  0.5023 -0.1706 -1.2105
  736MOL0     C 1458  -0.513   5.632   8.307 -0.7517  0.3721  0.2981
  736MOL0     C 1459  -0.673   5.834   8.280 -0.6323 -0.6624  0.2867
  736MOL0     C 1460  -0.571   5.900   8.190 -0.7559  0.1202  1.3331
  736MOL0     O 1461  -0.438   5.884   8.205 -0.2424  0.2270 -0.1353
  736MOL0     C 1462  -0.353   5.955   8.131  0.3123  0.5569 -0.2604
  736MOL0     C 1463  -0.320   6.084   8.170 -0.2772  0.0111  0.4008
  736MOL0     C 1464  -0.231   6.158   8.090  0.5872  0.2275  1.1668
  736MOL0     C 1465  -0.183   6.102   7.971  0.6848 -0.1042 -0.6456
  736MOL0     O 1466  -0.094   6.178   7.902 -0.1632 -0.6137 -0.7928
  736MOL0     C 1467  -0.096   6.148   7.760  0.7699 -0.0833 -0.1330
  736MOL0     C 1468  -0.056   6.272   7.690 -0.1360 -0.8879  0.8039
  736MOL0     C 1469   0.086   6.322   7.729 -0.0841  0.1052 -0.6283
  736MOL0     C 1470   0.110   6.474   7.687 -1.0553 -0.2020  0.2519
  736MOL0     C 1471   0.253   6.513   7.665 -0.8685  0.0602  0.2376
  736MOL0     C 1472   0.306   6.477   7.520  0.4613  0.1137 -0.5366
  736MOL0     C 1473   0.436   6.538   7.512 -0.8200 -0.2984  1.0526
  736MOL0     C 1474   0.474   6.534   7.359  0.2653  0.0238  0.5021
  736MOL0    Cl 1475   0.591   6.667   7.335 -0.1634 -0.2174  0.0550
  736MOL0     C 1476  -0.210   5.971   7.936  0.4494  0.4541  0.3054
  736MOL0     C 1477  -0.302   5.903   8.021 -0.2187 -0.0857 -0.2118
  736MOL0     O 1478  -0.625   5.977   8.112 -0.6820 -0.5598 -0.1571
  736MOL0     C 1479  -0.800   5.883   8.300  0.0325 -0.2470 -0.5405
  736MOL0     C 1480  -0.893   5.825   8.386 -0.5729 -0.3427  1.0258
  736MOL0     N 1481  -1.002   5.026   8.569  0.0372  1.0801 -0.1342
  736MOL0     N 1482  -0.962   4.962   8.462  0.9772  0.6009 -0.0407
  736MOL0     C 1483  -0.154   5.608   8.104  0.2717  0.7808 -0.0532
  736MOL0     C 1484  -0.048   5.689   8.059  0.4475 -0.8378 -0.1046
  736MOL0     C 1485   0.354   5.835   7.951 -0.8319 -0.2847  0.1312
  736MOL0     C 1486   0.480   5.810   7.888  0.4505 -0.5419 -0.1682
  736MOL0     C 1487   0.552   5.920   7.831 -1.0862  0.3915  1.1092
  736MOL0     C 1488   0.502   6.045   7.828 -0.1876 -0.4270  0.7846
  736MOL0     O 1489   0.580   6.141   7.765 -0.1954 -1.1680  0.0180
  736MOL0     C 1490   0.519   6.200   7.653  1.4309  0.2315  0.1836
  736MOL0     C 1491   0.541   6.124   7.517 -0.3630 -0.0210 -0.0998
  736MOL0     C 1492   0.693   6.113   7.474  0.0464  1.1372  0.5014
  736MOL0     C 1493   0.710   6.012   7.352  0.6557  0.6910 -0.3450
  736MOL0     C 1494   0.621   6.034   7.241 -0.6219  0.9659 -0.1579
  736MOL0     C 1495   0.548   6.036   7.149 -0.0342  1.6124 -0.1192
  736MOL0     C 1496   0.374   6.071   7.880 -0.6223  0.8832 -0.4616
  736MOL0     C 1497   0.312   5.967   7.953 -0.5923  0.4752 -0.5635
  736MOL0     C 1498   0.189   5.998   8.038  0.9026  0.1163  0.7036
  736MOL0     H 1499   0.162   5.443   7.954  0.0571  0.1648  0.0350
  736MOL0     H 1500   0.006   5.310   8.079  1.7872  0.0084 -2.6716
  736MOL0     H 1501  -0.128   5.216   8.220 -0.3390 -0.0821  0.6616
  736MOL0     H 1502  -0.229   5.202   8.075  1.1143  5.5244 -1.9906
  736MOL0     H 1503  -0.340   5.122   8.313 -0.6419  0.4819  3.2051
  736MOL0     H 1504  -0.325   5.290   8.353 -0.1087  2.1163 -1.9814
  736MOL0     H 1505  -0.498   5.352   8.187 -2.3816  0.9419  0.4245
  736MOL0     H 1506  -0.493   5.189   8.109  1.3479  0.9314 -0.1244
  736MOL0     H 1507  -0.578   5.088   8.312  0.6637 -0.6440  0.5685
  736MOL0     H 1508  -0.583   5.243   8.386  3.2506  1.3563 -2.4259
  736MOL0     H 1509  -0.759   5.305   8.191  0.0023 -0.5967 -0.2868
  736MOL0     H 1510  -0.811   5.187   8.316 -3.9556 -0.9119 -3.0939
  736MOL0     H 1511  -0.729   5.151   8.028  1.9499  3.3410  1.5984
  736MOL0     H 1512  -0.718   5.010   8.145  2.3615  1.3793  0.3521
  736MOL0     H 1513  -0.941   5.044   8.009 -1.9370 -0.2347  0.1245
  736MOL0     H 1514  -0.964   5.174   8.118  0.9216  0.1112 -0.8331
  736MOL0     H 1515  -1.082   4.963   8.169  0.4581  2.1855 -0.7528
  736MOL0     H 1516  -0.923   4.887   8.211  0.5431 -0.6995 -2.1519
  736MOL0     H 1517  -1.116   5.221   8.339  0.9460  1.7238  0.1438
  736MOL0     H 1518  -1.101   5.232   8.724 -0.2928  0.4242  0.1145
  736MOL0     H 1519  -1.193   5.302   8.593  0.9805  0.4978 -1.9163
  736MOL0     H 1520  -0.893   5.303   8.634  1.8005  1.4607  1.3426
  736MOL0     H 1521  -0.988   5.385   8.508 -3.1420 -2.0883  0.1213
  736MOL0     H 1522  -1.107   5.510   8.721 -0.2091 -0.2379 -1.2633
  736MOL0     H 1523  -0.950   5.457   8.808  1.3612 -0.5768 -0.6883
  736MOL0     H 1524  -0.943   5.682   8.721 -3.3709  1.4039 -2.0490
  736MOL0     H 1525  -0.816   5.582   8.649 -0.0410 -0.1019  1.1137
  736MOL0     H 1526  -0.730   5.537   8.444 -2.6121  0.9147  1.2593
  736MOL0     H 1527  -0.516   5.525   8.328 -1.3799 -1.1655 -5.6450
  736MOL0     H 1528  -0.436   5.684   8.365 -2.0464  5.2848 -1.8572
  736MOL0     H 1529  -0.483   5.645   8.203  2.9152  0.3687  1.2318
  736MOL0     H 1530  -0.350   6.129   8.264 -1.7917 -1.4654  0.6570
  736MOL0     H 1531  -0.184   6.250   8.124 -0.0851  0.6762  0.9006
  736MOL0     H 1532  -0.016   6.076   7.740  1.0350  0.3168 -0.5194
  736MOL0     H 1533  -0.195   6.114   7.727 -0.2543  0.7879  1.8112
  736MOL0     H 1534  -0.055   6.257   7.582 -2.4201  1.3012  0.3793
  736MOL0     H 1535  -0.141   6.339   7.707 -1.4535 -2.2300 -0.2026
  736MOL0     H 1536   0.165   6.254   7.693  0.8985  0.1146  1.3927
  736MOL0     H 1537   0.084   6.315   7.838 -0.7220 -2.4588 -0.7231
  736MOL0     H 1538   0.071   6.534   7.770 -3.3699 -1.8142  0.4145
  736MOL0     H 1539   0.056   6.504   7.597  1.3494  1.2880 -0.8026
  736MOL0     H 1540   0.263   6.621   7.679  0.8762 -0.1016  0.3994
  736MOL0     H 1541   0.314   6.467   7.743 -0.6526 -1.0658 -0.5743
  736MOL0     H 1542   0.236   6.515   7.445 -0.2420 -0.6428 -0.2750
  736MOL0     H 1543   0.317   6.370   7.505  3.0111  0.4588 -1.7347
  736MOL0     H 1544   0.507   6.475   7.566 -0.4565 -0.4455  0.4167
  736MOL0     H 1545   0.443   6.646   7.525  2.2839  0.1866 -2.8581
  736MOL0     H 1546   0.385   6.549   7.297  0.9868 -3.4185 -1.6331
  736MOL0     H 1547   0.502   6.436   7.321  0.3644 -0.7799  2.5423
  736MOL0     H 1548  -0.161   5.922   7.853  1.5088  2.7370 -0.5069
  736MOL0     H 1549  -0.319   5.800   7.990  1.2003 -0.4439  0.1552
  736MOL0     H 1550  -0.857   5.961   8.249 -3.8819 -0.6612  2.6815
  736MOL0     H 1551  -0.983   5.882   8.406 -0.9303 -0.6602  0.3476
  736MOL0     H 1552  -0.249   5.645   8.141  0.3590  2.6742 -1.5282
  736MOL0     H 1553  -0.057   5.796   8.042 -0.4971 -0.9442 -0.3486
  736MOL0     H 1554   0.521   5.709   7.888  2.6963  0.3052  0.4637
  736MOL0     H 1555   0.636   5.893   7.769 -3.0552  0.8522 -2.0094
  736MOL0     H 1556   0.410   6.200   7.658  1.0624  2.8916 -3.6232
  736MOL0     H 1557   0.559   6.302   7.645  1.2671  0.2625 -0.2882
  736MOL0     H 1558   0.482   6.184   7.447  1.0449  3.3107  1.3861
  736MOL0     H 1559   0.502   6.022   7.515 -1.4459  0.3772 -0.1714
  736MOL0     H 1560   0.718   6.213   7.437  0.4813  0.3531 -1.4510
  736MOL0     H 1561   0.763   6.077   7.550  0.9615  1.2918 -0.2455
  736MOL0     H 1562   0.688   5.910   7.383 -2.2628  0.7032 -1.9861
  736MOL0     H 1563   0.808   6.024   7.306  0.8031  2.5726  0.3518
  736MOL0     H 1564   0.472   6.039   7.073 -0.7354 -0.4646  0.4183
  736MOL0     H 1565   0.336   6.171   7.862 -2.8247  0.6058  1.9981
  736MOL0     H 1566   0.198   5.965   8.142  1.7296  0.1384  0.6411
  736MOL0     H 1567   0.163   6.104   8.040  3.0242  0.6637  1.4123
  736MOL0     H 1568   0.114   5.944   7.978 -0.6205  0.6294  2.0659
  737MOL0     O 1569   2.610   6.748   1.751  0.4275  0.0716 -0.2782
  737MOL0     C 1570   2.707   6.808   1.801 -0.5419 -0.7119  0.1152
  737MOL0     O 1571   2.719   6.858   1.929 -0.1596  0.6612  0.1646
  737MOL0     C 1572   2.607   6.896   1.994 -0.2104 -0.8639  0.8588
  737MOL0     C 1573   2.629   6.987   2.094 -0.8771 -1.3580 -0.7217
  737MOL0     C 1574   2.521   7.042   2.160  0.4002 -1.1643 -0.1345
  737MOL0     C 1575   2.388   7.003   2.134 -0.4310 -0.5542  0.4011
  737MOL0     O 1576   2.282   7.069   2.195  0.3057  0.4334 -0.1239
  737MOL0     C 1577   2.215   6.997   2.300  1.1087  0.2649  0.8424
  737MOL0     C 1578   2.144   7.091   2.389  0.2115 -0.1560  0.1308
  737MOL0     C 1579   2.038   7.178   2.317 -0.2888  0.7411  1.3385
  737MOL0     C 1580   1.954   7.269   2.416 -0.1065  1.1211  0.6890
  737MOL0     C 1581   2.025   7.405   2.439  0.1274  0.0293  0.1070
  737MOL0     C 1582   2.136   7.420   2.540 -0.1250 -0.8252  0.2503
  737MOL0     C 1583   2.189   7.563   2.550 -0.4723 -0.0411  0.0614
  737MOL0     C 1584   2.263   7.578   2.690  0.3065 -0.3428 -1.1187
  737MOL0     N 1585   2.389   7.510   2.696 -0.4556  0.8587  0.9861
  737MOL0     C 1586   2.416   7.374   2.689 -0.4267 -0.3920 -0.9768
  737MOL0     C 1587   2.547   7.362   2.723  0.5038  0.3551  0.2213
  737MOL0     C 1588   2.628   7.235   2.736  0.6743 -0.1511 -0.2004
  737MOL0     C 1589   2.772   7.270   2.690  0.8345  0.1190  0.2822
  737MOL0     C 1590   2.863   7.144   2.682  0.4906  0.4656  0.2586
  737MOL0     C 1591   2.820   7.039   2.582 -0.2000  0.2584 -0.2317
  737MOL0     O 1592   2.923   6.940   2.592  0.0860 -0.2559 -0.0422
  737MOL0     C 1593   2.959   6.864   2.483 -0.6429 -0.2026  0.0740
  737MOL0     C 1594   3.083   6.815   2.476 -0.3255 -1.1345  0.1837
  737MOL0     C 1595   3.131   6.735   2.372 -0.0597  0.3409  0.1898
  737MOL0     C 1596   3.273   6.685   2.378 -0.2417  0.2765  1.3055
  737MOL0     C 1597   3.048   6.708   2.260 -0.3906  0.7812  0.0298
  737MOL0     C 1598   3.092   6.632   2.140  0.9419 -0.6563 -0.4409
  737MOL0     O 1599   2.999   6.555   2.076  0.3305 -0.3240 -0.7252
  737MOL0     C 1600   3.033   6.469   1.973  0.2740  0.2125 -0.4312
  737MOL0     C 1601   2.983   6.336   1.963  0.6614  1.0560 -0.5667
  737MOL0     C 1602   3.002   6.256   1.856  0.3630 -0.7223  0.0959
  737MOL0     C 1603   3.082   6.295   1.755  1.0833 -0.2632 -0.1095
  737MOL0     O 1604   3.106   6.216   1.641  0.2801 -0.0558 -0.2471
  737MOL0     C 1605   3.046   6.095   1.609  0.0480  0.2061  1.5118
  737MOL0     C 1606   2.903   6.122   1.558  0.1401  0.4097  0.2757
  737MOL0     C 1607   2.811   6.001   1.599 -0.3482 -0.1407 -0.2780
  737MOL0     C 1608   2.817   5.884   1.501 -0.2343 -0.0411  0.3836
  737MOL0     C 1609   2.743   5.925   1.380 -0.0896  0.6166 -0.0653
  737MOL0     C 1610   2.735   5.803   1.279  0.6630 -1.0994 -0.0792
  737MOL0     C 1611   2.869   5.742   1.236  0.0764 -0.1757  0.2913
  737MOL0     C 1612   2.838   5.651   1.117  0.6491 -0.1585  0.2040
  737MOL0    Cl 1613   2.718   5.520   1.153  0.2998 -0.0618 -0.1117
  737MOL0     C 1614   3.134   6.418   1.751 -0.2619 -0.3727  0.0686
  737MOL0     C 1615   3.099   6.509   1.856 -0.8232  0.7868  0.7180
  737MOL0     O 1616   3.203   6.655   2.085  0.1489 -0.2522 -0.5237
  737MOL0     C 1617   2.923   6.755   2.263  0.3407  0.9619  0.0376
  737MOL0     C 1618   2.872   6.837   2.373 -0.4430  0.0134  1.0354
  737MOL0     N 1619   2.591   7.485   2.760 -0.2000 -0.0140  0.3413
  737MOL0     N 1620   2.500   7.570   2.738  0.2521 -0.4568  1.1017
  737MOL0     C 1621   2.362   6.906   2.045  0.0324 -0.6115  0.2469
  737MOL0     C 1622   2.471   6.844   1.982 -0.1974 -1.0472 -0.0051
  737MOL0     C 1623   2.823   6.828   1.715 -0.9360 -0.5372 -1.5624
  737MOL0     C 1624   2.887   6.951   1.720  0.3334  0.1421  0.7126
  737MOL0     C 1625   3.012   6.967   1.658 -0.4308  0.2492  0.1853
  737MOL0     C 1626   3.065   6.868   1.570  0.6042  0.2401  0.5586
  737MOL0     O 1627   3.190   6.864   1.520 -0.0109  0.4239  0.1717
  737MOL0     C 1628   3.272   6.983   1.490 -0.1913 -0.7703  0.0996
  737MOL0     C 1629   3.250   7.059   1.353 -0.5392  0.4552  0.1757
  737MOL0     C 1630   3.191   6.975   1.236  0.6827 -0.2720 -0.2556
  737MOL0     C 1631   3.302   6.895   1.168  0.3786 -0.7246  0.3372
  737MOL0     C 1632   3.364   6.978   1.058 -0.2872 -0.0348 -0.0879
  737MOL0     C 1633   3.417   7.042   0.970  0.5098  0.7222  0.7442
  737MOL0     C 1634   3.001   6.742   1.575  0.1286 -0.2357  0.4712
  737MOL0     C 1635   2.875   6.723   1.640 -0.3217  0.6264 -0.3854
  737MOL0     C 1636   2.821   6.579   1.637  0.0236 -0.2613  0.0147
  737MOL0     H 1637   2.725   7.030   2.122 -1.8545  2.8101 -2.8598
  737MOL0     H 1638   2.545   7.105   2.244 -2.5859 -1.2792  0.9568
  737MOL0     H 1639   2.280   6.931   2.357  2.2938  1.3645  0.8080
  737MOL0     H 1640   2.132   6.941   2.255  2.0506  0.0797 -0.7543
  737MOL0     H 1641   2.091   7.024   2.457  2.1465  0.3069  2.2383
  737MOL0     H 1642   2.214   7.145   2.455 -3.6295  2.7492  2.2809
  737MOL0     H 1643   2.079   7.245   2.241 -0.5934  2.7657  2.8895
  737MOL0     H 1644   1.971   7.099   2.280  0.4808  0.5226  0.3852
  737MOL0     H 1645   1.856   7.288   2.372 -0.3737 -1.7980 -0.1724
  737MOL0     H 1646   1.946   7.217   2.512  3.2762  0.7218  0.8999
  737MOL0     H 1647   1.938   7.455   2.485 -1.3697  0.4048 -2.8719
  737MOL0     H 1648   2.047   7.459   2.346  0.2958 -0.0676  0.0926
  737MOL0     H 1649   2.098   7.396   2.640  0.0099 -1.1695  0.2215
  737MOL0     H 1650   2.226   7.361   2.522  0.3511  0.1940 -0.8726
  737MOL0     H 1651   2.106   7.634   2.547 -0.1731  0.5830  3.2065
  737MOL0     H 1652   2.253   7.588   2.466  0.0468 -0.8497  0.2042
  737MOL0     H 1653   2.281   7.685   2.702  0.2490 -0.4407 -0.0670
  737MOL0     H 1654   2.197   7.540   2.769  0.0783  3.5283  0.7892
  737MOL0     H 1655   2.353   7.290   2.662  1.3469 -1.3272 -2.4129
  737MOL0     H 1656   2.593   7.160   2.664  0.2925  0.8932 -1.1389
  737MOL0     H 1657   2.640   7.184   2.832  2.0015  1.1892  0.3783
  737MOL0     H 1658   2.770   7.317   2.591  0.8840 -0.4265  0.0137
  737MOL0     H 1659   2.812   7.335   2.768 -0.5236  0.7536  0.4687
  737MOL0     H 1660   2.961   7.181   2.649 -0.0385  1.8310  0.1364
  737MOL0     H 1661   2.885   7.117   2.785  1.0046  0.7027  0.2195
  737MOL0     H 1662   2.725   6.988   2.601  1.1423 -2.9746 -1.4378
  737MOL0     H 1663   2.820   7.084   2.483  0.3325  0.9350  0.0667
  737MOL0     H 1664   3.153   6.831   2.557 -0.7784 -1.6705  0.6859
  737MOL0     H 1665   3.330   6.723   2.293 -1.1186  0.4782  0.7919
  737MOL0     H 1666   3.272   6.576   2.377  1.1291  0.2498  1.4704
  737MOL0     H 1667   3.316   6.704   2.477  0.4974 -1.1200  1.2656
  737MOL0     H 1668   2.930   6.288   2.045  2.2447 -0.6771 -0.4958
  737MOL0     H 1669   2.970   6.153   1.849  0.3282 -0.6233 -2.7679
  737MOL0     H 1670   3.093   6.046   1.523 -3.4949  2.8557 -2.3397
  737MOL0     H 1671   3.051   6.031   1.698 -1.3499  1.4307  2.5086
  737MOL0     H 1672   2.863   6.212   1.606 -3.7651 -0.9891  0.0129
  737MOL0     H 1673   2.894   6.137   1.450 -1.1472  1.6170  0.5230
  737MOL0     H 1674   2.708   6.034   1.614  0.3196  1.9926  0.0311
  737MOL0     H 1675   2.858   5.976   1.694  2.6908  1.6469 -1.1763
  737MOL0     H 1676   2.770   5.801   1.555 -2.7591  2.9020  3.1042
  737MOL0     H 1677   2.922   5.856   1.487  0.0869  2.3577 -3.3042
  737MOL0     H 1678   2.646   5.970   1.402 -0.1980  0.7754 -0.8120
  737MOL0     H 1679   2.805   6.001   1.330 -2.2033  1.0544 -2.2286
  737MOL0     H 1680   2.697   5.844   1.185 -1.1283 -4.3435 -0.9108
  737MOL0     H 1681   2.661   5.734   1.321  0.9289 -1.3427 -0.0069
  737MOL0     H 1682   2.901   5.681   1.321  1.9038  0.1229 -0.1238
  737MOL0     H 1683   2.942   5.820   1.211  2.1703 -1.7832  1.1079
  737MOL0     H 1684   2.931   5.599   1.090  0.2867 -1.5454  1.5182
  737MOL0     H 1685   2.797   5.705   1.031  0.0850 -0.4616  0.2783
  737MOL0     H 1686   3.188   6.450   1.663  0.2272  0.9687  0.8416
  737MOL0     H 1687   3.136   6.610   1.839  0.0586  0.6649  1.8351
  737MOL0     H 1688   2.869   6.750   2.169 -0.5639  1.6754  0.5027
  737MOL0     H 1689   2.772   6.880   2.371 -0.2924  0.3647 -0.8442
  737MOL0     H 1690   2.260   6.870   2.036 -0.2254  0.2155 -0.2685
  737MOL0     H 1691   2.439   6.779   1.901 -1.1959 -1.8370  1.0011
  737MOL0     H 1692   2.839   7.031   1.774  1.5962 -0.5793  3.0387
  737MOL0     H 1693   3.075   7.053   1.671 -0.7251  0.1991  2.3186
  737MOL0     H 1694   3.258   7.061   1.566 -1.8379 -1.2024  0.2933
  737MOL0     H 1695   3.380   6.967   1.482  0.5811  3.2892  0.1179
  737MOL0     H 1696   3.347   7.098   1.322  0.2379  0.0869  2.0668
  737MOL0     H 1697   3.188   7.147   1.371  1.2160  1.2656  2.8890
  737MOL0     H 1698   3.118   6.913   1.288  1.9435  1.9097  4.8364
  737MOL0     H 1699   3.139   7.040   1.165  2.2208  0.0781 -1.1219
  737MOL0     H 1700   3.265   6.805   1.118  2.1193  0.1535 -2.8054
  737MOL0     H 1701   3.373   6.878   1.250  1.4836  0.5933 -0.3001
  737MOL0     H 1702   3.487   7.086   0.902  2.4765  2.7023  3.7773
  737MOL0     H 1703   3.057   6.663   1.527 -1.9059 -2.3596  1.3703
  737MOL0     H 1704   2.817   6.538   1.738 -1.8784 -2.4105 -0.8480
  737MOL0     H 1705   2.723   6.572   1.588  0.6616 -1.7158 -1.1054
  737MOL0     H 1706   2.894   6.519   1.582 -0.1785 -0.4808 -0.0107
  738MOL0     O 1707   6.713   9.796   6.106  0.4955 -0.0781  0.1205
  738MOL0     C 1708   6.834   9.807   6.119 -0.7010  0.1466 -0.1642
  738MOL0     O 1709   6.922   9.708   6.094  0.4534  0.4089  0.3704
  738MOL0     C 1710   6.878   9.584   6.047 -0.0005 -0.6424 -0.4700
  738MOL0     C 1711   6.826   9.562   5.914  0.3568  0.1259 -0.8961
  738MOL0     C 1712   6.756   9.457   5.866  0.4113  0.1370 -0.3967
  738MOL0     C 1713   6.752   9.343   5.945 -0.7474  0.7796 -0.4369
  738MOL0     O 1714   6.691   9.231   5.919 -0.2135 -0.1967  0.5701
  738MOL0     C 1715   6.680   9.193   5.784  0.3297 -0.3700 -0.0073
  738MOL0     C 1716   6.648   9.042   5.771  0.1378 -0.5419  0.0203
  738MOL0     C 1717   6.750   8.950   5.847  0.0681  0.6502 -0.0096
  738MOL0     C 1718   6.764   8.806   5.792  0.5967  0.0983  0.3106
  738MOL0     C 1719   6.870   8.722   5.858 -0.0475  0.1152 -0.2732
  738MOL0     C 1720   6.848   8.578   5.823 -0.1661  0.0248  0.3496
  738MOL0     C 1721   6.949   8.487   5.898 -0.0459  0.1396 -1.0400
  738MOL0     C 1722   7.089   8.484   5.824  0.5190 -0.2159  0.1221
  738MOL0     N 1723   7.169   8.366   5.847  0.2087  0.0536 -0.3487
  738MOL0     C 1724   7.145   8.239   5.816 -0.3378  0.8821  0.0965
  738MOL0     C 1725   7.261   8.171   5.828  0.1385  0.5472 -0.5436
  738MOL0     C 1726   7.290   8.031   5.791 -0.3458 -0.1445  0.3632
  738MOL0     C 1727   7.286   8.002   5.638  0.5878  0.0048 -0.1403
  738MOL0     C 1728   7.357   7.865   5.622  0.2771 -0.6096 -0.4161
  738MOL0     C 1729   7.300   7.798   5.493  0.9161 -0.2005 -0.0467
  738MOL0     O 1730   7.329   7.662   5.520 -0.9278 -0.6458 -0.2824
  738MOL0     C 1731   7.460   7.613   5.499 -1.3273 -0.6512 -1.4791
  738MOL0     C 1732   7.578   7.686   5.467  0.3108  0.2975 -0.1103
  738MOL0     C 1733   7.696   7.622   5.444 -0.2176  0.8590 -0.4386
  738MOL0     C 1734   7.798   7.708   5.396  0.1679  0.7511  0.2835
  738MOL0     C 1735   7.714   7.481   5.480  0.8130 -0.5299  0.2291
  738MOL0     C 1736   7.845   7.399   5.472  0.0267 -0.3069 -0.3049
  738MOL0     O 1737   7.873   7.328   5.581 -0.4744  0.2629 -0.4402
  738MOL0     C 1738   7.985   7.244   5.575  0.5920 -0.3244  0.4049
  738MOL0     C 1739   8.097   7.266   5.648 -0.5413  1.5210  0.3627
  738MOL0     C 1740   8.212   7.194   5.632 -0.2451  0.4630 -0.3014
  738MOL0     C 1741   8.231   7.081   5.554  0.7800  0.3395  1.4533
  738MOL0     O 1742   8.337   6.994   5.555 -0.0896  0.0260 -0.5345
  738MOL0     C 1743   8.467   7.025   5.615  0.1789 -0.0382 -0.3698
  738MOL0     C 1744   8.559   6.930   5.542  0.0444  0.1520 -0.0654
  738MOL0     C 1745   8.706   6.955   5.572 -0.0579 -0.4417 -0.2117
  738MOL0     C 1746   8.783   6.830   5.546 -0.2994 -0.0636  0.3785
  738MOL0     C 1747   8.923   6.846   5.611  0.3288 -0.7710  0.0454
  738MOL0     C 1748   8.965   6.705   5.655 -0.2968  0.5501 -0.3621
  738MOL0     C 1749   9.121   6.699   5.671 -1.1117 -1.0672  0.9477
  738MOL0     C 1750   9.163   6.573   5.734 -0.0812  0.4267 -0.2907
  738MOL0    Cl 1751   9.179   6.436   5.613 -0.5370 -0.3319 -0.1286
  738MOL0     C 1752   8.122   7.062   5.470 -0.0528  0.0267 -0.5649
  738MOL0     C 1753   8.003   7.145   5.476 -0.1469  0.2782 -0.3001
  738MOL0     O 1754   7.916   7.410   5.367  0.2485 -0.1825 -0.9722
  738MOL0     C 1755   7.597   7.415   5.521  0.1515 -0.9525 -0.8345
  738MOL0     C 1756   7.468   7.476   5.521 -0.1090 -0.6781  0.7627
  738MOL0     N 1757   7.358   8.255   5.875 -0.3993 -0.7524 -0.4661
  738MOL0     N 1758   7.305   8.370   5.889 -0.3110 -0.6603  0.4461
  738MOL0     C 1759   6.807   9.361   6.076  0.5859 -0.0533 -0.5550
  738MOL0     C 1760   6.871   9.472   6.133 -0.1084 -0.0252  0.0548
  738MOL0     C 1761   6.880   9.929   6.183  0.1821  0.3942 -0.3155
  738MOL0     C 1762   6.955   9.915   6.301 -0.0585  0.5519 -0.7727
  738MOL0     C 1763   6.987  10.033   6.376  0.1159  0.1098  0.7091
  738MOL0     C 1764   6.937  10.156   6.340  0.8233 -0.3602 -0.0569
  738MOL0     O 1765   6.962  10.257   6.425  0.2049  0.2586  0.0433
  738MOL0     C 1766   6.985  10.385   6.373 -0.3074  0.1124  1.0179
  738MOL0     C 1767   7.092  10.438   6.463 -0.3010 -0.7420  0.1764
  738MOL0     C 1768   7.031  10.530   6.568  0.9214  0.2467  0.4238
  738MOL0     C 1769   7.132  10.593   6.676 -0.0874 -0.0686 -0.3862
  738MOL0     C 1770   7.048  10.619   6.806 -1.7612  0.2947 -0.4265
  738MOL0     C 1771   6.979  10.637   6.899  0.9016 -0.3469  0.2658
  738MOL0     C 1772   6.871  10.171   6.217  0.5134  0.7299 -0.4777
  738MOL0     C 1773   6.838  10.057   6.137  0.4798 -0.1419 -0.2244
  738MOL0     C 1774   6.761  10.084   6.009 -0.2440 -0.1823  1.5100
  738MOL0     H 1775   6.822   9.645   5.844 -0.2619  0.2858 -0.6749
  738MOL0     H 1776   6.698   9.464   5.775 -0.4365 -0.3039  0.0954
  738MOL0     H 1777   6.779   9.205   5.740 -0.1728 -1.4750 -1.5378
  738MOL0     H 1778   6.608   9.258   5.733  1.3454 -0.0894 -1.1180
  738MOL0     H 1779   6.546   9.016   5.801 -0.0074 -1.4041 -1.1671
  738MOL0     H 1780   6.637   9.013   5.666 -3.3567  1.1169 -0.2410
  738MOL0     H 1781   6.850   8.995   5.839  0.3968  0.3943  2.0932
  738MOL0     H 1782   6.716   8.939   5.950  0.1521 -0.6378 -0.1012
  738MOL0     H 1783   6.664   8.762   5.800 -1.1360  3.6743 -0.0365
  738MOL0     H 1784   6.789   8.812   5.685 -3.7281  1.5330 -0.8149
  738MOL0     H 1785   6.864   8.739   5.966  0.1070 -1.6343  0.0416
  738MOL0     H 1786   6.966   8.767   5.832 -1.1814  1.7361 -1.9023
  738MOL0     H 1787   6.754   8.541   5.864  1.6701 -1.7824  3.2700
  738MOL0     H 1788   6.853   8.565   5.714  4.6050 -1.8692  0.5513
  738MOL0     H 1789   6.908   8.386   5.902 -0.3699  0.1521 -3.0369
  738MOL0     H 1790   6.944   8.512   6.005 -0.1940 -1.7246 -0.5616
  738MOL0     H 1791   7.074   8.482   5.715  3.6867 -0.7822 -0.4100
  738MOL0     H 1792   7.146   8.569   5.861 -0.9042 -0.7855  4.0579
  738MOL0     H 1793   7.059   8.200   5.763  0.8619 -1.7739 -0.0492
  738MOL0     H 1794   7.216   7.969   5.842 -3.2536  1.2593 -1.8631
  738MOL0     H 1795   7.389   8.002   5.829  0.0591  0.9713  0.1953
  738MOL0     H 1796   7.179   7.992   5.619  0.6002  1.2271 -0.9438
  738MOL0     H 1797   7.336   8.079   5.578 -1.9440  2.5442  0.7730
  738MOL0     H 1798   7.466   7.872   5.622  0.4700 -2.9641 -0.8688
  738MOL0     H 1799   7.334   7.802   5.708 -1.2040 -0.9896 -1.0723
  738MOL0     H 1800   7.190   7.805   5.495  0.7895 -1.9502  0.0877
  738MOL0     H 1801   7.335   7.828   5.394  3.2709 -0.5543  0.6243
  738MOL0     H 1802   7.565   7.793   5.459  2.1827  0.8910  2.9705
  738MOL0     H 1803   7.812   7.779   5.479 -0.8624  3.5505 -1.7873
  738MOL0     H 1804   7.750   7.769   5.318  0.9613  0.6371 -0.2943
  738MOL0     H 1805   7.887   7.664   5.352  0.8535 -0.2048  2.5010
  738MOL0     H 1806   8.087   7.351   5.714 -1.4948  0.4589  1.6344
  738MOL0     H 1807   8.301   7.220   5.688 -0.9920 -0.9393  1.6515
  738MOL0     H 1808   8.505   7.124   5.589  0.3676 -0.6372 -2.5776
  738MOL0     H 1809   8.475   7.007   5.723  1.0309  1.2953 -0.1842
  738MOL0     H 1810   8.542   6.832   5.587 -3.3119 -0.0350 -1.4379
  738MOL0     H 1811   8.550   6.934   5.433  4.2783  2.3833 -0.5302
  738MOL0     H 1812   8.705   6.980   5.678 -0.9422 -4.2868  0.8243
  738MOL0     H 1813   8.749   7.037   5.513  1.3024 -1.7294 -1.0821
  738MOL0     H 1814   8.804   6.823   5.439  1.4179  3.2486  0.3842
  738MOL0     H 1815   8.734   6.743   5.591 -0.2762 -1.0022 -1.3173
  738MOL0     H 1816   8.984   6.895   5.535 -1.2393 -0.1914 -0.8814
  738MOL0     H 1817   8.922   6.914   5.697 -3.1542 -0.1234 -0.3686
  738MOL0     H 1818   8.934   6.627   5.586  0.8509 -1.1068  0.9372
  738MOL0     H 1819   8.913   6.693   5.751  0.8799 -0.3865  0.1799
  738MOL0     H 1820   9.133   6.767   5.756 -0.3943  0.0229  0.0098
  738MOL0     H 1821   9.180   6.722   5.582 -2.2476  0.2080  0.4868
  738MOL0     H 1822   9.095   6.528   5.807 -2.7292  3.2160 -0.8021
  738MOL0     H 1823   9.262   6.593   5.778  2.6240 -5.1525 -2.8686
  738MOL0     H 1824   8.127   6.972   5.409  0.6209 -1.3035  1.3913
  738MOL0     H 1825   7.916   7.131   5.412 -1.4135  3.0500  0.7113
  738MOL0     H 1826   7.592   7.308   5.538 -1.4391 -1.0180 -1.4752
  738MOL0     H 1827   7.377   7.422   5.545 -0.0266 -1.8139 -1.3098
  738MOL0     H 1828   6.796   9.279   6.146  0.8114  2.4517  2.6339
  738MOL0     H 1829   6.912   9.478   6.233  1.8786 -1.2317 -0.6403
  738MOL0     H 1830   7.018   9.829   6.324  1.6199  0.7446 -4.0678
  738MOL0     H 1831   7.053  10.013   6.459 -0.2886 -0.0463  0.9945
  738MOL0     H 1832   7.021  10.390   6.270  1.8235  1.2591  1.7435
  738MOL0     H 1833   6.895  10.447   6.370 -0.5454 -0.1428  2.2046
  738MOL0     H 1834   7.157  10.495   6.395 -2.9144  1.2127 -0.8693
  738MOL0     H 1835   7.144  10.356   6.514  1.7158 -0.2971 -1.0445
  738MOL0     H 1836   6.976  10.614   6.523 -1.6259 -1.8582 -0.6741
  738MOL0     H 1837   6.953  10.477   6.622 -0.1050  1.6379  0.3674
  738MOL0     H 1838   7.163  10.694   6.649 -0.6358 -0.8639 -4.6166
  738MOL0     H 1839   7.218  10.529   6.699  0.5892  1.5859  2.0947
  738MOL0     H 1840   6.909  10.638   6.981 -1.9007  0.1417 -1.9541
  738MOL0     H 1841   6.837  10.270   6.187 -2.5831  0.2715  1.1438
  738MOL0     H 1842   6.654  10.103   6.023 -0.5509 -0.8825  0.2549
  738MOL0     H 1843   6.803  10.161   5.944 -6.0327 -1.6908 -5.2118
  738MOL0     H 1844   6.756   9.996   5.945  1.4524  3.0038 -3.5891
  739MOL0     O 1845  10.414   1.456   1.208  0.1863  0.4266 -0.0950
  739MOL0     C 1846  10.439   1.459   1.332 -0.2885  0.6144 -0.3244
  739MOL0     O 1847  10.351   1.463   1.428  0.3469 -0.1203 -0.8291
  739MOL0     C 1848  10.221   1.500   1.419  0.0655 -0.3994  0.2557
  739MOL0     C 1849  10.168   1.555   1.527  0.3410  0.0198 -0.4400
  739MOL0     C 1850  10.031   1.593   1.525  0.6001 -0.0896 -0.3388
  739MOL0     C 1851   9.947   1.570   1.415 -0.3374 -0.5507  0.2499
  739MOL0     O 1852   9.815   1.589   1.418 -0.2116  0.7236 -0.1573
  739MOL0     C 1853   9.746   1.610   1.542 -0.5979 -0.0656  0.8734
  739MOL0     C 1854   9.595   1.647   1.515  0.3667  0.2721 -0.3024
  739MOL0     C 1855   9.506   1.669   1.645 -0.5906 -0.1223  0.1800
  739MOL0     C 1856   9.525   1.817   1.687 -0.6667 -0.1614 -0.3943
  739MOL0     C 1857   9.459   1.832   1.830  0.0463 -0.4787  0.8102
  739MOL0     C 1858   9.454   1.983   1.880 -0.4585  0.6430 -0.1669
  739MOL0     C 1859   9.417   1.993   2.029  0.6652  0.2313  0.0017
  739MOL0     C 1860   9.477   2.125   2.078  0.0480 -0.1168 -0.2254
  739MOL0     N 1861   9.616   2.105   2.104 -0.3877 -0.3033  0.2201
  739MOL0     C 1862   9.713   2.166   2.022 -0.4091 -0.2065  0.3720
  739MOL0     C 1863   9.830   2.128   2.070 -0.1163  0.2568 -0.2191
  739MOL0     C 1864   9.972   2.173   2.043 -0.0740 -0.9035  0.1740
  739MOL0     C 1865  10.071   2.067   2.071 -0.0620  0.4663  0.3259
  739MOL0     C 1866  10.042   1.946   1.980 -1.2960  0.8828 -1.0968
  739MOL0     C 1867  10.135   1.833   2.028  0.8514  0.7785  0.3426
  739MOL0     O 1868  10.149   1.738   1.916 -0.0107  0.2135 -0.1846
  739MOL0     C 1869  10.282   1.711   1.902 -0.6366  0.0066 -0.2867
  739MOL0     C 1870  10.346   1.741   1.788  0.2143  0.6995  0.0374
  739MOL0     C 1871  10.482   1.718   1.766 -0.3872  0.4897 -0.0846
  739MOL0     C 1872  10.546   1.765   1.636 -0.2201  0.1273 -0.4260
  739MOL0     C 1873  10.549   1.636   1.858  0.4599  0.0316 -0.2873
  739MOL0     C 1874  10.692   1.602   1.845  0.1446 -0.8395  0.1829
  739MOL0     O 1875  10.771   1.708   1.804  0.4700  0.4776  0.5964
  739MOL0     C 1876  10.903   1.694   1.760  0.2188  0.3053 -0.1792
  739MOL0     C 1877  10.961   1.821   1.763 -0.1932 -0.2022  0.1863
  739MOL0     C 1878  11.085   1.844   1.704 -0.5953  0.5021 -0.7260
  739MOL0     C 1879  11.160   1.731   1.647 -0.6865  0.8148  0.3210
  739MOL0     O 1880  11.266   1.753   1.562  0.0197 -0.0025  0.5600
  739MOL0     C 1881  11.388   1.824   1.603  0.2555  0.3277  0.3337
  739MOL0     C 1882  11.473   1.862   1.469 -0.1955 -0.2027 -0.5484
  739MOL0     C 1883  11.609   1.937   1.506  0.1973 -0.7926 -0.5276
  739MOL0     C 1884  11.694   1.884   1.623 -0.5361 -0.2743 -0.1116
  739MOL0     C 1885  11.768   2.009   1.682 -0.6815  0.9998 -0.2301
  739MOL0     C 1886  11.876   1.952   1.796 -0.5782 -0.9018  0.6987
  739MOL0     C 1887  11.935   2.071   1.862 -0.0211 -0.4940  0.0858
  739MOL0     C 1888  12.006   2.167   1.761 -0.9520 -1.0955 -1.5696
  739MOL0    Cl 1889  12.062   2.310   1.861  0.1041  0.5595 -0.2766
  739MOL0     C 1890  11.094   1.612   1.635 -0.1548 -0.3952 -0.9773
  739MOL0     C 1891  10.966   1.595   1.686 -0.2053 -0.1380 -0.5719
  739MOL0     O 1892  10.708   1.483   1.847  0.9233 -0.4367  0.4143
  739MOL0     C 1893  10.488   1.601   1.982  0.6409  0.1352 -0.8985
  739MOL0     C 1894  10.354   1.638   2.002 -0.4618  0.3823  0.6765
  739MOL0     N 1895   9.797   2.051   2.185  0.0935 -0.4671 -0.0959
  739MOL0     N 1896   9.674   2.041   2.198 -0.2772  0.6970  0.6752
  739MOL0     C 1897  10.011   1.519   1.297  0.4681 -0.3901 -1.0917
  739MOL0     C 1898  10.144   1.484   1.301 -0.5451  0.5641  0.6953
  739MOL0     C 1899  10.584   1.431   1.362  0.2308  0.0703 -0.6008
  739MOL0     C 1900  10.614   1.368   1.484  0.4522  0.1627  0.1114
  739MOL0     C 1901  10.745   1.319   1.518 -0.7167 -0.4146  0.3536
  739MOL0     C 1902  10.853   1.342   1.431  0.5980  0.7237 -0.1021
  739MOL0     O 1903  10.974   1.289   1.464 -0.5303  0.3102  0.2826
  739MOL0     C 1904  10.988   1.155   1.435 -0.4482 -0.4766 -0.3415
  739MOL0     C 1905  11.007   1.070   1.557 -0.3792  0.3072  0.2778
  739MOL0     C 1906  11.124   1.117   1.636 -0.5652  0.6659  0.1269
  739MOL0     C 1907  11.179   1.014   1.735 -0.9910  0.0931  0.2756
  739MOL0     C 1908  11.074   0.969   1.826 -0.1338 -0.0215  1.0112
  739MOL0     C 1909  11.001   0.925   1.912 -0.1842 -0.6606 -0.6974
  739MOL0     C 1910  10.828   1.432   1.325 -0.5460 -0.8057  0.6580
  739MOL0     C 1911  10.695   1.472   1.286 -0.3882  1.0904  0.5136
  739MOL0     C 1912  10.690   1.565   1.161  0.5242  0.2895 -0.4833
  739MOL0     H 1913  10.228   1.578   1.614 -0.7101 -0.2644  0.3841
  739MOL0     H 1914   9.999   1.644   1.615  4.8941 -3.5033  3.6118
  739MOL0     H 1915   9.791   1.691   1.599 -0.5922 -0.5567  1.5876
  739MOL0     H 1916   9.760   1.514   1.593  0.7531 -0.7039 -0.6260
  739MOL0     H 1917   9.604   1.740   1.457 -1.5168 -0.4119 -1.7980
  739MOL0     H 1918   9.545   1.583   1.442  0.4388  1.6930 -1.6426
  739MOL0     H 1919   9.402   1.639   1.630 -0.0442 -1.7207 -0.6039
  739MOL0     H 1920   9.549   1.601   1.720  1.9801 -0.1102 -1.1832
  739MOL0     H 1921   9.632   1.839   1.698 -1.2170  1.6675  2.1649
  739MOL0     H 1922   9.485   1.875   1.604  0.9587 -0.8728 -1.7329
  739MOL0     H 1923   9.518   1.773   1.901  4.1861 -1.4658 -2.9712
  739MOL0     H 1924   9.364   1.778   1.823 -0.5282  0.4655  1.1473
  739MOL0     H 1925   9.560   2.009   1.867 -0.6588  1.7574  0.3098
  739MOL0     H 1926   9.392   2.045   1.815 -1.7490 -0.5931 -0.1671
  739MOL0     H 1927   9.453   1.912   2.092 -0.7137  2.3712  3.8976
  739MOL0     H 1928   9.309   1.979   2.029  0.9264 -3.3689 -3.4245
  739MOL0     H 1929   9.451   2.195   1.998 -1.3034  1.0833  1.2075
  739MOL0     H 1930   9.431   2.154   2.173  2.1657  0.0909  0.7818
  739MOL0     H 1931   9.693   2.235   1.941 -1.9140 -2.5459 -1.3776
  739MOL0     H 1932   9.986   2.262   2.105  0.4763  0.0868 -1.2857
  739MOL0     H 1933   9.965   2.203   1.938 -3.5707 -2.0016 -0.0620
  739MOL0     H 1934  10.175   2.102   2.065 -0.1324  0.4242 -1.6730
  739MOL0     H 1935  10.052   2.033   2.173  4.7212  1.1823  1.7346
  739MOL0     H 1936   9.937   1.918   1.995 -1.2237  1.8354  1.8730
  739MOL0     H 1937  10.071   1.965   1.876  3.7053 -0.9914 -0.2917
  739MOL0     H 1938  10.232   1.879   2.050  0.9658  2.0842 -2.4305
  739MOL0     H 1939  10.087   1.781   2.111  0.6418  0.5362  0.0736
  739MOL0     H 1940  10.293   1.806   1.719 -0.4591 -0.4912 -0.5895
  739MOL0     H 1941  10.635   1.710   1.606  0.5675 -1.0759  3.5380
  739MOL0     H 1942  10.580   1.868   1.645  0.8853 -0.3286  0.7857
  739MOL0     H 1943  10.480   1.769   1.548  0.4923 -0.0125 -0.9754
  739MOL0     H 1944  10.901   1.908   1.789  0.4343  0.8343 -1.6144
  739MOL0     H 1945  11.110   1.949   1.693 -1.4082  1.2572  3.1830
  739MOL0     H 1946  11.355   1.915   1.653 -3.1471 -0.0033 -1.0068
  739MOL0     H 1947  11.451   1.760   1.665  4.1317  0.0270 -3.4153
  739MOL0     H 1948  11.484   1.780   1.397  0.3189 -0.5006 -0.1379
  739MOL0     H 1949  11.413   1.935   1.414 -1.5082 -1.6760 -1.1543
  739MOL0     H 1950  11.580   2.039   1.534  4.8048  0.4604  0.5801
  739MOL0     H 1951  11.670   1.970   1.421  1.5059  2.5833  1.5100
  739MOL0     H 1952  11.761   1.815   1.572 -3.6761 -5.0135  1.5193
  739MOL0     H 1953  11.643   1.830   1.703  0.3379 -0.4494  0.3335
  739MOL0     H 1954  11.823   2.064   1.604 -0.5876 -1.4213 -1.9849
  739MOL0     H 1955  11.698   2.082   1.725 -1.5045 -1.4490  2.9058
  739MOL0     H 1956  11.949   1.889   1.746 -1.3029 -1.1214 -0.1112
  739MOL0     H 1957  11.814   1.887   1.859 -1.3938 -1.9017 -1.0648
  739MOL0     H 1958  11.992   2.047   1.952 -3.5690 -0.9967  2.3773
  739MOL0     H 1959  11.859   2.136   1.906  1.3234  1.2752 -0.0637
  739MOL0     H 1960  11.952   2.206   1.674 -1.4097 -2.1502 -1.7803
  739MOL0     H 1961  12.092   2.116   1.716  0.4211  0.2982 -0.6062
  739MOL0     H 1962  11.136   1.527   1.582 -2.7462 -2.7642  0.5063
  739MOL0     H 1963  10.916   1.502   1.661 -2.3769  1.4616 -2.6154
  739MOL0     H 1964  10.543   1.547   2.057  1.2001  1.8052 -0.0559
  739MOL0     H 1965  10.319   1.617   2.102  2.9658 -1.2034  1.6884
  739MOL0     H 1966   9.946   1.489   1.215 -1.2091  1.4184 -0.4993
  739MOL0     H 1967  10.174   1.450   1.202  1.4648  1.8351  0.8052
  739MOL0     H 1968  10.547   1.343   1.565  1.6949 -0.3771  1.0107
  739MOL0     H 1969  10.748   1.255   1.605  0.6020 -0.8441  0.0133
  739MOL0     H 1970  10.909   1.111   1.373 -2.2487 -1.2841  2.3512
  739MOL0     H 1971  11.076   1.151   1.370 -0.7724 -0.1638 -0.8025
  739MOL0     H 1972  11.027   0.971   1.516 -1.0750 -0.2170  1.1615
  739MOL0     H 1973  10.921   1.069   1.624  1.5780 -1.4076  2.9709
  739MOL0     H 1974  11.208   1.120   1.565  1.5737 -1.3653  2.3744
  739MOL0     H 1975  11.103   1.218   1.672 -0.5477  1.1427 -1.1233
  739MOL0     H 1976  11.267   1.046   1.790 -0.5072 -0.7810  0.0318
  739MOL0     H 1977  11.212   0.924   1.682 -1.7825  0.8533 -1.6145
  739MOL0     H 1978  10.936   0.905   1.995 -0.4663  0.6072 -0.5891
  739MOL0     H 1979  10.915   1.461   1.267  0.3602  1.1913  2.8463
  739MOL0     H 1980  10.633   1.517   1.080  0.7544  1.2335 -1.2240
  739MOL0     H 1981  10.654   1.660   1.202  1.8999 -0.6731  3.3597
  739MOL0     H 1982  10.795   1.581   1.134  2.0702 -1.8798  3.4669
  740MOL0     O 1983   1.229   7.368   7.560  0.0000 -0.1812  0.6824
  740MOL0     C 1984   1.135   7.433   7.507 -0.0978 -0.6345 -0.2887
  740MOL0     O 1985   1.146   7.555   7.439  0.2834 -0.5028  0.1050
  740MOL0     C 1986   1.273   7.611   7.441 -0.4009  0.6392 -0.3995
  740MOL0     C 1987   1.305   7.700   7.552 -0.0227  1.0835 -0.0472
  740MOL0     C 1988   1.439   7.744   7.565 -0.8693  0.4713 -0.4659
  740MOL0     C 1989   1.542   7.700   7.481  1.2044  0.1081 -0.5347
  740MOL0     O 1990   1.666   7.745   7.500  0.0889 -0.1655 -0.7094
  740MOL0     C 1991   1.741   7.794   7.386  0.9349  0.5742 -0.1230
  740MOL0     C 1992   1.678   7.929   7.351 -0.0569  0.0785 -0.5073
  740MOL0     C 1993   1.720   8.033   7.454 -0.1670 -0.7439  0.1838
  740MOL0     C 1994   1.851   8.099   7.414 -0.1050 -0.5359 -0.2376
  740MOL0     C 1995   1.865   8.242   7.478 -0.0377 -0.1502 -0.2861
  740MOL0     C 1996   1.781   8.350   7.409 -0.3746  0.4760 -0.2479
  740MOL0     C 1997   1.760   8.487   7.484 -0.7791 -0.4596  1.0695
  740MOL0     C 1998   1.889   8.551   7.521  0.1233 -1.3917  0.1769
  740MOL0     N 1999   1.979   8.610   7.415 -0.3527  0.3261 -0.1007
  740MOL0     C 2000   1.952   8.714   7.329 -0.5626  0.2033 -0.9805
  740MOL0     C 2001   2.069   8.766   7.287 -0.3891 -0.1412  0.3272
  740MOL0     C 2002   2.071   8.878   7.187  0.4819  0.2002  0.1715
  740MOL0     C 2003   2.161   8.839   7.080  0.1008  0.0965  0.0009
  740MOL0     C 2004   2.163   8.921   6.947 -0.8223 -0.5560  0.4065
  740MOL0     C 2005   2.204   8.829   6.828 -0.5359  0.9128  0.3509
  740MOL0     O 2006   2.211   8.908   6.709 -0.3234  0.0279  0.2017
  740MOL0     C 2007   2.270   8.849   6.597 -0.3006 -0.5973 -0.1117
  740MOL0     C 2008   2.251   8.917   6.473 -0.3089  1.0772  0.4214
  740MOL0     C 2009   2.300   8.856   6.353  0.3831 -0.4628 -0.8883
  740MOL0     C 2010   2.248   8.936   6.236 -0.9173  0.3288  0.1785
  740MOL0     C 2011   2.366   8.734   6.347 -0.2572  0.7887  0.0849
  740MOL0     C 2012   2.417   8.666   6.228  0.3865 -0.5740  1.3820
  740MOL0     O 2013   2.385   8.719   6.107 -0.4513  0.3854 -0.1100
  740MOL0     C 2014   2.415   8.662   5.992 -0.3329  0.3039  0.7439
  740MOL0     C 2015   2.318   8.650   5.888  0.1123  0.4104 -0.1999
  740MOL0     C 2016   2.350   8.581   5.773 -0.2718  0.4568  0.1633
  740MOL0     C 2017   2.472   8.525   5.753  0.6974  0.4203  0.9785
  740MOL0     O 2018   2.506   8.471   5.631 -0.2047  0.2390 -0.2295
  740MOL0     C 2019   2.650   8.458   5.593  0.8128 -0.2056  0.0240
  740MOL0     C 2020   2.653   8.470   5.442 -0.1709  0.3201  0.2212
  740MOL0     C 2021   2.798   8.470   5.384 -0.8993  0.0477 -0.2786
  740MOL0     C 2022   2.836   8.612   5.332  0.4219 -0.0283  0.3874
  740MOL0     C 2023   2.946   8.606   5.226 -0.7156  0.3649  0.1142
  740MOL0     C 2024   3.089   8.608   5.289  0.6105  1.4825 -0.1108
  740MOL0     C 2025   3.134   8.734   5.364  0.0601  0.3901 -0.2627
  740MOL0     C 2026   3.248   8.720   5.466 -0.0324  0.3843 -0.5862
  740MOL0    Cl 2027   3.267   8.569   5.560  0.2999 -0.3701  0.0631
  740MOL0     C 2028   2.575   8.546   5.844  0.4472 -0.0820 -0.8394
  740MOL0     C 2029   2.545   8.608   5.959  0.1281 -0.5768 -0.3092
  740MOL0     O 2030   2.497   8.574   6.247 -0.2921 -0.3647 -0.5208
  740MOL0     C 2031   2.388   8.672   6.472  0.0451 -0.2107 -1.0686
  740MOL0     C 2032   2.332   8.723   6.589  0.4789  0.3187 -0.3198
  740MOL0     N 2033   2.161   8.671   7.311  0.7796 -0.1987 -0.0175
  740MOL0     N 2034   2.106   8.574   7.386 -0.3750  0.0218 -0.2855
  740MOL0     C 2035   1.504   7.605   7.383  0.3659  0.0310  0.6940
  740MOL0     C 2036   1.374   7.562   7.362 -0.2637 -0.0615  0.0986
  740MOL0     C 2037   1.000   7.393   7.522  0.6585 -0.3365 -0.0491
  740MOL0     C 2038   0.909   7.401   7.420 -0.4844  1.7561  0.5488
  740MOL0     C 2039   0.777   7.367   7.433 -0.2878  0.5632 -0.4368
  740MOL0     C 2040   0.724   7.331   7.554 -0.0610  0.1353  0.9984
  740MOL0     O 2041   0.591   7.292   7.577  0.4306 -0.3668 -0.0522
  740MOL0     C 2042   0.480   7.344   7.501 -0.5591  0.5847  0.4545
  740MOL0     C 2043   0.360   7.323   7.583 -0.1644  0.8370  0.0603
  740MOL0     C 2044   0.369   7.407   7.704  0.2780 -0.5820  0.4238
  740MOL0     C 2045   0.255   7.380   7.799  0.6262  0.5436  0.2859
  740MOL0     C 2046   0.272   7.471   7.906  0.3230 -0.0194  0.2690
  740MOL0     C 2047   0.288   7.540   8.009  0.1781  0.1310  0.2736
  740MOL0     C 2048   0.812   7.325   7.659 -0.5171 -0.5980 -0.1666
  740MOL0     C 2049   0.947   7.364   7.650  1.1502  0.6149  0.2110
  740MOL0     C 2050   1.033   7.356   7.777  0.3536 -0.5333  0.4533
  740MOL0     H 2051   1.234   7.736   7.625  0.8088  0.6706  0.9926
  740MOL0     H 2052   1.472   7.809   7.645  1.2494  2.3054 -2.6866
  740MOL0     H 2053   1.718   7.716   7.313 -0.4523  0.6935  0.1427
  740MOL0     H 2054   1.848   7.804   7.404  0.9442  1.3494 -0.5443
  740MOL0     H 2055   1.707   7.967   7.253 -1.4821 -0.3314 -1.1059
  740MOL0     H 2056   1.571   7.906   7.346  0.2271 -1.2567 -0.8261
  740MOL0     H 2057   1.638   8.104   7.466 -1.2890 -1.5128 -2.3054
  740MOL0     H 2058   1.726   7.980   7.550  2.7811  2.6576  2.1168
  740MOL0     H 2059   1.933   8.035   7.449  1.6374  0.5099 -2.1949
  740MOL0     H 2060   1.866   8.087   7.306 -0.7847 -3.7132 -0.0840
  740MOL0     H 2061   1.969   8.275   7.469  0.1015 -0.6739 -0.6642
  740MOL0     H 2062   1.830   8.231   7.582  0.1416 -2.7373 -0.4220
  740MOL0     H 2063   1.820   8.361   7.307  1.5473  0.5989  0.4531
  740MOL0     H 2064   1.678   8.318   7.394 -0.4234 -0.6341  2.0592
  740MOL0     H 2065   1.701   8.464   7.573  0.4491 -2.5918  1.4005
  740MOL0     H 2066   1.705   8.555   7.418  2.5696 -1.0568 -2.6714
  740MOL0     H 2067   1.865   8.637   7.584  2.6614 -1.2719  1.0714
  740MOL0     H 2068   1.942   8.472   7.575  0.2727 -0.2091  1.8475
  740MOL0     H 2069   1.849   8.738   7.304 -0.1595  1.1795 -1.7539
  740MOL0     H 2070   2.105   8.968   7.240  0.3550  0.8744 -0.8469
  740MOL0     H 2071   1.967   8.891   7.154 -0.3673  2.3086  3.2372
  740MOL0     H 2072   2.259   8.840   7.129 -2.1103 -1.1406  4.9997
  740MOL0     H 2073   2.141   8.735   7.053  0.8336  0.1800 -0.9449
  740MOL0     H 2074   2.064   8.960   6.924  1.0498  2.3175 -4.2225
  740MOL0     H 2075   2.234   9.004   6.950 -2.3874  1.0169 -2.2282
  740MOL0     H 2076   2.304   8.797   6.856 -0.4623 -1.8668 -2.5457
  740MOL0     H 2077   2.141   8.739   6.821  1.1585 -0.2912 -0.0780
  740MOL0     H 2078   2.203   9.013   6.486  1.0110  1.5023  2.8684
  740MOL0     H 2079   2.196   9.024   6.276  1.2245  0.8585  1.9901
  740MOL0     H 2080   2.188   8.867   6.176  1.1777 -2.1017  0.6899
  740MOL0     H 2081   2.339   8.964   6.183 -0.5852  0.3510  0.7550
  740MOL0     H 2082   2.218   8.690   5.904  0.4137  1.5176 -0.9518
  740MOL0     H 2083   2.264   8.561   5.710  0.3543 -1.9300 -0.0234
  740MOL0     H 2084   2.714   8.539   5.629 -0.9223  0.5092  1.6589
  740MOL0     H 2085   2.685   8.357   5.617 -0.5548 -1.0049 -1.1654
  740MOL0     H 2086   2.596   8.393   5.390 -1.9569  0.5801  1.7000
  740MOL0     H 2087   2.594   8.561   5.426  0.4453  1.5518  3.9190
  740MOL0     H 2088   2.815   8.401   5.301 -0.2401  1.2674 -1.1946
  740MOL0     H 2089   2.865   8.424   5.457 -2.7051  0.0572  1.4600
  740MOL0     H 2090   2.847   8.678   5.418 -1.5263  2.0280 -0.8308
  740MOL0     H 2091   2.740   8.647   5.293 -1.2358 -0.2612  3.9084
  740MOL0     H 2092   2.944   8.527   5.150  0.8456 -0.6593  1.0635
  740MOL0     H 2093   2.934   8.703   5.177  4.3716  1.3683  0.3616
  740MOL0     H 2094   3.156   8.598   5.204  0.0969  1.6102 -0.5387
  740MOL0     H 2095   3.095   8.523   5.358  0.5994  1.4858 -0.1057
  740MOL0     H 2096   3.054   8.780   5.422 -1.2637 -0.5158 -1.2904
  740MOL0     H 2097   3.159   8.807   5.286  0.8354 -0.5703 -0.9503
  740MOL0     H 2098   3.240   8.808   5.531 -0.1993 -2.0277  2.8994
  740MOL0     H 2099   3.344   8.724   5.414  1.0000 -0.5640  1.1659
  740MOL0     H 2100   2.678   8.516   5.825  1.2276  2.9581 -2.0564
  740MOL0     H 2101   2.630   8.618   6.025  2.4061  0.0108 -3.1331
  740MOL0     H 2102   2.428   8.571   6.474  0.0747 -0.2052 -1.4215
  740MOL0     H 2103   2.335   8.656   6.675  1.4422  1.5023  0.5891
  740MOL0     H 2104   1.568   7.554   7.311 -1.0129 -0.3041 -0.3305
  740MOL0     H 2105   1.347   7.502   7.276 -0.3581 -1.6380  1.1885
  740MOL0     H 2106   0.941   7.429   7.320  1.5844  1.9052  1.2091
  740MOL0     H 2107   0.710   7.353   7.349 -3.4688 -2.6546  2.3559
  740MOL0     H 2108   0.490   7.448   7.469  1.5114  0.8624  1.7953
  740MOL0     H 2109   0.474   7.284   7.410 -0.3634  5.5088 -3.2256
  740MOL0     H 2110   0.339   7.217   7.604 -0.0939  1.0436  1.2648
  740MOL0     H 2111   0.274   7.340   7.518 -0.3073 -2.2940 -0.7349
  740MOL0     H 2112   0.464   7.387   7.754 -0.6340 -4.2322  0.9921
  740MOL0     H 2113   0.371   7.512   7.673 -0.5711 -0.5996  0.2947
  740MOL0     H 2114   0.249   7.274   7.826 -0.5046  0.1630 -1.3299
  740MOL0     H 2115   0.160   7.407   7.753  0.6276 -1.6248 -1.1224
  740MOL0     H 2116   0.270   7.604   8.093  0.0334  1.6444 -0.8624
  740MOL0     H 2117   0.782   7.280   7.754 -1.7312  0.8220  0.1617
  740MOL0     H 2118   1.054   7.461   7.799 -0.5892  0.3429 -2.4571
  740MOL0     H 2119   0.967   7.325   7.859  0.2792  0.7209  0.8915
  740MOL0     H 2120   1.116   7.285   7.768  0.6929  0.1876 -3.9271
  741MOL0     O 2121   4.930   3.204   4.615 -0.7396 -0.1450  0.3601
  741MOL0     C 2122   4.960   3.114   4.540 -0.1090 -0.2493 -0.1954
  741MOL0     O 2123   4.955   2.979   4.564 -0.8784  0.0935  0.8676
  741MOL0     C 2124   4.890   2.936   4.679 -0.1942 -0.2781 -0.1807
  741MOL0     C 2125   4.947   2.834   4.757  0.4171 -0.2081  0.1384
  741MOL0     C 2126   4.886   2.784   4.867  0.4420  0.7854 -0.1168
  741MOL0     C 2127   4.759   2.828   4.904  0.0951 -0.1640  0.5933
  741MOL0     O 2128   4.696   2.761   5.006  0.2445 -0.2836 -0.5381
  741MOL0     C 2129   4.570   2.817   5.040 -0.7080 -0.7157  1.6619
  741MOL0     C 2130   4.512   2.733   5.161 -0.7526  0.0401 -0.2254
  741MOL0     C 2131   4.491   2.586   5.131  0.4565 -0.1720  0.0324
  741MOL0     C 2132   4.464   2.521   5.265 -0.0511 -0.4307  1.2254
  741MOL0     C 2133   4.377   2.395   5.258 -0.5012  0.1426 -0.0713
  741MOL0     C 2134   4.338   2.342   5.397  1.1573 -0.2744  0.7847
  741MOL0     C 2135   4.446   2.279   5.477  0.2002  0.5672  0.5632
  741MOL0     C 2136   4.397   2.274   5.620  0.0142  0.7959  0.1350
  741MOL0     N 2137   4.496   2.217   5.710 -0.6201 -0.1355 -0.4980
  741MOL0     C 2138   4.625   2.250   5.719 -0.4705  0.1511  0.9797
  741MOL0     C 2139   4.681   2.163   5.810  0.0809  0.6296  0.4359
  741MOL0     C 2140   4.823   2.186   5.861  0.3497 -0.0780 -0.3380
  741MOL0     C 2141   4.810   2.192   6.020  0.2894 -0.6604  0.4116
  741MOL0     C 2142   4.945   2.237   6.082  0.2859 -0.3815  0.4422
  741MOL0     C 2143   5.049   2.132   6.100  0.2359 -0.1758  0.3259
  741MOL0     O 2144   5.056   2.111   6.245  0.7542 -0.0450 -0.1268
  741MOL0     C 2145   5.182   2.072   6.289  0.1553 -0.9676  1.0565
  741MOL0     C 2146   5.204   2.119   6.423 -0.8101  0.8776  0.2063
  741MOL0     C 2147   5.318   2.097   6.496  0.0267 -0.4634  1.2750
  741MOL0     C 2148   5.309   2.133   6.635 -1.0082 -1.2429 -0.0983
  741MOL0     C 2149   5.420   2.018   6.434  0.3331 -0.4430  0.4206
  741MOL0     C 2150   5.554   1.990   6.494 -0.1417 -0.7223  1.1377
  741MOL0     O 2151   5.625   1.893   6.419  0.6341  0.2910  0.0306
  741MOL0     C 2152   5.760   1.869   6.444 -0.2640 -0.3797  0.0382
  741MOL0     C 2153   5.855   1.959   6.503  0.3586 -0.5668 -0.0739
  741MOL0     C 2154   5.981   1.922   6.539 -0.2596  0.1158  0.2228
  741MOL0     C 2155   6.036   1.799   6.499  0.8707 -0.0830  0.3226
  741MOL0     O 2156   6.158   1.755   6.536 -0.5760 -0.4427 -0.7593
  741MOL0     C 2157   6.174   1.730   6.682  0.3769 -0.1182 -1.0856
  741MOL0     C 2158   6.321   1.694   6.721  0.7115  0.3611 -0.8051
  741MOL0     C 2159   6.377   1.609   6.614 -1.1580  0.5416 -0.3348
  741MOL0     C 2160   6.521   1.566   6.658  0.0405 -0.2161  0.4560
  741MOL0     C 2161   6.581   1.484   6.540  0.6450 -1.1485 -0.0265
  741MOL0     C 2162   6.722   1.436   6.579  0.3459  0.3626 -0.3344
  741MOL0     C 2163   6.751   1.308   6.502  0.0091  0.4546  1.3697
  741MOL0     C 2164   6.881   1.227   6.547  0.3092 -0.0283  0.5906
  741MOL0    Cl 2165   6.928   1.093   6.442  0.1112  0.3630 -0.2565
  741MOL0     C 2166   5.952   1.717   6.424  0.1666  1.1731 -0.4550
  741MOL0     C 2167   5.812   1.739   6.404 -0.2356 -0.2310  0.2968
  741MOL0     O 2168   5.598   2.051   6.599 -0.0408  0.5629  0.3995
  741MOL0     C 2169   5.393   1.981   6.300 -0.2213 -0.6658  0.5524
  741MOL0     C 2170   5.278   1.997   6.223  1.1033  0.6115  0.6419
  741MOL0     N 2171   4.587   2.072   5.843 -0.0590 -0.6571  0.0790
  741MOL0     N 2172   4.480   2.099   5.784  0.3915 -0.5467  0.0734
  741MOL0     C 2173   4.696   2.943   4.833 -0.2652 -0.3052 -0.7678
  741MOL0     C 2174   4.764   2.986   4.719  0.3357  0.8242  0.7616
  741MOL0     C 2175   4.999   3.164   4.403 -0.6255  0.7672  0.8805
  741MOL0     C 2176   5.011   3.304   4.388 -0.3393 -0.1854 -1.0547
  741MOL0     C 2177   5.049   3.352   4.263 -0.8088 -0.0738 -0.8266
  741MOL0     C 2178   5.059   3.278   4.145 -0.5146 -0.5701  0.4906
  741MOL0     O 2179   5.086   3.332   4.025 -0.1353 -0.0726  0.3555
  741MOL0     C 2180   5.004   3.443   3.990  0.7171 -0.7302  0.1191
  741MOL0     C 2181   4.853   3.421   4.018 -0.9190 -0.0398  0.5567
  741MOL0     C 2182   4.777   3.548   3.972  0.1271  0.7491  0.3118
  741MOL0     C 2183   4.795   3.680   4.048  0.4043 -0.2263 -0.5839
  741MOL0     C 2184   4.750   3.684   4.187  0.5958  0.8599  0.3692
  741MOL0     C 2185   4.731   3.696   4.308 -0.1658 -0.1733  0.4251
  741MOL0     C 2186   5.059   3.142   4.161 -0.0246  0.6375 -0.7077
  741MOL0     C 2187   5.037   3.084   4.284 -0.0039 -0.2816  0.8059
  741MOL0     C 2188   5.044   2.922   4.292 -0.2180 -0.0146 -0.3876
  741MOL0     H 2189   5.045   2.797   4.727 -0.6512 -0.9625 -2.7862
  741MOL0     H 2190   4.938   2.707   4.923  0.0290  0.0803 -0.6846
  741MOL0     H 2191   4.499   2.818   4.956  1.2763  2.7140 -0.1760
  741MOL0     H 2192   4.583   2.919   5.077  2.0879 -1.1018  1.9594
  741MOL0     H 2193   4.591   2.745   5.237 -2.6777  1.0026  1.7324
  741MOL0     H 2194   4.434   2.785   5.217 -0.3499  1.2197 -0.7365
  741MOL0     H 2195   4.410   2.573   5.058  0.7906 -2.5398  0.0069
  741MOL0     H 2196   4.586   2.542   5.100  0.3654 -1.0961  1.0150
  741MOL0     H 2197   4.566   2.508   5.302  1.3878 -0.0894 -2.1621
  741MOL0     H 2198   4.409   2.589   5.331 -0.7193 -0.6868  0.9300
  741MOL0     H 2199   4.422   2.307   5.209 -0.0422 -2.2835  4.2456
  741MOL0     H 2200   4.285   2.417   5.204  0.5587 -1.0143 -2.5401
  741MOL0     H 2201   4.299   2.428   5.452 -0.0523  0.7683 -1.5373
  741MOL0     H 2202   4.259   2.269   5.379  0.5173  0.9620 -2.1104
  741MOL0     H 2203   4.535   2.341   5.465  1.8558 -1.3472  2.2171
  741MOL0     H 2204   4.463   2.177   5.441 -4.1921  0.0994 -0.8990
  741MOL0     H 2205   4.375   2.375   5.656  4.3450  0.9032  3.2844
  741MOL0     H 2206   4.304   2.217   5.632  0.1625  0.5851  0.2734
  741MOL0     H 2207   4.683   2.333   5.680 -1.1235 -0.5657 -1.7242
  741MOL0     H 2208   4.863   2.280   5.822  4.2101 -1.9055 -1.2436
  741MOL0     H 2209   4.880   2.100   5.824 -2.8535 -2.5445 -0.0183
  741MOL0     H 2210   4.734   2.262   6.056  2.9065  1.5338  2.0848
  741MOL0     H 2211   4.797   2.091   6.059  2.3403 -1.4472 -0.7387
  741MOL0     H 2212   4.978   2.313   6.010 -0.1956 -0.7688 -0.1959
  741MOL0     H 2213   4.912   2.282   6.176 -2.8059 -1.8581  0.2044
  741MOL0     H 2214   5.023   2.035   6.058  0.8573 -0.1491 -0.1235
  741MOL0     H 2215   5.145   2.150   6.052  1.3157 -2.9123  1.2648
  741MOL0     H 2216   5.126   2.181   6.467  0.1600  1.3127  1.3788
  741MOL0     H 2217   5.400   2.176   6.677 -0.2584 -2.2803 -0.5980
  741MOL0     H 2218   5.276   2.049   6.696 -1.1342  0.5202  2.3982
  741MOL0     H 2219   5.229   2.203   6.661 -2.6550 -3.5184  1.2887
  741MOL0     H 2220   5.819   2.056   6.535  1.4853 -0.7303  1.8056
  741MOL0     H 2221   6.042   1.982   6.605  2.8838  1.0173 -3.1621
  741MOL0     H 2222   6.135   1.818   6.734 -0.0317 -0.7178 -0.3489
  741MOL0     H 2223   6.114   1.641   6.700 -0.4602  0.5539 -0.4822
  741MOL0     H 2224   6.376   1.788   6.737  0.3562  0.4530 -0.0950
  741MOL0     H 2225   6.317   1.639   6.816 -0.8519  3.5261  1.1655
  741MOL0     H 2226   6.382   1.659   6.517  0.5130 -0.9250 -1.0623
  741MOL0     H 2227   6.322   1.515   6.599 -0.4654 -0.5631  3.1211
  741MOL0     H 2228   6.517   1.500   6.744 -0.8484 -1.9424 -0.8469
  741MOL0     H 2229   6.583   1.651   6.689  1.4294 -1.3445  0.8662
  741MOL0     H 2230   6.515   1.399   6.522  0.2761 -0.9355  0.3324
  741MOL0     H 2231   6.586   1.547   6.451 -1.0200  1.1712  1.4277
  741MOL0     H 2232   6.733   1.421   6.687  3.4146 -0.6879 -0.7041
  741MOL0     H 2233   6.798   1.511   6.554 -0.8449  2.4161  1.7936
  741MOL0     H 2234   6.753   1.334   6.396  2.8739 -3.2158  0.3201
  741MOL0     H 2235   6.677   1.228   6.511  1.2813 -0.9829 -0.3246
  741MOL0     H 2236   6.851   1.183   6.643  0.0598 -2.8298 -0.6692
  741MOL0     H 2237   6.971   1.289   6.556  0.4266  0.3613 -2.3229
  741MOL0     H 2238   5.979   1.615   6.400 -3.3198 -0.6531  2.3769
  741MOL0     H 2239   5.759   1.662   6.348 -0.4495 -1.2672  1.8691
  741MOL0     H 2240   5.463   1.919   6.245 -0.0768 -1.5789  1.7120
  741MOL0     H 2241   5.252   1.946   6.130 -0.2474  2.3352 -0.0004
  741MOL0     H 2242   4.608   2.996   4.867  1.2494  2.9247 -1.5173
  741MOL0     H 2243   4.723   3.070   4.664  4.1879  1.0994 -2.1568
  741MOL0     H 2244   4.991   3.371   4.471 -1.6697  0.1256 -1.6030
  741MOL0     H 2245   5.079   3.456   4.261  3.6333 -1.0465  1.4335
  741MOL0     H 2246   5.038   3.531   4.044  2.4026 -1.6704  0.6726
  741MOL0     H 2247   5.022   3.462   3.884  0.6699  0.6139  0.3415
  741MOL0     H 2248   4.832   3.403   4.124  0.6981  1.0501  1.1038
  741MOL0     H 2249   4.818   3.333   3.964  2.0449 -1.5754  0.9454
  741MOL0     H 2250   4.791   3.560   3.864  2.6876 -1.0748  0.3580
  741MOL0     H 2251   4.674   3.518   3.992  0.0743  2.0586  2.4140
  741MOL0     H 2252   4.742   3.765   4.003  0.7426 -1.2773 -3.1721
  741MOL0     H 2253   4.900   3.711   4.042  1.2319 -2.3637  1.4591
  741MOL0     H 2254   4.713   3.724   4.409  1.6293  2.4809  0.1180
  741MOL0     H 2255   5.088   3.079   4.079 -3.1922 -3.7012  1.1411
  741MOL0     H 2256   5.099   2.898   4.384 -1.8218  2.2673  1.2978
  741MOL0     H 2257   4.946   2.877   4.311 -0.0296 -0.8126 -1.2740
  741MOL0     H 2258   5.093   2.880   4.204 -0.2743 -1.7572  0.3733
  742MOL0     O 2259   6.565   9.196  11.425 -0.2719 -0.2730 -0.3068
  742MOL0     C 2260   6.470   9.219  11.358 -0.6976  0.0773  0.4896
  742MOL0     O 2261   6.472   9.228  11.221 -0.3074 -0.3261  0.4051
  742MOL0     C 2262   6.581   9.194  11.151  1.2279 -0.5273 -0.1422
  742MOL0     C 2263   6.663   9.304  11.132 -0.5573 -0.6146 -0.1117
  742MOL0     C 2264   6.781   9.300  11.071 -0.9115  0.9316  0.1439
  742MOL0     C 2265   6.828   9.176  11.032 -0.2615 -0.1972  0.1923
  742MOL0     O 2266   6.959   9.175  10.993 -0.5521 -0.2873  0.4254
  742MOL0     C 2267   7.012   9.068  10.918 -0.2598  0.6834 -0.7494
  742MOL0     C 2268   7.167   9.077  10.901 -0.9632 -0.4391  0.9495
  742MOL0     C 2269   7.230   8.975  10.802  0.3048 -0.0394 -0.0470
  742MOL0     C 2270   7.383   8.984  10.814 -0.4207 -0.1141 -0.9593
  742MOL0     C 2271   7.441   9.103  10.717 -0.3738 -0.3705  0.4353
  742MOL0     C 2272   7.591   9.111  10.739 -0.1349 -0.3869 -0.8555
  742MOL0     C 2273   7.663   9.009  10.659  0.2449 -0.4315  0.0669
  742MOL0     C 2274   7.805   9.051  10.616 -1.0247 -0.3187 -0.0103
  742MOL0     N 2275   7.795   9.138  10.499  0.6958  0.1995  0.0589
  742MOL0     C 2276   7.793   9.080  10.373 -0.1784 -0.4671 -0.0724
  742MOL0     C 2277   7.829   9.195  10.296 -0.0865 -0.6104  0.7239
  742MOL0     C 2278   7.853   9.179  10.151 -0.4337 -0.3804  0.6132
  742MOL0     C 2279   7.844   9.302  10.059  1.0078 -0.7267 -0.3756
  742MOL0     C 2280   7.968   9.390  10.065  0.5120  0.2512  0.0621
  742MOL0     C 2281   7.921   9.526  10.002 -0.1420  0.0316  0.4581
  742MOL0     O 2282   8.032   9.623  10.045  0.4925  0.0962 -0.5197
  742MOL0     C 2283   8.036   9.703  10.160 -0.4240 -0.0280  0.4353
  742MOL0     C 2284   7.933   9.702  10.258  0.4713 -0.2277 -0.3332
  742MOL0     C 2285   7.923   9.806  10.356  0.4010 -0.0092  0.2118
  742MOL0     C 2286   7.809   9.787  10.446 -0.1306 -0.3734  0.3598
  742MOL0     C 2287   8.035   9.896  10.382  0.4214  0.9149  0.7891
  742MOL0     C 2288   8.020  10.007  10.477  0.2856  0.7189  0.5280
  742MOL0     O 2289   7.899  10.023  10.537 -0.1468 -0.3044 -0.0533
  742MOL0     C 2290   7.882  10.140  10.615 -0.2810  0.3543  0.5360
  742MOL0     C 2291   7.836  10.126  10.743  0.1471 -0.4138  1.4889
  742MOL0     C 2292   7.820  10.239  10.824  0.5786 -1.3937  1.0189
  742MOL0     C 2293   7.831  10.366  10.776  0.3066  0.0990 -0.7862
  742MOL0     O 2294   7.797  10.467  10.865  0.0593  0.2979 -0.2859
  742MOL0     C 2295   7.794  10.595  10.808  0.1756  0.0758 -0.2425
  742MOL0     C 2296   7.758  10.687  10.919 -0.3603 -0.6765  0.0965
  742MOL0     C 2297   7.760  10.835  10.874  0.0410 -0.2730 -0.7505
  742MOL0     C 2298   7.906  10.886  10.863 -0.1656  0.3271 -0.9032
  742MOL0     C 2299   7.910  11.027  10.822  0.1175 -0.0280 -0.6280
  742MOL0     C 2300   7.849  11.084  10.685 -0.5639  0.3007 -0.4988
  742MOL0     C 2301   7.892  11.009  10.555  0.0473  0.7326  0.6452
  742MOL0     C 2302   8.045  10.996  10.534 -0.1141 -0.1531  0.1101
  742MOL0    Cl 2303   8.120  11.148  10.508  0.6154 -0.0366  0.4528
  742MOL0     C 2304   7.867  10.378  10.632  0.2115  0.2206 -0.5717
  742MOL0     C 2305   7.906  10.265  10.561  0.0826 -0.1437  0.9059
  742MOL0     O 2306   8.119  10.078  10.483  0.2486 -0.8609 -0.5188
  742MOL0     C 2307   8.145   9.882  10.292 -0.3856  0.4544  0.4721
  742MOL0     C 2308   8.138   9.795  10.177 -0.8216  0.5049 -0.5052
  742MOL0     N 2309   7.823   9.313  10.373 -0.3675  0.6111  0.5165
  742MOL0     N 2310   7.802   9.275  10.496 -0.6399  0.3995 -0.2214
  742MOL0     C 2311   6.746   9.057  11.058 -0.5193  0.3982 -1.0254
  742MOL0     C 2312   6.624   9.070  11.124  0.2516 -0.6470  0.3325
  742MOL0     C 2313   6.336   9.238  11.416 -0.6440  0.8648 -0.0284
  742MOL0     C 2314   6.303   9.154  11.521 -0.3246  0.3618  0.0692
  742MOL0     C 2315   6.179   9.173  11.579  0.2510  0.0059  0.0544
  742MOL0     C 2316   6.079   9.257  11.520 -0.7043 -0.5282 -0.6160
  742MOL0     O 2317   5.963   9.257  11.597  0.0392  0.4514 -0.1400
  742MOL0     C 2318   5.847   9.328  11.544 -0.1414  0.1877 -1.3609
  742MOL0     C 2319   5.856   9.485  11.565  0.2045  0.8595 -0.2745
  742MOL0     C 2320   5.768   9.560  11.454 -1.1671 -0.6398  0.6071
  742MOL0     C 2321   5.615   9.536  11.448  0.1829  0.6393 -0.5120
  742MOL0     C 2322   5.581   9.401  11.391  0.0395 -0.0809 -0.4995
  742MOL0     C 2323   5.554   9.291  11.352  0.3478  0.1981 -0.2743
  742MOL0     C 2324   6.111   9.336  11.409  0.6993  0.3233 -0.5520
  742MOL0     C 2325   6.250   9.332  11.357  1.2634 -0.1283  0.1133
  742MOL0     C 2326   6.276   9.432  11.247 -0.2136 -1.1352  1.0018
  742MOL0     H 2327   6.632   9.401  11.170 -1.7754 -0.1571 -2.1247
  742MOL0     H 2328   6.853   9.382  11.064  0.4589 -0.3014 -0.8862
  742MOL0     H 2329   6.975   9.069  10.816 -1.0360 -1.2545 -0.5220
  742MOL0     H 2330   6.984   8.973  10.965  0.3932 -0.3777 -2.4357
  742MOL0     H 2331   7.179   9.180  10.866 -3.9016 -1.2171 -2.9956
  742MOL0     H 2332   7.206   9.059  11.002 -1.8930 -0.2356  1.3594
  742MOL0     H 2333   7.202   8.879  10.848  3.1426 -1.6020 -1.3101
  742MOL0     H 2334   7.177   8.999  10.710 -1.2105 -1.1902  0.4826
  742MOL0     H 2335   7.419   8.996  10.917 -2.1167 -0.8137 -0.2557
  742MOL0     H 2336   7.413   8.887  10.774 -1.6183 -0.9602  0.1141
  742MOL0     H 2337   7.387   9.194  10.747 -0.8020 -0.3581 -0.3469
  742MOL0     H 2338   7.402   9.084  10.616 -2.4525 -0.5863  1.2296
  742MOL0     H 2339   7.605   9.213  10.699 -3.6500  1.0250  1.1050
  742MOL0     H 2340   7.626   9.115  10.842  0.1087 -3.0713 -0.7842
  742MOL0     H 2341   7.608   8.985  10.568 -0.3636  1.6932 -0.1843
  742MOL0     H 2342   7.666   8.913  10.711 -1.3602  0.3408  1.6940
  742MOL0     H 2343   7.856   9.115  10.688 -1.3923 -1.4758  1.3182
  742MOL0     H 2344   7.876   8.969  10.601  0.1379  0.5962  0.3603
  742MOL0     H 2345   7.777   8.980  10.334 -1.9964  1.2399 -4.3304
  742MOL0     H 2346   7.775   9.107  10.127 -1.4353  0.4840  1.1709
  742MOL0     H 2347   7.949   9.133  10.124  1.0241  2.6364  0.1955
  742MOL0     H 2348   7.824   9.272   9.956 -0.3357  1.4188 -0.7981
  742MOL0     H 2349   7.752   9.355  10.087  1.0203 -0.9358  0.0701
  742MOL0     H 2350   7.991   9.405  10.171  1.7722  5.1865 -0.6552
  742MOL0     H 2351   8.050   9.348  10.006 -0.5035 -1.4678 -0.1828
  742MOL0     H 2352   7.911   9.529   9.893  0.4631  1.3924  0.4116
  742MOL0     H 2353   7.826   9.557  10.046 -0.5932  1.3757 -1.3297
  742MOL0     H 2354   7.865   9.618  10.256  2.6307 -2.0871 -1.7430
  742MOL0     H 2355   7.744   9.875  10.453 -0.1664 -0.3295 -0.3778
  742MOL0     H 2356   7.843   9.773  10.549 -0.2273  4.9977  1.4199
  742MOL0     H 2357   7.739   9.706  10.424 -0.5549  0.0603  0.0882
  742MOL0     H 2358   7.828  10.024  10.782  1.5168 -1.0268  0.2631
  742MOL0     H 2359   7.784  10.225  10.925 -0.3848  1.5204  1.1773
  742MOL0     H 2360   7.887  10.633  10.765  1.2334  0.6044  2.3196
  742MOL0     H 2361   7.723  10.600  10.725  1.7934 -3.8364 -2.1021
  742MOL0     H 2362   7.658  10.660  10.954 -1.2416  1.7492 -0.3497
  742MOL0     H 2363   7.827  10.686  11.003 -1.8657  1.4938  1.4762
  742MOL0     H 2364   7.696  10.901  10.934  2.2337  0.2536  1.1565
  742MOL0     H 2365   7.722  10.828  10.771 -2.2705  1.2748 -0.0948
  742MOL0     H 2366   7.965  10.824  10.795  1.2434  1.2452 -0.5515
  742MOL0     H 2367   7.962  10.882  10.956  1.7011 -0.5455 -2.0186
  742MOL0     H 2368   7.880  11.086  10.909  1.9415 -1.0644  0.7705
  742MOL0     H 2369   8.014  11.058  10.813 -0.0091 -0.0848 -2.7673
  742MOL0     H 2370   7.881  11.189  10.682  0.0799  0.1202 -0.1411
  742MOL0     H 2371   7.742  11.074  10.701 -0.4737  2.7638  2.7960
  742MOL0     H 2372   7.841  11.082  10.491  0.8326  0.9308  0.2279
  742MOL0     H 2373   7.830  10.919  10.556  1.1835 -0.0626  0.8635
  742MOL0     H 2374   8.055  10.938  10.442 -2.2721  0.3014 -0.4675
  742MOL0     H 2375   8.098  10.944  10.615  0.9198 -1.0169 -1.0931
  742MOL0     H 2376   7.891  10.475  10.590  2.8407  0.8488  2.0705
  742MOL0     H 2377   7.943  10.274  10.460 -1.8968 -2.1257 -0.1040
  742MOL0     H 2378   8.234   9.945  10.298  0.1330 -0.1207 -0.6462
  742MOL0     H 2379   8.218   9.796  10.103  0.5420 -1.9389  0.8371
  742MOL0     H 2380   6.787   8.958  11.042 -1.2739 -1.2946  4.9277
  742MOL0     H 2381   6.563   8.984  11.149 -4.4273  2.0592 -0.5922
  742MOL0     H 2382   6.365   9.073  11.559  1.1693  1.1970 -0.5061
  742MOL0     H 2383   6.148   9.120  11.669 -1.9844 -1.6473 -1.5829
  742MOL0     H 2384   5.844   9.309  11.437 -0.7220 -4.0069 -0.7657
  742MOL0     H 2385   5.761   9.279  11.590 -0.9800  1.0973 -1.9231
  742MOL0     H 2386   5.960   9.519  11.562  0.7979 -0.9150 -2.2900
  742MOL0     H 2387   5.815   9.506  11.664 -2.1760 -0.3033 -0.9414
  742MOL0     H 2388   5.777   9.669  11.458  0.4497 -0.7485  0.5981
  742MOL0     H 2389   5.797   9.528  11.353 -0.4854 -1.8582  1.1808
  742MOL0     H 2390   5.556   9.614  11.399 -2.5085 -0.8707  0.1326
  742MOL0     H 2391   5.579   9.546  11.550 -0.5095  0.4275 -0.7337
  742MOL0     H 2392   5.552   9.198  11.299  0.6868  0.4860 -0.8092
  742MOL0     H 2393   6.032   9.402  11.373 -0.4518 -1.0176 -0.5821
  742MOL0     H 2394   6.206   9.514  11.263  1.1965  0.3862 -0.2931
  742MOL0     H 2395   6.379   9.469  11.249  0.0119 -1.2959 -2.1976
  742MOL0     H 2396   6.264   9.387  11.148 -2.1792  0.2356  0.5777
  743MOL0     O 2397   0.585  11.549   3.233  0.2429 -0.1389 -0.2415
  743MOL0     C 2398   0.548  11.612   3.127 -0.8298  0.4985 -0.6024
  743MOL0     O 2399   0.540  11.554   3.003  0.0239 -0.4216 -0.1133
  743MOL0     C 2400   0.608  11.435   2.974  0.5802 -0.0558 -0.1069
  743MOL0     C 2401   0.716  11.432   2.893  0.7115  0.6859  1.7593
  743MOL0     C 2402   0.788  11.316   2.876  0.7315  0.1501  0.4233
  743MOL0     C 2403   0.755  11.201   2.946 -1.1864  0.4493  0.1441
  743MOL0     O 2404   0.827  11.081   2.923  0.1325  0.2176  0.1572
  743MOL0     C 2405   0.945  11.060   2.992  0.1918 -0.1919  0.5070
  743MOL0     C 2406   1.058  11.149   2.929 -0.5441 -0.0797 -0.9030
  743MOL0     C 2407   1.186  11.130   3.002 -0.4582 -0.3449  0.1296
  743MOL0     C 2408   1.205  11.235   3.118  0.5262  0.3024  0.4051
  743MOL0     C 2409   1.336  11.220   3.176 -0.6362  0.8161  0.1113
  743MOL0     C 2410   1.348  11.283   3.314  0.1818 -0.1288 -0.2281
  743MOL0     C 2411   1.477  11.239   3.391  1.9542  0.4255 -0.3316
  743MOL0     C 2412   1.456  11.114   3.481  0.0405  0.7215 -0.0011
  743MOL0     N 2413   1.420  11.151   3.619 -0.8428  0.0254  0.4910
  743MOL0     C 2414   1.295  11.169   3.660 -0.3890  0.5088 -0.1912
  743MOL0     C 2415   1.306  11.169   3.791  0.1790  0.0067  0.1915
  743MOL0     C 2416   1.191  11.190   3.888 -0.4940  0.3646  0.2183
  743MOL0     C 2417   1.073  11.258   3.821  0.5815 -0.2917  0.0087
  743MOL0     C 2418   0.939  11.250   3.901  0.6090  0.8402 -0.5223
  743MOL0     C 2419   0.927  11.113   3.977  1.3857  0.6532 -1.2311
  743MOL0     O 2420   0.785  11.097   4.020 -0.3804  0.0674  0.5713
  743MOL0     C 2421   0.751  11.005   4.115 -0.9214 -1.7153 -0.4943
  743MOL0     C 2422   0.836  10.925   4.203 -0.1456  0.8556  0.2989
  743MOL0     C 2423   0.785  10.835   4.298 -0.1222 -0.1352  0.2151
  743MOL0     C 2424   0.883  10.759   4.372 -0.9175 -0.5114  0.1888
  743MOL0     C 2425   0.643  10.837   4.327  0.1212  0.1176 -0.4603
  743MOL0     C 2426   0.576  10.767   4.437 -1.0117  0.2315  0.0685
  743MOL0     O 2427   0.624  10.646   4.469 -0.4969 -0.1010  0.6102
  743MOL0     C 2428   0.574  10.570   4.577 -0.0958 -0.5291  0.1442
  743MOL0     C 2429   0.660  10.537   4.687  0.2783 -0.9731 -0.0833
  743MOL0     C 2430   0.603  10.458   4.788 -0.2594  0.2662 -0.9068
  743MOL0     C 2431   0.469  10.414   4.788 -0.7187 -0.2478 -0.4819
  743MOL0     O 2432   0.409  10.341   4.887  0.9046  0.3640  0.0534
  743MOL0     C 2433   0.408  10.398   5.024 -0.3968  0.1957 -0.4762
  743MOL0     C 2434   0.323  10.521   5.051  0.9291 -0.3736 -0.1927
  743MOL0     C 2435   0.206  10.501   5.141  0.1784 -0.1079 -0.9012
  743MOL0     C 2436   0.119  10.381   5.092 -1.2496  0.4550  0.0712
  743MOL0     C 2437   0.003  10.432   5.010 -0.0152  0.1874  0.3331
  743MOL0     C 2438  -0.075  10.321   4.937 -0.0632  0.1028 -0.0616
  743MOL0     C 2439  -0.150  10.231   5.041 -0.3209  0.0111  0.6956
  743MOL0     C 2440  -0.296  10.179   5.003 -0.3083  0.6556  0.4938
  743MOL0    Cl 2441  -0.283  10.051   4.875  0.2120  0.6123  0.4243
  743MOL0     C 2442   0.396  10.451   4.682  0.5490  0.2163  0.4420
  743MOL0     C 2443   0.449  10.523   4.572  0.4024  0.6083 -1.0074
  743MOL0     O 2444   0.480  10.821   4.489 -0.0680  0.1999  0.3066
  743MOL0     C 2445   0.561  10.915   4.234  0.3200  0.5184 -0.8330
  743MOL0     C 2446   0.618  10.993   4.140 -0.0664 -0.2798  0.2582
  743MOL0     N 2447   1.435  11.144   3.831  0.4388 -0.0627 -0.0044
  743MOL0     N 2448   1.511  11.152   3.721  1.1092  0.0093 -0.0030
  743MOL0     C 2449   0.640  11.200   3.020  0.0537 -0.2186 -1.4508
  743MOL0     C 2450   0.564  11.315   3.038  0.3056 -0.0852 -0.6156
  743MOL0     C 2451   0.495  11.741   3.145  1.0123  1.2916  0.2326
  743MOL0     C 2452   0.461  11.810   3.027 -0.7128 -0.0415 -0.3181
  743MOL0     C 2453   0.375  11.914   3.034  0.3303  0.2002 -0.1314
  743MOL0     C 2454   0.333  11.972   3.154  0.5571 -0.1279  0.0515
  743MOL0     O 2455   0.240  12.072   3.152  0.3136 -0.8550  0.7676
  743MOL0     C 2456   0.105  12.047   3.116 -0.4116  0.7407  0.5291
  743MOL0     C 2457   0.057  12.183   3.082  0.5118 -0.3364  0.2121
  743MOL0     C 2458  -0.097  12.167   3.061  0.0960 -0.2029  0.4005
  743MOL0     C 2459  -0.165  12.296   3.004 -0.3658 -0.0719  0.3378
  743MOL0     C 2460  -0.304  12.277   2.949 -0.0140 -0.0238  0.0241
  743MOL0     C 2461  -0.419  12.252   2.916 -0.3802 -0.4525  0.3120
  743MOL0     C 2462   0.385  11.922   3.274 -0.4976  0.8171 -0.7892
  743MOL0     C 2463   0.460  11.802   3.276 -0.3626  0.8215  0.3636
  743MOL0     C 2464   0.500  11.751   3.412 -0.0276 -0.2610  0.0889
  743MOL0     H 2465   0.755  11.516   2.836  6.3263 -0.3070  3.5990
  743MOL0     H 2466   0.877  11.298   2.817 -0.2503 -0.9547 -0.7687
  743MOL0     H 2467   0.977  10.956   2.981  1.0206  0.0840  0.2262
  743MOL0     H 2468   0.922  11.092   3.095 -5.5576  0.5198 -0.6601
  743MOL0     H 2469   1.055  11.137   2.820  3.5355  1.0284 -1.3184
  743MOL0     H 2470   1.046  11.254   2.957 -0.0445 -1.3235  5.8024
  743MOL0     H 2471   1.197  11.026   3.034 -0.9879 -0.4470 -0.0071
  743MOL0     H 2472   1.275  11.135   2.937  0.3340 -6.5659  0.1654
  743MOL0     H 2473   1.194  11.336   3.077 -2.9367 -0.4099 -0.7935
  743MOL0     H 2474   1.121  11.214   3.184 -0.5925  1.1958 -0.6921
  743MOL0     H 2475   1.400  11.274   3.106 -2.4415  2.1637 -0.5813
  743MOL0     H 2476   1.351  11.112   3.189 -0.5074  0.5157 -2.2040
  743MOL0     H 2477   1.360  11.392   3.309 -1.4731  0.3346  3.2662
  743MOL0     H 2478   1.258  11.262   3.371 -0.1840  2.0313  0.0876
  743MOL0     H 2479   1.521  11.326   3.440 -0.3390  3.0457 -2.5778
  743MOL0     H 2480   1.560  11.214   3.324  1.7894 -0.7331 -0.1170
  743MOL0     H 2481   1.370  11.057   3.444  2.5239 -1.3371 -3.2682
  743MOL0     H 2482   1.539  11.044   3.472 -1.6774 -1.3350 -0.9337
  743MOL0     H 2483   1.209  11.183   3.596  0.9487  3.5135 -1.5359
  743MOL0     H 2484   1.224  11.227   3.985  0.4367 -1.8160  0.7717
  743MOL0     H 2485   1.162  11.087   3.911 -1.5508  0.5703 -0.0995
  743MOL0     H 2486   1.086  11.362   3.790 -0.6415 -0.1697 -0.1300
  743MOL0     H 2487   1.052  11.206   3.728 -0.6787 -1.9586  1.1753
  743MOL0     H 2488   0.946  11.334   3.971  4.0078 -0.3103  0.7233
  743MOL0     H 2489   0.853  11.258   3.833  0.6411 -1.2421 -0.8563
  743MOL0     H 2490   0.951  11.022   3.921  1.2550  1.3630 -2.4695
  743MOL0     H 2491   0.989  11.111   4.067  0.0395 -2.3757 -0.2360
  743MOL0     H 2492   0.944  10.923   4.188 -0.0715 -2.3179  0.4776
  743MOL0     H 2493   0.928  10.832   4.440 -2.4796  2.1333 -1.4728
  743MOL0     H 2494   0.953  10.721   4.297 -2.7966  0.4473 -2.1275
  743MOL0     H 2495   0.847  10.677   4.435  2.0168 -1.1606  1.2136
  743MOL0     H 2496   0.768  10.547   4.696  0.0988  1.0769  0.1997
  743MOL0     H 2497   0.667  10.440   4.874 -1.0739 -1.5155 -0.6486
  743MOL0     H 2498   0.377  10.322   5.095 -2.1262  0.0284 -1.3642
  743MOL0     H 2499   0.510  10.435   5.038 -0.0262 -0.1222 -2.1016
  743MOL0     H 2500   0.386  10.594   5.103 -0.9609  0.4201  1.1214
  743MOL0     H 2501   0.303  10.569   4.955  1.5535 -0.8674 -0.5736
  743MOL0     H 2502   0.144  10.591   5.151 -0.1345 -0.2945 -1.1592
  743MOL0     H 2503   0.246  10.453   5.231 -2.1100 -3.4759 -1.4958
  743MOL0     H 2504   0.091  10.321   5.179  1.8603  0.1256  0.9817
  743MOL0     H 2505   0.182  10.310   5.037 -1.6777 -2.1877  2.7074
  743MOL0     H 2506  -0.065  10.487   5.075  1.9344 -0.9605  3.5589
  743MOL0     H 2507   0.050  10.499   4.937  1.0404  1.9969  2.5544
  743MOL0     H 2508  -0.018  10.264   4.862  0.2900  2.4777 -1.6961
  743MOL0     H 2509  -0.151  10.376   4.881 -1.8072 -0.2818  1.7980
  743MOL0     H 2510  -0.155  10.284   5.137  4.3348  2.3170 -0.0244
  743MOL0     H 2511  -0.087  10.142   5.049  0.8754  0.7087 -0.4694
  743MOL0     H 2512  -0.361  10.261   4.971  0.5803  1.4003  0.5716
  743MOL0     H 2513  -0.338  10.134   5.093 -0.1719 -0.8462 -0.1589
  743MOL0     H 2514   0.297  10.410   4.663 -0.7605  3.9733 -1.7569
  743MOL0     H 2515   0.397  10.549   4.481  1.4821  1.3544 -1.4447
  743MOL0     H 2516   0.453  10.915   4.248  0.2527  3.1999 -0.8796
  743MOL0     H 2517   0.549  11.036   4.068  2.7500  0.1646 -2.4302
  743MOL0     H 2518   0.603  11.112   3.072 -1.6537  0.7877 -0.8676
  743MOL0     H 2519   0.474  11.319   3.098 -1.3198 -2.3686 -2.6851
  743MOL0     H 2520   0.484  11.776   2.926 -2.3132  0.3910 -0.8624
  743MOL0     H 2521   0.344  11.953   2.938  2.2108 -1.4728 -1.4886
  743MOL0     H 2522   0.111  11.998   3.019  0.9806 -0.1403  1.0222
  743MOL0     H 2523   0.051  11.993   3.195 -0.9798 -0.9658 -0.9491
  743MOL0     H 2524   0.090  12.220   2.985 -2.9032  0.6715 -0.6825
  743MOL0     H 2525   0.094  12.256   3.155 -1.1786 -0.5082  1.2807
  743MOL0     H 2526  -0.104  12.080   2.995 -1.1331  0.8599 -0.9388
  743MOL0     H 2527  -0.152  12.150   3.154  0.6149  0.0056  0.7474
  743MOL0     H 2528  -0.101  12.335   2.924  0.4742 -3.1942 -0.6588
  743MOL0     H 2529  -0.174  12.373   3.081 -0.9201  1.4944 -1.2292
  743MOL0     H 2530  -0.517  12.219   2.887 -0.0476 -3.9229  2.5228
  743MOL0     H 2531   0.358  11.963   3.371 -1.6837 -1.9533  0.1827
  743MOL0     H 2532   0.461  11.823   3.484 -1.3367 -0.0602 -0.7810
  743MOL0     H 2533   0.455  11.657   3.444  2.8537 -1.4077  1.1252
  743MOL0     H 2534   0.608  11.742   3.424 -0.3526 -1.6744  2.5103
  744MOL0     O 2535   5.020   6.674   4.251 -0.4951  0.4578  0.0375
  744MOL0     C 2536   4.942   6.581   4.232 -0.3816  0.6803 -0.8187
  744MOL0     O 2537   4.837   6.544   4.314 -0.5983  0.0174  0.0223
  744MOL0     C 2538   4.830   6.610   4.440 -0.4819  0.2277  0.3312
  744MOL0     C 2539   4.852   6.520   4.548  0.2650  1.1191  0.3778
  744MOL0     C 2540   4.880   6.578   4.672  0.7271  0.2518 -0.0845
  744MOL0     C 2541   4.871   6.711   4.697  0.2778  0.4881 -1.3083
  744MOL0     O 2542   4.868   6.762   4.823  0.5364  0.3721  0.0281
  744MOL0     C 2543   4.748   6.837   4.860 -1.1888  0.2791 -0.2572
  744MOL0     C 2544   4.671   6.761   4.967 -0.1994  0.1173 -0.2152
  744MOL0     C 2545   4.752   6.679   5.069 -0.2355  0.1648  0.4170
  744MOL0     C 2546   4.684   6.633   5.193  0.1265 -0.2416  0.6913
  744MOL0     C 2547   4.784   6.556   5.286  0.8699  0.4557  0.3937
  744MOL0     C 2548   4.738   6.411   5.292 -1.4031  0.9732 -0.0232
  744MOL0     C 2549   4.849   6.341   5.380 -0.3263 -0.1118  0.0742
  744MOL0     C 2550   4.821   6.190   5.429 -0.5077  0.1365 -0.6405
  744MOL0     N 2551   4.805   6.105   5.313 -0.1531  0.2420 -0.1629
  744MOL0     C 2552   4.915   6.072   5.229 -0.1806  1.0429 -0.4477
  744MOL0     C 2553   4.859   6.059   5.109  0.3497  0.6998  0.0408
  744MOL0     C 2554   4.920   6.003   4.982 -0.1349  0.1186  0.0922
  744MOL0     C 2555   4.865   5.861   4.963  0.2357  0.1262 -0.3642
  744MOL0     C 2556   4.923   5.763   5.061 -0.6947 -0.3976 -0.6448
  744MOL0     C 2557   4.871   5.625   5.028 -0.2636  0.5502 -0.1685
  744MOL0     O 2558   4.736   5.615   5.068 -0.1982 -0.4558 -0.5933
  744MOL0     C 2559   4.663   5.507   5.031  0.6080  0.4492  0.0784
  744MOL0     C 2560   4.721   5.393   4.970  1.4659 -0.2351 -0.0792
  744MOL0     C 2561   4.649   5.283   4.917 -0.6096 -0.8058  0.7198
  744MOL0     C 2562   4.721   5.165   4.854 -0.4765 -0.5666  0.1923
  744MOL0     C 2563   4.507   5.291   4.923  0.0443 -0.8663 -0.8039
  744MOL0     C 2564   4.406   5.188   4.880  0.2659 -0.9814  1.5695
  744MOL0     O 2565   4.288   5.200   4.938  0.1288  0.0398 -0.2861
  744MOL0     C 2566   4.178   5.123   4.911  0.1682 -0.4419  0.0147
  744MOL0     C 2567   4.138   5.012   4.980 -0.3506 -0.5603  0.7282
  744MOL0     C 2568   4.030   4.933   4.941  0.1091 -0.8570  0.1529
  744MOL0     C 2569   3.949   4.971   4.831 -1.8215  0.6734  0.4405
  744MOL0     O 2570   3.825   4.908   4.798 -0.6433  0.2433 -1.3805
  744MOL0     C 2571   3.805   4.775   4.853  0.2894 -0.3788  0.3098
  744MOL0     C 2572   3.656   4.732   4.833 -0.3773 -0.1033 -0.2612
  744MOL0     C 2573   3.557   4.760   4.945 -0.8477  0.2083  0.2505
  744MOL0     C 2574   3.517   4.896   4.954 -0.2669 -0.1302  0.3489
  744MOL0     C 2575   3.412   4.914   5.072 -1.6426  0.2271 -0.1378
  744MOL0     C 2576   3.276   4.842   5.057 -0.4139  0.7307 -0.4220
  744MOL0     C 2577   3.176   4.854   5.168  0.3785  0.5014  0.8539
  744MOL0     C 2578   3.044   4.785   5.148 -0.4958 -0.1555  0.9618
  744MOL0    Cl 2579   3.067   4.621   5.194 -0.1425 -0.1359 -0.3740
  744MOL0     C 2580   3.990   5.078   4.751  0.3888 -0.0814  1.2904
  744MOL0     C 2581   4.102   5.150   4.788  0.1611 -0.6006 -1.2742
  744MOL0     O 2582   4.436   5.104   4.791  0.2055  0.7431 -0.4755
  744MOL0     C 2583   4.451   5.403   4.990  1.1401 -0.0224  0.0840
  744MOL0     C 2584   4.523   5.508   5.046 -0.5601 -0.3729 -0.6698
  744MOL0     N 2585   4.719   6.058   5.120 -0.3680  0.2888  0.1635
  744MOL0     N 2586   4.687   6.084   5.239  0.6065 -0.7052 -0.2038
  744MOL0     C 2587   4.850   6.796   4.600  0.2971  0.1798  0.0520
  744MOL0     C 2588   4.847   6.752   4.467  0.4095  0.4987  0.4374
  744MOL0     C 2589   4.938   6.515   4.100  1.1236 -0.0974 -0.4845
  744MOL0     C 2590   5.010   6.393   4.086 -0.3416  0.7079  0.9327
  744MOL0     C 2591   5.010   6.333   3.960  0.8052 -1.0778 -0.6885
  744MOL0     C 2592   4.927   6.383   3.859 -0.5478  0.7431 -0.9535
  744MOL0     O 2593   4.920   6.336   3.733  0.4259  0.4101 -0.0321
  744MOL0     C 2594   4.934   6.195   3.730 -0.4722  0.5852 -0.1831
  744MOL0     C 2595   4.896   6.141   3.593  0.1339  0.6819  0.5543
  744MOL0     C 2596   4.742   6.144   3.577  0.2854 -0.7032 -0.7538
  744MOL0     C 2597   4.687   6.221   3.452 -0.2191  0.6605 -0.3949
  744MOL0     C 2598   4.743   6.156   3.329 -0.1249 -0.0083  0.2092
  744MOL0     C 2599   4.766   6.103   3.221  0.7125 -0.2129  0.0543
  744MOL0     C 2600   4.871   6.509   3.876  0.8469 -0.5917  0.7105
  744MOL0     C 2601   4.869   6.576   3.995  0.0404  0.5344  0.2374
  744MOL0     C 2602   4.795   6.699   4.021  0.3017 -0.7658 -0.8583
  744MOL0     H 2603   4.868   6.413   4.545 -0.6149  0.9801  0.4849
  744MOL0     H 2604   4.891   6.505   4.752  1.3551  1.0771  0.5983
  744MOL0     H 2605   4.689   6.865   4.772 -1.2723 -1.9985 -0.9774
  744MOL0     H 2606   4.792   6.929   4.902  2.2681 -1.8724  1.3006
  744MOL0     H 2607   4.609   6.833   5.022 -4.1473 -2.1477 -1.3225
  744MOL0     H 2608   4.608   6.694   4.909 -2.9964  0.6506  2.0016
  744MOL0     H 2609   4.814   6.598   5.028  2.1670  1.2398  1.7213
  744MOL0     H 2610   4.825   6.749   5.111  0.0990  1.5772 -2.2935
  744MOL0     H 2611   4.658   6.717   5.258 -1.6182 -2.1282  2.5581
  744MOL0     H 2612   4.596   6.573   5.170  0.9541 -1.2950  0.1410
  744MOL0     H 2613   4.780   6.597   5.387  1.3561  0.0518  0.5804
  744MOL0     H 2614   4.887   6.566   5.250  1.5917  3.4340  2.8817
  744MOL0     H 2615   4.639   6.400   5.337 -1.1815  2.1531  0.7996
  744MOL0     H 2616   4.731   6.365   5.194 -0.7987  0.7432  0.0362
  744MOL0     H 2617   4.875   6.396   5.472 -1.3533 -1.4202  1.1957
  744MOL0     H 2618   4.936   6.350   5.315 -0.0359  2.5665  0.7034
  744MOL0     H 2619   4.904   6.147   5.485 -0.5305 -1.7099 -1.9327
  744MOL0     H 2620   4.730   6.192   5.490 -0.3961  1.2371 -0.4928
  744MOL0     H 2621   5.021   6.088   5.244  0.5565 -0.6994 -3.0051
  744MOL0     H 2622   5.028   6.002   4.994  0.2891  4.9182 -1.1434
  744MOL0     H 2623   4.897   6.058   4.890 -0.0200 -0.5512 -0.3424
  744MOL0     H 2624   4.757   5.849   4.974  0.5926 -3.9180  0.3925
  744MOL0     H 2625   4.885   5.822   4.862 -2.6724 -3.3159  0.1736
  744MOL0     H 2626   5.032   5.769   5.065 -0.7096  1.0436 -1.4508
  744MOL0     H 2627   4.885   5.792   5.159  1.0822  1.2638 -0.3762
  744MOL0     H 2628   4.876   5.613   4.919 -1.9182 -2.8378  0.0128
  744MOL0     H 2629   4.949   5.563   5.073  2.5058  3.8344  0.0307
  744MOL0     H 2630   4.830   5.390   4.960  1.5917  0.4671  0.9664
  744MOL0     H 2631   4.686   5.155   4.751  0.8990  2.1750 -0.6259
  744MOL0     H 2632   4.706   5.070   4.907  2.2592 -4.6536 -5.3317
  744MOL0     H 2633   4.830   5.165   4.842 -0.7217  0.1612 -2.7805
  744MOL0     H 2634   4.197   4.983   5.067  2.3258  0.4575 -0.6431
  744MOL0     H 2635   4.009   4.852   5.010 -0.2033 -0.8517  0.0625
  744MOL0     H 2636   3.879   4.702   4.820  1.3924  0.4573  0.8781
  744MOL0     H 2637   3.820   4.787   4.960  1.4337  3.0245 -0.1017
  744MOL0     H 2638   3.622   4.771   4.737 -0.1434 -4.0559 -2.1630
  744MOL0     H 2639   3.647   4.623   4.823 -3.8755  0.1780 -1.5894
  744MOL0     H 2640   3.598   4.739   5.044 -0.2761 -0.0730 -0.0392
  744MOL0     H 2641   3.478   4.688   4.922 -1.9655  0.8796  1.7961
  744MOL0     H 2642   3.458   4.916   4.864 -0.0242  0.3529  0.2972
  744MOL0     H 2643   3.603   4.964   4.957  1.6088 -2.1115 -2.7335
  744MOL0     H 2644   3.474   4.888   5.158  1.5172  3.2938 -1.2285
  744MOL0     H 2645   3.373   5.015   5.091 -1.1779  0.2078  1.0004
  744MOL0     H 2646   3.292   4.738   5.024 -1.8187  1.1513 -2.7281
  744MOL0     H 2647   3.251   4.880   4.957  4.4575 -1.0635 -2.6595
  744MOL0     H 2648   3.158   4.959   5.191  3.5503  1.7094 -1.4769
  744MOL0     H 2649   3.218   4.816   5.262  0.8864  1.8832  1.2061
  744MOL0     H 2650   2.987   4.810   5.058 -1.7806  1.1436  2.0887
  744MOL0     H 2651   2.983   4.829   5.228  0.2443 -1.6140  2.3851
  744MOL0     H 2652   3.933   5.117   4.668  0.9758 -1.1945  0.3428
  744MOL0     H 2653   4.138   5.237   4.734  1.7996 -0.5642 -0.1861
  744MOL0     H 2654   4.344   5.419   4.980  1.4093  1.2136 -1.3255
  744MOL0     H 2655   4.477   5.592   5.096  1.6564  0.8434 -0.5358
  744MOL0     H 2656   4.849   6.903   4.618 -2.7923  0.9520 -3.3647
  744MOL0     H 2657   4.856   6.822   4.384  1.6100 -0.2704 -0.1188
  744MOL0     H 2658   5.052   6.345   4.174 -0.9897  0.1564  0.9472
  744MOL0     H 2659   5.066   6.240   3.956 -1.7858 -2.7079 -2.9668
  744MOL0     H 2660   5.037   6.162   3.746 -0.0941  1.7674 -0.0482
  744MOL0     H 2661   4.877   6.158   3.816 -0.4633  2.0785  0.4989
  744MOL0     H 2662   4.925   6.036   3.592 -1.8758  0.0989 -0.0816
  744MOL0     H 2663   4.943   6.193   3.509  0.3648 -2.2821 -1.2798
  744MOL0     H 2664   4.701   6.044   3.561 -0.1180 -0.6980  0.2515
  744MOL0     H 2665   4.685   6.195   3.654  0.9078  2.1899 -2.0566
  744MOL0     H 2666   4.707   6.329   3.455 -1.9850  1.0627 -1.4132
  744MOL0     H 2667   4.578   6.211   3.463 -0.6209  0.9101 -3.2849
  744MOL0     H 2668   4.775   6.053   3.127  1.7387 -3.2103  1.6159
  744MOL0     H 2669   4.814   6.551   3.794 -0.4541 -0.8014  1.4746
  744MOL0     H 2670   4.864   6.778   4.050  0.9553  0.0055 -4.0479
  744MOL0     H 2671   4.745   6.730   3.929 -0.4970 -0.6290 -0.3831
  744MOL0     H 2672   4.719   6.682   4.097  0.0687  0.8833 -0.6952
  745MOL0     O 2673   6.305   3.250   2.433 -0.1956 -0.6779  0.2355
  745MOL0     C 2674   6.285   3.293   2.320  0.2175 -0.3549  0.8064
  745MOL0     O 2675   6.334   3.412   2.269 -0.3668 -0.3564  0.3075
  745MOL0     C 2676   6.385   3.490   2.368 -0.4954 -0.2595 -0.0363
  745MOL0     C 2677   6.523   3.522   2.365  0.6787 -0.1501  0.8295
  745MOL0     C 2678   6.570   3.596   2.470  0.5947 -0.0062  0.1397
  745MOL0     C 2679   6.489   3.635   2.583 -0.2004 -0.1510  0.8314
  745MOL0     O 2680   6.550   3.718   2.667  0.1045  0.0664  0.1164
  745MOL0     C 2681   6.482   3.778   2.786 -0.8038  0.6429  0.0520
  745MOL0     C 2682   6.460   3.674   2.898 -0.2778  0.3856  0.7747
  745MOL0     C 2683   6.366   3.740   2.999  0.9963  0.1563  0.5550
  745MOL0     C 2684   6.322   3.630   3.108 -0.2541 -0.0875 -0.7854
  745MOL0     C 2685   6.280   3.674   3.245  0.2338 -0.6768 -0.7300
  745MOL0     C 2686   6.304   3.577   3.356 -0.0437  0.5862 -0.3821
  745MOL0     C 2687   6.275   3.644   3.492 -0.4549 -0.1684 -0.9741
  745MOL0     C 2688   6.235   3.534   3.598 -0.0353 -0.5884  0.5777
  745MOL0     N 2689   6.197   3.583   3.730  0.0151  0.3832  0.0581
  745MOL0     C 2690   6.239   3.704   3.790  0.3062 -0.8150 -0.5712
  745MOL0     C 2691   6.155   3.726   3.889  0.0901  0.5227 -0.4600
  745MOL0     C 2692   6.138   3.842   3.989 -0.5731 -0.2416  0.4858
  745MOL0     C 2693   6.274   3.917   4.016  0.3059  0.3156 -1.3005
  745MOL0     C 2694   6.280   4.005   4.142  0.3319 -0.0838  0.3868
  745MOL0     C 2695   6.163   4.101   4.156  0.2859  0.4023  0.6857
  745MOL0     O 2696   6.052   4.039   4.234  0.0290  0.2416 -0.3978
  745MOL0     C 2697   5.930   4.097   4.227 -1.0595 -0.3391  0.3229
  745MOL0     C 2698   5.867   4.129   4.346  0.7775 -0.2949  0.1685
  745MOL0     C 2699   5.736   4.190   4.353  0.0471  0.0725 -0.2613
  745MOL0     C 2700   5.687   4.230   4.494  0.2044 -0.8060  0.4919
  745MOL0     C 2701   5.668   4.220   4.224  0.1339  0.2735 -0.4171
  745MOL0     C 2702   5.541   4.298   4.215 -0.2308  0.3222 -0.4990
  745MOL0     O 2703   5.494   4.355   4.332 -0.2937  0.2546 -0.1087
  745MOL0     C 2704   5.364   4.395   4.346  0.1914 -0.1367 -0.9662
  745MOL0     C 2705   5.290   4.319   4.439  0.5411  0.1272 -1.3524
  745MOL0     C 2706   5.144   4.345   4.447 -0.6629 -0.4538  0.8430
  745MOL0     C 2707   5.076   4.424   4.351  0.2432  0.6549 -0.0492
  745MOL0     O 2708   4.937   4.441   4.370 -1.0307 -0.2882  0.2364
  745MOL0     C 2709   4.847   4.499   4.280 -0.4844 -1.3909 -1.0783
  745MOL0     C 2710   4.716   4.424   4.271 -0.6365  0.2949  0.3355
  745MOL0     C 2711   4.624   4.481   4.165  0.8328 -0.3644  0.1632
  745MOL0     C 2712   4.569   4.621   4.210 -0.5846  1.4270  0.1494
  745MOL0     C 2713   4.538   4.717   4.093  0.0429  0.4772 -0.0663
  745MOL0     C 2714   4.429   4.652   4.005 -1.0969 -0.2693  0.5521
  745MOL0     C 2715   4.464   4.659   3.864 -0.6053 -0.5588  0.8315
  745MOL0     C 2716   4.582   4.573   3.816 -0.4192 -0.3110 -0.6265
  745MOL0    Cl 2717   4.554   4.559   3.649  0.2810 -0.0495  0.0650
  745MOL0     C 2718   5.152   4.486   4.253 -0.3091  0.1432  0.2885
  745MOL0     C 2719   5.292   4.476   4.248 -0.1363  1.8331 -0.7687
  745MOL0     O 2720   5.465   4.281   4.113  0.1578 -0.3512 -0.1950
  745MOL0     C 2721   5.740   4.189   4.103  0.1536  0.0352 -0.2817
  745MOL0     C 2722   5.864   4.123   4.111  0.5380 -0.5493  0.5976
  745MOL0     N 2723   6.055   3.633   3.890 -0.0674 -0.5805  0.3146
  745MOL0     N 2724   6.091   3.543   3.793 -0.4456  0.2354  0.0153
  745MOL0     C 2725   6.350   3.605   2.579 -0.1630 -0.4973  0.1786
  745MOL0     C 2726   6.303   3.530   2.482 -0.0001  0.0686 -0.2747
  745MOL0     C 2727   6.212   3.200   2.220  0.0787 -0.3998 -0.6630
  745MOL0     C 2728   6.225   3.235   2.081  0.3398 -0.1846 -0.2146
  745MOL0     C 2729   6.159   3.163   1.983 -0.9755 -0.1095 -0.1001
  745MOL0     C 2730   6.088   3.053   2.022 -0.5832 -0.9970  0.0117
  745MOL0     O 2731   6.018   2.962   1.931 -1.1226  0.1611 -0.3452
  745MOL0     C 2732   5.980   3.007   1.800  0.4476  0.5654 -0.6061
  745MOL0     C 2733   5.861   3.109   1.788 -0.3670  0.0683  0.1145
  745MOL0     C 2734   5.729   3.034   1.825 -1.3301  0.3513 -0.1898
  745MOL0     C 2735   5.716   2.966   1.961 -0.1641  0.1348 -0.3463
  745MOL0     C 2736   5.726   3.065   2.079  0.3967 -0.0058  0.2272
  745MOL0     C 2737   5.719   3.138   2.175  0.7190 -0.6168  0.0935
  745MOL0     C 2738   6.078   3.010   2.154  0.1481  0.5653  0.1468
  745MOL0     C 2739   6.140   3.087   2.264  0.2840  0.1467 -0.6996
  745MOL0     C 2740   6.117   3.033   2.402  0.4185  0.3712  0.5475
  745MOL0     H 2741   6.584   3.472   2.291  2.0312 -0.6550  2.2236
  745MOL0     H 2742   6.668   3.643   2.459  0.1775  0.3956 -2.5169
  745MOL0     H 2743   6.382   3.816   2.764 -2.0120 -2.5314 -0.3199
  745MOL0     H 2744   6.544   3.858   2.830  2.6277 -1.0991 -1.2824
  745MOL0     H 2745   6.422   3.584   2.849 -2.3716  1.5929  0.0754
  745MOL0     H 2746   6.554   3.653   2.949 -1.6517  0.5138  3.5366
  745MOL0     H 2747   6.429   3.820   3.040  3.7910  0.6003 -3.8527
  745MOL0     H 2748   6.268   3.776   2.968 -0.4403 -1.7988  2.5215
  745MOL0     H 2749   6.235   3.581   3.064  0.9841 -0.3763 -3.0841
  745MOL0     H 2750   6.408   3.567   3.134 -3.1274 -4.3207 -0.5961
  745MOL0     H 2751   6.181   3.720   3.239  0.5165 -0.2408 -4.4269
  745MOL0     H 2752   6.342   3.756   3.282  0.9065 -1.3188 -0.4071
  745MOL0     H 2753   6.244   3.486   3.357  0.8381 -0.0079  0.7162
  745MOL0     H 2754   6.412   3.557   3.356  0.0469  0.9919 -1.5014
  745MOL0     H 2755   6.186   3.708   3.494 -1.8601 -2.0467  0.1712
  745MOL0     H 2756   6.365   3.700   3.516 -1.3998  1.5685 -1.3393
  745MOL0     H 2757   6.150   3.470   3.571  0.4406 -0.6831 -0.7634
  745MOL0     H 2758   6.323   3.469   3.607 -0.9994 -2.5050 -2.3660
  745MOL0     H 2759   6.318   3.771   3.759 -3.8135  3.6828 -2.6428
  745MOL0     H 2760   6.107   3.804   4.087 -0.2902  2.9391  1.9326
  745MOL0     H 2761   6.054   3.905   3.958 -0.0047  0.6611  0.7444
  745MOL0     H 2762   6.341   3.834   4.038 -0.8720 -0.2481  0.3781
  745MOL0     H 2763   6.306   3.969   3.925  2.0050  0.6536 -0.5439
  745MOL0     H 2764   6.269   3.946   4.234  1.2932 -0.3077  0.3697
  745MOL0     H 2765   6.376   4.057   4.142 -0.9320  2.4468  1.8927
  745MOL0     H 2766   6.200   4.187   4.212 -1.3317  0.8575  1.1070
  745MOL0     H 2767   6.133   4.128   4.054 -1.3429  0.2589  1.0871
  745MOL0     H 2768   5.917   4.108   4.440  0.8959  3.1545  1.0383
  745MOL0     H 2769   5.681   4.338   4.507  3.6580 -0.4931  0.2842
  745MOL0     H 2770   5.761   4.188   4.562  2.3259 -2.2494 -2.4788
  745MOL0     H 2771   5.585   4.188   4.495 -0.2287  0.1473 -0.9708
  745MOL0     H 2772   5.338   4.248   4.506 -0.4139  0.2355 -0.5322
  745MOL0     H 2773   5.097   4.287   4.526  2.4784 -0.8452  2.5866
  745MOL0     H 2774   4.838   4.604   4.310  2.6036 -0.9966 -1.1421
  745MOL0     H 2775   4.885   4.485   4.179 -3.5384 -1.5708 -2.2916
  745MOL0     H 2776   4.746   4.320   4.253  0.3403  0.2883  1.8498
  745MOL0     H 2777   4.665   4.409   4.366 -3.1512 -2.9598 -1.3202
  745MOL0     H 2778   4.538   4.418   4.139  1.3056 -0.0544 -2.3898
  745MOL0     H 2779   4.661   4.486   4.063 -2.3513  0.6767 -1.0870
  745MOL0     H 2780   4.634   4.669   4.285  3.1284 -2.7799  0.0593
  745MOL0     H 2781   4.471   4.607   4.255 -1.0752  2.8699 -0.4044
  745MOL0     H 2782   4.504   4.818   4.119 -1.5075  0.0641 -0.3791
  745MOL0     H 2783   4.634   4.730   4.042  0.4888  1.1324  0.8962
  745MOL0     H 2784   4.336   4.706   4.024 -1.5833 -0.6419 -0.6612
  745MOL0     H 2785   4.401   4.549   4.031  0.4179 -1.3680 -1.8007
  745MOL0     H 2786   4.491   4.764   3.843  2.7107 -1.3455  0.5867
  745MOL0     H 2787   4.374   4.628   3.810  0.3421 -3.1220  0.6054
  745MOL0     H 2788   4.584   4.478   3.870  0.3738  1.4195  2.6513
  745MOL0     H 2789   4.678   4.626   3.823 -1.3904  1.3255  1.4407
  745MOL0     H 2790   5.112   4.551   4.175 -0.0276 -0.1060 -0.0653
  745MOL0     H 2791   5.340   4.518   4.160 -0.2952  0.4737 -1.5314
  745MOL0     H 2792   5.690   4.210   4.009  1.0734  1.8952 -0.3866
  745MOL0     H 2793   5.916   4.102   4.018  2.1464  1.8586  0.8790
  745MOL0     H 2794   6.276   3.650   2.644 -1.1707 -2.1624  0.2432
  745MOL0     H 2795   6.199   3.501   2.481 -0.3539  1.2491 -1.8072
  745MOL0     H 2796   6.290   3.319   2.058  1.6045 -0.4022  2.2819
  745MOL0     H 2797   6.172   3.191   1.878  1.2135 -0.8263 -0.0778
  745MOL0     H 2798   6.059   3.059   1.744 -1.4185  3.8812 -0.4358
  745MOL0     H 2799   5.963   2.918   1.739  0.5552  1.8263 -2.5533
  745MOL0     H 2800   5.854   3.136   1.682 -0.5846 -0.4109  0.0022
  745MOL0     H 2801   5.871   3.194   1.856 -1.7344 -1.0374  1.7833
  745MOL0     H 2802   5.641   3.099   1.815 -1.0569  0.7895  0.2078
  745MOL0     H 2803   5.728   2.948   1.758 -2.1638 -1.6184  2.2244
  745MOL0     H 2804   5.780   2.878   1.966 -0.2331  0.0698 -0.5937
  745MOL0     H 2805   5.612   2.931   1.957  0.5830 -2.1750 -0.4922
  745MOL0     H 2806   5.704   3.214   2.249  2.2733  0.2619 -0.4656
  745MOL0     H 2807   6.026   2.917   2.172  1.2803 -0.0391  0.4213
  745MOL0     H 2808   6.206   3.006   2.460  2.4161  0.9693 -2.0816
  745MOL0     H 2809   6.061   3.112   2.454  1.5417  1.3863  0.2613
  745MOL0     H 2810   6.058   2.941   2.406 -0.3823  0.8629  0.3664
  746MOL0     O 2811   4.640  10.490   9.913 -0.4118  0.8226 -0.2581
  746MOL0     C 2812   4.698  10.378   9.904  0.6745 -0.4691  1.0845
  746MOL0     O 2813   4.805  10.368   9.827  0.6523 -0.6671 -0.8319
  746MOL0     C 2814   4.845  10.470   9.741  0.7680  0.1581 -0.0963
  746MOL0     C 2815   4.942  10.565   9.780  1.0371  0.0187 -1.1856
  746MOL0     C 2816   4.983  10.670   9.701 -0.7509 -0.9316 -0.9890
  746MOL0     C 2817   4.930  10.685   9.571 -0.1194  0.2556  0.2849
  746MOL0     O 2818   4.951  10.791   9.487 -0.2567  0.4859  0.4339
  746MOL0     C 2819   5.012  10.906   9.545  0.1715  0.4497 -0.4008
  746MOL0     C 2820   5.011  11.025   9.454 -0.4116 -0.0100  0.0690
  746MOL0     C 2821   5.031  11.152   9.527 -0.5886 -0.4157 -0.1574
  746MOL0     C 2822   5.067  11.269   9.436  0.2912 -0.1467 -0.1040
  746MOL0     C 2823   5.103  11.405   9.500  1.1402  0.5028 -0.0649
  746MOL0     C 2824   5.147  11.513   9.397 -0.6984  0.7648  0.2128
  746MOL0     C 2825   5.181  11.642   9.465 -0.1469 -0.0082  0.9782
  746MOL0     C 2826   5.237  11.755   9.367 -0.2201 -1.2218  0.4894
  746MOL0     N 2827   5.272  11.886   9.427  0.2599  0.5627  0.3479
  746MOL0     C 2828   5.382  11.903   9.493 -0.7594  0.5957 -0.5806
  746MOL0     C 2829   5.397  12.043   9.511  0.1495 -0.7161  0.8224
  746MOL0     C 2830   5.524  12.106   9.548 -0.1981  1.2139  0.5636
  746MOL0     C 2831   5.573  12.080   9.690  0.6661  1.5801  0.8231
  746MOL0     C 2832   5.682  12.156   9.748 -0.7570 -0.1734 -0.3352
  746MOL0     C 2833   5.818  12.117   9.681 -0.3625  0.5351  0.7387
  746MOL0     O 2834   5.894  12.229   9.629  0.2994 -0.2842 -0.8630
  746MOL0     C 2835   5.890  12.240   9.497  0.6356 -0.1822 -0.7976
  746MOL0     C 2836   5.808  12.337   9.439 -1.3007 -1.0215  0.2396
  746MOL0     C 2837   5.825  12.354   9.301 -0.2519 -0.7992  0.3379
  746MOL0     C 2838   5.736  12.463   9.259  0.4530 -0.0681  0.7885
  746MOL0     C 2839   5.903  12.279   9.218 -0.7104  0.2287  0.2143
  746MOL0     C 2840   5.927  12.284   9.072  0.1519 -0.6908  0.4383
  746MOL0     O 2841   5.993  12.395   9.024  0.5475 -0.3107 -0.3398
  746MOL0     C 2842   6.031  12.401   8.894 -0.7544  0.2863  0.2628
  746MOL0     C 2843   6.164  12.461   8.880  0.1388 -0.3091  0.1640
  746MOL0     C 2844   6.209  12.497   8.747 -0.0320 -0.3607  0.0533
  746MOL0     C 2845   6.139  12.455   8.638 -0.5471 -0.1434  0.1173
  746MOL0     O 2846   6.183  12.501   8.517  0.3127  0.4264  0.5510
  746MOL0     C 2847   6.103  12.478   8.402  0.5499  0.1317  0.0232
  746MOL0     C 2848   6.179  12.540   8.287  0.4221  0.5152  0.9582
  746MOL0     C 2849   6.115  12.502   8.154 -0.4480 -0.0290 -0.4896
  746MOL0     C 2850   5.987  12.586   8.131  0.4217  0.1439 -0.5923
  746MOL0     C 2851   5.898  12.552   8.006  1.1046 -0.5279 -0.7457
  746MOL0     C 2852   5.974  12.509   7.885  0.4381 -0.3361 -0.3670
  746MOL0     C 2853   5.890  12.479   7.759 -0.7506  0.0122 -0.4645
  746MOL0     C 2854   5.979  12.462   7.638  0.1474 -0.7578  0.0019
  746MOL0    Cl 2855   6.077  12.610   7.604 -0.0133 -0.0934  0.0106
  746MOL0     C 2856   6.018  12.388   8.658  1.1724 -0.4255 -0.4939
  746MOL0     C 2857   5.967  12.361   8.782  0.0589 -1.0057 -0.5434
  746MOL0     O 2858   5.892  12.184   9.006  0.0457  0.1008 -0.7163
  746MOL0     C 2859   5.970  12.168   9.280 -1.1030 -0.0528  0.1102
  746MOL0     C 2860   5.964  12.148   9.416  0.5312 -0.5506 -0.2728
  746MOL0     N 2861   5.289  12.103   9.452 -1.0185  0.0046  0.5268
  746MOL0     N 2862   5.215  12.006   9.396  0.0309 -0.4453  0.1439
  746MOL0     C 2863   4.842  10.582   9.518 -1.3934  0.4337  0.0655
  746MOL0     C 2864   4.805  10.481   9.607 -0.5167 -0.5058 -0.1338
  746MOL0     C 2865   4.636  10.253   9.948 -0.4942  0.4483  0.0685
  746MOL0     C 2866   4.513  10.248  10.004  0.6620 -0.6230 -0.2686
  746MOL0     C 2867   4.471  10.130  10.068 -0.5381  0.4527 -0.1715
  746MOL0     C 2868   4.540  10.011  10.074  0.1764  0.6019  0.4204
  746MOL0     O 2869   4.487   9.899  10.129  0.3302  0.1367  0.4391
  746MOL0     C 2870   4.563   9.773  10.126  0.7457  0.6654 -0.1963
  746MOL0     C 2871   4.471   9.667  10.197 -0.2608 -0.3828  0.6752
  746MOL0     C 2872   4.441   9.708  10.346  0.8777 -0.4130  0.7045
  746MOL0     C 2873   4.415   9.582  10.430  0.3382  1.3888  0.7905
  746MOL0     C 2874   4.275   9.531  10.394  1.1009 -0.3071 -0.8534
  746MOL0     C 2875   4.168   9.499  10.353  0.5336 -0.3148 -0.1921
  746MOL0     C 2876   4.661  10.015  10.007  0.0461  0.5657 -0.8683
  746MOL0     C 2877   4.718  10.130   9.960  0.3712 -0.5769  0.0855
  746MOL0     C 2878   4.855  10.111   9.896  0.4517  0.4482 -0.3480
  746MOL0     H 2879   4.990  10.543   9.874 -1.7620 -3.4288 -0.3396
  746MOL0     H 2880   5.055  10.739   9.744 -1.9006  0.3672 -1.0483
  746MOL0     H 2881   5.111  10.883   9.584  0.0952 -0.1453 -0.5367
  746MOL0     H 2882   4.952  10.942   9.630  0.0878  0.8799 -0.6409
  746MOL0     H 2883   5.086  11.009   9.376  0.0450  1.2973  0.2214
  746MOL0     H 2884   4.920  11.043   9.397  0.9253  0.5389 -1.9773
  746MOL0     H 2885   4.942  11.179   9.584  0.1897 -0.3997  1.0947
  746MOL0     H 2886   5.123  11.143   9.586  0.8338 -0.5539 -2.2684
  746MOL0     H 2887   5.146  11.245   9.365  0.0830 -0.5486 -0.1984
  746MOL0     H 2888   4.979  11.286   9.372 -1.6957  0.5215  2.6177
  746MOL0     H 2889   5.189  11.388   9.566  0.7293 -2.1587 -0.1250
  746MOL0     H 2890   5.028  11.439   9.573 -0.6237  1.3439 -2.1655
  746MOL0     H 2891   5.236  11.475   9.346 -0.7259  0.7459  0.1800
  746MOL0     H 2892   5.071  11.528   9.320  0.2970 -4.0397 -2.0940
  746MOL0     H 2893   5.248  11.623   9.549  0.6341 -2.1400 -0.0314
  746MOL0     H 2894   5.090  11.688   9.503 -1.0920  0.3809 -1.5455
  746MOL0     H 2895   5.330  11.716   9.325 -0.5560 -0.4508 -1.0222
  746MOL0     H 2896   5.173  11.756   9.279 -1.6650  0.1570  1.4959
  746MOL0     H 2897   5.456  11.830   9.525  0.1016  2.5918  2.4534
  746MOL0     H 2898   5.506  12.210   9.522 -1.4230  1.3145  1.6641
  746MOL0     H 2899   5.593  12.064   9.475 -0.9710 -1.1946  1.1132
  746MOL0     H 2900   5.483  12.095   9.751 -0.7194 -3.9433  0.6786
  746MOL0     H 2901   5.587  11.973   9.712 -1.0243  1.5399  1.9020
  746MOL0     H 2902   5.665  12.264   9.747  0.6615  0.0814  0.4065
  746MOL0     H 2903   5.697  12.139   9.855 -1.7562 -2.9591 -0.5520
  746MOL0     H 2904   5.877  12.059   9.753  1.8131 -0.8839 -1.9670
  746MOL0     H 2905   5.790  12.045   9.603 -4.3911  3.0535 -0.4684
  746MOL0     H 2906   5.751  12.405   9.502  0.3806  1.5435 -0.7987
  746MOL0     H 2907   5.750  12.469   9.151  0.4128  0.7441  0.8243
  746MOL0     H 2908   5.767  12.560   9.299 -0.3213  3.1085 -5.1670
  746MOL0     H 2909   5.631  12.446   9.286 -0.2656  1.6177 -0.7572
  746MOL0     H 2910   6.229  12.490   8.961 -0.6494  0.2248  0.6243
  746MOL0     H 2911   6.304  12.548   8.736 -0.3020  0.2828  0.6744
  746MOL0     H 2912   6.104  12.370   8.388  0.6492  0.0432  0.6742
  746MOL0     H 2913   6.000  12.514   8.413  1.0710  1.7623 -0.0739
  746MOL0     H 2914   6.179  12.649   8.295  0.5380  0.5424  0.6243
  746MOL0     H 2915   6.288  12.528   8.283  0.7228  3.0198 -1.1953
  746MOL0     H 2916   6.095  12.395   8.148  0.5389 -0.3976  1.8755
  746MOL0     H 2917   6.184  12.528   8.073 -0.8297 -0.6167 -1.0132
  746MOL0     H 2918   6.009  12.693   8.129  0.7111  0.1614  1.6053
  746MOL0     H 2919   5.916  12.570   8.212 -1.2339 -1.7600 -2.3317
  746MOL0     H 2920   5.842  12.461   8.030 -0.4973 -1.0374 -5.2785
  746MOL0     H 2921   5.828  12.632   7.979  0.5580 -0.5114  0.6386
  746MOL0     H 2922   6.026  12.416   7.912  0.2166  0.1265  1.8862
  746MOL0     H 2923   6.046  12.588   7.863  1.6386 -1.3559 -0.1840
  746MOL0     H 2924   5.810  12.554   7.756 -0.7371  0.2031  1.8422
  746MOL0     H 2925   5.853  12.379   7.784  0.0152 -0.3807 -0.8793
  746MOL0     H 2926   5.919  12.441   7.549  2.0542  0.0417 -1.5527
  746MOL0     H 2927   6.059  12.387   7.638 -0.7129 -1.8197  3.1465
  746MOL0     H 2928   5.961  12.341   8.578 -0.1293 -2.6569  1.6155
  746MOL0     H 2929   5.875  12.305   8.796  0.7829 -2.6276 -1.9706
  746MOL0     H 2930   6.039  12.100   9.230 -0.8287  0.6866 -0.5461
  746MOL0     H 2931   6.025  12.069   9.458  2.5430 -0.5229 -2.8890
  746MOL0     H 2932   4.814  10.589   9.413  1.8969  4.9784 -0.8094
  746MOL0     H 2933   4.723  10.420   9.572 -1.8589  0.2533  1.5213
  746MOL0     H 2934   4.447  10.334  10.002  0.9751 -0.3891 -1.5550
  746MOL0     H 2935   4.366  10.132  10.097 -0.1248 -0.9509  1.5345
  746MOL0     H 2936   4.580   9.741  10.022 -0.2150  0.4711 -0.3029
  746MOL0     H 2937   4.668   9.772  10.155  0.1493 -1.0299  2.2050
  746MOL0     H 2938   4.531   9.576  10.204 -0.5248 -0.4863  1.7186
  746MOL0     H 2939   4.382   9.660  10.134 -0.8734  2.3362  1.1091
  746MOL0     H 2940   4.522   9.764  10.394  1.4535 -0.4768 -0.1759
  746MOL0     H 2941   4.351   9.770  10.345  1.2996  0.2358  1.3935
  746MOL0     H 2942   4.434   9.604  10.535 -0.2609  1.1847  0.9480
  746MOL0     H 2943   4.494   9.511  10.403  2.2000  3.8871 -0.8397
  746MOL0     H 2944   4.067   9.488  10.321  0.2878 -1.2150  0.8404
  746MOL0     H 2945   4.715   9.921  10.002 -1.4053 -0.4290  0.7661
  746MOL0     H 2946   4.928  10.178   9.940  0.8671 -0.6823  0.7246
  746MOL0     H 2947   4.896  10.010   9.905  0.3576  0.3834 -0.6106
  746MOL0     H 2948   4.863  10.133   9.789 -1.4050  0.0129 -0.6188
  747MOL0     O 2949   9.598   8.653   5.398 -0.5383 -0.3907 -0.9327
  747MOL0     C 2950   9.555   8.752   5.462 -0.6694  0.4793  0.2655
  747MOL0     O 2951   9.586   8.787   5.594  0.2562 -0.0114 -0.1861
  747MOL0     C 2952   9.687   8.725   5.664 -0.9929 -0.3272 -0.5478
  747MOL0     C 2953   9.808   8.679   5.607 -0.2957  0.4815  0.5334
  747MOL0     C 2954   9.891   8.600   5.679 -0.5955  0.7486 -0.8013
  747MOL0     C 2955   9.873   8.565   5.818  0.3768 -0.2130  0.2212
  747MOL0     O 2956   9.962   8.498   5.898 -0.1079  0.0838  0.6730
  747MOL0     C 2957  10.012   8.376   5.841 -0.0372  0.6114 -0.1320
  747MOL0     C 2958  10.119   8.314   5.935  0.0697 -0.2306  0.6599
  747MOL0     C 2959  10.051   8.253   6.058  0.4988 -0.9535  0.4966
  747MOL0     C 2960  10.153   8.165   6.131 -0.4473  0.0382 -0.4370
  747MOL0     C 2961  10.091   8.095   6.250  0.4786 -0.3250  0.2897
  747MOL0     C 2962  10.085   8.182   6.376 -0.3061 -0.4493 -0.1527
  747MOL0     C 2963   9.973   8.159   6.483  0.0242  0.5654  0.8780
  747MOL0     C 2964   9.988   8.022   6.533 -0.3879  0.3632  0.6441
  747MOL0     N 2965   9.868   7.988   6.609  1.1363  0.6992 -0.1336
  747MOL0     C 2966   9.858   7.970   6.743  0.3364  0.4499 -0.9001
  747MOL0     C 2967   9.742   7.898   6.774  0.0858 -0.7362 -0.1406
  747MOL0     C 2968   9.669   7.853   6.893  0.6124  0.1848  0.4527
  747MOL0     C 2969   9.756   7.813   7.017 -0.8591 -1.2864  0.2959
  747MOL0     C 2970   9.676   7.722   7.115  1.7133 -0.2037 -0.1361
  747MOL0     C 2971   9.566   7.815   7.177  0.3993  0.0227 -1.2059
  747MOL0     O 2972   9.604   7.946   7.215  0.3650  0.9153  0.0949
  747MOL0     C 2973   9.651   7.947   7.342  0.5703  0.6804  0.2115
  747MOL0     C 2974   9.568   7.999   7.440  0.2650  0.6077 -0.5069
  747MOL0     C 2975   9.607   8.002   7.578 -1.2712  0.0052  0.8440
  747MOL0     C 2976   9.514   8.048   7.678 -0.0048  0.5897 -0.0265
  747MOL0     C 2977   9.733   7.955   7.609 -0.6464 -0.1889  0.6381
  747MOL0     C 2978   9.795   7.960   7.742  0.4434  0.8366  1.0477
  747MOL0     O 2979   9.744   8.056   7.826  0.1033 -0.3409 -0.7720
  747MOL0     C 2980   9.795   8.066   7.949 -1.1732 -0.1752  0.0295
  747MOL0     C 2981   9.803   7.961   8.046 -0.7580  0.0490  0.5929
  747MOL0     C 2982   9.850   7.978   8.178  0.0945  0.0836 -0.2560
  747MOL0     C 2983   9.913   8.097   8.206 -0.0745  0.1193 -0.3851
  747MOL0     O 2984   9.963   8.125   8.331 -0.7517  0.5820 -0.4550
  747MOL0     C 2985  10.084   8.040   8.357  0.5529  0.0418 -0.6641
  747MOL0     C 2986  10.182   8.111   8.453  0.6667  0.2873  0.3375
  747MOL0     C 2987  10.295   8.025   8.498 -0.8331 -0.6428  0.5343
  747MOL0     C 2988  10.410   8.125   8.555  0.5669  0.2917 -0.3444
  747MOL0     C 2989  10.521   8.048   8.628  0.4177 -1.1363  0.2284
  747MOL0     C 2990  10.468   7.931   8.716 -1.8609  0.0568 -0.5169
  747MOL0     C 2991  10.579   7.911   8.819  0.8369  0.1599 -0.8981
  747MOL0     C 2992  10.563   7.773   8.890  0.6950  0.2533 -0.5970
  747MOL0    Cl 2993  10.728   7.723   8.963  0.0270 -0.5032 -0.6602
  747MOL0     C 2994   9.917   8.197   8.112  0.2008  0.3188 -0.8785
  747MOL0     C 2995   9.868   8.183   7.980 -0.4284  0.4004 -0.2436
  747MOL0     O 2996   9.869   7.865   7.773  0.1244 -0.3033 -0.3359
  747MOL0     C 2997   9.815   7.898   7.509  0.3997 -0.7318 -0.8361
  747MOL0     C 2998   9.777   7.887   7.374 -0.1269 -0.8761  0.5410
  747MOL0     N 2999   9.697   7.865   6.643  0.3575  0.0855  0.4290
  747MOL0     N 3000   9.765   7.922   6.551  0.3856 -0.0938 -0.0749
  747MOL0     C 3001   9.744   8.603   5.874  0.4426 -0.1341  0.1581
  747MOL0     C 3002   9.658   8.677   5.794  0.2529 -0.4646  0.2831
  747MOL0     C 3003   9.453   8.841   5.396  0.0010 -0.5161 -0.1461
  747MOL0     C 3004   9.401   8.953   5.464 -0.4452 -1.0018  1.2662
  747MOL0     C 3005   9.299   9.026   5.416 -0.5428 -0.3658  0.4971
  747MOL0     C 3006   9.231   8.997   5.300 -0.4025  0.5280 -0.1597
  747MOL0     O 3007   9.140   9.080   5.233  0.5547  0.0000 -0.8616
  747MOL0     C 3008   9.082   9.186   5.307 -0.1475 -1.0137  0.4063
  747MOL0     C 3009   8.979   9.251   5.221  0.3584 -0.0065  0.0493
  747MOL0     C 3010   8.868   9.149   5.190  0.2481  0.6433  0.3511
  747MOL0     C 3011   8.758   9.236   5.113  0.5029 -0.4495 -0.7555
  747MOL0     C 3012   8.630   9.166   5.096 -0.2237  0.6677  0.1065
  747MOL0     C 3013   8.533   9.101   5.081 -0.3117 -0.1959 -1.1434
  747MOL0     C 3014   9.274   8.882   5.232 -0.0126 -0.9262  0.0268
  747MOL0     C 3015   9.378   8.799   5.274  0.6463  0.0509 -1.2818
  747MOL0     C 3016   9.426   8.704   5.172 -0.0388  0.7878 -0.2323
  747MOL0     H 3017   9.834   8.683   5.502 -1.7359 -0.2684  0.1143
  747MOL0     H 3018   9.967   8.542   5.628 -1.2842 -0.9517  0.0248
  747MOL0     H 3019  10.060   8.386   5.744  0.9702  1.3774  0.4395
  747MOL0     H 3020   9.932   8.300   5.841  1.6426 -1.2872  1.4604
  747MOL0     H 3021  10.149   8.224   5.880 -1.0874 -0.3478  0.1942
  747MOL0     H 3022  10.200   8.385   5.956  3.0716 -1.4126 -4.9198
  747MOL0     H 3023  10.021   8.331   6.127 -0.6177 -1.6815  0.8676
  747MOL0     H 3024   9.968   8.187   6.030  0.3297  0.2088 -2.0258
  747MOL0     H 3025  10.214   8.102   6.065  1.3717  0.9186  0.3036
  747MOL0     H 3026  10.221   8.239   6.175 -0.0716 -0.3293 -0.3947
  747MOL0     H 3027  10.163   8.018   6.277 -0.0687  0.0109  2.9698
  747MOL0     H 3028   9.993   8.054   6.224 -0.0374  0.0167  1.6126
  747MOL0     H 3029  10.183   8.170   6.425  0.0829 -1.8174 -1.1969
  747MOL0     H 3030  10.063   8.285   6.345  1.1481 -0.5392 -1.6540
  747MOL0     H 3031   9.876   8.155   6.433  1.1573  1.0597 -1.5001
  747MOL0     H 3032   9.969   8.236   6.560 -0.6414  2.4528 -0.9698
  747MOL0     H 3033   9.991   7.952   6.449 -1.8800 -0.5744  1.3348
  747MOL0     H 3034  10.080   8.007   6.592  1.4154  3.0440 -1.2478
  747MOL0     H 3035   9.926   8.013   6.816 -0.2813  1.3523 -0.8404
  747MOL0     H 3036   9.615   7.766   6.856  2.8205 -0.9837 -0.2173
  747MOL0     H 3037   9.608   7.938   6.923 -3.1337 -2.1999  0.1887
  747MOL0     H 3038   9.844   7.757   6.986  2.0998 -0.1933  5.4753
  747MOL0     H 3039   9.792   7.902   7.069 -2.1240  0.1758 -1.2179
  747MOL0     H 3040   9.624   7.634   7.075  2.4488  0.1564 -1.9720
  747MOL0     H 3041   9.748   7.680   7.185  3.2526 -0.0950 -1.5986
  747MOL0     H 3042   9.489   7.832   7.102 -2.8440  0.7043  1.9813
  747MOL0     H 3043   9.510   7.769   7.260 -0.4249  0.0553 -1.7393
  747MOL0     H 3044   9.469   8.028   7.406  0.3531 -2.0765 -3.6531
  747MOL0     H 3045   9.543   8.147   7.715  0.9455  1.0995 -1.9973
  747MOL0     H 3046   9.514   7.979   7.763 -1.2119  0.8961  0.2534
  747MOL0     H 3047   9.411   8.065   7.644 -0.1634  1.8848  0.9873
  747MOL0     H 3048   9.759   7.867   8.015  0.3047 -1.3036  2.9283
  747MOL0     H 3049   9.851   7.889   8.240  1.1950 -0.4582 -1.0033
  747MOL0     H 3050  10.032   7.959   8.409 -2.3869  1.5530 -0.9908
  747MOL0     H 3051  10.137   8.009   8.267 -0.4074 -0.6887 -0.9882
  747MOL0     H 3052  10.218   8.194   8.391  0.4145  0.4467  0.4040
  747MOL0     H 3053  10.134   8.166   8.534 -0.1339  1.7131 -1.0423
  747MOL0     H 3054  10.343   7.977   8.413 -0.2550  1.5467 -0.4410
  747MOL0     H 3055  10.257   7.948   8.566  0.6716 -2.0619 -0.1676
  747MOL0     H 3056  10.366   8.198   8.623  1.7962  0.7292  0.0218
  747MOL0     H 3057  10.453   8.181   8.471 -0.9924  2.4555  0.1983
  747MOL0     H 3058  10.584   8.003   8.551 -0.0663  2.2337 -2.3440
  747MOL0     H 3059  10.591   8.117   8.678  1.1815 -1.0292 -0.9489
  747MOL0     H 3060  10.457   7.841   8.653  1.4214 -0.0642 -1.1337
  747MOL0     H 3061  10.374   7.952   8.766 -1.1183 -1.8762  1.8798
  747MOL0     H 3062  10.595   7.987   8.896 -0.5978 -2.4223  2.2204
  747MOL0     H 3063  10.680   7.892   8.783  1.1142  3.0901 -1.9128
  747MOL0     H 3064  10.537   7.697   8.816 -0.3930  2.5227 -2.6869
  747MOL0     H 3065  10.476   7.777   8.956  1.0229 -1.4383 -0.0091
  747MOL0     H 3066   9.952   8.293   8.148 -0.0002  0.1423 -0.2139
  747MOL0     H 3067   9.881   8.264   7.910 -0.8467  1.7733  1.2127
  747MOL0     H 3068   9.909   7.850   7.534  0.0814  0.2192  2.7374
  747MOL0     H 3069   9.843   7.836   7.305 -1.9615 -2.9402  0.2248
  747MOL0     H 3070   9.728   8.569   5.975  3.0533 -0.5509  0.5001
  747MOL0     H 3071   9.557   8.680   5.831 -1.4832 -0.9915 -3.8156
  747MOL0     H 3072   9.452   8.983   5.555  0.5270 -0.8067  0.6716
  747MOL0     H 3073   9.285   9.119   5.470 -0.5536  0.5107 -0.9354
  747MOL0     H 3074   9.046   9.155   5.406  2.0115  0.9710  1.9474
  747MOL0     H 3075   9.154   9.266   5.324 -0.2320 -0.6769 -0.7726
  747MOL0     H 3076   9.014   9.290   5.125 -0.1761  1.2898  0.3554
  747MOL0     H 3077   8.932   9.338   5.268  1.5756  0.2882  0.7637
  747MOL0     H 3078   8.901   9.080   5.111 -0.0632  1.4044 -0.4567
  747MOL0     H 3079   8.826   9.098   5.277  1.6980 -0.1488  0.6256
  747MOL0     H 3080   8.789   9.239   5.008  0.5656  0.8536 -0.7160
  747MOL0     H 3081   8.749   9.336   5.157  5.0855  0.3924 -1.2924
  747MOL0     H 3082   8.437   9.061   5.108 -0.2586  0.3110 -0.1258
  747MOL0     H 3083   9.228   8.889   5.134 -2.3744 -1.3005  1.0434
  747MOL0     H 3084   9.514   8.732   5.113 -2.9319  4.5928 -3.3244
  747MOL0     H 3085   9.433   8.608   5.224  0.5725 -0.0737 -1.8385
  747MOL0     H 3086   9.349   8.690   5.095  0.0908  1.7942 -0.5608
  748MOL0     O 3087   8.091  10.278   0.008  0.0617  0.5406  0.8730
  748MOL0     C 3088   7.980  10.273   0.049  1.2120 -0.8016  0.6801
  748MOL0     O 3089   7.893  10.174   0.038  0.2266  0.4141  0.7891
  748MOL0     C 3090   7.926  10.051  -0.020  1.0730  1.0906  0.2184
  748MOL0     C 3091   7.825   9.982  -0.083 -0.6060 -0.4766  0.4897
  748MOL0     C 3092   7.852   9.864  -0.158 -0.6392 -1.3567 -0.0240
  748MOL0     C 3093   7.970   9.797  -0.136  0.1692  0.1590 -1.2261
  748MOL0     O 3094   7.999   9.691  -0.206 -0.0009  0.5422 -0.7361
  748MOL0     C 3095   7.909   9.584  -0.171  0.0707 -0.4768  0.0688
  748MOL0     C 3096   7.961   9.468  -0.253  0.1599 -0.1593 -0.0834
  748MOL0     C 3097   8.087   9.393  -0.206  0.6904 -0.3460 -0.3016
  748MOL0     C 3098   8.127   9.275  -0.301 -0.0206 -0.1214  1.0788
  748MOL0     C 3099   8.231   9.166  -0.242  0.3018  0.1539  0.5055
  748MOL0     C 3100   8.266   9.039  -0.328 -0.0288  0.3347 -0.4022
  748MOL0     C 3101   8.409   8.987  -0.287 -0.8090  0.7741  0.4427
  748MOL0     C 3102   8.449   8.870  -0.374 -0.3762  0.0823 -0.8070
  748MOL0     N 3103   8.406   8.754  -0.291 -0.0088 -0.2787 -0.8825
  748MOL0     C 3104   8.491   8.698  -0.196 -0.6637  0.0142  0.8385
  748MOL0     C 3105   8.430   8.580  -0.174 -0.4600 -0.7688 -0.6107
  748MOL0     C 3106   8.465   8.484  -0.063 -0.0931  1.4688 -0.9729
  748MOL0     C 3107   8.547   8.357  -0.103  0.0430 -0.4267  0.4696
  748MOL0     C 3108   8.640   8.324   0.017  0.4027 -0.1918 -0.0412
  748MOL0     C 3109   8.700   8.190  -0.006  0.8247  0.8482 -0.3340
  748MOL0     O 3110   8.772   8.158   0.116 -0.0004  0.3495  0.0633
  748MOL0     C 3111   8.803   8.029   0.159 -0.6207 -0.5479  0.2257
  748MOL0     C 3112   8.882   8.015   0.268 -0.8960 -0.6765  0.2824
  748MOL0     C 3113   8.923   7.891   0.323 -0.1002  0.1644 -0.9784
  748MOL0     C 3114   8.982   7.880   0.459 -0.6567  0.2413  0.3864
  748MOL0     C 3115   8.878   7.766   0.255 -0.8197  0.2503  0.3039
  748MOL0     C 3116   8.883   7.625   0.309 -0.2268  0.0232 -2.0656
  748MOL0     O 3117   8.820   7.526   0.234  0.7666 -0.8658 -0.1994
  748MOL0     C 3118   8.835   7.393   0.254 -1.0050  0.9162  0.1006
  748MOL0     C 3119   8.901   7.337   0.362 -0.1237  1.2882  0.6138
  748MOL0     C 3120   8.905   7.195   0.383  0.3511  0.2862  0.4370
  748MOL0     C 3121   8.825   7.105   0.300  0.0716  0.2127  0.0313
  748MOL0     O 3122   8.802   6.970   0.319 -0.5041  0.0069  0.0009
  748MOL0     C 3123   8.805   6.938   0.455  0.1775  0.0098 -0.4159
  748MOL0     C 3124   8.729   6.809   0.477  0.7698  0.2512  1.0915
  748MOL0     C 3125   8.586   6.819   0.417  0.2155 -0.5508 -0.5100
  748MOL0     C 3126   8.516   6.683   0.429  0.3736 -0.4084 -0.6339
  748MOL0     C 3127   8.404   6.656   0.327 -0.7516  0.1089 -0.5765
  748MOL0     C 3128   8.456   6.581   0.200  0.2055  0.2276 -0.1188
  748MOL0     C 3129   8.343   6.566   0.091 -0.4882 -0.0420  0.9056
  748MOL0     C 3130   8.343   6.669  -0.020 -0.0159  0.3978  0.5909
  748MOL0    Cl 3131   8.505   6.670  -0.106 -0.5493 -0.0345 -0.1026
  748MOL0     C 3132   8.767   7.164   0.194  0.9878 -0.3203  0.0452
  748MOL0     C 3133   8.775   7.304   0.170  0.7359  0.2085  0.4450
  748MOL0     O 3134   8.935   7.610   0.420  0.0128 -0.0368 -0.2110
  748MOL0     C 3135   8.805   7.785   0.132  0.2576 -0.1054 -0.6234
  748MOL0     C 3136   8.774   7.918   0.086 -0.1389 -0.1424  0.3497
  748MOL0     N 3137   8.309   8.571  -0.241  0.4212 -0.0860  0.5777
  748MOL0     N 3138   8.298   8.676  -0.317  0.5392 -0.0379  0.1289
  748MOL0     C 3139   8.069   9.855  -0.058 -0.5708 -0.4085 -0.2563
  748MOL0     C 3140   8.049   9.986  -0.005  1.3280 -0.9498 -0.0722
  748MOL0     C 3141   7.930  10.417   0.086 -0.4314  0.4685  0.5267
  748MOL0     C 3142   8.021  10.509   0.150  0.5229  1.0923 -0.2255
  748MOL0     C 3143   7.980  10.637   0.183  0.1074  0.9234 -1.1617
  748MOL0     C 3144   7.851  10.681   0.168  0.9500 -0.3356 -0.4039
  748MOL0     O 3145   7.792  10.790   0.227  0.3680  0.3668  0.7327
  748MOL0     C 3146   7.875  10.909   0.210  0.3121  0.0167  0.5260
  748MOL0     C 3147   7.830  11.006   0.306  0.3674 -1.0750 -0.0444
  748MOL0     C 3148   7.883  10.984   0.451 -0.4052  0.2019  0.1889
  748MOL0     C 3149   7.843  11.091   0.547 -0.3244  0.2352 -0.9349
  748MOL0     C 3150   7.900  11.214   0.505 -0.0774 -0.6614 -0.4051
  748MOL0     C 3151   7.952  11.316   0.450 -0.1794  0.1842  0.2999
  748MOL0     C 3152   7.762  10.591   0.112 -0.4144 -0.8793  0.8935
  748MOL0     C 3153   7.799  10.463   0.060  0.6151 -0.9174 -0.1868
  748MOL0     C 3154   7.686  10.383  -0.009 -0.0071  0.5900  0.4972
  748MOL0     H 3155   7.729  10.032  -0.098  1.7321  3.8154 -2.3713
  748MOL0     H 3156   7.773   9.817  -0.217  1.0613 -2.3440 -1.6195
  748MOL0     H 3157   7.810   9.623  -0.195  0.6346  1.5055  0.8219
  748MOL0     H 3158   7.904   9.568  -0.063 -1.3479  1.1566  0.2906
  748MOL0     H 3159   7.883   9.391  -0.251  2.4373 -2.6059  1.6412
  748MOL0     H 3160   7.967   9.491  -0.360  1.9299 -0.7095 -0.1339
  748MOL0     H 3161   8.168   9.466  -0.194  0.8859 -0.3666 -1.3871
  748MOL0     H 3162   8.086   9.348  -0.107 -1.7023 -3.5001 -1.5901
  748MOL0     H 3163   8.038   9.225  -0.339  0.6826  0.2022 -1.1328
  748MOL0     H 3164   8.158   9.319  -0.396 -2.1355  0.9335  0.8346
  748MOL0     H 3165   8.183   9.123  -0.154 -1.8498 -1.8003 -1.4935
  748MOL0     H 3166   8.327   9.213  -0.218  0.8191 -1.9455  2.8771
  748MOL0     H 3167   8.183   8.968  -0.323 -0.4681  0.8606 -0.1922
  748MOL0     H 3168   8.261   9.070  -0.433  0.4971 -2.6271 -1.3959
  748MOL0     H 3169   8.406   8.955  -0.182 -4.4324  0.5415  0.4194
  748MOL0     H 3170   8.485   9.065  -0.292  3.9631 -3.2245  1.7747
  748MOL0     H 3171   8.399   8.862  -0.471  1.6232  0.6556 -1.9394
  748MOL0     H 3172   8.555   8.857  -0.395 -0.5191 -3.3615  0.1100
  748MOL0     H 3173   8.574   8.741  -0.141  2.3315 -1.0359 -2.5169
  748MOL0     H 3174   8.365   8.450  -0.032 -2.0373  6.1703 -1.1799
  748MOL0     H 3175   8.508   8.535   0.024  2.0945 -0.8403 -0.5868
  748MOL0     H 3176   8.478   8.272  -0.109 -0.1233 -0.1848 -2.4070
  748MOL0     H 3177   8.598   8.375  -0.198  0.7959 -0.8696  0.7832
  748MOL0     H 3178   8.717   8.400   0.024  1.8092 -1.3232 -2.1249
  748MOL0     H 3179   8.584   8.322   0.112  1.6096 -1.9600  0.6757
  748MOL0     H 3180   8.626   8.111  -0.019  2.1233 -0.1846 -1.9671
  748MOL0     H 3181   8.753   8.203  -0.101 -3.1432  1.0379 -2.7530
  748MOL0     H 3182   8.920   8.097   0.328  0.7558 -1.1856 -0.0142
  748MOL0     H 3183   8.907   7.841   0.528 -1.9200 -2.4705 -2.2879
  748MOL0     H 3184   9.007   7.982   0.489 -0.6087  0.9547 -1.9143
  748MOL0     H 3185   9.079   7.829   0.458 -0.4096  0.6542 -2.0455
  748MOL0     H 3186   8.949   7.392   0.442  0.8552  3.5035 -1.3772
  748MOL0     H 3187   8.956   7.169   0.475  2.8766 -1.4409 -1.3146
  748MOL0     H 3188   8.904   6.942   0.501 -0.1410  2.2031  0.1905
  748MOL0     H 3189   8.746   7.016   0.505 -1.9065 -1.8792  0.2395
  748MOL0     H 3190   8.785   6.734   0.421 -0.0147  0.0317  0.5776
  748MOL0     H 3191   8.719   6.786   0.584  2.3041 -1.2711  0.9512
  748MOL0     H 3192   8.595   6.853   0.313  0.0399  0.6050 -0.1605
  748MOL0     H 3193   8.523   6.890   0.471 -0.8090 -1.9843  0.2138
  748MOL0     H 3194   8.462   6.674   0.524 -0.3484 -1.0268 -1.0913
  748MOL0     H 3195   8.581   6.596   0.436 -2.0689 -2.2278  1.4832
  748MOL0     H 3196   8.331   6.602   0.388 -1.6258  2.2973  0.4490
  748MOL0     H 3197   8.367   6.758   0.310 -1.6462  0.0777  0.9783
  748MOL0     H 3198   8.482   6.484   0.244 -2.4978  0.7831  3.1497
  748MOL0     H 3199   8.541   6.642   0.168  2.9856 -1.8731  2.6876
  748MOL0     H 3200   8.246   6.578   0.140 -1.4286  2.0316 -1.2592
  748MOL0     H 3201   8.348   6.466   0.047 -0.4131  0.5684 -0.5209
  748MOL0     H 3202   8.316   6.761   0.032 -0.9967 -0.4355  1.6121
  748MOL0     H 3203   8.269   6.656  -0.099  2.6993 -2.3267 -1.7936
  748MOL0     H 3204   8.717   7.086   0.137 -1.7171  1.3850 -0.0996
  748MOL0     H 3205   8.718   7.332   0.082 -1.3607 -3.5626  0.3799
  748MOL0     H 3206   8.785   7.701   0.066 -2.2605 -1.4874  1.6704
  748MOL0     H 3207   8.714   7.927  -0.005  0.7036  3.5981  0.0030
  748MOL0     H 3208   8.161   9.797  -0.049 -0.0694  0.1240 -1.6333
  748MOL0     H 3209   8.133  10.039   0.039 -0.2235  3.3352 -1.6978
  748MOL0     H 3210   8.122  10.474   0.166 -0.5415 -3.4740 -2.0280
  748MOL0     H 3211   8.044  10.705   0.239 -0.3677 -0.8583  1.7479
  748MOL0     H 3212   7.984  10.899   0.214  0.2874 -0.1517  0.8072
  748MOL0     H 3213   7.838  10.965   0.124 -0.4708  1.2238  1.6076
  748MOL0     H 3214   7.721  11.010   0.308  0.3491 -0.5457  2.6679
  748MOL0     H 3215   7.873  11.102   0.275  1.7715 -1.1047  1.6310
  748MOL0     H 3216   7.834  10.892   0.485 -1.4427 -0.0282 -1.7759
  748MOL0     H 3217   7.992  10.985   0.455 -0.4223  1.6855  1.8112
  748MOL0     H 3218   7.870  11.082   0.653 -0.4032  3.5348 -0.5326
  748MOL0     H 3219   7.734  11.087   0.556 -0.3226  0.9303 -0.5025
  748MOL0     H 3220   7.979  11.407   0.400 -1.3361  1.0648  1.2057
  748MOL0     H 3221   7.655  10.610   0.112 -0.3142  0.6206 -2.8980
  748MOL0     H 3222   7.703  10.290  -0.064 -3.1867  0.2906 -0.2006
  748MOL0     H 3223   7.603  10.372   0.062  0.1456  1.1130  0.7585
  748MOL0     H 3224   7.639  10.446  -0.086 -1.8499  0.5358  1.5069
  749MOL0     O 3225  11.442  10.178  10.229  0.2276 -0.2754 -0.3189
  749MOL0     C 3226  11.385  10.203  10.124 -0.9116 -0.4857  0.1800
  749MOL0     O 3227  11.290  10.297  10.108 -0.0920 -0.0673 -0.0454
  749MOL0     C 3228  11.258  10.361  10.222  0.7549  0.7754 -0.4853
  749MOL0     C 3229  11.281  10.497  10.231 -0.4638  0.4948  0.2649
  749MOL0     C 3230  11.247  10.565  10.345  0.4925  0.4457 -0.4727
  749MOL0     C 3231  11.178  10.500  10.451  0.9027  0.7962 -0.5357
  749MOL0     O 3232  11.173  10.572  10.572  0.3761 -0.3901 -0.5071
  749MOL0     C 3233  11.264  10.519  10.669 -0.5161 -1.4348 -0.1325
  749MOL0     C 3234  11.275  10.603  10.807 -0.5353 -0.5194  0.9628
  749MOL0     C 3235  11.381  10.533  10.892 -1.3577 -0.0062  0.3039
  749MOL0     C 3236  11.317  10.444  10.996  0.1032  0.8006  0.2722
  749MOL0     C 3237  11.420  10.353  11.070 -0.1178 -0.0299  0.2895
  749MOL0     C 3238  11.335  10.236  11.126 -0.2342  0.7284 -0.5589
  749MOL0     C 3239  11.417  10.161  11.238  0.8443  0.4468  0.4366
  749MOL0     C 3240  11.341  10.050  11.301  0.9469  0.1280 -0.1012
  749MOL0     N 3241  11.231  10.082  11.400  0.4088  0.2469  0.3025
  749MOL0     C 3242  11.105  10.044  11.366  0.0955 -0.3694 -0.0298
  749MOL0     C 3243  11.031  10.081  11.470 -0.7279 -0.5972  0.3732
  749MOL0     C 3244  10.883  10.094  11.469  0.3080 -0.3418 -0.2407
  749MOL0     C 3245  10.828  10.196  11.362  0.4925  1.3879 -0.0719
  749MOL0     C 3246  10.895  10.326  11.354  0.0084  0.6630 -0.0584
  749MOL0     C 3247  10.904  10.402  11.484 -0.7047  0.4595 -0.7047
  749MOL0     O 3248  10.945  10.535  11.457 -0.6645 -0.2172  0.1142
  749MOL0     C 3249  11.078  10.569  11.433 -0.0249  1.4516  0.1987
  749MOL0     C 3250  11.101  10.705  11.402 -0.8919 -0.2699  0.2499
  749MOL0     C 3251  11.233  10.744  11.377 -0.5595 -1.2923 -0.2016
  749MOL0     C 3252  11.239  10.891  11.333 -0.2927  0.4788  0.0650
  749MOL0     C 3253  11.345  10.673  11.395  0.0604 -0.8202  1.0566
  749MOL0     C 3254  11.482  10.713  11.362 -0.6900 -0.1921  0.0381
  749MOL0     O 3255  11.520  10.845  11.342  0.1085 -0.4606 -0.3340
  749MOL0     C 3256  11.624  10.870  11.254  0.9142  0.1163  0.0039
  749MOL0     C 3257  11.698  10.983  11.274  1.2387 -0.4341  1.1773
  749MOL0     C 3258  11.787  11.031  11.177 -0.5755  0.0403 -0.6040
  749MOL0     C 3259  11.802  10.965  11.061  0.5556 -0.5076 -1.1234
  749MOL0     O 3260  11.888  11.019  10.965 -0.1891  0.2608  0.2760
  749MOL0     C 3261  11.826  11.061  10.846  0.9205  0.4008 -0.1270
  749MOL0     C 3262  11.903  11.178  10.785  0.0765 -0.0246  0.5187
  749MOL0     C 3263  11.813  11.258  10.693 -0.2833  0.3247  0.5464
  749MOL0     C 3264  11.884  11.367  10.621  0.1090  0.4492 -0.3356
  749MOL0     C 3265  11.795  11.435  10.517  0.9187  0.0788 -0.3915
  749MOL0     C 3266  11.658  11.493  10.559  0.9891 -0.4097  0.0213
  749MOL0     C 3267  11.590  11.574  10.445 -0.2574 -0.1464  0.1483
  749MOL0     C 3268  11.490  11.678  10.490 -0.0361 -0.4475 -0.4093
  749MOL0    Cl 3269  11.344  11.595  10.524  0.2427  0.1309 -0.1677
  749MOL0     C 3270  11.729  10.845  11.044 -0.8747 -0.4744 -0.1402
  749MOL0     C 3271  11.645  10.792  11.141  0.7871  0.8228 -0.7982
  749MOL0     O 3272  11.564  10.627  11.353  0.2739  0.1943  1.1574
  749MOL0     C 3273  11.314  10.539  11.433 -0.4373  0.8581 -0.0619
  749MOL0     C 3274  11.188  10.485  11.454  0.2050  0.4102  0.6019
  749MOL0     N 3275  11.119  10.124  11.573 -0.2933  0.5450  0.5479
  749MOL0     N 3276  11.241  10.131  11.530 -0.4138  0.0991  0.5468
  749MOL0     C 3277  11.145  10.361  10.439  1.1053 -0.3678 -0.0356
  749MOL0     C 3278  11.188  10.293  10.326  1.5294  0.0856  0.4396
  749MOL0     C 3279  11.400  10.107  10.008 -0.2927 -0.7525  1.3229
  749MOL0     C 3280  11.402  10.155   9.871 -0.6354  0.3348 -0.5619
  749MOL0     C 3281  11.411  10.071   9.759  1.0380 -0.5207  0.2435
  749MOL0     C 3282  11.415   9.935   9.781 -0.8757  0.6313  0.2006
  749MOL0     O 3283  11.421   9.865   9.661  0.9662 -0.4419 -0.5386
  749MOL0     C 3284  11.446   9.730   9.652 -0.1752  0.1605  0.3988
  749MOL0     C 3285  11.589   9.707   9.691 -1.0228  0.4854 -0.2730
  749MOL0     C 3286  11.671   9.580   9.633 -0.4993 -0.0138 -0.2670
  749MOL0     C 3287  11.619   9.451   9.708  0.6034  0.5598 -0.7522
  749MOL0     C 3288  11.695   9.341   9.648  1.4882 -0.2437 -0.2614
  749MOL0     C 3289  11.758   9.258   9.600  0.6561 -0.0996 -0.6065
  749MOL0     C 3290  11.408   9.883   9.912  1.1036 -1.0577 -0.3991
  749MOL0     C 3291  11.393   9.966  10.019  0.6032  0.2043 -0.6344
  749MOL0     C 3292  11.369   9.895  10.162  0.6241  0.1032  0.1861
  749MOL0     H 3293  11.327  10.548  10.147 -0.9308  0.6392  0.0940
  749MOL0     H 3294  11.277  10.669  10.357  3.6828 -0.4940  0.5080
  749MOL0     H 3295  11.365  10.515  10.629 -0.0946 -0.6961  0.8126
  749MOL0     H 3296  11.225  10.417  10.680 -1.7546 -1.2201 -2.0258
  749MOL0     H 3297  11.297  10.709  10.787 -0.4795 -0.8608 -1.0132
  749MOL0     H 3298  11.183  10.602  10.866 -1.6003  0.8356 -0.5721
  749MOL0     H 3299  11.449  10.487  10.820 -1.7344  3.2651 -2.3894
  749MOL0     H 3300  11.436  10.617  10.934 -0.8535  0.4978 -1.2785
  749MOL0     H 3301  11.249  10.502  11.059 -0.4857  0.0338  0.3524
  749MOL0     H 3302  11.246  10.379  10.945 -1.2009  0.5360  2.3075
  749MOL0     H 3303  11.478  10.419  11.135  1.4807  2.8594 -3.6887
  749MOL0     H 3304  11.486  10.316  10.990  0.6486 -0.3353  1.0496
  749MOL0     H 3305  11.244  10.271  11.177 -2.3563 -0.1396 -3.4622
  749MOL0     H 3306  11.303  10.174  11.042 -2.6942  3.3620 -1.7457
  749MOL0     H 3307  11.432  10.234  11.319  2.5498  0.0168  0.5404
  749MOL0     H 3308  11.521  10.136  11.219  1.1650  0.0068  2.4917
  749MOL0     H 3309  11.292  10.006  11.213  1.4536  0.9044 -0.7910
  749MOL0     H 3310  11.412   9.972  11.332  0.1170 -0.7654 -0.3880
  749MOL0     H 3311  11.063  10.013  11.271  0.8891  0.7238 -0.7663
  749MOL0     H 3312  10.862  10.128  11.571  0.7525 -0.1223 -0.2202
  749MOL0     H 3313  10.835   9.997  11.457 -1.2468  0.5443 -1.5831
  749MOL0     H 3314  10.837  10.151  11.263  0.1249  0.9285  0.0998
  749MOL0     H 3315  10.720  10.207  11.379 -0.3864 -2.7164 -1.8054
  749MOL0     H 3316  10.989  10.326  11.298  0.2365 -3.6454  0.0143
  749MOL0     H 3317  10.838  10.389  11.285  2.2914  2.9362 -0.0401
  749MOL0     H 3318  10.812  10.402  11.544 -2.9376  2.3731 -3.7770
  749MOL0     H 3319  10.987  10.356  11.538 -1.1082  1.4818  0.8570
  749MOL0     H 3320  11.018  10.774  11.397  1.8354  3.1975 -1.2609
  749MOL0     H 3321  11.302  10.888  11.244 -2.9349 -3.2621 -1.9511
  749MOL0     H 3322  11.277  10.958  11.411 -3.0770  2.4606 -0.1101
  749MOL0     H 3323  11.138  10.924  11.305 -1.7278  0.4037  4.3059
  749MOL0     H 3324  11.670  11.048  11.357 -0.0392  1.5438 -0.7074
  749MOL0     H 3325  11.831  11.129  11.190  3.0467 -1.5824  0.4612
  749MOL0     H 3326  11.809  10.976  10.781 -2.0810 -1.2947  2.5762
  749MOL0     H 3327  11.729  11.101  10.876  0.4213 -0.0454 -1.1059
  749MOL0     H 3328  11.930  11.248  10.865  1.5048 -2.1456  1.9877
  749MOL0     H 3329  11.994  11.137  10.740  0.6468 -0.1608  1.7620
  749MOL0     H 3330  11.729  11.293  10.753 -1.4048 -1.8892  0.3596
  749MOL0     H 3331  11.774  11.190  10.616  3.8235  0.0734 -1.5559
  749MOL0     H 3332  11.968  11.320  10.569 -1.6540  0.6752 -3.6340
  749MOL0     H 3333  11.922  11.437  10.696  0.6867 -1.3620  1.1535
  749MOL0     H 3334  11.861  11.518  10.490  0.0381  0.8569 -0.1839
  749MOL0     H 3335  11.777  11.370  10.430  1.1200 -0.9152  0.2871
  749MOL0     H 3336  11.675  11.564  10.641 -0.8708  2.6900 -2.0915
  749MOL0     H 3337  11.591  11.411  10.588  0.6163 -0.2043 -0.2515
  749MOL0     H 3338  11.543  11.509  10.370 -1.5639 -1.5934  2.1303
  749MOL0     H 3339  11.669  11.628  10.392  0.9272 -1.7542  0.2270
  749MOL0     H 3340  11.475  11.753  10.412 -1.3074 -0.7019 -0.4368
  749MOL0     H 3341  11.516  11.738  10.577 -0.7967 -2.0034  0.9469
  749MOL0     H 3342  11.757  10.788  10.956 -1.9239  0.5021 -1.1312
  749MOL0     H 3343  11.595  10.696  11.140 -1.1593  1.6675  2.1831
  749MOL0     H 3344  11.409  10.488  11.451 -1.0545 -0.3248 -0.0611
  749MOL0     H 3345  11.184  10.382  11.488 -0.5891  1.0694  2.6392
  749MOL0     H 3346  11.106  10.301  10.521 -4.5214  0.5562 -1.5960
  749MOL0     H 3347  11.180  10.185  10.325  3.5319 -0.1280 -1.2006
  749MOL0     H 3348  11.405  10.263   9.872 -1.8759  0.3982  1.2397
  749MOL0     H 3349  11.406  10.106   9.656 -1.2631  3.2615  1.4199
  749MOL0     H 3350  11.376   9.677   9.716  0.9358  0.9725  2.3640
  749MOL0     H 3351  11.427   9.708   9.547  3.4955  1.5980 -0.7465
  749MOL0     H 3352  11.591   9.714   9.800  1.0537  0.8819 -0.2779
  749MOL0     H 3353  11.633   9.792   9.639 -0.5413 -0.6197 -1.7686
  749MOL0     H 3354  11.642   9.561   9.529  1.6105  3.1214 -1.5417
  749MOL0     H 3355  11.779   9.591   9.637 -0.7774  4.5722 -0.4120
  749MOL0     H 3356  11.513   9.437   9.686  0.5390  1.2408 -0.8993
  749MOL0     H 3357  11.634   9.452   9.816  1.3085 -2.9722 -0.6947
  749MOL0     H 3358  11.831   9.182   9.578 -0.2119 -1.0654 -0.2489
  749MOL0     H 3359  11.408   9.776   9.931 -2.5555 -1.0144  0.5551
  749MOL0     H 3360  11.453   9.910  10.230  0.5661 -2.0939  0.8006
  749MOL0     H 3361  11.276   9.941  10.196 -0.0026  0.2469 -1.5864
  749MOL0     H 3362  11.351   9.787  10.156  0.9507  0.0535  0.0785
  750MOL0     O 3363   8.926   4.269   2.959 -0.0583 -0.2607 -0.3036
  750MOL0     C 3364   8.814   4.239   3.001  0.7065 -0.2644  0.0529
  750MOL0     O 3365   8.754   4.278   3.124 -0.3826  0.4777 -0.3364
  750MOL0     C 3366   8.834   4.340   3.217 -0.1810  0.3055  0.1726
  750MOL0     C 3367   8.916   4.272   3.303  0.1197 -0.2562  0.0790
  750MOL0     C 3368   9.017   4.340   3.378  0.3842 -0.7107 -0.8698
  750MOL0     C 3369   9.021   4.480   3.385 -0.7404 -0.1811 -0.5570
  750MOL0     O 3370   9.117   4.556   3.450  0.3792 -0.4521 -0.5312
  750MOL0     C 3371   9.214   4.474   3.520  0.0369 -0.4759  0.0058
  750MOL0     C 3372   9.323   4.566   3.570  0.3676 -0.4692 -0.9807
  750MOL0     C 3373   9.419   4.491   3.664  0.4506  0.2224 -0.4017
  750MOL0     C 3374   9.524   4.589   3.713  0.2028  1.0398 -0.0956
  750MOL0     C 3375   9.621   4.524   3.825  0.4383 -0.1532  0.1016
  750MOL0     C 3376   9.715   4.620   3.895 -0.4425 -0.5765 -0.3184
  750MOL0     C 3377   9.813   4.716   3.805  0.3006  0.1291  0.3733
  750MOL0     C 3378   9.893   4.803   3.897 -0.4687 -0.0767  0.1517
  750MOL0     N 3379   9.974   4.900   3.825  0.2806 -0.0055  0.4029
  750MOL0     C 3380   9.932   5.017   3.762 -0.7830 -0.8720  0.3832
  750MOL0     C 3381  10.040   5.049   3.684  0.4471 -0.2206  0.9203
  750MOL0     C 3382  10.041   5.166   3.584 -0.4845  0.8352 -0.3400
  750MOL0     C 3383   9.968   5.144   3.451  1.0676  0.4234 -0.6480
  750MOL0     C 3384   9.952   5.275   3.365  0.1693  0.7425  0.4146
  750MOL0     C 3385   9.829   5.351   3.385 -1.3421 -0.1553  1.0412
  750MOL0     O 3386   9.833   5.431   3.503 -0.1978 -0.7776 -0.8466
  750MOL0     C 3387   9.889   5.559   3.513 -0.9071 -0.6653 -0.6332
  750MOL0     C 3388   9.976   5.606   3.421 -0.0397 -0.2885  0.6094
  750MOL0     C 3389  10.044   5.730   3.433  0.1852 -1.0845 -0.1876
  750MOL0     C 3390  10.140   5.767   3.325 -0.9349 -0.6370  0.2403
  750MOL0     C 3391  10.021   5.804   3.548 -0.3248 -0.2863  0.3369
  750MOL0     C 3392  10.082   5.939   3.575  0.9017  0.4132 -0.2056
  750MOL0     O 3393   9.988   6.029   3.595  0.2693  0.2328 -0.6001
  750MOL0     C 3394  10.032   6.144   3.650  1.0485  0.0369 -0.3727
  750MOL0     C 3395  10.082   6.158   3.780 -0.4667 -0.6311 -0.3328
  750MOL0     C 3396  10.153   6.266   3.822 -0.0817 -0.0727 -0.5696
  750MOL0     C 3397  10.167   6.375   3.742  0.7995 -0.0901 -0.1198
  750MOL0     O 3398  10.240   6.475   3.795  0.3607 -0.0006  0.4167
  750MOL0     C 3399  10.205   6.618   3.782  0.1643  0.3721 -0.7696
  750MOL0     C 3400  10.080   6.638   3.865  0.1920 -0.0338  0.2888
  750MOL0     C 3401  10.112   6.613   4.008  0.3555 -0.5489 -0.5434
  750MOL0     C 3402  10.018   6.695   4.101  0.2346 -0.1770  0.6182
  750MOL0     C 3403  10.072   6.674   4.243  0.0274  0.4565 -0.6474
  750MOL0     C 3404   9.973   6.721   4.353 -0.2340 -0.2605 -0.1849
  750MOL0     C 3405   9.882   6.844   4.319  0.1185 -0.1212  0.1663
  750MOL0     C 3406   9.966   6.958   4.381 -0.8395 -0.4380  0.1729
  750MOL0    Cl 3407   9.933   7.115   4.315 -0.4146  0.4069 -0.2368
  750MOL0     C 3408  10.101   6.372   3.617 -0.1203  0.5755 -0.6728
  750MOL0     C 3409  10.042   6.256   3.572  0.2788  0.3642  0.6103
  750MOL0     O 3410  10.206   5.952   3.581  0.4564  0.3482  0.2252
  750MOL0     C 3411   9.933   5.747   3.647  0.6559 -0.0894 -0.3745
  750MOL0     C 3412   9.873   5.632   3.630 -0.1257 -0.4292  0.4753
  750MOL0     N 3413  10.145   4.962   3.713  0.0097  0.2201  0.4081
  750MOL0     N 3414  10.101   4.879   3.798  0.9984  0.2481  0.3065
  750MOL0     C 3415   8.928   4.547   3.304 -0.2881  0.1198 -0.2949
  750MOL0     C 3416   8.841   4.479   3.217 -0.2871 -0.6371 -0.3313
  750MOL0     C 3417   8.724   4.173   2.899  0.2730  0.6081 -0.7699
  750MOL0     C 3418   8.602   4.113   2.933  0.0338 -0.2322  0.1493
  750MOL0     C 3419   8.523   4.037   2.845 -0.1893  0.5840  0.0715
  750MOL0     C 3420   8.559   4.021   2.709 -0.2576 -0.3214 -0.0606
  750MOL0     O 3421   8.486   3.936   2.623  0.1414  0.4087 -0.3038
  750MOL0     C 3422   8.526   3.921   2.487  0.2386  0.8118 -0.6231
  750MOL0     C 3423   8.435   3.848   2.396  0.3695  0.1279  0.6662
  750MOL0     C 3424   8.300   3.925   2.368  0.3547  0.1193  0.5032
  750MOL0     C 3425   8.192   3.843   2.295  0.1984  0.4099 -0.3053
  750MOL0     C 3426   8.114   3.753   2.382 -0.4689 -0.4353 -1.2393
  750MOL0     C 3427   8.049   3.688   2.465 -1.2158 -0.2870 -0.2069
  750MOL0     C 3428   8.677   4.088   2.677  0.1354  0.6640 -1.1807
  750MOL0     C 3429   8.754   4.161   2.762  1.2632 -0.0601 -0.5478
  750MOL0     C 3430   8.880   4.218   2.703  0.1237  0.7983  0.7971
  750MOL0     H 3431   8.910   4.164   3.304 -0.9184 -0.2186 -0.6391
  750MOL0     H 3432   9.077   4.275   3.440 -1.0787 -1.2274  0.0544
  750MOL0     H 3433   9.254   4.396   3.455  0.1646 -1.1694  0.8882
  750MOL0     H 3434   9.153   4.435   3.602  1.2875 -1.0842  0.6826
  750MOL0     H 3435   9.377   4.626   3.497 -2.3341  1.7500 -1.2942
  750MOL0     H 3436   9.259   4.630   3.632 -0.0544 -0.9778 -0.8802
  750MOL0     H 3437   9.367   4.459   3.755 -0.8239 -0.3533 -1.3063
  750MOL0     H 3438   9.462   4.405   3.613  1.3328 -0.7332  1.8347
  750MOL0     H 3439   9.583   4.629   3.630 -0.2947  2.5043  0.2270
  750MOL0     H 3440   9.474   4.675   3.760 -0.6765 -0.5430  2.0917
  750MOL0     H 3441   9.686   4.451   3.777  0.6697 -0.6069  1.0768
  750MOL0     H 3442   9.555   4.473   3.897 -0.0076 -1.4096 -1.1445
  750MOL0     H 3443   9.656   4.692   3.952 -1.3956 -0.7348 -1.0723
  750MOL0     H 3444   9.791   4.564   3.950 -0.9022 -1.4388 -0.5450
  750MOL0     H 3445   9.749   4.783   3.745 -1.9440 -2.2858 -0.0969
  750MOL0     H 3446   9.867   4.650   3.737 -2.1192 -0.7945 -0.7834
  750MOL0     H 3447   9.823   4.858   3.960 -2.8775  0.9399 -3.1475
  750MOL0     H 3448   9.957   4.737   3.956  1.5394  0.9602 -0.7569
  750MOL0     H 3449   9.832   5.059   3.757 -1.1465 -1.7216  0.4590
  750MOL0     H 3450  10.149   5.179   3.569 -0.3834 -0.8385 -1.3470
  750MOL0     H 3451   9.999   5.255   3.631  1.5357  2.2888 -1.1464
  750MOL0     H 3452  10.032   5.070   3.402  1.3397  1.6675 -2.2594
  750MOL0     H 3453   9.870   5.098   3.467  1.9822 -1.5764 -0.4928
  750MOL0     H 3454  10.035   5.346   3.359  0.1336  0.7571  0.0252
  750MOL0     H 3455   9.947   5.233   3.264  1.1699  0.6461  0.3969
  750MOL0     H 3456   9.839   5.406   3.291  0.8364 -0.9772  0.7336
  750MOL0     H 3457   9.731   5.304   3.399 -0.6652 -0.7987  4.4770
  750MOL0     H 3458  10.007   5.554   3.331  2.3165 -0.0456  1.2091
  750MOL0     H 3459  10.240   5.727   3.344 -0.5245 -0.0619 -0.6651
  750MOL0     H 3460  10.146   5.876   3.315 -1.5853 -0.2292  3.3662
  750MOL0     H 3461  10.116   5.726   3.227  0.8073 -1.3731  0.0732
  750MOL0     H 3462  10.078   6.073   3.847  0.6592  0.7958  1.6278
  750MOL0     H 3463  10.210   6.269   3.914 -0.8482 -0.2699 -0.0848
  750MOL0     H 3464  10.291   6.672   3.822  0.0820  0.7111 -1.0466
  750MOL0     H 3465  10.205   6.642   3.675  2.0985 -3.2318 -1.7426
  750MOL0     H 3466  10.056   6.742   3.844 -0.5317 -0.2148  0.2167
  750MOL0     H 3467   9.997   6.584   3.819  0.3725  1.2611 -1.6875
  750MOL0     H 3468  10.217   6.639   4.023  0.0168  0.4719  0.1333
  750MOL0     H 3469  10.103   6.506   4.031 -1.7317  0.1050  2.2064
  750MOL0     H 3470   9.919   6.650   4.094  0.2712 -1.1328  4.3235
  750MOL0     H 3471  10.016   6.800   4.068  3.0879 -0.2096  0.1193
  750MOL0     H 3472  10.090   6.569   4.269 -1.2508  0.8936  2.4318
  750MOL0     H 3473  10.163   6.735   4.236  0.7304 -0.7027 -2.4871
  750MOL0     H 3474  10.022   6.745   4.447  0.3938 -2.4845  0.1023
  750MOL0     H 3475   9.914   6.635   4.384  0.1539 -1.3482 -2.2777
  750MOL0     H 3476   9.780   6.837   4.359 -0.4081  0.0193 -1.1261
  750MOL0     H 3477   9.872   6.869   4.213 -2.6889 -0.3932  0.2944
  750MOL0     H 3478  10.073   6.938   4.372 -0.6262  1.2219 -1.8409
  750MOL0     H 3479   9.935   6.963   4.486 -4.2000  1.1569 -0.7422
  750MOL0     H 3480  10.105   6.463   3.559 -1.8047  1.4657  0.5237
  750MOL0     H 3481   9.992   6.259   3.476  0.4368  3.6668  0.5460
  750MOL0     H 3482   9.905   5.809   3.732 -2.1883 -0.8265 -0.6900
  750MOL0     H 3483   9.819   5.597   3.717  1.3177  1.2121  2.1393
  750MOL0     H 3484   8.937   4.653   3.279 -1.0823 -0.2970 -2.5476
  750MOL0     H 3485   8.768   4.526   3.151 -2.7772 -0.2256  2.4716
  750MOL0     H 3486   8.576   4.118   3.039 -2.6256  2.2325 -0.4757
  750MOL0     H 3487   8.435   3.985   2.879  0.1583 -0.5840 -0.7386
  750MOL0     H 3488   8.533   4.016   2.434  2.7943  0.2836 -1.3781
  750MOL0     H 3489   8.631   3.892   2.485  0.7408  2.2140  1.7733
  750MOL0     H 3490   8.412   3.755   2.450 -1.4591 -0.4163 -0.9191
  750MOL0     H 3491   8.488   3.814   2.307 -0.3853  0.3012  0.1446
  750MOL0     H 3492   8.261   3.967   2.461 -0.9114  2.5684 -1.0309
  750MOL0     H 3493   8.337   4.003   2.301  5.9020 -0.5554  2.3003
  750MOL0     H 3494   8.234   3.786   2.211 -0.9611  1.9302 -1.9972
  750MOL0     H 3495   8.117   3.909   2.249 -2.9824 -2.2271  0.7237
  750MOL0     H 3496   8.004   3.620   2.535 -1.5927 -2.0303 -2.0278
  750MOL0     H 3497   8.726   4.067   2.582  1.7272 -3.3831  0.3538
  750MOL0     H 3498   8.961   4.158   2.746 -1.3682 -1.0941  1.0904
  750MOL0     H 3499   8.896   4.206   2.596 -1.7181  1.9947  0.3503
  750MOL0     H 3500   8.892   4.325   2.722  4.4278  1.0502 -1.8617
  751MOL0     O 3501   3.790   9.610   3.878  0.3342 -0.6875 -1.1069
  751MOL0     C 3502   3.835   9.707   3.941  0.4505 -1.2055 -0.0321
  751MOL0     O 3503   3.822   9.837   3.889 -0.3353 -0.7936 -0.5836
  751MOL0     C 3504   3.820   9.874   3.754 -0.6779 -0.3957  0.1361
  751MOL0     C 3505   3.779   9.800   3.656  1.2636  0.0912 -0.2195
  751MOL0     C 3506   3.793   9.845   3.519  0.2900 -0.2482 -0.6135
  751MOL0     C 3507   3.843   9.968   3.482  0.8105  0.3035  0.3069
  751MOL0     O 3508   3.833  10.001   3.347 -0.7669  0.5328 -0.2205
  751MOL0     C 3509   3.944  10.085   3.292  0.2311 -0.0403  0.6889
  751MOL0     C 3510   4.064  10.022   3.240  0.1283  0.7151  0.7396
  751MOL0     C 3511   4.052   9.879   3.186 -0.5269 -0.1192  0.3706
  751MOL0     C 3512   3.994   9.872   3.037 -0.1729  0.6498  0.2507
  751MOL0     C 3513   3.962   9.728   3.005 -0.8796  0.5317  0.2131
  751MOL0     C 3514   4.083   9.642   2.970 -0.5130  0.5782  0.4147
  751MOL0     C 3515   4.051   9.492   2.973 -0.4483 -0.2116 -0.1143
  751MOL0     C 3516   3.938   9.444   2.878 -0.0137 -0.8656  0.4821
  751MOL0     N 3517   3.950   9.312   2.829 -0.4635  0.2630  0.2066
  751MOL0     C 3518   4.022   9.203   2.872  0.9547  0.3876 -0.4347
  751MOL0     C 3519   3.971   9.104   2.809 -0.5813 -0.3408 -0.4398
  751MOL0     C 3520   4.026   8.965   2.807 -0.2743 -0.0107  0.1333
  751MOL0     C 3521   3.953   8.901   2.915 -0.3463  0.3403  0.2591
  751MOL0     C 3522   3.788   8.902   2.913 -0.5956 -0.1165 -0.9403
  751MOL0     C 3523   3.746   8.823   3.039  0.0445 -0.0115  0.3979
  751MOL0     O 3524   3.756   8.889   3.171 -0.0902 -0.1272  0.2702
  751MOL0     C 3525   3.823   8.834   3.272 -0.1640  0.7074 -0.1489
  751MOL0     C 3526   3.939   8.904   3.305  0.4764  0.6820 -0.2873
  751MOL0     C 3527   4.017   8.858   3.415  0.4694  0.3268  0.0884
  751MOL0     C 3528   4.117   8.961   3.464 -0.6508 -0.0395 -0.7627
  751MOL0     C 3529   3.978   8.741   3.486 -0.8450  0.2268  0.2154
  751MOL0     C 3530   4.058   8.686   3.599 -0.8009  0.5248 -0.8248
  751MOL0     O 3531   3.991   8.639   3.708 -0.3020 -0.0581  0.1159
  751MOL0     C 3532   4.039   8.668   3.838 -0.6160  0.6930  0.6815
  751MOL0     C 3533   4.082   8.789   3.870 -0.2657  0.3758  0.3306
  751MOL0     C 3534   4.114   8.824   3.993 -0.1253 -0.2751  0.2037
  751MOL0     C 3535   4.084   8.745   4.093 -0.2719  0.0939  0.2653
  751MOL0     O 3536   4.111   8.779   4.230 -0.4394 -0.3374  1.1175
  751MOL0     C 3537   4.244   8.840   4.262  0.2923 -0.7860  0.0243
  751MOL0     C 3538   4.285   8.814   4.401  0.3298  0.0575 -0.5006
  751MOL0     C 3539   4.420   8.743   4.410  0.4309 -0.9441 -0.4862
  751MOL0     C 3540   4.456   8.704   4.556 -0.2103 -0.1171 -0.6971
  751MOL0     C 3541   4.559   8.597   4.583  0.0343 -0.2478 -0.3835
  751MOL0     C 3542   4.603   8.508   4.465 -0.3240 -0.1954 -0.1881
  751MOL0     C 3543   4.726   8.409   4.477  1.2476 -0.6681 -0.6185
  751MOL0     C 3544   4.762   8.332   4.353 -0.4480  0.0736 -0.3862
  751MOL0    Cl 3545   4.626   8.221   4.323  0.1587  0.2529 -0.0911
  751MOL0     C 3546   4.039   8.613   4.069  0.4004  0.9886 -1.0093
  751MOL0     C 3547   4.012   8.573   3.932 -1.1278 -0.3097  0.5197
  751MOL0     O 3548   4.183   8.701   3.586  0.2161  0.5182  0.1608
  751MOL0     C 3549   3.876   8.661   3.440 -0.1515 -0.6758 -0.8686
  751MOL0     C 3550   3.796   8.708   3.330 -0.2998 -0.2973 -0.7093
  751MOL0     N 3551   3.877   9.144   2.716 -0.9233  0.9809 -0.7473
  751MOL0     N 3552   3.860   9.273   2.730  0.2887  0.5299 -0.4051
  751MOL0     C 3553   3.881  10.047   3.590  0.6010 -0.0529 -0.9952
  751MOL0     C 3554   3.859  10.003   3.724 -0.8953  0.0604  0.1154
  751MOL0     C 3555   3.857   9.696   4.087 -0.2244 -0.6656  1.2292
  751MOL0     C 3556   3.818   9.805   4.166  0.6567  0.3735  0.5901
  751MOL0     C 3557   3.839   9.813   4.302  0.2363 -0.5609  0.0921
  751MOL0     C 3558   3.909   9.705   4.367  0.2925 -1.0149  0.4549
  751MOL0     O 3559   3.938   9.710   4.500 -0.1195  0.0642  0.0946
  751MOL0     C 3560   4.024   9.817   4.537 -1.1852 -0.0524  0.9045
  751MOL0     C 3561   4.119   9.766   4.644  0.1932  1.3168  0.3653
  751MOL0     C 3562   4.052   9.766   4.776 -0.1481 -0.4096 -0.0143
  751MOL0     C 3563   4.158   9.728   4.876 -0.0759  0.7208  0.3596
  751MOL0     C 3564   4.097   9.713   5.006 -0.6039 -0.1405  0.6718
  751MOL0     C 3565   4.047   9.697   5.116  0.1233  0.0351 -1.4381
  751MOL0     C 3566   3.936   9.594   4.289  0.3233 -0.0573  0.9454
  751MOL0     C 3567   3.912   9.584   4.154 -0.5355 -0.4616  1.1959
  751MOL0     C 3568   3.942   9.457   4.076  0.1681 -0.5846  1.0696
  751MOL0     H 3569   3.722   9.711   3.681  0.6109  0.9361  1.4994
  751MOL0     H 3570   3.747   9.792   3.437 -1.2158  0.7576 -0.4684
  751MOL0     H 3571   3.993  10.159   3.356  0.2829  1.7579 -1.2964
  751MOL0     H 3572   3.896  10.139   3.210  0.5489 -1.0123 -0.1577
  751MOL0     H 3573   4.098  10.080   3.153 -1.0690  1.3590  0.6867
  751MOL0     H 3574   4.146  10.034   3.311 -0.7391  1.3330  1.6572
  751MOL0     H 3575   4.151   9.833   3.181 -0.6302 -0.2559 -0.6124
  751MOL0     H 3576   3.989   9.827   3.259 -2.1606  2.7446  1.1212
  751MOL0     H 3577   3.909   9.937   3.014  0.4484  1.4613  0.2022
  751MOL0     H 3578   4.068   9.908   2.966 -0.1348 -0.5399 -0.3342
  751MOL0     H 3579   3.905   9.727   2.912  2.0067  2.3287 -1.7263
  751MOL0     H 3580   3.904   9.684   3.087  1.5652 -2.7071  0.4501
  751MOL0     H 3581   4.118   9.665   2.869 -0.2090 -3.3011 -0.5122
  751MOL0     H 3582   4.165   9.665   3.038  0.1173 -0.9697  0.1990
  751MOL0     H 3583   4.036   9.468   3.079 -2.9554 -0.0211 -0.3710
  751MOL0     H 3584   4.140   9.439   2.938 -1.3562 -0.9107 -1.4441
  751MOL0     H 3585   3.842   9.448   2.931 -1.6831  0.1782 -2.4332
  751MOL0     H 3586   3.927   9.507   2.789 -1.6392  0.0488  1.2703
  751MOL0     H 3587   4.087   9.191   2.958  1.7644 -3.4268 -1.3543
  751MOL0     H 3588   4.131   8.942   2.827 -0.0236  3.2107  3.6251
  751MOL0     H 3589   3.982   8.926   2.715 -0.9515  3.0974 -0.9705
  751MOL0     H 3590   3.993   8.799   2.921  0.5305  0.7601  3.9393
  751MOL0     H 3591   3.974   8.951   3.010  0.1043 -0.2398  0.4734
  751MOL0     H 3592   3.743   9.002   2.912  1.1663  0.7950  1.4167
  751MOL0     H 3593   3.755   8.843   2.828  0.3026 -2.4980  0.2889
  751MOL0     H 3594   3.641   8.794   3.028  0.5616 -1.2405 -2.1780
  751MOL0     H 3595   3.796   8.725   3.038  0.2485  0.0328 -2.0839
  751MOL0     H 3596   3.966   9.001   3.264  1.5325  0.4639 -0.1374
  751MOL0     H 3597   4.214   8.925   3.427  0.1880  0.8574  0.4803
  751MOL0     H 3598   4.121   8.960   3.573  1.2976 -1.3132 -0.7769
  751MOL0     H 3599   4.107   9.064   3.429  0.5960 -0.0030 -1.0544
  751MOL0     H 3600   4.086   8.865   3.792  2.5401  1.0114  1.0008
  751MOL0     H 3601   4.161   8.917   4.022 -0.9049  0.6621 -1.4142
  751MOL0     H 3602   4.313   8.800   4.187  0.0750  2.0426 -1.8566
  751MOL0     H 3603   4.266   8.946   4.249 -0.3352 -0.6408  0.1188
  751MOL0     H 3604   4.290   8.910   4.453 -0.3899  1.7828 -3.4046
  751MOL0     H 3605   4.214   8.750   4.455 -0.1681 -0.1153 -1.3335
  751MOL0     H 3606   4.499   8.804   4.364  1.3349  0.4078  2.5538
  751MOL0     H 3607   4.418   8.657   4.343  0.4695  0.2688 -2.1029
  751MOL0     H 3608   4.363   8.665   4.597  1.4748 -2.1509  1.4674
  751MOL0     H 3609   4.483   8.799   4.605  0.3946 -2.2331  3.5256
  751MOL0     H 3610   4.651   8.641   4.622 -2.2014  3.7004  1.0946
  751MOL0     H 3611   4.532   8.527   4.662  1.0025  0.9276  1.0396
  751MOL0     H 3612   4.622   8.568   4.375 -0.3741 -0.4445 -0.3671
  751MOL0     H 3613   4.526   8.433   4.443 -1.1962 -0.1745  2.4450
  751MOL0     H 3614   4.700   8.333   4.551 -0.7798  0.2259 -0.3661
  751MOL0     H 3615   4.815   8.467   4.503 -0.0573  0.1858  2.2755
  751MOL0     H 3616   4.852   8.279   4.384 -0.7506 -0.4938 -0.4502
  751MOL0     H 3617   4.779   8.392   4.263 -2.4685  0.6612 -0.4284
  751MOL0     H 3618   4.027   8.546   4.154  1.6530 -0.2541 -1.7633
  751MOL0     H 3619   3.979   8.478   3.891 -0.6903  0.2652 -1.2973
  751MOL0     H 3620   3.864   8.569   3.495 -0.4153  1.1986  2.4587
  751MOL0     H 3621   3.710   8.654   3.292  0.5472  0.0123 -3.2989
  751MOL0     H 3622   3.920  10.145   3.563 -0.8778  1.1212  0.9329
  751MOL0     H 3623   3.892  10.064   3.807  1.3283  2.8899 -2.5980
  751MOL0     H 3624   3.757   9.882   4.120  0.4432  0.7065  1.4014
  751MOL0     H 3625   3.808   9.904   4.352 -1.2073 -1.1710  0.3420
  751MOL0     H 3626   4.083   9.838   4.447 -1.9541 -2.9260 -0.3917
  751MOL0     H 3627   3.961   9.901   4.569 -0.5345  0.4244  0.9707
  751MOL0     H 3628   4.209   9.828   4.657 -0.1131  1.6711  0.8994
  751MOL0     H 3629   4.153   9.664   4.627 -1.8383 -0.0027  3.2946
  751MOL0     H 3630   4.028   9.871   4.793  2.2599  0.1997 -0.0111
  751MOL0     H 3631   3.962   9.704   4.781 -1.0415  0.8890  0.1755
  751MOL0     H 3632   4.235   9.805   4.869 -0.8808  1.4623 -0.7858
  751MOL0     H 3633   4.205   9.633   4.848 -1.9631  0.0316 -0.6680
  751MOL0     H 3634   3.994   9.664   5.203  1.1686  4.4097  1.1842
  751MOL0     H 3635   3.976   9.509   4.345  2.4032 -0.7894 -1.4846
  751MOL0     H 3636   4.008   9.394   4.137  1.0356 -1.9067 -1.1274
  751MOL0     H 3637   3.851   9.409   4.040 -0.2469  1.2395 -0.4153
  751MOL0     H 3638   4.011   9.471   3.992 -1.3638  0.8915 -0.0017
  752MOL0     O 3639   3.653   0.628   8.843  0.8443  0.6583  0.2115
  752MOL0     C 3640   3.721   0.657   8.940 -0.5992  0.1670 -0.5377
  752MOL0     O 3641   3.863   0.641   8.951  0.1678  0.3843 -0.6684
  752MOL0     C 3642   3.926   0.581   8.848 -0.1312 -0.6089  0.0494
  752MOL0     C 3643   4.046   0.632   8.790 -0.1640  0.1410 -0.7951
  752MOL0     C 3644   4.123   0.551   8.703 -0.2350  0.1463  0.0411
  752MOL0     C 3645   4.072   0.439   8.646 -0.0021  0.9283  0.8785
  752MOL0     O 3646   4.149   0.378   8.546 -0.6263  0.0555  0.2770
  752MOL0     C 3647   4.110   0.246   8.498 -0.5672  0.7682  0.7185
  752MOL0     C 3648   4.182   0.124   8.562 -0.1542  0.3521 -0.2175
  752MOL0     C 3649   4.136   0.085   8.695  0.2967  0.0206  0.7287
  752MOL0     C 3650   3.989   0.023   8.712 -0.3843 -0.6139 -0.1261
  752MOL0     C 3651   3.940  -0.016   8.859 -0.4567  0.2099  0.0085
  752MOL0     C 3652   3.900   0.093   8.951  0.3657  0.0428  0.2034
  752MOL0     C 3653   4.003   0.133   9.051  0.1096 -0.6937 -0.6758
  752MOL0     C 3654   4.001   0.024   9.157  0.6296 -0.7268 -0.2417
  752MOL0     N 3655   3.953   0.076   9.287 -0.1562  0.3883  1.2471
  752MOL0     C 3656   4.000   0.184   9.364  0.0994 -0.0997  0.0891
  752MOL0     C 3657   3.889   0.221   9.432  0.1192 -0.3786  0.0896
  752MOL0     C 3658   3.895   0.341   9.526 -0.2425  0.1132 -0.1055
  752MOL0     C 3659   3.941   0.472   9.454 -0.7889  0.8400 -0.8120
  752MOL0     C 3660   4.021   0.581   9.542 -0.3654  0.0802 -0.2525
  752MOL0     C 3661   3.920   0.657   9.624  0.1854  0.3709 -0.3817
  752MOL0     O 3662   3.857   0.566   9.706  0.2311 -0.8006 -0.4729
  752MOL0     C 3663   3.726   0.602   9.717 -0.7663 -0.7707 -0.1749
  752MOL0     C 3664   3.704   0.720   9.794 -0.1584  0.4544 -0.1071
  752MOL0     C 3665   3.570   0.768   9.812 -0.3449 -1.3142 -0.2797
  752MOL0     C 3666   3.551   0.908   9.882 -0.7043  0.8379 -0.1608
  752MOL0     C 3667   3.463   0.698   9.758  0.4876 -0.6571  0.1815
  752MOL0     C 3668   3.325   0.724   9.779  1.5503 -0.0491 -0.6236
  752MOL0     O 3669   3.245   0.681   9.669  0.5958 -0.2724  0.3491
  752MOL0     C 3670   3.110   0.710   9.662 -0.1962 -0.1137  0.2219
  752MOL0     C 3671   3.027   0.627   9.587  0.3219  0.3608  0.4050
  752MOL0     C 3672   2.904   0.669   9.550 -0.4285  0.5147  0.4878
  752MOL0     C 3673   2.839   0.782   9.600 -0.4312  0.1319  0.1040
  752MOL0     O 3674   2.709   0.821   9.560  0.6558  0.0830  0.7508
  752MOL0     C 3675   2.692   0.965   9.545 -1.0516  0.3269  0.3763
  752MOL0     C 3676   2.568   0.979   9.461 -0.8362  0.8623  0.0338
  752MOL0     C 3677   2.536   1.128   9.444  0.5077 -0.1617 -0.4540
  752MOL0     C 3678   2.403   1.149   9.366 -0.4981 -0.7540  0.5035
  752MOL0     C 3679   2.385   1.289   9.316 -0.3689 -0.6869  0.6734
  752MOL0     C 3680   2.430   1.318   9.168  0.1720 -0.7485  0.4620
  752MOL0     C 3681   2.585   1.314   9.151  0.3119  0.0017  0.7103
  752MOL0     C 3682   2.636   1.364   9.011  0.3845 -0.4064  0.3475
  752MOL0    Cl 3683   2.805   1.299   8.982  0.5288  0.5230 -0.7448
  752MOL0     C 3684   2.924   0.860   9.681 -0.9513 -0.1517 -0.1687
  752MOL0     C 3685   3.060   0.831   9.697 -0.5526  0.6729 -0.1005
  752MOL0     O 3686   3.291   0.746   9.893 -0.2956  0.0199  0.3057
  752MOL0     C 3687   3.489   0.583   9.693 -0.8847  0.1431  0.2160
  752MOL0     C 3688   3.617   0.530   9.689 -0.3232  0.0679 -0.0311
  752MOL0     N 3689   3.794   0.133   9.416  0.8407 -0.4706  0.2003
  752MOL0     N 3690   3.824   0.050   9.324  0.4929 -1.0001 -0.5410
  752MOL0     C 3691   3.954   0.388   8.704 -0.8311  0.3263  0.3490
  752MOL0     C 3692   3.878   0.457   8.794 -1.2094 -0.6301  0.2252
  752MOL0     C 3693   3.660   0.703   9.061  0.0811 -0.8235 -0.1940
  752MOL0     C 3694   3.648   0.620   9.175  0.2840  0.8327  0.1891
  752MOL0     C 3695   3.576   0.648   9.287  0.6589  0.1532 -0.6628
  752MOL0     C 3696   3.518   0.773   9.289  0.3909 -1.0126  0.0223
  752MOL0     O 3697   3.451   0.804   9.406 -0.8515  0.1347 -0.0994
  752MOL0     C 3698   3.390   0.930   9.426 -0.0192 -0.6421  0.2208
  752MOL0     C 3699   3.255   0.960   9.359 -0.9569 -0.3067 -0.3072
  752MOL0     C 3700   3.195   1.101   9.415  0.4573 -0.3653 -0.6938
  752MOL0     C 3701   3.063   1.138   9.360  0.6484  1.0737 -1.1177
  752MOL0     C 3702   2.986   1.236   9.446 -0.1676  0.1105 -0.0070
  752MOL0     C 3703   2.927   1.331   9.491 -0.5411 -0.3503  0.5043
  752MOL0     C 3704   3.527   0.869   9.184 -0.8406  0.7303 -0.7024
  752MOL0     C 3705   3.601   0.837   9.069 -0.5227  0.3913  0.2359
  752MOL0     C 3706   3.608   0.937   8.959  0.2026 -0.3584  0.6847
  752MOL0     H 3707   4.070   0.730   8.830  1.1209 -0.4587 -0.0187
  752MOL0     H 3708   4.218   0.582   8.659 -0.5185  0.5540 -0.2937
  752MOL0     H 3709   4.134   0.240   8.392 -4.1431  1.7193 -0.2842
  752MOL0     H 3710   4.002   0.235   8.488 -0.6581 -0.5986  2.6121
  752MOL0     H 3711   4.173   0.038   8.496 -1.4764  1.4207 -1.4963
  752MOL0     H 3712   4.287   0.154   8.557  0.7156 -2.5333 -1.4870
  752MOL0     H 3713   4.202   0.010   8.740  1.0031 -1.1229 -1.9832
  752MOL0     H 3714   4.157   0.173   8.757  0.3729  3.4139 -3.6257
  752MOL0     H 3715   3.915   0.098   8.684 -0.6752 -1.3126 -1.3054
  752MOL0     H 3716   3.976  -0.070   8.655 -1.1112 -0.5803 -0.0179
  752MOL0     H 3717   4.017  -0.078   8.907  0.3680  0.6382 -0.7119
  752MOL0     H 3718   3.849  -0.069   8.831 -0.6226  1.1650 -1.3476
  752MOL0     H 3719   3.884   0.184   8.891  1.7812 -0.7803 -1.5444
  752MOL0     H 3720   3.806   0.068   9.001  0.4638 -2.2931 -0.6559
  752MOL0     H 3721   3.978   0.231   9.090 -3.3489 -0.5309 -2.8676
  752MOL0     H 3722   4.102   0.152   9.009  0.0963 -2.0200 -1.3769
  752MOL0     H 3723   3.942  -0.063   9.125  1.1604  0.3458 -4.9468
  752MOL0     H 3724   4.102  -0.011   9.176  1.0427  0.3233 -0.4019
  752MOL0     H 3725   4.085   0.248   9.345 -0.4210  0.2053 -1.4056
  752MOL0     H 3726   3.946   0.320   9.621  0.6070 -0.7950 -0.7372
  752MOL0     H 3727   3.792   0.352   9.560 -0.1264 -2.9882  1.7179
  752MOL0     H 3728   4.015   0.439   9.381  1.0607 -0.0826  1.3582
  752MOL0     H 3729   3.858   0.515   9.397 -1.8634  0.0569  0.0980
  752MOL0     H 3730   4.094   0.523   9.600  1.7143 -0.7178 -3.4050
  752MOL0     H 3731   4.078   0.648   9.477 -1.6202  1.8751  0.4145
  752MOL0     H 3732   3.967   0.728   9.693 -1.4603 -1.2017  2.5710
  752MOL0     H 3733   3.851   0.715   9.561 -0.3305  1.1894  0.8859
  752MOL0     H 3734   3.787   0.781   9.829  2.0123 -1.6982 -1.1886
  752MOL0     H 3735   3.490   0.978   9.824 -0.6677  2.4592  1.6405
  752MOL0     H 3736   3.652   0.948   9.897  0.4714 -2.1628  0.5834
  752MOL0     H 3737   3.501   0.894   9.979 -0.3105 -0.3125 -0.1107
  752MOL0     H 3738   3.064   0.532   9.551 -1.5390 -0.3815  0.3342
  752MOL0     H 3739   2.852   0.601   9.483  0.2187  0.3644  0.1290
  752MOL0     H 3740   2.677   1.032   9.630  0.0471 -2.3250  2.7970
  752MOL0     H 3741   2.779   1.007   9.494 -0.0215  2.8543  3.8436
  752MOL0     H 3742   2.580   0.931   9.364 -2.5154 -0.3427  0.3868
  752MOL0     H 3743   2.484   0.922   9.501 -0.2529  0.3987  0.6387
  752MOL0     H 3744   2.621   1.180   9.399  0.1295  0.1945 -0.7723
  752MOL0     H 3745   2.536   1.171   9.545  1.3213 -1.8210  0.2991
  752MOL0     H 3746   2.331   1.128   9.446  0.8559 -3.2016  1.2091
  752MOL0     H 3747   2.384   1.083   9.281  0.2641  0.1565 -0.3895
  752MOL0     H 3748   2.277   1.302   9.309 -0.3721 -0.5729  0.9214
  752MOL0     H 3749   2.424   1.361   9.389 -2.0983 -0.8890  1.8576
  752MOL0     H 3750   2.396   1.415   9.131 -0.3248 -1.4418 -0.9782
  752MOL0     H 3751   2.388   1.249   9.094 -2.1579  0.3823  0.6308
  752MOL0     H 3752   2.622   1.213   9.172  1.0404  0.1125  0.0295
  752MOL0     H 3753   2.635   1.376   9.226  3.1378 -0.9354 -0.2651
  752MOL0     H 3754   2.651   1.472   9.017  0.8981 -0.3852 -1.0075
  752MOL0     H 3755   2.559   1.341   8.937 -1.6829  1.9493  1.5815
  752MOL0     H 3756   2.882   0.951   9.724  0.9055 -0.0282  1.4773
  752MOL0     H 3757   3.118   0.903   9.754 -0.4579 -0.1770  0.9154
  752MOL0     H 3758   3.417   0.521   9.640 -2.0245 -0.0357  1.9032
  752MOL0     H 3759   3.621   0.427   9.655  1.2219  0.2465 -0.4901
  752MOL0     H 3760   3.904   0.298   8.671 -4.9299  2.2443  0.6504
  752MOL0     H 3761   3.785   0.415   8.830 -1.2740 -3.3124 -2.6329
  752MOL0     H 3762   3.712   0.532   9.167  0.0863  0.4479  2.4430
  752MOL0     H 3763   3.563   0.583   9.373 -2.5506  1.8171  0.2548
  752MOL0     H 3764   3.379   0.948   9.533  0.2522  1.0218 -0.0010
  752MOL0     H 3765   3.460   1.010   9.401 -0.4952 -0.0619  0.7074
  752MOL0     H 3766   3.187   0.887   9.404  1.0109 -1.1878  1.4210
  752MOL0     H 3767   3.267   0.949   9.250  0.9931 -3.0114  0.0731
  752MOL0     H 3768   3.184   1.098   9.524 -1.2615 -0.1365 -0.8425
  752MOL0     H 3769   3.271   1.174   9.385  0.1015  1.1757  1.8644
  752MOL0     H 3770   2.997   1.050   9.353  1.3465  0.5479 -1.1496
  752MOL0     H 3771   3.077   1.170   9.256  2.9048 -0.3164 -1.3082
  752MOL0     H 3772   2.881   1.412   9.543 -1.3896 -2.4011  3.1649
  752MOL0     H 3773   3.480   0.966   9.198 -3.7499 -0.5944 -0.4604
  752MOL0     H 3774   3.513   0.979   8.925  0.6407  1.1281  1.2497
  752MOL0     H 3775   3.667   1.022   8.992  1.0897 -2.0295  3.8080
  752MOL0     H 3776   3.653   0.893   8.869 -0.9719 -2.1179  0.9074
  753MOL0     O 3777   9.276   2.090   7.850 -0.5193 -0.4958 -0.1807
  753MOL0     C 3778   9.208   1.990   7.828 -0.3676  0.1381 -0.2930
  753MOL0     O 3779   9.088   1.997   7.753  0.7194  0.1758 -0.5951
  753MOL0     C 3780   9.007   2.105   7.738 -0.9572 -0.4129 -0.5698
  753MOL0     C 3781   8.884   2.100   7.812 -1.7468 -0.4876  0.4230
  753MOL0     C 3782   8.788   2.193   7.781 -0.2638 -0.0553 -0.3324
  753MOL0     C 3783   8.804   2.280   7.680 -0.5294  0.2034  0.5276
  753MOL0     O 3784   8.698   2.365   7.659  0.7044 -0.1735 -0.2378
  753MOL0     C 3785   8.659   2.369   7.516 -0.2665 -1.0784 -1.1367
  753MOL0     C 3786   8.516   2.416   7.512  0.2934  0.2334  0.4220
  753MOL0     C 3787   8.459   2.442   7.369 -0.8041  0.5828 -0.9764
  753MOL0     C 3788   8.420   2.303   7.299  0.1591 -0.3604  0.8783
  753MOL0     C 3789   8.348   2.320   7.158 -0.1729 -0.1931 -0.0815
  753MOL0     C 3790   8.205   2.377   7.167  0.3169 -0.0011  0.7326
  753MOL0     C 3791   8.126   2.311   7.060  0.8061  0.2466 -0.2122
  753MOL0     C 3792   7.976   2.346   7.072  0.4955  0.6574 -1.3217
  753MOL0     N 3793   7.905   2.251   7.161  0.8793 -0.4420  0.4158
  753MOL0     C 3794   7.772   2.275   7.205 -0.2184 -0.2686  0.1288
  753MOL0     C 3795   7.733   2.159   7.254  0.3038  0.1768 -0.8955
  753MOL0     C 3796   7.592   2.136   7.290  0.0609  0.0068 -0.2451
  753MOL0     C 3797   7.562   2.167   7.437  0.2798  0.6236  0.8716
  753MOL0     C 3798   7.630   2.069   7.523  0.1443 -0.0528  0.3010
  753MOL0     C 3799   7.596   2.095   7.671 -0.3737  0.2508  0.5133
  753MOL0     O 3800   7.455   2.078   7.686 -1.0671 -0.2688 -0.5312
  753MOL0     C 3801   7.429   1.941   7.696 -0.1979 -0.6946  0.8386
  753MOL0     C 3802   7.499   1.830   7.737 -0.5258 -0.4787 -0.1265
  753MOL0     C 3803   7.449   1.698   7.729 -0.1930  0.6070  1.0698
  753MOL0     C 3804   7.561   1.598   7.779  0.8219 -0.2329 -0.3615
  753MOL0     C 3805   7.318   1.674   7.684 -0.2465 -0.2806  0.1365
  753MOL0     C 3806   7.242   1.540   7.691  0.1043 -0.9858  1.0752
  753MOL0     O 3807   7.124   1.533   7.630 -0.2540  0.5050 -0.1333
  753MOL0     C 3808   7.085   1.399   7.614 -0.6507  0.7471 -0.1041
  753MOL0     C 3809   6.999   1.325   7.696  0.6832 -0.2530 -0.1984
  753MOL0     C 3810   6.982   1.187   7.679  0.9234 -0.0659 -0.2554
  753MOL0     C 3811   7.031   1.125   7.564 -0.5346  0.4978 -0.5857
  753MOL0     O 3812   7.011   1.000   7.520 -0.7491  0.4527  0.7342
  753MOL0     C 3813   6.939   0.909   7.605  0.3053  1.3106  0.9782
  753MOL0     C 3814   6.995   0.786   7.539 -0.5943  0.7058 -0.2686
  753MOL0     C 3815   7.133   0.749   7.605 -0.0101  0.2935 -0.7807
  753MOL0     C 3816   7.156   0.598   7.570  0.2468  0.3432 -1.1889
  753MOL0     C 3817   7.278   0.532   7.642 -0.8886 -0.1833  0.7172
  753MOL0     C 3818   7.309   0.395   7.585 -0.3308  0.2470 -0.5626
  753MOL0     C 3819   7.340   0.280   7.694 -0.3800 -0.0687  0.8913
  753MOL0     C 3820   7.210   0.226   7.759 -0.1506  0.2065 -0.6132
  753MOL0    Cl 3821   7.223   0.081   7.859  0.1541 -0.1886  0.2481
  753MOL0     C 3822   7.103   1.202   7.477 -0.1433 -0.9309 -0.2707
  753MOL0     C 3823   7.132   1.330   7.501 -0.6307 -0.4081 -0.1849
  753MOL0     O 3824   7.295   1.452   7.755 -1.1704  0.2055 -0.0243
  753MOL0     C 3825   7.243   1.782   7.628  0.1076  1.2504 -0.0907
  753MOL0     C 3826   7.300   1.906   7.636 -1.4092 -0.1902 -0.2718
  753MOL0     N 3827   7.840   2.071   7.243  0.3432 -0.1010 -0.4653
  753MOL0     N 3828   7.939   2.121   7.195 -0.5270 -0.2354 -0.5874
  753MOL0     C 3829   8.930   2.297   7.609 -0.6022  0.5629  0.2069
  753MOL0     C 3830   9.027   2.200   7.636  0.2071 -0.3793  0.6282
  753MOL0     C 3831   9.266   1.851   7.871 -0.5003  0.7522 -0.1769
  753MOL0     C 3832   9.384   1.862   7.949 -0.3074 -0.1062  0.2528
  753MOL0     C 3833   9.450   1.750   8.005  0.4403  1.4337  0.0568
  753MOL0     C 3834   9.394   1.620   7.972 -0.1017  0.7046 -0.0397
  753MOL0     O 3835   9.442   1.499   8.020 -0.4975  0.0856 -0.0643
  753MOL0     C 3836   9.550   1.499   8.108  0.6265 -0.3969 -1.1822
  753MOL0     C 3837   9.679   1.507   8.023  0.0259 -0.5152 -0.3630
  753MOL0     C 3838   9.809   1.491   8.092 -0.0173 -0.3229  0.3386
  753MOL0     C 3839   9.858   1.607   8.179  0.6232 -0.7740 -0.7049
  753MOL0     C 3840   9.828   1.574   8.317 -0.1995  0.0535 -0.2332
  753MOL0     C 3841   9.802   1.550   8.434 -0.8408 -0.3329  0.1460
  753MOL0     C 3842   9.282   1.611   7.892  0.5174  0.0286  0.0028
  753MOL0     C 3843   9.215   1.725   7.846 -0.2527 -0.1534 -0.8325
  753MOL0     C 3844   9.100   1.690   7.754 -0.7875  0.1529  0.0815
  753MOL0     H 3845   8.873   2.010   7.872  0.6947 -2.2233 -1.5354
  753MOL0     H 3846   8.696   2.183   7.838 -1.0943 -3.1556 -2.0129
  753MOL0     H 3847   8.682   2.275   7.465  2.2077 -0.4643 -1.2878
  753MOL0     H 3848   8.730   2.430   7.460  1.6433 -2.5219 -0.3942
  753MOL0     H 3849   8.454   2.342   7.565  0.1188 -1.2264 -1.7045
  753MOL0     H 3850   8.506   2.508   7.571  2.7418  1.4662 -0.9540
  753MOL0     H 3851   8.370   2.505   7.370 -0.9140  0.7150  4.0461
  753MOL0     H 3852   8.534   2.482   7.299  1.3313 -2.7390 -0.8456
  753MOL0     H 3853   8.517   2.254   7.288  0.6900  1.0269 -1.1704
  753MOL0     H 3854   8.353   2.253   7.370 -1.8352  0.8171 -0.0688
  753MOL0     H 3855   8.348   2.213   7.135  2.4011 -0.6974  1.8195
  753MOL0     H 3856   8.408   2.361   7.076  0.1136 -2.1021 -0.8847
  753MOL0     H 3857   8.161   2.358   7.265  0.1582  1.8353  1.0543
  753MOL0     H 3858   8.202   2.485   7.154  0.9524  0.2387  2.3367
  753MOL0     H 3859   8.133   2.202   7.062 -0.7896 -0.0191 -3.3242
  753MOL0     H 3860   8.165   2.352   6.966  4.7867  0.7476  1.4758
  753MOL0     H 3861   7.983   2.441   7.125 -1.0204 -0.1167  0.3726
  753MOL0     H 3862   7.921   2.345   6.978 -2.2588  0.7038  0.2035
  753MOL0     H 3863   7.721   2.370   7.203  2.6559  1.4554  2.5121
  753MOL0     H 3864   7.554   2.037   7.261 -4.7602  2.0892 -2.1270
  753MOL0     H 3865   7.526   2.195   7.226 -0.4437 -3.0028 -2.7821
  753MOL0     H 3866   7.585   2.270   7.466 -0.4677  1.0143  0.1108
  753MOL0     H 3867   7.455   2.145   7.440 -0.2660  2.9953  0.8727
  753MOL0     H 3868   7.607   1.965   7.501  2.3499 -0.5219  0.0375
  753MOL0     H 3869   7.738   2.085   7.521 -0.1556  2.3348 -0.0311
  753MOL0     H 3870   7.654   2.031   7.738 -0.5324 -1.2750 -0.7543
  753MOL0     H 3871   7.620   2.194   7.712 -2.5443  2.1701 -2.4855
  753MOL0     H 3872   7.602   1.844   7.769 -0.0740 -0.1644 -1.6118
  753MOL0     H 3873   7.654   1.655   7.781  0.6669  0.1576 -2.4881
  753MOL0     H 3874   7.566   1.515   7.708 -2.3712  0.9635 -2.1582
  753MOL0     H 3875   7.524   1.554   7.873 -0.6846 -0.2133 -0.9178
  753MOL0     H 3876   6.945   1.370   7.779  1.3518  2.2790 -1.0489
  753MOL0     H 3877   6.922   1.134   7.753  1.5947  0.9580  1.0649
  753MOL0     H 3878   6.961   0.916   7.712 -0.0297 -1.9961  1.3577
  753MOL0     H 3879   6.832   0.920   7.586  0.1673 -1.6702 -0.6003
  753MOL0     H 3880   6.927   0.704   7.566 -1.5646  1.2982 -0.8639
  753MOL0     H 3881   6.997   0.790   7.430  0.2677  0.9864 -0.2479
  753MOL0     H 3882   7.147   0.758   7.713 -0.1701 -1.3013 -0.6095
  753MOL0     H 3883   7.207   0.820   7.566  1.0368 -1.0206 -1.2627
  753MOL0     H 3884   7.174   0.595   7.462  4.2755  0.0367 -0.6441
  753MOL0     H 3885   7.071   0.535   7.598  0.9316  0.2592  0.8188
  753MOL0     H 3886   7.361   0.604   7.640 -2.2450  1.4929 -2.1470
  753MOL0     H 3887   7.249   0.523   7.747  1.4257 -4.6209  1.1954
  753MOL0     H 3888   7.398   0.404   7.523 -1.0216  0.0869 -1.6104
  753MOL0     H 3889   7.221   0.362   7.529 -1.8944 -0.5679  2.1756
  753MOL0     H 3890   7.414   0.311   7.767 -0.0029  0.3144  0.3578
  753MOL0     H 3891   7.396   0.206   7.636  1.7682  2.7995 -0.9497
  753MOL0     H 3892   7.123   0.208   7.695 -2.8374 -2.3548  3.2949
  753MOL0     H 3893   7.194   0.301   7.836  0.4004  0.3740 -0.6586
  753MOL0     H 3894   7.135   1.162   7.381  4.1978 -0.0048  0.5917
  753MOL0     H 3895   7.206   1.384   7.444 -0.9113  0.0473 -0.1237
  753MOL0     H 3896   7.144   1.782   7.585 -0.1286 -0.9878  0.3389
  753MOL0     H 3897   7.242   1.984   7.589 -2.0248 -1.0225 -0.9097
  753MOL0     H 3898   8.941   2.384   7.546 -0.2238 -1.1381 -2.2371
  753MOL0     H 3899   9.119   2.188   7.580  1.5628  1.6183  2.2770
  753MOL0     H 3900   9.442   1.951   7.970 -1.0085  0.6318 -0.8542
  753MOL0     H 3901   9.531   1.770   8.074 -1.2991  6.0003  1.2021
  753MOL0     H 3902   9.535   1.575   8.186  2.8392  1.4600 -2.4562
  753MOL0     H 3903   9.555   1.410   8.172 -0.9339  0.7011  0.5718
  753MOL0     H 3904   9.676   1.596   7.960 -1.3874 -0.5100 -0.3131
  753MOL0     H 3905   9.680   1.425   7.950  0.3358 -0.7618 -0.0900
  753MOL0     H 3906   9.808   1.398   8.149 -0.6479 -0.7112 -0.2854
  753MOL0     H 3907   9.878   1.467   8.010 -0.3685 -3.3205  0.8074
  753MOL0     H 3908   9.807   1.700   8.157  1.8243  0.3291  0.9645
  753MOL0     H 3909   9.964   1.632   8.177  0.5728 -0.5666 -0.7426
  753MOL0     H 3910   9.770   1.533   8.535 -0.3023 -0.1912  0.3442
  753MOL0     H 3911   9.249   1.514   7.858 -0.7603  0.9679 -1.6085
  753MOL0     H 3912   9.087   1.769   7.679 -3.1002  0.9345  1.1924
  753MOL0     H 3913   9.125   1.599   7.698 -0.2292  1.5879 -2.1513
  753MOL0     H 3914   9.007   1.683   7.811 -0.3394  1.5101  1.0258
  754MOL0     O 3915   9.480   6.115   8.523  0.3041 -0.4833 -0.1202
  754MOL0     C 3916   9.562   6.206   8.541  0.2230  0.3103  0.5726
  754MOL0     O 3917   9.658   6.202   8.638  0.1353  0.2423  0.3578
  754MOL0     C 3918   9.678   6.094   8.718  0.3640  1.0385  0.2201
  754MOL0     C 3919   9.700   6.111   8.865  0.3672 -1.0528  0.1418
  754MOL0     C 3920   9.738   6.001   8.937 -0.4153 -0.3035  0.0065
  754MOL0     C 3921   9.773   5.874   8.882  0.1908  0.4875  0.3957
  754MOL0     O 3922   9.814   5.763   8.945 -0.5932 -0.0101 -0.0275
  754MOL0     C 3923   9.771   5.745   9.075 -0.5659 -0.2185  0.7587
  754MOL0     C 3924   9.796   5.607   9.132  0.7797  0.6551 -0.4593
  754MOL0     C 3925   9.939   5.547   9.154 -0.0434  0.1336  0.0840
  754MOL0     C 3926  10.006   5.597   9.277 -0.5231  1.0666  0.1236
  754MOL0     C 3927  10.138   5.534   9.306 -1.2308  0.7354  0.3189
  754MOL0     C 3928  10.206   5.604   9.418  0.1280  0.1885  0.7867
  754MOL0     C 3929  10.252   5.746   9.390  0.8627  0.1392  0.5848
  754MOL0     C 3930  10.305   5.811   9.518  0.5907 -0.3411  1.0809
  754MOL0     N 3931  10.396   5.743   9.593  0.3497 -0.0166  0.7941
  754MOL0     C 3932  10.517   5.690   9.557  0.7867  0.1508  0.4059
  754MOL0     C 3933  10.576   5.653   9.677  0.5382 -0.9562  0.2885
  754MOL0     C 3934  10.697   5.573   9.677  0.4635  0.0937 -0.5068
  754MOL0     C 3935  10.828   5.663   9.643 -0.4303 -0.8034 -0.7602
  754MOL0     C 3936  10.956   5.573   9.635  0.8299 -0.0206  0.2040
  754MOL0     C 3937  11.076   5.643   9.562 -0.0165 -0.3653 -0.4997
  754MOL0     O 3938  11.195   5.649   9.644  0.2306 -0.5368  0.0093
  754MOL0     C 3939  11.309   5.698   9.598 -0.5013  0.0134  0.3039
  754MOL0     C 3940  11.320   5.805   9.501  0.9966  0.2743 -1.0506
  754MOL0     C 3941  11.451   5.845   9.467 -0.3065  0.2379 -0.4598
  754MOL0     C 3942  11.467   5.952   9.363  0.2292 -0.5751 -0.1875
  754MOL0     C 3943  11.567   5.785   9.526 -0.0695 -0.3922 -0.0121
  754MOL0     C 3944  11.712   5.822   9.500 -0.0171 -0.3620 -1.5430
  754MOL0     O 3945  11.806   5.730   9.525 -0.5255 -0.2267  0.3247
  754MOL0     C 3946  11.936   5.776   9.531  0.5775  1.1557  0.7518
  754MOL0     C 3947  12.012   5.810   9.417 -0.8217 -0.8126 -0.3527
  754MOL0     C 3948  12.143   5.841   9.423 -0.0720  1.0966 -0.5952
  754MOL0     C 3949  12.201   5.848   9.544  0.2918  0.8376 -0.0613
  754MOL0     O 3950  12.330   5.876   9.565  0.1545 -0.8715 -0.2160
  754MOL0     C 3951  12.408   5.775   9.639 -0.0553 -0.3434  0.2803
  754MOL0     C 3952  12.508   5.694   9.555  0.1922  0.7522  0.6220
  754MOL0     C 3953  12.444   5.600   9.449  0.5751 -0.3187 -0.0202
  754MOL0     C 3954  12.393   5.457   9.500  0.9136 -0.0468  0.2729
  754MOL0     C 3955  12.245   5.473   9.564  0.8246  0.2179 -0.7518
  754MOL0     C 3956  12.163   5.352   9.575 -0.0972  0.4920 -0.0218
  754MOL0     C 3957  12.230   5.256   9.684  0.5099 -0.1898  0.2476
  754MOL0     C 3958  12.144   5.137   9.701  0.3571 -0.5120  0.1361
  754MOL0    Cl 3959  12.203   5.015   9.804 -0.2977  0.1286 -0.2567
  754MOL0     C 3960  12.123   5.822   9.661  0.1437  0.0506 -0.3415
  754MOL0     C 3961  11.993   5.777   9.648  0.8043 -0.2538  0.1214
  754MOL0     O 3962  11.735   5.934   9.462 -0.9124  0.0662 -0.1376
  754MOL0     C 3963  11.546   5.671   9.610 -0.3190 -0.8115 -0.6996
  754MOL0     C 3964  11.424   5.632   9.643 -0.1882 -0.0096  0.0144
  754MOL0     N 3965  10.490   5.672   9.780  0.3557  0.3720 -0.9253
  754MOL0     N 3966  10.392   5.743   9.726 -0.3578  0.3733  0.1624
  754MOL0     C 3967   9.743   5.863   8.746  0.4727  0.5614  0.0901
  754MOL0     C 3968   9.700   5.969   8.659  0.4982 -0.0278  0.4422
  754MOL0     C 3969   9.565   6.316   8.439  0.0902  0.6595 -0.5808
  754MOL0     C 3970   9.445   6.362   8.382 -0.2431 -0.2483  0.0458
  754MOL0     C 3971   9.444   6.473   8.299 -0.4764  0.4222 -0.1958
  754MOL0     C 3972   9.560   6.541   8.258  0.1979 -0.1301  0.1886
  754MOL0     O 3973   9.538   6.652   8.180 -0.1350 -0.2924  0.0538
  754MOL0     C 3974   9.638   6.702   8.110 -0.4136 -0.3394 -0.3436
  754MOL0     C 3975   9.574   6.784   7.997  0.2700  0.7998 -0.4390
  754MOL0     C 3976   9.524   6.709   7.878 -0.8104 -1.4734 -0.2818
  754MOL0     C 3977   9.379   6.669   7.887  0.2857 -0.0392  0.1684
  754MOL0     C 3978   9.352   6.598   7.764  0.5108  0.1506  0.2014
  754MOL0     C 3979   9.343   6.530   7.666  0.1355 -1.0477 -0.1065
  754MOL0     C 3980   9.681   6.480   8.305 -0.2427 -0.7137  0.9678
  754MOL0     C 3981   9.682   6.376   8.395 -0.0338 -0.2135 -0.6268
  754MOL0     C 3982   9.823   6.333   8.432  0.0549  0.1355  0.1790
  754MOL0     H 3983   9.679   6.209   8.908 -1.4282 -0.5938 -1.6169
  754MOL0     H 3984   9.741   6.010   9.046  3.2568  0.6369 -0.0121
  754MOL0     H 3985   9.665   5.771   9.088 -0.3975  0.3751  0.9755
  754MOL0     H 3986   9.832   5.805   9.143  1.4433 -1.7992  0.4229
  754MOL0     H 3987   9.754   5.608   9.233  0.5175  1.2442 -0.5743
  754MOL0     H 3988   9.727   5.552   9.068 -0.2744  0.7690  0.5500
  754MOL0     H 3989   9.935   5.438   9.170  0.1588  0.2145  0.7021
  754MOL0     H 3990   9.997   5.570   9.065 -0.9314  0.4744 -0.4247
  754MOL0     H 3991  10.021   5.702   9.249  1.7834  0.3855 -1.5408
  754MOL0     H 3992   9.934   5.588   9.359 -1.5195  1.3146 -0.7046
  754MOL0     H 3993  10.197   5.530   9.215  0.3447  2.2169  1.2228
  754MOL0     H 3994  10.113   5.430   9.330 -0.8428  0.5821  0.0571
  754MOL0     H 3995  10.149   5.602   9.512 -0.7206  0.3578  0.2831
  754MOL0     H 3996  10.293   5.540   9.438  0.1724 -0.4288 -1.1859
  754MOL0     H 3997  10.162   5.797   9.356  1.4592  0.0697 -1.1960
  754MOL0     H 3998  10.333   5.737   9.316  2.7313  0.5199  2.4882
  754MOL0     H 3999  10.351   5.900   9.473  0.6990 -1.8191 -1.9535
  754MOL0     H 4000  10.212   5.826   9.574 -0.9882 -0.8729 -1.2495
  754MOL0     H 4001  10.567   5.679   9.461 -1.4821 -1.0339 -0.7185
  754MOL0     H 4002  10.679   5.497   9.601  0.4558  0.2347 -0.6483
  754MOL0     H 4003  10.699   5.524   9.774 -0.1995  3.3403  1.2939
  754MOL0     H 4004  10.821   5.716   9.547  2.6784  0.9504 -0.1380
  754MOL0     H 4005  10.853   5.738   9.719 -1.2591  0.7183 -1.9269
  754MOL0     H 4006  10.991   5.541   9.734 -0.6612  0.9332  1.0710
  754MOL0     H 4007  10.924   5.486   9.577  3.0509 -0.1564 -0.9135
  754MOL0     H 4008  11.093   5.593   9.467 -0.3054 -0.7897 -0.3313
  754MOL0     H 4009  11.043   5.747   9.553  1.8163  0.1320 -2.0262
  754MOL0     H 4010  11.232   5.861   9.471  0.2087  0.8410  1.9834
  754MOL0     H 4011  11.512   6.048   9.393  1.4921 -0.5374 -2.0715
  754MOL0     H 4012  11.368   5.973   9.323  0.2292  0.5088  0.3331
  754MOL0     H 4013  11.523   5.921   9.275 -1.7154  0.4503 -1.8638
  754MOL0     H 4014  11.968   5.812   9.318  0.3907  1.3884 -0.9187
  754MOL0     H 4015  12.214   5.854   9.343  0.9785 -0.4102  0.0531
  754MOL0     H 4016  12.463   5.828   9.717 -0.7912 -0.6641  1.0371
  754MOL0     H 4017  12.343   5.716   9.704 -0.1231 -0.6250 -0.0458
  754MOL0     H 4018  12.570   5.764   9.498 -2.7067  0.9109 -2.6706
  754MOL0     H 4019  12.567   5.626   9.617 -0.2237  2.9212  3.6640
  754MOL0     H 4020  12.513   5.589   9.365  1.4523  1.1296  0.4843
  754MOL0     H 4021  12.362   5.652   9.398  0.4064 -2.9410 -2.7259
  754MOL0     H 4022  12.461   5.421   9.577 -0.4797  0.9220  2.0237
  754MOL0     H 4023  12.382   5.399   9.408 -0.5520 -0.4089  0.6474
  754MOL0     H 4024  12.247   5.513   9.666 -2.6465 -0.8373 -0.1341
  754MOL0     H 4025  12.187   5.546   9.507 -2.5150 -1.7378 -0.0879
  754MOL0     H 4026  12.163   5.288   9.487  0.6447 -1.6326  1.4470
  754MOL0     H 4027  12.063   5.383   9.606 -0.3196  2.5405 -2.4844
  754MOL0     H 4028  12.253   5.308   9.778  0.4070  1.3584 -0.5653
  754MOL0     H 4029  12.327   5.217   9.650 -0.1723 -1.0134 -0.8158
  754MOL0     H 4030  12.112   5.096   9.604  1.1783 -1.2203  0.1512
  754MOL0     H 4031  12.049   5.168   9.744  1.9694 -0.9034  4.4298
  754MOL0     H 4032  12.174   5.817   9.756 -0.1212 -3.8889 -0.2436
  754MOL0     H 4033  11.924   5.733   9.720  0.7865 -2.3567 -1.1009
  754MOL0     H 4034  11.632   5.617   9.647 -1.3002 -0.7881  1.7745
  754MOL0     H 4035  11.416   5.544   9.707 -0.5686 -0.1264 -0.1909
  754MOL0     H 4036   9.761   5.766   8.701  4.5229 -0.2649  2.9247
  754MOL0     H 4037   9.693   5.959   8.551 -3.1764 -2.4611  0.7128
  754MOL0     H 4038   9.348   6.318   8.404  1.1053 -2.9255  1.0720
  754MOL0     H 4039   9.352   6.514   8.258 -0.3398 -0.2038 -1.1621
  754MOL0     H 4040   9.688   6.759   8.189 -2.6666 -0.2782  1.1296
  754MOL0     H 4041   9.715   6.632   8.076  1.8345  1.2923  1.0742
  754MOL0     H 4042   9.646   6.860   7.968  0.7823  1.2814  1.8898
  754MOL0     H 4043   9.487   6.841   8.031 -3.2553 -3.2452 -1.6994
  754MOL0     H 4044   9.538   6.775   7.792 -2.2471 -0.1719  0.4227
  754MOL0     H 4045   9.581   6.617   7.865 -0.6589 -1.3970 -0.1543
  754MOL0     H 4046   9.324   6.763   7.881 -0.4503 -0.5051 -0.6158
  754MOL0     H 4047   9.353   6.627   7.984  0.2533  3.7405  1.9619
  754MOL0     H 4048   9.338   6.465   7.581  0.0947 -2.0651  0.6563
  754MOL0     H 4049   9.768   6.533   8.268 -0.4718 -0.3403  0.9609
  754MOL0     H 4050   9.895   6.330   8.350 -0.6627 -0.6477 -0.4377
  754MOL0     H 4051   9.863   6.395   8.514  0.0268  0.2783  0.0843
  754MOL0     H 4052   9.811   6.230   8.467  3.0777  0.2747  1.9814
  755MOL0     O 4053   9.571   9.999   9.757 -0.1000  0.4401 -0.0795
  755MOL0     C 4054   9.506   9.993   9.858  0.3804  0.8841  0.1580
  755MOL0     O 4055   9.464   9.878   9.921  0.0811 -0.4827  0.8541
  755MOL0     C 4056   9.511   9.755   9.886 -0.2752  0.2325  0.5333
  755MOL0     C 4057   9.651   9.734   9.854  0.1892 -0.6273  0.2052
  755MOL0     C 4058   9.692   9.612   9.816 -0.3547  0.5924  0.5160
  755MOL0     C 4059   9.608   9.503   9.800 -0.0495  0.2208  0.3920
  755MOL0     O 4060   9.641   9.367   9.756  0.1916  0.2425  0.2986
  755MOL0     C 4061   9.780   9.339   9.718 -0.3224  0.5462 -0.3934
  755MOL0     C 4062   9.832   9.193   9.715 -0.0442  0.4328  1.1557
  755MOL0     C 4063   9.755   9.106   9.822 -1.0442 -0.7434  0.0175
  755MOL0     C 4064   9.763   9.166   9.963 -0.9997  0.4246 -0.1575
  755MOL0     C 4065   9.912   9.185  10.006  0.7444 -0.0196 -0.7458
  755MOL0     C 4066   9.909   9.224  10.155  0.4829  0.2212 -0.1190
  755MOL0     C 4067  10.032   9.176  10.235  1.3067  0.0509  0.0133
  755MOL0     C 4068  10.007   9.195  10.392 -0.2212  0.2687  0.2619
  755MOL0     N 4069  10.120   9.149  10.471 -0.2324 -0.0687  0.7105
  755MOL0     C 4070  10.233   9.226  10.490 -0.5407 -0.4566 -1.0486
  755MOL0     C 4071  10.307   9.150  10.567  1.1526 -0.1420 -0.3321
  755MOL0     C 4072  10.432   9.183  10.625 -0.1629 -0.3398 -0.3037
  755MOL0     C 4073  10.553   9.123  10.557  0.7715  1.1161 -0.1273
  755MOL0     C 4074  10.678   9.193  10.565 -0.4551  0.3222 -0.7299
  755MOL0     C 4075  10.757   9.154  10.693 -0.3479  0.3786 -0.0052
  755MOL0     O 4076  10.758   9.015  10.736  1.0297  0.9117 -0.0202
  755MOL0     C 4077  10.826   8.920  10.661 -0.6738 -0.0786 -0.2246
  755MOL0     C 4078  10.794   8.792  10.694 -2.1694  0.0437  0.2823
  755MOL0     C 4079  10.871   8.690  10.645 -0.1279  0.6321 -0.5280
  755MOL0     C 4080  10.842   8.558  10.715 -0.2505 -0.5159 -0.0852
  755MOL0     C 4081  10.978   8.713  10.552  0.3450  0.1741  0.7595
  755MOL0     C 4082  11.069   8.611  10.488 -0.6359  0.3487 -0.0765
  755MOL0     O 4083  11.131   8.649  10.370 -0.8298 -0.5536 -0.3863
  755MOL0     C 4084  11.164   8.542  10.299  0.3401  0.2011 -0.4070
  755MOL0     C 4085  11.062   8.451  10.252 -0.5665 -0.3932 -0.3182
  755MOL0     C 4086  11.103   8.332  10.188 -0.0163  0.4694  0.7665
  755MOL0     C 4087  11.232   8.292  10.183 -0.8298 -0.1682 -0.2966
  755MOL0     O 4088  11.262   8.165  10.131  0.2873 -0.1695 -0.6059
  755MOL0     C 4089  11.352   8.092  10.214  0.0431 -0.3529 -0.9531
  755MOL0     C 4090  11.348   7.942  10.179 -0.3912  0.3213 -0.3215
  755MOL0     C 4091  11.439   7.923  10.057 -0.0905  0.4445 -0.3109
  755MOL0     C 4092  11.389   7.800   9.976  0.3037  0.2356 -0.2056
  755MOL0     C 4093  11.408   7.669  10.053 -0.9392 -0.9815 -0.1262
  755MOL0     C 4094  11.406   7.534   9.974 -0.3070 -0.3065 -0.9858
  755MOL0     C 4095  11.525   7.498   9.882  0.1091 -1.1942 -0.7718
  755MOL0     C 4096  11.495   7.465   9.739 -0.6072 -0.0063  0.0929
  755MOL0    Cl 4097  11.414   7.602   9.660  0.4190 -0.3302 -0.1002
  755MOL0     C 4098  11.335   8.377  10.225 -0.2824  0.2726  0.0048
  755MOL0     C 4099  11.300   8.501  10.290  0.8160  0.6308  0.6399
  755MOL0     O 4100  11.078   8.502  10.548  0.4538 -0.1994 -0.7879
  755MOL0     C 4101  11.005   8.844  10.513  0.7302 -0.7038  0.0017
  755MOL0     C 4102  10.920   8.945  10.562  0.3223 -0.5210 -1.1811
  755MOL0     N 4103  10.242   9.035  10.596 -0.2416  0.1391 -0.5103
  755MOL0     N 4104  10.128   9.035  10.537  0.2609  0.3928 -0.1202
  755MOL0     C 4105   9.470   9.526   9.822  0.3769 -0.2248 -0.2955
  755MOL0     C 4106   9.427   9.639   9.881  0.0614 -0.0402  0.1889
  755MOL0     C 4107   9.473  10.123   9.910  0.4137  0.3680  0.7501
  755MOL0     C 4108   9.580  10.217   9.923  0.0717 -0.7053 -1.0066
  755MOL0     C 4109   9.549  10.352   9.969  0.4062  0.2066  0.1878
  755MOL0     C 4110   9.422  10.390  10.004 -0.2348  0.0908  0.4077
  755MOL0     O 4111   9.390  10.524  10.042  0.3156  0.2575 -0.9536
  755MOL0     C 4112   9.257  10.565  10.088 -0.0008  0.3426 -0.6605
  755MOL0     C 4113   9.255  10.681  10.194 -0.7645 -1.1769 -0.7586
  755MOL0     C 4114   9.250  10.808  10.106 -0.0133 -0.8225  0.1777
  755MOL0     C 4115   9.229  10.930  10.195 -0.1080  0.9004  0.6860
  755MOL0     C 4116   9.235  11.052  10.115  1.1167  0.2835 -0.2543
  755MOL0     C 4117   9.220  11.155  10.056 -0.9230  0.4783  0.2586
  755MOL0     C 4118   9.317  10.294   9.993 -0.4733 -0.0860  0.0206
  755MOL0     C 4119   9.342  10.160   9.959 -0.0098  1.4993 -0.0265
  755MOL0     C 4120   9.225  10.059   9.981  0.1576 -0.6143 -0.2419
  755MOL0     H 4121   9.729   9.809   9.845 -1.2273  0.8766 -0.1594
  755MOL0     H 4122   9.797   9.599   9.790 -0.8444  1.9703 -2.5995
  755MOL0     H 4123   9.856   9.386   9.781 -0.3554  2.3140 -1.6072
  755MOL0     H 4124   9.788   9.397   9.625 -2.5408  3.2794  0.9686
  755MOL0     H 4125   9.823   9.157   9.613 -0.2296  0.1566  1.2678
  755MOL0     H 4126   9.940   9.201   9.731  0.2471 -1.2522  0.2405
  755MOL0     H 4127   9.651   9.104   9.787 -0.9786  0.3793 -0.2665
  755MOL0     H 4128   9.803   9.008   9.825  3.3623  1.1210 -1.7488
  755MOL0     H 4129   9.708   9.261   9.964  0.8284  1.5512 -0.3192
  755MOL0     H 4130   9.711   9.096  10.029 -1.4106  1.2685  0.4331
  755MOL0     H 4131   9.955   9.259   9.938 -2.8721  0.4502 -2.7751
  755MOL0     H 4132   9.966   9.090  10.005  1.4616  0.3821 -2.5920
  755MOL0     H 4133   9.895   9.330  10.178 -0.1838  0.5338 -1.8185
  755MOL0     H 4134   9.820   9.185  10.205 -0.0784  0.7814 -0.6779
  755MOL0     H 4135  10.108   9.248  10.204 -1.6175  2.7670 -1.3657
  755MOL0     H 4136  10.058   9.073  10.208 -4.3626 -1.8114  0.1833
  755MOL0     H 4137   9.995   9.302  10.413 -0.1289  0.4681 -0.6935
  755MOL0     H 4138   9.920   9.142  10.433 -2.1135  1.8104 -1.5189
  755MOL0     H 4139  10.255   9.318  10.437  3.1368 -2.1756 -2.9031
  755MOL0     H 4140  10.441   9.138  10.724 -2.2607  2.4411  1.3076
  755MOL0     H 4141  10.442   9.291  10.610  0.3750 -0.1767  1.0742
  755MOL0     H 4142  10.572   9.023  10.597  1.9627  1.5296  0.3929
  755MOL0     H 4143  10.537   9.108  10.450  1.2344  0.7256 -0.1428
  755MOL0     H 4144  10.737   9.170  10.476  1.5057  0.8359  0.3661
  755MOL0     H 4145  10.659   9.300  10.562  1.1408  0.6017 -2.1079
  755MOL0     H 4146  10.861   9.186  10.689 -0.9167  2.2101 -2.2762
  755MOL0     H 4147  10.705   9.216  10.766 -2.0079  1.0555 -1.6733
  755MOL0     H 4148  10.723   8.768  10.773 -0.1755 -0.8333  1.9131
  755MOL0     H 4149  10.795   8.555  10.814 -1.5909 -0.3083 -0.6954
  755MOL0     H 4150  10.934   8.499  10.726  1.9588  2.3792 -1.7415
  755MOL0     H 4151  10.774   8.501  10.651 -0.8972  0.0184  0.1171
  755MOL0     H 4152  10.957   8.478  10.260 -0.2858  0.0061  3.2165
  755MOL0     H 4153  11.027   8.268  10.144 -0.6450  1.6164  0.1276
  755MOL0     H 4154  11.452   8.131  10.195 -1.5429  2.5193 -4.6234
  755MOL0     H 4155  11.319   8.107  10.317 -0.5265 -1.3798 -0.9687
  755MOL0     H 4156  11.383   7.893  10.270  0.6435 -0.0206 -0.8917
  755MOL0     H 4157  11.247   7.911  10.149  0.0325  0.6274 -2.1868
  755MOL0     H 4158  11.543   7.915  10.091 -1.0904 -0.9300  2.7321
  755MOL0     H 4159  11.435   8.004   9.983 -0.2580 -0.3851 -1.2332
  755MOL0     H 4160  11.443   7.797   9.881  3.6922  2.5484  1.4378
  755MOL0     H 4161  11.284   7.813   9.949  0.3833  1.4224 -0.0050
  755MOL0     H 4162  11.511   7.690  10.080  0.0939 -1.6507 -3.1407
  755MOL0     H 4163  11.345   7.674  10.142 -0.2552 -0.6568  0.3424
  755MOL0     H 4164  11.309   7.526   9.924 -0.9954  0.2220  0.2237
  755MOL0     H 4165  11.405   7.455  10.049  2.0169 -0.7446 -1.3287
  755MOL0     H 4166  11.557   7.399   9.915  0.8856  0.0012  2.4399
  755MOL0     H 4167  11.603   7.575   9.879 -1.5840  0.7076  0.7772
  755MOL0     H 4168  11.425   7.381   9.736 -0.9832  0.0969  2.8155
  755MOL0     H 4169  11.584   7.437   9.682 -0.6468 -0.0620  0.0568
  755MOL0     H 4170  11.437   8.340  10.215 -0.8945 -0.8386 -4.1512
  755MOL0     H 4171  11.388   8.552  10.329  1.7220  0.5941 -1.2450
  755MOL0     H 4172  11.094   8.865  10.454  1.2154 -1.8008  0.3100
  755MOL0     H 4173  10.939   9.047  10.529  1.0666  0.5600  2.2143
  755MOL0     H 4174   9.412   9.438   9.795  0.8040 -0.1365 -1.5536
  755MOL0     H 4175   9.327   9.636   9.923  0.0510 -2.8536  0.1636
  755MOL0     H 4176   9.683  10.187   9.908  0.4763  0.3387 -0.4403
  755MOL0     H 4177   9.631  10.421   9.985 -3.1367  4.8346  0.6198
  755MOL0     H 4178   9.200  10.584   9.997  0.0038 -1.3575 -1.0636
  755MOL0     H 4179   9.217  10.473  10.132  2.1808 -0.1891  0.3198
  755MOL0     H 4180   9.348  10.677  10.251  0.9917 -0.8326 -3.3898
  755MOL0     H 4181   9.166  10.671  10.257 -0.3655  3.3574  0.8995
  755MOL0     H 4182   9.342  10.827  10.051  0.0316 -1.4264  0.0449
  755MOL0     H 4183   9.170  10.800  10.032  0.5819 -0.3823 -0.5304
  755MOL0     H 4184   9.308  10.943  10.270  0.1859 -0.6561  0.6945
  755MOL0     H 4185   9.140  10.919  10.258 -1.3894 -1.5857 -1.3846
  755MOL0     H 4186   9.194  11.242   9.998  0.8673  1.2505  0.5275
  755MOL0     H 4187   9.211  10.308  10.015 -0.5261 -1.0245  0.4172
  755MOL0     H 4188   9.145  10.091   9.913 -0.6422  0.3735  1.0978
  755MOL0     H 4189   9.238   9.957   9.943 -0.8749 -0.6629 -0.4932
  755MOL0     H 4190   9.177  10.059  10.079 -0.1485  1.0804 -0.3506
  756MOL0     O 4191   1.316   6.078   2.552 -0.8967  0.0251 -0.4554
  756MOL0     C 4192   1.345   6.050   2.663  0.1554  0.1947 -0.1468
  756MOL0     O 4193   1.398   5.929   2.701  1.2079 -0.9220  1.0087
  756MOL0     C 4194   1.396   5.825   2.612 -0.6967 -0.6849  0.1560
  756MOL0     C 4195   1.456   5.818   2.491  1.0371 -0.0896  0.5276
  756MOL0     C 4196   1.425   5.711   2.406  0.0497 -0.6471  0.3705
  756MOL0     C 4197   1.345   5.603   2.451 -0.4907 -0.8213  0.4664
  756MOL0     O 4198   1.334   5.487   2.376  0.1282 -0.4337  0.0278
  756MOL0     C 4199   1.313   5.504   2.232  0.3019 -0.3447  0.7063
  756MOL0     C 4200   1.308   5.352   2.187  0.8937 -0.2237  0.5463
  756MOL0     C 4201   1.190   5.273   2.247  0.7029  0.3939  0.1290
  756MOL0     C 4202   1.169   5.139   2.195 -1.3802  0.6546  0.2339
  756MOL0     C 4203   1.077   5.129   2.072  0.0472  0.3990 -0.1245
  756MOL0     C 4204   1.060   4.984   2.019 -0.5893  0.7483  0.6542
  756MOL0     C 4205   0.950   4.986   1.917  0.5756  0.3632  0.2420
  756MOL0     C 4206   0.941   4.871   1.825 -0.0685  0.9151 -0.3495
  756MOL0     N 4207   0.861   4.755   1.866 -0.0867 -0.4932 -0.7325
  756MOL0     C 4208   0.735   4.749   1.893  0.6196 -0.3455 -0.2748
  756MOL0     C 4209   0.698   4.628   1.945  0.2181 -0.0267  0.4202
  756MOL0     C 4210   0.567   4.592   2.010  1.7253  0.3212  0.2047
  756MOL0     C 4211   0.448   4.651   1.936 -0.7218 -0.8017 -0.2485
  756MOL0     C 4212   0.410   4.786   2.011  0.3890  0.8540 -0.2177
  756MOL0     C 4213   0.319   4.869   1.931  0.0090  0.3900  0.4158
  756MOL0     O 4214   0.282   4.987   2.008 -0.2764 -1.1062  0.0232
  756MOL0     C 4215   0.192   4.969   2.109 -0.4367 -1.6426 -0.2902
  756MOL0     C 4216   0.064   4.930   2.086 -1.4050  0.3785  0.2732
  756MOL0     C 4217  -0.023   4.920   2.193  0.3626  0.3375  0.3796
  756MOL0     C 4218  -0.170   4.867   2.147 -0.4729  0.5207 -0.7889
  756MOL0     C 4219   0.015   4.964   2.325  0.2144  0.8827  0.3915
  756MOL0     C 4220  -0.081   4.958   2.441 -0.0998 -0.7267 -0.2749
  756MOL0     O 4221  -0.198   4.889   2.430 -0.0187 -0.4415 -0.1812
  756MOL0     C 4222  -0.289   4.896   2.531  1.1850 -0.3727 -0.7630
  756MOL0     C 4223  -0.262   4.893   2.670 -0.3654  0.3084  0.0210
  756MOL0     C 4224  -0.366   4.908   2.765 -0.4092  0.5869 -0.8708
  756MOL0     C 4225  -0.498   4.914   2.724 -0.0558  0.5969  0.5143
  756MOL0     O 4226  -0.614   4.898   2.783  0.3453  0.8717 -0.2591
  756MOL0     C 4227  -0.603   4.830   2.907 -0.3202  0.1733 -0.2549
  756MOL0     C 4228  -0.736   4.834   2.971  0.2303 -0.0667  0.0454
  756MOL0     C 4229  -0.848   4.824   2.864  0.1677 -0.0065  0.4867
  756MOL0     C 4230  -0.843   4.680   2.799  0.6075 -0.6089 -0.3269
  756MOL0     C 4231  -0.945   4.652   2.679 -0.4315  0.3854  1.0301
  756MOL0     C 4232  -1.072   4.566   2.712  0.0188 -0.4725  0.1701
  756MOL0     C 4233  -1.141   4.540   2.583 -0.0992  0.7855 -0.6334
  756MOL0     C 4234  -1.282   4.476   2.624 -0.6502  0.4790 -0.0430
  756MOL0    Cl 4235  -1.315   4.345   2.498 -0.0513  0.2249 -0.3692
  756MOL0     C 4236  -0.524   4.926   2.589  0.3383 -0.9414  0.7631
  756MOL0     C 4237  -0.425   4.916   2.500  0.3421 -1.0070  0.5812
  756MOL0     O 4238  -0.045   5.021   2.545 -0.0048  0.0711  0.1104
  756MOL0     C 4239   0.148   5.008   2.346  0.2596  0.6450  0.3027
  756MOL0     C 4240   0.239   5.005   2.238 -0.5032 -0.5247 -0.0565
  756MOL0     N 4241   0.816   4.557   1.961 -0.9651 -0.4271 -0.0174
  756MOL0     N 4242   0.908   4.634   1.905  0.1869 -0.0986  0.7617
  756MOL0     C 4243   1.304   5.607   2.580  0.7049 -0.1053 -0.0920
  756MOL0     C 4244   1.328   5.714   2.663  0.7289  0.3665 -0.0200
  756MOL0     C 4245   1.318   6.156   2.769 -0.4943 -0.5763 -0.0855
  756MOL0     C 4246   1.231   6.269   2.737 -0.0912  0.1516  0.0706
  756MOL0     C 4247   1.187   6.360   2.829 -0.0008 -0.1011 -1.2435
  756MOL0     C 4248   1.229   6.357   2.967  0.0932  0.2955 -0.4543
  756MOL0     O 4249   1.191   6.454   3.062 -0.5522  1.0380  0.9294
  756MOL0     C 4250   1.075   6.539   3.053  1.0683  0.6678  0.6449
  756MOL0     C 4251   1.118   6.679   3.013  0.4428 -0.8089  0.0224
  756MOL0     C 4252   0.979   6.764   3.012 -0.9750  0.2486  0.9339
  756MOL0     C 4253   1.020   6.912   3.010 -0.4332 -1.4577  0.4369
  756MOL0     C 4254   0.895   6.980   3.041 -0.0664 -0.7059  0.3391
  756MOL0     C 4255   0.780   7.031   3.071  0.6889  0.5064 -0.8259
  756MOL0     C 4256   1.310   6.244   3.003 -0.1665 -0.8727 -0.2616
  756MOL0     C 4257   1.340   6.147   2.904 -0.3768  0.3577  0.3604
  756MOL0     C 4258   1.412   6.031   2.966  0.1131  0.5580  0.6718
  756MOL0     H 4259   1.529   5.891   2.458 -1.7322  1.9103 -1.7027
  756MOL0     H 4260   1.467   5.718   2.305  1.6625  0.0699  1.0542
  756MOL0     H 4261   1.401   5.546   2.182  0.8581 -2.4401 -0.1519
  756MOL0     H 4262   1.222   5.563   2.214  0.7997  0.6906  1.4665
  756MOL0     H 4263   1.297   5.356   2.078 -0.4884  0.7228  0.7022
  756MOL0     H 4264   1.403   5.305   2.211 -0.1875 -2.2687  1.0113
  756MOL0     H 4265   1.218   5.260   2.352  1.4980 -0.1722 -0.1416
  756MOL0     H 4266   1.100   5.334   2.235  0.2765 -0.2813 -0.1900
  756MOL0     H 4267   1.264   5.089   2.178 -1.2340 -1.0380  4.6338
  756MOL0     H 4268   1.121   5.091   2.281 -2.2189  1.2125  0.0881
  756MOL0     H 4269   1.116   5.201   2.000  3.1726  0.3120  1.3227
  756MOL0     H 4270   0.983   5.172   2.109 -0.2182  1.5842 -2.0789
  756MOL0     H 4271   1.143   4.936   1.966 -1.2980 -1.6497  1.5709
  756MOL0     H 4272   1.037   4.925   2.108  1.2260  0.4230  0.9388
  756MOL0     H 4273   0.973   5.065   1.846  0.6230  0.0933 -0.0447
  756MOL0     H 4274   0.852   5.009   1.962  1.1161 -1.5247  2.6113
  756MOL0     H 4275   0.905   4.912   1.731 -2.5192  0.6148  0.3874
  756MOL0     H 4276   1.041   4.830   1.805 -0.3442  1.0952 -2.3090
  756MOL0     H 4277   0.669   4.835   1.887  1.1181  0.1760  1.1449
  756MOL0     H 4278   0.565   4.619   2.116  1.0998 -2.2838  0.9183
  756MOL0     H 4279   0.565   4.484   1.999  0.8123  0.3193  0.3470
  756MOL0     H 4280   0.480   4.676   1.835 -0.6299  1.1708  0.2224
  756MOL0     H 4281   0.366   4.579   1.939 -1.4463 -0.1041 -2.0681
  756MOL0     H 4282   0.363   4.752   2.104 -0.9702  0.4806 -1.0149
  756MOL0     H 4283   0.495   4.850   2.038 -0.6124  1.5562  1.4387
  756MOL0     H 4284   0.374   4.895   1.840 -0.6766 -2.4114 -0.8971
  756MOL0     H 4285   0.235   4.804   1.905 -0.9763  1.9820 -0.6239
  756MOL0     H 4286   0.026   4.912   1.986  0.2487 -0.5760 -0.2158
  756MOL0     H 4287  -0.194   4.787   2.218  1.2531  1.6915  1.2121
  756MOL0     H 4288  -0.172   4.824   2.046  2.9256 -1.1519 -0.2554
  756MOL0     H 4289  -0.237   4.954   2.156  1.2911  1.7779  0.9947
  756MOL0     H 4290  -0.160   4.894   2.705  0.3661  0.8736 -1.9705
  756MOL0     H 4291  -0.344   4.894   2.870  0.8940 -1.2887 -1.3394
  756MOL0     H 4292  -0.555   4.733   2.892  0.2226  0.5953 -1.3251
  756MOL0     H 4293  -0.550   4.889   2.982 -1.6894 -0.6799  1.4434
  756MOL0     H 4294  -0.728   4.742   3.030  3.1857 -1.5082 -2.3203
  756MOL0     H 4295  -0.747   4.926   3.030 -1.2744 -0.1475 -0.0737
  756MOL0     H 4296  -0.844   4.892   2.779  0.1040 -2.3139 -1.4363
  756MOL0     H 4297  -0.946   4.834   2.912 -0.2558  1.3529 -0.5951
  756MOL0     H 4298  -0.850   4.603   2.875  2.4973 -0.1638  0.3433
  756MOL0     H 4299  -0.745   4.673   2.750  0.5620  3.2592 -1.2780
  756MOL0     H 4300  -0.968   4.747   2.629  0.8268 -0.2385 -0.8195
  756MOL0     H 4301  -0.895   4.581   2.613  0.5934 -0.5647  2.7472
  756MOL0     H 4302  -1.141   4.625   2.773  1.0731  0.3965  0.5500
  756MOL0     H 4303  -1.054   4.473   2.766 -3.2073 -0.4195  1.5587
  756MOL0     H 4304  -1.067   4.478   2.533  2.0955  3.5525 -1.0925
  756MOL0     H 4305  -1.151   4.633   2.526 -0.9702  0.5234 -0.9230
  756MOL0     H 4306  -1.364   4.548   2.621 -1.8031 -0.7893 -0.2432
  756MOL0     H 4307  -1.267   4.423   2.719 -1.2976  0.5438  0.0988
  756MOL0     H 4308  -0.628   4.936   2.561 -0.2384  0.0209  2.9562
  756MOL0     H 4309  -0.441   4.933   2.394 -0.7609 -0.4668  0.8195
  756MOL0     H 4310   0.189   5.047   2.439  1.5659  0.3028 -0.1087
  756MOL0     H 4311   0.337   5.048   2.256 -0.2894 -1.6048  1.6044
  756MOL0     H 4312   1.270   5.511   2.617  2.5929 -0.7528  0.0803
  756MOL0     H 4313   1.281   5.716   2.760 -0.5851  0.5046 -0.6468
  756MOL0     H 4314   1.204   6.285   2.633 -3.3938  1.8323  1.0396
  756MOL0     H 4315   1.130   6.445   2.793  0.8385  0.8180 -0.4831
  756MOL0     H 4316   1.002   6.502   2.980  1.0172  3.7762 -1.0421
  756MOL0     H 4317   1.024   6.545   3.150 -4.2213  0.7409 -1.8273
  756MOL0     H 4318   1.159   6.676   2.912  1.6216 -0.3257  0.4757
  756MOL0     H 4319   1.188   6.722   3.085 -1.5683  0.1501  1.5274
  756MOL0     H 4320   0.917   6.745   2.924 -4.5978 -0.1680  3.3669
  756MOL0     H 4321   0.913   6.742   3.097 -3.4908  2.3979 -0.3035
  756MOL0     H 4322   1.056   6.945   2.912 -1.5611  0.1032  0.5117
  756MOL0     H 4323   1.094   6.944   3.084  0.4729  0.5169 -1.2038
  756MOL0     H 4324   0.687   7.070   3.106  1.0455  1.5579 -1.0014
  756MOL0     H 4325   1.317   6.226   3.110 -0.4008 -2.0258 -0.4246
  756MOL0     H 4326   1.512   6.027   2.923 -0.3405  1.8961 -0.6036
  756MOL0     H 4327   1.408   6.048   3.074  3.5233  1.3903  0.7660
  756MOL0     H 4328   1.366   5.935   2.941  1.3514 -0.4075  1.9565
  757MOL0     O 4329   7.257   0.668   5.517 -0.2497 -0.5801  0.6629
  757MOL0     C 4330   7.181   0.643   5.422  0.2315 -0.2086  0.5110
  757MOL0     O 4331   7.080   0.712   5.381  1.0368 -0.7077 -0.4305
  757MOL0     C 4332   7.040   0.835   5.425  0.1563  0.3612 -0.3219
  757MOL0     C 4333   6.988   0.933   5.332  0.5009  1.5979 -0.2557
  757MOL0     C 4334   6.953   1.059   5.381  0.2204 -0.1503  1.1282
  757MOL0     C 4335   6.962   1.089   5.520 -0.0978 -0.0219  0.0196
  757MOL0     O 4336   6.922   1.213   5.569 -0.0589  0.4640 -0.9348
  757MOL0     C 4337   6.819   1.218   5.670  0.1665 -0.7679  0.0811
  757MOL0     C 4338   6.725   1.333   5.625 -0.3040  0.8041 -0.0738
  757MOL0     C 4339   6.668   1.315   5.483 -0.2062  0.0175  0.5752
  757MOL0     C 4340   6.557   1.202   5.495 -0.5671 -0.7514 -0.8418
  757MOL0     C 4341   6.504   1.129   5.366 -0.6326  0.2751  0.7522
  757MOL0     C 4342   6.616   1.066   5.276  0.5312  0.4110 -0.5885
  757MOL0     C 4343   6.565   0.969   5.175  0.0253  0.4567  0.8516
  757MOL0     C 4344   6.476   1.038   5.067  0.7155 -0.0149 -0.8592
  757MOL0     N 4345   6.413   0.939   4.975  0.1901  0.6646 -0.3566
  757MOL0     C 4346   6.481   0.835   4.923  0.0225 -0.1303 -0.1123
  757MOL0     C 4347   6.384   0.756   4.866  0.3134 -0.3593  1.2577
  757MOL0     C 4348   6.399   0.612   4.816  0.0598  0.3428 -0.5348
  757MOL0     C 4349   6.470   0.614   4.686 -0.9096  0.0393  0.0826
  757MOL0     C 4350   6.384   0.651   4.558 -0.6363  0.4790 -0.2478
  757MOL0     C 4351   6.449   0.575   4.440 -0.4278  0.1483 -0.0416
  757MOL0     O 4352   6.451   0.433   4.470 -0.7092  0.0663  0.3548
  757MOL0     C 4353   6.495   0.350   4.369  0.8326 -0.3024  0.2509
  757MOL0     C 4354   6.478   0.213   4.393  0.0510 -0.6802 -0.7201
  757MOL0     C 4355   6.502   0.107   4.309 -0.7454 -0.2776  0.0209
  757MOL0     C 4356   6.501  -0.031   4.364 -0.2108  0.0301 -0.0473
  757MOL0     C 4357   6.552   0.142   4.181 -0.3059 -0.1478  0.7520
  757MOL0     C 4358   6.574   0.048   4.069  0.2021 -0.5656  0.0439
  757MOL0     O 4359   6.658   0.102   3.974 -0.0310  0.3579 -0.3229
  757MOL0     C 4360   6.685   0.032   3.857 -0.0843  0.6421  0.3057
  757MOL0     C 4361   6.614  -0.074   3.803  0.1574  0.4248  0.6215
  757MOL0     C 4362   6.629  -0.117   3.668  0.0999  0.5459 -0.2468
  757MOL0     C 4363   6.737  -0.077   3.598 -0.0737 -0.0092 -1.0098
  757MOL0     O 4364   6.770  -0.127   3.478  0.5056  1.0564  0.1961
  757MOL0     C 4365   6.714  -0.256   3.422  0.2299 -0.2111 -0.8990
  757MOL0     C 4366   6.807  -0.302   3.312  0.1423  0.9758 -0.3794
  757MOL0     C 4367   6.798  -0.215   3.184 -0.1579 -0.3975 -0.2860
  757MOL0     C 4368   6.931  -0.156   3.155  0.4884  0.2641 -1.2400
  757MOL0     C 4369   7.052  -0.256   3.148  0.0670  0.0206  0.5572
  757MOL0     C 4370   7.117  -0.256   3.009 -0.0357 -0.0468  0.3741
  757MOL0     C 4371   7.011  -0.291   2.895  0.4543 -0.2767  0.1651
  757MOL0     C 4372   7.071  -0.286   2.749 -0.3710 -0.3040 -0.5071
  757MOL0    Cl 4373   7.127  -0.137   2.704 -0.1498  0.0454  0.3184
  757MOL0     C 4374   6.823   0.013   3.663 -0.5895  1.4754 -0.5682
  757MOL0     C 4375   6.789   0.082   3.774 -0.5967 -0.0606 -0.1481
  757MOL0     O 4376   6.520  -0.056   4.063 -0.3109 -0.0749 -0.3335
  757MOL0     C 4377   6.563   0.282   4.145 -0.0434 -0.6787 -0.2946
  757MOL0     C 4378   6.542   0.386   4.238 -0.1389 -0.0211 -0.2073
  757MOL0     N 4379   6.262   0.825   4.885 -0.0688  0.6085 -0.0647
  757MOL0     N 4380   6.281   0.933   4.950  0.9070  0.4675  0.1182
  757MOL0     C 4381   7.013   0.993   5.611 -1.0223 -0.1129  0.7666
  757MOL0     C 4382   7.054   0.872   5.564 -0.6737  0.7173 -0.1226
  757MOL0     C 4383   7.198   0.519   5.346  0.9951  0.7560  0.3535
  757MOL0     C 4384   7.110   0.413   5.369  0.5680 -0.4451 -0.3860
  757MOL0     C 4385   7.146   0.292   5.324 -0.1217  0.3111  0.3957
  757MOL0     C 4386   7.261   0.261   5.241  0.3146  0.4434 -0.6100
  757MOL0     O 4387   7.274   0.136   5.201  0.4825 -0.0943  0.1430
  757MOL0     C 4388   7.386   0.115   5.113 -0.2639 -0.6369  0.1085
  757MOL0     C 4389   7.412  -0.038   5.101  0.2897  0.2917 -0.1900
  757MOL0     C 4390   7.326  -0.111   4.996 -0.1262 -0.2418 -0.0142
  757MOL0     C 4391   7.301  -0.257   5.043  0.6974  0.1435 -1.2034
  757MOL0     C 4392   7.213  -0.327   4.944  0.3872 -0.4894 -0.2523
  757MOL0     C 4393   7.149  -0.376   4.854 -0.7801  0.8039  0.6910
  757MOL0     C 4394   7.343   0.370   5.215 -0.4886 -0.1577  0.3337
  757MOL0     C 4395   7.313   0.499   5.271 -0.3031 -0.2349 -0.1813
  757MOL0     C 4396   7.422   0.601   5.263  0.0685 -0.9833 -0.3859
  757MOL0     H 4397   6.982   0.888   5.233 -2.9442  0.1622  0.4511
  757MOL0     H 4398   6.926   1.137   5.311 -1.6182  0.2917  2.2667
  757MOL0     H 4399   6.858   1.240   5.770 -3.6834  0.4075  1.4840
  757MOL0     H 4400   6.769   1.121   5.663 -0.7779 -0.3319  0.6175
  757MOL0     H 4401   6.634   1.342   5.686 -0.2375  1.0193 -0.0062
  757MOL0     H 4402   6.767   1.434   5.618 -2.5029  1.7112 -1.2690
  757MOL0     H 4403   6.631   1.403   5.431 -0.0263  0.6251  1.4438
  757MOL0     H 4404   6.750   1.288   5.415 -0.6102  2.3054 -0.9234
  757MOL0     H 4405   6.589   1.119   5.558 -0.6367 -0.5012 -0.4741
  757MOL0     H 4406   6.467   1.240   5.544  0.1242 -0.1756 -0.0009
  757MOL0     H 4407   6.444   1.194   5.302 -0.1201  2.1611  2.0743
  757MOL0     H 4408   6.445   1.045   5.404 -0.4798 -1.0424 -1.7317
  757MOL0     H 4409   6.679   1.144   5.232  0.0877  1.0021 -0.1882
  757MOL0     H 4410   6.681   1.010   5.344  0.1105  0.7696  0.1213
  757MOL0     H 4411   6.505   0.890   5.222  0.2009  0.9828  2.0010
  757MOL0     H 4412   6.650   0.923   5.124 -1.9642 -3.5084  0.7604
  757MOL0     H 4413   6.389   1.087   5.111  2.1380  0.0878  2.0631
  757MOL0     H 4414   6.533   1.120   5.021 -1.4412 -0.2232 -4.2620
  757MOL0     H 4415   6.573   0.786   4.955 -1.8567 -3.1604  1.0654
  757MOL0     H 4416   6.306   0.555   4.827  0.6912 -0.5569  0.2550
  757MOL0     H 4417   6.464   0.564   4.890 -2.3314  1.4174  2.4860
  757MOL0     H 4418   6.556   0.681   4.696  0.1770 -1.2213 -0.5407
  757MOL0     H 4419   6.512   0.514   4.671  0.3826  0.6109 -0.2171
  757MOL0     H 4420   6.280   0.621   4.572 -0.7472  0.3981 -1.1902
  757MOL0     H 4421   6.384   0.759   4.537  2.9561  0.6131 -0.1077
  757MOL0     H 4422   6.393   0.594   4.348 -2.1307 -0.5539  0.7968
  757MOL0     H 4423   6.553   0.608   4.435  0.4088 -2.3075 -0.4386
  757MOL0     H 4424   6.449   0.194   4.496  0.7429  0.4736 -0.2889
  757MOL0     H 4425   6.447  -0.098   4.297 -1.5020  0.3414  0.6496
  757MOL0     H 4426   6.465  -0.038   4.467  0.1708 -1.6692  0.0033
  757MOL0     H 4427   6.605  -0.065   4.374  0.2063  1.2731  0.0192
  757MOL0     H 4428   6.531  -0.121   3.856  3.5914 -2.5415  3.9968
  757MOL0     H 4429   6.573  -0.196   3.618 -1.3122  1.2657  0.1561
  757MOL0     H 4430   6.725  -0.322   3.508  1.1844 -0.9782 -1.5880
  757MOL0     H 4431   6.611  -0.261   3.384  0.0042  0.1894 -0.3518
  757MOL0     H 4432   6.909  -0.327   3.342  0.3443 -1.2225 -2.5296
  757MOL0     H 4433   6.765  -0.397   3.275  0.1447  1.9686 -3.1826
  757MOL0     H 4434   6.721  -0.138   3.197 -0.5862 -0.5564 -1.7054
  757MOL0     H 4435   6.779  -0.265   3.089 -0.5569  1.2138 -1.1022
  757MOL0     H 4436   6.950  -0.087   3.238  0.7764 -2.1073  0.7600
  757MOL0     H 4437   6.928  -0.110   3.056 -0.6488 -1.7089 -2.1768
  757MOL0     H 4438   7.121  -0.218   3.224  1.1463 -3.9620  1.8228
  757MOL0     H 4439   7.028  -0.359   3.174 -0.6410  0.1731  0.5312
  757MOL0     H 4440   7.196  -0.331   3.008  0.4792  0.4685  1.3143
  757MOL0     H 4441   7.155  -0.157   2.978 -0.0687 -0.3348 -0.6458
  757MOL0     H 4442   6.919  -0.231   2.898 -0.3274 -1.2190 -2.5091
  757MOL0     H 4443   6.979  -0.393   2.920  0.3930 -0.1123  0.7838
  757MOL0     H 4444   6.989  -0.312   2.682 -2.2036 -0.0396  1.5092
  757MOL0     H 4445   7.158  -0.353   2.743  0.3421  0.6948 -1.8792
  757MOL0     H 4446   6.919   0.035   3.619  0.1854 -1.4944 -0.5645
  757MOL0     H 4447   6.853   0.167   3.797 -0.4136 -0.4002  0.6259
  757MOL0     H 4448   6.588   0.314   4.044 -2.4156  2.3593 -0.0689
  757MOL0     H 4449   6.540   0.486   4.194  0.0482  0.0695 -0.0147
  757MOL0     H 4450   7.037   1.021   5.714  1.3874  0.7823  0.0404
  757MOL0     H 4451   7.091   0.793   5.629  2.3029  2.2600  0.2426
  757MOL0     H 4452   7.025   0.421   5.436 -0.1465  0.8270 -1.3924
  757MOL0     H 4453   7.084   0.203   5.321 -2.9660  2.1555 -0.8143
  757MOL0     H 4454   7.368   0.155   5.013 -0.4910  1.7387  1.0283
  757MOL0     H 4455   7.479   0.165   5.144 -1.4541  1.1089  1.0556
  757MOL0     H 4456   7.417  -0.079   5.202  1.7379 -1.3254 -0.8543
  757MOL0     H 4457   7.515  -0.060   5.071  1.5053 -0.8654  4.2117
  757MOL0     H 4458   7.232  -0.055   4.990 -0.4181 -0.3759  2.2460
  757MOL0     H 4459   7.375  -0.111   4.899 -0.1863  0.7344 -0.0527
  757MOL0     H 4460   7.241  -0.247   5.134 -0.2084  1.3119 -1.8953
  757MOL0     H 4461   7.390  -0.320   5.053 -1.3062 -2.8941 -1.0141
  757MOL0     H 4462   7.099  -0.410   4.766 -0.8132  4.7088 -0.9970
  757MOL0     H 4463   7.441   0.366   5.167 -0.0417 -0.0374  1.2085
  757MOL0     H 4464   7.492   0.587   5.346  0.6587 -0.0799 -0.7145
  757MOL0     H 4465   7.480   0.575   5.174 -0.3218  0.2804 -1.0408
  757MOL0     H 4466   7.380   0.701   5.245 -0.4199 -1.0737  0.2103
  758MOL0     O 4467   9.695   7.461   3.689 -0.2270  0.1134  1.8614
  758MOL0     C 4468   9.794   7.465   3.616  0.2643  0.2330  0.6147
  758MOL0     O 4469   9.833   7.563   3.538  0.0680  1.6627  0.1350
  758MOL0     C 4470   9.754   7.667   3.498  0.0967  0.2592 -0.1375
  758MOL0     C 4471   9.768   7.721   3.369 -0.5821 -0.2158 -0.1744
  758MOL0     C 4472   9.691   7.828   3.326 -0.0520 -0.8756 -0.2732
  758MOL0     C 4473   9.610   7.895   3.421  0.2698 -0.4100  0.1868
  758MOL0     O 4474   9.548   8.009   3.367 -0.8337 -0.4985 -0.2013
  758MOL0     C 4475   9.444   8.074   3.440 -0.3899  0.2276  0.6082
  758MOL0     C 4476   9.342   8.138   3.345 -1.1804 -0.6578  0.2935
  758MOL0     C 4477   9.412   8.250   3.272  0.1178 -0.4006 -0.6681
  758MOL0     C 4478   9.344   8.368   3.196 -0.9708  0.1974 -0.8707
  758MOL0     C 4479   9.460   8.430   3.107  0.4014  0.2979  0.7940
  758MOL0     C 4480   9.572   8.507   3.182  0.5387  0.2981  0.2469
  758MOL0     C 4481   9.710   8.473   3.124  0.5188  0.3854  0.0256
  758MOL0     C 4482   9.743   8.559   2.996 -0.4916 -0.0248 -0.1240
  758MOL0     N 4483   9.786   8.699   3.031 -0.0613  0.6346 -0.1334
  758MOL0     C 4484   9.798   8.789   2.927 -0.0688  0.0350 -0.1266
  758MOL0     C 4485   9.826   8.902   2.990  0.5225  0.5341  0.0641
  758MOL0     C 4486   9.848   9.025   2.911  0.6345  0.4636 -0.4638
  758MOL0     C 4487   9.983   9.044   2.833  0.2026  0.2686 -0.0835
  758MOL0     C 4488  10.105   9.067   2.923  0.6566 -0.8834 -0.2663
  758MOL0     C 4489  10.235   9.070   2.837 -0.1051 -0.6663 -0.6430
  758MOL0     O 4490  10.264   8.947   2.783 -0.2746  0.2318  0.1265
  758MOL0     C 4491  10.380   8.940   2.712  0.6589 -0.2549 -0.4104
  758MOL0     C 4492  10.493   8.874   2.759  0.6088  0.0510 -0.3591
  758MOL0     C 4493  10.609   8.875   2.691 -0.3873 -0.7649 -0.6783
  758MOL0     C 4494  10.727   8.799   2.750  0.5486 -0.3761 -0.4939
  758MOL0     C 4495  10.615   8.941   2.564  0.4885  0.4536 -0.8291
  758MOL0     C 4496  10.733   8.934   2.484 -1.5099 -0.4582  1.1700
  758MOL0     O 4497  10.807   8.812   2.475  0.7266  0.0860 -0.1505
  758MOL0     C 4498  10.936   8.813   2.428 -0.5858 -0.5267  0.9882
  758MOL0     C 4499  10.979   8.843   2.296 -0.4183 -1.2012  0.1414
  758MOL0     C 4500  11.123   8.839   2.268  0.3519  0.9719 -0.4179
  758MOL0     C 4501  11.214   8.785   2.360  0.8298  0.3528 -0.1515
  758MOL0     O 4502  11.345   8.750   2.330 -0.0385  0.5602 -0.6727
  758MOL0     C 4503  11.377   8.745   2.190  0.3009 -0.6850 -0.9862
  758MOL0     C 4504  11.528   8.723   2.179 -1.0494 -0.9672  0.3639
  758MOL0     C 4505  11.584   8.585   2.214  0.5442 -0.5762  0.4434
  758MOL0     C 4506  11.724   8.554   2.172 -0.1194 -0.4266  0.2650
  758MOL0     C 4507  11.830   8.624   2.251  0.4478 -1.3844  0.3308
  758MOL0     C 4508  11.974   8.572   2.265  0.4523 -0.6183  0.1615
  758MOL0     C 4509  12.053   8.625   2.385 -1.0278  0.3616  0.1277
  758MOL0     C 4510  12.201   8.673   2.374 -1.4090  0.1975 -0.2198
  758MOL0    Cl 4511  12.238   8.790   2.519 -0.1381 -0.1293 -0.0047
  758MOL0     C 4512  11.162   8.751   2.482 -0.8711  0.0454 -0.5495
  758MOL0     C 4513  11.030   8.765   2.519  0.0391  0.0369  0.0059
  758MOL0     O 4514  10.761   9.037   2.420  0.3806 -0.3913 -0.8061
  758MOL0     C 4515  10.492   8.991   2.506 -1.2116 -0.6662 -0.6927
  758MOL0     C 4516  10.384   8.996   2.582 -0.1214  0.9882 -1.0800
  758MOL0     N 4517   9.828   8.886   3.128 -0.3121 -0.6980 -0.5185
  758MOL0     N 4518   9.816   8.756   3.151 -0.5017 -0.6435 -0.0828
  758MOL0     C 4519   9.598   7.850   3.553 -0.8805 -0.8108 -0.3530
  758MOL0     C 4520   9.670   7.733   3.586  0.2830  1.1161  0.4421
  758MOL0     C 4521   9.865   7.345   3.618 -0.5362  0.2971  0.1909
  758MOL0     C 4522   9.876   7.272   3.737  0.2418  0.7512  0.1555
  758MOL0     C 4523   9.962   7.166   3.748 -0.0482  0.5314  0.4522
  758MOL0     C 4524  10.045   7.126   3.645  0.1117  0.6920 -0.0974
  758MOL0     O 4525  10.117   7.012   3.662 -0.1709  0.1587  0.0738
  758MOL0     C 4526  10.201   6.957   3.554 -0.3679  0.2568 -0.0157
  758MOL0     C 4527  10.106   6.870   3.467 -0.2221 -0.3162 -0.0848
  758MOL0     C 4528  10.164   6.852   3.318  0.5598 -0.0811  0.1767
  758MOL0     C 4529  10.184   6.707   3.278  0.7546  0.6711  0.2689
  758MOL0     C 4530  10.290   6.630   3.355  0.9550  0.9961  0.8592
  758MOL0     C 4531  10.371   6.561   3.419  0.6831  0.1668 -0.5686
  758MOL0     C 4532  10.032   7.193   3.527  0.6177 -0.5787 -0.6307
  758MOL0     C 4533   9.947   7.301   3.512 -0.3580 -0.0179 -0.0166
  758MOL0     C 4534   9.956   7.359   3.377  0.9973  0.5767 -0.0178
  758MOL0     H 4535   9.835   7.666   3.304  2.8422  0.9173  2.0875
  758MOL0     H 4536   9.709   7.865   3.226  0.5078 -0.2664  0.0506
  758MOL0     H 4537   9.490   8.148   3.507  1.2234 -0.3136  0.1330
  758MOL0     H 4538   9.389   8.002   3.501  0.2819 -0.8362 -0.0214
  758MOL0     H 4539   9.298   8.074   3.267 -1.1751 -0.2563 -0.0479
  758MOL0     H 4540   9.253   8.171   3.400 -1.7315  0.2677 -1.0613
  758MOL0     H 4541   9.471   8.300   3.350  1.8454 -2.6800 -0.4161
  758MOL0     H 4542   9.479   8.194   3.207  0.6076  0.8112 -1.2485
  758MOL0     H 4543   9.271   8.326   3.126 -0.4821  0.2346 -1.4074
  758MOL0     H 4544   9.299   8.447   3.257 -0.3114  0.6615 -0.9713
  758MOL0     H 4545   9.415   8.501   3.037 -2.1890  0.9437  2.9405
  758MOL0     H 4546   9.500   8.344   3.052  0.6938  1.1963 -0.4383
  758MOL0     H 4547   9.564   8.616   3.169 -0.9809  0.4540  2.0265
  758MOL0     H 4548   9.574   8.475   3.286  2.3967 -2.2984 -0.4793
  758MOL0     H 4549   9.718   8.368   3.094  1.2091 -0.2902  2.3798
  758MOL0     H 4550   9.787   8.488   3.201 -3.7014  0.4234  4.7476
  758MOL0     H 4551   9.818   8.515   2.930 -0.6650 -0.0581 -0.2984
  758MOL0     H 4552   9.652   8.572   2.936 -1.2547 -0.6698  0.8504
  758MOL0     H 4553   9.795   8.755   2.824 -1.0237  3.2039 -1.2561
  758MOL0     H 4554   9.831   9.111   2.976 -3.0280  0.1845 -0.8371
  758MOL0     H 4555   9.761   9.032   2.845  0.3720  0.1081 -0.1553
  758MOL0     H 4556   9.993   8.956   2.770  3.2872 -0.3017  1.0427
  758MOL0     H 4557   9.980   9.127   2.761  3.1239  0.0072 -0.6507
  758MOL0     H 4558  10.107   9.169   2.963  0.0152 -0.8414 -0.3336
  758MOL0     H 4559  10.135   8.998   3.002  1.8706 -2.0673 -1.7077
  758MOL0     H 4560  10.231   9.155   2.769  2.9540 -0.5073 -0.7335
  758MOL0     H 4561  10.315   9.090   2.909  1.4737  2.0829 -2.9618
  758MOL0     H 4562  10.483   8.834   2.859 -1.1671  0.8797 -0.1601
  758MOL0     H 4563  10.713   8.783   2.857 -1.7863  0.2845 -0.6393
  758MOL0     H 4564  10.817   8.858   2.728 -0.0491  0.3202 -1.1569
  758MOL0     H 4565  10.746   8.697   2.716  1.1182 -0.4841  0.1246
  758MOL0     H 4566  10.913   8.868   2.213  0.9600 -2.5447 -1.4292
  758MOL0     H 4567  11.149   8.868   2.167 -0.5782 -0.0182 -0.9696
  758MOL0     H 4568  11.319   8.664   2.146 -0.0199  0.0091 -1.8811
  758MOL0     H 4569  11.347   8.841   2.147 -0.1774  0.7790  2.3133
  758MOL0     H 4570  11.559   8.749   2.077 -2.2481 -1.2533 -0.0949
  758MOL0     H 4571  11.582   8.783   2.253 -2.6455 -2.2935  2.7509
  758MOL0     H 4572  11.511   8.521   2.164  0.7015  0.6277 -1.4324
  758MOL0     H 4573  11.572   8.577   2.323  0.3732 -1.7218  0.3514
  758MOL0     H 4574  11.752   8.595   2.075 -3.5833  3.8584  0.7824
  758MOL0     H 4575  11.740   8.446   2.185  2.9893  0.2265  3.4563
  758MOL0     H 4576  11.843   8.732   2.240  0.2346 -1.2811  1.0057
  758MOL0     H 4577  11.796   8.623   2.355 -0.8006  1.1047  0.0322
  758MOL0     H 4578  12.031   8.588   2.173 -1.3656 -0.1636 -0.9481
  758MOL0     H 4579  11.965   8.466   2.293 -1.4008 -0.0959  1.7843
  758MOL0     H 4580  12.059   8.545   2.460  0.1335 -1.3893 -1.7293
  758MOL0     H 4581  11.990   8.706   2.422 -0.2113  1.5533 -0.9977
  758MOL0     H 4582  12.211   8.720   2.276  4.2115 -0.2356 -0.1836
  758MOL0     H 4583  12.274   8.591   2.374  1.1330  2.1714 -4.3124
  758MOL0     H 4584  11.216   8.718   2.570 -3.2206  0.7670  1.2835
  758MOL0     H 4585  10.993   8.746   2.620 -2.3500 -1.2488 -1.0216
  758MOL0     H 4586  10.488   9.029   2.404  3.2513 -4.3848 -2.6121
  758MOL0     H 4587  10.295   9.045   2.543 -2.8401 -2.5270  0.1633
  758MOL0     H 4588   9.562   7.898   3.643  2.5341  0.9410  0.2516
  758MOL0     H 4589   9.667   7.688   3.685  0.6465 -1.8324 -0.8031
  758MOL0     H 4590   9.831   7.295   3.833  1.5037  2.7491  0.3320
  758MOL0     H 4591   9.952   7.106   3.839  0.8318 -1.4844 -0.7032
  758MOL0     H 4592  10.242   7.044   3.502  2.7774  0.0157  1.7884
  758MOL0     H 4593  10.286   6.902   3.594  1.6852  3.4493  0.3590
  758MOL0     H 4594  10.005   6.910   3.458 -0.8442 -2.3238 -4.2479
  758MOL0     H 4595  10.100   6.773   3.518  3.4571  1.1113  3.7300
  758MOL0     H 4596  10.094   6.906   3.254  1.1533 -3.1030 -3.3201
  758MOL0     H 4597  10.258   6.906   3.300  0.2043  1.0937  1.6291
  758MOL0     H 4598  10.220   6.694   3.175  1.1710  0.0252  0.4861
  758MOL0     H 4599  10.087   6.658   3.280  0.2288  1.4047 -2.7948
  758MOL0     H 4600  10.445   6.486   3.442 -0.7255 -1.1274 -0.0266
  758MOL0     H 4601  10.099   7.177   3.443  2.5969  1.5250  0.4192
  758MOL0     H 4602   9.988   7.292   3.297 -0.1716  1.1136 -0.9832
  758MOL0     H 4603   9.856   7.392   3.346  1.7277  1.4941 -1.5223
  758MOL0     H 4604  10.018   7.449   3.386  2.7842 -0.6868  0.8706
  759MOL0     O 4605   1.157   5.712   1.146  0.4687  0.5324 -0.3322
  759MOL0     C 4606   1.051   5.716   1.082  0.4612  0.0209  0.1699
  759MOL0     O 4607   0.982   5.821   1.051  0.0525 -0.6204 -0.3252
  759MOL0     C 4608   1.009   5.949   1.087  0.1224 -0.9415  0.3515
  759MOL0     C 4609   0.946   6.049   1.007 -0.4683  0.1632  0.4032
  759MOL0     C 4610   0.957   6.186   1.013 -0.1726  0.6364 -0.5628
  759MOL0     C 4611   1.040   6.229   1.115 -0.4012 -0.3919  0.0899
  759MOL0     O 4612   1.063   6.364   1.133  0.5218  0.0358 -0.6912
  759MOL0     C 4613   1.151   6.427   1.038  0.9001 -0.4329 -1.0367
  759MOL0     C 4614   1.167   6.575   1.077 -0.6330 -0.7922  0.6447
  759MOL0     C 4615   1.030   6.640   1.098  0.7392 -1.3880 -1.0484
  759MOL0     C 4616   0.942   6.614   0.976 -0.1321  0.4010 -0.2632
  759MOL0     C 4617   0.816   6.693   0.984  0.3267  0.1338  0.4031
  759MOL0     C 4618   0.732   6.685   1.112  0.5257  0.9165  0.3495
  759MOL0     C 4619   0.703   6.538   1.164 -1.2325 -0.5038  0.4267
  759MOL0     C 4620   0.614   6.568   1.286 -0.0963  0.1518 -0.1124
  759MOL0     N 4621   0.600   6.467   1.387 -0.6120  0.6161 -0.4416
  759MOL0     C 4622   0.683   6.356   1.399  0.1375  0.2688  0.1654
  759MOL0     C 4623   0.621   6.281   1.488  0.2349 -0.6487  0.5151
  759MOL0     C 4624   0.676   6.144   1.518 -0.0619 -0.0786 -0.7244
  759MOL0     C 4625   0.824   6.121   1.522  0.3210 -0.1010 -0.6821
  759MOL0     C 4626   0.850   6.019   1.620  0.6074  0.1723  0.0142
  759MOL0     C 4627   0.982   5.984   1.648  0.3061  0.5148 -0.9301
  759MOL0     O 4628   1.079   5.945   1.542 -0.0570  0.0248 -0.4199
  759MOL0     C 4629   1.210   5.934   1.584 -1.1838  0.4562  0.1272
  759MOL0     C 4630   1.287   5.865   1.489  0.4377  0.0763  0.6510
  759MOL0     C 4631   1.423   5.845   1.511  0.2048 -0.6786 -0.5439
  759MOL0     C 4632   1.482   5.775   1.396  0.3623  0.3017  0.2767
  759MOL0     C 4633   1.495   5.906   1.623  0.2956 -0.2558 -0.3173
  759MOL0     C 4634   1.643   5.892   1.638 -0.8328  0.5103 -0.5387
  759MOL0     O 4635   1.693   5.967   1.736 -0.3537  1.1291  0.2576
  759MOL0     C 4636   1.825   5.959   1.774 -0.0353 -0.0619  0.9535
  759MOL0     C 4637   1.890   6.079   1.807 -0.3469  0.2765  0.5817
  759MOL0     C 4638   2.014   6.079   1.850 -0.6751 -1.0557 -0.3282
  759MOL0     C 4639   2.074   5.959   1.896  0.6360 -0.0222 -0.2304
  759MOL0     O 4640   2.187   5.962   1.974 -1.0051  0.0806 -0.1548
  759MOL0     C 4641   2.293   5.873   1.943 -0.3351  0.2451  0.0516
  759MOL0     C 4642   2.422   5.939   1.984 -0.5926 -0.6333  0.5860
  759MOL0     C 4643   2.542   5.845   1.962 -0.4828 -0.3594 -0.0054
  759MOL0     C 4644   2.560   5.798   1.818  0.2979 -0.3814 -0.4784
  759MOL0     C 4645   2.615   5.651   1.825 -0.0189 -0.6078 -0.3392
  759MOL0     C 4646   2.760   5.632   1.864 -0.0495  0.7648  0.1537
  759MOL0     C 4647   2.805   5.476   1.874  0.6810 -0.2899 -0.8210
  759MOL0     C 4648   2.875   5.413   1.756 -0.2336 -0.6112  0.2422
  759MOL0    Cl 4649   2.775   5.381   1.616  0.6022  0.2613  0.0765
  759MOL0     C 4650   2.008   5.835   1.865  0.3602 -0.7374  0.9783
  759MOL0     C 4651   1.885   5.841   1.797 -0.3154 -0.3400 -0.1380
  759MOL0     O 4652   1.706   5.824   1.563  0.1980 -1.2827 -0.1727
  759MOL0     C 4653   1.412   5.981   1.710 -0.3818  0.4353  0.0138
  759MOL0     C 4654   1.275   5.990   1.695  0.1256 -0.6789  1.6199
  759MOL0     N 4655   0.507   6.348   1.533 -0.5367  0.2928 -0.1584
  759MOL0     N 4656   0.490   6.455   1.467  0.5999  0.1661  0.6885
  759MOL0     C 4657   1.110   6.140   1.201 -0.5130  0.1128  1.1837
  759MOL0     C 4658   1.093   6.001   1.194  0.3260 -0.0580  0.8675
  759MOL0     C 4659   0.994   5.588   1.054 -0.1091  0.7287  0.5053
  759MOL0     C 4660   1.018   5.480   1.145  0.0356  0.7627 -0.1840
  759MOL0     C 4661   0.958   5.355   1.128 -0.0596 -0.5283 -0.8262
  759MOL0     C 4662   0.867   5.332   1.022  0.3547 -0.2122 -0.5887
  759MOL0     O 4663   0.804   5.211   0.988  0.1174 -0.4810  0.1510
  759MOL0     C 4664   0.851   5.097   1.074  0.1910  0.3067 -0.0415
  759MOL0     C 4665   0.748   5.059   1.174 -0.3711  0.4526 -0.0140
  759MOL0     C 4666   0.777   4.931   1.262 -0.2810  0.0870  0.2947
  759MOL0     C 4667   0.812   4.963   1.408 -0.7410  0.2606  0.1278
  759MOL0     C 4668   0.949   5.029   1.422 -0.5152  1.4424  0.3150
  759MOL0     C 4669   1.063   5.065   1.427 -0.9917  0.1569 -0.2564
  759MOL0     C 4670   0.850   5.434   0.926  1.6382  1.0333 -0.5929
  759MOL0     C 4671   0.918   5.557   0.934 -0.5823  0.1688 -0.3702
  759MOL0     C 4672   0.882   5.659   0.833 -0.0551  0.7085 -0.3267
  759MOL0     H 4673   0.900   6.015   0.914  0.0424  1.5757 -0.3966
  759MOL0     H 4674   0.912   6.259   0.947  0.9810 -0.0950 -2.2318
  759MOL0     H 4675   1.106   6.412   0.939 -4.7202 -0.1233  1.1103
  759MOL0     H 4676   1.249   6.380   1.045  1.5643  1.0505  0.5763
  759MOL0     H 4677   1.229   6.577   1.167 -0.5236  0.8351  0.5651
  759MOL0     H 4678   1.220   6.625   0.995 -1.2927 -0.3139  0.5032
  759MOL0     H 4679   0.991   6.601   1.192  1.8052  1.3605  0.6578
  759MOL0     H 4680   1.041   6.749   1.105  1.7428 -1.5543  0.4875
  759MOL0     H 4681   1.003   6.634   0.887  2.4525 -1.9298  0.8493
  759MOL0     H 4682   0.920   6.507   0.967 -1.3741  0.7901 -2.7953
  759MOL0     H 4683   0.761   6.670   0.892  0.8875  1.7549 -0.3645
  759MOL0     H 4684   0.843   6.798   0.968  2.2774 -0.1483  1.5663
  759MOL0     H 4685   0.788   6.736   1.190 -1.0729  1.4408  1.1833
  759MOL0     H 4686   0.642   6.745   1.101  1.1156  1.4357 -2.9123
  759MOL0     H 4687   0.803   6.511   1.199 -0.2429 -0.2312 -2.0520
  759MOL0     H 4688   0.666   6.470   1.087  1.3216  2.0775 -3.4430
  759MOL0     H 4689   0.641   6.657   1.343  0.1074  1.3103 -1.9337
  759MOL0     H 4690   0.512   6.573   1.245 -1.1068 -3.2631  1.6245
  759MOL0     H 4691   0.771   6.330   1.343  2.0609  1.7875  2.3002
  759MOL0     H 4692   0.622   6.077   1.451 -1.7898  0.2206  0.3039
  759MOL0     H 4693   0.634   6.110   1.613 -1.1866 -0.2324 -1.2657
  759MOL0     H 4694   0.845   6.067   1.429  1.6895 -0.8684  0.0331
  759MOL0     H 4695   0.873   6.217   1.536 -1.0902  0.3968  1.1648
  759MOL0     H 4696   0.804   6.056   1.713  0.6004 -1.3121  0.6176
  759MOL0     H 4697   0.789   5.930   1.604  1.4832 -1.1168  3.1456
  759MOL0     H 4698   1.012   6.084   1.679  1.0374  0.1830 -0.5360
  759MOL0     H 4699   0.991   5.921   1.736  1.6985  3.0507  0.8544
  759MOL0     H 4700   1.236   5.817   1.406  1.8941 -2.5507  1.1755
  759MOL0     H 4701   1.402   5.739   1.330 -0.8517  2.5383  0.4375
  759MOL0     H 4702   1.545   5.694   1.433  1.5471  2.5463  3.6168
  759MOL0     H 4703   1.555   5.844   1.353 -1.8447  2.9511  0.5240
  759MOL0     H 4704   1.834   6.172   1.802  1.3861  1.3370 -0.4796
  759MOL0     H 4705   2.071   6.169   1.869 -1.0834 -0.2484 -2.5927
  759MOL0     H 4706   2.275   5.778   1.995 -0.5089  0.6434  0.7333
  759MOL0     H 4707   2.296   5.869   1.834  1.6577  3.5550 -0.1314
  759MOL0     H 4708   2.440   6.035   1.935 -2.9252 -1.0975 -1.4417
  759MOL0     H 4709   2.407   5.962   2.089 -2.0108  1.9541 -0.0807
  759MOL0     H 4710   2.526   5.757   2.025 -0.7944  0.2297  0.7638
  759MOL0     H 4711   2.626   5.907   1.995  0.1077 -0.4108 -1.3420
  759MOL0     H 4712   2.625   5.868   1.765  0.5442 -0.0623  0.2294
  759MOL0     H 4713   2.464   5.789   1.765 -0.3077 -3.5139  0.8997
  759MOL0     H 4714   2.556   5.585   1.889  1.7447 -2.4145 -0.4837
  759MOL0     H 4715   2.604   5.601   1.728 -0.2581 -2.6810  0.6952
  759MOL0     H 4716   2.767   5.685   1.959 -0.1857 -0.7523  1.0347
  759MOL0     H 4717   2.827   5.669   1.786  1.0341  0.5271  0.9519
  759MOL0     H 4718   2.728   5.403   1.900  0.1681  0.6166  0.3065
  759MOL0     H 4719   2.870   5.465   1.961 -1.8904  0.9415  1.4231
  759MOL0     H 4720   2.920   5.315   1.776  0.8919 -0.0207  0.7369
  759MOL0     H 4721   2.957   5.478   1.725 -1.2935 -0.4136 -2.3440
  759MOL0     H 4722   2.044   5.738   1.894  0.8197 -0.5600  1.0027
  759MOL0     H 4723   1.832   5.748   1.777  0.7961 -1.5974  2.3076
  759MOL0     H 4724   1.448   6.023   1.803  1.5808 -2.2378  0.5636
  759MOL0     H 4725   1.212   6.042   1.767  0.1711  0.8963  0.5847
  759MOL0     H 4726   1.174   6.177   1.280 -2.5962 -0.8021  3.4259
  759MOL0     H 4727   1.152   5.927   1.247 -1.4440  0.1814  3.3063
  759MOL0     H 4728   1.091   5.487   1.224  0.5185 -0.4470 -0.4955
  759MOL0     H 4729   0.969   5.278   1.204 -1.7761 -0.3555 -0.3499
  759MOL0     H 4730   0.857   5.008   1.011 -1.9427  1.9244 -2.7614
  759MOL0     H 4731   0.947   5.114   1.124  0.1960  3.4399 -0.8817
  759MOL0     H 4732   0.651   5.051   1.124 -2.2582  3.5474  2.7150
  759MOL0     H 4733   0.735   5.144   1.242 -3.2175  0.3973 -0.3543
  759MOL0     H 4734   0.682   4.877   1.265 -1.1746  1.2978 -2.6441
  759MOL0     H 4735   0.858   4.866   1.229 -0.1655  0.5434 -0.3275
  759MOL0     H 4736   0.816   4.874   1.471  1.2117  0.8138  0.8662
  759MOL0     H 4737   0.730   5.020   1.451  1.6113  2.9594  1.3854
  759MOL0     H 4738   1.161   5.099   1.401 -1.9962  2.9776 -0.7363
  759MOL0     H 4739   0.766   5.419   0.858  1.0291  1.8581 -0.0432
  759MOL0     H 4740   0.970   5.721   0.813 -0.5493  0.5964 -3.2906
  759MOL0     H 4741   0.856   5.609   0.739  3.2826 -0.9589 -0.5219
  759MOL0     H 4742   0.794   5.718   0.861 -0.9746 -0.9969  0.4731
  760MOL0     O 4743  10.032   3.227  11.443  0.0387 -0.0603  0.2386
  760MOL0     C 4744  10.105   3.188  11.526  0.3630 -0.2477  0.6037
  760MOL0     O 4745  10.160   3.067  11.524  0.0292  0.5710 -0.4491
  760MOL0     C 4746  10.135   2.961  11.446  0.6290 -0.4832 -0.1746
  760MOL0     C 4747  10.049   2.956  11.331 -0.0253  0.3477 -0.8076
  760MOL0     C 4748  10.021   2.827  11.264  0.3902  0.0188 -0.6365
  760MOL0     C 4749  10.074   2.706  11.317  0.2898 -0.4506  0.5625
  760MOL0     O 4750  10.058   2.578  11.262 -0.5887 -0.2524  0.3924
  760MOL0     C 4751   9.946   2.552  11.178 -0.1751 -0.3109  0.7557
  760MOL0     C 4752   9.814   2.547  11.261  0.3429  0.6713 -0.4538
  760MOL0     C 4753   9.722   2.437  11.227 -0.0245 -0.4021  0.5833
  760MOL0     C 4754   9.680   2.411  11.077 -0.8605  0.1525  0.0051
  760MOL0     C 4755   9.584   2.298  11.069  1.1997 -0.1866  0.1983
  760MOL0     C 4756   9.662   2.160  11.078  0.4045  0.3791  0.5231
  760MOL0     C 4757   9.584   2.029  11.029  0.1481  0.3718  0.3986
  760MOL0     C 4758   9.435   2.043  11.067  0.1435  0.2892 -0.5079
  760MOL0     N 4759   9.377   1.913  11.053  0.2262  0.6617 -0.4567
  760MOL0     C 4760   9.369   1.820  11.151  0.8081  0.3281  0.9305
  760MOL0     C 4761   9.326   1.708  11.078  0.0559 -0.6449  0.5225
  760MOL0     C 4762   9.321   1.566  11.145 -0.3574 -0.5253  0.5250
  760MOL0     C 4763   9.436   1.535  11.248  0.1119  0.0051  0.7788
  760MOL0     C 4764   9.569   1.498  11.185  0.3463 -0.0048 -0.6518
  760MOL0     C 4765   9.663   1.627  11.172  0.0071  0.8753  0.2386
  760MOL0     O 4766   9.796   1.566  11.160  0.3142 -0.3042  0.0847
  760MOL0     C 4767   9.864   1.498  11.260 -0.7184 -0.3558  0.5277
  760MOL0     C 4768   9.957   1.397  11.225 -0.5014  0.0536 -0.1914
  760MOL0     C 4769  10.049   1.347  11.317  0.9341 -0.0546  0.3498
  760MOL0     C 4770  10.119   1.221  11.266  0.0225  0.0576 -0.0426
  760MOL0     C 4771  10.037   1.388  11.453  0.0055 -0.0239 -0.7978
  760MOL0     C 4772  10.128   1.340  11.560  0.1633 -0.1263 -0.0299
  760MOL0     O 4773  10.081   1.360  11.690  0.4482 -0.6698  0.2623
  760MOL0     C 4774  10.165   1.316  11.790 -1.6908 -0.6781  0.1297
  760MOL0     C 4775  10.307   1.355  11.811  0.1490  1.2545 -0.9947
  760MOL0     C 4776  10.362   1.305  11.929  0.1795 -0.0397 -0.6586
  760MOL0     C 4777  10.291   1.230  12.017 -1.0421  0.8819 -0.1828
  760MOL0     O 4778  10.349   1.191  12.136 -0.9820  0.6913 -0.6664
  760MOL0     C 4779  10.354   1.049  12.154  0.5154  1.3853  0.5359
  760MOL0     C 4780  10.447   1.018  12.269  0.8134  0.1822  0.0280
  760MOL0     C 4781  10.404   1.082  12.406  0.4181 -0.2944  0.2574
  760MOL0     C 4782  10.289   1.000  12.468 -0.7253 -0.4958  0.7397
  760MOL0     C 4783  10.257   1.056  12.604 -0.4479 -0.6424 -0.3260
  760MOL0     C 4784  10.367   1.034  12.713  0.4527 -0.0695  0.9877
  760MOL0     C 4785  10.303   1.058  12.854  0.0414  0.0527  0.6716
  760MOL0     C 4786  10.403   1.082  12.953 -1.1390  0.9106 -0.5068
  760MOL0    Cl 4787  10.518   0.940  12.971 -0.0573 -0.2381 -0.2700
  760MOL0     C 4788  10.159   1.203  12.000 -0.1971  0.5429  0.6207
  760MOL0     C 4789  10.099   1.257  11.898 -0.1277  1.2355 -0.1449
  760MOL0     O 4790  10.238   1.295  11.525  0.2351 -0.5872  0.2595
  760MOL0     C 4791   9.943   1.482  11.494  0.2667  0.4017 -0.0622
  760MOL0     C 4792   9.857   1.534  11.394  0.0544 -0.9633  0.5876
  760MOL0     N 4793   9.270   1.754  10.956 -0.3675  0.7224  0.4373
  760MOL0     N 4794   9.298   1.882  10.958 -0.2225 -0.2075  0.4942
  760MOL0     C 4795  10.143   2.714  11.436 -0.3907  0.3823 -0.8044
  760MOL0     C 4796  10.173   2.834  11.503  0.0351  0.3795  0.1858
  760MOL0     C 4797  10.144   3.279  11.636 -0.9512 -0.1261  0.1832
  760MOL0     C 4798  10.054   3.379  11.682  0.0350 -0.4050 -0.9833
  760MOL0     C 4799  10.075   3.466  11.787  0.0687 -0.9100  0.0460
  760MOL0     C 4800  10.199   3.463  11.857  0.6508  0.8803  0.9520
  760MOL0     O 4801  10.188   3.538  11.976  0.0006  0.3749  0.5540
  760MOL0     C 4802  10.291   3.522  12.077  0.4396  0.2447  0.0300
  760MOL0     C 4803  10.296   3.651  12.154 -0.5536 -0.4115  0.4060
  760MOL0     C 4804  10.415   3.650  12.249 -0.0787 -0.1369  0.2210
  760MOL0     C 4805  10.419   3.785  12.332  1.5990  0.7911 -0.3794
  760MOL0     C 4806  10.474   3.758  12.469 -0.3170 -0.5479 -0.1948
  760MOL0     C 4807  10.511   3.727  12.581 -0.7861 -0.3257  0.1197
  760MOL0     C 4808  10.300   3.377  11.800 -0.2369 -0.0577  0.0388
  760MOL0     C 4809  10.270   3.290  11.685 -0.2309 -0.2589 -0.8732
  760MOL0     C 4810  10.384   3.214  11.617  0.2517 -0.1441 -0.4160
  760MOL0     H 4811  10.002   3.051  11.306  0.3508  0.3328 -1.5809
  760MOL0     H 4812   9.966   2.814  11.171  0.3849  0.6113 -0.7205
  760MOL0     H 4813   9.972   2.459  11.126  3.5380  0.0968  1.5961
  760MOL0     H 4814   9.952   2.619  11.092  1.6262 -1.5156 -0.1283
  760MOL0     H 4815   9.829   2.546  11.369 -3.8308  3.4958  0.3694
  760MOL0     H 4816   9.769   2.646  11.254  0.3591  0.7295  0.1855
  760MOL0     H 4817   9.753   2.342  11.270 -1.3488 -2.7977 -3.2650
  760MOL0     H 4818   9.628   2.470  11.272  0.9488  2.0921  0.9874
  760MOL0     H 4819   9.652   2.509  11.035  2.3469  1.8306  1.4565
  760MOL0     H 4820   9.765   2.388  11.013 -1.8436 -0.4289 -1.1278
  760MOL0     H 4821   9.541   2.319  10.970  0.8745  0.8287  0.5496
  760MOL0     H 4822   9.507   2.306  11.146 -0.5544 -3.3010 -1.0315
  760MOL0     H 4823   9.764   2.151  11.039 -0.9003 -1.2891 -2.9360
  760MOL0     H 4824   9.663   2.150  11.186 -1.3713  0.6880  0.5945
  760MOL0     H 4825   9.634   1.943  11.074  2.5705  1.7853  0.5910
  760MOL0     H 4826   9.600   2.028  10.921  2.3328  1.0712  0.6772
  760MOL0     H 4827   9.427   2.078  11.170  3.5116 -1.1943  0.4155
  760MOL0     H 4828   9.381   2.119  11.011  0.1986  1.0267  0.4263
  760MOL0     H 4829   9.403   1.838  11.252  1.0914  2.5569  0.4989
  760MOL0     H 4830   9.317   1.495  11.062  2.3564  1.2983 -1.3147
  760MOL0     H 4831   9.230   1.566  11.206  0.2133  1.3840  1.4554
  760MOL0     H 4832   9.448   1.618  11.318  0.1958  0.8606 -0.2169
  760MOL0     H 4833   9.401   1.449  11.306  0.7570 -1.2922 -0.6872
  760MOL0     H 4834   9.627   1.437  11.255  0.4614  0.4012 -0.3884
  760MOL0     H 4835   9.553   1.452  11.087  1.5538  0.2372 -0.9848
  760MOL0     H 4836   9.634   1.673  11.078 -4.1225 -3.2725 -0.9099
  760MOL0     H 4837   9.668   1.695  11.258 -1.0427  1.0753  0.1530
  760MOL0     H 4838   9.967   1.356  11.124  0.9070 -1.0254  0.3562
  760MOL0     H 4839  10.225   1.220  11.293  0.1643 -0.0539 -0.5884
  760MOL0     H 4840  10.107   1.209  11.157  2.2353 -2.5628 -0.1066
  760MOL0     H 4841  10.067   1.136  11.310 -0.5869 -0.5235 -1.7823
  760MOL0     H 4842  10.362   1.428  11.752  2.5269  1.9210  1.7840
  760MOL0     H 4843  10.468   1.322  11.943  0.5993  0.6945 -3.9454
  760MOL0     H 4844  10.255   1.007  12.173  0.7162  1.3669  1.5993
  760MOL0     H 4845  10.390   1.005  12.061 -1.4444  1.7778 -0.4639
  760MOL0     H 4846  10.470   0.913  12.289  2.4763  0.8610  2.0095
  760MOL0     H 4847  10.543   1.063  12.243  0.9174 -0.0553  0.0016
  760MOL0     H 4848  10.368   1.184  12.397 -0.8048 -0.5864  1.4526
  760MOL0     H 4849  10.495   1.087  12.465  1.6000 -0.3144 -1.4898
  760MOL0     H 4850  10.321   0.897  12.484  1.4222 -0.6376 -3.1024
  760MOL0     H 4851  10.210   1.013  12.392  2.7553  0.7775 -3.0277
  760MOL0     H 4852  10.229   1.161  12.602 -1.9024 -0.8836  2.5383
  760MOL0     H 4853  10.175   0.998  12.647  0.2008  0.5933  2.9214
  760MOL0     H 4854  10.458   1.092  12.694  1.3393 -2.0784 -1.2809
  760MOL0     H 4855  10.385   0.926  12.707 -1.9485 -0.5040  0.7799
  760MOL0     H 4856  10.240   0.971  12.873 -0.4379  0.8152  2.8432
  760MOL0     H 4857  10.234   1.142  12.855  0.4662  0.4202  2.6009
  760MOL0     H 4858  10.356   1.112  13.047 -1.1034  0.0027 -0.1929
  760MOL0     H 4859  10.456   1.172  12.920 -0.2608  0.6032  0.0459
  760MOL0     H 4860  10.108   1.136  12.069 -2.5908  1.5141 -0.0942
  760MOL0     H 4861   9.993   1.233  11.902  0.2780 -0.8127 -0.8356
  760MOL0     H 4862   9.917   1.525  11.591 -2.8156  1.5540 -1.2848
  760MOL0     H 4863   9.786   1.608  11.430 -1.5969 -2.0966 -0.2238
  760MOL0     H 4864  10.184   2.623  11.479 -3.5988 -2.2128 -2.7698
  760MOL0     H 4865  10.224   2.833  11.599 -0.3624 -1.0655  0.4084
  760MOL0     H 4866   9.958   3.393  11.633 -1.8880 -1.0521  2.3463
  760MOL0     H 4867   9.997   3.528  11.828 -1.8604 -0.9432 -3.2284
  760MOL0     H 4868  10.271   3.440  12.147 -1.4097  1.4323  0.9575
  760MOL0     H 4869  10.388   3.498  12.033  1.8536  1.3024  2.4307
  760MOL0     H 4870  10.215   3.648  12.227  1.1093 -1.7039  2.3047
  760MOL0     H 4871  10.308   3.737  12.087 -2.0350 -0.3910  0.1402
  760MOL0     H 4872  10.403   3.563  12.314  0.7341 -1.4981 -1.3718
  760MOL0     H 4873  10.507   3.630  12.193  1.4309  1.7608  1.8882
  760MOL0     H 4874  10.317   3.818  12.356  0.2549 -1.8363 -2.0387
  760MOL0     H 4875  10.478   3.869  12.296  0.1599  2.0030 -0.0495
  760MOL0     H 4876  10.536   3.706  12.682 -1.4458  2.8967  1.0604
  760MOL0     H 4877  10.400   3.363  11.840 -0.5109 -0.3579  0.6275
  760MOL0     H 4878  10.392   3.106  11.635  0.1084 -0.5293 -2.3705
  760MOL0     H 4879  10.387   3.228  11.509  0.1751 -0.6699 -0.4917
  760MOL0     H 4880  10.476   3.248  11.667 -0.7958 -1.6526  2.8325
  761MOL0     O 4881   8.846   7.131   8.951 -0.4657 -0.2390 -0.1407
  761MOL0     C 4882   8.931   7.217   8.984  0.5522 -1.1964  0.0797
  761MOL0     O 4883   8.911   7.344   9.033  0.4007  0.1300  0.2220
  761MOL0     C 4884   8.787   7.385   9.081 -0.5480 -0.3169  0.1865
  761MOL0     C 4885   8.730   7.314   9.184  0.4273  0.1050  0.5854
  761MOL0     C 4886   8.619   7.366   9.246  0.3023  0.1095 -0.3430
  761MOL0     C 4887   8.554   7.474   9.195 -0.8951 -0.6872  0.0664
  761MOL0     O 4888   8.440   7.510   9.264 -0.1843  0.2795 -0.1905
  761MOL0     C 4889   8.375   7.635   9.224 -0.5166  1.0506  0.3805
  761MOL0     C 4890   8.243   7.661   9.294 -0.0056  0.0026 -0.2656
  761MOL0     C 4891   8.171   7.779   9.235  0.4703  0.1595  0.7682
  761MOL0     C 4892   8.065   7.826   9.329  0.3910 -0.2675  0.1959
  761MOL0     C 4893   8.002   7.963   9.283  0.4357 -0.0094 -0.3068
  761MOL0     C 4894   7.922   7.943   9.159  0.7046 -0.5176  1.0231
  761MOL0     C 4895   7.807   8.042   9.125 -0.3526 -0.1438 -0.1890
  761MOL0     C 4896   7.853   8.185   9.100  0.0322 -0.6013  0.4373
  761MOL0     N 4897   7.892   8.210   8.960 -0.3077 -0.7285 -0.0955
  761MOL0     C 4898   7.848   8.324   8.892  0.9606 -0.0324  0.1506
  761MOL0     C 4899   7.923   8.327   8.777  0.9755  1.0208 -0.5058
  761MOL0     C 4900   7.923   8.416   8.650 -0.7833 -0.2741 -0.4237
  761MOL0     C 4901   7.798   8.408   8.580 -0.0406  0.7356  0.7990
  761MOL0     C 4902   7.657   8.431   8.656 -0.0446 -0.3212  0.0608
  761MOL0     C 4903   7.566   8.518   8.575 -0.0522  0.1045  0.0639
  761MOL0     O 4904   7.444   8.539   8.633  0.7347  0.8760 -0.4086
  761MOL0     C 4905   7.353   8.431   8.646 -0.3781 -0.8600  0.8529
  761MOL0     C 4906   7.346   8.320   8.567 -0.2500  0.7942 -0.2261
  761MOL0     C 4907   7.250   8.219   8.603 -0.0478  0.6297 -0.0983
  761MOL0     C 4908   7.228   8.113   8.496 -0.2503  0.4743 -0.3802
  761MOL0     C 4909   7.158   8.234   8.713  0.0200  0.3954 -0.6913
  761MOL0     C 4910   7.055   8.129   8.744  0.1130  0.1986 -0.1716
  761MOL0     O 4911   7.055   8.007   8.671 -0.1391 -0.0343 -0.2924
  761MOL0     C 4912   6.993   7.897   8.725  0.4407 -0.1067  0.3012
  761MOL0     C 4913   7.056   7.781   8.776 -0.0348  0.0353  0.5267
  761MOL0     C 4914   7.000   7.650   8.790  0.4673 -1.1555 -1.1875
  761MOL0     C 4915   6.867   7.631   8.755 -0.0965  0.1550 -1.3600
  761MOL0     O 4916   6.799   7.522   8.775  0.3636  0.0083  0.2351
  761MOL0     C 4917   6.746   7.523   8.909 -0.1891  0.3337 -0.6612
  761MOL0     C 4918   6.596   7.554   8.895 -0.3344  0.0527  0.6248
  761MOL0     C 4919   6.532   7.552   9.027 -1.0750 -0.7484 -0.5717
  761MOL0     C 4920   6.387   7.600   9.016  0.6678 -0.7068 -0.2298
  761MOL0     C 4921   6.370   7.750   8.980  0.6932 -0.7847  0.4560
  761MOL0     C 4922   6.309   7.821   9.095  0.3485  0.2704 -0.0962
  761MOL0     C 4923   6.294   7.968   9.069  0.2416 -0.1218  0.7207
  761MOL0     C 4924   6.269   8.056   9.188 -0.6558  0.4279 -0.2428
  761MOL0    Cl 4925   6.423   8.074   9.268  0.3270 -0.2703 -0.0881
  761MOL0     C 4926   6.795   7.749   8.700 -0.5963 -0.3055  0.5007
  761MOL0     C 4927   6.861   7.877   8.696 -0.2867 -0.2608  0.1405
  761MOL0     O 4928   6.969   8.164   8.819 -0.4768 -0.2274 -0.1844
  761MOL0     C 4929   7.174   8.349   8.792  0.4146 -1.0448  0.1529
  761MOL0     C 4930   7.264   8.451   8.748  0.0881 -0.0760  0.6096
  761MOL0     N 4931   8.014   8.223   8.789 -0.6078  0.4360  0.6331
  761MOL0     N 4932   8.010   8.168   8.905  1.0233 -1.2252  0.3283
  761MOL0     C 4933   8.611   7.551   9.089 -0.7424  0.7654 -0.4507
  761MOL0     C 4934   8.734   7.502   9.041 -0.5496  0.8837 -0.0442
  761MOL0     C 4935   9.071   7.178   8.995 -0.2599  0.2708  0.0098
  761MOL0     C 4936   9.143   7.215   9.108  0.3821 -0.2171  0.5971
  761MOL0     C 4937   9.267   7.161   9.123  0.4320 -0.2383 -0.0424
  761MOL0     C 4938   9.326   7.082   9.034  0.3373 -0.1787 -0.4501
  761MOL0     O 4939   9.452   7.040   9.071 -0.3520 -0.2984 -0.5586
  761MOL0     C 4940   9.526   6.964   8.971  0.1703 -0.3469 -0.8237
  761MOL0     C 4941   9.652   6.921   9.048  0.3585 -0.1781  1.2001
  761MOL0     C 4942   9.630   6.831   9.173 -0.0956 -0.2488  0.1652
  761MOL0     C 4943   9.761   6.766   9.225  0.7459  0.6839  0.3234
  761MOL0     C 4944   9.758   6.742   9.366 -0.7237  0.3710 -0.1021
  761MOL0     C 4945   9.766   6.694   9.483 -0.3224  0.7596  0.9565
  761MOL0     C 4946   9.274   7.057   8.904 -0.5204 -0.0239  0.0186
  761MOL0     C 4947   9.142   7.108   8.890 -0.5331  0.7580  0.6232
  761MOL0     C 4948   9.065   7.079   8.764 -0.4435 -0.0769 -0.6063
  761MOL0     H 4949   8.776   7.220   9.213  1.4763  0.5647  0.4634
  761MOL0     H 4950   8.582   7.315   9.335  1.7824  1.5944  1.1809
  761MOL0     H 4951   8.371   7.633   9.115  1.6318 -1.5368  0.2558
  761MOL0     H 4952   8.439   7.718   9.256  1.4950 -0.0621 -0.6172
  761MOL0     H 4953   8.181   7.571   9.291 -0.6030  0.3931  0.1028
  761MOL0     H 4954   8.278   7.676   9.397 -0.3923 -2.7841  0.3457
  761MOL0     H 4955   8.244   7.861   9.231 -0.0103  0.5922  0.5743
  761MOL0     H 4956   8.116   7.757   9.143  3.4554 -0.6285 -0.9799
  761MOL0     H 4957   7.983   7.753   9.328 -0.0323  0.0744 -3.4353
  761MOL0     H 4958   8.119   7.843   9.422  0.4887  2.4248 -0.2718
  761MOL0     H 4959   8.084   8.035   9.271  2.9847 -1.8642  3.8908
  761MOL0     H 4960   7.932   7.997   9.360  0.6084 -0.8462  0.2316
  761MOL0     H 4961   7.991   7.939   9.075  1.2321  0.1385  1.4257
  761MOL0     H 4962   7.869   7.847   9.147 -0.2580  0.1259 -0.1353
  761MOL0     H 4963   7.736   8.052   9.208 -2.0112  1.4736 -1.7242
  761MOL0     H 4964   7.741   8.005   9.046  0.0828 -0.5353 -0.3752
  761MOL0     H 4965   7.769   8.246   9.134 -0.3747 -0.2598 -1.1183
  761MOL0     H 4966   7.944   8.205   9.159  0.6825  3.2455 -1.5610
  761MOL0     H 4967   7.770   8.385   8.936  0.4669 -3.4225  4.5966
  761MOL0     H 4968   8.009   8.395   8.587  0.9545  0.9077  1.4106
  761MOL0     H 4969   7.922   8.521   8.683  0.4270 -0.2228 -0.4908
  761MOL0     H 4970   7.808   8.480   8.498 -1.3795 -0.3375 -0.3718
  761MOL0     H 4971   7.793   8.302   8.555 -3.0453  0.7819  0.7976
  761MOL0     H 4972   7.607   8.335   8.671 -0.0899 -0.1058  1.3673
  761MOL0     H 4973   7.668   8.477   8.755  0.2374 -0.9030  0.3051
  761MOL0     H 4974   7.614   8.616   8.563  1.7595 -1.0132 -2.9091
  761MOL0     H 4975   7.564   8.503   8.467  2.7397  3.0172 -0.5630
  761MOL0     H 4976   7.403   8.294   8.478  0.7447 -1.0306  0.8831
  761MOL0     H 4977   7.258   8.011   8.523  0.8710  0.3385 -1.9536
  761MOL0     H 4978   7.279   8.142   8.403  0.0893  1.9637  0.2387
  761MOL0     H 4979   7.123   8.110   8.466  0.0984 -1.3710 -1.6453
  761MOL0     H 4980   7.161   7.786   8.804 -0.9362 -1.4350  5.0289
  761MOL0     H 4981   7.063   7.569   8.825  0.3303 -0.8165 -0.1421
  761MOL0     H 4982   6.759   7.429   8.962  3.5777  0.3662 -1.2599
  761MOL0     H 4983   6.793   7.601   8.970  1.7896  1.6313 -3.6140
  761MOL0     H 4984   6.579   7.647   8.839 -2.1618  0.7669  2.2636
  761MOL0     H 4985   6.549   7.485   8.824  0.5248 -0.0764  0.1606
  761MOL0     H 4986   6.579   7.626   9.093 -3.1282  0.4494 -0.3600
  761MOL0     H 4987   6.530   7.451   9.069 -3.2960 -0.6894 -0.3742
  761MOL0     H 4988   6.333   7.581   9.110 -1.7407 -0.0432 -1.4019
  761MOL0     H 4989   6.335   7.543   8.938  2.7944 -1.4711 -1.1540
  761MOL0     H 4990   6.464   7.797   8.950 -1.0669  0.2152 -4.3381
  761MOL0     H 4991   6.300   7.753   8.896 -0.0056 -3.5912  0.8226
  761MOL0     H 4992   6.379   7.800   9.177 -0.7961 -2.4422  0.2963
  761MOL0     H 4993   6.214   7.776   9.124 -0.2847  2.0902  0.7888
  761MOL0     H 4994   6.206   7.967   9.005  0.7073 -0.1103  0.0745
  761MOL0     H 4995   6.374   8.015   9.011 -0.5820 -2.7930 -2.8961
  761MOL0     H 4996   6.188   8.040   9.260 -0.5258  1.9085  0.2648
  761MOL0     H 4997   6.235   8.156   9.157 -3.1059  0.4325  2.1233
  761MOL0     H 4998   6.691   7.739   8.670  0.4790 -0.8349 -3.7038
  761MOL0     H 4999   6.808   7.966   8.664 -0.9984 -0.1251  1.5802
  761MOL0     H 5000   7.105   8.363   8.875  2.6983 -0.7222  2.1236
  761MOL0     H 5001   7.267   8.548   8.796 -2.0333  1.6406 -2.4404
  761MOL0     H 5002   8.570   7.646   9.058  0.0163  1.2965  0.1319
  761MOL0     H 5003   8.789   7.554   8.963  3.3997 -3.5068 -0.5791
  761MOL0     H 5004   9.080   7.264   9.182 -1.3327  0.6146 -1.3102
  761MOL0     H 5005   9.307   7.182   9.222 -3.9580 -1.6097  2.2782
  761MOL0     H 5006   9.473   6.875   8.938 -0.9984 -0.0729  0.2108
  761MOL0     H 5007   9.545   7.023   8.881 -0.6249  1.7554  0.3131
  761MOL0     H 5008   9.713   7.007   9.077  1.8283 -0.6928 -0.2617
  761MOL0     H 5009   9.706   6.866   8.971 -1.2887 -0.3350  0.0885
  761MOL0     H 5010   9.581   6.891   9.250  0.1170  1.0904 -0.6985
  761MOL0     H 5011   9.559   6.752   9.148 -1.1304  0.3238  1.1901
  761MOL0     H 5012   9.844   6.830   9.192  2.6491 -2.0757 -0.6599
  761MOL0     H 5013   9.774   6.671   9.172  0.2132  0.8483 -0.1043
  761MOL0     H 5014   9.758   6.675   9.588 -3.3529  0.7803  0.8220
  761MOL0     H 5015   9.329   7.006   8.826  3.0772  2.5393  0.6756
  761MOL0     H 5016   9.132   7.054   8.681 -0.7134  0.6675 -1.0657
  761MOL0     H 5017   8.998   6.998   8.792  1.5447 -0.7399  2.7466
  761MOL0     H 5018   8.987   7.149   8.733 -2.6124 -2.2526 -0.3057
  762MOL0     O 5019   3.559   3.530   6.869 -0.5059 -0.7198  0.3784
  762MOL0     C 5020   3.620   3.549   6.980  0.9134  0.0211 -0.0582
  762MOL0     O 5021   3.731   3.628   7.000 -0.2130  0.3740  0.0916
  762MOL0     C 5022   3.755   3.733   6.917 -0.2369 -0.2505  1.0349
  762MOL0     C 5023   3.646   3.798   6.849 -0.7168 -0.9783 -0.9113
  762MOL0     C 5024   3.677   3.879   6.740  0.0983 -0.0653  0.5423
  762MOL0     C 5025   3.806   3.892   6.693 -0.1364 -0.3024  0.1524
  762MOL0     O 5026   3.838   3.960   6.578 -0.8737  0.3071  0.8485
  762MOL0     C 5027   3.772   4.089   6.564 -0.1560 -0.5386 -0.4018
  762MOL0     C 5028   3.666   4.078   6.453 -1.0572 -0.2246 -0.8140
  762MOL0     C 5029   3.568   4.200   6.464  0.4229  0.8056 -0.5829
  762MOL0     C 5030   3.436   4.176   6.381  0.0451  0.3624 -0.7331
  762MOL0     C 5031   3.326   4.271   6.436  0.7085 -1.1266  0.2203
  762MOL0     C 5032   3.188   4.241   6.377  0.5941 -0.6058  0.4487
  762MOL0     C 5033   3.184   4.245   6.218 -0.0533  1.2274  0.3614
  762MOL0     C 5034   3.041   4.255   6.161 -1.5106  0.6030 -0.5193
  762MOL0     N 5035   3.035   4.233   6.016  0.2187 -0.2381  0.1634
  762MOL0     C 5036   3.088   4.319   5.925  0.9296 -0.2092 -0.9384
  762MOL0     C 5037   3.037   4.288   5.805 -0.4402  0.3021 -0.1748
  762MOL0     C 5038   3.050   4.368   5.673 -0.0155 -0.6346 -0.1691
  762MOL0     C 5039   3.205   4.402   5.655  1.2311 -0.0631 -0.2805
  762MOL0     C 5040   3.233   4.402   5.515  0.8386  0.4181 -1.1743
  762MOL0     C 5041   3.372   4.443   5.481  0.4161  1.0029 -0.2152
  762MOL0     O 5042   3.387   4.573   5.511 -0.3925  0.4549 -1.2307
  762MOL0     C 5043   3.492   4.649   5.475  0.8152 -0.1632  1.3123
  762MOL0     C 5044   3.601   4.595   5.400  0.1439  0.1060 -0.7982
  762MOL0     C 5045   3.699   4.673   5.347  0.3977  0.0902  0.8282
  762MOL0     C 5046   3.798   4.603   5.258 -0.2822 -0.1167  0.6299
  762MOL0     C 5047   3.697   4.809   5.374  0.7790 -0.2641  0.3226
  762MOL0     C 5048   3.807   4.904   5.337  1.0126 -0.8979 -0.3757
  762MOL0     O 5049   3.783   5.040   5.365  0.0505  1.1090 -0.0490
  762MOL0     C 5050   3.897   5.115   5.371  0.4656 -0.6866  0.0328
  762MOL0     C 5051   3.958   5.179   5.258 -0.3458  0.0313 -0.9808
  762MOL0     C 5052   4.073   5.252   5.286  0.4407  0.0736  0.2946
  762MOL0     C 5053   4.105   5.284   5.417 -0.3223 -0.8630  0.4324
  762MOL0     O 5054   4.216   5.352   5.441 -0.7771  0.0863 -1.0812
  762MOL0     C 5055   4.253   5.473   5.364  0.6511 -0.9794 -0.0799
  762MOL0     C 5056   4.306   5.581   5.454  0.7072  0.7410  0.1434
  762MOL0     C 5057   4.193   5.647   5.533  0.1234  0.4669  0.0181
  762MOL0     C 5058   4.246   5.709   5.662  0.4919 -0.7638  0.1011
  762MOL0     C 5059   4.272   5.615   5.772 -0.2635 -0.1301  1.0724
  762MOL0     C 5060   4.306   5.681   5.909  0.2613  0.5038  0.2909
  762MOL0     C 5061   4.310   5.571   6.021 -0.4125 -0.3445  0.2123
  762MOL0     C 5062   4.398   5.633   6.129  0.6083  0.0722 -0.9300
  762MOL0    Cl 5063   4.323   5.782   6.189  0.1181 -0.4237  0.1543
  762MOL0     C 5064   4.031   5.238   5.523  0.2570 -0.0553 -0.4927
  762MOL0     C 5065   3.930   5.146   5.496  0.0313  0.7057 -0.1128
  762MOL0     O 5066   3.907   4.864   5.287 -0.0055  0.7565 -0.3043
  762MOL0     C 5067   3.581   4.866   5.432  0.6162 -0.1531 -0.0637
  762MOL0     C 5068   3.478   4.790   5.488 -0.1635  0.6115 -0.0497
  762MOL0     N 5069   2.949   4.181   5.825  0.2614 -0.1469  0.2623
  762MOL0     N 5070   2.946   4.143   5.954 -0.6273  0.4636  0.2099
  762MOL0     C 5071   3.909   3.839   6.759 -0.2559  0.5692  0.6743
  762MOL0     C 5072   3.888   3.753   6.872  0.1625 -0.1714  0.3547
  762MOL0     C 5073   3.574   3.437   7.066  0.0443  0.1154  0.5139
  762MOL0     C 5074   3.597   3.300   7.033 -0.1849  0.1558  0.0280
  762MOL0     C 5075   3.566   3.188   7.112  2.2227 -0.3092  0.3487
  762MOL0     C 5076   3.497   3.222   7.229  0.1613 -0.7848 -0.1664
  762MOL0     O 5077   3.464   3.109   7.299 -0.3320  0.6707 -0.6368
  762MOL0     C 5078   3.397   3.110   7.425 -0.2769 -0.4579  0.3373
  762MOL0     C 5079   3.338   2.977   7.465 -0.0464  0.2464 -1.0422
  762MOL0     C 5080   3.456   2.882   7.499 -0.6268 -0.3879  0.1381
  762MOL0     C 5081   3.415   2.764   7.586  0.1719  0.5202  0.9386
  762MOL0     C 5082   3.340   2.804   7.704  0.1199  0.2120  0.4032
  762MOL0     C 5083   3.276   2.839   7.798  1.0763  0.2207  0.8337
  762MOL0     C 5084   3.458   3.353   7.258  0.3360 -0.4541 -0.1077
  762MOL0     C 5085   3.490   3.467   7.174  0.9480 -0.2825  0.1799
  762MOL0     C 5086   3.458   3.609   7.207 -0.5867 -0.2807  0.0469
  762MOL0     H 5087   3.539   3.785   6.861 -0.9106  1.8641  1.3221
  762MOL0     H 5088   3.595   3.927   6.686  1.4452  1.7342  0.0019
  762MOL0     H 5089   3.837   4.176   6.548 -2.8679  1.7555  0.3249
  762MOL0     H 5090   3.712   4.106   6.653  0.9392 -2.0960  0.6853
  762MOL0     H 5091   3.712   4.084   6.354 -1.7911  0.1972 -1.1372
  762MOL0     H 5092   3.609   3.986   6.445  0.1997 -0.8486 -3.6129
  762MOL0     H 5093   3.535   4.198   6.568  0.9157 -0.3378 -0.4362
  762MOL0     H 5094   3.622   4.295   6.461  3.4235 -0.7904 -1.4657
  762MOL0     H 5095   3.444   4.171   6.272 -1.1590  3.3551 -1.0442
  762MOL0     H 5096   3.412   4.073   6.412 -0.6796  0.7873  0.1647
  762MOL0     H 5097   3.347   4.374   6.406 -0.8145 -0.3605  1.6472
  762MOL0     H 5098   3.322   4.252   6.543  3.0988  0.2597  0.6103
  762MOL0     H 5099   3.156   4.143   6.414  0.8354 -0.2351  1.6925
  762MOL0     H 5100   3.110   4.304   6.421 -0.1621 -3.2408  3.2093
  762MOL0     H 5101   3.229   4.148   6.194 -0.7849  0.9917 -0.0732
  762MOL0     H 5102   3.256   4.323   6.190  1.0998 -0.7768 -2.8661
  762MOL0     H 5103   2.985   4.182   6.219  0.1852  0.8623  1.5527
  762MOL0     H 5104   2.993   4.350   6.186  3.7527  3.2266  1.0861
  762MOL0     H 5105   3.149   4.406   5.947 -0.4370  0.7060 -0.6315
  762MOL0     H 5106   3.000   4.466   5.670  3.0111  1.0227 -0.7242
  762MOL0     H 5107   3.012   4.314   5.586 -0.1317 -0.2779 -0.3443
  762MOL0     H 5108   3.219   4.506   5.687  0.3127  0.8814 -2.6560
  762MOL0     H 5109   3.269   4.339   5.717 -0.8720 -0.1427  1.9672
  762MOL0     H 5110   3.199   4.307   5.472 -1.9514  1.3785 -1.3382
  762MOL0     H 5111   3.166   4.475   5.468 -2.0642 -1.7520 -0.7166
  762MOL0     H 5112   3.438   4.385   5.545 -1.2538  0.6795  1.2970
  762MOL0     H 5113   3.393   4.427   5.375  0.0144  5.8116 -1.2285
  762MOL0     H 5114   3.597   4.486   5.391  0.7216  0.0394 -0.3226
  762MOL0     H 5115   3.766   4.499   5.249 -0.6723 -0.0334  0.9712
  762MOL0     H 5116   3.897   4.607   5.303 -0.8805  0.1799  1.9815
  762MOL0     H 5117   3.794   4.643   5.156  3.4387  0.1769  0.4661
  762MOL0     H 5118   3.920   5.163   5.158 -2.2528 -0.4409 -0.2195
  762MOL0     H 5119   4.127   5.300   5.205 -0.2189 -2.3845 -1.7110
  762MOL0     H 5120   4.327   5.452   5.286  1.1686 -1.6106  0.5589
  762MOL0     H 5121   4.157   5.496   5.317  1.6286  0.2989 -1.5579
  762MOL0     H 5122   4.390   5.547   5.515  1.1807 -1.3050 -1.5188
  762MOL0     H 5123   4.338   5.653   5.378  0.0850  1.4216  0.5040
  762MOL0     H 5124   4.105   5.584   5.544  0.4487  0.0519  0.2661
  762MOL0     H 5125   4.158   5.721   5.459 -1.8365 -0.6328 -0.2043
  762MOL0     H 5126   4.171   5.784   5.688  0.4705 -0.8914  0.4143
  762MOL0     H 5127   4.339   5.759   5.632  0.2368 -0.0746  0.4389
  762MOL0     H 5128   4.182   5.553   5.779 -0.0857 -1.0980 -2.9510
  762MOL0     H 5129   4.359   5.553   5.747 -1.6555 -2.7375  2.3286
  762MOL0     H 5130   4.240   5.766   5.924 -2.7476 -1.3477 -1.3862
  762MOL0     H 5131   4.408   5.720   5.898  0.8676 -1.1745 -0.5070
  762MOL0     H 5132   4.369   5.483   5.994  1.1436 -0.0729  2.4771
  762MOL0     H 5133   4.215   5.538   6.065 -3.1181  1.8860 -3.3774
  762MOL0     H 5134   4.492   5.671   6.086  0.2813  0.5863 -1.2019
  762MOL0     H 5135   4.412   5.558   6.207 -2.4980 -0.5600 -0.8894
  762MOL0     H 5136   4.048   5.280   5.622  0.5520  2.0269 -1.3845
  762MOL0     H 5137   3.865   5.109   5.574  1.4731  0.3724  0.9636
  762MOL0     H 5138   3.581   4.973   5.448  2.0540 -0.0648 -0.5237
  762MOL0     H 5139   3.395   4.849   5.527 -0.3626  2.2410 -2.6591
  762MOL0     H 5140   4.005   3.843   6.708 -0.1898  1.1523  0.8400
  762MOL0     H 5141   3.965   3.700   6.927 -0.0419  2.9915  4.0868
  762MOL0     H 5142   3.646   3.288   6.937 -0.9977  3.2990 -0.9182
  762MOL0     H 5143   3.591   3.084   7.093 -0.9369 -1.2233  0.6381
  762MOL0     H 5144   3.472   3.144   7.497  2.3851  0.1582 -2.4829
  762MOL0     H 5145   3.315   3.182   7.422 -0.8962 -1.1598  0.1128
  762MOL0     H 5146   3.270   2.949   7.385 -0.7013  4.1411 -2.0685
  762MOL0     H 5147   3.282   2.997   7.557  0.9639  1.8118 -0.7168
  762MOL0     H 5148   3.486   2.836   7.404  0.4336 -3.5346  1.8538
  762MOL0     H 5149   3.535   2.941   7.546 -1.4567 -0.0865  1.1837
  762MOL0     H 5150   3.500   2.713   7.633 -0.6464 -0.7551  1.0783
  762MOL0     H 5151   3.354   2.694   7.528 -1.7927  2.1481  0.9252
  762MOL0     H 5152   3.227   2.854   7.892  0.1046  0.7380  0.2589
  762MOL0     H 5153   3.403   3.366   7.351 -2.1767 -1.6140 -1.3261
  762MOL0     H 5154   3.370   3.642   7.152  0.4214  2.5419 -0.0399
  762MOL0     H 5155   3.454   3.618   7.316 -1.3299 -2.9831  0.3075
  762MOL0     H 5156   3.529   3.688   7.181 -0.7502 -1.0271 -2.9448
  763MOL0     O 5157   1.648   9.762   6.396  0.6005 -0.4433  0.2205
  763MOL0     C 5158   1.683   9.649   6.424 -0.7368 -0.3506  0.5719
  763MOL0     O 5159   1.612   9.537   6.396 -0.5167 -0.4436  0.4043
  763MOL0     C 5160   1.561   9.529   6.270 -0.2569 -0.1570  0.4283
  763MOL0     C 5161   1.610   9.595   6.153 -0.1134 -0.4962 -1.1592
  763MOL0     C 5162   1.553   9.565   6.031  0.6781 -0.3659 -0.6949
  763MOL0     C 5163   1.463   9.461   6.017  1.0055  0.5018 -0.3519
  763MOL0     O 5164   1.421   9.428   5.894  0.4771  0.6070  0.4047
  763MOL0     C 5165   1.332   9.519   5.840 -0.4739 -0.2929  0.7735
  763MOL0     C 5166   1.305   9.508   5.684 -0.2850  0.4620  0.5123
  763MOL0     C 5167   1.270   9.363   5.639  0.1496 -0.2026  0.6195
  763MOL0     C 5168   1.129   9.327   5.684 -0.0397  0.3357 -1.0618
  763MOL0     C 5169   1.090   9.206   5.605  0.4885 -0.1072 -0.0279
  763MOL0     C 5170   0.956   9.149   5.642 -0.4733 -0.1158 -0.7742
  763MOL0     C 5171   0.884   9.057   5.540 -0.3207  0.5848 -0.2198
  763MOL0     C 5172   0.747   9.015   5.597  0.0147  0.1639  0.0136
  763MOL0     N 5173   0.756   8.891   5.667  0.6069  0.7643  0.5451
  763MOL0     C 5174   0.813   8.783   5.619  0.1337  0.2735 -0.1682
  763MOL0     C 5175   0.781   8.675   5.690  0.8154 -0.4992  0.1238
  763MOL0     C 5176   0.786   8.529   5.663 -0.6918  0.3118 -0.8188
  763MOL0     C 5177   0.725   8.511   5.528 -0.3783 -0.0615 -0.1344
  763MOL0     C 5178   0.745   8.367   5.486  0.3750 -0.1663  0.1979
  763MOL0     C 5179   0.642   8.303   5.386 -0.0424  0.0930  0.1765
  763MOL0     O 5180   0.675   8.331   5.246 -0.4953 -0.5635 -0.4436
  763MOL0     C 5181   0.618   8.442   5.203  0.4984 -0.5048  0.1892
  763MOL0     C 5182   0.479   8.468   5.198  0.0348  0.2926 -0.1143
  763MOL0     C 5183   0.421   8.583   5.144 -0.0937  0.4271 -0.0813
  763MOL0     C 5184   0.278   8.583   5.135 -0.3121  0.4862 -0.3223
  763MOL0     C 5185   0.508   8.683   5.105 -0.7494 -0.6104 -0.4169
  763MOL0     C 5186   0.465   8.819   5.045  0.6959  0.9410 -0.0729
  763MOL0     O 5187   0.336   8.863   5.050 -0.1561 -0.6567  0.5189
  763MOL0     C 5188   0.319   8.992   4.998 -0.4080  0.5388  0.3488
  763MOL0     C 5189   0.298   9.103   5.090  0.1568 -0.0498 -0.6088
  763MOL0     C 5190   0.270   9.226   5.036 -0.3452  0.3821  1.0724
  763MOL0     C 5191   0.272   9.251   4.899  0.0994  0.0570  0.4237
  763MOL0     O 5192   0.241   9.381   4.870  0.0824  0.4010  0.3960
  763MOL0     C 5193   0.270   9.412   4.736  0.0132 -0.6792 -0.5964
  763MOL0     C 5194   0.280   9.566   4.736 -0.6848  0.4997 -0.1409
  763MOL0     C 5195   0.372   9.617   4.620  1.3914 -0.3759 -0.3543
  763MOL0     C 5196   0.310   9.605   4.479  0.2011 -0.8430 -0.0278
  763MOL0     C 5197   0.415   9.615   4.371 -0.6114  0.0711  0.0107
  763MOL0     C 5198   0.353   9.594   4.235 -0.9212 -0.0982 -0.0004
  763MOL0     C 5199   0.457   9.598   4.124 -0.5822  0.9037  0.5210
  763MOL0     C 5200   0.394   9.606   3.979  1.0075 -0.1740  0.0775
  763MOL0    Cl 5201   0.544   9.634   3.889  0.3536  0.1330  0.1724
  763MOL0     C 5202   0.278   9.144   4.816 -0.2081 -0.0820  0.1336
  763MOL0     C 5203   0.313   9.019   4.864  0.4918  0.4819  0.6392
  763MOL0     O 5204   0.554   8.875   4.977 -0.0844  0.0372 -0.3755
  763MOL0     C 5205   0.645   8.665   5.131 -0.3427 -0.0470 -0.1622
  763MOL0     C 5206   0.701   8.546   5.175  0.7893 -0.0103 -0.7665
  763MOL0     N 5207   0.701   8.732   5.790  0.0381  0.5427  0.2856
  763MOL0     N 5208   0.697   8.859   5.787 -0.0456  0.2133 -0.0652
  763MOL0     C 5209   1.418   9.388   6.128 -0.8672  1.2106 -0.1404
  763MOL0     C 5210   1.468   9.422   6.250  0.4980 -0.3444  0.8745
  763MOL0     C 5211   1.783   9.639   6.537  0.9185 -0.0853 -0.5229
  763MOL0     C 5212   1.769   9.532   6.626 -0.4790  0.4607 -0.3595
  763MOL0     C 5213   1.848   9.527   6.734 -0.4372  0.3687 -1.0357
  763MOL0     C 5214   1.957   9.619   6.756  0.4425 -0.2535  0.2070
  763MOL0     O 5215   2.030   9.617   6.873 -0.5901 -0.1381 -0.5431
  763MOL0     C 5216   2.142   9.709   6.896 -0.0754  1.1589  0.7137
  763MOL0     C 5217   2.178   9.714   7.045 -0.0337  0.5986  0.3389
  763MOL0     C 5218   2.291   9.823   7.087  0.1278  0.3258 -0.4030
  763MOL0     C 5219   2.363   9.774   7.219  0.8861 -0.6433  0.1632
  763MOL0     C 5220   2.464   9.672   7.199  0.0220 -0.5179  0.4347
  763MOL0     C 5221   2.539   9.573   7.184 -0.1996  0.2384 -0.2944
  763MOL0     C 5222   1.979   9.724   6.659 -0.2244  0.3202  0.5835
  763MOL0     C 5223   1.888   9.742   6.554 -0.2119  0.1218  0.5231
  763MOL0     C 5224   1.908   9.853   6.452  0.1008 -0.2768 -0.3649
  763MOL0     H 5225   1.696   9.662   6.152  0.6944 -1.4767 -2.7234
  763MOL0     H 5226   1.586   9.624   5.946  0.7424 -1.4571 -1.4439
  763MOL0     H 5227   1.354   9.625   5.850 -1.7415  0.1991 -1.0659
  763MOL0     H 5228   1.233   9.499   5.881 -1.6323  0.2896 -1.5658
  763MOL0     H 5229   1.246   9.592   5.648  2.7332  2.1759 -0.8719
  763MOL0     H 5230   1.404   9.533   5.644 -0.4658  2.8277  1.4331
  763MOL0     H 5231   1.272   9.364   5.530 -0.9695 -1.8633  0.5521
  763MOL0     H 5232   1.341   9.283   5.665  2.5441  1.3552 -0.7102
  763MOL0     H 5233   1.125   9.292   5.788  1.1511 -2.3648 -1.8178
  763MOL0     H 5234   1.066   9.416   5.673  2.4965  2.8785  2.7135
  763MOL0     H 5235   1.163   9.125   5.606  1.4917  0.7543 -0.6487
  763MOL0     H 5236   1.076   9.238   5.501 -1.8329  1.5218  0.6910
  763MOL0     H 5237   0.968   9.091   5.733  0.1887 -0.4506 -1.0634
  763MOL0     H 5238   0.892   9.233   5.673 -2.2102 -1.6599 -0.0309
  763MOL0     H 5239   0.944   8.971   5.509 -0.9363  0.1296 -0.1683
  763MOL0     H 5240   0.862   9.110   5.448  1.8897  1.3790 -0.3554
  763MOL0     H 5241   0.712   9.094   5.663 -0.4460 -0.9483  1.1499
  763MOL0     H 5242   0.675   9.018   5.515 -2.4748  2.0219  2.1185
  763MOL0     H 5243   0.872   8.775   5.528  1.6087  2.8632  0.4757
  763MOL0     H 5244   0.728   8.477   5.739  1.0481 -0.4697  0.0398
  763MOL0     H 5245   0.891   8.501   5.676 -1.1475 -0.3269  2.0754
  763MOL0     H 5246   0.618   8.532   5.537  0.1036  4.1330 -1.8895
  763MOL0     H 5247   0.757   8.584   5.452  2.8457 -1.4649 -0.2895
  763MOL0     H 5248   0.848   8.365   5.448  1.0764 -0.3747  1.9958
  763MOL0     H 5249   0.738   8.301   5.573  3.9733 -2.5872 -1.1146
  763MOL0     H 5250   0.638   8.195   5.403 -2.1395  0.3614  1.6735
  763MOL0     H 5251   0.542   8.336   5.413  0.0973  0.0560  0.7551
  763MOL0     H 5252   0.405   8.392   5.221 -1.0521  1.9404  2.3104
  763MOL0     H 5253   0.232   8.619   5.042 -3.5656  2.8128  1.9767
  763MOL0     H 5254   0.231   8.641   5.215  0.9908  1.6511 -0.3568
  763MOL0     H 5255   0.231   8.486   5.154  1.2210 -0.0625  0.8432
  763MOL0     H 5256   0.296   9.088   5.198 -1.4922 -0.8998 -0.7353
  763MOL0     H 5257   0.269   9.315   5.098 -1.6421  2.5026 -1.7666
  763MOL0     H 5258   0.369   9.369   4.716 -0.7422 -3.4908  1.1902
  763MOL0     H 5259   0.203   9.375   4.658 -1.0713  0.0714 -0.0493
  763MOL0     H 5260   0.176   9.600   4.727 -0.6694  2.6065  4.8127
  763MOL0     H 5261   0.324   9.610   4.825 -1.2071 -0.6417  0.7109
  763MOL0     H 5262   0.460   9.551   4.621 -1.0061 -4.1348  4.3360
  763MOL0     H 5263   0.397   9.721   4.643 -0.2424 -0.4735  2.4096
  763MOL0     H 5264   0.237   9.686   4.467  2.6127  1.4688 -0.1412
  763MOL0     H 5265   0.257   9.510   4.472 -0.2638 -0.5348 -0.7969
  763MOL0     H 5266   0.451   9.718   4.366 -3.4056  1.0823 -1.1946
  763MOL0     H 5267   0.497   9.547   4.397 -0.3790  0.7191  1.0192
  763MOL0     H 5268   0.275   9.668   4.215  0.3464  0.9086 -1.4162
  763MOL0     H 5269   0.302   9.497   4.243  2.7478 -2.1857  0.0759
  763MOL0     H 5270   0.522   9.510   4.121 -0.7535  0.7883  0.1663
  763MOL0     H 5271   0.514   9.691   4.137  0.7914  0.8085 -3.5740
  763MOL0     H 5272   0.310   9.670   3.950  1.9259  1.5111  1.0203
  763MOL0     H 5273   0.349   9.507   3.966  1.8411 -0.8910  2.2719
  763MOL0     H 5274   0.264   9.152   4.709  1.9101 -1.9327 -0.3450
  763MOL0     H 5275   0.327   8.938   4.793 -2.1694 -1.5145  2.1595
  763MOL0     H 5276   0.729   8.727   5.100  0.7055 -0.9737  0.7277
  763MOL0     H 5277   0.808   8.540   5.188  0.9482 -0.9538 -2.3185
  763MOL0     H 5278   1.367   9.292   6.129 -1.7619  1.6674  0.8740
  763MOL0     H 5279   1.437   9.368   6.339 -0.1122 -1.8185 -0.1933
  763MOL0     H 5280   1.693   9.457   6.611 -0.0692 -0.1253  0.4340
  763MOL0     H 5281   1.829   9.449   6.806 -0.2497  3.6358  2.9206
  763MOL0     H 5282   2.233   9.681   6.842 -0.4170  2.3114 -0.5241
  763MOL0     H 5283   2.115   9.812   6.869 -1.8311  1.2997  2.7295
  763MOL0     H 5284   2.222   9.619   7.075  2.1668  0.8144 -1.8788
  763MOL0     H 5285   2.092   9.732   7.111 -0.7042 -2.0800  0.3246
  763MOL0     H 5286   2.366   9.833   7.008  0.7175  0.0806  0.1167
  763MOL0     H 5287   2.253   9.924   7.101 -0.5923 -0.0709  0.6041
  763MOL0     H 5288   2.279   9.737   7.279 -0.2694  0.4616 -0.6939
  763MOL0     H 5289   2.409   9.864   7.259 -1.3165  0.8175 -0.3957
  763MOL0     H 5290   2.600   9.490   7.156  2.7241  2.8611 -2.5185
  763MOL0     H 5291   2.052   9.804   6.651 -3.3494  3.3455 -0.3554
  763MOL0     H 5292   1.831   9.931   6.449 -0.2730 -0.6163  0.2144
  763MOL0     H 5293   1.998   9.905   6.486 -0.3308  2.0008 -2.4591
  763MOL0     H 5294   1.936   9.816   6.353 -3.6161 -0.2085 -1.5935
  764MOL0     O 5295   8.562   9.443   2.688  0.3702  0.5341  0.2502
  764MOL0     C 5296   8.606   9.366   2.601  1.3131  0.0991  0.1850
  764MOL0     O 5297   8.526   9.274   2.530  0.7452  1.2932 -0.0856
  764MOL0     C 5298   8.396   9.268   2.560  0.9866 -0.9611  0.3742
  764MOL0     C 5299   8.327   9.269   2.687  0.8520 -0.4617  0.8271
  764MOL0     C 5300   8.187   9.242   2.700 -0.5688  0.0229  0.2924
  764MOL0     C 5301   8.107   9.237   2.585  0.2204 -0.6332  0.0722
  764MOL0     O 5302   7.967   9.237   2.599  0.0753  0.0595 -0.3462
  764MOL0     C 5303   7.898   9.129   2.527  0.1060 -0.4057  0.1471
  764MOL0     C 5304   7.747   9.126   2.568  0.2464 -0.5408  0.0031
  764MOL0     C 5305   7.665   9.039   2.470  0.0971  0.6569  0.4341
  764MOL0     C 5306   7.516   9.026   2.516 -0.3057 -0.0261 -0.2161
  764MOL0     C 5307   7.425   8.948   2.414  0.3219 -0.3959  0.3157
  764MOL0     C 5308   7.277   8.943   2.460  0.7388  0.7256 -0.2454
  764MOL0     C 5309   7.194   8.903   2.337  0.2395 -0.0801  0.1678
  764MOL0     C 5310   7.062   8.828   2.362 -0.5220  1.0340  0.0122
  764MOL0     N 5311   6.948   8.921   2.403  0.0101  0.5179 -0.1191
  764MOL0     C 5312   6.846   8.883   2.483  0.7065 -0.9158  0.0795
  764MOL0     C 5313   6.760   8.988   2.481  0.4831  0.5024  0.3712
  764MOL0     C 5314   6.628   9.010   2.557  0.6109 -0.3304 -0.5661
  764MOL0     C 5315   6.512   8.929   2.499  0.5618  0.2738 -0.1796
  764MOL0     C 5316   6.381   8.984   2.548  0.5698 -0.0410 -0.0573
  764MOL0     C 5317   6.258   8.917   2.498  0.4200  0.1329  0.6894
  764MOL0     O 5318   6.132   8.981   2.535  0.2404 -0.1407  0.4749
  764MOL0     C 5319   6.132   9.054   2.651  0.0569 -0.7723  0.6229
  764MOL0     C 5320   6.153   9.196   2.651 -0.1618  0.0077 -0.2761
  764MOL0     C 5321   6.156   9.262   2.778 -0.4517 -0.2455 -0.2507
  764MOL0     C 5322   6.158   9.410   2.789  0.0909  0.4377  0.8980
  764MOL0     C 5323   6.138   9.181   2.902  0.8151  0.4068 -0.7697
  764MOL0     C 5324   6.146   9.242   3.042  0.2331  0.0763  0.7817
  764MOL0     O 5325   6.100   9.169   3.146 -0.3664  0.6983  0.7703
  764MOL0     C 5326   6.110   9.210   3.272 -0.2584 -0.2042  0.6533
  764MOL0     C 5327   6.004   9.219   3.351 -0.3536 -0.8682 -0.0269
  764MOL0     C 5328   6.021   9.299   3.474  0.5703  0.4798  0.5603
  764MOL0     C 5329   6.140   9.340   3.525  1.2159  1.7595  0.6073
  764MOL0     O 5330   6.144   9.422   3.630 -0.8428 -0.0682 -0.3813
  764MOL0     C 5331   6.168   9.563   3.602 -0.1067  0.3478 -1.0889
  764MOL0     C 5332   6.223   9.647   3.718  0.1676 -0.1904 -0.2328
  764MOL0     C 5333   6.360   9.618   3.766  0.3685  0.9767  0.6470
  764MOL0     C 5334   6.341   9.511   3.880  0.6709  0.0552 -0.3728
  764MOL0     C 5335   6.483   9.466   3.903 -0.2479  1.0138 -0.2667
  764MOL0     C 5336   6.530   9.358   3.800  0.3437  0.2683  0.4143
  764MOL0     C 5337   6.685   9.343   3.821 -0.1949  0.2117  0.1633
  764MOL0     C 5338   6.750   9.236   3.738  0.0501 -0.1895  0.0578
  764MOL0    Cl 5339   6.911   9.210   3.790 -0.7060 -0.0053 -0.3159
  764MOL0     C 5340   6.255   9.307   3.446  0.5461 -0.1017 -0.2020
  764MOL0     C 5341   6.236   9.236   3.325 -0.2722 -0.9218  0.0734
  764MOL0     O 5342   6.211   9.353   3.048 -0.2758  0.4142 -0.6908
  764MOL0     C 5343   6.091   9.054   2.892 -0.7973 -0.5375  1.5949
  764MOL0     C 5344   6.102   8.985   2.765 -0.6098  0.2335 -0.8952
  764MOL0     N 5345   6.818   9.087   2.406 -0.0006 -0.4666  0.2313
  764MOL0     N 5346   6.919   9.042   2.345 -0.1441 -0.2340 -0.1072
  764MOL0     C 5347   8.167   9.230   2.457  0.2048 -0.7218 -0.4352
  764MOL0     C 5348   8.313   9.231   2.450 -0.2439  0.5880  1.0123
  764MOL0     C 5349   8.755   9.369   2.566  0.0274 -0.4575 -0.4265
  764MOL0     C 5350   8.801   9.258   2.489  0.3274  0.1221 -0.4437
  764MOL0     C 5351   8.938   9.235   2.476 -0.2647 -1.1636 -0.0294
  764MOL0     C 5352   9.035   9.328   2.522 -0.2616 -1.0649 -0.9417
  764MOL0     O 5353   9.173   9.324   2.497 -0.3819  0.3330 -0.1461
  764MOL0     C 5354   9.234   9.192   2.489  0.3062  0.3421  0.2747
  764MOL0     C 5355   9.355   9.166   2.569 -0.8961  0.1587  0.2389
  764MOL0     C 5356   9.356   9.163   2.713  0.3136  0.6819 -0.7032
  764MOL0     C 5357   9.497   9.107   2.765  0.4768  0.0765  0.5201
  764MOL0     C 5358   9.506   8.957   2.769  0.1022 -0.4918  0.4620
  764MOL0     C 5359   9.517   8.839   2.776 -0.1111 -0.3055 -0.3788
  764MOL0     C 5360   8.992   9.446   2.584 -0.2748  1.1170 -0.3089
  764MOL0     C 5361   8.854   9.464   2.618 -0.0282 -0.3966 -0.1093
  764MOL0     C 5362   8.807   9.583   2.698  0.1677 -0.4034  0.0230
  764MOL0     H 5363   8.381   9.283   2.779 -1.1241 -1.6176  2.2318
  764MOL0     H 5364   8.126   9.221   2.787 -2.9518  0.3927 -1.1863
  764MOL0     H 5365   7.947   9.039   2.565 -2.4955 -1.7615  0.5447
  764MOL0     H 5366   7.900   9.138   2.418 -0.0743 -1.7252  0.0222
  764MOL0     H 5367   7.750   9.091   2.671 -4.0720 -3.7028 -0.6591
  764MOL0     H 5368   7.698   9.222   2.550 -2.5368 -1.5418  1.6356
  764MOL0     H 5369   7.681   9.076   2.368  0.7552  0.6473  0.5274
  764MOL0     H 5370   7.712   8.941   2.468 -1.9762 -0.3927  0.8195
  764MOL0     H 5371   7.513   8.984   2.617  4.9188 -0.9213 -0.1506
  764MOL0     H 5372   7.476   9.127   2.522  0.4776  0.4762 -2.3789
  764MOL0     H 5373   7.474   8.850   2.412  0.3799 -0.3861  0.9362
  764MOL0     H 5374   7.425   9.000   2.318 -0.1847 -0.3091  0.3583
  764MOL0     H 5375   7.270   8.863   2.534  1.4221  2.3996  1.7381
  764MOL0     H 5376   7.236   9.035   2.502  2.3119  2.0563 -1.4946
  764MOL0     H 5377   7.252   8.829   2.281 -1.3968  0.2317 -2.0961
  764MOL0     H 5378   7.185   8.995   2.278 -2.5628  0.7972  1.7309
  764MOL0     H 5379   7.035   8.770   2.273 -1.1390 -1.2193  1.5669
  764MOL0     H 5380   7.060   8.756   2.444 -3.5580  0.4269 -0.4480
  764MOL0     H 5381   6.848   8.790   2.539  2.0329  0.5327  2.6041
  764MOL0     H 5382   6.600   9.115   2.562  2.9983  0.3826 -0.6801
  764MOL0     H 5383   6.653   8.974   2.657  2.6143 -1.4384 -1.3949
  764MOL0     H 5384   6.532   8.944   2.393 -2.3537  1.8679 -0.6091
  764MOL0     H 5385   6.516   8.822   2.521  1.3232 -0.0041 -1.5727
  764MOL0     H 5386   6.392   8.987   2.656 -2.6130  1.3460  0.3478
  764MOL0     H 5387   6.367   9.086   2.511 -1.7461  0.3095  1.5753
  764MOL0     H 5388   6.257   8.906   2.389 -2.0020 -1.6240  0.7920
  764MOL0     H 5389   6.255   8.814   2.533 -1.0609 -1.1658 -2.8343
  764MOL0     H 5390   6.171   9.248   2.557 -1.2909  0.1916 -0.4059
  764MOL0     H 5391   6.247   9.450   2.839  1.6470 -2.4391  0.6387
  764MOL0     H 5392   6.066   9.440   2.840  1.4420  2.8960  2.1146
  764MOL0     H 5393   6.158   9.452   2.688 -2.0101 -1.2274  0.1214
  764MOL0     H 5394   5.909   9.182   3.314 -0.6959 -0.9123  0.8810
  764MOL0     H 5395   5.931   9.321   3.530 -0.1914  0.2967 -0.5633
  764MOL0     H 5396   6.246   9.567   3.525 -1.0375  1.1167 -2.0176
  764MOL0     H 5397   6.087   9.612   3.547  0.8881  0.3624 -2.6288
  764MOL0     H 5398   6.233   9.747   3.675 -2.1413  0.9158  1.5985
  764MOL0     H 5399   6.146   9.650   3.796 -1.3755  1.0319 -1.7457
  764MOL0     H 5400   6.409   9.710   3.799 -0.2781  1.2601  0.8303
  764MOL0     H 5401   6.419   9.574   3.686 -3.2432 -0.8547 -1.2380
  764MOL0     H 5402   6.284   9.421   3.855  0.9147 -0.0990 -0.3703
  764MOL0     H 5403   6.300   9.560   3.968 -0.1083  0.0955 -0.7513
  764MOL0     H 5404   6.549   9.553   3.901  2.7083 -0.9348  2.0820
  764MOL0     H 5405   6.496   9.427   4.005 -0.5397  0.1262 -0.5547
  764MOL0     H 5406   6.502   9.378   3.696 -2.8253 -3.4461  0.3266
  764MOL0     H 5407   6.479   9.265   3.827 -2.5155  1.5322 -0.2341
  764MOL0     H 5408   6.711   9.314   3.923  2.6832 -0.1723 -0.5951
  764MOL0     H 5409   6.731   9.435   3.785  0.5490 -0.0429  0.4579
  764MOL0     H 5410   6.754   9.275   3.636 -3.6868  0.6371  0.0793
  764MOL0     H 5411   6.684   9.149   3.729  0.1730 -0.3330  0.4964
  764MOL0     H 5412   6.349   9.336   3.493 -0.4614  2.1585  0.5494
  764MOL0     H 5413   6.319   9.199   3.266 -0.7776  0.2511 -1.4303
  764MOL0     H 5414   6.053   9.003   2.980  0.1651 -0.0374  2.3152
  764MOL0     H 5415   6.084   8.878   2.758  1.3741 -0.1268 -1.0904
  764MOL0     H 5416   8.116   9.224   2.361  1.4456 -2.4192 -1.0346
  764MOL0     H 5417   8.364   9.206   2.358  1.2324 -1.2311  2.2610
  764MOL0     H 5418   8.738   9.184   2.440  0.3450 -0.3306  0.2044
  764MOL0     H 5419   8.976   9.145   2.429 -1.4411 -0.5364 -2.3251
  764MOL0     H 5420   9.164   9.111   2.511  1.4640 -1.8622 -3.3082
  764MOL0     H 5421   9.264   9.174   2.385  1.2154  1.0781  0.3966
  764MOL0     H 5422   9.428   9.241   2.536 -1.2017 -0.3175 -1.6876
  764MOL0     H 5423   9.375   9.068   2.523 -1.1686 -0.4648  1.4268
  764MOL0     H 5424   9.341   9.267   2.742 -0.6448  2.5005 -6.4506
  764MOL0     H 5425   9.269   9.117   2.760 -0.7983  1.8200 -1.5620
  764MOL0     H 5426   9.508   9.141   2.869  2.1802 -1.9655  1.0831
  764MOL0     H 5427   9.574   9.147   2.698  0.3653  0.5063  0.6441
  764MOL0     H 5428   9.530   8.734   2.793 -3.2029 -1.0479 -1.8851
  764MOL0     H 5429   9.071   9.515   2.611  0.4524 -0.6779  2.6331
  764MOL0     H 5430   8.803   9.567   2.806  0.2205  0.7380  0.2130
  764MOL0     H 5431   8.884   9.659   2.680  1.1410 -1.6243 -1.2566
  764MOL0     H 5432   8.721   9.644   2.667 -1.5995 -2.8641 -0.2245
  765MOL0     O 5433   9.273   5.028   1.075  0.2747 -0.2549 -0.3711
  765MOL0     C 5434   9.199   5.035   1.173  0.1810  0.1073 -0.1820
  765MOL0     O 5435   9.231   4.988   1.303 -0.1617 -0.3204 -0.1066
  765MOL0     C 5436   9.340   4.908   1.339 -0.3800 -0.0691  0.0064
  765MOL0     C 5437   9.418   4.954   1.442 -0.3219 -0.2279 -0.0898
  765MOL0     C 5438   9.516   4.868   1.485  0.6441 -0.1656 -0.2287
  765MOL0     C 5439   9.518   4.733   1.451 -0.2635  0.2914 -0.3838
  765MOL0     O 5440   9.592   4.645   1.524 -0.1142 -0.5849  0.0423
  765MOL0     C 5441   9.526   4.524   1.552 -0.3304 -0.0703 -1.1261
  765MOL0     C 5442   9.582   4.450   1.676  0.3211 -0.8543  0.7289
  765MOL0     C 5443   9.525   4.305   1.659  0.0668 -0.4862 -0.4168
  765MOL0     C 5444   9.582   4.219   1.775 -0.1641 -0.0220  0.5909
  765MOL0     C 5445   9.526   4.077   1.778 -0.3556 -0.5587 -0.2385
  765MOL0     C 5446   9.584   3.987   1.669  0.3854  0.0251 -0.6330
  765MOL0     C 5447   9.511   3.846   1.675 -0.2862 -0.3789  1.1165
  765MOL0     C 5448   9.489   3.780   1.817  1.5584  0.1275  0.5934
  765MOL0     N 5449   9.604   3.770   1.902  0.1412 -0.5801 -0.2394
  765MOL0     C 5450   9.723   3.727   1.852  0.0292 -0.6181  0.2779
  765MOL0     C 5451   9.806   3.724   1.964 -0.5317 -0.4886  0.9113
  765MOL0     C 5452   9.938   3.647   1.977 -0.7823  0.8394  0.0838
  765MOL0     C 5453   9.907   3.499   1.976  1.1153  0.2745 -0.7255
  765MOL0     C 5454  10.023   3.428   2.040 -0.6847 -0.0344  0.0805
  765MOL0     C 5455  10.146   3.389   1.945  0.3581 -0.2481  0.0311
  765MOL0     O 5456  10.201   3.511   1.893  0.1905  0.5307  0.1320
  765MOL0     C 5457  10.301   3.524   1.789  0.3422  0.2173 -0.7645
  765MOL0     C 5458  10.359   3.418   1.728  0.2256  0.5758 -0.1966
  765MOL0     C 5459  10.454   3.432   1.626 -0.0708  0.6872 -0.3498
  765MOL0     C 5460  10.502   3.309   1.543  1.0691 -0.6941 -1.1780
  765MOL0     C 5461  10.504   3.561   1.586  1.0757 -0.3440  0.1040
  765MOL0     C 5462  10.595   3.589   1.479  0.3641 -0.1492 -0.2936
  765MOL0     O 5463  10.720   3.527   1.496 -0.1025 -0.9119  0.7446
  765MOL0     C 5464  10.820   3.541   1.406  0.6106  0.0138  0.3848
  765MOL0     C 5465  10.908   3.430   1.420  0.5858 -0.0591 -0.5404
  765MOL0     C 5466  11.032   3.442   1.375 -0.3265  0.8775 -0.0296
  765MOL0     C 5467  11.070   3.543   1.280  0.3111 -0.4019 -0.6507
  765MOL0     O 5468  11.194   3.525   1.224 -0.3083 -0.1932  0.4234
  765MOL0     C 5469  11.240   3.612   1.113 -1.0986  0.5407  0.6024
  765MOL0     C 5470  11.357   3.538   1.031 -0.7553 -0.0817 -0.5758
  765MOL0     C 5471  11.444   3.631   0.951 -0.1205 -0.3216 -0.2204
  765MOL0     C 5472  11.373   3.702   0.838 -0.3311  0.2594  0.6505
  765MOL0     C 5473  11.308   3.603   0.734 -0.2956  0.2908  0.1059
  765MOL0     C 5474  11.274   3.670   0.598 -0.0399  0.0870  0.4396
  765MOL0     C 5475  11.160   3.596   0.524 -0.3151 -0.3344  0.0581
  765MOL0     C 5476  11.190   3.593   0.371  0.1098  1.1008  0.0605
  765MOL0    Cl 5477  11.334   3.507   0.355 -0.5047 -0.6698 -0.0033
  765MOL0     C 5478  10.980   3.651   1.260 -0.4404  0.4576  0.1699
  765MOL0     C 5479  10.854   3.648   1.323  0.6585 -0.2333 -0.6751
  765MOL0     O 5480  10.556   3.670   1.388  0.0712  0.3255  0.4019
  765MOL0     C 5481  10.442   3.665   1.651  0.9169  0.4212 -0.6782
  765MOL0     C 5482  10.345   3.653   1.756 -0.1877  0.1161  0.6805
  765MOL0     N 5483   9.733   3.766   2.073 -0.6053 -0.4145 -0.1957
  765MOL0     N 5484   9.612   3.804   2.033 -0.1164  0.1521 -1.0344
  765MOL0     C 5485   9.450   4.688   1.337 -0.3216 -0.5901  0.3460
  765MOL0     C 5486   9.356   4.774   1.290  0.0417  0.0515 -0.1896
  765MOL0     C 5487   9.067   5.089   1.158 -0.0635  0.2628  0.2436
  765MOL0     C 5488   9.038   5.179   1.047  0.8411 -0.6051 -0.7190
  765MOL0     C 5489   8.911   5.236   1.024  1.3088  0.4721  0.5234
  765MOL0     C 5490   8.812   5.201   1.108 -0.2680 -0.4452  0.3278
  765MOL0     O 5491   8.689   5.250   1.083 -0.2574 -0.9075 -0.0696
  765MOL0     C 5492   8.598   5.165   1.021 -0.1586  0.3817  0.0412
  765MOL0     C 5493   8.451   5.177   1.081  0.0383  0.1994 -0.0586
  765MOL0     C 5494   8.410   5.323   1.056 -0.2807  0.3723 -0.8547
  765MOL0     C 5495   8.257   5.338   1.017 -0.7158 -0.4765 -0.1315
  765MOL0     C 5496   8.227   5.272   0.892  1.2203 -0.1609 -0.4485
  765MOL0     C 5497   8.183   5.211   0.793 -0.6474 -0.7034 -0.1661
  765MOL0     C 5498   8.833   5.110   1.219  0.0449  0.3452 -0.6545
  765MOL0     C 5499   8.959   5.061   1.245  0.9214 -0.6103 -0.6354
  765MOL0     C 5500   8.966   4.947   1.354 -0.1128 -0.3898  0.6263
  765MOL0     H 5501   9.408   5.056   1.479  3.4275 -0.3418  1.6453
  765MOL0     H 5502   9.574   4.909   1.566 -1.5149  0.9132  0.8694
  765MOL0     H 5503   9.547   4.461   1.465 -0.0923  0.9051 -1.7871
  765MOL0     H 5504   9.420   4.530   1.578 -0.4933 -5.6187  0.7201
  765MOL0     H 5505   9.691   4.448   1.671  0.3067  0.0368 -0.8021
  765MOL0     H 5506   9.543   4.506   1.761 -1.5837 -3.0757  1.4301
  765MOL0     H 5507   9.416   4.299   1.652  0.1940 -1.1175 -2.9074
  765MOL0     H 5508   9.564   4.260   1.567  0.2129 -1.8248  0.2797
  765MOL0     H 5509   9.689   4.225   1.756 -0.4218  0.9338 -0.7548
  765MOL0     H 5510   9.536   4.257   1.867 -0.1124  1.5989 -0.0179
  765MOL0     H 5511   9.418   4.064   1.772 -0.7882  1.9356  0.9689
  765MOL0     H 5512   9.557   4.049   1.879 -2.4607 -1.2756  0.2684
  765MOL0     H 5513   9.568   4.024   1.567  1.0904 -2.4605 -1.7207
  765MOL0     H 5514   9.691   3.976   1.687  0.3241  0.4352  0.0240
  765MOL0     H 5515   9.549   3.775   1.601  0.3076 -0.1879  1.2333
  765MOL0     H 5516   9.410   3.863   1.636  0.2823 -1.0125 -0.7524
  765MOL0     H 5517   9.416   3.846   1.865  0.9315  0.4760 -0.7646
  765MOL0     H 5518   9.435   3.686   1.804  2.5632 -0.6931  2.1291
  765MOL0     H 5519   9.745   3.695   1.750  0.6493  1.1133 -0.1759
  765MOL0     H 5520   9.980   3.690   2.068  0.4144 -0.9283  0.3980
  765MOL0     H 5521  10.006   3.666   1.893 -1.4339  0.3098 -0.5789
  765MOL0     H 5522   9.823   3.482   2.044  0.5865 -1.6162 -1.7935
  765MOL0     H 5523   9.880   3.454   1.881 -3.5183 -1.0045  0.9021
  765MOL0     H 5524  10.063   3.490   2.121  0.4352 -1.1878  0.4541
  765MOL0     H 5525   9.994   3.333   2.085 -0.4746 -0.2111 -0.1541
  765MOL0     H 5526  10.221   3.327   1.996 -1.0231  0.6773  3.4521
  765MOL0     H 5527  10.117   3.328   1.859  0.5653  0.9904 -0.9441
  765MOL0     H 5528  10.338   3.315   1.753  1.2885 -0.2527 -2.4591
  765MOL0     H 5529  10.461   3.216   1.583  0.6364 -0.0476 -0.0923
  765MOL0     H 5530  10.611   3.311   1.551  1.0663 -0.8273 -1.1077
  765MOL0     H 5531  10.479   3.322   1.437  0.1556 -0.6600 -0.9829
  765MOL0     H 5532  10.883   3.347   1.486 -0.0245  1.0764  0.7031
  765MOL0     H 5533  11.105   3.364   1.392  1.3472  1.9208 -2.0362
  765MOL0     H 5534  11.149   3.640   1.059 -0.5972  1.1757  0.0680
  765MOL0     H 5535  11.280   3.701   1.163 -1.4413  0.4377  1.0745
  765MOL0     H 5536  11.427   3.477   1.089 -1.1307 -2.1974 -2.2087
  765MOL0     H 5537  11.298   3.472   0.966 -0.5127  0.0816 -0.9647
  765MOL0     H 5538  11.521   3.566   0.909 -1.2553 -2.5894  1.0057
  765MOL0     H 5539  11.483   3.712   1.014 -1.2049  1.1325 -1.3734
  765MOL0     H 5540  11.434   3.779   0.789 -2.8140  1.8093 -0.1831
  765MOL0     H 5541  11.300   3.765   0.891  0.3267  0.9596  0.7536
  765MOL0     H 5542  11.382   3.525   0.714 -0.0660 -0.2355  2.6628
  765MOL0     H 5543  11.221   3.553   0.778 -0.5523  1.4294  0.9334
  765MOL0     H 5544  11.363   3.685   0.537 -0.3965  1.5004  0.2203
  765MOL0     H 5545  11.246   3.776   0.605 -1.1429 -0.1695  0.0519
  765MOL0     H 5546  11.067   3.650   0.541 -1.3188 -0.9153 -3.0019
  765MOL0     H 5547  11.157   3.495   0.565  4.5119 -0.9127 -0.3903
  765MOL0     H 5548  11.207   3.692   0.327  1.0027  1.1021  0.3813
  765MOL0     H 5549  11.115   3.541   0.312  1.5935  0.1686 -1.0681
  765MOL0     H 5550  11.007   3.735   1.198 -2.6566  1.7498  0.8419
  765MOL0     H 5551  10.790   3.736   1.316 -0.4130 -0.6875  1.9118
  765MOL0     H 5552  10.467   3.768   1.625  2.7897  0.2557  0.2578
  765MOL0     H 5553  10.299   3.738   1.804  0.9493  0.0955  1.8483
  765MOL0     H 5554   9.475   4.596   1.285  0.2416  0.1829 -0.7846
  765MOL0     H 5555   9.304   4.744   1.199  2.1430 -0.7429 -1.1990
  765MOL0     H 5556   9.113   5.203   0.973  2.0857  4.9752  1.8057
  765MOL0     H 5557   8.881   5.285   0.932 -1.0359  3.5160  2.7141
  765MOL0     H 5558   8.605   5.176   0.913  3.3187  0.6959  0.1730
  765MOL0     H 5559   8.628   5.060   1.033 -1.6003  0.0021  0.6090
  765MOL0     H 5560   8.444   5.139   1.184 -0.6571 -0.6658 -0.4123
  765MOL0     H 5561   8.394   5.103   1.025  3.3218 -0.8310 -2.3525
  765MOL0     H 5562   8.439   5.384   1.141  3.6342  1.3515 -2.6408
  765MOL0     H 5563   8.467   5.372   0.976  0.0418  4.5491  1.6364
  765MOL0     H 5564   8.251   5.447   1.009 -0.7035 -0.2793  2.0259
  765MOL0     H 5565   8.194   5.317   1.104  0.9778  1.5587  1.6774
  765MOL0     H 5566   8.166   5.157   0.702  1.9044  0.1854 -1.2615
  765MOL0     H 5567   8.743   5.091   1.276 -0.2292  0.7572 -0.9482
  765MOL0     H 5568   8.871   4.929   1.405 -0.5316  0.0514  0.0256
  765MOL0     H 5569   9.019   4.859   1.316  0.6438  0.1388  0.4435
  765MOL0     H 5570   9.030   4.984   1.434  1.4511  1.1233 -1.2019
  766MOL0     O 5571   1.157   6.648  10.437 -0.2630  0.2349  0.3823
  766MOL0     C 5572   1.257   6.583  10.401  0.7637  0.3847 -0.4646
  766MOL0     O 5573   1.253   6.456  10.349  0.1748  0.4339 -0.2316
  766MOL0     C 5574   1.132   6.385  10.337 -0.4219  0.1615  0.8926
  766MOL0     C 5575   1.003   6.405  10.401 -1.1170 -0.9658 -0.1149
  766MOL0     C 5576   0.887   6.330  10.372  0.1695  0.4763 -0.0217
  766MOL0     C 5577   0.900   6.215  10.300  0.7573  0.3771 -0.1160
  766MOL0     O 5578   0.783   6.159  10.273  0.0930  0.0003  0.6817
  766MOL0     C 5579   0.767   6.030  10.209 -0.0014 -0.3531 -0.3987
  766MOL0     C 5580   0.818   5.908  10.306  0.1461  0.0543  0.1615
  766MOL0     C 5581   0.846   5.787  10.218  0.4343  0.5513  0.7495
  766MOL0     C 5582   0.721   5.741  10.137 -0.3003 -0.7071  0.1186
  766MOL0     C 5583   0.749   5.608  10.062  0.5044 -0.1714  0.1689
  766MOL0     C 5584   0.633   5.581   9.956  0.0836  0.5150  0.2628
  766MOL0     C 5585   0.490   5.587  10.007  0.2405 -0.4512 -0.1489
  766MOL0     C 5586   0.393   5.479   9.963 -1.1072 -0.3953 -0.1770
  766MOL0     N 5587   0.252   5.532   9.991 -0.8289 -0.6318 -0.5558
  766MOL0     C 5588   0.219   5.622  10.100  0.5874  1.0177  0.1746
  766MOL0     C 5589   0.088   5.617  10.110  1.0534  1.2400  0.2049
  766MOL0     C 5590  -0.002   5.695  10.194  0.6498  0.7896 -0.1061
  766MOL0     C 5591  -0.109   5.777  10.120  0.5852  0.0976 -0.6875
  766MOL0     C 5592  -0.248   5.748  10.176  0.1112  1.0857 -0.6709
  766MOL0     C 5593  -0.347   5.786  10.071 -0.4421  0.5315 -0.1154
  766MOL0     O 5594  -0.363   5.930  10.065 -0.0422  0.9802 -0.3100
  766MOL0     C 5595  -0.460   5.974   9.980 -0.6088 -1.1000 -0.1020
  766MOL0     C 5596  -0.545   6.073  10.027 -0.3935  0.9002 -0.1263
  766MOL0     C 5597  -0.645   6.136   9.947 -0.4021 -0.0988  0.7968
  766MOL0     C 5598  -0.726   6.246  10.000 -0.1449 -0.3595 -0.1463
  766MOL0     C 5599  -0.654   6.094   9.805 -0.5250 -0.0841  0.1232
  766MOL0     C 5600  -0.760   6.138   9.704 -1.0164  0.0031 -0.1165
  766MOL0     O 5601  -0.877   6.165   9.766  0.2157 -0.1696 -0.7766
  766MOL0     C 5602  -0.986   6.187   9.687  0.3739 -0.0903  0.5198
  766MOL0     C 5603  -1.090   6.095   9.708 -0.1302 -0.6052 -0.9809
  766MOL0     C 5604  -1.217   6.121   9.641  1.0319 -0.2388  0.4440
  766MOL0     C 5605  -1.230   6.225   9.551  0.1887  0.4039  1.4591
  766MOL0     O 5606  -1.350   6.227   9.492  0.2295  0.0275  0.6560
  766MOL0     C 5607  -1.356   6.304   9.371  0.3995  1.0945 -0.3810
  766MOL0     C 5608  -1.487   6.300   9.292 -0.3703 -0.7135  0.3848
  766MOL0     C 5609  -1.521   6.160   9.236  0.1023  0.3265  0.2807
  766MOL0     C 5610  -1.488   6.145   9.082  0.3197 -0.2118  0.3132
  766MOL0     C 5611  -1.465   6.005   9.041 -0.3048  1.0367  0.1911
  766MOL0     C 5612  -1.323   5.965   9.063  0.5111 -0.5250  0.3444
  766MOL0     C 5613  -1.276   5.821   9.020 -0.4489  0.0006 -0.3447
  766MOL0     C 5614  -1.322   5.761   8.894  0.1663 -0.6348  0.1177
  766MOL0    Cl 5615  -1.236   5.851   8.760  0.0891  0.1676  0.1245
  766MOL0     C 5616  -1.121   6.312   9.525  0.5396  0.4565 -0.0679
  766MOL0     C 5617  -0.995   6.295   9.592  0.7015  0.6326 -0.0834
  766MOL0     O 5618  -0.738   6.131   9.584  0.4897 -0.1648  1.1111
  766MOL0     C 5619  -0.568   5.997   9.761 -0.0489  0.1587  0.6572
  766MOL0     C 5620  -0.470   5.946   9.844  0.2935  0.1974  0.6786
  766MOL0     N 5621   0.053   5.549   9.990  0.5561  0.4200 -0.9639
  766MOL0     N 5622   0.147   5.501   9.916 -0.0098  0.6044 -0.4224
  766MOL0     C 5623   1.029   6.186  10.236 -0.1833  0.1030 -0.4782
  766MOL0     C 5624   1.140   6.276  10.251 -1.0894 -0.2942 -1.1272
  766MOL0     C 5625   1.386   6.640  10.451  1.3367  0.3661  0.3982
  766MOL0     C 5626   1.484   6.541  10.470  0.1003 -0.1079 -0.2200
  766MOL0     C 5627   1.607   6.577  10.530 -0.7813 -0.4037 -0.5179
  766MOL0     C 5628   1.633   6.708  10.571  0.5737 -0.8677  0.3867
  766MOL0     O 5629   1.752   6.760  10.616  0.2362  0.2472  0.6928
  766MOL0     C 5630   1.858   6.681  10.663 -0.2128  0.3710 -0.0213
  766MOL0     C 5631   1.971   6.657  10.546 -0.3801  0.1466  0.6647
  766MOL0     C 5632   2.038   6.516  10.561 -0.2408  0.0573  0.0403
  766MOL0     C 5633   2.158   6.514  10.473  0.6303  0.6182 -1.6339
  766MOL0     C 5634   2.213   6.380  10.471 -0.1870 -0.4783 -1.2384
  766MOL0     C 5635   2.231   6.273  10.434 -0.2585 -0.1077  0.5006
  766MOL0     C 5636   1.529   6.804  10.545 -0.8100  0.0596 -0.6540
  766MOL0     C 5637   1.412   6.779  10.484  0.6980  0.3395  0.0912
  766MOL0     C 5638   1.323   6.901  10.462 -0.1331 -0.9197  0.3738
  766MOL0     H 5639   0.990   6.500  10.452 -0.4230 -0.5527 -0.6823
  766MOL0     H 5640   0.789   6.357  10.411 -1.2814 -6.1608  2.4429
  766MOL0     H 5641   0.813   6.032  10.110 -0.3821  2.3644 -0.5905
  766MOL0     H 5642   0.658   6.027  10.197 -0.1238  4.1052 -2.4569
  766MOL0     H 5643   0.909   5.929  10.363  0.8798 -0.5900 -0.7413
  766MOL0     H 5644   0.742   5.875  10.378  1.1268  0.0842  1.2380
  766MOL0     H 5645   0.927   5.832  10.160 -0.4097  1.9806  0.6607
  766MOL0     H 5646   0.885   5.713  10.290  3.4451  1.6336  0.3870
  766MOL0     H 5647   0.638   5.726  10.208 -0.9080 -1.8427 -0.7902
  766MOL0     H 5648   0.685   5.816  10.066  3.3087 -1.0794 -2.3811
  766MOL0     H 5649   0.770   5.522  10.127  0.7906  1.3114  2.1424
  766MOL0     H 5650   0.840   5.623  10.004  1.1287  5.3179  1.9677
  766MOL0     H 5651   0.645   5.645   9.869  1.7668 -0.7382 -0.4972
  766MOL0     H 5652   0.644   5.479   9.919  1.8618  0.0301  1.9136
  766MOL0     H 5653   0.454   5.686   9.978 -0.3223  0.2016  2.4749
  766MOL0     H 5654   0.483   5.577  10.116  0.1509 -4.0103 -0.3528
  766MOL0     H 5655   0.413   5.451   9.859 -0.0610 -1.0666  0.1980
  766MOL0     H 5656   0.421   5.392  10.022  0.6050 -0.4971 -1.1045
  766MOL0     H 5657   0.287   5.667  10.171  0.6429  1.8393 -0.3797
  766MOL0     H 5658   0.050   5.780  10.241  4.2380  0.3218 -2.8180
  766MOL0     H 5659  -0.045   5.629  10.270 -1.3037  0.3012 -1.5625
  766MOL0     H 5660  -0.086   5.884  10.119 -3.1201  1.0751  0.8161
  766MOL0     H 5661  -0.104   5.746  10.015 -2.6685 -0.7370 -0.7280
  766MOL0     H 5662  -0.275   5.647  10.208 -1.5025  2.6733  3.7673
  766MOL0     H 5663  -0.262   5.810  10.265 -2.8253  0.2562 -0.4733
  766MOL0     H 5664  -0.317   5.741   9.977 -1.7310 -3.3557  1.1604
  766MOL0     H 5665  -0.441   5.733  10.091 -0.3771 -0.6020 -2.5350
  766MOL0     H 5666  -0.539   6.104  10.131  1.0564  0.5552 -0.0926
  766MOL0     H 5667  -0.706   6.326   9.929 -2.5738 -0.8417 -1.4684
  766MOL0     H 5668  -0.691   6.266  10.102  0.8477 -2.0545 -0.1206
  766MOL0     H 5669  -0.829   6.209   9.995 -0.4001  0.4479 -1.1898
  766MOL0     H 5670  -1.085   6.018   9.784 -0.4289 -1.3894 -1.7413
  766MOL0     H 5671  -1.297   6.050   9.650 -0.6821  0.9126 -3.5034
  766MOL0     H 5672  -1.316   6.404   9.391  1.2515  1.1881 -2.2855
  766MOL0     H 5673  -1.286   6.247   9.309 -1.9580 -2.3210 -0.2245
  766MOL0     H 5674  -1.571   6.347   9.345  0.5359  4.2115 -1.9695
  766MOL0     H 5675  -1.474   6.376   9.215 -2.5181  1.1212  1.6966
  766MOL0     H 5676  -1.629   6.148   9.248  0.0851 -0.8531 -0.8758
  766MOL0     H 5677  -1.465   6.083   9.290  2.0000  0.3399 -1.5545
  766MOL0     H 5678  -1.404   6.202   9.041  1.0038 -2.9473 -2.4530
  766MOL0     H 5679  -1.576   6.181   9.029 -1.1525 -1.2438  1.9264
  766MOL0     H 5680  -1.528   5.940   9.101 -1.4774  0.8197 -1.2209
  766MOL0     H 5681  -1.486   5.985   8.936  0.9432  2.3054 -0.3486
  766MOL0     H 5682  -1.305   5.963   9.171  0.3085 -0.8270  0.3731
  766MOL0     H 5683  -1.246   6.032   9.023  0.4123  0.4091  1.6530
  766MOL0     H 5684  -1.324   5.757   9.095 -2.1565 -2.5006 -3.3319
  766MOL0     H 5685  -1.168   5.803   9.024 -0.6281 -2.3328 -2.8982
  766MOL0     H 5686  -1.427   5.779   8.869  0.9301  1.7657 -1.6634
  766MOL0     H 5687  -1.298   5.654   8.893  0.6395 -0.5312 -0.7321
  766MOL0     H 5688  -1.119   6.384   9.444 -1.1625 -0.1540 -0.6928
  766MOL0     H 5689  -0.919   6.369   9.570 -1.8671  3.2072 -0.9443
  766MOL0     H 5690  -0.581   5.963   9.659 -0.4614 -0.8181  1.0245
  766MOL0     H 5691  -0.386   5.891   9.805  1.9005  2.8042  0.2316
  766MOL0     H 5692   1.035   6.102  10.168 -0.7666 -2.2871  2.2248
  766MOL0     H 5693   1.231   6.257  10.196  0.0835  2.1338 -0.1604
  766MOL0     H 5694   1.470   6.436  10.444 -3.0029 -0.2937  1.7221
  766MOL0     H 5695   1.678   6.495  10.535 -0.1641  0.0223 -1.8185
  766MOL0     H 5696   1.896   6.721  10.757 -2.2690  1.3405  0.4462
  766MOL0     H 5697   1.832   6.581  10.700  2.3216 -0.1135  0.7114
  766MOL0     H 5698   2.037   6.744  10.544  2.8939 -2.1762 -0.4983
  766MOL0     H 5699   1.908   6.663  10.456 -0.2152  1.1477  0.5997
  766MOL0     H 5700   2.058   6.514  10.668 -2.6475 -0.3637  0.5304
  766MOL0     H 5701   1.958   6.446  10.535  0.2430 -0.7185  0.6120
  766MOL0     H 5702   2.232   6.580  10.519 -2.1741  2.4752  0.5294
  766MOL0     H 5703   2.127   6.554  10.376 -1.0796  4.1826  0.2353
  766MOL0     H 5704   2.257   6.174  10.402 -1.7581  0.2758 -2.2047
  766MOL0     H 5705   1.537   6.899  10.596 -3.7294  1.3054 -2.2689
  766MOL0     H 5706   1.221   6.900  10.503 -0.9489  1.5951 -1.3272
  766MOL0     H 5707   1.356   6.990  10.515 -0.6302 -1.1263  1.0412
  766MOL0     H 5708   1.313   6.931  10.357  1.0072 -0.6446  0.3402
  767MOL0     O 5709   9.260  11.122   6.566  0.0578 -0.1134 -0.1496
  767MOL0     C 5710   9.157  11.177   6.520 -0.9984  0.8573 -0.0683
  767MOL0     O 5711   9.033  11.137   6.543  0.8005 -0.2802  0.4295
  767MOL0     C 5712   9.015  11.042   6.644 -0.1674  0.7680  1.0203
  767MOL0     C 5713   9.036  11.078   6.775  1.0543  0.0754 -0.1727
  767MOL0     C 5714   9.023  10.989   6.883 -0.0017  0.5683 -0.8964
  767MOL0     C 5715   8.994  10.857   6.865 -0.3187 -0.2282  0.1427
  767MOL0     O 5716   8.979  10.775   6.975 -0.1633 -0.7474  0.3411
  767MOL0     C 5717   8.985  10.632   6.960 -1.1301  0.3589 -0.0940
  767MOL0     C 5718   8.973  10.565   7.099 -0.1851  0.9083  0.3214
  767MOL0     C 5719   9.049  10.423   7.097  0.7273  0.7317  0.0939
  767MOL0     C 5720   9.037  10.362   7.234  0.1776  0.3559 -0.8774
  767MOL0     C 5721   9.131  10.242   7.255 -0.3273 -0.5221 -1.2596
  767MOL0     C 5722   9.143  10.215   7.407  0.3072 -0.1631 -0.9113
  767MOL0     C 5723   9.012  10.200   7.485  0.4534 -1.2484  0.0516
  767MOL0     C 5724   8.934  10.075   7.444  0.4199  0.9532  0.2575
  767MOL0     N 5725   8.787  10.081   7.441  0.3869 -0.3349  0.5583
  767MOL0     C 5726   8.704  10.064   7.554 -0.0796 -0.0390  1.6465
  767MOL0     C 5727   8.584  10.107   7.508  0.7257  0.3297 -0.6734
  767MOL0     C 5728   8.444  10.121   7.581 -1.8230  0.1498 -0.0188
  767MOL0     C 5729   8.339  10.035   7.499  0.4721 -0.1044  0.6856
  767MOL0     C 5730   8.357   9.884   7.503 -0.1020 -0.2992  0.0506
  767MOL0     C 5731   8.334   9.822   7.641  0.5965 -0.2752 -0.1004
  767MOL0     O 5732   8.195   9.857   7.675  0.9709 -0.2141  0.8514
  767MOL0     C 5733   8.097   9.762   7.705  0.3278 -0.1941  0.1314
  767MOL0     C 5734   8.091   9.635   7.643 -0.2176 -0.9546 -0.3457
  767MOL0     C 5735   7.994   9.549   7.681  0.1088  1.2997 -0.3662
  767MOL0     C 5736   7.987   9.426   7.585 -0.2033 -0.2551 -0.4051
  767MOL0     C 5737   7.908   9.574   7.793 -0.8149 -0.7663 -0.0833
  767MOL0     C 5738   7.806   9.475   7.836 -0.0671  0.7141 -0.4952
  767MOL0     O 5739   7.688   9.523   7.871  0.2086  0.6641 -0.1520
  767MOL0     C 5740   7.583   9.433   7.868 -0.3339  0.5065  0.1993
  767MOL0     C 5741   7.471   9.456   7.778  0.0330 -0.9870  1.1543
  767MOL0     C 5742   7.360   9.373   7.778  0.3539  0.8801 -0.2220
  767MOL0     C 5743   7.360   9.267   7.855  0.3116 -0.3671  0.5877
  767MOL0     O 5744   7.259   9.171   7.854  0.2248  0.9071  0.4885
  767MOL0     C 5745   7.125   9.204   7.818 -0.1463  1.3484  0.4027
  767MOL0     C 5746   7.024   9.095   7.845 -0.0726 -0.2250 -0.0934
  767MOL0     C 5747   7.052   9.030   7.976  0.1453  0.5945 -0.3717
  767MOL0     C 5748   6.948   8.916   7.997 -0.0148 -0.0269 -0.6384
  767MOL0     C 5749   6.800   8.960   8.027  0.7390 -0.0907 -0.6031
  767MOL0     C 5750   6.722   8.846   8.075  0.1880  0.9199  0.6485
  767MOL0     C 5751   6.650   8.777   7.960 -0.7852  0.5423 -1.0094
  767MOL0     C 5752   6.714   8.642   7.919 -0.3075  0.4258 -0.0903
  767MOL0    Cl 5753   6.624   8.578   7.775  0.1139  0.0502 -0.2977
  767MOL0     C 5754   7.461   9.243   7.955 -0.7237  0.7948 -0.5307
  767MOL0     C 5755   7.575   9.325   7.960  0.5641 -0.1051  0.0008
  767MOL0     O 5756   7.842   9.353   7.811  0.0810 -0.6531 -0.6218
  767MOL0     C 5757   7.922   9.697   7.853 -0.6041  1.0869 -0.7942
  767MOL0     C 5758   8.005   9.801   7.804  0.4075  0.1776 -0.4650
  767MOL0     N 5759   8.596  10.152   7.373  0.2127  0.1072 -0.4675
  767MOL0     N 5760   8.717  10.141   7.341 -0.3097 -0.6220  0.2760
  767MOL0     C 5761   8.964  10.820   6.730 -0.1813  0.1742 -1.1124
  767MOL0     C 5762   8.977  10.910   6.618  0.6576  0.3545  0.1959
  767MOL0     C 5763   9.176  11.285   6.425 -0.5126 -0.6787 -0.5131
  767MOL0     C 5764   9.095  11.291   6.309 -0.5295  0.0326 -0.8823
  767MOL0     C 5765   9.112  11.392   6.217  0.4189  0.9009 -1.0659
  767MOL0     C 5766   9.214  11.487   6.230 -0.3578 -0.5007 -0.4732
  767MOL0     O 5767   9.223  11.591   6.141  0.4433 -0.5669  0.6315
  767MOL0     C 5768   9.345  11.576   6.062 -0.7144 -0.2902 -0.8388
  767MOL0     C 5769   9.352  11.449   5.967  0.6157 -0.5783 -0.0017
  767MOL0     C 5770   9.252  11.466   5.852  0.1192  0.1202  0.8825
  767MOL0     C 5771   9.244  11.598   5.773  0.4526  0.4724 -0.1055
  767MOL0     C 5772   9.160  11.703   5.823  0.1629 -1.2829  0.2558
  767MOL0     C 5773   9.101  11.798   5.880 -0.1593  1.4041  0.2181
  767MOL0     C 5774   9.295  11.485   6.343  0.2355  0.2031  0.3799
  767MOL0     C 5775   9.281  11.380   6.437  0.4449 -0.5196  0.5601
  767MOL0     C 5776   9.359  11.396   6.562 -0.6484  0.0346  0.0696
  767MOL0     H 5777   9.055  11.182   6.798  0.0677 -0.1131  1.6514
  767MOL0     H 5778   9.022  11.025   6.985 -2.1550 -3.9441  0.9824
  767MOL0     H 5779   9.071  10.602   6.899 -0.2335  1.4919  0.5676
  767MOL0     H 5780   8.898  10.594   6.906 -0.6515  1.9799 -2.1354
  767MOL0     H 5781   8.999  10.635   7.178 -1.5224  1.2721  0.4653
  767MOL0     H 5782   8.868  10.550   7.128  0.6890  0.8297  3.9113
  767MOL0     H 5783   9.019  10.356   7.016 -1.8859 -1.5775  2.7745
  767MOL0     H 5784   9.155  10.444   7.082  1.8550 -2.9553  1.7998
  767MOL0     H 5785   9.036  10.433   7.317 -0.1530 -0.2650 -0.3400
  767MOL0     H 5786   8.939  10.320   7.259  0.6229 -0.6549 -0.7911
  767MOL0     H 5787   9.230  10.248   7.210  0.2064 -1.6024 -0.2641
  767MOL0     H 5788   9.089  10.149   7.214  0.1253  0.1964 -3.5372
  767MOL0     H 5789   9.212  10.131   7.419 -1.3018 -1.6766 -1.6922
  767MOL0     H 5790   9.185  10.308   7.446 -0.5546 -0.7189  1.5238
  767MOL0     H 5791   8.939  10.282   7.490 -0.9531 -2.5110  1.9063
  767MOL0     H 5792   9.054  10.188   7.586  1.0147  0.9121  0.1189
  767MOL0     H 5793   8.969  10.043   7.345 -0.3954  3.4881 -0.9495
  767MOL0     H 5794   8.959   9.989   7.506  0.9123  0.2338 -0.8963
  767MOL0     H 5795   8.744  10.031   7.649  1.7241  0.7859  1.2274
  767MOL0     H 5796   8.407  10.224   7.589 -1.5238  0.2513  0.0836
  767MOL0     H 5797   8.448  10.076   7.681 -1.0290  0.0997 -0.0711
  767MOL0     H 5798   8.243  10.062   7.544  0.4139  0.6061  0.1524
  767MOL0     H 5799   8.348  10.070   7.396  0.2677  0.5685  0.8884
  767MOL0     H 5800   8.288   9.839   7.431  0.6381 -1.6185  0.1354
  767MOL0     H 5801   8.462   9.879   7.473  0.4440 -2.2090  1.9746
  767MOL0     H 5802   8.354   9.716   7.622  1.5882  0.0096 -0.7611
  767MOL0     H 5803   8.406   9.856   7.716  0.6744  0.1790 -0.3723
  767MOL0     H 5804   8.156   9.607   7.560  2.2524  0.5506  0.9527
  767MOL0     H 5805   8.055   9.432   7.500  0.6841 -4.0235 -0.1395
  767MOL0     H 5806   7.891   9.380   7.557  1.3160 -3.9460 -0.1191
  767MOL0     H 5807   8.030   9.345   7.644 -1.3337  0.1886  1.0943
  767MOL0     H 5808   7.465   9.534   7.703 -1.3342 -0.1246  2.1126
  767MOL0     H 5809   7.278   9.396   7.710  1.4623 -1.2231 -2.4251
  767MOL0     H 5810   7.103   9.293   7.879  1.5396  1.9883  0.1405
  767MOL0     H 5811   7.111   9.230   7.713 -2.8877  0.6564  0.5262
  767MOL0     H 5812   6.918   9.120   7.838 -0.1425 -0.7329 -0.9145
  767MOL0     H 5813   7.034   9.010   7.777 -1.6735 -0.4925 -0.0453
  767MOL0     H 5814   7.042   9.102   8.058 -0.3374 -0.3230  0.3954
  767MOL0     H 5815   7.148   8.979   7.989 -0.7155 -0.6014  1.7991
  767MOL0     H 5816   6.983   8.869   8.089 -0.1351  0.6821 -0.2208
  767MOL0     H 5817   6.954   8.837   7.922 -0.7830 -1.0860  0.3842
  767MOL0     H 5818   6.797   9.015   8.122  1.4781 -0.6037 -0.2661
  767MOL0     H 5819   6.754   9.015   7.946 -4.1874 -2.8124 -0.0597
  767MOL0     H 5820   6.645   8.885   8.143  0.1980 -0.1179  1.2778
  767MOL0     H 5821   6.778   8.766   8.125  1.3799  0.8916 -0.6876
  767MOL0     H 5822   6.645   8.844   7.873 -1.7156  0.4065 -1.0692
  767MOL0     H 5823   6.546   8.764   7.990 -0.1592 -1.6191  0.4233
  767MOL0     H 5824   6.711   8.577   8.007 -0.3625  1.5939  0.7943
  767MOL0     H 5825   6.821   8.643   7.897  0.0124  0.7755  1.3970
  767MOL0     H 5826   7.455   9.165   8.031  0.6869  0.8645 -0.3327
  767MOL0     H 5827   7.648   9.313   8.039 -0.3210  0.0740  0.8650
  767MOL0     H 5828   7.862   9.707   7.942  2.1826 -2.0596  1.6836
  767MOL0     H 5829   8.015   9.894   7.860  2.1520 -0.5339  0.4835
  767MOL0     H 5830   8.925  10.721   6.708 -0.6846 -0.3977  1.8808
  767MOL0     H 5831   8.948  10.868   6.523 -2.5629  0.3175  1.0658
  767MOL0     H 5832   9.021  11.216   6.287 -3.5406  2.7131 -0.6025
  767MOL0     H 5833   9.033  11.406   6.144  0.6236  2.1909 -1.0664
  767MOL0     H 5834   9.345  11.668   6.002  0.5052 -1.1451 -2.1862
  767MOL0     H 5835   9.438  11.591   6.118  0.5040  0.1930 -2.8941
  767MOL0     H 5836   9.331  11.362   6.030 -1.0689  0.7039  1.3121
  767MOL0     H 5837   9.456  11.443   5.932  1.3324  0.2583  1.8196
  767MOL0     H 5838   9.280  11.383   5.786  0.9495  0.6069  0.6078
  767MOL0     H 5839   9.148  11.456   5.885 -0.0600 -3.5592 -0.4067
  767MOL0     H 5840   9.207  11.563   5.675  0.0699 -1.4888  0.6927
  767MOL0     H 5841   9.346  11.636   5.766 -0.3273  2.5674 -6.1244
  767MOL0     H 5842   9.056  11.884   5.926  0.9201  1.0234  2.0934
  767MOL0     H 5843   9.381  11.551   6.348  0.7566 -0.2642 -1.4779
  767MOL0     H 5844   9.405  11.495   6.558  1.5871 -0.8897  1.4195
  767MOL0     H 5845   9.288  11.391   6.645 -1.0289 -1.1744 -0.2995
  767MOL0     H 5846   9.440  11.323   6.566 -1.3655 -0.7329  0.8923
  768MOL0     O 5847   6.590   3.300  10.691  0.7948  0.0817 -0.9930
  768MOL0     C 5848   6.522   3.330  10.596 -0.4029  0.3308  0.1895
  768MOL0     O 5849   6.390   3.309  10.586  0.0778 -0.2223  0.6209
  768MOL0     C 5850   6.317   3.243  10.683  0.3066  0.5349 -0.2665
  768MOL0     C 5851   6.179   3.270  10.680  0.3445  1.0164  0.1805
  768MOL0     C 5852   6.085   3.190  10.753 -0.1418  0.6158 -1.0688
  768MOL0     C 5853   6.127   3.066  10.825 -0.6699 -0.8349 -0.2659
  768MOL0     O 5854   6.042   2.975  10.885  0.0753 -0.0889 -1.1103
  768MOL0     C 5855   5.936   3.026  10.974 -0.3765 -0.0511  0.2162
  768MOL0     C 5856   5.783   2.969  10.955 -1.0476 -0.5780  0.0372
  768MOL0     C 5857   5.734   2.979  10.810  0.0701  0.2588  0.5646
  768MOL0     C 5858   5.587   3.018  10.806 -0.6038  0.7983 -0.0150
  768MOL0     C 5859   5.492   2.895  10.781 -0.2569 -0.1998 -0.4051
  768MOL0     C 5860   5.346   2.942  10.781  0.0542 -0.4998 -0.9421
  768MOL0     C 5861   5.250   2.833  10.764  0.0082  0.8256 -0.0391
  768MOL0     C 5862   5.106   2.875  10.758 -0.5857 -0.4883 -0.3266
  768MOL0     N 5863   5.063   2.942  10.889 -0.0377 -0.4178  0.3819
  768MOL0     C 5864   5.039   3.077  10.910  0.4937  0.4126  0.1885
  768MOL0     C 5865   5.023   3.093  11.041  0.2969  0.0143 -0.3224
  768MOL0     C 5866   4.978   3.221  11.108  0.8371  0.1654 -0.0360
  768MOL0     C 5867   4.827   3.274  11.087 -0.7644  0.7030  0.0053
  768MOL0     C 5868   4.815   3.335  10.950  0.0921 -1.0646 -0.7799
  768MOL0     C 5869   4.732   3.465  10.940 -0.1840  0.2112  0.3300
  768MOL0     O 5870   4.607   3.466  11.004 -0.4195  0.4953 -0.0189
  768MOL0     C 5871   4.524   3.363  10.963 -0.5263 -0.0854 -0.2797
  768MOL0     C 5872   4.437   3.312  11.063 -0.1098  0.0336  0.8343
  768MOL0     C 5873   4.337   3.222  11.029  0.0775  0.5234  0.8415
  768MOL0     C 5874   4.245   3.181  11.142  0.0770 -0.6473 -0.6828
  768MOL0     C 5875   4.328   3.162  10.900 -0.0537 -0.0486  0.1612
  768MOL0     C 5876   4.223   3.064  10.859 -0.2297  0.6956  0.6910
  768MOL0     O 5877   4.259   2.969  10.759 -0.0507 -0.1694 -0.0233
  768MOL0     C 5878   4.162   2.892  10.701  0.0623 -0.9241 -0.0002
  768MOL0     C 5879   4.201   2.765  10.656 -0.6827  0.1478 -0.1433
  768MOL0     C 5880   4.102   2.679  10.599  0.4643  0.1890 -0.0266
  768MOL0     C 5881   3.968   2.721  10.576  0.3022  0.9512 -0.2326
  768MOL0     O 5882   3.899   2.623  10.499  0.1539  0.2230  0.3623
  768MOL0     C 5883   3.808   2.654  10.401  1.0159  0.6079 -0.1085
  768MOL0     C 5884   3.879   2.728  10.286 -0.2372  0.9524 -0.3057
  768MOL0     C 5885   3.792   2.752  10.164  0.9879  0.3241  0.4904
  768MOL0     C 5886   3.645   2.788  10.192  0.9209 -0.5632  0.1995
  768MOL0     C 5887   3.560   2.828  10.071 -0.2609 -0.7196 -0.0794
  768MOL0     C 5888   3.554   2.704   9.977  1.3703 -0.7513 -0.4110
  768MOL0     C 5889   3.490   2.733   9.839  0.0079 -0.2679 -0.0409
  768MOL0     C 5890   3.408   2.610   9.792 -0.3878  0.4797  0.3873
  768MOL0    Cl 5891   3.334   2.636   9.627 -0.5765  0.2261 -0.0594
  768MOL0     C 5892   3.929   2.850  10.618 -0.3381  0.2705  0.7706
  768MOL0     C 5893   4.020   2.937  10.677 -0.5523 -0.9780  0.2635
  768MOL0     O 5894   4.107   3.080  10.898 -0.1545 -0.5671 -0.5872
  768MOL0     C 5895   4.414   3.216  10.808 -0.1245  0.5172  0.6622
  768MOL0     C 5896   4.515   3.311  10.833  0.4754  0.9533 -0.2008
  768MOL0     N 5897   5.028   2.962  11.099  0.1268 -0.2622  0.3793
  768MOL0     N 5898   5.045   2.871  11.004  0.5135 -0.5390  0.1821
  768MOL0     C 5899   6.267   3.040  10.820 -0.2877 -0.1792 -0.2502
  768MOL0     C 5900   6.364   3.134  10.761  0.0683 -0.1915 -1.1562
  768MOL0     C 5901   6.590   3.405  10.491  0.3864  0.0284  0.9047
  768MOL0     C 5902   6.529   3.526  10.441  0.2925  0.3042 -0.5522
  768MOL0     C 5903   6.582   3.587  10.317  0.2039  0.3968 -0.5550
  768MOL0     C 5904   6.706   3.536  10.276 -0.5164 -0.1689  0.8717
  768MOL0     O 5905   6.781   3.602  10.180  0.9538 -1.2959 -0.0271
  768MOL0     C 5906   6.773   3.746  10.179  0.0874  0.1318  0.5925
  768MOL0     C 5907   6.884   3.812  10.101  0.1224 -0.6537 -0.1192
  768MOL0     C 5908   7.017   3.790  10.170 -0.2496 -0.8633 -0.3195
  768MOL0     C 5909   7.115   3.889  10.122 -0.4983 -0.5706  0.6732
  768MOL0     C 5910   7.125   4.002  10.209 -0.2853 -0.2579 -0.2821
  768MOL0     C 5911   7.138   4.094  10.280 -0.0528  0.0394  0.3118
  768MOL0     C 5912   6.775   3.421  10.327 -0.6944  0.7625 -0.9234
  768MOL0     C 5913   6.709   3.358  10.432 -0.3727  0.0838 -0.0037
  768MOL0     C 5914   6.780   3.236  10.481 -0.8093  0.4594  0.4541
  768MOL0     H 5915   6.140   3.359  10.632  0.1332  1.4739  1.1745
  768MOL0     H 5916   5.982   3.226  10.748 -0.5300  0.1474  1.7789
  768MOL0     H 5917   5.931   3.135  10.972  0.2650 -0.0289 -0.3424
  768MOL0     H 5918   5.961   3.012  11.079 -3.0330 -0.2307  0.9135
  768MOL0     H 5919   5.787   2.869  10.999 -2.1734  0.4838  2.7962
  768MOL0     H 5920   5.722   3.036  11.016  1.6075  2.5124 -0.4022
  768MOL0     H 5921   5.788   3.055  10.754  0.7033 -0.8018 -0.3017
  768MOL0     H 5922   5.757   2.885  10.759 -3.1101 -1.0578  1.3186
  768MOL0     H 5923   5.555   3.083  10.887 -0.1160  4.4768 -2.5310
  768MOL0     H 5924   5.572   3.076  10.714 -2.3798 -2.5892 -2.1010
  768MOL0     H 5925   5.503   2.812  10.850 -2.7365 -0.9486 -0.8326
  768MOL0     H 5926   5.516   2.850  10.684 -2.2000  0.7904 -1.4040
  768MOL0     H 5927   5.330   2.980  10.883 -2.1614 -2.0474 -0.6377
  768MOL0     H 5928   5.320   3.023  10.712 -0.7028 -0.9529 -1.2015
  768MOL0     H 5929   5.267   2.770  10.851  0.8027 -2.2077 -2.2089
  768MOL0     H 5930   5.267   2.780  10.670  0.7604  2.1817 -0.6983
  768MOL0     H 5931   5.099   2.933  10.666  0.1038 -2.5608 -1.7691
  768MOL0     H 5932   5.050   2.783  10.737 -1.6272 -0.7024  2.8567
  768MOL0     H 5933   5.049   3.160  10.841  2.2868 -0.1372 -0.2600
  768MOL0     H 5934   5.047   3.303  11.085  2.5218 -1.6908 -1.9532
  768MOL0     H 5935   4.996   3.198  11.214  3.3814 -0.2654 -0.5084
  768MOL0     H 5936   4.750   3.201  11.113  0.2889 -0.9019 -1.1860
  768MOL0     H 5937   4.801   3.354  11.156  1.0753  1.5374 -0.2233
  768MOL0     H 5938   4.918   3.353  10.917  0.3550 -2.3511 -0.7292
  768MOL0     H 5939   4.775   3.262  10.879 -1.9354  2.6749 -3.8498
  768MOL0     H 5940   4.797   3.547  10.972  1.6677  1.1298 -4.8328
  768MOL0     H 5941   4.722   3.495  10.835 -1.1219  0.8967  0.5993
  768MOL0     H 5942   4.453   3.361  11.158  1.4865 -1.0581  1.1637
  768MOL0     H 5943   4.315   3.139  11.214 -1.2422 -2.0762 -0.1753
  768MOL0     H 5944   4.160   3.112  11.131 -1.6106  1.1630  0.3304
  768MOL0     H 5945   4.208   3.273  11.188 -0.1613 -0.8554 -0.4569
  768MOL0     H 5946   4.291   2.712  10.683 -1.7194 -1.1947  0.7732
  768MOL0     H 5947   4.133   2.575  10.585  1.0107  0.6862 -3.0599
  768MOL0     H 5948   3.766   2.561  10.362  3.9632  0.8970 -4.8506
  768MOL0     H 5949   3.727   2.723  10.425 -0.6728 -0.4365 -2.3800
  768MOL0     H 5950   3.915   2.826  10.319  1.0948  0.7017 -0.9217
  768MOL0     H 5951   3.964   2.672  10.245 -2.1737 -1.6596 -0.9673
  768MOL0     H 5952   3.803   2.662  10.103 -0.3495 -2.3935  3.9443
  768MOL0     H 5953   3.842   2.829  10.105  1.3852 -1.3572 -1.4640
  768MOL0     H 5954   3.637   2.864  10.269 -2.1230  0.8025 -1.3010
  768MOL0     H 5955   3.585   2.706  10.232  1.2302  0.3015  2.5719
  768MOL0     H 5956   3.460   2.852  10.107  0.3369 -2.4306  3.1256
  768MOL0     H 5957   3.609   2.910  10.016  1.7502 -1.4290  0.5446
  768MOL0     H 5958   3.481   2.640  10.027  0.2496  1.2805  0.6892
  768MOL0     H 5959   3.640   2.636   9.968  0.7322 -1.6755  0.2843
  768MOL0     H 5960   3.557   2.778   9.765 -1.0445  2.6661  0.6375
  768MOL0     H 5961   3.405   2.801   9.850 -4.0942 -4.0559 -3.9580
  768MOL0     H 5962   3.336   2.578   9.867  0.9808  2.2207  2.5588
  768MOL0     H 5963   3.481   2.529   9.784  1.0555  1.7820 -0.1978
  768MOL0     H 5964   3.830   2.885  10.589 -0.2301  1.0834  1.3468
  768MOL0     H 5965   3.980   3.031  10.714 -0.3604  0.2564 -2.4610
  768MOL0     H 5966   4.406   3.168  10.711 -1.1273 -0.7402  1.3348
  768MOL0     H 5967   4.594   3.341  10.765  0.1284  3.7516  0.5070
  768MOL0     H 5968   6.287   2.941  10.860  1.8543  0.0414 -0.6464
  768MOL0     H 5969   6.469   3.109  10.775  0.5561  2.6796  1.4930
  768MOL0     H 5970   6.445   3.563  10.498  1.6065  1.1832  0.8847
  768MOL0     H 5971   6.551   3.680  10.271  1.5979  1.6085  0.8255
  768MOL0     H 5972   6.676   3.777  10.139 -0.0992  1.6258  2.0545
  768MOL0     H 5973   6.775   3.786  10.281  2.7196 -2.0575  1.5176
  768MOL0     H 5974   6.873   3.920  10.107  3.1463 -0.3178  3.4242
  768MOL0     H 5975   6.879   3.783   9.996  0.4250 -0.2862 -0.2359
  768MOL0     H 5976   7.005   3.800  10.279 -1.0289 -2.3853 -0.2299
  768MOL0     H 5977   7.052   3.687  10.156  3.1008 -0.2103  2.0360
  768MOL0     H 5978   7.099   3.924  10.019  1.9686 -0.3195  0.3025
  768MOL0     H 5979   7.219   3.858  10.137 -1.2503 -2.1061  3.2317
  768MOL0     H 5980   7.156   4.174  10.348 -2.7556  1.6687 -0.7208
  768MOL0     H 5981   6.873   3.389  10.291 -1.0212  0.0066 -1.1731
  768MOL0     H 5982   6.834   3.256  10.574 -0.4733  0.3102  0.2918
  768MOL0     H 5983   6.701   3.163  10.505 -2.7341  2.8221  1.7434
  768MOL0     H 5984   6.850   3.188  10.412 -1.2073  0.2703  0.1766
  769MOL0     O 5985  10.684   9.510   5.688 -0.8086  0.6600 -0.0848
  769MOL0     C 5986  10.587   9.584   5.660 -0.8072  0.7706 -0.1204
  769MOL0     O 5987  10.500   9.569   5.554 -0.0271 -0.1124 -0.9527
  769MOL0     C 5988  10.524   9.454   5.482 -0.5159 -0.7172 -0.2541
  769MOL0     C 5989  10.454   9.334   5.506 -0.6946  0.1562  0.0624
  769MOL0     C 5990  10.478   9.222   5.427  0.1134 -0.0232  0.2709
  769MOL0     C 5991  10.547   9.237   5.309 -0.5445  0.3243  0.0656
  769MOL0     O 5992  10.553   9.149   5.203 -0.2399  0.4906 -0.2004
  769MOL0     C 5993  10.438   9.061   5.196 -0.2261  0.1413  0.8939
  769MOL0     C 5994  10.446   8.977   5.065 -0.0840  0.1174  0.1098
  769MOL0     C 5995  10.389   9.056   4.945  0.5273  0.6091 -1.0422
  769MOL0     C 5996  10.447   9.017   4.810 -0.2439 -0.3024 -0.4224
  769MOL0     C 5997  10.384   9.114   4.708  0.2450 -0.9780  0.0232
  769MOL0     C 5998  10.424   9.052   4.571  0.5335  0.6218  1.1385
  769MOL0     C 5999  10.352   9.121   4.464  0.4008  0.9572  0.5820
  769MOL0     C 6000  10.403   9.090   4.313  0.0583  0.9231  0.2089
  769MOL0     N 6001  10.319   8.998   4.224 -0.3922 -0.6768  0.0899
  769MOL0     C 6002  10.208   9.038   4.162  1.0241  0.5914 -0.2707
  769MOL0     C 6003  10.195   8.957   4.056 -0.2173  0.4381  0.0907
  769MOL0     C 6004  10.089   8.950   3.946 -0.2771  0.4040  0.3137
  769MOL0     C 6005   9.966   8.872   3.989  0.8145 -0.3283  0.8991
  769MOL0     C 6006   9.862   8.967   4.040  0.1509 -0.1826 -0.8364
  769MOL0     C 6007   9.733   8.946   3.960  0.4440  0.4970 -0.3812
  769MOL0     O 6008   9.633   9.034   4.023 -0.7853  0.8243 -0.1691
  769MOL0     C 6009   9.525   9.046   3.935 -0.2083 -0.8614  0.1836
  769MOL0     C 6010   9.413   8.971   3.952  0.7450 -0.2371  0.1023
  769MOL0     C 6011   9.311   8.961   3.850  1.3433  0.4208  0.2223
  769MOL0     C 6012   9.198   8.859   3.865 -0.4159  0.0676  0.2454
  769MOL0     C 6013   9.311   9.055   3.742  0.1362 -0.3436 -0.0625
  769MOL0     C 6014   9.205   9.057   3.634  0.1014  0.0191 -0.4356
  769MOL0     O 6015   9.085   9.004   3.658 -0.7413 -0.3975 -0.4827
  769MOL0     C 6016   8.999   8.969   3.563 -0.3658 -0.1461  1.8375
  769MOL0     C 6017   9.028   8.889   3.450  0.0767 -0.7900 -1.5224
  769MOL0     C 6018   8.924   8.842   3.380  0.6324  0.1223 -0.1646
  769MOL0     C 6019   8.792   8.880   3.400  0.4066 -0.1089 -0.2907
  769MOL0     O 6020   8.690   8.836   3.324  0.2049  0.0699  0.0357
  769MOL0     C 6021   8.735   8.803   3.189 -0.3007 -0.5376  0.2834
  769MOL0     C 6022   8.623   8.735   3.108 -0.6172  0.1654 -0.6505
  769MOL0     C 6023   8.586   8.608   3.187 -0.0663 -0.8431 -1.0919
  769MOL0     C 6024   8.500   8.527   3.099 -0.3773  0.0478  0.4882
  769MOL0     C 6025   8.449   8.398   3.160  0.6174  0.7317  0.0862
  769MOL0     C 6026   8.349   8.413   3.278  0.1852  0.2128  0.6169
  769MOL0     C 6027   8.321   8.286   3.347  0.0069  0.1558 -0.3499
  769MOL0     C 6028   8.192   8.318   3.435  0.8217  1.0343 -0.7072
  769MOL0    Cl 6029   8.155   8.167   3.502  0.0651  0.0750  0.0585
  769MOL0     C 6030   8.761   8.954   3.504 -0.2681  0.5931  0.1124
  769MOL0     C 6031   8.870   9.005   3.579 -0.2070 -0.5209 -0.0176
  769MOL0     O 6032   9.235   9.127   3.536  0.1841  0.8316  0.5718
  769MOL0     C 6033   9.410   9.161   3.752  0.4129 -0.2840  0.3657
  769MOL0     C 6034   9.529   9.146   3.831  0.0425  0.2376  0.3447
  769MOL0     N 6035  10.294   8.853   4.066 -0.5079  0.1804 -0.0529
  769MOL0     N 6036  10.369   8.885   4.164 -0.8910  0.6856 -0.8635
  769MOL0     C 6037  10.606   9.356   5.286  0.3968  0.0247  0.0583
  769MOL0     C 6038  10.602   9.461   5.371 -0.6272 -0.1566  0.6297
  769MOL0     C 6039  10.540   9.689   5.760  1.1991 -0.5964 -0.3069
  769MOL0     C 6040  10.404   9.730   5.755 -0.1501  0.0237 -0.0004
  769MOL0     C 6041  10.363   9.827   5.846 -0.4193 -0.3481  0.0993
  769MOL0     C 6042  10.439   9.869   5.951  0.3265 -0.4295  0.2279
  769MOL0     O 6043  10.374   9.961   6.038  0.5448 -0.5531 -0.0317
  769MOL0     C 6044  10.449  10.048   6.132 -0.4328 -0.0536  0.4808
  769MOL0     C 6045  10.388  10.179   6.150  0.5156  0.2896  0.2526
  769MOL0     C 6046  10.441  10.243   6.280  0.8900 -0.2503 -1.1768
  769MOL0     C 6047  10.385  10.391   6.280  0.7988 -0.4138 -0.6635
  769MOL0     C 6048  10.357  10.435   6.414  0.0872 -0.0340  0.1995
  769MOL0     C 6049  10.344  10.465   6.530  0.6155 -0.3192  0.4682
  769MOL0     C 6050  10.563   9.824   5.968 -0.3688  0.9729 -0.0733
  769MOL0     C 6051  10.613   9.728   5.874 -0.1926  0.4122  0.4321
  769MOL0     C 6052  10.754   9.676   5.895  0.4732 -0.4753  0.0596
  769MOL0     H 6053  10.382   9.326   5.586 -0.1620 -5.1252  0.3793
  769MOL0     H 6054  10.431   9.127   5.450 -1.0945  0.2474 -0.9498
  769MOL0     H 6055  10.347   9.121   5.201 -0.0563  0.3998  0.9117
  769MOL0     H 6056  10.443   9.001   5.287  0.6852 -3.0168 -1.0537
  769MOL0     H 6057  10.552   8.955   5.049  0.5269  0.0152  3.5375
  769MOL0     H 6058  10.381   8.891   5.083  0.0792 -0.6865 -2.6973
  769MOL0     H 6059  10.280   9.056   4.949  0.4947 -2.0428  2.5306
  769MOL0     H 6060  10.424   9.159   4.953  1.4820  0.2140  0.2834
  769MOL0     H 6061  10.555   9.032   4.814 -0.0176 -1.6050 -1.1472
  769MOL0     H 6062  10.431   8.911   4.786  0.4111 -0.6494  0.5918
  769MOL0     H 6063  10.424   9.214   4.723  0.0882 -0.9781  0.4670
  769MOL0     H 6064  10.275   9.116   4.700  0.1459 -0.1616  1.2978
  769MOL0     H 6065  10.530   9.078   4.562  0.2475  1.5513  0.3562
  769MOL0     H 6066  10.409   8.944   4.564  2.0084  0.4786 -2.1022
  769MOL0     H 6067  10.361   9.230   4.467  0.1225  1.1591 -2.3991
  769MOL0     H 6068  10.248   9.092   4.480  0.1781 -1.4356 -3.6667
  769MOL0     H 6069  10.394   9.181   4.253  2.7971  0.8181 -0.4771
  769MOL0     H 6070  10.511   9.080   4.322  0.1864  1.2180 -0.8308
  769MOL0     H 6071  10.144   9.120   4.192 -2.5232 -2.0584 -0.0267
  769MOL0     H 6072  10.125   8.897   3.858  0.0525 -0.0575  0.7192
  769MOL0     H 6073  10.072   9.056   3.921  3.3819  0.3720 -3.3532
  769MOL0     H 6074   9.914   8.827   3.904 -1.7256  2.2234  0.9302
  769MOL0     H 6075   9.992   8.789   4.054 -1.1816 -2.9011 -1.3779
  769MOL0     H 6076   9.840   8.945   4.145  0.5527 -0.1367 -0.7401
  769MOL0     H 6077   9.895   9.071   4.047  0.0878 -0.1214 -1.4374
  769MOL0     H 6078   9.751   8.963   3.853  0.5534 -2.7643 -0.9899
  769MOL0     H 6079   9.701   8.842   3.969 -3.2809  1.5405  0.0814
  769MOL0     H 6080   9.402   8.914   4.043  2.4543 -0.6616  0.0635
  769MOL0     H 6081   9.173   8.816   3.768 -2.6140  3.5783 -0.8978
  769MOL0     H 6082   9.113   8.906   3.915  0.6186 -0.3036  2.4832
  769MOL0     H 6083   9.230   8.777   3.930 -2.3424 -1.9603 -1.2474
  769MOL0     H 6084   9.131   8.858   3.438  0.5050 -0.2442  0.3847
  769MOL0     H 6085   8.953   8.783   3.294 -0.2023  0.0563 -0.4053
  769MOL0     H 6086   8.766   8.893   3.135  0.0762 -0.8251  0.0030
  769MOL0     H 6087   8.816   8.728   3.190 -0.2349 -0.4606  0.5814
  769MOL0     H 6088   8.541   8.808   3.099 -0.8722 -0.2035 -1.4427
  769MOL0     H 6089   8.671   8.702   3.015 -2.2124 -0.0902 -1.4413
  769MOL0     H 6090   8.530   8.624   3.280 -0.7041 -1.2188 -1.4042
  769MOL0     H 6091   8.678   8.563   3.224  0.3806  2.1378  1.8320
  769MOL0     H 6092   8.553   8.503   3.006  1.0284  0.6603  1.1223
  769MOL0     H 6093   8.412   8.586   3.073 -2.4949 -2.3297  1.7600
  769MOL0     H 6094   8.397   8.350   3.076  3.0782 -0.2651 -0.9567
  769MOL0     H 6095   8.531   8.332   3.192  0.1296  0.0680 -0.0072
  769MOL0     H 6096   8.253   8.445   3.237  0.0905 -0.8982 -0.0748
  769MOL0     H 6097   8.387   8.473   3.361  0.6850 -0.7497  1.1043
  769MOL0     H 6098   8.400   8.243   3.409 -2.5277 -4.3684  0.1248
  769MOL0     H 6099   8.306   8.198   3.284  0.4227 -3.4744  4.1591
  769MOL0     H 6100   8.112   8.360   3.373  0.9581 -0.2259 -1.7897
  769MOL0     H 6101   8.205   8.392   3.515  1.3951 -0.2779  0.4644
  769MOL0     H 6102   8.656   8.959   3.527 -0.5705 -1.1949 -0.7181
  769MOL0     H 6103   8.846   9.067   3.666 -1.1227 -1.4025  0.3786
  769MOL0     H 6104   9.406   9.247   3.686 -1.9301 -1.6043 -1.3679
  769MOL0     H 6105   9.619   9.207   3.826  1.3086 -1.4918  0.6335
  769MOL0     H 6106  10.656   9.359   5.189 -0.3925  1.2854 -0.3361
  769MOL0     H 6107  10.657   9.553   5.351 -2.7653  0.8297 -1.2433
  769MOL0     H 6108  10.344   9.700   5.669  2.7156 -3.4584 -0.9826
  769MOL0     H 6109  10.267   9.876   5.831 -0.7467 -0.9535  0.1750
  769MOL0     H 6110  10.456   9.985   6.221 -2.2853 -1.1989 -0.1115
  769MOL0     H 6111  10.546  10.072   6.088 -1.2702 -0.7132 -1.8923
  769MOL0     H 6112  10.279  10.183   6.159  0.5689  3.0176  0.6847
  769MOL0     H 6113  10.417  10.239   6.063 -0.4627  1.1115  0.4647
  769MOL0     H 6114  10.408  10.201   6.375 -0.8434  0.5372 -1.3860
  769MOL0     H 6115  10.550  10.245   6.283  0.8713  1.0647  0.4961
  769MOL0     H 6116  10.291  10.408   6.226  2.0298  0.5653 -2.6118
  769MOL0     H 6117  10.456  10.471   6.256  0.4788  1.0184  2.6621
  769MOL0     H 6118  10.346  10.489   6.635 -1.7704 -0.9752  0.7091
  769MOL0     H 6119  10.621   9.857   6.053  0.3433  0.8640 -0.5092
  769MOL0     H 6120  10.816   9.680   5.805 -0.0704  1.2132 -0.2784
  769MOL0     H 6121  10.800   9.749   5.963  1.2472  0.5979 -1.5488
  769MOL0     H 6122  10.753   9.579   5.946  0.2960 -0.9072 -0.7580
  770MOL0     O 6123   8.835   2.368   7.206  0.2481  0.7375  0.7139
  770MOL0     C 6124   8.940   2.405   7.160 -1.0758 -0.3787  0.4084
  770MOL0     O 6125   8.959   2.513   7.086  0.9748  0.3803  0.1873
  770MOL0     C 6126   8.850   2.588   7.051  0.5349  0.7009 -0.5438
  770MOL0     C 6127   8.801   2.596   6.925  0.5915  0.5330 -0.3571
  770MOL0     C 6128   8.686   2.669   6.898 -0.5337 -0.0244 -0.3602
  770MOL0     C 6129   8.606   2.723   6.993 -0.1214 -0.5785 -0.5911
  770MOL0     O 6130   8.481   2.776   6.980 -0.3828 -0.0320  0.9265
  770MOL0     C 6131   8.388   2.682   6.954  0.0898 -0.1694  1.3443
  770MOL0     C 6132   8.289   2.737   6.855  0.7608 -0.2165  0.2497
  770MOL0     C 6133   8.183   2.836   6.905 -0.8646  0.2171 -0.5357
  770MOL0     C 6134   8.057   2.848   6.819 -0.2873 -0.0499  0.1567
  770MOL0     C 6135   7.954   2.745   6.853 -0.4327 -0.7985  0.4179
  770MOL0     C 6136   7.860   2.740   6.735  0.0729 -0.2625  0.9027
  770MOL0     C 6137   7.741   2.633   6.737  0.4493 -0.1758  0.6324
  770MOL0     C 6138   7.610   2.680   6.769 -0.9489 -0.3120  0.8880
  770MOL0     N 6139   7.602   2.737   6.908 -0.7840 -0.3205 -0.4451
  770MOL0     C 6140   7.571   2.860   6.942 -0.6316 -0.6043  0.0540
  770MOL0     C 6141   7.596   2.880   7.068  0.8489  0.4855  0.5763
  770MOL0     C 6142   7.581   3.010   7.140 -0.1056 -0.3266  0.2716
  770MOL0     C 6143   7.712   3.086   7.175  0.4348 -0.2593 -0.1091
  770MOL0     C 6144   7.693   3.207   7.254 -0.8541 -1.1418 -0.9747
  770MOL0     C 6145   7.813   3.273   7.334  0.9721  0.6573  0.5369
  770MOL0     O 6146   7.896   3.344   7.246  0.2700 -0.0940 -0.4843
  770MOL0     C 6147   8.005   3.404   7.310 -0.1191 -0.2656  0.6291
  770MOL0     C 6148   8.071   3.355   7.419  0.1332 -0.7034 -0.3887
  770MOL0     C 6149   8.182   3.432   7.480  0.1301  0.3444 -0.4507
  770MOL0     C 6150   8.252   3.376   7.593 -0.6840  0.3304 -0.7981
  770MOL0     C 6151   8.228   3.553   7.430 -0.3070  0.3463 -0.0868
  770MOL0     C 6152   8.343   3.632   7.486 -0.5554 -0.7964  0.5869
  770MOL0     O 6153   8.419   3.688   7.393 -0.2368  0.4473  0.2996
  770MOL0     C 6154   8.549   3.735   7.425  0.1668 -0.8181  0.0131
  770MOL0     C 6155   8.583   3.866   7.474  0.1562  1.6463  0.6692
  770MOL0     C 6156   8.721   3.900   7.489  0.2357 -0.9072  0.0948
  770MOL0     C 6157   8.826   3.815   7.454 -0.2389  0.1803  0.1962
  770MOL0     O 6158   8.953   3.852   7.468  0.2734 -0.1392 -0.0393
  770MOL0     C 6159   9.000   3.943   7.571  0.1699  0.2333  0.0302
  770MOL0     C 6160   9.151   3.926   7.576 -0.1654  0.4578 -0.3421
  770MOL0     C 6161   9.205   4.034   7.670 -0.3309  0.8265 -0.4498
  770MOL0     C 6162   9.193   4.188   7.648 -0.4640 -0.0782 -0.5028
  770MOL0     C 6163   9.234   4.233   7.502  0.2195 -0.6064  0.4026
  770MOL0     C 6164   9.382   4.214   7.469 -0.2605 -0.5955 -0.8180
  770MOL0     C 6165   9.477   4.286   7.568 -0.3666 -0.2388  0.1800
  770MOL0     C 6166   9.622   4.242   7.535 -1.4513  0.2440 -0.5881
  770MOL0    Cl 6167   9.689   4.311   7.387  0.2710 -0.1977  0.3886
  770MOL0     C 6168   8.792   3.695   7.406 -0.2589  0.1597 -0.7653
  770MOL0     C 6169   8.659   3.652   7.389  0.3481 -0.1704 -0.3150
  770MOL0     O 6170   8.363   3.631   7.609 -0.1062  0.3024 -0.4731
  770MOL0     C 6171   8.161   3.593   7.318 -0.8567 -0.0104  0.1033
  770MOL0     C 6172   8.053   3.522   7.259  0.0326 -0.6212  0.3904
  770MOL0     N 6173   7.668   2.766   7.108  1.3466 -0.4730 -0.8794
  770MOL0     N 6174   7.659   2.679   7.014  0.4028 -0.0983  0.1971
  770MOL0     C 6175   8.654   2.721   7.125 -0.5044  0.3985  0.1606
  770MOL0     C 6176   8.777   2.654   7.162  0.2384  0.3500 -0.5302
  770MOL0     C 6177   9.059   2.325   7.209  0.4493 -0.2960  0.3750
  770MOL0     C 6178   9.182   2.398   7.217  0.6449 -0.0499 -0.0740
  770MOL0     C 6179   9.296   2.333   7.245 -0.2147  0.1950 -0.3073
  770MOL0     C 6180   9.304   2.195   7.264  0.2479  0.0455 -1.3527
  770MOL0     O 6181   9.429   2.137   7.279  0.2884 -0.3698  0.4188
  770MOL0     C 6182   9.439   1.992   7.266  0.3575 -0.2136  0.5162
  770MOL0     C 6183   9.415   1.941   7.402  0.7467 -0.7676  0.7801
  770MOL0     C 6184   9.542   1.905   7.482 -1.0587 -0.9373  0.1871
  770MOL0     C 6185   9.523   1.867   7.629  0.0913  0.1961  0.4263
  770MOL0     C 6186   9.653   1.827   7.684 -0.0163  0.8428  0.4012
  770MOL0     C 6187   9.755   1.782   7.725 -1.2040  0.1350 -0.2948
  770MOL0     C 6188   9.184   2.118   7.264 -0.2803 -0.4250 -0.0557
  770MOL0     C 6189   9.062   2.185   7.231 -1.1256  0.4174 -0.7406
  770MOL0     C 6190   8.938   2.096   7.254  0.5762  1.1414  0.6218
  770MOL0     H 6191   8.858   2.552   6.844 -0.7618 -0.9530 -0.5666
  770MOL0     H 6192   8.649   2.678   6.796  0.3372 -2.3980 -0.9724
  770MOL0     H 6193   8.329   2.668   7.045 -1.4948 -2.0085  0.1183
  770MOL0     H 6194   8.420   2.584   6.918 -0.5294 -0.2794  1.0742
  770MOL0     H 6195   8.339   2.786   6.771 -3.7784  0.3621 -2.4563
  770MOL0     H 6196   8.236   2.653   6.807 -0.4220  1.3776 -1.3892
  770MOL0     H 6197   8.161   2.810   7.009 -0.7048 -0.9902 -0.7873
  770MOL0     H 6198   8.230   2.935   6.916 -0.3494 -0.1510  0.7681
  770MOL0     H 6199   8.014   2.947   6.838 -1.6409 -0.6481  0.2947
  770MOL0     H 6200   8.079   2.854   6.712 -2.4599  0.4997 -0.3014
  770MOL0     H 6201   7.884   2.772   6.933 -0.8425 -1.3814  0.2679
  770MOL0     H 6202   8.005   2.650   6.872 -1.8145 -1.1796  2.6966
  770MOL0     H 6203   7.800   2.832   6.727 -2.0622 -1.7311 -1.2293
  770MOL0     H 6204   7.914   2.721   6.642 -0.5517 -0.8162  0.6465
  770MOL0     H 6205   7.767   2.559   6.814 -4.1018 -3.5116 -0.6281
  770MOL0     H 6206   7.734   2.579   6.642 -1.9436 -0.2380  0.8032
  770MOL0     H 6207   7.584   2.763   6.703  1.3470 -0.7475 -0.6575
  770MOL0     H 6208   7.539   2.598   6.756 -0.1820 -0.8392 -0.1370
  770MOL0     H 6209   7.528   2.931   6.873 -1.3589 -0.6643  0.4406
  770MOL0     H 6210   7.519   3.002   7.230 -2.4665 -3.0103 -1.3962
  770MOL0     H 6211   7.518   3.066   7.070  2.9569 -0.6119 -2.9420
  770MOL0     H 6212   7.775   3.020   7.235  0.4631  0.5399  0.7550
  770MOL0     H 6213   7.770   3.104   7.083 -1.4399 -3.9845 -2.2501
  770MOL0     H 6214   7.642   3.288   7.201 -1.7870 -0.4552  0.8775
  770MOL0     H 6215   7.624   3.179   7.334  0.7754 -2.0357  0.1814
  770MOL0     H 6216   7.770   3.334   7.415 -2.3835  1.1355 -1.4259
  770MOL0     H 6217   7.862   3.188   7.382 -3.8658 -2.3816  0.7528
  770MOL0     H 6218   8.051   3.257   7.460 -1.4146  0.0255  0.7167
  770MOL0     H 6219   8.360   3.363   7.584 -0.9905 -0.9581 -3.2566
  770MOL0     H 6220   8.221   3.278   7.629  3.8741 -0.7796  0.8282
  770MOL0     H 6221   8.238   3.431   7.687 -0.0165 -0.3784 -0.2641
  770MOL0     H 6222   8.496   3.924   7.505 -1.2124 -0.7541  1.6260
  770MOL0     H 6223   8.742   3.998   7.530 -1.3191  0.0678 -1.3163
  770MOL0     H 6224   8.984   4.045   7.536  1.2880  1.5763  3.1099
  770MOL0     H 6225   8.947   3.913   7.662  1.2925 -5.3531 -0.7443
  770MOL0     H 6226   9.177   3.832   7.626 -3.7096  0.0086  0.9499
  770MOL0     H 6227   9.197   3.919   7.477 -2.3420  0.9610 -1.4524
  770MOL0     H 6228   9.311   4.010   7.682 -0.7637 -0.5521  0.9675
  770MOL0     H 6229   9.167   4.010   7.770  1.7758  2.3919  0.8043
  770MOL0     H 6230   9.258   4.251   7.710  1.3060 -0.5535 -1.7928
  770MOL0     H 6231   9.090   4.219   7.669  0.0987  0.2459  2.1978
  770MOL0     H 6232   9.171   4.172   7.437 -0.3638 -1.7437  1.9655
  770MOL0     H 6233   9.212   4.340   7.504  3.1285  0.1182 -1.0053
  770MOL0     H 6234   9.391   4.263   7.372  1.2065 -2.6631 -1.7837
  770MOL0     H 6235   9.407   4.109   7.453  2.1138 -0.1697 -0.1811
  770MOL0     H 6236   9.456   4.245   7.667  3.1131 -2.6265  0.1205
  770MOL0     H 6237   9.464   4.394   7.562 -2.0835 -0.3810  0.6482
  770MOL0     H 6238   9.624   4.132   7.537 -2.9039  0.1703 -1.5284
  770MOL0     H 6239   9.689   4.266   7.618  0.4860  1.1436 -2.3128
  770MOL0     H 6240   8.869   3.626   7.373 -1.6510 -2.1237  0.4423
  770MOL0     H 6241   8.665   3.554   7.345  1.2812  0.2798 -1.2382
  770MOL0     H 6242   8.194   3.680   7.263 -1.9276 -0.9942 -2.2346
  770MOL0     H 6243   8.013   3.566   7.168  2.4508  0.6507 -0.1217
  770MOL0     H 6244   8.598   2.771   7.203  1.2784  0.3078  1.5560
  770MOL0     H 6245   8.811   2.657   7.265  0.8184 -1.7005 -0.6224
  770MOL0     H 6246   9.187   2.506   7.215 -4.4780  0.5682  2.5465
  770MOL0     H 6247   9.382   2.400   7.251 -1.5503  1.8797  1.0393
  770MOL0     H 6248   9.366   1.954   7.193  0.9673  1.3799 -1.0048
  770MOL0     H 6249   9.535   1.967   7.221  0.5920 -0.2889  1.0494
  770MOL0     H 6250   9.338   1.864   7.390 -1.0675  1.1792 -0.8787
  770MOL0     H 6251   9.362   2.003   7.475  1.8867  0.3609  0.6686
  770MOL0     H 6252   9.594   1.839   7.413 -1.7207 -0.3589 -0.9002
  770MOL0     H 6253   9.610   1.991   7.480 -0.6764 -0.9968  3.6462
  770MOL0     H 6254   9.457   1.780   7.624  1.9495 -1.3393 -4.9988
  770MOL0     H 6255   9.474   1.951   7.678  0.2341  1.4563 -1.5147
  770MOL0     H 6256   9.848   1.739   7.753 -0.7963  0.7087 -0.7381
  770MOL0     H 6257   9.197   2.013   7.292 -1.2160 -0.8032 -0.9903
  770MOL0     H 6258   8.948   1.990   7.283 -1.3731  0.8811  0.4908
  770MOL0     H 6259   8.878   2.139   7.335 -1.2003  1.1227 -0.6443
  770MOL0     H 6260   8.880   2.092   7.162  0.3993 -0.4639  0.7746
  771MOL0     O 6261   8.790   8.455  10.768 -0.0737 -0.1611  0.5030
  771MOL0     C 6262   8.867   8.400  10.687 -0.0946  0.5984 -0.1316
  771MOL0     O 6263   8.870   8.425  10.546  1.4959  1.1261 -0.5608
  771MOL0     C 6264   8.757   8.479  10.482  0.0771 -0.2902  0.2436
  771MOL0     C 6265   8.770   8.552  10.359  0.5424 -1.0529  1.1774
  771MOL0     C 6266   8.656   8.585  10.281 -0.1756  1.0470  0.1196
  771MOL0     C 6267   8.525   8.571  10.327  0.1694  0.0298  0.1893
  771MOL0     O 6268   8.406   8.603  10.258 -0.4080 -0.2611  0.0929
  771MOL0     C 6269   8.380   8.730  10.204 -0.1575  0.2577 -0.2638
  771MOL0     C 6270   8.331   8.839  10.313  1.1393 -0.3678 -0.3348
  771MOL0     C 6271   8.233   8.937  10.234  0.0784  0.2618 -0.0616
  771MOL0     C 6272   8.146   9.017  10.333  0.3167 -1.1294  0.3133
  771MOL0     C 6273   8.229   9.098  10.428  0.6700 -1.1017  0.2870
  771MOL0     C 6274   8.265   9.234  10.375 -0.7671  0.8592 -0.8665
  771MOL0     C 6275   8.327   9.244  10.236  0.0194 -0.0638 -0.4802
  771MOL0     C 6276   8.374   9.389  10.221  0.3827 -0.4625 -0.4938
  771MOL0     N 6277   8.424   9.421  10.085  0.0843 -0.4509  0.8263
  771MOL0     C 6278   8.394   9.527  10.007 -0.0375  0.1944 -1.9819
  771MOL0     C 6279   8.473   9.525   9.901  0.0225  0.5797  0.3310
  771MOL0     C 6280   8.494   9.630   9.801  0.9088  0.0080 -0.1173
  771MOL0     C 6281   8.626   9.633   9.732 -0.3703 -0.1320 -0.2593
  771MOL0     C 6282   8.636   9.538   9.608  0.8699 -0.2211 -0.2442
  771MOL0     C 6283   8.745   9.586   9.505  0.4115 -0.5564 -0.7311
  771MOL0     O 6284   8.714   9.711   9.464  0.0851 -1.3125  1.0317
  771MOL0     C 6285   8.793   9.817   9.506  0.5089 -0.6308  0.5792
  771MOL0     C 6286   8.898   9.832   9.599 -0.2584  0.9245 -0.4689
  771MOL0     C 6287   8.965   9.957   9.627  1.5182 -0.5093  0.0901
  771MOL0     C 6288   9.095   9.929   9.688 -0.3458 -0.6578 -0.5108
  771MOL0     C 6289   8.916  10.076   9.582  0.4182 -0.9537  0.0674
  771MOL0     C 6290   8.964  10.210   9.617  0.3226  1.6975  0.0022
  771MOL0     O 6291   8.930  10.314   9.542 -0.2753 -0.7765  0.6768
  771MOL0     C 6292   8.965  10.443   9.579  0.1511  0.3237 -0.5672
  771MOL0     C 6293   8.964  10.498   9.713  0.7810  0.8148  0.7592
  771MOL0     C 6294   8.980  10.632   9.737 -1.0128 -0.5610  0.6398
  771MOL0     C 6295   8.995  10.723   9.625  0.8657  1.0739  0.6774
  771MOL0     O 6296   9.024  10.854   9.650  0.1377 -0.7058 -0.2443
  771MOL0     C 6297   8.956  10.961   9.582  0.5897  0.5828  0.7841
  771MOL0     C 6298   8.851  11.026   9.650  0.6242  0.2650 -0.3676
  771MOL0     C 6299   8.733  10.925   9.690 -0.7431 -0.3324 -0.2390
  771MOL0     C 6300   8.621  10.983   9.765  0.0578 -0.0853  0.3954
  771MOL0     C 6301   8.669  11.025   9.901  0.2327 -0.3728 -0.0106
  771MOL0     C 6302   8.564  11.073   9.991  0.2098 -0.0417 -0.5705
  771MOL0     C 6303   8.602  11.087  10.137  0.1646 -0.2659  0.3123
  771MOL0     C 6304   8.486  11.137  10.228  0.1378 -0.0339  0.0439
  771MOL0    Cl 6305   8.442  11.299  10.171 -0.1444  0.3692 -0.4368
  771MOL0     C 6306   9.000  10.668   9.497 -0.4179  0.2607 -0.3272
  771MOL0     C 6307   8.984  10.537   9.479 -0.1591 -0.4172  0.7013
  771MOL0     O 6308   9.029  10.209   9.724 -0.6181  0.6709  0.7725
  771MOL0     C 6309   8.810  10.062   9.491 -0.7147 -0.3910 -0.4501
  771MOL0     C 6310   8.754   9.941   9.447  0.9586  0.7683  0.4801
  771MOL0     N 6311   8.557   9.412   9.914  0.4829 -0.5838  0.2850
  771MOL0     N 6312   8.515   9.345  10.015  0.0910  0.1520 -0.4527
  771MOL0     C 6313   8.506   8.505  10.448  0.8322 -0.7319 -0.1908
  771MOL0     C 6314   8.622   8.451  10.517  0.2638 -0.1570  0.5002
  771MOL0     C 6315   8.978   8.323  10.739  0.3507 -0.1964  0.4539
  771MOL0     C 6316   9.115   8.336  10.685  1.4953 -0.3082 -0.4766
  771MOL0     C 6317   9.214   8.263  10.732 -0.1608 -0.5924 -0.1962
  771MOL0     C 6318   9.195   8.172  10.836 -0.8371  0.3770  0.5331
  771MOL0     O 6319   9.313   8.112  10.878  0.0056  0.2373  0.2854
  771MOL0     C 6320   9.328   7.966  10.898  0.6888 -0.8828  0.5271
  771MOL0     C 6321   9.461   7.940  10.964 -0.6990 -0.0524  0.3832
  771MOL0     C 6322   9.477   7.802  11.024 -0.5328 -0.7152 -0.0865
  771MOL0     C 6323   9.628   7.790  11.076 -0.4843 -0.4935  0.0757
  771MOL0     C 6324   9.630   7.689  11.181 -0.2262 -0.1899 -0.5599
  771MOL0     C 6325   9.645   7.614  11.278 -0.2047  0.8578 -0.6081
  771MOL0     C 6326   9.072   8.150  10.891  0.0040  0.5312 -0.2943
  771MOL0     C 6327   8.958   8.224  10.841  0.1739  0.3943 -0.8518
  771MOL0     C 6328   8.823   8.199  10.906 -0.2285 -0.0215  0.0564
  771MOL0     H 6329   8.868   8.572  10.318  0.0306 -2.2304 -0.7226
  771MOL0     H 6330   8.669   8.633  10.184  2.4313  1.0215  0.4021
  771MOL0     H 6331   8.308   8.731  10.122 -1.5748 -1.2958  0.8826
  771MOL0     H 6332   8.477   8.765  10.167 -0.3422  0.3666 -0.6385
  771MOL0     H 6333   8.274   8.797  10.396  1.4442 -0.4751 -0.1796
  771MOL0     H 6334   8.423   8.893  10.336  2.9542 -2.0944 -3.0000
  771MOL0     H 6335   8.302   8.994  10.171  1.5585 -1.8256 -0.4390
  771MOL0     H 6336   8.171   8.884  10.162 -1.1481  1.9531 -0.3154
  771MOL0     H 6337   8.079   9.085  10.280  0.8540  0.5946  1.7542
  771MOL0     H 6338   8.086   8.945  10.391 -0.1136 -0.4991  0.6593
  771MOL0     H 6339   8.317   9.046  10.468  1.1002 -0.9164 -0.4060
  771MOL0     H 6340   8.173   9.124  10.518  0.3456 -0.4855 -0.0848
  771MOL0     H 6341   8.179   9.300  10.383 -2.8625 -1.9376  2.8135
  771MOL0     H 6342   8.347   9.264  10.440 -0.1995  1.1621 -1.7009
  771MOL0     H 6343   8.267   9.219  10.148  0.4942  0.6481 -1.0247
  771MOL0     H 6344   8.419   9.184  10.236  0.1955 -0.1567 -5.2160
  771MOL0     H 6345   8.285   9.451  10.235  0.4087 -0.5366  0.0147
  771MOL0     H 6346   8.445   9.426  10.296 -0.6208 -1.1233  0.8411
  771MOL0     H 6347   8.321   9.604  10.030  2.2791  1.6458  1.4585
  771MOL0     H 6348   8.475   9.720   9.860 -0.9060 -0.0789 -0.5092
  771MOL0     H 6349   8.411   9.635   9.730  1.9296  0.9756 -1.2761
  771MOL0     H 6350   8.634   9.729   9.680  3.8996 -1.4554 -2.5775
  771MOL0     H 6351   8.706   9.620   9.805  0.5908 -1.5134 -1.4974
  771MOL0     H 6352   8.664   9.435   9.632  1.2442 -0.0525  0.0609
  771MOL0     H 6353   8.543   9.542   9.551 -0.0443 -0.0343  1.2413
  771MOL0     H 6354   8.846   9.573   9.545 -0.0600 -1.4261  0.2186
  771MOL0     H 6355   8.735   9.515   9.422 -2.7759  0.4056 -1.3426
  771MOL0     H 6356   8.941   9.746   9.650  0.1722  2.7228  2.3988
  771MOL0     H 6357   9.148   9.841   9.651 -0.1819  0.7163 -3.8617
  771MOL0     H 6358   9.075   9.908   9.794  0.7447 -1.2889 -0.4033
  771MOL0     H 6359   9.163  10.014   9.676 -1.6379  0.5898  0.7345
  771MOL0     H 6360   8.947  10.436   9.800  0.8328 -0.0112  0.1966
  771MOL0     H 6361   9.006  10.664   9.838  0.7341 -4.4739  1.5972
  771MOL0     H 6362   9.041  11.027   9.564  0.3784  0.7802  0.4820
  771MOL0     H 6363   8.930  10.937   9.478 -0.5209 -2.2886  1.6362
  771MOL0     H 6364   8.898  11.058   9.744  0.0245  0.2584 -0.0588
  771MOL0     H 6365   8.816  11.116   9.598  0.1899 -0.7043 -1.8021
  771MOL0     H 6366   8.769  10.837   9.744 -1.2912 -0.1925  0.3792
  771MOL0     H 6367   8.703  10.888   9.592  3.6321  0.2110 -1.9884
  771MOL0     H 6368   8.556  10.896   9.776 -0.1899  0.1736  1.0173
  771MOL0     H 6369   8.577  11.065   9.707 -1.0888 -1.5040 -0.8450
  771MOL0     H 6370   8.715  10.943   9.957 -1.5675 -0.3711  1.5871
  771MOL0     H 6371   8.746  11.103   9.901 -1.7665  1.8812  3.5921
  771MOL0     H 6372   8.474  11.012   9.979 -0.7493  1.1102  0.4496
  771MOL0     H 6373   8.539  11.171   9.950 -0.1288 -0.0890 -0.4843
  771MOL0     H 6374   8.681  11.163  10.147  1.2407 -1.5483  2.0306
  771MOL0     H 6375   8.637  10.996  10.187 -0.6702  1.0138  3.4417
  771MOL0     H 6376   8.528  11.149  10.328  3.0279 -1.2548 -0.9204
  771MOL0     H 6377   8.400  11.069  10.223  0.2406 -0.0891 -1.8632
  771MOL0     H 6378   9.011  10.747   9.423  0.0456 -0.8153 -1.4421
  771MOL0     H 6379   8.994  10.503   9.376 -0.1868 -0.4646  0.7142
  771MOL0     H 6380   8.769  10.157   9.457  3.9701  1.9176 -0.4553
  771MOL0     H 6381   8.669   9.949   9.381  0.6792  0.3622  0.7847
  771MOL0     H 6382   8.409   8.466  10.478 -1.0446 -0.9392 -5.5126
  771MOL0     H 6383   8.610   8.383  10.601  1.9409  0.3790  1.2105
  771MOL0     H 6384   9.141   8.406  10.606 -2.8125 -0.1218 -2.0315
  771MOL0     H 6385   9.311   8.275  10.684 -0.6202  0.5978 -0.8954
  771MOL0     H 6386   9.249   7.921  10.959  0.0258  1.4549  1.5332
  771MOL0     H 6387   9.327   7.919  10.799 -0.4417  0.3547 -0.0844
  771MOL0     H 6388   9.478   8.007  11.049  0.0318 -1.1382  1.1063
  771MOL0     H 6389   9.538   7.934  10.886  0.0554  0.0340  1.1162
  771MOL0     H 6390   9.400   7.806  11.102 -0.2532 -1.6399  0.2604
  771MOL0     H 6391   9.452   7.721  10.955  0.7327 -1.3941  0.2228
  771MOL0     H 6392   9.662   7.884  11.120  4.2832 -2.3590  1.0185
  771MOL0     H 6393   9.705   7.771  11.001 -0.4259 -3.2427  0.6978
  771MOL0     H 6394   9.667   7.551  11.361 -0.5238 -0.1144 -1.2457
  771MOL0     H 6395   9.048   8.068  10.958 -1.5833 -1.0128 -2.5913
  771MOL0     H 6396   8.741   8.169  10.840  0.0494 -1.2538  0.2437
  771MOL0     H 6397   8.828   8.107  10.965 -1.5173 -3.0122 -4.0065
  771MOL0     H 6398   8.799   8.283  10.971 -0.5956  1.0613 -1.4333
  772MOL0     O 6399   0.200  10.945   4.052  0.6162 -0.1815  0.0400
  772MOL0     C 6400   0.123  10.896   3.972  0.6950  0.3614  0.2850
  772MOL0     O 6401   0.028  10.796   4.002  0.0010 -0.3697  0.4225
  772MOL0     C 6402   0.035  10.725   4.120  0.4271  0.0507 -0.3149
  772MOL0     C 6403  -0.077  10.668   4.173 -0.4413  0.7615  0.2724
  772MOL0     C 6404  -0.077  10.593   4.291 -1.1146 -0.4139 -0.2367
  772MOL0     C 6405   0.042  10.575   4.357 -0.9172 -0.3700 -0.0728
  772MOL0     O 6406   0.054  10.494   4.465  0.1063 -0.1170 -0.0293
  772MOL0     C 6407   0.025  10.349   4.450 -0.7162 -0.1805  0.4683
  772MOL0     C 6408  -0.064  10.312   4.568  0.3782 -0.1242  1.4107
  772MOL0     C 6409  -0.206  10.352   4.545  0.1814 -0.0501  0.3868
  772MOL0     C 6410  -0.276  10.244   4.456  0.5352 -0.2572 -1.1747
  772MOL0     C 6411  -0.431  10.276   4.454  0.4250  0.1359  0.6013
  772MOL0     C 6412  -0.448  10.415   4.377 -0.4492  0.6589  0.8667
  772MOL0     C 6413  -0.589  10.438   4.334  0.1211  0.3595  0.5717
  772MOL0     C 6414  -0.596  10.486   4.183 -0.1283 -0.3785 -1.2120
  772MOL0     N 6415  -0.524  10.607   4.146 -0.4850 -0.1136  0.1331
  772MOL0     C 6416  -0.517  10.725   4.216 -0.1570  0.5659 -0.6865
  772MOL0     C 6417  -0.478  10.812   4.122  0.5876  0.2175  0.3808
  772MOL0     C 6418  -0.459  10.961   4.140  0.8719  0.4777  0.7944
  772MOL0     C 6419  -0.315  10.984   4.171 -0.3366 -1.1731 -0.2208
  772MOL0     C 6420  -0.307  11.117   4.230  0.3428 -0.6243 -0.5364
  772MOL0     C 6421  -0.163  11.165   4.218  0.4281  1.0949 -0.1285
  772MOL0     O 6422  -0.134  11.204   4.083  0.5675  0.0217  0.2221
  772MOL0     C 6423  -0.024  11.282   4.065  0.5030 -0.2716  0.7307
  772MOL0     C 6424  -0.032  11.408   3.994 -0.4732  0.0129 -0.3082
  772MOL0     C 6425   0.088  11.472   3.969  0.7096 -1.2903  0.8043
  772MOL0     C 6426   0.053  11.613   3.916 -0.4712  0.1225  0.6921
  772MOL0     C 6427   0.220  11.419   4.004  0.2982 -0.3274 -0.3460
  772MOL0     C 6428   0.351  11.497   3.976  0.6967 -0.2395  0.5604
  772MOL0     O 6429   0.466  11.427   4.010  0.9071  0.1953 -0.1974
  772MOL0     C 6430   0.572  11.503   3.985 -0.9215 -0.3880 -0.1078
  772MOL0     C 6431   0.634  11.585   4.085 -0.3999  0.4392  0.7807
  772MOL0     C 6432   0.745  11.660   4.042  0.0426 -0.2986 -0.5874
  772MOL0     C 6433   0.799  11.652   3.909 -0.3560 -0.2690 -0.4004
  772MOL0     O 6434   0.913  11.723   3.888 -0.1642  0.1222  0.2239
  772MOL0     C 6435   0.957  11.746   3.757  0.4181  0.1314  1.1406
  772MOL0     C 6436   1.090  11.826   3.770  0.3094  0.2498 -0.4844
  772MOL0     C 6437   1.202  11.778   3.881 -0.2137 -0.4470  0.4693
  772MOL0     C 6438   1.217  11.624   3.883 -0.1990  0.6277  0.6994
  772MOL0     C 6439   1.362  11.571   3.892 -0.3366  0.6174 -0.2035
  772MOL0     C 6440   1.433  11.618   3.758 -0.1277 -1.0636 -0.4237
  772MOL0     C 6441   1.572  11.547   3.750 -0.6201 -0.0253 -0.0153
  772MOL0     C 6442   1.692  11.612   3.670 -0.3746 -0.6864 -0.6336
  772MOL0    Cl 6443   1.732  11.769   3.752 -0.4170  0.3222 -0.1070
  772MOL0     C 6444   0.738  11.569   3.810  0.3884 -0.1570 -0.3636
  772MOL0     C 6445   0.623  11.500   3.854  0.2667 -0.6700 -0.6224
  772MOL0     O 6446   0.346  11.606   3.925  0.3476 -0.2010 -0.5743
  772MOL0     C 6447   0.217  11.308   4.088 -0.6859 -0.0337 -0.2162
  772MOL0     C 6448   0.107  11.240   4.113  0.9960 -0.0861  0.0300
  772MOL0     N 6449  -0.454  10.751   3.998  0.1627 -0.4614  0.6271
  772MOL0     N 6450  -0.482  10.627   4.020 -0.1597 -0.2602  0.0539
  772MOL0     C 6451   0.164  10.629   4.299 -0.3181  0.2807  0.2778
  772MOL0     C 6452   0.155  10.699   4.179 -0.5381  0.2472 -0.8345
  772MOL0     C 6453   0.116  10.942   3.826 -0.7770 -0.7843 -0.5354
  772MOL0     C 6454  -0.005  10.948   3.761  0.7749  0.2589 -0.0043
  772MOL0     C 6455  -0.017  10.988   3.630 -0.5983  0.3932  0.5823
  772MOL0     C 6456   0.096  11.054   3.571 -0.8761  0.0880  0.5637
  772MOL0     O 6457   0.083  11.111   3.445  0.3133  0.1394  0.5885
  772MOL0     C 6458   0.175  11.182   3.363  0.0835 -1.1937 -0.0433
  772MOL0     C 6459   0.297  11.104   3.320 -0.3829 -0.1903  0.1333
  772MOL0     C 6460   0.277  11.013   3.207  0.7138  0.6109  0.5357
  772MOL0     C 6461   0.176  10.892   3.234  0.4114  0.3352  0.3977
  772MOL0     C 6462   0.040  10.920   3.190  0.5585 -0.3567  0.2306
  772MOL0     C 6463  -0.076  10.946   3.154  0.0862 -0.5796  0.0160
  772MOL0     C 6464   0.219  11.061   3.637  0.0316 -0.3860 -0.1082
  772MOL0     C 6465   0.231  11.000   3.769 -1.0884 -0.2394  1.1611
  772MOL0     C 6466   0.368  10.961   3.807 -0.1843  0.5303 -0.0774
  772MOL0     H 6467  -0.166  10.694   4.116  1.5252 -0.1416 -3.5693
  772MOL0     H 6468  -0.173  10.557   4.325 -1.3513 -2.9689 -3.1473
  772MOL0     H 6469   0.119  10.296   4.436 -0.5549  0.7204 -2.9350
  772MOL0     H 6470  -0.019  10.329   4.351  1.1331  1.9497 -0.8895
  772MOL0     H 6471  -0.062  10.204   4.585  1.3736 -0.3236  0.1264
  772MOL0     H 6472  -0.019  10.356   4.658 -0.9146 -0.1127  2.0730
  772MOL0     H 6473  -0.256  10.356   4.642  1.0148  0.0310  0.8133
  772MOL0     H 6474  -0.198  10.453   4.504  2.0563 -0.0697  0.6535
  772MOL0     H 6475  -0.237  10.259   4.354 -1.6842 -1.3935 -2.2636
  772MOL0     H 6476  -0.268  10.143   4.495  0.6062  0.0998 -0.2543
  772MOL0     H 6477  -0.480  10.273   4.552  2.4533 -4.0192  1.7033
  772MOL0     H 6478  -0.485  10.201   4.396 -1.2540  0.9920  0.9788
  772MOL0     H 6479  -0.423  10.500   4.440 -0.2586  3.3435 -2.5536
  772MOL0     H 6480  -0.385  10.415   4.288 -1.7155 -0.8124 -0.0780
  772MOL0     H 6481  -0.619  10.526   4.392  3.4163  3.2115 -1.6159
  772MOL0     H 6482  -0.657  10.353   4.331  1.8040 -1.0532 -2.4648
  772MOL0     H 6483  -0.568  10.407   4.113 -1.5728 -3.2729  1.2392
  772MOL0     H 6484  -0.702  10.499   4.159  0.0672  3.5826 -0.6279
  772MOL0     H 6485  -0.543  10.736   4.321  1.0783 -4.5429  0.4386
  772MOL0     H 6486  -0.514  10.992   4.230  3.0982 -0.1543  2.4775
  772MOL0     H 6487  -0.485  11.026   4.056 -2.1691 -0.0408  1.2382
  772MOL0     H 6488  -0.259  10.911   4.229  2.3498 -0.2105 -1.4589
  772MOL0     H 6489  -0.256  10.980   4.079 -0.3543 -0.7280 -0.2577
  772MOL0     H 6490  -0.392  11.180   4.205 -1.7087 -1.9010  2.5777
  772MOL0     H 6491  -0.322  11.110   4.338 -2.4865 -0.7426 -0.8596
  772MOL0     H 6492  -0.130  11.246   4.284 -1.6829  3.0464 -1.3210
  772MOL0     H 6493  -0.101  11.075   4.230 -2.3605 -1.4688 -2.9443
  772MOL0     H 6494  -0.130  11.449   3.969 -0.8166 -1.2014 -1.0500
  772MOL0     H 6495   0.073  11.620   3.808  0.5546 -0.1132  0.8547
  772MOL0     H 6496   0.124  11.691   3.947 -0.0835  0.9819 -2.1004
  772MOL0     H 6497  -0.047  11.641   3.950  0.0769 -1.0597  3.5544
  772MOL0     H 6498   0.595  11.581   4.186  0.7597  0.3362  1.2400
  772MOL0     H 6499   0.799  11.718   4.116 -2.8519  0.0464  1.4220
  772MOL0     H 6500   0.981  11.657   3.698  0.5385 -0.0409  1.4432
  772MOL0     H 6501   0.880  11.791   3.695  0.3764 -0.4353  0.7765
  772MOL0     H 6502   1.138  11.831   3.672 -0.9662 -0.6547 -1.1904
  772MOL0     H 6503   1.056  11.929   3.788  0.1512 -0.0789  1.2190
  772MOL0     H 6504   1.177  11.817   3.980  1.5284  1.4340  0.2359
  772MOL0     H 6505   1.299  11.826   3.865 -0.0867 -1.1177 -0.9337
  772MOL0     H 6506   1.168  11.575   3.799 -2.4235  0.6837  1.9034
  772MOL0     H 6507   1.161  11.585   3.969  2.0883 -2.9746  0.7575
  772MOL0     H 6508   1.413  11.618   3.976  3.8316 -1.2619 -1.3923
  772MOL0     H 6509   1.364  11.463   3.906  0.6925  0.8612  1.8557
  772MOL0     H 6510   1.451  11.725   3.767 -3.4736 -0.4287 -0.0231
  772MOL0     H 6511   1.380  11.586   3.668 -1.3703 -0.5570  0.1099
  772MOL0     H 6512   1.561  11.445   3.710  3.1809 -0.4457 -0.3019
  772MOL0     H 6513   1.614  11.536   3.850  1.7931 -1.8582 -1.1212
  772MOL0     H 6514   1.656  11.635   3.570 -3.1820 -1.5739  0.0686
  772MOL0     H 6515   1.770  11.536   3.674 -0.6307 -0.9480  2.7909
  772MOL0     H 6516   0.756  11.575   3.703 -0.1323 -2.1201 -0.6116
  772MOL0     H 6517   0.567  11.447   3.778 -0.9784  0.9016 -0.8651
  772MOL0     H 6518   0.307  11.260   4.127 -0.5188 -0.6647 -1.3289
  772MOL0     H 6519   0.116  11.152   4.176 -0.3086 -0.4848 -0.2883
  772MOL0     H 6520   0.256  10.606   4.352 -1.1342  0.0952  1.6685
  772MOL0     H 6521   0.254  10.736   4.151  0.5464 -1.4236  0.5757
  772MOL0     H 6522  -0.089  10.918   3.822  0.6815 -1.9421 -1.1005
  772MOL0     H 6523  -0.112  10.980   3.578  0.4533 -0.4537 -1.3273
  772MOL0     H 6524   0.124  11.212   3.272 -2.4256 -1.0180  1.3410
  772MOL0     H 6525   0.226  11.263   3.416  0.4526 -2.9268  2.4478
  772MOL0     H 6526   0.339  11.052   3.407 -2.4242 -0.9794  0.7096
  772MOL0     H 6527   0.367  11.180   3.284 -1.5054  1.0864  0.5894
  772MOL0     H 6528   0.231  11.062   3.121 -1.9672 -1.8102  0.4554
  772MOL0     H 6529   0.377  10.978   3.180 -1.0193 -1.9483 -3.5176
  772MOL0     H 6530   0.181  10.865   3.340  2.7085 -3.4524 -0.4899
  772MOL0     H 6531   0.206  10.817   3.161  1.3283  2.8317 -1.9975
  772MOL0     H 6532  -0.178  10.959   3.124 -1.0879 -0.4834  3.5763
  772MOL0     H 6533   0.303  11.110   3.588 -0.7990  2.9738  1.5163
  772MOL0     H 6534   0.407  11.048   3.861 -2.1032  2.3889 -1.4966
  772MOL0     H 6535   0.368  10.872   3.871 -0.7702 -0.9718 -2.0400
  772MOL0     H 6536   0.440  10.948   3.726 -1.3622 -2.1321 -0.8085
  773MOL0     O 6537   6.481   7.082   7.621 -1.0279 -0.4117  0.5283
  773MOL0     C 6538   6.464   7.063   7.507 -0.5976  0.2921  0.4893
  773MOL0     O 6539   6.454   7.149   7.409  0.4539 -0.5613  0.4493
  773MOL0     C 6540   6.511   7.273   7.408  0.7622  0.1633 -0.5116
  773MOL0     C 6541   6.560   7.343   7.518  0.1144  0.4640 -0.8383
  773MOL0     C 6542   6.627   7.459   7.509 -0.9539  0.4035 -0.8410
  773MOL0     C 6543   6.639   7.520   7.385  0.3651  0.5982  0.2830
  773MOL0     O 6544   6.710   7.634   7.401  0.8128 -0.2274  0.8451
  773MOL0     C 6545   6.756   7.693   7.277 -0.5185 -0.4541 -0.3156
  773MOL0     C 6546   6.632   7.768   7.220 -0.5180 -0.2028  0.7990
  773MOL0     C 6547   6.675   7.884   7.136  0.7174 -0.3042 -0.3464
  773MOL0     C 6548   6.715   8.012   7.218 -0.4740  0.3251 -0.6147
  773MOL0     C 6549   6.818   8.083   7.142 -0.2237 -0.6388  0.0561
  773MOL0     C 6550   6.835   8.223   7.197 -0.7693  0.3803 -0.5347
  773MOL0     C 6551   6.977   8.273   7.185 -0.2142  0.0049 -0.9937
  773MOL0     C 6552   6.983   8.421   7.231 -0.3700 -0.0534 -0.3032
  773MOL0     N 6553   7.110   8.484   7.203 -0.7303 -0.7830  0.5221
  773MOL0     C 6554   7.226   8.475   7.271  0.5295 -0.0864  0.6064
  773MOL0     C 6555   7.313   8.566   7.221  0.3695 -0.5889 -0.4772
  773MOL0     C 6556   7.449   8.588   7.292  0.1186 -0.1972 -0.5887
  773MOL0     C 6557   7.525   8.461   7.306 -0.0172  0.3819  0.5572
  773MOL0     C 6558   7.546   8.399   7.168  0.6191  0.2327 -0.6751
  773MOL0     C 6559   7.639   8.273   7.179 -0.6513  0.2618  0.2839
  773MOL0     O 6560   7.585   8.163   7.258  0.6698 -0.6953 -0.3064
  773MOL0     C 6561   7.652   8.053   7.283 -0.0856  1.2613  0.6564
  773MOL0     C 6562   7.604   7.983   7.388  0.7511 -0.3205  0.0728
  773MOL0     C 6563   7.645   7.854   7.423 -0.4428 -0.7471  0.3397
  773MOL0     C 6564   7.570   7.797   7.534  1.0015  0.0483  0.1058
  773MOL0     C 6565   7.749   7.793   7.349  0.3093  0.0938  0.4050
  773MOL0     C 6566   7.802   7.656   7.362  1.1794  0.2890 -1.1751
  773MOL0     O 6567   7.903   7.613   7.280  0.0349  0.3630  0.5237
  773MOL0     C 6568   7.986   7.521   7.339 -0.3322  0.6052  0.7583
  773MOL0     C 6569   7.966   7.384   7.332 -0.4036  0.7302  0.1518
  773MOL0     C 6570   8.046   7.291   7.411  0.6330 -0.2039  0.4623
  773MOL0     C 6571   8.158   7.335   7.475 -0.6377 -0.5058 -0.4960
  773MOL0     O 6572   8.256   7.258   7.541 -0.6857 -0.0991  0.1437
  773MOL0     C 6573   8.251   7.118   7.542  0.2060 -0.5463  0.5178
  773MOL0     C 6574   8.335   7.051   7.439 -0.3509 -0.7296 -0.3314
  773MOL0     C 6575   8.289   7.082   7.289  0.1642  0.5764  0.2813
  773MOL0     C 6576   8.391   7.021   7.185 -0.4040  0.5206 -0.2422
  773MOL0     C 6577   8.356   6.890   7.113 -1.1037 -0.5606 -1.5873
  773MOL0     C 6578   8.479   6.813   7.061 -0.2455 -0.0944 -0.2890
  773MOL0     C 6579   8.539   6.877   6.937  0.1114  0.5957 -0.5875
  773MOL0     C 6580   8.608   6.773   6.841 -0.2417 -1.1704  1.3152
  773MOL0    Cl 6581   8.764   6.720   6.897 -0.6915  0.3520  0.1099
  773MOL0     C 6582   8.185   7.470   7.464  0.3397  0.1495  0.3386
  773MOL0     C 6583   8.108   7.562   7.393 -0.1942 -0.1173 -0.0358
  773MOL0     O 6584   7.766   7.588   7.457  0.2184 -0.3795 -0.4299
  773MOL0     C 6585   7.810   7.872   7.245 -1.1032  0.2692 -0.4713
  773MOL0     C 6586   7.764   8.000   7.210 -0.7438 -0.3342 -0.2277
  773MOL0     N 6587   7.257   8.629   7.120  0.5308  0.0793  0.5207
  773MOL0     N 6588   7.131   8.582   7.104  0.0736  0.2815 -0.8998
  773MOL0     C 6589   6.597   7.448   7.268 -0.6386 -0.5365 -0.1582
  773MOL0     C 6590   6.517   7.335   7.279  0.5598  0.3860 -0.6465
  773MOL0     C 6591   6.453   6.924   7.458  0.7179 -1.1764  0.2799
  773MOL0     C 6592   6.495   6.902   7.323  0.2876 -0.3151 -0.3542
  773MOL0     C 6593   6.482   6.783   7.254 -0.1395  0.2598 -1.5174
  773MOL0     C 6594   6.398   6.690   7.310 -0.6850  0.8372 -0.1300
  773MOL0     O 6595   6.351   6.578   7.247 -0.2814  0.0140  0.4030
  773MOL0     C 6596   6.409   6.461   7.301 -0.7399 -0.1639  0.8237
  773MOL0     C 6597   6.312   6.339   7.283  0.5245 -0.0717 -1.4299
  773MOL0     C 6598   6.174   6.365   7.335 -1.2374 -0.3571 -0.0001
  773MOL0     C 6599   6.058   6.312   7.259  0.7716  0.0192 -1.3263
  773MOL0     C 6600   6.024   6.174   7.308  0.2880 -0.2665 -0.7599
  773MOL0     C 6601   6.002   6.058   7.324 -0.4349 -0.4660  0.5827
  773MOL0     C 6602   6.342   6.710   7.440 -0.2829  0.0654 -0.0916
  773MOL0     C 6603   6.380   6.822   7.521 -0.4272 -0.1512 -0.6797
  773MOL0     C 6604   6.326   6.829   7.665 -0.1919  0.0281  0.3945
  773MOL0     H 6605   6.554   7.310   7.621 -0.5878  0.2049 -0.9592
  773MOL0     H 6606   6.650   7.522   7.594 -0.7623  2.6487 -2.4739
  773MOL0     H 6607   6.814   7.631   7.208 -0.5561 -1.2215  0.3225
  773MOL0     H 6608   6.830   7.769   7.304 -0.9087 -0.1461 -0.1118
  773MOL0     H 6609   6.557   7.710   7.165 -1.0477  0.7663  0.4646
  773MOL0     H 6610   6.579   7.798   7.310  0.1104 -0.3281  1.2150
  773MOL0     H 6611   6.764   7.846   7.084  0.2578 -1.5460 -0.2750
  773MOL0     H 6612   6.593   7.898   7.065  1.8999  1.5599 -1.4313
  773MOL0     H 6613   6.621   8.064   7.239 -2.1490 -3.1645  1.1993
  773MOL0     H 6614   6.755   7.983   7.315  1.3038 -0.8150 -1.6429
  773MOL0     H 6615   6.804   8.114   7.038  0.2390  0.8798  0.4163
  773MOL0     H 6616   6.913   8.032   7.160  0.7751  0.0776 -2.6839
  773MOL0     H 6617   6.772   8.294   7.143  1.7533  1.6728 -1.9579
  773MOL0     H 6618   6.815   8.218   7.304 -1.2902 -1.3878 -0.6839
  773MOL0     H 6619   6.995   8.267   7.077  1.1333 -0.3202 -0.7758
  773MOL0     H 6620   7.044   8.223   7.256 -0.7097  1.1748  0.3508
  773MOL0     H 6621   6.907   8.480   7.178  0.1101  1.4374  0.5823
  773MOL0     H 6622   6.952   8.433   7.335  2.2207  2.9397  0.3024
  773MOL0     H 6623   7.238   8.406   7.354 -1.4132 -0.7284  0.3969
  773MOL0     H 6624   7.447   8.635   7.391  1.5811  0.3568 -0.7945
  773MOL0     H 6625   7.514   8.648   7.228 -0.2613  0.1420 -0.6668
  773MOL0     H 6626   7.622   8.478   7.354 -0.0845  0.8225  0.5407
  773MOL0     H 6627   7.462   8.400   7.373 -3.2764  1.8638 -0.9294
  773MOL0     H 6628   7.456   8.362   7.117  1.8710 -2.1244 -1.3221
  773MOL0     H 6629   7.605   8.464   7.104  3.6895 -1.7946 -0.1291
  773MOL0     H 6630   7.658   8.229   7.081 -0.9107 -1.9284  1.1528
  773MOL0     H 6631   7.737   8.304   7.216 -0.4072 -2.7923  2.5125
  773MOL0     H 6632   7.523   8.032   7.441  2.4103  0.7728  1.7149
  773MOL0     H 6633   7.537   7.695   7.510  3.4444 -0.8186  0.1421
  773MOL0     H 6634   7.495   7.868   7.570  1.0402  1.0447 -1.6981
  773MOL0     H 6635   7.644   7.777   7.613 -0.0377 -0.7003  0.9270
  773MOL0     H 6636   7.876   7.345   7.285 -1.5417 -0.4371  3.0319
  773MOL0     H 6637   8.001   7.195   7.435 -0.8786  0.5400  0.7328
  773MOL0     H 6638   8.290   7.103   7.643  1.7826 -1.1842 -0.1454
  773MOL0     H 6639   8.150   7.077   7.545  0.6309 -1.6347  0.4399
  773MOL0     H 6640   8.441   7.077   7.442  0.4475 -3.4589 -1.4596
  773MOL0     H 6641   8.343   6.944   7.462 -3.5869 -1.2560 -1.2181
  773MOL0     H 6642   8.271   7.188   7.270 -0.9286  0.4373  0.5055
  773MOL0     H 6643   8.189   7.044   7.266 -0.2556  0.4885  2.1494
  773MOL0     H 6644   8.493   7.006   7.221  0.4147  0.5055 -2.4062
  773MOL0     H 6645   8.404   7.097   7.107  3.1619 -0.1037 -0.4588
  773MOL0     H 6646   8.305   6.834   7.191  0.9088  0.6181  0.7014
  773MOL0     H 6647   8.288   6.914   7.030 -0.1975 -0.9118 -2.4412
  773MOL0     H 6648   8.458   6.705   7.056 -1.6726  0.1577 -0.1225
  773MOL0     H 6649   8.565   6.809   7.128 -1.5618 -0.2533  1.4960
  773MOL0     H 6650   8.608   6.959   6.959  0.1622  0.5661 -0.6343
  773MOL0     H 6651   8.470   6.931   6.873  1.2901  3.0639  0.1079
  773MOL0     H 6652   8.628   6.839   6.755  0.4966 -0.0814  2.2889
  773MOL0     H 6653   8.546   6.690   6.806  0.5390 -1.8591  1.5374
  773MOL0     H 6654   8.274   7.488   7.524 -0.7469 -1.1586  2.4546
  773MOL0     H 6655   8.138   7.666   7.380  2.3257 -0.8826 -0.7104
  773MOL0     H 6656   7.892   7.826   7.191 -0.2273  0.7137  0.4265
  773MOL0     H 6657   7.812   8.044   7.122 -0.5089 -2.8338 -1.4305
  773MOL0     H 6658   6.595   7.499   7.172 -1.5735  1.9902  1.1059
  773MOL0     H 6659   6.479   7.289   7.188  0.9507  2.5157 -1.9577
  773MOL0     H 6660   6.552   6.976   7.268 -0.0253  0.0651 -0.1774
  773MOL0     H 6661   6.514   6.772   7.151 -1.1055 -0.7299 -1.7234
  773MOL0     H 6662   6.497   6.439   7.240 -0.1187  3.5238  0.1914
  773MOL0     H 6663   6.444   6.476   7.403 -3.1204  2.2435  1.4026
  773MOL0     H 6664   6.345   6.248   7.334 -1.3105  0.7222  1.4202
  773MOL0     H 6665   6.304   6.321   7.175 -0.0931  0.0874 -1.4123
  773MOL0     H 6666   6.182   6.327   7.438 -2.0773  2.7710  1.3424
  773MOL0     H 6667   6.158   6.473   7.339  0.1656 -0.0756 -1.1691
  773MOL0     H 6668   6.066   6.321   7.150 -0.7234 -2.4403 -1.7026
  773MOL0     H 6669   5.982   6.385   7.289 -1.2730 -2.2146 -0.7530
  773MOL0     H 6670   5.999   5.954   7.349  4.0864 -1.3683 -1.5912
  773MOL0     H 6671   6.278   6.633   7.480  0.9066  0.5506  3.0322
  773MOL0     H 6672   6.383   6.756   7.723  0.9659  2.4432  2.5217
  773MOL0     H 6673   6.337   6.932   7.702  1.1791 -0.3586  1.1255
  773MOL0     H 6674   6.221   6.806   7.684  1.2146 -4.5727  4.8624
  774MOL0     O 6675   9.086   1.658   0.682 -0.6035  0.1657 -0.6747
  774MOL0     C 6676   9.004   1.718   0.747 -0.3252  0.5895  0.4301
  774MOL0     O 6677   8.974   1.685   0.876 -0.1887 -0.3644  0.5845
  774MOL0     C 6678   9.069   1.621   0.951 -0.2216 -0.0141 -0.8227
  774MOL0     C 6679   9.073   1.487   0.968  0.4317  0.6172 -0.5095
  774MOL0     C 6680   9.164   1.424   1.052  0.3259 -0.4365  0.2478
  774MOL0     C 6681   9.262   1.508   1.119 -0.9208 -0.1614 -0.7555
  774MOL0     O 6682   9.375   1.457   1.186  0.4208  0.5757 -0.2958
  774MOL0     C 6683   9.458   1.375   1.104 -0.6026 -0.1543  0.1551
  774MOL0     C 6684   9.596   1.388   1.178 -0.7536 -0.5458  0.6378
  774MOL0     C 6685   9.703   1.291   1.114 -0.1480  0.2500  0.0631
  774MOL0     C 6686   9.691   1.143   1.166 -0.3251  0.5040  0.2660
  774MOL0     C 6687   9.822   1.092   1.223  0.3848  0.7071  0.2904
  774MOL0     C 6688   9.843   1.123   1.370  0.9600 -0.0354  0.6282
  774MOL0     C 6689   9.970   1.062   1.428  1.2066 -0.7807  0.1047
  774MOL0     C 6690   9.994   1.113   1.571 -0.2326 -0.0892 -0.0905
  774MOL0     N 6691   9.920   1.048   1.682  1.2157  0.7509  0.0153
  774MOL0     C 6692   9.966   0.949   1.765  0.3633 -0.3885 -0.6977
  774MOL0     C 6693   9.864   0.922   1.844  0.4591  0.9168 -0.3777
  774MOL0     C 6694   9.856   0.814   1.947 -0.9720 -1.2309 -0.6170
  774MOL0     C 6695   9.954   0.849   2.067 -0.9600  0.3316 -0.4294
  774MOL0     C 6696   9.939   0.735   2.174 -0.5732 -0.1469 -0.3241
  774MOL0     C 6697  10.020   0.761   2.304 -0.0089  0.8869 -1.0441
  774MOL0     O 6698   9.987   0.878   2.386 -0.7130 -0.7262 -0.4841
  774MOL0     C 6699  10.060   1.002   2.383  0.0611 -0.1391  0.4133
  774MOL0     C 6700  10.001   1.102   2.456 -0.1892  0.1897  0.1750
  774MOL0     C 6701  10.060   1.236   2.463 -0.1572  0.0051 -0.3483
  774MOL0     C 6702   9.992   1.346   2.533 -0.1874  0.1427  0.3009
  774MOL0     C 6703  10.168   1.265   2.383 -1.0054 -0.2937  0.6516
  774MOL0     C 6704  10.217   1.406   2.378 -0.8114  0.9332  0.5791
  774MOL0     O 6705  10.329   1.446   2.449  0.3528 -0.2564  0.1596
  774MOL0     C 6706  10.390   1.562   2.407  1.0593  0.2359 -0.7094
  774MOL0     C 6707  10.315   1.680   2.400 -0.1614  0.0100 -0.8901
  774MOL0     C 6708  10.377   1.799   2.346  0.4658  0.0339 -0.1963
  774MOL0     C 6709  10.505   1.803   2.303  0.0393  0.7774  0.0263
  774MOL0     O 6710  10.562   1.913   2.254  0.2347 -0.2571  0.4308
  774MOL0     C 6711  10.485   2.042   2.224  0.5700 -0.2564 -0.1994
  774MOL0     C 6712  10.570   2.155   2.184 -0.0332 -0.7537  0.4028
  774MOL0     C 6713  10.667   2.198   2.290 -0.2531  1.1049 -0.1830
  774MOL0     C 6714  10.733   2.327   2.250  0.9753  0.7976  0.7936
  774MOL0     C 6715  10.857   2.363   2.335  0.2529  0.0218  0.1289
  774MOL0     C 6716  10.821   2.356   2.490 -0.3246 -0.7084 -0.7117
  774MOL0     C 6717  10.703   2.448   2.529 -0.6237 -0.1779  0.6806
  774MOL0     C 6718  10.749   2.585   2.542  0.1103 -0.4612 -0.0389
  774MOL0    Cl 6719  10.617   2.700   2.599  0.3059  0.1476  0.5137
  774MOL0     C 6720  10.571   1.675   2.293 -0.7298 -0.5191 -0.4819
  774MOL0     C 6721  10.513   1.557   2.345 -0.6997 -0.0750 -0.1736
  774MOL0     O 6722  10.172   1.464   2.280 -0.2761  0.4165  0.3730
  774MOL0     C 6723  10.225   1.157   2.308 -0.1537 -0.2276 -0.1149
  774MOL0     C 6724  10.185   1.025   2.315 -0.0858  0.1365 -0.1823
  774MOL0     N 6725   9.764   1.011   1.828 -0.2111 -0.9288  0.0577
  774MOL0     N 6726   9.793   1.086   1.720 -0.1335  0.8517 -0.1059
  774MOL0     C 6727   9.238   1.644   1.120 -0.3639 -0.2210 -0.6792
  774MOL0     C 6728   9.143   1.700   1.044 -0.3200 -0.1153  0.6158
  774MOL0     C 6729   8.961   1.840   0.683  0.1023 -0.3182 -0.6311
  774MOL0     C 6730   8.875   1.930   0.760 -0.5948  0.2140  0.3316
  774MOL0     C 6731   8.828   2.047   0.705  0.0560 -0.2992  0.8463
  774MOL0     C 6732   8.846   2.082   0.574  0.2665 -1.4722  0.5699
  774MOL0     O 6733   8.792   2.195   0.516  0.1608 -0.3142 -0.7826
  774MOL0     C 6734   8.856   2.320   0.565 -0.6145  0.9864 -0.1398
  774MOL0     C 6735   8.782   2.433   0.500  0.4120 -0.6108 -0.2751
  774MOL0     C 6736   8.771   2.564   0.574 -0.6619 -0.5739  0.6765
  774MOL0     C 6737   8.653   2.663   0.541 -0.5714 -0.2765  0.7443
  774MOL0     C 6738   8.544   2.639   0.627 -0.2411  0.7088  0.6461
  774MOL0     C 6739   8.456   2.621   0.705 -0.2659 -0.9410 -0.5266
  774MOL0     C 6740   8.918   1.997   0.493  0.7692 -0.5077 -0.0317
  774MOL0     C 6741   8.981   1.882   0.545  0.2107  1.1645 -0.1186
  774MOL0     C 6742   9.065   1.819   0.436 -0.6338  0.2800 -0.1620
  774MOL0     H 6743   8.989   1.437   0.920  0.5569  3.3902 -4.0017
  774MOL0     H 6744   9.160   1.318   1.075 -0.8320 -0.6034 -0.6162
  774MOL0     H 6745   9.461   1.414   1.001 -0.9839 -2.0632 -0.6162
  774MOL0     H 6746   9.432   1.273   1.076  0.3653 -0.1953 -0.6818
  774MOL0     H 6747   9.633   1.490   1.161 -1.0636  0.1622  3.5301
  774MOL0     H 6748   9.592   1.363   1.285 -0.7774 -2.2814  0.2625
  774MOL0     H 6749   9.690   1.321   1.010 -1.2244  1.7221  0.5947
  774MOL0     H 6750   9.805   1.322   1.138  0.0623  1.3131 -1.9617
  774MOL0     H 6751   9.616   1.142   1.245  0.0920 -3.8690  0.8677
  774MOL0     H 6752   9.664   1.087   1.075  1.0736 -0.5863  0.4854
  774MOL0     H 6753   9.902   1.130   1.158 -1.4265  0.3616 -2.2889
  774MOL0     H 6754   9.812   0.983   1.221  1.9198  0.5565 -0.1447
  774MOL0     H 6755   9.855   1.232   1.372  2.1591 -0.1716  1.4343
  774MOL0     H 6756   9.762   1.090   1.437  0.9466  1.2739  1.2939
  774MOL0     H 6757  10.055   1.081   1.361  1.0591 -1.2435 -0.2203
  774MOL0     H 6758   9.972   0.955   1.447 -2.9701 -1.0438 -0.0014
  774MOL0     H 6759  10.099   1.086   1.586 -0.6756 -2.9454 -1.4176
  774MOL0     H 6760   9.981   1.221   1.585 -0.5323 -0.3866  2.2943
  774MOL0     H 6761  10.058   0.892   1.760  1.0136  0.7537 -2.3382
  774MOL0     H 6762   9.902   0.728   1.896 -0.6211 -1.2429 -0.2907
  774MOL0     H 6763   9.755   0.794   1.984 -1.3440  0.6647 -0.4946
  774MOL0     H 6764  10.056   0.854   2.029 -0.9058 -1.9368 -0.7533
  774MOL0     H 6765   9.929   0.945   2.112 -0.2665  0.4496 -0.2935
  774MOL0     H 6766   9.838   0.709   2.206 -0.0549 -0.2404  1.3238
  774MOL0     H 6767   9.978   0.645   2.126 -2.0272 -0.2041 -1.4651
  774MOL0     H 6768  10.008   0.671   2.366  2.1936  1.4578  0.3261
  774MOL0     H 6769  10.128   0.775   2.292 -0.1564  1.5877 -1.5802
  774MOL0     H 6770   9.903   1.086   2.500 -1.2826  0.5421 -1.9795
  774MOL0     H 6771   9.911   1.310   2.597 -0.2037 -0.5748 -0.1070
  774MOL0     H 6772   9.952   1.421   2.464  0.2275  2.9038  2.8358
  774MOL0     H 6773  10.061   1.402   2.597 -0.2317  1.9905 -1.2022
  774MOL0     H 6774  10.216   1.698   2.441 -0.2115  1.1188 -1.4416
  774MOL0     H 6775  10.311   1.885   2.345  0.6888  0.2154  0.4565
  774MOL0     H 6776  10.416   2.022   2.142 -0.7382  1.3361  0.4604
  774MOL0     H 6777  10.437   2.057   2.321  0.1876 -1.8909 -0.0965
  774MOL0     H 6778  10.625   2.137   2.092  0.0771  0.6638  0.1735
  774MOL0     H 6779  10.508   2.242   2.162  3.4953  2.8770  3.2732
  774MOL0     H 6780  10.740   2.117   2.303  0.1013  1.0215 -2.3594
  774MOL0     H 6781  10.611   2.213   2.383  1.4147  3.4503  0.5495
  774MOL0     H 6782  10.649   2.397   2.243 -0.3969 -0.7913  0.7555
  774MOL0     H 6783  10.763   2.311   2.146  0.1773  2.0603  0.3520
  774MOL0     H 6784  10.941   2.297   2.312  1.9212  2.1185 -0.1032
  774MOL0     H 6785  10.898   2.460   2.307 -1.1220  1.7468  3.4654
  774MOL0     H 6786  10.898   2.398   2.556 -0.8054  1.7305 -1.5976
  774MOL0     H 6787  10.794   2.255   2.523  1.4107 -1.2590 -0.8655
  774MOL0     H 6788  10.662   2.410   2.623  1.3350 -1.4499  1.0747
  774MOL0     H 6789  10.612   2.449   2.468 -0.1465  3.0921 -0.1697
  774MOL0     H 6790  10.796   2.626   2.452 -0.3200  1.7148  0.6512
  774MOL0     H 6791  10.831   2.585   2.614 -2.8569 -1.1700  3.6509
  774MOL0     H 6792  10.678   1.669   2.274 -0.8082 -0.9888 -0.7755
  774MOL0     H 6793  10.553   1.457   2.337 -1.1444 -0.2822  0.1012
  774MOL0     H 6794  10.323   1.188   2.271 -1.0237  1.1791 -1.3716
  774MOL0     H 6795  10.249   0.949   2.273  1.1648 -1.2628  3.8060
  774MOL0     H 6796   9.306   1.706   1.178  0.5523 -0.9003 -0.9950
  774MOL0     H 6797   9.132   1.808   1.033 -4.3021 -0.5471 -1.6232
  774MOL0     H 6798   8.852   1.909   0.864 -0.4188  0.4587  0.4207
  774MOL0     H 6799   8.768   2.110   0.770 -0.3226  0.6737 -0.4225
  774MOL0     H 6800   8.837   2.330   0.673  0.5437  0.4227  0.1293
  774MOL0     H 6801   8.964   2.310   0.555 -0.5549  1.5135 -0.0424
  774MOL0     H 6802   8.677   2.411   0.475  0.4498  1.5833 -2.9007
  774MOL0     H 6803   8.824   2.451   0.401 -1.0388  2.8522 -0.4207
  774MOL0     H 6804   8.777   2.545   0.682 -0.2878 -0.8461  0.6095
  774MOL0     H 6805   8.868   2.609   0.549 -1.0963 -0.5378 -1.0155
  774MOL0     H 6806   8.600   2.640   0.448 -2.4294  1.9587  1.1482
  774MOL0     H 6807   8.691   2.766   0.542  1.8157 -1.1033  0.5344
  774MOL0     H 6808   8.390   2.595   0.786  0.9089 -2.1833  0.0754
  774MOL0     H 6809   8.932   2.027   0.390 -0.0383 -0.7873 -0.2278
  774MOL0     H 6810   9.002   1.775   0.359  1.0226  0.3077 -1.6028
  774MOL0     H 6811   9.123   1.893   0.379  1.8225 -1.2292  0.2188
  774MOL0     H 6812   9.135   1.741   0.467 -0.5980  0.1282 -0.6220
  775MOL0     O 6813   2.506  11.066   5.555 -0.3932 -0.7108 -0.0861
  775MOL0     C 6814   2.420  11.021   5.476  0.1973 -0.4092 -0.9448
  775MOL0     O 6815   2.289  10.997   5.492  0.6650 -0.1435  0.3615
  775MOL0     C 6816   2.198  11.048   5.593  0.0903 -0.0240  0.4431
  775MOL0     C 6817   2.184  11.184   5.625 -1.1237 -0.2099 -0.2141
  775MOL0     C 6818   2.081  11.226   5.708  0.3373  0.8610 -0.2126
  775MOL0     C 6819   1.994  11.135   5.772 -0.1542 -0.1296 -0.2428
  775MOL0     O 6820   1.877  11.182   5.830 -0.4719  0.2459  0.5252
  775MOL0     C 6821   1.864  11.113   5.957 -0.4764 -0.6075 -0.8137
  775MOL0     C 6822   1.777  11.194   6.055  0.5597 -0.7798 -0.3321
  775MOL0     C 6823   1.757  11.106   6.178 -1.0025  0.5752  0.8013
  775MOL0     C 6824   1.732  11.187   6.318  0.0991  0.5920  0.3151
  775MOL0     C 6825   1.758  11.090   6.443  0.0913  0.4610 -0.5078
  775MOL0     C 6826   1.718  11.162   6.561  0.4495  0.4480 -0.2566
  775MOL0     C 6827   1.564  11.139   6.587  0.6387  0.7856 -0.8234
  775MOL0     C 6828   1.531  11.142   6.743  0.6566  0.0255  0.3929
  775MOL0     N 6829   1.531  11.280   6.809  0.0754  0.5183 -0.1458
  775MOL0     C 6830   1.647  11.354   6.846  0.5688  0.7029 -0.6078
  775MOL0     C 6831   1.582  11.464   6.890  0.2426 -0.5300 -0.1693
  775MOL0     C 6832   1.637  11.596   6.941 -0.9536  0.0461  0.4240
  775MOL0     C 6833   1.763  11.577   7.030 -0.0683  0.7870  0.3582
  775MOL0     C 6834   1.836  11.709   7.076  0.2410  0.3110 -0.9609
  775MOL0     C 6835   1.961  11.764   6.992 -0.9657  0.2623  0.6851
  775MOL0     O 6836   1.919  11.782   6.852 -0.2180 -0.0345  0.4316
  775MOL0     C 6837   1.942  11.682   6.761  1.0026  0.6103  0.0116
  775MOL0     C 6838   2.006  11.558   6.778 -1.5708 -0.3920  0.0217
  775MOL0     C 6839   2.032  11.470   6.671 -0.4833  0.2786 -0.3576
  775MOL0     C 6840   2.111  11.341   6.706  0.8609 -0.0371 -0.0191
  775MOL0     C 6841   1.990  11.517   6.535  0.9789 -0.5835 -0.2277
  775MOL0     C 6842   1.996  11.441   6.408 -0.1605 -0.5642 -0.1585
  775MOL0     O 6843   2.058  11.322   6.417  0.7366  0.3961 -0.1757
  775MOL0     C 6844   2.121  11.256   6.316  0.1282  0.7371 -0.6762
  775MOL0     C 6845   2.171  11.313   6.201  0.5077 -0.1623  0.6276
  775MOL0     C 6846   2.204  11.230   6.091  0.2391  0.3062  0.4721
  775MOL0     C 6847   2.209  11.092   6.093  0.1763 -0.7042  0.1843
  775MOL0     O 6848   2.246  11.017   5.982  0.0281  0.3031  0.2101
  775MOL0     C 6849   2.332  10.897   5.992 -1.4347  0.1317 -0.9743
  775MOL0     C 6850   2.339  10.849   5.852  0.1046  0.1405 -0.5755
  775MOL0     C 6851   2.432  10.732   5.818 -0.1428  0.2038 -0.2336
  775MOL0     C 6852   2.474  10.740   5.671  0.3241  0.9071  0.1155
  775MOL0     C 6853   2.556  10.611   5.635  0.4183  0.4852  0.0088
  775MOL0     C 6854   2.566  10.604   5.486 -0.0097  0.1681 -0.3825
  775MOL0     C 6855   2.613  10.459   5.462  0.4290 -0.7363  0.4146
  775MOL0     C 6856   2.637  10.434   5.315  0.0968  0.9361  0.1364
  775MOL0    Cl 6857   2.756  10.289   5.272  0.3618 -0.4268  0.3029
  775MOL0     C 6858   2.173  11.043   6.218 -0.0508 -0.3028 -0.3357
  775MOL0     C 6859   2.126  11.116   6.326  0.8377  0.0183  0.6654
  775MOL0     O 6860   1.961  11.501   6.311  0.1335 -0.9062 -1.1009
  775MOL0     C 6861   1.913  11.638   6.526 -0.0632  0.2101  0.3997
  775MOL0     C 6862   1.896  11.713   6.634  0.0671  0.6790 -0.4420
  775MOL0     N 6863   1.448  11.462   6.866  0.0836  0.1295  0.4107
  775MOL0     N 6864   1.421  11.353   6.810  0.2592  0.4763  0.0906
  775MOL0     C 6865   2.011  10.994   5.748  0.1551  0.6986 -0.4173
  775MOL0     C 6866   2.107  10.948   5.653 -0.7041  1.4190 -0.1109
  775MOL0     C 6867   2.461  10.987   5.340 -0.2821 -0.8430  0.8436
  775MOL0     C 6868   2.371  11.013   5.239 -0.1081 -0.2434  0.4884
  775MOL0     C 6869   2.409  10.996   5.110  0.1364  0.4451  0.3159
  775MOL0     C 6870   2.520  10.930   5.071 -0.2929 -0.0896 -0.0945
  775MOL0     O 6871   2.531  10.890   4.940  0.0857 -0.1725 -0.5353
  775MOL0     C 6872   2.619  10.779   4.902  0.4033 -0.1036 -0.6769
  775MOL0     C 6873   2.604  10.764   4.750 -0.3067 -0.5545 -0.2634
  775MOL0     C 6874   2.719  10.695   4.675  0.5425 -0.7384  0.1939
  775MOL0     C 6875   2.756  10.549   4.703  0.4760  0.8622  0.4036
  775MOL0     C 6876   2.831  10.528   4.831 -0.2272  0.5131  0.3191
  775MOL0     C 6877   2.873  10.505   4.945  0.1814 -0.1201  0.0844
  775MOL0     C 6878   2.624  10.906   5.162  0.9021 -0.1637 -0.9348
  775MOL0     C 6879   2.598  10.950   5.299  0.0315 -0.0119  0.0690
  775MOL0     C 6880   2.717  10.960   5.389  0.4112  0.4116 -0.1303
  775MOL0     H 6881   2.242  11.253   5.566 -0.5987 -1.6014 -1.3864
  775MOL0     H 6882   2.057  11.332   5.705 -2.2280  0.3280 -1.4207
  775MOL0     H 6883   1.962  11.097   6.003 -0.7804  3.8527  1.9321
  775MOL0     H 6884   1.821  11.014   5.938  2.9757 -2.1518 -1.4655
  775MOL0     H 6885   1.815  11.288   6.093  3.5022 -1.7748 -0.5762
  775MOL0     H 6886   1.682  11.207   6.001  0.6000  1.5855  0.0926
  775MOL0     H 6887   1.677  11.032   6.167  2.1326 -3.0466  0.2377
  775MOL0     H 6888   1.841  11.036   6.182  0.2325  1.7086 -2.1487
  775MOL0     H 6889   1.807  11.265   6.330  1.0244 -0.7282  5.4108
  775MOL0     H 6890   1.631  11.228   6.304 -0.6379 -1.4971 -1.0143
  775MOL0     H 6891   1.862  11.060   6.458 -0.6770 -2.2507 -0.0329
  775MOL0     H 6892   1.711  10.992   6.435  1.2322 -0.0934 -0.6280
  775MOL0     H 6893   1.779  11.118   6.641 -0.9320 -0.1275  0.5204
  775MOL0     H 6894   1.734  11.269   6.550 -2.8738  1.2851  1.8050
  775MOL0     H 6895   1.543  11.040   6.544 -1.9993  1.7816 -2.0634
  775MOL0     H 6896   1.493  11.196   6.527  1.2012  1.3478 -0.9653
  775MOL0     H 6897   1.429  11.111   6.765  0.3186  1.9738  1.9086
  775MOL0     H 6898   1.599  11.068   6.786  1.5002  0.5358 -0.0304
  775MOL0     H 6899   1.749  11.318   6.849  0.3470 -0.1167 -2.1356
  775MOL0     H 6900   1.562  11.645   7.004  1.2711 -0.6190  3.8955
  775MOL0     H 6901   1.658  11.665   6.859 -1.3786 -0.1488  0.1509
  775MOL0     H 6902   1.722  11.527   7.118 -1.1681 -0.6535 -0.9149
  775MOL0     H 6903   1.843  11.515   6.989  0.1706  0.6051  1.0808
  775MOL0     H 6904   1.768  11.795   7.073  0.1764  0.2887 -0.1376
  775MOL0     H 6905   1.863  11.699   7.181 -1.3262  2.1475 -0.3200
  775MOL0     H 6906   1.982  11.867   7.021 -4.6781  1.6901 -1.1302
  775MOL0     H 6907   2.052  11.703   7.005 -0.4602  0.9082  0.2172
  775MOL0     H 6908   2.027  11.536   6.882 -0.1501  2.2009  0.3739
  775MOL0     H 6909   2.032  11.265   6.709 -3.5823  4.0510 -0.0877
  775MOL0     H 6910   2.161  11.372   6.798 -0.5644 -1.2292  1.2163
  775MOL0     H 6911   2.184  11.334   6.625 -0.3817  1.3076 -1.3278
  775MOL0     H 6912   2.180  11.420   6.190  1.3831 -0.2553  0.3326
  775MOL0     H 6913   2.219  11.288   6.000 -2.2340  0.1825 -0.0947
  775MOL0     H 6914   2.437  10.923   6.012 -2.0363  3.4483 -1.5890
  775MOL0     H 6915   2.290  10.814   6.049 -1.6753  1.4255  0.8319
  775MOL0     H 6916   2.239  10.809   5.831  0.0267 -0.0069  0.0582
  775MOL0     H 6917   2.361  10.934   5.787  0.5353 -0.9779 -1.9620
  775MOL0     H 6918   2.390  10.636   5.846 -0.0533 -0.3009 -1.7470
  775MOL0     H 6919   2.519  10.735   5.884 -1.3043  3.5219  1.3765
  775MOL0     H 6920   2.520  10.835   5.643 -1.5780  1.1319 -2.6119
  775MOL0     H 6921   2.383  10.738   5.611  0.4942  1.9195 -0.1872
  775MOL0     H 6922   2.660  10.610   5.670  0.6536 -1.9476 -0.5697
  775MOL0     H 6923   2.499  10.524   5.667 -2.0502  1.3635 -1.7043
  775MOL0     H 6924   2.644  10.676   5.465 -1.2674  1.0306 -2.3012
  775MOL0     H 6925   2.470  10.619   5.436  0.0480 -1.7882 -1.1808
  775MOL0     H 6926   2.541  10.383   5.494  2.2160 -1.9378  1.8165
  775MOL0     H 6927   2.708  10.441   5.512  0.4893 -0.2685  0.4749
  775MOL0     H 6928   2.676  10.520   5.260  1.9579  0.2279  0.2717
  775MOL0     H 6929   2.538  10.421   5.270  1.4991 -0.2379 -2.8659
  775MOL0     H 6930   2.175  10.936   6.234 -0.2593  0.0981  3.1442
  775MOL0     H 6931   2.076  11.083   6.417 -3.2778  0.4638 -1.2284
  775MOL0     H 6932   1.872  11.680   6.435  0.2348 -2.8001 -1.2440
  775MOL0     H 6933   1.841  11.806   6.627 -0.0625  0.6008 -0.4776
  775MOL0     H 6934   1.948  10.915   5.790  0.0523 -0.4639 -2.5918
  775MOL0     H 6935   2.104  10.846   5.618  1.5081  0.9615  0.8697
  775MOL0     H 6936   2.282  11.070   5.264  2.1444  2.6663  2.5613
  775MOL0     H 6937   2.340  11.019   5.029  1.9794  0.6214 -1.2543
  775MOL0     H 6938   2.725  10.796   4.923  0.2114  1.6332 -1.0073
  775MOL0     H 6939   2.595  10.682   4.946 -0.4554 -0.2122 -1.3570
  775MOL0     H 6940   2.604  10.865   4.709  4.2659 -1.1618 -2.3780
  775MOL0     H 6941   2.514  10.707   4.725 -1.5740  1.1415  0.1648
  775MOL0     H 6942   2.696  10.706   4.568 -1.2908 -0.4578  0.5726
  775MOL0     H 6943   2.809  10.756   4.682 -0.7494  1.2568  0.3809
  775MOL0     H 6944   2.806  10.517   4.611 -1.7606  0.6902 -0.8224
  775MOL0     H 6945   2.658  10.500   4.700  1.1795 -0.6469  1.3029
  775MOL0     H 6946   2.919  10.492   5.042 -1.9319  0.1965  1.1826
  775MOL0     H 6947   2.725  10.884   5.129  1.2033 -1.0441  0.4778
  775MOL0     H 6948   2.750  11.063   5.399  2.4541 -0.2424  0.4106
  775MOL0     H 6949   2.701  10.926   5.492 -0.2756 -3.6901 -1.3995
  775MOL0     H 6950   2.794  10.890   5.356 -1.5442  0.0864 -4.7887
  776MOL0     O 6951   2.755   0.807   8.497  0.0747  1.1731 -1.0327
  776MOL0     C 6952   2.799   0.700   8.532  0.2039 -1.1336  0.4355
  776MOL0     O 6953   2.830   0.673   8.668  0.1985 -0.1182 -0.3045
  776MOL0     C 6954   2.738   0.718   8.756  0.9256  0.1293 -0.3687
  776MOL0     C 6955   2.628   0.648   8.786  0.2726  0.4053 -0.0553
  776MOL0     C 6956   2.539   0.690   8.885  0.6738 -0.3377  0.4743
  776MOL0     C 6957   2.563   0.809   8.955 -0.7362  0.0844  0.1639
  776MOL0     O 6958   2.465   0.878   9.021  0.0273  0.4466 -0.5039
  776MOL0     C 6959   2.354   0.933   8.940 -0.3549 -0.4792  0.7409
  776MOL0     C 6960   2.223   0.852   8.943 -0.3708 -0.0788 -0.2345
  776MOL0     C 6961   2.145   0.855   9.074  0.1732  0.4889 -0.2060
  776MOL0     C 6962   2.068   0.724   9.072  0.5184  0.5716 -1.0730
  776MOL0     C 6963   1.988   0.696   9.202  0.5424 -0.5423 -0.5675
  776MOL0     C 6964   1.859   0.784   9.218 -0.1272 -0.3083  0.5979
  776MOL0     C 6965   1.845   0.801   9.366  0.7834 -0.3891  0.1015
  776MOL0     C 6966   1.702   0.841   9.411 -0.4027  0.1036 -0.3787
  776MOL0     N 6967   1.694   0.831   9.556  0.3914 -1.5836 -0.9132
  776MOL0     C 6968   1.739   0.730   9.642 -0.8801 -0.1053 -0.1136
  776MOL0     C 6969   1.739   0.793   9.764 -0.2730  0.0220  0.6185
  776MOL0     C 6970   1.790   0.739   9.892  0.7714  0.9353  0.1886
  776MOL0     C 6971   1.922   0.804   9.921  0.4642 -0.1669  0.0386
  776MOL0     C 6972   1.986   0.722  10.028 -0.3130 -0.5164 -0.0393
  776MOL0     C 6973   2.119   0.785  10.063  0.8814 -0.1025 -0.5707
  776MOL0     O 6974   2.212   0.700  10.127 -0.2901  0.5383 -0.1117
  776MOL0     C 6975   2.330   0.748  10.173 -0.2609  0.6001 -0.1517
  776MOL0     C 6976   2.405   0.656  10.241 -0.6480 -0.5694  0.7647
  776MOL0     C 6977   2.529   0.696  10.285  0.3174  0.2937  1.0819
  776MOL0     C 6978   2.599   0.593  10.374 -0.5093 -0.3794 -0.3899
  776MOL0     C 6979   2.586   0.827  10.257 -0.1213 -0.5307 -0.3115
  776MOL0     C 6980   2.726   0.862  10.291  0.1619  0.5245  1.1117
  776MOL0     O 6981   2.789   0.936  10.187  0.0265 -0.4052  0.5464
  776MOL0     C 6982   2.922   0.973  10.175 -0.7112  0.0373  0.9029
  776MOL0     C 6983   2.961   1.032  10.049 -0.9283  0.1262  0.1568
  776MOL0     C 6984   3.092   1.085  10.031  0.2727 -0.2858 -0.9425
  776MOL0     C 6985   3.190   1.078  10.134  0.6609  0.0709 -0.4550
  776MOL0     O 6986   3.307   1.135  10.099  0.1140 -0.0769 -0.2519
  776MOL0     C 6987   3.427   1.107  10.173 -0.7903 -0.2927  0.5482
  776MOL0     C 6988   3.444   1.186  10.306 -0.1698  0.0999  0.0160
  776MOL0     C 6989   3.519   1.313  10.285  0.3365  0.2398 -0.1829
  776MOL0     C 6990   3.567   1.383  10.415  0.6037  0.3809  0.0370
  776MOL0     C 6991   3.658   1.503  10.404  0.6893  0.4596  0.4876
  776MOL0     C 6992   3.706   1.562  10.525  0.8083 -0.1202 -0.0740
  776MOL0     C 6993   3.591   1.607  10.623 -0.1641 -0.3606 -0.8189
  776MOL0     C 6994   3.641   1.685  10.748 -0.9562  1.1818  0.9478
  776MOL0    Cl 6995   3.653   1.850  10.684  0.0924 -0.0166 -0.3521
  776MOL0     C 6996   3.150   1.009  10.254 -0.0130 -0.7953  0.3274
  776MOL0     C 6997   3.026   0.965  10.279 -0.5972  0.8783 -0.4359
  776MOL0     O 6998   2.782   0.823  10.388 -0.1939  0.8038  0.1927
  776MOL0     C 6999   2.510   0.913  10.175  0.2520  0.1328 -1.2241
  776MOL0     C 7000   2.381   0.874  10.143 -0.5406  0.4268  0.0999
  776MOL0     N 7001   1.710   0.932   9.746 -0.8546  0.5271 -0.4847
  776MOL0     N 7002   1.686   0.949   9.620 -0.0804  0.4168  0.0688
  776MOL0     C 7003   2.676   0.887   8.920 -0.0067  0.2358  0.0472
  776MOL0     C 7004   2.759   0.840   8.819 -0.3359 -0.3316  0.2467
  776MOL0     C 7005   2.819   0.601   8.426 -0.3044 -0.0257 -0.3202
  776MOL0     C 7006   2.904   0.492   8.473 -1.3138  0.1060  0.3517
  776MOL0     C 7007   2.934   0.389   8.386 -0.6632  0.2728  0.1086
  776MOL0     C 7008   2.897   0.388   8.254  0.2884 -0.7226  0.7860
  776MOL0     O 7009   2.934   0.286   8.169  0.4033  0.3208  0.9017
  776MOL0     C 7010   2.853   0.256   8.050  0.1028 -0.7815 -1.0093
  776MOL0     C 7011   2.855   0.105   8.011 -0.4482  0.0607  0.2402
  776MOL0     C 7012   3.000   0.046   8.025 -0.8093 -0.4709  1.1991
  776MOL0     C 7013   3.083   0.083   7.897 -0.0986  0.4585  0.0816
  776MOL0     C 7014   3.214   0.011   7.920  0.4106 -0.2727 -0.9697
  776MOL0     C 7015   3.315  -0.033   7.959 -0.4523 -0.5715 -0.4957
  776MOL0     C 7016   2.814   0.489   8.208 -0.3384 -0.3929 -0.3841
  776MOL0     C 7017   2.780   0.600   8.289 -1.1385 -0.2312  0.0115
  776MOL0     C 7018   2.699   0.709   8.226 -0.2553 -0.0476  0.3342
  776MOL0     H 7019   2.621   0.555   8.730  1.2576  1.0248 -1.2433
  776MOL0     H 7020   2.451   0.628   8.901 -0.5719  1.3544  0.4683
  776MOL0     H 7021   2.394   0.923   8.839 -1.9636 -1.1160  0.1483
  776MOL0     H 7022   2.340   1.037   8.972  0.4046 -0.9776  2.8230
  776MOL0     H 7023   2.153   0.884   8.865  0.8511 -1.1673 -1.8439
  776MOL0     H 7024   2.243   0.752   8.903  0.9721  0.8822 -2.1118
  776MOL0     H 7025   2.207   0.858   9.164 -3.5365 -0.9158  2.6314
  776MOL0     H 7026   2.076   0.939   9.082  0.2539  0.4364  1.5832
  776MOL0     H 7027   1.996   0.733   8.990 -2.6443  1.2382  1.5768
  776MOL0     H 7028   2.138   0.642   9.050  0.1676  0.7122 -2.8761
  776MOL0     H 7029   2.063   0.717   9.280 -0.1615 -0.2187  0.0295
  776MOL0     H 7030   1.957   0.592   9.212  2.4355 -1.2629 -1.5355
  776MOL0     H 7031   1.875   0.882   9.173 -4.7495 -0.1736 -1.2561
  776MOL0     H 7032   1.770   0.742   9.170 -1.0347  0.7154  1.3507
  776MOL0     H 7033   1.909   0.883   9.401  3.1085 -1.4121 -1.5279
  776MOL0     H 7034   1.874   0.710   9.418  1.0243 -0.3194  0.0866
  776MOL0     H 7035   1.667   0.941   9.383 -2.2140  0.1721  1.8496
  776MOL0     H 7036   1.621   0.783   9.365 -2.7827  3.3810 -0.6646
  776MOL0     H 7037   1.768   0.629   9.613 -2.0050 -0.5377  0.2081
  776MOL0     H 7038   1.791   0.630   9.882 -1.5403  0.8706  0.0790
  776MOL0     H 7039   1.726   0.755   9.979  0.7790  0.1210  0.3489
  776MOL0     H 7040   1.977   0.807   9.826 -0.5597  1.7199 -0.5599
  776MOL0     H 7041   1.907   0.911   9.941  0.9178  0.0209 -0.6050
  776MOL0     H 7042   1.924   0.708  10.117 -2.9685 -4.2831 -2.1650
  776MOL0     H 7043   2.021   0.622  10.001  2.4183  0.1033  0.8757
  776MOL0     H 7044   2.167   0.818   9.970  2.1437  0.2055  0.1708
  776MOL0     H 7045   2.099   0.863  10.137  1.7310  0.5208 -0.9882
  776MOL0     H 7046   2.354   0.560  10.253 -0.3893 -0.8575 -0.3593
  776MOL0     H 7047   2.682   0.566  10.308 -1.4872 -0.9124 -1.4558
  776MOL0     H 7048   2.537   0.507  10.401  1.0573 -2.1041 -2.0058
  776MOL0     H 7049   2.647   0.632  10.464 -1.1905 -0.0327 -0.1670
  776MOL0     H 7050   2.886   1.034   9.971 -0.8643 -1.2864  0.0286
  776MOL0     H 7051   3.122   1.140   9.943  0.3387  1.0951 -0.0787
  776MOL0     H 7052   3.448   1.000  10.169 -0.6597 -0.2318 -1.8510
  776MOL0     H 7053   3.511   1.140  10.110 -0.7328 -0.9734  0.2582
  776MOL0     H 7054   3.352   1.215  10.357  0.9647  1.4219  1.4111
  776MOL0     H 7055   3.496   1.129  10.384  0.2566  3.6963  2.6360
  776MOL0     H 7056   3.450   1.385  10.239 -0.9187  0.6867  2.2306
  776MOL0     H 7057   3.603   1.300  10.216 -0.2016  0.6407 -0.9344
  776MOL0     H 7058   3.620   1.310  10.477  2.5214  2.3826  0.9303
  776MOL0     H 7059   3.476   1.409  10.469  1.2440  2.3717  0.2456
  776MOL0     H 7060   3.749   1.472  10.352  0.4962 -1.4187  1.1965
  776MOL0     H 7061   3.612   1.576  10.337  0.9919  0.4360  0.2514
  776MOL0     H 7062   3.776   1.643  10.506 -2.8737  3.9688  2.0113
  776MOL0     H 7063   3.755   1.489  10.591  1.1010 -1.6414 -1.8845
  776MOL0     H 7064   3.548   1.513  10.660 -1.9908  0.5086 -0.6531
  776MOL0     H 7065   3.528   1.667  10.556  0.9862 -0.8679 -2.4204
  776MOL0     H 7066   3.735   1.642  10.783 -2.0656 -2.0641  0.2187
  776MOL0     H 7067   3.580   1.671  10.837 -0.9330 -0.2989  0.7487
  776MOL0     H 7068   3.212   1.009  10.343  0.0568  0.3270  0.2968
  776MOL0     H 7069   3.017   0.923  10.379 -0.4620  0.2256 -0.6950
  776MOL0     H 7070   2.553   1.007  10.141 -2.5952  1.1797 -2.2575
  776MOL0     H 7071   2.303   0.937  10.101 -2.3404 -1.7860 -0.0501
  776MOL0     H 7072   2.688   0.987   8.961 -0.0189  1.2471 -2.2648
  776MOL0     H 7073   2.843   0.898   8.781  0.5843  0.2676  2.9666
  776MOL0     H 7074   2.953   0.473   8.567 -1.7942  0.9803  0.7939
  776MOL0     H 7075   3.001   0.311   8.421 -1.4388  0.0421  1.1487
  776MOL0     H 7076   2.750   0.293   8.055  0.2421 -0.5275  0.7265
  776MOL0     H 7077   2.890   0.308   7.962 -0.4153 -0.5489 -1.0951
  776MOL0     H 7078   2.814   0.069   7.916  0.0627 -0.2915  0.1488
  776MOL0     H 7079   2.794   0.068   8.093 -0.0950  1.6576  1.2528
  776MOL0     H 7080   3.057   0.083   8.111  1.8875  0.8966 -1.0281
  776MOL0     H 7081   2.994  -0.063   8.030  1.7372 -0.6303  2.6038
  776MOL0     H 7082   3.095   0.191   7.881  0.3451  0.1736 -1.6777
  776MOL0     H 7083   3.036   0.045   7.806 -2.6469  0.4283  1.3183
  776MOL0     H 7084   3.411  -0.067   7.994 -1.0628 -3.7976 -1.6438
  776MOL0     H 7085   2.766   0.486   8.111 -4.3100 -1.7253  1.4011
  776MOL0     H 7086   2.768   0.790   8.200 -3.0319  2.7273  0.9678
  776MOL0     H 7087   2.640   0.686   8.138  0.6476 -1.4644  0.0678
  776MOL0     H 7088   2.628   0.760   8.292 -1.2696  0.9289 -1.4579
  777MOL0     O 7089   4.071   7.466   4.368 -0.6557 -0.0436 -0.0918
  777MOL0     C 7090   4.008   7.373   4.336  0.4292  0.7217 -0.9218
  777MOL0     O 7091   3.909   7.306   4.416 -0.0102  0.6635 -0.0074
  777MOL0     C 7092   3.845   7.364   4.524  0.4084 -0.3592 -0.1260
  777MOL0     C 7093   3.781   7.275   4.606  1.2950  0.9423 -0.4079
  777MOL0     C 7094   3.716   7.325   4.719 -0.6033  1.1166  0.0677
  777MOL0     C 7095   3.714   7.459   4.754  0.5546  0.1492  0.0379
  777MOL0     O 7096   3.651   7.498   4.868  0.6479  0.1015 -0.7315
  777MOL0     C 7097   3.664   7.640   4.896 -0.2483  0.1588  0.8198
  777MOL0     C 7098   3.587   7.656   5.018  0.2319  0.0439 -0.4754
  777MOL0     C 7099   3.618   7.781   5.092 -0.4773 -0.2362  1.3477
  777MOL0     C 7100   3.755   7.785   5.158  0.7187 -0.1738 -0.0006
  777MOL0     C 7101   3.826   7.922   5.162  0.4250 -0.1931  0.5057
  777MOL0     C 7102   3.961   7.911   5.226  0.1846  0.7353  0.0754
  777MOL0     C 7103   3.949   7.868   5.371  0.8524  0.2246 -0.5321
  777MOL0     C 7104   4.081   7.913   5.448 -0.2645 -0.1434  0.2174
  777MOL0     N 7105   4.199   7.849   5.392 -0.4768  0.5813  0.3313
  777MOL0     C 7106   4.211   7.734   5.317 -0.2545  1.1785 -0.2892
  777MOL0     C 7107   4.345   7.704   5.327  0.3483 -0.8633 -0.8228
  777MOL0     C 7108   4.413   7.583   5.271  0.7217  0.5599  0.5151
  777MOL0     C 7109   4.531   7.615   5.184  0.5102  0.4457  0.1435
  777MOL0     C 7110   4.508   7.693   5.053  0.0387  0.6078 -0.5949
  777MOL0     C 7111   4.413   7.614   4.954  0.6507  0.3586 -0.2717
  777MOL0     O 7112   4.405   7.691   4.831 -0.2124 -0.2693  0.1672
  777MOL0     C 7113   4.285   7.768   4.809 -0.5918 -0.1696 -0.3308
  777MOL0     C 7114   4.259   7.791   4.676  0.5619 -0.8887  0.3179
  777MOL0     C 7115   4.142   7.856   4.632 -0.1918  0.3983  1.3393
  777MOL0     C 7116   4.114   7.890   4.485  0.7970  0.0069  0.1987
  777MOL0     C 7117   4.049   7.891   4.727 -0.1964 -0.3693 -0.5230
  777MOL0     C 7118   3.917   7.939   4.693  1.5993 -0.2187 -0.0217
  777MOL0     O 7119   3.847   7.908   4.576  0.1367 -0.0177  0.1084
  777MOL0     C 7120   3.711   7.922   4.562  0.4934  0.3543  0.9487
  777MOL0     C 7121   3.651   7.847   4.456 -0.2765 -0.0139 -0.7650
  777MOL0     C 7122   3.516   7.848   4.430  0.2083 -0.9850  0.0596
  777MOL0     C 7123   3.427   7.930   4.502 -0.0604 -0.5011 -0.2867
  777MOL0     O 7124   3.290   7.914   4.468 -0.4092 -0.2512 -0.0751
  777MOL0     C 7125   3.184   7.994   4.535 -0.7136 -0.2060 -0.2081
  777MOL0     C 7126   3.056   8.005   4.442 -0.1337 -0.6568 -0.3219
  777MOL0     C 7127   3.077   8.132   4.348 -0.1907 -0.1172  0.5441
  777MOL0     C 7128   2.955   8.166   4.263  0.0289 -0.4808  0.1369
  777MOL0     C 7129   2.844   8.241   4.348 -0.0366  0.2517  0.1312
  777MOL0     C 7130   2.883   8.385   4.399  0.5279  1.0209  0.5908
  777MOL0     C 7131   2.935   8.477   4.290  0.5363  0.2003 -0.8642
  777MOL0     C 7132   2.945   8.616   4.336 -0.3985  0.6982 -0.3982
  777MOL0    Cl 7133   3.039   8.629   4.499  0.2474 -0.6726 -0.0499
  777MOL0     C 7134   3.481   8.014   4.595  1.0709 -0.2767  0.2054
  777MOL0     C 7135   3.620   8.013   4.619 -0.6632 -0.0307  0.0959
  777MOL0     O 7136   3.872   8.017   4.782 -0.2269 -0.6318  0.7455
  777MOL0     C 7137   4.091   7.888   4.866  0.3915  0.1332 -0.4326
  777MOL0     C 7138   4.206   7.817   4.910 -0.2018  0.1314  0.6472
  777MOL0     N 7139   4.409   7.805   5.400 -0.0942  0.9175  0.2269
  777MOL0     N 7140   4.320   7.893   5.436  0.5646  0.6809  0.4656
  777MOL0     C 7141   3.775   7.551   4.668  0.9941  0.3260 -0.7848
  777MOL0     C 7142   3.834   7.505   4.551 -0.8928  0.4524 -0.0866
  777MOL0     C 7143   4.044   7.323   4.209 -0.2073 -0.2466  0.3792
  777MOL0     C 7144   4.174   7.320   4.172 -0.6327 -0.5820 -0.1545
  777MOL0     C 7145   4.212   7.270   4.045  0.2015  1.0409 -0.5350
  777MOL0     C 7146   4.127   7.194   3.969  0.2555  0.5051  0.4098
  777MOL0     O 7147   4.164   7.139   3.850  0.2620  0.5746  0.8713
  777MOL0     C 7148   4.286   7.066   3.836  0.3337  1.2306 -0.6070
  777MOL0     C 7149   4.237   6.945   3.755  0.1346  0.0159  0.7770
  777MOL0     C 7150   4.235   6.989   3.603  0.5479  0.0625 -0.6235
  777MOL0     C 7151   4.138   6.896   3.529  0.3037  0.4370 -0.8637
  777MOL0     C 7152   4.193   6.776   3.470  0.4631 -0.2051 -0.4247
  777MOL0     C 7153   4.253   6.681   3.412  0.4528 -0.4412 -0.2121
  777MOL0     C 7154   3.991   7.199   4.008  0.5967  0.0098 -0.8083
  777MOL0     C 7155   3.947   7.270   4.118 -0.6491  0.5997  0.0906
  777MOL0     C 7156   3.800   7.255   4.141  0.4997 -0.2017  0.3569
  777MOL0     H 7157   3.791   7.168   4.589  1.7775  1.0105 -0.5751
  777MOL0     H 7158   3.674   7.256   4.791  0.5222 -1.4326 -1.5688
  777MOL0     H 7159   3.615   7.711   4.829 -1.4937  0.5889  2.1381
  777MOL0     H 7160   3.771   7.662   4.898 -0.4488  1.2435  0.3301
  777MOL0     H 7161   3.483   7.668   4.986 -0.0537 -0.7648  0.1221
  777MOL0     H 7162   3.606   7.568   5.080  0.5225  0.5285  0.1339
  777MOL0     H 7163   3.600   7.870   5.031 -2.2160 -1.6976 -0.3830
  777MOL0     H 7164   3.540   7.795   5.168 -1.6204 -2.7530  0.7216
  777MOL0     H 7165   3.734   7.762   5.262 -2.3021  0.0170 -0.4652
  777MOL0     H 7166   3.817   7.708   5.112  0.5951 -0.3218  0.0780
  777MOL0     H 7167   3.759   7.987   5.218 -0.5075 -0.3036 -0.4584
  777MOL0     H 7168   3.830   7.950   5.057  3.0045 -0.8907  0.3439
  777MOL0     H 7169   4.019   7.837   5.170 -2.4253 -2.1285  0.8805
  777MOL0     H 7170   4.006   8.010   5.214 -0.5121  1.0130 -0.2982
  777MOL0     H 7171   3.938   7.759   5.369 -1.2620  0.3936 -0.3459
  777MOL0     H 7172   3.859   7.913   5.416 -0.0362 -2.1814  0.2429
  777MOL0     H 7173   4.092   8.021   5.434 -3.5933  0.4752  1.5280
  777MOL0     H 7174   4.062   7.888   5.553  0.7440  2.9955  1.2738
  777MOL0     H 7175   4.133   7.676   5.268  1.8080 -3.2430  1.2035
  777MOL0     H 7176   4.328   7.556   5.208  2.3184  2.5668 -2.7577
  777MOL0     H 7177   4.441   7.515   5.352  2.3441 -2.8893 -2.6247
  777MOL0     H 7178   4.609   7.668   5.240  0.4266  2.2323 -1.3283
  777MOL0     H 7179   4.567   7.516   5.157 -2.7759 -0.7921 -0.1397
  777MOL0     H 7180   4.459   7.787   5.080 -1.6749  0.0573 -1.5836
  777MOL0     H 7181   4.601   7.707   4.998  1.1856 -1.9142  0.5219
  777MOL0     H 7182   4.447   7.512   4.930 -0.6694 -1.0537  3.1427
  777MOL0     H 7183   4.316   7.593   5.000  0.2635  1.1961 -0.6964
  777MOL0     H 7184   4.321   7.757   4.594  0.7782 -1.2251  0.6224
  777MOL0     H 7185   4.071   7.989   4.467  1.8447  0.5790  0.7269
  777MOL0     H 7186   4.054   7.811   4.439  1.7450 -0.1192 -0.8653
  777MOL0     H 7187   4.204   7.911   4.427 -1.6482  5.4519 -2.2987
  777MOL0     H 7188   3.721   7.784   4.402  0.6547  2.7963 -3.0658
  777MOL0     H 7189   3.476   7.787   4.349  1.8982 -1.7645 -0.2323
  777MOL0     H 7190   3.166   7.938   4.628  0.4734  1.0124  0.8006
  777MOL0     H 7191   3.221   8.094   4.556  1.2846 -1.1371  1.0070
  777MOL0     H 7192   3.031   7.914   4.388 -1.6501 -1.4644  1.6372
  777MOL0     H 7193   2.967   8.035   4.497 -0.8848  1.5103 -2.5239
  777MOL0     H 7194   3.154   8.095   4.280  1.6287 -1.2146  3.0415
  777MOL0     H 7195   3.122   8.217   4.400 -0.2941  0.4167 -0.2242
  777MOL0     H 7196   2.906   8.074   4.232  0.9293 -0.4671 -1.4671
  777MOL0     H 7197   2.985   8.228   4.177  0.6091  2.3786  2.2496
  777MOL0     H 7198   2.755   8.262   4.289 -1.5917  2.4902  2.9732
  777MOL0     H 7199   2.799   8.180   4.428 -0.3098 -3.9995 -2.9359
  777MOL0     H 7200   2.960   8.383   4.477  1.2502 -3.3392  0.0217
  777MOL0     H 7201   2.790   8.434   4.430 -1.3615 -1.2867 -1.0458
  777MOL0     H 7202   2.876   8.458   4.200 -1.2221 -2.0029  0.6106
  777MOL0     H 7203   3.037   8.440   4.275  0.1234 -0.7342 -1.4537
  777MOL0     H 7204   2.846   8.661   4.338 -0.5105  0.5329  3.0987
  777MOL0     H 7205   3.007   8.673   4.265  0.2545  1.1835  0.5339
  777MOL0     H 7206   3.417   8.076   4.656  0.4570  2.3605 -2.8352
  777MOL0     H 7207   3.668   8.083   4.686  0.0381 -2.2340  2.0400
  777MOL0     H 7208   4.032   7.922   4.951  1.6168 -2.1564  1.4619
  777MOL0     H 7209   4.223   7.797   5.015 -1.2283  1.4335  1.0929
  777MOL0     H 7210   3.773   7.660   4.670  0.9159  0.3184 -0.4691
  777MOL0     H 7211   3.865   7.575   4.475 -2.1973  2.1129  0.8166
  777MOL0     H 7212   4.262   7.359   4.223 -2.2400  1.9376  0.8375
  777MOL0     H 7213   4.315   7.282   4.013  0.2726 -1.2011 -1.3463
  777MOL0     H 7214   4.352   7.126   3.772 -2.5547  2.0917 -3.0336
  777MOL0     H 7215   4.332   7.034   3.929  0.4976  0.2633 -1.0101
  777MOL0     H 7216   4.134   6.926   3.786  0.9479 -2.2288  2.3198
  777MOL0     H 7217   4.280   6.846   3.775 -2.8025 -1.4597  0.3041
  777MOL0     H 7218   4.212   7.096   3.603  0.6091  0.0801  0.0661
  777MOL0     H 7219   4.338   6.972   3.570  0.4068 -2.7033  0.1434
  777MOL0     H 7220   4.092   6.949   3.445 -1.7875  1.0162  0.5829
  777MOL0     H 7221   4.050   6.866   3.585  2.0814 -1.3987  1.1618
  777MOL0     H 7222   4.305   6.596   3.374 -0.5645 -1.8738  1.4543
  777MOL0     H 7223   3.927   7.147   3.938  1.7177  1.3597 -2.9275
  777MOL0     H 7224   3.778   7.162   4.195 -3.3331 -0.6867 -1.6566
  777MOL0     H 7225   3.751   7.346   4.176 -2.3706 -0.1151 -3.2243
  777MOL0     H 7226   3.756   7.232   4.043 -0.8185 -3.3289  1.5538
  778MOL0     O 7227   2.744   7.046   6.794  0.1386  0.6877 -0.9431
  778MOL0     C 7228   2.708   7.025   6.685  0.4337  0.0198  0.4071
  778MOL0     O 7229   2.787   6.975   6.586 -0.0875  0.2057 -0.1274
  778MOL0     C 7230   2.917   6.936   6.621  0.4231  0.7309  0.2849
  778MOL0     C 7231   3.014   6.992   6.545  0.2805  0.3885 -0.5998
  778MOL0     C 7232   3.152   6.966   6.579 -0.1723  0.5714  0.5953
  778MOL0     C 7233   3.187   6.865   6.677  0.3080  1.1008 -0.1913
  778MOL0     O 7234   3.322   6.833   6.691  0.0536  0.7241  0.1821
  778MOL0     C 7235   3.366   6.783   6.821 -0.4474 -0.4084 -0.1598
  778MOL0     C 7236   3.501   6.849   6.844  0.7274  0.9609 -0.1401
  778MOL0     C 7237   3.492   7.002   6.858  0.2355  0.0599  0.5909
  778MOL0     C 7238   3.591   7.044   6.958 -0.0213  0.2522 -0.6365
  778MOL0     C 7239   3.595   7.188   6.994  0.0937  0.3628 -0.4345
  778MOL0     C 7240   3.658   7.234   7.122 -0.7836  0.1937 -0.0349
  778MOL0     C 7241   3.636   7.380   7.175 -1.1313 -0.2504  1.0122
  778MOL0     C 7242   3.741   7.405   7.288  0.1008  0.8823 -0.9663
  778MOL0     N 7243   3.764   7.539   7.321 -0.2419 -0.6419  0.3274
  778MOL0     C 7244   3.881   7.579   7.377  0.9445  0.2826 -0.8366
  778MOL0     C 7245   3.834   7.695   7.427 -1.2721  0.1760 -0.0855
  778MOL0     C 7246   3.910   7.751   7.544 -0.3106 -0.3481 -0.5773
  778MOL0     C 7247   3.843   7.726   7.677 -0.8394 -0.2194 -0.2081
  778MOL0     C 7248   3.807   7.860   7.746 -0.0889 -0.6250 -0.4262
  778MOL0     C 7249   3.739   7.844   7.882  0.2861 -0.0801  0.4494
  778MOL0     O 7250   3.801   7.744   7.967  0.2473 -0.5029  0.5956
  778MOL0     C 7251   3.896   7.794   8.056 -0.7861  0.6882  0.2338
  778MOL0     C 7252   3.850   7.864   8.165  0.3042  0.5174  1.2576
  778MOL0     C 7253   3.942   7.914   8.257  0.3311 -0.0949 -0.4509
  778MOL0     C 7254   3.884   8.010   8.360  0.9320  0.0997 -0.9434
  778MOL0     C 7255   4.082   7.890   8.234 -0.0538 -0.4945  0.3496
  778MOL0     C 7256   4.179   7.939   8.328 -0.0914  0.2284 -0.2215
  778MOL0     O 7257   4.163   7.918   8.455 -1.1974  0.3712  0.5629
  778MOL0     C 7258   4.246   7.974   8.548 -0.1305  0.1427 -0.2039
  778MOL0     C 7259   4.329   7.911   8.631  0.2144 -0.7236  0.3010
  778MOL0     C 7260   4.398   7.975   8.734  0.6960  0.2091 -0.2024
  778MOL0     C 7261   4.408   8.113   8.735 -0.9179 -0.4678  0.1763
  778MOL0     O 7262   4.484   8.175   8.837  0.1548  0.5932 -0.6777
  778MOL0     C 7263   4.487   8.315   8.842  1.1421 -0.2022  0.9833
  778MOL0     C 7264   4.576   8.371   8.719 -0.2381  0.3672 -0.3451
  778MOL0     C 7265   4.571   8.524   8.710 -0.7565 -0.2377 -1.0783
  778MOL0     C 7266   4.440   8.587   8.665 -1.0420 -0.2769 -0.1007
  778MOL0     C 7267   4.447   8.744   8.651 -0.0564 -0.3851 -0.4922
  778MOL0     C 7268   4.405   8.825   8.771  0.5079  0.1604  0.5390
  778MOL0     C 7269   4.406   8.976   8.742  0.7677 -0.9072  0.2243
  778MOL0     C 7270   4.312   9.016   8.633  1.0964  0.0577 -0.2930
  778MOL0    Cl 7271   4.334   9.181   8.602 -0.2666 -0.2927  0.1135
  778MOL0     C 7272   4.321   8.177   8.646  0.6575 -0.1237  0.2128
  778MOL0     C 7273   4.245   8.110   8.551 -0.2355 -0.2102 -0.0441
  778MOL0     O 7274   4.276   7.992   8.280  0.7994 -0.8832 -1.5243
  778MOL0     C 7275   4.129   7.829   8.118  0.0651 -0.0626 -1.1286
  778MOL0     C 7276   4.032   7.770   8.026  1.1320  0.9157 -0.5361
  778MOL0     N 7277   3.715   7.734   7.380 -0.2875  0.5425 -1.0010
  778MOL0     N 7278   3.660   7.636   7.326  0.3219  1.0557  0.0935
  778MOL0     C 7279   3.080   6.808   6.746 -0.2104  1.2412  0.3983
  778MOL0     C 7280   2.950   6.850   6.731  0.5220 -1.0889  0.4620
  778MOL0     C 7281   2.566   7.073   6.653 -0.2372  0.2585 -1.8830
  778MOL0     C 7282   2.529   7.078   6.522  0.4307 -0.7451 -0.6792
  778MOL0     C 7283   2.398   7.110   6.476  0.0926 -0.4910 -0.4050
  778MOL0     C 7284   2.302   7.149   6.570  1.5127  0.7915 -0.2826
  778MOL0     O 7285   2.176   7.188   6.532 -0.3461 -0.0088  0.0771
  778MOL0     C 7286   2.068   7.181   6.622  0.4815  0.4569  0.8506
  778MOL0     C 7287   1.940   7.163   6.533 -0.6529  0.4631  0.4230
  778MOL0     C 7288   1.802   7.163   6.614 -0.5840 -1.1676 -0.1312
  778MOL0     C 7289   1.730   7.296   6.645 -0.0101 -0.5386 -0.7069
  778MOL0     C 7290   1.818   7.393   6.712  0.4135 -1.6452 -0.4409
  778MOL0     C 7291   1.900   7.464   6.771  0.3225 -0.0673  0.0864
  778MOL0     C 7292   2.338   7.145   6.706 -0.7088  0.9433 -0.0242
  778MOL0     C 7293   2.469   7.105   6.753 -0.6127  0.2755 -0.2447
  778MOL0     C 7294   2.487   7.076   6.897  0.3420 -0.5453  0.2102
  778MOL0     H 7295   2.982   7.061   6.468  0.8717  2.8485  1.2298
  778MOL0     H 7296   3.226   7.014   6.516 -0.0631 -3.2020 -2.4725
  778MOL0     H 7297   3.380   6.675   6.819 -3.1053 -0.8369 -0.1650
  778MOL0     H 7298   3.292   6.787   6.902 -1.0168 -1.1278 -0.6245
  778MOL0     H 7299   3.535   6.797   6.934 -1.6230 -2.4864 -1.0080
  778MOL0     H 7300   3.558   6.831   6.753 -1.6106  0.6453 -1.6424
  778MOL0     H 7301   3.515   7.046   6.760  1.0582  0.0309  0.7699
  778MOL0     H 7302   3.387   7.030   6.874 -0.6607 -0.9588 -2.6420
  778MOL0     H 7303   3.576   6.991   7.052  2.4892  2.2072  1.0181
  778MOL0     H 7304   3.693   7.023   6.924  0.1379  0.6629 -0.4163
  778MOL0     H 7305   3.492   7.223   7.008 -0.1290 -0.8972  1.3660
  778MOL0     H 7306   3.642   7.252   6.918 -1.0863  0.5462 -1.0473
  778MOL0     H 7307   3.625   7.161   7.198 -2.9828 -2.6198 -3.3490
  778MOL0     H 7308   3.766   7.227   7.109 -0.5978  2.2433  0.1331
  778MOL0     H 7309   3.533   7.382   7.211 -0.6628  3.4341  2.5462
  778MOL0     H 7310   3.653   7.454   7.096  0.1353 -1.3252  0.2141
  778MOL0     H 7311   3.712   7.355   7.380  0.3258 -2.2599 -2.4657
  778MOL0     H 7312   3.835   7.352   7.272 -0.5811 -0.2779 -1.2367
  778MOL0     H 7313   3.970   7.524   7.403 -0.2648 -1.0699  0.6374
  778MOL0     H 7314   3.935   7.856   7.527  0.7870 -0.2527  1.2832
  778MOL0     H 7315   4.007   7.701   7.537 -0.5259 -0.6386 -1.5482
  778MOL0     H 7316   3.750   7.672   7.656 -0.8978  0.0501 -0.6454
  778MOL0     H 7317   3.900   7.658   7.741 -0.4350 -0.3046 -0.6559
  778MOL0     H 7318   3.898   7.920   7.759  0.1838 -0.3885 -2.9365
  778MOL0     H 7319   3.735   7.916   7.685  1.2316  1.9686  0.2107
  778MOL0     H 7320   3.729   7.945   7.923 -0.8120  0.4776 -1.0637
  778MOL0     H 7321   3.634   7.818   7.869 -0.1752  0.8007  2.1529
  778MOL0     H 7322   3.744   7.881   8.178  0.4978  1.3424  1.8388
  778MOL0     H 7323   3.948   8.009   8.448 -1.8027  1.4187  1.2290
  778MOL0     H 7324   3.783   7.978   8.390  1.1716 -0.0669 -0.3071
  778MOL0     H 7325   3.865   8.106   8.311 -1.3232  0.9747  1.4005
  778MOL0     H 7326   4.337   7.804   8.615  2.9756 -0.9066  2.1826
  778MOL0     H 7327   4.456   7.928   8.813  1.5960  2.1543  0.3485
  778MOL0     H 7328   4.388   8.359   8.846  0.9217 -0.7341  1.6399
  778MOL0     H 7329   4.524   8.357   8.936 -3.3975  1.0913  2.4402
  778MOL0     H 7330   4.679   8.339   8.739 -1.2450 -1.7214  1.9024
  778MOL0     H 7331   4.551   8.327   8.622  3.0392 -1.6525 -0.4341
  778MOL0     H 7332   4.645   8.559   8.638 -1.5151  2.6058 -0.5731
  778MOL0     H 7333   4.591   8.566   8.808  0.9556  2.7200 -2.5719
  778MOL0     H 7334   4.368   8.572   8.746 -2.7033  0.4414 -1.3765
  778MOL0     H 7335   4.403   8.542   8.572 -0.3346  0.4635 -0.7617
  778MOL0     H 7336   4.546   8.775   8.618 -0.0526  3.3463  2.2799
  778MOL0     H 7337   4.389   8.773   8.563  3.2094  2.0392 -2.0482
  778MOL0     H 7338   4.469   8.806   8.858  2.3439 -2.1134 -1.1820
  778MOL0     H 7339   4.302   8.791   8.780  0.8917 -3.2921 -4.4375
  778MOL0     H 7340   4.504   9.005   8.703  0.6687  2.7597  2.3401
  778MOL0     H 7341   4.404   9.030   8.837  3.4530  0.0757 -0.1910
  778MOL0     H 7342   4.206   8.999   8.652  1.6241 -0.3037  2.7343
  778MOL0     H 7343   4.330   8.959   8.541 -2.7515 -0.0444 -1.1420
  778MOL0     H 7344   4.287   8.278   8.669 -5.9420 -1.7580 -0.2892
  778MOL0     H 7345   4.158   8.147   8.498 -2.1493 -1.6956  1.8792
  778MOL0     H 7346   4.233   7.806   8.100  1.3252  1.7900  2.7881
  778MOL0     H 7347   4.056   7.708   7.940  0.2884  0.4773 -0.4654
  778MOL0     H 7348   3.104   6.733   6.821  3.4812 -0.9549 -2.6338
  778MOL0     H 7349   2.875   6.800   6.792 -0.9734  0.1771 -0.2607
  778MOL0     H 7350   2.604   7.050   6.450 -0.7302  0.7390 -2.5391
  778MOL0     H 7351   2.363   7.109   6.373  1.1975  1.8233 -0.8587
  778MOL0     H 7352   2.086   7.091   6.683  3.4970 -3.2677 -4.6286
  778MOL0     H 7353   2.065   7.273   6.681  1.6580  0.5445  0.8123
  778MOL0     H 7354   1.958   7.067   6.484  0.3681  0.8516  0.0195
  778MOL0     H 7355   1.942   7.251   6.469  1.1652  0.2154  0.0958
  778MOL0     H 7356   1.732   7.109   6.549  0.4017 -0.6001 -1.7465
  778MOL0     H 7357   1.811   7.111   6.709 -0.4234 -0.6522  0.1367
  778MOL0     H 7358   1.657   7.273   6.724  3.0824  0.1963  2.6505
  778MOL0     H 7359   1.693   7.339   6.552  0.3970  0.6632 -0.3304
  778MOL0     H 7360   1.982   7.505   6.826  1.3918 -2.9465  0.8205
  778MOL0     H 7361   2.269   7.187   6.778 -0.2033  0.5973  0.6817
  778MOL0     H 7362   2.394   7.106   6.945 -1.0111 -1.5605 -1.6330
  778MOL0     H 7363   2.492   6.967   6.907  1.4769 -0.6127 -0.8675
  778MOL0     H 7364   2.576   7.112   6.950 -0.1062 -1.9767  2.0244
  779MOL0     O 7365   4.530   9.828   4.706  0.2531  0.0827 -0.4804
  779MOL0     C 7366   4.618   9.912   4.727 -0.2771  0.5183 -0.4866
  779MOL0     O 7367   4.657   9.946   4.850  0.5489  0.0718 -0.1805
  779MOL0     C 7368   4.607   9.873   4.954  0.4375 -0.7292 -1.0198
  779MOL0     C 7369   4.706   9.795   5.022  0.1085  0.0617 -0.2893
  779MOL0     C 7370   4.669   9.721   5.129 -0.0858  1.3895 -0.5522
  779MOL0     C 7371   4.537   9.712   5.176 -0.1079  0.6378  0.2886
  779MOL0     O 7372   4.486   9.657   5.286 -0.4823  0.2007 -0.4531
  779MOL0     C 7373   4.563   9.567   5.371  0.0145  0.3756  0.1678
  779MOL0     C 7374   4.484   9.512   5.481  0.3188 -0.6041  0.1481
  779MOL0     C 7375   4.368   9.420   5.437  0.4636  0.5414  0.0046
  779MOL0     C 7376   4.279   9.389   5.554 -0.0157  0.7493  0.4085
  779MOL0     C 7377   4.159   9.311   5.501 -0.8899 -0.2814  0.7075
  779MOL0     C 7378   4.065   9.401   5.432  0.3974  0.4513  0.1319
  779MOL0     C 7379   3.932   9.328   5.416 -0.1668 -0.8013  0.3195
  779MOL0     C 7380   3.825   9.437   5.359  0.1721 -0.3622  0.2294
  779MOL0     N 7381   3.701   9.390   5.306 -0.3410  0.4846  0.2160
  779MOL0     C 7382   3.598   9.318   5.378 -0.4953 -0.0546 -0.8827
  779MOL0     C 7383   3.511   9.272   5.288  0.4045 -0.7847  0.2577
  779MOL0     C 7384   3.382   9.189   5.306  0.2338  0.0595 -0.1214
  779MOL0     C 7385   3.374   9.073   5.201 -0.2623 -0.2319 -0.2246
  779MOL0     C 7386   3.297   9.125   5.075 -0.3064 -0.4871  0.5537
  779MOL0     C 7387   3.302   9.029   4.962 -0.7138  0.7276  0.1711
  779MOL0     O 7388   3.218   8.916   4.992  0.2785  0.6733  1.1313
  779MOL0     C 7389   3.100   8.899   4.926  0.6650  0.1951 -0.2636
  779MOL0     C 7390   3.017   9.008   4.863  0.1135  0.8800 -1.0776
  779MOL0     C 7391   2.886   8.973   4.808  0.4472  0.1055 -1.0132
  779MOL0     C 7392   2.821   9.103   4.759  0.3283  0.9655  0.1958
  779MOL0     C 7393   2.849   8.839   4.784  0.1421  0.1301  1.0432
  779MOL0     C 7394   2.728   8.807   4.707 -0.0180  1.1879  0.9575
  779MOL0     O 7395   2.696   8.681   4.710 -0.2591 -0.4493 -0.6991
  779MOL0     C 7396   2.605   8.623   4.624  0.2657  0.6018  0.1789
  779MOL0     C 7397   2.524   8.679   4.521  0.3468  0.5997  0.2324
  779MOL0     C 7398   2.442   8.598   4.444  0.5659  0.1328 -0.2809
  779MOL0     C 7399   2.443   8.454   4.447  0.5694 -0.0425  0.1043
  779MOL0     O 7400   2.363   8.385   4.357 -0.0993  0.1571  0.2238
  779MOL0     C 7401   2.314   8.253   4.394 -0.5286 -0.5540  0.0561
  779MOL0     C 7402   2.391   8.143   4.352  0.1161  0.7640  0.5199
  779MOL0     C 7403   2.321   8.013   4.402  0.2843 -0.2304 -0.5607
  779MOL0     C 7404   2.387   7.893   4.341 -0.4253  0.2723  0.2085
  779MOL0     C 7405   2.359   7.881   4.190 -0.5227  0.6762 -0.4475
  779MOL0     C 7406   2.365   7.739   4.147  0.6302 -0.0985  0.3613
  779MOL0     C 7407   2.345   7.726   3.996  0.5887  0.3308 -0.6130
  779MOL0     C 7408   2.349   7.582   3.944 -0.2304 -1.0182  0.9225
  779MOL0    Cl 7409   2.482   7.479   3.992 -0.3829  0.4203  0.2280
  779MOL0     C 7410   2.539   8.394   4.536  0.8754 -1.2028 -0.3727
  779MOL0     C 7411   2.610   8.482   4.626 -0.2992  0.0856 -0.8640
  779MOL0     O 7412   2.659   8.902   4.665 -0.0910 -0.4559 -0.4795
  779MOL0     C 7413   2.930   8.741   4.851 -0.3137  0.6354 -0.6540
  779MOL0     C 7414   3.055   8.767   4.920 -0.0332  0.2159 -0.5821
  779MOL0     N 7415   3.562   9.320   5.160  0.1014 -0.8594 -0.4806
  779MOL0     N 7416   3.680   9.376   5.169 -0.0771 -0.3422 -0.7034
  779MOL0     C 7417   4.441   9.788   5.108 -0.5261 -0.2568  0.5576
  779MOL0     C 7418   4.468   9.866   4.992  0.0376 -0.3692 -0.2716
  779MOL0     C 7419   4.665   9.989   4.603 -0.5869 -0.2001  0.0771
  779MOL0     C 7420   4.585   9.983   4.482 -1.3043  0.1268  0.5682
  779MOL0     C 7421   4.646  10.033   4.365  0.0425 -0.2636  0.2057
  779MOL0     C 7422   4.771  10.100   4.365 -0.1242  0.1510  0.0273
  779MOL0     O 7423   4.811  10.165   4.249  0.1762 -0.7535  0.2517
  779MOL0     C 7424   4.943  10.228   4.240 -0.3178 -0.0790  0.6971
  779MOL0     C 7425   5.068  10.138   4.223  0.1126  0.2940 -0.0151
  779MOL0     C 7426   5.077  10.047   4.095 -0.2359 -0.1757 -0.6106
  779MOL0     C 7427   4.994   9.916   4.113 -1.2692 -0.1370 -0.4102
  779MOL0     C 7428   5.072   9.819   4.196 -0.1010 -0.2400  0.0911
  779MOL0     C 7429   5.147   9.732   4.246  0.4195  0.4394 -0.0917
  779MOL0     C 7430   4.841  10.101   4.486 -0.2520 -0.3216  0.2808
  779MOL0     C 7431   4.795  10.048   4.607  0.7638 -0.5609 -0.3089
  779MOL0     C 7432   4.894  10.077   4.721  0.3510  0.1642  0.0893
  779MOL0     H 7433   4.811   9.800   4.994  0.3788  2.7583  0.8475
  779MOL0     H 7434   4.747   9.676   5.189  2.3478  1.7461 -3.2387
  779MOL0     H 7435   4.649   9.612   5.422 -0.6157  0.2594  1.3658
  779MOL0     H 7436   4.595   9.481   5.312  1.4708 -1.0369  2.8650
  779MOL0     H 7437   4.543   9.480   5.567 -1.6487  2.0053  2.6361
  779MOL0     H 7438   4.434   9.604   5.512 -1.0909 -0.9816 -0.8879
  779MOL0     H 7439   4.311   9.473   5.360  1.4594  0.7769 -0.5885
  779MOL0     H 7440   4.394   9.324   5.390 -2.8868  0.5890 -2.3159
  779MOL0     H 7441   4.314   9.329   5.638 -2.7857 -1.3237  0.2246
  779MOL0     H 7442   4.243   9.487   5.588 -0.4483  1.1820 -1.2086
  779MOL0     H 7443   4.109   9.269   5.589 -1.3049 -1.0653  0.1071
  779MOL0     H 7444   4.190   9.235   5.429  2.0253  0.2800  1.2289
  779MOL0     H 7445   4.055   9.485   5.502  1.9438  0.2326  0.6508
  779MOL0     H 7446   4.090   9.428   5.328 -0.8758 -2.9303 -1.1985
  779MOL0     H 7447   3.906   9.299   5.518  2.3082  0.8346  1.5328
  779MOL0     H 7448   3.946   9.246   5.346  4.9023 -0.8550  0.9897
  779MOL0     H 7449   3.793   9.514   5.430 -0.0932  0.9334 -1.2256
  779MOL0     H 7450   3.875   9.502   5.286 -3.4714  2.5244 -0.0099
  779MOL0     H 7451   3.603   9.282   5.480  0.8378  0.3560 -0.7800
  779MOL0     H 7452   3.290   9.248   5.298 -3.5328 -4.6630  2.4167
  779MOL0     H 7453   3.383   9.144   5.406 -1.2836  1.3581  0.5126
  779MOL0     H 7454   3.479   9.052   5.178  0.0218  1.3067 -0.4579
  779MOL0     H 7455   3.319   8.991   5.246 -0.3079  0.6192  1.3532
  779MOL0     H 7456   3.189   9.142   5.084 -0.2427 -0.5248  1.5887
  779MOL0     H 7457   3.348   9.216   5.042  3.7412 -2.0955  1.7776
  779MOL0     H 7458   3.264   9.078   4.873 -0.7415 -2.0895 -1.4877
  779MOL0     H 7459   3.403   8.993   4.942 -0.5815  0.5825  1.0579
  779MOL0     H 7460   3.036   9.113   4.882 -0.9862  0.9805 -0.4885
  779MOL0     H 7461   2.818   9.101   4.649 -0.5556 -4.0299  0.0562
  779MOL0     H 7462   2.869   9.188   4.808 -1.0500  1.8062  0.1396
  779MOL0     H 7463   2.719   9.095   4.798  0.5425 -1.4449  0.3978
  779MOL0     H 7464   2.535   8.787   4.518 -0.9221  0.7361 -0.9126
  779MOL0     H 7465   2.386   8.636   4.359  0.7525 -0.1658 -0.5401
  779MOL0     H 7466   2.303   8.245   4.503 -0.1776  0.6089  0.1954
  779MOL0     H 7467   2.217   8.239   4.346 -0.9698  2.1316 -0.0257
  779MOL0     H 7468   2.383   8.138   4.243 -2.1168  2.3380  0.5457
  779MOL0     H 7469   2.496   8.148   4.384  0.4964 -2.5847  0.1335
  779MOL0     H 7470   2.212   8.017   4.391  0.0401 -2.3268  0.4474
  779MOL0     H 7471   2.332   8.003   4.510 -4.0529  0.9750  0.1967
  779MOL0     H 7472   2.355   7.801   4.390 -1.4668  0.0738 -0.7992
  779MOL0     H 7473   2.496   7.897   4.357 -0.5245  0.4060  0.8861
  779MOL0     H 7474   2.263   7.928   4.167  0.3837  3.4134  0.9407
  779MOL0     H 7475   2.440   7.921   4.128 -1.6985  0.6999 -2.0356
  779MOL0     H 7476   2.279   7.689   4.194 -1.5443  3.9023  1.0678
  779MOL0     H 7477   2.464   7.698   4.171  1.0510  1.1802  0.8949
  779MOL0     H 7478   2.424   7.779   3.942  1.4782  0.2335  0.5423
  779MOL0     H 7479   2.245   7.763   3.973 -0.7691 -1.9259  1.2131
  779MOL0     H 7480   2.341   7.576   3.836 -1.7759  3.0793  0.6499
  779MOL0     H 7481   2.261   7.524   3.972 -0.4765 -1.3234 -0.4548
  779MOL0     H 7482   2.561   8.290   4.562 -1.2437 -0.9451  3.0710
  779MOL0     H 7483   2.686   8.436   4.688  0.5669  0.0059 -1.9504
  779MOL0     H 7484   2.892   8.640   4.852 -3.0762  1.4341  3.7856
  779MOL0     H 7485   3.119   8.690   4.960  0.2992  1.2695  1.0103
  779MOL0     H 7486   4.345   9.801   5.158  0.3483  2.7334  1.6906
  779MOL0     H 7487   4.391   9.923   4.940  0.2625 -0.1493 -0.3618
  779MOL0     H 7488   4.494   9.925   4.472 -0.0007 -1.6332 -3.2623
  779MOL0     H 7489   4.599  10.039   4.267  1.6971  1.6160 -0.5285
  779MOL0     H 7490   4.923  10.299   4.159 -2.0989  0.8570  1.9001
  779MOL0     H 7491   4.977  10.289   4.325 -1.0242  3.1485 -1.1787
  779MOL0     H 7492   5.068  10.089   4.320 -0.3711 -2.0198 -1.1166
  779MOL0     H 7493   5.150  10.210   4.211  1.2268 -0.9356 -0.0685
  779MOL0     H 7494   5.037  10.095   4.005 -0.5795  2.3706  0.8332
  779MOL0     H 7495   5.183  10.023   4.078 -0.2612 -1.1525  0.4928
  779MOL0     H 7496   4.973   9.875   4.014 -3.7226  1.4234 -0.6177
  779MOL0     H 7497   4.903   9.936   4.169 -0.6275  0.0893  0.5802
  779MOL0     H 7498   5.220   9.659   4.273 -0.3469 -1.2404 -2.2697
  779MOL0     H 7499   4.929  10.164   4.485 -0.6740  0.3584 -2.4617
  779MOL0     H 7500   4.890   9.994   4.791 -0.9921  0.1347  0.0042
  779MOL0     H 7501   4.994  10.102   4.686  1.4750 -4.6938 -0.8180
  779MOL0     H 7502   4.858  10.166   4.775  0.2003  0.6767 -0.8323
  780MOL0     O 7503   7.858   2.238   6.762  0.5181 -0.4480  0.0594
  780MOL0     C 7504   7.794   2.134   6.756  0.7064 -0.1545 -0.3809
  780MOL0     O 7505   7.847   2.014   6.758  0.4730  0.5685 -0.5301
  780MOL0     C 7506   7.978   1.997   6.795  0.2455 -0.1714  0.1799
  780MOL0     C 7507   8.012   1.965   6.924  0.2540 -0.5093 -0.0406
  780MOL0     C 7508   8.141   1.956   6.964  0.5734  0.3788  0.2306
  780MOL0     C 7509   8.245   1.959   6.873  0.0900  0.0663  0.4651
  780MOL0     O 7510   8.381   1.967   6.909  0.4316  0.2604 -0.4131
  780MOL0     C 7511   8.426   1.873   7.008 -0.1576 -0.4384 -0.7389
  780MOL0     C 7512   8.579   1.893   7.036 -0.2557  0.1715 -0.2950
  780MOL0     C 7513   8.664   1.847   6.910  0.9354  0.2408 -0.9141
  780MOL0     C 7514   8.810   1.818   6.944 -0.1594  0.2112  0.2069
  780MOL0     C 7515   8.878   1.729   6.838  0.7306  0.0755 -0.6609
  780MOL0     C 7516   9.025   1.715   6.868 -0.0238  0.0744  0.2419
  780MOL0     C 7517   9.059   1.592   6.975  0.1778  0.4573  0.1127
  780MOL0     C 7518   9.201   1.554   6.996 -0.6853  0.8173 -0.3422
  780MOL0     N 7519   9.236   1.471   6.882  0.0047 -0.1015  0.7636
  780MOL0     C 7520   9.279   1.513   6.754 -0.2404 -0.4059 -0.0669
  780MOL0     C 7521   9.361   1.408   6.713  0.7694 -0.1371 -0.0455
  780MOL0     C 7522   9.472   1.434   6.613  0.0384  0.3471  0.1137
  780MOL0     C 7523   9.475   1.328   6.494  1.1994 -0.4885  0.3530
  780MOL0     C 7524   9.357   1.361   6.409 -0.2106 -0.5612  0.2387
  780MOL0     C 7525   9.252   1.256   6.414  0.3321 -0.7347  0.1618
  780MOL0     O 7526   9.153   1.290   6.315  0.2099 -0.1420  0.5202
  780MOL0     C 7527   9.041   1.365   6.355  0.0691  0.0994 -0.4363
  780MOL0     C 7528   8.943   1.394   6.259 -0.0479  0.3559 -0.2920
  780MOL0     C 7529   8.825   1.463   6.283 -0.2123  0.0783  0.5493
  780MOL0     C 7530   8.735   1.467   6.153  0.2909 -0.5202 -0.7105
  780MOL0     C 7531   8.791   1.519   6.410 -0.2647  1.5171  1.4715
  780MOL0     C 7532   8.651   1.558   6.457  0.1207 -0.2663  0.3302
  780MOL0     O 7533   8.533   1.521   6.403  0.8576 -0.0377 -0.4714
  780MOL0     C 7534   8.409   1.535   6.454 -0.3454 -0.0689  0.2773
  780MOL0     C 7535   8.299   1.490   6.372 -0.8464  0.2597 -0.5610
  780MOL0     C 7536   8.169   1.490   6.421 -0.1911  0.5206  0.1557
  780MOL0     C 7537   8.143   1.556   6.542  0.5485 -0.8372  0.3661
  780MOL0     O 7538   8.008   1.568   6.554 -0.2445 -0.1154 -0.2782
  780MOL0     C 7539   7.949   1.585   6.690 -0.4453 -0.2778  0.2669
  780MOL0     C 7540   7.807   1.555   6.709  0.4081  0.6549 -0.4200
  780MOL0     C 7541   7.714   1.659   6.648  0.2443  0.8337 -0.2962
  780MOL0     C 7542   7.570   1.606   6.633 -0.7261  0.3616  0.6429
  780MOL0     C 7543   7.532   1.642   6.488 -0.4894  0.0606  0.6570
  780MOL0     C 7544   7.405   1.571   6.458 -0.7232  1.4358  0.1504
  780MOL0     C 7545   7.366   1.582   6.304 -0.9095 -0.4398 -0.8993
  780MOL0     C 7546   7.211   1.577   6.294 -0.5116  0.6310  0.6842
  780MOL0    Cl 7547   7.157   1.616   6.134 -0.1123  0.1494  0.0194
  780MOL0     C 7548   8.241   1.614   6.624 -0.8455  0.0038  0.0610
  780MOL0     C 7549   8.366   1.589   6.577 -0.5365 -0.7273 -0.3542
  780MOL0     O 7550   8.662   1.617   6.567  0.5043  0.7589 -0.7095
  780MOL0     C 7551   8.895   1.518   6.497 -0.2843  0.7684 -0.2532
  780MOL0     C 7552   9.019   1.444   6.471  0.1320 -0.7905  0.4145
  780MOL0     N 7553   9.340   1.307   6.801  0.1700  0.3944  0.3472
  780MOL0     N 7554   9.265   1.338   6.901 -0.3060 -0.5857  1.0001
  780MOL0     C 7555   8.209   1.973   6.737 -1.0075  0.2218 -1.3649
  780MOL0     C 7556   8.078   1.975   6.699 -0.0559 -0.1071  0.7798
  780MOL0     C 7557   7.656   2.139   6.715  1.2061  0.0666 -0.9124
  780MOL0     C 7558   7.606   2.040   6.634  0.0164 -0.4216  0.8524
  780MOL0     C 7559   7.471   2.035   6.602 -0.8270 -0.3233 -0.8157
  780MOL0     C 7560   7.381   2.124   6.656  0.3174 -0.9880 -0.8404
  780MOL0     O 7561   7.252   2.099   6.612  0.0846 -0.2304 -0.0766
  780MOL0     C 7562   7.150   2.182   6.653  0.4431 -0.4023  0.5465
  780MOL0     C 7563   7.078   2.131   6.781 -0.5296  0.5340  0.3663
  780MOL0     C 7564   7.015   1.987   6.771  0.3722 -0.4274  0.1220
  780MOL0     C 7565   7.107   1.864   6.773 -0.0736  1.6252  0.4005
  780MOL0     C 7566   7.028   1.743   6.779  0.7968  0.5548  0.1013
  780MOL0     C 7567   6.944   1.654   6.769 -0.1657 -0.6744  0.0562
  780MOL0     C 7568   7.426   2.219   6.752 -0.3948 -1.4567 -0.3524
  780MOL0     C 7569   7.565   2.222   6.790  0.1890 -1.6335  0.3012
  780MOL0     C 7570   7.601   2.301   6.905 -0.1702 -0.1336 -0.3209
  780MOL0     H 7571   7.925   1.958   6.988 -0.7652  2.1342 -1.0188
  780MOL0     H 7572   8.159   1.951   7.071  0.0941  2.6813  0.4690
  780MOL0     H 7573   8.412   1.767   6.985  2.0690 -0.5110 -2.0163
  780MOL0     H 7574   8.386   1.901   7.106 -1.1128  0.7997 -1.4630
  780MOL0     H 7575   8.607   1.995   7.062 -0.3988  0.8263 -2.4905
  780MOL0     H 7576   8.595   1.826   7.121 -1.6104 -1.7185 -1.4414
  780MOL0     H 7577   8.616   1.757   6.870  0.4328  0.2580 -0.3645
  780MOL0     H 7578   8.653   1.922   6.831 -2.6159  0.6886 -0.1659
  780MOL0     H 7579   8.859   1.916   6.948 -0.9321  0.5581  2.0400
  780MOL0     H 7580   8.822   1.759   7.035  1.9787 -3.0900 -1.9778
  780MOL0     H 7581   8.865   1.766   6.736  2.8078  1.0237 -0.6376
  780MOL0     H 7582   8.822   1.635   6.835  0.5455  0.1202  0.7734
  780MOL0     H 7583   9.075   1.693   6.773  2.6916  1.6094  1.2059
  780MOL0     H 7584   9.068   1.809   6.903  3.2424 -0.2127 -2.4507
  780MOL0     H 7585   9.000   1.509   6.934 -0.0320  2.1393 -3.3145
  780MOL0     H 7586   9.015   1.626   7.069 -0.6227  0.3099 -0.2023
  780MOL0     H 7587   9.263   1.642   7.017 -2.0587  1.5811  0.7444
  780MOL0     H 7588   9.207   1.488   7.083 -1.4567 -0.6414 -1.3715
  780MOL0     H 7589   9.279   1.615   6.716  1.6338 -0.7262 -1.0321
  780MOL0     H 7590   9.562   1.420   6.673 -0.5135 -0.3431  0.8007
  780MOL0     H 7591   9.469   1.536   6.574  0.4746 -0.0562 -1.0534
  780MOL0     H 7592   9.570   1.342   6.442 -0.0000  1.7264 -1.4163
  780MOL0     H 7593   9.474   1.225   6.529 -0.3293 -1.1784 -1.5721
  780MOL0     H 7594   9.319   1.461   6.427 -0.6793 -0.9536  1.5435
  780MOL0     H 7595   9.387   1.351   6.304 -1.5833 -2.2305 -0.0363
  780MOL0     H 7596   9.300   1.169   6.369  5.3504  2.9002 -2.6083
  780MOL0     H 7597   9.226   1.252   6.520  2.4515  0.3992  0.7812
  780MOL0     H 7598   8.966   1.348   6.164  1.6238 -0.6465  0.5449
  780MOL0     H 7599   8.792   1.482   6.061 -3.0685 -0.5057 -2.9460
  780MOL0     H 7600   8.663   1.548   6.150  2.9647  2.0584 -0.0708
  780MOL0     H 7601   8.681   1.372   6.147 -2.1957  0.4728  2.8349
  780MOL0     H 7602   8.333   1.451   6.276  0.6799 -1.1776  0.5123
  780MOL0     H 7603   8.090   1.445   6.361 -1.2851  3.8327 -1.1453
  780MOL0     H 7604   8.000   1.512   6.754  0.2193 -2.2449 -2.3651
  780MOL0     H 7605   7.972   1.691   6.705 -0.9233  0.4018 -3.0798
  780MOL0     H 7606   7.794   1.459   6.658 -0.1993 -0.1211  1.1242
  780MOL0     H 7607   7.783   1.539   6.814 -0.5350 -1.0912 -0.8474
  780MOL0     H 7608   7.759   1.681   6.551 -1.1585  0.8745 -0.9668
  780MOL0     H 7609   7.714   1.749   6.710  1.5220  0.3541  0.4458
  780MOL0     H 7610   7.502   1.656   6.703 -0.8817  1.3963 -0.2297
  780MOL0     H 7611   7.569   1.497   6.640  2.3457  0.1746 -0.3225
  780MOL0     H 7612   7.519   1.751   6.480 -0.1269 -0.0374 -2.1259
  780MOL0     H 7613   7.605   1.613   6.412 -0.0768  2.7998 -0.1074
  780MOL0     H 7614   7.325   1.610   6.521  1.5672  1.6659  3.1024
  780MOL0     H 7615   7.407   1.464   6.479  0.4880  1.3596 -0.3003
  780MOL0     H 7616   7.405   1.493   6.254  1.8968 -2.2500  3.8433
  780MOL0     H 7617   7.402   1.677   6.262 -1.2830  0.6323  1.1111
  780MOL0     H 7618   7.153   1.640   6.362 -0.3541  1.7019 -0.1548
  780MOL0     H 7619   7.184   1.474   6.322  3.7761 -0.9627 -0.3417
  780MOL0     H 7620   8.218   1.672   6.712 -0.9219  0.1656 -0.0669
  780MOL0     H 7621   8.446   1.624   6.641  0.9105 -2.4488 -1.1197
  780MOL0     H 7622   8.904   1.560   6.597 -0.9126 -2.9167  1.5092
  780MOL0     H 7623   9.102   1.444   6.542 -0.9480  0.6977  1.7539
  780MOL0     H 7624   8.283   1.988   6.658 -0.9249 -1.4181 -1.6278
  780MOL0     H 7625   8.055   1.978   6.593 -3.0992 -3.1689  1.1723
  780MOL0     H 7626   7.685   1.973   6.602  0.3589 -0.6634  2.1580
  780MOL0     H 7627   7.426   1.954   6.547 -3.7429  0.8714 -0.3809
  780MOL0     H 7628   7.193   2.283   6.654 -0.5691  0.0814 -1.1827
  780MOL0     H 7629   7.080   2.160   6.572  2.6533 -4.4210 -0.5255
  780MOL0     H 7630   6.995   2.201   6.796 -2.3660 -1.5334  0.3932
  780MOL0     H 7631   7.144   2.130   6.868  0.0238  0.5395 -0.0497
  780MOL0     H 7632   6.939   1.969   6.848  1.2094 -0.8602  0.8538
  780MOL0     H 7633   6.953   1.979   6.681 -0.3927  1.6735  0.4123
  780MOL0     H 7634   7.168   1.868   6.865 -2.9388 -0.4588  2.5692
  780MOL0     H 7635   7.162   1.856   6.679  2.8185 -1.3063  2.1209
  780MOL0     H 7636   6.872   1.574   6.770 -1.1476  0.1559 -0.7822
  780MOL0     H 7637   7.366   2.287   6.811 -1.0624 -1.0276 -1.4992
  780MOL0     H 7638   7.669   2.380   6.871 -0.7668  1.1515  1.2998
  780MOL0     H 7639   7.521   2.357   6.955 -0.1720 -1.0582  0.7293
  780MOL0     H 7640   7.644   2.237   6.982 -1.7946 -2.5026 -1.2661
  781MOL0     O 7641  10.662   2.435   3.664  0.7989  0.0058 -1.3401
  781MOL0     C 7642  10.560   2.499   3.642  0.0009  0.4547 -0.5710
  781MOL0     O 7643  10.454   2.448   3.570 -0.3465  0.4847  0.0575
  781MOL0     C 7644  10.478   2.340   3.488  0.1296 -0.0586  1.1032
  781MOL0     C 7645  10.512   2.219   3.546  0.2227  0.0013  0.3983
  781MOL0     C 7646  10.543   2.111   3.469  0.2708  0.6744 -0.5337
  781MOL0     C 7647  10.532   2.124   3.328  0.9681 -0.3762 -0.0272
  781MOL0     O 7648  10.560   2.027   3.245 -0.4199  0.5997  0.5536
  781MOL0     C 7649  10.623   1.907   3.289  0.1162 -0.3036 -0.3928
  781MOL0     C 7650  10.714   1.843   3.184 -1.0237 -0.3076 -0.5205
  781MOL0     C 7651  10.762   1.696   3.223 -0.1557 -0.5973  0.1091
  781MOL0     C 7652  10.825   1.618   3.108  0.0724  0.1901 -0.7215
  781MOL0     C 7653  10.881   1.483   3.160  0.3466 -0.4310 -0.3099
  781MOL0     C 7654  10.790   1.366   3.195 -0.1926  0.4333 -0.4508
  781MOL0     C 7655  10.874   1.275   3.282  0.7300 -0.8302  0.7680
  781MOL0     C 7656  10.785   1.168   3.355  0.0728  0.3148 -0.8095
  781MOL0     N 7657  10.739   1.069   3.258 -0.1549  0.4451 -0.4541
  781MOL0     C 7658  10.776   0.933   3.263 -0.3292 -0.0978 -0.7092
  781MOL0     C 7659  10.689   0.869   3.178  0.0311 -0.7754  0.0113
  781MOL0     C 7660  10.670   0.724   3.157 -0.4050 -0.1447  0.1662
  781MOL0     C 7661  10.661   0.689   3.006 -0.5524 -0.5656 -0.5331
  781MOL0     C 7662  10.790   0.646   2.945  0.0696 -0.0604 -0.1372
  781MOL0     C 7663  10.781   0.610   2.798  0.8279  0.2476 -0.2049
  781MOL0     O 7664  10.764   0.744   2.734  0.3211 -0.1909  0.1629
  781MOL0     C 7665  10.717   0.746   2.607 -0.0127  0.2157  0.3927
  781MOL0     C 7666  10.772   0.665   2.502  0.2089 -0.5306  0.4369
  781MOL0     C 7667  10.712   0.647   2.375  1.1586 -0.8711  0.3568
  781MOL0     C 7668  10.773   0.546   2.274 -0.8861  0.3501 -0.2432
  781MOL0     C 7669  10.585   0.723   2.350 -0.1151  0.5872  0.8703
  781MOL0     C 7670  10.500   0.710   2.234 -0.5875  0.2366 -0.2996
  781MOL0     O 7671  10.518   0.589   2.158  0.8774  0.1278  0.7820
  781MOL0     C 7672  10.418   0.567   2.061 -0.5761 -0.2480  0.0647
  781MOL0     C 7673  10.437   0.628   1.930 -0.2134 -0.4828 -0.0031
  781MOL0     C 7674  10.348   0.617   1.826 -0.0356 -1.0961 -0.5423
  781MOL0     C 7675  10.221   0.554   1.850  0.7699 -0.6362 -0.0365
  781MOL0     O 7676  10.127   0.532   1.752  0.3185  0.3613 -0.9053
  781MOL0     C 7677  10.127   0.608   1.635 -0.6640 -0.0873 -0.8541
  781MOL0     C 7678   9.997   0.620   1.559  0.3966  0.0358 -0.1273
  781MOL0     C 7679   9.955   0.482   1.497  0.2867 -0.1022 -0.3154
  781MOL0     C 7680   9.854   0.416   1.590  0.6021  0.1801  0.6360
  781MOL0     C 7681   9.809   0.277   1.553  0.0663  0.7594  0.1710
  781MOL0     C 7682   9.712   0.272   1.435  0.4942 -0.8200  0.7322
  781MOL0     C 7683   9.683   0.130   1.383 -1.1467  0.3322 -0.8009
  781MOL0     C 7684   9.667   0.009   1.475  0.0118  0.1546 -0.7448
  781MOL0    Cl 7685   9.810  -0.089   1.520  0.1387 -0.0198 -0.5387
  781MOL0     C 7686  10.189   0.513   1.978 -1.4532  0.3995 -0.9933
  781MOL0     C 7687  10.287   0.511   2.075 -1.0589 -0.2734 -0.1625
  781MOL0     O 7688  10.426   0.803   2.206  0.7929  0.4835 -0.3263
  781MOL0     C 7689  10.535   0.804   2.456 -0.0403 -0.0363 -1.4479
  781MOL0     C 7690  10.602   0.824   2.578  0.1702 -0.0762 -0.3569
  781MOL0     N 7691  10.602   0.959   3.129  0.2535 -0.1820  0.2902
  781MOL0     N 7692  10.629   1.079   3.176  0.2209  0.4488  0.9174
  781MOL0     C 7693  10.485   2.245   3.271 -0.0448  0.1379 -0.5642
  781MOL0     C 7694  10.459   2.350   3.353 -0.9314  0.3655  0.4270
  781MOL0     C 7695  10.537   2.633   3.711 -0.2476  0.0024 -0.4480
  781MOL0     C 7696  10.410   2.678   3.720  0.4320 -0.1932  0.5845
  781MOL0     C 7697  10.376   2.799   3.772 -0.0566 -0.2511  1.3298
  781MOL0     C 7698  10.469   2.885   3.826 -0.2177 -1.0373  0.0492
  781MOL0     O 7699  10.423   3.008   3.870 -0.2978  0.0408 -1.3573
  781MOL0     C 7700  10.510   3.121   3.853 -0.4147 -0.6560 -1.1992
  781MOL0     C 7701  10.448   3.254   3.900  0.3559  1.1072  0.5215
  781MOL0     C 7702  10.495   3.382   3.832  0.1581  0.0060  0.1028
  781MOL0     C 7703  10.409   3.508   3.864 -0.8703 -1.6778 -0.5075
  781MOL0     C 7704  10.435   3.555   4.002  0.0902  0.1035  0.8048
  781MOL0     C 7705  10.449   3.579   4.117  0.0334 -0.0219 -0.5803
  781MOL0     C 7706  10.607   2.845   3.815 -0.1357 -0.2237  0.4190
  781MOL0     C 7707  10.643   2.718   3.770  0.2942 -0.3644 -0.3002
  781MOL0     C 7708  10.787   2.679   3.762  0.9247  0.1831 -1.0099
  781MOL0     H 7709  10.515   2.220   3.654  3.3819  0.5419  0.3911
  781MOL0     H 7710  10.567   2.017   3.518  0.2438 -0.2339 -2.1960
  781MOL0     H 7711  10.549   1.832   3.318  1.1101 -0.9456  0.5839
  781MOL0     H 7712  10.681   1.926   3.380  1.2147 -0.3752 -1.0637
  781MOL0     H 7713  10.671   1.851   3.083  0.5816 -1.3867 -1.3426
  781MOL0     H 7714  10.808   1.896   3.198 -0.6483 -1.1405  0.1674
  781MOL0     H 7715  10.839   1.697   3.301  2.6576 -2.6528 -2.4179
  781MOL0     H 7716  10.678   1.637   3.259 -0.8348  1.3246  1.8734
  781MOL0     H 7717  10.746   1.581   3.043  0.2226 -1.6263  0.0745
  781MOL0     H 7718  10.899   1.675   3.049  1.4399 -2.2816 -1.5288
  781MOL0     H 7719  10.952   1.514   3.236  3.1746 -0.3613 -2.7866
  781MOL0     H 7720  10.931   1.446   3.070  2.3434  0.2921  0.4552
  781MOL0     H 7721  10.698   1.406   3.238 -1.2161 -0.8649 -1.3918
  781MOL0     H 7722  10.763   1.302   3.110  2.1702  1.6476 -2.2452
  781MOL0     H 7723  10.924   1.333   3.360 -1.8301  1.0842  1.1004
  781MOL0     H 7724  10.938   1.217   3.214 -0.5465 -0.0966 -1.1618
  781MOL0     H 7725  10.849   1.107   3.419  1.4990  0.1804 -2.2698
  781MOL0     H 7726  10.702   1.210   3.412 -0.1948 -0.6672 -0.4545
  781MOL0     H 7727  10.833   0.887   3.343 -3.2034 -1.1018  0.9472
  781MOL0     H 7728  10.570   0.716   3.201  0.2492  0.4040  1.8009
  781MOL0     H 7729  10.749   0.669   3.209 -2.6134 -1.9523  1.8129
  781MOL0     H 7730  10.604   0.596   3.006  0.0073 -0.9141  0.3950
  781MOL0     H 7731  10.612   0.766   2.944 -0.7955  0.1788  0.5622
  781MOL0     H 7732  10.864   0.726   2.959 -1.9294  1.8074  0.5015
  781MOL0     H 7733  10.806   0.554   3.002 -1.6391 -0.5716 -0.4196
  781MOL0     H 7734  10.871   0.560   2.759  0.7422  1.9388 -2.8166
  781MOL0     H 7735  10.703   0.536   2.781  2.0502 -0.4302 -3.9927
  781MOL0     H 7736  10.861   0.614   2.537  0.6413  1.2508  2.1039
  781MOL0     H 7737  10.720   0.453   2.254  1.9632 -1.6182  0.7030
  781MOL0     H 7738  10.869   0.512   2.314 -1.8016 -1.1585  0.7559
  781MOL0     H 7739  10.785   0.595   2.177  1.6978 -2.2360 -1.3847
  781MOL0     H 7740  10.524   0.691   1.916 -0.0313 -0.6512  0.3504
  781MOL0     H 7741  10.372   0.666   1.732 -2.0431  1.5253  0.1834
  781MOL0     H 7742  10.151   0.713   1.651 -0.2956 -0.1512 -0.9894
  781MOL0     H 7743  10.205   0.573   1.567 -0.6405  1.3893 -1.6251
  781MOL0     H 7744   9.918   0.664   1.620  1.7877  3.2819 -0.4955
  781MOL0     H 7745  10.024   0.686   1.476  1.9755  0.0559  0.3561
  781MOL0     H 7746  10.036   0.409   1.484 -0.9880 -1.3394 -1.6785
  781MOL0     H 7747   9.913   0.524   1.405 -2.9792  0.8138  1.4598
  781MOL0     H 7748   9.766   0.480   1.596  0.7668  1.0766 -3.6739
  781MOL0     H 7749   9.906   0.415   1.687  0.1910  2.7834  0.9802
  781MOL0     H 7750   9.891   0.215   1.517 -1.3641  0.0244 -2.0722
  781MOL0     H 7751   9.761   0.246   1.646 -1.4288 -0.3570 -0.9337
  781MOL0     H 7752   9.741   0.341   1.356 -1.3350 -0.6897  0.1343
  781MOL0     H 7753   9.614   0.304   1.471 -0.7739 -3.4486 -0.1394
  781MOL0     H 7754   9.758   0.095   1.312  0.0556 -0.2767  0.7085
  781MOL0     H 7755   9.589   0.134   1.326 -1.1831 -1.2562 -0.8798
  781MOL0     H 7756   9.602  -0.071   1.438 -1.8024  0.9901  0.4713
  781MOL0     H 7757   9.623   0.044   1.569 -1.0688 -0.6423 -0.9305
  781MOL0     H 7758  10.097   0.461   2.005 -2.5233  1.4038 -2.5031
  781MOL0     H 7759  10.285   0.441   2.158  1.0006 -0.1430  0.0327
  781MOL0     H 7760  10.441   0.857   2.441 -1.2485 -1.5225  0.3376
  781MOL0     H 7761  10.566   0.883   2.662 -0.8989  0.0759 -0.9084
  781MOL0     H 7762  10.494   2.245   3.163  3.2121  0.8445 -0.3946
  781MOL0     H 7763  10.441   2.448   3.310 -2.5326 -1.1494 -2.7048
  781MOL0     H 7764  10.339   2.616   3.665  1.6343 -1.0879  0.0098
  781MOL0     H 7765  10.274   2.831   3.752  0.4337 -0.6513 -2.6368
  781MOL0     H 7766  10.610   3.099   3.892 -0.6665  0.6361  0.2314
  781MOL0     H 7767  10.502   3.130   3.744 -3.0493 -3.7743 -1.4240
  781MOL0     H 7768  10.468   3.263   4.007 -0.5580  0.1923  0.7911
  781MOL0     H 7769  10.344   3.256   3.864  0.7433  0.4795 -0.6815
  781MOL0     H 7770  10.601   3.405   3.847  0.8508 -1.1337 -2.5207
  781MOL0     H 7771  10.475   3.375   3.725 -2.0980  0.2146  0.4614
  781MOL0     H 7772  10.304   3.498   3.836 -0.8101 -0.8211 -1.0693
  781MOL0     H 7773  10.434   3.587   3.792 -3.2533 -0.0762  0.2915
  781MOL0     H 7774  10.443   3.612   4.219 -0.4618 -3.6618  0.7386
  781MOL0     H 7775  10.681   2.919   3.844  2.1469 -1.0540 -2.7737
  781MOL0     H 7776  10.817   2.656   3.660 -0.7733 -0.7480 -1.3462
  781MOL0     H 7777  10.847   2.754   3.814 -2.5979  2.0763  0.6433
  781MOL0     H 7778  10.800   2.586   3.819 -3.7856  0.8048  1.5802
  782MOL0     O 7779   8.437   3.092   3.283 -0.4723  0.3044  0.0854
  782MOL0     C 7780   8.430   2.968   3.290  0.8395  0.0107  0.0470
  782MOL0     O 7781   8.354   2.891   3.202 -0.1132 -0.0252  0.1907
  782MOL0     C 7782   8.310   2.959   3.091 -0.5757 -0.2648 -0.2532
  782MOL0     C 7783   8.383   2.992   2.976 -1.0411  0.1216 -0.1352
  782MOL0     C 7784   8.322   3.055   2.867  0.0996  0.0470 -0.1943
  782MOL0     C 7785   8.187   3.083   2.868  0.1506  0.0595  0.8744
  782MOL0     O 7786   8.106   3.134   2.768 -0.3481 -0.4717 -0.6123
  782MOL0     C 7787   8.121   3.268   2.713  0.4507  0.2896  0.0109
  782MOL0     C 7788   8.000   3.311   2.619 -0.0301  0.0003 -0.2049
  782MOL0     C 7789   7.854   3.339   2.668  0.8751  0.7142 -0.2338
  782MOL0     C 7790   7.774   3.404   2.545 -0.7976  0.1802 -0.1601
  782MOL0     C 7791   7.635   3.455   2.594 -0.1074 -0.1590  0.3991
  782MOL0     C 7792   7.547   3.513   2.472 -0.9925 -0.0748  0.1250
  782MOL0     C 7793   7.499   3.398   2.377 -0.4409 -0.0526 -0.1649
  782MOL0     C 7794   7.425   3.287   2.447  0.3700 -0.6885  0.0448
  782MOL0     N 7795   7.306   3.328   2.520  0.0430  0.5172 -0.2084
  782MOL0     C 7796   7.191   3.356   2.464 -0.1005 -0.6379 -0.2111
  782MOL0     C 7797   7.108   3.369   2.570 -0.2141 -0.2248  0.6659
  782MOL0     C 7798   6.974   3.427   2.565  0.1352  0.4990 -0.9672
  782MOL0     C 7799   6.857   3.327   2.582  0.4779  0.3349 -0.6342
  782MOL0     C 7800   6.769   3.366   2.704  0.3840  0.9545 -0.5701
  782MOL0     C 7801   6.656   3.270   2.709 -0.2733  0.1003  0.1177
  782MOL0     O 7802   6.567   3.317   2.807 -0.3568 -0.5290 -0.2001
  782MOL0     C 7803   6.458   3.248   2.836  0.0283  1.3522  0.2611
  782MOL0     C 7804   6.408   3.255   2.967 -0.7480  0.1379  0.0346
  782MOL0     C 7805   6.291   3.183   2.999 -0.2183 -0.2724 -0.6921
  782MOL0     C 7806   6.244   3.214   3.145 -0.5256  0.5286  0.4490
  782MOL0     C 7807   6.227   3.096   2.906  1.0858  0.0180 -0.3992
  782MOL0     C 7808   6.101   3.011   2.927  0.9633  0.2223 -1.0023
  782MOL0     O 7809   6.064   2.932   2.816 -0.3313  0.0183 -0.4400
  782MOL0     C 7810   5.982   2.822   2.828 -1.2664 -0.0251 -0.2615
  782MOL0     C 7811   5.937   2.765   2.708 -0.5054 -0.6952  0.5474
  782MOL0     C 7812   5.844   2.663   2.704 -0.1412 -0.3942 -0.5820
  782MOL0     C 7813   5.802   2.603   2.827  0.0520  0.1955  0.4441
  782MOL0     O 7814   5.725   2.489   2.831 -0.3640  0.1513 -0.2180
  782MOL0     C 7815   5.792   2.378   2.776 -0.2046 -0.1014 -0.1772
  782MOL0     C 7816   5.694   2.297   2.700  0.7766  0.5787 -0.8617
  782MOL0     C 7817   5.648   2.167   2.775 -0.0831 -0.1397  0.7522
  782MOL0     C 7818   5.508   2.109   2.740  0.8059  0.1168 -0.7370
  782MOL0     C 7819   5.399   2.192   2.803 -0.5927  0.4584  0.4803
  782MOL0     C 7820   5.263   2.168   2.755 -0.7642  0.7094  0.1556
  782MOL0     C 7821   5.152   2.228   2.836  0.3323  0.2683  0.0730
  782MOL0     C 7822   5.017   2.185   2.781  0.3841 -0.3134  0.6355
  782MOL0    Cl 7823   4.881   2.223   2.890 -0.5084 -0.3893  0.4261
  782MOL0     C 7824   5.857   2.651   2.945  0.5186  0.1686 -0.4180
  782MOL0     C 7825   5.936   2.764   2.945 -1.0358 -0.9715 -0.8000
  782MOL0     O 7826   6.027   3.032   3.026 -0.6796  0.2540 -0.8493
  782MOL0     C 7827   6.277   3.091   2.773 -0.0200 -0.3607  1.0407
  782MOL0     C 7828   6.392   3.167   2.740 -0.4016 -0.3012  0.6351
  782MOL0     N 7829   7.179   3.350   2.685 -0.3283  0.2373 -0.0471
  782MOL0     N 7830   7.310   3.331   2.658  0.6816 -0.8404  0.1685
  782MOL0     C 7831   8.119   3.056   2.981 -0.1116  0.5029 -0.5500
  782MOL0     C 7832   8.178   3.000   3.097 -0.4664 -0.3755 -0.5546
  782MOL0     C 7833   8.520   2.899   3.388  0.3023  0.3384 -0.3362
  782MOL0     C 7834   8.509   2.758   3.416 -0.0614  0.2631 -0.8934
  782MOL0     C 7835   8.594   2.689   3.515  0.9833 -0.0923  0.1855
  782MOL0     C 7836   8.661   2.767   3.603 -0.4448  0.1310  0.5587
  782MOL0     O 7837   8.715   2.705   3.713 -0.4439  0.9875 -0.0016
  782MOL0     C 7838   8.777   2.766   3.821  0.2374 -0.0405  0.2196
  782MOL0     C 7839   8.930   2.800   3.814 -0.2373  0.2722  1.0523
  782MOL0     C 7840   8.978   2.915   3.894  0.0614  0.2245  0.0779
  782MOL0     C 7841   9.093   3.003   3.832 -0.4610  0.6733  0.4440
  782MOL0     C 7842   9.038   3.059   3.711 -0.8113 -0.7339  0.2566
  782MOL0     C 7843   9.010   3.120   3.610 -0.6287  0.1131  0.4320
  782MOL0     C 7844   8.678   2.899   3.573  0.4987  0.5855 -0.9320
  782MOL0     C 7845   8.617   2.970   3.470  0.7318  0.4285  0.2372
  782MOL0     C 7846   8.648   3.118   3.458 -0.2037  0.5074  0.8070
  782MOL0     H 7847   8.487   2.966   2.958 -0.2230  3.0197 -0.0931
  782MOL0     H 7848   8.364   3.072   2.768  2.6100 -0.3459  0.7321
  782MOL0     H 7849   8.214   3.274   2.655 -0.0363 -2.0640 -1.1612
  782MOL0     H 7850   8.127   3.341   2.794 -0.8636 -0.8115  1.1388
  782MOL0     H 7851   8.025   3.411   2.582  0.0443  0.7344  1.7295
  782MOL0     H 7852   8.001   3.238   2.538  1.7287 -2.4006  1.8178
  782MOL0     H 7853   7.797   3.248   2.688 -2.9641  1.7997 -4.5337
  782MOL0     H 7854   7.844   3.407   2.754  0.3109 -0.6001  0.7678
  782MOL0     H 7855   7.819   3.498   2.511 -0.1915 -0.7508 -2.0392
  782MOL0     H 7856   7.769   3.330   2.465  0.4603  2.3149 -2.3314
  782MOL0     H 7857   7.638   3.532   2.671 -1.3617  1.4385 -1.0779
  782MOL0     H 7858   7.587   3.370   2.645 -1.0263 -0.4471 -0.8988
  782MOL0     H 7859   7.460   3.566   2.513 -0.8674  0.0201  0.2643
  782MOL0     H 7860   7.610   3.579   2.412 -2.0475 -0.5296 -1.5751
  782MOL0     H 7861   7.584   3.359   2.322 -0.7910  2.0211 -2.3517
  782MOL0     H 7862   7.432   3.436   2.299  1.2436  2.0280 -0.6887
  782MOL0     H 7863   7.385   3.227   2.365  0.4740  1.2758 -1.5399
  782MOL0     H 7864   7.498   3.227   2.502  4.8801  2.7551 -1.4879
  782MOL0     H 7865   7.166   3.367   2.359 -0.7355  1.4810  0.1010
  782MOL0     H 7866   6.955   3.486   2.475 -3.0077 -0.0173 -0.7621
  782MOL0     H 7867   6.975   3.496   2.650  2.2570 -1.1389  0.4270
  782MOL0     H 7868   6.794   3.330   2.493 -4.2830 -0.7157  2.3497
  782MOL0     H 7869   6.895   3.225   2.594  0.3296  0.5901  3.0894
  782MOL0     H 7870   6.811   3.350   2.803  1.1723 -0.8432 -1.1509
  782MOL0     H 7871   6.746   3.473   2.699  6.2904  2.6966  1.4941
  782MOL0     H 7872   6.602   3.274   2.614  1.1697  4.1018 -0.7087
  782MOL0     H 7873   6.691   3.167   2.720 -1.2195 -0.1259  1.2441
  782MOL0     H 7874   6.461   3.319   3.037  3.0510 -2.9070  0.2603
  782MOL0     H 7875   6.146   3.174   3.174 -0.2401 -0.8030 -0.3552
  782MOL0     H 7876   6.235   3.322   3.157 -0.7978  0.8251 -2.0750
  782MOL0     H 7877   6.311   3.168   3.218 -1.2622  0.5897  1.1862
  782MOL0     H 7878   5.956   2.822   2.617  0.1459 -0.4554  0.8326
  782MOL0     H 7879   5.807   2.620   2.612 -3.0592  0.9620 -0.1702
  782MOL0     H 7880   5.865   2.418   2.706 -0.7160 -2.4853 -2.2056
  782MOL0     H 7881   5.853   2.326   2.850  1.6491 -1.9694 -2.8345
  782MOL0     H 7882   5.604   2.359   2.704  0.5482  0.1768  2.4413
  782MOL0     H 7883   5.725   2.273   2.597  2.5646  0.9167 -0.4306
  782MOL0     H 7884   5.653   2.191   2.881  1.1834 -1.4202  1.0131
  782MOL0     H 7885   5.722   2.089   2.756  0.4074  0.9345 -2.4770
  782MOL0     H 7886   5.507   2.004   2.768  1.3343 -0.6228 -3.1846
  782MOL0     H 7887   5.498   2.098   2.631 -0.9854  0.5004 -0.6341
  782MOL0     H 7888   5.407   2.190   2.912  0.8881  1.2971  0.4263
  782MOL0     H 7889   5.419   2.298   2.786  2.8985  0.0135  1.0522
  782MOL0     H 7890   5.240   2.062   2.763 -0.7929  0.5689 -1.5633
  782MOL0     H 7891   5.254   2.194   2.650  3.4033 -3.3548 -1.5786
  782MOL0     H 7892   5.155   2.337   2.830  1.3804  0.1675 -2.6953
  782MOL0     H 7893   5.168   2.197   2.940  1.4319  1.2160  0.2163
  782MOL0     H 7894   5.015   2.077   2.764 -2.7943 -0.1262 -0.7642
  782MOL0     H 7895   4.984   2.226   2.685  0.2885 -1.3855  0.1924
  782MOL0     H 7896   5.845   2.609   3.045  4.8900 -1.0400 -0.1529
  782MOL0     H 7897   5.963   2.802   3.043  1.2521 -1.6742 -1.0865
  782MOL0     H 7898   6.236   3.032   2.691  2.8871 -0.7630 -0.2408
  782MOL0     H 7899   6.426   3.174   2.637  2.4875  0.1575  1.5348
  782MOL0     H 7900   8.013   3.079   2.981  0.0901  1.5273  0.5182
  782MOL0     H 7901   8.116   2.983   3.185  0.6005 -4.0677 -0.3582
  782MOL0     H 7902   8.437   2.701   3.358  1.4929  1.2326 -3.9679
  782MOL0     H 7903   8.592   2.584   3.542  0.6627  0.5095  2.7796
  782MOL0     H 7904   8.710   2.851   3.840  0.8409  0.9345 -1.7039
  782MOL0     H 7905   8.764   2.697   3.904 -0.9734  0.7724  0.7309
  782MOL0     H 7906   8.949   2.821   3.708 -0.5949 -2.1415  0.4349
  782MOL0     H 7907   8.986   2.710   3.844  4.0599  2.2366 -0.2173
  782MOL0     H 7908   8.897   2.988   3.896 -2.2208 -2.2023  2.1189
  782MOL0     H 7909   9.021   2.883   3.989  1.9988 -3.4661 -1.8120
  782MOL0     H 7910   9.172   2.930   3.816 -1.5240 -0.7020  1.2460
  782MOL0     H 7911   9.118   3.082   3.903  3.3097  1.3969 -1.4289
  782MOL0     H 7912   8.968   3.165   3.522  0.3075  1.0754  0.4548
  782MOL0     H 7913   8.738   2.963   3.637  0.2755 -0.0285 -0.0957
  782MOL0     H 7914   8.682   3.142   3.357  3.3536 -0.4077  1.6393
  782MOL0     H 7915   8.558   3.173   3.487 -0.9454 -0.4888  0.4367
  782MOL0     H 7916   8.732   3.147   3.522 -0.8043 -1.3051  2.5321
  783MOL0     O 7917  11.081   2.775   8.839 -0.1384  0.0919 -0.7457
  783MOL0     C 7918  11.049   2.841   8.936  0.7087 -1.0402  0.4916
  783MOL0     O 7919  11.000   2.786   9.048  0.5630 -0.7285 -0.2883
  783MOL0     C 7920  10.998   2.653   9.075 -0.0647 -0.7908 -0.6929
  783MOL0     C 7921  10.901   2.617   9.160  0.4026  0.2425  0.2985
  783MOL0     C 7922  10.880   2.480   9.198  0.7098 -0.2142  0.4709
  783MOL0     C 7923  10.965   2.383   9.151  1.0089  0.1482  0.0551
  783MOL0     O 7924  10.944   2.259   9.206  0.2348 -0.8768 -0.1295
  783MOL0     C 7925  11.054   2.176   9.245 -0.7848  0.3389 -0.2328
  783MOL0     C 7926  11.027   2.042   9.332 -0.6006  0.4966 -0.4133
  783MOL0     C 7927  10.972   2.095   9.468 -0.1382  0.3084 -0.8194
  783MOL0     C 7928  10.973   1.988   9.589 -0.1694  0.2091 -0.2510
  783MOL0     C 7929  10.933   2.052   9.730 -0.1206  0.1121  0.2742
  783MOL0     C 7930  11.033   2.163   9.775  0.5131  0.4967 -0.5429
  783MOL0     C 7931  11.015   2.195   9.915 -0.1513 -0.7429  0.5996
  783MOL0     C 7932  11.123   2.288   9.966 -0.8197  0.5520  0.8605
  783MOL0     N 7933  11.112   2.428   9.941  0.8170 -0.3653  0.9642
  783MOL0     C 7934  11.191   2.505   9.853  0.2457 -0.4450 -0.2409
  783MOL0     C 7935  11.134   2.633   9.849  0.3096 -0.4116 -0.4128
  783MOL0     C 7936  11.182   2.743   9.768 -0.7491  0.8674 -0.7861
  783MOL0     C 7937  11.072   2.802   9.672 -0.2095 -0.3059  0.5581
  783MOL0     C 7938  11.119   2.929   9.589 -0.2626  1.1704  0.2828
  783MOL0     C 7939  11.082   3.051   9.667  0.2607  0.9024  0.4653
  783MOL0     O 7940  11.158   3.155   9.594 -0.0021  0.3437  0.0276
  783MOL0     C 7941  11.150   3.284   9.637 -0.3382  0.2915  1.2929
  783MOL0     C 7942  11.226   3.382   9.566 -0.2434  1.4237  0.6987
  783MOL0     C 7943  11.210   3.522   9.595 -0.6199  0.6499  0.7831
  783MOL0     C 7944  11.278   3.620   9.498 -0.5060  0.4149 -0.1912
  783MOL0     C 7945  11.117   3.557   9.694 -0.7721 -0.1145  0.0415
  783MOL0     C 7946  11.094   3.694   9.731  0.2471  0.4730 -0.2667
  783MOL0     O 7947  10.959   3.732   9.714 -0.4100 -0.3032  0.4921
  783MOL0     C 7948  10.899   3.841   9.782 -0.2988  0.5898 -0.7146
  783MOL0     C 7949  10.814   3.915   9.710  0.1707  0.5396 -0.0633
  783MOL0     C 7950  10.774   4.037   9.755  0.5590 -0.9975 -1.0386
  783MOL0     C 7951  10.787   4.069   9.885  0.2596 -1.0205 -0.6463
  783MOL0     O 7952  10.730   4.187   9.918 -0.2805  0.4900 -0.8142
  783MOL0     C 7953  10.757   4.240  10.052 -0.4764 -0.2306 -0.0379
  783MOL0     C 7954  10.698   4.386  10.071 -0.4068 -0.8922 -0.6538
  783MOL0     C 7955  10.546   4.417  10.024  0.0546  0.0825  0.1728
  783MOL0     C 7956  10.449   4.385  10.134 -0.0936 -1.2229 -0.3163
  783MOL0     C 7957  10.462   4.494  10.247 -0.1167  0.0242 -0.4682
  783MOL0     C 7958  10.358   4.479  10.360 -0.4641 -0.1477  0.5784
  783MOL0     C 7959  10.354   4.624  10.434  0.2193 -0.2828 -0.7972
  783MOL0     C 7960  10.233   4.630  10.521 -0.1667  0.7078  0.2436
  783MOL0    Cl 7961  10.216   4.796  10.587 -0.3036 -0.3181 -0.0968
  783MOL0     C 7962  10.857   3.981   9.971  0.1715 -0.3749 -0.2217
  783MOL0     C 7963  10.924   3.863   9.915  0.6287 -0.8633 -0.3183
  783MOL0     O 7964  11.182   3.762   9.782 -0.1688 -0.0680 -0.8939
  783MOL0     C 7965  11.047   3.458   9.757  0.5065 -0.6153 -0.5295
  783MOL0     C 7966  11.057   3.326   9.729  0.3448  0.4771 -0.4815
  783MOL0     N 7967  11.010   2.627   9.914 -0.0377  0.1355 -0.5422
  783MOL0     N 7968  11.001   2.505   9.962  0.1900 -0.6140 -0.0066
  783MOL0     C 7969  11.068   2.422   9.068  0.6804 -0.3223 -0.3042
  783MOL0     C 7970  11.082   2.555   9.035 -0.3160 -0.7842 -0.2443
  783MOL0     C 7971  11.082   2.990   8.944  0.3792  0.8302 -0.3275
  783MOL0     C 7972  11.003   3.069   9.026  0.3499 -0.3468 -0.5675
  783MOL0     C 7973  11.019   3.201   9.033  0.9073 -0.5320 -0.3528
  783MOL0     C 7974  11.111   3.270   8.953 -0.5150  0.4925  0.2876
  783MOL0     O 7975  11.122   3.412   8.959 -0.8050  0.0642  0.0043
  783MOL0     C 7976  11.201   3.484   8.868  0.0336  0.0654  0.4312
  783MOL0     C 7977  11.174   3.629   8.911 -1.1835  0.8471  0.0190
  783MOL0     C 7978  11.268   3.725   8.837 -0.7242  0.8452 -0.8818
  783MOL0     C 7979  11.262   3.871   8.895  0.1518  0.3413  0.7605
  783MOL0     C 7980  11.127   3.921   8.897 -0.6109  0.1742  0.0334
  783MOL0     C 7981  11.031   3.981   8.914 -0.0982 -0.0794  1.3170
  783MOL0     C 7982  11.190   3.189   8.859 -0.0251 -0.1598  0.0531
  783MOL0     C 7983  11.171   3.053   8.853  0.6634  1.2037  0.0200
  783MOL0     C 7984  11.257   2.975   8.750  0.0809  1.4565 -0.4948
  783MOL0     H 7985  10.833   2.694   9.195 -1.0186 -1.0727  0.5126
  783MOL0     H 7986  10.793   2.462   9.261 -2.1089  1.6809 -2.5113
  783MOL0     H 7987  11.127   2.237   9.300 -0.8691  1.8207 -1.7049
  783MOL0     H 7988  11.098   2.153   9.148 -3.4685 -1.3276 -1.1531
  783MOL0     H 7989  10.948   1.980   9.290  0.1056  0.0286 -1.0907
  783MOL0     H 7990  11.124   1.991   9.333  0.0811  1.7099  1.8122
  783MOL0     H 7991  11.039   2.170   9.512 -0.4558  1.3210 -2.0129
  783MOL0     H 7992  10.880   2.148   9.444 -0.8722 -1.5700 -2.3836
  783MOL0     H 7993  10.894   1.916   9.569  0.2439 -0.5897  0.8684
  783MOL0     H 7994  11.074   1.947   9.579 -0.7683 -1.2169 -0.5380
  783MOL0     H 7995  10.928   1.978   9.810 -1.4610 -0.6945 -0.5220
  783MOL0     H 7996  10.831   2.090   9.731 -0.5344 -0.9680  0.1103
  783MOL0     H 7997  11.133   2.119   9.772  1.2174  2.0017  0.0040
  783MOL0     H 7998  11.023   2.252   9.712 -3.4240 -1.0591 -2.5085
  783MOL0     H 7999  11.000   2.100   9.967  1.5859  0.0263  2.6860
  783MOL0     H 8000  10.927   2.258   9.931  2.3789  2.8206  1.6610
  783MOL0     H 8001  11.125   2.279  10.074 -0.9106  0.9153  0.8948
  783MOL0     H 8002  11.215   2.245   9.926 -2.6555 -1.6032 -1.4179
  783MOL0     H 8003  11.283   2.468   9.808  0.4896 -1.0976  0.7606
  783MOL0     H 8004  11.262   2.703   9.705 -1.7216 -2.0289 -0.3592
  783MOL0     H 8005  11.216   2.819   9.839  0.3787  2.6406 -3.0944
  783MOL0     H 8006  11.059   2.734   9.587  3.2408 -0.4698 -0.0024
  783MOL0     H 8007  10.975   2.820   9.718  0.1356 -0.0270  1.1894
  783MOL0     H 8008  11.225   2.942   9.565 -0.5942  6.9855  0.5551
  783MOL0     H 8009  11.058   2.932   9.499 -0.8354  1.4994  0.6752
  783MOL0     H 8010  10.974   3.068   9.667  0.3656  1.6127  0.3568
  783MOL0     H 8011  11.113   3.038   9.771  0.7230 -2.9332 -0.0116
  783MOL0     H 8012  11.287   3.334   9.490 -3.3106 -0.0622 -1.0419
  783MOL0     H 8013  11.235   3.720   9.493  2.0978  1.5985 -1.1955
  783MOL0     H 8014  11.276   3.587   9.393 -1.4489 -0.0791 -0.0237
  783MOL0     H 8015  11.378   3.626   9.542 -0.6442  2.1347 -0.0572
  783MOL0     H 8016  10.796   3.888   9.607  2.5049  0.9145 -0.6081
  783MOL0     H 8017  10.708   4.107   9.705 -1.0556 -0.4531  1.6245
  783MOL0     H 8018  10.699   4.180  10.123 -3.1998  0.9996 -1.0858
  783MOL0     H 8019  10.865   4.239  10.067  0.0158 -1.2279 -3.0084
  783MOL0     H 8020  10.717   4.414  10.175 -0.2481 -0.1252 -0.8884
  783MOL0     H 8021  10.761   4.458  10.019 -0.7063 -1.1251 -1.3499
  783MOL0     H 8022  10.511   4.357   9.939  0.2650 -2.7771  1.9730
  783MOL0     H 8023  10.549   4.523   9.998 -2.1381  0.6082  1.8117
  783MOL0     H 8024  10.465   4.291  10.188  0.4301  0.4510  2.7069
  783MOL0     H 8025  10.348   4.398  10.094 -0.5432 -0.0977  1.0867
  783MOL0     H 8026  10.557   4.474  10.298 -1.2221 -2.1194  0.9016
  783MOL0     H 8027  10.443   4.590  10.198  0.1735  0.6383  0.5730
  783MOL0     H 8028  10.375   4.391  10.422 -1.1293 -2.4739 -2.3477
  783MOL0     H 8029  10.260   4.467  10.313 -1.0007 -0.2093  1.6952
  783MOL0     H 8030  10.353   4.704  10.361  3.4394 -2.5001 -3.5560
  783MOL0     H 8031  10.444   4.627  10.497 -0.5408  0.3143  0.3015
  783MOL0     H 8032  10.236   4.545  10.591 -1.8919 -1.5271 -2.1930
  783MOL0     H 8033  10.144   4.617  10.459  0.7918  1.8287 -1.4527
  783MOL0     H 8034  10.866   3.990  10.079 -2.4202  0.8432 -0.0149
  783MOL0     H 8035  10.985   3.790   9.967 -1.4341 -6.7722 -4.9675
  783MOL0     H 8036  10.970   3.472   9.834  0.5533 -2.0223 -0.1988
  783MOL0     H 8037  11.005   3.252   9.789 -2.6083  1.9799 -1.0294
  783MOL0     H 8038  11.129   2.338   9.036 -0.4963 -2.1263  1.9262
  783MOL0     H 8039  11.161   2.582   8.966  0.0377 -0.8963  0.1150
  783MOL0     H 8040  10.937   3.030   9.103  1.2076  0.8380  0.8238
  783MOL0     H 8041  10.954   3.268   9.089  0.6537  0.2683 -1.5612
  783MOL0     H 8042  11.308   3.463   8.878  0.3009 -1.6132 -3.8850
  783MOL0     H 8043  11.175   3.452   8.767 -0.7610  0.1983  0.5838
  783MOL0     H 8044  11.206   3.633   9.015  2.7476 -1.7003 -0.8715
  783MOL0     H 8045  11.069   3.658   8.896 -0.8731  3.4345  2.0527
  783MOL0     H 8046  11.372   3.690   8.833 -0.7380  0.7950 -0.7889
  783MOL0     H 8047  11.239   3.710   8.733  0.2166 -2.5728 -0.7537
  783MOL0     H 8048  11.308   3.935   8.819 -1.9143 -0.1573 -0.9782
  783MOL0     H 8049  11.319   3.881   8.988  0.1351  1.5337  0.6530
  783MOL0     H 8050  10.943   4.043   8.924 -1.0425 -0.9708 -0.8952
  783MOL0     H 8051  11.252   3.233   8.782 -1.9945  2.4056 -0.2059
  783MOL0     H 8052  11.339   3.043   8.723 -0.3183  1.7003 -1.1215
  783MOL0     H 8053  11.299   2.890   8.804 -0.6964  2.2135  1.3699
  783MOL0     H 8054  11.198   2.938   8.665  2.2606 -2.4649 -0.5350
  784MOL0     O 8055   1.637   8.069   8.004 -0.7472  0.1087 -0.5143
  784MOL0     C 8056   1.665   8.149   8.090  0.9505 -0.0769 -0.3840
  784MOL0     O 8057   1.666   8.125   8.222  0.9466 -0.6168 -0.3821
  784MOL0     C 8058   1.633   8.010   8.277  0.1532 -1.1691 -0.3373
  784MOL0     C 8059   1.584   8.015   8.410  0.3152 -0.3718  0.3705
  784MOL0     C 8060   1.535   7.899   8.481  0.0055 -0.9801  0.5472
  784MOL0     C 8061   1.569   7.776   8.430 -1.1077 -0.7865 -0.1751
  784MOL0     O 8062   1.544   7.648   8.476 -0.4256 -0.3152  0.6367
  784MOL0     C 8063   1.428   7.635   8.557  0.1479 -0.7092 -0.4472
  784MOL0     C 8064   1.302   7.625   8.473 -0.6310 -0.1583  0.6195
  784MOL0     C 8065   1.185   7.622   8.561  0.7419 -0.2719  0.4446
  784MOL0     C 8066   1.164   7.763   8.624  0.1728  0.5547  0.3076
  784MOL0     C 8067   1.022   7.767   8.684 -0.7798 -0.2743 -0.1640
  784MOL0     C 8068   1.021   7.716   8.831  0.0656  0.0260  0.3778
  784MOL0     C 8069   1.066   7.823   8.924  0.2921 -0.3602 -0.1499
  784MOL0     C 8070   1.086   7.769   9.066 -0.3305 -1.1532  0.8650
  784MOL0     N 8071   0.954   7.774   9.141 -0.7824  0.2400  1.3003
  784MOL0     C 8072   0.877   7.879   9.165  0.5545  0.0079  0.0030
  784MOL0     C 8073   0.764   7.829   9.219  0.6541  0.5434 -0.2773
  784MOL0     C 8074   0.637   7.909   9.256 -0.8405 -0.1591 -0.2977
  784MOL0     C 8075   0.527   7.875   9.157 -0.8323 -0.4588  0.6746
  784MOL0     C 8076   0.386   7.924   9.188 -1.3657  0.2555  1.2197
  784MOL0     C 8077   0.377   8.074   9.219 -0.2337 -0.8642  0.0738
  784MOL0     O 8078   0.348   8.152   9.098 -0.4907  0.6990 -0.0527
  784MOL0     C 8079   0.267   8.268   9.109  0.1379 -0.3124 -0.2203
  784MOL0     C 8080   0.282   8.358   9.005  0.1782 -0.6349 -0.3026
  784MOL0     C 8081   0.217   8.489   9.005  0.1177  0.0425 -0.3742
  784MOL0     C 8082   0.243   8.574   8.893  0.2726 -0.0200  1.0725
  784MOL0     C 8083   0.134   8.528   9.115  0.5844  0.0961  0.5989
  784MOL0     C 8084   0.074   8.658   9.131 -0.5203  0.1202  0.0707
  784MOL0     O 8085  -0.051   8.679   9.184 -0.4167 -0.0942  0.3543
  784MOL0     C 8086  -0.094   8.807   9.215  0.1138 -0.1657  0.9064
  784MOL0     C 8087  -0.011   8.916   9.262 -0.1201 -0.0720  0.4477
  784MOL0     C 8088  -0.061   9.038   9.281  0.2342 -0.5233 -0.6397
  784MOL0     C 8089  -0.199   9.067   9.267 -1.2182  0.0600 -0.0416
  784MOL0     O 8090  -0.267   9.182   9.294  0.1605 -0.3828  0.2994
  784MOL0     C 8091  -0.236   9.241   9.425  1.3931  0.3911  0.3973
  784MOL0     C 8092  -0.278   9.398   9.408 -0.6548 -0.2180 -0.3514
  784MOL0     C 8093  -0.419   9.421   9.352 -0.9422  0.3871  1.3747
  784MOL0     C 8094  -0.421   9.445   9.204  0.2368  0.2539  0.7983
  784MOL0     C 8095  -0.555   9.423   9.131 -0.3053 -0.0214  0.6026
  784MOL0     C 8096  -0.571   9.271   9.114 -0.1079 -0.5122  0.0109
  784MOL0     C 8097  -0.691   9.230   9.025 -0.5429 -0.3215  0.5301
  784MOL0     C 8098  -0.750   9.091   9.069  0.9073  0.1556  0.1150
  784MOL0    Cl 8099  -0.894   9.041   8.958 -0.0419 -0.3176  0.0494
  784MOL0     C 8100  -0.276   8.966   9.210 -0.1795 -0.3853 -1.2639
  784MOL0     C 8101  -0.230   8.837   9.184 -0.2709 -0.2305  0.4011
  784MOL0     O 8102   0.157   8.742   9.095  0.6756 -0.0465 -0.3236
  784MOL0     C 8103   0.115   8.430   9.216  0.4527  0.0656  0.4759
  784MOL0     C 8104   0.184   8.307   9.218 -0.0784  0.1385  0.4663
  784MOL0     N 8105   0.771   7.689   9.235 -0.7932 -0.7664  0.2104
  784MOL0     N 8106   0.878   7.662   9.170  0.6269 -0.3169  0.2467
  784MOL0     C 8107   1.642   7.776   8.316 -0.7014 -0.1201 -0.2502
  784MOL0     C 8108   1.672   7.883   8.238 -0.5718  0.2531  0.6598
  784MOL0     C 8109   1.692   8.299   8.056 -0.3593  0.0063 -0.0735
  784MOL0     C 8110   1.754   8.376   8.159  0.2186 -0.1933 -1.3974
  784MOL0     C 8111   1.789   8.512   8.129  0.6403  0.7278  0.4785
  784MOL0     C 8112   1.764   8.570   8.006  0.6060 -0.1376 -0.3904
  784MOL0     O 8113   1.771   8.713   7.994 -0.6498  0.5747  0.6261
  784MOL0     C 8114   1.753   8.780   7.868  0.1803  0.8029 -0.2059
  784MOL0     C 8115   1.832   8.920   7.867  0.6892  0.5276 -0.6671
  784MOL0     C 8116   1.847   8.979   8.010 -0.2915 -0.2631  1.5687
  784MOL0     C 8117   1.932   9.107   8.018 -0.1621  0.4123  0.8133
  784MOL0     C 8118   1.846   9.223   8.006 -0.2730 -0.1505  0.6239
  784MOL0     C 8119   1.758   9.311   7.987 -0.8281 -0.3009 -0.9344
  784MOL0     C 8120   1.705   8.487   7.910 -0.5336  0.0065  0.3301
  784MOL0     C 8121   1.664   8.359   7.930  1.0359  1.1219  0.8903
  784MOL0     C 8122   1.605   8.273   7.818  0.3362  0.7722 -0.0113
  784MOL0     H 8123   1.553   8.111   8.451  3.5295  0.1174  1.9254
  784MOL0     H 8124   1.479   7.913   8.573 -1.4785  1.0394 -0.5630
  784MOL0     H 8125   1.432   7.698   8.646  2.2331 -1.8665  0.3449
  784MOL0     H 8126   1.450   7.537   8.601  2.0506 -0.8925 -1.7192
  784MOL0     H 8127   1.302   7.711   8.405  0.8624  0.7364  1.6879
  784MOL0     H 8128   1.305   7.531   8.418  1.1788  0.8365 -1.1060
  784MOL0     H 8129   1.090   7.596   8.512  1.5120  0.5642 -1.6276
  784MOL0     H 8130   1.209   7.549   8.638  4.3340 -1.8781 -1.9239
  784MOL0     H 8131   1.246   7.781   8.694  2.3033 -2.9855 -0.9978
  784MOL0     H 8132   1.167   7.845   8.552  3.1602  0.6238  0.3748
  784MOL0     H 8133   0.957   7.710   8.617  1.5344 -2.2244 -0.9166
  784MOL0     H 8134   0.978   7.867   8.690  1.0410  0.5998 -0.5585
  784MOL0     H 8135   0.921   7.693   8.870  0.0578  2.1974  1.7685
  784MOL0     H 8136   1.071   7.619   8.840  2.2622  1.0709  0.0880
  784MOL0     H 8137   0.987   7.898   8.917  0.2397 -0.5511 -5.0679
  784MOL0     H 8138   1.163   7.860   8.890  0.4924 -0.6302  0.1271
  784MOL0     H 8139   1.131   7.670   9.056 -0.8211 -1.3507  0.5748
  784MOL0     H 8140   1.167   7.826   9.112  1.0198 -0.9306 -1.6141
  784MOL0     H 8141   0.895   7.984   9.144 -1.1672  0.5420  0.9812
  784MOL0     H 8142   0.658   8.016   9.255 -1.2990 -0.0595 -1.6467
  784MOL0     H 8143   0.597   7.877   9.353 -0.7552  1.2997  0.2330
  784MOL0     H 8144   0.559   7.909   9.058 -6.4505  2.0819 -0.6991
  784MOL0     H 8145   0.534   7.766   9.159  1.6734 -0.3399  0.7791
  784MOL0     H 8146   0.325   7.899   9.101  2.1218 -1.7563 -0.9050
  784MOL0     H 8147   0.359   7.859   9.272 -1.5153 -0.1222  0.8808
  784MOL0     H 8148   0.296   8.094   9.290 -0.0225 -1.6297  0.5386
  784MOL0     H 8149   0.471   8.104   9.265 -0.2214 -2.2578  1.0141
  784MOL0     H 8150   0.332   8.336   8.911 -1.3745  0.6706 -1.5028
  784MOL0     H 8151   0.237   8.517   8.800  0.0523  0.3367  0.8668
  784MOL0     H 8152   0.347   8.605   8.906  0.0570  1.2335  0.0584
  784MOL0     H 8153   0.187   8.667   8.881 -0.0343 -0.0897  1.8891
  784MOL0     H 8154   0.097   8.909   9.263 -0.2544 -3.0617  0.3932
  784MOL0     H 8155   0.002   9.119   9.318  0.5971 -1.0660 -0.0504
  784MOL0     H 8156  -0.293   9.190   9.503 -0.6015 -1.8623 -2.3103
  784MOL0     H 8157  -0.130   9.234   9.449  1.7389 -0.5280 -1.2199
  784MOL0     H 8158  -0.253   9.439   9.506 -0.6826 -1.7010  0.3134
  784MOL0     H 8159  -0.209   9.439   9.333  0.2260  2.7824  1.9174
  784MOL0     H 8160  -0.464   9.510   9.398 -5.0850 -1.4086  1.2636
  784MOL0     H 8161  -0.476   9.334   9.385  1.4833 -1.5127  0.7703
  784MOL0     H 8162  -0.345   9.384   9.155 -0.1656  0.0412  0.4375
  784MOL0     H 8163  -0.398   9.551   9.190 -1.7983  0.5222 -1.0208
  784MOL0     H 8164  -0.638   9.472   9.182  0.7354  0.2815  2.0379
  784MOL0     H 8165  -0.549   9.468   9.031  1.3339  0.6111  0.9477
  784MOL0     H 8166  -0.585   9.226   9.213 -1.5020 -0.9630 -0.3525
  784MOL0     H 8167  -0.482   9.223   9.073 -0.1138 -1.2387  0.8116
  784MOL0     H 8168  -0.665   9.231   8.919  1.8618  2.8758  1.0094
  784MOL0     H 8169  -0.776   9.297   9.036 -1.3310 -1.2421  0.2185
  784MOL0     H 8170  -0.787   9.081   9.171 -0.2592 -1.4188 -0.4203
  784MOL0     H 8171  -0.667   9.023   9.048 -0.7645 -2.1544  0.5976
  784MOL0     H 8172  -0.374   8.993   9.171  0.0740 -1.7615 -3.0062
  784MOL0     H 8173  -0.289   8.765   9.129  1.9512  1.6326 -5.1063
  784MOL0     H 8174   0.062   8.464   9.305 -1.4047  0.0752 -0.5791
  784MOL0     H 8175   0.166   8.247   9.307  0.4899  1.4429  1.4953
  784MOL0     H 8176   1.660   7.676   8.278  0.1746 -1.5141  3.4076
  784MOL0     H 8177   1.717   7.867   8.141  0.3290 -0.7935  1.2314
  784MOL0     H 8178   1.775   8.337   8.257  0.9004 -2.5666 -2.4164
  784MOL0     H 8179   1.832   8.573   8.208  0.0162  0.9442  0.6638
  784MOL0     H 8180   1.780   8.723   7.778 -1.7521  2.2600 -1.8121
  784MOL0     H 8181   1.648   8.806   7.852 -0.2449 -1.3285 -1.3672
  784MOL0     H 8182   1.782   8.993   7.803 -1.6227 -0.7455 -0.4202
  784MOL0     H 8183   1.928   8.904   7.817 -0.1016  2.0011 -2.7937
  784MOL0     H 8184   1.749   8.999   8.056 -1.1749 -0.2796 -0.2247
  784MOL0     H 8185   1.905   8.910   8.073  2.7113 -0.2814 -0.9696
  784MOL0     H 8186   2.010   9.109   7.941  2.4007 -2.7922  3.0569
  784MOL0     H 8187   1.982   9.106   8.115 -0.4764 -2.0616  1.0202
  784MOL0     H 8188   1.700   9.397   7.962  1.3328  1.8195  0.8274
  784MOL0     H 8189   1.671   8.534   7.818 -0.3640 -0.7082 -0.1095
  784MOL0     H 8190   1.669   8.204   7.762  0.2750  2.2788 -2.0679
  784MOL0     H 8191   1.523   8.211   7.858  1.8841 -2.1392 -1.0397
  784MOL0     H 8192   1.566   8.342   7.742  0.0174 -1.4748 -2.0329
  785MOL0     O 8193   7.888   9.610   0.647  0.0646 -0.4610 -0.3325
  785MOL0     C 8194   7.762   9.608   0.637 -0.7655  0.8117 -0.5085
  785MOL0     O 8195   7.675   9.704   0.690  1.1336 -0.2500  0.2639
  785MOL0     C 8196   7.728   9.810   0.754 -0.2210 -0.2084  0.1038
  785MOL0     C 8197   7.750   9.804   0.892  0.1595  0.8562 -0.0095
  785MOL0     C 8198   7.813   9.913   0.961 -0.4426  0.3221 -0.7194
  785MOL0     C 8199   7.845  10.025   0.883  0.2756 -0.1164 -1.1198
  785MOL0     O 8200   7.921  10.118   0.958 -0.0683 -0.9784 -0.3044
  785MOL0     C 8201   7.941  10.250   0.903  1.3809 -0.3481  0.2029
  785MOL0     C 8202   7.963  10.354   1.005 -0.0601  0.6705 -0.4110
  785MOL0     C 8203   7.832  10.381   1.086  0.1633 -0.2467  0.3681
  785MOL0     C 8204   7.796  10.537   1.088  0.1322  1.2443  0.4314
  785MOL0     C 8205   7.891  10.649   1.159  0.3437  0.5533 -0.5079
  785MOL0     C 8206   7.909  10.605   1.303  0.7619  0.2264  0.1689
  785MOL0     C 8207   7.924  10.721   1.397  0.2016  0.0936  0.4048
  785MOL0     C 8208   7.907  10.675   1.535  0.3239  0.1540  0.4265
  785MOL0     N 8209   7.932  10.773   1.635 -0.4534 -0.7962  0.2798
  785MOL0     C 8210   8.056  10.822   1.675 -0.0178  0.2062  0.4119
  785MOL0     C 8211   8.032  10.938   1.734  1.1073  0.1527  0.6448
  785MOL0     C 8212   8.136  11.025   1.792 -0.0509  0.1770  0.9588
  785MOL0     C 8213   8.181  10.987   1.929 -0.0561  0.3119 -0.0498
  785MOL0     C 8214   8.055  10.957   2.008  0.1091 -0.1190  0.4272
  785MOL0     C 8215   8.078  10.923   2.156  0.7269 -0.3997 -0.4985
  785MOL0     O 8216   7.961  10.944   2.240  0.2818  0.0304 -0.0819
  785MOL0     C 8217   7.937  10.872   2.349 -0.3784 -0.1221 -0.2149
  785MOL0     C 8218   8.048  10.818   2.423  0.1501 -0.1335  0.1958
  785MOL0     C 8219   8.022  10.740   2.536 -0.3514 -1.1614  0.8481
  785MOL0     C 8220   8.141  10.697   2.624 -0.6628  0.4723 -0.4195
  785MOL0     C 8221   7.890  10.722   2.577  0.3606  1.3316 -0.4236
  785MOL0     C 8222   7.855  10.636   2.693 -0.7180 -1.3538 -0.2001
  785MOL0     O 8223   7.823  10.516   2.658  0.4030 -0.0062  0.2221
  785MOL0     C 8224   7.800  10.421   2.756 -0.4151  0.3404  0.4866
  785MOL0     C 8225   7.875  10.308   2.776  0.4000 -1.1255 -0.7879
  785MOL0     C 8226   7.845  10.220   2.880  0.0187  0.0355 -0.3291
  785MOL0     C 8227   7.724  10.233   2.953  0.0144 -1.1423 -0.4115
  785MOL0     O 8228   7.700  10.138   3.046  0.0635  0.5905  0.1580
  785MOL0     C 8229   7.604  10.163   3.145  0.9695  0.7260  0.3632
  785MOL0     C 8230   7.631  10.265   3.256  0.0395 -1.0621  0.2185
  785MOL0     C 8231   7.502  10.311   3.328 -0.4534  0.0453  0.9053
  785MOL0     C 8232   7.407  10.390   3.237  0.1563 -0.5548 -0.1282
  785MOL0     C 8233   7.274  10.458   3.303  0.1494  0.1876  0.6500
  785MOL0     C 8234   7.181  10.359   3.358  0.0579  0.0616  0.4366
  785MOL0     C 8235   7.139  10.246   3.257  0.3394  0.2443  0.5494
  785MOL0     C 8236   6.993  10.201   3.274  0.5957  0.4970  0.0119
  785MOL0    Cl 8237   6.957  10.049   3.200  0.3683  0.1653  0.4418
  785MOL0     C 8238   7.643  10.342   2.915 -0.2299 -0.1085 -0.0705
  785MOL0     C 8239   7.677  10.434   2.822 -0.6350  0.4748  1.3112
  785MOL0     O 8240   7.853  10.685   2.809  0.4016 -0.5085  0.3378
  785MOL0     C 8241   7.786  10.773   2.508 -0.2597  0.4158  1.1764
  785MOL0     C 8242   7.812  10.858   2.398 -0.4517  0.6918  0.8272
  785MOL0     N 8243   7.891  10.960   1.724  0.1118 -0.1985 -0.0695
  785MOL0     N 8244   7.837  10.863   1.664  0.7185 -0.6454  0.4653
  785MOL0     C 8245   7.835  10.026   0.746 -0.0544 -0.3116 -0.5536
  785MOL0     C 8246   7.770   9.920   0.680  0.0363 -0.7346  0.0679
  785MOL0     C 8247   7.710   9.475   0.582  0.0411  0.7884  1.1682
  785MOL0     C 8248   7.793   9.358   0.573 -0.1752  0.1431  0.1953
  785MOL0     C 8249   7.760   9.252   0.502  0.6253  0.8338 -0.0474
  785MOL0     C 8250   7.642   9.243   0.434 -0.0360  0.3270 -0.2423
  785MOL0     O 8251   7.597   9.136   0.363 -0.5768 -0.2345 -0.7873
  785MOL0     C 8252   7.686   9.021   0.345  0.3423 -0.6268  0.0604
  785MOL0     C 8253   7.609   8.921   0.246 -0.1233 -0.2132 -0.5450
  785MOL0     C 8254   7.565   8.992   0.118  0.1233 -0.1872  0.0836
  785MOL0     C 8255   7.654   9.108   0.067 -0.3868 -0.2285 -0.4943
  785MOL0     C 8256   7.798   9.072   0.028  0.7057  1.0334  0.4216
  785MOL0     C 8257   7.902   9.069  -0.026  0.4248 -0.0143  0.5077
  785MOL0     C 8258   7.541   9.345   0.448  0.0984  0.6658 -0.8899
  785MOL0     C 8259   7.585   9.468   0.514  0.3328  0.4398 -0.4108
  785MOL0     C 8260   7.496   9.590   0.499  0.5851 -0.2694 -0.1284
  785MOL0     H 8261   7.702   9.727   0.952 -0.9834 -0.1266 -2.1015
  785MOL0     H 8262   7.824   9.911   1.068  2.8172  0.4387 -0.9554
  785MOL0     H 8263   7.861  10.291   0.840  4.3082  3.3249 -1.5674
  785MOL0     H 8264   8.026  10.245   0.834  0.2598 -3.0326 -1.1368
  785MOL0     H 8265   8.046  10.324   1.070 -0.5594 -1.8898 -0.8156
  785MOL0     H 8266   7.983  10.443   0.945 -3.0294  0.5013 -1.8253
  785MOL0     H 8267   7.751  10.346   1.022  0.3325 -1.0473  0.5851
  785MOL0     H 8268   7.829  10.336   1.185  0.7206 -1.6780 -0.2413
  785MOL0     H 8269   7.795  10.578   0.986 -0.4563 -0.1086 -0.1218
  785MOL0     H 8270   7.700  10.546   1.139  1.4075  0.2027  3.2124
  785MOL0     H 8271   7.841  10.746   1.153  0.4540  0.6626  0.2358
  785MOL0     H 8272   7.990  10.654   1.112  0.8251  1.4241  0.5618
  785MOL0     H 8273   7.820  10.554   1.339  0.9927 -0.1774  0.1745
  785MOL0     H 8274   7.991  10.533   1.313  0.9255  0.5213  1.0231
  785MOL0     H 8275   7.844  10.795   1.383 -0.4134 -0.2323  1.9236
  785MOL0     H 8276   8.023  10.766   1.389 -0.2726  1.1761  0.5092
  785MOL0     H 8277   7.801  10.647   1.535 -0.6972  3.2146 -3.2227
  785MOL0     H 8278   7.960  10.583   1.561 -0.3301 -0.0888  0.9587
  785MOL0     H 8279   8.150  10.768   1.672 -0.7202 -1.3976  3.2376
  785MOL0     H 8280   8.115  11.131   1.777 -1.0265 -0.0947  0.3589
  785MOL0     H 8281   8.226  11.024   1.729 -0.2379 -0.5869  0.6969
  785MOL0     H 8282   8.253  10.905   1.920  0.6585  0.9061  0.1058
  785MOL0     H 8283   8.234  11.068   1.980 -1.7670 -0.8892  4.0211
  785MOL0     H 8284   7.991  11.046   2.007  0.3522  0.0918 -2.4565
  785MOL0     H 8285   7.999  10.875   1.962  2.1896 -3.0845  2.7623
  785MOL0     H 8286   8.135  10.831   2.167 -0.0476 -0.8765 -0.4279
  785MOL0     H 8287   8.136  11.004   2.201  2.9615 -2.3634  0.3374
  785MOL0     H 8288   8.147  10.848   2.393  0.5181  0.8047  2.2255
  785MOL0     H 8289   8.173  10.598   2.592 -1.3029  0.2967 -0.5352
  785MOL0     H 8290   8.105  10.695   2.728  0.7389  0.3428  0.0828
  785MOL0     H 8291   8.228  10.762   2.615  1.4084 -1.9481  0.7791
  785MOL0     H 8292   7.970  10.298   2.725  2.4060  2.6333  1.6636
  785MOL0     H 8293   7.910  10.141   2.916 -2.6406 -1.6133  1.1432
  785MOL0     H 8294   7.511  10.187   3.092 -0.4300  0.8008  2.7033
  785MOL0     H 8295   7.581  10.070   3.198 -1.0109  1.1385  0.3173
  785MOL0     H 8296   7.706  10.220   3.322  0.9288 -2.5675 -1.7203
  785MOL0     H 8297   7.677  10.353   3.209 -0.5299 -0.6481  0.4307
  785MOL0     H 8298   7.534  10.366   3.417 -0.4628 -0.2564  1.1001
  785MOL0     H 8299   7.460  10.227   3.385  1.7042 -0.0399  2.4852
  785MOL0     H 8300   7.372  10.334   3.149  2.3003  0.4220 -1.6960
  785MOL0     H 8301   7.465  10.471   3.193  0.6834 -1.9711 -2.2099
  785MOL0     H 8302   7.299  10.527   3.384 -3.9600  0.3053  2.0530
  785MOL0     H 8303   7.218  10.513   3.226 -1.1867 -2.0079 -0.0407
  785MOL0     H 8304   7.096  10.418   3.394  2.1901  2.4387  1.9281
  785MOL0     H 8305   7.214  10.318   3.454  1.5023  0.2264  0.0361
  785MOL0     H 8306   7.208  10.162   3.269 -2.3461 -2.2801 -0.5117
  785MOL0     H 8307   7.140  10.287   3.156  0.1370 -0.2550  0.3383
  785MOL0     H 8308   6.926  10.276   3.232  0.3778  0.1992 -0.1735
  785MOL0     H 8309   6.976  10.189   3.382  0.3583  1.5669  0.1033
  785MOL0     H 8310   7.554  10.356   2.976  0.6616 -0.5700  1.3795
  785MOL0     H 8311   7.618  10.524   2.808 -0.2943  0.7661  1.7344
  785MOL0     H 8312   7.683  10.754   2.536  0.8940 -1.7242  4.6543
  785MOL0     H 8313   7.729  10.901   2.342  2.7627  0.8040 -4.5961
  785MOL0     H 8314   7.872  10.103   0.680  0.6721 -0.0472  0.1423
  785MOL0     H 8315   7.759   9.912   0.572  0.6627  0.3275 -0.0869
  785MOL0     H 8316   7.893   9.363   0.615  0.1301 -4.1600  0.4187
  785MOL0     H 8317   7.827   9.166   0.501 -3.3921 -2.8029  2.6835
  785MOL0     H 8318   7.784   9.044   0.301  0.2419  0.2360  0.2613
  785MOL0     H 8319   7.701   8.975   0.443 -2.4089  2.6910  2.2897
  785MOL0     H 8320   7.522   8.884   0.302  0.7437  0.1921  1.1472
  785MOL0     H 8321   7.680   8.844   0.214 -0.7029 -0.8494 -0.3191
  785MOL0     H 8322   7.555   8.915   0.041 -1.6308  1.3816 -1.3368
  785MOL0     H 8323   7.469   9.036   0.147  1.7229  3.1928  0.7466
  785MOL0     H 8324   7.661   9.187   0.141  3.2410 -2.1303  1.4758
  785MOL0     H 8325   7.599   9.154  -0.016 -4.0208 -0.4553  1.5478
  785MOL0     H 8326   7.983   9.072  -0.096 -0.3222 -0.3100 -0.4082
  785MOL0     H 8327   7.446   9.324   0.400 -0.7310  1.1568  0.4942
  785MOL0     H 8328   7.395   9.566   0.465  1.4947 -0.1469 -3.2602
  785MOL0     H 8329   7.486   9.646   0.593  2.3001  2.2481 -1.3065
  785MOL0     H 8330   7.528   9.670   0.431 -3.8001  0.8060 -1.1919
  786MOL0     O 8331   6.523   0.241   1.981  0.1508  0.3408 -0.3365
  786MOL0     C 8332   6.610   0.326   1.999 -0.7640 -1.0185  0.8652
  786MOL0     O 8333   6.726   0.312   2.078  0.3489  0.6738 -0.4024
  786MOL0     C 8334   6.741   0.203   2.167 -0.6115 -0.0735  0.1942
  786MOL0     C 8335   6.717   0.067   2.144  0.5257  0.0394  0.3414
  786MOL0     C 8336   6.710  -0.025   2.249  0.2893  0.5123  0.3253
  786MOL0     C 8337   6.730   0.010   2.379 -0.4079 -0.2242 -0.4098
  786MOL0     O 8338   6.702  -0.091   2.473  0.7110 -0.7186 -0.3235
  786MOL0     C 8339   6.695  -0.045   2.608  0.1285  0.1161 -0.8867
  786MOL0     C 8340   6.681  -0.153   2.713 -0.4890 -0.6504 -0.6594
  786MOL0     C 8341   6.588  -0.270   2.662  0.0534  0.6113 -0.5412
  786MOL0     C 8342   6.440  -0.216   2.623  0.8724 -0.0346  0.5882
  786MOL0     C 8343   6.371  -0.141   2.739 -0.7862  0.5970  0.2340
  786MOL0     C 8344   6.265  -0.047   2.676  0.2438 -0.1986  0.2550
  786MOL0     C 8345   6.126  -0.099   2.687 -0.0460  0.0227 -0.4176
  786MOL0     C 8346   6.021   0.007   2.674 -1.4131 -0.2775  0.7682
  786MOL0     N 8347   5.893  -0.057   2.653 -0.3049  0.7453 -0.0837
  786MOL0     C 8348   5.788  -0.053   2.739  0.3671 -0.0857  0.8191
  786MOL0     C 8349   5.694  -0.139   2.677  0.1230 -0.7751 -0.4185
  786MOL0     C 8350   5.560  -0.190   2.718 -0.0082 -1.0626  0.2346
  786MOL0     C 8351   5.469  -0.065   2.691 -0.6460 -0.8170 -0.1435
  786MOL0     C 8352   5.324  -0.112   2.725 -0.8870  0.0657  0.2466
  786MOL0     C 8353   5.215  -0.027   2.660 -0.3495 -0.8632 -0.8563
  786MOL0     O 8354   5.097  -0.108   2.645 -0.1810  0.5014 -0.2761
  786MOL0     C 8355   5.010  -0.081   2.539  0.1220 -0.2986 -0.8318
  786MOL0     C 8356   4.886  -0.144   2.555  0.8563  0.2152 -0.4349
  786MOL0     C 8357   4.781  -0.122   2.466 -0.6278 -0.5021 -0.0087
  786MOL0     C 8358   4.655  -0.199   2.492  0.3216  0.1330 -0.6938
  786MOL0     C 8359   4.801  -0.040   2.352 -0.3307 -0.1754 -1.2298
  786MOL0     C 8360   4.696  -0.018   2.249 -0.4270 -0.6217 -0.3958
  786MOL0     O 8361   4.701   0.102   2.180  0.4320  0.1996  0.3900
  786MOL0     C 8362   4.595   0.118   2.095  0.2163  0.2768 -0.2330
  786MOL0     C 8363   4.623   0.101   1.962 -0.9108  0.4519  0.1021
  786MOL0     C 8364   4.515   0.123   1.864 -0.2108 -0.3460  0.0701
  786MOL0     C 8365   4.383   0.161   1.901  0.6565 -0.1555 -0.0197
  786MOL0     O 8366   4.278   0.172   1.814  1.2999  0.0509 -0.9165
  786MOL0     C 8367   4.288   0.079   1.704  0.3489 -0.1689 -0.4545
  786MOL0     C 8368   4.171   0.126   1.613  0.1785  0.5522 -0.6737
  786MOL0     C 8369   4.137   0.277   1.583 -0.3557 -0.4873  0.0429
  786MOL0     C 8370   4.240   0.366   1.515 -0.0608  0.5908  0.5210
  786MOL0     C 8371   4.183   0.500   1.491  0.3249 -0.9529 -0.3446
  786MOL0     C 8372   4.096   0.512   1.373 -0.2532  0.5083 -0.2230
  786MOL0     C 8373   4.179   0.497   1.246  0.1530 -0.1932  0.3135
  786MOL0     C 8374   4.285   0.606   1.221  0.0139  0.4287 -0.7381
  786MOL0    Cl 8375   4.369   0.575   1.069  0.0470  0.3034 -0.1129
  786MOL0     C 8376   4.365   0.173   2.043  0.2661  0.2851  0.8357
  786MOL0     C 8377   4.469   0.163   2.140 -0.9358  0.9158  0.8459
  786MOL0     O 8378   4.616  -0.111   2.214 -0.1226  0.1568 -0.0854
  786MOL0     C 8379   4.905   0.050   2.359  0.3704  0.4721  0.9648
  786MOL0     C 8380   5.019   0.030   2.446  0.1895  0.1094  0.3486
  786MOL0     N 8381   5.740  -0.173   2.546  0.5547 -0.2149 -0.0983
  786MOL0     N 8382   5.862  -0.127   2.540  0.3032 -0.7888 -0.4685
  786MOL0     C 8383   6.753   0.146   2.410 -0.7431  0.4380  0.2856
  786MOL0     C 8384   6.765   0.245   2.297  0.3105 -0.0109  0.4906
  786MOL0     C 8385   6.597   0.454   1.913 -0.4438  0.4415  0.1396
  786MOL0     C 8386   6.708   0.522   1.859 -0.1632 -0.6737  0.3393
  786MOL0     C 8387   6.698   0.640   1.778 -0.9635  0.4833  0.6129
  786MOL0     C 8388   6.575   0.693   1.749  0.3063  0.3174 -1.1264
  786MOL0     O 8389   6.573   0.810   1.672 -0.6582  0.1614 -0.0909
  786MOL0     C 8390   6.457   0.842   1.588  0.4531 -0.4008 -0.5270
  786MOL0     C 8391   6.428   0.736   1.481  0.0088  0.0207  0.6109
  786MOL0     C 8392   6.566   0.706   1.411  0.5093 -0.2327  0.2279
  786MOL0     C 8393   6.578   0.619   1.284  0.2335 -0.1860 -0.2003
  786MOL0     C 8394   6.464   0.527   1.262  0.1598 -0.4676 -1.1004
  786MOL0     C 8395   6.361   0.461   1.250  0.6851 -0.0772 -0.7274
  786MOL0     C 8396   6.466   0.627   1.807  0.5303 -0.7821 -0.0702
  786MOL0     C 8397   6.474   0.512   1.880  0.5191 -0.5059  0.3494
  786MOL0     C 8398   6.344   0.452   1.919  0.3245 -0.1397  0.0341
  786MOL0     H 8399   6.696   0.037   2.041  0.3307  0.1947  0.3352
  786MOL0     H 8400   6.690  -0.131   2.249 -4.4559  1.1808  1.5054
  786MOL0     H 8401   6.605   0.015   2.623 -0.2668 -0.2514 -1.7775
  786MOL0     H 8402   6.784   0.014   2.635  0.7359 -2.1627  2.7817
  786MOL0     H 8403   6.778  -0.200   2.732 -0.6348 -0.8587 -0.4383
  786MOL0     H 8404   6.645  -0.117   2.809 -1.0320  4.2407 -2.4279
  786MOL0     H 8405   6.632  -0.323   2.578 -1.3446 -1.9529  0.2160
  786MOL0     H 8406   6.568  -0.348   2.737 -1.5568 -0.4278 -1.9797
  786MOL0     H 8407   6.460  -0.147   2.541  1.5147  0.2792  1.0049
  786MOL0     H 8408   6.367  -0.288   2.584 -1.6473  1.6402  1.8982
  786MOL0     H 8409   6.451  -0.088   2.792 -0.6845  0.6715  0.0058
  786MOL0     H 8410   6.322  -0.210   2.808 -1.3288 -0.6518 -1.3442
  786MOL0     H 8411   6.266   0.049   2.730 -1.7896  0.4643 -0.8046
  786MOL0     H 8412   6.289  -0.029   2.571  1.5153 -2.4136  0.1075
  786MOL0     H 8413   6.121  -0.144   2.787  1.4795 -0.3355 -0.4760
  786MOL0     H 8414   6.119  -0.176   2.610 -1.6200 -0.1979 -0.0930
  786MOL0     H 8415   6.030   0.080   2.755  2.8661  1.3620 -0.8694
  786MOL0     H 8416   6.052   0.061   2.584  1.9706 -1.6736  0.9446
  786MOL0     H 8417   5.783   0.006   2.829 -0.1314  0.3587  0.5099
  786MOL0     H 8418   5.564  -0.206   2.827  2.5621  2.6577  0.9010
  786MOL0     H 8419   5.542  -0.282   2.663 -1.9163 -0.7625  0.2990
  786MOL0     H 8420   5.499   0.017   2.756  0.5958 -1.7616  0.5183
  786MOL0     H 8421   5.480  -0.029   2.588 -0.7442  1.5440  0.6100
  786MOL0     H 8422   5.314  -0.216   2.693  1.0322  0.2034 -0.9477
  786MOL0     H 8423   5.308  -0.095   2.832  1.5508  1.6229  0.4333
  786MOL0     H 8424   5.188   0.056   2.726  0.4881 -0.8870 -0.4690
  786MOL0     H 8425   5.259   0.011   2.568  0.7269  0.4501  0.1495
  786MOL0     H 8426   4.872  -0.207   2.642  1.7944  2.4840  1.4777
  786MOL0     H 8427   4.645  -0.229   2.596  0.4909 -2.8795 -1.4490
  786MOL0     H 8428   4.647  -0.296   2.441 -0.9979 -1.8054  2.8821
  786MOL0     H 8429   4.570  -0.135   2.464  0.3855 -0.1802 -1.6517
  786MOL0     H 8430   4.728   0.085   1.941 -1.0924  0.9326 -1.2686
  786MOL0     H 8431   4.540   0.108   1.760  0.6158 -0.6541  0.2998
  786MOL0     H 8432   4.379   0.080   1.644  0.6207  1.4118 -0.0727
  786MOL0     H 8433   4.281  -0.023   1.741  1.7069 -0.4924 -1.0318
  786MOL0     H 8434   4.180   0.074   1.517  2.3505  2.1886 -1.4409
  786MOL0     H 8435   4.086   0.096   1.674  2.8741 -0.9986  2.6696
  786MOL0     H 8436   4.129   0.315   1.686  1.7773 -1.5164  0.6391
  786MOL0     H 8437   4.039   0.286   1.534 -1.0239  0.6047  1.4866
  786MOL0     H 8438   4.277   0.321   1.422  3.5587  2.8750  0.6624
  786MOL0     H 8439   4.329   0.373   1.577 -0.4325  0.2697  1.1058
  786MOL0     H 8440   4.123   0.534   1.576  2.6109  0.3105  0.8422
  786MOL0     H 8441   4.264   0.573   1.485  1.8437 -2.4578  1.2233
  786MOL0     H 8442   4.055   0.613   1.380  1.3732  1.1556  0.2018
  786MOL0     H 8443   4.013   0.441   1.377  0.5740 -0.4759 -0.3151
  786MOL0     H 8444   4.107   0.510   1.165 -2.6300  0.4222  2.7242
  786MOL0     H 8445   4.211   0.392   1.246  1.2501  0.1368  0.4007
  786MOL0     H 8446   4.366   0.609   1.294  0.0489 -1.4180 -0.6567
  786MOL0     H 8447   4.233   0.702   1.220  0.0989  0.4968  0.3194
  786MOL0     H 8448   4.269   0.220   2.059 -0.9220 -2.1823  1.5617
  786MOL0     H 8449   4.450   0.203   2.240 -1.0776  2.9433  0.0599
  786MOL0     H 8450   4.913   0.129   2.285  2.7723 -2.2041 -1.9171
  786MOL0     H 8451   5.098   0.105   2.444  0.8324 -0.5623 -1.0761
  786MOL0     H 8452   6.767   0.179   2.512 -0.3167  4.2575 -0.8274
  786MOL0     H 8453   6.778   0.352   2.310  1.6886  0.5609 -3.8878
  786MOL0     H 8454   6.810   0.489   1.878  0.2930  0.7714  0.4775
  786MOL0     H 8455   6.779   0.696   1.732 -2.7330  2.2107 -0.5586
  786MOL0     H 8456   6.363   0.863   1.641  0.5893 -0.8078 -0.1157
  786MOL0     H 8457   6.482   0.935   1.536 -2.6903 -1.0029 -3.5002
  786MOL0     H 8458   6.358   0.782   1.410  0.9818  2.8779  1.3614
  786MOL0     H 8459   6.385   0.641   1.516 -0.1884 -2.0282 -4.3480
  786MOL0     H 8460   6.609   0.803   1.384  0.9101 -1.1788 -2.9307
  786MOL0     H 8461   6.629   0.657   1.486  2.3675  3.0843  1.0184
  786MOL0     H 8462   6.670   0.560   1.278  0.3352  0.0251 -0.7639
  786MOL0     H 8463   6.584   0.683   1.195  1.6265  1.2686  0.8907
  786MOL0     H 8464   6.274   0.402   1.269  1.5699 -0.4612  2.7495
  786MOL0     H 8465   6.373   0.680   1.791  2.3034  1.9450 -2.6422
  786MOL0     H 8466   6.341   0.453   2.028 -0.2189  0.4194  0.0157
  786MOL0     H 8467   6.261   0.511   1.879  1.5982  0.9709 -1.1099
  786MOL0     H 8468   6.339   0.348   1.885  3.1550 -0.2486 -0.3382
  787MOL0     O 8469   9.373   3.874   0.688 -0.7561  0.7295 -0.1804
  787MOL0     C 8470   9.261   3.835   0.664 -0.5395 -0.1684 -0.9215
  787MOL0     O 8471   9.146   3.854   0.744 -0.6803  0.1532 -0.0518
  787MOL0     C 8472   9.166   3.907   0.869 -0.7307 -0.3184  0.1576
  787MOL0     C 8473   9.126   4.041   0.898  0.6044  0.1806  0.6137
  787MOL0     C 8474   9.162   4.101   1.016 -1.3578  1.0072  0.5386
  787MOL0     C 8475   9.228   4.032   1.120 -0.2608 -1.1536  0.2198
  787MOL0     O 8476   9.244   4.107   1.232 -0.6536  0.5747 -0.5150
  787MOL0     C 8477   9.252   4.046   1.363  0.8588 -0.5618  0.6152
  787MOL0     C 8478   9.233   4.144   1.480 -0.7994  0.2992 -0.8196
  787MOL0     C 8479   9.085   4.198   1.476  0.3150 -0.1271 -0.1988
  787MOL0     C 8480   9.073   4.285   1.601 -0.1457  0.3134  0.2605
  787MOL0     C 8481   8.941   4.357   1.625  0.2525  0.0393 -0.0646
  787MOL0     C 8482   8.894   4.445   1.499 -0.0588  0.6490 -0.3543
  787MOL0     C 8483   8.765   4.516   1.542 -0.6992 -0.6745 -0.2915
  787MOL0     C 8484   8.805   4.657   1.603  0.8335  0.4541 -0.3781
  787MOL0     N 8485   8.689   4.754   1.609  0.3665  0.0832  0.6511
  787MOL0     C 8486   8.582   4.743   1.696 -0.0450  0.0227 -0.2117
  787MOL0     C 8487   8.523   4.855   1.667  0.8677 -0.5089  1.1350
  787MOL0     C 8488   8.387   4.907   1.725 -0.6609  0.3167  0.6724
  787MOL0     C 8489   8.351   4.833   1.846  0.2708  0.1207 -0.2919
  787MOL0     C 8490   8.447   4.884   1.960  1.1368  0.3274 -0.3187
  787MOL0     C 8491   8.476   4.780   2.058  0.4818 -0.3512  1.2040
  787MOL0     O 8492   8.346   4.727   2.098 -0.3049 -0.4277 -0.0601
  787MOL0     C 8493   8.299   4.745   2.225 -0.0468  0.2414 -0.0518
  787MOL0     C 8494   8.373   4.773   2.338 -0.4481  0.4220 -0.6594
  787MOL0     C 8495   8.313   4.784   2.465  0.0498 -0.4240 -0.1082
  787MOL0     C 8496   8.398   4.790   2.585 -0.4366 -0.1288 -0.5613
  787MOL0     C 8497   8.178   4.781   2.474 -1.0425  0.1833  1.2664
  787MOL0     C 8498   8.100   4.803   2.600  0.2885 -0.2289  0.7768
  787MOL0     O 8499   8.154   4.888   2.694 -0.6153  0.2070  0.2816
  787MOL0     C 8500   8.085   4.912   2.807 -0.4300 -0.1710  0.4723
  787MOL0     C 8501   8.048   5.046   2.832  0.1386  0.2022 -0.3288
  787MOL0     C 8502   8.011   5.082   2.960 -0.8450 -0.7213  0.9370
  787MOL0     C 8503   8.027   4.999   3.075  0.2649  0.1215 -0.4499
  787MOL0     O 8504   8.009   5.040   3.204 -0.7762 -1.1566  1.0817
  787MOL0     C 8505   7.955   4.951   3.303 -0.2257  0.4301 -1.3940
  787MOL0     C 8506   7.876   5.017   3.413 -0.0596 -0.0648 -0.2324
  787MOL0     C 8507   7.745   5.088   3.369 -0.5126  0.0762  0.9989
  787MOL0     C 8508   7.641   5.097   3.473 -0.1117 -0.2283  0.5687
  787MOL0     C 8509   7.502   5.123   3.417  0.1154 -0.0500  0.5265
  787MOL0     C 8510   7.399   5.100   3.527 -0.3092  0.7618  0.3785
  787MOL0     C 8511   7.258   5.135   3.487 -0.2618  0.8180 -0.7295
  787MOL0     C 8512   7.166   5.122   3.602 -0.2881 -0.7125  0.3886
  787MOL0    Cl 8513   7.144   4.954   3.668 -0.4666 -0.2720 -0.0824
  787MOL0     C 8514   8.058   4.862   3.043 -0.0259  0.0245 -1.1225
  787MOL0     C 8515   8.084   4.815   2.912  0.1682  0.4895 -0.1056
  787MOL0     O 8516   7.985   4.760   2.611 -0.3607  0.0479 -0.0132
  787MOL0     C 8517   8.105   4.762   2.355 -0.5222  0.1663  0.8555
  787MOL0     C 8518   8.164   4.754   2.228 -0.3344  0.4949 -0.3682
  787MOL0     N 8519   8.589   4.922   1.568  0.1872  0.0998  0.3047
  787MOL0     N 8520   8.680   4.855   1.515 -0.6645  0.8319  0.5669
  787MOL0     C 8521   9.260   3.897   1.088  0.7417 -0.4326  1.0598
  787MOL0     C 8522   9.238   3.838   0.962 -0.0746  0.4739  0.1778
  787MOL0     C 8523   9.235   3.759   0.541 -1.0768 -0.0835  0.1402
  787MOL0     C 8524   9.111   3.794   0.469  0.7070 -0.2209  0.5592
  787MOL0     C 8525   9.081   3.736   0.348 -0.0181  0.9448 -0.4688
  787MOL0     C 8526   9.175   3.638   0.292  1.0541 -0.7507 -0.2679
  787MOL0     O 8527   9.164   3.575   0.166  0.1013 -0.3051  0.2120
  787MOL0     C 8528   9.032   3.545   0.134  0.0971  0.0971 -0.1150
  787MOL0     C 8529   9.030   3.464   0.014 -0.6057 -0.7599  0.1959
  787MOL0     C 8530   8.893   3.416  -0.030 -0.4627  0.7964  0.2838
  787MOL0     C 8531   8.868   3.399  -0.182 -0.8677  0.3202  0.0744
  787MOL0     C 8532   8.731   3.405  -0.214  0.7788  0.2465  0.3714
  787MOL0     C 8533   8.609   3.404  -0.221 -0.0715  0.5609 -0.5529
  787MOL0     C 8534   9.284   3.599   0.372 -0.1202  0.5588 -0.3810
  787MOL0     C 8535   9.322   3.667   0.489 -0.2507  0.3126  0.5465
  787MOL0     C 8536   9.444   3.603   0.560 -0.6202  0.2982  0.8553
  787MOL0     H 8537   9.084   4.097   0.815  0.5233  0.1589  0.6390
  787MOL0     H 8538   9.146   4.207   1.034 -2.1576  1.0979 -0.6249
  787MOL0     H 8539   9.357   4.018   1.373  0.7397 -0.4807  2.3887
  787MOL0     H 8540   9.176   3.967   1.357 -2.7955  2.6053  1.5182
  787MOL0     H 8541   9.260   4.091   1.572 -1.2367 -1.4980 -1.6671
  787MOL0     H 8542   9.300   4.229   1.465 -0.7324  0.6003  0.9848
  787MOL0     H 8543   9.050   4.251   1.387 -1.1357 -3.6310 -1.9291
  787MOL0     H 8544   9.014   4.117   1.497  1.6954 -1.5353 -0.7514
  787MOL0     H 8545   9.086   4.216   1.685 -1.1484  0.3629  0.4663
  787MOL0     H 8546   9.157   4.355   1.593  0.3645 -0.5091 -3.2429
  787MOL0     H 8547   8.959   4.423   1.710  2.9733  0.8412 -1.1327
  787MOL0     H 8548   8.862   4.285   1.650 -1.2191  1.3102 -0.8808
  787MOL0     H 8549   8.963   4.522   1.465  0.4315  2.5389  4.2529
  787MOL0     H 8550   8.874   4.388   1.407  2.0726  3.8537 -3.0548
  787MOL0     H 8551   8.734   4.459   1.629  2.6050 -1.2470  0.6718
  787MOL0     H 8552   8.687   4.534   1.468  0.5801 -1.9079 -2.0394
  787MOL0     H 8553   8.846   4.634   1.701 -2.9817 -1.1822  1.0118
  787MOL0     H 8554   8.885   4.708   1.548 -0.0370  2.9074  0.4675
  787MOL0     H 8555   8.562   4.657   1.758 -0.8979 -1.3992 -2.3640
  787MOL0     H 8556   8.312   4.900   1.645  1.7029 -0.3056 -1.6422
  787MOL0     H 8557   8.403   5.013   1.744 -2.8526  0.6825  0.8176
  787MOL0     H 8558   8.250   4.862   1.877  0.7126  1.4688 -0.0400
  787MOL0     H 8559   8.351   4.725   1.832 -0.5267  0.1259 -0.4024
  787MOL0     H 8560   8.541   4.921   1.919  3.0360 -2.6367  1.0745
  787MOL0     H 8561   8.388   4.959   2.015 -0.9763 -0.6406 -1.1471
  787MOL0     H 8562   8.550   4.707   2.024  2.5692  2.5105 -0.9326
  787MOL0     H 8563   8.518   4.830   2.146 -0.1519  3.0561 -0.2591
  787MOL0     H 8564   8.481   4.781   2.339 -0.3037 -0.7015 -2.5685
  787MOL0     H 8565   8.497   4.745   2.570 -1.1671 -1.5983 -1.1424
  787MOL0     H 8566   8.364   4.744   2.678  0.0694  1.6536  0.5587
  787MOL0     H 8567   8.424   4.894   2.609 -1.2863 -0.1320  0.4488
  787MOL0     H 8568   8.058   5.123   2.757 -0.1274 -0.2691 -0.8523
  787MOL0     H 8569   7.963   5.178   2.979 -1.1946 -0.5599 -0.6567
  787MOL0     H 8570   7.906   4.863   3.259  1.8028  0.4382 -3.8698
  787MOL0     H 8571   8.044   4.917   3.356  0.1027  1.9608 -0.9296
  787MOL0     H 8572   7.851   4.949   3.495  0.7996 -0.2213 -0.0962
  787MOL0     H 8573   7.939   5.082   3.474  1.8693 -4.1826  2.6229
  787MOL0     H 8574   7.704   5.037   3.282  1.5843 -0.9061  0.5148
  787MOL0     H 8575   7.777   5.190   3.347  2.2507 -0.3752  2.4166
  787MOL0     H 8576   7.675   5.166   3.551 -1.1554 -1.2793  1.9734
  787MOL0     H 8577   7.643   4.996   3.514 -0.0920 -0.6504 -0.4418
  787MOL0     H 8578   7.490   5.224   3.376 -1.2905  0.5914  2.3719
  787MOL0     H 8579   7.482   5.047   3.341 -0.4115 -1.7411  2.2942
  787MOL0     H 8580   7.428   5.160   3.613 -0.6213  0.6242  0.5811
  787MOL0     H 8581   7.405   4.994   3.555  0.0568  0.1124 -1.9249
  787MOL0     H 8582   7.219   5.076   3.404 -5.2510 -0.2947  1.9781
  787MOL0     H 8583   7.254   5.236   3.446  1.2171  2.1436  2.0545
  787MOL0     H 8584   7.070   5.156   3.564 -1.7604  0.3559  4.5017
  787MOL0     H 8585   7.204   5.185   3.684  0.6537 -0.5663 -0.1436
  787MOL0     H 8586   8.057   4.788   3.123 -2.2709  1.1187 -0.0191
  787MOL0     H 8587   8.115   4.712   2.898  0.2823 -0.5124  5.1668
  787MOL0     H 8588   7.997   4.769   2.365 -0.7366 -0.9324 -0.4722
  787MOL0     H 8589   8.107   4.748   2.136 -1.0859  0.4265  0.0916
  787MOL0     H 8590   9.316   3.839   1.160  0.2790 -1.5152  0.5738
  787MOL0     H 8591   9.292   3.746   0.944  1.7779  1.8433 -1.8084
  787MOL0     H 8592   9.044   3.879   0.480 -0.4457 -1.0080 -0.1962
  787MOL0     H 8593   9.007   3.768   0.275 -2.3803 -3.4627 -0.3495
  787MOL0     H 8594   8.983   3.490   0.215 -2.4617  2.0067 -0.2458
  787MOL0     H 8595   8.979   3.638   0.110  1.8683  0.5155 -3.0729
  787MOL0     H 8596   9.089   3.378   0.045  1.3920  1.3623  2.7607
  787MOL0     H 8597   9.081   3.517  -0.067 -0.4686 -2.6103 -0.9825
  787MOL0     H 8598   8.871   3.320   0.018  1.0353  0.5142  0.4549
  787MOL0     H 8599   8.816   3.486   0.004 -1.4072 -0.0136 -0.1183
  787MOL0     H 8600   8.906   3.300  -0.209  0.3818  0.8164 -0.0737
  787MOL0     H 8601   8.923   3.471  -0.242  1.0415 -1.0398  0.1001
  787MOL0     H 8602   8.510   3.446  -0.219  0.9597  3.3578 -2.2888
  787MOL0     H 8603   9.337   3.505   0.358  1.8665  1.4431  0.6800
  787MOL0     H 8604   9.490   3.687   0.613 -2.5706  1.4862  0.7435
  787MOL0     H 8605   9.408   3.530   0.633 -0.7967  1.6539  2.1847
  787MOL0     H 8606   9.512   3.556   0.488 -2.3091  1.8148 -1.8809
  788MOL0     O 8607   9.721   6.361   4.491  0.6475 -0.6405 -0.0166
  788MOL0     C 8608   9.647   6.272   4.451  0.0538  0.1335  0.4458
  788MOL0     O 8609   9.521   6.281   4.406  0.3215 -0.4880 -0.3153
  788MOL0     C 8610   9.465   6.401   4.362  0.5017 -0.4789  0.6890
  788MOL0     C 8611   9.364   6.378   4.273  0.9094  1.0164 -0.0212
  788MOL0     C 8612   9.302   6.479   4.198  0.0502 -1.1777  0.1200
  788MOL0     C 8613   9.333   6.609   4.230  0.4754 -0.4667 -1.1980
  788MOL0     O 8614   9.257   6.713   4.190  0.9488  0.6216  0.9497
  788MOL0     C 8615   9.215   6.711   4.039 -0.5305  0.5546 -0.1753
  788MOL0     C 8616   9.059   6.734   4.021 -0.6495  0.0098  0.1743
  788MOL0     C 8617   9.019   6.878   4.066 -0.8683 -0.4339  0.3225
  788MOL0     C 8618   8.914   6.950   3.976 -0.6792 -0.1029  0.1791
  788MOL0     C 8619   8.851   7.071   4.048  0.5424  0.0201  0.9270
  788MOL0     C 8620   8.782   7.172   3.958  0.8901 -0.8703 -0.3827
  788MOL0     C 8621   8.722   7.290   4.038 -0.4302 -0.0433 -0.2519
  788MOL0     C 8622   8.601   7.252   4.117  1.0527  0.5546  0.4437
  788MOL0     N 8623   8.487   7.241   4.023  0.0489  0.3580 -0.5441
  788MOL0     C 8624   8.401   7.140   3.984 -0.0105  0.5754 -0.2676
  788MOL0     C 8625   8.310   7.202   3.899 -0.2081 -0.5717  0.6340
  788MOL0     C 8626   8.196   7.134   3.818  0.4157  0.9246 -0.6138
  788MOL0     C 8627   8.149   7.220   3.695 -0.0576  0.3565 -0.1756
  788MOL0     C 8628   8.255   7.204   3.586  0.7254  0.2660 -1.5939
  788MOL0     C 8629   8.206   7.284   3.465  0.0475 -0.2406  0.2908
  788MOL0     O 8630   8.318   7.283   3.370 -0.5493 -0.5420 -0.3092
  788MOL0     C 8631   8.294   7.328   3.238  0.2292 -0.3943  0.2445
  788MOL0     C 8632   8.176   7.393   3.203  0.1179 -0.6076  0.3844
  788MOL0     C 8633   8.135   7.428   3.070 -0.0923  0.2080  0.2694
  788MOL0     C 8634   8.008   7.497   3.058  0.5113 -0.5829 -0.9921
  788MOL0     C 8635   8.234   7.402   2.971 -1.1057  0.1098  0.0774
  788MOL0     C 8636   8.224   7.442   2.826 -0.3682  0.3611  0.5499
  788MOL0     O 8637   8.313   7.396   2.729  1.2413  0.6117  0.4438
  788MOL0     C 8638   8.283   7.427   2.591  0.1527  0.0540 -0.7425
  788MOL0     C 8639   8.281   7.316   2.500 -0.0395 -0.0567  0.9929
  788MOL0     C 8640   8.248   7.337   2.361 -0.2374 -0.8103  0.1773
  788MOL0     C 8641   8.227   7.469   2.325  0.4340 -0.4881 -0.8259
  788MOL0     O 8642   8.194   7.513   2.206 -0.6498  0.3087  0.3820
  788MOL0     C 8643   8.096   7.440   2.143  0.1979 -0.1655 -0.1006
  788MOL0     C 8644   8.002   7.535   2.074  0.6164 -0.8739  0.1946
  788MOL0     C 8645   7.876   7.450   2.036  0.4854  0.2340 -0.6126
  788MOL0     C 8646   7.746   7.525   1.988  0.3354 -0.3162 -0.0192
  788MOL0     C 8647   7.629   7.432   2.017  0.0076  0.2143 -0.8012
  788MOL0     C 8648   7.648   7.287   1.970 -0.8908  0.2771 -0.6651
  788MOL0     C 8649   7.521   7.215   2.000  0.0761 -0.3094 -0.4831
  788MOL0     C 8650   7.529   7.061   1.975  0.3840  0.0424 -1.0789
  788MOL0    Cl 8651   7.578   7.018   1.809 -0.0010  0.4499 -0.2700
  788MOL0     C 8652   8.235   7.577   2.407  0.1803 -0.4842 -0.7563
  788MOL0     C 8653   8.251   7.557   2.550 -0.1793  0.5235 -0.0593
  788MOL0     O 8654   8.127   7.511   2.801 -0.4365 -0.8483 -0.2816
  788MOL0     C 8655   8.357   7.326   3.008  0.3379 -0.5832  0.3925
  788MOL0     C 8656   8.376   7.292   3.139 -0.6805  0.3029  0.5531
  788MOL0     N 8657   8.337   7.335   3.901  0.9561  0.3368  0.1604
  788MOL0     N 8658   8.438   7.356   3.978  0.2030 -0.6655  0.9142
  788MOL0     C 8659   9.439   6.628   4.318 -0.8740  0.4856 -0.1963
  788MOL0     C 8660   9.500   6.526   4.387 -0.6251 -0.6992 -0.5377
  788MOL0     C 8661   9.699   6.138   4.467  0.7742  0.5744 -0.1936
  788MOL0     C 8662   9.613   6.030   4.471 -0.3623  1.0363  0.9859
  788MOL0     C 8663   9.661   5.900   4.501  0.1206  0.0252  0.4766
  788MOL0     C 8664   9.794   5.873   4.492 -1.0395  0.0848 -0.3296
  788MOL0     O 8665   9.839   5.747   4.529 -0.3948  0.0130  0.0606
  788MOL0     C 8666   9.978   5.725   4.554  0.0190 -0.5447 -0.1591
  788MOL0     C 8667  10.041   5.684   4.415 -0.2671 -0.1184  0.3387
  788MOL0     C 8668  10.197   5.663   4.431 -0.5732  0.5537  0.1305
  788MOL0     C 8669  10.252   5.610   4.300  0.0245  0.3331 -0.1825
  788MOL0     C 8670  10.394   5.641   4.300 -0.0657  0.7020 -0.1636
  788MOL0     C 8671  10.512   5.663   4.313 -0.1556  0.4322  0.5247
  788MOL0     C 8672   9.880   5.979   4.475 -0.5078  0.1843  0.2217
  788MOL0     C 8673   9.842   6.110   4.466  0.1527 -0.7081 -0.8196
  788MOL0     C 8674   9.954   6.206   4.495 -0.5197 -0.4324 -0.3034
  788MOL0     H 8675   9.334   6.275   4.255  0.4080  1.3244 -0.9826
  788MOL0     H 8676   9.221   6.464   4.127  1.7152 -1.3840 -1.8106
  788MOL0     H 8677   9.244   6.617   3.992 -0.9323  0.0725  0.5290
  788MOL0     H 8678   9.267   6.788   3.981 -1.3156  0.8018 -0.5745
  788MOL0     H 8679   9.033   6.722   3.915  0.5630 -0.2853 -0.1070
  788MOL0     H 8680   9.000   6.659   4.074  1.3098 -1.5101  0.3192
  788MOL0     H 8681   8.975   6.877   4.166 -0.4956  2.2685  0.5958
  788MOL0     H 8682   9.111   6.936   4.073  0.1318 -2.0220  0.8224
  788MOL0     H 8683   8.954   6.991   3.882 -0.8108  2.1886  1.0541
  788MOL0     H 8684   8.841   6.875   3.942 -0.4242 -0.0876 -0.4091
  788MOL0     H 8685   8.931   7.118   4.106  0.5939  4.1802 -2.0081
  788MOL0     H 8686   8.784   7.033   4.125  0.8408 -0.5968  0.8902
  788MOL0     H 8687   8.848   7.200   3.876  0.5421  2.0597  0.2415
  788MOL0     H 8688   8.698   7.116   3.916  0.5954 -1.0676  0.4418
  788MOL0     H 8689   8.695   7.363   3.961  3.0375  1.5069 -0.2109
  788MOL0     H 8690   8.798   7.328   4.107 -3.6228  1.7475  2.5625
  788MOL0     H 8691   8.617   7.158   4.170  0.0149  1.1604  1.8986
  788MOL0     H 8692   8.592   7.322   4.201 -2.6135 -0.0496  0.7298
  788MOL0     H 8693   8.402   7.037   4.018 -0.1199  0.3308 -0.9819
  788MOL0     H 8694   8.106   7.107   3.874  1.9881 -1.1882  1.0582
  788MOL0     H 8695   8.229   7.040   3.773 -2.0910  0.9355 -2.7279
  788MOL0     H 8696   8.056   7.179   3.656  1.0264 -1.1449 -1.2843
  788MOL0     H 8697   8.129   7.322   3.731  0.5120  0.7994 -1.0698
  788MOL0     H 8698   8.351   7.245   3.619  2.8661 -1.5122 -5.0122
  788MOL0     H 8699   8.274   7.101   3.554 -1.6910 -0.3774 -1.1624
  788MOL0     H 8700   8.117   7.245   3.414 -0.3872  2.7985 -1.5259
  788MOL0     H 8701   8.183   7.387   3.495 -1.2794 -0.2876 -0.4570
  788MOL0     H 8702   8.106   7.419   3.282  0.6381  1.7067  0.1599
  788MOL0     H 8703   7.975   7.522   3.159  2.0192  0.5395 -0.7403
  788MOL0     H 8704   7.931   7.448   2.997 -1.8250 -0.8303  1.9294
  788MOL0     H 8705   8.043   7.589   3.010  4.8642 -1.8424 -0.6399
  788MOL0     H 8706   8.298   7.216   2.537 -1.0407  0.0392  1.7487
  788MOL0     H 8707   8.246   7.258   2.287  4.1607 -0.2462 -0.8262
  788MOL0     H 8708   8.155   7.398   2.061  0.7184  1.6045 -0.6787
  788MOL0     H 8709   8.046   7.360   2.197 -2.1737  1.4379  0.2526
  788MOL0     H 8710   7.970   7.620   2.135 -1.4151 -0.3343 -1.4816
  788MOL0     H 8711   8.051   7.581   1.987  0.3646 -0.5390  0.2279
  788MOL0     H 8712   7.851   7.381   2.117  1.0688 -0.7225 -1.2276
  788MOL0     H 8713   7.905   7.377   1.960 -1.8748 -1.8833  0.3747
  788MOL0     H 8714   7.756   7.529   1.879 -0.5411  0.0349 -0.0943
  788MOL0     H 8715   7.734   7.620   2.039 -0.4790 -0.4515  0.0585
  788MOL0     H 8716   7.611   7.416   2.124 -1.5181  1.3382 -0.8718
  788MOL0     H 8717   7.534   7.470   1.981 -0.0485 -0.5851 -1.5327
  788MOL0     H 8718   7.730   7.234   2.020 -0.4776  2.1510  0.7466
  788MOL0     H 8719   7.664   7.293   1.862 -1.3222 -1.4336 -0.8670
  788MOL0     H 8720   7.437   7.266   1.951 -1.3843  2.7361  4.4154
  788MOL0     H 8721   7.508   7.224   2.108  3.1796 -1.7944  0.1089
  788MOL0     H 8722   7.428   7.027   2.001  1.1916 -2.3192 -0.7488
  788MOL0     H 8723   7.592   7.012   2.050  0.1630  0.8925 -0.3171
  788MOL0     H 8724   8.201   7.669   2.361 -5.5911 -1.6857  0.2543
  788MOL0     H 8725   8.229   7.640   2.617 -1.4133  2.2095 -2.4059
  788MOL0     H 8726   8.425   7.280   2.938  0.4766  0.6764 -0.3364
  788MOL0     H 8727   8.465   7.236   3.167  1.4731  2.2302 -1.8880
  788MOL0     H 8728   9.472   6.726   4.351 -1.3399 -0.0258  1.9555
  788MOL0     H 8729   9.581   6.538   4.459 -1.4561  0.0410  0.3088
  788MOL0     H 8730   9.510   6.063   4.467 -0.1440  1.6215 -0.1036
  788MOL0     H 8731   9.582   5.829   4.523  0.5089 -1.2626 -1.9043
  788MOL0     H 8732  10.034   5.804   4.605  1.4426 -2.0891  0.7907
  788MOL0     H 8733   9.977   5.640   4.623  0.8190  0.7877  1.5534
  788MOL0     H 8734  10.041   5.765   4.343 -0.4070  0.5311  1.0554
  788MOL0     H 8735   9.986   5.605   4.363  1.0835  0.1838 -1.6629
  788MOL0     H 8736  10.240   5.762   4.448 -0.2062  0.2629  0.9153
  788MOL0     H 8737  10.211   5.602   4.521  1.4411  3.3584  1.8678
  788MOL0     H 8738  10.195   5.656   4.219  0.1004 -0.0339 -0.4471
  788MOL0     H 8739  10.242   5.502   4.290 -0.6438  0.2744  0.8775
  788MOL0     H 8740  10.619   5.664   4.303 -0.1114 -1.0499  0.6235
  788MOL0     H 8741   9.984   5.948   4.468  0.2259  1.0613  4.3715
  788MOL0     H 8742  10.032   6.162   4.557 -2.1669 -2.5069  0.4067
  788MOL0     H 8743  10.004   6.242   4.405 -2.6625  2.2720 -0.5669
  788MOL0     H 8744   9.928   6.295   4.554 -0.7643 -1.0018  0.4614
  789MOL0     O 8745  11.377  10.737   0.857 -0.7163 -0.2063 -0.2480
  789MOL0     C 8746  11.329  10.711   0.970 -0.8091  0.2618 -0.1793
  789MOL0     O 8747  11.212  10.759   1.021 -0.2309 -0.1997 -0.1009
  789MOL0     C 8748  11.131  10.826   0.932  0.2771  0.8509  0.5218
  789MOL0     C 8749  11.109  10.962   0.930  0.5130 -0.7494  0.2405
  789MOL0     C 8750  11.036  11.027   0.833 -0.3526  0.8718  1.2243
  789MOL0     C 8751  10.993  10.944   0.725  0.4262 -0.1091 -0.5169
  789MOL0     O 8752  10.907  10.991   0.628 -0.8494 -0.3451  0.6004
  789MOL0     C 8753  10.777  10.924   0.618  0.3362 -0.6537 -0.7710
  789MOL0     C 8754  10.667  11.028   0.599  0.1988  0.4073  0.3223
  789MOL0     C 8755  10.672  11.101   0.465  0.6024  0.4890  0.1086
  789MOL0     C 8756  10.540  11.164   0.417  0.1026 -0.5347 -1.0247
  789MOL0     C 8757  10.487  11.247   0.530 -0.2654  0.7947  0.1993
  789MOL0     C 8758  10.381  11.345   0.493 -0.7926 -0.0008  0.0018
  789MOL0     C 8759  10.247  11.279   0.459 -0.7714  0.3754 -0.0723
  789MOL0     C 8760  10.161  11.388   0.390  0.2159 -0.2796  0.0422
  789MOL0     N 8761  10.041  11.331   0.328 -0.6544  0.4421  0.3711
  789MOL0     C 8762   9.962  11.243   0.388  0.1754 -0.7980  0.0399
  789MOL0     C 8763   9.885  11.182   0.292  0.7172  0.5893 -0.1211
  789MOL0     C 8764   9.788  11.069   0.311  0.4684  0.4045 -0.4333
  789MOL0     C 8765   9.780  10.983   0.188 -0.0489 -0.2918  0.2392
  789MOL0     C 8766   9.694  10.860   0.204  0.7956  0.2069  1.0617
  789MOL0     C 8767   9.682  10.798   0.064  0.6521 -0.0456  0.3702
  789MOL0     O 8768   9.592  10.686   0.056  0.2997  0.1378  0.3623
  789MOL0     C 8769   9.599  10.607  -0.054  0.3826 -1.1692  0.1680
  789MOL0     C 8770   9.497  10.505  -0.061 -0.6288  0.5614 -0.2521
  789MOL0     C 8771   9.490  10.418  -0.164  0.0819  0.7348 -0.0126
  789MOL0     C 8772   9.383  10.312  -0.128  0.4449 -0.8795 -0.5842
  789MOL0     C 8773   9.579  10.430  -0.276 -0.0539  0.7347  0.5164
  789MOL0     C 8774   9.593  10.328  -0.378 -0.3338 -0.2547  0.3601
  789MOL0     O 8775   9.679  10.372  -0.475  0.3991  0.2554  0.4272
  789MOL0     C 8776   9.698  10.288  -0.579 -0.1819 -0.0292 -1.3312
  789MOL0     C 8777   9.792  10.187  -0.551 -0.3781  0.1197 -0.2811
  789MOL0     C 8778   9.833  10.094  -0.643  0.2125 -0.4649  0.0003
  789MOL0     C 8779   9.764  10.096  -0.769  0.0820  0.2663  1.0233
  789MOL0     O 8780   9.803  10.000  -0.868  0.3600  0.6914  0.2638
  789MOL0     C 8781   9.699   9.920  -0.932 -0.6720 -0.7758  0.2065
  789MOL0     C 8782   9.620   9.834  -0.839 -0.5592 -0.4638  0.2276
  789MOL0     C 8783   9.682   9.688  -0.836 -0.2674 -0.5272  0.5583
  789MOL0     C 8784   9.592   9.603  -0.757  0.9022 -1.3777 -0.7614
  789MOL0     C 8785   9.654   9.463  -0.753  0.0833  0.5093  0.2311
  789MOL0     C 8786   9.563   9.364  -0.670  0.1969  0.0612 -0.0865
  789MOL0     C 8787   9.498   9.417  -0.543 -0.3096 -0.8592 -0.1924
  789MOL0     C 8788   9.476   9.307  -0.448 -0.0525 -0.3948 -0.0003
  789MOL0    Cl 8789   9.475   9.377  -0.279  0.7608 -0.2230  0.1472
  789MOL0     C 8790   9.666  10.199  -0.793 -0.9834 -0.0351  0.0100
  789MOL0     C 8791   9.629  10.285  -0.699 -0.0314 -0.5828 -0.8661
  789MOL0     O 8792   9.539  10.222  -0.371  0.4135  0.3248  0.7730
  789MOL0     C 8793   9.681  10.532  -0.271  0.0402 -0.3829  0.5943
  789MOL0     C 8794   9.697  10.623  -0.156  0.1066  0.6339  0.1988
  789MOL0     N 8795   9.915  11.242   0.170 -0.0944 -0.6990  0.5352
  789MOL0     N 8796  10.018  11.320   0.192  0.4861 -0.0769  0.0531
  789MOL0     C 8797  11.005  10.807   0.725 -0.4415  0.2545 -0.5799
  789MOL0     C 8798  11.075  10.745   0.822 -0.3689  0.3519  1.2933
  789MOL0     C 8799  11.429  10.648   1.063  0.1484  0.6228 -0.1809
  789MOL0     C 8800  11.395  10.636   1.207  0.2238  0.2524  0.1311
  789MOL0     C 8801  11.478  10.577   1.289 -0.4306  0.8045  0.8614
  789MOL0     C 8802  11.614  10.555   1.259 -0.2095  0.1355  0.5301
  789MOL0     O 8803  11.688  10.507   1.362 -0.0339  0.4231  0.0818
  789MOL0     C 8804  11.806  10.431   1.334 -0.0232 -0.1156 -0.5911
  789MOL0     C 8805  11.912  10.521   1.292  0.7139  0.5497  0.4912
  789MOL0     C 8806  12.033  10.526   1.381 -0.5501  0.0088  0.3776
  789MOL0     C 8807  12.009  10.539   1.534 -0.4556  0.1541  0.1107
  789MOL0     C 8808  12.017  10.415   1.599 -0.3312 -0.2764 -0.7433
  789MOL0     C 8809  12.005  10.317   1.677 -0.8754  0.6224  0.7330
  789MOL0     C 8810  11.649  10.549   1.119  0.3328 -0.3578  0.8382
  789MOL0     C 8811  11.557  10.590   1.018 -0.1872 -0.3739 -0.3733
  789MOL0     C 8812  11.606  10.574   0.878  0.3751 -0.1136 -0.7738
  789MOL0     H 8813  11.143  11.021   1.014  1.8935 -1.0163 -0.1151
  789MOL0     H 8814  11.025  11.135   0.834 -1.2998  0.9630 -2.7888
  789MOL0     H 8815  10.748  10.872   0.709 -2.0427  0.7027 -0.6803
  789MOL0     H 8816  10.777  10.858   0.531 -0.4592 -0.6750 -0.7622
  789MOL0     H 8817  10.568  10.981   0.601 -1.0713  2.2814 -4.3789
  789MOL0     H 8818  10.671  11.104   0.677  1.9218  0.6551  0.0302
  789MOL0     H 8819  10.741  11.184   0.483  0.0869  1.0665 -0.4807
  789MOL0     H 8820  10.710  11.034   0.387  0.7943 -2.1064  2.2805
  789MOL0     H 8821  10.576  11.222   0.331  1.4808  0.7210  0.3307
  789MOL0     H 8822  10.465  11.093   0.383 -0.9814  1.0881 -2.1541
  789MOL0     H 8823  10.571  11.304   0.570  1.4328 -0.6259 -1.1665
  789MOL0     H 8824  10.438  11.186   0.607 -1.4156 -1.7011 -2.3292
  789MOL0     H 8825  10.371  11.431   0.559 -1.0398  0.9778 -1.2556
  789MOL0     H 8826  10.414  11.391   0.399  1.0814  0.5896  0.8933
  789MOL0     H 8827  10.210  11.227   0.548 -3.2867  1.4165 -0.4281
  789MOL0     H 8828  10.278  11.209   0.380  2.2230  1.9591 -0.4276
  789MOL0     H 8829  10.130  11.460   0.467 -0.4678 -0.7205  0.1872
  789MOL0     H 8830  10.222  11.430   0.309  0.8375 -0.4912  0.3998
  789MOL0     H 8831   9.954  11.216   0.493 -1.6903 -0.4742  0.0097
  789MOL0     H 8832   9.689  11.105   0.342  1.0856  1.6811  0.1201
  789MOL0     H 8833   9.819  11.003   0.392 -1.4625 -1.4347 -1.1083
  789MOL0     H 8834   9.733  11.037   0.106 -0.6397 -0.0286  0.7478
  789MOL0     H 8835   9.879  10.960   0.146  0.8722  0.9209  1.6632
  789MOL0     H 8836   9.736  10.789   0.275 -0.8128 -0.3384  1.5044
  789MOL0     H 8837   9.598  10.888   0.248  0.4249  0.1691  0.2918
  789MOL0     H 8838   9.665  10.882  -0.005 -0.1121  0.5979  1.3281
  789MOL0     H 8839   9.782  10.760   0.044  0.0660 -0.2625 -2.6289
  789MOL0     H 8840   9.422  10.488   0.016 -2.3216 -4.0122 -2.4888
  789MOL0     H 8841   9.414  10.207  -0.130 -0.0701 -1.0833  0.9747
  789MOL0     H 8842   9.300  10.330  -0.197 -1.3905 -0.3988  1.6391
  789MOL0     H 8843   9.336  10.329  -0.031  0.5484  2.6914 -1.0019
  789MOL0     H 8844   9.826  10.178  -0.448 -3.4584 -2.0318  0.7115
  789MOL0     H 8845   9.905  10.015  -0.627  1.8985  0.0074 -4.0744
  789MOL0     H 8846   9.631   9.990  -0.981 -1.3302 -3.6872 -3.4165
  789MOL0     H 8847   9.742   9.857  -1.010 -0.2000  0.0089 -0.1796
  789MOL0     H 8848   9.628   9.868  -0.735  0.8632  2.8036 -0.8225
  789MOL0     H 8849   9.514   9.827  -0.868  0.0464  1.2209 -2.8267
  789MOL0     H 8850   9.779   9.697  -0.786 -0.3494 -0.3486  0.6870
  789MOL0     H 8851   9.695   9.656  -0.939 -1.5133 -1.1725  0.5952
  789MOL0     H 8852   9.495   9.604  -0.808  0.7320  0.5479 -0.4702
  789MOL0     H 8853   9.576   9.639  -0.655 -0.8473 -3.6623 -0.1587
  789MOL0     H 8854   9.661   9.432  -0.858  2.8216  1.9961 -0.1404
  789MOL0     H 8855   9.751   9.464  -0.702  0.4730  0.3414 -0.4928
  789MOL0     H 8856   9.615   9.271  -0.645 -1.5217 -0.6566  0.9471
  789MOL0     H 8857   9.475   9.331  -0.726  0.3502 -1.0738  0.3142
  789MOL0     H 8858   9.402   9.470  -0.550  0.8974  1.4553 -0.2745
  789MOL0     H 8859   9.573   9.487  -0.506  2.1321 -3.0114 -0.7898
  789MOL0     H 8860   9.538   9.218  -0.465 -2.6643 -2.3154 -0.1744
  789MOL0     H 8861   9.382   9.258  -0.475 -0.6160  1.2158 -1.0691
  789MOL0     H 8862   9.608  10.201  -0.884  0.2706 -0.0758 -0.8165
  789MOL0     H 8863   9.549  10.358  -0.712  0.1369 -0.7176 -3.1974
  789MOL0     H 8864   9.750  10.543  -0.354 -0.0987 -0.1508  0.5074
  789MOL0     H 8865   9.784  10.687  -0.146  2.2619 -1.9560 -0.9058
  789MOL0     H 8866  10.959  10.748   0.646  1.1925  0.0636 -1.4357
  789MOL0     H 8867  11.080  10.637   0.815 -2.5296  0.1786  1.6951
  789MOL0     H 8868  11.305  10.688   1.238 -0.5943  0.2278 -1.9912
  789MOL0     H 8869  11.458  10.575   1.396 -0.8392  0.5213  0.7827
  789MOL0     H 8870  11.840  10.376   1.423 -0.9628 -0.0590 -0.1796
  789MOL0     H 8871  11.787  10.356   1.257  2.2962  0.3526 -1.6993
  789MOL0     H 8872  11.884  10.623   1.263  0.9436  0.9174  1.5229
  789MOL0     H 8873  11.959  10.474   1.205  1.2466  2.4486 -0.3061
  789MOL0     H 8874  12.095  10.439   1.354 -0.2159  0.9126 -2.0233
  789MOL0     H 8875  12.095  10.606   1.339  0.9984 -0.8141  1.0099
  789MOL0     H 8876  11.910  10.582   1.553 -0.8511 -0.1545 -1.1060
  789MOL0     H 8877  12.095  10.591   1.576  0.6673 -1.2642 -0.3549
  789MOL0     H 8878  12.003  10.237   1.748 -2.8259  0.2184  0.2889
  789MOL0     H 8879  11.746  10.513   1.086 -0.8350 -0.6203 -2.8395
  789MOL0     H 8880  11.696  10.512   0.884  0.8178  0.6646  3.5729
  789MOL0     H 8881  11.531  10.523   0.816  1.7641  0.1720 -2.7973
  789MOL0     H 8882  11.634  10.669   0.831  2.2669 -1.5080 -2.6588
  790MOL0     O 8883   6.557   8.149   9.966 -0.1834  0.9687  0.3191
  790MOL0     C 8884   6.452   8.190   9.921 -0.1533  0.2486 -0.0743
  790MOL0     O 8885   6.372   8.125   9.825  0.1229  0.1051  0.2689
  790MOL0     C 8886   6.415   8.017   9.751 -0.4096 -0.5197  0.1446
  790MOL0     C 8887   6.325   7.945   9.681  0.9163  0.1023  1.7587
  790MOL0     C 8888   6.361   7.828   9.605  0.3527 -1.0973  0.1165
  790MOL0     C 8889   6.493   7.794   9.588 -0.1397 -0.1202 -0.0231
  790MOL0     O 8890   6.523   7.680   9.515 -0.0056  0.4187 -0.0172
  790MOL0     C 8891   6.626   7.694   9.420 -0.1094 -0.5219  0.3926
  790MOL0     C 8892   6.709   7.565   9.405 -0.3561  0.0646 -0.6114
  790MOL0     C 8893   6.635   7.428   9.378  0.1610  0.1979  0.1109
  790MOL0     C 8894   6.726   7.301   9.360 -0.1328  0.0812 -0.2964
  790MOL0     C 8895   6.667   7.173   9.307 -0.3825 -0.1762  0.0641
  790MOL0     C 8896   6.591   7.187   9.177  0.3163  0.5095  0.5012
  790MOL0     C 8897   6.561   7.067   9.089 -1.0266  0.3783 -0.5561
  790MOL0     C 8898   6.447   7.066   8.988 -0.7539 -0.0968 -0.6434
  790MOL0     N 8899   6.323   7.094   9.062 -0.5113  0.1163  0.7822
  790MOL0     C 8900   6.234   6.991   9.095 -0.2595  0.0501 -0.2517
  790MOL0     C 8901   6.121   7.058   9.123  1.2305  0.7895 -0.3440
  790MOL0     C 8902   5.996   7.000   9.178  0.4236 -0.2106  0.3918
  790MOL0     C 8903   5.876   7.014   9.088 -0.1674  0.2401 -1.5739
  790MOL0     C 8904   5.838   7.144   9.036  0.2906 -0.8331  0.7453
  790MOL0     C 8905   5.701   7.126   8.976 -0.1748  0.8277  0.3083
  790MOL0     O 8906   5.595   7.122   9.080 -0.1256  0.4074 -1.0775
  790MOL0     C 8907   5.527   7.221   9.133  0.5116  0.6336 -0.7538
  790MOL0     C 8908   5.408   7.196   9.213  0.2719  0.5172  0.7041
  790MOL0     C 8909   5.330   7.294   9.277  0.0421 -0.6913  0.0487
  790MOL0     C 8910   5.225   7.239   9.369  0.4311  0.0061  0.1436
  790MOL0     C 8911   5.365   7.428   9.242  0.3366 -0.2371  0.0920
  790MOL0     C 8912   5.273   7.538   9.280  0.7004  0.0963  0.0656
  790MOL0     O 8913   5.321   7.667   9.294  0.1592  0.5111 -0.3063
  790MOL0     C 8914   5.235   7.759   9.340 -0.3285  0.1325  0.3061
  790MOL0     C 8915   5.267   7.815   9.466 -0.5600 -0.1560  0.4231
  790MOL0     C 8916   5.196   7.925   9.518  0.8517  0.1375  0.0862
  790MOL0     C 8917   5.083   7.963   9.449 -0.1457  0.6654 -0.4069
  790MOL0     O 8918   4.984   8.028   9.515 -0.3415 -0.0297  0.7270
  790MOL0     C 8919   4.920   8.139   9.440  0.3098 -0.3907 -1.4316
  790MOL0     C 8920   4.911   8.260   9.540  0.1165  0.2963  1.0492
  790MOL0     C 8921   4.871   8.398   9.473 -0.2728 -0.8484  0.3731
  790MOL0     C 8922   4.835   8.510   9.577  0.7989 -0.0908 -0.2170
  790MOL0     C 8923   4.760   8.621   9.504  0.6419 -0.8453  1.1777
  790MOL0     C 8924   4.868   8.720   9.444 -0.8157  0.6918  0.1475
  790MOL0     C 8925   4.808   8.851   9.405  0.5122  0.0804 -0.0230
  790MOL0     C 8926   4.921   8.960   9.362  0.1826  0.1889  0.2141
  790MOL0    Cl 8927   5.036   8.920   9.228  0.2275  0.2181 -0.2990
  790MOL0     C 8928   5.052   7.907   9.319  0.5775  0.3507  0.9652
  790MOL0     C 8929   5.129   7.806   9.265  0.3047  0.7077 -0.4458
  790MOL0     O 8930   5.151   7.509   9.281 -0.1106 -0.0085 -0.3176
  790MOL0     C 8931   5.484   7.464   9.175  0.3897  1.0335  0.4685
  790MOL0     C 8932   5.564   7.358   9.127 -0.2198 -0.2171  0.5596
  790MOL0     N 8933   6.136   7.190   9.104  0.4392  0.5454  0.1014
  790MOL0     N 8934   6.256   7.212   9.064  0.1561  1.1463  0.4575
  790MOL0     C 8935   6.585   7.870   9.657 -1.1749 -0.6276 -0.1367
  790MOL0     C 8936   6.546   7.976   9.736 -0.3066  0.4667 -0.2848
  790MOL0     C 8937   6.377   8.291  10.012 -0.8522  0.0520  0.2888
  790MOL0     C 8938   6.240   8.279  10.029 -0.5327  1.3398  0.0130
  790MOL0     C 8939   6.172   8.353  10.121  0.0027 -0.8657 -0.4584
  790MOL0     C 8940   6.242   8.443  10.205  0.2199  0.3416  0.4092
  790MOL0     O 8941   6.192   8.515  10.304  0.4960 -0.8959 -0.2627
  790MOL0     C 8942   6.046   8.520  10.339  0.1447  0.2610  0.3343
  790MOL0     C 8943   5.974   8.585  10.221  0.7796 -0.1958 -0.8737
  790MOL0     C 8944   6.046   8.720  10.180 -0.2791 -0.2621 -0.9359
  790MOL0     C 8945   5.994   8.801  10.059 -0.9009  0.3189  0.2324
  790MOL0     C 8946   5.870   8.865  10.082  0.2140  0.7819  0.6152
  790MOL0     C 8947   5.699   8.960  10.069  0.1727  0.0775 -0.8832
  790MOL0     C 8948   6.383   8.471  10.174  0.2108  0.3095  0.2436
  790MOL0     C 8949   6.450   8.391  10.074 -0.5323  0.0795 -0.2494
  790MOL0     C 8950   6.577   8.446  10.019  0.3031  0.2515  0.0063
  790MOL0     H 8951   6.220   7.971   9.680  0.7608 -0.3958 -0.4877
  790MOL0     H 8952   6.287   7.767   9.554  1.8401 -4.1124  1.3470
  790MOL0     H 8953   6.692   7.776   9.451  1.3384 -1.9810  1.3770
  790MOL0     H 8954   6.588   7.724   9.323  2.4705 -1.0530 -0.8834
  790MOL0     H 8955   6.794   7.570   9.336 -0.4349  0.2333 -0.6963
  790MOL0     H 8956   6.747   7.549   9.507 -0.7888 -1.4807 -0.6754
  790MOL0     H 8957   6.568   7.405   9.462  3.3045 -1.0093  2.5253
  790MOL0     H 8958   6.587   7.445   9.282  2.0839  0.2399 -0.8926
  790MOL0     H 8959   6.807   7.334   9.294  1.7257  0.1350  1.8897
  790MOL0     H 8960   6.769   7.268   9.455 -3.7069 -2.4140  0.6863
  790MOL0     H 8961   6.600   7.129   9.382 -0.0704 -1.4673 -0.3726
  790MOL0     H 8962   6.745   7.097   9.292  1.6149  1.0126  3.3952
  790MOL0     H 8963   6.491   7.222   9.206 -0.1034  0.5837 -0.9353
  790MOL0     H 8964   6.653   7.255   9.117  0.3037  0.4789  0.4545
  790MOL0     H 8965   6.548   6.988   9.164 -1.1731  1.0622  0.1580
  790MOL0     H 8966   6.652   7.037   9.036 -2.3515 -0.6077 -2.4064
  790MOL0     H 8967   6.464   7.153   8.925  3.9537  0.8450  1.4950
  790MOL0     H 8968   6.437   6.968   8.939  0.4100  0.8668 -2.9425
  790MOL0     H 8969   6.242   6.882   9.101  3.0566  0.1417 -0.9794
  790MOL0     H 8970   5.971   7.051   9.271  1.7186  1.8068 -0.3060
  790MOL0     H 8971   6.006   6.892   9.197 -2.2943 -0.4348  0.9217
  790MOL0     H 8972   5.884   6.940   9.008 -2.3747 -1.2857 -0.4701
  790MOL0     H 8973   5.792   6.982   9.150  2.6529 -1.4291  1.6889
  790MOL0     H 8974   5.849   7.217   9.117 -0.2565 -2.0149  1.9135
  790MOL0     H 8975   5.908   7.188   8.965 -0.7184  3.2771  2.0281
  790MOL0     H 8976   5.672   7.197   8.898 -0.1199 -1.2934 -1.7485
  790MOL0     H 8977   5.706   7.039   8.909 -1.3557  3.1132 -3.0268
  790MOL0     H 8978   5.393   7.090   9.231  0.7668  0.1804 -0.7527
  790MOL0     H 8979   5.125   7.237   9.326 -0.7798 -1.7200  2.8371
  790MOL0     H 8980   5.237   7.308   9.453 -0.3887  0.4879 -0.1181
  790MOL0     H 8981   5.260   7.140   9.398  0.1973 -0.5677 -1.4234
  790MOL0     H 8982   5.340   7.791   9.543 -1.2534  1.4615  1.6472
  790MOL0     H 8983   5.198   7.975   9.614 -3.5555  3.9830 -1.4664
  790MOL0     H 8984   4.962   8.167   9.343  0.8600  1.3949 -0.7270
  790MOL0     H 8985   4.818   8.102   9.435 -0.8122  2.3897 -0.9953
  790MOL0     H 8986   4.836   8.242   9.617 -0.6256  0.6036  0.4084
  790MOL0     H 8987   5.005   8.270   9.595 -1.0830 -2.3515  3.8419
  790MOL0     H 8988   4.783   8.382   9.411  0.2154 -3.5773  0.2752
  790MOL0     H 8989   4.951   8.436   9.408 -1.7798  0.6255 -0.7043
  790MOL0     H 8990   4.920   8.534   9.642 -1.4424  0.2348  2.8053
  790MOL0     H 8991   4.768   8.471   9.654  0.8580 -1.7320 -0.9559
  790MOL0     H 8992   4.685   8.579   9.437  2.2452  1.4805 -2.3647
  790MOL0     H 8993   4.693   8.668   9.576 -0.4092  0.6297 -0.6776
  790MOL0     H 8994   4.907   8.669   9.355  1.5606  1.5299  0.6336
  790MOL0     H 8995   4.945   8.724   9.521 -2.1306 -0.1735  1.5596
  790MOL0     H 8996   4.745   8.886   9.488 -0.3843 -2.9345  0.6821
  790MOL0     H 8997   4.743   8.846   9.317  0.9530  0.3733 -0.3706
  790MOL0     H 8998   4.981   8.989   9.450  1.6983  0.9728 -1.0270
  790MOL0     H 8999   4.870   9.054   9.338 -0.0957  0.5931  2.2048
  790MOL0     H 9000   4.971   7.943   9.258  1.4062  2.7039  1.1469
  790MOL0     H 9001   5.116   7.760   9.168  2.5889 -0.1928 -0.3847
  790MOL0     H 9002   5.515   7.567   9.160 -4.2203  2.4396 -1.0817
  790MOL0     H 9003   5.657   7.381   9.076 -1.4940  3.4420 -0.4446
  790MOL0     H 9004   6.690   7.841   9.659 -0.3922  1.9298 -0.5632
  790MOL0     H 9005   6.616   8.048   9.777 -2.6484  2.0713  1.1525
  790MOL0     H 9006   6.187   8.208   9.967  2.0331  0.8894 -1.8274
  790MOL0     H 9007   6.067   8.343  10.146 -1.2511  3.7106 -2.7390
  790MOL0     H 9008   6.011   8.424  10.379 -0.4627  1.1691  2.0891
  790MOL0     H 9009   6.022   8.585  10.424 -1.3633 -1.8284  1.5964
  790MOL0     H 9010   5.877   8.612  10.264  1.4856 -1.0773  1.3691
  790MOL0     H 9011   5.959   8.525  10.130  0.0513 -0.4342 -0.5975
  790MOL0     H 9012   6.044   8.790  10.264 -2.0390 -1.1830 -0.1646
  790MOL0     H 9013   6.151   8.695  10.164  0.5632  2.5101 -0.2354
  790MOL0     H 9014   5.981   8.735   9.973  0.5079 -0.4606  0.5738
  790MOL0     H 9015   6.075   8.870  10.034 -0.0661 -1.1085 -1.2076
  790MOL0     H 9016   5.601   9.003  10.059  0.7265  1.7424  0.3873
  790MOL0     H 9017   6.428   8.556  10.224 -1.5412  2.7961 -2.1213
  790MOL0     H 9018   6.651   8.371   9.987  1.1078 -0.3595  2.9577
  790MOL0     H 9019   6.564   8.512   9.933 -3.2440  0.3245  0.4866
  790MOL0     H 9020   6.626   8.491  10.106  0.7142  1.3579 -0.7757
  791MOL0     O 9021  10.085   1.507   5.936 -1.2544 -0.1651 -0.0588
  791MOL0     C 9022  10.112   1.430   5.843  0.3309 -0.1100 -0.2331
  791MOL0     O 9023  10.117   1.297   5.861  0.1724  0.1291 -0.3832
  791MOL0     C 9024  10.046   1.229   5.960  0.1604 -0.3112  0.1186
  791MOL0     C 9025  10.045   1.270   6.092 -0.0857  0.8709 -0.3217
  791MOL0     C 9026   9.951   1.216   6.181  0.8034 -0.9016 -1.0885
  791MOL0     C 9027   9.853   1.121   6.136 -0.1668 -0.8757 -1.0091
  791MOL0     O 9028   9.762   1.072   6.224 -0.4799  0.1910 -0.3253
  791MOL0     C 9029   9.755   0.930   6.238 -0.7244 -0.2639  0.2262
  791MOL0     C 9030   9.644   0.881   6.326 -0.2624 -0.4638  0.6056
  791MOL0     C 9031   9.690   0.766   6.406 -0.9522 -0.2081 -0.6969
  791MOL0     C 9032   9.575   0.665   6.425 -0.3526  0.6016 -0.6029
  791MOL0     C 9033   9.622   0.558   6.526 -0.8909 -0.8575  0.2273
  791MOL0     C 9034   9.720   0.454   6.464  0.3836  0.0962 -0.1949
  791MOL0     C 9035   9.748   0.327   6.547 -0.1127  0.0514 -0.9606
  791MOL0     C 9036   9.877   0.337   6.637  0.5391 -0.3875  0.4695
  791MOL0     N 9037   9.936   0.204   6.658  0.6969  0.4557 -0.1629
  791MOL0     C 9038   9.875   0.109   6.738  0.0022  1.0460  0.1552
  791MOL0     C 9039   9.948  -0.001   6.726 -0.4778 -1.2712 -0.2508
  791MOL0     C 9040   9.915  -0.140   6.775 -0.0126  0.8360  0.3760
  791MOL0     C 9041  10.026  -0.202   6.854  0.3024  0.3504 -1.0664
  791MOL0     C 9042  10.066  -0.124   6.983  0.4203  0.4907  0.2632
  791MOL0     C 9043  10.199  -0.188   7.040 -1.1690  0.3208 -0.5918
  791MOL0     O 9044  10.270  -0.111   7.140 -0.1821  0.3906  0.3867
  791MOL0     C 9045  10.215  -0.105   7.260  0.9013 -0.4794 -0.9578
  791MOL0     C 9046  10.291  -0.040   7.354 -0.1628 -0.1526 -1.4020
  791MOL0     C 9047  10.263  -0.029   7.487  1.5466  0.0491  0.0060
  791MOL0     C 9048  10.364   0.036   7.575 -0.5336 -1.0055  0.2272
  791MOL0     C 9049  10.133  -0.073   7.534 -0.3134  1.0555  0.8899
  791MOL0     C 9050  10.078  -0.056   7.669  0.1618  0.9188 -0.4799
  791MOL0     O 9051   9.954  -0.112   7.687  0.8495 -0.3410  0.3148
  791MOL0     C 9052   9.906  -0.103   7.811 -0.2710  0.1503  0.1937
  791MOL0     C 9053   9.970  -0.161   7.930  0.1035  0.1928  0.2038
  791MOL0     C 9054   9.910  -0.148   8.052 -0.3794 -1.5334 -0.9532
  791MOL0     C 9055   9.784  -0.083   8.063  0.6313  0.1799 -1.1357
  791MOL0     O 9056   9.712  -0.076   8.186  0.7137 -0.0620 -0.0536
  791MOL0     C 9057   9.659   0.048   8.239 -0.1776  0.1215 -0.0178
  791MOL0     C 9058   9.780   0.123   8.315 -0.5696 -0.1528 -0.8261
  791MOL0     C 9059   9.818   0.054   8.450  0.1323 -0.5816  1.3378
  791MOL0     C 9060   9.961   0.078   8.502  0.0688 -0.2029 -0.5020
  791MOL0     C 9061   9.967   0.031   8.656  0.2889 -0.5852  0.2489
  791MOL0     C 9062   9.925   0.140   8.761 -0.1957 -0.7837 -0.0192
  791MOL0     C 9063   9.895   0.088   8.907 -0.2660 -0.6366  0.7642
  791MOL0     C 9064  10.025   0.070   8.979  0.3040  0.3018  0.1483
  791MOL0    Cl 9065  10.103   0.241   8.990  0.9995 -0.3311 -0.0361
  791MOL0     C 9066   9.724  -0.044   7.943  0.7447  0.1869  0.2117
  791MOL0     C 9067   9.780  -0.044   7.816  0.0004  0.9311  0.3805
  791MOL0     O 9068  10.145  -0.009   7.758  0.2309  0.2575  0.0369
  791MOL0     C 9069  10.051  -0.139   7.441  0.3373  0.1007 -0.0568
  791MOL0     C 9070  10.084  -0.152   7.303  0.2060 -0.1080  0.7482
  791MOL0     N 9071  10.059   0.038   6.642  0.3716  0.3256 -0.6386
  791MOL0     N 9072  10.055   0.161   6.608 -0.6613 -0.4535 -0.6386
  791MOL0     C 9073   9.856   1.087   6.002  0.6241  0.0567 -0.7486
  791MOL0     C 9074   9.943   1.134   5.910  0.8708  0.2778 -1.3441
  791MOL0     C 9075  10.158   1.504   5.722 -0.8836 -1.0709  0.0835
  791MOL0     C 9076  10.179   1.641   5.719  1.1867 -1.5129  0.3629
  791MOL0     C 9077  10.230   1.705   5.605  0.8360 -0.2764 -0.4408
  791MOL0     C 9078  10.247   1.633   5.486  0.5026  0.3120 -0.7374
  791MOL0     O 9079  10.281   1.711   5.381 -0.3743 -0.1779 -0.1803
  791MOL0     C 9080  10.230   1.675   5.252  0.4383  0.8759 -1.5064
  791MOL0     C 9081  10.204   1.797   5.158  1.0220  0.0456 -0.6663
  791MOL0     C 9082  10.146   1.931   5.213  1.2683  0.2348 -0.3252
  791MOL0     C 9083  10.257   2.021   5.213 -0.1050 -0.3973 -0.1409
  791MOL0     C 9084  10.226   2.158   5.275  1.0227  0.6084  0.5279
  791MOL0     C 9085  10.205   2.258   5.325  0.2243 -0.5020 -0.0403
  791MOL0     C 9086  10.227   1.497   5.485 -0.0171  1.1457  0.7510
  791MOL0     C 9087  10.193   1.424   5.604  0.9073  0.2293  0.0124
  791MOL0     C 9088  10.192   1.274   5.595 -0.5704  0.0085  0.2068
  791MOL0     H 9089  10.098   1.361   6.118  0.1202  0.1902  1.8669
  791MOL0     H 9090   9.956   1.251   6.284  1.7809 -0.4584 -1.2678
  791MOL0     H 9091   9.857   0.898   6.261  0.0330  1.9106  0.1080
  791MOL0     H 9092   9.747   0.890   6.136  3.0547  0.6142 -0.5722
  791MOL0     H 9093   9.587   0.957   6.381 -0.1821 -0.1252  0.2215
  791MOL0     H 9094   9.568   0.841   6.258 -2.3507  1.4257  1.7005
  791MOL0     H 9095   9.759   0.704   6.347 -0.6393 -0.8478  0.3119
  791MOL0     H 9096   9.738   0.803   6.498 -0.4993  2.1091 -1.7924
  791MOL0     H 9097   9.495   0.721   6.475  1.7367  2.1010  1.2671
  791MOL0     H 9098   9.546   0.626   6.327 -1.1094  1.4980 -0.7541
  791MOL0     H 9099   9.537   0.501   6.566 -0.4619 -1.8653 -0.2493
  791MOL0     H 9100   9.677   0.603   6.609  1.1497 -0.9105 -1.0338
  791MOL0     H 9101   9.675   0.413   6.373  1.6895 -1.5227 -0.1705
  791MOL0     H 9102   9.813   0.509   6.442 -1.9755  3.2345 -3.5812
  791MOL0     H 9103   9.769   0.249   6.473  1.8928  1.3664 -1.8692
  791MOL0     H 9104   9.667   0.289   6.610  0.9572  2.4675  2.1355
  791MOL0     H 9105   9.944   0.401   6.580 -1.4146 -0.9767 -2.7477
  791MOL0     H 9106   9.849   0.397   6.725 -0.9899 -0.3099 -0.0321
  791MOL0     H 9107   9.778   0.121   6.786 -0.0021  0.3699  0.3198
  791MOL0     H 9108   9.893  -0.202   6.687  0.3250  1.8263 -0.4203
  791MOL0     H 9109   9.820  -0.142   6.830 -0.5499 -2.1537 -0.4663
  791MOL0     H 9110   9.998  -0.306   6.873  1.3589 -0.3050 -2.8483
  791MOL0     H 9111  10.114  -0.207   6.790  1.7881  1.3518  0.8283
  791MOL0     H 9112  10.082  -0.017   6.963  2.1584  0.2470  0.1981
  791MOL0     H 9113   9.979  -0.131   7.048  0.5581 -1.0890  0.3179
  791MOL0     H 9114  10.177  -0.285   7.085  0.2027  1.8582  4.0104
  791MOL0     H 9115  10.273  -0.215   6.964 -0.5916  0.7464 -0.1972
  791MOL0     H 9116  10.381   0.013   7.325  1.1714  0.2983  2.8433
  791MOL0     H 9117  10.343   0.142   7.597  2.0351 -1.0199  3.4832
  791MOL0     H 9118  10.465   0.029   7.533 -1.1989  1.0547 -1.9609
  791MOL0     H 9119  10.373  -0.022   7.667  0.2122  0.4408  1.1084
  791MOL0     H 9120  10.061  -0.219   7.928 -2.0359 -3.4489 -0.2534
  791MOL0     H 9121   9.949  -0.171   8.150 -2.3288  1.6051  0.7087
  791MOL0     H 9122   9.625   0.106   8.152  3.4656  2.3071 -0.2110
  791MOL0     H 9123   9.578   0.039   8.311 -1.6586  4.9271 -0.7187
  791MOL0     H 9124   9.871   0.137   8.255 -0.2050 -1.1051 -0.5095
  791MOL0     H 9125   9.740   0.224   8.329  0.4027  0.5219 -2.5439
  791MOL0     H 9126   9.821  -0.053   8.423 -0.0494 -0.0129 -1.2140
  791MOL0     H 9127   9.748   0.079   8.530 -1.7251  0.3110 -0.4780
  791MOL0     H 9128  10.000   0.179   8.487  0.2092  0.1293  1.7783
  791MOL0     H 9129  10.025   0.010   8.444  0.2975 -1.8868  1.5942
  791MOL0     H 9130   9.901  -0.055   8.672 -2.1675  0.7777 -1.8851
  791MOL0     H 9131  10.070  -0.003   8.671  0.2145 -1.6518 -1.4252
  791MOL0     H 9132   9.840   0.195   8.720 -0.3668  0.8282  2.3277
  791MOL0     H 9133  10.011   0.207   8.769  1.3813 -2.6693 -0.4548
  791MOL0     H 9134   9.830   0.001   8.895  1.1235 -1.5028 -0.8251
  791MOL0     H 9135   9.822   0.158   8.948 -3.3854 -3.1058 -0.1672
  791MOL0     H 9136  10.081  -0.006   8.924 -0.9478  1.2380 -2.6308
  791MOL0     H 9137   9.999   0.048   9.083 -0.6133 -0.1155 -0.1638
  791MOL0     H 9138   9.624  -0.004   7.956 -0.6448 -2.8458 -0.4476
  791MOL0     H 9139   9.728  -0.004   7.729  2.4584  0.5684 -1.3624
  791MOL0     H 9140   9.952  -0.169   7.472  0.4140  0.2249  0.3144
  791MOL0     H 9141  10.022  -0.206   7.231  0.2990  0.5895  0.1278
  791MOL0     H 9142   9.780   1.015   5.975  0.3131  0.9551 -2.3624
  791MOL0     H 9143   9.923   1.113   5.805  0.7237 -1.4247 -0.9972
  791MOL0     H 9144  10.163   1.707   5.804  0.5599 -0.5101 -0.5007
  791MOL0     H 9145  10.236   1.813   5.612 -1.7036 -0.1428  0.8365
  791MOL0     H 9146  10.295   1.598   5.209  0.1359  1.3804 -2.9229
  791MOL0     H 9147  10.130   1.636   5.274  0.5139  0.7091 -1.4549
  791MOL0     H 9148  10.125   1.769   5.087 -1.2989  1.2254  1.2914
  791MOL0     H 9149  10.296   1.816   5.102  0.4665  2.7009 -0.8180
  791MOL0     H 9150  10.059   1.972   5.160  2.7153  2.4485 -1.1613
  791MOL0     H 9151  10.108   1.916   5.314  0.1094  0.9984 -0.6228
  791MOL0     H 9152  10.295   2.044   5.113  1.5403 -0.5068  0.4298
  791MOL0     H 9153  10.331   1.957   5.263 -0.9391  0.2103  1.9951
  791MOL0     H 9154  10.177   2.358   5.354  1.2372  0.2433 -1.4921
  791MOL0     H 9155  10.257   1.455   5.390  1.9922  0.4719  1.6357
  791MOL0     H 9156  10.091   1.234   5.603 -0.1875 -0.7976  1.2942
  791MOL0     H 9157  10.241   1.253   5.500 -0.9724 -0.6861  0.1496
  791MOL0     H 9158  10.256   1.236   5.676 -0.5787  2.3186  1.3965
  792MOL0     O 9159   8.334   5.896   7.334 -0.1819  0.1037 -0.0347
  792MOL0     C 9160   8.241   5.972   7.299  0.3194  0.3555  0.3007
  792MOL0     O 9161   8.145   6.022   7.380  0.5846  0.1978 -0.3684
  792MOL0     C 9162   8.155   6.027   7.519 -0.6021  0.3286  0.5419
  792MOL0     C 9163   8.271   6.025   7.605  0.0501  0.4975  0.7876
  792MOL0     C 9164   8.252   6.011   7.741 -0.0454  0.0707  0.5789
  792MOL0     C 9165   8.127   6.002   7.803 -0.7342  0.4166 -0.3231
  792MOL0     O 9166   8.116   5.964   7.935  0.1953 -0.3429 -0.0341
  792MOL0     C 9167   7.986   5.915   7.981 -0.4352 -0.0723 -0.3397
  792MOL0     C 9168   8.006   5.820   8.099 -0.5364  0.2870  0.0239
  792MOL0     C 9169   8.120   5.853   8.207 -0.3697  0.3913 -0.3043
  792MOL0     C 9170   8.130   5.755   8.327  0.6223 -0.6068  0.3850
  792MOL0     C 9171   8.222   5.815   8.436 -0.6571 -1.1810 -0.1671
  792MOL0     C 9172   8.239   5.718   8.560  0.3722 -0.1159  0.6908
  792MOL0     C 9173   8.359   5.744   8.642 -0.1936  0.1058 -0.1172
  792MOL0     C 9174   8.405   5.612   8.725 -0.2754 -0.3199 -0.1236
  792MOL0     N 9175   8.459   5.649   8.860 -0.8341  0.5854 -0.3656
  792MOL0     C 9176   8.571   5.719   8.890  0.4050  0.1952 -0.2777
  792MOL0     C 9177   8.577   5.725   9.026 -0.2394  0.5602  0.1887
  792MOL0     C 9178   8.678   5.793   9.117  1.1076  0.7010  0.4729
  792MOL0     C 9179   8.815   5.720   9.131 -0.2592  0.5452 -0.2925
  792MOL0     C 9180   8.902   5.720   9.006  0.2013  0.2022 -0.4802
  792MOL0     C 9181   9.051   5.703   9.027  0.8559 -0.2593  0.6812
  792MOL0     O 9182   9.104   5.802   9.110  0.8427 -0.6462  0.2560
  792MOL0     C 9183   9.206   5.781   9.193  0.4013  0.6274  0.6305
  792MOL0     C 9184   9.294   5.680   9.189 -0.2627 -0.7651 -0.4997
  792MOL0     C 9185   9.391   5.658   9.288 -0.2599 -0.9676 -0.4517
  792MOL0     C 9186   9.463   5.523   9.280 -1.2601 -0.5885  0.1630
  792MOL0     C 9187   9.422   5.760   9.380  0.2216  0.9967  0.7606
  792MOL0     C 9188   9.533   5.754   9.480  0.3983  1.1265  0.8701
  792MOL0     O 9189   9.641   5.686   9.457 -0.2892 -0.2722 -0.8751
  792MOL0     C 9190   9.743   5.695   9.561  0.8405 -0.0263 -0.5991
  792MOL0     C 9191   9.721   5.644   9.683 -1.2985 -0.8721 -0.0983
  792MOL0     C 9192   9.808   5.687   9.793 -0.1297 -0.1038  0.6341
  792MOL0     C 9193   9.904   5.790   9.782 -0.4027  0.7419 -0.0684
  792MOL0     O 9194   9.969   5.845   9.891 -0.3600 -0.9136  0.6912
  792MOL0     C 9195  10.072   5.942   9.867  0.1945  0.0261  0.7462
  792MOL0     C 9196  10.139   5.953   9.995 -1.0650  0.0833  0.0624
  792MOL0     C 9197  10.243   6.062  10.012  1.2789  0.1150  0.9701
  792MOL0     C 9198  10.290   6.072  10.163 -0.2903  0.1032  0.3908
  792MOL0     C 9199  10.343   5.934  10.223 -0.1960 -0.4658  0.5569
  792MOL0     C 9200  10.465   5.909  10.145 -0.8146 -0.4142  1.0965
  792MOL0     C 9201  10.559   5.807  10.226  1.1124  0.1161 -0.4117
  792MOL0     C 9202  10.696   5.857  10.230 -0.0251  0.1628  0.8841
  792MOL0    Cl 9203  10.777   5.848  10.073  0.2442 -0.0692  0.2549
  792MOL0     C 9204   9.917   5.851   9.650 -0.7609  0.2326  0.1825
  792MOL0     C 9205   9.839   5.801   9.544 -1.0348  0.0662  0.2273
  792MOL0     O 9206   9.506   5.824   9.581  0.0792  0.1066 -0.1336
  792MOL0     C 9207   9.334   5.868   9.382  0.9747  0.0211  0.1797
  792MOL0     C 9208   9.231   5.876   9.288 -0.0434 -0.1095 -0.9424
  792MOL0     N 9209   8.463   5.664   9.069 -0.2500 -0.6876 -0.0294
  792MOL0     N 9210   8.391   5.621   8.974  0.1709  0.2457 -0.1314
  792MOL0     C 9211   8.015   6.024   7.715  0.3698  0.6298 -1.1396
  792MOL0     C 9212   8.034   6.041   7.581  0.5077  0.7348 -0.1546
  792MOL0     C 9213   8.209   5.991   7.152  0.3428  0.3951 -0.1865
  792MOL0     C 9214   8.073   5.973   7.103 -0.3381 -0.1902 -0.9042
  792MOL0     C 9215   8.049   5.978   6.966 -0.0173 -0.4462  0.3047
  792MOL0     C 9216   8.157   6.008   6.876 -0.0131  0.5130  0.4944
  792MOL0     O 9217   8.153   6.011   6.736  0.1038  0.2123 -0.2735
  792MOL0     C 9218   8.073   5.896   6.688 -0.3414 -0.3629 -0.3014
  792MOL0     C 9219   8.046   5.902   6.535  0.1429 -0.6237 -0.6621
  792MOL0     C 9220   7.989   6.033   6.477  0.5380  0.7476  0.0082
  792MOL0     C 9221   7.964   6.025   6.320 -0.5080  0.4414 -0.3538
  792MOL0     C 9222   7.917   6.158   6.283 -0.0254 -0.4267 -0.3327
  792MOL0     C 9223   7.884   6.270   6.244 -0.0397 -1.1897 -0.0371
  792MOL0     C 9224   8.279   6.033   6.932 -0.3233  0.6797  0.8233
  792MOL0     C 9225   8.310   6.025   7.067 -0.0459 -0.0504  0.4341
  792MOL0     C 9226   8.453   6.041   7.107 -0.2013 -0.1743  0.1800
  792MOL0     H 9227   8.369   6.020   7.560 -0.9043 -0.7026 -1.2585
  792MOL0     H 9228   8.333   5.996   7.811 -0.7603  0.0249  1.4131
  792MOL0     H 9229   7.943   5.849   7.905  0.1215 -0.1700 -0.5735
  792MOL0     H 9230   7.918   5.995   8.012  1.5406  0.9028  1.8066
  792MOL0     H 9231   7.904   5.808   8.136 -0.6566  1.6443  0.1784
  792MOL0     H 9232   8.032   5.723   8.057 -1.2831 -0.2753  0.8303
  792MOL0     H 9233   8.212   5.850   8.149 -2.1129 -1.3391 -3.2382
  792MOL0     H 9234   8.112   5.956   8.244 -0.0358  0.3546 -0.1295
  792MOL0     H 9235   8.026   5.740   8.359 -0.0347  2.4312 -0.0120
  792MOL0     H 9236   8.184   5.664   8.300  1.9815  0.5453 -0.9796
  792MOL0     H 9237   8.184   5.902   8.491 -0.7857 -2.0542  1.1699
  792MOL0     H 9238   8.322   5.832   8.396 -0.4740 -1.4535  0.1643
  792MOL0     H 9239   8.156   5.726   8.631  0.9027 -1.7241  1.5240
  792MOL0     H 9240   8.245   5.617   8.519 -0.0293 -0.6998  2.0066
  792MOL0     H 9241   8.354   5.825   8.716  1.4225 -1.0980  1.4331
  792MOL0     H 9242   8.446   5.765   8.579  2.0745  2.1989  3.3225
  792MOL0     H 9243   8.317   5.549   8.744 -1.0029  1.0115  1.1546
  792MOL0     H 9244   8.488   5.551   8.688  1.0872 -0.1232  2.3873
  792MOL0     H 9245   8.644   5.762   8.823  0.6368 -1.0660 -0.8694
  792MOL0     H 9246   8.624   5.807   9.211 -2.8894  3.1196 -1.9060
  792MOL0     H 9247   8.704   5.893   9.082 -0.0777  0.3932 -1.3909
  792MOL0     H 9248   8.846   5.790   9.209 -3.0013  2.0287 -0.3939
  792MOL0     H 9249   8.807   5.619   9.174  2.2790  0.6290  0.5518
  792MOL0     H 9250   8.869   5.637   8.943 -1.1938 -0.2358  0.7469
  792MOL0     H 9251   8.883   5.813   8.952  1.3060  0.2069 -0.8850
  792MOL0     H 9252   9.072   5.600   9.057  1.2543 -1.3979 -3.0724
  792MOL0     H 9253   9.110   5.714   8.936  0.3717 -1.9728  0.1182
  792MOL0     H 9254   9.284   5.606   9.111 -0.7143  0.2784 -1.4707
  792MOL0     H 9255   9.479   5.480   9.380 -0.3781  0.4849  0.5028
  792MOL0     H 9256   9.554   5.541   9.221 -1.1914  0.0693  0.4615
  792MOL0     H 9257   9.396   5.453   9.228 -4.5198  1.6057  1.1035
  792MOL0     H 9258   9.638   5.576   9.702 -0.2739 -2.1073  0.0423
  792MOL0     H 9259   9.802   5.640   9.890  0.7128 -2.4451 -0.3767
  792MOL0     H 9260  10.139   5.905   9.788  0.0078  1.0093  0.1122
  792MOL0     H 9261  10.023   6.033   9.832  0.1703 -0.6927 -1.2418
  792MOL0     H 9262  10.067   5.972  10.075 -1.3043  0.4263 -0.2321
  792MOL0     H 9263  10.195   5.860  10.012 -1.2516  0.2000  1.4064
  792MOL0     H 9264  10.215   6.155   9.963 -1.0684 -0.9943  0.0595
  792MOL0     H 9265  10.318   6.027   9.940 -2.4683 -4.8647 -1.0936
  792MOL0     H 9266  10.197   6.094  10.217 -1.1443 -0.1853 -0.9420
  792MOL0     H 9267  10.355   6.160  10.175 -2.5689  1.8919  0.3703
  792MOL0     H 9268  10.367   5.932  10.330  0.1141 -0.5797  0.4857
  792MOL0     H 9269  10.277   5.847  10.212 -1.7190  0.7646 -0.4746
  792MOL0     H 9270  10.517   6.003  10.126  1.7357 -1.5299  2.1411
  792MOL0     H 9271  10.449   5.870  10.044 -3.5285  1.0392  0.8712
  792MOL0     H 9272  10.555   5.717  10.163 -0.2854 -1.1092  1.3150
  792MOL0     H 9273  10.516   5.792  10.325  0.9441  0.2236 -0.4679
  792MOL0     H 9274  10.752   5.802  10.306 -1.0350 -0.7982  0.9541
  792MOL0     H 9275  10.686   5.962  10.261 -0.5473  0.6677 -0.8897
  792MOL0     H 9276   9.987   5.930   9.623  0.3842 -0.8057 -0.0068
  792MOL0     H 9277   9.853   5.840   9.444  2.5215  0.7684  0.8864
  792MOL0     H 9278   9.353   5.947   9.454  2.8857  0.2322 -0.4999
  792MOL0     H 9279   9.172   5.967   9.298  4.1068  2.8244 -0.3230
  792MOL0     H 9280   7.918   6.021   7.762  1.7076  0.7476  1.8066
  792MOL0     H 9281   7.954   6.067   7.512  1.4895 -0.9992 -2.0277
  792MOL0     H 9282   7.992   5.971   7.175  2.0349 -1.5103  1.9733
  792MOL0     H 9283   7.949   5.957   6.930  0.5776 -0.2123 -1.5457
  792MOL0     H 9284   8.130   5.804   6.708 -2.0328 -1.0434  1.7972
  792MOL0     H 9285   7.980   5.889   6.746 -0.0153  4.1375  1.1523
  792MOL0     H 9286   7.981   5.815   6.522 -0.3667 -0.2939 -0.3239
  792MOL0     H 9287   8.139   5.892   6.478 -0.8331 -0.3174 -2.3777
  792MOL0     H 9288   7.893   6.055   6.524  0.9168 -0.1622  1.2653
  792MOL0     H 9289   8.060   6.113   6.498  1.7840 -0.4720  0.5781
  792MOL0     H 9290   7.893   5.950   6.284 -1.3949  1.2399 -0.3307
  792MOL0     H 9291   8.058   6.008   6.268 -0.4526  1.9209 -0.8011
  792MOL0     H 9292   7.843   6.363   6.210  2.6850  0.5649  1.1745
  792MOL0     H 9293   8.364   6.054   6.868 -1.9822 -0.1975 -1.8540
  792MOL0     H 9294   8.514   6.085   7.027 -2.4257 -2.5057 -3.0386
  792MOL0     H 9295   8.461   6.115   7.187  2.0636 -0.2956  0.1228
  792MOL0     H 9296   8.504   5.946   7.126  2.0328  0.7118 -0.9734
  793MOL0     O 9297   6.652   8.654   4.544 -0.2890 -0.0743  0.4191
  793MOL0     C 9298   6.663   8.579   4.457  0.1317  0.3281  0.5496
  793MOL0     O 9299   6.719   8.610   4.336  0.0891  1.6119  0.5073
  793MOL0     C 9300   6.808   8.717   4.338  0.8709  0.6443 -0.3796
  793MOL0     C 9301   6.777   8.848   4.381  0.1744  0.3125  0.6819
  793MOL0     C 9302   6.862   8.965   4.375 -1.0515 -0.4015 -0.6070
  793MOL0     C 9303   6.990   8.936   4.320  0.1627 -0.5009  0.9034
  793MOL0     O 9304   7.084   9.037   4.330 -0.2340 -0.5764  0.1178
  793MOL0     C 9305   7.036   9.165   4.280  0.7326  0.1827  0.2605
  793MOL0     C 9306   7.157   9.239   4.218 -0.4918  0.3438 -0.3346
  793MOL0     C 9307   7.125   9.361   4.141 -0.4166 -0.7535 -0.2998
  793MOL0     C 9308   7.043   9.475   4.220 -0.1230  0.2159 -0.5117
  793MOL0     C 9309   7.015   9.597   4.124 -0.1542 -0.1027 -0.6271
  793MOL0     C 9310   6.879   9.678   4.153 -0.2282  1.0886  0.4748
  793MOL0     C 9311   6.754   9.596   4.130  0.2695  1.0174  0.9900
  793MOL0     C 9312   6.634   9.688   4.166  0.4754  1.8243  0.1828
  793MOL0     N 9313   6.610   9.803   4.082  0.3225 -0.9480 -0.0738
  793MOL0     C 9314   6.617   9.933   4.126  0.3885  0.4725 -0.1401
  793MOL0     C 9315   6.593  10.007   4.024  0.4063 -0.1063 -0.4223
  793MOL0     C 9316   6.613  10.157   4.016 -0.2573 -0.0129  0.7832
  793MOL0     C 9317   6.491  10.250   4.028  0.3094 -0.1608  0.6123
  793MOL0     C 9318   6.421  10.280   3.892 -0.0900  0.5127  0.2320
  793MOL0     C 9319   6.311  10.178   3.856  0.1816 -0.0218  0.1108
  793MOL0     O 9320   6.256  10.210   3.729 -0.2423  0.1818 -0.9818
  793MOL0     C 9321   6.159  10.122   3.689 -0.4004  0.0697 -0.4562
  793MOL0     C 9322   6.129  10.136   3.560  0.4962  1.1366  0.2228
  793MOL0     C 9323   6.021  10.071   3.498 -0.8088 -0.0905 -0.2861
  793MOL0     C 9324   6.002  10.103   3.351  0.2930  0.2203  0.3566
  793MOL0     C 9325   5.947   9.986   3.581  0.9705 -0.9171  0.1757
  793MOL0     C 9326   5.828   9.909   3.535  0.6339  0.5854  0.1928
  793MOL0     O 9327   5.790   9.802   3.611  0.5892  0.2354  0.3030
  793MOL0     C 9328   5.707   9.704   3.557 -0.1484 -0.0753 -0.3344
  793MOL0     C 9329   5.762   9.598   3.493 -0.3592 -0.9115  0.8245
  793MOL0     C 9330   5.689   9.488   3.446  0.4378  0.5989  0.1630
  793MOL0     C 9331   5.555   9.484   3.478 -0.1594 -0.5465  0.1913
  793MOL0     O 9332   5.467   9.382   3.448 -0.0218  0.1131 -0.3539
  793MOL0     C 9333   5.506   9.311   3.330 -0.4742  0.8327  0.5444
  793MOL0     C 9334   5.417   9.190   3.298  0.2788 -0.2015  0.0394
  793MOL0     C 9335   5.323   9.211   3.173 -0.4903  0.3263 -1.2797
  793MOL0     C 9336   5.397   9.210   3.040  0.9242 -0.7774 -0.2652
  793MOL0     C 9337   5.300   9.205   2.913  0.4954 -0.2453 -0.2526
  793MOL0     C 9338   5.362   9.252   2.780  0.2512  1.4339 -0.1158
  793MOL0     C 9339   5.256   9.255   2.674 -0.6617 -0.4079  0.1333
  793MOL0     C 9340   5.315   9.268   2.538  0.3307  0.6129 -0.6951
  793MOL0    Cl 9341   5.175   9.241   2.423 -0.0566 -0.3800 -0.4849
  793MOL0     C 9342   5.496   9.595   3.547  0.0851 -0.9300  0.8131
  793MOL0     C 9343   5.575   9.705   3.584  0.5623  0.1032 -0.6837
  793MOL0     O 9344   5.762   9.950   3.443  0.5655  0.3166 -0.4084
  793MOL0     C 9345   5.988   9.969   3.713  0.3725  0.7079  0.1237
  793MOL0     C 9346   6.092  10.036   3.767  0.7347 -0.1158  0.3807
  793MOL0     N 9347   6.571   9.917   3.920 -0.7903  0.9666 -0.0911
  793MOL0     N 9348   6.599   9.803   3.948  0.4467  0.8063  0.1165
  793MOL0     C 9349   7.033   8.807   4.284 -0.8116 -0.2212  0.1222
  793MOL0     C 9350   6.940   8.692   4.290  0.0849 -1.2357  0.0586
  793MOL0     C 9351   6.660   8.432   4.495 -0.3008 -0.4363  0.9122
  793MOL0     C 9352   6.579   8.335   4.422  0.1330 -0.2965 -0.8079
  793MOL0     C 9353   6.568   8.202   4.463 -0.0511 -0.7130  0.4964
  793MOL0     C 9354   6.636   8.157   4.571  0.3285  0.8392  0.4903
  793MOL0     O 9355   6.635   8.020   4.595 -0.2870  0.4461  0.6827
  793MOL0     C 9356   6.696   7.968   4.717  0.3099  0.5423  0.4169
  793MOL0     C 9357   6.688   7.818   4.702  0.5317 -0.3262 -0.1260
  793MOL0     C 9358   6.803   7.762   4.798  1.1273 -0.0129  0.2869
  793MOL0     C 9359   6.836   7.618   4.779  0.3021  0.6498 -1.1128
  793MOL0     C 9360   6.899   7.597   4.653  0.0214 -0.1193 -0.1998
  793MOL0     C 9361   6.963   7.585   4.548  0.4982  0.7973  0.3422
  793MOL0     C 9362   6.717   8.249   4.645 -1.1390 -0.5782 -0.5988
  793MOL0     C 9363   6.735   8.383   4.604 -0.0090  0.1584 -0.1670
  793MOL0     C 9364   6.850   8.452   4.684  1.1404  0.4256  0.7343
  793MOL0     H 9365   6.673   8.870   4.405 -0.1412 -0.3702 -0.0077
  793MOL0     H 9366   6.838   9.060   4.422 -1.0304 -0.7499  0.1089
  793MOL0     H 9367   6.990   9.213   4.367  2.3451  2.0250  0.1543
  793MOL0     H 9368   6.965   9.140   4.201  0.1046 -0.3623  0.9703
  793MOL0     H 9369   7.233   9.265   4.292 -0.7805  3.5430 -1.0162
  793MOL0     H 9370   7.194   9.168   4.144  2.2883  1.0616  0.2754
  793MOL0     H 9371   7.214   9.411   4.101 -0.5013  0.4957  0.9904
  793MOL0     H 9372   7.079   9.336   4.045  0.8296  0.9722 -1.4068
  793MOL0     H 9373   6.950   9.428   4.251 -0.5741  1.4556  0.1017
  793MOL0     H 9374   7.090   9.507   4.314  1.5703 -3.1838 -0.0476
  793MOL0     H 9375   7.005   9.565   4.020  0.0656 -0.3553 -0.5731
  793MOL0     H 9376   7.110   9.652   4.129 -0.9373  1.1609  1.8969
  793MOL0     H 9377   6.873   9.720   4.253 -2.6324  2.1858 -0.0846
  793MOL0     H 9378   6.874   9.764   4.086  0.1787  1.8549  1.4148
  793MOL0     H 9379   6.736   9.508   4.192  0.6698  0.0519 -0.2218
  793MOL0     H 9380   6.757   9.553   4.029  0.5317  2.7294  0.2365
  793MOL0     H 9381   6.544   9.627   4.154 -0.0331  2.8340 -1.3868
  793MOL0     H 9382   6.630   9.710   4.273 -1.2813  0.7541  0.3923
  793MOL0     H 9383   6.636   9.952   4.231 -0.1267 -0.1011  0.0645
  793MOL0     H 9384   6.672  10.186   3.929  0.6230  1.0848  1.7163
  793MOL0     H 9385   6.673  10.173   4.105  1.0355 -0.3304 -0.0101
  793MOL0     H 9386   6.422  10.202   4.098  1.2537 -3.4492 -0.5271
  793MOL0     H 9387   6.530  10.344   4.067  0.6753  1.0881 -2.4575
  793MOL0     H 9388   6.377  10.380   3.903 -0.8856 -0.0644  2.7882
  793MOL0     H 9389   6.491  10.286   3.808 -1.3343  0.1219 -0.8717
  793MOL0     H 9390   6.343  10.074   3.849  1.8613  0.4400  0.3017
  793MOL0     H 9391   6.234  10.191   3.933 -1.5130 -0.4566 -1.4593
  793MOL0     H 9392   6.187  10.201   3.495 -0.4952 -0.0661 -2.0059
  793MOL0     H 9393   6.061  10.189   3.318 -0.5622  1.0809  1.0007
  793MOL0     H 9394   5.896  10.119   3.328  0.1468 -1.3496 -0.1548
  793MOL0     H 9395   6.032  10.015   3.294 -1.4255  0.7646 -1.5008
  793MOL0     H 9396   5.869   9.594   3.474 -0.1530 -0.3283  1.8257
  793MOL0     H 9397   5.735   9.406   3.391 -0.4493  0.4413 -0.3606
  793MOL0     H 9398   5.507   9.377   3.243 -1.1346  3.1773  2.1723
  793MOL0     H 9399   5.605   9.268   3.344 -0.0421  1.2480 -1.0238
  793MOL0     H 9400   5.485   9.105   3.304  0.3544 -0.0850  0.9207
  793MOL0     H 9401   5.351   9.169   3.382  0.4757 -3.3037 -0.4642
  793MOL0     H 9402   5.277   9.310   3.183  1.7028  1.5184 -2.3713
  793MOL0     H 9403   5.250   9.130   3.164  0.6524 -0.6062 -2.5566
  793MOL0     H 9404   5.472   9.131   3.041  3.9420  1.8831  1.7641
  793MOL0     H 9405   5.438   9.311   3.048 -1.3227  0.1250  0.9320
  793MOL0     H 9406   5.244   9.111   2.912 -1.2313  0.7308 -0.2506
  793MOL0     H 9407   5.223   9.280   2.937  0.5324 -1.2606  3.8392
  793MOL0     H 9408   5.437   9.176   2.753 -1.1375 -0.1499  0.3041
  793MOL0     H 9409   5.415   9.347   2.785  2.0940  0.7571 -3.7136
  793MOL0     H 9410   5.175   9.328   2.679  0.8931  1.5249 -1.3177
  793MOL0     H 9411   5.210   9.155   2.672 -3.1569  0.6831 -1.2868
  793MOL0     H 9412   5.396   9.193   2.532 -0.2905 -0.5368  2.9696
  793MOL0     H 9413   5.353   9.370   2.527 -1.7284  1.3828 -1.1307
  793MOL0     H 9414   5.398   9.594   3.594  0.0345  1.9848  0.9564
  793MOL0     H 9415   5.542   9.788   3.644  4.3862  0.7327  0.7875
  793MOL0     H 9416   5.932   9.909   3.784 -1.5945 -0.1272 -2.0176
  793MOL0     H 9417   6.122  10.025   3.871  3.9106 -0.0719 -0.4386
  793MOL0     H 9418   7.131   8.801   4.238  0.2003  3.8360  1.2758
  793MOL0     H 9419   6.988   8.598   4.264 -0.1573 -1.5890  0.8564
  793MOL0     H 9420   6.507   8.370   4.348 -4.0106 -0.3731  2.7563
  793MOL0     H 9421   6.499   8.130   4.420 -1.3491 -1.9922  4.3607
  793MOL0     H 9422   6.800   8.001   4.727 -0.1222  1.5251  2.0817
  793MOL0     H 9423   6.644   7.987   4.811 -1.0303 -0.0127 -0.1920
  793MOL0     H 9424   6.703   7.787   4.598 -0.8864 -4.5291  0.7074
  793MOL0     H 9425   6.593   7.766   4.720  0.2151  0.5770  0.9056
  793MOL0     H 9426   6.896   7.813   4.773 -0.6390  1.3269 -4.6853
  793MOL0     H 9427   6.761   7.779   4.898 -1.1268  1.3970 -0.8186
  793MOL0     H 9428   6.744   7.559   4.789  0.5710  0.2077 -1.1924
  793MOL0     H 9429   6.904   7.582   4.857 -1.2294 -0.8133 -0.3882
  793MOL0     H 9430   7.013   7.553   4.458  1.7427  2.1555  0.5078
  793MOL0     H 9431   6.773   8.222   4.734 -1.8761 -0.6272 -0.1410
  793MOL0     H 9432   6.925   8.382   4.722 -0.3696 -0.3143  2.5058
  793MOL0     H 9433   6.894   8.527   4.618  0.3689 -0.2786 -0.6123
  793MOL0     H 9434   6.809   8.500   4.774 -0.2623 -4.2078  2.9081
  794MOL0     O 9435   3.218  11.399   8.317 -0.8110  0.9225 -0.8612
  794MOL0     C 9436   3.313  11.399   8.390  0.9336 -1.0416  0.6270
  794MOL0     O 9437   3.441  11.378   8.356 -0.0744  0.6915 -0.5236
  794MOL0     C 9438   3.472  11.349   8.226 -0.0604 -0.3603 -0.2407
  794MOL0     C 9439   3.399  11.262   8.149 -0.7262  0.0540 -0.4140
  794MOL0     C 9440   3.447  11.224   8.025 -0.3253  0.3034 -0.4757
  794MOL0     C 9441   3.573  11.272   7.974 -0.1780 -0.3422  0.9328
  794MOL0     O 9442   3.621  11.215   7.858  0.1738 -0.0519 -0.5499
  794MOL0     C 9443   3.571  11.088   7.812 -0.2592 -0.2029  0.2021
  794MOL0     C 9444   3.671  11.039   7.704  0.6505 -0.4002  0.1715
  794MOL0     C 9445   3.709  11.148   7.599  0.3541  0.0345 -0.9923
  794MOL0     C 9446   3.715  11.085   7.460  0.0350  0.5108 -0.0754
  794MOL0     C 9447   3.783  11.167   7.346  0.4743  0.6099 -0.1638
  794MOL0     C 9448   3.718  11.301   7.308 -0.2634  0.6450 -0.5306
  794MOL0     C 9449   3.804  11.355   7.189 -0.3354 -0.4786 -0.8712
  794MOL0     C 9450   3.793  11.283   7.050 -0.3026 -0.1637  0.1510
  794MOL0     N 9451   3.919  11.296   6.973 -0.3621 -0.7000  0.1641
  794MOL0     C 9452   4.051  11.290   7.017 -0.3574 -0.8160  0.0262
  794MOL0     C 9453   4.128  11.309   6.900  0.2313  0.1967  0.2418
  794MOL0     C 9454   4.264  11.304   6.860  0.0380  0.1029 -0.0278
  794MOL0     C 9455   4.353  11.185   6.912 -0.6850 -0.7624 -0.2177
  794MOL0     C 9456   4.395  11.192   7.060 -0.5339  1.2150  0.0753
  794MOL0     C 9457   4.483  11.064   7.091  0.1089 -0.2921  0.2727
  794MOL0     O 9458   4.525  11.044   7.225 -0.1010  0.2289  0.6421
  794MOL0     C 9459   4.438  11.025   7.323 -0.3531  0.3909 -0.5622
  794MOL0     C 9460   4.312  10.963   7.308 -0.5260  0.1462  0.2889
  794MOL0     C 9461   4.235  10.944   7.428  1.0523 -0.5791 -0.3705
  794MOL0     C 9462   4.106  10.869   7.425  0.5547  0.0525  0.8365
  794MOL0     C 9463   4.287  10.986   7.553  1.7771 -0.2601  0.3301
  794MOL0     C 9464   4.221  10.947   7.675 -0.0553 -0.2282 -0.6717
  794MOL0     O 9465   4.127  11.039   7.728  0.2709 -1.0806 -0.2782
  794MOL0     C 9466   4.039  11.008   7.830  0.9486 -0.6983 -0.6259
  794MOL0     C 9467   3.986  11.117   7.899  0.3102 -0.0332 -0.2535
  794MOL0     C 9468   3.894  11.104   8.000  0.7586  0.1536 -0.6090
  794MOL0     C 9469   3.854  10.974   8.053 -0.3928 -0.3600  0.5065
  794MOL0     O 9470   3.769  10.936   8.162  0.4754 -0.3536  0.5747
  794MOL0     C 9471   3.743  11.042   8.256  0.7251  1.1413 -0.2807
  794MOL0     C 9472   3.659  11.003   8.380  0.2239  0.5100  0.4769
  794MOL0     C 9473   3.517  10.951   8.339  0.4438 -0.7472 -0.2170
  794MOL0     C 9474   3.465  10.856   8.450 -0.1801  0.5397 -1.1117
  794MOL0     C 9475   3.316  10.859   8.463  0.4410 -0.1718 -0.5793
  794MOL0     C 9476   3.269  11.000   8.509  1.3488  0.1018 -0.2665
  794MOL0     C 9477   3.120  11.000   8.556  0.4632 -0.1559  0.5209
  794MOL0     C 9478   3.086  11.125   8.622 -0.6017  0.1058  0.0557
  794MOL0    Cl 9479   2.927  11.113   8.684  0.5200  0.1362 -0.0590
  794MOL0     C 9480   3.927  10.868   8.003 -0.0669 -0.0177  0.4206
  794MOL0     C 9481   4.011  10.880   7.892 -0.3975 -0.3229 -0.0019
  794MOL0     O 9482   4.247  10.836   7.720  0.3062 -0.8291 -0.6986
  794MOL0     C 9483   4.412  11.047   7.560 -0.5669 -0.6110  0.0173
  794MOL0     C 9484   4.478  11.070   7.447 -1.2810 -0.3121 -0.0776
  794MOL0     N 9485   4.038  11.320   6.794 -0.2710 -0.3031 -0.0142
  794MOL0     N 9486   3.922  11.310   6.837  0.1144 -0.4742  0.2703
  794MOL0     C 9487   3.638  11.363   8.050 -0.2208 -0.4145  0.4527
  794MOL0     C 9488   3.591  11.405   8.171 -0.1600 -0.6313 -0.0641
  794MOL0     C 9489   3.277  11.426   8.538 -0.0220 -0.4286  1.0477
  794MOL0     C 9490   3.354  11.356   8.627  0.9760 -0.8947  0.2059
  794MOL0     C 9491   3.318  11.358   8.762  0.5387  0.3948 -0.7135
  794MOL0     C 9492   3.206  11.427   8.812 -0.1612 -0.6443  0.5915
  794MOL0     O 9493   3.167  11.410   8.941 -0.9432 -0.3032 -0.0489
  794MOL0     C 9494   3.070  11.492   9.003 -1.1468 -0.0912  0.4500
  794MOL0     C 9495   2.921  11.447   8.982 -0.8403 -0.8945  0.3208
  794MOL0     C 9496   2.802  11.513   9.061  0.2243  0.8873 -0.6994
  794MOL0     C 9497   2.653  11.484   9.007  0.4447  0.5556 -0.2174
  794MOL0     C 9498   2.552  11.546   9.090 -0.0290  0.3685 -0.0898
  794MOL0     C 9499   2.479  11.606   9.158  0.0825 -0.0989  0.5367
  794MOL0     C 9500   3.137  11.504   8.713 -0.2686  0.7678  0.2035
  794MOL0     C 9501   3.168  11.510   8.580 -0.1108  0.4870 -0.2258
  794MOL0     C 9502   3.082  11.591   8.493 -0.1744 -0.6783  0.1521
  794MOL0     H 9503   3.307  11.216   8.182  1.4266 -5.0740 -0.6298
  794MOL0     H 9504   3.390  11.164   7.955  0.8891 -0.2582 -1.0065
  794MOL0     H 9505   3.475  11.100   7.762  1.8746 -2.0627 -5.0692
  794MOL0     H 9506   3.549  11.013   7.889 -0.8333 -0.8776 -0.6066
  794MOL0     H 9507   3.761  11.008   7.758  2.2918  1.5154 -1.3434
  794MOL0     H 9508   3.626  10.958   7.646  0.3821  0.0465 -0.2486
  794MOL0     H 9509   3.628  11.219   7.619  0.9325 -0.5389  5.5267
  794MOL0     H 9510   3.798  11.200   7.636 -0.5188 -0.0255  1.3551
  794MOL0     H 9511   3.774  10.993   7.461 -0.7494 -0.0154 -0.6585
  794MOL0     H 9512   3.610  11.061   7.441  0.6206 -2.2125 -0.3457
  794MOL0     H 9513   3.784  11.105   7.256 -0.9480  0.6351 -0.2191
  794MOL0     H 9514   3.888  11.184   7.371  0.3379 -1.5968  2.3855
  794MOL0     H 9515   3.617  11.267   7.282  0.9026 -2.0392 -1.8588
  794MOL0     H 9516   3.713  11.367   7.395  2.5855 -1.1134  1.1079
  794MOL0     H 9517   3.899  11.343   7.243 -1.6911 -3.2729  1.1632
  794MOL0     H 9518   3.784  11.460   7.169 -2.3963 -1.0511 -2.1364
  794MOL0     H 9519   3.776  11.176   7.061  1.8861 -0.7908 -1.8188
  794MOL0     H 9520   3.709  11.331   6.997 -1.7712 -0.1720  2.3473
  794MOL0     H 9521   4.101  11.274   7.112  0.1409  1.3239  0.1848
  794MOL0     H 9522   4.309  11.398   6.895 -0.7950  0.3295  0.4388
  794MOL0     H 9523   4.287  11.307   6.752 -0.5523  0.2617 -0.1512
  794MOL0     H 9524   4.301  11.090   6.894  0.9590 -1.9027  0.7427
  794MOL0     H 9525   4.444  11.182   6.851 -0.3074  0.7627  0.2335
  794MOL0     H 9526   4.439  11.282   7.105  1.7170  0.0331  0.3780
  794MOL0     H 9527   4.299  11.183   7.112 -0.0263  0.6676  0.9504
  794MOL0     H 9528   4.425  10.975   7.064 -2.4665  0.7143  2.0383
  794MOL0     H 9529   4.573  11.068   7.029 -0.2362  2.9442 -0.2030
  794MOL0     H 9530   4.296  10.924   7.208  0.6722  1.0199 -0.2638
  794MOL0     H 9531   4.055  10.893   7.331  0.3657  0.5165  1.0584
  794MOL0     H 9532   4.038  10.883   7.510 -0.2040  0.0060  0.2466
  794MOL0     H 9533   4.129  10.762   7.415 -1.4498 -0.4246  0.9386
  794MOL0     H 9534   4.002  11.218   7.863 -1.0185  0.4726  0.5114
  794MOL0     H 9535   3.867  11.202   8.038 -1.4017 -1.1541  1.5053
  794MOL0     H 9536   3.842  11.070   8.292 -0.1582 -0.3168  3.9216
  794MOL0     H 9537   3.686  11.125   8.212 -3.1119 -0.9815  0.2168
  794MOL0     H 9538   3.705  10.924   8.440 -1.4380 -1.7136 -0.9752
  794MOL0     H 9539   3.663  11.091   8.444  3.8379  1.8820 -1.3383
  794MOL0     H 9540   3.515  10.891   8.248  1.1037 -2.9420  1.1536
  794MOL0     H 9541   3.451  11.036   8.317  0.0561 -1.2766 -1.1585
  794MOL0     H 9542   3.507  10.889   8.545  1.6597 -2.5022 -0.7448
  794MOL0     H 9543   3.506  10.755   8.445 -0.1650  0.5592 -1.4093
  794MOL0     H 9544   3.290  10.840   8.359  1.2821 -0.0400 -0.8202
  794MOL0     H 9545   3.299  10.773   8.529  1.7951 -0.3648 -0.4566
  794MOL0     H 9546   3.279  11.091   8.448 -2.4291  1.3615  0.6953
  794MOL0     H 9547   3.330  11.023   8.596  1.1400  0.9036 -0.3223
  794MOL0     H 9548   3.095  10.916   8.620 -0.4409 -0.4377 -0.1876
  794MOL0     H 9549   3.067  10.997   8.460 -1.3825 -2.0083  1.5165
  794MOL0     H 9550   3.085  11.206   8.549 -0.8870 -1.1026 -1.3338
  794MOL0     H 9551   3.155  11.157   8.701  0.6767  0.7051 -1.2669
  794MOL0     H 9552   3.907  10.769   8.044  2.0084  0.5185  2.9687
  794MOL0     H 9553   4.064  10.788   7.868 -1.3216 -0.7507 -0.4413
  794MOL0     H 9554   4.458  11.085   7.651  0.3843 -0.5207 -0.4916
  794MOL0     H 9555   4.576  11.117   7.437 -0.6620 -1.0989  1.7614
  794MOL0     H 9556   3.726  11.420   8.019  0.6353 -1.8270  0.1979
  794MOL0     H 9557   3.640  11.480   8.232 -2.6933 -0.6345  2.2059
  794MOL0     H 9558   3.438  11.296   8.596  3.1294  3.3163 -3.2393
  794MOL0     H 9559   3.380  11.304   8.835  0.3755  2.1870  0.8327
  794MOL0     H 9560   3.099  11.497   9.108 -0.0124 -0.6085  0.1784
  794MOL0     H 9561   3.088  11.593   8.963 -1.4221  0.2508  1.1827
  794MOL0     H 9562   2.913  11.340   9.005  3.7214 -0.5076  6.2424
  794MOL0     H 9563   2.899  11.478   8.880 -1.2974 -1.4809  0.2320
  794MOL0     H 9564   2.800  11.475   9.164 -2.5291  0.7978 -0.7188
  794MOL0     H 9565   2.816  11.620   9.046 -3.1294  1.1660 -2.9957
  794MOL0     H 9566   2.618  11.380   9.004 -2.5404  1.4921 -0.4365
  794MOL0     H 9567   2.650  11.532   8.909  1.1195 -2.6241 -1.9574
  794MOL0     H 9568   2.427  11.661   9.234 -2.7669  2.2441 -2.7819
  794MOL0     H 9569   3.045  11.555   8.741 -1.6626 -1.9658  1.0891
  794MOL0     H 9570   3.150  11.640   8.423  1.4272 -1.5201  1.0469
  794MOL0     H 9571   3.007  11.525   8.450  1.8094 -1.7274 -1.8966
  794MOL0     H 9572   3.040  11.676   8.549  2.3230  1.6055 -1.1999
  795MOL0     O 9573   7.199   2.196   2.784  0.2650 -0.3004 -0.7203
  795MOL0     C 9574   7.107   2.128   2.742 -0.4173  0.0318  0.2282
  795MOL0     O 9575   7.079   2.127   2.607  0.2520 -0.3461 -0.5897
  795MOL0     C 9576   7.146   2.218   2.529 -0.4176  0.7364  0.4451
  795MOL0     C 9577   7.281   2.218   2.515 -0.0838 -0.0546 -0.4774
  795MOL0     C 9578   7.340   2.320   2.445  0.1990 -0.2804  0.2004
  795MOL0     C 9579   7.266   2.431   2.390 -0.5320  0.0956  0.2329
  795MOL0     O 9580   7.323   2.543   2.340 -0.6692  0.0345  0.4372
  795MOL0     C 9581   7.321   2.644   2.444 -0.5230 -0.8251 -0.3005
  795MOL0     C 9582   7.410   2.765   2.405 -0.8047  0.5636 -0.4050
  795MOL0     C 9583   7.556   2.775   2.444 -0.4002  1.1551  0.4423
  795MOL0     C 9584   7.623   2.648   2.377 -0.4347 -1.0448 -0.1325
  795MOL0     C 9585   7.780   2.649   2.381  0.0963 -0.1171 -0.3164
  795MOL0     C 9586   7.857   2.609   2.256  0.2385  0.0391  0.0658
  795MOL0     C 9587   8.001   2.649   2.255 -0.3658 -0.2821  0.5263
  795MOL0     C 9588   8.047   2.647   2.099 -0.2871  0.2951 -1.2070
  795MOL0     N 9589   8.179   2.705   2.101 -0.0105 -1.1230 -0.5309
  795MOL0     C 9590   8.216   2.838   2.124 -0.7469  0.1299  0.2041
  795MOL0     C 9591   8.332   2.859   2.054 -0.6773  0.1078 -0.8159
  795MOL0     C 9592   8.420   2.983   2.046 -0.6850  0.0846 -0.3426
  795MOL0     C 9593   8.516   2.995   2.165 -0.2192  0.8346  0.4537
  795MOL0     C 9594   8.622   3.107   2.143  0.0808  0.2548 -0.4090
  795MOL0     C 9595   8.754   3.074   2.223 -0.2481  0.1492  0.0468
  795MOL0     O 9596   8.850   3.178   2.195  0.2630  0.3333 -0.6149
  795MOL0     C 9597   8.968   3.136   2.249 -0.4171 -0.0016 -0.6299
  795MOL0     C 9598   8.998   3.157   2.385  0.2448 -0.2673 -0.3878
  795MOL0     C 9599   9.114   3.107   2.446  0.1407 -0.8068 -0.3199
  795MOL0     C 9600   9.148   3.160   2.589  0.7223 -0.0447 -0.4134
  795MOL0     C 9601   9.201   3.029   2.372 -0.4902 -0.8739  1.1046
  795MOL0     C 9602   9.341   2.982   2.435  0.5801  0.0680  1.2686
  795MOL0     O 9603   9.433   2.957   2.337  0.4952 -0.7670 -0.9369
  795MOL0     C 9604   9.553   2.890   2.357  0.3095 -0.4549 -0.1793
  795MOL0     C 9605   9.567   2.767   2.416  0.1386  1.1826  0.3596
  795MOL0     C 9606   9.704   2.726   2.457  0.0027  0.0794 -0.5145
  795MOL0     C 9607   9.819   2.803   2.439  0.1211 -1.0123 -0.2033
  795MOL0     O 9608   9.940   2.761   2.482 -0.0319  1.1786  0.4617
  795MOL0     C 9609  10.044   2.846   2.520  0.1069 -0.5343  0.0459
  795MOL0     C 9610  10.172   2.782   2.574  0.3264  0.0622 -0.3812
  795MOL0     C 9611  10.287   2.858   2.634  0.6151  0.0694  0.4678
  795MOL0     C 9612  10.240   2.978   2.720  0.5683 -0.0666  0.0744
  795MOL0     C 9613  10.372   3.030   2.780  0.4519  0.5924  0.1285
  795MOL0     C 9614  10.348   3.092   2.917 -0.1207 -0.7699 -0.2021
  795MOL0     C 9615  10.470   3.152   2.979  0.0591 -0.3556 -0.2169
  795MOL0     C 9616  10.440   3.210   3.117  0.1343 -0.6060 -0.1808
  795MOL0    Cl 9617  10.391   3.080   3.237  0.7689  0.2106 -0.3750
  795MOL0     C 9618   9.797   2.914   2.363 -0.2386 -0.1178  0.8050
  795MOL0     C 9619   9.674   2.973   2.325 -0.4122 -0.0613  1.3582
  795MOL0     O 9620   9.370   2.987   2.554  0.6286  0.7312 -0.4395
  795MOL0     C 9621   9.179   3.018   2.233  0.6024 -0.4462 -0.0858
  795MOL0     C 9622   9.068   3.070   2.174  1.4141  0.0752 -0.6605
  795MOL0     N 9623   8.371   2.742   1.989  0.3160 -0.0846 -0.9134
  795MOL0     N 9624   8.274   2.662   2.015 -0.8852  0.0363 -1.0431
  795MOL0     C 9625   7.130   2.416   2.401 -0.1053 -0.7908  0.0329
  795MOL0     C 9626   7.067   2.314   2.463 -0.2472 -0.2408  0.1520
  795MOL0     C 9627   7.033   2.034   2.831  0.2657  0.2622  0.0274
  795MOL0     C 9628   6.917   1.976   2.785  0.2158  0.0892  0.2218
  795MOL0     C 9629   6.829   1.909   2.866  1.0183 -0.3829 -0.5801
  795MOL0     C 9630   6.858   1.898   3.001  1.1621 -0.5478 -0.1067
  795MOL0     O 9631   6.763   1.825   3.070 -0.1608 -0.3113  0.0616
  795MOL0     C 9632   6.775   1.826   3.219  0.3220 -0.1447  0.3225
  795MOL0     C 9633   6.731   1.962   3.280 -0.1569 -0.0207 -0.1030
  795MOL0     C 9634   6.578   1.980   3.272 -0.1326 -0.5843  0.0219
  795MOL0     C 9635   6.541   2.109   3.345  0.1026  0.2816  0.2299
  795MOL0     C 9636   6.577   2.235   3.275 -0.1830  0.6088  0.2988
  795MOL0     C 9637   6.598   2.339   3.223  0.2438 -0.1189 -0.1431
  795MOL0     C 9638   6.979   1.954   3.051  0.3421 -0.3602 -0.1429
  795MOL0     C 9639   7.065   2.025   2.965  1.1055  0.0496 -0.3541
  795MOL0     C 9640   7.186   2.075   3.049 -0.2093 -0.0032 -0.0641
  795MOL0     H 9641   7.333   2.131   2.554 -0.3974 -0.0363 -0.0058
  795MOL0     H 9642   7.446   2.342   2.443  0.1259  0.0587 -0.0989
  795MOL0     H 9643   7.352   2.612   2.543  0.1839  0.7459  0.0250
  795MOL0     H 9644   7.216   2.675   2.439 -0.5720 -1.1305 -1.3906
  795MOL0     H 9645   7.404   2.784   2.298  0.6108 -2.4069 -1.1220
  795MOL0     H 9646   7.367   2.853   2.455 -0.5330  0.0713  0.7368
  795MOL0     H 9647   7.609   2.867   2.420 -0.5107  1.4298  1.2141
  795MOL0     H 9648   7.580   2.765   2.550  2.6029  3.6404  0.1407
  795MOL0     H 9649   7.586   2.555   2.421 -0.2870 -2.5697 -3.0199
  795MOL0     H 9650   7.588   2.639   2.274 -2.7174  1.6199  0.2705
  795MOL0     H 9651   7.825   2.582   2.455 -2.2000 -3.5329 -1.7167
  795MOL0     H 9652   7.810   2.751   2.402  2.7896 -0.6818 -1.0914
  795MOL0     H 9653   7.856   2.500   2.251 -3.4521 -0.0682 -0.0403
  795MOL0     H 9654   7.807   2.631   2.160  0.2222  0.3988  0.1542
  795MOL0     H 9655   8.059   2.573   2.308  0.4678  0.0296  0.0850
  795MOL0     H 9656   8.031   2.742   2.304  2.5961 -1.2287  0.7368
  795MOL0     H 9657   8.042   2.539   2.080 -3.4163  0.3824 -1.3984
  795MOL0     H 9658   7.989   2.720   2.041 -1.2201 -0.5832 -1.4097
  795MOL0     H 9659   8.171   2.910   2.192  1.0549 -1.4221  3.2741
  795MOL0     H 9660   8.364   3.076   2.035 -2.3897 -0.8127  0.2925
  795MOL0     H 9661   8.475   2.986   1.951 -1.3341 -0.2624 -0.7381
  795MOL0     H 9662   8.474   3.009   2.265 -1.2885 -0.8689  0.2829
  795MOL0     H 9663   8.581   2.907   2.164 -0.7394  0.3767 -2.3363
  795MOL0     H 9664   8.649   3.122   2.038 -0.9145 -1.8818 -1.0103
  795MOL0     H 9665   8.577   3.197   2.187  0.4982 -0.5921  1.8945
  795MOL0     H 9666   8.738   3.054   2.330 -3.0401  1.2003 -0.0847
  795MOL0     H 9667   8.789   2.980   2.180 -3.8469 -1.1357 -0.3829
  795MOL0     H 9668   8.929   3.233   2.421 -2.0364 -1.6078 -1.6984
  795MOL0     H 9669   9.077   3.240   2.612  0.1567 -0.4927 -0.5817
  795MOL0     H 9670   9.244   3.212   2.599 -1.3832  3.8962  1.9676
  795MOL0     H 9671   9.128   3.080   2.660 -4.4001  0.6144 -0.7495
  795MOL0     H 9672   9.479   2.704   2.429 -1.0368  1.7632 -3.5073
  795MOL0     H 9673   9.715   2.631   2.508 -0.4046  0.9468  1.2461
  795MOL0     H 9674  10.060   2.911   2.433 -0.8919 -2.6831 -1.8620
  795MOL0     H 9675   9.998   2.910   2.595  1.8386  1.6853 -0.6729
  795MOL0     H 9676  10.138   2.715   2.653  0.4351  1.6361  1.0706
  795MOL0     H 9677  10.211   2.715   2.497 -2.0644 -1.6665 -0.2187
  795MOL0     H 9678  10.328   2.895   2.540 -1.9173 -3.2394 -2.1667
  795MOL0     H 9679  10.349   2.781   2.680 -0.3215 -0.3457  1.0664
  795MOL0     H 9680  10.165   2.948   2.794 -1.4688  0.7017 -1.5646
  795MOL0     H 9681  10.202   3.053   2.650  3.5220  0.7532 -0.7885
  795MOL0     H 9682  10.438   2.945   2.793  2.8215  1.7826 -2.9300
  795MOL0     H 9683  10.409   3.104   2.708  0.1687 -1.1141 -1.8830
  795MOL0     H 9684  10.313   3.015   2.987  3.5753 -1.5188  1.0572
  795MOL0     H 9685  10.273   3.172   2.917 -0.0493 -0.6921  0.6290
  795MOL0     H 9686  10.516   3.227   2.914  1.4015 -1.4693 -0.6104
  795MOL0     H 9687  10.537   3.066   2.990  0.0390 -0.2361  0.9687
  795MOL0     H 9688  10.356   3.280   3.105 -2.2055 -3.1281  0.5753
  795MOL0     H 9689  10.534   3.259   3.145  0.0846  0.3160 -1.5197
  795MOL0     H 9690   9.885   2.974   2.340  0.1038 -1.3871 -1.5649
  795MOL0     H 9691   9.659   3.072   2.284 -1.2111 -0.1583  1.3919
  795MOL0     H 9692   9.250   2.963   2.171  1.1501 -0.4281  0.5136
  795MOL0     H 9693   9.060   3.062   2.066  2.4344  3.7210 -1.1537
  795MOL0     H 9694   7.070   2.501   2.371 -1.7856 -1.8716  0.2200
  795MOL0     H 9695   6.959   2.319   2.467 -0.2617  0.1044 -0.6720
  795MOL0     H 9696   6.905   1.975   2.677 -1.4223 -0.8748  0.3958
  795MOL0     H 9697   6.749   1.848   2.827  1.4174  0.1531 -2.3395
  795MOL0     H 9698   6.705   1.751   3.256  1.3271 -1.4735 -0.3310
  795MOL0     H 9699   6.877   1.795   3.245  1.2631 -0.3338 -3.0389
  795MOL0     H 9700   6.783   2.038   3.221  0.9962 -0.9920 -0.3865
  795MOL0     H 9701   6.777   1.969   3.379 -1.6769  1.8599  0.5516
  795MOL0     H 9702   6.550   1.983   3.166  3.5149 -1.3954 -1.1122
  795MOL0     H 9703   6.523   1.891   3.302 -5.9084  1.6593 -2.4886
  795MOL0     H 9704   6.580   2.107   3.447  0.4290 -2.7923  0.1460
  795MOL0     H 9705   6.432   2.105   3.361 -0.0149  1.5313 -0.1835
  795MOL0     H 9706   6.614   2.436   3.180  3.4988 -0.0504  0.9202
  795MOL0     H 9707   7.014   1.934   3.151  0.7782 -1.5979 -0.5264
  795MOL0     H 9708   7.143   2.150   3.117 -1.2967 -0.0151 -0.7101
  795MOL0     H 9709   7.233   2.003   3.117  0.9385  2.9054  2.4712
  795MOL0     H 9710   7.269   2.116   2.991  1.4582  0.5945  2.5763
  796MOL0     O 9711   3.512   0.491   2.443 -0.5746 -0.4641  0.1081
  796MOL0     C 9712   3.588   0.583   2.389  0.0734 -0.3138 -0.3587
  796MOL0     O 9713   3.617   0.697   2.443  0.5545 -0.2673  0.3732
  796MOL0     C 9714   3.619   0.726   2.574 -0.4726 -1.3195  0.5657
  796MOL0     C 9715   3.618   0.640   2.678 -0.4801 -0.0037  0.2018
  796MOL0     C 9716   3.624   0.680   2.810 -0.1576  1.0503 -0.5551
  796MOL0     C 9717   3.644   0.814   2.846  0.3385 -0.4613  0.9771
  796MOL0     O 9718   3.635   0.848   2.977  0.0533  0.4523 -0.4938
  796MOL0     C 9719   3.692   0.978   3.016 -0.0013 -0.4741  0.0535
  796MOL0     C 9720   3.652   1.021   3.160 -0.5393 -0.1945 -0.4956
  796MOL0     C 9721   3.507   1.052   3.154 -0.7119  0.0589  0.9091
  796MOL0     C 9722   3.466   1.130   3.275 -0.3744 -1.1509  0.2435
  796MOL0     C 9723   3.476   1.044   3.402  0.0217 -0.2499 -0.7288
  796MOL0     C 9724   3.403   1.108   3.528  0.2633  0.3321 -0.9587
  796MOL0     C 9725   3.412   1.025   3.653 -0.7298  0.3409 -0.6718
  796MOL0     C 9726   3.326   1.089   3.761  0.2640 -0.6510 -0.9456
  796MOL0     N 9727   3.388   1.068   3.892 -0.4070  0.2775  0.1343
  796MOL0     C 9728   3.420   0.942   3.958  0.6343 -0.1596 -0.8501
  796MOL0     C 9729   3.442   0.965   4.090  0.0550 -0.6783  0.4418
  796MOL0     C 9730   3.469   0.860   4.192  0.0407  0.8953 -0.5944
  796MOL0     C 9731   3.521   0.931   4.319 -0.4801 -0.5883 -0.3284
  796MOL0     C 9732   3.509   0.828   4.435  0.0041 -0.1915 -0.0696
  796MOL0     C 9733   3.576   0.908   4.558  0.0577 -0.1917 -0.1673
  796MOL0     O 9734   3.663   0.818   4.630  0.1543 -0.4941  0.4845
  796MOL0     C 9735   3.714   0.879   4.740 -0.6415 -0.2349  0.8891
  796MOL0     C 9736   3.637   0.928   4.839  0.2896 -0.3665 -0.0033
  796MOL0     C 9737   3.691   0.983   4.959  1.0648  0.2243 -0.5481
  796MOL0     C 9738   3.601   1.039   5.067 -0.8903 -0.3571  0.3109
  796MOL0     C 9739   3.838   0.975   4.967 -0.0214 -0.8955 -0.0157
  796MOL0     C 9740   3.913   1.018   5.087  0.2198  0.1241  1.3250
  796MOL0     O 9741   4.016   1.100   5.063 -0.1354 -0.4961 -0.7935
  796MOL0     C 9742   4.102   1.109   5.170 -0.7685 -1.0464 -0.1854
  796MOL0     C 9743   4.085   1.216   5.256 -0.3706 -0.4164 -0.4129
  796MOL0     C 9744   4.173   1.245   5.365  0.5465 -1.1934  0.5374
  796MOL0     C 9745   4.277   1.153   5.394  0.2602 -0.7310 -0.6483
  796MOL0     O 9746   4.358   1.152   5.503 -0.8198 -0.1789  0.5732
  796MOL0     C 9747   4.340   1.257   5.595 -0.0757 -0.5976  0.6951
  796MOL0     C 9748   4.254   1.204   5.710  0.0001 -0.7260 -0.6970
  796MOL0     C 9749   4.247   1.323   5.806 -0.3605  0.6685 -0.6372
  796MOL0     C 9750   4.154   1.438   5.768  0.3533  0.6105  0.1447
  796MOL0     C 9751   4.160   1.555   5.858 -0.0879 -0.3065  0.5490
  796MOL0     C 9752   4.287   1.638   5.854 -0.3915 -0.0857 -0.0356
  796MOL0     C 9753   4.331   1.686   5.717  0.0556 -0.1939  0.5667
  796MOL0     C 9754   4.456   1.779   5.721  0.2879 -0.1627  0.9034
  796MOL0    Cl 9755   4.472   1.835   5.551  0.4267  0.3179 -0.0238
  796MOL0     C 9756   4.304   1.048   5.301  0.5645  0.5868  0.3833
  796MOL0     C 9757   4.213   1.026   5.193 -0.6920 -0.2689  0.2717
  796MOL0     O 9758   3.879   0.962   5.193 -0.2708 -0.2686  0.8018
  796MOL0     C 9759   3.910   0.929   4.862  0.0681  0.9237 -0.5721
  796MOL0     C 9760   3.852   0.877   4.745  1.1955  0.4148 -0.9875
  796MOL0     N 9761   3.424   1.102   4.100  0.1220  0.8430 -0.1144
  796MOL0     N 9762   3.399   1.159   3.987  0.6045 -1.0263  0.3503
  796MOL0     C 9763   3.659   0.901   2.736  0.4067 -0.6919  0.2041
  796MOL0     C 9764   3.640   0.862   2.606  0.9172 -0.0418 -0.6472
  796MOL0     C 9765   3.644   0.549   2.259  0.8601 -0.5209 -0.0751
  796MOL0     C 9766   3.761   0.615   2.226 -0.7664  0.4797 -0.0603
  796MOL0     C 9767   3.826   0.601   2.105  0.4152  0.6140  0.1786
  796MOL0     C 9768   3.765   0.514   2.014  0.1789  0.0828 -0.2278
  796MOL0     O 9769   3.833   0.481   1.896 -0.2503 -0.6923 -0.5696
  796MOL0     C 9770   3.855   0.596   1.805 -0.2660  0.1068  0.5989
  796MOL0     C 9771   3.842   0.557   1.661  0.2894 -0.2791 -0.0924
  796MOL0     C 9772   3.696   0.545   1.604 -0.5445  0.7655  0.4468
  796MOL0     C 9773   3.699   0.494   1.456 -1.4792 -0.4045  0.7413
  796MOL0     C 9774   3.582   0.421   1.412 -0.4267 -0.2576 -0.3367
  796MOL0     C 9775   3.474   0.360   1.409  0.7106  0.8873 -0.1987
  796MOL0     C 9776   3.651   0.444   2.040  0.0266 -1.0917 -0.6694
  796MOL0     C 9777   3.584   0.460   2.162  1.0774  0.4986  0.6944
  796MOL0     C 9778   3.446   0.388   2.166  0.6573 -1.1637  0.4305
  796MOL0     H 9779   3.586   0.538   2.661 -2.2316  0.4559  0.4794
  796MOL0     H 9780   3.599   0.612   2.891  1.8653 -2.0655 -2.3810
  796MOL0     H 9781   3.669   1.062   2.950  2.5492  0.5935  0.3995
  796MOL0     H 9782   3.801   0.986   3.011 -0.2062  2.6468 -2.1624
  796MOL0     H 9783   3.665   0.946   3.238 -0.4886 -1.5198 -1.7323
  796MOL0     H 9784   3.706   1.112   3.189  0.6393 -1.9170  3.4429
  796MOL0     H 9785   3.484   1.114   3.067 -0.0392  0.5119  1.0425
  796MOL0     H 9786   3.440   0.966   3.143 -1.4638  0.5736  1.3244
  796MOL0     H 9787   3.507   1.230   3.290 -1.2788 -1.0078  2.1211
  796MOL0     H 9788   3.358   1.136   3.260 -0.0935  0.2099 -1.5423
  796MOL0     H 9789   3.580   1.032   3.433 -0.3468  0.8636  1.0472
  796MOL0     H 9790   3.437   0.945   3.374 -1.6907 -0.4888  2.1261
  796MOL0     H 9791   3.443   1.210   3.539  0.2528  0.3898 -1.4379
  796MOL0     H 9792   3.299   1.115   3.496 -0.5511  2.6323  1.7568
  796MOL0     H 9793   3.518   1.025   3.683  0.6065 -1.7566 -4.6965
  796MOL0     H 9794   3.396   0.919   3.635  1.1562  0.3493 -2.9009
  796MOL0     H 9795   3.340   1.197   3.754  1.7666 -0.8282 -0.9379
  796MOL0     H 9796   3.222   1.057   3.774  0.1942  0.5401  2.2410
  796MOL0     H 9797   3.428   0.849   3.903  1.5368 -0.4558 -0.2482
  796MOL0     H 9798   3.554   0.798   4.162 -0.6697  0.6823 -2.2857
  796MOL0     H 9799   3.381   0.796   4.209  3.5844 -4.6917 -0.4418
  796MOL0     H 9800   3.616   0.982   4.302  1.1026 -1.8119  3.7163
  796MOL0     H 9801   3.448   1.012   4.330 -1.1827 -0.9516 -2.0907
  796MOL0     H 9802   3.410   0.807   4.476  0.1938 -1.3249 -0.1614
  796MOL0     H 9803   3.573   0.745   4.405 -0.8344 -0.3714 -1.4331
  796MOL0     H 9804   3.652   0.976   4.519  1.7302 -3.3917 -2.9941
  796MOL0     H 9805   3.499   0.949   4.624 -1.4046 -0.4144 -1.6738
  796MOL0     H 9806   3.529   0.921   4.853  0.6028 -3.6524  1.5677
  796MOL0     H 9807   3.630   1.015   5.169 -0.7989 -0.8480  0.1720
  796MOL0     H 9808   3.498   1.011   5.044 -0.1333 -4.1106  0.8941
  796MOL0     H 9809   3.603   1.148   5.059 -1.3923 -0.3384  0.4358
  796MOL0     H 9810   4.006   1.287   5.233 -0.4117 -0.9484 -2.0757
  796MOL0     H 9811   4.158   1.336   5.423  2.2219  1.5679 -2.9639
  796MOL0     H 9812   4.442   1.286   5.621 -0.2937  1.8494 -0.8516
  796MOL0     H 9813   4.289   1.345   5.555  1.2878  0.8945  2.0741
  796MOL0     H 9814   4.164   1.151   5.678 -0.4056 -2.2687  2.5869
  796MOL0     H 9815   4.310   1.120   5.752 -0.2582 -0.3355  0.4652
  796MOL0     H 9816   4.350   1.357   5.817 -0.1521 -0.5985  2.0687
  796MOL0     H 9817   4.204   1.285   5.899 -2.4283  3.9328 -0.1116
  796MOL0     H 9818   4.053   1.401   5.790 -1.2389  2.6383 -3.0321
  796MOL0     H 9819   4.153   1.462   5.661  0.5569  1.1528  0.2650
  796MOL0     H 9820   4.079   1.622   5.825  2.6763  2.7877 -0.4710
  796MOL0     H 9821   4.150   1.522   5.961 -0.8458 -2.9447 -0.2840
  796MOL0     H 9822   4.371   1.589   5.903 -0.4100 -0.0895 -0.0077
  796MOL0     H 9823   4.262   1.732   5.904 -0.0401 -0.0333  0.0452
  796MOL0     H 9824   4.241   1.732   5.673  1.0315 -0.4199 -1.8327
  796MOL0     H 9825   4.366   1.599   5.660  0.4587 -0.5721  1.3790
  796MOL0     H 9826   4.545   1.723   5.753 -0.3114 -1.8661 -0.2784
  796MOL0     H 9827   4.438   1.859   5.793  0.0747  1.1449 -0.5547
  796MOL0     H 9828   4.383   0.976   5.320 -0.6453  0.1925  4.9158
  796MOL0     H 9829   4.237   0.960   5.111  0.9806  0.0602  0.4448
  796MOL0     H 9830   4.018   0.933   4.862  0.2888 -1.6176 -2.9993
  796MOL0     H 9831   3.915   0.837   4.667  2.9521  1.4280 -0.1483
  796MOL0     H 9832   3.678   1.008   2.734  0.3878 -0.6168  2.1195
  796MOL0     H 9833   3.623   0.927   2.521  0.4131  0.4110 -0.2077
  796MOL0     H 9834   3.814   0.673   2.301 -0.3841  2.2476 -1.6183
  796MOL0     H 9835   3.925   0.641   2.084  0.9976 -0.7909  0.0896
  796MOL0     H 9836   3.788   0.680   1.826  0.0905  0.0502  2.0850
  796MOL0     H 9837   3.957   0.635   1.810 -1.0340  2.5098 -0.8055
  796MOL0     H 9838   3.895   0.461   1.654 -0.8584 -0.9449  0.1975
  796MOL0     H 9839   3.898   0.638   1.614 -1.8769  2.1137  1.2354
  796MOL0     H 9840   3.637   0.475   1.663  1.4720 -0.5583  0.9878
  796MOL0     H 9841   3.642   0.640   1.599 -0.1751  1.0379  1.4603
  796MOL0     H 9842   3.778   0.419   1.445 -0.6272  0.5181  0.4491
  796MOL0     H 9843   3.734   0.578   1.396 -1.3930 -1.2921 -0.4898
  796MOL0     H 9844   3.382   0.308   1.427  1.2148 -0.3421 -1.0435
  796MOL0     H 9845   3.607   0.389   1.958  0.5851 -1.0529 -1.0016
  796MOL0     H 9846   3.367   0.436   2.224  2.0289 -0.3397  1.7244
  796MOL0     H 9847   3.396   0.374   2.070 -2.7358  0.9623  1.6949
  796MOL0     H 9848   3.464   0.290   2.211 -2.3733 -2.8400 -1.6762
  797MOL0     O 9849   7.546  10.627   0.409  0.3091 -0.1858 -0.0790
  797MOL0     C 9850   7.520  10.742   0.448  0.0693  0.5007 -0.0295
  797MOL0     O 9851   7.447  10.829   0.375  0.6246 -0.0738  0.7163
  797MOL0     C 9852   7.426  10.803   0.239 -0.6721  0.6806  0.5474
  797MOL0     C 9853   7.376  10.689   0.173  0.5403 -0.4121  1.1814
  797MOL0     C 9854   7.343  10.682   0.037  0.1888 -0.6712  0.4488
  797MOL0     C 9855   7.381  10.787  -0.048 -0.7417 -0.5517 -0.3364
  797MOL0     O 9856   7.389  10.785  -0.187 -0.3852 -0.5736 -0.6129
  797MOL0     C 9857   7.400  10.654  -0.244  0.2346  0.2301  0.0815
  797MOL0     C 9858   7.455  10.659  -0.382  0.4270 -0.4377 -0.0912
  797MOL0     C 9859   7.343  10.641  -0.482 -0.0195 -0.7572  0.5001
  797MOL0     C 9860   7.305  10.490  -0.503  0.6136 -0.4007 -0.3827
  797MOL0     C 9861   7.416  10.419  -0.584  0.1931 -0.0065  0.1968
  797MOL0     C 9862   7.398  10.265  -0.605  0.1967  1.2773 -0.3449
  797MOL0     C 9863   7.259  10.229  -0.661 -0.4760 -0.0671 -0.0181
  797MOL0     C 9864   7.219  10.088  -0.627 -1.1998  0.0580 -0.4480
  797MOL0     N 9865   7.099  10.043  -0.704 -0.9209 -0.4874 -0.0338
  797MOL0     C 9866   7.114  10.008  -0.837 -0.5106  0.5236  0.0634
  797MOL0     C 9867   6.995   9.953  -0.859  0.6715  0.0794  0.4104
  797MOL0     C 9868   6.963   9.872  -0.980 -0.0860 -0.1451 -0.0467
  797MOL0     C 9869   6.875   9.944  -1.082 -0.2914 -0.5591 -0.0830
  797MOL0     C 9870   6.911   9.893  -1.216  0.0396 -0.3653  0.4234
  797MOL0     C 9871   6.808   9.928  -1.318 -1.2325 -0.2214 -0.1923
  797MOL0     O 9872   6.857   9.915  -1.453 -1.1705 -0.7239 -0.4223
  797MOL0     C 9873   6.781   9.901  -1.569  0.6328  0.4977 -0.0187
  797MOL0     C 9874   6.654   9.836  -1.562  0.2057 -0.5330  0.9053
  797MOL0     C 9875   6.584   9.809  -1.683 -0.0682 -0.1182 -0.1283
  797MOL0     C 9876   6.453   9.737  -1.674  0.2453  0.6275 -0.1744
  797MOL0     C 9877   6.629   9.873  -1.804 -0.1026 -0.0199 -0.8459
  797MOL0     C 9878   6.547   9.901  -1.923  0.1314 -0.8500 -0.0123
  797MOL0     O 9879   6.601   9.974  -2.035 -0.7339  0.2162 -0.6099
  797MOL0     C 9880   6.528  10.001  -2.154 -0.2265 -0.0809  0.3179
  797MOL0     C 9881   6.603  10.029  -2.264 -0.3722 -0.0091 -0.0629
  797MOL0     C 9882   6.546  10.067  -2.383 -0.1452  0.1334 -0.0022
  797MOL0     C 9883   6.405  10.083  -2.398 -0.4336 -0.4719 -0.2961
  797MOL0     O 9884   6.339  10.125  -2.510 -0.1711  0.1377  0.4339
  797MOL0     C 9885   6.398  10.126  -2.645  0.6830  0.3409 -1.1084
  797MOL0     C 9886   6.322  10.210  -2.746  0.4856 -0.9722 -0.4609
  797MOL0     C 9887   6.184  10.139  -2.778 -0.7210 -0.5907 -0.0625
  797MOL0     C 9888   6.190   9.987  -2.812  0.1052  0.0791  0.6634
  797MOL0     C 9889   6.068   9.947  -2.894  0.5384 -0.7319  0.2068
  797MOL0     C 9890   6.093   9.999  -3.044 -0.2284  0.8615  0.3914
  797MOL0     C 9891   6.139   9.882  -3.140  0.0041 -0.6180 -0.0326
  797MOL0     C 9892   6.141   9.917  -3.292  0.4802  0.0407  0.1277
  797MOL0    Cl 9893   5.988   9.982  -3.338 -0.1240  0.1358 -0.2211
  797MOL0     C 9894   6.325  10.055  -2.284  0.0527 -0.4388  0.7593
  797MOL0     C 9895   6.388  10.006  -2.168 -0.0997 -0.6625 -0.2993
  797MOL0     O 9896   6.436   9.858  -1.926  0.5799 -0.0117 -0.5486
  797MOL0     C 9897   6.759   9.933  -1.803 -0.2345 -0.0802 -1.1588
  797MOL0     C 9898   6.833   9.946  -1.688  1.1220  0.2130  0.0439
  797MOL0     N 9899   6.909   9.983  -0.755  0.0471 -0.2098 -0.3189
  797MOL0     N 9900   6.972  10.035  -0.656 -0.1480 -0.0202  0.1318
  797MOL0     C 9901   7.441  10.894   0.012 -0.0530  0.2846 -0.0602
  797MOL0     C 9902   7.454  10.902   0.153 -0.0352 -0.3798 -0.2754
  797MOL0     C 9903   7.569  10.791   0.585 -0.5895 -0.0942  0.4648
  797MOL0     C 9904   7.544  10.923   0.628 -0.4333 -0.5952  0.6236
  797MOL0     C 9905   7.595  10.983   0.744 -0.6495 -0.2794  0.6680
  797MOL0     C 9906   7.671  10.909   0.830  0.1130  0.9290 -0.2401
  797MOL0     O 9907   7.722  10.957   0.943 -0.2185 -0.0439  0.6515
  797MOL0     C 9908   7.678  11.086   1.003 -0.4017  0.4951 -0.2221
  797MOL0     C 9909   7.741  11.217   0.948  1.1296 -0.1567  0.3770
  797MOL0     C 9910   7.878  11.229   1.014 -0.3029 -0.0798 -0.9054
  797MOL0     C 9911   7.974  11.320   0.947 -0.5588 -0.0180  1.2082
  797MOL0     C 9912   7.918  11.450   0.908 -0.5320 -0.1480  0.3374
  797MOL0     C 9913   7.868  11.541   0.858  1.0455  0.4656 -0.5112
  797MOL0     C 9914   7.713  10.788   0.785 -0.7395  0.9627 -0.5388
  797MOL0     C 9915   7.668  10.732   0.663  0.4577 -0.2363 -0.0063
  797MOL0     C 9916   7.722  10.593   0.621  0.2749  0.3125 -0.5417
  797MOL0     H 9917   7.364  10.600   0.234  1.6046 -1.3545  0.0844
  797MOL0     H 9918   7.307  10.586   0.002  1.9746 -0.2612 -2.9255
  797MOL0     H 9919   7.303  10.603  -0.246 -1.8130  3.7648 -0.0166
  797MOL0     H 9920   7.463  10.585  -0.188  2.2527  0.3050 -1.9291
  797MOL0     H 9921   7.517  10.749  -0.392  1.2207 -0.9266  0.3443
  797MOL0     H 9922   7.537  10.587  -0.384 -0.6315 -1.8279  2.5974
  797MOL0     H 9923   7.249  10.690  -0.456  0.9254  1.1464  0.5076
  797MOL0     H 9924   7.378  10.684  -0.576 -1.2030 -1.4035 -0.2518
  797MOL0     H 9925   7.298  10.435  -0.409  0.8642 -0.9356 -0.6724
  797MOL0     H 9926   7.209  10.482  -0.556  0.3095  1.4141 -0.1916
  797MOL0     H 9927   7.520  10.434  -0.552  1.4119  0.2032 -3.3613
  797MOL0     H 9928   7.416  10.465  -0.684 -0.7275  2.1755  1.1312
  797MOL0     H 9929   7.471  10.215  -0.670  2.4356  1.9986  1.4554
  797MOL0     H 9930   7.415  10.219  -0.507 -0.4784 -1.2700 -1.3607
  797MOL0     H 9931   7.258  10.266  -0.764  2.5414  2.6558  0.7632
  797MOL0     H 9932   7.188  10.292  -0.605  1.3877  2.8122 -0.6712
  797MOL0     H 9933   7.298  10.014  -0.644 -2.2208 -1.1052 -0.3263
  797MOL0     H 9934   7.197  10.081  -0.521  0.7248  2.7950  0.2348
  797MOL0     H 9935   7.211  10.000  -0.887  0.4620 -0.3172  1.9701
  797MOL0     H 9936   6.906   9.782  -0.957  2.0680 -0.8235  3.4242
  797MOL0     H 9937   7.057   9.826  -1.012  0.5224  2.0107 -1.6041
  797MOL0     H 9938   6.778   9.897  -1.059 -0.4374 -0.4440 -0.4527
  797MOL0     H 9939   6.867  10.053  -1.080  1.9271 -0.3403 -0.9088
  797MOL0     H 9940   7.001   9.946  -1.248 -0.4105 -0.6270 -1.4085
  797MOL0     H 9941   6.921   9.784  -1.220 -1.3616 -0.5061  0.0133
  797MOL0     H 9942   6.730   9.855  -1.298 -0.2600 -0.2326  4.7006
  797MOL0     H 9943   6.763  10.024  -1.292 -0.3822  0.2134 -0.2610
  797MOL0     H 9944   6.612   9.805  -1.467 -3.3863 -0.5630 -0.5499
  797MOL0     H 9945   6.368   9.803  -1.653  0.1224  0.6412 -0.7139
  797MOL0     H 9946   6.458   9.669  -1.588 -1.2530  0.8869  0.1403
  797MOL0     H 9947   6.433   9.663  -1.752 -1.2859 -0.3434  1.0841
  797MOL0     H 9948   6.710  10.014  -2.271 -0.4269 -0.4299 -0.0460
  797MOL0     H 9949   6.612  10.095  -2.465  1.3355 -0.7687  0.8343
  797MOL0     H 9950   6.492  10.179  -2.626  1.0537 -1.5032  3.6921
  797MOL0     H 9951   6.414  10.025  -2.684 -3.5771 -0.5075 -1.1416
  797MOL0     H 9952   6.306  10.315  -2.721  1.1535 -0.2574 -2.7883
  797MOL0     H 9953   6.390  10.213  -2.832 -0.5864  2.7455 -1.3380
  797MOL0     H 9954   6.129  10.183  -2.861  1.4563  1.0318 -0.7273
  797MOL0     H 9955   6.122  10.156  -2.689  0.4610  4.5212  0.0644
  797MOL0     H 9956   6.189   9.927  -2.720  1.0891  0.2076  0.7635
  797MOL0     H 9957   6.282   9.953  -2.860  0.5424 -2.4260  3.0161
  797MOL0     H 9958   6.067   9.837  -2.891 -0.5808 -0.7110  1.9605
  797MOL0     H 9959   5.972   9.977  -2.851  0.9882 -0.3374  0.9618
  797MOL0     H 9960   6.171  10.076  -3.044 -2.7058  3.5903  1.9433
  797MOL0     H 9961   6.003  10.046  -3.083 -0.1634  2.6158  2.2069
  797MOL0     H 9962   6.075   9.794  -3.147 -0.9252  0.0543 -0.2168
  797MOL0     H 9963   6.240   9.863  -3.104  1.1742  3.2448 -0.7514
  797MOL0     H 9964   6.163   9.828  -3.352  2.7680  1.3943 -1.1804
  797MOL0     H 9965   6.228   9.982  -3.306  0.4980  0.2942  1.2724
  797MOL0     H 9966   6.222  10.080  -2.306  0.4853  2.8961  1.9584
  797MOL0     H 9967   6.328  10.014  -2.078 -1.0172  1.4447 -1.0498
  797MOL0     H 9968   6.800   9.973  -1.895  3.3874  1.6199  0.9328
  797MOL0     H 9969   6.930   9.993  -1.675 -0.1525  2.7969  0.8864
  797MOL0     H 9970   7.476  10.983  -0.039 -0.6274  2.2306  2.7494
  797MOL0     H 9971   7.486  10.998   0.194 -3.0583  0.0350  1.4072
  797MOL0     H 9972   7.477  10.986   0.571  0.5574 -1.9130 -2.1903
  797MOL0     H 9973   7.575  11.083   0.779  0.0366 -0.8075  2.7567
  797MOL0     H 9974   7.569  11.083   1.006 -0.4489  1.7851  2.6887
  797MOL0     H 9975   7.712  11.081   1.107  0.3394  0.5498 -0.4578
  797MOL0     H 9976   7.681  11.302   0.982 -0.6732 -0.4751 -1.7240
  797MOL0     H 9977   7.739  11.201   0.839  0.9150  0.2202  0.3219
  797MOL0     H 9978   7.883  11.268   1.117  1.3558  0.3182 -1.1024
  797MOL0     H 9979   7.931  11.135   0.996  1.6546  1.3057 -2.9695
  797MOL0     H 9980   8.008  11.280   0.851 -0.6179  1.0816  0.7228
  797MOL0     H 9981   8.061  11.346   1.009 -0.3010 -0.6648  1.1303
  797MOL0     H 9982   7.827  11.622   0.800  2.3650 -0.7941 -3.4110
  797MOL0     H 9983   7.789  10.729   0.836  0.4516  0.3341 -2.8973
  797MOL0     H 9984   7.799  10.566   0.694  0.3158 -2.9967 -1.6462
  797MOL0     H 9985   7.644  10.519   0.638  2.1800 -1.4964  0.8124
  797MOL0     H 9986   7.760  10.585   0.518  1.6045 -5.7132  0.0296
  798MOL0     O 9987   2.467   8.594   8.414 -0.2012 -0.8551 -0.3660
  798MOL0     C 9988   2.477   8.630   8.298  0.9779  0.2422  0.0110
  798MOL0     O 9989   2.404   8.584   8.197  0.4297 -0.1761 -0.4233
  798MOL0     C 9990   2.327   8.470   8.229 -0.0859 -0.9068 -0.6387
  798MOL0     C 9991   2.199   8.499   8.271  0.2838 -0.8797  0.4907
  798MOL0     C 9992   2.108   8.394   8.289 -0.1507  0.7912  0.1704
  798MOL0     C 9993   2.139   8.254   8.270  0.7515  0.3381  0.6573
  798MOL0     O 9994   2.048   8.162   8.310 -0.3335  0.8011 -0.5628
  798MOL0     C 9995   2.065   8.022   8.273 -0.3564  0.0247 -0.7413
  798MOL0     C 9996   2.163   7.948   8.367  1.3268  0.8752  0.2277
  798MOL0     C 9997   2.097   7.940   8.503 -0.2839 -0.2670 -0.1948
  798MOL0     C 9998   2.178   7.860   8.603  0.2349  0.5332  1.0985
  798MOL0     C 9999   2.097   7.836   8.734  0.9773 -0.6465  0.5807
  798MOL0     C10000   2.143   7.716   8.820 -0.2156  0.0603 -0.2146
  798MOL0     C10001   2.058   7.694   8.940  0.2259  0.6917  0.1220
  798MOL0     C10002   2.087   7.572   9.014  0.0377 -0.2582  0.3706
  798MOL0     N10003   1.996   7.561   9.128 -0.3288  0.6970 -0.0753
  798MOL0     C10004   1.875   7.498   9.130 -0.2330  0.2908 -1.0775
  798MOL0     C10005   1.842   7.503   9.262 -0.4612  0.5825 -0.8464
  798MOL0     C10006   1.719   7.444   9.330 -0.1320 -0.2964  0.5929
  798MOL0     C10007   1.608   7.550   9.315  0.0313  0.8898 -0.5659
  798MOL0     C10008   1.605   7.649   9.424  0.3738 -0.4045 -0.1137
  798MOL0     C10009   1.540   7.769   9.367 -0.2952 -0.4799  0.6404
  798MOL0     O10010   1.538   7.882   9.453  0.5916  0.3312 -0.0257
  798MOL0     C10011   1.539   7.997   9.380 -1.0418 -0.4500  0.2520
  798MOL0     C10012   1.458   8.034   9.272 -0.0821  0.5713  0.0178
  798MOL0     C10013   1.475   8.155   9.205 -0.0522  0.0489  0.2442
  798MOL0     C10014   1.405   8.162   9.077 -0.1362  0.4502  0.7651
  798MOL0     C10015   1.554   8.252   9.267 -0.1484  0.5194  0.8616
  798MOL0     C10016   1.552   8.401   9.223  0.6440  0.5697  0.5658
  798MOL0     O10017   1.615   8.486   9.313 -0.7094 -0.9511 -0.1278
  798MOL0     C10018   1.697   8.580   9.259  0.0224  0.4671  0.0721
  798MOL0     C10019   1.814   8.559   9.182 -0.3944 -0.0788 -0.2022
  798MOL0     C10020   1.902   8.660   9.136  0.0354  0.4759  0.1401
  798MOL0     C10021   1.889   8.782   9.189  1.0803 -1.4329  0.1299
  798MOL0     O10022   1.986   8.875   9.161 -0.2331 -0.9176  0.0027
  798MOL0     C10023   1.952   9.014   9.170  0.3439  0.8001 -0.3125
  798MOL0     C10024   2.056   9.103   9.113  0.8538  0.9556  0.4721
  798MOL0     C10025   2.193   9.094   9.188  0.0344  1.0287 -0.4128
  798MOL0     C10026   2.311   9.144   9.106  0.0477  0.8369  0.6169
  798MOL0     C10027   2.418   9.200   9.191 -0.1999 -0.5619 -0.0628
  798MOL0     C10028   2.394   9.319   9.275  0.3269 -0.1219  0.7746
  798MOL0     C10029   2.529   9.377   9.331  0.4134  0.1650  0.2654
  798MOL0     C10030   2.533   9.535   9.364  0.5901  0.8653 -0.8968
  798MOL0    Cl10031   2.426   9.589   9.501 -0.2111  0.0105  0.0219
  798MOL0     C10032   1.777   8.813   9.271  0.1060  0.1879 -0.0557
  798MOL0     C10033   1.691   8.709   9.310  0.0660  0.0044 -0.2578
  798MOL0     O10034   1.494   8.434   9.117  0.6914  0.2344 -0.5667
  798MOL0     C10035   1.628   8.221   9.381  0.2164 -0.0836 -1.6030
  798MOL0     C10036   1.632   8.091   9.428 -0.1571 -0.1970 -0.3001
  798MOL0     N10037   1.938   7.560   9.340  0.1994  0.5846  0.1101
  798MOL0     N10038   2.031   7.591   9.257  0.4737  0.6203 -1.0209
  798MOL0     C10039   2.268   8.233   8.233  0.2302 -0.2124 -0.5427
  798MOL0     C10040   2.363   8.338   8.202 -0.9734 -0.1482 -0.4506
  798MOL0     C10041   2.586   8.725   8.264 -0.0013  0.3478  0.0288
  798MOL0     C10042   2.591   8.857   8.331  0.8542  0.0055  0.1226
  798MOL0     C10043   2.687   8.946   8.290  0.0383  0.2004  0.3884
  798MOL0     C10044   2.769   8.919   8.178  0.3171  0.2440  1.0285
  798MOL0     O10045   2.863   9.019   8.143 -0.6943  0.2239 -0.2186
  798MOL0     C10046   2.908   9.035   8.003  0.2263  0.0847 -0.6732
  798MOL0     C10047   3.020   9.139   7.996  0.6037 -0.2714  0.2983
  798MOL0     C10048   2.975   9.283   8.044 -0.6961 -0.2518  0.2828
  798MOL0     C10049   2.990   9.292   8.200 -0.3160  0.0686 -0.3885
  798MOL0     C10050   2.944   9.420   8.262 -0.0539 -0.0165 -0.0904
  798MOL0     C10051   2.925   9.528   8.311  0.3694 -0.2734  0.3723
  798MOL0     C10052   2.767   8.786   8.122 -0.1586  0.2086 -1.3063
  798MOL0     C10053   2.675   8.690   8.161 -0.1754 -0.0226  0.0076
  798MOL0     C10054   2.700   8.548   8.112 -1.5350  0.9186 -0.1831
  798MOL0     H10055   2.168   8.601   8.291 -1.2657 -1.4809  1.3122
  798MOL0     H10056   2.007   8.408   8.328 -0.2809  0.6121 -0.0961
  798MOL0     H10057   2.109   8.013   8.173  0.0988  0.8592 -0.6287
  798MOL0     H10058   1.971   7.967   8.276  1.0048 -2.5901  2.8776
  798MOL0     H10059   2.166   7.843   8.338 -0.3877  0.4946  1.2319
  798MOL0     H10060   2.270   7.970   8.366  1.4121  0.5142  0.7324
  798MOL0     H10061   2.069   8.037   8.545 -2.3087 -0.6246 -0.6231
  798MOL0     H10062   2.002   7.887   8.492  0.2587 -1.1777 -0.5849
  798MOL0     H10063   2.187   7.771   8.540 -1.2085  1.0323  0.1108
  798MOL0     H10064   2.280   7.893   8.621  0.6614 -1.8619  3.6449
  798MOL0     H10065   1.995   7.804   8.710  1.2450 -0.6060 -0.6884
  798MOL0     H10066   2.107   7.923   8.800  5.3565 -0.8192  0.4587
  798MOL0     H10067   2.128   7.628   8.756 -0.9412  0.2619 -0.3230
  798MOL0     H10068   2.251   7.715   8.841 -0.7534 -1.5297  3.1191
  798MOL0     H10069   1.949   7.695   8.930 -0.0985 -0.7918  2.6780
  798MOL0     H10070   2.076   7.782   9.002 -0.5974 -0.0796  1.5032
  798MOL0     H10071   2.083   7.488   8.944 -1.6021 -0.4796  0.6951
  798MOL0     H10072   2.191   7.573   9.047 -0.5388  0.3891  2.3010
  798MOL0     H10073   1.829   7.451   9.044 -3.1191  2.5480 -0.9005
  798MOL0     H10074   1.722   7.416   9.436 -2.9116 -1.9004  0.3599
  798MOL0     H10075   1.696   7.367   9.256 -0.7617  0.8306 -0.4167
  798MOL0     H10076   1.620   7.603   9.220 -3.1970  1.8375 -0.5530
  798MOL0     H10077   1.515   7.493   9.317  1.1365 -1.0265  1.1136
  798MOL0     H10078   1.543   7.616   9.508  0.6875  1.4615  0.8971
  798MOL0     H10079   1.706   7.657   9.464 -0.4905  1.8302  1.8393
  798MOL0     H10080   1.598   7.797   9.278 -0.4567 -1.7615  0.1002
  798MOL0     H10081   1.447   7.726   9.329  0.8306 -1.7702 -0.7981
  798MOL0     H10082   1.388   7.965   9.226 -3.2351  3.3586  0.2015
  798MOL0     H10083   1.321   8.233   9.080  1.2625  2.4753 -2.0815
  798MOL0     H10084   1.386   8.061   9.039  2.2507 -0.9225  2.9671
  798MOL0     H10085   1.469   8.205   8.999 -1.4677  1.5736  0.2258
  798MOL0     H10086   1.829   8.458   9.145  0.8403  0.7954 -2.2139
  798MOL0     H10087   1.986   8.628   9.074 -0.3083 -0.5158  0.1748
  798MOL0     H10088   1.858   9.040   9.121 -0.9043  0.2284  1.6683
  798MOL0     H10089   1.943   9.045   9.274 -2.7870 -1.8336  0.3867
  798MOL0     H10090   2.060   9.074   9.007  1.3490 -2.8586  1.3939
  798MOL0     H10091   2.016   9.204   9.124  0.2874  0.7972 -0.0681
  798MOL0     H10092   2.214   8.993   9.222 -0.6038  1.7427  2.3528
  798MOL0     H10093   2.181   9.148   9.283  0.0083 -3.2910  2.3072
  798MOL0     H10094   2.280   9.224   9.038  1.0958  2.3918  1.8888
  798MOL0     H10095   2.342   9.050   9.061 -1.6170  0.2826  0.5462
  798MOL0     H10096   2.476   9.127   9.249  0.9119  0.7924  0.5742
  798MOL0     H10097   2.495   9.219   9.115 -1.5191  0.0504 -1.2954
  798MOL0     H10098   2.330   9.305   9.363 -1.2240  2.6041  0.2099
  798MOL0     H10099   2.362   9.403   9.213  1.4326 -1.9859 -2.5417
  798MOL0     H10100   2.615   9.344   9.272  0.3557 -0.8541  0.7341
  798MOL0     H10101   2.535   9.325   9.427 -0.8252  0.2319  0.3984
  798MOL0     H10102   2.506   9.593   9.275 -3.0662 -0.2120 -0.6355
  798MOL0     H10103   2.637   9.563   9.384  1.5362  0.8661 -4.9088
  798MOL0     H10104   1.769   8.912   9.316  1.1768  1.7186 -3.0046
  798MOL0     H10105   1.622   8.728   9.392 -1.1672  0.7884 -1.4212
  798MOL0     H10106   1.696   8.300   9.413  1.2714 -1.8863  0.9225
  798MOL0     H10107   1.694   8.071   9.515 -3.9427  1.3949  3.0406
  798MOL0     H10108   2.295   8.128   8.231 -1.6173 -0.8861  2.7390
  798MOL0     H10109   2.462   8.302   8.176 -0.9216 -1.9964  1.9512
  798MOL0     H10110   2.508   8.876   8.399  0.7239 -2.1059  0.6133
  798MOL0     H10111   2.676   9.041   8.342 -0.4922 -0.7116  2.0151
  798MOL0     H10112   2.940   8.941   7.958 -2.1044 -0.0516 -2.2410
  798MOL0     H10113   2.814   9.060   7.952 -0.6214 -2.4050 -0.4705
  798MOL0     H10114   3.046   9.132   7.890  1.2805  2.0824  0.2589
  798MOL0     H10115   3.109   9.122   8.057 -0.3950 -0.5068  1.7442
  798MOL0     H10116   3.036   9.345   7.977 -1.3693 -0.6106 -0.6863
  798MOL0     H10117   2.875   9.320   8.021  0.0257  0.9775 -1.0397
  798MOL0     H10118   3.096   9.273   8.220  0.7809 -0.3520 -5.2419
  798MOL0     H10119   2.926   9.211   8.237  1.8934 -3.1620 -3.0110
  798MOL0     H10120   2.915   9.628   8.347 -2.3339 -1.4588  3.4858
  798MOL0     H10121   2.854   8.760   8.064  1.6066  2.4298  0.1543
  798MOL0     H10122   2.722   8.473   8.188 -3.2846 -0.8960 -1.3659
  798MOL0     H10123   2.609   8.514   8.062 -0.7139  0.9754 -1.8038
  798MOL0     H10124   2.775   8.563   8.034  2.2414  1.1619  3.1857
  799MOL0     O10125   5.793   8.471   5.449  0.2264 -0.2965  0.6550
  799MOL0     C10126   5.674   8.451   5.478  0.0319 -0.4411  0.1293
  799MOL0     O10127   5.585   8.361   5.432 -0.8264 -0.2787  0.4553
  799MOL0     C10128   5.639   8.269   5.345  0.1986  0.2316  0.2448
  799MOL0     C10129   5.683   8.143   5.392 -0.1738 -1.0009 -0.8966
  799MOL0     C10130   5.747   8.060   5.303 -0.8042  0.3509 -0.3472
  799MOL0     C10131   5.766   8.087   5.169 -0.2476  0.3181 -0.6233
  799MOL0     O10132   5.848   8.002   5.091  0.3181  0.0756  0.5324
  799MOL0     C10133   5.943   8.066   4.997 -0.5295 -0.1896 -1.2724
  799MOL0     C10134   6.035   7.962   4.944 -0.1274 -0.7516  0.1394
  799MOL0     C10135   6.111   7.893   5.052 -0.0668 -0.3255 -0.8768
  799MOL0     C10136   6.232   7.817   4.999 -0.3144  0.4303  0.1521
  799MOL0     C10137   6.333   7.752   5.101 -0.6832 -0.1955 -0.0974
  799MOL0     C10138   6.447   7.687   5.035  0.4893  0.4049 -0.4381
  799MOL0     C10139   6.527   7.593   5.140  0.3702  0.3646 -0.0756
  799MOL0     C10140   6.668   7.574   5.084 -0.1914 -0.2935 -0.8230
  799MOL0     N10141   6.760   7.510   5.178  1.1278 -0.3825 -1.2042
  799MOL0     C10142   6.777   7.509   5.314  0.3717  0.8497 -0.9371
  799MOL0     C10143   6.872   7.415   5.338 -0.1752  0.4597 -0.3282
  799MOL0     C10144   6.938   7.366   5.474  0.2814 -0.3968 -0.3801
  799MOL0     C10145   7.026   7.466   5.538 -0.4160  0.2890  0.0708
  799MOL0     C10146   7.083   7.390   5.660 -0.4613  0.0168  0.2710
  799MOL0     C10147   7.042   7.470   5.786  0.0915 -0.0312  0.0455
  799MOL0     O10148   7.078   7.415   5.916  0.6282 -0.0453  0.1893
  799MOL0     C10149   7.205   7.429   5.961  0.2283  0.5201 -0.6567
  799MOL0     C10150   7.313   7.469   5.888  0.2798  0.7236 -1.4415
  799MOL0     C10151   7.443   7.480   5.948 -0.8168 -0.5245 -0.5766
  799MOL0     C10152   7.549   7.541   5.857  0.3125 -0.2906  0.2597
  799MOL0     C10153   7.452   7.450   6.088 -0.0494 -0.0207  0.1502
  799MOL0     C10154   7.578   7.460   6.162 -0.1514  0.6593  0.2011
  799MOL0     O10155   7.570   7.469   6.304 -0.2558 -0.5662 -0.2476
  799MOL0     C10156   7.680   7.531   6.351  1.0068  0.7807  0.1728
  799MOL0     C10157   7.780   7.473   6.425  0.2020  0.6171  0.3392
  799MOL0     C10158   7.893   7.553   6.463 -0.1108  0.6720 -0.3439
  799MOL0     C10159   7.901   7.691   6.442  0.0771  0.5128 -0.4579
  799MOL0     O10160   8.010   7.761   6.496 -0.0825 -0.2928  0.5032
  799MOL0     C10161   8.116   7.770   6.399  0.2360  0.0375  0.5809
  799MOL0     C10162   8.228   7.848   6.459  0.5801  0.1726  0.6935
  799MOL0     C10163   8.198   7.997   6.471  0.2209  0.3285  0.1315
  799MOL0     C10164   8.121   8.028   6.602 -0.0640 -0.6397 -0.7683
  799MOL0     C10165   8.075   8.174   6.604  0.0667  0.8289 -0.2821
  799MOL0     C10166   7.996   8.212   6.727  0.1250 -0.6754 -0.8451
  799MOL0     C10167   8.096   8.241   6.848 -0.0299  0.4585 -0.4056
  799MOL0     C10168   8.014   8.274   6.973  0.0969 -0.0959 -0.8078
  799MOL0    Cl10169   7.915   8.416   6.967  0.0172 -0.0938 -0.0759
  799MOL0     C10170   7.801   7.749   6.376  0.5559 -0.7420 -0.2031
  799MOL0     C10171   7.696   7.672   6.324  0.2994  0.6212 -0.3191
  799MOL0     O10172   7.681   7.443   6.098 -0.4272 -0.6101  0.1815
  799MOL0     C10173   7.339   7.406   6.157  0.3797 -0.1366 -0.7010
  799MOL0     C10174   7.220   7.397   6.102  0.1566 -0.0068  0.4244
  799MOL0     N10175   6.920   7.371   5.211 -0.4216 -0.2662 -0.2996
  799MOL0     N10176   6.856   7.434   5.119  0.0149 -0.0366 -0.3541
  799MOL0     C10177   5.713   8.207   5.108 -1.3303  1.0141 -0.2019
  799MOL0     C10178   5.651   8.292   5.206  0.5546 -0.1138  0.1163
  799MOL0     C10179   5.618   8.546   5.576 -0.0965 -0.1822 -0.1395
  799MOL0     C10180   5.655   8.680   5.564  0.3497  0.7722 -0.7094
  799MOL0     C10181   5.601   8.785   5.639  0.3253 -0.0378 -0.4261
  799MOL0     C10182   5.511   8.750   5.744  0.1471  0.4581  0.1812
  799MOL0     O10183   5.465   8.850   5.826 -0.3250 -0.7949  0.2773
  799MOL0     C10184   5.410   8.816   5.955  0.7734  0.0472  0.5295
  799MOL0     C10185   5.506   8.770   6.058 -0.5891  0.2008  0.1231
  799MOL0     C10186   5.617   8.867   6.090 -0.3362  0.2169  0.8422
  799MOL0     C10187   5.703   8.834   6.212 -0.2573  0.0555  0.3233
  799MOL0     C10188   5.801   8.944   6.237  0.4459 -0.4575  0.6943
  799MOL0     C10189   5.877   9.036   6.257 -0.6153  0.0947  0.0792
  799MOL0     C10190   5.476   8.617   5.762  1.4639  0.6907 -0.2966
  799MOL0     C10191   5.527   8.516   5.680 -1.0052  0.0677  0.5988
  799MOL0     C10192   5.474   8.378   5.713  0.4168 -0.5338  0.9055
  799MOL0     H10193   5.684   8.128   5.499  2.8037 -0.6793 -0.7992
  799MOL0     H10194   5.810   7.979   5.339  1.2743  2.0407  0.0248
  799MOL0     H10195   6.002   8.134   5.060 -0.7235  0.3386 -1.6611
  799MOL0     H10196   5.902   8.127   4.917  0.8176  0.2929 -1.6066
  799MOL0     H10197   5.982   7.880   4.896 -1.3391 -0.2788  0.6462
  799MOL0     H10198   6.105   8.019   4.881 -0.9688  2.2768  1.7282
  799MOL0     H10199   6.149   7.977   5.111 -1.9239  2.1089 -2.9238
  799MOL0     H10200   6.041   7.835   5.113 -3.3304  0.6462 -3.4404
  799MOL0     H10201   6.190   7.749   4.924  0.3054  0.8537 -0.5949
  799MOL0     H10202   6.298   7.882   4.940 -0.1998  1.5810  1.4868
  799MOL0     H10203   6.271   7.675   5.150 -1.1703 -0.1724 -0.6563
  799MOL0     H10204   6.365   7.830   5.170 -3.9633  1.5380 -0.3103
  799MOL0     H10205   6.412   7.631   4.948  1.0758  0.1514 -0.5149
  799MOL0     H10206   6.516   7.764   5.000  2.3524  0.2989  2.6485
  799MOL0     H10207   6.469   7.500   5.148 -2.0276  1.7053 -0.8507
  799MOL0     H10208   6.531   7.639   5.239 -0.4186 -0.4426  0.3465
  799MOL0     H10209   6.675   7.528   4.985  0.9378  2.4701 -2.1371
  799MOL0     H10210   6.716   7.672   5.079 -1.1664  0.2975  0.6627
  799MOL0     H10211   6.731   7.581   5.380  0.9972  1.2478 -0.9296
  799MOL0     H10212   6.991   7.271   5.456  0.5201  0.0812 -2.4393
  799MOL0     H10213   6.857   7.344   5.544  0.4325 -2.7546 -0.8715
  799MOL0     H10214   7.107   7.489   5.468 -0.6776  0.1674 -0.2701
  799MOL0     H10215   6.968   7.555   5.563 -1.3244  0.3074 -1.9667
  799MOL0     H10216   7.042   7.289   5.672  0.4760 -0.6029 -1.3067
  799MOL0     H10217   7.191   7.379   5.651 -0.4209 -0.3802  1.1335
  799MOL0     H10218   7.078   7.573   5.773  1.9594 -0.7527 -0.8293
  799MOL0     H10219   6.933   7.480   5.777  0.2107  1.6823  0.0404
  799MOL0     H10220   7.302   7.509   5.788  2.0250  2.2199 -1.0810
  799MOL0     H10221   7.610   7.463   5.809 -0.4066 -1.3300  0.9851
  799MOL0     H10222   7.617   7.610   5.908 -0.0542  0.6630 -0.5078
  799MOL0     H10223   7.493   7.594   5.780 -1.4332 -1.4536  0.6747
  799MOL0     H10224   7.774   7.369   6.453 -2.0222  1.1083  1.9663
  799MOL0     H10225   7.968   7.506   6.526 -1.5473  1.4971  2.1147
  799MOL0     H10226   8.152   7.671   6.372  3.0575  0.9683  0.5725
  799MOL0     H10227   8.078   7.817   6.307  0.3983  1.9188  1.4294
  799MOL0     H10228   8.260   7.807   6.555 -0.3330 -1.6536  0.2686
  799MOL0     H10229   8.310   7.825   6.391  0.7962  1.4363  0.5036
  799MOL0     H10230   8.144   8.028   6.381  0.8291  3.5890  0.7882
  799MOL0     H10231   8.298   8.040   6.463  0.7031 -0.9560 -1.0582
  799MOL0     H10232   8.169   8.011   6.699  0.0236  0.3061 -0.6367
  799MOL0     H10233   8.033   7.964   6.612  0.8504 -2.3176 -2.5993
  799MOL0     H10234   8.164   8.237   6.602  0.1490  1.2673  4.4797
  799MOL0     H10235   8.022   8.194   6.510  2.7627  1.6654 -1.7184
  799MOL0     H10236   7.925   8.130   6.736 -0.9663  0.3642  0.4580
  799MOL0     H10237   7.935   8.301   6.712  1.0505 -0.1544 -1.6230
  799MOL0     H10238   8.162   8.327   6.833  0.5550  0.3883  1.4058
  799MOL0     H10239   8.154   8.149   6.864 -2.8332 -1.4951 -0.8340
  799MOL0     H10240   8.071   8.275   7.066 -0.8073  4.3873 -0.0743
  799MOL0     H10241   7.949   8.190   6.998 -0.7785  1.4474  2.7076
  799MOL0     H10242   7.788   7.857   6.381 -2.8180 -1.0737  1.7272
  799MOL0     H10243   7.618   7.723   6.269  1.9173  3.0989 -0.4635
  799MOL0     H10244   7.343   7.375   6.261  0.2906 -0.1285 -0.6954
  799MOL0     H10245   7.135   7.360   6.159 -0.2390  2.0287  1.2476
  799MOL0     H10246   5.722   8.235   5.004  1.3543  0.3762 -0.2176
  799MOL0     H10247   5.612   8.389   5.178  0.7685 -0.1072 -0.1705
  799MOL0     H10248   5.711   8.713   5.477  0.3662  3.1036  0.1004
  799MOL0     H10249   5.635   8.887   5.623  0.1038  0.2557  0.8739
  799MOL0     H10250   5.356   8.907   5.983 -2.1781 -1.7132  1.0297
  799MOL0     H10251   5.330   8.742   5.946  0.2693  0.7845 -1.6518
  799MOL0     H10252   5.546   8.671   6.035  0.0247 -0.0832  2.2625
  799MOL0     H10253   5.445   8.760   6.149 -1.4245  0.5532 -0.3763
  799MOL0     H10254   5.681   8.862   6.002 -2.5405 -1.1602 -0.7671
  799MOL0     H10255   5.576   8.968   6.104 -1.0229 -0.2295  2.3777
  799MOL0     H10256   5.758   8.741   6.194  1.7426  1.4209 -0.9791
  799MOL0     H10257   5.637   8.813   6.296 -1.3276 -1.0376 -0.7370
  799MOL0     H10258   5.949   9.113   6.281  1.1604 -1.3577 -0.3716
  799MOL0     H10259   5.415   8.583   5.845  2.1050  2.4598  0.9562
  799MOL0     H10260   5.547   8.302   5.684  2.1154 -0.4812  4.4575
  799MOL0     H10261   5.438   8.365   5.815  1.3227  2.4552  1.7304
  799MOL0     H10262   5.382   8.367   5.656 -0.5577 -1.3988  2.5805
  800MOL0     O10263   2.596   5.311   4.201  0.3841  0.0520 -0.4010
  800MOL0     C10264   2.529   5.410   4.177 -0.5750  0.6406  0.0780
  800MOL0     O10265   2.530   5.464   4.053  0.5049 -0.2760 -0.0542
  800MOL0     C10266   2.624   5.431   3.952 -0.0305  0.4091 -0.9001
  800MOL0     C10267   2.760   5.381   3.967 -0.9486  0.5848  0.0662
  800MOL0     C10268   2.826   5.336   3.850 -0.6690  0.3039  0.7668
  800MOL0     C10269   2.764   5.352   3.722 -0.2401 -0.4875 -0.4171
  800MOL0     O10270   2.842   5.342   3.611  0.1205 -0.1343 -0.3194
  800MOL0     C10271   2.794   5.264   3.506  0.1952 -0.4277 -0.1846
  800MOL0     C10272   2.844   5.332   3.379 -0.8401 -0.2070 -0.5540
  800MOL0     C10273   2.791   5.279   3.248 -0.3954  0.0902  0.0046
  800MOL0     C10274   2.837   5.379   3.129 -0.0982 -0.2089  0.4807
  800MOL0     C10275   2.741   5.373   3.016  0.6240 -0.0202  0.6657
  800MOL0     C10276   2.786   5.470   2.897  0.2498  0.0398  0.4006
  800MOL0     C10277   2.764   5.418   2.754  0.3610 -0.1317 -0.1663
  800MOL0     C10278   2.846   5.513   2.659 -0.1201 -0.2863  0.0258
  800MOL0     N10279   2.897   5.431   2.550 -0.8694  0.1508 -0.4095
  800MOL0     C10280   2.817   5.386   2.451  0.1506 -0.3109  0.6620
  800MOL0     C10281   2.909   5.345   2.351  0.2043 -0.8354  0.3817
  800MOL0     C10282   2.866   5.277   2.218 -0.0516  0.4253 -0.0182
  800MOL0     C10283   2.969   5.175   2.169  0.0472  0.3995  0.4327
  800MOL0     C10284   2.908   5.111   2.042  0.0129  0.5651 -0.1992
  800MOL0     C10285   3.013   5.072   1.927  0.2673  0.2755 -0.8337
  800MOL0     O10286   3.070   4.946   1.958 -0.3722 -0.2329  0.3415
  800MOL0     C10287   3.172   4.882   1.878  0.4807 -0.2870 -0.0009
  800MOL0     C10288   3.191   4.911   1.746 -0.1551 -0.6264 -0.0136
  800MOL0     C10289   3.285   4.827   1.681  0.0939  1.1126  0.3586
  800MOL0     C10290   3.288   4.836   1.530  0.3674 -0.8219 -0.1194
  800MOL0     C10291   3.352   4.719   1.750 -0.5908  0.7717  0.9823
  800MOL0     C10292   3.441   4.618   1.672 -0.1283  0.0368  1.6510
  800MOL0     O10293   3.498   4.520   1.747  0.4085  0.1406 -0.4333
  800MOL0     C10294   3.561   4.416   1.674 -0.8191 -0.3366 -0.3051
  800MOL0     C10295   3.487   4.301   1.641  0.1198  0.2856 -0.6653
  800MOL0     C10296   3.555   4.204   1.576 -1.3609 -0.0866 -0.3663
  800MOL0     C10297   3.683   4.216   1.520 -0.2282  0.6684 -0.0010
  800MOL0     O10298   3.731   4.102   1.454 -0.7656  0.3166  0.0431
  800MOL0     C10299   3.868   4.091   1.434 -0.1754  0.3620 -0.8713
  800MOL0     C10300   3.903   4.158   1.290 -0.7983 -0.2835 -0.3134
  800MOL0     C10301   4.042   4.223   1.301  0.7208 -0.2316 -0.4646
  800MOL0     C10302   4.112   4.239   1.166  0.3269 -0.2766 -0.9811
  800MOL0     C10303   4.225   4.340   1.171  0.5070 -0.1166 -0.1672
  800MOL0     C10304   4.339   4.304   1.277 -0.6097  0.7655  0.2149
  800MOL0     C10305   4.403   4.168   1.245 -0.3456 -0.8372  0.1095
  800MOL0     C10306   4.532   4.134   1.326  1.1645  0.8533 -0.0490
  800MOL0    Cl10307   4.628   4.033   1.214 -0.1108 -0.2931 -0.0665
  800MOL0     C10308   3.751   4.335   1.547  0.7538  0.3211 -0.1986
  800MOL0     C10309   3.692   4.436   1.622 -0.8405  0.4401 -0.0822
  800MOL0     O10310   3.455   4.626   1.548  0.0916 -0.1709 -0.4563
  800MOL0     C10311   3.344   4.712   1.891 -0.2926  0.4504 -0.0103
  800MOL0     C10312   3.250   4.796   1.953 -0.2638  0.5782 -0.5090
  800MOL0     N10313   3.035   5.359   2.395  0.2881  0.7251 -0.5318
  800MOL0     N10314   3.028   5.409   2.515 -0.3893  0.4079  0.0884
  800MOL0     C10315   2.637   5.409   3.716 -0.4767 -0.4196 -0.1895
  800MOL0     C10316   2.566   5.441   3.827  0.1790  0.5500 -0.2222
  800MOL0     C10317   2.435   5.467   4.273 -0.9467 -0.4411  0.5596
  800MOL0     C10318   2.419   5.615   4.278  0.2860 -0.1066  0.1089
  800MOL0     C10319   2.353   5.668   4.395 -0.9408  0.3065 -0.2389
  800MOL0     C10320   2.290   5.579   4.484 -0.0612 -0.4322  1.2162
  800MOL0     O10321   2.212   5.639   4.579  1.0672  0.3305  0.5008
  800MOL0     C10322   2.284   5.675   4.698 -0.2549 -0.6754 -0.5440
  800MOL0     C10323   2.220   5.786   4.778 -0.0930 -0.6785 -0.3903
  800MOL0     C10324   2.228   5.918   4.703 -0.0162 -1.2091 -0.3636
  800MOL0     C10325   2.189   6.032   4.800 -0.5302  0.6430  0.2671
  800MOL0     C10326   2.063   6.003   4.865 -1.1388  0.0192  0.9008
  800MOL0     C10327   1.964   5.964   4.918 -0.1602 -1.1199  0.5296
  800MOL0     C10328   2.302   5.446   4.473  0.1381  0.0161 -0.3207
  800MOL0     C10329   2.382   5.379   4.371 -0.1874 -0.6514 -0.2111
  800MOL0     C10330   2.367   5.233   4.383  0.7926  0.7272 -0.1523
  800MOL0     H10331   2.802   5.362   4.065 -1.2586  2.5239  0.6215
  800MOL0     H10332   2.929   5.304   3.860 -0.5368  1.2177  2.8137
  800MOL0     H10333   2.685   5.259   3.507 -0.0046  1.7025 -2.3693
  800MOL0     H10334   2.856   5.174   3.510  0.5921 -0.1189  1.1837
  800MOL0     H10335   2.825   5.440   3.388 -0.1491 -0.2562  2.2193
  800MOL0     H10336   2.953   5.326   3.386 -0.9703 -0.4414  3.4016
  800MOL0     H10337   2.834   5.181   3.225  0.8592  0.7477 -0.5627
  800MOL0     H10338   2.682   5.273   3.246 -0.5090  1.3499 -3.0717
  800MOL0     H10339   2.838   5.476   3.178  0.4048  0.2021 -0.3191
  800MOL0     H10340   2.936   5.347   3.095 -0.0083  0.0695  0.4757
  800MOL0     H10341   2.636   5.386   3.042  0.1286  3.5707 -2.2814
  800MOL0     H10342   2.759   5.273   2.974 -0.6404  0.1094 -0.2501
  800MOL0     H10343   2.736   5.568   2.902  3.1053  1.6518 -0.2143
  800MOL0     H10344   2.890   5.496   2.918 -0.2459 -0.6387  4.5858
  800MOL0     H10345   2.660   5.399   2.729  0.9813 -2.4813 -1.1983
  800MOL0     H10346   2.814   5.322   2.769 -1.4954 -1.2276 -0.7851
  800MOL0     H10347   2.776   5.583   2.612 -1.3583  1.0851  3.6114
  800MOL0     H10348   2.925   5.560   2.718  2.8545 -2.0311 -2.2394
  800MOL0     H10349   2.711   5.396   2.433  0.0299  3.2323  2.5018
  800MOL0     H10350   2.845   5.352   2.142 -0.5561  3.4213  2.8448
  800MOL0     H10351   2.774   5.223   2.246  0.2589 -0.7021 -1.0729
  800MOL0     H10352   3.056   5.235   2.140  1.2369 -1.8049 -0.8270
  800MOL0     H10353   2.999   5.100   2.242 -1.3290 -0.6827 -0.0777
  800MOL0     H10354   2.859   5.025   2.088  0.6502  0.7850  0.9306
  800MOL0     H10355   2.834   5.180   2.000  0.9795  1.9134  0.2329
  800MOL0     H10356   2.956   5.079   1.834 -2.1123 -1.2079  0.3904
  800MOL0     H10357   3.085   5.152   1.910 -1.6727  2.6784  1.3316
  800MOL0     H10358   3.127   4.978   1.690  0.7844  0.4190  0.1422
  800MOL0     H10359   3.389   4.834   1.488  0.0726 -0.8176 -0.8369
  800MOL0     H10360   3.253   4.935   1.499 -0.3823 -1.7358 -2.3668
  800MOL0     H10361   3.226   4.754   1.494 -0.7757 -0.6272  1.3034
  800MOL0     H10362   3.394   4.264   1.683  0.5914 -0.8507 -0.5960
  800MOL0     H10363   3.505   4.109   1.560 -3.1866  0.9722 -1.3081
  800MOL0     H10364   3.920   4.130   1.523 -0.5437 -0.3475 -0.3382
  800MOL0     H10365   3.905   3.988   1.433 -1.6025 -0.1659 -0.3182
  800MOL0     H10366   3.904   4.086   1.208 -1.1773 -1.3746  0.6171
  800MOL0     H10367   3.826   4.231   1.262 -1.8882 -0.6542  1.5086
  800MOL0     H10368   4.097   4.170   1.380 -0.2075  0.9497  1.0316
  800MOL0     H10369   4.027   4.321   1.346 -0.0234 -0.8863  0.7883
  800MOL0     H10370   4.035   4.272   1.096 -1.1220 -0.9373  0.2403
  800MOL0     H10371   4.143   4.146   1.117  1.1776  0.9665 -2.9095
  800MOL0     H10372   4.282   4.343   1.078 -1.9761 -0.7666 -1.7879
  800MOL0     H10373   4.200   4.440   1.209 -0.0287 -0.6872  1.0376
  800MOL0     H10374   4.293   4.293   1.375 -2.2703 -2.4702 -0.7662
  800MOL0     H10375   4.403   4.391   1.261 -1.7137  1.3561 -1.2414
  800MOL0     H10376   4.438   4.172   1.141 -0.2025 -2.0101  0.0938
  800MOL0     H10377   4.340   4.079   1.232 -0.4979 -0.4285 -2.3968
  800MOL0     H10378   4.503   4.078   1.415 -0.7791  0.3240 -0.9519
  800MOL0     H10379   4.580   4.228   1.355 -2.3111  3.2326 -1.3376
  800MOL0     H10380   3.841   4.343   1.487  0.7190 -2.8512 -0.8256
  800MOL0     H10381   3.737   4.535   1.628 -0.8700  0.3862  1.3049
  800MOL0     H10382   3.400   4.636   1.944 -0.4377  0.2720 -0.1130
  800MOL0     H10383   3.240   4.781   2.060  1.7232  0.2382 -0.3294
  800MOL0     H10384   2.590   5.422   3.618 -1.5906 -1.6394  0.1586
  800MOL0     H10385   2.462   5.471   3.818 -0.1396 -1.1710 -5.3517
  800MOL0     H10386   2.485   5.667   4.209  2.1803 -2.2859  0.1525
  800MOL0     H10387   2.359   5.776   4.399  2.1183  0.5538 -4.5328
  800MOL0     H10388   2.297   5.588   4.762 -1.0615 -0.5951 -0.2682
  800MOL0     H10389   2.387   5.702   4.671 -0.4733  0.0408 -0.6950
  800MOL0     H10390   2.267   5.799   4.876 -0.1581  0.7742 -0.5238
  800MOL0     H10391   2.115   5.758   4.786  0.2605 -3.5205 -3.5664
  800MOL0     H10392   2.330   5.941   4.672  0.1067 -1.0100  0.1654
  800MOL0     H10393   2.155   5.921   4.621 -2.8485 -0.5890  1.9969
  800MOL0     H10394   2.173   6.115   4.730  0.8761 -1.0896 -2.3168
  800MOL0     H10395   2.274   6.053   4.866 -1.5365  1.7353  1.2462
  800MOL0     H10396   1.874   5.944   4.974  0.0809  0.3572  1.5046
  800MOL0     H10397   2.268   5.393   4.561 -0.4048  1.4903  0.3828
  800MOL0     H10398   2.307   5.218   4.473 -0.8815  1.9370 -1.0050
  800MOL0     H10399   2.313   5.193   4.296  4.1780  2.0640 -3.1234
  800MOL0     H10400   2.461   5.177   4.392  0.3453 -0.0952 -0.5187
  801MOL0     O10401   7.234   1.849   1.457  0.0057  0.5779  0.1734
  801MOL0     C10402   7.244   1.817   1.578 -0.1916 -0.7643  0.9405
  801MOL0     O10403   7.145   1.758   1.655  0.2042  0.1123 -0.2279
  801MOL0     C10404   7.029   1.726   1.596  0.1246 -0.3195  0.2203
  801MOL0     C10405   6.922   1.818   1.594 -0.0829 -0.1853  0.2397
  801MOL0     C10406   6.805   1.783   1.529 -0.3260  0.3632 -0.1679
  801MOL0     C10407   6.796   1.659   1.463  0.0541 -0.9244  0.0419
  801MOL0     O10408   6.683   1.652   1.385 -0.5946 -0.6890  0.2527
  801MOL0     C10409   6.700   1.601   1.250 -0.0157  0.3479  0.3965
  801MOL0     C10410   6.572   1.596   1.176  0.1566 -0.3541 -0.2693
  801MOL0     C10411   6.471   1.501   1.241 -0.2644 -0.5738  0.0106
  801MOL0     C10412   6.338   1.501   1.153  0.3410 -0.0580 -1.0440
  801MOL0     C10413   6.345   1.408   1.035 -0.4530 -0.3826  0.2358
  801MOL0     C10414   6.360   1.266   1.080 -0.4359 -0.3304  0.2726
  801MOL0     C10415   6.360   1.179   0.949 -0.9329 -0.5078 -0.2357
  801MOL0     C10416   6.497   1.173   0.892 -0.5352 -0.0995  0.7460
  801MOL0     N10417   6.608   1.162   1.000 -0.4795  0.4760 -0.1853
  801MOL0     C10418   6.644   1.048   1.064 -0.0049  0.3927  0.2417
  801MOL0     C10419   6.757   1.083   1.129  1.2449  0.3380  0.5950
  801MOL0     C10420   6.836   0.995   1.222  1.1287 -0.1589  0.4460
  801MOL0     C10421   6.931   0.908   1.143 -0.3818  1.3527  0.2567
  801MOL0     C10422   7.038   0.998   1.061  0.3089 -1.1570  0.0342
  801MOL0     C10423   7.150   0.922   0.993  0.0098 -1.1363 -0.9432
  801MOL0     O10424   7.087   0.874   0.873  0.0694  0.4387  0.3302
  801MOL0     C10425   7.117   0.929   0.748 -0.4857 -0.5340 -1.0595
  801MOL0     C10426   7.042   0.872   0.651  0.7878 -0.3830 -0.1088
  801MOL0     C10427   7.036   0.928   0.521 -0.2628  0.3801 -0.5492
  801MOL0     C10428   6.958   0.861   0.413  0.5281  0.2668 -0.4289
  801MOL0     C10429   7.120   1.042   0.497  0.3532 -0.9692  0.7536
  801MOL0     C10430   7.105   1.110   0.365  0.3048 -0.1775 -0.3289
  801MOL0     O10431   7.115   1.040   0.248 -0.1900 -0.6246 -0.0566
  801MOL0     C10432   7.141   1.122   0.133  0.6447  1.1899 -0.4508
  801MOL0     C10433   7.032   1.159   0.057 -0.0657 -1.0063 -0.2231
  801MOL0     C10434   7.051   1.234  -0.062  0.2596  0.6089  0.5628
  801MOL0     C10435   7.182   1.279  -0.094 -0.7648  0.0426  0.1977
  801MOL0     O10436   7.203   1.354  -0.206 -0.9648  0.3646  0.4174
  801MOL0     C10437   7.295   1.460  -0.187 -0.2485 -0.7711  0.1260
  801MOL0     C10438   7.276   1.558  -0.303 -1.5112  0.7816 -0.3188
  801MOL0     C10439   7.138   1.616  -0.307  0.7845  0.3020  0.0067
  801MOL0     C10440   7.101   1.687  -0.433 -0.5631  0.0944  0.8071
  801MOL0     C10441   6.999   1.802  -0.385 -0.3526  0.5910  0.0416
  801MOL0     C10442   6.931   1.874  -0.505 -0.8520 -0.5547 -1.0775
  801MOL0     C10443   6.862   2.014  -0.447 -0.2405 -0.0255  0.1714
  801MOL0     C10444   6.756   1.988  -0.338 -0.9875 -0.5745  0.5868
  801MOL0    Cl10445   6.635   2.108  -0.353  0.0339 -0.0888 -0.1400
  801MOL0     C10446   7.290   1.244  -0.008  0.0309 -0.0970 -0.4920
  801MOL0     C10447   7.273   1.166   0.111 -0.3442  1.0158  0.4138
  801MOL0     O10448   7.086   1.228   0.365  0.1748 -0.1132 -0.9410
  801MOL0     C10449   7.214   1.089   0.595  0.4180 -0.2229  0.1250
  801MOL0     C10450   7.198   1.043   0.724  0.9316  0.2734  0.2808
  801MOL0     N10451   6.789   1.208   1.090  0.5045  0.0251 -0.6036
  801MOL0     N10452   6.697   1.259   1.016 -1.1915  0.2897  0.4127
  801MOL0     C10453   6.904   1.570   1.466  0.0498 -0.2894 -0.1694
  801MOL0     C10454   7.013   1.600   1.549 -0.2521  0.7512  0.3033
  801MOL0     C10455   7.392   1.830   1.629  1.1394  0.6598  0.1586
  801MOL0     C10456   7.424   1.779   1.765  0.4750  0.1065 -0.7430
  801MOL0     C10457   7.542   1.808   1.827  0.1372 -0.0597  0.1178
  801MOL0     C10458   7.648   1.862   1.760  0.6191 -0.4958 -0.0662
  801MOL0     O10459   7.764   1.897   1.829  0.6020  0.3770  0.3196
  801MOL0     C10460   7.778   1.901   1.975  0.0002 -0.1895  0.4745
  801MOL0     C10461   7.717   2.020   2.032  0.3963  0.9862  0.0651
  801MOL0     C10462   7.751   2.154   1.970 -0.2067 -0.3518 -0.4838
  801MOL0     C10463   7.854   2.242   2.051  0.3475 -0.0522 -0.5173
  801MOL0     C10464   7.995   2.211   2.026 -0.8607  0.1534 -1.7738
  801MOL0     C10465   8.111   2.179   2.026  0.1908  0.1980 -0.5641
  801MOL0     C10466   7.629   1.896   1.629  0.5643 -0.7003  0.0710
  801MOL0     C10467   7.510   1.876   1.562 -0.6915 -0.1616  0.4684
  801MOL0     C10468   7.510   1.890   1.415 -0.2434  0.0552 -0.3216
  801MOL0     H10469   6.932   1.911   1.649 -0.1736 -1.5613  2.7333
  801MOL0     H10470   6.725   1.855   1.530  1.0731  1.9994 -0.8729
  801MOL0     H10471   6.727   1.495   1.253  1.5143  0.4650 -3.2445
  801MOL0     H10472   6.772   1.653   1.185 -1.5106  0.6109 -1.1055
  801MOL0     H10473   6.522   1.691   1.154 -2.4909 -1.3131  1.2007
  801MOL0     H10474   6.583   1.556   1.075  1.3393  0.0976 -0.3425
  801MOL0     H10475   6.509   1.401   1.261  0.5577 -0.1882  0.4534
  801MOL0     H10476   6.451   1.548   1.338  0.5616 -0.2323  0.0289
  801MOL0     H10477   6.255   1.475   1.219  1.2062 -0.4920 -0.0852
  801MOL0     H10478   6.315   1.603   1.120 -2.6569  0.5698  2.3169
  801MOL0     H10479   6.425   1.447   0.972 -2.2160  1.7092 -0.8177
  801MOL0     H10480   6.252   1.416   0.978 -1.3680  1.6951  1.9055
  801MOL0     H10481   6.444   1.246   1.148  0.8552  0.4536 -1.0474
  801MOL0     H10482   6.260   1.252   1.122 -1.6469  1.8078 -1.7100
  801MOL0     H10483   6.281   1.195   0.876 -0.0327 -1.6032 -1.5147
  801MOL0     H10484   6.340   1.077   0.984  2.2928 -1.6309 -1.2232
  801MOL0     H10485   6.508   1.083   0.830  0.8685 -0.7179  1.8148
  801MOL0     H10486   6.521   1.259   0.829 -3.1771 -0.2945 -0.6969
  801MOL0     H10487   6.586   0.957   1.051  1.3117 -0.3138 -1.0049
  801MOL0     H10488   6.766   0.930   1.276  1.8371  0.3183  2.0101
  801MOL0     H10489   6.879   1.060   1.299  3.7105  0.0077 -1.0203
  801MOL0     H10490   6.985   0.846   1.214  0.1227 -0.7275 -1.7987
  801MOL0     H10491   6.872   0.848   1.072  0.2811  1.9353 -0.8200
  801MOL0     H10492   6.990   1.072   0.995 -1.2791  0.7730  3.0889
  801MOL0     H10493   7.089   1.049   1.143  4.4026 -4.0493 -0.4152
  801MOL0     H10494   7.243   0.978   0.980  1.7345 -3.1059  1.7356
  801MOL0     H10495   7.174   0.834   1.054  1.5345 -0.0440  0.0794
  801MOL0     H10496   6.986   0.782   0.674  0.8433 -0.3120  0.3206
  801MOL0     H10497   6.899   0.932   0.354 -0.5054 -0.0889  0.1553
  801MOL0     H10498   6.896   0.779   0.449 -0.2301  0.9867 -0.0677
  801MOL0     H10499   7.035   0.818   0.348  0.7585 -0.3949  0.2782
  801MOL0     H10500   6.937   1.115   0.083  0.5636 -4.1715 -2.6809
  801MOL0     H10501   6.963   1.257  -0.121  0.1201 -2.1885 -0.4796
  801MOL0     H10502   7.263   1.522  -0.102  1.6382  1.1773 -0.4954
  801MOL0     H10503   7.397   1.423  -0.176 -0.3592 -0.3856  3.5050
  801MOL0     H10504   7.350   1.636  -0.281 -2.3968  2.7217 -3.5124
  801MOL0     H10505   7.301   1.523  -0.404  0.0982  1.1596 -0.0891
  801MOL0     H10506   7.131   1.668  -0.211  2.9153  0.5836  0.0699
  801MOL0     H10507   7.064   1.536  -0.304  1.2464 -0.3403 -2.8531
  801MOL0     H10508   7.045   1.625  -0.503  1.4701 -1.4642  0.4861
  801MOL0     H10509   7.194   1.730  -0.472  0.0380 -0.9535  1.0589
  801MOL0     H10510   6.926   1.741  -0.331  1.5260 -0.0516  2.0396
  801MOL0     H10511   7.046   1.875  -0.317  0.3410 -0.4344  0.7034
  801MOL0     H10512   6.867   1.800  -0.552  0.1816 -0.2656 -3.0424
  801MOL0     H10513   7.006   1.902  -0.579  0.3113 -1.3938 -0.2592
  801MOL0     H10514   6.813   2.068  -0.529 -0.1625 -0.7324 -0.3599
  801MOL0     H10515   6.941   2.087  -0.427 -4.0044  4.8632 -0.7389
  801MOL0     H10516   6.806   1.991  -0.240  1.1073  0.5643 -0.4611
  801MOL0     H10517   6.705   1.893  -0.355 -1.8924  0.0810 -0.5367
  801MOL0     H10518   7.392   1.281  -0.017 -0.0730  0.6246  1.0154
  801MOL0     H10519   7.347   1.140   0.186 -0.5595  1.5821  0.8307
  801MOL0     H10520   7.268   1.176   0.559 -3.3781  2.0036 -0.7543
  801MOL0     H10521   7.252   1.092   0.804  2.2154 -0.6482  0.0041
  801MOL0     H10522   6.876   1.472   1.430 -3.1802  0.8737 -1.2922
  801MOL0     H10523   7.100   1.535   1.556  1.3397  2.8885  1.3937
  801MOL0     H10524   7.357   1.718   1.824  1.3881  0.1912  0.4287
  801MOL0     H10525   7.550   1.773   1.929 -1.5328  0.2244  0.3840
  801MOL0     H10526   7.741   1.809   2.021  1.7115 -0.9654  0.3916
  801MOL0     H10527   7.886   1.910   1.990 -0.1592  1.8741  0.7261
  801MOL0     H10528   7.732   2.022   2.141 -4.5695 -0.9145  1.0605
  801MOL0     H10529   7.613   1.992   2.011  1.1966 -2.4558  0.1495
  801MOL0     H10530   7.779   2.152   1.864  1.9679  1.6959 -0.0505
  801MOL0     H10531   7.661   2.216   1.976 -3.0386 -4.0594 -1.4814
  801MOL0     H10532   7.833   2.249   2.158  2.2998 -0.7998 -0.0474
  801MOL0     H10533   7.845   2.343   2.011  0.7868 -0.0535 -0.6182
  801MOL0     H10534   8.213   2.149   2.035 -0.1155 -1.3474 -1.7317
  801MOL0     H10535   7.706   1.951   1.574 -1.6733  2.7956  0.0988
  801MOL0     H10536   7.478   1.796   1.370  1.7391 -0.8275 -0.0041
  801MOL0     H10537   7.437   1.962   1.378 -1.1451 -0.8382 -0.3212
  801MOL0     H10538   7.610   1.903   1.370  0.3501 -2.0074  0.3102
  802MOL0     O10539   1.981   4.482   1.541 -0.5342 -0.2194 -0.2918
  802MOL0     C10540   1.877   4.442   1.476  0.1328 -0.3281 -1.2665
  802MOL0     O10541   1.760   4.482   1.507 -0.2433  0.3313 -0.3765
  802MOL0     C10542   1.742   4.582   1.593  0.0391 -0.0730 -0.2626
  802MOL0     C10543   1.773   4.709   1.557  0.1689 -0.4426 -0.3973
  802MOL0     C10544   1.712   4.819   1.624  0.0344 -0.6718 -0.0549
  802MOL0     C10545   1.663   4.800   1.754  0.0095 -0.8603 -0.0026
  802MOL0     O10546   1.637   4.903   1.833 -0.2888  0.7101  0.4924
  802MOL0     C10547   1.526   4.893   1.919  0.3050 -0.9182  0.0111
  802MOL0     C10548   1.474   5.036   1.937  1.2790 -0.8317  0.0640
  802MOL0     C10549   1.563   5.126   2.029  0.9074 -0.0324 -1.1993
  802MOL0     C10550   1.708   5.165   2.010 -0.3560  0.4891  0.5223
  802MOL0     C10551   1.747   5.255   2.123  0.0937 -0.7921  0.0186
  802MOL0     C10552   1.688   5.392   2.097  0.0853 -0.0703  0.2055
  802MOL0     C10553   1.754   5.500   2.178 -0.3255  0.1975 -0.5513
  802MOL0     C10554   1.862   5.564   2.084  0.1271 -0.3737  0.8940
  802MOL0     N10555   1.942   5.663   2.149  1.0536 -0.4615 -0.0044
  802MOL0     C10556   1.900   5.796   2.166 -0.7834  0.4855  0.0899
  802MOL0     C10557   2.001   5.854   2.241 -0.4212 -0.0912  0.6924
  802MOL0     C10558   1.985   5.989   2.288  0.4076 -0.3486  0.0238
  802MOL0     C10559   1.984   6.010   2.438  0.5314  0.2395 -0.2170
  802MOL0     C10560   1.902   6.136   2.470 -0.5992  0.3606 -0.2358
  802MOL0     C10561   1.902   6.158   2.617 -0.1177 -0.4966 -0.2378
  802MOL0     O10562   1.858   6.287   2.649  0.0327 -1.0160 -0.2149
  802MOL0     C10563   1.802   6.325   2.772  0.6391 -0.2582  0.1955
  802MOL0     C10564   1.793   6.459   2.812  0.1517  0.7932 -0.3824
  802MOL0     C10565   1.737   6.508   2.937  0.7601 -0.4570  0.5111
  802MOL0     C10566   1.747   6.656   2.934  0.0295 -0.5905 -0.2273
  802MOL0     C10567   1.678   6.418   3.025  0.1203 -0.9270 -0.4337
  802MOL0     C10568   1.606   6.451   3.153 -0.2358 -0.3531  0.5871
  802MOL0     O10569   1.522   6.349   3.206 -0.0440 -0.7002 -0.6336
  802MOL0     C10570   1.446   6.364   3.318  0.1962  0.1759 -0.3469
  802MOL0     C10571   1.462   6.279   3.425  0.0884 -0.5185  0.0863
  802MOL0     C10572   1.394   6.307   3.546  1.4015 -0.1568 -0.3733
  802MOL0     C10573   1.297   6.410   3.554 -0.4721  0.2936 -0.3364
  802MOL0     O10574   1.231   6.426   3.675  0.2590 -0.8655 -0.3713
  802MOL0     C10575   1.119   6.509   3.670  0.3143 -0.0833 -0.1123
  802MOL0     C10576   1.040   6.492   3.802  0.1760 -0.8024  0.6650
  802MOL0     C10577   0.968   6.351   3.805  1.4310  0.2995 -0.3073
  802MOL0     C10578   0.943   6.315   3.947 -0.6753  0.0748  0.2857
  802MOL0     C10579   0.854   6.191   3.960 -0.4819  0.3236  0.1083
  802MOL0     C10580   0.850   6.130   4.103  0.1933  0.6814  0.5340
  802MOL0     C10581   0.769   6.004   4.088  0.3276 -0.1283 -0.4727
  802MOL0     C10582   0.739   5.942   4.224  0.1591 -0.0684  0.7759
  802MOL0    Cl10583   0.776   5.758   4.218 -0.9298 -0.3396 -0.3062
  802MOL0     C10584   1.292   6.502   3.448 -1.1377 -0.0825 -0.3614
  802MOL0     C10585   1.363   6.478   3.331  0.9756  0.2031 -0.1977
  802MOL0     O10586   1.622   6.560   3.208  0.4419  0.3846 -0.6365
  802MOL0     C10587   1.687   6.282   2.982  0.0938 -0.4912 -0.2334
  802MOL0     C10588   1.753   6.240   2.868  0.8586 -0.3100  0.8371
  802MOL0     N10589   2.097   5.757   2.258 -0.2939  0.7188  0.1024
  802MOL0     N10590   2.067   5.642   2.206 -0.4073 -0.3409  0.4550
  802MOL0     C10591   1.645   4.669   1.802 -0.0783  0.0666  0.3816
  802MOL0     C10592   1.673   4.562   1.716  1.1849  0.3990 -0.0236
  802MOL0     C10593   1.898   4.360   1.359  0.2568  0.4110  0.0511
  802MOL0     C10594   1.939   4.227   1.367  0.8395 -0.0269  0.1277
  802MOL0     C10595   1.961   4.163   1.247 -0.3316 -0.3176 -0.3578
  802MOL0     C10596   1.949   4.218   1.120  0.5188 -0.1995 -0.3274
  802MOL0     O10597   1.987   4.155   1.004 -0.3248 -0.8439  0.2598
  802MOL0     C10598   2.047   4.023   1.005 -0.5798  0.0915  0.5103
  802MOL0     C10599   2.115   4.001   0.868  0.4205 -0.1456 -1.0173
  802MOL0     C10600   2.125   3.860   0.822 -0.6232  0.0679 -0.4851
  802MOL0     C10601   1.999   3.777   0.805  0.7847 -0.3030 -0.1232
  802MOL0     C10602   1.998   3.685   0.690  0.5630  0.4976 -0.0816
  802MOL0     C10603   1.997   3.600   0.595  0.2126 -0.2596 -0.0100
  802MOL0     C10604   1.901   4.345   1.121  0.8825 -0.4637  0.4742
  802MOL0     C10605   1.885   4.426   1.236  0.1074 -0.0174  0.4239
  802MOL0     C10606   1.863   4.569   1.205  0.1149 -0.4802 -0.1876
  802MOL0     H10607   1.844   4.720   1.475 -0.5796 -2.3864 -1.3651
  802MOL0     H10608   1.730   4.922   1.594  1.0017 -0.6755  0.4718
  802MOL0     H10609   1.558   4.837   2.007  0.2651 -0.5863  0.2415
  802MOL0     H10610   1.445   4.832   1.879 -0.9154  0.4394  0.3158
  802MOL0     H10611   1.468   5.070   1.833  1.0482 -2.1661 -0.3739
  802MOL0     H10612   1.375   5.027   1.983  0.5603 -0.0549 -1.2635
  802MOL0     H10613   1.505   5.219   2.034 -0.1529 -0.6661 -1.5373
  802MOL0     H10614   1.547   5.074   2.124 -1.6063  1.5116 -0.6897
  802MOL0     H10615   1.771   5.075   2.006 -0.3663  0.3995  1.9155
  802MOL0     H10616   1.721   5.210   1.911  0.1224  0.7365  0.6908
  802MOL0     H10617   1.856   5.262   2.114  0.0485 -1.8567 -2.4666
  802MOL0     H10618   1.715   5.222   2.222 -1.0675 -1.3913 -0.5366
  802MOL0     H10619   1.698   5.419   1.991 -3.8420  3.0766  0.4069
  802MOL0     H10620   1.581   5.393   2.117  0.5211  2.1383  3.1083
  802MOL0     H10621   1.790   5.455   2.271 -1.8352  1.3803  0.6400
  802MOL0     H10622   1.690   5.584   2.206 -2.4251 -0.3330 -3.2533
  802MOL0     H10623   1.932   5.497   2.033  3.9109  2.8595  1.3712
  802MOL0     H10624   1.813   5.614   2.000 -1.5679 -1.0244  1.4414
  802MOL0     H10625   1.813   5.846   2.125 -0.6740  2.3677  1.9367
  802MOL0     H10626   1.891   6.032   2.250  0.4930 -0.1384  0.0510
  802MOL0     H10627   2.068   6.047   2.246  1.5383 -0.1409  2.3815
  802MOL0     H10628   1.939   5.922   2.483  3.4826 -0.9414  0.6846
  802MOL0     H10629   2.083   6.026   2.482  0.6799 -0.3900 -0.3103
  802MOL0     H10630   1.949   6.220   2.416 -1.9859 -0.5319 -3.0464
  802MOL0     H10631   1.800   6.129   2.430 -0.7781  1.3022  0.0099
  802MOL0     H10632   1.847   6.084   2.676  2.0589 -0.4389  2.0168
  802MOL0     H10633   2.004   6.157   2.656 -0.7307 -0.1759  1.4801
  802MOL0     H10634   1.831   6.538   2.748  1.6383  1.3987  1.1778
  802MOL0     H10635   1.839   6.695   2.887 -0.6384  2.0388  0.4829
  802MOL0     H10636   1.743   6.695   3.036  2.2139  0.5049 -0.4969
  802MOL0     H10637   1.675   6.716   2.878  0.9585 -1.9573 -3.1038
  802MOL0     H10638   1.530   6.194   3.426  2.5914  1.3484  1.2344
  802MOL0     H10639   1.394   6.250   3.639  0.2181  1.6631  0.8130
  802MOL0     H10640   1.149   6.614   3.675  2.2020 -0.4505 -2.1841
  802MOL0     H10641   1.064   6.504   3.575  1.2627 -1.6538 -0.6083
  802MOL0     H10642   1.100   6.500   3.893 -0.7880  2.1388  1.1221
  802MOL0     H10643   0.958   6.563   3.813  1.0182  0.4471 -0.6902
  802MOL0     H10644   1.033   6.270   3.769  0.1783 -1.7676  1.8234
  802MOL0     H10645   0.874   6.346   3.750  1.8386 -1.2303 -0.9116
  802MOL0     H10646   0.909   6.389   4.020  1.8173  1.1251  0.4797
  802MOL0     H10647   1.040   6.298   3.994 -0.7575 -1.4910 -0.0811
  802MOL0     H10648   0.751   6.216   3.933  0.3078 -0.5197 -4.4546
  802MOL0     H10649   0.886   6.126   3.878 -0.9795 -0.5885  0.6246
  802MOL0     H10650   0.815   6.202   4.178  2.2336  1.4559  0.8093
  802MOL0     H10651   0.947   6.102   4.146  1.2014  3.2333  0.0916
  802MOL0     H10652   0.832   5.942   4.024  2.9028  1.4849  0.3366
  802MOL0     H10653   0.674   6.015   4.036  0.2821  0.2016 -0.3203
  802MOL0     H10654   0.631   5.940   4.241  0.2945 -1.1822  1.6754
  802MOL0     H10655   0.789   5.993   4.307  1.3723  0.1660 -0.0770
  802MOL0     H10656   1.229   6.591   3.449  1.1554  1.6162 -0.7635
  802MOL0     H10657   1.344   6.548   3.250 -3.3644 -1.0764 -0.5596
  802MOL0     H10658   1.644   6.205   3.045 -2.1156 -0.3303 -1.4616
  802MOL0     H10659   1.763   6.132   2.866 -2.9115 -0.7856 -0.5706
  802MOL0     H10660   1.618   4.644   1.904  2.4542  1.0260  1.3569
  802MOL0     H10661   1.669   4.461   1.756  1.6673 -0.1209 -1.2547
  802MOL0     H10662   1.968   4.173   1.457  0.1967 -0.8901 -0.1686
  802MOL0     H10663   1.992   4.059   1.249  0.5096 -0.0707  0.1068
  802MOL0     H10664   2.119   4.021   1.088 -0.1312  2.1532  0.2436
  802MOL0     H10665   1.969   3.947   1.018  0.0521 -1.1305 -2.1616
  802MOL0     H10666   2.217   4.039   0.873  2.2576 -4.4864 -1.6235
  802MOL0     H10667   2.059   4.053   0.789  1.6454 -0.0912 -1.8752
  802MOL0     H10668   2.190   3.870   0.734  1.1618 -2.6694  0.4282
  802MOL0     H10669   2.190   3.804   0.889 -1.7937  1.3615  1.8633
  802MOL0     H10670   1.912   3.842   0.789  2.5904  1.9039 -1.8501
  802MOL0     H10671   1.981   3.716   0.893 -0.8581 -2.2812 -1.7103
  802MOL0     H10672   1.979   3.532   0.514  0.6616  2.2769 -2.3425
  802MOL0     H10673   1.889   4.387   1.022  1.0000  0.6784  0.9311
  802MOL0     H10674   1.755   4.586   1.201  0.1356 -0.4402 -3.2189
  802MOL0     H10675   1.896   4.634   1.287  0.3849 -0.6165 -0.1868
  802MOL0     H10676   1.917   4.608   1.118  2.1658  1.4787  1.8048
  803MOL0     O10677   8.225   3.071   5.775 -0.0737 -0.1787 -0.2763
  803MOL0     C10678   8.228   3.054   5.896  0.4467 -0.5851  0.7160
  803MOL0     O10679   8.130   3.074   5.977 -0.0097 -0.1946 -0.1809
  803MOL0     C10680   8.017   3.148   5.948 -0.2468  1.0508  0.3787
  803MOL0     C10681   8.011   3.242   5.837 -0.4969 -0.2313 -0.4673
  803MOL0     C10682   7.900   3.320   5.837  0.0688  0.1836  0.9435
  803MOL0     C10683   7.790   3.300   5.923 -1.0322 -0.2720 -1.1166
  803MOL0     O10684   7.669   3.359   5.890 -0.2581 -0.6307  0.0923
  803MOL0     C10685   7.681   3.503   5.886 -0.0152  0.7640  0.0318
  803MOL0     C10686   7.549   3.578   5.923  0.7026 -0.2465 -0.4113
  803MOL0     C10687   7.485   3.537   6.055  0.5413 -0.5108 -0.6083
  803MOL0     C10688   7.578   3.592   6.171 -0.0579 -0.3070  0.2171
  803MOL0     C10689   7.514   3.577   6.308  0.4274  0.4175 -0.2975
  803MOL0     C10690   7.390   3.660   6.359 -0.3807 -0.0733 -0.1228
  803MOL0     C10691   7.335   3.613   6.497 -0.3344  0.2128  0.7873
  803MOL0     C10692   7.412   3.676   6.613 -0.2132 -0.4472 -0.2839
  803MOL0     N10693   7.402   3.817   6.611  0.5904 -0.0880  0.9574
  803MOL0     C10694   7.289   3.895   6.618 -0.1134  0.2808  0.2556
  803MOL0     C10695   7.329   4.017   6.577  0.1895  0.1245 -0.3172
  803MOL0     C10696   7.240   4.139   6.554  0.4204 -0.5554 -1.1674
  803MOL0     C10697   7.160   4.135   6.421  0.6636  0.5546 -0.3698
  803MOL0     C10698   7.098   4.263   6.379  0.2824 -0.3283 -0.2747
  803MOL0     C10699   6.978   4.244   6.293  0.5242 -0.9069  0.8568
  803MOL0     O10700   7.005   4.168   6.176 -0.1292  0.5931 -1.4313
  803MOL0     C10701   6.996   4.036   6.193 -0.7161 -0.4971  0.6995
  803MOL0     C10702   6.881   3.964   6.240 -1.1848  0.3131 -0.7990
  803MOL0     C10703   6.876   3.825   6.249 -0.6284  0.9007 -0.0017
  803MOL0     C10704   6.739   3.776   6.291  0.8191  0.5223 -0.2526
  803MOL0     C10705   6.978   3.747   6.196  0.6948  0.7979  0.0634
  803MOL0     C10706   6.980   3.593   6.185 -0.7379 -0.0814 -0.2388
  803MOL0     O10707   7.083   3.537   6.107 -0.2260 -0.3502  0.3481
  803MOL0     C10708   7.104   3.405   6.113  0.5873 -0.0989 -0.0032
  803MOL0     C10709   7.120   3.325   5.999 -0.2928  0.0894  0.0116
  803MOL0     C10710   7.167   3.195   6.012 -0.3862  0.5423 -0.2441
  803MOL0     C10711   7.182   3.138   6.135 -0.5252  0.2755 -0.2536
  803MOL0     O10712   7.207   3.006   6.154  0.6146 -0.5673  0.0144
  803MOL0     C10713   7.315   2.969   6.239 -0.7270 -0.3282 -0.1338
  803MOL0     C10714   7.372   2.832   6.201 -0.1936  0.3783  0.1440
  803MOL0     C10715   7.441   2.862   6.067  0.6827  0.5440  0.3904
  803MOL0     C10716   7.558   2.767   6.038 -0.6057  0.7072 -0.9323
  803MOL0     C10717   7.639   2.806   5.913 -0.0970 -0.6764  0.0844
  803MOL0     C10718   7.757   2.720   5.880  0.6525  0.9229  0.2991
  803MOL0     C10719   7.844   2.761   5.761  0.1244 -0.2128 -0.7058
  803MOL0     C10720   7.940   2.645   5.723  1.1523  0.3780 -0.4782
  803MOL0    Cl10721   8.086   2.657   5.818  0.1186 -0.0706  0.1571
  803MOL0     C10722   7.161   3.214   6.255  0.5590 -0.5376  0.4735
  803MOL0     C10723   7.126   3.346   6.236 -0.6762 -0.4535 -0.2242
  803MOL0     O10724   6.919   3.534   6.269  0.9025  0.7590 -0.2416
  803MOL0     C10725   7.088   3.816   6.140 -0.3147  0.4792  0.6723
  803MOL0     C10726   7.100   3.954   6.141  0.0575 -0.1560 -0.3600
  803MOL0     N10727   7.468   4.017   6.563  0.9185  0.0490  0.7404
  803MOL0     N10728   7.508   3.894   6.602  0.8416 -0.5015  0.9315
  803MOL0     C10729   7.799   3.208   6.023 -0.3143  0.4349 -0.2858
  803MOL0     C10730   7.916   3.140   6.038 -0.0852  0.0918 -0.3680
  803MOL0     C10731   8.362   3.023   5.939  0.8156  0.1699 -1.1679
  803MOL0     C10732   8.402   3.086   6.057  0.0326 -0.0934  0.4596
  803MOL0     C10733   8.525   3.042   6.120  0.0020 -1.2110  0.7470
  803MOL0     C10734   8.611   2.946   6.060  1.1452  0.1846 -0.5930
  803MOL0     O10735   8.718   2.908   6.136 -0.4524 -0.8049  0.5028
  803MOL0     C10736   8.759   2.768   6.130 -0.0322 -0.2942  0.5811
  803MOL0     C10737   8.874   2.751   6.025 -0.3625 -0.0216 -0.7419
  803MOL0     C10738   8.996   2.673   6.091  0.3049 -0.4343  0.2842
  803MOL0     C10739   9.073   2.739   6.208 -0.2941  0.6998 -0.5672
  803MOL0     C10740   9.139   2.860   6.152  0.3425  0.6636 -1.2129
  803MOL0     C10741   9.185   2.962   6.110  0.3105 -0.1019 -0.3793
  803MOL0     C10742   8.569   2.890   5.939  0.3111  0.1875  0.0938
  803MOL0     C10743   8.447   2.927   5.872  0.2733  0.7914  0.9715
  803MOL0     C10744   8.401   2.846   5.758  0.7592  0.0853  0.9227
  803MOL0     H10745   8.089   3.266   5.765  1.2170 -1.5501  0.8574
  803MOL0     H10746   7.894   3.401   5.765 -1.5657 -0.5636  0.1939
  803MOL0     H10747   7.739   3.548   5.804  3.6583  0.3237  2.1824
  803MOL0     H10748   7.731   3.521   5.981 -2.9223 -1.9296  2.2939
  803MOL0     H10749   7.565   3.687   5.920 -0.9048  0.0704 -5.2163
  803MOL0     H10750   7.478   3.565   5.841 -0.0710  0.4313  0.1390
  803MOL0     H10751   7.391   3.592   6.059  1.0328  0.5180 -2.4259
  803MOL0     H10752   7.478   3.428   6.054  2.5713 -0.9042  3.5753
  803MOL0     H10753   7.669   3.532   6.169  1.0773  1.3078  0.5529
  803MOL0     H10754   7.618   3.694   6.159  2.0293 -0.6256  3.2062
  803MOL0     H10755   7.589   3.586   6.387  1.1550  2.2375 -1.1587
  803MOL0     H10756   7.487   3.471   6.304  0.0144  0.5060  0.0593
  803MOL0     H10757   7.393   3.769   6.355  4.2353 -0.0400 -1.5864
  803MOL0     H10758   7.308   3.639   6.290 -0.6520  1.0594 -0.1681
  803MOL0     H10759   7.343   3.504   6.501  0.7852  0.3044  1.3221
  803MOL0     H10760   7.231   3.643   6.509  0.3709  3.0445  0.7162
  803MOL0     H10761   7.359   3.645   6.704 -2.3442 -0.0160 -1.3366
  803MOL0     H10762   7.516   3.646   6.631  0.2321  1.9377  1.6548
  803MOL0     H10763   7.192   3.847   6.628  0.4558 -0.9013  0.3214
  803MOL0     H10764   7.311   4.222   6.555 -0.9177  0.6379  0.3330
  803MOL0     H10765   7.171   4.136   6.639  2.0324 -1.4365  0.1762
  803MOL0     H10766   7.231   4.108   6.342  2.1050  0.0057  1.0609
  803MOL0     H10767   7.082   4.059   6.425  2.8239 -1.8428 -1.1516
  803MOL0     H10768   7.067   4.331   6.459  1.5744 -0.0993  0.0593
  803MOL0     H10769   7.179   4.315   6.327 -0.4697 -0.7552 -1.9383
  803MOL0     H10770   6.904   4.193   6.356  0.0136 -2.2445 -0.7656
  803MOL0     H10771   6.931   4.340   6.269  1.4012 -0.2010  1.8628
  803MOL0     H10772   6.801   4.028   6.274 -1.5960 -0.9478  0.7437
  803MOL0     H10773   6.712   3.844   6.373 -4.3386  1.0969 -2.0510
  803MOL0     H10774   6.735   3.675   6.333 -0.4632  0.7432  0.1915
  803MOL0     H10775   6.668   3.781   6.207 -0.2218  1.4948  0.6427
  803MOL0     H10776   7.137   3.369   5.901  0.1002 -0.9281 -0.3967
  803MOL0     H10777   7.187   3.138   5.922 -0.1024  0.2568 -0.0001
  803MOL0     H10778   7.393   3.045   6.238 -1.1150  0.0809 -1.1051
  803MOL0     H10779   7.286   2.965   6.344  1.4969  0.6949  0.5786
  803MOL0     H10780   7.446   2.789   6.270  0.6203 -0.2116 -1.0501
  803MOL0     H10781   7.293   2.760   6.179  0.4505 -0.6151  0.9741
  803MOL0     H10782   7.482   2.962   6.050  1.0080  0.0868 -1.8156
  803MOL0     H10783   7.365   2.861   5.989 -0.4127  0.2839  1.4335
  803MOL0     H10784   7.518   2.669   6.010  0.2225  1.1535 -4.1791
  803MOL0     H10785   7.617   2.761   6.130 -1.0816  0.6099 -0.6330
  803MOL0     H10786   7.570   2.806   5.828  1.4167 -0.7320 -1.1883
  803MOL0     H10787   7.677   2.908   5.925 -1.6347  0.1593 -1.7034
  803MOL0     H10788   7.721   2.622   5.847 -1.4547  0.8277  2.6242
  803MOL0     H10789   7.822   2.697   5.965 -0.3217  0.5323  0.9473
  803MOL0     H10790   7.903   2.846   5.798 -0.3801 -0.3939  0.5987
  803MOL0     H10791   7.782   2.786   5.675 -0.1965 -0.4820 -0.5538
  803MOL0     H10792   7.971   2.669   5.621 -0.1014  2.9991 -0.3495
  803MOL0     H10793   7.899   2.544   5.723  2.4140 -0.1568  0.1994
  803MOL0     H10794   7.187   3.201   6.360  3.0684  0.2144  0.0007
  803MOL0     H10795   7.126   3.407   6.326 -0.4359 -2.2440  1.0407
  803MOL0     H10796   7.175   3.774   6.090 -1.0368 -0.7019  0.3629
  803MOL0     H10797   7.187   4.005   6.101 -0.0287 -1.5220 -2.4748
  803MOL0     H10798   7.719   3.185   6.093  1.4616 -0.9121  1.4357
  803MOL0     H10799   7.935   3.069   6.118 -2.5947  0.2729  0.4770
  803MOL0     H10800   8.340   3.163   6.103 -0.6476 -0.3255 -0.0674
  803MOL0     H10801   8.554   3.088   6.213  0.9708  0.5841 -0.3937
  803MOL0     H10802   8.799   2.737   6.227  2.3206  1.4547  0.2611
  803MOL0     H10803   8.672   2.703   6.117  0.4491 -0.8366  0.0056
  803MOL0     H10804   8.908   2.851   5.994  3.8189 -1.0953 -0.2105
  803MOL0     H10805   8.839   2.690   5.942  1.5124  0.7438 -2.1753
  803MOL0     H10806   8.946   2.582   6.125 -0.8229  1.0932  2.9942
  803MOL0     H10807   9.065   2.666   6.006 -0.6747  3.0056 -0.9514
  803MOL0     H10808   9.150   2.676   6.253 -0.5849  0.5250 -0.3055
  803MOL0     H10809   9.000   2.769   6.284 -0.0379  2.2759 -0.9216
  803MOL0     H10810   9.232   3.054   6.085 -0.1406 -0.0513 -1.0828
  803MOL0     H10811   8.628   2.810   5.894 -1.1699 -1.3072  0.7152
  803MOL0     H10812   8.384   2.897   5.662  2.3077 -0.9277  0.0640
  803MOL0     H10813   8.479   2.774   5.732  0.7013 -0.0185  1.0404
  803MOL0     H10814   8.309   2.799   5.792  0.2256 -1.4594 -2.2641
  804MOL0     O10815   3.041   9.277   3.033  0.6548  0.1584 -0.1211
  804MOL0     C10816   2.956   9.221   2.958 -0.0103  0.4295 -0.2984
  804MOL0     O10817   2.883   9.109   2.987 -0.7326  0.2395 -0.5801
  804MOL0     C10818   2.882   9.043   3.112  0.9943  0.7954  0.1974
  804MOL0     C10819   2.755   8.977   3.145 -0.8386 -0.5043 -0.1357
  804MOL0     C10820   2.740   8.909   3.264  0.0204  0.1797 -0.0582
  804MOL0     C10821   2.847   8.909   3.356 -0.2024  0.9197 -0.1119
  804MOL0     O10822   2.826   8.854   3.486  0.5722 -0.1346  0.1046
  804MOL0     C10823   2.701   8.879   3.558 -0.1749 -0.3594  0.2720
  804MOL0     C10824   2.683   9.021   3.615  0.5171 -0.6903  0.2759
  804MOL0     C10825   2.524   9.062   3.612 -0.6364 -0.3371 -0.4878
  804MOL0     C10826   2.436   8.966   3.698 -0.5396 -0.1209  0.6746
  804MOL0     C10827   2.293   9.017   3.742 -0.2369 -0.0900  0.0169
  804MOL0     C10828   2.225   8.915   3.835 -0.2524 -0.0543  0.4718
  804MOL0     C10829   2.151   8.812   3.757  0.4604  0.7828 -0.3055
  804MOL0     C10830   1.996   8.844   3.745  0.3664  0.8412  0.0324
  804MOL0     N10831   1.943   8.844   3.878  0.9181  0.0446  0.8876
  804MOL0     C10832   1.953   8.747   3.975  0.5261  0.9840  0.6755
  804MOL0     C10833   1.851   8.786   4.064  0.1932  0.4501  1.1166
  804MOL0     C10834   1.801   8.706   4.184  0.1557  0.5364  0.2506
  804MOL0     C10835   1.792   8.783   4.307  0.3546 -0.1617 -0.1633
  804MOL0     C10836   1.657   8.867   4.332 -1.0662  0.5071  0.4591
  804MOL0     C10837   1.636   8.943   4.463 -0.7873  0.6218  0.3328
  804MOL0     O10838   1.502   8.993   4.481  0.3270  0.2849 -0.2297
  804MOL0     C10839   1.464   9.096   4.565  0.0732  0.8536  0.4637
  804MOL0     C10840   1.326   9.114   4.586  0.3221 -0.0183  0.2754
  804MOL0     C10841   1.267   9.202   4.686  0.1632 -0.8375 -0.0170
  804MOL0     C10842   1.113   9.213   4.677  0.1279 -0.6547 -0.8078
  804MOL0     C10843   1.358   9.261   4.776  0.8679 -0.0049 -0.1820
  804MOL0     C10844   1.308   9.325   4.901  0.5554  0.8709 -0.7110
  804MOL0     O10845   1.173   9.318   4.920 -0.8534 -0.0455  0.7996
  804MOL0     C10846   1.116   9.408   5.004 -0.4971  0.7853  0.3944
  804MOL0     C10847   1.045   9.522   4.963 -0.4611  1.4048  0.8067
  804MOL0     C10848   0.992   9.611   5.055  0.0423 -0.1397  1.1233
  804MOL0     C10849   0.989   9.594   5.193  0.6862 -0.2270  0.5071
  804MOL0     O10850   0.925   9.676   5.278 -0.4932 -0.1971 -0.1039
  804MOL0     C10851   1.007   9.772   5.343  0.1500  0.7175 -0.1618
  804MOL0     C10852   1.031   9.892   5.258 -0.9864 -0.2997 -0.1651
  804MOL0     C10853   1.080  10.009   5.348 -0.2970  0.6309  0.2633
  804MOL0     C10854   1.133  10.136   5.266  0.0809 -0.3293 -0.1781
  804MOL0     C10855   1.186  10.252   5.348  0.0703  0.1089  0.7593
  804MOL0     C10856   1.091  10.288   5.468 -0.2974 -0.7033  0.5602
  804MOL0     C10857   0.942  10.313   5.413  0.5452  0.8680 -0.6584
  804MOL0     C10858   0.850  10.403   5.506 -0.0712  1.2825 -0.6377
  804MOL0    Cl10859   0.672  10.388   5.464 -0.8300  0.3144  0.0775
  804MOL0     C10860   1.058   9.476   5.233  0.3584 -0.2382 -0.2602
  804MOL0     C10861   1.118   9.389   5.145 -1.1349 -0.5786  0.3598
  804MOL0     O10862   1.385   9.378   4.977 -0.7432 -0.9981 -0.1976
  804MOL0     C10863   1.498   9.231   4.770 -0.0830 -0.4964  0.5358
  804MOL0     C10864   1.547   9.150   4.668 -0.2775  0.0160 -0.9414
  804MOL0     N10865   1.806   8.913   4.027 -0.2251  0.0348  0.3628
  804MOL0     N10866   1.858   8.940   3.917  0.0593 -0.4936  0.3909
  804MOL0     C10867   2.972   8.960   3.320  0.5892 -0.1700  0.3338
  804MOL0     C10868   2.990   9.033   3.202 -0.3065  0.7216 -0.0456
  804MOL0     C10869   2.923   9.284   2.826 -0.6728 -0.8958  0.4410
  804MOL0     C10870   2.876   9.199   2.728  0.8068 -0.9119 -0.6729
  804MOL0     C10871   2.860   9.240   2.596 -0.1099  0.4534 -0.4959
  804MOL0     C10872   2.873   9.372   2.560  0.4472 -0.1513 -0.0398
  804MOL0     O10873   2.836   9.394   2.431 -1.0316  0.2611 -0.4040
  804MOL0     C10874   2.891   9.500   2.356 -0.1797  0.0756  0.0401
  804MOL0     C10875   2.817   9.498   2.215 -0.1210 -0.7304 -0.6475
  804MOL0     C10876   2.866   9.405   2.110 -0.2874 -0.2444  0.6911
  804MOL0     C10877   2.785   9.420   1.983 -0.2828 -0.2086  0.1973
  804MOL0     C10878   2.832   9.549   1.926  0.4621 -0.1440 -0.5446
  804MOL0     C10879   2.862   9.646   1.857 -0.4234 -0.7190 -0.2929
  804MOL0     C10880   2.918   9.463   2.658  1.2667  0.4890  0.6087
  804MOL0     C10881   2.949   9.422   2.790  0.3026  0.2699 -0.0651
  804MOL0     C10882   2.993   9.523   2.883 -0.1875 -0.1579  0.6809
  804MOL0     H10883   2.668   8.986   3.081  1.6248  3.0584 -3.4731
  804MOL0     H10884   2.647   8.862   3.293  0.5006  0.5295  2.2781
  804MOL0     H10885   2.692   8.814   3.646 -1.9573 -0.2141  0.2206
  804MOL0     H10886   2.620   8.844   3.495 -4.8249  2.0161  4.2302
  804MOL0     H10887   2.735   9.044   3.708  3.5401 -0.7401 -1.2495
  804MOL0     H10888   2.725   9.090   3.541  1.3736  0.8109  2.0780
  804MOL0     H10889   2.503   9.164   3.644 -2.1191 -1.2275  1.6071
  804MOL0     H10890   2.491   9.051   3.508 -2.8235 -2.6298  0.3618
  804MOL0     H10891   2.424   8.880   3.631  2.1680  2.2143 -3.1776
  804MOL0     H10892   2.498   8.939   3.785  0.3600  1.9679  0.7362
  804MOL0     H10893   2.228   9.018   3.654  0.2643 -1.3400 -0.3961
  804MOL0     H10894   2.302   9.117   3.786  0.5708 -0.8678  1.7177
  804MOL0     H10895   2.300   8.860   3.894 -1.1156  0.2603  1.9183
  804MOL0     H10896   2.168   8.976   3.907 -1.5225  0.6030 -1.0370
  804MOL0     H10897   2.154   8.713   3.804 -1.6573  1.3303  1.1486
  804MOL0     H10898   2.197   8.805   3.659 -1.4515  1.4534 -1.3065
  804MOL0     H10899   2.003   8.948   3.711  2.5100  1.0791  1.0508
  804MOL0     H10900   1.934   8.785   3.677  0.2880  2.6635 -1.5664
  804MOL0     H10901   2.004   8.651   3.974 -1.2222 -0.0087 -1.6846
  804MOL0     H10902   1.862   8.615   4.184  0.2952  0.5267 -3.1171
  804MOL0     H10903   1.698   8.675   4.168  0.1682 -0.6091  2.0952
  804MOL0     H10904   1.824   8.727   4.395  0.7611  1.1119  0.5189
  804MOL0     H10905   1.869   8.860   4.306 -0.6397  0.8714 -1.3173
  804MOL0     H10906   1.657   8.946   4.256 -3.4558 -0.2738 -0.4498
  804MOL0     H10907   1.570   8.803   4.313 -0.7413  0.7263 -2.0639
  804MOL0     H10908   1.656   8.872   4.544 -1.2763  1.4338  1.1729
  804MOL0     H10909   1.709   9.022   4.483  1.5138 -0.8311 -1.7310
  804MOL0     H10910   1.264   9.049   4.525 -1.1142  1.4128  0.1312
  804MOL0     H10911   1.080   9.307   4.720  1.9143  0.1899 -1.1540
  804MOL0     H10912   1.061   9.140   4.739 -0.1516 -1.2679 -1.7396
  804MOL0     H10913   1.078   9.201   4.574  1.8406 -1.8742 -1.3003
  804MOL0     H10914   1.049   9.547   4.857  1.2055  1.8223  0.9515
  804MOL0     H10915   0.954   9.702   5.010  0.8936  0.5614  1.7922
  804MOL0     H10916   0.952   9.805   5.432 -1.8260 -0.5614 -0.8466
  804MOL0     H10917   1.098   9.723   5.377 -1.6026 -4.2618 -1.8481
  804MOL0     H10918   1.100   9.876   5.174  2.5583 -0.0921  2.4905
  804MOL0     H10919   0.938   9.919   5.208 -0.8334  3.3975  1.2078
  804MOL0     H10920   1.171   9.964   5.390  0.4444  1.1647 -0.7438
  804MOL0     H10921   1.010  10.034   5.428  0.4782  2.5938  0.3940
  804MOL0     H10922   1.044  10.171   5.213  0.8723  0.4077 -1.0409
  804MOL0     H10923   1.215  10.101   5.202 -0.2735 -2.7851  0.6021
  804MOL0     H10924   1.282  10.214   5.383  0.2811 -4.1120 -3.4198
  804MOL0     H10925   1.200  10.337   5.280 -3.3077 -2.3354 -3.5440
  804MOL0     H10926   1.144  10.377   5.501  1.6718 -1.3034 -0.8387
  804MOL0     H10927   1.095  10.208   5.542  0.6681 -0.4425  0.7919
  804MOL0     H10928   0.899  10.214   5.400  2.0291 -0.4031  2.9293
  804MOL0     H10929   0.946  10.355   5.312 -2.5020 -2.2036 -2.2645
  804MOL0     H10930   0.880  10.508   5.501  3.1652  0.5914  1.6746
  804MOL0     H10931   0.858  10.379   5.612 -2.2669 -0.0287 -0.7007
  804MOL0     H10932   1.057   9.439   5.334  0.9375 -1.7012 -0.7654
  804MOL0     H10933   1.177   9.305   5.181  0.6304 -0.9997 -3.0864
  804MOL0     H10934   1.571   9.244   4.849  2.1222 -3.4697 -0.8272
  804MOL0     H10935   1.652   9.125   4.665  0.1386  0.4499  3.3865
  804MOL0     H10936   3.052   8.928   3.385  0.7778  0.6003  0.4867
  804MOL0     H10937   3.088   9.074   3.181 -0.5677  1.6372  0.4542
  804MOL0     H10938   2.843   9.099   2.754  0.4590 -0.4244  0.8892
  804MOL0     H10939   2.826   9.165   2.525  1.1111  0.8681 -1.5484
  804MOL0     H10940   2.881   9.602   2.395 -1.9050 -0.4115  0.9821
  804MOL0     H10941   2.999   9.488   2.345  0.0549 -0.1401  2.1516
  804MOL0     H10942   2.823   9.602   2.180  0.0472 -0.4854  0.0865
  804MOL0     H10943   2.716   9.467   2.243  0.2977 -0.8410  0.8506
  804MOL0     H10944   2.973   9.423   2.092 -0.3676  0.2982  0.7443
  804MOL0     H10945   2.859   9.301   2.143 -3.7286 -0.1580  0.5261
  804MOL0     H10946   2.678   9.396   1.988  0.2949 -3.7913 -1.2487
  804MOL0     H10947   2.826   9.347   1.911  2.4137  1.1125  0.2867
  804MOL0     H10948   2.886   9.732   1.797  0.0681  1.6664  3.0120
  804MOL0     H10949   2.922   9.566   2.624 -0.5041  0.5971  0.6441
  804MOL0     H10950   2.922   9.528   2.966 -1.8364 -0.4904 -0.6690
  804MOL0     H10951   3.094   9.501   2.920  0.0903 -1.9424 -0.9809
  804MOL0     H10952   3.007   9.618   2.831  0.3603 -0.2511  0.6541
  805MOL0     O10953   3.088   3.507   5.819 -0.7429  0.6455  0.9362
  805MOL0     C10954   3.076   3.441   5.924  0.6739  0.5000  0.2070
  805MOL0     O10955   3.171   3.420   6.013  0.0365 -0.0785  0.0662
  805MOL0     C10956   3.290   3.478   6.010  0.1839  0.2815 -1.3356
  805MOL0     C10957   3.384   3.394   6.067  0.5326  0.6556 -0.5548
  805MOL0     C10958   3.518   3.436   6.050 -0.1473  0.3631 -0.5436
  805MOL0     C10959   3.558   3.549   5.995  1.0178 -0.3067 -0.3031
  805MOL0     O10960   3.689   3.560   5.969 -0.7469 -0.3794 -0.5005
  805MOL0     C10961   3.750   3.670   5.901 -0.2071  0.7956 -0.1502
  805MOL0     C10962   3.709   3.663   5.758 -0.3727  0.8975  0.0009
  805MOL0     C10963   3.775   3.769   5.667 -0.4045 -0.7651 -0.0339
  805MOL0     C10964   3.777   3.727   5.518  0.0192 -0.8823 -0.4704
  805MOL0     C10965   3.803   3.848   5.428  0.2114  0.8408  0.1050
  805MOL0     C10966   3.949   3.889   5.442  0.2960 -0.3835 -0.2677
  805MOL0     C10967   4.015   3.977   5.327 -0.4468 -0.4229 -0.4573
  805MOL0     C10968   4.080   3.896   5.209 -0.1485  0.5018  0.2483
  805MOL0     N10969   3.989   3.802   5.150 -0.3618  0.1739  0.2823
  805MOL0     C10970   3.878   3.826   5.071  0.4035 -0.8029 -0.1995
  805MOL0     C10971   3.849   3.710   5.005  0.2757 -0.5072 -0.2139
  805MOL0     C10972   3.720   3.690   4.925 -0.1376 -0.6002 -0.9834
  805MOL0     C10973   3.612   3.639   5.014  0.4199 -0.3810 -0.8216
  805MOL0     C10974   3.555   3.739   5.116  1.5775  0.2972  0.2922
  805MOL0     C10975   3.481   3.678   5.236 -0.3889  1.5917  0.3526
  805MOL0     O10976   3.383   3.577   5.185  0.8924  0.2944  0.4190
  805MOL0     C10977   3.245   3.585   5.219  0.0025  0.1932  0.1109
  805MOL0     C10978   3.153   3.649   5.140 -0.6647 -0.1699 -1.0760
  805MOL0     C10979   3.019   3.629   5.165  0.4938  0.3752  1.0408
  805MOL0     C10980   2.911   3.701   5.066  0.8166 -0.5630 -0.8428
  805MOL0     C10981   2.980   3.550   5.276 -0.2216  0.2230  0.2449
  805MOL0     C10982   2.840   3.513   5.313 -0.3296  0.3318 -0.7563
  805MOL0     O10983   2.827   3.439   5.423  0.4579  0.5206  0.5022
  805MOL0     C10984   2.739   3.333   5.422  0.0632 -0.5309 -1.2947
  805MOL0     C10985   2.702   3.273   5.305  1.0189  0.6314  0.1545
  805MOL0     C10986   2.618   3.159   5.308 -0.6682  0.0603 -0.6554
  805MOL0     C10987   2.580   3.102   5.433  1.1254 -0.0472 -0.2290
  805MOL0     O10988   2.503   2.992   5.420 -1.1047  0.3647 -0.4199
  805MOL0     C10989   2.400   2.974   5.513 -0.3279 -0.2097  0.0913
  805MOL0     C10990   2.419   2.835   5.573  1.0510 -0.1873  0.8427
  805MOL0     C10991   2.372   2.714   5.487 -0.1906  0.1587  0.1591
  805MOL0     C10992   2.221   2.683   5.449  0.0446  0.1450 -0.3353
  805MOL0     C10993   2.202   2.552   5.380 -0.5569  0.8658 -0.6581
  805MOL0     C10994   2.062   2.505   5.334  0.7554 -0.0357 -0.7537
  805MOL0     C10995   2.065   2.351   5.297 -0.8438 -0.1544 -0.0839
  805MOL0     C10996   1.930   2.284   5.274 -0.0931  0.2083  0.2298
  805MOL0    Cl10997   1.837   2.372   5.124  0.4249  0.1120  0.0893
  805MOL0     C10998   2.609   3.164   5.544  0.0422 -0.6910  1.0110
  805MOL0     C10999   2.689   3.270   5.545  0.7129 -0.4983 -0.6366
  805MOL0     O11000   2.748   3.571   5.256 -0.0605  0.3933 -0.2868
  805MOL0     C11001   3.076   3.490   5.360  0.1638  0.3618  0.2876
  805MOL0     C11002   3.212   3.503   5.330  0.0383  1.2493  1.5037
  805MOL0     N11003   3.936   3.619   5.041  0.0437  0.8880  0.3678
  805MOL0     N11004   4.024   3.672   5.118 -0.7201  0.6341  0.0996
  805MOL0     C11005   3.458   3.642   5.958  0.4045 -0.5023 -0.5259
  805MOL0     C11006   3.327   3.599   5.961 -0.3176  0.2368 -0.3470
  805MOL0     C11007   2.938   3.387   5.955 -0.2715  0.2682 -0.6393
  805MOL0     C11008   2.928   3.280   6.045 -0.8306 -0.5030 -0.1919
  805MOL0     C11009   2.809   3.223   6.092 -0.3349  0.2018  0.5235
  805MOL0     C11010   2.686   3.278   6.042  0.0664 -0.1199  0.6428
  805MOL0     O11011   2.571   3.217   6.088  0.0018 -0.1704 -0.2319
  805MOL0     C11012   2.471   3.203   5.985 -1.1028 -0.1050 -0.2220
  805MOL0     C11013   2.405   3.069   6.008  0.2701 -0.3452 -0.3178
  805MOL0     C11014   2.509   2.967   5.955 -1.3770  0.2651 -0.4113
  805MOL0     C11015   2.446   2.830   5.976  0.0554  0.6566 -0.1357
  805MOL0     C11016   2.543   2.727   6.015  0.3959  0.3045  0.1679
  805MOL0     C11017   2.613   2.638   6.044  0.3217 -0.3617  0.7541
  805MOL0     C11018   2.688   3.387   5.955  0.1640  0.2176 -0.3733
  805MOL0     C11019   2.813   3.437   5.906 -0.1826  0.0153  0.4559
  805MOL0     C11020   2.815   3.545   5.802 -0.9495 -0.5158  0.7642
  805MOL0     H11021   3.357   3.300   6.115  2.2668 -0.7324 -2.1480
  805MOL0     H11022   3.598   3.364   6.065 -1.2488 -0.9564 -0.8558
  805MOL0     H11023   3.859   3.664   5.913 -0.3846 -3.3264  0.7935
  805MOL0     H11024   3.722   3.759   5.958  1.0025 -0.1004  1.9584
  805MOL0     H11025   3.749   3.566   5.724 -0.5815  1.0233 -0.6026
  805MOL0     H11026   3.601   3.679   5.761 -0.3471  1.0889 -0.1020
  805MOL0     H11027   3.735   3.868   5.690  1.9954  0.2728 -0.0024
  805MOL0     H11028   3.883   3.778   5.683  0.0986 -0.8619 -2.8845
  805MOL0     H11029   3.848   3.648   5.493 -0.0549 -0.8351 -0.8419
  805MOL0     H11030   3.676   3.688   5.508 -1.0265  1.1661  1.3346
  805MOL0     H11031   3.733   3.930   5.450 -1.7441 -1.4631  3.3272
  805MOL0     H11032   3.779   3.808   5.329 -0.4949 -0.6887  0.8561
  805MOL0     H11033   3.966   3.938   5.539  1.9261  2.4759 -1.8724
  805MOL0     H11034   4.006   3.796   5.444 -0.9480 -1.1954  2.5600
  805MOL0     H11035   4.096   4.038   5.368 -1.0545 -0.5650  1.0206
  805MOL0     H11036   3.930   4.039   5.295  1.3191  2.1517 -0.4257
  805MOL0     H11037   4.116   3.954   5.122  0.8043 -1.9983 -1.1252
  805MOL0     H11038   4.174   3.853   5.245 -1.0390  0.6952  3.0506
  805MOL0     H11039   3.805   3.906   5.075 -2.6584 -3.4329  0.1064
  805MOL0     H11040   3.734   3.622   4.840  1.1206  0.4765 -1.6793
  805MOL0     H11041   3.687   3.784   4.879  3.8018  0.0796 -2.8500
  805MOL0     H11042   3.531   3.593   4.956  2.5980 -4.6595 -0.8531
  805MOL0     H11043   3.647   3.548   5.064 -4.3034 -1.8918  0.2780
  805MOL0     H11044   3.627   3.804   5.167  0.6798  0.4420  1.4260
  805MOL0     H11045   3.489   3.808   5.062  3.0202  0.9840 -0.6585
  805MOL0     H11046   3.532   3.637   5.324 -0.8205  4.1810  1.9500
  805MOL0     H11047   3.427   3.758   5.289 -2.1245  1.1158 -0.6305
  805MOL0     H11048   3.197   3.711   5.063  2.4584 -0.9338 -0.0357
  805MOL0     H11049   2.831   3.633   5.036  1.1325 -2.5410  2.2984
  805MOL0     H11050   2.965   3.743   4.980  2.3424  0.2537  0.4442
  805MOL0     H11051   2.872   3.792   5.111 -0.3167 -0.5204 -1.8789
  805MOL0     H11052   2.725   3.314   5.207 -0.5019  2.0642  0.3479
  805MOL0     H11053   2.586   3.101   5.223 -2.2293 -1.1147  0.6598
  805MOL0     H11054   2.397   3.045   5.596  4.0169 -1.7339  1.8433
  805MOL0     H11055   2.307   2.987   5.457  1.6145  0.7159 -3.1431
  805MOL0     H11056   2.526   2.821   5.594  1.4493 -0.5163 -1.1447
  805MOL0     H11057   2.358   2.833   5.663 -0.9418 -0.1714 -0.4538
  805MOL0     H11058   2.402   2.621   5.535  1.5939 -0.1279 -1.4011
  805MOL0     H11059   2.431   2.716   5.395  0.0024  1.1472  0.2893
  805MOL0     H11060   2.181   2.753   5.374 -3.0893 -0.6600  0.4143
  805MOL0     H11061   2.147   2.673   5.530  0.3509 -0.1512 -0.0918
  805MOL0     H11062   2.262   2.544   5.289 -1.1815  2.1995 -1.2151
  805MOL0     H11063   2.222   2.476   5.456 -4.9760 -0.5695 -0.6719
  805MOL0     H11064   2.029   2.567   5.250  2.6357 -0.8046 -2.1391
  805MOL0     H11065   1.997   2.525   5.420  0.3543 -1.7295 -0.6375
  805MOL0     H11066   2.124   2.290   5.366  2.2724 -0.6819 -2.9283
  805MOL0     H11067   2.130   2.343   5.209 -0.5995 -2.2608  0.2318
  805MOL0     H11068   1.874   2.307   5.365  2.9405 -0.6674  2.4850
  805MOL0     H11069   1.935   2.177   5.253 -0.1544  0.4183 -0.9573
  805MOL0     H11070   2.589   3.118   5.640  1.8509  2.5613  3.0899
  805MOL0     H11071   2.720   3.322   5.635 -3.0959  0.6347  0.1967
  805MOL0     H11072   3.049   3.437   5.451 -0.3396  0.3644  0.1464
  805MOL0     H11073   3.291   3.451   5.382 -2.4288 -2.5360  1.8745
  805MOL0     H11074   3.490   3.739   5.923 -2.3736  0.6959  0.0307
  805MOL0     H11075   3.260   3.671   5.915  0.8238  0.7552 -1.2456
  805MOL0     H11076   3.018   3.227   6.076 -2.8676 -3.6670  0.7936
  805MOL0     H11077   2.813   3.128   6.144 -0.9740  1.2175  2.5205
  805MOL0     H11078   2.402   3.287   5.994 -0.0778  0.8736 -1.2210
  805MOL0     H11079   2.511   3.217   5.885 -1.2915  0.3931 -0.2332
  805MOL0     H11080   2.310   3.058   5.954  0.9674 -1.7472 -1.2995
  805MOL0     H11081   2.385   3.047   6.114 -0.0844 -0.3173 -0.3775
  805MOL0     H11082   2.515   2.988   5.848 -0.2635 -1.1628 -0.6574
  805MOL0     H11083   2.603   2.968   6.010 -1.3285  0.4229 -0.4978
  805MOL0     H11084   2.390   2.788   5.891  1.7014 -0.4443 -0.7456
  805MOL0     H11085   2.397   2.834   6.073 -1.9101 -1.0967 -0.9710
  805MOL0     H11086   2.681   2.560   6.071  0.0995 -1.3117 -1.2883
  805MOL0     H11087   2.600   3.430   5.909 -0.1448  2.1278  1.8711
  805MOL0     H11088   2.852   3.641   5.838 -0.1772 -0.2502 -0.6473
  805MOL0     H11089   2.852   3.504   5.707 -3.3064  1.4598 -1.1545
  805MOL0     H11090   2.713   3.573   5.773 -0.3081  0.9750 -0.2003
  806MOL0     O11091  10.453   4.454   9.413 -0.4151 -0.3733 -0.2598
  806MOL0     C11092  10.523   4.354   9.436 -0.3681 -0.1924  0.4439
  806MOL0     O11093  10.495   4.253   9.529 -0.8831  0.1821  0.2047
  806MOL0     C11094  10.376   4.255   9.593 -0.2747  1.2938  0.3512
  806MOL0     C11095  10.347   4.352   9.692  0.1319 -0.2787  1.3046
  806MOL0     C11096  10.232   4.338   9.777  0.5618  0.3237 -0.2992
  806MOL0     C11097  10.145   4.232   9.752  0.4087 -0.3724  0.7709
  806MOL0     O11098  10.025   4.242   9.812  0.5360 -0.0241  0.3470
  806MOL0     C11099   9.990   4.134   9.900 -1.1033 -0.7187 -0.4034
  806MOL0     C11100   9.839   4.128   9.906 -0.1640  0.5329 -0.3085
  806MOL0     C11101   9.763   4.086   9.767  0.1722 -0.1055  0.4731
  806MOL0     C11102   9.611   4.093   9.777 -0.3237 -0.8046  0.0139
  806MOL0     C11103   9.540   4.072   9.642 -0.0872  0.3199 -0.0449
  806MOL0     C11104   9.392   4.090   9.661 -0.5671  0.0015  0.4795
  806MOL0     C11105   9.321   4.096   9.526 -0.0425 -1.0929 -0.7427
  806MOL0     C11106   9.160   4.099   9.526 -0.7938 -0.5721  0.6278
  806MOL0     N11107   9.104   3.977   9.554 -0.1532 -0.3870 -0.6900
  806MOL0     C11108   9.016   3.908   9.477  0.0964 -0.5460 -0.4704
  806MOL0     C11109   8.984   3.800   9.551 -0.4877 -0.4160 -0.6298
  806MOL0     C11110   8.896   3.686   9.494 -0.1237 -0.0458 -1.0650
  806MOL0     C11111   8.865   3.582   9.596 -0.1468 -0.5395 -0.5650
  806MOL0     C11112   8.757   3.636   9.686  0.1255  0.5006 -0.1007
  806MOL0     C11113   8.705   3.537   9.792 -0.5379  0.9417  0.7530
  806MOL0     O11114   8.663   3.407   9.738  0.2478  0.0824 -0.2055
  806MOL0     C11115   8.743   3.289   9.750  0.3199 -0.4254 -0.0777
  806MOL0     C11116   8.723   3.201   9.646  0.4049  0.1013 -0.3886
  806MOL0     C11117   8.798   3.089   9.621  0.3958  0.7618 -1.0228
  806MOL0     C11118   8.751   2.991   9.515  0.2636 -0.1679 -0.4789
  806MOL0     C11119   8.897   3.055   9.720 -0.8847  0.3607 -0.4540
  806MOL0     C11120   8.982   2.930   9.708 -0.1230  0.2566  0.2959
  806MOL0     O11121   9.118   2.944   9.749 -0.1764  0.0251  0.2186
  806MOL0     C11122   9.202   2.838   9.761  0.5466  0.1520  0.0078
  806MOL0     C11123   9.334   2.866   9.741  0.3793 -0.8199 -0.2639
  806MOL0     C11124   9.440   2.777   9.745 -0.2105 -1.1676 -0.6091
  806MOL0     C11125   9.418   2.645   9.783  0.3330 -0.3736  0.3996
  806MOL0     O11126   9.516   2.556   9.779  0.9604  0.3573 -0.6636
  806MOL0     C11127   9.506   2.442   9.698  0.1748  0.7835  0.7668
  806MOL0     C11128   9.628   2.357   9.710 -1.1118  0.1482  0.5096
  806MOL0     C11129   9.623   2.217   9.637  1.3049 -0.1956  0.7534
  806MOL0     C11130   9.693   2.099   9.700  0.8585 -0.0677 -0.4195
  806MOL0     C11131   9.684   1.972   9.617 -0.3435 -0.4724 -0.2260
  806MOL0     C11132   9.766   1.860   9.689  0.1158  0.9471  0.2072
  806MOL0     C11133   9.721   1.718   9.650 -0.1675 -0.2505  0.5015
  806MOL0     C11134   9.810   1.606   9.712 -0.5833 -0.6070  0.0940
  806MOL0    Cl11135   9.821   1.620   9.886  0.2317  0.1231 -0.0841
  806MOL0     C11136   9.279   2.616   9.804  0.2950 -0.0780 -0.2261
  806MOL0     C11137   9.171   2.700   9.783 -0.2457  0.3654  0.0469
  806MOL0     O11138   8.931   2.823   9.681 -0.8974 -0.8841  0.0819
  806MOL0     C11139   8.917   3.139   9.832 -1.0736  0.3161  0.3194
  806MOL0     C11140   8.853   3.262   9.836  0.5900 -0.4213 -0.1431
  806MOL0     N11141   9.046   3.818   9.677 -0.3638  0.3537  0.5341
  806MOL0     N11142   9.116   3.922   9.676  0.3904  0.2742  0.2532
  806MOL0     C11143  10.163   4.142   9.641 -0.6517 -0.1256 -0.0584
  806MOL0     C11144  10.284   4.156   9.570 -1.0323  0.2898 -0.5989
  806MOL0     C11145  10.648   4.344   9.354  0.4559 -0.8465 -0.0064
  806MOL0     C11146  10.756   4.258   9.383 -0.9769  0.2129 -1.3009
  806MOL0     C11147  10.869   4.248   9.314  0.3972  0.6686  1.1498
  806MOL0     C11148  10.901   4.320   9.198 -0.3071 -0.5036 -0.0788
  806MOL0     O11149  11.010   4.314   9.111  0.5377  0.4953 -0.1231
  806MOL0     C11150  11.114   4.222   9.145  0.3012 -0.1856  1.0057
  806MOL0     C11151  11.216   4.256   9.255  1.1168  0.4796 -0.6322
  806MOL0     C11152  11.336   4.170   9.272 -0.2711  0.0204  0.0181
  806MOL0     C11153  11.307   4.025   9.280 -0.4754  0.5644 -0.8000
  806MOL0     C11154  11.222   3.994   9.393  1.2392  0.3131  0.2769
  806MOL0     C11155  11.134   3.974   9.473  0.0427  0.3626  0.4733
  806MOL0     C11156  10.801   4.407   9.160  0.1541  0.8988 -0.2235
  806MOL0     C11157  10.673   4.419   9.231 -0.5054  0.3475  1.6209
  806MOL0     C11158  10.595   4.525   9.167  0.0552 -1.0555  0.3346
  806MOL0     H11159  10.417   4.431   9.719  1.7880 -2.2348  3.0700
  806MOL0     H11160  10.224   4.411   9.857  0.9173 -1.6149  1.6222
  806MOL0     H11161  10.030   4.150  10.000  0.4626 -1.4269 -0.8861
  806MOL0     H11162  10.044   4.043   9.874  3.6542  1.9621 -0.9913
  806MOL0     H11163   9.818   4.057   9.987  2.0153  0.5027  0.3107
  806MOL0     H11164   9.812   4.226   9.947  1.4122 -1.0687  5.6659
  806MOL0     H11165   9.800   4.150   9.686  1.0781  1.3488  1.9678
  806MOL0     H11166   9.783   3.979   9.752 -4.1744 -0.8243 -1.6917
  806MOL0     H11167   9.580   4.014   9.846 -0.1462  1.1824  2.5020
  806MOL0     H11168   9.582   4.193   9.812 -0.7474 -0.4710 -1.2234
  806MOL0     H11169   9.567   3.971   9.610  0.6589  0.3777  0.3584
  806MOL0     H11170   9.583   4.147   9.575  0.5806  0.8907  0.9848
  806MOL0     H11171   9.357   4.007   9.722 -0.1304 -1.0442 -0.6664
  806MOL0     H11172   9.380   4.185   9.714 -2.8574 -0.4559  0.8872
  806MOL0     H11173   9.357   4.012   9.465  0.9493 -1.1346 -0.1316
  806MOL0     H11174   9.366   4.186   9.481  2.7456 -2.2993 -0.6221
  806MOL0     H11175   9.115   4.176   9.588  0.0258 -1.0583  1.8536
  806MOL0     H11176   9.115   4.132   9.431  0.6101 -0.3834  0.0050
  806MOL0     H11177   8.989   3.931   9.374  0.6377 -2.2976 -1.0338
  806MOL0     H11178   8.945   3.635   9.411 -0.4920 -3.2113  0.4992
  806MOL0     H11179   8.796   3.722   9.466 -2.0848 -3.6575  0.5773
  806MOL0     H11180   8.825   3.491   9.551 -0.7236 -1.0244  0.8592
  806MOL0     H11181   8.960   3.566   9.648 -0.1772  2.0533  0.4454
  806MOL0     H11182   8.788   3.726   9.740  1.2151 -0.0690  0.2495
  806MOL0     H11183   8.666   3.659   9.630 -0.9268 -1.8137  0.5534
  806MOL0     H11184   8.785   3.525   9.865  0.4894  2.7595  0.0010
  806MOL0     H11185   8.624   3.587   9.848 -1.0681  0.7208  0.1946
  806MOL0     H11186   8.643   3.207   9.573  0.0654 -0.0985 -0.0387
  806MOL0     H11187   8.732   2.892   9.559  1.9422 -0.0389  0.6156
  806MOL0     H11188   8.823   2.979   9.433  0.4365 -0.2986 -0.3082
  806MOL0     H11189   8.665   3.027   9.458  0.7234  0.8716 -0.5289
  806MOL0     H11190   9.356   2.972   9.729 -2.6667 -0.2381 -1.8125
  806MOL0     H11191   9.531   2.824   9.709 -1.8749  2.4102 -0.5375
  806MOL0     H11192   9.420   2.382   9.731 -0.3946  1.3059  0.2658
  806MOL0     H11193   9.491   2.470   9.593 -1.8825  1.8281  1.2821
  806MOL0     H11194   9.719   2.411   9.684 -0.6220 -0.5185  0.8375
  806MOL0     H11195   9.639   2.331   9.815  0.4970  1.0467  0.5851
  806MOL0     H11196   9.650   2.224   9.532  1.0964 -0.0876  0.7060
  806MOL0     H11197   9.519   2.182   9.635  2.0499 -2.5717 -0.5789
  806MOL0     H11198   9.653   2.080   9.800 -2.3741  1.7514 -1.2396
  806MOL0     H11199   9.797   2.124   9.723  0.1268  1.8008  1.1107
  806MOL0     H11200   9.578   1.945   9.617  0.2077 -2.8452  0.2009
  806MOL0     H11201   9.710   1.977   9.511  1.4029 -0.4816  0.1637
  806MOL0     H11202   9.734   1.864   9.794 -1.1431  2.4320 -0.1950
  806MOL0     H11203   9.874   1.875   9.680  0.2417  0.2339  0.4314
  806MOL0     H11204   9.731   1.703   9.543  1.6015  0.3584  0.5457
  806MOL0     H11205   9.617   1.701   9.679  0.1038 -1.5320  0.8105
  806MOL0     H11206   9.915   1.607   9.680  0.2039 -1.2986  2.4517
  806MOL0     H11207   9.756   1.513   9.697  0.2241 -1.4785  2.2094
  806MOL0     H11208   9.263   2.510   9.822  0.5336 -0.8362 -3.7146
  806MOL0     H11209   9.066   2.674   9.797  0.7087 -4.3527  0.0454
  806MOL0     H11210   9.001   3.123   9.899 -1.0533 -1.4650 -0.0611
  806MOL0     H11211   8.879   3.333   9.914  0.8244  1.8066 -2.1303
  806MOL0     H11212  10.086   4.074   9.604 -0.1972  0.1935 -1.6767
  806MOL0     H11213  10.301   4.085   9.489 -2.0766 -0.6914  0.0195
  806MOL0     H11214  10.754   4.186   9.464  0.7270  0.3339 -1.1355
  806MOL0     H11215  10.940   4.180   9.361  0.5404  0.7165  1.0019
  806MOL0     H11216  11.075   4.122   9.167 -5.2334  1.9095  2.3787
  806MOL0     H11217  11.178   4.205   9.058  0.6837  0.0753  1.2332
  806MOL0     H11218  11.160   4.270   9.348  0.6221 -1.8741 -0.4918
  806MOL0     H11219  11.261   4.352   9.230  0.4502  0.4474 -2.0439
  806MOL0     H11220  11.410   4.189   9.193  0.3317 -1.4539  0.1890
  806MOL0     H11221  11.384   4.200   9.366 -0.9380 -0.0537  0.3826
  806MOL0     H11222  11.400   3.969   9.287 -1.9441 -1.8418  3.9698
  806MOL0     H11223  11.248   4.003   9.190 -2.8107  2.1685  0.2100
  806MOL0     H11224  11.068   3.941   9.550  0.3572  1.1425  1.0910
  806MOL0     H11225  10.810   4.477   9.078 -0.8167  2.5592  1.0421
  806MOL0     H11226  10.625   4.553   9.065  1.7558 -1.4651  0.6875
  806MOL0     H11227  10.488   4.506   9.157  0.3155 -1.3721 -4.9599
  806MOL0     H11228  10.615   4.611   9.231  2.2201  1.0417 -2.8497
  807MOL0     O11229   4.026   2.612   3.753 -0.0260 -0.4360  0.4052
  807MOL0     C11230   4.094   2.558   3.670  0.7375 -0.2741  0.5574
  807MOL0     O11231   4.084   2.586   3.532 -0.0857  0.2016  0.6355
  807MOL0     C11232   4.028   2.702   3.489 -0.0712 -0.0015 -0.4554
  807MOL0     C11233   3.977   2.698   3.358 -0.3364 -0.7406  0.2439
  807MOL0     C11234   3.917   2.810   3.300 -0.0233  1.3723  0.7821
  807MOL0     C11235   3.908   2.929   3.370  0.5232 -0.6642  0.9386
  807MOL0     O11236   3.824   3.038   3.323  0.5210  0.5334 -0.2718
  807MOL0     C11237   3.679   3.016   3.343  0.3297  0.1085  0.6129
  807MOL0     C11238   3.614   3.136   3.415 -0.3217 -0.5324  0.3962
  807MOL0     C11239   3.467   3.104   3.433  0.7607  0.4745  1.6809
  807MOL0     C11240   3.403   3.232   3.491  0.8103 -0.7735  0.7248
  807MOL0     C11241   3.259   3.205   3.531 -0.9780  0.4733 -0.5117
  807MOL0     C11242   3.173   3.332   3.565  0.1985  0.4394 -0.3252
  807MOL0     C11243   3.210   3.421   3.684 -0.9560  0.6702 -0.1704
  807MOL0     C11244   3.094   3.501   3.731 -0.1308  1.3746 -0.0683
  807MOL0     N11245   3.121   3.577   3.855 -0.7716 -0.1472  0.4684
  807MOL0     C11246   3.109   3.529   3.982 -0.4676  0.1825  0.1649
  807MOL0     C11247   3.162   3.627   4.057 -0.1463 -0.7919 -0.8752
  807MOL0     C11248   3.178   3.621   4.212 -0.6094 -0.0761 -0.3953
  807MOL0     C11249   3.073   3.717   4.285 -0.8627  0.2479 -0.2222
  807MOL0     C11250   3.106   3.870   4.259  0.0593 -0.4435  0.7664
  807MOL0     C11251   3.020   3.944   4.362  0.9977 -0.3450 -0.3125
  807MOL0     O11252   3.091   4.018   4.465 -0.0617  0.0972  0.1334
  807MOL0     C11253   3.015   4.044   4.577  0.3440 -0.4312  0.6648
  807MOL0     C11254   2.907   4.127   4.574  0.1471 -0.9352  0.0427
  807MOL0     C11255   2.840   4.158   4.702  0.1575  0.1442  0.9244
  807MOL0     C11256   2.748   4.277   4.690  0.3338  0.7864 -0.2359
  807MOL0     C11257   2.874   4.090   4.822 -0.0663  0.2121 -0.2002
  807MOL0     C11258   2.790   4.100   4.949  0.0794 -0.3980  0.6565
  807MOL0     O11259   2.843   4.072   5.075  0.8100 -0.7970 -0.4637
  807MOL0     C11260   2.964   4.136   5.102  0.5437 -0.4447  0.4842
  807MOL0     C11261   2.994   4.271   5.072 -0.5223 -0.0893 -1.1235
  807MOL0     C11262   3.125   4.323   5.107  0.1807  0.0982 -0.5730
  807MOL0     C11263   3.218   4.248   5.170 -0.3132  0.3406 -1.1632
  807MOL0     O11264   3.353   4.277   5.178  0.7032  1.0438  0.4064
  807MOL0     C11265   3.403   4.384   5.093  0.2902  0.6012  0.7283
  807MOL0     C11266   3.444   4.334   4.951  0.4807 -0.8370  0.0164
  807MOL0     C11267   3.446   4.178   4.940 -0.9036 -0.1086 -0.4526
  807MOL0     C11268   3.502   4.144   4.795 -0.7886 -0.6553 -0.4615
  807MOL0     C11269   3.521   3.994   4.771 -0.3352 -0.2251  0.4091
  807MOL0     C11270   3.570   3.954   4.632 -0.5883  0.8243 -0.6855
  807MOL0     C11271   3.468   3.948   4.513  0.8114 -0.0451 -1.1810
  807MOL0     C11272   3.404   3.815   4.498 -0.5338  0.1069 -0.3209
  807MOL0    Cl11273   3.326   3.747   4.648  0.0372  0.1533  0.5007
  807MOL0     C11274   3.187   4.113   5.221 -0.9060 -0.4477  0.1664
  807MOL0     C11275   3.058   4.066   5.187  0.0746  0.0110 -0.5067
  807MOL0     O11276   2.668   4.103   4.921 -0.5736  0.6241  0.4083
  807MOL0     C11277   2.975   3.989   4.806 -0.3959 -1.0386 -0.6468
  807MOL0     C11278   3.043   3.973   4.689  1.5073 -0.7241 -0.1782
  807MOL0     N11279   3.204   3.732   3.979 -0.3841 -0.0986  1.1456
  807MOL0     N11280   3.189   3.697   3.856 -0.6884  0.0645 -0.8781
  807MOL0     C11281   3.964   2.942   3.493 -0.0573  0.7282  0.3532
  807MOL0     C11282   4.030   2.827   3.559 -0.3673 -0.6893  0.3651
  807MOL0     C11283   4.170   2.450   3.724 -0.3585  0.8497 -0.0264
  807MOL0     C11284   4.114   2.321   3.757 -0.4162  0.0310  0.2199
  807MOL0     C11285   4.200   2.209   3.790  0.4726  0.9171 -0.3844
  807MOL0     C11286   4.341   2.223   3.797 -0.3588 -0.5705  0.0520
  807MOL0     O11287   4.407   2.106   3.828  0.0369  0.2616 -0.4190
  807MOL0     C11288   4.551   2.110   3.836 -0.3560 -0.1939 -0.8085
  807MOL0     C11289   4.596   2.089   3.989 -0.0538  0.0552 -1.0496
  807MOL0     C11290   4.747   2.059   3.992 -0.6191  0.8460 -0.1343
  807MOL0     C11291   4.796   2.006   4.130 -0.3147  0.2766  0.1079
  807MOL0     C11292   4.933   1.994   4.122  0.4073  0.2375 -0.3134
  807MOL0     C11293   5.048   1.980   4.127  0.1206 -0.1503  0.6616
  807MOL0     C11294   4.394   2.350   3.769 -0.3478 -0.4116 -0.1195
  807MOL0     C11295   4.314   2.464   3.736  0.3288 -0.0771  0.1722
  807MOL0     C11296   4.385   2.593   3.696 -0.8172  0.5912  0.6339
  807MOL0     H11297   3.984   2.612   3.291 -2.5243 -1.6428  1.0701
  807MOL0     H11298   3.867   2.786   3.207  0.1853 -0.9189  1.2168
  807MOL0     H11299   3.650   2.929   3.403 -3.8469  1.2748  0.5785
  807MOL0     H11300   3.639   3.001   3.242  1.9542 -0.5888  0.0398
  807MOL0     H11301   3.665   3.149   3.511  0.7361 -1.8273  0.0441
  807MOL0     H11302   3.622   3.227   3.355 -4.2969  0.1073  0.5647
  807MOL0     H11303   3.428   3.071   3.336  2.7439  1.8095  0.3470
  807MOL0     H11304   3.445   3.017   3.496  0.8690  1.1993  2.7497
  807MOL0     H11305   3.460   3.268   3.577  1.6299 -1.4395  0.4760
  807MOL0     H11306   3.404   3.311   3.415 -0.0935 -2.5719 -1.2580
  807MOL0     H11307   3.246   3.134   3.613  2.8133 -0.6763 -0.7318
  807MOL0     H11308   3.211   3.161   3.443 -1.3137  1.7373 -0.9929
  807MOL0     H11309   3.170   3.402   3.481 -0.4915 -1.1188 -1.6587
  807MOL0     H11310   3.070   3.297   3.577 -0.0725  1.6957  1.5686
  807MOL0     H11311   3.296   3.487   3.670 -1.8459  1.5882 -1.5617
  807MOL0     H11312   3.249   3.359   3.766  2.9178  1.4442 -1.2143
  807MOL0     H11313   3.070   3.573   3.653  0.8340 -0.5879 -2.2927
  807MOL0     H11314   3.011   3.434   3.756 -0.9117  2.0255 -0.8787
  807MOL0     H11315   3.081   3.429   4.013 -2.3464  1.0201  1.3346
  807MOL0     H11316   3.277   3.653   4.248 -1.0564 -1.3674  2.1922
  807MOL0     H11317   3.156   3.518   4.240 -1.5530 -1.0463 -4.1180
  807MOL0     H11318   2.975   3.687   4.246  0.9914 -1.3823 -4.2081
  807MOL0     H11319   3.086   3.698   4.392 -1.5357  1.7886  0.1676
  807MOL0     H11320   3.211   3.898   4.271 -0.3994  1.6868  0.2852
  807MOL0     H11321   3.068   3.893   4.159 -3.3730 -2.0622  1.5566
  807MOL0     H11322   2.953   4.012   4.308  0.0540  0.1284  1.3803
  807MOL0     H11323   2.964   3.868   4.417  0.6258 -1.4774 -2.1729
  807MOL0     H11324   2.885   4.185   4.485  2.6952 -0.6297 -0.4675
  807MOL0     H11325   2.784   4.335   4.605  2.6455  0.8995  0.7163
  807MOL0     H11326   2.753   4.329   4.787 -1.3015  0.9672 -0.2243
  807MOL0     H11327   2.646   4.242   4.675 -1.0216  2.5674  3.5733
  807MOL0     H11328   2.923   4.338   5.024  0.4164 -0.0757 -2.5793
  807MOL0     H11329   3.137   4.426   5.078  2.2790  0.0477 -0.0697
  807MOL0     H11330   3.338   4.471   5.080 -1.2376 -0.4979  0.6162
  807MOL0     H11331   3.492   4.425   5.140  2.7217 -1.1408 -2.0135
  807MOL0     H11332   3.366   4.385   4.893 -0.5184 -2.3590 -0.0462
  807MOL0     H11333   3.539   4.380   4.922 -1.0678  1.2774 -2.0961
  807MOL0     H11334   3.347   4.138   4.962 -1.1654  0.1684 -1.1016
  807MOL0     H11335   3.514   4.131   5.012 -1.2475  0.1303  0.0272
  807MOL0     H11336   3.596   4.199   4.785 -0.2361 -0.7627  2.9393
  807MOL0     H11337   3.432   4.187   4.722 -0.8804 -0.3887 -0.2196
  807MOL0     H11338   3.593   3.960   4.846 -0.2554  3.4937  2.2923
  807MOL0     H11339   3.434   3.934   4.796  0.5978 -1.7867  0.0094
  807MOL0     H11340   3.610   3.855   4.654  1.3761  2.2319  3.1196
  807MOL0     H11341   3.661   4.011   4.609  1.0808 -1.3875  0.0551
  807MOL0     H11342   3.528   3.953   4.422  0.2216 -0.5817 -1.5981
  807MOL0     H11343   3.385   4.018   4.515  1.0466  0.2366 -1.1334
  807MOL0     H11344   3.481   3.742   4.475  0.9896 -0.2098  4.6663
  807MOL0     H11345   3.331   3.819   4.416 -0.1853  2.0249 -0.5992
  807MOL0     H11346   3.244   4.030   5.262 -0.0139 -0.4850 -1.1045
  807MOL0     H11347   3.022   3.967   5.214 -3.2217  1.0515 -0.7015
  807MOL0     H11348   2.987   3.918   4.888  0.6930 -0.2551 -0.1063
  807MOL0     H11349   3.124   3.901   4.681  0.3462 -1.9661 -1.5105
  807MOL0     H11350   3.946   3.038   3.541  0.5657  0.8703  0.3121
  807MOL0     H11351   4.053   2.838   3.665  1.9892  3.5084 -0.3757
  807MOL0     H11352   4.005   2.319   3.763 -0.5371  1.2724 -0.8942
  807MOL0     H11353   4.152   2.118   3.823  0.3240  1.0375 -0.2701
  807MOL0     H11354   4.591   2.036   3.766 -0.3224 -3.0556  1.9875
  807MOL0     H11355   4.607   2.202   3.817  0.2018 -0.3216  0.1302
  807MOL0     H11356   4.531   2.010   4.029 -1.9173  1.7122 -0.6580
  807MOL0     H11357   4.574   2.173   4.056 -0.5909 -1.5271  0.8395
  807MOL0     H11358   4.748   1.984   3.912 -1.1372  0.4838  0.1920
  807MOL0     H11359   4.806   2.143   3.955  0.6382 -0.1473 -0.4588
  807MOL0     H11360   4.751   1.907   4.144  0.0962 -0.0719 -0.9245
  807MOL0     H11361   4.767   2.065   4.218 -0.8697 -1.4707  1.1710
  807MOL0     H11362   5.154   1.981   4.137  0.2044  0.8072 -0.1302
  807MOL0     H11363   4.498   2.380   3.774 -0.9563  1.6428  2.1577
  807MOL0     H11364   4.403   2.585   3.588 -1.4932 -0.4631  0.5836
  807MOL0     H11365   4.329   2.684   3.717  0.2537  1.6034 -0.7014
  807MOL0     H11366   4.486   2.601   3.738 -0.6602  0.7186  0.2368
  808MOL0     O11367   5.761   9.139   3.147 -0.1287  0.1361 -0.2818
  808MOL0     C11368   5.759   9.065   3.046  0.8822 -0.7404  0.3279
  808MOL0     O11369   5.776   8.930   3.051  0.4811  0.5184  0.3066
  808MOL0     C11370   5.797   8.873   3.173 -0.1429 -0.3747  0.5216
  808MOL0     C11371   5.914   8.871   3.250  0.6533 -0.1099  0.9338
  808MOL0     C11372   5.921   8.802   3.369 -0.3155 -0.6549  0.4791
  808MOL0     C11373   5.811   8.724   3.414 -0.8075 -1.4413 -0.3732
  808MOL0     O11374   5.810   8.637   3.513  0.1151 -0.6017 -0.7561
  808MOL0     C11375   5.850   8.675   3.644 -0.2681  1.0741 -0.4330
  808MOL0     C11376   5.842   8.558   3.731 -0.0168  0.7623 -0.2314
  808MOL0     C11377   5.845   8.589   3.878 -0.1528  0.3998  0.7105
  808MOL0     C11378   5.821   8.472   3.971 -0.3282 -0.0116  0.0667
  808MOL0     C11379   5.920   8.360   3.957 -0.9489  0.6014 -1.2510
  808MOL0     C11380   5.879   8.250   4.058 -0.4569 -0.0774 -0.4672
  808MOL0     C11381   5.935   8.113   4.023  0.3079  0.1808  0.4770
  808MOL0     C11382   5.878   8.002   4.116  0.0320 -0.3446  1.7877
  808MOL0     N11383   5.975   7.894   4.126 -0.5425 -0.2828  0.0292
  808MOL0     C11384   6.103   7.912   4.153  0.2874 -1.1097  0.0880
  808MOL0     C11385   6.149   7.779   4.155 -0.5434  0.2940  0.1517
  808MOL0     C11386   6.291   7.724   4.184 -0.4820 -0.9563  0.1636
  808MOL0     C11387   6.397   7.830   4.233  0.4878 -0.3096 -0.6043
  808MOL0     C11388   6.459   7.898   4.109 -0.1420  0.1013  0.5660
  808MOL0     C11389   6.523   8.037   4.120  1.0646 -0.7487 -0.1886
  808MOL0     O11390   6.605   8.049   4.000  0.6353 -0.0826 -0.4766
  808MOL0     C11391   6.717   8.136   3.998  0.5913  0.4540 -0.5246
  808MOL0     C11392   6.823   8.114   3.901  0.2032  0.1190  0.2150
  808MOL0     C11393   6.939   8.185   3.910  0.6447 -0.2397 -0.0081
  808MOL0     C11394   7.053   8.147   3.830 -0.6575  1.0709  0.2481
  808MOL0     C11395   6.955   8.277   4.020 -0.0482  0.3950  0.5914
  808MOL0     C11396   7.085   8.342   4.054 -0.7546 -0.1104 -0.7583
  808MOL0     O11397   7.186   8.254   4.085  0.4558 -0.0876 -0.9170
  808MOL0     C11398   7.297   8.312   4.143 -0.0633 -0.4553  0.8780
  808MOL0     C11399   7.426   8.300   4.075  0.2120 -0.1001  0.4483
  808MOL0     C11400   7.541   8.348   4.148  0.0441 -0.6852 -0.7230
  808MOL0     C11401   7.537   8.436   4.258 -0.9162 -0.3041 -0.0327
  808MOL0     O11402   7.651   8.474   4.330 -0.3058  0.4441  0.5972
  808MOL0     C11403   7.683   8.604   4.314 -0.3545 -0.7573  0.4782
  808MOL0     C11404   7.831   8.612   4.359 -0.1760 -0.4110 -0.0283
  808MOL0     C11405   7.885   8.746   4.298  0.4833  0.0175  0.1897
  808MOL0     C11406   7.963   8.827   4.407  0.0719 -0.7328  0.5481
  808MOL0     C11407   8.090   8.768   4.457 -0.9084  1.3760 -0.6861
  808MOL0     C11408   8.169   8.876   4.537 -0.6911 -0.0977 -0.6309
  808MOL0     C11409   8.276   8.798   4.617  0.4877 -0.1783  0.2694
  808MOL0     C11410   8.379   8.893   4.671  0.0492 -0.3490 -0.1713
  808MOL0    Cl11411   8.307   9.033   4.755 -0.3476  0.3999  0.3383
  808MOL0     C11412   7.413   8.452   4.309  0.1538  0.3953  0.1077
  808MOL0     C11413   7.298   8.383   4.268 -0.8278 -1.5928  0.9588
  808MOL0     O11414   7.087   8.465   4.045 -0.2091  0.4160 -0.1286
  808MOL0     C11415   6.840   8.321   4.090  0.4510  0.8267 -0.2702
  808MOL0     C11416   6.724   8.244   4.076  0.3665 -0.0684  0.0172
  808MOL0     N11417   6.048   7.695   4.105  0.0119  0.2422  0.0266
  808MOL0     N11418   5.946   7.769   4.108 -0.2116 -0.3171 -0.1729
  808MOL0     C11419   5.697   8.728   3.336  0.6347 -1.1382 -0.2018
  808MOL0     C11420   5.692   8.806   3.217 -1.0200  0.7323 -0.8899
  808MOL0     C11421   5.734   9.123   2.907 -0.3326  1.1094  0.0268
  808MOL0     C11422   5.708   9.023   2.802  0.7737 -1.2916  0.6369
  808MOL0     C11423   5.692   9.062   2.669 -0.1833 -0.4315  0.5969
  808MOL0     C11424   5.696   9.198   2.629  0.9834  0.4388  0.3235
  808MOL0     O11425   5.686   9.230   2.494 -0.2349  0.1258  0.7363
  808MOL0     C11426   5.816   9.240   2.426 -0.0455 -1.0836 -0.1390
  808MOL0     C11427   5.894   9.363   2.450 -1.1988  0.2847 -0.5115
  808MOL0     C11428   5.816   9.481   2.379 -0.2060 -0.2791 -0.4386
  808MOL0     C11429   5.889   9.615   2.387  0.3270  0.5141 -0.0443
  808MOL0     C11430   5.869   9.697   2.508 -0.5180  0.3868 -0.3153
  808MOL0     C11431   5.831   9.764   2.598  0.4852 -0.1534 -0.5619
  808MOL0     C11432   5.713   9.292   2.731  0.6197 -0.6327  0.4629
  808MOL0     C11433   5.744   9.259   2.867 -0.4547 -0.5778  0.6300
  808MOL0     C11434   5.778   9.382   2.959 -0.9810 -0.7664  0.6423
  808MOL0     H11435   6.003   8.922   3.213 -0.4284 -0.9232 -3.4004
  808MOL0     H11436   6.013   8.812   3.426  0.7783  1.6232 -1.5291
  808MOL0     H11437   5.789   8.756   3.686  1.3427  2.3793 -0.4823
  808MOL0     H11438   5.954   8.710   3.653  0.3406 -0.9623  1.1196
  808MOL0     H11439   5.743   8.514   3.712  0.4504 -2.4891  3.5899
  808MOL0     H11440   5.917   8.486   3.697 -0.6107 -0.6145  1.2229
  808MOL0     H11441   5.940   8.635   3.906  1.1041 -1.2452 -0.6898
  808MOL0     H11442   5.755   8.649   3.894 -0.6160 -0.5071  1.6044
  808MOL0     H11443   5.827   8.504   4.075 -1.4032  0.6307 -0.0574
  808MOL0     H11444   5.723   8.428   3.952  0.5804 -0.8249 -3.6046
  808MOL0     H11445   6.021   8.392   3.985 -0.7528 -0.4321 -0.7493
  808MOL0     H11446   5.917   8.315   3.857  0.9152 -0.4273 -0.8973
  808MOL0     H11447   5.922   8.282   4.154 -0.2664 -0.5096 -0.4070
  808MOL0     H11448   5.770   8.251   4.064 -0.4992 -2.3708 -0.0606
  808MOL0     H11449   6.044   8.122   4.016  0.4086 -0.4992  1.0460
  808MOL0     H11450   5.902   8.088   3.922  1.3593  1.1023 -0.1199
  808MOL0     H11451   5.838   8.037   4.212 -1.2833 -0.5075  1.3192
  808MOL0     H11452   5.797   7.954   4.060 -0.9301  0.5388  2.3971
  808MOL0     H11453   6.154   8.006   4.172  0.0330 -1.1623  1.0702
  808MOL0     H11454   6.334   7.677   4.095  1.3990  0.7944  0.0805
  808MOL0     H11455   6.281   7.656   4.269  0.8079 -0.9764  0.3163
  808MOL0     H11456   6.350   7.898   4.305  0.5141  0.5229 -1.3534
  808MOL0     H11457   6.475   7.772   4.284  2.1779  2.5900  0.3866
  808MOL0     H11458   6.531   7.831   4.062 -1.7076 -4.0927  3.4901
  808MOL0     H11459   6.378   7.919   4.039  2.2906  2.9617 -1.6548
  808MOL0     H11460   6.435   8.101   4.116 -0.2854 -2.6054 -2.0426
  808MOL0     H11461   6.578   8.038   4.215  1.6525 -0.2994 -0.5238
  808MOL0     H11462   6.803   8.037   3.826 -0.9503 -1.7560  2.3141
  808MOL0     H11463   7.117   8.072   3.878 -1.1845 -0.3213 -1.1370
  808MOL0     H11464   7.110   8.234   3.796 -2.8468  1.8657 -1.5773
  808MOL0     H11465   7.007   8.092   3.748 -2.0006 -1.3331  2.4336
  808MOL0     H11466   7.444   8.242   3.985  0.9390 -0.0607  0.5587
  808MOL0     H11467   7.646   8.345   4.121  1.0759  3.4111  1.8644
  808MOL0     H11468   7.669   8.638   4.211  1.2373  0.0099  0.4827
  808MOL0     H11469   7.614   8.669   4.368 -0.3195 -1.3588  1.2623
  808MOL0     H11470   7.828   8.612   4.468  2.5468  1.1924  0.1259
  808MOL0     H11471   7.877   8.525   4.311  0.0416  0.3396 -1.2238
  808MOL0     H11472   7.797   8.807   4.277 -0.5369 -0.6887  2.1256
  808MOL0     H11473   7.937   8.732   4.203  1.1945  2.9646  0.0557
  808MOL0     H11474   7.899   8.835   4.496  1.5053  3.1838  1.4196
  808MOL0     H11475   7.971   8.931   4.372 -1.5199 -1.4180 -2.1588
  808MOL0     H11476   8.067   8.688   4.528  2.5419 -1.1532 -2.1513
  808MOL0     H11477   8.147   8.720   4.377  0.8240  0.9391  0.7674
  808MOL0     H11478   8.103   8.929   4.606 -1.9723 -0.5066 -1.4926
  808MOL0     H11479   8.212   8.951   4.471 -3.0548 -0.3184 -2.5389
  808MOL0     H11480   8.335   8.737   4.548  2.9339  0.5644  1.5602
  808MOL0     H11481   8.227   8.744   4.699  3.4576 -2.4470  0.7231
  808MOL0     H11482   8.454   8.933   4.602  0.9372  1.1189  1.5460
  808MOL0     H11483   8.439   8.844   4.748  2.5592  5.9714  2.6541
  808MOL0     H11484   7.397   8.514   4.396  3.1954  1.1825  0.2450
  808MOL0     H11485   7.200   8.398   4.311 -0.9778 -2.9864  1.1365
  808MOL0     H11486   6.856   8.400   4.163  0.6066 -0.0374  0.6665
  808MOL0     H11487   6.644   8.274   4.143  0.1485  1.3245 -0.8299
  808MOL0     H11488   5.614   8.658   3.346  0.7251 -1.9915 -3.9518
  808MOL0     H11489   5.605   8.800   3.153 -1.6351  1.4211 -0.1415
  808MOL0     H11490   5.708   8.917   2.824 -4.1093 -1.5865  0.4127
  808MOL0     H11491   5.687   8.982   2.595  1.4087  0.4498 -0.5272
  808MOL0     H11492   5.881   9.160   2.462 -1.8176 -1.4141  2.5648
  808MOL0     H11493   5.796   9.227   2.319 -0.1995  1.4643 -0.4924
  808MOL0     H11494   5.998   9.356   2.418 -1.0284 -0.3116  0.1563
  808MOL0     H11495   5.886   9.385   2.557  2.6600  5.2150 -0.8471
  808MOL0     H11496   5.813   9.458   2.272  2.4533  1.7280 -1.0641
  808MOL0     H11497   5.716   9.491   2.422 -0.4074 -1.5315 -0.6051
  808MOL0     H11498   5.866   9.675   2.298 -0.8242 -0.3491 -0.3568
  808MOL0     H11499   5.994   9.592   2.369 -0.3477 -1.3264 -2.1281
  808MOL0     H11500   5.791   9.818   2.681 -4.1683  1.8147 -3.6511
  808MOL0     H11501   5.709   9.398   2.710  0.0599 -0.9617 -1.2131
  808MOL0     H11502   5.806   9.350   3.060  1.8696 -2.8953 -0.6712
  808MOL0     H11503   5.860   9.444   2.921  0.8327 -2.4651  1.5550
  808MOL0     H11504   5.686   9.439   2.970  1.9512  4.2669  2.5515
  809MOL0     O11505   0.615   5.965   0.784 -0.5523 -0.0745 -0.0325
  809MOL0     C11506   0.535   6.047   0.753 -0.0284 -0.1757 -0.2502
  809MOL0     O11507   0.558   6.162   0.693 -0.1684 -0.7916 -0.0660
  809MOL0     C11508   0.686   6.209   0.686  0.4869  0.3194  0.0177
  809MOL0     C11509   0.795   6.142   0.626 -0.4912 -0.2253  0.5845
  809MOL0     C11510   0.920   6.204   0.626 -0.2880  1.4202  0.7428
  809MOL0     C11511   0.940   6.334   0.678  0.1615  1.0857 -0.5103
  809MOL0     O11512   1.057   6.393   0.695 -0.1413  0.0534  0.0830
  809MOL0     C11513   1.139   6.403   0.576  0.2736 -0.0999 -0.4144
  809MOL0     C11514   1.269   6.477   0.590 -0.3784  0.0203 -0.2506
  809MOL0     C11515   1.373   6.421   0.690  0.1445  0.3221 -0.3401
  809MOL0     C11516   1.456   6.537   0.757 -0.4574 -0.1605 -0.2012
  809MOL0     C11517   1.539   6.464   0.871 -0.4062 -0.7611  0.4617
  809MOL0     C11518   1.646   6.566   0.936  0.2769 -0.4470 -0.4511
  809MOL0     C11519   1.585   6.650   1.046 -0.0836 -0.9278 -0.5126
  809MOL0     C11520   1.543   6.564   1.166  0.4210 -0.3679  0.3980
  809MOL0     N11521   1.518   6.660   1.284 -0.2920 -0.3570  0.4928
  809MOL0     C11522   1.600   6.708   1.377 -0.2300  0.7539 -0.1173
  809MOL0     C11523   1.532   6.802   1.449  0.6385  0.5951 -0.6164
  809MOL0     C11524   1.580   6.863   1.578  0.3485 -0.9874 -0.1870
  809MOL0     C11525   1.682   6.970   1.547  0.3683  0.6240 -0.1305
  809MOL0     C11526   1.747   7.026   1.679  0.4904 -1.2978 -0.5499
  809MOL0     C11527   1.802   7.178   1.652 -1.7376  0.5993 -0.1372
  809MOL0     O11528   1.922   7.152   1.581  0.0316  0.4165 -0.2171
  809MOL0     C11529   1.956   7.219   1.473 -0.4820  0.9164  1.0202
  809MOL0     C11530   1.915   7.347   1.438 -0.0852 -0.7240  0.1328
  809MOL0     C11531   1.955   7.403   1.321 -0.1862  0.3129  0.3762
  809MOL0     C11532   1.899   7.540   1.282  0.9375  0.5762  1.0378
  809MOL0     C11533   2.066   7.343   1.248 -0.0922  0.8425  0.3500
  809MOL0     C11534   2.123   7.407   1.127 -0.4726 -0.6896 -0.2318
  809MOL0     O11535   2.170   7.316   1.037  0.0589 -0.5991  0.5714
  809MOL0     C11536   2.208   7.343   0.905  0.0286  0.1705  1.3706
  809MOL0     C11537   2.203   7.471   0.841 -0.1338  0.7014  0.2834
  809MOL0     C11538   2.244   7.472   0.700  0.0264  0.1735  0.0279
  809MOL0     C11539   2.249   7.348   0.629  0.3479 -0.0062 -0.7494
  809MOL0     O11540   2.264   7.357   0.499 -0.2068 -0.2391 -0.1015
  809MOL0     C11541   2.372   7.305   0.426 -0.3979 -0.1046 -0.2574
  809MOL0     C11542   2.359   7.324   0.281  0.6019 -0.5434  0.8716
  809MOL0     C11543   2.496   7.349   0.202 -0.1046  0.2616 -0.6696
  809MOL0     C11544   2.474   7.321   0.058 -0.0492  1.0846  0.2546
  809MOL0     C11545   2.607   7.342  -0.037  0.1242  0.5641  0.1582
  809MOL0     C11546   2.574   7.357  -0.185  0.5472 -0.9734 -0.0233
  809MOL0     C11547   2.513   7.236  -0.261  0.1611 -0.6599  0.5312
  809MOL0     C11548   2.382   7.263  -0.336  0.5482 -0.4422 -0.1600
  809MOL0    Cl11549   2.251   7.324  -0.226 -0.2818 -0.1417 -0.3957
  809MOL0     C11550   2.245   7.229   0.691  0.9817  1.5714 -0.6378
  809MOL0     C11551   2.213   7.222   0.830 -0.1937  0.4150  0.0277
  809MOL0     O11552   2.130   7.528   1.121  0.1962 -0.0071 -0.1874
  809MOL0     C11553   2.115   7.216   1.291  0.5696  0.3534 -0.4888
  809MOL0     C11554   2.055   7.153   1.396  0.6753 -0.5448 -0.2928
  809MOL0     N11555   1.409   6.814   1.389  0.5694 -0.4204 -0.2777
  809MOL0     N11556   1.399   6.728   1.301  0.4874 -0.0961  0.6487
  809MOL0     C11557   0.829   6.404   0.719 -1.2209 -0.3789  0.0316
  809MOL0     C11558   0.705   6.345   0.712  0.3572  0.7104 -1.1759
  809MOL0     C11559   0.394   6.025   0.786  1.1528 -0.1480  0.3552
  809MOL0     C11560   0.362   5.941   0.897  0.3185  0.3551 -0.6428
  809MOL0     C11561   0.228   5.906   0.928  0.1182  0.1623  0.2111
  809MOL0     C11562   0.121   5.933   0.846 -0.9743  0.3382  0.6078
  809MOL0     O11563  -0.010   5.913   0.882  0.1262  0.8039 -1.3280
  809MOL0     C11564  -0.064   5.792   0.836  0.4606 -0.6676  0.9505
  809MOL0     C11565  -0.037   5.675   0.928 -0.1313  0.3852  0.2632
  809MOL0     C11566  -0.046   5.526   0.875  0.1844 -0.3581 -0.3032
  809MOL0     C11567  -0.194   5.495   0.851  0.4337  0.5223 -0.0482
  809MOL0     C11568  -0.243   5.363   0.901  0.1631  0.1557  0.0314
  809MOL0     C11569  -0.288   5.269   0.961 -0.6271  0.4005  0.0430
  809MOL0     C11570   0.149   6.031   0.741  0.9100  0.3046 -0.0993
  809MOL0     C11571   0.281   6.072   0.708  0.1066  0.3460 -0.6181
  809MOL0     C11572   0.286   6.167   0.583 -0.1260 -0.1785  0.4370
  809MOL0     H11573   0.793   6.039   0.590  0.3391  0.2944 -1.0348
  809MOL0     H11574   1.002   6.140   0.593 -0.8764  1.7019 -1.4380
  809MOL0     H11575   1.090   6.465   0.500 -0.6404 -0.4452 -0.1262
  809MOL0     H11576   1.156   6.302   0.538 -0.8850 -1.0005  1.2897
  809MOL0     H11577   1.322   6.487   0.494  1.3758  2.2426  0.8412
  809MOL0     H11578   1.243   6.577   0.625 -2.9658 -0.6476 -0.0468
  809MOL0     H11579   1.311   6.372   0.766 -1.4621  1.7182 -0.6925
  809MOL0     H11580   1.438   6.351   0.638 -0.0579 -2.4635  2.8420
  809MOL0     H11581   1.513   6.603   0.690  0.8295  0.9611  1.8827
  809MOL0     H11582   1.389   6.611   0.803 -1.6521 -1.5156  0.3028
  809MOL0     H11583   1.597   6.382   0.827  4.1217  1.7765  1.1074
  809MOL0     H11584   1.481   6.425   0.954 -2.3598 -0.5107 -0.7313
  809MOL0     H11585   1.735   6.513   0.970 -0.2924 -0.3814  1.2546
  809MOL0     H11586   1.675   6.633   0.855 -4.0366  0.5206 -1.4229
  809MOL0     H11587   1.488   6.686   1.008 -1.0676 -1.6806  1.1659
  809MOL0     H11588   1.656   6.727   1.078 -1.6233  0.9386 -1.3301
  809MOL0     H11589   1.455   6.506   1.137  0.5374  0.7503 -2.5389
  809MOL0     H11590   1.619   6.490   1.190  1.1718  0.5429  0.8821
  809MOL0     H11591   1.701   6.670   1.387 -1.4563 -2.1851  3.1748
  809MOL0     H11592   1.635   6.790   1.638  1.3995 -0.2218 -0.1992
  809MOL0     H11593   1.496   6.908   1.633  0.0427  0.1424 -1.5320
  809MOL0     H11594   1.762   6.933   1.482  2.4138  3.5630  0.4739
  809MOL0     H11595   1.618   7.045   1.500 -0.9409  0.0637  0.7253
  809MOL0     H11596   1.670   7.035   1.757 -1.3304  2.3864 -2.4911
  809MOL0     H11597   1.832   6.963   1.706  0.6960 -1.2120 -0.9974
  809MOL0     H11598   1.727   7.232   1.593  0.2531  2.1135 -1.4160
  809MOL0     H11599   1.826   7.229   1.746 -1.1337  2.4409 -1.2409
  809MOL0     H11600   1.848   7.402   1.503 -0.8148 -2.4648  0.9134
  809MOL0     H11601   1.868   7.560   1.179  3.8681  2.8555  0.4489
  809MOL0     H11602   1.960   7.628   1.304  1.8349  0.7513 -1.6875
  809MOL0     H11603   1.810   7.559   1.342 -1.7615 -2.4825 -1.5901
  809MOL0     H11604   2.179   7.562   0.895  1.1524  1.1515  0.1403
  809MOL0     H11605   2.262   7.565   0.646  1.9996  1.4319  2.6554
  809MOL0     H11606   2.462   7.349   0.471 -1.5639 -0.0079  2.0926
  809MOL0     H11607   2.380   7.197   0.441  0.2579 -0.0530 -0.2075
  809MOL0     H11608   2.305   7.235   0.248 -0.0979 -0.3681  1.5206
  809MOL0     H11609   2.300   7.413   0.257  2.2196  0.3589  0.0355
  809MOL0     H11610   2.564   7.278   0.249  0.7395  0.2565 -1.8802
  809MOL0     H11611   2.536   7.449   0.221 -1.5477  0.9251 -1.0076
  809MOL0     H11612   2.385   7.375   0.027 -0.5668  1.6281  2.5174
  809MOL0     H11613   2.440   7.217   0.046 -1.2438  1.3928  0.8093
  809MOL0     H11614   2.661   7.426   0.006 -1.8760  2.3359 -0.6184
  809MOL0     H11615   2.656   7.244  -0.039 -0.4386  0.2706  0.3809
  809MOL0     H11616   2.667   7.384  -0.235  0.0698  2.3246  0.6647
  809MOL0     H11617   2.518   7.447  -0.211 -0.0156 -0.9708  1.1438
  809MOL0     H11618   2.486   7.161  -0.186  0.4812  0.0065  1.3370
  809MOL0     H11619   2.590   7.194  -0.326  1.7531 -0.6603  2.3102
  809MOL0     H11620   2.349   7.163  -0.367  0.1907 -0.2594 -0.3772
  809MOL0     H11621   2.386   7.330  -0.423 -0.4015  0.4730  0.4815
  809MOL0     H11622   2.246   7.134   0.640 -2.9508 -0.2091  2.1563
  809MOL0     H11623   2.204   7.118   0.862  1.4146 -0.5513 -2.2996
  809MOL0     H11624   2.199   7.171   1.240  2.1164 -1.7512  3.4392
  809MOL0     H11625   2.088   7.053   1.423  3.0299  0.1779 -0.2871
  809MOL0     H11626   0.843   6.506   0.754  1.0812 -1.2283  1.7849
  809MOL0     H11627   0.616   6.403   0.733 -1.7123 -1.5258 -3.0928
  809MOL0     H11628   0.432   5.885   0.958 -1.0210 -0.7111 -0.0316
  809MOL0     H11629   0.210   5.852   1.020 -1.2917 -0.6935 -0.5431
  809MOL0     H11630  -0.172   5.807   0.828  0.7467  2.6663  1.5580
  809MOL0     H11631  -0.023   5.769   0.737 -1.6870 -2.3681  0.3831
  809MOL0     H11632  -0.094   5.693   1.020  0.9845 -0.9760  1.2674
  809MOL0     H11633   0.068   5.673   0.961 -0.1211 -1.6832  0.2088
  809MOL0     H11634   0.019   5.512   0.788  0.9199 -2.9668  0.5656
  809MOL0     H11635  -0.020   5.465   0.962  0.2382  2.4143  1.7587
  809MOL0     H11636  -0.226   5.500   0.747 -0.5595  0.1024  0.2182
  809MOL0     H11637  -0.264   5.563   0.902 -1.3201 -0.7736 -0.6180
  809MOL0     H11638  -0.313   5.188   1.026  0.8684  1.2939  1.8504
  809MOL0     H11639   0.070   6.070   0.677 -0.0891 -1.3882  0.0290
  809MOL0     H11640   0.383   6.173   0.534  0.6980  1.3414  2.1327
  809MOL0     H11641   0.207   6.132   0.516 -1.1739  1.4852  0.7563
  809MOL0     H11642   0.264   6.268   0.618 -1.4770 -0.8886  1.7692
  810MOL0     O11643   2.127   6.885   0.508  0.1302 -0.2995  0.0024
  810MOL0     C11644   2.086   6.973   0.434 -0.9067  0.0018 -0.0391
  810MOL0     O11645   2.119   6.978   0.301  0.2112  0.5972 -0.0709
  810MOL0     C11646   2.194   6.876   0.247 -0.5468 -1.1616 -0.0378
  810MOL0     C11647   2.321   6.913   0.198 -0.0010  0.1047  0.4053
  810MOL0     C11648   2.393   6.821   0.122 -0.7142  0.0600  0.0126
  810MOL0     C11649   2.358   6.689   0.106 -0.1086 -0.5898  0.4017
  810MOL0     O11650   2.454   6.613   0.047 -0.1817 -0.0411 -0.0721
  810MOL0     C11651   2.483   6.637  -0.084 -0.7222 -0.1990  0.6021
  810MOL0     C11652   2.605   6.563  -0.122 -0.6945  1.2126  0.6117
  810MOL0     C11653   2.595   6.406  -0.121 -0.2582  0.2525  0.0483
  810MOL0     C11654   2.485   6.342  -0.206  0.0065  0.0773 -0.1487
  810MOL0     C11655   2.512   6.193  -0.241  0.6326 -0.9090 -0.4016
  810MOL0     C11656   2.600   6.176  -0.364 -0.1642 -0.2000 -0.4050
  810MOL0     C11657   2.642   6.032  -0.398 -0.2595  0.6662 -0.7078
  810MOL0     C11658   2.543   5.923  -0.438  0.6981  0.3255 -0.3839
  810MOL0     N11659   2.579   5.813  -0.523 -0.5628  0.5636 -0.4073
  810MOL0     C11660   2.615   5.817  -0.657  0.5748  0.0700 -0.2160
  810MOL0     C11661   2.598   5.688  -0.701 -0.1315 -1.0574 -0.0126
  810MOL0     C11662   2.616   5.641  -0.845 -0.2243  0.6109 -0.9107
  810MOL0     C11663   2.576   5.500  -0.866  0.6809  0.7100  0.0749
  810MOL0     C11664   2.595   5.465  -1.018 -0.4909 -0.4265  0.1367
  810MOL0     C11665   2.553   5.564  -1.125 -0.4470 -1.5293  0.6191
  810MOL0     O11666   2.675   5.639  -1.156  0.1760 -0.3710 -0.5556
  810MOL0     C11667   2.664   5.751  -1.234  0.3835 -0.4043  1.4123
  810MOL0     C11668   2.548   5.821  -1.275  0.1766  0.5599  0.1529
  810MOL0     C11669   2.554   5.937  -1.346  0.2620 -0.8799  0.0811
  810MOL0     C11670   2.420   6.004  -1.383  0.6390 -0.3394 -0.3524
  810MOL0     C11671   2.680   5.984  -1.395  0.5381 -0.2246 -0.1830
  810MOL0     C11672   2.712   6.116  -1.469  0.6016  0.4023 -1.0134
  810MOL0     O11673   2.827   6.134  -1.530 -0.0211  0.0477  0.5197
  810MOL0     C11674   2.863   6.257  -1.569 -1.1370 -0.7315 -0.9882
  810MOL0     C11675   2.979   6.256  -1.649  0.1337 -0.4844  1.0768
  810MOL0     C11676   3.028   6.387  -1.693 -1.3210 -0.1777  0.1978
  810MOL0     C11677   2.966   6.509  -1.661 -1.0312  0.5220  0.2426
  810MOL0     O11678   3.002   6.629  -1.719  0.8548  0.3879  0.1378
  810MOL0     C11679   2.913   6.668  -1.819  0.1043 -0.6440 -0.1205
  810MOL0     C11680   2.981   6.741  -1.932 -0.2943 -1.1532 -0.3393
  810MOL0     C11681   3.077   6.862  -1.896 -0.1677 -0.9774  1.1583
  810MOL0     C11682   3.119   6.945  -2.037  0.1627 -0.4336 -0.1452
  810MOL0     C11683   3.245   7.039  -2.015  0.2226  0.4148 -0.0414
  810MOL0     C11684   3.227   7.144  -1.898  0.4556 -0.4785 -0.9652
  810MOL0     C11685   3.301   7.276  -1.907  0.9382  0.9606 -0.3634
  810MOL0     C11686   3.451   7.272  -1.876  0.4351  0.3741 -0.5426
  810MOL0    Cl11687   3.525   7.419  -1.942 -0.3667 -0.8143 -0.0417
  810MOL0     C11688   2.852   6.502  -1.580 -0.7288 -0.1209  0.5898
  810MOL0     C11689   2.803   6.381  -1.537  0.6940  0.3775 -0.7965
  810MOL0     O11690   2.608   6.178  -1.490 -0.6655 -0.4291 -0.2523
  810MOL0     C11691   2.792   5.911  -1.362 -0.5832  0.3860 -0.2365
  810MOL0     C11692   2.786   5.797  -1.281  0.6257  0.1933 -0.4572
  810MOL0     N11693   2.584   5.604  -0.594  0.1441  0.0105 -0.4151
  810MOL0     N11694   2.573   5.679  -0.486 -0.1207 -0.1283  0.4400
  810MOL0     C11695   2.231   6.654   0.149  0.4941  0.1336  0.1408
  810MOL0     C11696   2.152   6.745   0.221 -0.1102  0.1659 -0.3649
  810MOL0     C11697   1.992   7.072   0.486 -0.1590  0.4579 -0.8491
  810MOL0     C11698   1.992   7.202   0.436 -0.4858  0.5766  0.1086
  810MOL0     C11699   1.901   7.296   0.479 -1.2405 -0.0876 -0.0133
  810MOL0     C11700   1.806   7.268   0.571 -0.5864  1.0086 -0.8088
  810MOL0     O11701   1.727   7.368   0.608 -0.4643  0.1268  0.7202
  810MOL0     C11702   1.664   7.363   0.737 -0.7639 -0.4101  0.5360
  810MOL0     C11703   1.600   7.496   0.769  0.4814 -0.5792 -0.1216
  810MOL0     C11704   1.453   7.500   0.752  0.1387  0.5321 -0.2170
  810MOL0     C11705   1.394   7.463   0.609 -0.0987 -0.7146  0.0179
  810MOL0     C11706   1.314   7.346   0.621  0.1772  0.6265  0.8820
  810MOL0     C11707   1.248   7.243   0.629  0.7395 -0.3936  0.7810
  810MOL0     C11708   1.814   7.146   0.629 -0.5564  0.0196 -0.5547
  810MOL0     C11709   1.907   7.046   0.595 -0.0562  0.5308  0.1906
  810MOL0     C11710   1.909   6.922   0.683  0.0123  0.2237  0.3297
  810MOL0     H11711   2.357   7.015   0.193  0.1110  0.0058 -0.9736
  810MOL0     H11712   2.489   6.853   0.083 -0.1073 -1.4018  0.2243
  810MOL0     H11713   2.520   6.738  -0.103  0.5750 -0.9269 -0.9868
  810MOL0     H11714   2.402   6.599  -0.146 -0.8889 -0.9966  1.2884
  810MOL0     H11715   2.624   6.589  -0.226 -3.1754 -0.2485 -0.2973
  810MOL0     H11716   2.682   6.593  -0.051  2.0244 -0.8693 -1.2360
  810MOL0     H11717   2.689   6.354  -0.138 -1.7179 -2.8998  0.9053
  810MOL0     H11718   2.553   6.394  -0.021  0.0792  0.6675  0.2432
  810MOL0     H11719   2.391   6.338  -0.150  0.1771  1.5206  0.2828
  810MOL0     H11720   2.470   6.400  -0.298  2.2185 -0.5253 -0.9522
  810MOL0     H11721   2.411   6.154  -0.261  0.7807 -1.4281 -0.1409
  810MOL0     H11722   2.549   6.139  -0.153 -0.6015  0.8343  1.2903
  810MOL0     H11723   2.548   6.223  -0.448 -0.8028 -1.7986 -0.9484
  810MOL0     H11724   2.694   6.227  -0.343  2.1177 -4.9023  2.5915
  810MOL0     H11725   2.702   5.995  -0.314  0.9462  1.7726 -1.0423
  810MOL0     H11726   2.713   6.033  -0.482 -0.1542  1.8131 -0.6076
  810MOL0     H11727   2.494   5.890  -0.347  0.7784  0.0980 -0.4238
  810MOL0     H11728   2.465   5.975  -0.497  1.6512 -0.6165 -2.5949
  810MOL0     H11729   2.633   5.901  -0.725  2.1245 -0.7987 -0.9527
  810MOL0     H11730   2.722   5.648  -0.873 -0.6461  0.3638 -2.6596
  810MOL0     H11731   2.553   5.705  -0.906  1.2525  2.1883 -0.8542
  810MOL0     H11732   2.634   5.427  -0.810  3.6720  4.1681  1.9111
  810MOL0     H11733   2.471   5.489  -0.839  0.3483  0.4390 -1.2678
  810MOL0     H11734   2.701   5.444  -1.032  1.0039  5.5090  0.2045
  810MOL0     H11735   2.533   5.375  -1.032 -1.3451  0.3757 -1.4583
  810MOL0     H11736   2.515   5.518  -1.216 -1.2887  1.0767 -0.4562
  810MOL0     H11737   2.483   5.642  -1.092  1.6157 -0.5958  3.1344
  810MOL0     H11738   2.455   5.772  -1.247  0.7335  1.2575  3.8229
  810MOL0     H11739   2.381   5.993  -1.485 -0.9505 -0.1902  0.2108
  810MOL0     H11740   2.426   6.111  -1.362  1.3695 -0.3497 -0.4738
  810MOL0     H11741   2.346   5.949  -1.324  0.8693 -0.0765  0.1805
  810MOL0     H11742   3.026   6.161  -1.675  1.4027  0.3152  0.3281
  810MOL0     H11743   3.106   6.400  -1.767 -2.2690  0.6233 -0.6828
  810MOL0     H11744   2.869   6.580  -1.866 -0.1095 -1.4500  1.4977
  810MOL0     H11745   2.828   6.721  -1.777  0.6965  1.4168 -1.3870
  810MOL0     H11746   3.054   6.669  -1.971  2.0804 -0.2177  2.0628
  810MOL0     H11747   2.907   6.781  -2.002 -1.5323  1.2612  2.1605
  810MOL0     H11748   3.169   6.834  -1.846 -0.5960 -0.5429  2.2209
  810MOL0     H11749   3.023   6.936  -1.837  0.8775  1.8078 -1.1454
  810MOL0     H11750   3.036   7.006  -2.074 -0.0082 -1.2675 -1.1918
  810MOL0     H11751   3.121   6.873  -2.120 -1.3137 -1.1352  0.3859
  810MOL0     H11752   3.325   6.969  -1.991 -0.5559 -0.1065  1.1324
  810MOL0     H11753   3.286   7.085  -2.105  1.0537  1.9293  1.0590
  810MOL0     H11754   3.270   7.093  -1.811  1.5853 -0.5591 -1.5557
  810MOL0     H11755   3.120   7.162  -1.887 -0.7141 -4.2082 -4.0606
  810MOL0     H11756   3.238   7.343  -1.848 -0.2126  1.2681 -1.8866
  810MOL0     H11757   3.305   7.334  -1.999  1.6826 -0.2196 -1.1093
  810MOL0     H11758   3.509   7.195  -1.927  0.8478  2.5459 -3.7243
  810MOL0     H11759   3.477   7.264  -1.771  1.2772  2.9018 -0.4731
  810MOL0     H11760   2.795   6.592  -1.559  0.4773  0.4575  1.4862
  810MOL0     H11761   2.720   6.390  -1.467  1.6864 -1.9279  0.7879
  810MOL0     H11762   2.884   5.943  -1.408 -0.6090  1.7219  0.5693
  810MOL0     H11763   2.876   5.743  -1.253  0.9878 -0.3812 -2.5041
  810MOL0     H11764   2.197   6.553   0.128 -0.2631  0.9950 -3.4007
  810MOL0     H11765   2.058   6.719   0.268  1.1051 -1.3674  1.3686
  810MOL0     H11766   2.067   7.232   0.362 -0.6591 -0.6796 -0.6106
  810MOL0     H11767   1.914   7.395   0.436  2.2998 -0.8149 -0.9820
  810MOL0     H11768   1.591   7.281   0.736  2.1616 -3.2523  1.0771
  810MOL0     H11769   1.743   7.343   0.811 -0.9524 -1.2838  0.5101
  810MOL0     H11770   1.642   7.578   0.710  4.2855  0.7592  3.8486
  810MOL0     H11771   1.606   7.525   0.874 -1.4976  2.9377 -0.8282
  810MOL0     H11772   1.400   7.438   0.825 -3.9873  3.1761 -0.6887
  810MOL0     H11773   1.426   7.604   0.771 -1.1811  0.0700  0.5247
  810MOL0     H11774   1.473   7.430   0.540 -0.1913  0.4789 -0.6836
  810MOL0     H11775   1.344   7.544   0.557 -1.3931  0.8049  3.3512
  810MOL0     H11776   1.181   7.159   0.638 -1.4084  1.0994 -0.4310
  810MOL0     H11777   1.752   7.128   0.716 -0.6750  1.0711 -0.4047
  810MOL0     H11778   1.908   6.821   0.641 -0.7506 -0.8569  2.7256
  810MOL0     H11779   2.001   6.935   0.741 -0.8712  2.4984  1.3161
  810MOL0     H11780   1.825   6.919   0.753 -0.0142  1.6485  0.3897
  811MOL0     O11781   2.149   9.853   8.573  0.0473  0.2740  0.7597
  811MOL0     C11782   2.226   9.770   8.519  0.0344 -0.2064 -0.1339
  811MOL0     O11783   2.241   9.649   8.555 -0.9452  0.2439 -0.5696
  811MOL0     C11784   2.156   9.576   8.631  0.5446 -0.2269 -0.2311
  811MOL0     C11785   2.028   9.617   8.666  0.6290 -0.3215  0.3777
  811MOL0     C11786   1.944   9.532   8.745  0.3590 -0.4443 -0.2567
  811MOL0     C11787   1.986   9.410   8.792 -0.0155  0.8681  0.5708
  811MOL0     O11788   1.911   9.319   8.855  0.6252 -0.0684 -0.0846
  811MOL0     C11789   1.769   9.345   8.847 -0.3104 -0.4791  0.9092
  811MOL0     C11790   1.716   9.227   8.919  0.4286  0.3441 -0.3911
  811MOL0     C11791   1.752   9.087   8.858 -1.1777  0.1846 -0.4630
  811MOL0     C11792   1.632   8.998   8.858 -0.7525 -0.5274  0.1961
  811MOL0     C11793   1.692   8.857   8.826  0.6256  0.1776 -0.9473
  811MOL0     C11794   1.593   8.754   8.883 -0.1769  0.3948  0.2678
  811MOL0     C11795   1.453   8.769   8.826  0.8325  0.0241  1.1235
  811MOL0     C11796   1.370   8.645   8.864  0.4735  0.0900  0.0775
  811MOL0     N11797   1.290   8.684   8.981  0.0648 -1.1103 -0.4046
  811MOL0     C11798   1.334   8.703   9.106 -0.1018  0.3928 -0.4896
  811MOL0     C11799   1.227   8.748   9.177 -0.4051 -0.0601 -0.5553
  811MOL0     C11800   1.255   8.803   9.323 -0.2198 -0.7725  0.0747
  811MOL0     C11801   1.234   8.700   9.434  0.7703 -0.6179 -0.0467
  811MOL0     C11802   1.244   8.758   9.576  0.4441 -0.6064  0.0232
  811MOL0     C11803   1.257   8.644   9.671 -0.2895  0.7645 -0.2864
  811MOL0     O11804   1.391   8.600   9.674 -0.3428 -0.2732  0.0534
  811MOL0     C11805   1.408   8.477   9.733 -0.5891 -0.5218 -0.3547
  811MOL0     C11806   1.429   8.471   9.864  0.6987 -0.0205 -1.2393
  811MOL0     C11807   1.432   8.349   9.928  0.6869 -0.1105  0.9818
  811MOL0     C11808   1.449   8.341  10.072  0.3522 -0.2074  0.5670
  811MOL0     C11809   1.432   8.225   9.847 -0.6008 -1.1077  0.8668
  811MOL0     C11810   1.437   8.092   9.903 -1.1235 -1.0439 -1.2867
  811MOL0     O11811   1.359   7.999   9.833 -0.1015 -0.4645 -0.9783
  811MOL0     C11812   1.381   7.868   9.875  0.3422 -0.3674  0.2492
  811MOL0     C11813   1.467   7.778   9.801 -0.3629  0.2315 -0.7836
  811MOL0     C11814   1.480   7.650   9.827  0.1371  0.0739  0.3202
  811MOL0     C11815   1.431   7.601   9.956 -0.0790  0.8141 -0.3430
  811MOL0     O11816   1.456   7.471  10.002  0.3355 -0.4846  0.0120
  811MOL0     C11817   1.362   7.402  10.088  1.1967  0.4394  0.2242
  811MOL0     C11818   1.392   7.259  10.129 -0.3645  0.0621 -0.2189
  811MOL0     C11819   1.417   7.159  10.017 -0.1478  0.0107  0.2151
  811MOL0     C11820   1.436   7.018  10.066  0.6398  0.1927  0.1138
  811MOL0     C11821   1.556   7.000  10.163  0.4866  0.1005 -0.2753
  811MOL0     C11822   1.595   6.857  10.179  0.3099 -0.3513 -0.0020
  811MOL0     C11823   1.646   6.784  10.061 -0.1800  0.0743  0.2223
  811MOL0     C11824   1.639   6.633  10.084 -0.0988  0.2744 -0.1090
  811MOL0    Cl11825   1.770   6.590  10.201 -0.0184  0.1716  0.5908
  811MOL0     C11826   1.361   7.693  10.039  0.5228  0.5339 -0.3376
  811MOL0     C11827   1.335   7.822   9.994  0.7018 -0.4514 -1.2971
  811MOL0     O11828   1.523   8.074   9.998 -0.3723 -0.4475 -0.6118
  811MOL0     C11829   1.426   8.237   9.709  0.6213  0.0743 -0.4042
  811MOL0     C11830   1.412   8.365   9.653 -0.1504 -0.2367 -0.3757
  811MOL0     N11831   1.113   8.753   9.090 -0.2316 -0.2553 -0.3158
  811MOL0     N11832   1.154   8.709   8.979 -0.2609  0.8183 -0.6324
  811MOL0     C11833   2.118   9.373   8.763 -0.1846 -0.0965 -0.1614
  811MOL0     C11834   2.206   9.457   8.692  0.0936 -0.0281  0.3505
  811MOL0     C11835   2.305   9.813   8.400  0.1256 -0.3026 -0.4485
  811MOL0     C11836   2.251   9.900   8.297  0.1006 -0.3997  0.0457
  811MOL0     C11837   2.320   9.932   8.184  0.1014  0.0810  0.5063
  811MOL0     C11838   2.454   9.885   8.162  0.0256  0.4229 -0.2751
  811MOL0     O11839   2.542   9.932   8.051 -0.0156 -0.0461 -0.8245
  811MOL0     C11840   2.472   9.986   7.937 -0.3168 -0.0727  0.3902
  811MOL0     C11841   2.584  10.051   7.845  0.4611  1.0326  0.5535
  811MOL0     C11842   2.529  10.104   7.713 -0.1408 -0.3275  0.2800
  811MOL0     C11843   2.436  10.230   7.745  0.2686  0.6682  0.5710
  811MOL0     C11844   2.450  10.328   7.639  0.8017  0.3918 -0.4333
  811MOL0     C11845   2.470  10.418   7.563 -0.0102  0.3115 -0.0131
  811MOL0     C11846   2.508   9.802   8.259 -1.5447 -0.2292  1.0729
  811MOL0     C11847   2.443   9.770   8.379 -0.3090 -0.5841 -0.3374
  811MOL0     C11848   2.524   9.696   8.488 -0.1319  0.5660 -0.3902
  811MOL0     H11849   1.988   9.714   8.637  3.0103  0.7170  0.3255
  811MOL0     H11850   1.840   9.560   8.732  0.6638  2.4036  2.2297
  811MOL0     H11851   1.734   9.340   8.743  1.9077  2.3010 -0.1152
  811MOL0     H11852   1.740   9.441   8.891 -2.4792 -1.5696  1.9909
  811MOL0     H11853   1.766   9.224   9.016  2.3867  0.1517 -1.3709
  811MOL0     H11854   1.608   9.228   8.939  0.4873 -1.2922  0.1571
  811MOL0     H11855   1.791   9.096   8.756 -0.0248 -5.2738 -0.7986
  811MOL0     H11856   1.834   9.046   8.917 -1.0879 -0.0923 -0.7777
  811MOL0     H11857   1.583   8.992   8.955 -0.9843  1.1981  0.2192
  811MOL0     H11858   1.552   9.031   8.792 -0.4793  1.1584  0.6728
  811MOL0     H11859   1.790   8.838   8.870  0.1077 -0.3362  0.0133
  811MOL0     H11860   1.708   8.847   8.718  0.6802  1.6102 -1.1013
  811MOL0     H11861   1.615   8.650   8.858 -0.4452 -0.5512  3.5066
  811MOL0     H11862   1.592   8.750   8.993 -1.5218  0.5389  0.2697
  811MOL0     H11863   1.463   8.775   8.717  0.8460 -2.3357  0.9580
  811MOL0     H11864   1.400   8.859   8.858 -2.3309 -1.4154  0.3053
  811MOL0     H11865   1.305   8.612   8.782  3.4818 -3.0402 -1.2806
  811MOL0     H11866   1.430   8.555   8.869 -0.3573 -0.7498 -3.0391
  811MOL0     H11867   1.437   8.694   9.137  0.8334  1.2995 -3.0646
  811MOL0     H11868   1.209   8.899   9.345 -0.1617 -0.4091 -1.3289
  811MOL0     H11869   1.360   8.833   9.328 -0.8106  1.7651 -1.2875
  811MOL0     H11870   1.128   8.674   9.423  1.2893 -3.0286  0.2727
  811MOL0     H11871   1.292   8.611   9.408  0.5456 -0.3502 -1.6140
  811MOL0     H11872   1.327   8.828   9.584 -0.8575  0.8962  0.8354
  811MOL0     H11873   1.156   8.821   9.586 -0.1513 -1.3475 -0.4073
  811MOL0     H11874   1.223   8.691   9.764  1.1791  1.2450  0.0372
  811MOL0     H11875   1.185   8.565   9.647 -2.3649  3.2676 -3.0239
  811MOL0     H11876   1.432   8.564   9.921  1.5920  1.0025 -2.8791
  811MOL0     H11877   1.410   8.428  10.127  0.7288 -0.4071  1.1635
  811MOL0     H11878   1.557   8.335  10.091  0.1931 -0.8047  1.3600
  811MOL0     H11879   1.398   8.256  10.119 -1.3204  1.5420  2.0835
  811MOL0     H11880   1.499   7.801   9.700  0.5425 -1.4141 -0.9099
  811MOL0     H11881   1.553   7.583   9.783  0.7563  0.6122  0.5033
  811MOL0     H11882   1.375   7.463  10.178 -0.7887  0.6542  0.4157
  811MOL0     H11883   1.260   7.410  10.049  1.1987 -0.3641  0.0224
  811MOL0     H11884   1.481   7.260  10.193 -1.6806  0.2439  1.7212
  811MOL0     H11885   1.318   7.228  10.204 -1.9661 -0.2150 -1.8425
  811MOL0     H11886   1.510   7.199   9.975 -0.0294 -1.1583 -0.6842
  811MOL0     H11887   1.334   7.169   9.946  2.0884  0.6712 -2.4727
  811MOL0     H11888   1.450   6.956   9.976  0.1663 -0.6644  0.6164
  811MOL0     H11889   1.348   6.990  10.125  1.3460  0.3566  1.2732
  811MOL0     H11890   1.643   7.057  10.129  3.4047 -2.1572  2.7479
  811MOL0     H11891   1.521   7.038  10.260 -2.1698  1.3669 -1.6312
  811MOL0     H11892   1.509   6.802  10.217  0.2198  0.2689  0.7211
  811MOL0     H11893   1.665   6.849  10.262 -0.7780 -0.3555  0.9410
  811MOL0     H11894   1.746   6.822  10.036 -0.9130  2.4329  0.6327
  811MOL0     H11895   1.583   6.818   9.978 -0.2981  2.5900  1.2603
  811MOL0     H11896   1.648   6.575   9.992  0.3189  3.1439 -1.9913
  811MOL0     H11897   1.541   6.612  10.128 -0.1645  1.2161  0.2116
  811MOL0     H11898   1.321   7.667  10.137  1.4089 -1.0040 -0.3489
  811MOL0     H11899   1.277   7.894  10.050 -0.5309 -0.3232 -2.6845
  811MOL0     H11900   1.444   8.149   9.648  1.3636 -0.9136  1.1677
  811MOL0     H11901   1.430   8.361   9.546  0.6699 -2.3411 -0.2269
  811MOL0     H11902   2.158   9.277   8.794  3.8955  1.1224 -1.0111
  811MOL0     H11903   2.308   9.423   8.678 -0.8843 -2.6076 -1.3801
  811MOL0     H11904   2.148   9.932   8.314 -0.1358 -0.6128 -0.9197
  811MOL0     H11905   2.270   9.993   8.110  2.2098  0.2254 -0.9089
  811MOL0     H11906   2.418   9.908   7.883 -1.0374  2.0678 -2.2340
  811MOL0     H11907   2.405  10.065   7.971  0.9161  1.1923  0.0007
  811MOL0     H11908   2.654   9.974   7.812  1.1251  1.7367  0.2892
  811MOL0     H11909   2.638  10.129   7.899 -1.4664  3.7552 -1.1733
  811MOL0     H11910   2.610  10.125   7.642 -1.4112  2.2870 -0.5192
  811MOL0     H11911   2.463  10.032   7.662  2.3535 -3.2214  0.8458
  811MOL0     H11912   2.470  10.271   7.840 -0.0677 -2.6892  2.2572
  811MOL0     H11913   2.331  10.200   7.740 -0.1619  2.1799 -0.0187
  811MOL0     H11914   2.495  10.501   7.500  0.7733  0.9598  1.1154
  811MOL0     H11915   2.609   9.768   8.242 -0.8518  2.9342 -2.5971
  811MOL0     H11916   2.479   9.718   8.586 -2.8177 -0.8690 -1.2086
  811MOL0     H11917   2.513   9.588   8.476 -0.5018  0.6953 -1.2404
  811MOL0     H11918   2.630   9.723   8.493  0.6517 -2.3182  0.9221
  812MOL0     O11919   2.281   5.738   8.150  0.3290  0.5287 -0.1930
  812MOL0     C11920   2.224   5.791   8.245 -0.2407  0.1870  0.5776
  812MOL0     O11921   2.278   5.802   8.369  0.3183 -0.0557 -0.0294
  812MOL0     C11922   2.419   5.806   8.373  0.7472  0.0160  0.0531
  812MOL0     C11923   2.486   5.683   8.388  0.5567  0.4650 -0.8886
  812MOL0     C11924   2.622   5.676   8.379 -0.2524  1.2916  0.3692
  812MOL0     C11925   2.698   5.794   8.351 -1.2268  0.2304  0.2499
  812MOL0     O11926   2.841   5.785   8.367 -0.2551  0.3177 -0.0458
  812MOL0     C11927   2.916   5.904   8.329  0.0487  0.2514 -0.1164
  812MOL0     C11928   2.902   6.033   8.414  0.7066  0.3164  0.0393
  812MOL0     C11929   2.846   6.027   8.565 -0.6216  0.2184 -0.4682
  812MOL0     C11930   2.901   6.144   8.650 -1.4797 -0.5660 -0.4498
  812MOL0     C11931   2.901   6.103   8.806  0.2343  0.1083 -0.5080
  812MOL0     C11932   2.937   6.226   8.895  0.7006  0.2734  0.1624
  812MOL0     C11933   2.973   6.185   9.049  0.2245  0.7633 -0.2577
  812MOL0     C11934   3.042   6.305   9.111 -0.6086 -0.5683 -0.7916
  812MOL0     N11935   3.122   6.264   9.234  0.3020 -0.3292  0.6909
  812MOL0     C11936   3.236   6.197   9.233  0.5562  0.0103  0.1798
  812MOL0     C11937   3.287   6.205   9.350  0.3175  0.3424  1.1167
  812MOL0     C11938   3.415   6.141   9.394 -0.2004  0.0732 -0.8943
  812MOL0     C11939   3.419   5.989   9.360 -0.6241  0.7118  0.7912
  812MOL0     C11940   3.548   5.936   9.391 -0.7803  0.0068 -0.2983
  812MOL0     C11941   3.537   5.783   9.408 -1.0057  0.2004  0.8353
  812MOL0     O11942   3.666   5.740   9.456 -0.3056  0.1981 -0.4908
  812MOL0     C11943   3.694   5.602   9.466  0.1610  0.1562 -0.7246
  812MOL0     C11944   3.609   5.501   9.440  0.2881 -0.3855  0.2097
  812MOL0     C11945   3.637   5.363   9.459  0.8797  0.7228 -0.1340
  812MOL0     C11946   3.541   5.267   9.391  0.8668  0.4005  0.5288
  812MOL0     C11947   3.758   5.323   9.519  0.7757 -0.3977  0.6219
  812MOL0     C11948   3.791   5.181   9.556  0.4763 -0.3470 -1.0870
  812MOL0     O11949   3.718   5.080   9.514  0.2734  0.6219  0.0264
  812MOL0     C11950   3.703   4.965   9.595  0.0893 -0.5779 -0.0648
  812MOL0     C11951   3.784   4.855   9.579  0.0544  1.1690 -0.2064
  812MOL0     C11952   3.753   4.739   9.654 -0.4669 -0.4728 -0.5194
  812MOL0     C11953   3.661   4.737   9.760  0.8540 -0.7872 -0.4059
  812MOL0     O11954   3.635   4.625   9.834 -0.3161  0.1141 -0.8073
  812MOL0     C11955   3.727   4.503   9.819  0.8500 -0.4072 -1.1770
  812MOL0     C11956   3.668   4.380   9.874  0.0057 -0.5819 -0.3791
  812MOL0     C11957   3.634   4.369  10.026 -0.3406  0.2668  1.4219
  812MOL0     C11958   3.589   4.230  10.050  0.6055  0.3831  0.1835
  812MOL0     C11959   3.531   4.213  10.187  0.3638  0.2384 -0.5225
  812MOL0     C11960   3.377   4.198  10.188 -0.7723  0.3675 -0.9134
  812MOL0     C11961   3.330   4.070  10.114  0.6285 -0.5083 -0.5603
  812MOL0     C11962   3.178   4.044  10.138  0.3148 -0.7152 -1.3959
  812MOL0    Cl11963   3.152   4.006  10.315  0.1190  0.4986  0.4028
  812MOL0     C11964   3.575   4.849   9.767  0.5543  0.1148 -0.2776
  812MOL0     C11965   3.590   4.960   9.680  0.6633 -0.4026  0.1087
  812MOL0     O11966   3.881   5.169   9.634  1.3346 -0.5001 -0.0241
  812MOL0     C11967   3.851   5.431   9.548  0.2355 -0.1633  0.9742
  812MOL0     C11968   3.817   5.563   9.519 -0.4737 -0.1104  0.0723
  812MOL0     N11969   3.199   6.291   9.425 -0.1261 -1.0403  0.2673
  812MOL0     N11970   3.100   6.315   9.354  0.4402  0.4159 -0.2755
  812MOL0     C11971   2.622   5.915   8.325  0.5746  0.3820 -0.0804
  812MOL0     C11972   2.486   5.926   8.346  0.6574  0.2393  0.0626
  812MOL0     C11973   2.077   5.828   8.225 -0.1580 -0.4267 -0.3243
  812MOL0     C11974   1.987   5.776   8.317  0.2733  0.1058 -0.0483
  812MOL0     C11975   1.853   5.775   8.305  0.2952  0.5968  0.1281
  812MOL0     C11976   1.803   5.839   8.187 -0.5459  0.9752  0.1810
  812MOL0     O11977   1.668   5.831   8.171 -0.6833 -0.1796  0.4884
  812MOL0     C11978   1.599   5.921   8.084 -0.8540 -0.1115 -0.6296
  812MOL0     C11979   1.463   5.954   8.148  0.1949  1.0057 -0.4650
  812MOL0     C11980   1.380   5.821   8.148  0.6389  0.1909 -0.2664
  812MOL0     C11981   1.314   5.800   8.020  0.2746 -0.4605  1.1050
  812MOL0     C11982   1.264   5.665   8.027  0.2527 -0.4105  0.3166
  812MOL0     C11983   1.213   5.560   8.032  0.4992  1.0740  0.1975
  812MOL0     C11984   1.884   5.888   8.093 -0.0345 -0.6200 -0.6209
  812MOL0     C11985   2.018   5.889   8.113 -0.8689 -0.2746 -0.3384
  812MOL0     C11986   2.108   5.937   7.996  0.0430 -0.8582  0.6734
  812MOL0     H11987   2.421   5.599   8.412 -0.3014  1.8228  2.0085
  812MOL0     H11988   2.662   5.579   8.407  0.3911  1.9654  1.9037
  812MOL0     H11989   2.892   5.919   8.223  1.7967 -0.6838 -0.6782
  812MOL0     H11990   3.019   5.871   8.312 -0.6021 -0.9365 -1.9731
  812MOL0     H11991   3.005   6.069   8.406  1.3787 -1.5690 -0.2052
  812MOL0     H11992   2.840   6.103   8.357  1.4590  1.4546  0.5796
  812MOL0     H11993   2.738   6.039   8.556 -0.5250  0.1648 -1.9175
  812MOL0     H11994   2.871   5.929   8.608  0.5001 -0.5371 -2.7153
  812MOL0     H11995   3.007   6.157   8.629 -1.5590 -2.4624 -2.3041
  812MOL0     H11996   2.864   6.246   8.637 -3.0134 -0.1806  4.6859
  812MOL0     H11997   2.981   6.030   8.818  0.3098  0.2454 -0.1675
  812MOL0     H11998   2.807   6.061   8.842 -0.2185 -0.6017 -2.4295
  812MOL0     H11999   3.003   6.296   8.843 -0.6762  0.4897 -1.3693
  812MOL0     H12000   2.843   6.279   8.912  0.9844  0.3146  1.8374
  812MOL0     H12001   3.043   6.101   9.046  0.5176  0.7763  2.8477
  812MOL0     H12002   2.883   6.159   9.105  1.6809  1.2924  2.5504
  812MOL0     H12003   3.119   6.352   9.049 -2.3181  2.6286 -0.7103
  812MOL0     H12004   2.964   6.379   9.133  0.6359  0.6603 -0.3624
  812MOL0     H12005   3.277   6.150   9.144  0.3245  2.1710 -1.1728
  812MOL0     H12006   3.434   6.167   9.499 -2.1677  2.9822 -1.1275
  812MOL0     H12007   3.490   6.191   9.333  1.4494 -1.5175 -0.2529
  812MOL0     H12008   3.338   5.946   9.420  1.5736 -0.0122  3.4755
  812MOL0     H12009   3.406   5.975   9.253  1.2902 -1.6060  0.7748
  812MOL0     H12010   3.613   5.966   9.309  0.6239  1.2790  1.2026
  812MOL0     H12011   3.587   5.981   9.483  0.9675  2.8088 -2.2285
  812MOL0     H12012   3.468   5.746   9.484 -0.1511 -0.9115  1.0892
  812MOL0     H12013   3.519   5.733   9.312 -0.3948  1.0132  0.2847
  812MOL0     H12014   3.518   5.535   9.392  0.3956  1.5455  1.2803
  812MOL0     H12015   3.581   5.206   9.310 -2.4690  0.1794 -1.0964
  812MOL0     H12016   3.454   5.314   9.343  1.8924  1.2410 -0.5655
  812MOL0     H12017   3.508   5.197   9.469 -0.4767 -1.4851 -1.6231
  812MOL0     H12018   3.861   4.849   9.503 -0.2266 -0.4553 -0.4014
  812MOL0     H12019   3.814   4.657   9.619 -0.9220 -1.6106  1.2009
  812MOL0     H12020   3.751   4.472   9.717  4.1188  0.8757 -0.9172
  812MOL0     H12021   3.816   4.528   9.878  0.4250 -0.7052 -0.4005
  812MOL0     H12022   3.573   4.348   9.831 -0.3708 -2.8314  1.8989
  812MOL0     H12023   3.744   4.303   9.858  1.1915  0.8582 -2.0618
  812MOL0     H12024   3.548   4.432  10.053 -3.3296 -2.2706 -1.3014
  812MOL0     H12025   3.724   4.400  10.079 -0.6979  2.6171  0.7641
  812MOL0     H12026   3.669   4.157  10.036  1.7535  1.4118  1.1577
  812MOL0     H12027   3.510   4.212   9.977  0.7399 -2.5718  0.6616
  812MOL0     H12028   3.573   4.119  10.223  2.3306  0.2335 -2.6077
  812MOL0     H12029   3.565   4.290  10.258  4.3043  0.8771 -2.7954
  812MOL0     H12030   3.338   4.293  10.150  2.3210  2.0947 -0.1595
  812MOL0     H12031   3.368   4.188  10.296  3.1291 -1.1573 -0.5533
  812MOL0     H12032   3.397   3.989  10.144  0.5093  0.4014  2.3892
  812MOL0     H12033   3.348   4.093  10.008 -1.6252  2.0551 -0.5014
  812MOL0     H12034   3.163   3.950  10.084 -2.8472 -0.5726 -0.9568
  812MOL0     H12035   3.110   4.121  10.100  0.9501  1.2928  1.2224
  812MOL0     H12036   3.484   4.853   9.825  2.1835 -1.7933  2.6665
  812MOL0     H12037   3.527   5.049   9.683  1.1671 -0.0645  1.0318
  812MOL0     H12038   3.943   5.411   9.603  1.4829  2.8382  0.1557
  812MOL0     H12039   3.889   5.644   9.529  0.4834 -0.8346 -0.6929
  812MOL0     H12040   2.666   6.012   8.305  0.7068  0.4492  0.5133
  812MOL0     H12041   2.441   6.025   8.337  1.2720  0.6030  0.8790
  812MOL0     H12042   2.034   5.736   8.406  2.9057  1.0077 -0.9154
  812MOL0     H12043   1.783   5.735   8.378 -1.6581 -0.0404 -1.9819
  812MOL0     H12044   1.652   6.016   8.077  2.3208 -1.7133 -0.1106
  812MOL0     H12045   1.586   5.879   7.984  0.6323 -0.2248 -0.8037
  812MOL0     H12046   1.417   6.024   8.076 -0.4221 -0.4448 -1.5318
  812MOL0     H12047   1.477   5.992   8.249 -1.2452 -0.1128  0.1773
  812MOL0     H12048   1.454   5.746   8.176  0.0524  0.5455  2.5216
  812MOL0     H12049   1.306   5.840   8.227  2.7179  1.7460  1.4314
  812MOL0     H12050   1.386   5.814   7.939 -1.1021 -0.3744 -0.1596
  812MOL0     H12051   1.235   5.873   8.001  2.6018  2.3294  1.4827
  812MOL0     H12052   1.169   5.462   8.028  3.6696 -0.5817  1.6692
  812MOL0     H12053   1.863   5.936   7.998  0.4761  1.5176  0.2941
  812MOL0     H12054   2.148   5.845   7.953  0.4736  0.0779 -1.0726
  812MOL0     H12055   2.056   5.991   7.915  3.8061  3.8585  0.8953
  812MOL0     H12056   2.190   6.003   8.026  0.1281  0.6032 -2.3036
  813MOL0     O12057   7.535  11.469   1.487 -0.3087  0.5460 -0.3202
  813MOL0     C12058   7.569  11.378   1.560  0.3705  0.1121  0.6194
  813MOL0     O12059   7.644  11.385   1.670  0.3988 -0.2215  0.5224
  813MOL0     C12060   7.649  11.517   1.718  0.1525  0.0074  0.4025
  813MOL0     C12061   7.778  11.580   1.726  0.0390 -0.5346  0.4667
  813MOL0     C12062   7.777  11.710   1.764 -0.2795 -0.9314 -0.7985
  813MOL0     C12063   7.658  11.772   1.809  0.2874 -0.8827 -0.0528
  813MOL0     O12064   7.670  11.903   1.844 -0.0288 -0.9974  0.7187
  813MOL0     C12065   7.612  11.991   1.745  0.0055  0.6627 -0.0798
  813MOL0     C12066   7.675  12.118   1.767 -0.3182 -0.2229  0.7715
  813MOL0     C12067   7.798  12.150   1.688 -0.1842 -0.2645  0.8255
  813MOL0     C12068   7.840  12.291   1.713  0.5138 -0.6050 -0.3732
  813MOL0     C12069   7.910  12.315   1.857 -0.7164  0.1947 -0.2413
  813MOL0     C12070   7.962  12.451   1.863  0.6774  0.0311 -0.4566
  813MOL0     C12071   7.876  12.558   1.930  0.5771  0.5041  1.0752
  813MOL0     C12072   7.936  12.614   2.052 -0.0155  0.0789 -0.2704
  813MOL0     N12073   8.061  12.702   2.031 -0.0358  0.4597 -0.0331
  813MOL0     C12074   8.174  12.700   1.947 -0.1244 -0.1283 -0.2822
  813MOL0     C12075   8.254  12.792   1.984 -0.3762 -0.6754  0.4856
  813MOL0     C12076   8.374  12.818   1.885 -0.9899 -0.5756  1.0733
  813MOL0     C12077   8.352  12.935   1.784  0.0952 -0.0808  0.7966
  813MOL0     C12078   8.391  13.080   1.834 -0.5255  0.0893  0.3810
  813MOL0     C12079   8.405  13.172   1.709 -0.8991 -0.7108  0.0692
  813MOL0     O12080   8.531  13.131   1.647  0.5523 -0.3916 -0.4954
  813MOL0     C12081   8.578  13.197   1.541  0.0821  0.2653  0.3102
  813MOL0     C12082   8.693  13.145   1.472  0.4713  0.4973  1.1744
  813MOL0     C12083   8.752  13.214   1.367 -0.2603 -0.5155 -0.2199
  813MOL0     C12084   8.861  13.140   1.314 -0.6577 -0.0463  0.0366
  813MOL0     C12085   8.695  13.339   1.328  0.0386 -0.3806 -1.4026
  813MOL0     C12086   8.759  13.413   1.220 -0.9162  0.1933  0.4214
  813MOL0     O12087   8.720  13.542   1.203  0.2757 -1.1040  0.6957
  813MOL0     C12088   8.804  13.636   1.152 -1.3857  0.4238  0.6075
  813MOL0     C12089   8.772  13.721   1.042  0.6759 -0.2348  0.4347
  813MOL0     C12090   8.849  13.815   0.993  0.0340  0.1643  0.3321
  813MOL0     C12091   8.986  13.828   1.033  0.1533 -0.3999 -0.6537
  813MOL0     O12092   9.060  13.928   0.971 -0.5352  0.2461  0.3204
  813MOL0     C12093   9.150  14.015   1.040  0.3716  0.0362 -0.6734
  813MOL0     C12094   9.175  14.132   0.950 -0.1428 -0.2584  0.7691
  813MOL0     C12095   9.223  14.256   1.029 -0.0127 -0.2658 -0.7332
  813MOL0     C12096   9.118  14.334   1.110  0.2389  0.4923 -0.2845
  813MOL0     C12097   9.173  14.408   1.231 -0.1632 -0.9671 -1.0569
  813MOL0     C12098   9.073  14.474   1.322  0.0614  0.2061  0.1138
  813MOL0     C12099   9.158  14.575   1.419 -0.7581  0.2725 -0.0281
  813MOL0     C12100   9.084  14.694   1.490 -1.3455 -0.0915 -0.3017
  813MOL0    Cl12101   9.214  14.772   1.583 -0.2274 -0.4356  0.5259
  813MOL0     C12102   9.023  13.751   1.150 -0.4015 -0.3358 -0.3731
  813MOL0     C12103   8.936  13.657   1.201  0.0513 -0.2137  0.0396
  813MOL0     O12104   8.843  13.363   1.143 -0.2244  0.1075 -0.0974
  813MOL0     C12105   8.587  13.388   1.396  0.8222 -0.3991 -0.1252
  813MOL0     C12106   8.520  13.315   1.493  0.2309  0.3496 -0.1357
  813MOL0     N12107   8.200  12.852   2.098 -0.2110 -0.3602  0.3775
  813MOL0     N12108   8.084  12.805   2.117 -0.4331  0.1289  0.1498
  813MOL0     C12109   7.528  11.718   1.810  0.3993 -0.3154 -0.2143
  813MOL0     C12110   7.529  11.585   1.763  0.6294  0.4291 -0.6669
  813MOL0     C12111   7.545  11.239   1.534 -0.0315  0.0304  0.3094
  813MOL0     C12112   7.417  11.171   1.533  0.5879  0.2302 -0.2832
  813MOL0     C12113   7.395  11.046   1.473 -0.1956 -0.3002  0.0838
  813MOL0     C12114   7.501  10.975   1.422  0.4302 -1.2854  0.8627
  813MOL0     O12115   7.472  10.852   1.370  0.3836  0.9597 -0.2464
  813MOL0     C12116   7.553  10.796   1.267  0.3041 -0.4485 -0.3916
  813MOL0     C12117   7.462  10.739   1.158  0.2685  0.4575 -0.8095
  813MOL0     C12118   7.382  10.839   1.087 -0.4515  0.4794 -0.4313
  813MOL0     C12119   7.267  10.773   1.010 -0.1033 -0.8177 -0.9228
  813MOL0     C12120   7.319  10.701   0.890 -0.1096  0.5530 -0.6928
  813MOL0     C12121   7.387  10.646   0.801  0.5111  0.6163  0.2627
  813MOL0     C12122   7.630  11.026   1.441 -0.4882 -0.5124 -0.7314
  813MOL0     C12123   7.649  11.153   1.497 -0.6422 -0.1152 -0.2115
  813MOL0     C12124   7.790  11.210   1.476 -0.5288 -1.4716 -0.1330
  813MOL0     H12125   7.871  11.531   1.699  1.3472  1.4935  0.9913
  813MOL0     H12126   7.865  11.772   1.773 -1.7700  1.1043  0.4552
  813MOL0     H12127   7.505  11.995   1.763  0.0474 -1.6248  0.9446
  813MOL0     H12128   7.626  11.954   1.643  3.7457  2.5125 -0.4043
  813MOL0     H12129   7.596  12.189   1.740 -2.8554 -3.5567 -1.4207
  813MOL0     H12130   7.700  12.123   1.874  0.2171 -1.7218  0.7313
  813MOL0     H12131   7.878  12.083   1.720  2.3368  1.1860 -1.9415
  813MOL0     H12132   7.771  12.137   1.583 -2.3006  0.8902  1.1744
  813MOL0     H12133   7.905  12.333   1.636 -3.1074  2.2356 -2.2152
  813MOL0     H12134   7.753  12.358   1.712  2.3253  1.8691 -0.5036
  813MOL0     H12135   7.989  12.241   1.869 -1.7418 -0.5081  3.5878
  813MOL0     H12136   7.843  12.295   1.942 -1.2643  1.8354 -0.2350
  813MOL0     H12137   8.061  12.443   1.909  0.1640  0.3716  0.7485
  813MOL0     H12138   7.983  12.488   1.762  3.3305  2.5126  0.8536
  813MOL0     H12139   7.777  12.514   1.949  1.6064 -1.7921  1.4364
  813MOL0     H12140   7.844  12.626   1.851 -1.9097  0.0513  1.6073
  813MOL0     H12141   7.864  12.682   2.100 -2.3359  1.2331 -4.7781
  813MOL0     H12142   7.963  12.535   2.123  1.3341  2.6531  2.3224
  813MOL0     H12143   8.185  12.633   1.862 -0.5080 -1.5395  0.7484
  813MOL0     H12144   8.382  12.731   1.820 -4.4543 -1.4918  1.6308
  813MOL0     H12145   8.463  12.836   1.946 -0.4341 -2.3646  0.8362
  813MOL0     H12146   8.416  12.909   1.699  1.1054 -1.8165  2.0302
  813MOL0     H12147   8.249  12.932   1.746  1.7884 -3.8149 -4.7958
  813MOL0     H12148   8.309  13.115   1.896  0.3968  0.3136  1.5069
  813MOL0     H12149   8.478  13.087   1.899 -1.6351 -1.2198  2.0966
  813MOL0     H12150   8.321  13.156   1.642 -0.8457 -0.7082  0.0009
  813MOL0     H12151   8.416  13.275   1.747 -0.5216 -0.4527 -0.7135
  813MOL0     H12152   8.715  13.041   1.494 -0.2439  0.6073  2.5294
  813MOL0     H12153   8.941  13.202   1.271 -2.3414  2.1949 -0.0589
  813MOL0     H12154   8.825  13.063   1.245 -0.2333 -0.9976  0.8591
  813MOL0     H12155   8.915  13.086   1.392  0.4969 -1.6088 -1.7227
  813MOL0     H12156   8.671  13.714   1.003  1.6778 -1.3767 -2.1605
  813MOL0     H12157   8.810  13.888   0.923 -2.6270 -0.7014  0.8036
  813MOL0     H12158   9.103  14.051   1.132  2.3357 -0.9446  0.7669
  813MOL0     H12159   9.236  13.958   1.076  1.3927  0.4122 -2.4198
  813MOL0     H12160   9.255  14.110   0.878  0.2576  3.0390  0.0060
  813MOL0     H12161   9.077  14.158   0.908  0.0962  0.8101  0.8517
  813MOL0     H12162   9.271  14.327   0.961  1.4980  1.0170  1.5436
  813MOL0     H12163   9.302  14.217   1.094  1.2796  1.2413 -1.3228
  813MOL0     H12164   9.047  14.260   1.147 -0.0576  0.8703 -0.0932
  813MOL0     H12165   9.066  14.404   1.044 -0.3668  0.4039  0.0912
  813MOL0     H12166   9.221  14.330   1.290 -1.0210  0.0254  1.0710
  813MOL0     H12167   9.256  14.477   1.209 -0.5709  0.6249  1.8615
  813MOL0     H12168   9.045  14.391   1.387  2.2619 -1.1430 -0.5663
  813MOL0     H12169   8.989  14.519   1.267 -0.0228 -0.5777 -0.4077
  813MOL0     H12170   9.249  14.612   1.371 -1.0118  1.5368  0.4092
  813MOL0     H12171   9.200  14.509   1.495  2.5487 -1.9061 -3.4228
  813MOL0     H12172   9.016  14.653   1.566  0.0860 -3.4746 -0.6781
  813MOL0     H12173   9.032  14.764   1.423  0.2271  0.7047 -0.7301
  813MOL0     H12174   9.118  13.776   1.198 -1.0162  1.5405 -0.0484
  813MOL0     H12175   8.975  13.592   1.279  0.3993  0.8518  0.7633
  813MOL0     H12176   8.552  13.488   1.373 -0.2455 -0.9822 -1.0788
  813MOL0     H12177   8.427  13.349   1.538 -0.8136 -1.4178 -0.8272
  813MOL0     H12178   7.443  11.775   1.847  1.5290  0.2551  1.6355
  813MOL0     H12179   7.451  11.515   1.733  2.3032 -0.8754 -2.3085
  813MOL0     H12180   7.332  11.219   1.581  1.9936  2.8158 -0.1977
  813MOL0     H12181   7.294  11.007   1.467  0.1633 -1.4916  1.2567
  813MOL0     H12182   7.619  10.867   1.216 -0.9934 -0.4647 -2.1828
  813MOL0     H12183   7.618  10.715   1.302  4.1257  2.9511  1.2733
  813MOL0     H12184   7.384  10.672   1.193 -0.9864  1.7215 -1.0899
  813MOL0     H12185   7.533  10.688   1.091  3.1877 -1.9847  3.6151
  813MOL0     H12186   7.328  10.896   1.163 -0.9506  0.0732 -0.4741
  813MOL0     H12187   7.449  10.887   1.015 -0.9157  1.2606 -0.3470
  813MOL0     H12188   7.188  10.843   0.979 -1.0573 -1.8947 -0.9800
  813MOL0     H12189   7.222  10.708   1.085 -0.4641 -2.7311 -2.7310
  813MOL0     H12190   7.441  10.603   0.719 -0.3323  1.2922 -0.6745
  813MOL0     H12191   7.714  10.965   1.407  0.3191 -1.5765  2.7884
  813MOL0     H12192   7.800  11.287   1.399  0.6883  0.2672  1.6439
  813MOL0     H12193   7.832  11.261   1.563 -1.7291 -0.0781 -0.3256
  813MOL0     H12194   7.858  11.134   1.438 -0.7650 -1.9195  0.3260
  814MOL0     O12195   2.660   2.816   7.562 -0.1216  0.8754 -0.5704
  814MOL0     C12196   2.607   2.729   7.501 -0.5807  1.5389 -1.2647
  814MOL0     O12197   2.673   2.654   7.407 -0.1030  0.7112 -0.9081
  814MOL0     C12198   2.790   2.699   7.348  0.1659 -0.3817 -0.6911
  814MOL0     C12199   2.877   2.604   7.305  0.1884 -0.0465  0.3007
  814MOL0     C12200   2.990   2.631   7.225  1.0584 -0.7278  0.9513
  814MOL0     C12201   3.009   2.765   7.187 -0.1101 -0.0775  0.3414
  814MOL0     O12202   3.130   2.812   7.127  0.3011 -0.2136 -0.1048
  814MOL0     C12203   3.241   2.721   7.114  0.1103 -0.7138 -1.2324
  814MOL0     C12204   3.365   2.801   7.073 -0.0133 -0.4024 -0.4595
  814MOL0     C12205   3.486   2.709   7.045  0.3324 -0.2296  0.1536
  814MOL0     C12206   3.523   2.613   7.162 -0.0299  0.0448  0.1571
  814MOL0     C12207   3.669   2.571   7.162 -1.3817 -0.0435 -0.0598
  814MOL0     C12208   3.733   2.495   7.050 -0.0505 -1.0682 -0.4121
  814MOL0     C12209   3.674   2.356   7.015 -0.1602  0.3889 -0.0528
  814MOL0     C12210   3.716   2.305   6.871  0.4408  0.1687  0.4829
  814MOL0     N12211   3.640   2.374   6.760  0.8640  0.1467 -0.0253
  814MOL0     C12212   3.499   2.378   6.760  0.5233  0.3040 -1.2783
  814MOL0     C12213   3.478   2.493   6.694  0.1891  1.1426 -0.9637
  814MOL0     C12214   3.342   2.534   6.650 -1.1955  0.3405 -0.2219
  814MOL0     C12215   3.232   2.408   6.665  0.3207 -0.4799  0.4039
  814MOL0     C12216   3.095   2.455   6.598  0.0494 -0.4956 -0.4376
  814MOL0     C12217   3.050   2.578   6.666  0.0470 -1.1364 -0.2446
  814MOL0     O12218   2.921   2.637   6.641 -0.2274 -1.1165 -0.2683
  814MOL0     C12219   2.817   2.601   6.725  0.1032 -0.7085 -0.3365
  814MOL0     C12220   2.711   2.541   6.680 -0.3162 -0.0627  0.0126
  814MOL0     C12221   2.604   2.491   6.752  0.3910 -0.8550  0.0491
  814MOL0     C12222   2.494   2.413   6.678 -0.2025  1.3383  0.1879
  814MOL0     C12223   2.603   2.524   6.885  0.5470 -0.0656 -0.7474
  814MOL0     C12224   2.492   2.475   6.984  0.7272 -0.8852  0.0426
  814MOL0     O12225   2.445   2.342   6.965 -0.3829 -0.9429  0.1533
  814MOL0     C12226   2.387   2.274   7.064  1.3193  0.4871  0.5054
  814MOL0     C12227   2.469   2.187   7.136 -0.1582 -0.1388 -0.2190
  814MOL0     C12228   2.419   2.107   7.240 -0.2498  0.1956 -0.7975
  814MOL0     C12229   2.281   2.127   7.277  0.0221 -1.1835  0.6411
  814MOL0     O12230   2.229   2.076   7.395  0.1399  0.6959  0.4075
  814MOL0     C12231   2.321   2.052   7.502  0.5719  0.3134  0.6687
  814MOL0     C12232   2.250   2.001   7.620  0.5329  0.0109 -1.3974
  814MOL0     C12233   2.152   2.096   7.687 -0.1385  0.0257  1.0244
  814MOL0     C12234   2.101   2.034   7.815  0.3937 -1.0903 -0.2548
  814MOL0     C12235   2.030   2.144   7.889 -1.0484  0.4459 -0.2652
  814MOL0     C12236   1.938   2.091   8.001 -0.2617 -0.5214  0.0346
  814MOL0     C12237   2.015   2.014   8.115 -1.1336  0.2023 -0.1559
  814MOL0     C12238   2.044   1.867   8.089  0.0854 -0.1700 -0.6034
  814MOL0    Cl12239   1.897   1.792   8.038 -0.1104 -0.4318  0.0002
  814MOL0     C12240   2.196   2.202   7.199  0.9661  0.2599 -0.0147
  814MOL0     C12241   2.253   2.271   7.088 -0.2867 -0.1756  0.1948
  814MOL0     O12242   2.481   2.541   7.088 -1.0475 -0.5278  0.5463
  814MOL0     C12243   2.706   2.596   6.943 -0.3697  0.0380 -1.0746
  814MOL0     C12244   2.811   2.633   6.859 -0.8586 -0.8015 -0.3614
  814MOL0     N12245   3.596   2.565   6.679  0.1457  1.0455 -0.4053
  814MOL0     N12246   3.693   2.483   6.708 -1.3256 -0.1673 -0.1078
  814MOL0     C12247   2.919   2.866   7.241 -1.1994  0.1230  0.4104
  814MOL0     C12248   2.811   2.836   7.312 -0.2370  0.0610 -0.8198
  814MOL0     C12249   2.477   2.665   7.541 -0.3008 -0.0469  0.6923
  814MOL0     C12250   2.427   2.558   7.463 -0.5139 -0.3071  0.6809
  814MOL0     C12251   2.319   2.490   7.499  0.1029 -0.2468  0.0110
  814MOL0     C12252   2.233   2.524   7.607 -0.1018 -1.2898 -0.2401
  814MOL0     O12253   2.109   2.469   7.632  0.5075  0.9663 -0.1444
  814MOL0     C12254   2.023   2.526   7.736  0.4531 -0.1721  0.1360
  814MOL0     C12255   1.885   2.465   7.760 -1.0757  0.5218  0.6716
  814MOL0     C12256   1.842   2.390   7.642  0.3710  0.0641 -0.3298
  814MOL0     C12257   1.712   2.314   7.666  0.2179 -0.3303  0.2896
  814MOL0     C12258   1.595   2.404   7.666 -1.1024  0.3711  0.5726
  814MOL0     C12259   1.499   2.477   7.652 -0.8182  0.6200 -0.0665
  814MOL0     C12260   2.280   2.641   7.679 -0.6096 -0.2737 -0.3232
  814MOL0     C12261   2.402   2.708   7.646  0.5257 -0.0079 -0.9731
  814MOL0     C12262   2.452   2.789   7.760  0.3791  0.6834 -0.9095
  814MOL0     H12263   2.846   2.502   7.325 -0.8220 -0.3647 -2.4394
  814MOL0     H12264   3.060   2.557   7.190  1.8619 -0.2234  1.4648
  814MOL0     H12265   3.230   2.642   7.039 -1.4406  2.1930 -4.3706
  814MOL0     H12266   3.261   2.679   7.213  2.3390  0.8196 -0.9475
  814MOL0     H12267   3.356   2.848   6.975 -1.2691 -3.9780 -2.2090
  814MOL0     H12268   3.392   2.872   7.152 -0.0791  0.1369 -0.9172
  814MOL0     H12269   3.470   2.641   6.961  1.4083 -2.0734  1.3634
  814MOL0     H12270   3.575   2.768   7.022  1.3640 -1.6742  0.3237
  814MOL0     H12271   3.499   2.673   7.250  0.2472  2.7969 -1.5467
  814MOL0     H12272   3.472   2.516   7.157 -0.0066 -0.0964  1.9454
  814MOL0     H12273   3.685   2.508   7.250 -1.4365  3.0936  2.3736
  814MOL0     H12274   3.723   2.665   7.181  1.2397 -1.0372 -1.9069
  814MOL0     H12275   3.740   2.559   6.961  0.9532 -1.8656 -0.9301
  814MOL0     H12276   3.830   2.477   7.097  0.8175  3.0507 -0.2582
  814MOL0     H12277   3.565   2.366   7.018 -0.2033  2.4679 -3.0652
  814MOL0     H12278   3.699   2.283   7.092 -3.4493 -1.3789 -0.4718
  814MOL0     H12279   3.823   2.320   6.857  0.2706  1.4135  0.4308
  814MOL0     H12280   3.693   2.198   6.875  0.0446  0.2154 -0.2326
  814MOL0     H12281   3.427   2.309   6.802  0.4675  0.3244 -1.3416
  814MOL0     H12282   3.362   2.571   6.549 -1.6778 -1.5417 -1.0465
  814MOL0     H12283   3.317   2.616   6.718 -2.9151 -0.7101  0.4931
  814MOL0     H12284   3.262   2.318   6.612 -0.7378 -0.5040 -0.1799
  814MOL0     H12285   3.213   2.381   6.769  1.2740  0.1750  0.7593
  814MOL0     H12286   3.103   2.475   6.490  1.0111  1.8022  0.0009
  814MOL0     H12287   3.013   2.383   6.600  0.6037 -1.1358  0.7044
  814MOL0     H12288   3.067   2.562   6.773 -2.0769  4.6737  1.3470
  814MOL0     H12289   3.119   2.653   6.626  1.1269 -3.0270 -2.1461
  814MOL0     H12290   2.710   2.502   6.579  0.9116 -3.8725  1.2813
  814MOL0     H12291   2.490   2.430   6.570  1.8620 -1.9755 -0.5540
  814MOL0     H12292   2.391   2.432   6.711 -0.4365 -0.3637  0.5419
  814MOL0     H12293   2.511   2.307   6.702 -0.7126  1.0203 -0.7864
  814MOL0     H12294   2.574   2.179   7.107 -0.3788 -1.5133 -0.7141
  814MOL0     H12295   2.489   2.043   7.293  0.7304  2.8023  1.3296
  814MOL0     H12296   2.393   1.975   7.473 -1.4413 -1.3998 -0.0619
  814MOL0     H12297   2.356   2.155   7.513  0.1471  1.1029 -3.5594
  814MOL0     H12298   2.201   1.914   7.575  0.8950 -0.8116 -0.2738
  814MOL0     H12299   2.326   1.961   7.688 -0.2194  1.4081  0.3580
  814MOL0     H12300   2.062   2.116   7.628 -0.6235 -0.9426  1.4171
  814MOL0     H12301   2.201   2.193   7.701 -0.1261  0.2856 -0.5742
  814MOL0     H12302   2.191   2.001   7.868  0.6385 -2.6914 -1.5644
  814MOL0     H12303   2.031   1.952   7.799 -2.5616  1.5557 -1.9144
  814MOL0     H12304   2.101   2.214   7.934 -1.4582  0.5533  0.2199
  814MOL0     H12305   1.972   2.192   7.809  0.7182  1.9297 -0.7193
  814MOL0     H12306   1.854   2.035   7.960 -0.1059 -0.2458 -0.6687
  814MOL0     H12307   1.899   2.181   8.048  0.2164  1.3266 -2.8593
  814MOL0     H12308   1.967   2.022   8.213 -1.1440  1.1292 -0.2239
  814MOL0     H12309   2.110   2.060   8.142  0.2171 -0.9421 -2.7011
  814MOL0     H12310   2.087   1.823   8.179 -4.4278  0.0299  1.9344
  814MOL0     H12311   2.114   1.856   8.005 -1.3759 -2.5147 -1.6106
  814MOL0     H12312   2.092   2.218   7.226 -0.0982 -3.5684 -1.2165
  814MOL0     H12313   2.192   2.333   7.024  0.8796 -1.9713 -2.8464
  814MOL0     H12314   2.701   2.623   7.048 -0.3991  0.1493 -1.1049
  814MOL0     H12315   2.891   2.693   6.901  0.9757 -3.0210 -0.4907
  814MOL0     H12316   2.939   2.969   7.213 -2.0549 -0.3386 -2.2150
  814MOL0     H12317   2.740   2.915   7.335  0.1683 -0.1177  1.1844
  814MOL0     H12318   2.473   2.529   7.369 -2.3993 -0.4677 -0.2546
  814MOL0     H12319   2.271   2.407   7.449 -2.1311  1.0516 -0.1347
  814MOL0     H12320   2.077   2.523   7.831  0.4837 -1.4007  0.0979
  814MOL0     H12321   1.999   2.626   7.701 -1.3740 -1.7365 -3.6417
  814MOL0     H12322   1.806   2.531   7.794 -3.4670 -2.1085  0.6006
  814MOL0     H12323   1.901   2.396   7.843  1.6390  1.0568  0.7012
  814MOL0     H12324   1.845   2.459   7.557  0.2660 -3.3482 -3.3056
  814MOL0     H12325   1.922   2.326   7.604 -0.5414 -0.3891 -1.5338
  814MOL0     H12326   1.708   2.261   7.761 -1.4230 -0.3962  0.2190
  814MOL0     H12327   1.690   2.238   7.590 -0.4164 -0.1506  0.2866
  814MOL0     H12328   1.415   2.542   7.643 -1.7437 -0.6206 -0.6005
  814MOL0     H12329   2.230   2.668   7.772  0.9646 -1.2741  0.8477
  814MOL0     H12330   2.493   2.884   7.725  0.9179  0.1697 -1.6906
  814MOL0     H12331   2.383   2.805   7.843 -0.6217 -1.6515 -1.2123
  814MOL0     H12332   2.537   2.732   7.797 -0.6509  0.3525  1.1197
  815MOL0     O12333   1.353   9.325   7.290  0.7656 -0.0425 -0.2131
  815MOL0     C12334   1.301   9.264   7.389  1.0049  0.9078 -0.0451
  815MOL0     O12335   1.320   9.301   7.521  0.3514 -1.3309 -0.3610
  815MOL0     C12336   1.404   9.408   7.559  0.4468 -0.4508 -0.5568
  815MOL0     C12337   1.436   9.537   7.494  1.2328  0.5127  0.2894
  815MOL0     C12338   1.512   9.640   7.560  0.5606 -0.1269 -0.3066
  815MOL0     C12339   1.548   9.621   7.702  0.8911  0.7994 -0.2110
  815MOL0     O12340   1.622   9.723   7.764  1.1222 -0.7871 -0.7899
  815MOL0     C12341   1.631   9.723   7.905  0.2744  0.0800 -0.4351
  815MOL0     C12342   1.562   9.853   7.962  0.3483 -0.9042  0.2239
  815MOL0     C12343   1.446   9.911   7.872 -0.4813  0.2795  0.6467
  815MOL0     C12344   1.396  10.049   7.927  0.2649 -1.7249 -0.0441
  815MOL0     C12345   1.274  10.103   7.860 -0.2283  0.0067  0.4757
  815MOL0     C12346   1.283  10.137   7.711  0.4346 -0.2693  0.5041
  815MOL0     C12347   1.147  10.189   7.664  0.0842 -0.0870 -0.1883
  815MOL0     C12348   1.117  10.326   7.737 -0.1555 -0.0610 -0.4655
  815MOL0     N12349   1.012  10.397   7.658 -0.8600 -0.0620  0.5621
  815MOL0     C12350   0.894  10.441   7.700 -1.0820 -0.3300  0.1994
  815MOL0     C12351   0.858  10.533   7.610  0.1801 -0.2016 -0.1128
  815MOL0     C12352   0.717  10.601   7.595 -0.2904  0.0723  0.6632
  815MOL0     C12353   0.651  10.558   7.461  0.8581 -0.3729 -0.3633
  815MOL0     C12354   0.518  10.630   7.446 -0.5180 -0.4569  0.1787
  815MOL0     C12355   0.434  10.612   7.321  0.7682  1.3450  0.6915
  815MOL0     O12356   0.405  10.467   7.302  0.5566 -0.5700 -0.5235
  815MOL0     C12357   0.369  10.428   7.181  0.0827 -0.1353  0.3500
  815MOL0     C12358   0.349  10.511   7.066 -0.4572 -0.2796 -0.1838
  815MOL0     C12359   0.274  10.468   6.948 -0.8757  1.0626 -0.6264
  815MOL0     C12360   0.252  10.566   6.843 -0.5745 -0.4697  0.3927
  815MOL0     C12361   0.242  10.328   6.945 -0.9722  0.6239 -0.1860
  815MOL0     C12362   0.180  10.258   6.829 -0.0627 -0.0471 -1.1191
  815MOL0     O12363   0.197  10.127   6.821  0.4613 -0.4557  0.1145
  815MOL0     C12364   0.124  10.060   6.723  0.8202 -0.9664  0.1380
  815MOL0     C12365   0.194  10.021   6.608  0.3128  0.2747 -0.0872
  815MOL0     C12366   0.121   9.957   6.507 -0.2021  0.5315 -0.2686
  815MOL0     C12367  -0.017   9.917   6.522  0.6401  0.2166 -0.6586
  815MOL0     O12368  -0.068   9.820   6.440  0.5117 -0.0757  0.0864
  815MOL0     C12369  -0.199   9.775   6.469  0.6185 -0.9432  0.2306
  815MOL0     C12370  -0.236   9.662   6.369  0.3789 -0.0192  0.6885
  815MOL0     C12371  -0.163   9.530   6.393 -0.2836 -1.0448  0.2316
  815MOL0     C12372  -0.181   9.428   6.279  0.4449 -0.8491 -0.2671
  815MOL0     C12373  -0.089   9.312   6.305 -0.2309  0.8518  0.1579
  815MOL0     C12374  -0.044   9.255   6.184 -0.1900 -0.3711  1.5013
  815MOL0     C12375  -0.157   9.180   6.112  0.1316  0.9553 -0.4307
  815MOL0     C12376  -0.148   9.198   5.964 -0.3076  0.1820  1.1229
  815MOL0    Cl12377   0.020   9.167   5.899  0.0927 -0.0048  0.1470
  815MOL0     C12378  -0.083   9.962   6.637 -0.2175 -0.8041  0.1651
  815MOL0     C12379  -0.015  10.038   6.728  0.4878  0.4495 -0.7904
  815MOL0     O12380   0.109  10.323   6.753  0.2091  0.5052 -0.0999
  815MOL0     C12381   0.269  10.248   7.053 -1.0848 -0.4978 -0.8429
  815MOL0     C12382   0.337  10.292   7.166  0.5476 -0.3948  0.4558
  815MOL0     N12383   0.950  10.540   7.506 -0.2662 -0.6404  0.9011
  815MOL0     N12384   1.041  10.450   7.538 -0.4975 -0.0992  0.2619
  815MOL0     C12385   1.512   9.492   7.761 -0.1246 -0.2218 -0.6812
  815MOL0     C12386   1.451   9.392   7.689 -0.0564 -0.0276 -0.3693
  815MOL0     C12387   1.219   9.140   7.362  0.5715 -0.2722  0.6135
  815MOL0     C12388   1.194   9.056   7.478 -0.0032 -0.9363  0.4002
  815MOL0     C12389   1.110   8.952   7.471  0.1953  0.4235  0.3687
  815MOL0     C12390   1.062   8.913   7.348  0.3533  0.8109  0.7294
  815MOL0     O12391   0.964   8.817   7.352  0.3654 -0.3483 -0.2686
  815MOL0     C12392   0.890   8.776   7.236 -0.7467 -0.1102 -0.5108
  815MOL0     C12393   0.738   8.747   7.256  0.6698 -0.0248 -0.1985
  815MOL0     C12394   0.658   8.875   7.274 -0.3560  0.4186  0.2112
  815MOL0     C12395   0.687   9.003   7.197 -0.1397 -0.6391 -0.9133
  815MOL0     C12396   0.763   9.104   7.270 -0.3416  0.3815  0.6777
  815MOL0     C12397   0.835   9.177   7.338 -0.7220  0.2794  0.3069
  815MOL0     C12398   1.098   8.983   7.228 -1.0169  0.4013 -0.0903
  815MOL0     C12399   1.168   9.103   7.239  0.7385  0.7868  0.6495
  815MOL0     C12400   1.182   9.190   7.115 -0.4929 -0.2144  0.3011
  815MOL0     H12401   1.415   9.549   7.388  1.4516 -2.9273 -0.2763
  815MOL0     H12402   1.527   9.732   7.506  0.1937 -1.8701 -3.6440
  815MOL0     H12403   1.737   9.718   7.928 -0.2145 -3.1560  1.7541
  815MOL0     H12404   1.590   9.634   7.954  0.2477 -0.6742 -1.7830
  815MOL0     H12405   1.516   9.825   8.057 -2.4204 -0.4731 -0.8987
  815MOL0     H12406   1.620   9.945   7.979 -4.3285  2.6558 -0.7586
  815MOL0     H12407   1.496   9.935   7.777  1.3025 -0.1455  1.4357
  815MOL0     H12408   1.356   9.852   7.852  0.5974 -0.3671 -3.0838
  815MOL0     H12409   1.377  10.025   8.032  0.7759 -3.2642 -0.2692
  815MOL0     H12410   1.466  10.132   7.917 -1.1789 -0.4500  0.2018
  815MOL0     H12411   1.261  10.195   7.919 -1.3914 -0.7393  1.4223
  815MOL0     H12412   1.183  10.045   7.877 -1.5707  1.7893 -0.1593
  815MOL0     H12413   1.362  10.212   7.695 -1.8347  1.7499 -2.1469
  815MOL0     H12414   1.303  10.043   7.659  1.3193 -0.3420  0.9533
  815MOL0     H12415   1.080  10.112   7.703  1.9820 -0.5003  2.5048
  815MOL0     H12416   1.138  10.189   7.555  2.9672 -0.3383 -0.5030
  815MOL0     H12417   1.091  10.301   7.840 -0.4257  2.2812  0.1029
  815MOL0     H12418   1.199  10.396   7.753 -2.1610  2.1259  1.1416
  815MOL0     H12419   0.833  10.416   7.786 -0.6303  3.1477  1.6936
  815MOL0     H12420   0.722  10.710   7.591  2.1414 -0.0106  0.1631
  815MOL0     H12421   0.655  10.561   7.676  0.7352 -0.9596  0.9626
  815MOL0     H12422   0.713  10.595   7.380 -0.0079 -0.8928 -1.2867
  815MOL0     H12423   0.643  10.449   7.469 -2.5932 -0.1132  2.9719
  815MOL0     H12424   0.452  10.610   7.531  1.3814 -0.3368  1.7218
  815MOL0     H12425   0.534  10.738   7.448  3.1846 -0.6483 -3.6827
  815MOL0     H12426   0.336  10.662   7.318 -1.1811 -2.1738 -2.9745
  815MOL0     H12427   0.492  10.657   7.241 -1.5921  1.8436 -0.8292
  815MOL0     H12428   0.371  10.617   7.059  0.6996 -0.3019  2.2522
  815MOL0     H12429   0.145  10.553   6.821 -0.0278 -4.1607 -0.8730
  815MOL0     H12430   0.309  10.540   6.753 -0.5284  1.3391 -0.1287
  815MOL0     H12431   0.276  10.667   6.877  0.0024 -1.0668  1.8145
  815MOL0     H12432   0.299  10.043   6.589  0.6474 -2.3459 -1.8641
  815MOL0     H12433   0.174   9.919   6.420  0.1002  0.9398 -0.2652
  815MOL0     H12434  -0.194   9.737   6.572  1.0245 -1.2611  0.0952
  815MOL0     H12435  -0.279   9.849   6.457 -0.7989 -2.0901  1.9846
  815MOL0     H12436  -0.341   9.637   6.383 -0.6782  1.2697 -3.3744
  815MOL0     H12437  -0.224   9.696   6.265  0.9045 -2.0507  0.0358
  815MOL0     H12438  -0.200   9.492   6.489 -2.8338  0.7052  0.0339
  815MOL0     H12439  -0.057   9.554   6.405 -0.9524  0.8316  3.3431
  815MOL0     H12440  -0.161   9.470   6.181  2.7421 -3.0813 -0.8929
  815MOL0     H12441  -0.286   9.401   6.265 -0.5502 -0.8297  4.9214
  815MOL0     H12442   0.006   9.341   6.351 -0.2646 -0.8148  1.3926
  815MOL0     H12443  -0.137   9.229   6.359  0.0320  1.5412  1.4840
  815MOL0     H12444   0.039   9.185   6.197  0.1204 -0.4477 -0.5141
  815MOL0     H12445  -0.004   9.333   6.119  3.2499 -0.3092  3.4681
  815MOL0     H12446  -0.252   9.208   6.157 -0.2293 -0.2428 -0.4322
  815MOL0     H12447  -0.161   9.071   6.120 -1.6398  0.9056 -1.4963
  815MOL0     H12448  -0.165   9.305   5.952  3.6883  0.9674  1.2231
  815MOL0     H12449  -0.204   9.115   5.920  0.6501 -1.1184  2.2791
  815MOL0     H12450  -0.182   9.935   6.670  1.3906 -1.0171  5.8691
  815MOL0     H12451  -0.072  10.081   6.810  0.8571  2.7493 -1.6734
  815MOL0     H12452   0.251  10.141   7.051 -0.4028 -0.6994  1.5570
  815MOL0     H12453   0.362  10.225   7.248  4.1535  0.2001  0.0359
  815MOL0     H12454   1.526   9.457   7.863  0.1219 -2.3079 -1.3906
  815MOL0     H12455   1.432   9.297   7.738  0.1841 -1.1082 -2.3167
  815MOL0     H12456   1.239   9.069   7.576  3.6100 -0.0982 -1.2386
  815MOL0     H12457   1.080   8.885   7.551 -0.4502  0.4364  0.1494
  815MOL0     H12458   0.903   8.856   7.163 -1.6309  1.5908  1.1318
  815MOL0     H12459   0.937   8.685   7.196  0.6950 -0.4224  1.7099
  815MOL0     H12460   0.724   8.677   7.339  0.5948  1.7132  1.3049
  815MOL0     H12461   0.694   8.703   7.165 -0.6292 -0.3832  0.5816
  815MOL0     H12462   0.560   8.845   7.235  0.1836  0.7912 -1.4841
  815MOL0     H12463   0.648   8.889   7.382 -2.0527  4.7258 -0.2873
  815MOL0     H12464   0.595   9.048   7.159 -0.5311 -2.7354 -2.6846
  815MOL0     H12465   0.737   8.987   7.101 -0.7520  1.7165 -1.6829
  815MOL0     H12466   0.904   9.247   7.382  0.8612  0.5073 -2.3486
  815MOL0     H12467   1.067   8.952   7.129  1.1584 -0.5191 -0.5483
  815MOL0     H12468   1.275   9.163   7.064  0.3056  0.4392  1.3573
  815MOL0     H12469   1.104   9.170   7.042  0.6730  2.3453 -1.8331
  815MOL0     H12470   1.190   9.298   7.135  0.1721 -0.6303  2.5887
  816MOL0     O12471  10.384   8.424   1.337 -0.5815 -0.5894 -0.6608
  816MOL0     C12472  10.438   8.513   1.279 -0.1319 -0.1324 -0.0021
  816MOL0     O12473  10.485   8.500   1.152 -0.5737  0.3736 -0.6544
  816MOL0     C12474  10.440   8.404   1.072 -0.1184 -0.5288 -0.1013
  816MOL0     C12475  10.316   8.340   1.080 -0.1962 -0.4338 -0.2883
  816MOL0     C12476  10.278   8.248   0.984  0.2417  0.1376  0.1449
  816MOL0     C12477  10.368   8.208   0.890 -0.1805  0.4149 -0.9374
  816MOL0     O12478  10.335   8.130   0.790 -0.7766  1.0980 -0.3828
  816MOL0     C12479  10.304   7.989   0.820  0.5023  0.2435  0.1282
  816MOL0     C12480  10.163   7.949   0.791  0.7128  0.2426  0.0176
  816MOL0     C12481  10.153   7.796   0.740 -0.1455 -0.6577 -0.8223
  816MOL0     C12482  10.011   7.740   0.735  0.0997 -0.0669 -0.7214
  816MOL0     C12483   9.930   7.846   0.662  0.5317  0.7706  0.3289
  816MOL0     C12484   9.796   7.798   0.608  0.6912  0.0629  0.1379
  816MOL0     C12485   9.809   7.699   0.486  0.3420  0.4024 -1.2066
  816MOL0     C12486   9.821   7.774   0.358  0.3346 -0.6561 -0.9547
  816MOL0     N12487   9.862   7.690   0.249  0.4016  0.4243 -0.2657
  816MOL0     C12488   9.985   7.700   0.180  0.1878 -0.0326  1.0413
  816MOL0     C12489   9.987   7.597   0.092 -0.1683  0.5886  0.7629
  816MOL0     C12490  10.101   7.581  -0.008 -0.7378  0.6093 -0.3308
  816MOL0     C12491  10.064   7.637  -0.144  0.2600 -0.5234  0.1881
  816MOL0     C12492  10.183   7.641  -0.245  0.8040  0.7710  0.0555
  816MOL0     C12493  10.228   7.504  -0.297  0.2578 -0.4400  0.3256
  816MOL0     O12494  10.294   7.440  -0.183  0.1013  0.1076 -0.1145
  816MOL0     C12495  10.348   7.316  -0.218 -0.4046 -0.2919 -0.4644
  816MOL0     C12496  10.291   7.199  -0.154 -1.4847 -0.7408  0.3992
  816MOL0     C12497  10.337   7.070  -0.181  0.0872 -0.5636 -0.6826
  816MOL0     C12498  10.286   6.964  -0.083 -0.2728 -0.1150 -0.1291
  816MOL0     C12499  10.437   7.044  -0.270 -0.1538 -0.2977  0.3125
  816MOL0     C12500  10.491   6.909  -0.308 -0.0009  0.0429 -0.4885
  816MOL0     O12501  10.605   6.909  -0.379 -0.6066  0.7981 -0.9161
  816MOL0     C12502  10.641   6.788  -0.441  0.0842 -0.1301  0.6610
  816MOL0     C12503  10.780   6.752  -0.448 -0.0513 -0.6926  0.4690
  816MOL0     C12504  10.818   6.635  -0.509  0.0393  0.0443 -0.3861
  816MOL0     C12505  10.725   6.553  -0.568  0.1235  0.1068 -0.0081
  816MOL0     O12506  10.762   6.429  -0.619 -0.0644  0.1064 -0.1916
  816MOL0     C12507  10.691   6.376  -0.732 -0.1489  0.7252  1.2124
  816MOL0     C12508  10.602   6.254  -0.709 -0.6203  0.1544 -0.3068
  816MOL0     C12509  10.672   6.129  -0.643  0.1238 -0.8313 -0.5655
  816MOL0     C12510  10.776   6.061  -0.727  0.4262 -0.4996  0.3429
  816MOL0     C12511  10.922   6.108  -0.746 -0.2221  0.3951 -0.4749
  816MOL0     C12512  10.977   6.147  -0.596 -0.2296 -0.2003 -0.2377
  816MOL0     C12513  11.126   6.096  -0.586 -0.0996  0.5041 -1.2787
  816MOL0     C12514  11.137   5.948  -0.556 -0.4026  0.1705 -0.1541
  816MOL0    Cl12515  11.144   5.900  -0.384  0.0186 -0.6104 -0.3667
  816MOL0     C12516  10.592   6.592  -0.568 -0.1378  0.5744  1.0711
  816MOL0     C12517  10.551   6.704  -0.506 -0.4020 -0.3000 -0.2092
  816MOL0     O12518  10.421   6.809  -0.283  0.3558  0.0428 -0.2171
  816MOL0     C12519  10.499   7.160  -0.329 -0.3515 -0.1866  0.6268
  816MOL0     C12520  10.455   7.289  -0.302  0.0916 -0.6878 -0.0129
  816MOL0     N12521   9.870   7.519   0.112  0.4601 -0.1371  0.1539
  816MOL0     N12522   9.798   7.578   0.200  0.4070  0.4520  0.2472
  816MOL0     C12523  10.486   8.279   0.885  0.4496  0.1147 -0.1846
  816MOL0     C12524  10.528   8.371   0.975 -0.5691 -1.3603  0.4166
  816MOL0     C12525  10.472   8.642   1.339 -0.1331 -0.1257  0.1255
  816MOL0     C12526  10.522   8.635   1.465  0.2619  0.3467 -0.0677
  816MOL0     C12527  10.559   8.751   1.532 -0.0559 -0.3592  0.1456
  816MOL0     C12528  10.561   8.876   1.472  0.0119  0.0160  0.4337
  816MOL0     O12529  10.616   8.984   1.538  0.9550  0.5287 -0.2840
  816MOL0     C12530  10.625   9.119   1.474  0.3712  0.4356  0.2579
  816MOL0     C12531  10.695   9.210   1.572 -0.9359  0.3232 -0.6154
  816MOL0     C12532  10.600   9.233   1.696 -0.6692 -0.4085  0.3207
  816MOL0     C12533  10.685   9.280   1.826  0.0680 -0.4398  1.2737
  816MOL0     C12534  10.789   9.380   1.799 -0.2907 -0.2428 -1.3846
  816MOL0     C12535  10.875   9.464   1.788 -0.0287 -0.2541  1.0748
  816MOL0     C12536  10.502   8.887   1.350  0.1002  0.9342  0.2161
  816MOL0     C12537  10.459   8.767   1.273 -0.1416 -0.9286 -0.1465
  816MOL0     C12538  10.397   8.790   1.137  0.0675 -0.8800  0.5871
  816MOL0     H12539  10.240   8.371   1.151 -2.2956 -2.0861 -1.6980
  816MOL0     H12540  10.177   8.210   0.969  1.5839 -3.9162  0.2119
  816MOL0     H12541  10.323   7.966   0.925  3.6084 -0.5244 -0.4798
  816MOL0     H12542  10.372   7.914   0.779 -0.4155 -0.0753 -0.8425
  816MOL0     H12543  10.088   7.984   0.862  2.0100  3.0154  0.1394
  816MOL0     H12544  10.142   8.017   0.708 -0.3055  1.7826  1.4721
  816MOL0     H12545  10.199   7.784   0.642  1.5129 -1.3228 -0.0043
  816MOL0     H12546  10.215   7.738   0.809 -1.4605 -0.7384  0.3261
  816MOL0     H12547  10.009   7.642   0.686 -4.6430 -0.8829  0.5735
  816MOL0     H12548   9.973   7.728   0.837  0.8108 -1.3012 -0.5850
  816MOL0     H12549   9.994   7.876   0.578  0.8933 -0.6722  0.0657
  816MOL0     H12550   9.906   7.926   0.733 -0.6118 -1.6046  2.7824
  816MOL0     H12551   9.741   7.736   0.680 -1.0201 -0.1054 -1.2131
  816MOL0     H12552   9.722   7.874   0.580  0.4957 -0.7087 -1.6305
  816MOL0     H12553   9.732   7.623   0.501  0.3696 -0.0610 -3.2102
  816MOL0     H12554   9.900   7.637   0.494 -0.2273 -0.5289 -1.7664
  816MOL0     H12555   9.735   7.832   0.326 -0.0230  0.4948  1.8258
  816MOL0     H12556   9.906   7.842   0.366 -1.1148  1.0165  1.4536
  816MOL0     H12557  10.070   7.765   0.197 -1.3975  2.1459  1.1636
  816MOL0     H12558  10.110   7.473  -0.024  0.7027  0.4444  1.3574
  816MOL0     H12559  10.194   7.623   0.032 -1.2607 -0.6544  2.4394
  816MOL0     H12560   9.984   7.577  -0.190  1.1682 -0.6753 -1.2725
  816MOL0     H12561  10.024   7.738  -0.133 -2.7643 -1.5922 -0.0090
  816MOL0     H12562  10.140   7.702  -0.325  0.6868  2.9710  1.7048
  816MOL0     H12563  10.267   7.698  -0.202  0.0273  1.6754  0.4024
  816MOL0     H12564  10.143   7.445  -0.334  1.0931 -0.0030 -2.5504
  816MOL0     H12565  10.295   7.506  -0.383  0.3828  3.0719  0.3673
  816MOL0     H12566  10.194   7.224  -0.111 -2.3825 -3.8400  0.4057
  816MOL0     H12567  10.208   7.007  -0.020 -1.2636  1.1301 -2.1182
  816MOL0     H12568  10.361   6.920  -0.016  1.3560  0.5265 -1.4603
  816MOL0     H12569  10.239   6.880  -0.136  0.5269 -2.2726  2.3590
  816MOL0     H12570  10.862   6.818  -0.422 -1.8706  2.7319 -1.6531
  816MOL0     H12571  10.922   6.610  -0.527  1.4049  4.7165 -0.3880
  816MOL0     H12572  10.633   6.456  -0.780  0.9753  1.9622  1.8271
  816MOL0     H12573  10.765   6.337  -0.804 -3.9349 -3.7708 -0.7448
  816MOL0     H12574  10.518   6.292  -0.649 -1.3138 -0.2553 -1.0027
  816MOL0     H12575  10.563   6.215  -0.803  2.4514 -1.7538 -0.8993
  816MOL0     H12576  10.590   6.060  -0.621 -0.5617  0.3349  0.7065
  816MOL0     H12577  10.716   6.156  -0.546 -1.9426  0.5878  0.0473
  816MOL0     H12578  10.734   6.043  -0.827 -1.8723  1.6420  0.8021
  816MOL0     H12579  10.783   5.965  -0.676 -1.0385 -0.5852  0.4106
  816MOL0     H12580  10.970   6.026  -0.800  0.2335  0.0216  0.4599
  816MOL0     H12581  10.917   6.195  -0.812  0.0686 -1.1405 -2.5993
  816MOL0     H12582  10.918   6.104  -0.515 -0.1110  1.5573  0.8265
  816MOL0     H12583  10.968   6.256  -0.593 -1.1886 -0.1870 -1.8976
  816MOL0     H12584  11.165   6.158  -0.505 -0.5374  2.2968 -2.3768
  816MOL0     H12585  11.183   6.124  -0.675  1.6500  0.3025 -0.2559
  816MOL0     H12586  11.205   5.901  -0.628 -3.0983 -1.5995 -1.7719
  816MOL0     H12587  11.047   5.903  -0.600 -0.5702 -0.0416  0.3960
  816MOL0     H12588  10.519   6.530  -0.620 -1.0207 -0.2813  3.2195
  816MOL0     H12589  10.444   6.722  -0.511  0.0963  2.9558 -0.7890
  816MOL0     H12590  10.589   7.156  -0.389 -1.0211  2.7151 -0.7655
  816MOL0     H12591  10.515   7.373  -0.335  1.7605 -2.0841 -0.7097
  816MOL0     H12592  10.554   8.253   0.805  1.2234  0.5254  0.3263
  816MOL0     H12593  10.617   8.432   0.961 -0.8481 -1.2943 -1.2404
  816MOL0     H12594  10.529   8.540   1.516 -1.5828 -0.2215 -0.7868
  816MOL0     H12595  10.588   8.758   1.637 -0.0566  2.5795  0.0279
  816MOL0     H12596  10.667   9.107   1.373  2.3322  2.3815  0.7520
  816MOL0     H12597  10.527   9.161   1.450 -0.6465 -2.0993 -0.3217
  816MOL0     H12598  10.718   9.309   1.530 -0.8589 -0.4172 -2.4496
  816MOL0     H12599  10.785   9.159   1.608  0.2985  4.7029  3.4860
  816MOL0     H12600  10.527   9.310   1.670  0.4918  0.7050  0.2746
  816MOL0     H12601  10.548   9.139   1.718  1.1766 -1.8066 -0.9524
  816MOL0     H12602  10.724   9.194   1.883  0.7659 -1.6351 -0.8840
  816MOL0     H12603  10.613   9.340   1.882 -1.4083 -1.3420  0.4054
  816MOL0     H12604  10.937   9.547   1.759 -0.8193  0.4022  1.2384
  816MOL0     H12605  10.483   8.984   1.305  1.2492  1.7427  1.4016
  816MOL0     H12606  10.314   8.861   1.146 -1.7266 -2.2327 -3.0470
  816MOL0     H12607  10.467   8.843   1.071 -0.8365  2.3530  2.0353
  816MOL0     H12608  10.362   8.707   1.076 -2.5753  1.3428 -1.1587
  817MOL0     O12609  10.650   0.580   6.890 -0.8880  0.2984  0.1104
  817MOL0     C12610  10.771   0.582   6.933  0.1423 -0.2785  0.2645
  817MOL0     O12611  10.843   0.477   6.980  0.6160 -0.4800 -0.0165
  817MOL0     C12612  10.796   0.354   7.007  0.0066 -0.1297  0.7844
  817MOL0     C12613  10.760   0.311   7.136 -0.1817  0.7042 -0.5945
  817MOL0     C12614  10.717   0.182   7.161 -0.0822  0.9182 -0.0025
  817MOL0     C12615  10.707   0.088   7.063  0.0329 -0.1102  0.2603
  817MOL0     O12616  10.671  -0.043   7.087 -0.9195  0.0425 -0.1598
  817MOL0     C12617  10.720  -0.101   7.210  0.5607 -0.3100  0.2057
  817MOL0     C12618  10.870  -0.093   7.237 -0.7608  0.2087  0.3318
  817MOL0     C12619  10.955  -0.132   7.115  0.4003  0.7759 -0.4129
  817MOL0     C12620  10.959  -0.278   7.098  0.1234  0.3132  0.5218
  817MOL0     C12621  11.059  -0.326   6.991 -0.2258 -0.2240  0.0105
  817MOL0     C12622  11.025  -0.459   6.927  0.2642 -0.6470 -0.6502
  817MOL0     C12623  11.004  -0.443   6.769  0.1181  0.5253  0.1923
  817MOL0     C12624  10.951  -0.576   6.708 -0.3296 -0.5167 -0.1774
  817MOL0     N12625  10.822  -0.616   6.758 -0.0022  0.4940 -0.1211
  817MOL0     C12626  10.723  -0.524   6.799  0.7083  0.1980 -0.0005
  817MOL0     C12627  10.618  -0.598   6.841  0.1991 -0.4509  0.2153
  817MOL0     C12628  10.476  -0.554   6.868 -0.7706 -0.0183 -0.1132
  817MOL0     C12629  10.469  -0.451   6.978  0.7403 -0.1239 -0.2124
  817MOL0     C12630  10.522  -0.500   7.118  0.1556 -0.7120 -0.0906
  817MOL0     C12631  10.447  -0.425   7.240 -0.2773  0.5148  0.4863
  817MOL0     O12632  10.320  -0.489   7.277 -0.3744  0.5002  0.9187
  817MOL0     C12633  10.263  -0.478   7.396 -0.0258 -0.8323  0.6300
  817MOL0     C12634  10.162  -0.562   7.427  1.0080 -0.1639  0.1268
  817MOL0     C12635  10.095  -0.569   7.553 -0.2236 -0.3085 -0.4661
  817MOL0     C12636   9.989  -0.678   7.567  0.3679 -0.0591 -0.2164
  817MOL0     C12637  10.145  -0.481   7.654  0.8520  0.3288 -0.8856
  817MOL0     C12638  10.099  -0.473   7.798 -0.5611  0.1758  0.7547
  817MOL0     O12639   9.966  -0.495   7.825 -0.0178  0.1366  0.3959
  817MOL0     C12640   9.909  -0.507   7.950 -0.4141 -0.6181 -0.1096
  817MOL0     C12641   9.781  -0.449   7.969  0.6355  1.0064  1.2263
  817MOL0     C12642   9.736  -0.437   8.098  0.2368  0.4930  0.0746
  817MOL0     C12643   9.810  -0.484   8.210 -0.3675 -0.3307 -0.9054
  817MOL0     O12644   9.761  -0.483   8.340  0.3286  0.0430  0.4542
  817MOL0     C12645   9.719  -0.354   8.376 -0.5802 -0.5989  0.0749
  817MOL0     C12646   9.705  -0.374   8.526 -0.4292  0.1086  0.2354
  817MOL0     C12647   9.669  -0.243   8.603 -0.9208  1.4063  0.8359
  817MOL0     C12648   9.526  -0.244   8.647 -0.6780  0.5781 -0.4284
  817MOL0     C12649   9.498  -0.108   8.729 -0.0320 -0.8650 -0.1649
  817MOL0     C12650   9.348  -0.101   8.770  0.0226  0.8779 -0.2283
  817MOL0     C12651   9.309   0.023   8.843 -0.7731  0.5340  0.0174
  817MOL0     C12652   9.296   0.147   8.763 -0.1928  0.3825 -0.6800
  817MOL0    Cl12653   9.262   0.298   8.857  0.6669  0.5151 -0.1198
  817MOL0     C12654   9.936  -0.535   8.183 -0.4948  0.2235  0.7249
  817MOL0     C12655   9.984  -0.554   8.062  0.0163 -0.2320 -0.0470
  817MOL0     O12656  10.186  -0.455   7.881 -0.6041 -0.3640  0.2210
  817MOL0     C12657  10.257  -0.395   7.618 -0.2160  0.3434 -0.4604
  817MOL0     C12658  10.320  -0.391   7.491 -0.1501 -0.5963 -0.3541
  817MOL0     N12659  10.649  -0.732   6.826  0.0256  0.5809  0.2393
  817MOL0     N12660  10.771  -0.736   6.782 -0.7688  0.7264 -0.0233
  817MOL0     C12661  10.737   0.129   6.929  0.7261  0.4362 -0.1796
  817MOL0     C12662  10.781   0.261   6.902 -0.1003  0.7692 -0.6255
  817MOL0     C12663  10.843   0.712   6.934  0.7424  0.1319  0.3010
  817MOL0     C12664  10.978   0.710   6.896  0.7658  0.3800  0.7416
  817MOL0     C12665  11.046   0.826   6.873  0.2443  0.1609 -0.4144
  817MOL0     C12666  10.981   0.956   6.879  0.3978 -0.1380 -0.2818
  817MOL0     O12667  11.043   1.072   6.842 -0.1248 -0.2954  0.3225
  817MOL0     C12668  10.982   1.202   6.863 -0.1665  0.2140  0.4208
  817MOL0     C12669  11.078   1.318   6.829  0.4892 -0.3595 -0.4435
  817MOL0     C12670  11.129   1.347   6.687  0.3405 -0.6334 -0.9131
  817MOL0     C12671  11.019   1.406   6.604  0.4159 -1.6771  1.1518
  817MOL0     C12672  11.049   1.443   6.466 -0.8480  0.6144 -0.4952
  817MOL0     C12673  11.077   1.468   6.352 -1.3570 -0.5956 -0.2138
  817MOL0     C12674  10.850   0.958   6.937  0.1263  1.0298  0.9013
  817MOL0     C12675  10.778   0.833   6.960 -0.3554  0.8357 -0.2287
  817MOL0     C12676  10.642   0.838   7.017 -1.6274 -0.4091 -0.0749
  817MOL0     H12677  10.778   0.388   7.210  0.8863  0.9125 -1.0500
  817MOL0     H12678  10.696   0.180   7.267  0.8984  3.4516  0.3198
  817MOL0     H12679  10.685  -0.204   7.220  2.0514 -0.7711  0.9982
  817MOL0     H12680  10.663  -0.054   7.290  3.0739 -1.6488  2.9592
  817MOL0     H12681  10.899   0.012   7.253  2.2064 -0.1306 -1.9483
  817MOL0     H12682  10.907  -0.158   7.317 -2.2843 -3.8660 -1.9685
  817MOL0     H12683  10.921  -0.099   7.016 -1.0283  1.8265  0.3729
  817MOL0     H12684  11.054  -0.086   7.124 -0.7816  3.0450  3.0489
  817MOL0     H12685  10.976  -0.310   7.201  0.9298 -0.0020  0.2998
  817MOL0     H12686  10.859  -0.311   7.065 -0.5070  3.6346 -1.3154
  817MOL0     H12687  11.165  -0.318   7.016  0.6934  3.9987 -3.8022
  817MOL0     H12688  11.054  -0.254   6.908 -0.6173 -1.0906 -0.7330
  817MOL0     H12689  11.109  -0.525   6.950  0.7235  0.4969  1.1634
  817MOL0     H12690  10.947  -0.513   6.983 -2.2033  2.5601 -0.7194
  817MOL0     H12691  11.103  -0.413   6.734  0.4404  1.0810  1.5351
  817MOL0     H12692  10.942  -0.353   6.759  0.6016  0.7984 -0.4179
  817MOL0     H12693  10.942  -0.569   6.599  1.7271  1.6864 -0.2864
  817MOL0     H12694  11.015  -0.661   6.735 -0.3674 -0.1093  1.2679
  817MOL0     H12695  10.712  -0.417   6.785  0.2399 -0.1428 -2.9599
  817MOL0     H12696  10.424  -0.646   6.898  2.0107 -2.0629 -1.1628
  817MOL0     H12697  10.432  -0.515   6.776 -1.2678 -1.0126 -0.3046
  817MOL0     H12698  10.529  -0.363   6.952 -3.4743  2.8447 -0.8546
  817MOL0     H12699  10.362  -0.429   6.989  1.0376  2.2600 -1.4090
  817MOL0     H12700  10.516  -0.606   7.141 -3.0772 -1.4543 -3.4600
  817MOL0     H12701  10.630  -0.488   7.130  0.0895 -1.4076  1.3591
  817MOL0     H12702  10.509  -0.435   7.330  0.0667 -0.2776  0.1710
  817MOL0     H12703  10.449  -0.318   7.216  1.0434  1.4657  4.1041
  817MOL0     H12704  10.149  -0.637   7.351  4.9341 -3.2809  2.1518
  817MOL0     H12705  10.020  -0.734   7.655  2.7835  0.1063 -0.8846
  817MOL0     H12706   9.992  -0.747   7.482  0.8363 -0.5364  0.1869
  817MOL0     H12707   9.891  -0.630   7.576 -0.1341 -0.8283 -1.3712
  817MOL0     H12708   9.723  -0.417   7.883  0.1629  0.0240  1.1698
  817MOL0     H12709   9.638  -0.394   8.115 -0.2735 -0.6723  0.1256
  817MOL0     H12710   9.800  -0.288   8.344  1.4651 -1.8216  2.3416
  817MOL0     H12711   9.623  -0.329   8.331 -0.1833 -1.3136 -1.2372
  817MOL0     H12712   9.636  -0.459   8.533 -2.8499  1.8044 -1.4463
  817MOL0     H12713   9.794  -0.410   8.579 -0.3548 -0.2678 -0.1409
  817MOL0     H12714   9.677  -0.160   8.532 -3.1501 -0.3926 -1.7575
  817MOL0     H12715   9.729  -0.227   8.693  1.0451 -0.0677 -0.1366
  817MOL0     H12716   9.499  -0.332   8.706  0.5406 -1.1815 -2.3622
  817MOL0     H12717   9.459  -0.251   8.561  0.6373 -3.5437 -1.3671
  817MOL0     H12718   9.559  -0.101   8.820 -1.3395 -2.1570  0.8602
  817MOL0     H12719   9.529  -0.019   8.674  0.0344  0.3645  1.7689
  817MOL0     H12720   9.317  -0.187   8.830 -1.1199  0.9027 -0.7751
  817MOL0     H12721   9.293  -0.099   8.676  0.3855 -0.8388 -0.5165
  817MOL0     H12722   9.375   0.037   8.929  0.5150 -2.9107 -0.2615
  817MOL0     H12723   9.206   0.013   8.881 -1.8180  4.1065 -1.4814
  817MOL0     H12724   9.222   0.135   8.683 -3.3210  2.5776  1.6324
  817MOL0     H12725   9.398   0.166   8.730  1.1888  0.9830  3.4090
  817MOL0     H12726  10.007  -0.552   8.264 -0.6156  2.4302  1.3627
  817MOL0     H12727  10.082  -0.601   8.055 -0.4028 -0.8088 -2.9528
  817MOL0     H12728  10.305  -0.343   7.700  2.2762 -1.4780 -0.6433
  817MOL0     H12729  10.402  -0.323   7.471 -0.7878 -0.0007 -1.0547
  817MOL0     H12730  10.721   0.052   6.854  0.1526  1.5764 -1.2689
  817MOL0     H12731  10.801   0.297   6.802  1.1360  1.2248 -0.2315
  817MOL0     H12732  11.031   0.622   6.862 -2.3270 -0.2064 -3.2267
  817MOL0     H12733  11.152   0.812   6.852 -0.0675 -3.0138 -0.4230
  817MOL0     H12734  10.901   1.233   6.796 -1.1005  0.3677  1.5897
  817MOL0     H12735  10.936   1.210   6.963 -1.7714  2.7176 -0.3981
  817MOL0     H12736  11.168   1.296   6.887  0.2258 -2.4805 -0.7725
  817MOL0     H12737  11.042   1.405   6.884  1.9874  0.9354 -1.3847
  817MOL0     H12738  11.210   1.421   6.681  1.2935 -1.3818  1.5537
  817MOL0     H12739  11.187   1.268   6.640  2.4097  1.3891 -1.9664
  817MOL0     H12740  10.981   1.492   6.660  1.2296  0.3623 -1.2598
  817MOL0     H12741  10.948   1.323   6.598 -2.7595  0.9243 -1.7337
  817MOL0     H12742  11.089   1.485   6.247 -2.4496  1.9179 -0.0095
  817MOL0     H12743  10.800   1.054   6.951  2.1588  1.8725  3.1223
  817MOL0     H12744  10.633   0.940   7.054  1.1664 -0.1415  0.0662
  817MOL0     H12745  10.569   0.805   6.942 -2.2045 -0.8961  0.6932
  817MOL0     H12746  10.651   0.763   7.096 -0.2385 -1.9810 -1.6258
  818MOL0     O12747  11.365   0.154   9.859 -0.3080  0.1914 -0.2309
  818MOL0     C12748  11.421   0.084   9.770  1.6309 -0.3865 -0.7322
  818MOL0     O12749  11.546   0.100   9.725 -0.8339  0.7147 -0.1461
  818MOL0     C12750  11.629   0.206   9.741  0.1651 -0.0573  0.1757
  818MOL0     C12751  11.753   0.181   9.808 -0.2902  0.4808 -0.5069
  818MOL0     C12752  11.846   0.280   9.815  0.1660  0.1668 -1.1572
  818MOL0     C12753  11.814   0.411   9.769  0.2948 -0.1645  0.2073
  818MOL0     O12754  11.908   0.510   9.801 -0.1047  0.1312 -0.0575
  818MOL0     C12755  11.872   0.644   9.755 -0.1490  0.1315  0.1098
  818MOL0     C12756  11.991   0.739   9.785  0.2884 -0.3339 -0.3341
  818MOL0     C12757  11.963   0.874   9.731  0.0291 -0.0556  0.7614
  818MOL0     C12758  12.089   0.963   9.716 -0.3536  0.5814  0.1248
  818MOL0     C12759  12.158   0.988   9.853 -0.7258  0.9730  0.1507
  818MOL0     C12760  12.248   1.118   9.847  0.1505 -0.2864 -0.1302
  818MOL0     C12761  12.354   1.108   9.960  0.3397  0.5820  0.0034
  818MOL0     C12762  12.466   1.024   9.918  0.0619  0.4149 -0.9319
  818MOL0     N12763  12.601   1.085   9.930  0.0806 -0.5683 -0.0343
  818MOL0     C12764  12.645   1.175   9.842 -0.1872 -0.9716 -0.0556
  818MOL0     C12765  12.754   1.231   9.901  0.3333  0.9072 -0.6356
  818MOL0     C12766  12.827   1.347   9.840  0.1869 -0.3934 -0.5166
  818MOL0     C12767  12.901   1.305   9.712  0.1954 -0.0030  0.9481
  818MOL0     C12768  13.022   1.400   9.697 -0.3368 -0.2026 -0.2807
  818MOL0     C12769  13.123   1.347   9.601 -0.7894  0.1281  0.2279
  818MOL0     O12770  13.086   1.386   9.469 -0.1852 -0.8793 -0.9476
  818MOL0     C12771  13.152   1.326   9.365  0.1871  1.4109 -0.6609
  818MOL0     C12772  13.112   1.335   9.232  0.3024  0.4798 -0.4191
  818MOL0     C12773  13.169   1.265   9.126  0.0369  0.2472  0.4034
  818MOL0     C12774  13.104   1.282   8.999  0.6135 -0.1913  0.3200
  818MOL0     C12775  13.282   1.184   9.133  0.2769 -0.4016  0.7859
  818MOL0     C12776  13.350   1.118   9.020 -0.2271 -0.5999 -0.4883
  818MOL0     O12777  13.287   1.090   8.907 -0.1181 -0.9489  0.7102
  818MOL0     C12778  13.371   1.043   8.809 -0.4135 -0.3947 -0.2247
  818MOL0     C12779  13.452   1.128   8.729  0.5472 -1.1881 -0.2445
  818MOL0     C12780  13.518   1.080   8.618  0.6119  0.3009 -0.2772
  818MOL0     C12781  13.532   0.942   8.595  0.0536  0.1555  0.2985
  818MOL0     O12782  13.596   0.893   8.491  0.6996 -0.5611  0.4736
  818MOL0     C12783  13.714   0.944   8.448 -0.3715  0.0644 -0.0836
  818MOL0     C12784  13.819   0.843   8.457 -0.6613  0.2121  0.3155
  818MOL0     C12785  13.848   0.789   8.595  0.2925  0.3523  0.4192
  818MOL0     C12786  13.946   0.677   8.585  0.7029  0.1410  0.3545
  818MOL0     C12787  13.923   0.562   8.480 -0.4702  0.2148  0.4011
  818MOL0     C12788  14.061   0.478   8.461 -0.3057  0.4271  0.3749
  818MOL0     C12789  14.028   0.365   8.356 -0.4370 -0.5642 -0.2342
  818MOL0     C12790  14.133   0.253   8.344  1.0880 -0.1200  1.0562
  818MOL0    Cl12791  14.097   0.183   8.174  0.0532  0.0756  0.0742
  818MOL0     C12792  13.447   0.861   8.675 -0.1193  0.3934 -0.0970
  818MOL0     C12793  13.361   0.909   8.767 -0.5247  1.0329  0.3418
  818MOL0     O12794  13.464   1.092   9.048 -0.4852 -0.2429  0.5081
  818MOL0     C12795  13.334   1.178   9.265  0.1166 -0.7226  0.1076
  818MOL0     C12796  13.266   1.247   9.381 -0.3990 -0.2475 -0.2940
  818MOL0     N12797  12.784   1.154  10.015  0.0405 -0.2120 -0.4104
  818MOL0     N12798  12.688   1.077  10.028  0.4863  0.7014 -0.4614
  818MOL0     C12799  11.679   0.439   9.719  1.1015 -0.4790  0.8093
  818MOL0     C12800  11.598   0.330   9.689 -0.3931  0.0838 -1.2684
  818MOL0     C12801  11.347  -0.032   9.707  0.3864  0.0210 -0.4220
  818MOL0     C12802  11.418  -0.151   9.663  0.5056 -1.3798  0.2898
  818MOL0     C12803  11.355  -0.262   9.612 -0.0780 -0.6242 -0.3260
  818MOL0     C12804  11.216  -0.254   9.582 -0.4511 -0.2806  0.3936
  818MOL0     O12805  11.147  -0.355   9.540  0.0934 -0.2688  0.7995
  818MOL0     C12806  11.002  -0.371   9.545 -0.0682  0.1607  0.1442
  818MOL0     C12807  10.940  -0.435   9.676 -0.3542 -0.6793 -0.1773
  818MOL0     C12808  10.964  -0.353   9.801 -0.5138  0.1174  0.4156
  818MOL0     C12809  10.870  -0.398   9.904 -0.1140 -0.0657 -0.7318
  818MOL0     C12810  10.898  -0.307  10.027  0.5895 -0.6348  0.2996
  818MOL0     C12811  10.923  -0.240  10.130  0.0146 -0.9950  0.9732
  818MOL0     C12812  11.146  -0.136   9.619  0.0003  0.0462  0.1101
  818MOL0     C12813  11.203  -0.030   9.687  0.1611  0.3925 -0.6808
  818MOL0     C12814  11.114   0.087   9.738 -0.5628  0.4798  0.4252
  818MOL0     H12815  11.776   0.081   9.844  1.8629 -0.1728 -3.4077
  818MOL0     H12816  11.945   0.267   9.856  0.7542  1.4184 -2.1210
  818MOL0     H12817  11.779   0.669   9.805 -1.4898 -2.0932 -1.1045
  818MOL0     H12818  11.852   0.636   9.648 -0.8309 -1.3335  0.3214
  818MOL0     H12819  12.010   0.742   9.893 -0.7259 -0.5072 -0.1471
  818MOL0     H12820  12.073   0.702   9.723 -0.5909 -4.2259  0.5678
  818MOL0     H12821  11.909   0.874   9.635 -0.0404 -1.2270  0.7825
  818MOL0     H12822  11.889   0.922   9.795 -0.7375  1.8777 -1.4128
  818MOL0     H12823  12.164   0.919   9.649  0.0255 -0.9377  1.4645
  818MOL0     H12824  12.058   1.054   9.664 -1.0517 -0.4058 -1.2693
  818MOL0     H12825  12.220   0.903   9.883 -0.4152  0.9877 -0.4433
  818MOL0     H12826  12.078   0.999   9.927  2.4806  0.1034  4.0933
  818MOL0     H12827  12.288   1.125   9.745 -3.4369  1.8224 -1.5994
  818MOL0     H12828  12.190   1.210   9.861 -0.3546 -0.5618 -0.3698
  818MOL0     H12829  12.317   1.073  10.057  0.5533  2.5207  0.8228
  818MOL0     H12830  12.385   1.212   9.972  1.7693  0.3935 -1.6234
  818MOL0     H12831  12.470   0.940   9.988  2.3581  0.7077 -0.6523
  818MOL0     H12832  12.457   0.997   9.812  0.0165  0.5193 -0.9548
  818MOL0     H12833  12.602   1.191   9.743 -3.2099 -2.3482  0.9018
  818MOL0     H12834  12.897   1.393   9.910 -0.2126  0.0908 -0.4328
  818MOL0     H12835  12.752   1.421   9.811 -1.1848 -0.5533  2.2704
  818MOL0     H12836  12.944   1.205   9.717  0.6188  0.0974 -0.3771
  818MOL0     H12837  12.842   1.316   9.620 -0.4362  1.8865  1.5295
  818MOL0     H12838  12.982   1.490   9.650 -2.1785 -2.7010 -3.9236
  818MOL0     H12839  13.066   1.433   9.791  1.5439  2.3403 -1.9384
  818MOL0     H12840  13.225   1.382   9.618  0.4747 -1.8394 -2.5422
  818MOL0     H12841  13.131   1.240   9.624 -0.0937  0.8336  3.9408
  818MOL0     H12842  13.020   1.390   9.216 -2.7858 -4.2619 -1.1051
  818MOL0     H12843  13.014   1.343   9.010  0.3550 -0.7756  1.8366
  818MOL0     H12844  13.060   1.190   8.959 -2.2466  0.3926  1.8609
  818MOL0     H12845  13.173   1.322   8.925  3.9974 -5.1563  0.3148
  818MOL0     H12846  13.455   1.234   8.754  1.8494 -1.4104  0.6364
  818MOL0     H12847  13.583   1.140   8.555 -0.7687  2.1887 -0.0155
  818MOL0     H12848  13.691   0.964   8.343 -4.1868 -1.4846  0.2729
  818MOL0     H12849  13.744   1.041   8.488  1.1270 -0.0493 -0.8793
  818MOL0     H12850  13.796   0.760   8.389 -0.1814 -0.5100  1.0145
  818MOL0     H12851  13.912   0.883   8.417  0.6115 -1.0904  1.8408
  818MOL0     H12852  13.756   0.747   8.637 -0.4535 -0.3656 -1.7799
  818MOL0     H12853  13.889   0.865   8.662  0.8858  1.4990 -1.1863
  818MOL0     H12854  13.953   0.628   8.683 -0.1190 -1.7489 -0.4682
  818MOL0     H12855  14.048   0.710   8.565  0.2261  2.1275  0.9836
  818MOL0     H12856  13.844   0.490   8.507  1.2978 -1.4143  1.4341
  818MOL0     H12857  13.906   0.593   8.377 -0.9095  0.3525  0.5111
  818MOL0     H12858  14.087   0.451   8.564  0.9853  0.4715  0.0681
  818MOL0     H12859  14.141   0.537   8.415 -2.1356  0.9637 -2.3665
  818MOL0     H12860  13.995   0.413   8.263 -1.0186  2.6019  1.4630
  818MOL0     H12861  13.938   0.321   8.399 -0.7056  2.2399  2.4843
  818MOL0     H12862  14.120   0.175   8.420  1.6234 -0.2659  1.0026
  818MOL0     H12863  14.237   0.288   8.343 -0.0063  3.5257 -0.7179
  818MOL0     H12864  13.449   0.755   8.656 -1.7422  0.2062  0.6932
  818MOL0     H12865  13.293   0.842   8.819 -3.1811  3.8759  0.8281
  818MOL0     H12866  13.422   1.124   9.296 -0.8223 -1.0618  2.4001
  818MOL0     H12867  13.317   1.237   9.476  2.2515 -0.4248 -1.6468
  818MOL0     H12868  11.633   0.536   9.702 -1.6609 -1.9343 -0.6070
  818MOL0     H12869  11.492   0.330   9.662 -1.5733 -2.7029  2.5329
  818MOL0     H12870  11.519  -0.167   9.699  1.0098  1.3983  0.3155
  818MOL0     H12871  11.406  -0.357   9.619  0.0162 -0.5189  0.4494
  818MOL0     H12872  10.947  -0.280   9.519 -1.6328 -0.6093  0.6250
  818MOL0     H12873  10.980  -0.439   9.463  1.3653  0.1291 -0.2522
  818MOL0     H12874  10.978  -0.537   9.687 -0.1951 -1.0444 -3.2374
  818MOL0     H12875  10.833  -0.437   9.655 -0.4647 -1.2980  0.4069
  818MOL0     H12876  11.069  -0.375   9.824 -0.4901 -0.4746 -0.2445
  818MOL0     H12877  10.957  -0.244   9.789  1.5331  0.2607  0.2630
  818MOL0     H12878  10.892  -0.504   9.920  0.6859 -0.1717 -2.3928
  818MOL0     H12879  10.770  -0.379   9.865  0.0218  0.0391 -1.0329
  818MOL0     H12880  10.946  -0.183  10.218  0.8158  2.1591 -1.0920
  818MOL0     H12881  11.038  -0.129   9.607  0.1903 -0.3731 -2.4972
  818MOL0     H12882  11.028   0.078   9.671 -1.2775  2.0183  1.1021
  818MOL0     H12883  11.094   0.085   9.845  1.1019 -3.0819  0.8013
  818MOL0     H12884  11.156   0.183   9.706  2.0343 -0.7814 -0.2166
  819MOL0     O12885   1.080   3.943   7.598  0.2236  0.1062  0.7608
  819MOL0     C12886   1.029   4.027   7.525 -0.2684 -1.2734 -0.2937
  819MOL0     O12887   0.890   4.032   7.499 -0.0164 -0.2934  0.5554
  819MOL0     C12888   0.809   3.958   7.575  0.4494  0.2244  0.5017
  819MOL0     C12889   0.697   3.900   7.508 -0.3498 -0.3172 -0.3355
  819MOL0     C12890   0.606   3.819   7.576  1.2751  1.2789 -0.1842
  819MOL0     C12891   0.611   3.800   7.712  0.7538  0.1114 -0.0558
  819MOL0     O12892   0.539   3.706   7.780 -0.6913 -0.3092  0.1409
  819MOL0     C12893   0.426   3.646   7.736  1.3070  1.1543 -0.3428
  819MOL0     C12894   0.388   3.525   7.827  0.0746  0.4585  0.3136
  819MOL0     C12895   0.245   3.480   7.799 -0.4238  0.1346 -0.4279
  819MOL0     C12896   0.231   3.423   7.665  0.3680  0.2903  0.9095
  819MOL0     C12897   0.292   3.292   7.647 -1.0304  0.7627  0.5262
  819MOL0     C12898   0.243   3.231   7.521 -0.2999  0.0373  0.6738
  819MOL0     C12899   0.325   3.109   7.481  0.6748 -0.4488  0.7381
  819MOL0     C12900   0.307   2.980   7.562  0.1523  0.3577  0.4779
  819MOL0     N12901   0.166   2.940   7.552 -0.5749 -0.3856  0.8334
  819MOL0     C12902   0.119   2.874   7.447  0.5775 -0.9382  1.0359
  819MOL0     C12903  -0.007   2.821   7.478  0.0891 -0.8622  0.1118
  819MOL0     C12904  -0.110   2.724   7.410 -0.3979 -0.0413  0.5167
  819MOL0     C12905  -0.250   2.725   7.483 -0.1039 -0.8748 -0.7448
  819MOL0     C12906  -0.313   2.869   7.484 -0.4187 -0.2879 -0.5078
  819MOL0     C12907  -0.464   2.870   7.504  0.3599 -0.2994  0.6933
  819MOL0     O12908  -0.490   3.006   7.537 -0.1158 -0.4041  0.2770
  819MOL0     C12909  -0.619   3.019   7.586  0.0223 -0.3859  0.1961
  819MOL0     C12910  -0.733   2.935   7.581 -0.3406 -0.0304 -0.3681
  819MOL0     C12911  -0.848   2.955   7.657  0.1134  0.4359  0.1252
  819MOL0     C12912  -0.969   2.860   7.646 -0.0523  1.1254 -0.0885
  819MOL0     C12913  -0.856   3.069   7.737 -0.0652  0.1711 -0.2359
  819MOL0     C12914  -0.974   3.098   7.831 -0.0645 -0.1557 -1.3035
  819MOL0     O12915  -0.982   3.220   7.860  0.3367 -0.0651 -0.0618
  819MOL0     C12916  -1.116   3.263   7.867  1.0858  0.1189  0.3561
  819MOL0     C12917  -1.192   3.257   7.980  0.4028  0.3763 -0.7430
  819MOL0     C12918  -1.321   3.300   7.997  0.7040  0.0623 -0.4414
  819MOL0     C12919  -1.384   3.344   7.879  0.3508 -0.0787 -0.4982
  819MOL0     O12920  -1.519   3.379   7.889 -0.4179 -0.3772 -0.7825
  819MOL0     C12921  -1.601   3.419   7.776 -0.0498 -0.1572 -0.0008
  819MOL0     C12922  -1.649   3.311   7.683  0.0556  1.0070 -0.5046
  819MOL0     C12923  -1.760   3.366   7.578 -0.8275 -0.5029  0.7773
  819MOL0     C12924  -1.896   3.395   7.648 -1.1074  0.5168 -0.4558
  819MOL0     C12925  -2.019   3.433   7.571 -0.0569  0.5523  0.7085
  819MOL0     C12926  -2.140   3.458   7.661  0.3638 -0.3988  0.8459
  819MOL0     C12927  -2.255   3.516   7.582  0.0576 -0.0842  0.6761
  819MOL0     C12928  -2.374   3.514   7.660 -0.2694 -0.1517 -0.6815
  819MOL0    Cl12929  -2.336   3.618   7.800 -0.2551  0.3677  0.1573
  819MOL0     C12930  -1.320   3.346   7.756 -1.6543 -0.3511  1.4110
  819MOL0     C12931  -1.188   3.304   7.754 -0.3446 -0.0955 -0.5678
  819MOL0     O12932  -1.052   3.012   7.874  0.5406  0.3398 -0.0558
  819MOL0     C12933  -0.747   3.160   7.735  0.4028 -0.2128  0.1340
  819MOL0     C12934  -0.635   3.139   7.648  0.0058 -0.0238 -0.4741
  819MOL0     N12935  -0.024   2.855   7.616 -0.5043  0.5143  0.5313
  819MOL0     N12936   0.073   2.929   7.655 -0.4803  0.1825 -0.1425
  819MOL0     C12937   0.715   3.874   7.783 -0.3465  0.3951  0.7119
  819MOL0     C12938   0.815   3.949   7.710 -1.3495 -0.2920 -0.8729
  819MOL0     C12939   1.116   4.119   7.450 -0.0734 -0.7320  0.3548
  819MOL0     C12940   1.054   4.183   7.330  0.7726 -0.2687 -1.1864
  819MOL0     C12941   1.133   4.281   7.264 -0.1482 -0.1187 -0.3738
  819MOL0     C12942   1.269   4.286   7.282  0.7842 -0.1277  0.7239
  819MOL0     O12943   1.363   4.367   7.226 -0.5766  0.4902 -0.0485
  819MOL0     C12944   1.332   4.451   7.123  0.1152  0.1879 -0.3517
  819MOL0     C12945   1.334   4.380   6.986 -0.5211 -0.6691  0.0403
  819MOL0     C12946   1.362   4.472   6.859  0.7159  0.3949 -0.2155
  819MOL0     C12947   1.350   4.389   6.732 -0.3435 -0.1761 -0.3335
  819MOL0     C12948   1.382   4.468   6.611 -0.9066 -0.3095 -0.0098
  819MOL0     C12949   1.406   4.540   6.518  0.0151  0.0214  0.7020
  819MOL0     C12950   1.325   4.214   7.387 -0.1117  0.7030  0.0295
  819MOL0     C12951   1.253   4.138   7.480 -0.0298 -0.0942 -0.1922
  819MOL0     C12952   1.326   4.082   7.611  0.2021 -0.1533  0.5451
  819MOL0     H12953   0.690   3.904   7.400 -0.7127 -1.9098 -0.4012
  819MOL0     H12954   0.528   3.776   7.514  0.5394  3.5564 -0.9366
  819MOL0     H12955   0.433   3.616   7.631 -2.0393 -0.4323 -0.2178
  819MOL0     H12956   0.344   3.717   7.744 -0.2806 -0.4762 -1.5461
  819MOL0     H12957   0.465   3.450   7.806 -0.5171 -0.1095  0.1582
  819MOL0     H12958   0.392   3.539   7.935  0.9469 -1.9870  0.6597
  819MOL0     H12959   0.200   3.419   7.878 -0.6713 -1.0838 -1.4785
  819MOL0     H12960   0.185   3.571   7.804 -0.6797 -0.0830  0.9780
  819MOL0     H12961   0.122   3.412   7.659  0.5546 -1.8852  0.9157
  819MOL0     H12962   0.247   3.497   7.586  0.3395 -1.0193 -0.3467
  819MOL0     H12963   0.274   3.222   7.729  2.6784 -0.9860  0.0591
  819MOL0     H12964   0.399   3.310   7.638 -1.6542  3.8000 -3.6759
  819MOL0     H12965   0.135   3.215   7.529 -0.9992  3.3698 -0.4460
  819MOL0     H12966   0.248   3.307   7.442 -0.3129 -1.5861 -0.9531
  819MOL0     H12967   0.434   3.119   7.479  0.5390  2.0558  1.9922
  819MOL0     H12968   0.304   3.093   7.375 -3.2690  2.3017  0.8750
  819MOL0     H12969   0.363   2.891   7.532 -2.1272 -1.0801  0.2590
  819MOL0     H12970   0.342   3.009   7.662  0.7938 -0.7113  0.5763
  819MOL0     H12971   0.175   2.849   7.357  1.1032 -1.6687  1.5593
  819MOL0     H12972  -0.069   2.622   7.408  1.0250  0.5176 -1.1910
  819MOL0     H12973  -0.122   2.755   7.306  0.2938 -0.5630  0.2770
  819MOL0     H12974  -0.322   2.657   7.436  1.7162 -1.2203 -3.2480
  819MOL0     H12975  -0.242   2.696   7.588  0.8342 -4.7006 -1.7063
  819MOL0     H12976  -0.278   2.930   7.568 -1.1851  3.2501 -2.5679
  819MOL0     H12977  -0.281   2.925   7.395  0.6111 -0.7441 -0.4439
  819MOL0     H12978  -0.516   2.843   7.412  1.4431 -0.9273  0.2501
  819MOL0     H12979  -0.494   2.800   7.583 -2.8516 -1.0880 -1.0624
  819MOL0     H12980  -0.731   2.840   7.528 -2.2447 -1.4252  1.8481
  819MOL0     H12981  -0.952   2.780   7.573  1.2672 -0.2541  1.6347
  819MOL0     H12982  -1.055   2.923   7.621  1.1959  2.2415 -1.6846
  819MOL0     H12983  -0.981   2.799   7.737 -4.2267 -1.2672 -1.9505
  819MOL0     H12984  -1.149   3.214   8.069  2.0462  5.0538  1.0401
  819MOL0     H12985  -1.376   3.283   8.089  2.0395  0.0396  0.3769
  819MOL0     H12986  -1.688   3.475   7.812  1.8602  3.6493 -0.7740
  819MOL0     H12987  -1.550   3.491   7.710  1.7951 -1.8753 -0.5541
  819MOL0     H12988  -1.566   3.266   7.629  0.7388  0.7161  0.7511
  819MOL0     H12989  -1.691   3.232   7.747 -0.9761  0.9907 -1.1763
  819MOL0     H12990  -1.764   3.282   7.508  0.8442 -2.4140  2.7865
  819MOL0     H12991  -1.737   3.457   7.521 -2.6219 -0.0080  0.8070
  819MOL0     H12992  -1.884   3.477   7.720 -3.1504  2.0889 -1.8018
  819MOL0     H12993  -1.930   3.308   7.706  0.5031  2.3413  3.6267
  819MOL0     H12994  -2.001   3.527   7.518  1.8528 -0.1452  0.0330
  819MOL0     H12995  -2.026   3.353   7.497  0.7860  0.1919  1.0088
  819MOL0     H12996  -2.097   3.533   7.728  1.9034 -0.7710  0.3135
  819MOL0     H12997  -2.170   3.373   7.722 -2.4929  1.0704  1.6931
  819MOL0     H12998  -2.266   3.465   7.486 -1.0397  0.2735  0.5917
  819MOL0     H12999  -2.236   3.620   7.554  0.4748 -0.0425  1.1018
  819MOL0     H13000  -2.402   3.413   7.690  1.8381 -0.5346  0.1467
  819MOL0     H13001  -2.458   3.554   7.602 -0.9432 -0.7628 -0.1431
  819MOL0     H13002  -1.364   3.385   7.665  2.0075  2.1077  0.4539
  819MOL0     H13003  -1.141   3.314   7.656  0.9511 -3.6125 -0.4325
  819MOL0     H13004  -0.741   3.248   7.798  0.6591  1.0795 -1.6343
  819MOL0     H13005  -0.555   3.211   7.637 -0.5175  0.6709  0.1623
  819MOL0     H13006   0.724   3.877   7.892  2.5319 -1.3437  0.6095
  819MOL0     H13007   0.894   4.002   7.762 -0.1412 -2.2419 -0.6319
  819MOL0     H13008   0.954   4.183   7.290  1.0307 -0.3082 -1.8418
  819MOL0     H13009   1.094   4.355   7.196  1.8342  1.2252 -0.1335
  819MOL0     H13010   1.237   4.500   7.148  0.5953  0.9133  0.0797
  819MOL0     H13011   1.412   4.524   7.114 -0.6291  1.1673  0.6447
  819MOL0     H13012   1.230   4.348   6.984 -0.2167 -2.0664  2.8107
  819MOL0     H13013   1.402   4.295   6.988  2.4481  1.4108 -2.6423
  819MOL0     H13014   1.291   4.555   6.870 -2.0760 -2.1150  6.9219
  819MOL0     H13015   1.469   4.493   6.865  0.9241 -0.9306  1.2804
  819MOL0     H13016   1.250   4.345   6.723 -0.0435 -1.4622  1.9401
  819MOL0     H13017   1.418   4.304   6.723 -0.1359 -0.0510  0.0113
  819MOL0     H13018   1.431   4.598   6.432 -1.2224  1.2978  1.1675
  819MOL0     H13019   1.431   4.232   7.406 -0.5730  0.4480  3.7212
  819MOL0     H13020   1.350   3.975   7.603  4.9789  0.7103  0.9169
  819MOL0     H13021   1.420   4.136   7.623 -0.5944  1.1359  1.2341
  819MOL0     H13022   1.264   4.097   7.700  0.1902  0.5132  0.4293
  820MOL0     O13023   2.714   3.035   2.400 -0.4224  0.1838  0.4110
  820MOL0     C13024   2.834   3.037   2.398 -0.8393 -0.0619 -1.1725
  820MOL0     O13025   2.910   3.070   2.282 -0.2415 -0.2240  0.3617
  820MOL0     C13026   2.841   3.107   2.171 -0.2698 -0.3555  0.1510
  820MOL0     C13027   2.822   3.239   2.122  1.0530  0.0110 -0.2205
  820MOL0     C13028   2.746   3.263   2.002 -0.3667 -1.6573 -0.4540
  820MOL0     C13029   2.681   3.163   1.931 -1.3062 -1.0758  1.0668
  820MOL0     O13030   2.623   3.187   1.808  1.1011  0.0078 -0.0096
  820MOL0     C13031   2.671   3.297   1.733  0.2831  0.1385  1.4344
  820MOL0     C13032   2.638   3.233   1.598  0.7641  0.2711  0.3600
  820MOL0     C13033   2.694   3.315   1.480 -0.2520 -0.6069 -0.3921
  820MOL0     C13034   2.592   3.372   1.385 -0.5631  0.8322  0.3669
  820MOL0     C13035   2.662   3.466   1.282 -0.7629 -0.1525  0.2020
  820MOL0     C13036   2.776   3.400   1.209 -0.9301 -0.3975  0.4743
  820MOL0     C13037   2.808   3.494   1.086  0.0336  0.3576 -0.9032
  820MOL0     C13038   2.908   3.454   0.989 -0.4864 -0.6817 -0.1048
  820MOL0     N13039   2.874   3.326   0.918  0.6497 -0.7714 -0.1753
  820MOL0     C13040   2.963   3.236   0.869  0.1485  0.0099  0.8496
  820MOL0     C13041   2.892   3.139   0.797 -0.0704  0.1747  0.9625
  820MOL0     C13042   2.941   3.008   0.757  0.2318  0.1405  0.5563
  820MOL0     C13043   2.951   2.928   0.881 -1.0618  0.3276 -0.2621
  820MOL0     C13044   3.000   2.782   0.858 -0.1906  0.2320  0.7967
  820MOL0     C13045   3.138   2.756   0.791  0.7474 -0.9976  0.3899
  820MOL0     O13046   3.232   2.831   0.872  0.0435  0.0114 -0.6372
  820MOL0     C13047   3.360   2.860   0.812 -0.8282 -0.6936  0.3551
  820MOL0     C13048   3.387   2.827   0.681 -0.4568 -0.3655  0.9678
  820MOL0     C13049   3.510   2.859   0.615 -0.1759  0.2504  0.4062
  820MOL0     C13050   3.526   2.809   0.480  0.3585  0.4669  0.0705
  820MOL0     C13051   3.605   2.935   0.685  0.1203  0.3491  0.0452
  820MOL0     C13052   3.735   2.965   0.632  0.7399  0.8809 -0.4860
  820MOL0     O13053   3.830   3.006   0.718  0.0052 -0.0884  0.2111
  820MOL0     C13054   3.946   3.060   0.654 -0.0556  0.3117 -1.0353
  820MOL0     C13055   3.960   3.203   0.636  0.2016  0.6268 -0.9484
  820MOL0     C13056   4.061   3.258   0.571 -0.2480  0.0121  0.3734
  820MOL0     C13057   4.166   3.178   0.514 -0.4362 -0.8390 -0.1786
  820MOL0     O13058   4.266   3.241   0.452 -0.2750 -0.5497  0.2462
  820MOL0     C13059   4.393   3.176   0.444  0.7874  0.6098  0.5508
  820MOL0     C13060   4.483   3.289   0.407  0.5010  1.7750 -0.8672
  820MOL0     C13061   4.423   3.394   0.307 -0.6590  0.2177 -0.5449
  820MOL0     C13062   4.540   3.448   0.224 -0.5069  0.4944  0.0061
  820MOL0     C13063   4.494   3.542   0.120  1.1364  0.0100 -0.8988
  820MOL0     C13064   4.617   3.588   0.040  0.2574 -0.0210  0.3141
  820MOL0     C13065   4.594   3.720  -0.031  0.7306 -0.2691  0.3133
  820MOL0     C13066   4.487   3.715  -0.139  0.2891  1.0064  0.2796
  820MOL0    Cl13067   4.541   3.626  -0.277 -0.2977  0.0726 -0.3623
  820MOL0     C13068   4.152   3.035   0.524  1.3483 -0.5496 -0.2345
  820MOL0     C13069   4.043   2.979   0.590  0.1928 -1.1568 -0.2945
  820MOL0     O13070   3.738   2.974   0.513 -0.1436 -0.5647 -0.5057
  820MOL0     C13071   3.571   2.972   0.815  0.0233 -0.4404  0.1916
  820MOL0     C13072   3.453   2.936   0.877  0.4606  0.6943  0.9797
  820MOL0     N13073   2.759   3.181   0.804  0.2487 -0.0875  0.0405
  820MOL0     N13074   2.749   3.292   0.875  0.6074 -0.5071 -0.4147
  820MOL0     C13075   2.698   3.034   1.980 -1.2456 -0.0691 -0.4086
  820MOL0     C13076   2.775   3.001   2.097 -0.0603  0.0828 -0.0488
  820MOL0     C13077   2.904   3.018   2.531 -0.0471 -0.9422  0.1913
  820MOL0     C13078   2.910   2.894   2.597  0.1656 -1.0250  1.1191
  820MOL0     C13079   2.990   2.875   2.707  0.3128 -0.7158 -0.3757
  820MOL0     C13080   3.070   2.977   2.761 -0.4451  0.0682 -0.7178
  820MOL0     O13081   3.132   2.962   2.883  0.3526 -0.9980 -0.6717
  820MOL0     C13082   3.186   2.835   2.917  1.2701 -0.8698 -0.0819
  820MOL0     C13083   3.306   2.856   3.009  0.5655  0.6704 -0.3358
  820MOL0     C13084   3.263   2.882   3.161 -1.4558  0.0917  1.0107
  820MOL0     C13085   3.344   2.783   3.250 -0.3484  0.4061  0.2569
  820MOL0     C13086   3.296   2.646   3.247  1.0824  0.8027  0.1501
  820MOL0     C13087   3.261   2.531   3.251  0.4793  0.9559  0.0604
  820MOL0     C13088   3.057   3.097   2.705  0.2905  0.3300 -0.7552
  820MOL0     C13089   2.984   3.120   2.590  0.2700 -0.3182 -0.1836
  820MOL0     C13090   2.970   3.258   2.541 -0.2151  0.5093 -1.1096
  820MOL0     H13091   2.849   3.332   2.171  1.5246  0.1029 -0.6480
  820MOL0     H13092   2.721   3.363   1.968 -3.2404 -2.1686 -0.0724
  820MOL0     H13093   2.780   3.312   1.730  1.3938 -4.2493 -5.7259
  820MOL0     H13094   2.615   3.389   1.747 -0.5952 -0.3787  1.3980
  820MOL0     H13095   2.663   3.126   1.593 -1.9167 -0.3583 -1.0016
  820MOL0     H13096   2.531   3.253   1.592  0.2033 -2.6683 -0.9458
  820MOL0     H13097   2.757   3.394   1.521 -2.1829  0.4713  0.6256
  820MOL0     H13098   2.754   3.244   1.421 -1.6270 -0.6112 -1.8518
  820MOL0     H13099   2.555   3.286   1.329  0.5835 -0.4309  1.5051
  820MOL0     H13100   2.517   3.424   1.445 -1.2737  0.3594 -0.1035
  820MOL0     H13101   2.702   3.555   1.331 -1.0696  0.3138 -0.3763
  820MOL0     H13102   2.590   3.507   1.211 -1.3354 -0.5868  0.5273
  820MOL0     H13103   2.870   3.390   1.264 -0.8844  1.2998  0.7641
  820MOL0     H13104   2.740   3.304   1.171 -1.0594 -0.1736  0.0171
  820MOL0     H13105   2.843   3.590   1.124 -1.4248  0.1745  1.0844
  820MOL0     H13106   2.716   3.500   1.028  0.9986 -0.6403 -2.6537
  820MOL0     H13107   2.925   3.521   0.904 -1.4456 -1.5085 -0.9841
  820MOL0     H13108   3.001   3.447   1.046  1.3964 -1.3716 -3.0351
  820MOL0     H13109   3.071   3.243   0.861  0.2419 -2.3591 -2.2626
  820MOL0     H13110   3.039   3.012   0.708 -1.2250  0.3176 -2.6248
  820MOL0     H13111   2.876   2.968   0.679  1.4527 -1.5562  0.3554
  820MOL0     H13112   3.010   2.981   0.955  0.4116  0.4015 -1.4308
  820MOL0     H13113   2.848   2.910   0.913  0.0574 -2.5828  2.1338
  820MOL0     H13114   2.987   2.731   0.955 -0.1838 -2.7317 -0.6498
  820MOL0     H13115   2.935   2.726   0.791 -1.0396 -0.4904  2.1742
  820MOL0     H13116   3.155   2.648   0.784  1.5287 -0.9544  1.4145
  820MOL0     H13117   3.141   2.793   0.688  0.2651  0.2718  0.8134
  820MOL0     H13118   3.319   2.775   0.613  0.4655  2.0201 -1.9843
  820MOL0     H13119   3.516   2.888   0.406  2.1707  1.7555  1.1214
  820MOL0     H13120   3.451   2.733   0.455  1.0876  0.7579 -3.6043
  820MOL0     H13121   3.623   2.758   0.476 -0.4863 -2.4329  5.7879
  820MOL0     H13122   3.882   3.269   0.671 -1.5629 -1.8236  0.0472
  820MOL0     H13123   4.057   3.366   0.578  1.1148 -0.0117  2.6759
  820MOL0     H13124   4.413   3.128   0.540 -0.6471  0.0960  0.6185
  820MOL0     H13125   4.393   3.103   0.361 -1.5669  2.2225 -1.0082
  820MOL0     H13126   4.507   3.335   0.503  1.7668 -2.4227  1.0603
  820MOL0     H13127   4.583   3.255   0.380 -0.5065 -1.2336 -1.1125
  820MOL0     H13128   4.384   3.473   0.372  0.7577  0.7928 -0.3599
  820MOL0     H13129   4.341   3.349   0.251  0.2736 -1.1744 -0.8310
  820MOL0     H13130   4.601   3.368   0.181 -1.6687  0.4033 -1.5809
  820MOL0     H13131   4.606   3.506   0.288  1.1944 -1.7171  0.3896
  820MOL0     H13132   4.428   3.490   0.050  4.1397  1.0671 -4.9351
  820MOL0     H13133   4.443   3.629   0.162  1.2859 -0.4017  0.1630
  820MOL0     H13134   4.656   3.513  -0.029 -0.5268  0.6473 -0.8884
  820MOL0     H13135   4.694   3.610   0.115 -0.0558 -2.6379  1.5318
  820MOL0     H13136   4.692   3.753  -0.066  0.7167 -1.4964 -0.9817
  820MOL0     H13137   4.564   3.783   0.053  3.1938 -1.9645  2.6384
  820MOL0     H13138   4.468   3.818  -0.171 -1.7030  0.1344 -1.6501
  820MOL0     H13139   4.396   3.667  -0.100  0.6169 -0.4627 -0.7080
  820MOL0     H13140   4.214   2.960   0.476 -0.2846 -2.8808  1.1051
  820MOL0     H13141   4.032   2.871   0.592 -0.7626 -1.0578  0.4117
  820MOL0     H13142   3.648   3.002   0.885  0.1470 -0.4879  0.0751
  820MOL0     H13143   3.439   2.958   0.982  0.2255 -0.1107  1.1262
  820MOL0     H13144   2.634   2.959   1.934  2.6724 -3.3590 -1.0716
  820MOL0     H13145   2.779   2.901   2.140 -2.6752  0.3482  0.9861
  820MOL0     H13146   2.854   2.820   2.541  0.3587  0.5564 -1.3128
  820MOL0     H13147   2.999   2.776   2.750 -0.5709 -1.1391 -1.1318
  820MOL0     H13148   3.114   2.775   2.973  0.0353  0.9732  0.3682
  820MOL0     H13149   3.202   2.774   2.827 -1.3438 -2.0780  0.2020
  820MOL0     H13150   3.365   2.943   2.980  3.7019 -0.3911  2.2753
  820MOL0     H13151   3.369   2.767   2.997  0.2441  0.4923 -0.7448
  820MOL0     H13152   3.275   2.990   3.178 -2.3423  0.5887 -1.1285
  820MOL0     H13153   3.158   2.855   3.174 -0.9411 -1.3300  2.3848
  820MOL0     H13154   3.326   2.825   3.349 -0.7566 -0.2141  0.4487
  820MOL0     H13155   3.452   2.790   3.236 -0.6270 -0.1039 -3.1995
  820MOL0     H13156   3.219   2.432   3.247 -0.8982  1.4628  1.0341
  820MOL0     H13157   3.102   3.187   2.745 -0.4586  0.4814 -0.2517
  820MOL0     H13158   2.891   3.322   2.581 -0.0350  1.6384 -2.4473
  820MOL0     H13159   3.059   3.320   2.559 -1.4980  2.3426 -0.8330
  820MOL0     H13160   2.963   3.261   2.432  1.0105 -1.6436 -1.2895
  821MOL0     O13161   1.338   1.445   1.645  0.6818 -0.2808 -0.2232
  821MOL0     C13162   1.401   1.384   1.723  0.7826 -0.4907  0.0649
  821MOL0     O13163   1.496   1.433   1.808 -0.3775  0.3106 -0.1030
  821MOL0     C13164   1.488   1.569   1.832 -0.0796  1.0119  0.0291
  821MOL0     C13165   1.558   1.652   1.753 -0.9801 -0.7749 -0.4368
  821MOL0     C13166   1.555   1.787   1.776 -0.0501  0.5136 -0.6201
  821MOL0     C13167   1.466   1.843   1.871 -0.5634  0.1609  0.0962
  821MOL0     O13168   1.466   1.977   1.898 -0.2880 -0.6954  0.1335
  821MOL0     C13169   1.565   2.067   1.861  0.4563 -0.3914 -0.0679
  821MOL0     C13170   1.555   2.196   1.948 -0.1500 -0.7649  0.0095
  821MOL0     C13171   1.618   2.186   2.089  0.3577 -0.2401  0.3005
  821MOL0     C13172   1.756   2.132   2.108 -0.2654  0.4974 -0.0627
  821MOL0     C13173   1.829   2.222   2.203  0.0712 -0.3290 -0.2831
  821MOL0     C13174   1.970   2.158   2.239 -0.0443  0.7053 -0.2581
  821MOL0     C13175   1.969   2.067   2.365  0.3580  0.0486 -0.4081
  821MOL0     C13176   2.123   2.065   2.408  0.2380  0.5901 -0.2475
  821MOL0     N13177   2.145   2.008   2.537 -0.5149  0.8082  0.0808
  821MOL0     C13178   2.118   2.079   2.651  0.2132 -0.3511 -0.5711
  821MOL0     C13179   2.127   1.988   2.754  0.0905  0.0368  0.0419
  821MOL0     C13180   2.081   2.025   2.891 -0.3634 -0.0085 -0.7869
  821MOL0     C13181   2.190   2.019   2.999 -1.1990 -0.2810 -0.6214
  821MOL0     C13182   2.324   2.077   2.952 -0.2394  0.2467 -0.3528
  821MOL0     C13183   2.433   2.065   3.058  0.0029 -0.4092  0.2601
  821MOL0     O13184   2.418   2.181   3.149  0.9458 -0.4751 -0.3218
  821MOL0     C13185   2.486   2.166   3.269 -0.6986 -0.2819  0.9398
  821MOL0     C13186   2.433   2.202   3.390 -0.2782  0.5137  0.7507
  821MOL0     C13187   2.498   2.199   3.511 -0.2619  0.5959 -0.3547
  821MOL0     C13188   2.426   2.214   3.642 -0.0654  0.3907  0.5474
  821MOL0     C13189   2.632   2.152   3.524  0.2116 -0.0684  0.1114
  821MOL0     C13190   2.717   2.153   3.635  0.6888 -0.3450  0.1527
  821MOL0     O13191   2.683   2.070   3.742  0.4595 -0.5175  0.2190
  821MOL0     C13192   2.754   2.099   3.849 -0.3647 -0.0073 -0.4926
  821MOL0     C13193   2.876   2.039   3.866 -0.9695  0.5057 -0.2100
  821MOL0     C13194   2.940   2.041   3.997  0.1228  0.4933  0.1669
  821MOL0     C13195   2.885   2.126   4.104 -0.8070  0.7519  0.6556
  821MOL0     O13196   2.953   2.124   4.223 -0.1644  0.2473 -0.0527
  821MOL0     C13197   2.891   2.191   4.335  0.3122 -0.4174 -0.3104
  821MOL0     C13198   2.960   2.184   4.469 -0.3786 -0.1270  0.3507
  821MOL0     C13199   3.094   2.244   4.476  0.0469  0.1435  0.0480
  821MOL0     C13200   3.113   2.383   4.547 -0.1867  0.4849  0.0278
  821MOL0     C13201   3.257   2.437   4.557 -0.1009  1.3548 -0.2497
  821MOL0     C13202   3.247   2.583   4.598  0.3396  0.9159  0.0268
  821MOL0     C13203   3.369   2.651   4.575 -0.4874  0.2330  0.1368
  821MOL0     C13204   3.487   2.615   4.665  0.1143  0.2936  0.4298
  821MOL0    Cl13205   3.575   2.468   4.626  0.0965  0.1667 -0.0677
  821MOL0     C13206   2.766   2.190   4.080  0.2681  0.1173 -0.0394
  821MOL0     C13207   2.704   2.190   3.955 -0.2953 -0.4911  0.5071
  821MOL0     O13208   2.810   2.231   3.626  0.3121 -0.1281  0.2522
  821MOL0     C13209   2.692   2.114   3.400 -0.0672  0.4566 -0.3138
  821MOL0     C13210   2.614   2.118   3.282 -0.3029 -0.0726  0.6134
  821MOL0     N13211   2.163   1.870   2.696 -0.4922 -0.8669  1.0104
  821MOL0     N13212   2.171   1.882   2.570 -0.8385  0.3185  0.0304
  821MOL0     C13213   1.384   1.758   1.941 -0.2046  0.1309 -0.0322
  821MOL0     C13214   1.399   1.622   1.929 -0.1818 -0.0011  1.1884
  821MOL0     C13215   1.372   1.236   1.708 -0.1879  0.8816  0.4244
  821MOL0     C13216   1.255   1.188   1.647 -0.9304  0.6287  0.3701
  821MOL0     C13217   1.230   1.052   1.633 -0.2441  0.3738 -0.4971
  821MOL0     C13218   1.304   0.956   1.704 -0.3820  0.0096  0.1566
  821MOL0     O13219   1.255   0.824   1.696 -0.3881  0.5664  0.6827
  821MOL0     C13220   1.293   0.743   1.803 -0.2618  0.1049  0.2384
  821MOL0     C13221   1.201   0.614   1.794 -0.2136 -0.9124 -0.3575
  821MOL0     C13222   1.229   0.520   1.675 -0.4800  0.9630 -0.8426
  821MOL0     C13223   1.370   0.453   1.680 -0.5060 -0.0413  0.2414
  821MOL0     C13224   1.367   0.344   1.588  1.4607 -0.2372  0.7780
  821MOL0     C13225   1.374   0.263   1.495  0.7099  0.1188 -0.2917
  821MOL0     C13226   1.430   0.997   1.749  0.0213  0.8606  0.0546
  821MOL0     C13227   1.462   1.128   1.751 -0.0834  0.0387  0.3032
  821MOL0     C13228   1.600   1.161   1.815 -0.3191 -0.9241  0.3089
  821MOL0     H13229   1.615   1.617   1.667 -2.5146  1.3096 -2.4498
  821MOL0     H13230   1.622   1.850   1.718 -0.8802  2.2525  0.2345
  821MOL0     H13231   1.544   2.100   1.759 -0.5892  4.0795  1.3814
  821MOL0     H13232   1.662   2.021   1.883  0.6374 -1.8563 -3.3889
  821MOL0     H13233   1.608   2.274   1.893  0.5181 -0.7377  0.6764
  821MOL0     H13234   1.453   2.234   1.960 -0.4248 -1.4395 -0.1568
  821MOL0     H13235   1.607   2.288   2.127  2.1053  0.9922 -2.2227
  821MOL0     H13236   1.545   2.127   2.145  0.4880  0.9140  1.7459
  821MOL0     H13237   1.751   2.027   2.139  2.0737  0.4418  0.3253
  821MOL0     H13238   1.799   2.128   2.008 -3.0859 -1.1856 -1.3286
  821MOL0     H13239   1.772   2.250   2.291  2.6225 -0.3765  1.4950
  821MOL0     H13240   1.858   2.312   2.147  1.7906  0.6559  2.0190
  821MOL0     H13241   2.007   2.104   2.152 -0.6825  1.1077 -0.7880
  821MOL0     H13242   2.042   2.239   2.255  3.2366 -2.3901  2.5189
  821MOL0     H13243   1.937   1.969   2.328  2.2448 -0.2166 -1.5122
  821MOL0     H13244   1.901   2.110   2.439  0.5500 -1.3131  0.5898
  821MOL0     H13245   2.174   2.004   2.333 -1.4211 -0.7854 -0.3304
  821MOL0     H13246   2.160   2.168   2.406 -1.7369  1.3471 -0.4240
  821MOL0     H13247   2.106   2.186   2.659  0.9753 -0.3519  1.2187
  821MOL0     H13248   2.011   1.953   2.935  1.7972 -0.2149  2.7908
  821MOL0     H13249   2.035   2.124   2.898  2.1836  1.1847  0.1134
  821MOL0     H13250   2.150   2.078   3.081  1.0108 -0.4452  0.6416
  821MOL0     H13251   2.198   1.920   3.045 -0.0814  0.7952  1.6763
  821MOL0     H13252   2.356   2.004   2.877 -2.6941 -0.3288 -0.9333
  821MOL0     H13253   2.334   2.176   2.908  2.4140 -1.0691 -3.0796
  821MOL0     H13254   2.418   1.971   3.112 -2.4037  1.3294  2.9423
  821MOL0     H13255   2.527   2.062   3.003  1.1943 -3.9389  2.1527
  821MOL0     H13256   2.331   2.238   3.400 -0.3039  1.7539 -2.6479
  821MOL0     H13257   2.379   2.124   3.684  0.5949  0.0498  0.5649
  821MOL0     H13258   2.340   2.277   3.617 -0.1611  0.5715  1.3135
  821MOL0     H13259   2.480   2.272   3.717 -0.9791 -1.1165  2.4702
  821MOL0     H13260   2.919   1.972   3.792 -0.2494  1.9256 -1.1312
  821MOL0     H13261   3.037   1.994   4.007 -0.2549 -0.3644 -0.1089
  821MOL0     H13262   2.896   2.298   4.312 -2.3042 -0.0370  0.5176
  821MOL0     H13263   2.789   2.159   4.360 -0.1088  3.0751  3.6082
  821MOL0     H13264   2.893   2.229   4.544 -0.6826 -0.0252  0.0208
  821MOL0     H13265   2.970   2.077   4.491 -0.9357 -0.4851 -1.0586
  821MOL0     H13266   3.127   2.243   4.372  0.9639  1.6821  0.2925
  821MOL0     H13267   3.159   2.173   4.530 -1.8089 -0.8541  1.0697
  821MOL0     H13268   3.077   2.379   4.651  0.0190  1.7989  0.1727
  821MOL0     H13269   3.051   2.447   4.484  0.2713  1.6283  0.7011
  821MOL0     H13270   3.306   2.380   4.636 -2.8155  0.1592  0.7122
  821MOL0     H13271   3.323   2.421   4.471  0.2530 -0.0133  0.2494
  821MOL0     H13272   3.211   2.591   4.701 -2.0537  2.0681 -0.7942
  821MOL0     H13273   3.172   2.629   4.532  0.1240  2.2939  1.1758
  821MOL0     H13274   3.344   2.756   4.593 -2.9365  0.0403 -1.5935
  821MOL0     H13275   3.415   2.644   4.476  1.7250 -1.1373  1.1731
  821MOL0     H13276   3.449   2.592   4.765  0.1058  1.8262  0.7922
  821MOL0     H13277   3.543   2.709   4.672 -3.4513  2.6034  0.6079
  821MOL0     H13278   2.733   2.262   4.154  0.4239 -1.7623  1.9650
  821MOL0     H13279   2.611   2.244   3.937 -0.8344 -2.2690 -2.5411
  821MOL0     H13280   2.794   2.079   3.399 -0.2773 -0.1581 -1.0559
  821MOL0     H13281   2.666   2.082   3.194  1.7845  1.5397  1.1115
  821MOL0     H13282   1.313   1.812   2.004  1.0635  4.5728 -1.9904
  821MOL0     H13283   1.340   1.555   1.992 -0.3407  0.8310  1.9446
  821MOL0     H13284   1.197   1.260   1.591  1.0260 -0.1701 -2.9690
  821MOL0     H13285   1.132   1.030   1.593 -2.0614  4.0007  1.4350
  821MOL0     H13286   1.399   0.716   1.801 -0.0157  1.0166  0.4447
  821MOL0     H13287   1.274   0.787   1.901 -2.2258  1.1154 -0.5430
  821MOL0     H13288   1.097   0.644   1.806 -0.4043 -0.8505 -2.0395
  821MOL0     H13289   1.218   0.565   1.891  2.1309  1.7158  0.7015
  821MOL0     H13290   1.147   0.448   1.669 -0.9887  1.6272 -2.5150
  821MOL0     H13291   1.230   0.582   1.585  2.5878  3.1414  0.4994
  821MOL0     H13292   1.394   0.407   1.776  2.1002 -0.0843 -0.3697
  821MOL0     H13293   1.455   0.518   1.657  0.6196 -2.3212 -2.6287
  821MOL0     H13294   1.359   0.198   1.410 -6.2662  4.4587 -3.3284
  821MOL0     H13295   1.506   0.928   1.783  1.5074  0.5841 -3.4652
  821MOL0     H13296   1.654   1.215   1.738  2.1070 -1.5267  1.4764
  821MOL0     H13297   1.601   1.227   1.902  1.0193  0.4239 -0.6809
  821MOL0     H13298   1.662   1.074   1.839  2.2467  0.0522 -2.2723
  822MOL0     O13299  11.144   9.356   7.220  0.0007 -0.2913  0.4256
  822MOL0     C13300  11.093   9.474   7.218 -0.7463  0.6750  0.3271
  822MOL0     O13301  11.164   9.587   7.217 -0.4253 -1.1864 -0.2214
  822MOL0     C13302  11.300   9.570   7.199  1.0290 -1.0485 -0.8375
  822MOL0     C13303  11.375   9.514   7.305  0.3618  0.0505  0.6660
  822MOL0     C13304  11.506   9.486   7.293 -0.6040 -0.5792  0.4621
  822MOL0     C13305  11.576   9.547   7.181 -0.1746 -0.2570 -0.4808
  822MOL0     O13306  11.716   9.554   7.164 -0.0263 -0.2263 -0.0115
  822MOL0     C13307  11.793   9.488   7.257 -0.9808 -0.0626  0.0516
  822MOL0     C13308  11.944   9.511   7.229  0.0512 -0.0743  0.4132
  822MOL0     C13309  11.994   9.652   7.251  0.5601  0.2935  0.4085
  822MOL0     C13310  12.135   9.650   7.188  0.4013 -0.1149  0.3454
  822MOL0     C13311  12.190   9.790   7.166 -0.2337 -0.5841  0.1476
  822MOL0     C13312  12.226   9.865   7.298  0.0518 -0.0236  0.4729
  822MOL0     C13313  12.252  10.017   7.274  0.0528 -0.1506  0.5109
  822MOL0     C13314  12.340  10.084   7.380 -0.2140  0.1994  0.5679
  822MOL0     N13315  12.481  10.027   7.363 -0.1392 -0.9299  1.1723
  822MOL0     C13316  12.565  10.002   7.258 -0.2629 -0.0817 -0.1810
  822MOL0     C13317  12.667   9.923   7.292  0.0809 -0.2935  0.2957
  822MOL0     C13318  12.761   9.852   7.193 -0.8260  0.0173  1.1740
  822MOL0     C13319  12.898   9.927   7.166 -0.2004  0.0329  0.6217
  822MOL0     C13320  12.982   9.906   7.286  1.0385  0.2187  0.8322
  822MOL0     C13321  13.127   9.952   7.265  0.0609  0.0070  0.9287
  822MOL0     O13322  13.201   9.954   7.384  1.1808  0.4765 -0.2501
  822MOL0     C13323  13.205  10.065   7.471  0.5803  1.2521 -0.7178
  822MOL0     C13324  13.285  10.041   7.579  0.1543 -0.1212 -0.5117
  822MOL0     C13325  13.317  10.150   7.661  0.5004  0.8297 -0.6253
  822MOL0     C13326  13.406  10.129   7.776 -0.0592 -0.0659  0.4299
  822MOL0     C13327  13.246  10.275   7.641 -0.6184  0.1925 -0.2430
  822MOL0     C13328  13.258  10.383   7.741  0.5298 -0.6975 -0.3660
  822MOL0     O13329  13.149  10.405   7.822 -0.2208  0.2450  0.2444
  822MOL0     C13330  13.192  10.451   7.944  0.3443 -0.4371  0.4389
  822MOL0     C13331  13.173  10.588   7.968 -0.2840  0.4610  0.9725
  822MOL0     C13332  13.197  10.645   8.091 -0.4754  1.1831  0.0007
  822MOL0     C13333  13.245  10.571   8.199 -0.0660 -0.3089 -1.5637
  822MOL0     O13334  13.255  10.616   8.329  0.1686  0.7401 -0.1959
  822MOL0     C13335  13.266  10.758   8.343  1.1013  0.3381 -1.1329
  822MOL0     C13336  13.292  10.805   8.485 -0.2460  0.0939  0.0252
  822MOL0     C13337  13.273  10.958   8.505 -0.0772  0.8905  1.0127
  822MOL0     C13338  13.412  11.028   8.502 -0.8073 -0.8262 -0.5264
  822MOL0     C13339  13.400  11.173   8.559  0.2232  0.0409 -0.5246
  822MOL0     C13340  13.417  11.171   8.709 -0.7498  0.5500  0.4733
  822MOL0     C13341  13.416  11.312   8.758  0.2322  0.0712 -0.2187
  822MOL0     C13342  13.395  11.323   8.914  0.1850 -0.3279 -0.3599
  822MOL0    Cl13343  13.417  11.490   8.969  0.4571 -0.2300  0.4108
  822MOL0     C13344  13.250  10.426   8.183 -0.4376 -0.6800  0.5101
  822MOL0     C13345  13.226  10.365   8.055 -0.0860 -0.2664 -0.0240
  822MOL0     O13346  13.356  10.459   7.747 -0.6506 -0.0525  0.4280
  822MOL0     C13347  13.166  10.296   7.527 -0.6001  0.1369 -0.7430
  822MOL0     C13348  13.149  10.186   7.443  0.6769 -0.1106  0.8871
  822MOL0     N13349  12.651   9.910   7.430  0.4326 -0.8631  0.1856
  822MOL0     N13350  12.542   9.971   7.468 -0.3415  0.5020  0.0258
  822MOL0     C13351  11.500   9.617   7.080  0.8845 -0.5504 -0.2558
  822MOL0     C13352  11.363   9.633   7.091 -1.2272 -0.7698 -0.4721
  822MOL0     C13353  10.947   9.479   7.204 -0.2001  0.3937 -0.2627
  822MOL0     C13354  10.893   9.575   7.124  0.1721  0.0395  0.1637
  822MOL0     C13355  10.758   9.601   7.138 -0.7290 -0.6324 -0.5713
  822MOL0     C13356  10.670   9.530   7.215  1.1592 -0.1211 -0.0183
  822MOL0     O13357  10.534   9.565   7.202 -0.8131 -0.0929  0.3556
  822MOL0     C13358  10.423   9.487   7.263  0.6839  0.1041 -0.3770
  822MOL0     C13359  10.354   9.386   7.178 -0.5372  0.2010  1.1120
  822MOL0     C13360  10.434   9.283   7.085 -0.7500 -0.9502 -0.1599
  822MOL0     C13361  10.505   9.166   7.163 -0.3372  0.1578  0.1625
  822MOL0     C13362  10.408   9.055   7.184 -1.1277  0.7670 -0.9378
  822MOL0     C13363  10.343   8.951   7.209 -0.3805  0.7835  0.5439
  822MOL0     C13364  10.713   9.418   7.281 -0.2745 -0.0494  0.1375
  822MOL0     C13365  10.857   9.391   7.282  1.2799  0.1505  1.0535
  822MOL0     C13366  10.896   9.275   7.375 -0.6749 -0.6343  0.0706
  822MOL0     H13367  11.316   9.474   7.387  0.0855  1.1231  1.0122
  822MOL0     H13368  11.559   9.428   7.368  0.2598 -3.7174 -2.3430
  822MOL0     H13369  11.771   9.381   7.246  0.4993 -0.3166 -0.5972
  822MOL0     H13370  11.781   9.517   7.362  0.4776 -0.5971  0.3831
  822MOL0     H13371  12.011   9.448   7.288  0.1728 -0.2972  0.0444
  822MOL0     H13372  11.952   9.483   7.123  3.1052 -0.1045  0.5555
  822MOL0     H13373  11.932   9.733   7.212 -1.3832 -0.9115  0.8802
  822MOL0     H13374  11.993   9.665   7.360 -2.5402  0.8450  0.3862
  822MOL0     H13375  12.198   9.594   7.257  1.3295  1.4562  0.8166
  822MOL0     H13376  12.130   9.597   7.092 -1.4085  0.4119  0.0952
  822MOL0     H13377  12.115   9.846   7.111 -1.3018 -1.1808  0.9679
  822MOL0     H13378  12.286   9.796   7.113 -0.5248  0.2378 -0.3062
  822MOL0     H13379  12.147   9.855   7.373 -0.4971 -1.5818 -0.2685
  822MOL0     H13380  12.318   9.825   7.343 -0.7895 -0.4208  1.9122
  822MOL0     H13381  12.154  10.064   7.277 -0.3579 -1.0216  2.1516
  822MOL0     H13382  12.307  10.025   7.180 -2.4145  0.3784 -0.9655
  822MOL0     H13383  12.341  10.193   7.389  0.0244  0.2157  0.3532
  822MOL0     H13384  12.299  10.053   7.477  1.6490 -0.3322  1.2230
  822MOL0     H13385  12.551  10.030   7.154  1.9605  0.0495 -0.4788
  822MOL0     H13386  12.718   9.835   7.094  6.4014  1.7267 -2.9763
  822MOL0     H13387  12.788   9.752   7.229  2.6775  0.2971 -0.2655
  822MOL0     H13388  12.944   9.888   7.075 -0.1425  2.1837 -0.3120
  822MOL0     H13389  12.874  10.033   7.160  3.3956  0.8994 -0.9227
  822MOL0     H13390  12.940   9.966   7.368  1.3598 -0.0056  1.1671
  822MOL0     H13391  12.978   9.797   7.294  2.0679  0.0251 -0.9001
  822MOL0     H13392  13.181   9.876   7.208  0.3172  2.1267 -1.8374
  822MOL0     H13393  13.148  10.046   7.213 -0.3864  1.0523  2.5474
  822MOL0     H13394  13.325   9.941   7.596 -0.1926 -0.2169 -0.2670
  822MOL0     H13395  13.362  10.184   7.860  0.0816  0.0957  0.3984
  822MOL0     H13396  13.508  10.165   7.756  1.5441 -3.2040  2.1855
  822MOL0     H13397  13.408  10.025   7.811  1.0105  0.3788  1.8079
  822MOL0     H13398  13.140  10.632   7.874 -1.2237 -3.0528 -0.5103
  822MOL0     H13399  13.193  10.752   8.107 -2.8014  0.9651  1.2640
  822MOL0     H13400  13.340  10.805   8.278  2.7233 -1.0348 -0.3643
  822MOL0     H13401  13.168  10.804   8.328 -0.1724 -0.7426  2.6877
  822MOL0     H13402  13.220  10.756   8.553  1.0389 -2.1330 -0.1037
  822MOL0     H13403  13.394  10.778   8.513 -0.3323 -1.4855 -1.0437
  822MOL0     H13404  13.226  10.969   8.604  3.4373  0.5913  2.8897
  822MOL0     H13405  13.206  10.999   8.429  2.4406  0.5485 -1.5567
  822MOL0     H13406  13.446  11.048   8.399  2.8172  1.3410  0.9017
  822MOL0     H13407  13.497  10.978   8.548  1.3080  3.5937  0.9896
  822MOL0     H13408  13.480  11.234   8.516 -1.2472  0.5951 -2.6209
  822MOL0     H13409  13.301  11.212   8.535  0.5914  0.6355 -1.0927
  822MOL0     H13410  13.514  11.135   8.744 -0.8218  2.0711  2.4339
  822MOL0     H13411  13.340  11.112   8.760  0.8454 -0.9823  1.2051
  822MOL0     H13412  13.331  11.363   8.712  1.0413  0.6060 -1.1417
  822MOL0     H13413  13.514  11.354   8.738  1.6343 -1.6939  2.2949
  822MOL0     H13414  13.476  11.270   8.965 -0.8864  0.0504  1.8472
  822MOL0     H13415  13.293  11.295   8.939  0.0480  0.4608  0.0112
  822MOL0     H13416  13.269  10.378   8.278  1.0072  3.1190  2.3525
  822MOL0     H13417  13.217  10.258   8.042 -2.3926 -0.1164 -0.0880
  822MOL0     H13418  13.121  10.394   7.511 -1.9015  0.1267  2.2816
  822MOL0     H13419  13.088  10.198   7.354  3.1028  0.6436 -0.7782
  822MOL0     H13420  11.545   9.672   6.998 -0.8929  1.1505 -0.1473
  822MOL0     H13421  11.311   9.692   7.017 -1.3284 -2.4538 -1.8196
  822MOL0     H13422  10.938   9.646   7.056 -2.8236  0.6446 -1.3384
  822MOL0     H13423  10.721   9.686   7.082 -0.3914 -0.5316 -0.6433
  822MOL0     H13424  10.446   9.454   7.365 -0.0514  3.0261  0.8391
  822MOL0     H13425  10.345   9.562   7.277  2.4678  2.6357 -2.8211
  822MOL0     H13426  10.278   9.437   7.120 -0.4626  2.1942  2.6742
  822MOL0     H13427  10.305   9.318   7.249  0.8052 -0.3250  1.5680
  822MOL0     H13428  10.366   9.248   7.007 -0.0409 -0.4456 -1.0280
  822MOL0     H13429  10.506   9.348   7.035  0.0853 -0.5222  1.5340
  822MOL0     H13430  10.548   9.190   7.261 -3.2513 -0.1779  1.6115
  822MOL0     H13431  10.575   9.124   7.089 -0.8548 -2.7357  1.1876
  822MOL0     H13432  10.277   8.869   7.228 -1.8162  1.3667 -1.4888
  822MOL0     H13433  10.642   9.367   7.344 -1.0581  3.7932  2.7344
  822MOL0     H13434  10.951   9.308   7.463  0.8183 -0.7087 -0.8040
  822MOL0     H13435  10.800   9.229   7.400 -2.2104  0.8611 -2.6107
  822MOL0     H13436  10.961   9.198   7.332 -0.2117 -0.9178  1.2346
  823MOL0     O13437   2.264   3.425   4.498  0.0522  0.2336  0.3435
  823MOL0     C13438   2.379   3.385   4.495 -0.1798 -0.2996  0.6200
  823MOL0     O13439   2.483   3.435   4.575  0.1401 -0.7542 -0.2903
  823MOL0     C13440   2.454   3.501   4.698 -1.5569 -1.0047  0.0768
  823MOL0     C13441   2.331   3.546   4.742 -0.0212 -0.2676  0.0096
  823MOL0     C13442   2.306   3.612   4.869 -0.4234  0.4809  0.1659
  823MOL0     C13443   2.412   3.667   4.929 -1.2419  0.9015 -0.6325
  823MOL0     O13444   2.383   3.739   5.043 -0.4959 -0.3854  0.0118
  823MOL0     C13445   2.489   3.773   5.143 -0.1243  0.2219 -0.2365
  823MOL0     C13446   2.436   3.860   5.260  0.6571 -0.2666 -0.6095
  823MOL0     C13447   2.532   3.887   5.371 -1.2030  0.3276 -0.4426
  823MOL0     C13448   2.638   3.990   5.335  0.3745  0.6779 -0.4888
  823MOL0     C13449   2.749   4.006   5.446 -0.2832 -0.0307 -0.8645
  823MOL0     C13450   2.847   3.883   5.455 -0.6712 -1.3508 -0.0258
  823MOL0     C13451   2.974   3.931   5.539  0.4541 -0.3157 -0.0920
  823MOL0     C13452   3.087   3.830   5.568 -0.3264  0.6782 -0.5045
  823MOL0     N13453   3.215   3.867   5.641  1.2545  1.0449  0.2995
  823MOL0     C13454   3.214   3.927   5.764 -0.1062 -0.0706 -0.7703
  823MOL0     C13455   3.351   3.940   5.777  0.6966 -0.1368 -1.0747
  823MOL0     C13456   3.411   4.000   5.899  1.1710  0.6005 -0.4177
  823MOL0     C13457   3.430   4.150   5.889  0.1387 -0.7275 -0.2832
  823MOL0     C13458   3.514   4.198   5.769 -0.3557 -0.3075  0.1154
  823MOL0     C13459   3.577   4.338   5.792 -0.1470 -0.0649 -0.0948
  823MOL0     O13460   3.668   4.367   5.683 -0.4775 -1.2017  0.2261
  823MOL0     C13461   3.806   4.354   5.701 -0.1123  0.2551  0.3591
  823MOL0     C13462   3.895   4.395   5.598 -0.1592  0.2386 -0.3403
  823MOL0     C13463   4.030   4.396   5.607 -0.7242  0.2776  0.8050
  823MOL0     C13464   4.101   4.414   5.467  0.0322 -0.5860  0.1406
  823MOL0     C13465   4.094   4.368   5.727 -0.0007  0.2577 -0.4669
  823MOL0     C13466   4.240   4.367   5.745  0.9003  0.5128  0.6976
  823MOL0     O13467   4.278   4.307   5.864  0.3875 -0.9310  0.1768
  823MOL0     C13468   4.407   4.274   5.881  0.3406 -0.2665  0.2664
  823MOL0     C13469   4.459   4.144   5.851  0.1184 -0.2411 -0.1336
  823MOL0     C13470   4.595   4.110   5.864  0.1186 -0.0351 -0.0349
  823MOL0     C13471   4.688   4.216   5.898 -0.2703 -1.3000 -0.5587
  823MOL0     O13472   4.826   4.213   5.915 -0.2889 -0.0730 -0.2007
  823MOL0     C13473   4.882   4.083   5.901 -0.2702  0.1335 -0.1133
  823MOL0     C13474   4.884   4.012   6.037  0.6093 -0.0418 -0.5642
  823MOL0     C13475   4.974   3.885   6.026 -0.4918  0.6280 -0.1380
  823MOL0     C13476   4.993   3.806   6.160  0.0106  1.8250  0.4341
  823MOL0     C13477   5.095   3.694   6.164  0.5633 -0.5642  0.1466
  823MOL0     C13478   5.145   3.665   6.308  0.2588 -0.3451  0.1750
  823MOL0     C13479   5.257   3.562   6.312 -1.0674 -0.0122  0.0616
  823MOL0     C13480   5.343   3.560   6.434  0.9014 -0.8239  0.1389
  823MOL0    Cl13481   5.241   3.524   6.578 -0.0309 -0.4703 -0.2901
  823MOL0     C13482   4.633   4.337   5.938 -0.7035 -0.6027  0.2304
  823MOL0     C13483   4.499   4.367   5.929 -0.2807 -0.4634  0.4768
  823MOL0     O13484   4.314   4.415   5.662  0.3421 -0.4529  0.0056
  823MOL0     C13485   4.013   4.315   5.832  0.9213 -0.3678 -0.4217
  823MOL0     C13486   3.870   4.302   5.817  1.3418  0.2881  0.0307
  823MOL0     N13487   3.423   3.891   5.676 -1.0538 -0.2612 -0.3392
  823MOL0     N13488   3.336   3.851   5.587 -0.0736  0.5992 -0.5872
  823MOL0     C13489   2.543   3.619   4.887  0.7076 -0.2128  0.6882
  823MOL0     C13490   2.558   3.543   4.776 -0.1479  1.2004  0.7493
  823MOL0     C13491   2.409   3.281   4.387 -0.1727 -0.7770  0.3144
  823MOL0     C13492   2.542   3.283   4.344 -1.0840 -1.0381 -0.7770
  823MOL0     C13493   2.569   3.216   4.224 -0.4138  0.4754  0.1556
  823MOL0     C13494   2.480   3.149   4.143 -0.2128 -0.3863 -0.2447
  823MOL0     O13495   2.523   3.099   4.022 -0.1914 -0.3107  0.4924
  823MOL0     C13496   2.458   2.991   3.965  0.0281  0.5272  0.4318
  823MOL0     C13497   2.489   2.977   3.816  0.3292  0.4298 -0.7372
  823MOL0     C13498   2.432   3.102   3.739  0.6002 -0.4409 -0.7355
  823MOL0     C13499   2.275   3.114   3.735 -0.4923 -0.4378  0.4275
  823MOL0     C13500   2.208   3.042   3.624 -0.4202  0.6141 -0.3302
  823MOL0     C13501   2.174   2.959   3.541  0.4678  0.0063 -0.2666
  823MOL0     C13502   2.352   3.137   4.195 -0.5106  0.0197  1.0327
  823MOL0     C13503   2.314   3.205   4.315  0.3961  0.2530  0.5396
  823MOL0     C13504   2.170   3.196   4.360  0.5416 -0.3757 -0.1436
  823MOL0     H13505   2.236   3.522   4.693 -0.3137  0.5725  0.1534
  823MOL0     H13506   2.204   3.635   4.898 -2.9905 -6.2908 -1.4679
  823MOL0     H13507   2.572   3.832   5.104  1.2452  1.3408  3.8748
  823MOL0     H13508   2.518   3.678   5.190  3.2185  2.1224  1.9364
  823MOL0     H13509   2.389   3.953   5.226 -1.9534 -0.8037  1.2097
  823MOL0     H13510   2.361   3.797   5.309  1.6847  0.1287  1.5964
  823MOL0     H13511   2.480   3.931   5.456  0.2263 -2.7222  2.2282
  823MOL0     H13512   2.575   3.789   5.397 -3.0344 -0.6633 -0.9882
  823MOL0     H13513   2.689   3.952   5.245  0.1086 -2.1357  0.4526
  823MOL0     H13514   2.597   4.089   5.318 -1.6492 -0.3377 -1.8838
  823MOL0     H13515   2.699   4.036   5.538  2.6723 -1.4540  1.3931
  823MOL0     H13516   2.806   4.094   5.417  0.3872  0.2582  1.1687
  823MOL0     H13517   2.802   3.799   5.509 -1.8548 -1.1474 -0.6689
  823MOL0     H13518   2.877   3.848   5.355 -0.5887  1.5731 -1.1282
  823MOL0     H13519   2.948   3.977   5.634  1.4657  0.7997 -0.3284
  823MOL0     H13520   3.022   4.013   5.483 -2.9872  3.5108  1.9955
  823MOL0     H13521   3.050   3.739   5.616  1.6445  1.0632  1.9591
  823MOL0     H13522   3.118   3.798   5.468 -0.2967 -0.0717 -0.2565
  823MOL0     H13523   3.132   3.973   5.819  0.0703  1.2597 -1.5760
  823MOL0     H13524   3.515   3.967   5.903  1.1488  0.5778  0.0326
  823MOL0     H13525   3.357   3.982   5.993  3.7903 -1.5562  0.8097
  823MOL0     H13526   3.336   4.206   5.884 -0.2832 -1.5145 -1.5685
  823MOL0     H13527   3.487   4.183   5.976  0.0687  2.2569 -1.2526
  823MOL0     H13528   3.595   4.124   5.757 -0.4488 -0.2680 -0.8598
  823MOL0     H13529   3.471   4.188   5.669 -0.9937 -0.6380  0.4235
  823MOL0     H13530   3.492   4.406   5.788 -0.6832 -0.6073  1.2648
  823MOL0     H13531   3.625   4.355   5.889 -2.2244 -0.0640  0.9810
  823MOL0     H13532   3.845   4.407   5.502  1.0187  2.0383 -0.7770
  823MOL0     H13533   4.033   4.450   5.389  0.4087  0.3716  0.2475
  823MOL0     H13534   4.156   4.328   5.427  1.8379 -0.2965  1.8580
  823MOL0     H13535   4.175   4.493   5.479  0.1826 -0.7788  0.5236
  823MOL0     H13536   4.394   4.063   5.820 -1.5729  1.5394 -1.4550
  823MOL0     H13537   4.630   4.010   5.839 -4.3548 -1.3956 -1.9659
  823MOL0     H13538   4.848   4.016   5.822  1.0365 -0.3399 -0.2843
  823MOL0     H13539   4.983   4.087   5.861 -0.0360 -3.7758 -0.2851
  823MOL0     H13540   4.906   4.081   6.119 -1.2531  0.0104 -0.0489
  823MOL0     H13541   4.788   3.967   6.061  0.1779 -0.1457 -2.3051
  823MOL0     H13542   5.074   3.894   5.983 -0.9399 -4.2620 -2.9302
  823MOL0     H13543   4.920   3.827   5.951 -0.9131  4.1240 -2.8307
  823MOL0     H13544   4.899   3.775   6.207  0.0416  1.4948  0.2846
  823MOL0     H13545   5.031   3.879   6.232  0.3486  2.3285 -0.2485
  823MOL0     H13546   5.039   3.609   6.123 -2.4323  1.9172 -1.3104
  823MOL0     H13547   5.183   3.707   6.100 -0.8977 -2.3511 -2.3971
  823MOL0     H13548   5.062   3.629   6.370 -1.3239 -1.5303 -2.4501
  823MOL0     H13549   5.187   3.759   6.343  0.3496  0.7247 -2.5336
  823MOL0     H13550   5.319   3.589   6.227 -2.6299 -0.1582 -1.1741
  823MOL0     H13551   5.231   3.459   6.285  2.6577 -0.8200 -0.9943
  823MOL0     H13552   5.401   3.653   6.433  0.5536 -0.5847 -1.5921
  823MOL0     H13553   5.421   3.488   6.408  1.7518  1.6080 -5.6398
  823MOL0     H13554   4.694   4.413   5.986  1.3420 -0.6898 -2.0367
  823MOL0     H13555   4.471   4.468   5.959  0.8033 -0.0292  0.0853
  823MOL0     H13556   4.047   4.287   5.931 -2.0895 -1.0876  0.5188
  823MOL0     H13557   3.803   4.266   5.895 -1.5184 -1.8951 -3.1576
  823MOL0     H13558   2.628   3.654   4.944  1.3343  3.4839 -2.1572
  823MOL0     H13559   2.659   3.524   4.739  0.0962  1.3214  1.3383
  823MOL0     H13560   2.625   3.339   4.387 -1.0818 -0.2602 -1.7564
  823MOL0     H13561   2.674   3.221   4.196  0.1769  1.0847  2.3008
  823MOL0     H13562   2.499   2.909   4.026  1.7580  1.8755  1.1659
  823MOL0     H13563   2.349   2.990   3.973  0.0607 -1.2405  1.1938
  823MOL0     H13564   2.448   2.883   3.778  0.9968  0.2188 -0.9584
  823MOL0     H13565   2.598   2.980   3.811  0.5071 -1.9202  0.0848
  823MOL0     H13566   2.474   3.181   3.802  2.6819 -3.2992  1.7449
  823MOL0     H13567   2.484   3.119   3.645  1.2470 -1.2491 -0.5443
  823MOL0     H13568   2.261   3.223   3.739  2.7120  0.1412 -1.0208
  823MOL0     H13569   2.225   3.068   3.821 -0.1624  0.7475  1.2855
  823MOL0     H13570   2.145   2.871   3.488 -0.0924 -0.5101  0.8607
  823MOL0     H13571   2.276   3.082   4.142 -1.7432  1.4719  1.2193
  823MOL0     H13572   2.116   3.142   4.282 -1.7690 -1.3636  2.0215
  823MOL0     H13573   2.142   3.134   4.445 -2.7440  0.2616 -0.6307
  823MOL0     H13574   2.119   3.291   4.376  2.3353  0.9363 -1.6346
  824MOL0     O13575   3.791   9.972   2.168 -0.0847  0.0804 -0.5728
  824MOL0     C13576   3.688   9.968   2.102 -0.3369 -0.4697 -0.1152
  824MOL0     O13577   3.578  10.060   2.123  0.6398 -0.1009 -0.4990
  824MOL0     C13578   3.582  10.165   2.218  0.2390  0.5205 -0.8915
  824MOL0     C13579   3.621  10.291   2.181 -0.2365  0.1253 -0.5641
  824MOL0     C13580   3.640  10.393   2.274  0.4790 -0.2934  1.0519
  824MOL0     C13581   3.617  10.375   2.412  0.1710 -0.7433 -0.9246
  824MOL0     O13582   3.633  10.476   2.505 -0.5149  0.8300  0.3779
  824MOL0     C13583   3.776  10.498   2.514  0.2211  0.1811  0.3201
  824MOL0     C13584   3.809  10.611   2.620 -0.2015  0.5883 -0.3777
  824MOL0     C13585   3.767  10.579   2.765  0.2311 -0.8819  0.2429
  824MOL0     C13586   3.836  10.671   2.867  0.5780  0.1805 -1.2040
  824MOL0     C13587   3.817  10.610   3.012  0.0261  0.0021  0.4099
  824MOL0     C13588   3.938  10.517   3.043  0.2867  0.1884  0.0763
  824MOL0     C13589   3.930  10.454   3.188 -0.0962  0.7570 -0.1435
  824MOL0     C13590   3.935  10.558   3.295 -0.3849 -0.8079 -1.2038
  824MOL0     N13591   4.048  10.653   3.305 -0.3070  0.5539  0.7278
  824MOL0     C13592   4.059  10.771   3.237  0.5416 -0.5224  0.1532
  824MOL0     C13593   4.188  10.814   3.235 -0.4512  0.0350  0.0326
  824MOL0     C13594   4.250  10.941   3.174  0.2151  0.3981 -0.2253
  824MOL0     C13595   4.359  11.003   3.267  0.3890  0.1976 -0.5412
  824MOL0     C13596   4.439  11.108   3.194 -0.6716  0.2128 -0.4686
  824MOL0     C13597   4.558  11.140   3.294  0.4308 -0.7341  0.0091
  824MOL0     O13598   4.502  11.213   3.404 -0.1033 -0.3927  0.6044
  824MOL0     C13599   4.580  11.228   3.516 -0.3618  1.3348 -0.6217
  824MOL0     C13600   4.522  11.296   3.617  0.5883 -0.5526 -0.8416
  824MOL0     C13601   4.592  11.322   3.742 -0.0830 -0.3800  0.0139
  824MOL0     C13602   4.510  11.381   3.856  0.0241  0.2355  0.3026
  824MOL0     C13603   4.728  11.272   3.751  0.0380  0.2623 -0.9831
  824MOL0     C13604   4.819  11.301   3.871 -0.1114  0.5222  0.1367
  824MOL0     O13605   4.911  11.205   3.898  0.1025  0.2345 -0.3618
  824MOL0     C13606   5.022  11.237   3.970 -0.1612 -0.2810  0.6901
  824MOL0     C13607   5.026  11.296   4.095 -0.5723 -0.1217  0.2334
  824MOL0     C13608   5.150  11.303   4.163  0.4677  0.5618 -0.3522
  824MOL0     C13609   5.262  11.242   4.115  0.0709 -0.7836 -0.0958
  824MOL0     O13610   5.352  11.219   4.214  0.1378 -0.7295  0.1975
  824MOL0     C13611   5.490  11.269   4.188 -0.4111  0.7469 -0.1602
  824MOL0     C13612   5.482  11.422   4.182 -0.4251  0.1650 -1.3990
  824MOL0     C13613   5.613  11.506   4.200  0.1745  0.0977 -0.6522
  824MOL0     C13614   5.600  11.653   4.178  0.1687 -0.4736 -0.6874
  824MOL0     C13615   5.736  11.714   4.176 -0.3474 -0.0538  0.1059
  824MOL0     C13616   5.724  11.866   4.197  0.1423 -0.1808 -0.2341
  824MOL0     C13617   5.621  11.929   4.108 -0.1092  0.5570  0.0182
  824MOL0     C13618   5.669  12.069   4.073  0.0011  0.5332  0.4330
  824MOL0    Cl13619   5.715  12.169   4.219  0.1262 -0.1587 -0.3834
  824MOL0     C13620   5.254  11.189   3.987 -0.4788 -0.2216  0.9482
  824MOL0     C13621   5.136  11.190   3.910  0.6765  0.2865 -0.1493
  824MOL0     O13622   4.802  11.409   3.923 -0.2702  0.4417 -0.6156
  824MOL0     C13623   4.781  11.204   3.648 -0.6207  0.1280  0.6315
  824MOL0     C13624   4.703  11.166   3.535 -0.6097 -0.5988 -0.2986
  824MOL0     N13625   4.262  10.712   3.310 -0.2882 -0.6732 -0.2808
  824MOL0     N13626   4.174  10.629   3.359 -0.0478  0.4258 -0.3844
  824MOL0     C13627   3.571  10.248   2.448 -0.2207  0.6079  0.0538
  824MOL0     C13628   3.552  10.138   2.356  0.3248 -0.1192 -0.2392
  824MOL0     C13629   3.667   9.864   1.997  0.2858 -0.2968  0.2841
  824MOL0     C13630   3.747   9.744   2.010 -0.4430  0.3043  0.6951
  824MOL0     C13631   3.721   9.630   1.932  0.2673 -0.4686 -0.1244
  824MOL0     C13632   3.629   9.630   1.831  0.3384  1.2986 -0.2518
  824MOL0     O13633   3.616   9.516   1.761  0.2450 -0.5427 -0.4419
  824MOL0     C13634   3.524   9.515   1.648 -0.6149 -0.3165 -0.0229
  824MOL0     C13635   3.558   9.384   1.579 -0.1763  0.1935 -0.2499
  824MOL0     C13636   3.694   9.367   1.517  0.0710 -0.8655 -0.2802
  824MOL0     C13637   3.718   9.465   1.405  0.7117 -0.7402  0.2174
  824MOL0     C13638   3.801   9.417   1.302  0.4121  0.0584 -0.5240
  824MOL0     C13639   3.851   9.379   1.203 -0.8545 -0.0971 -0.0455
  824MOL0     C13640   3.554   9.750   1.818 -0.1209 -0.9156 -0.0872
  824MOL0     C13641   3.572   9.867   1.898 -0.3000 -0.2805 -0.2027
  824MOL0     C13642   3.491  10.002   1.876  0.1408  0.2571  0.0482
  824MOL0     H13643   3.656  10.305   2.079  2.1725  0.2774  0.2385
  824MOL0     H13644   3.689  10.482   2.235 -0.8732 -0.2857 -0.7522
  824MOL0     H13645   3.822  10.524   2.418  3.8655 -2.8193  0.9823
  824MOL0     H13646   3.828  10.405   2.539  2.0704  0.7101 -1.2636
  824MOL0     H13647   3.916  10.634   2.613  0.1685 -0.8674  0.1955
  824MOL0     H13648   3.750  10.693   2.579 -0.4078 -0.3814 -2.1120
  824MOL0     H13649   3.661  10.579   2.792 -0.5474 -3.2936 -2.3918
  824MOL0     H13650   3.799  10.475   2.779  1.4610 -1.2529 -4.0486
  824MOL0     H13651   3.943  10.675   2.847  0.8297 -0.1436 -0.0141
  824MOL0     H13652   3.788  10.770   2.867  2.5333  1.2069  0.9950
  824MOL0     H13653   3.725  10.551   3.009  1.0967 -1.7983 -3.1056
  824MOL0     H13654   3.820  10.693   3.083  2.2465 -0.5680  1.0556
  824MOL0     H13655   3.953  10.436   2.971  0.9128 -0.1046  0.5309
  824MOL0     H13656   4.025  10.582   3.039  1.9289 -1.5349  3.7845
  824MOL0     H13657   4.007  10.378   3.207 -0.4544  0.5589  0.5323
  824MOL0     H13658   3.842  10.390   3.184  1.3433 -1.2634 -1.6525
  824MOL0     H13659   3.839  10.609   3.283  0.2723  0.2675 -2.2141
  824MOL0     H13660   3.941  10.502   3.389  0.1884 -3.1655 -2.5741
  824MOL0     H13661   3.978  10.821   3.185 -0.2975 -2.3932 -0.4121
  824MOL0     H13662   4.165  11.010   3.169  0.6255  0.9926  0.6077
  824MOL0     H13663   4.278  10.923   3.070 -1.3480  2.8516 -1.1711
  824MOL0     H13664   4.306  11.052   3.350 -0.8165  2.1498 -2.3509
  824MOL0     H13665   4.419  10.920   3.305 -0.4556  0.7361  2.2048
  824MOL0     H13666   4.486  11.053   3.111 -0.4907  0.6662 -0.6684
  824MOL0     H13667   4.368  11.185   3.162 -4.4628 -2.8321 -0.1251
  824MOL0     H13668   4.595  11.045   3.334  1.8072 -0.0891  0.2935
  824MOL0     H13669   4.644  11.188   3.248  1.4333 -1.9637  0.5559
  824MOL0     H13670   4.423  11.341   3.613 -0.8183 -2.6740  3.4737
  824MOL0     H13671   4.510  11.303   3.932  3.3312  1.6602  1.9572
  824MOL0     H13672   4.409  11.412   3.827 -0.8363 -3.3296 -0.9911
  824MOL0     H13673   4.563  11.468   3.896  0.4711 -0.7264  1.8483
  824MOL0     H13674   4.934  11.317   4.150  0.0387  0.0255  1.2356
  824MOL0     H13675   5.150  11.340   4.265  0.6347 -0.9203  0.2187
  824MOL0     H13676   5.560  11.237   4.265 -0.7148  2.3079  0.8135
  824MOL0     H13677   5.522  11.233   4.090  1.3003  0.5085  0.4487
  824MOL0     H13678   5.439  11.449   4.085  0.2157  2.7291 -1.0479
  824MOL0     H13679   5.420  11.453   4.267 -0.4170  1.2402 -1.7686
  824MOL0     H13680   5.693  11.485   4.128  1.7029  7.1358 -1.7058
  824MOL0     H13681   5.651  11.475   4.298  0.1165 -1.2199 -1.0281
  824MOL0     H13682   5.541  11.706   4.254  0.6638  0.5643 -1.0240
  824MOL0     H13683   5.554  11.660   4.080 -2.5428  3.3537  0.6160
  824MOL0     H13684   5.805  11.668   4.247 -0.1210 -0.6109 -0.4596
  824MOL0     H13685   5.778  11.699   4.076  1.1878  0.6413  0.6244
  824MOL0     H13686   5.821  11.913   4.179  0.5178 -0.8017  0.1280
  824MOL0     H13687   5.688  11.880   4.299 -0.1218 -1.7136 -0.0967
  824MOL0     H13688   5.531  11.940   4.169 -0.8389 -0.0151 -0.9166
  824MOL0     H13689   5.608  11.867   4.019 -2.0723  0.1537  0.5245
  824MOL0     H13690   5.585  12.117   4.021  0.4777 -1.2380 -2.1603
  824MOL0     H13691   5.757  12.056   4.010  0.6530  1.6082  1.0995
  824MOL0     H13692   5.331  11.133   3.935 -1.1302  0.9184 -1.4069
  824MOL0     H13693   5.130  11.139   3.815  1.2173 -1.5207  0.7418
  824MOL0     H13694   4.878  11.157   3.657 -0.2628  0.3477 -1.4977
  824MOL0     H13695   4.737  11.088   3.467 -0.1865 -0.9218  0.2744
  824MOL0     H13696   3.537  10.241   2.551 -0.9058  1.6418 -0.0911
  824MOL0     H13697   3.510  10.044   2.389 -0.1099  0.8758  2.3296
  824MOL0     H13698   3.833   9.721   2.072  1.0872 -0.2924 -1.5137
  824MOL0     H13699   3.783   9.541   1.929 -0.7774 -1.2335 -3.4784
  824MOL0     H13700   3.418   9.518   1.675 -0.8991 -3.2679 -0.4545
  824MOL0     H13701   3.539   9.590   1.570 -4.2808 -0.3040 -0.8888
  824MOL0     H13702   3.491   9.387   1.492 -0.1712  0.0391 -0.2590
  824MOL0     H13703   3.534   9.302   1.647  4.1145 -0.2229  1.0109
  824MOL0     H13704   3.760   9.389   1.601 -1.2235 -0.0722  0.5591
  824MOL0     H13705   3.705   9.266   1.476  0.4727 -1.0023  0.1547
  824MOL0     H13706   3.764   9.561   1.433  1.2458 -1.4640  1.9245
  824MOL0     H13707   3.633   9.481   1.339  3.5104 -1.3465 -3.8862
  824MOL0     H13708   3.905   9.348   1.116 -0.7958  0.9897 -0.4118
  824MOL0     H13709   3.473   9.750   1.746 -0.1408  1.6608 -0.1394
  824MOL0     H13710   3.550  10.093   1.862  1.8424 -0.6552  1.0237
  824MOL0     H13711   3.417   9.992   1.795  2.2273 -2.3783 -1.7085
  824MOL0     H13712   3.437  10.023   1.969  1.7368  2.8835  0.5000
  825MOL0     O13713   0.949   9.623   3.792 -0.1655  0.3873 -0.1571
  825MOL0     C13714   1.060   9.675   3.796  0.4761  0.2253  0.0562
  825MOL0     O13715   1.169   9.622   3.738 -1.0520  0.1070 -0.2550
  825MOL0     C13716   1.169   9.499   3.683  0.2959 -0.0664  0.1616
  825MOL0     C13717   1.285   9.429   3.709 -0.5034  0.5127  0.6174
  825MOL0     C13718   1.295   9.292   3.676 -0.1023 -0.3242  0.3916
  825MOL0     C13719   1.195   9.224   3.600 -0.5155  0.0939 -0.9968
  825MOL0     O13720   1.194   9.086   3.581  0.0965 -0.0740  0.6626
  825MOL0     C13721   1.300   9.013   3.646 -0.0481 -0.3074 -0.0557
  825MOL0     C13722   1.282   8.860   3.633  0.5060 -1.1082 -0.6525
  825MOL0     C13723   1.201   8.833   3.498 -0.1540 -0.4147 -0.2200
  825MOL0     C13724   1.184   8.683   3.499  1.0204  0.2891 -0.4459
  825MOL0     C13725   1.139   8.612   3.363 -0.3214  0.2646  1.0698
  825MOL0     C13726   1.170   8.685   3.221  0.0967  0.0313 -0.6612
  825MOL0     C13727   1.130   8.597   3.100 -0.4651 -0.1011 -0.1384
  825MOL0     C13728   0.981   8.598   3.066  0.1875  0.3574 -0.9866
  825MOL0     N13729   0.933   8.700   2.968  1.3827  0.1832  0.0321
  825MOL0     C13730   0.905   8.829   2.991  0.0395 -0.0272  0.4023
  825MOL0     C13731   0.844   8.873   2.877 -1.4616  0.4725  0.1831
  825MOL0     C13732   0.769   9.000   2.847  0.0069  0.1009  0.7136
  825MOL0     C13733   0.612   8.979   2.861 -0.6347  0.1404 -0.8942
  825MOL0     C13734   0.541   9.088   2.778  0.9115  0.9490 -0.1936
  825MOL0     C13735   0.559   9.225   2.848  1.1436 -0.6479 -0.7093
  825MOL0     O13736   0.455   9.254   2.949 -0.6922  0.5141  0.2884
  825MOL0     C13737   0.446   9.388   2.992 -0.8172 -0.0979 -0.2230
  825MOL0     C13738   0.482   9.508   2.913 -0.7361 -0.7292 -0.1625
  825MOL0     C13739   0.475   9.636   2.972 -0.3468  0.4751  0.2280
  825MOL0     C13740   0.509   9.757   2.886  0.4765  0.3991  0.6360
  825MOL0     C13741   0.430   9.646   3.106 -0.1861  0.1763 -0.4308
  825MOL0     C13742   0.415   9.776   3.178 -1.4085  0.7912 -0.3899
  825MOL0     O13743   0.284   9.793   3.206  0.2140  0.2299 -0.4216
  825MOL0     C13744   0.252   9.859   3.328 -0.8830 -0.0093  0.2286
  825MOL0     C13745   0.227   9.992   3.320 -0.1510 -0.1764 -0.0311
  825MOL0     C13746   0.192  10.063   3.437 -0.5937  0.2797  0.8043
  825MOL0     C13747   0.199   9.989   3.557  0.0057 -0.1975 -0.1089
  825MOL0     O13748   0.179  10.062   3.673  0.3806 -0.3403  0.8376
  825MOL0     C13749   0.229  10.194   3.688  0.0010  0.3520 -0.4750
  825MOL0     C13750   0.327  10.202   3.807  0.0746  0.8791 -0.5727
  825MOL0     C13751   0.470  10.192   3.773 -0.4061  0.3700 -0.6209
  825MOL0     C13752   0.515  10.061   3.706  0.6247 -0.1343  0.2397
  825MOL0     C13753   0.670  10.049   3.715 -0.2978 -0.5135  0.8287
  825MOL0     C13754   0.717   9.959   3.603  0.2144 -0.3313  0.6427
  825MOL0     C13755   0.671   9.817   3.597 -0.5945  0.2161 -0.5467
  825MOL0     C13756   0.703   9.755   3.462 -0.6596 -0.7841 -0.1301
  825MOL0    Cl13757   0.630   9.586   3.464 -0.5012  0.3973  0.0793
  825MOL0     C13758   0.243   9.849   3.569 -0.1948  0.0099 -0.0805
  825MOL0     C13759   0.270   9.794   3.448 -0.2356  0.4324  0.2566
  825MOL0     O13760   0.511   9.856   3.201  0.7995  0.4756  0.7242
  825MOL0     C13761   0.403   9.525   3.179 -0.2577 -0.4451  0.9885
  825MOL0     C13762   0.411   9.399   3.121  0.1952 -0.2444  0.4420
  825MOL0     N13763   0.848   8.771   2.788  1.0051  0.0698  0.5614
  825MOL0     N13764   0.894   8.663   2.844 -1.0867 -1.3526  0.8478
  825MOL0     C13765   1.084   9.298   3.568  0.3508  0.0864 -0.7195
  825MOL0     C13766   1.065   9.436   3.609 -0.5825 -0.7048 -0.4798
  825MOL0     C13767   1.074   9.819   3.830 -0.4561 -0.9223  0.7966
  825MOL0     C13768   1.186   9.890   3.768  0.0456  0.9247 -0.4378
  825MOL0     C13769   1.208  10.024   3.785 -0.1229  0.1394  0.4538
  825MOL0     C13770   1.108  10.093   3.848 -0.0829 -0.1644 -1.0374
  825MOL0     O13771   1.136  10.224   3.863 -0.0139 -0.5388 -0.4040
  825MOL0     C13772   1.020  10.299   3.845  0.3610  0.5534 -0.2234
  825MOL0     C13773   1.073  10.412   3.759 -0.2325 -0.3747 -0.0231
  825MOL0     C13774   1.163  10.508   3.836 -0.1721  0.3963  0.6455
  825MOL0     C13775   1.079  10.592   3.938 -0.0851  1.1756  0.0264
  825MOL0     C13776   1.152  10.714   3.979 -0.3118  0.3457 -0.7577
  825MOL0     C13777   1.201  10.819   4.007  0.5171 -0.2658 -0.1954
  825MOL0     C13778   0.999  10.035   3.909  0.5404  0.7699  0.5576
  825MOL0     C13779   0.986   9.897   3.899  1.0157  0.7691 -0.3847
  825MOL0     C13780   0.869   9.845   3.995  1.0829 -0.4976 -0.0497
  825MOL0     H13781   1.360   9.467   3.777 -1.2631 -1.0546  2.3831
  825MOL0     H13782   1.384   9.237   3.707 -1.0430 -2.9798 -1.2754
  825MOL0     H13783   1.310   9.045   3.750 -0.9074 -1.8031  0.5118
  825MOL0     H13784   1.391   9.037   3.590 -0.1412  2.0533  0.6846
  825MOL0     H13785   1.382   8.817   3.646  1.3115  1.3261  2.0112
  825MOL0     H13786   1.219   8.823   3.714  1.2622 -1.2150 -0.1025
  825MOL0     H13787   1.105   8.883   3.482  0.1567  0.0567 -0.6868
  825MOL0     H13788   1.262   8.863   3.411 -3.1329 -0.5831 -2.5346
  825MOL0     H13789   1.276   8.637   3.535  0.9382  0.8437  0.5054
  825MOL0     H13790   1.104   8.666   3.571  3.7586  0.2413  2.8215
  825MOL0     H13791   1.030   8.602   3.365 -0.2945 -0.1712  3.2370
  825MOL0     H13792   1.185   8.513   3.359  1.5496  1.1327 -0.7368
  825MOL0     H13793   1.127   8.786   3.228 -0.8341 -0.3323 -0.8961
  825MOL0     H13794   1.277   8.697   3.207 -0.2829  0.4441 -3.8945
  825MOL0     H13795   1.181   8.505   3.128 -0.2158  0.2472  0.6026
  825MOL0     H13796   1.183   8.650   3.020 -1.1649  2.7467  1.1262
  825MOL0     H13797   0.956   8.496   3.035 -2.8448  0.6265  0.2409
  825MOL0     H13798   0.928   8.617   3.160 -0.4939 -0.7228 -1.1281
  825MOL0     H13799   0.919   8.893   3.077 -0.6429  2.1117 -0.9858
  825MOL0     H13800   0.796   9.045   2.751 -0.6345  1.0719  0.9773
  825MOL0     H13801   0.810   9.063   2.926  3.7922 -1.6400  0.3629
  825MOL0     H13802   0.585   8.882   2.818 -1.1891  0.3783 -1.0863
  825MOL0     H13803   0.583   8.980   2.966  0.9478  2.1647 -0.4118
  825MOL0     H13804   0.593   9.080   2.682  2.6976  0.4748  0.7614
  825MOL0     H13805   0.436   9.063   2.765  1.5968 -1.5686 -1.4274
  825MOL0     H13806   0.653   9.231   2.904 -0.7173 -0.8682  2.7224
  825MOL0     H13807   0.557   9.306   2.774  4.6273  1.3594  1.1214
  825MOL0     H13808   0.517   9.501   2.811  0.8382  2.0956  0.0999
  825MOL0     H13809   0.587   9.739   2.811  0.6234 -1.1392  1.1233
  825MOL0     H13810   0.538   9.841   2.950  2.5092  0.6963 -0.5797
  825MOL0     H13811   0.423   9.792   2.829  3.7558  1.6113 -4.1744
  825MOL0     H13812   0.222  10.033   3.220  2.7813  0.2593 -0.0889
  825MOL0     H13813   0.177  10.170   3.432  1.1507  0.5193 -0.3556
  825MOL0     H13814   0.274  10.238   3.599  0.4314  0.9357  0.0156
  825MOL0     H13815   0.138  10.251   3.711  0.7587  1.4552 -0.1150
  825MOL0     H13816   0.310  10.286   3.874  2.4616 -1.0948  2.8659
  825MOL0     H13817   0.313  10.114   3.872  2.7790  0.6493 -0.1825
  825MOL0     H13818   0.519  10.208   3.870  0.9775  0.1299 -1.2599
  825MOL0     H13819   0.500  10.277   3.711  2.7153 -2.3474 -3.2717
  825MOL0     H13820   0.482  10.084   3.605  2.0571  1.2979  0.0646
  825MOL0     H13821   0.476   9.967   3.747  1.7152 -0.9739 -0.5722
  825MOL0     H13822   0.724  10.143   3.703  0.5985 -1.2054 -1.1034
  825MOL0     H13823   0.706  10.016   3.812  1.1680  3.8380  1.9905
  825MOL0     H13824   0.826   9.957   3.597  0.2304 -0.2416  0.8777
  825MOL0     H13825   0.685  10.006   3.509 -4.1564  1.1537  2.5583
  825MOL0     H13826   0.562   9.814   3.596 -0.5813 -0.7611 -1.9627
  825MOL0     H13827   0.710   9.749   3.673 -1.4577  0.4060  0.0812
  825MOL0     H13828   0.811   9.750   3.449 -0.5495  1.2613 -0.2414
  825MOL0     H13829   0.669   9.820   3.381 -2.0504 -0.1326  0.9257
  825MOL0     H13830   0.246   9.787   3.657  1.9585 -0.3082 -0.3280
  825MOL0     H13831   0.291   9.688   3.447 -1.3497  0.1971  0.5527
  825MOL0     H13832   0.376   9.534   3.284  0.5703  0.1372  1.1596
  825MOL0     H13833   0.378   9.313   3.180  0.9106  1.5669  3.7473
  825MOL0     H13834   0.992   9.255   3.529  0.4280  0.7597 -1.6709
  825MOL0     H13835   0.978   9.498   3.594 -0.4808 -0.7148 -1.1178
  825MOL0     H13836   1.259   9.827   3.719 -1.7483 -2.2338  0.6871
  825MOL0     H13837   1.299  10.071   3.749 -0.2012  0.1745  0.3002
  825MOL0     H13838   0.944  10.241   3.792  1.3723 -0.2648 -0.8112
  825MOL0     H13839   0.974  10.332   3.939  1.7113 -0.9398  1.0035
  825MOL0     H13840   0.997  10.482   3.721 -0.5262 -0.9340 -0.4775
  825MOL0     H13841   1.128  10.375   3.673 -2.9365  0.0839 -2.0959
  825MOL0     H13842   1.238  10.453   3.893  0.6905  0.3511 -0.5020
  825MOL0     H13843   1.214  10.578   3.769  0.6066 -0.3522  0.4424
  825MOL0     H13844   1.038  10.543   4.027  1.4532 -0.2107  0.0225
  825MOL0     H13845   0.992  10.627   3.882 -1.8001 -1.5517  0.7551
  825MOL0     H13846   1.231  10.917   4.039 -1.4349  1.6651 -3.5741
  825MOL0     H13847   0.933  10.097   3.968  0.6187  1.6600 -0.2827
  825MOL0     H13848   0.888   9.878   4.097 -1.6946  1.6483 -0.1022
  825MOL0     H13849   0.773   9.888   3.965  2.2064  0.3816 -2.7276
  825MOL0     H13850   0.866   9.736   4.004  4.2071 -0.7147 -0.6559
  826MOL0     O13851   0.173   1.062   7.553  0.2525 -0.0343 -0.4172
  826MOL0     C13852   0.093   1.131   7.621 -0.5545  0.5237  0.9502
  826MOL0     O13853   0.029   1.248   7.575 -0.3107  0.0467  0.9206
  826MOL0     C13854   0.056   1.287   7.442  0.0393 -0.3312  0.3054
  826MOL0     C13855   0.182   1.303   7.387 -0.1750  0.7932 -0.2680
  826MOL0     C13856   0.190   1.353   7.260 -0.2924 -0.2432 -1.4506
  826MOL0     C13857   0.085   1.394   7.177  0.0629  1.3562 -0.2848
  826MOL0     O13858   0.095   1.449   7.049 -0.7431  0.8859 -0.4286
  826MOL0     C13859  -0.004   1.422   6.945  1.5787  0.3390 -1.1742
  826MOL0     C13860   0.074   1.348   6.835  0.8068 -1.3023 -0.8939
  826MOL0     C13861   0.166   1.436   6.763 -0.8662 -0.4728  0.1318
  826MOL0     C13862   0.226   1.354   6.652 -0.3465  0.6245  0.2065
  826MOL0     C13863   0.351   1.416   6.600 -0.3555  0.4495 -0.3558
  826MOL0     C13864   0.424   1.320   6.510  0.2472 -0.0206  0.0728
  826MOL0     C13865   0.553   1.385   6.459 -0.4233  0.5253 -0.9224
  826MOL0     C13866   0.624   1.295   6.355 -0.3388 -0.2255  0.9099
  826MOL0     N13867   0.658   1.389   6.249  0.0676 -0.4045  0.5518
  826MOL0     C13868   0.785   1.434   6.231 -0.5115 -0.8301  0.1211
  826MOL0     C13869   0.781   1.488   6.105 -0.6468 -1.1117 -0.2782
  826MOL0     C13870   0.906   1.553   6.041  0.1598 -0.2145  1.4408
  826MOL0     C13871   1.028   1.459   6.019 -0.7519  0.0514  0.7714
  826MOL0     C13872   0.991   1.311   5.966 -0.0056 -0.2671  0.0913
  826MOL0     C13873   0.933   1.323   5.825 -0.2754  0.6504  0.9153
  826MOL0     O13874   0.879   1.198   5.789  0.1365  0.2621  0.6521
  826MOL0     C13875   0.961   1.096   5.734  0.1654 -0.2600 -0.0481
  826MOL0     C13876   0.942   0.972   5.782 -0.5647 -0.5283  1.0035
  826MOL0     C13877   1.008   0.859   5.734 -0.3080 -0.2501  0.6520
  826MOL0     C13878   0.978   0.726   5.810  0.2319  1.1164 -0.4074
  826MOL0     C13879   1.093   0.862   5.626  0.3734  0.8099  0.7863
  826MOL0     C13880   1.160   0.747   5.549  0.0745 -0.6546  0.2311
  826MOL0     O13881   1.251   0.784   5.445  0.7963 -0.5729  0.1738
  826MOL0     C13882   1.301   0.688   5.367  0.9413  0.8488 -0.0938
  826MOL0     C13883   1.216   0.637   5.263  0.7843 -0.3838  0.1393
  826MOL0     C13884   1.245   0.536   5.180  0.0360  0.2130 -0.4788
  826MOL0     C13885   1.374   0.483   5.179 -0.0010 -0.8092 -0.6898
  826MOL0     O13886   1.386   0.376   5.092 -0.4602 -0.3467 -0.6959
  826MOL0     C13887   1.475   0.273   5.122 -0.1572 -0.1452  0.3211
  826MOL0     C13888   1.435   0.152   5.057  1.4588 -0.3832 -0.1502
  826MOL0     C13889   1.444   0.158   4.903 -0.6712 -0.1875  0.5211
  826MOL0     C13890   1.404   0.035   4.839 -0.2246  0.2022 -0.2774
  826MOL0     C13891   1.266  -0.004   4.859  0.0708  0.3215 -0.4945
  826MOL0     C13892   1.222  -0.113   4.753 -0.0212  0.0659 -0.6766
  826MOL0     C13893   1.081  -0.175   4.757 -0.0306  0.1092  0.0318
  826MOL0     C13894   1.075  -0.272   4.637  0.4580 -0.4910  0.1716
  826MOL0    Cl13895   0.935  -0.387   4.664  0.4147  0.3663  0.2515
  826MOL0     C13896   1.465   0.529   5.280  0.8160 -1.1268 -0.0753
  826MOL0     C13897   1.424   0.628   5.377  0.2496  0.7697 -0.6748
  826MOL0     O13898   1.150   0.637   5.600  0.0938 -0.2490 -0.9414
  826MOL0     C13899   1.122   0.995   5.578 -0.3365 -0.3303  0.2178
  826MOL0     C13900   1.063   1.105   5.640 -1.0754 -1.0000  0.2459
  826MOL0     N13901   0.656   1.479   6.051  0.5882 -0.3106  0.3207
  826MOL0     N13902   0.583   1.424   6.139 -0.5547  0.0545 -0.1749
  826MOL0     C13903  -0.041   1.377   7.236 -0.3089  0.5979 -0.8801
  826MOL0     C13904  -0.051   1.318   7.363 -0.6659  0.2926 -0.8068
  826MOL0     C13905   0.065   1.091   7.759  0.7884 -0.0452  0.2800
  826MOL0     C13906   0.157   1.009   7.819  0.0842 -0.7761 -0.5528
  826MOL0     C13907   0.135   0.946   7.942 -0.1243 -0.3776  0.5038
  826MOL0     C13908   0.022   0.987   8.017 -0.8026  0.3648 -0.7672
  826MOL0     O13909  -0.001   0.939   8.146 -0.0775  0.3437  0.0501
  826MOL0     C13910   0.073   0.825   8.192 -0.1122 -0.5718  0.7293
  826MOL0     C13911  -0.001   0.760   8.315 -0.3850 -0.8901 -0.1271
  826MOL0     C13912  -0.143   0.721   8.311 -0.5673 -0.2175 -0.1692
  826MOL0     C13913  -0.164   0.611   8.210  1.2649  0.1889  0.3041
  826MOL0     C13914  -0.226   0.486   8.259  0.4844  0.0713 -0.5285
  826MOL0     C13915  -0.243   0.365   8.286  0.4453 -0.1734  0.6000
  826MOL0     C13916  -0.066   1.078   7.961  0.7002 -0.1243  0.4180
  826MOL0     C13917  -0.048   1.128   7.838  0.2708  0.2218  0.3201
  826MOL0     C13918  -0.156   1.228   7.791  0.0251 -1.2445  0.3044
  826MOL0     H13919   0.272   1.283   7.444 -0.3241 -1.9963 -0.8648
  826MOL0     H13920   0.288   1.371   7.216 -1.6085  2.3019 -3.6333
  826MOL0     H13921  -0.045   1.518   6.914  0.7440  0.1281 -0.7573
  826MOL0     H13922  -0.090   1.364   6.979 -0.5797  3.6871 -0.4642
  826MOL0     H13923   0.125   1.266   6.888  0.3905 -1.6752 -1.0648
  826MOL0     H13924   0.005   1.309   6.760  0.4631  1.3971 -2.0965
  826MOL0     H13925   0.110   1.511   6.706  0.3699 -1.0303 -1.8988
  826MOL0     H13926   0.232   1.489   6.833 -1.6978  2.8900 -1.4071
  826MOL0     H13927   0.265   1.262   6.696 -1.5912  0.9309  2.0430
  826MOL0     H13928   0.156   1.333   6.570 -0.6958  2.6455 -0.0678
  826MOL0     H13929   0.413   1.432   6.689 -0.5773 -0.2412 -0.0718
  826MOL0     H13930   0.328   1.511   6.551  2.0436  1.2790 -0.0206
  826MOL0     H13931   0.439   1.225   6.561  0.7656  0.5860  1.0838
  826MOL0     H13932   0.350   1.301   6.432 -2.1186  1.7297  1.7197
  826MOL0     H13933   0.620   1.402   6.544 -0.4948  1.9414 -1.1215
  826MOL0     H13934   0.539   1.489   6.428  0.0566  3.5081  6.7436
  826MOL0     H13935   0.708   1.236   6.390  0.1394 -0.8357 -1.1326
  826MOL0     H13936   0.549   1.223   6.322  0.6913 -1.8845  2.0785
  826MOL0     H13937   0.865   1.428   6.304 -1.1782  3.2419  1.4522
  826MOL0     H13938   0.944   1.647   6.082  2.1703 -0.7258  0.8942
  826MOL0     H13939   0.873   1.594   5.945 -0.6046 -3.4300  0.2298
  826MOL0     H13940   1.106   1.502   5.956 -1.8698  2.1297  0.7412
  826MOL0     H13941   1.071   1.446   6.119  1.6813 -0.5044 -0.2600
  826MOL0     H13942   1.076   1.244   5.951 -1.9161 -2.1423 -3.7755
  826MOL0     H13943   0.911   1.260   6.020 -1.4376 -1.0811 -2.5996
  826MOL0     H13944   0.847   1.392   5.822 -2.1208 -1.5778 -1.5688
  826MOL0     H13945   1.004   1.366   5.755  0.4363 -1.8923 -0.0131
  826MOL0     H13946   0.870   0.956   5.861  0.7886 -4.8965  1.6601
  826MOL0     H13947   0.913   0.669   5.743  1.1188  1.3031 -1.4635
  826MOL0     H13948   0.925   0.755   5.901  0.3467  1.4593 -0.4490
  826MOL0     H13949   1.073   0.675   5.826 -0.3292  0.0858 -0.3187
  826MOL0     H13950   1.120   0.688   5.269 -0.3178 -2.1746 -1.2458
  826MOL0     H13951   1.172   0.499   5.108 -0.7442  0.4257  0.1977
  826MOL0     H13952   1.569   0.308   5.078 -0.5782 -0.8075 -1.1804
  826MOL0     H13953   1.493   0.248   5.227 -0.9508 -3.4572 -0.2198
  826MOL0     H13954   1.495   0.066   5.089  3.0074 -0.1990 -2.3887
  826MOL0     H13955   1.333   0.128   5.090  0.3267  2.4554 -1.3179
  826MOL0     H13956   1.546   0.188   4.877  0.3450 -2.0226  2.0870
  826MOL0     H13957   1.380   0.239   4.867 -2.6635 -1.4970  0.9267
  826MOL0     H13958   1.470  -0.046   4.871  0.8376  0.4496 -1.7734
  826MOL0     H13959   1.424   0.049   4.733  0.2131  0.0915 -0.2101
  826MOL0     H13960   1.262  -0.051   4.957 -1.6005  4.5817  1.7193
  826MOL0     H13961   1.200   0.084   4.859  0.3266  0.5422 -2.0105
  826MOL0     H13962   1.292  -0.196   4.765  0.0554  0.5325  4.2633
  826MOL0     H13963   1.238  -0.072   4.653  1.8826 -0.6645 -0.7085
  826MOL0     H13964   1.011  -0.091   4.755 -1.3938 -0.9033  1.8660
  826MOL0     H13965   1.063  -0.233   4.848 -2.2430 -3.0180 -2.1872
  826MOL0     H13966   1.167  -0.330   4.642  1.0025  0.1374 -1.7102
  826MOL0     H13967   1.068  -0.219   4.541 -0.0228 -0.1964  0.3648
  826MOL0     H13968   1.571   0.504   5.285  0.9139 -0.4517  2.0675
  826MOL0     H13969   1.492   0.668   5.452  0.1884  1.7089 -1.1093
  826MOL0     H13970   1.175   1.012   5.485  0.7956 -0.4317  0.8272
  826MOL0     H13971   1.086   1.208   5.614  0.6969 -1.0405  1.4903
  826MOL0     H13972  -0.133   1.403   7.185 -1.3905  2.1186  1.6139
  826MOL0     H13973  -0.155   1.307   7.391 -0.6960  2.0547 -0.1068
  826MOL0     H13974   0.240   0.973   7.760 -1.1611 -3.1165 -1.0282
  826MOL0     H13975   0.212   0.886   7.990  0.6853  1.3539  1.5096
  826MOL0     H13976   0.094   0.745   8.121  2.5819 -0.7264  1.5951
  826MOL0     H13977   0.176   0.856   8.213  0.0840 -0.2769 -0.5922
  826MOL0     H13978   0.004   0.836   8.394  0.7430  3.1668 -3.7173
  826MOL0     H13979   0.054   0.670   8.343  0.7096  0.6202  2.9823
  826MOL0     H13980  -0.181   0.697   8.411  2.5985 -0.6663  1.0244
  826MOL0     H13981  -0.197   0.812   8.283  2.5583  1.4856 -1.1287
  826MOL0     H13982  -0.072   0.591   8.155  1.6991  0.2696  0.9918
  826MOL0     H13983  -0.235   0.647   8.134 -2.9785  0.3455  3.9101
  826MOL0     H13984  -0.251   0.259   8.290  1.1518 -0.2052  1.5877
  826MOL0     H13985  -0.160   1.102   8.010 -0.9502  0.6349 -2.8151
  826MOL0     H13986  -0.228   1.179   7.725  0.5403  0.2288 -1.4057
  826MOL0     H13987  -0.204   1.270   7.880  0.1188  2.0615 -1.0821
  826MOL0     H13988  -0.115   1.319   7.747  0.1689 -0.6158  1.6895
  827MOL0     O13989   5.449   5.532   6.396 -0.8611  0.5053 -0.3796
  827MOL0     C13990   5.427   5.462   6.300  0.2996 -0.2405  0.3485
  827MOL0     O13991   5.318   5.383   6.287 -0.1952 -0.0758 -0.1721
  827MOL0     C13992   5.210   5.430   6.345 -0.0438 -1.3301  0.1878
  827MOL0     C13993   5.188   5.405   6.483 -0.3877  0.4020  0.1461
  827MOL0     C13994   5.071   5.450   6.547 -0.9154  0.9734 -0.0290
  827MOL0     C13995   4.974   5.514   6.482  0.6371 -0.6031  1.1079
  827MOL0     O13996   4.862   5.566   6.547  0.0128  0.4520  0.5076
  827MOL0     C13997   4.757   5.632   6.473  0.0948 -0.3948  0.5991
  827MOL0     C13998   4.670   5.705   6.564  0.4212 -0.1080 -0.1438
  827MOL0     C13999   4.573   5.777   6.465 -0.2464 -0.0454  0.3804
  827MOL0     C14000   4.459   5.844   6.550  0.7070  0.9154  0.2148
  827MOL0     C14001   4.508   5.953   6.642 -0.1241  0.2889 -0.0483
  827MOL0     C14002   4.409   6.065   6.681 -0.1445  0.2180 -0.1366
  827MOL0     C14003   4.474   6.159   6.780 -0.5945  0.3868  0.8601
  827MOL0     C14004   4.388   6.273   6.834 -1.0060 -0.4345  0.2018
  827MOL0     N14005   4.472   6.365   6.925  0.5101 -0.2122  0.0745
  827MOL0     C14006   4.591   6.342   6.984 -1.2293 -0.1577 -0.5998
  827MOL0     C14007   4.596   6.440   7.082  0.4134 -0.1351 -0.4320
  827MOL0     C14008   4.716   6.487   7.171  0.0602 -0.2910  1.0269
  827MOL0     C14009   4.667   6.601   7.272 -1.4118  0.2160  0.7543
  827MOL0     C14010   4.626   6.738   7.196 -0.3099 -0.2350  0.3781
  827MOL0     C14011   4.497   6.797   7.236  0.4780  0.3581  0.5399
  827MOL0     O14012   4.488   6.828   7.378 -1.0152 -0.3410  0.1259
  827MOL0     C14013   4.503   6.968   7.408 -0.5436  0.1487 -0.8466
  827MOL0     C14014   4.580   7.054   7.342 -0.7594 -1.0039 -1.0560
  827MOL0     C14015   4.589   7.185   7.369  0.1134 -0.7454 -1.2865
  827MOL0     C14016   4.710   7.252   7.296 -0.3896 -1.0504  0.4637
  827MOL0     C14017   4.502   7.246   7.467 -0.4674 -0.4492 -0.2711
  827MOL0     C14018   4.498   7.396   7.494 -0.5605 -0.5829 -0.0484
  827MOL0     O14019   4.398   7.445   7.586  0.0101  0.4814 -0.8169
  827MOL0     C14020   4.383   7.580   7.620  0.3369 -0.0692 -1.7618
  827MOL0     C14021   4.482   7.676   7.619  0.5610 -0.7604 -0.3906
  827MOL0     C14022   4.448   7.817   7.639 -1.1230 -0.6565 -0.4706
  827MOL0     C14023   4.318   7.848   7.683 -0.6574  0.8939 -0.4817
  827MOL0     O14024   4.306   7.979   7.696  0.3847  0.3742  0.0829
  827MOL0     C14025   4.174   8.015   7.665 -0.2073 -0.3176 -0.7460
  827MOL0     C14026   4.173   8.166   7.655  0.7963  0.1912  0.5499
  827MOL0     C14027   4.054   8.246   7.591  0.3397  1.5271 -0.4052
  827MOL0     C14028   4.099   8.386   7.543  1.0178  0.4240  0.4179
  827MOL0     C14029   3.967   8.449   7.499  0.9163 -0.1249 -0.9178
  827MOL0     C14030   3.965   8.594   7.461  0.0978  0.0926  1.4816
  827MOL0     C14031   3.812   8.643   7.443 -0.4192 -0.1279  0.8793
  827MOL0     C14032   3.813   8.763   7.353  0.2470  0.0752  0.4947
  827MOL0    Cl14033   3.860   8.899   7.456 -0.5371  0.2703 -0.3448
  827MOL0     C14034   4.223   7.742   7.695 -0.4540  0.1745  0.5234
  827MOL0     C14035   4.251   7.614   7.661 -0.1922 -0.9221  0.7193
  827MOL0     O14036   4.586   7.470   7.451 -0.6764  0.6452  0.9681
  827MOL0     C14037   4.418   7.163   7.538  0.6638  0.6877  0.5836
  827MOL0     C14038   4.414   7.023   7.507  0.4586 -0.2044 -0.1529
  827MOL0     N14039   4.474   6.511   7.084 -0.0483  0.2973 -0.3396
  827MOL0     N14040   4.405   6.468   6.991  0.6560  0.8000 -0.1991
  827MOL0     C14041   4.997   5.531   6.349 -0.1638  1.1580  0.4231
  827MOL0     C14042   5.113   5.495   6.274 -0.0520  0.4949  0.6202
  827MOL0     C14043   5.535   5.446   6.202 -0.3581  0.4055  0.3103
  827MOL0     C14044   5.663   5.470   6.235 -0.4333 -0.6996 -0.8119
  827MOL0     C14045   5.778   5.468   6.147 -0.1462  0.8952 -1.5540
  827MOL0     C14046   5.758   5.431   6.010 -0.2567  0.4469  0.2323
  827MOL0     O14047   5.866   5.417   5.929  0.0209 -0.8023  1.2857
  827MOL0     C14048   5.843   5.441   5.785  0.2768 -0.9995 -0.1760
  827MOL0     C14049   5.816   5.307   5.717 -0.2359  0.4864  0.4502
  827MOL0     C14050   5.763   5.322   5.572 -0.0976  0.1087  0.7270
  827MOL0     C14051   5.616   5.366   5.568 -0.3957 -0.0505  0.3450
  827MOL0     C14052   5.526   5.258   5.625 -0.1332  0.1833  0.4193
  827MOL0     C14053   5.451   5.168   5.663  0.1889 -0.3622  0.2951
  827MOL0     C14054   5.625   5.394   5.967  0.7602  0.0591  0.0289
  827MOL0     C14055   5.519   5.398   6.067 -0.7223 -0.7378  0.2384
  827MOL0     C14056   5.377   5.352   6.021 -0.4052  0.2897  0.3666
  827MOL0     H14057   5.270   5.367   6.543  0.2508  2.2038  0.5026
  827MOL0     H14058   5.041   5.440   6.651 -1.1868 -1.5769 -0.2697
  827MOL0     H14059   4.694   5.560   6.420  0.0503  0.0282  0.0734
  827MOL0     H14060   4.795   5.710   6.406 -2.5986  1.6974  1.3324
  827MOL0     H14061   4.624   5.631   6.630  1.0504 -0.8262 -0.4979
  827MOL0     H14062   4.722   5.777   6.627  0.4551 -0.3012  0.0481
  827MOL0     H14063   4.621   5.855   6.405  2.5807 -2.0770 -0.1907
  827MOL0     H14064   4.520   5.708   6.398  0.0287  0.5607 -0.4784
  827MOL0     H14065   4.389   5.867   6.470 -0.7815 -3.9931 -0.1875
  827MOL0     H14066   4.399   5.774   6.609 -2.9054  4.1122  0.7441
  827MOL0     H14067   4.592   6.011   6.601 -0.6681  1.4721  0.4402
  827MOL0     H14068   4.541   5.901   6.732 -0.2167  0.7780  0.2728
  827MOL0     H14069   4.364   6.113   6.594 -3.2818 -0.3072  1.0559
  827MOL0     H14070   4.323   6.026   6.737  1.5511  0.3815  2.8309
  827MOL0     H14071   4.564   6.204   6.735  0.5467 -0.5741  2.0984
  827MOL0     H14072   4.515   6.096   6.859  1.0187 -0.1156 -0.3092
  827MOL0     H14073   4.332   6.337   6.765  0.8729 -0.0961 -1.0685
  827MOL0     H14074   4.302   6.229   6.886 -2.1269  1.7025  0.2629
  827MOL0     H14075   4.667   6.269   6.955 -2.2391 -2.0366  1.1949
  827MOL0     H14076   4.800   6.518   7.108  0.6863 -0.6310  1.6813
  827MOL0     H14077   4.757   6.397   7.217 -0.6029 -0.4203  1.3774
  827MOL0     H14078   4.585   6.566   7.336 -1.3325  0.7210  1.1433
  827MOL0     H14079   4.745   6.624   7.345  3.4634  0.7835 -4.0309
  827MOL0     H14080   4.705   6.805   7.231  1.7176 -2.9490  1.3426
  827MOL0     H14081   4.636   6.731   7.087 -1.7364  1.4928  0.0867
  827MOL0     H14082   4.473   6.891   7.185 -2.1383 -0.1588  0.6751
  827MOL0     H14083   4.417   6.724   7.219  0.1817  0.9988 -1.0026
  827MOL0     H14084   4.642   7.029   7.256 -0.6818 -0.0821 -1.2859
  827MOL0     H14085   4.786   7.180   7.262 -0.3495 -1.5714  1.6078
  827MOL0     H14086   4.754   7.322   7.368 -1.3737 -1.8442  1.8916
  827MOL0     H14087   4.667   7.309   7.214 -0.6796 -0.4843  1.0065
  827MOL0     H14088   4.585   7.646   7.600  0.8441 -0.2901  0.3436
  827MOL0     H14089   4.520   7.895   7.616 -0.7574 -0.3016  1.6666
  827MOL0     H14090   4.151   7.971   7.568  0.3828 -4.9976  0.9543
  827MOL0     H14091   4.107   7.974   7.741  1.7736 -2.0803  0.1415
  827MOL0     H14092   4.161   8.198   7.759 -1.5353 -2.1495  1.1118
  827MOL0     H14093   4.268   8.200   7.612 -0.5119  0.8268 -2.1084
  827MOL0     H14094   3.980   8.258   7.670  1.4314  0.7425  0.7846
  827MOL0     H14095   4.004   8.193   7.509 -0.6554  1.3044  0.3253
  827MOL0     H14096   4.179   8.377   7.469  2.3792  0.7531  1.8081
  827MOL0     H14097   4.138   8.444   7.627 -0.2439  0.5806  0.9101
  827MOL0     H14098   3.927   8.405   7.407  0.2668 -0.3476 -0.5352
  827MOL0     H14099   3.893   8.433   7.578  0.4068 -0.7374 -1.5069
  827MOL0     H14100   4.013   8.611   7.364 -3.4870  0.4876 -0.3960
  827MOL0     H14101   4.028   8.651   7.529  1.8742 -1.4294  1.2056
  827MOL0     H14102   3.742   8.668   7.523 -2.8145  0.6877 -1.3525
  827MOL0     H14103   3.758   8.567   7.387 -0.2330  0.5699 -0.2784
  827MOL0     H14104   3.709   8.786   7.331 -0.9720 -3.7991  1.3519
  827MOL0     H14105   3.879   8.750   7.267 -2.3076 -0.7797 -1.4466
  827MOL0     H14106   4.120   7.764   7.722 -0.4435 -0.9173  1.5570
  827MOL0     H14107   4.179   7.533   7.671  0.4168 -1.6961 -0.7158
  827MOL0     H14108   4.354   7.197   7.618 -0.5575 -2.6105  1.1672
  827MOL0     H14109   4.355   6.942   7.550 -0.6625 -0.1376 -1.4837
  827MOL0     H14110   4.931   5.584   6.280  1.9292  2.7346 -0.5188
  827MOL0     H14111   5.138   5.509   6.169 -1.4842 -3.1345 -0.3496
  827MOL0     H14112   5.681   5.496   6.338  0.8483 -3.8017 -0.1399
  827MOL0     H14113   5.875   5.497   6.186 -0.1027 -1.6320  0.5172
  827MOL0     H14114   5.764   5.516   5.772  0.9948 -0.7133 -3.7375
  827MOL0     H14115   5.930   5.490   5.741  0.4461 -0.9938  0.1652
  827MOL0     H14116   5.761   5.236   5.780  0.7479  1.9087  3.0823
  827MOL0     H14117   5.919   5.272   5.716  0.2524  1.4648  3.6061
  827MOL0     H14118   5.814   5.401   5.516 -2.3441  0.7348 -0.5796
  827MOL0     H14119   5.777   5.226   5.522  1.7647 -0.7372  2.7039
  827MOL0     H14120   5.600   5.380   5.461 -1.0105  0.4358  0.4960
  827MOL0     H14121   5.597   5.458   5.624  0.1482  1.4540 -1.7961
  827MOL0     H14122   5.400   5.091   5.716  1.2817 -0.0100  1.9386
  827MOL0     H14123   5.608   5.349   5.870  0.4073  1.3441 -0.5248
  827MOL0     H14124   5.366   5.327   5.916  1.5974 -0.3114  0.2545
  827MOL0     H14125   5.349   5.254   6.062  2.6330 -1.8625 -2.1471
  827MOL0     H14126   5.299   5.424   6.047  1.3115  1.3149  3.1535
  828MOL0     O14127   0.238   7.338  10.972  0.2707  0.2079  0.5991
  828MOL0     C14128   0.320   7.334  10.880 -0.0516  0.4419 -0.1002
  828MOL0     O14129   0.440   7.401  10.875  0.1675 -0.1163 -0.0544
  828MOL0     C14130   0.473   7.489  10.980  0.7922 -0.4360  0.1153
  828MOL0     C14131   0.585   7.474  11.061  0.7520  0.7691  0.7050
  828MOL0     C14132   0.630   7.572  11.143 -0.4100  0.0328  0.9210
  828MOL0     C14133   0.552   7.685  11.166 -0.4990 -0.1502 -0.2596
  828MOL0     O14134   0.593   7.786  11.251  0.3966  0.6881 -0.2034
  828MOL0     C14135   0.628   7.725  11.378  0.4338 -0.5199  0.3320
  828MOL0     C14136   0.606   7.820  11.496  1.9806  1.0120  1.0736
  828MOL0     C14137   0.697   7.952  11.498  0.0602  0.1087 -0.6382
  828MOL0     C14138   0.840   7.934  11.536  0.3167 -0.1200 -0.4676
  828MOL0     C14139   0.849   7.936  11.687 -0.0289  0.3331  0.2136
  828MOL0     C14140   0.814   8.078  11.760  0.2963  0.3398 -0.5053
  828MOL0     C14141   0.879   8.069  11.901 -0.4102  0.5239  0.3616
  828MOL0     C14142   0.864   8.203  11.967 -0.8802  0.3471 -0.2281
  828MOL0     N14143   0.913   8.198  12.111  0.2253 -0.0173 -0.1326
  828MOL0     C14144   0.958   8.299  12.189 -0.6909  0.3355 -0.2622
  828MOL0     C14145   1.013   8.241  12.302 -0.2174  0.3355  0.0817
  828MOL0     C14146   1.121   8.296  12.397  0.2224 -0.9288  0.5532
  828MOL0     C14147   1.172   8.194  12.496 -0.8763  0.3541  0.1475
  828MOL0     C14148   1.316   8.221  12.549 -0.4014  0.8786 -0.4495
  828MOL0     C14149   1.329   8.354  12.625 -0.0736  0.2105  0.4245
  828MOL0     O14150   1.467   8.370  12.647  0.3107 -0.3350 -0.1148
  828MOL0     C14151   1.538   8.293  12.732  0.0942 -0.3658  0.5212
  828MOL0     C14152   1.663   8.260  12.684 -0.8269  0.3706  0.7336
  828MOL0     C14153   1.756   8.186  12.744 -0.4278 -0.2558 -1.4215
  828MOL0     C14154   1.882   8.158  12.652  0.5245  0.6286  0.3560
  828MOL0     C14155   1.720   8.126  12.868  1.0817  0.6108 -0.7117
  828MOL0     C14156   1.808   8.027  12.943 -0.0142 -0.8059 -0.8523
  828MOL0     O14157   1.782   8.023  13.078  0.3222 -0.4107 -0.0813
  828MOL0     C14158   1.814   7.907  13.153  0.4545  0.0364 -0.0470
  828MOL0     C14159   1.900   7.802  13.114  0.4760  0.1592  0.0401
  828MOL0     C14160   1.920   7.694  13.202 -0.5198  0.5313 -0.5116
  828MOL0     C14161   1.850   7.678  13.317  0.2385 -0.0493  0.6508
  828MOL0     O14162   1.857   7.561  13.389 -0.3950 -0.3332  0.6743
  828MOL0     C14163   1.759   7.509  13.478 -0.4968  0.7332  0.5245
  828MOL0     C14164   1.788   7.541  13.631 -0.1884  0.6417  0.2278
  828MOL0     C14165   1.766   7.694  13.676 -0.1218  0.1790 -0.3561
  828MOL0     C14166   1.765   7.694  13.836 -0.6953  0.1141  1.2039
  828MOL0     C14167   1.847   7.824  13.883 -0.4954  0.2548 -0.0388
  828MOL0     C14168   1.834   7.828  14.040 -0.0813  0.0703 -0.4977
  828MOL0     C14169   1.877   7.962  14.096  1.3252 -0.1068  0.4160
  828MOL0     C14170   1.901   7.967  14.247 -0.1267  0.4120 -0.0597
  828MOL0    Cl14171   1.740   7.952  14.329 -0.5082 -0.1510  0.3526
  828MOL0     C14172   1.773   7.787  13.350  0.8616 -0.0532 -0.0109
  828MOL0     C14173   1.750   7.905  13.272  0.4105  0.7196 -0.4308
  828MOL0     O14174   1.894   7.962  12.884  0.3825  0.0221 -0.2578
  828MOL0     C14175   1.587   8.151  12.919 -0.0227  0.0448  0.4046
  828MOL0     C14176   1.504   8.244  12.852  0.3549  1.0678 -0.8728
  828MOL0     N14177   0.966   8.115  12.315 -0.3403 -0.2445  1.2485
  828MOL0     N14178   0.912   8.089  12.199  0.1963  0.8455  0.0208
  828MOL0     C14179   0.434   7.707  11.092  0.0415 -0.1616 -0.0245
  828MOL0     C14180   0.397   7.609  11.008  0.6343 -0.4376  0.9363
  828MOL0     C14181   0.301   7.234  10.767 -0.8778  0.1497 -0.3151
  828MOL0     C14182   0.168   7.204  10.734  1.2310  0.0009  0.1514
  828MOL0     C14183   0.135   7.133  10.620  0.0149  0.0786  1.3059
  828MOL0     C14184   0.243   7.078  10.545  0.6177 -0.8011 -0.4856
  828MOL0     O14185   0.202   7.045  10.419 -0.3819  0.0193  0.0293
  828MOL0     C14186   0.282   6.950  10.344  0.6548  0.1683 -0.7597
  828MOL0     C14187   0.348   7.014  10.218 -0.5775  0.7178  0.2347
  828MOL0     C14188   0.348   6.921  10.100 -0.4858  0.0306 -0.5310
  828MOL0     C14189   0.393   6.991   9.969  0.1415 -0.7357 -0.1377
  828MOL0     C14190   0.301   7.081   9.894 -0.3410 -0.4681 -0.5602
  828MOL0     C14191   0.212   7.148   9.848  0.3608  0.8835  0.3540
  828MOL0     C14192   0.375   7.100  10.585 -0.3414  0.5480  0.2727
  828MOL0     C14193   0.410   7.169  10.696 -0.3684 -0.0138  0.0985
  828MOL0     C14194   0.556   7.170  10.736 -0.9643 -0.2678 -0.0142
  828MOL0     H14195   0.640   7.385  11.029 -1.4494  0.0020 -1.2687
  828MOL0     H14196   0.729   7.571  11.188 -0.9059 -1.9564  2.0974
  828MOL0     H14197   0.732   7.689  11.373  0.3167 -0.9196  0.7602
  828MOL0     H14198   0.555   7.646  11.399  0.1062 -0.5213 -0.7167
  828MOL0     H14199   0.504   7.859  11.504  1.1926 -1.1663  2.5125
  828MOL0     H14200   0.608   7.767  11.592  0.3011 -1.9948 -0.3920
  828MOL0     H14201   0.684   8.013  11.408  0.7330  2.3445  0.7005
  828MOL0     H14202   0.637   8.006  11.572  0.2911 -2.0365  1.2317
  828MOL0     H14203   0.876   7.840  11.493  0.6441 -0.8206  1.2423
  828MOL0     H14204   0.905   8.016  11.505 -1.4629  1.5032 -0.1256
  828MOL0     H14205   0.951   7.922  11.723 -0.4088  0.9127  1.5752
  828MOL0     H14206   0.788   7.855  11.730 -0.7910  0.9822  0.3803
  828MOL0     H14207   0.845   8.164  11.701 -1.5450  0.2967 -1.6205
  828MOL0     H14208   0.705   8.082  11.767  0.4097  2.2641  0.7823
  828MOL0     H14209   0.987   8.050  11.897 -0.5461 -0.6215  1.6144
  828MOL0     H14210   0.827   8.002  11.969  1.7582 -0.0404  1.5671
  828MOL0     H14211   0.922   8.270  11.903 -3.8337  1.5581 -1.8646
  828MOL0     H14212   0.761   8.241  11.965 -0.7202  0.7668 -1.1118
  828MOL0     H14213   0.969   8.401  12.154 -0.1497  0.4279  0.1779
  828MOL0     H14214   1.082   8.379  12.457  1.5267  1.5896 -1.8531
  828MOL0     H14215   1.199   8.333  12.331 -0.8427 -2.3992 -1.6591
  828MOL0     H14216   1.111   8.167  12.582 -0.8065  3.0644  1.1440
  828MOL0     H14217   1.190   8.102  12.439  2.7429 -0.9439  2.9732
  828MOL0     H14218   1.347   8.139  12.614  4.0459  2.4409 -0.2774
  828MOL0     H14219   1.384   8.227  12.463 -1.1623  0.9849 -1.0559
  828MOL0     H14220   1.309   8.438  12.558  0.9816  0.7779  0.8083
  828MOL0     H14221   1.263   8.370  12.710  0.6625  0.9440  0.8601
  828MOL0     H14222   1.693   8.302  12.588  0.6877 -0.5926  0.7493
  828MOL0     H14223   1.968   8.147  12.719  0.6499  1.0586  0.2670
  828MOL0     H14224   1.910   8.230  12.575  2.5168 -0.5026 -0.0477
  828MOL0     H14225   1.852   8.065  12.602 -2.0842  2.1362 -1.0962
  828MOL0     H14226   1.959   7.800  13.023 -0.9957  3.9114 -1.1913
  828MOL0     H14227   1.984   7.611  13.174  2.9546  1.6876  3.1428
  828MOL0     H14228   1.668   7.554  13.438  0.5049 -0.3238 -3.2850
  828MOL0     H14229   1.759   7.401  13.463  0.7378  0.8322 -0.3314
  828MOL0     H14230   1.720   7.474  13.683 -0.4761  1.1752  0.5488
  828MOL0     H14231   1.889   7.516  13.664 -0.5811 -0.6895  0.4437
  828MOL0     H14232   1.670   7.727  13.636 -0.3079  3.3522  2.3300
  828MOL0     H14233   1.852   7.752  13.643  2.0749 -0.0574  4.1265
  828MOL0     H14234   1.795   7.603  13.887 -1.9256 -0.7402  0.4670
  828MOL0     H14235   1.658   7.698  13.859 -0.0994 -0.5668  4.5525
  828MOL0     H14236   1.949   7.818  13.845 -1.1661  0.7025 -2.0385
  828MOL0     H14237   1.797   7.917  13.856 -0.8129  0.7700  2.1242
  828MOL0     H14238   1.891   7.750  14.092  1.0020 -0.1435 -1.9570
  828MOL0     H14239   1.732   7.802  14.069  0.0272  2.0073  1.9670
  828MOL0     H14240   1.810   8.043  14.066  4.0370  2.9315  1.9524
  828MOL0     H14241   1.972   7.992  14.050  1.7833  1.9184  2.5162
  828MOL0     H14242   1.957   8.053  14.283  0.1061 -0.0452  0.7125
  828MOL0     H14243   1.964   7.879  14.263  0.2777  0.5656 -0.7564
  828MOL0     H14244   1.714   7.778  13.440  0.0336  0.0993 -0.5271
  828MOL0     H14245   1.696   7.994  13.303  0.4082  0.9487 -1.0835
  828MOL0     H14246   1.566   8.097  13.011  1.2415  0.0657  0.7270
  828MOL0     H14247   1.409   8.274  12.894  1.5172  0.3966  2.5149
  828MOL0     H14248   0.383   7.803  11.093  0.5920  0.1288  0.2419
  828MOL0     H14249   0.304   7.626  10.956  0.4802  2.8066  1.9961
  828MOL0     H14250   0.088   7.259  10.782  0.0059  0.9476 -2.7070
  828MOL0     H14251   0.034   7.142  10.580  0.6905 -0.9912 -0.8177
  828MOL0     H14252   0.354   6.900  10.409 -2.2511 -1.1694  1.6538
  828MOL0     H14253   0.212   6.868  10.323  1.0811 -0.8113  1.3549
  828MOL0     H14254   0.454   7.020  10.247 -0.3620 -1.3249  0.0051
  828MOL0     H14255   0.308   7.114  10.198 -2.4075 -0.3104 -1.4922
  828MOL0     H14256   0.408   6.835  10.130 -2.4482 -2.0838 -2.3354
  828MOL0     H14257   0.253   6.872  10.079 -1.8756  2.2053  0.2940
  828MOL0     H14258   0.419   6.918   9.891  1.0952 -0.5492 -0.0074
  828MOL0     H14259   0.485   7.047   9.985 -1.9922  3.8243 -2.1746
  828MOL0     H14260   0.122   7.194   9.814 -0.9465 -1.1248  0.8804
  828MOL0     H14261   0.446   7.047  10.522 -0.3755  2.4693 -1.4917
  828MOL0     H14262   0.562   7.094  10.813 -1.5577 -2.1478 -1.7374
  828MOL0     H14263   0.614   7.147  10.646 -1.3390 -0.2454 -0.2653
  828MOL0     H14264   0.591   7.260  10.788  2.2478 -1.3034 -0.1739
  829MOL0     O14265   7.377   6.122   9.905  0.2537  0.0701 -0.6009
  829MOL0     C14266   7.259   6.134   9.880  1.2413 -1.2285 -0.4371
  829MOL0     O14267   7.163   6.096   9.965 -0.3619  0.2161  0.0652
  829MOL0     C14268   7.192   6.040  10.084 -0.5557  0.0938 -0.7225
  829MOL0     C14269   7.285   5.935  10.098  0.2594 -0.1341  0.6622
  829MOL0     C14270   7.309   5.884  10.221  1.4741  0.7675 -1.5427
  829MOL0     C14271   7.241   5.928  10.340 -0.1366 -0.3841 -0.0627
  829MOL0     O14272   7.254   5.854  10.455 -0.1135  0.3653 -0.3878
  829MOL0     C14273   7.350   5.904  10.556  0.3191  0.7237  1.4844
  829MOL0     C14274   7.315   5.864  10.694 -0.1115 -0.0918 -0.1473
  829MOL0     C14275   7.178   5.902  10.750 -0.0870  0.0161 -0.0632
  829MOL0     C14276   7.159   5.845  10.889  0.1579 -0.8814  0.4047
  829MOL0     C14277   7.016   5.858  10.946  1.0429 -0.8744 -1.7172
  829MOL0     C14278   6.926   5.749  10.877 -0.2820 -0.4693 -0.0766
  829MOL0     C14279   6.779   5.748  10.921  0.1847  0.4069 -0.1037
  829MOL0     C14280   6.710   5.887  10.881 -0.6153  0.0446 -0.2279
  829MOL0     N14281   6.689   5.888  10.732  0.2072  0.0089  1.2025
  829MOL0     C14282   6.709   5.994  10.647  0.3032 -0.1560  0.2228
  829MOL0     C14283   6.670   5.941  10.523  0.3564 -0.0973  1.0805
  829MOL0     C14284   6.675   6.020  10.399 -1.0338 -0.1847  0.2515
  829MOL0     C14285   6.592   6.153  10.406 -0.9784 -0.4314 -0.6189
  829MOL0     C14286   6.443   6.105  10.411 -0.6125  0.6969  0.2069
  829MOL0     C14287   6.352   6.205  10.348  0.3337 -0.2073  0.0777
  829MOL0     O14288   6.371   6.211  10.208 -0.4241 -0.6144 -0.4082
  829MOL0     C14289   6.261   6.246  10.138 -0.3920  0.2635 -0.3138
  829MOL0     C14290   6.185   6.361  10.179  0.7573  0.1030 -0.1667
  829MOL0     C14291   6.073   6.411  10.111  0.1926 -0.8486  0.6646
  829MOL0     C14292   5.999   6.523  10.170 -0.2653 -0.3782 -0.3864
  829MOL0     C14293   6.033   6.339   9.988  1.0177 -0.2466 -0.0908
  829MOL0     C14294   5.914   6.391   9.904 -1.1030  0.2301  0.3545
  829MOL0     O14295   5.785   6.354   9.929  0.6109  0.3756 -0.5912
  829MOL0     C14296   5.680   6.371   9.843  0.1370 -0.4805 -0.6484
  829MOL0     C14297   5.640   6.495   9.811 -0.5198 -0.3447  0.2916
  829MOL0     C14298   5.543   6.508   9.707 -0.1344  0.3826 -1.0823
  829MOL0     C14299   5.480   6.400   9.646  0.3051  0.2677 -0.2257
  829MOL0     O14300   5.389   6.416   9.547  1.2986  0.2346 -0.9275
  829MOL0     C14301   5.436   6.494   9.439 -0.0290  0.3824  0.0746
  829MOL0     C14302   5.316   6.508   9.345  0.0292 -0.3844  0.4290
  829MOL0     C14303   5.183   6.578   9.396 -0.7150 -0.2630  0.6049
  829MOL0     C14304   5.072   6.577   9.287 -0.1192  0.2673  0.3635
  829MOL0     C14305   4.946   6.653   9.325 -0.4252 -0.1576 -0.1138
  829MOL0     C14306   4.949   6.803   9.318 -0.0831  0.9594 -0.2528
  829MOL0     C14307   4.972   6.847   9.171  1.0295 -0.7782 -0.1971
  829MOL0     C14308   5.107   6.894   9.132  0.3646 -0.7926  0.4247
  829MOL0    Cl14309   5.113   6.944   8.957 -0.1195 -0.4716 -0.2780
  829MOL0     C14310   5.526   6.277   9.678  0.6747  0.0187 -0.5397
  829MOL0     C14311   5.623   6.257   9.779 -0.1855 -0.7271 -0.5760
  829MOL0     O14312   5.957   6.441   9.804 -0.3745 -0.4220 -0.0411
  829MOL0     C14313   6.113   6.230   9.946  0.4602  0.2514 -0.4411
  829MOL0     C14314   6.227   6.191  10.013 -0.2253 -0.0913  0.7949
  829MOL0     N14315   6.619   5.814  10.534  0.1828 -0.2532 -0.5806
  829MOL0     N14316   6.624   5.794  10.656 -0.4518  0.2119  0.2642
  829MOL0     C14317   7.139   6.027  10.333  0.0516  0.2748  0.1551
  829MOL0     C14318   7.119   6.079  10.208 -1.0433 -0.9350 -0.0741
  829MOL0     C14319   7.214   6.218   9.756  0.7725  0.9175 -0.2683
  829MOL0     C14320   7.083   6.279   9.764 -0.1823 -0.4941 -0.6133
  829MOL0     C14321   7.043   6.353   9.654  0.2493 -0.8739  0.1589
  829MOL0     C14322   7.123   6.376   9.537 -0.5074 -0.3042  0.9325
  829MOL0     O14323   7.077   6.469   9.442  0.0143 -0.6262  0.3182
  829MOL0     C14324   7.151   6.498   9.322 -0.2093 -0.0566  0.0348
  829MOL0     C14325   7.058   6.546   9.209  0.1779 -0.0094 -0.6801
  829MOL0     C14326   7.014   6.697   9.215  0.0517  0.4750 -0.0813
  829MOL0     C14327   6.929   6.738   9.103 -1.2495  0.7081  0.2997
  829MOL0     C14328   7.002   6.719   8.978 -0.1020 -0.2079 -1.1187
  829MOL0     C14329   7.058   6.720   8.869 -0.0162  0.2667 -0.8033
  829MOL0     C14330   7.252   6.321   9.537  0.4910  0.6543 -0.0512
  829MOL0     C14331   7.298   6.250   9.646 -0.3078  0.5452 -0.0149
  829MOL0     C14332   7.441   6.194   9.647  0.7209  0.0750 -0.7875
  829MOL0     H14333   7.326   5.885  10.011 -1.5982 -0.0329 -0.3409
  829MOL0     H14334   7.372   5.799  10.245  1.0684  0.6736 -0.7597
  829MOL0     H14335   7.339   6.013  10.555  2.7411  1.1031 -2.2187
  829MOL0     H14336   7.450   5.889  10.514 -0.6371  2.3405 -1.7274
  829MOL0     H14337   7.362   5.766  10.704  0.9421  0.3434 -0.7480
  829MOL0     H14338   7.385   5.929  10.748  2.9145 -0.2987 -3.4724
  829MOL0     H14339   7.177   6.011  10.740 -2.1851 -0.2125 -5.3870
  829MOL0     H14340   7.098   5.862  10.687 -0.7025 -2.4744  2.1333
  829MOL0     H14341   7.195   5.742  10.899 -0.2608 -1.2940 -1.8115
  829MOL0     H14342   7.209   5.924  10.946 -3.2775  2.2297 -0.5073
  829MOL0     H14343   6.982   5.957  10.916 -1.2720 -1.7801 -2.3726
  829MOL0     H14344   7.006   5.852  11.055 -0.1421 -2.3383 -1.8617
  829MOL0     H14345   6.933   5.737  10.769 -2.3300  0.7221 -0.3935
  829MOL0     H14346   6.974   5.662  10.924  0.9790  1.3876  2.3056
  829MOL0     H14347   6.783   5.755  11.030 -0.0911  0.1014 -0.0739
  829MOL0     H14348   6.723   5.666  10.875 -1.1585  0.5321  1.2204
  829MOL0     H14349   6.616   5.904  10.933 -1.0820 -0.0652 -1.0186
  829MOL0     H14350   6.783   5.961  10.914  2.8974 -3.6725  1.1694
  829MOL0     H14351   6.762   6.087  10.662 -0.8252  0.4745  0.3871
  829MOL0     H14352   6.623   5.961  10.324 -4.6226  0.6439  1.8997
  829MOL0     H14353   6.781   6.029  10.373 -1.1942  0.1975 -0.2887
  829MOL0     H14354   6.623   6.212  10.493  0.8268 -2.2106  0.0457
  829MOL0     H14355   6.610   6.213  10.317 -1.0893 -0.9696 -1.0055
  829MOL0     H14356   6.434   6.013  10.352  1.1468  1.2141 -0.9407
  829MOL0     H14357   6.410   6.079  10.512  0.6660  1.3312  0.8092
  829MOL0     H14358   6.254   6.161  10.368 -0.0005  0.2080 -0.5981
  829MOL0     H14359   6.363   6.306  10.386 -3.6256  0.8779 -1.2289
  829MOL0     H14360   6.209   6.421  10.267 -2.5893  1.7498 -0.2435
  829MOL0     H14361   6.018   6.616  10.116  1.2669 -1.1514 -1.2309
  829MOL0     H14362   6.031   6.535  10.274  0.2991  1.7459 -0.7537
  829MOL0     H14363   5.892   6.506  10.184 -0.9746  3.6006  0.3616
  829MOL0     H14364   5.680   6.586   9.854  3.0750 -1.1680 -0.9590
  829MOL0     H14365   5.505   6.609   9.692  0.3904  0.5635 -1.2120
  829MOL0     H14366   5.480   6.592   9.460  6.1204 -1.8623 -0.4476
  829MOL0     H14367   5.516   6.441   9.386  0.7415  1.2333  0.3619
  829MOL0     H14368   5.354   6.585   9.276 -1.0782  1.3981  1.7471
  829MOL0     H14369   5.292   6.416   9.290 -0.6422 -0.6499  1.1480
  829MOL0     H14370   5.225   6.679   9.402  3.6887 -1.7582 -0.6443
  829MOL0     H14371   5.157   6.527   9.490  1.2773  0.1238  1.4140
  829MOL0     H14372   5.044   6.474   9.264 -2.1207 -0.5264  5.2050
  829MOL0     H14373   5.131   6.619   9.205 -2.1130  0.0320 -1.2717
  829MOL0     H14374   4.865   6.616   9.261  0.5790 -0.4317 -1.2633
  829MOL0     H14375   4.925   6.616   9.426  3.6341 -0.5275  0.7585
  829MOL0     H14376   5.024   6.840   9.388 -1.0613  0.1707  1.2914
  829MOL0     H14377   4.857   6.849   9.355 -0.6155 -1.1999  1.3012
  829MOL0     H14378   4.910   6.936   9.155 -0.6180 -1.7797  0.4019
  829MOL0     H14379   4.943   6.770   9.100 -4.0320 -0.4151  1.0882
  829MOL0     H14380   5.178   6.811   9.132  1.2634 -0.0980 -2.0129
  829MOL0     H14381   5.135   6.973   9.202  1.1625  0.7307 -1.5171
  829MOL0     H14382   5.483   6.187   9.635 -0.0782 -0.4158  1.0386
  829MOL0     H14383   5.645   6.154   9.807 -0.5039 -0.4914  0.5998
  829MOL0     H14384   6.086   6.185   9.851  5.2739 -1.2746 -1.3349
  829MOL0     H14385   6.274   6.096   9.991  0.5787  0.7728 -1.5971
  829MOL0     H14386   7.095   6.056  10.428  1.9905 -0.1496  1.2582
  829MOL0     H14387   7.029   6.137  10.191 -0.5033 -0.5017 -1.6478
  829MOL0     H14388   7.028   6.263   9.856  3.1472  4.0661  2.6109
  829MOL0     H14389   6.946   6.401   9.662 -0.8150 -1.5755 -4.7830
  829MOL0     H14390   7.215   6.582   9.350 -3.2547  2.8843 -1.0951
  829MOL0     H14391   7.212   6.413   9.291 -0.1120 -0.2808  0.8087
  829MOL0     H14392   6.965   6.490   9.200 -2.2242  3.8094 -1.9332
  829MOL0     H14393   7.117   6.546   9.117 -1.7554 -0.4713 -1.9839
  829MOL0     H14394   6.948   6.706   9.302  3.3335  0.8774  2.5531
  829MOL0     H14395   7.102   6.761   9.228 -0.7287  1.3096  1.3457
  829MOL0     H14396   6.915   6.846   9.111  0.8053  1.0818 -0.5405
  829MOL0     H14397   6.840   6.674   9.098 -1.7554  1.4574 -0.4532
  829MOL0     H14398   7.093   6.725   8.768  1.9529  1.9963 -0.1357
  829MOL0     H14399   7.328   6.321   9.460 -0.1789 -1.6233 -0.7952
  829MOL0     H14400   7.489   6.213   9.551  1.6998 -2.1814 -0.8170
  829MOL0     H14401   7.508   6.239   9.720 -0.8784  0.3943  0.5525
  829MOL0     H14402   7.459   6.087   9.663  0.2424  0.0526 -0.3585
  830MOL0     O14403   6.603   4.894   7.426 -0.7439  0.2667 -0.5528
  830MOL0     C14404   6.701   4.891   7.494 -1.6431  0.5639  1.0008
  830MOL0     O14405   6.752   4.785   7.567 -0.6919 -0.5516 -0.1835
  830MOL0     C14406   6.660   4.690   7.611 -0.3628 -1.3933 -0.1669
  830MOL0     C14407   6.620   4.576   7.538 -0.3235 -0.3324 -0.7289
  830MOL0     C14408   6.522   4.490   7.590  0.5136  0.0542  0.6439
  830MOL0     C14409   6.464   4.514   7.710 -0.0042 -0.4525 -0.3420
  830MOL0     O14410   6.371   4.425   7.756  0.3419  0.4865  0.2459
  830MOL0     C14411   6.380   4.378   7.896 -0.4482 -0.1515 -0.2042
  830MOL0     C14412   6.376   4.226   7.897  0.5066  0.8108 -0.6424
  830MOL0     C14413   6.500   4.163   7.831 -0.2112  0.2646  0.5927
  830MOL0     C14414   6.516   4.014   7.867  0.2673  0.1173  0.0540
  830MOL0     C14415   6.663   3.985   7.914 -0.3380 -0.5048  0.0478
  830MOL0     C14416   6.711   4.059   8.040  0.3045 -0.1487 -1.1253
  830MOL0     C14417   6.616   4.052   8.166 -0.0304 -0.4610 -0.5712
  830MOL0     C14418   6.660   4.142   8.278  0.2397 -0.2018  0.6022
  830MOL0     N14419   6.651   4.283   8.245 -0.3012 -0.1462  0.5408
  830MOL0     C14420   6.747   4.376   8.225 -0.2535 -0.3315  0.0990
  830MOL0     C14421   6.690   4.493   8.216  0.4036 -0.7833  0.3898
  830MOL0     C14422   6.769   4.623   8.190 -0.0459 -0.0723 -0.7917
  830MOL0     C14423   6.680   4.744   8.192  0.7776  0.9435  0.4876
  830MOL0     C14424   6.762   4.869   8.170  0.1972 -0.3087 -0.5580
  830MOL0     C14425   6.831   4.887   8.041  0.2183  0.3632  0.5432
  830MOL0     O14426   6.918   4.990   8.010 -0.4000  0.4620 -0.4917
  830MOL0     C14427   6.998   5.047   8.108  0.6510  1.1791  1.1039
  830MOL0     C14428   6.928   5.135   8.199 -0.7057 -0.8004  1.0737
  830MOL0     C14429   7.000   5.205   8.300 -0.4415 -0.1480 -0.3515
  830MOL0     C14430   6.919   5.319   8.365  0.6716 -0.9234 -0.2525
  830MOL0     C14431   7.139   5.174   8.317 -0.2289  0.2827  0.4867
  830MOL0     C14432   7.215   5.230   8.430 -0.3800 -0.1590  0.3029
  830MOL0     O14433   7.147   5.303   8.525 -0.1253  0.8217  0.3308
  830MOL0     C14434   7.207   5.329   8.649  0.1630 -0.1412  0.2398
  830MOL0     C14435   7.197   5.459   8.703  0.1283 -0.9318 -2.1356
  830MOL0     C14436   7.241   5.469   8.839  0.3751 -0.0332 -0.0081
  830MOL0     C14437   7.290   5.359   8.917  0.2989  0.3750  0.7920
  830MOL0     O14438   7.309   5.363   9.049  0.0462  0.0770  0.0543
  830MOL0     C14439   7.221   5.441   9.127 -0.4935  0.3762  0.1734
  830MOL0     C14440   7.275   5.586   9.156  0.2128 -0.6698  0.2728
  830MOL0     C14441   7.158   5.682   9.167 -1.0342  0.3511  0.3034
  830MOL0     C14442   7.057   5.628   9.271 -0.1933  0.4025  0.6482
  830MOL0     C14443   6.970   5.745   9.314  0.7424 -0.2710  0.4115
  830MOL0     C14444   7.030   5.818   9.441 -0.1487 -0.7399  0.4934
  830MOL0     C14445   6.967   5.960   9.467 -0.3106  0.8941  0.8346
  830MOL0     C14446   6.826   5.968   9.505  0.8161  0.4661  0.2396
  830MOL0    Cl14447   6.805   6.147   9.520 -0.0244 -0.4091 -0.0202
  830MOL0     C14448   7.298   5.234   8.859  0.4167 -0.1341  0.4899
  830MOL0     C14449   7.259   5.214   8.722 -0.6186 -0.0469  0.0137
  830MOL0     O14450   7.331   5.204   8.430 -0.0718 -0.7887  0.6552
  830MOL0     C14451   7.201   5.082   8.229 -0.8760 -0.3882 -0.0448
  830MOL0     C14452   7.131   5.019   8.122 -0.5060  1.1809 -1.1564
  830MOL0     N14453   6.552   4.463   8.232 -0.0802  0.0518  0.9349
  830MOL0     N14454   6.533   4.338   8.252 -0.1093  0.3206 -0.2106
  830MOL0     C14455   6.494   4.628   7.784  0.0035  1.0768  0.3538
  830MOL0     C14456   6.597   4.713   7.734  0.4725  0.0298 -0.3986
  830MOL0     C14457   6.777   5.018   7.506  0.5054 -1.2493 -0.2732
  830MOL0     C14458   6.734   5.139   7.434 -0.5464  0.0393  0.2363
  830MOL0     C14459   6.803   5.265   7.433 -0.6714  0.5280  0.4427
  830MOL0     C14460   6.917   5.274   7.516 -0.2924 -0.1795 -0.4165
  830MOL0     O14461   6.986   5.393   7.539  0.6290  0.2183  0.1771
  830MOL0     C14462   6.968   5.496   7.441 -0.4816  0.2030 -0.1947
  830MOL0     C14463   7.021   5.465   7.298 -0.0217 -0.5602  0.3695
  830MOL0     C14464   7.166   5.421   7.299  0.0211  1.1533 -0.1103
  830MOL0     C14465   7.227   5.393   7.159 -0.2705  0.0029 -1.4586
  830MOL0     C14466   7.275   5.518   7.103  0.6393  0.0963 -0.2596
  830MOL0     C14467   7.319   5.622   7.052 -0.3925  0.2365 -0.0586
  830MOL0     C14468   6.957   5.172   7.598 -0.1019 -0.1480 -1.2581
  830MOL0     C14469   6.895   5.046   7.596 -0.2959  1.7944  0.9988
  830MOL0     C14470   6.954   4.941   7.679 -0.1345 -1.0382  0.5463
  830MOL0     H14471   6.660   4.553   7.440 -1.7455 -0.0134 -1.4208
  830MOL0     H14472   6.487   4.411   7.525 -2.9140  3.2340 -1.8455
  830MOL0     H14473   6.292   4.420   7.945 -0.9935  2.4132 -3.0350
  830MOL0     H14474   6.468   4.420   7.944  1.3452 -1.4651 -2.1503
  830MOL0     H14475   6.379   4.196   8.002 -0.5770  2.8485  0.0264
  830MOL0     H14476   6.284   4.188   7.853 -0.1377 -1.4219  2.3180
  830MOL0     H14477   6.504   4.192   7.725  1.8421  0.7144  0.7440
  830MOL0     H14478   6.582   4.211   7.884 -0.1700 -0.2542  0.9951
  830MOL0     H14479   6.439   3.959   7.922 -0.0774  1.9279  1.4923
  830MOL0     H14480   6.500   3.970   7.768 -0.7110  2.7058 -1.0148
  830MOL0     H14481   6.727   4.023   7.834  3.0691 -3.0574  1.3532
  830MOL0     H14482   6.675   3.877   7.921 -2.2378 -0.6782  1.6184
  830MOL0     H14483   6.803   4.006   8.066  0.2609 -0.2129 -1.1026
  830MOL0     H14484   6.735   4.162   8.012 -0.9501  0.7504  0.9116
  830MOL0     H14485   6.610   3.949   8.202  0.0662 -0.2650  0.0178
  830MOL0     H14486   6.516   4.085   8.137  0.2903  1.1965  0.1154
  830MOL0     H14487   6.603   4.123   8.369  1.9495  0.1226  1.7787
  830MOL0     H14488   6.755   4.108   8.318  0.0859 -1.2360  0.1203
  830MOL0     H14489   6.853   4.360   8.211 -0.2996  1.3588 -3.0863
  830MOL0     H14490   6.831   4.605   8.101  0.1628  0.5638 -0.7756
  830MOL0     H14491   6.813   4.639   8.289 -2.0171 -1.2285  0.3288
  830MOL0     H14492   6.611   4.729   8.108  0.5536 -1.4379  1.0209
  830MOL0     H14493   6.618   4.747   8.282 -0.5055 -0.0008 -0.3261
  830MOL0     H14494   6.685   4.947   8.177 -1.9947 -2.4636  0.8660
  830MOL0     H14495   6.836   4.880   8.250 -2.6819  1.5090  2.0611
  830MOL0     H14496   6.886   4.798   8.009  1.2625  1.2143 -0.0900
  830MOL0     H14497   6.744   4.898   7.976 -0.1121 -1.4122  0.6401
  830MOL0     H14498   6.827   5.172   8.180 -0.6288  0.6891  3.2500
  830MOL0     H14499   6.970   5.416   8.355 -0.6989 -0.3516 -2.3204
  830MOL0     H14500   6.905   5.299   8.472  2.8446 -1.4230 -0.0014
  830MOL0     H14501   6.825   5.322   8.310  1.6899  0.3184 -2.0477
  830MOL0     H14502   7.140   5.535   8.650 -0.1783  1.8234  1.6958
  830MOL0     H14503   7.225   5.567   8.881 -0.4049  0.0377 -0.4510
  830MOL0     H14504   7.125   5.436   9.074 -0.6506  4.1712 -0.1681
  830MOL0     H14505   7.207   5.392   9.223  1.0619  0.3610  0.4059
  830MOL0     H14506   7.325   5.576   9.253 -1.3744 -1.6294  1.0310
  830MOL0     H14507   7.340   5.624   9.076 -1.3645 -0.7271 -1.0872
  830MOL0     H14508   7.113   5.715   9.072 -4.3340 -3.1525  0.4071
  830MOL0     H14509   7.211   5.770   9.204 -0.8835  1.0301 -1.4067
  830MOL0     H14510   7.113   5.608   9.363 -1.2869  1.5984  1.6064
  830MOL0     H14511   7.002   5.549   9.220  0.1541  1.4522 -1.4423
  830MOL0     H14512   6.975   5.822   9.236 -0.9034 -0.3011  0.2547
  830MOL0     H14513   6.870   5.706   9.335  1.4735 -1.4678  1.8846
  830MOL0     H14514   7.138   5.824   9.430 -0.3229  1.8326 -0.4032
  830MOL0     H14515   7.014   5.755   9.529  0.0796 -1.4599  0.0371
  830MOL0     H14516   6.991   6.024   9.382 -1.0294 -2.1714 -1.8720
  830MOL0     H14517   7.031   5.994   9.550 -0.1845 -0.0083  1.1234
  830MOL0     H14518   6.801   5.925   9.603 -0.2169  3.8387  1.6195
  830MOL0     H14519   6.762   5.931   9.424  2.0700  0.8949 -0.9733
  830MOL0     H14520   7.355   5.164   8.920 -0.1176  1.1177  2.5277
  830MOL0     H14521   7.258   5.115   8.677  0.5222 -0.2028  0.2972
  830MOL0     H14522   7.304   5.056   8.252 -0.7917  0.5296  0.6814
  830MOL0     H14523   7.191   4.955   8.058  0.0285  0.3608  0.1176
  830MOL0     H14524   6.443   4.656   7.875 -2.6397 -2.0038  0.0098
  830MOL0     H14525   6.622   4.806   7.785  1.3393  0.1084 -0.9528
  830MOL0     H14526   6.646   5.147   7.370 -1.1148  4.4796  1.2490
  830MOL0     H14527   6.758   5.344   7.375 -2.4416  2.0213  3.5674
  830MOL0     H14528   6.864   5.532   7.442 -1.1480 -1.4284 -2.2645
  830MOL0     H14529   7.030   5.581   7.469  1.4083 -1.9094  2.4187
  830MOL0     H14530   7.008   5.554   7.236 -0.2120 -0.4650  0.5460
  830MOL0     H14531   6.946   5.394   7.263 -0.3683 -0.9657  1.8553
  830MOL0     H14532   7.228   5.490   7.357  0.8076 -1.1804  2.0039
  830MOL0     H14533   7.158   5.328   7.356 -1.3905  0.7872 -0.8587
  830MOL0     H14534   7.153   5.336   7.103 -1.2136 -1.4991  1.1444
  830MOL0     H14535   7.311   5.323   7.169 -0.2345  0.2319  0.2415
  830MOL0     H14536   7.352   5.707   6.996  1.5652  1.3041  2.4709
  830MOL0     H14537   7.041   5.178   7.665 -0.1690  0.0194 -1.1889
  830MOL0     H14538   6.876   4.888   7.734 -1.6466 -0.5961 -1.1086
  830MOL0     H14539   7.010   4.862   7.628  1.4578  0.7096 -0.5365
  830MOL0     H14540   7.021   4.987   7.753 -1.2303 -0.9839  1.5317
  831MOL0     O14541   1.172   4.652   7.321  0.7771 -0.4512 -0.4561
  831MOL0     C14542   1.195   4.602   7.432 -0.2722  0.0595 -0.7083
  831MOL0     O14543   1.311   4.612   7.496 -0.0687  0.0729  0.5342
  831MOL0     C14544   1.418   4.676   7.437  0.9779  0.0884 -0.0631
  831MOL0     C14545   1.424   4.819   7.421  0.4156  0.2615  0.4705
  831MOL0     C14546   1.537   4.874   7.364 -0.1771 -0.6065 -0.1048
  831MOL0     C14547   1.642   4.800   7.311  0.1912 -0.4839 -0.2889
  831MOL0     O14548   1.753   4.872   7.264  0.6860  0.2177 -0.5332
  831MOL0     C14549   1.720   4.990   7.189  0.5600 -0.3851 -0.1012
  831MOL0     C14550   1.809   5.011   7.068  0.1217 -1.5791 -0.3162
  831MOL0     C14551   1.956   5.018   7.106  0.8896  0.7331  0.6865
  831MOL0     C14552   2.053   4.981   6.986  0.6873  0.4275 -1.0037
  831MOL0     C14553   2.069   5.105   6.890 -0.3361  0.1111 -0.3130
  831MOL0     C14554   2.149   5.061   6.768  0.1607  0.2712 -0.2231
  831MOL0     C14555   2.147   5.151   6.639  0.0157  0.3660 -0.6920
  831MOL0     C14556   2.245   5.095   6.536  0.0019  0.2196  0.1224
  831MOL0     N14557   2.212   5.150   6.403 -0.3378  0.4123  1.0244
  831MOL0     C14558   2.296   5.141   6.298  0.2427  0.2630  1.2218
  831MOL0     C14559   2.222   5.186   6.191  0.0548  0.7603 -0.4267
  831MOL0     C14560   2.277   5.172   6.048  0.9071 -0.1008 -0.0721
  831MOL0     C14561   2.394   5.266   6.013  0.1629 -0.7737 -0.1714
  831MOL0     C14562   2.456   5.231   5.881  0.0393 -0.3283 -0.4094
  831MOL0     C14563   2.547   5.106   5.884  0.5279 -0.4476 -0.5435
  831MOL0     O14564   2.627   5.088   5.768  0.2470 -1.2068  0.5054
  831MOL0     C14565   2.743   5.023   5.777 -0.2661  0.2342  0.1688
  831MOL0     C14566   2.797   4.981   5.654 -0.3063  0.6531 -0.5830
  831MOL0     C14567   2.928   4.939   5.645 -0.1879  0.3959 -0.0375
  831MOL0     C14568   2.967   4.915   5.502  0.1681  0.1571  0.3315
  831MOL0     C14569   3.002   4.925   5.759 -0.3451  0.1148 -2.5783
  831MOL0     C14570   3.154   4.891   5.753 -0.0236 -0.1300 -0.7190
  831MOL0     O14571   3.233   4.945   5.853 -0.5776  0.6499 -0.0899
  831MOL0     C14572   3.367   4.913   5.867 -0.0052 -0.1790 -0.6470
  831MOL0     C14573   3.410   4.789   5.906  0.7173 -0.0542  0.7137
  831MOL0     C14574   3.544   4.758   5.904 -0.7532 -0.0683  1.3851
  831MOL0     C14575   3.644   4.855   5.872  0.2309  0.3406 -0.0995
  831MOL0     O14576   3.767   4.812   5.897 -0.7823  0.9496 -0.4795
  831MOL0     C14577   3.814   4.694   5.822 -0.4003 -0.4579 -0.5658
  831MOL0     C14578   3.961   4.717   5.807 -0.8418  0.5986 -0.7408
  831MOL0     C14579   4.014   4.841   5.735 -0.3021 -0.1857  0.3385
  831MOL0     C14580   4.167   4.841   5.757 -0.3593 -0.0157  0.4653
  831MOL0     C14581   4.224   4.983   5.721  0.3109  0.0919 -0.5913
  831MOL0     C14582   4.372   4.980   5.739 -0.2662  0.2882 -1.7815
  831MOL0     C14583   4.446   5.081   5.673  0.1213  0.0624  0.9282
  831MOL0     C14584   4.406   5.217   5.736  0.0946 -0.5644 -0.4144
  831MOL0    Cl14585   4.510   5.341   5.667  0.0938 -0.0596 -0.1089
  831MOL0     C14586   3.609   4.979   5.833  0.0439  0.7829  0.2795
  831MOL0     C14587   3.464   5.006   5.834  0.3563 -0.2640  0.5597
  831MOL0     O14588   3.195   4.813   5.669  0.5163  0.6522 -0.6852
  831MOL0     C14589   2.947   4.956   5.885 -0.5490  0.5009  0.6168
  831MOL0     C14590   2.813   4.995   5.893  0.4328 -0.1776 -0.7657
  831MOL0     N14591   2.095   5.210   6.231 -0.3719 -0.4013  0.1825
  831MOL0     N14592   2.088   5.190   6.365  0.5730  0.1114  0.3358
  831MOL0     C14593   1.629   4.665   7.324  0.2226 -0.4431 -0.6489
  831MOL0     C14594   1.525   4.605   7.385  0.2926 -0.3179  0.6018
  831MOL0     C14595   1.093   4.521   7.507  0.1695 -0.2631 -1.1007
  831MOL0     C14596   1.138   4.439   7.612  0.0026  0.1795 -0.4831
  831MOL0     C14597   1.050   4.360   7.686  0.2960 -0.6616  0.7096
  831MOL0     C14598   0.910   4.384   7.674 -0.6457  0.7227 -0.3738
  831MOL0     O14599   0.830   4.312   7.758  0.1787  0.5018 -0.1478
  831MOL0     C14600   0.696   4.362   7.805 -0.7585  0.7574  1.0245
  831MOL0     C14601   0.584   4.303   7.718  0.0830  0.8747  0.0056
  831MOL0     C14602   0.484   4.244   7.811 -0.0989  0.3189 -0.5665
  831MOL0     C14603   0.366   4.170   7.744 -0.0901  0.2489  0.7080
  831MOL0     C14604   0.258   4.270   7.716 -0.9038  0.8422 -0.1320
  831MOL0     C14605   0.184   4.358   7.681 -0.7084  0.7839 -0.2758
  831MOL0     C14606   0.865   4.477   7.580  1.0410 -0.0026  0.3671
  831MOL0     C14607   0.952   4.545   7.497 -0.0238  0.3226 -0.0447
  831MOL0     C14608   0.887   4.658   7.424 -0.0891  0.2109 -0.2629
  831MOL0     H14609   1.347   4.885   7.458  1.2942  0.5137  1.9626
  831MOL0     H14610   1.532   4.982   7.366 -0.0770 -0.4240 -3.8313
  831MOL0     H14611   1.733   5.072   7.261 -0.0140 -0.4306  0.0585
  831MOL0     H14612   1.618   4.998   7.151  0.3215 -0.2689  0.5488
  831MOL0     H14613   1.802   4.935   6.989 -1.8652  0.9491 -2.7930
  831MOL0     H14614   1.785   5.110   7.027 -1.9113 -1.0767  1.9110
  831MOL0     H14615   1.980   5.119   7.142 -3.6649  2.9318 -1.4857
  831MOL0     H14616   1.965   4.938   7.180 -1.1094 -3.4617 -3.1058
  831MOL0     H14617   2.155   4.961   7.022  0.2253 -2.0620 -0.9115
  831MOL0     H14618   2.015   4.903   6.921 -0.0980  0.2115 -0.3088
  831MOL0     H14619   2.106   5.197   6.934  0.3442 -0.3005 -0.0145
  831MOL0     H14620   1.973   5.133   6.844 -0.5850 -2.2300 -1.4094
  831MOL0     H14621   2.251   5.034   6.798  0.2231  1.0661  0.3165
  831MOL0     H14622   2.108   4.961   6.751 -3.2065  1.7810 -1.9402
  831MOL0     H14623   2.165   5.255   6.667 -1.3948  0.7937 -1.2756
  831MOL0     H14624   2.046   5.139   6.599 -0.4427  1.7174 -0.0033
  831MOL0     H14625   2.347   5.125   6.563 -0.4218  0.9402  0.9665
  831MOL0     H14626   2.235   4.986   6.537  0.1422  0.1926  2.1194
  831MOL0     H14627   2.395   5.099   6.281  0.6679  2.0317 -1.0401
  831MOL0     H14628   2.185   5.199   5.995  1.0721  1.7430  0.4990
  831MOL0     H14629   2.307   5.067   6.039 -1.7534 -0.8769 -1.0443
  831MOL0     H14630   2.363   5.371   6.011 -2.8664 -1.5525  0.4569
  831MOL0     H14631   2.470   5.261   6.092  0.9724  0.0998 -0.8677
  831MOL0     H14632   2.392   5.212   5.794  0.4843 -1.1563 -0.5634
  831MOL0     H14633   2.530   5.310   5.864 -2.1724  2.2049  1.0896
  831MOL0     H14634   2.611   5.133   5.968  1.6839  0.8990 -1.7787
  831MOL0     H14635   2.488   5.017   5.908  0.8869  0.1381  3.0408
  831MOL0     H14636   2.740   4.998   5.564 -2.4407 -2.9998 -0.1120
  831MOL0     H14637   3.061   4.970   5.496  0.9080 -0.4644  3.9698
  831MOL0     H14638   2.901   4.965   5.431  0.5018 -1.0503 -0.8843
  831MOL0     H14639   2.984   4.811   5.474 -4.3013 -1.0034  1.0848
  831MOL0     H14640   3.339   4.711   5.933 -0.8260  1.6404  1.8433
  831MOL0     H14641   3.582   4.659   5.928  4.8252  1.9174  2.2145
  831MOL0     H14642   3.796   4.595   5.865  2.5780 -1.5260 -1.5256
  831MOL0     H14643   3.764   4.697   5.725  1.2142  0.8050 -1.3961
  831MOL0     H14644   4.008   4.710   5.905 -2.9799  1.4889  0.4159
  831MOL0     H14645   4.003   4.633   5.750 -0.9621 -0.0738  0.1367
  831MOL0     H14646   3.984   4.933   5.785  2.4552  2.9740 -3.1984
  831MOL0     H14647   3.992   4.842   5.628  0.5807  0.6007  0.1592
  831MOL0     H14648   4.206   4.754   5.702 -1.9430 -0.4048 -0.0830
  831MOL0     H14649   4.177   4.813   5.863 -1.6504  2.5979  1.3553
  831MOL0     H14650   4.197   4.999   5.616 -0.2521  0.1451 -0.4439
  831MOL0     H14651   4.180   5.054   5.790 -0.6349 -1.2107  0.1996
  831MOL0     H14652   4.408   4.886   5.695  1.4494  0.5998 -1.1239
  831MOL0     H14653   4.402   4.967   5.843  1.7990 -0.6381 -2.4273
  831MOL0     H14654   4.433   5.081   5.565  0.3860  1.2816  0.8884
  831MOL0     H14655   4.554   5.067   5.686  0.2041 -0.8446 -0.5053
  831MOL0     H14656   4.427   5.214   5.843 -0.4877  3.0483 -0.0911
  831MOL0     H14657   4.303   5.252   5.725 -0.2153 -1.1336  0.5706
  831MOL0     H14658   3.672   5.063   5.803 -1.7892  1.4018 -2.2444
  831MOL0     H14659   3.434   5.103   5.795 -1.9642  0.4527  3.6918
  831MOL0     H14660   3.020   4.965   5.966  1.2048  1.1959 -0.9628
  831MOL0     H14661   2.775   5.020   5.992 -1.3973 -0.1496 -1.4438
  831MOL0     H14662   1.707   4.606   7.277  1.2950  1.8415 -1.9666
  831MOL0     H14663   1.515   4.498   7.396 -1.7507 -0.4049 -1.4098
  831MOL0     H14664   1.242   4.412   7.624 -0.4558 -1.5997 -0.2395
  831MOL0     H14665   1.085   4.287   7.758  1.3155 -0.8515  0.0428
  831MOL0     H14666   0.690   4.345   7.913  0.6874 -2.2468  0.7249
  831MOL0     H14667   0.691   4.471   7.793  0.1988  0.4439 -4.1396
  831MOL0     H14668   0.628   4.220   7.662  2.9778  1.4892  1.1979
  831MOL0     H14669   0.532   4.375   7.654 -0.4196  1.4345  1.0213
  831MOL0     H14670   0.542   4.168   7.865  3.0607  1.6169 -1.8775
  831MOL0     H14671   0.454   4.322   7.881  0.8319  0.3341 -0.1637
  831MOL0     H14672   0.327   4.100   7.818 -0.4690  0.3900  0.6421
  831MOL0     H14673   0.400   4.115   7.656 -2.7205  1.7867 -1.3944
  831MOL0     H14674   0.126   4.438   7.638  0.5404  0.9917 -1.6675
  831MOL0     H14675   0.761   4.502   7.562  1.6999  1.6949 -1.4161
  831MOL0     H14676   0.925   4.659   7.321  0.0704 -1.0415 -0.2315
  831MOL0     H14677   0.778   4.656   7.419 -0.1683  0.2106  1.2490
  831MOL0     H14678   0.920   4.746   7.481  1.7146  0.8278 -2.1059
  832MOL0     O14679   7.230   4.898   4.771  0.5168 -0.3803 -0.9706
  832MOL0     C14680   7.209   4.789   4.821 -0.4752 -0.5702  0.5334
  832MOL0     O14681   7.240   4.753   4.945  0.2870 -0.2293  0.8343
  832MOL0     C14682   7.301   4.845   5.023 -1.7752 -0.2471 -0.2267
  832MOL0     C14683   7.430   4.893   5.005  0.2658 -0.3436 -0.5156
  832MOL0     C14684   7.492   4.972   5.103  0.5047 -0.8785 -0.0402
  832MOL0     C14685   7.421   5.001   5.223 -0.4616 -0.2039 -0.3417
  832MOL0     O14686   7.497   5.068   5.317  0.5453  0.1760  0.6742
  832MOL0     C14687   7.499   5.024   5.452  0.2305 -0.1879 -0.2113
  832MOL0     C14688   7.591   5.111   5.537 -0.4971  0.4535  0.6376
  832MOL0     C14689   7.515   5.230   5.579 -0.6114 -0.1878  0.3302
  832MOL0     C14690   7.598   5.322   5.663  0.1342 -0.1690  0.5601
  832MOL0     C14691   7.714   5.391   5.590  0.9928 -0.9793  0.1652
  832MOL0     C14692   7.770   5.500   5.678  0.4488 -0.6566  0.0014
  832MOL0     C14693   7.673   5.604   5.745 -0.9790  1.1474 -0.4249
  832MOL0     C14694   7.730   5.744   5.750 -0.7151 -0.6157  0.0899
  832MOL0     N14695   7.848   5.750   5.836  0.3222  0.4002 -0.6674
  832MOL0     C14696   7.978   5.797   5.792  0.6729  0.7575  0.1169
  832MOL0     C14697   8.055   5.794   5.897  0.1282  0.2817  1.3864
  832MOL0     C14698   8.203   5.852   5.896  0.8937  0.7491 -0.0431
  832MOL0     C14699   8.264   5.862   6.043 -0.0423  0.3273  0.4158
  832MOL0     C14700   8.416   5.831   6.026  0.1315 -0.4410  0.7060
  832MOL0     C14701   8.476   5.815   6.163  0.0993  1.0874  0.5576
  832MOL0     O14702   8.430   5.691   6.214 -0.1800  0.8226  0.0704
  832MOL0     C14703   8.407   5.681   6.354  0.3899 -0.4581 -0.0899
  832MOL0     C14704   8.446   5.772   6.448 -0.1742  0.7491  0.3262
  832MOL0     C14705   8.432   5.747   6.584  0.2761 -0.6974  0.4153
  832MOL0     C14706   8.483   5.854   6.686 -0.0135  0.4356 -0.1584
  832MOL0     C14707   8.381   5.618   6.620 -0.0399  0.5534  0.6656
  832MOL0     C14708   8.381   5.569   6.759 -0.2438  0.6281 -0.6202
  832MOL0     O14709   8.251   5.554   6.808  0.2446  0.1126 -0.5883
  832MOL0     C14710   8.231   5.529   6.942 -0.8437 -0.8652 -0.1999
  832MOL0     C14711   8.301   5.609   7.036  0.2878 -0.1678  0.3780
  832MOL0     C14712   8.288   5.581   7.173 -0.4153  1.0423  0.8912
  832MOL0     C14713   8.190   5.482   7.212 -0.3603 -0.2820 -0.1246
  832MOL0     O14714   8.159   5.455   7.345 -0.6381  0.1973 -0.5763
  832MOL0     C14715   8.207   5.549   7.438  0.5204  0.0984  0.3651
  832MOL0     C14716   8.141   5.505   7.562  0.7056  0.5621 -0.0154
  832MOL0     C14717   8.165   5.599   7.677  0.3870  0.3478  0.4203
  832MOL0     C14718   8.143   5.534   7.820 -0.1415  0.2861  0.4787
  832MOL0     C14719   8.276   5.456   7.868  0.9198 -0.1993  0.1135
  832MOL0     C14720   8.264   5.402   8.011  0.0711  0.1832  0.2448
  832MOL0     C14721   8.398   5.343   8.060  0.5865  0.1951 -0.0149
  832MOL0     C14722   8.386   5.305   8.207  0.0517  1.5502 -0.6466
  832MOL0    Cl14723   8.394   5.449   8.316  0.3427  0.5454 -0.4575
  832MOL0     C14724   8.127   5.395   7.126  0.8403 -0.5490  0.1156
  832MOL0     C14725   8.145   5.427   6.989 -0.0758  0.3440  0.9339
  832MOL0     O14726   8.487   5.557   6.826  0.1224  0.0076  0.3811
  832MOL0     C14727   8.334   5.523   6.522 -0.2750 -0.1747  0.2233
  832MOL0     C14728   8.346   5.560   6.391 -0.7369 -0.1404  0.4510
  832MOL0     N14729   7.982   5.748   6.002  0.0801 -0.5032 -0.0219
  832MOL0     N14730   7.857   5.728   5.973 -0.4569 -0.4744  0.7886
  832MOL0     C14731   7.295   4.956   5.246  0.4283  0.6145 -0.3925
  832MOL0     C14732   7.239   4.870   5.143  0.8111 -0.4119 -0.2214
  832MOL0     C14733   7.145   4.679   4.745 -0.0895  0.9498  0.5948
  832MOL0     C14734   7.086   4.571   4.817  0.3243  0.2641  0.4260
  832MOL0     C14735   7.021   4.462   4.762 -0.4520  0.6670 -0.9860
  832MOL0     C14736   7.027   4.445   4.620  0.2165  0.0146  0.4630
  832MOL0     O14737   6.964   4.335   4.556 -0.0809 -0.5664  0.2474
  832MOL0     C14738   6.831   4.361   4.504  0.5374  0.6695  0.5475
  832MOL0     C14739   6.844   4.339   4.353  1.5670  0.5379 -0.1409
  832MOL0     C14740   6.721   4.378   4.279  0.5572 -0.6555  0.1777
  832MOL0     C14741   6.604   4.285   4.296  0.1189  0.1468 -0.3767
  832MOL0     C14742   6.473   4.332   4.264  0.0888 -0.3022 -0.6364
  832MOL0     C14743   6.370   4.380   4.222  0.0828  0.1198  0.1662
  832MOL0     C14744   7.103   4.541   4.544 -0.2429 -0.2414  0.5990
  832MOL0     C14745   7.155   4.667   4.600  0.6688 -0.5032  0.0000
  832MOL0     C14746   7.204   4.769   4.496  0.5000  0.8441  0.3076
  832MOL0     H14747   7.466   4.872   4.904 -0.8640  0.8641 -1.1945
  832MOL0     H14748   7.595   5.004   5.094  0.3887  0.3108  2.0641
  832MOL0     H14749   7.539   4.922   5.451  0.7182 -0.0493  1.4120
  832MOL0     H14750   7.404   5.012   5.507  2.8378 -3.6428  4.3038
  832MOL0     H14751   7.626   5.069   5.631 -0.1478 -2.2591 -0.6268
  832MOL0     H14752   7.681   5.126   5.477 -0.3823 -2.4454 -0.0766
  832MOL0     H14753   7.472   5.282   5.493 -1.0400 -0.3724  0.4302
  832MOL0     H14754   7.430   5.202   5.644 -0.0079 -1.7644  0.4961
  832MOL0     H14755   7.527   5.385   5.718  0.4777 -2.2198  3.6117
  832MOL0     H14756   7.637   5.262   5.746 -0.7885 -0.4040  0.8361
  832MOL0     H14757   7.680   5.439   5.497 -1.1469 -0.7104  1.0268
  832MOL0     H14758   7.791   5.320   5.559  0.2806 -0.4610 -3.2351
  832MOL0     H14759   7.844   5.464   5.751  2.4238  4.6817  1.1131
  832MOL0     H14760   7.829   5.548   5.599  1.1574 -1.2963  0.1232
  832MOL0     H14761   7.667   5.565   5.847 -0.2097  2.5532  0.1872
  832MOL0     H14762   7.579   5.605   5.689  0.4906  0.0938 -3.1401
  832MOL0     H14763   7.765   5.772   5.650  4.4187 -0.8429  1.5840
  832MOL0     H14764   7.656   5.803   5.804  0.9941 -0.7248  2.6908
  832MOL0     H14765   7.995   5.838   5.693 -1.2790  2.9280  0.6127
  832MOL0     H14766   8.208   5.951   5.849  3.4403  0.2312 -1.0764
  832MOL0     H14767   8.254   5.773   5.839  0.3815 -0.2932  0.8994
  832MOL0     H14768   8.256   5.963   6.084 -0.9016 -0.1549  1.4888
  832MOL0     H14769   8.214   5.800   6.119 -1.0167  2.4297  1.5965
  832MOL0     H14770   8.441   5.750   5.957  2.2723 -2.4782  3.6188
  832MOL0     H14771   8.465   5.908   5.965 -1.4321 -1.2059 -1.6568
  832MOL0     H14772   8.584   5.818   6.148  0.0213 -1.5627 -1.1941
  832MOL0     H14773   8.430   5.890   6.228 -2.1941  0.8698 -0.6844
  832MOL0     H14774   8.491   5.868   6.425 -1.8932  1.6024  0.3822
  832MOL0     H14775   8.422   5.863   6.776  0.4342  0.4562  0.1502
  832MOL0     H14776   8.492   5.950   6.635  1.0756  0.9864  1.0005
  832MOL0     H14777   8.580   5.828   6.731 -0.0030  0.2610 -0.2810
  832MOL0     H14778   8.359   5.699   7.018  0.0629  0.2386  1.6059
  832MOL0     H14779   8.348   5.640   7.241 -2.4060  3.1668  0.9404
  832MOL0     H14780   8.314   5.534   7.454  0.5589 -0.4451 -0.3547
  832MOL0     H14781   8.181   5.648   7.398  0.3749 -1.2005 -3.1402
  832MOL0     H14782   8.035   5.492   7.541  1.3510  0.2846 -3.9124
  832MOL0     H14783   8.166   5.405   7.598 -4.5883 -0.6333  1.1026
  832MOL0     H14784   8.097   5.684   7.675 -1.7804 -1.2963  0.6562
  832MOL0     H14785   8.270   5.631   7.669  0.3310  0.5615  0.5473
  832MOL0     H14786   8.057   5.466   7.809 -0.0379  0.1673  0.3927
  832MOL0     H14787   8.122   5.607   7.898 -1.3905  0.3923  0.0686
  832MOL0     H14788   8.292   5.381   7.790  2.5110 -0.1056  0.3267
  832MOL0     H14789   8.359   5.528   7.862  1.2352 -0.4457  1.2184
  832MOL0     H14790   8.190   5.322   8.001  0.2538  0.2333 -2.4386
  832MOL0     H14791   8.230   5.477   8.082  0.5698 -0.7092  1.4668
  832MOL0     H14792   8.483   5.409   8.041  1.4496 -0.5936  0.9644
  832MOL0     H14793   8.412   5.253   8.000  2.2920  1.7304 -2.1090
  832MOL0     H14794   8.467   5.233   8.223  0.7000  2.6448  1.2353
  832MOL0     H14795   8.294   5.245   8.209 -0.2425  2.0089  1.1797
  832MOL0     H14796   8.053   5.322   7.157  0.0662  0.5921  1.0349
  832MOL0     H14797   8.109   5.361   6.910  3.0494 -2.0222  1.2649
  832MOL0     H14798   8.290   5.430   6.554  0.7830 -1.1319 -0.9886
  832MOL0     H14799   8.332   5.472   6.328  0.2880 -0.3140  0.4465
  832MOL0     H14800   7.240   4.964   5.339 -2.7440  0.2144 -2.0807
  832MOL0     H14801   7.148   4.816   5.168  0.9407  0.4713  2.5359
  832MOL0     H14802   7.088   4.571   4.925 -1.2426 -0.4823  0.4781
  832MOL0     H14803   6.982   4.390   4.832  1.5465  0.9053  0.4647
  832MOL0     H14804   6.751   4.301   4.548 -2.0003  2.6787 -0.9967
  832MOL0     H14805   6.801   4.463   4.531  0.6714  0.2210  2.5189
  832MOL0     H14806   6.856   4.231   4.336 -0.3018  0.4868 -1.5161
  832MOL0     H14807   6.938   4.380   4.317  0.1806  3.9211 -0.2542
  832MOL0     H14808   6.690   4.479   4.305  0.9426 -0.1815 -1.1126
  832MOL0     H14809   6.747   4.386   4.173 -1.4859  0.1331 -0.3137
  832MOL0     H14810   6.598   4.243   4.397 -0.7741  0.4110 -0.3089
  832MOL0     H14811   6.617   4.200   4.228  1.5740 -0.7331  0.9398
  832MOL0     H14812   6.279   4.413   4.177 -0.7392 -2.0852  0.0805
  832MOL0     H14813   7.114   4.528   4.437  1.3118 -0.3952  0.7485
  832MOL0     H14814   7.142   4.858   4.487 -0.9827 -0.0732  1.1227
  832MOL0     H14815   7.307   4.801   4.518  1.5595 -0.9642 -1.6764
  832MOL0     H14816   7.196   4.717   4.400  1.4740 -0.6378  0.9825
  833MOL0     O14817  10.394   4.942   6.832 -0.1069  0.6411  0.1562
  833MOL0     C14818  10.360   4.844   6.767  0.4413 -0.7801  1.3921
  833MOL0     O14819  10.298   4.735   6.812  0.4185  0.4590  0.4537
  833MOL0     C14820  10.275   4.717   6.942  0.3018  0.6189 -0.3928
  833MOL0     C14821  10.294   4.589   6.995 -0.2801 -0.4237 -0.1330
  833MOL0     C14822  10.274   4.565   7.140 -1.0094  0.3644  0.6357
  833MOL0     C14823  10.213   4.664   7.226  0.2849  0.1082  0.2306
  833MOL0     O14824  10.179   4.655   7.360 -0.0983 -0.0608  0.6454
  833MOL0     C14825  10.201   4.535   7.445  0.2180  0.3155  0.4175
  833MOL0     C14826  10.161   4.558   7.595 -0.4974  0.6960 -0.6029
  833MOL0     C14827  10.008   4.551   7.623  0.1871  0.0789  1.1359
  833MOL0     C14828   9.966   4.554   7.773 -0.0312  0.1310  0.6616
  833MOL0     C14829   9.813   4.528   7.790 -0.3331 -0.2734 -0.7100
  833MOL0     C14830   9.751   4.594   7.908  0.3329  0.0775  0.7431
  833MOL0     C14831   9.596   4.541   7.925 -0.0627 -0.6846 -1.1385
  833MOL0     C14832   9.498   4.595   7.818 -1.0820  1.6267  0.0577
  833MOL0     N14833   9.353   4.572   7.858 -0.9412 -0.4789  0.3783
  833MOL0     C14834   9.294   4.622   7.970 -0.1587 -0.8928  0.0953
  833MOL0     C14835   9.158   4.593   7.948 -1.1686  0.0145 -0.0045
  833MOL0     C14836   9.048   4.602   8.045  0.2936  0.3008  0.0365
  833MOL0     C14837   8.917   4.567   7.989  1.2431  0.3044  0.5019
  833MOL0     C14838   8.873   4.420   8.000  0.4689  0.4945  0.8826
  833MOL0     C14839   8.744   4.362   7.916  0.6926  0.4405  0.3290
  833MOL0     O14840   8.789   4.357   7.777  0.7173 -0.4362  0.6956
  833MOL0     C14841   8.701   4.320   7.680 -0.7666  0.0913 -0.2941
  833MOL0     C14842   8.758   4.301   7.549 -0.5224 -0.0310 -0.8687
  833MOL0     C14843   8.681   4.258   7.441  1.1272 -0.4887 -0.4360
  833MOL0     C14844   8.741   4.247   7.313 -0.3427 -0.4726  0.8741
  833MOL0     C14845   8.539   4.236   7.461  0.5656  0.1096 -0.6926
  833MOL0     C14846   8.438   4.190   7.356 -0.2381  0.0278  0.2531
  833MOL0     O14847   8.342   4.097   7.390 -0.5823 -0.0213  0.0116
  833MOL0     C14848   8.262   4.040   7.300  0.7750 -1.0083 -0.0570
  833MOL0     C14849   8.156   3.967   7.356 -0.1392 -0.0767 -0.4001
  833MOL0     C14850   8.053   3.919   7.276  0.4109  0.8739 -0.5059
  833MOL0     C14851   8.065   3.918   7.134 -0.6247  0.3094 -0.5223
  833MOL0     O14852   7.976   3.840   7.064 -1.2088 -0.4490 -0.2849
  833MOL0     C14853   7.948   3.885   6.934 -0.1486  0.1180  0.0793
  833MOL0     C14854   7.851   4.010   6.935  0.4232  0.3611  0.2164
  833MOL0     C14855   7.803   4.056   6.793  0.3851  0.2050  0.4322
  833MOL0     C14856   7.732   4.190   6.795 -0.2728 -1.0442  0.3322
  833MOL0     C14857   7.720   4.247   6.654 -0.9090  0.6448 -0.5700
  833MOL0     C14858   7.857   4.292   6.590 -0.0494  0.0522 -0.1909
  833MOL0     C14859   7.878   4.439   6.605  0.0057  0.2249  0.6328
  833MOL0     C14860   7.804   4.510   6.496  0.4682 -0.2605 -0.3950
  833MOL0    Cl14861   7.882   4.456   6.333 -0.0302 -0.3512  0.0548
  833MOL0     C14862   8.180   3.972   7.080  1.2931  0.2275 -0.4785
  833MOL0     C14863   8.264   4.045   7.161 -0.9991 -0.5933 -0.1436
  833MOL0     O14864   8.440   4.265   7.260 -0.1913  0.1708  0.3199
  833MOL0     C14865   8.495   4.252   7.595  0.1276  1.0637  0.6544
  833MOL0     C14866   8.566   4.296   7.692  1.1975 -0.3261 -0.0439
  833MOL0     N14867   9.154   4.523   7.826 -0.0250  0.4636  1.3132
  833MOL0     N14868   9.268   4.505   7.775  0.1308  0.3036 -0.6462
  833MOL0     C14869  10.195   4.790   7.166 -0.3938  0.3999 -0.2077
  833MOL0     C14870  10.216   4.820   7.027 -0.1157  0.1429  0.2117
  833MOL0     C14871  10.415   4.833   6.628 -0.2772 -0.7546 -0.1068
  833MOL0     C14872  10.456   4.704   6.592  0.5948 -0.3727  0.3465
  833MOL0     C14873  10.524   4.675   6.477 -0.1300  0.2550 -0.1941
  833MOL0     C14874  10.558   4.776   6.384  0.0733 -0.2263 -0.0138
  833MOL0     O14875  10.642   4.769   6.269  1.2164  0.1868 -0.0525
  833MOL0     C14876  10.686   4.641   6.223 -1.0449  0.1269  0.2106
  833MOL0     C14877  10.584   4.542   6.167  0.1593 -0.6783 -1.1369
  833MOL0     C14878  10.553   4.585   6.027 -0.0688 -0.2332  0.5526
  833MOL0     C14879  10.483   4.471   5.944  0.0317  0.2497  0.2359
  833MOL0     C14880  10.574   4.367   5.909  0.2655  1.3488 -0.5170
  833MOL0     C14881  10.660   4.275   5.892  0.3853 -0.1145 -0.6687
  833MOL0     C14882  10.522   4.908   6.417  1.0327 -0.0372  0.3206
  833MOL0     C14883  10.444   4.936   6.538 -0.2769 -0.2199  0.8317
  833MOL0     C14884  10.415   5.086   6.576 -0.0460 -0.0095  0.5004
  833MOL0     H14885  10.341   4.513   6.934  1.5071  1.1961 -0.8724
  833MOL0     H14886  10.288   4.462   7.170  2.0583  1.2780  2.8044
  833MOL0     H14887  10.304   4.504   7.426 -0.4749 -0.4452 -2.5124
  833MOL0     H14888  10.132   4.459   7.406 -3.3730  2.4277  2.1822
  833MOL0     H14889  10.220   4.497   7.664  0.3857  2.1703 -0.0214
  833MOL0     H14890  10.187   4.662   7.617  1.0211  0.2119  0.0346
  833MOL0     H14891   9.967   4.633   7.564 -1.9669 -2.2905 -0.9528
  833MOL0     H14892   9.971   4.460   7.573  1.5514 -0.2417  0.6801
  833MOL0     H14893  10.024   4.484   7.834  0.0498  1.2955  1.9660
  833MOL0     H14894   9.985   4.653   7.813  0.0514  0.9778 -1.3276
  833MOL0     H14895   9.802   4.419   7.787 -2.9775 -0.0449 -1.6415
  833MOL0     H14896   9.774   4.570   7.697  0.6782  1.6343 -0.3282
  833MOL0     H14897   9.809   4.561   7.995  1.0847  3.9195  1.8924
  833MOL0     H14898   9.751   4.703   7.900 -1.9341  0.4800  3.9745
  833MOL0     H14899   9.560   4.564   8.026  2.4703 -0.8020 -0.1361
  833MOL0     H14900   9.597   4.432   7.918 -0.5851 -0.9478  1.5245
  833MOL0     H14901   9.520   4.701   7.801 -0.6388  1.5648  0.2260
  833MOL0     H14902   9.506   4.538   7.725 -2.4453 -0.3520  1.0764
  833MOL0     H14903   9.347   4.665   8.055 -3.3905 -0.3026  1.9452
  833MOL0     H14904   9.039   4.709   8.068 -0.2280 -0.1128  1.9732
  833MOL0     H14905   9.071   4.549   8.138  0.4129  3.2288  1.8253
  833MOL0     H14906   8.840   4.621   8.045  0.2784 -1.7088  1.2015
  833MOL0     H14907   8.916   4.583   7.881 -2.8836  1.7869  0.5573
  833MOL0     H14908   8.958   4.356   7.975 -0.2870 -0.2881  0.3089
  833MOL0     H14909   8.843   4.407   8.105 -0.7147 -0.4144  0.4459
  833MOL0     H14910   8.728   4.264   7.961  2.4376  0.8305  1.8915
  833MOL0     H14911   8.654   4.424   7.925 -0.8155 -1.4875 -0.7097
  833MOL0     H14912   8.865   4.313   7.536 -0.7855  2.2352 -1.2755
  833MOL0     H14913   8.815   4.167   7.318  2.8151  2.2281  0.9442
  833MOL0     H14914   8.796   4.334   7.274 -2.2127  0.9010  1.1381
  833MOL0     H14915   8.668   4.231   7.233  0.2316 -0.6442  0.3786
  833MOL0     H14916   8.142   3.957   7.463 -3.8940  0.9704 -0.6652
  833MOL0     H14917   7.966   3.881   7.329  0.2700  1.3305 -0.4000
  833MOL0     H14918   8.037   3.920   6.882 -0.3000  2.0384  1.0360
  833MOL0     H14919   7.914   3.795   6.882  0.0097 -0.2615  0.6255
  833MOL0     H14920   7.779   4.006   7.017  4.2213  3.8394  4.2192
  833MOL0     H14921   7.917   4.086   6.977 -0.5615  2.0133 -1.1044
  833MOL0     H14922   7.737   3.978   6.756  0.6251 -0.2868  1.0311
  833MOL0     H14923   7.892   4.058   6.729  0.2809  2.0710  0.2851
  833MOL0     H14924   7.798   4.251   6.858  0.1889 -2.3257  1.1510
  833MOL0     H14925   7.641   4.178   6.854 -0.7165 -0.3301 -0.1853
  833MOL0     H14926   7.680   4.165   6.593 -1.9378 -0.6378  1.7119
  833MOL0     H14927   7.647   4.328   6.646 -0.6985  0.9298  0.2519
  833MOL0     H14928   7.866   4.260   6.486 -2.0747 -0.2006 -0.3210
  833MOL0     H14929   7.935   4.252   6.655  1.2293  1.6930 -0.6388
  833MOL0     H14930   7.983   4.467   6.594 -0.3651  0.7984 -2.0423
  833MOL0     H14931   7.837   4.459   6.704 -0.7061 -3.4014  1.2445
  833MOL0     H14932   7.824   4.615   6.518 -1.3499 -0.3919  2.2723
  833MOL0     H14933   7.696   4.498   6.505  0.0162  2.8195 -0.5825
  833MOL0     H14934   8.208   3.969   6.975  2.4375  2.3257 -0.3000
  833MOL0     H14935   8.346   4.087   7.105  1.1580 -2.8742  1.1156
  833MOL0     H14936   8.388   4.245   7.610 -0.4989  1.5934 -2.6573
  833MOL0     H14937   8.514   4.309   7.787 -0.5270 -1.1479 -0.8415
  833MOL0     H14938  10.145   4.869   7.222 -1.6677 -0.9412  0.6277
  833MOL0     H14939  10.195   4.918   6.985 -3.2144  0.1666  1.5667
  833MOL0     H14940  10.432   4.619   6.654 -0.0988 -0.7722 -0.4448
  833MOL0     H14941  10.553   4.572   6.460 -1.1726  0.1323 -1.3872
  833MOL0     H14942  10.764   4.669   6.151 -1.0225  2.4203  1.0315
  833MOL0     H14943  10.740   4.586   6.301  2.0523  1.8285 -0.5355
  833MOL0     H14944  10.489   4.534   6.221 -1.2698 -4.8027 -3.7915
  833MOL0     H14945  10.629   4.442   6.177 -0.4290 -0.7458  2.2360
  833MOL0     H14946  10.495   4.677   6.027  0.3476  0.0497  1.6991
  833MOL0     H14947  10.652   4.591   5.981  0.3704 -2.0180  1.1787
  833MOL0     H14948  10.427   4.503   5.856 -1.5409  1.6080  1.6664
  833MOL0     H14949  10.402   4.437   6.008  0.8907  2.0400  2.4189
  833MOL0     H14950  10.725   4.192   5.872  0.9826  0.9699 -3.7376
  833MOL0     H14951  10.541   4.989   6.347 -0.4814  0.7159  0.7407
  833MOL0     H14952  10.398   5.143   6.484  3.9875 -0.5819 -0.7903
  833MOL0     H14953  10.322   5.092   6.633  0.0769 -1.1792  0.8541
  833MOL0     H14954  10.496   5.134   6.633  2.1906 -0.1039 -2.3782
  834MOL0     O14955  10.028  10.410   6.675 -0.4721  0.0643 -0.6063
  834MOL0     C14956  10.034  10.303   6.611  0.2741 -0.2489 -0.6441
  834MOL0     O14957  10.049  10.175   6.672 -0.3923  0.1481 -0.3477
  834MOL0     C14958  10.122  10.159   6.795  1.3028  0.6098  0.4581
  834MOL0     C14959  10.134  10.029   6.853  0.0436  0.8310  0.0934
  834MOL0     C14960  10.184  10.001   6.976 -1.1820 -0.8345 -0.1259
  834MOL0     C14961  10.252  10.104   7.048 -0.0821 -0.2380  0.7937
  834MOL0     O14962  10.326  10.086   7.171  0.5027  0.3640  0.1832
  834MOL0     C14963  10.365   9.956   7.222  0.5119 -0.1723  0.5463
  834MOL0     C14964  10.432   9.949   7.355 -1.0620 -0.4018  0.5875
  834MOL0     C14965  10.584   9.987   7.366 -0.7376 -1.0310 -0.6118
  834MOL0     C14966  10.709   9.916   7.310  0.1047 -0.5864 -0.1837
  834MOL0     C14967  10.835   9.963   7.383  0.1516 -0.8784 -0.1845
  834MOL0     C14968  10.954   9.873   7.329  0.1899  0.0337  0.0525
  834MOL0     C14969  11.098   9.901   7.392  0.1290 -1.4337 -0.0737
  834MOL0     C14970  11.094   9.884   7.544 -0.9201 -0.1558 -0.2590
  834MOL0     N14971  11.226   9.923   7.597 -0.2385 -0.1953 -0.1412
  834MOL0     C14972  11.354   9.879   7.543  0.8305 -1.2629  0.6800
  834MOL0     C14973  11.443   9.921   7.638  0.5811  0.5010 -1.2979
  834MOL0     C14974  11.579   9.863   7.642  0.1270 -0.8922  1.0877
  834MOL0     C14975  11.597   9.714   7.665  1.1953 -0.0813 -0.5738
  834MOL0     C14976  11.740   9.679   7.699  0.4308 -0.1534 -0.1629
  834MOL0     C14977  11.756   9.529   7.698 -0.9267 -0.3748 -0.3199
  834MOL0     O14978  11.886   9.494   7.747  0.9468 -0.5680  0.3371
  834MOL0     C14979  11.921   9.360   7.758 -0.5083 -0.6150 -0.2247
  834MOL0     C14980  11.924   9.297   7.884 -0.2131  0.0559 -0.9941
  834MOL0     C14981  11.991   9.172   7.916  0.2040 -0.3019 -0.1936
  834MOL0     C14982  11.993   9.111   8.063 -0.5744  0.1592  0.1136
  834MOL0     C14983  12.048   9.099   7.805  0.1869 -0.8676 -0.8537
  834MOL0     C14984  12.107   8.970   7.808  0.1259 -0.2967 -0.8238
  834MOL0     O14985  12.170   8.931   7.690 -0.5570 -0.2506  0.2314
  834MOL0     C14986  12.228   8.801   7.675 -0.1807  0.2110  0.3419
  834MOL0     C14987  12.348   8.803   7.618 -0.1767  0.5107  0.3263
  834MOL0     C14988  12.425   8.681   7.618  0.0647 -0.6676 -0.7454
  834MOL0     C14989  12.374   8.565   7.676 -0.7981  0.2039 -0.3002
  834MOL0     O14990  12.458   8.450   7.676  0.1094 -0.3138  0.7415
  834MOL0     C14991  12.398   8.341   7.605  0.7763 -0.0055  0.0427
  834MOL0     C14992  12.374   8.365   7.455  0.6530  0.6996 -0.5645
  834MOL0     C14993  12.355   8.236   7.379 -0.4249  0.3053  0.1877
  834MOL0     C14994  12.309   8.268   7.233  0.1628 -0.6329 -0.2266
  834MOL0     C14995  12.327   8.136   7.151  0.0536 -0.3935  0.2749
  834MOL0     C14996  12.458   8.112   7.070 -0.1672  0.7026  0.0292
  834MOL0     C14997  12.425   7.985   6.979 -0.9269 -1.0088 -0.5967
  834MOL0     C14998  12.552   7.947   6.914 -0.2383 -0.0245 -0.2346
  834MOL0    Cl14999  12.512   7.828   6.804 -0.3438  0.1643  0.3204
  834MOL0     C15000  12.248   8.562   7.733  0.6815  0.2141 -0.4553
  834MOL0     C15001  12.174   8.684   7.728  0.2215 -0.5157  0.8520
  834MOL0     O15002  12.090   8.900   7.906  0.2058 -0.1409 -0.3597
  834MOL0     C15003  12.048   9.166   7.683  0.5799  0.2527 -0.2050
  834MOL0     C15004  11.990   9.294   7.662  0.2635 -0.7493 -0.4400
  834MOL0     N15005  11.363   9.983   7.741 -0.4810  0.0827  0.1357
  834MOL0     N15006  11.240   9.965   7.718  1.2149 -0.5152 -0.4989
  834MOL0     C15007  10.250  10.233   6.996 -0.7260 -0.1953  0.0458
  834MOL0     C15008  10.185  10.262   6.871  0.5839  1.0723  0.6546
  834MOL0     C15009  10.015  10.308   6.456  0.0145 -0.5870 -1.0013
  834MOL0     C15010   9.970  10.431   6.406  0.1125 -0.8203 -0.3765
  834MOL0     C15011   9.949  10.460   6.276  1.4229  0.4277  0.8677
  834MOL0     C15012   9.968  10.363   6.176  0.2266 -0.0115 -0.2949
  834MOL0     O15013   9.978  10.412   6.054 -0.3398  0.1825  0.9290
  834MOL0     C15014   9.979  10.328   5.940 -0.8620 -0.4487 -0.1850
  834MOL0     C15015  10.024  10.407   5.810 -0.2651 -0.8271  0.7276
  834MOL0     C15016  10.044  10.311   5.686 -1.2154 -0.7639 -0.4730
  834MOL0     C15017  10.171  10.224   5.718 -0.4681  0.2455  0.4564
  834MOL0     C15018  10.169  10.103   5.637  0.7835 -0.3834 -0.9427
  834MOL0     C15019  10.182   9.999   5.576  0.0333  0.4726  0.4097
  834MOL0     C15020  10.014  10.236   6.217  0.3647 -0.3356  1.5459
  834MOL0     C15021  10.035  10.204   6.356  0.0002 -0.1987  0.2960
  834MOL0     C15022  10.082  10.065   6.393 -1.1580  1.1068  0.9608
  834MOL0     H15023  10.087   9.949   6.797  1.3822  1.2107 -1.6309
  834MOL0     H15024  10.188   9.897   7.009 -2.3785 -0.9487 -0.2993
  834MOL0     H15025  10.426   9.896   7.152 -0.8181 -0.3495 -0.4978
  834MOL0     H15026  10.269   9.905   7.234 -1.8809  3.3691 -1.6085
  834MOL0     H15027  10.380  10.028   7.410 -0.6705 -1.3462  2.4074
  834MOL0     H15028  10.419   9.850   7.402  0.3425 -1.6070 -1.3853
  834MOL0     H15029  10.603  10.089   7.330  1.3362 -1.2827 -0.3369
  834MOL0     H15030  10.598   9.973   7.473 -2.4374 -1.0691 -0.3669
  834MOL0     H15031  10.707   9.812   7.342  3.2153 -0.7477 -0.1500
  834MOL0     H15032  10.720   9.931   7.202 -0.1603  0.7543 -0.0410
  834MOL0     H15033  10.810   9.978   7.489  1.8372 -1.9560  0.3971
  834MOL0     H15034  10.856  10.066   7.351  7.2906 -0.8689  2.6369
  834MOL0     H15035  10.932   9.770   7.359 -1.2337 -0.0086 -1.0240
  834MOL0     H15036  10.960   9.864   7.220 -1.4778 -0.0817 -0.0525
  834MOL0     H15037  11.117  10.007   7.375 -1.6784 -0.9323  0.7982
  834MOL0     H15038  11.178   9.847   7.341 -0.6709 -0.9277 -1.9731
  834MOL0     H15039  11.025   9.950   7.597  2.1386  1.3139  2.2210
  834MOL0     H15040  11.063   9.782   7.569 -2.4003 -0.4801 -3.0465
  834MOL0     H15041  11.381   9.828   7.451 -2.3875 -0.9734 -0.5301
  834MOL0     H15042  11.625   9.913   7.727 -1.9454 -0.6552  2.1161
  834MOL0     H15043  11.618   9.879   7.541 -3.7420 -1.6679 -0.7354
  834MOL0     H15044  11.530   9.699   7.750  0.5644 -0.3509 -1.1048
  834MOL0     H15045  11.572   9.646   7.582 -1.9400 -0.9391  0.9359
  834MOL0     H15046  11.813   9.723   7.631 -2.0501  1.0443 -2.2267
  834MOL0     H15047  11.760   9.720   7.798 -0.8775  2.4069 -0.8576
  834MOL0     H15048  11.681   9.492   7.769 -2.3626  2.2694 -0.3028
  834MOL0     H15049  11.733   9.493   7.597  0.0926  1.3804 -1.2284
  834MOL0     H15050  11.894   9.350   7.974  0.5599 -2.1170  0.6255
  834MOL0     H15051  12.093   9.069   8.074 -0.5219  0.3495  0.3720
  834MOL0     H15052  11.928   9.027   8.089  1.7833 -0.8829  3.2356
  834MOL0     H15053  11.986   9.186   8.143  0.9136 -0.3812  0.7868
  834MOL0     H15054  12.380   8.887   7.558  0.9962 -0.5977 -0.6715
  834MOL0     H15055  12.517   8.671   7.561 -0.6571 -2.4064 -1.6857
  834MOL0     H15056  12.464   8.254   7.606  1.2817  0.3699  0.5146
  834MOL0     H15057  12.312   8.315   7.668  2.2130  1.4624  2.8491
  834MOL0     H15058  12.290   8.433   7.444  0.5902  0.9997  1.4195
  834MOL0     H15059  12.459   8.418   7.412  0.4246 -0.8881 -3.1860
  834MOL0     H15060  12.279   8.176   7.429  0.2686  0.4525  1.4663
  834MOL0     H15061  12.454   8.190   7.383 -0.1340  0.7660 -1.1720
  834MOL0     H15062  12.376   8.342   7.189  1.7732 -2.5417 -1.1751
  834MOL0     H15063  12.206   8.303   7.236  0.3484 -0.0844 -0.1039
  834MOL0     H15064  12.313   8.049   7.216 -0.0874 -0.3229  0.3394
  834MOL0     H15065  12.250   8.133   7.073  0.9849  0.7965 -0.7269
  834MOL0     H15066  12.537   8.081   7.139  1.1181  4.3804  0.4491
  834MOL0     H15067  12.503   8.200   7.024  2.7538 -0.8434 -0.2904
  834MOL0     H15068  12.357   8.017   6.900 -1.8067 -0.5549  0.3158
  834MOL0     H15069  12.381   7.903   7.038 -1.5259  0.1205  0.5818
  834MOL0     H15070  12.627   7.915   6.987 -1.6217 -1.0274  0.8120
  834MOL0     H15071  12.609   8.024   6.861  1.9079 -0.6993  0.9711
  834MOL0     H15072  12.217   8.472   7.786  0.3339 -1.3232 -3.0446
  834MOL0     H15073  12.081   8.685   7.784 -1.2516 -3.5229 -1.2644
  834MOL0     H15074  12.102   9.125   7.598  0.3686 -2.0301  0.6789
  834MOL0     H15075  12.014   9.341   7.567  2.3997 -1.3065 -0.2225
  834MOL0     H15076  10.301  10.308   7.057  0.2003 -1.1072  0.4129
  834MOL0     H15077  10.195  10.365   6.838  0.9134  0.7794 -0.1936
  834MOL0     H15078   9.962  10.518   6.471  0.5656 -0.4024 -0.8623
  834MOL0     H15079   9.909  10.558   6.253 -0.5676 -0.6721 -0.6203
  834MOL0     H15080  10.053  10.252   5.967 -0.8506  0.3317  2.1249
  834MOL0     H15081   9.882  10.284   5.912 -1.5108  2.3244 -2.8865
  834MOL0     H15082  10.119  10.459   5.826 -0.7914  0.1212  0.8681
  834MOL0     H15083   9.951  10.483   5.779  3.6599  2.4484 -1.5310
  834MOL0     H15084   9.959  10.247   5.659 -0.4172 -2.5660  1.0764
  834MOL0     H15085  10.064  10.376   5.600  1.7586  1.1603  1.4837
  834MOL0     H15086  10.176  10.203   5.825  3.2059  0.4881  0.4318
  834MOL0     H15087  10.267  10.272   5.696 -1.6647  1.5472 -2.5627
  834MOL0     H15088  10.186   9.905   5.524  0.0524  1.5784 -1.6708
  834MOL0     H15089  10.009  10.151   6.151  2.9760  0.7436 -0.1875
  834MOL0     H15090  10.014  10.003   6.453  1.9867 -1.9599  1.6441
  834MOL0     H15091  10.101  10.004   6.304  1.6229  0.6892  1.7760
  834MOL0     H15092  10.183  10.055   6.432 -0.6366 -4.4389 -0.9502
  835MOL0     O15093  10.827   2.991   8.353 -0.7271 -0.7493 -0.0585
  835MOL0     C15094  10.803   3.104   8.415 -0.1971 -0.1017  0.3541
  835MOL0     O15095  10.682   3.148   8.454 -0.2380  0.1785  0.0923
  835MOL0     C15096  10.557   3.100   8.421 -0.4195 -0.2816  0.1042
  835MOL0     C15097  10.473   3.086   8.532 -0.5443 -0.6568  0.3526
  835MOL0     C15098  10.342   3.056   8.515  0.3688 -0.0009 -0.3737
  835MOL0     C15099  10.294   3.013   8.394  0.4092 -0.0222  0.1052
  835MOL0     O15100  10.161   2.980   8.378 -1.0206 -0.1298 -0.4261
  835MOL0     C15101  10.081   3.065   8.292 -0.7104 -0.9203  0.1532
  835MOL0     C15102   9.937   3.031   8.294  0.8293  1.2792  0.1702
  835MOL0     C15103   9.854   3.118   8.199 -0.3965 -0.1129  0.0424
  835MOL0     C15104   9.833   3.261   8.265 -0.6468 -0.3126  0.3077
  835MOL0     C15105   9.797   3.370   8.162 -0.3068 -0.3286  0.6675
  835MOL0     C15106   9.657   3.352   8.083  0.9446  0.1211 -0.6955
  835MOL0     C15107   9.566   3.469   8.101 -0.3755 -0.0282 -0.4776
  835MOL0     C15108   9.489   3.471   8.237  0.1438 -0.2224  0.4806
  835MOL0     N15109   9.406   3.587   8.239 -0.7855  0.3392 -0.5491
  835MOL0     C15110   9.421   3.686   8.328  0.3239  0.5571  0.7136
  835MOL0     C15111   9.297   3.734   8.347  0.2129 -0.4707  0.6815
  835MOL0     C15112   9.275   3.850   8.444 -0.0496  0.8076 -0.1136
  835MOL0     C15113   9.261   3.786   8.575  0.2252 -0.7209  0.6075
  835MOL0     C15114   9.157   3.863   8.670 -0.4377 -0.3827 -0.4373
  835MOL0     C15115   9.048   3.769   8.721  0.7475 -1.4250  0.9885
  835MOL0     O15116   8.936   3.839   8.774  0.4231 -0.2675  0.0530
  835MOL0     C15117   8.883   3.936   8.689  1.2197  0.1369 -0.1013
  835MOL0     C15118   8.835   4.049   8.746  0.7039  0.1771 -0.7728
  835MOL0     C15119   8.754   4.143   8.686 -0.3156 -0.1335  0.4197
  835MOL0     C15120   8.702   4.259   8.771 -0.4869  0.6895 -1.1780
  835MOL0     C15121   8.740   4.133   8.541 -0.2001  0.1208  0.9188
  835MOL0     C15122   8.687   4.245   8.454  0.1617  1.2732  0.0335
  835MOL0     O15123   8.620   4.343   8.504 -0.5890 -0.0246 -0.2459
  835MOL0     C15124   8.614   4.475   8.444  0.0717  0.5669 -0.1535
  835MOL0     C15125   8.723   4.537   8.395 -1.0323 -0.9429 -0.7758
  835MOL0     C15126   8.725   4.677   8.354 -0.4295  0.9903 -0.2059
  835MOL0     C15127   8.603   4.743   8.357 -0.2426 -0.1745  0.0388
  835MOL0     O15128   8.582   4.872   8.309  0.1468 -0.0471  0.0845
  835MOL0     C15129   8.523   4.887   8.175  0.1147  0.0589 -0.0890
  835MOL0     C15130   8.614   4.849   8.065  0.7232  0.2286 -0.3033
  835MOL0     C15131   8.757   4.917   8.066 -0.5334  0.3699 -0.3322
  835MOL0     C15132   8.745   5.073   8.068  0.1195 -0.0551 -0.5542
  835MOL0     C15133   8.876   5.155   8.053  0.4104 -0.1695  0.0583
  835MOL0     C15134   8.994   5.108   8.136 -0.4545 -0.2886 -0.0519
  835MOL0     C15135   8.977   5.121   8.287 -0.3217 -0.6347  0.3592
  835MOL0     C15136   9.096   5.052   8.356  1.0063  0.1989  0.4318
  835MOL0    Cl15137   9.105   4.880   8.319 -0.2681 -0.6465  0.3095
  835MOL0     C15138   8.486   4.671   8.390 -0.2529 -0.3118 -0.0505
  835MOL0     C15139   8.492   4.543   8.433 -0.1805 -0.4901 -0.2449
  835MOL0     O15140   8.713   4.230   8.337 -0.2699  0.1550  0.2294
  835MOL0     C15141   8.781   4.012   8.481 -0.2946  0.0981  0.7287
  835MOL0     C15142   8.857   3.921   8.552 -0.3675 -0.0760 -0.4572
  835MOL0     N15143   9.205   3.678   8.253 -0.5003 -0.3436  1.0519
  835MOL0     N15144   9.278   3.585   8.186  0.4196 -0.4104  0.3161
  835MOL0     C15145  10.381   3.014   8.283  0.1161  0.7788 -0.3849
  835MOL0     C15146  10.515   3.044   8.305 -0.5900 -0.2006  0.1604
  835MOL0     C15147  10.920   3.187   8.452  0.2435  0.2473  0.2195
  835MOL0     C15148  11.048   3.128   8.486 -0.5723 -0.2279 -0.0544
  835MOL0     C15149  11.161   3.198   8.500  0.1592  0.0870 -0.9868
  835MOL0     C15150  11.161   3.338   8.500  1.2626 -1.0107 -0.3399
  835MOL0     O15151  11.265   3.422   8.524  0.3299 -0.4296  0.8284
  835MOL0     C15152  11.393   3.363   8.529  0.1239  0.2604 -0.2975
  835MOL0     C15153  11.494   3.468   8.519 -0.8916 -0.0420 -0.1449
  835MOL0     C15154  11.504   3.553   8.648 -0.0577  0.4153 -0.2640
  835MOL0     C15155  11.633   3.629   8.639 -1.0512 -0.1988 -0.1909
  835MOL0     C15156  11.636   3.743   8.733 -0.9188  0.1257  0.4794
  835MOL0     C15157  11.645   3.840   8.797  0.0498 -0.9150  0.8095
  835MOL0     C15158  11.032   3.398   8.480 -0.8483  0.2318 -0.2500
  835MOL0     C15159  10.912   3.329   8.444  0.4094  0.1946  0.1262
  835MOL0     C15160  10.796   3.409   8.410 -0.4297  1.0150 -0.5515
  835MOL0     H15161  10.504   3.120   8.630 -1.3212  0.2570  0.2959
  835MOL0     H15162  10.272   3.065   8.598  0.1713  0.0682 -0.5451
  835MOL0     H15163  10.123   3.049   8.192  1.1444  0.7589  0.5936
  835MOL0     H15164  10.094   3.169   8.325  0.5140 -1.1032  0.2850
  835MOL0     H15165   9.933   2.923   8.280  2.6916  1.4972 -3.0991
  835MOL0     H15166   9.908   3.040   8.399 -0.2761  1.2055 -0.1204
  835MOL0     H15167   9.912   3.110   8.107 -0.4215 -4.1067  0.2179
  835MOL0     H15168   9.754   3.079   8.179  1.0707 -3.6396 -1.1581
  835MOL0     H15169   9.758   3.250   8.344  0.1137  0.4510  1.1698
  835MOL0     H15170   9.918   3.299   8.323  0.4320  2.2119 -2.6165
  835MOL0     H15171   9.878   3.396   8.093 -2.1470  5.5303  0.1657
  835MOL0     H15172   9.786   3.453   8.232 -0.8800  1.1730 -1.1131
  835MOL0     H15173   9.671   3.329   7.977  0.7948  2.2371 -1.2080
  835MOL0     H15174   9.595   3.275   8.132  0.7447 -1.8880 -3.8127
  835MOL0     H15175   9.488   3.468   8.025 -4.5371  0.3685  3.3431
  835MOL0     H15176   9.620   3.564   8.096  1.6573 -1.1121 -0.3223
  835MOL0     H15177   9.419   3.388   8.228 -1.7823  1.2281  1.4227
  835MOL0     H15178   9.551   3.462   8.327  1.2378 -0.6538 -0.2847
  835MOL0     H15179   9.516   3.712   8.375  1.5939 -3.0096  0.4608
  835MOL0     H15180   9.178   3.889   8.412  0.7591  0.8522 -2.7649
  835MOL0     H15181   9.355   3.924   8.434 -0.7312  1.4315 -1.1827
  835MOL0     H15182   9.208   3.695   8.548  0.2928  0.7378 -6.2825
  835MOL0     H15183   9.355   3.770   8.628  0.1384  2.4288  1.9258
  835MOL0     H15184   9.212   3.899   8.757  0.8581 -1.9077 -0.5578
  835MOL0     H15185   9.116   3.951   8.620 -6.1077 -2.5764 -0.4127
  835MOL0     H15186   9.015   3.700   8.642 -1.4282 -1.9577  2.2775
  835MOL0     H15187   9.103   3.702   8.788 -1.4230 -3.5062  0.8264
  835MOL0     H15188   8.850   4.068   8.852  1.2718 -0.5086 -0.7164
  835MOL0     H15189   8.720   4.352   8.717  0.4978  1.3959  0.2820
  835MOL0     H15190   8.753   4.280   8.866  0.5619  3.6831 -2.3156
  835MOL0     H15191   8.594   4.243   8.783 -0.4656 -1.9702 -3.4862
  835MOL0     H15192   8.817   4.482   8.398 -0.7893 -0.5566  1.7904
  835MOL0     H15193   8.820   4.717   8.320  1.4311  0.1724  3.5112
  835MOL0     H15194   8.431   4.830   8.161 -0.9725  1.1212  2.1908
  835MOL0     H15195   8.493   4.989   8.151 -0.6050 -0.2311 -0.4378
  835MOL0     H15196   8.627   4.741   8.070 -2.9287 -0.3586 -0.5443
  835MOL0     H15197   8.567   4.859   7.967 -0.2511 -0.5758  0.0647
  835MOL0     H15198   8.804   4.882   7.973  0.0630  0.7257 -0.1733
  835MOL0     H15199   8.820   4.881   8.148 -1.6292  5.0004  2.9284
  835MOL0     H15200   8.700   5.103   8.163  1.5082  0.4174 -0.0214
  835MOL0     H15201   8.675   5.115   7.995 -1.9880 -0.0289  1.3715
  835MOL0     H15202   8.911   5.139   7.951 -1.4242 -1.8226 -0.3714
  835MOL0     H15203   8.863   5.263   8.063  1.4631  0.1027 -1.2479
  835MOL0     H15204   9.078   5.172   8.109 -0.8422  0.8172  1.2361
  835MOL0     H15205   9.019   5.007   8.103 -1.7286 -0.3577 -0.8652
  835MOL0     H15206   8.882   5.079   8.320 -0.3911  1.7201  3.7376
  835MOL0     H15207   8.979   5.229   8.307  3.3616  0.3852 -3.8915
  835MOL0     H15208   9.098   5.084   8.460  1.4140  0.0603  0.4694
  835MOL0     H15209   9.179   5.102   8.305  0.3672  0.5834 -0.2489
  835MOL0     H15210   8.392   4.726   8.386  0.9035  1.7432 -0.4763
  835MOL0     H15211   8.403   4.501   8.478 -2.3554  4.1070  0.3651
  835MOL0     H15212   8.756   3.974   8.382 -0.7846 -3.3404  2.0511
  835MOL0     H15213   8.903   3.838   8.499  1.4420 -0.6384  1.8174
  835MOL0     H15214  10.344   2.968   8.192 -1.0613 -0.5115  0.7049
  835MOL0     H15215  10.586   3.049   8.223  2.3783  1.5607  2.6330
  835MOL0     H15216  11.050   3.024   8.517 -3.4148  0.3391  2.6177
  835MOL0     H15217  11.248   3.140   8.530 -0.6791  0.9417  4.1493
  835MOL0     H15218  11.394   3.300   8.618  0.4140 -4.4556 -3.3137
  835MOL0     H15219  11.406   3.299   8.441  1.9448  1.3753 -0.8920
  835MOL0     H15220  11.483   3.540   8.438  2.8633 -2.1114 -2.7875
  835MOL0     H15221  11.588   3.414   8.504 -0.6524  1.0414 -2.9792
  835MOL0     H15222  11.428   3.631   8.655  2.7642  3.5529 -1.6960
  835MOL0     H15223  11.503   3.482   8.731 -1.4077 -0.0733 -0.6738
  835MOL0     H15224  11.645   3.676   8.541  1.5675 -0.7985 -0.2309
  835MOL0     H15225  11.715   3.559   8.657  1.5979  2.6567 -0.3770
  835MOL0     H15226  11.646   3.939   8.838  1.7172 -0.3806 -0.4054
  835MOL0     H15227  11.044   3.505   8.467  4.1304 -0.1771 -0.9263
  835MOL0     H15228  10.728   3.395   8.495  2.6240 -1.4807  1.6951
  835MOL0     H15229  10.822   3.515   8.401 -0.9140  1.4060  1.8525
  835MOL0     H15230  10.756   3.365   8.318 -1.1127 -0.7964  0.5571
  836MOL0     O15231   0.442  11.441   4.353 -0.2593 -0.0032  0.2110
  836MOL0     C15232   0.450  11.339   4.418  0.5641 -1.3569 -0.5530
  836MOL0     O15233   0.573  11.292   4.469 -0.5144  0.0915  0.1401
  836MOL0     C15234   0.689  11.354   4.440 -0.3956 -0.1002  0.5432
  836MOL0     C15235   0.731  11.452   4.518 -0.2823  0.4713 -0.5643
  836MOL0     C15236   0.847  11.526   4.500 -0.7782  0.9866  0.6607
  836MOL0     C15237   0.927  11.505   4.392 -0.4085  0.0558 -0.2001
  836MOL0     O15238   1.046  11.571   4.379 -0.5151 -0.6759  0.3245
  836MOL0     C15239   1.045  11.670   4.283 -0.3159 -0.9831  0.6071
  836MOL0     C15240   1.179  11.740   4.269  0.4722 -0.9113  0.4729
  836MOL0     C15241   1.242  11.771   4.411 -0.5540  0.0722 -0.5528
  836MOL0     C15242   1.388  11.798   4.411 -0.6870  0.1524 -0.3899
  836MOL0     C15243   1.432  11.893   4.525 -0.3479  0.7468  0.0810
  836MOL0     C15244   1.585  11.882   4.531  0.0294 -0.3174 -0.4451
  836MOL0     C15245   1.661  11.968   4.639 -0.5020  0.8443  0.7498
  836MOL0     C15246   1.814  11.956   4.653  0.6862 -0.1384  0.1674
  836MOL0     N15247   1.864  11.827   4.696 -1.1059  0.1499 -0.4094
  836MOL0     C15248   1.929  11.733   4.615  0.3305 -0.3529 -1.2052
  836MOL0     C15249   1.934  11.618   4.691 -0.0934 -0.1452  0.2445
  836MOL0     C15250   1.999  11.489   4.649 -1.2283 -1.0418 -0.2838
  836MOL0     C15251   1.917  11.362   4.669 -0.1446 -0.3656  0.6639
  836MOL0     C15252   1.793  11.340   4.585  0.0093 -0.5425 -0.1787
  836MOL0     C15253   1.667  11.426   4.615  0.9151 -0.0500 -0.3802
  836MOL0     O15254   1.568  11.420   4.510 -0.8269  0.5731 -0.1559
  836MOL0     C15255   1.485  11.308   4.497  0.7313 -0.1835 -1.0771
  836MOL0     C15256   1.372  11.312   4.411 -0.4888  0.7729  0.1789
  836MOL0     C15257   1.294  11.196   4.377  0.2053 -1.4668  0.4506
  836MOL0     C15258   1.168  11.211   4.287 -0.8047  0.0984 -0.6868
  836MOL0     C15259   1.309  11.079   4.458 -0.6434 -0.7864 -0.0800
  836MOL0     C15260   1.225  10.958   4.448  0.4890 -0.0378 -0.4499
  836MOL0     O15261   1.244  10.863   4.552 -0.6451 -0.6580 -0.2292
  836MOL0     C15262   1.202  10.740   4.527 -1.3209  0.6845  0.2546
  836MOL0     C15263   1.227  10.669   4.412 -0.4373  0.4321 -1.1055
  836MOL0     C15264   1.178  10.539   4.403 -1.1543  0.3401 -0.1387
  836MOL0     C15265   1.099  10.472   4.501  0.0648 -0.4139  0.0955
  836MOL0     O15266   1.044  10.347   4.461 -0.6091 -1.2991 -0.7633
  836MOL0     C15267   0.921  10.318   4.517  0.5136 -0.6679  0.0280
  836MOL0     C15268   0.845  10.201   4.446 -0.5525 -0.7740  0.3769
  836MOL0     C15269   0.806  10.236   4.293 -0.7715  1.2265  0.0968
  836MOL0     C15270   0.687  10.337   4.288 -0.1463 -0.4282 -0.2087
  836MOL0     C15271   0.653  10.360   4.142  0.2816 -0.9142  0.9353
  836MOL0     C15272   0.557  10.470   4.124  0.3306 -0.7434 -0.6846
  836MOL0     C15273   0.547  10.504   3.975  1.3737 -0.2062  0.1146
  836MOL0     C15274   0.656  10.590   3.932  0.0890 -0.1467 -0.1296
  836MOL0    Cl15275   0.644  10.624   3.750  0.4409  0.2972 -0.6253
  836MOL0     C15276   1.077  10.544   4.617 -0.9932 -0.2427 -0.0661
  836MOL0     C15277   1.139  10.670   4.633 -0.9397  0.7438 -0.1687
  836MOL0     O15278   1.158  10.936   4.344  1.2565  0.1500  0.0673
  836MOL0     C15279   1.410  11.081   4.557 -0.5924  0.0588  0.3672
  836MOL0     C15280   1.496  11.190   4.579  0.9482 -0.2184  0.5845
  836MOL0     N15281   1.869  11.644   4.809  0.4545 -0.6671 -0.8582
  836MOL0     N15282   1.823  11.768   4.812 -0.3059  0.4247  0.0462
  836MOL0     C15283   0.883  11.404   4.302 -0.0333  1.4320  0.2657
  836MOL0     C15284   0.757  11.340   4.320 -0.5401 -0.0137 -0.9809
  836MOL0     C15285   0.325  11.251   4.434  1.3260  0.0354 -0.7847
  836MOL0     C15286   0.351  11.116   4.470  0.2425  0.7322 -0.7586
  836MOL0     C15287   0.248  11.027   4.496 -0.1515  0.0733  1.0788
  836MOL0     C15288   0.114  11.067   4.483 -0.0590  0.5898  0.6067
  836MOL0     O15289   0.011  10.984   4.515  0.1965 -0.6244  0.5746
  836MOL0     C15290   0.029  10.858   4.573 -0.0218 -0.0680  0.1991
  836MOL0     C15291  -0.115  10.793   4.602 -0.3584  1.1703 -1.0122
  836MOL0     C15292  -0.190  10.877   4.717  0.8850  0.4502  0.2677
  836MOL0     C15293  -0.343  10.831   4.704  0.2979 -0.4513 -0.6460
  836MOL0     C15294  -0.375  10.707   4.761  1.1411  0.1553  0.1107
  836MOL0     C15295  -0.389  10.596   4.808  0.9088 -0.8412 -0.2438
  836MOL0     C15296   0.081  11.200   4.463 -0.5688 -0.3366  0.3998
  836MOL0     C15297   0.187  11.295   4.442  0.6046 -0.3078  0.2140
  836MOL0     C15298   0.152  11.438   4.424 -0.3624  0.3078  0.7261
  836MOL0     H15299   0.673  11.460   4.610 -2.1284 -1.3780 -1.4706
  836MOL0     H15300   0.885  11.594   4.575 -0.7898  0.5108  1.1007
  836MOL0     H15301   0.975  11.744   4.320 -0.9061 -2.7428  3.2784
  836MOL0     H15302   1.025  11.618   4.188  2.5709 -2.2673  0.5827
  836MOL0     H15303   1.243  11.673   4.211  1.0946  0.0431  0.0165
  836MOL0     H15304   1.172  11.833   4.211 -1.0317 -0.9123  0.6202
  836MOL0     H15305   1.193  11.861   4.449 -2.1014 -0.1697 -1.8606
  836MOL0     H15306   1.228  11.690   4.483  1.8971  1.5144  1.7480
  836MOL0     H15307   1.425  11.695   4.417 -0.9642 -0.0312 -1.4680
  836MOL0     H15308   1.420  11.841   4.316 -1.3479  1.1065 -0.1941
  836MOL0     H15309   1.390  11.850   4.616 -0.0227 -1.8968 -0.9296
  836MOL0     H15310   1.400  11.997   4.510 -4.2215 -0.0371  1.8376
  836MOL0     H15311   1.602  11.779   4.564 -2.3087 -0.4435  0.5148
  836MOL0     H15312   1.626  11.901   4.431  0.0359 -0.1845 -0.4173
  836MOL0     H15313   1.614  11.952   4.737 -3.9042  0.0052 -0.8757
  836MOL0     H15314   1.632  12.070   4.612  1.1899  2.0497  3.0640
  836MOL0     H15315   1.860  12.001   4.565  3.4788  1.6554  2.3426
  836MOL0     H15316   1.851  12.009   4.741 -0.6008  1.2144 -0.0698
  836MOL0     H15317   1.971  11.748   4.516  1.1995  2.2251 -0.5124
  836MOL0     H15318   2.084  11.481   4.717 -1.0896 -0.7387 -0.4239
  836MOL0     H15319   2.036  11.483   4.546 -0.1578 -2.2429  0.1357
  836MOL0     H15320   1.979  11.277   4.640 -1.6229 -1.3362  0.2036
  836MOL0     H15321   1.895  11.356   4.776  0.2344  0.8231  0.8189
  836MOL0     H15322   1.828  11.360   4.484 -2.0734  2.3756 -0.4385
  836MOL0     H15323   1.773  11.233   4.590 -1.4933 -0.2400  3.6884
  836MOL0     H15324   1.615  11.400   4.707 -2.4127 -0.1711 -2.1580
  836MOL0     H15325   1.689  11.533   4.626  2.4025 -0.1288 -2.0285
  836MOL0     H15326   1.374  11.409   4.361  0.8920  0.9951  0.6212
  836MOL0     H15327   1.182  11.156   4.193  2.3332 -1.3244  0.4559
  836MOL0     H15328   1.155  11.317   4.262  0.9952  1.3191  2.8813
  836MOL0     H15329   1.080  11.181   4.344  0.5223 -1.2651  0.7214
  836MOL0     H15330   1.280  10.719   4.332  1.8604 -1.0039 -0.5780
  836MOL0     H15331   1.206  10.494   4.308 -1.1972  0.5077 -0.2296
  836MOL0     H15332   0.940  10.276   4.616  1.2584 -1.5350 -0.4614
  836MOL0     H15333   0.855  10.406   4.515  4.0179  2.2400  0.7303
  836MOL0     H15334   0.894  10.104   4.449  0.4703 -0.2435  1.5807
  836MOL0     H15335   0.759  10.192   4.513 -0.4372  0.6007  0.7500
  836MOL0     H15336   0.766  10.150   4.239  1.0860  1.3722 -1.6162
  836MOL0     H15337   0.890  10.271   4.233 -1.0268  1.4755 -0.1216
  836MOL0     H15338   0.717  10.431   4.335 -1.7165  0.8014 -1.5327
  836MOL0     H15339   0.603  10.293   4.342  0.3227 -0.7738  0.2490
  836MOL0     H15340   0.745  10.394   4.094 -1.5055  0.0877 -2.0647
  836MOL0     H15341   0.615  10.271   4.092  1.2830 -0.2677 -1.0856
  836MOL0     H15342   0.590  10.557   4.181 -0.8935 -3.0625  3.9975
  836MOL0     H15343   0.462  10.430   4.159  1.0667 -2.4939 -0.5789
  836MOL0     H15344   0.452  10.555   3.957  0.9595 -1.5751 -1.8464
  836MOL0     H15345   0.534  10.418   3.910 -0.8858 -0.5310  0.9025
  836MOL0     H15346   0.754  10.542   3.941  2.7029  4.7456  1.4641
  836MOL0     H15347   0.657  10.683   3.990  0.6312  0.3269 -0.8809
  836MOL0     H15348   1.034  10.498   4.705 -0.7770 -1.0657 -0.3826
  836MOL0     H15349   1.129  10.701   4.736 -0.2088  1.1466 -0.2165
  836MOL0     H15350   1.426  10.989   4.612 -2.4181 -0.4183  0.1589
  836MOL0     H15351   1.568  11.174   4.659  0.0792  0.4573  1.5248
  836MOL0     H15352   0.927  11.383   4.205 -0.0600  0.0177  0.5359
  836MOL0     H15353   0.723  11.274   4.241 -0.0407 -0.8874 -0.4729
  836MOL0     H15354   0.451  11.073   4.473 -1.3160 -3.5131 -2.2594
  836MOL0     H15355   0.282  10.925   4.510 -0.5520 -0.3015 -0.4561
  836MOL0     H15356   0.066  10.798   4.490  3.3375  2.5983 -0.4547
  836MOL0     H15357   0.100  10.847   4.655 -0.3913 -1.5636  0.3487
  836MOL0     H15358  -0.107  10.690   4.639 -3.9255  1.1640  0.0304
  836MOL0     H15359  -0.175  10.779   4.512 -2.3456 -2.9976  0.6863
  836MOL0     H15360  -0.146  10.843   4.811 -0.7597  2.9067  2.0509
  836MOL0     H15361  -0.170  10.984   4.706  1.8331  0.2105 -0.4226
  836MOL0     H15362  -0.381  10.837   4.602 -0.0410  3.6969 -0.4306
  836MOL0     H15363  -0.408  10.899   4.761 -0.1652 -0.9268 -0.5867
  836MOL0     H15364  -0.382  10.503   4.860  3.9708 -1.1738 -1.0612
  836MOL0     H15365  -0.021  11.236   4.468 -1.2581 -2.2865  3.2176
  836MOL0     H15366   0.195  11.485   4.335 -2.5395  1.6277  0.2778
  836MOL0     H15367   0.043  11.444   4.411 -0.4198 -0.2728  0.9325
  836MOL0     H15368   0.181  11.495   4.513 -0.6362 -3.4541  3.4765
  837MOL0     O15369   0.441   0.711   4.237 -0.6357 -0.0704  1.0863
  837MOL0     C15370   0.376   0.614   4.255 -0.7765  0.2965 -0.0555
  837MOL0     O15371   0.376   0.510   4.167  0.1735 -0.5389 -0.4870
  837MOL0     C15372   0.443   0.507   4.049 -0.0899  0.1121 -0.0652
  837MOL0     C15373   0.445   0.620   3.963 -0.0137 -0.4951 -0.1019
  837MOL0     C15374   0.494   0.622   3.834 -1.1556 -0.0358  0.6115
  837MOL0     C15375   0.528   0.497   3.774  0.3225 -0.3626 -0.0640
  837MOL0     O15376   0.583   0.476   3.653  0.2708 -0.0479  0.9940
  837MOL0     C15377   0.615   0.592   3.578  0.6017 -0.1821  0.1083
  837MOL0     C15378   0.741   0.557   3.507  0.2672  0.1350  0.3851
  837MOL0     C15379   0.722   0.430   3.417  0.6367  1.2043 -0.5167
  837MOL0     C15380   0.849   0.412   3.328  0.6520 -0.1082  0.1465
  837MOL0     C15381   0.838   0.287   3.242  0.0130  0.2700  0.4116
  837MOL0     C15382   0.989   0.249   3.203 -0.0887  0.4792 -0.8621
  837MOL0     C15383   1.007   0.135   3.101 -0.4535  0.1468  1.0024
  837MOL0     C15384   1.101   0.026   3.165  0.3077  0.9088 -0.7070
  837MOL0     N15385   1.043  -0.046   3.284  0.5795  0.0068  0.5002
  837MOL0     C15386   0.919  -0.102   3.304 -0.0218 -0.5594 -0.4884
  837MOL0     C15387   0.925  -0.155   3.429  0.0780 -0.3013 -0.0460
  837MOL0     C15388   0.823  -0.235   3.495 -0.0403  0.8534  0.4851
  837MOL0     C15389   0.837  -0.376   3.429  0.0554  0.1101  0.6107
  837MOL0     C15390   0.720  -0.455   3.485  0.4834 -0.5162 -0.1501
  837MOL0     C15391   0.687  -0.583   3.412 -0.4029 -0.7902 -0.5288
  837MOL0     O15392   0.733  -0.697   3.489  0.1717  0.2435  0.2993
  837MOL0     C15393   0.869  -0.727   3.491 -0.9705 -0.6321  0.2743
  837MOL0     C15394   0.936  -0.724   3.370  0.2423 -0.5671 -0.3305
  837MOL0     C15395   1.074  -0.765   3.366  0.6717 -0.0403 -0.9732
  837MOL0     C15396   1.140  -0.777   3.235 -0.4796 -0.1122 -0.2840
  837MOL0     C15397   1.143  -0.788   3.486  0.7675 -0.0698  0.1918
  837MOL0     C15398   1.279  -0.843   3.495  0.4157  0.1996  0.0382
  837MOL0     O15399   1.352  -0.787   3.594  0.4528 -0.2260 -0.4205
  837MOL0     C15400   1.443  -0.871   3.665  0.1756 -0.2196  0.2216
  837MOL0     C15401   1.463  -1.015   3.661 -0.3060 -0.0086 -0.1615
  837MOL0     C15402   1.562  -1.081   3.724  0.8511 -0.6239  0.5998
  837MOL0     C15403   1.639  -1.004   3.811  0.0331 -0.5314 -0.0623
  837MOL0     O15404   1.734  -1.049   3.900 -0.2349 -0.1620 -0.3633
  837MOL0     C15405   1.700  -1.112   4.019  0.1987  0.4178 -0.0217
  837MOL0     C15406   1.554  -1.153   4.038  0.1216 -1.0825  0.4795
  837MOL0     C15407   1.529  -1.236   4.160 -0.2788  0.5860 -0.5169
  837MOL0     C15408   1.402  -1.326   4.125 -0.5597 -0.0059 -0.0274
  837MOL0     C15409   1.370  -1.398   4.253  0.1053 -0.6107 -0.9167
  837MOL0     C15410   1.250  -1.479   4.225  0.0441 -0.1059  0.8009
  837MOL0     C15411   1.234  -1.581   4.339 -0.0827 -1.5644 -0.5471
  837MOL0     C15412   1.273  -1.728   4.305  0.4099 -0.1042 -0.4802
  837MOL0    Cl15413   1.150  -1.774   4.182  0.0188  0.1314  0.0358
  837MOL0     C15414   1.622  -0.868   3.828 -0.3114  0.1417 -0.3533
  837MOL0     C15415   1.524  -0.805   3.758 -0.1467 -0.0055  0.7917
  837MOL0     O15416   1.322  -0.930   3.418  1.3299 -0.1673 -0.1651
  837MOL0     C15417   1.065  -0.785   3.606 -0.4439 -0.2819  0.0064
  837MOL0     C15418   0.929  -0.752   3.609  0.2448  0.7228 -0.6738
  837MOL0     N15419   1.044  -0.130   3.488 -0.4034 -0.5623  0.0128
  837MOL0     N15420   1.112  -0.066   3.405  0.1438  0.3662 -0.8524
  837MOL0     C15421   0.530   0.384   3.859  0.3660 -0.1313 -0.7289
  837MOL0     C15422   0.490   0.391   3.994  0.7580 -0.0773  0.0576
  837MOL0     C15423   0.317   0.597   4.391  0.6494 -0.0083  0.6411
  837MOL0     C15424   0.367   0.489   4.464  0.6626  0.2481 -1.8461
  837MOL0     C15425   0.310   0.461   4.589  0.1531 -0.9094 -0.2595
  837MOL0     C15426   0.218   0.555   4.644  0.8280 -1.0213 -0.3199
  837MOL0     O15427   0.195   0.560   4.783 -0.0264 -0.1169  0.1145
  837MOL0     C15428   0.129   0.439   4.836 -0.5041  0.0848  0.4800
  837MOL0     C15429   0.098   0.449   4.983 -0.1193 -0.1855  0.7797
  837MOL0     C15430   0.209   0.424   5.085  0.3397  0.9390 -1.0288
  837MOL0     C15431   0.179   0.396   5.229 -0.2732  0.1974 -0.2318
  837MOL0     C15432   0.171   0.516   5.300 -1.5622  0.1898  0.2920
  837MOL0     C15433   0.156   0.612   5.374 -0.2711 -0.1674  0.6492
  837MOL0     C15434   0.172   0.666   4.566 -0.2796  0.3101 -0.4864
  837MOL0     C15435   0.211   0.678   4.431  0.0370 -1.0967 -0.0831
  837MOL0     C15436   0.148   0.790   4.346 -0.1928 -0.1031 -0.4374
  837MOL0     H15437   0.394   0.712   3.990  2.0051  1.0167 -1.1392
  837MOL0     H15438   0.479   0.716   3.782 -1.9198 -1.0961 -1.2048
  837MOL0     H15439   0.632   0.684   3.634  0.5477  1.9145 -3.0319
  837MOL0     H15440   0.532   0.612   3.508  0.6150 -2.1014 -0.4960
  837MOL0     H15441   0.778   0.641   3.448  1.4778  0.5171  1.6279
  837MOL0     H15442   0.813   0.552   3.589  0.8592  0.5879 -0.0997
  837MOL0     H15443   0.718   0.341   3.480  2.9987  0.8461 -0.7501
  837MOL0     H15444   0.622   0.427   3.372 -0.7539 -0.2644  2.4020
  837MOL0     H15445   0.861   0.504   3.270  1.0458 -0.8093 -0.9089
  837MOL0     H15446   0.936   0.404   3.395 -0.6017 -1.4753  1.7108
  837MOL0     H15447   0.771   0.295   3.156  0.0520  0.9045  0.4334
  837MOL0     H15448   0.817   0.196   3.298  3.0526  0.6943  2.5606
  837MOL0     H15449   1.040   0.337   3.162 -1.2133  2.0900  1.0339
  837MOL0     H15450   1.043   0.220   3.293 -0.0158 -3.9090 -2.0782
  837MOL0     H15451   1.047   0.164   3.003  3.9728 -1.2460  2.1878
  837MOL0     H15452   0.906   0.095   3.087 -2.1815  4.5823 -1.0568
  837MOL0     H15453   1.124  -0.041   3.082  0.4133  2.1471 -1.7015
  837MOL0     H15454   1.201   0.060   3.194  1.3129 -2.6422  0.4315
  837MOL0     H15455   0.836  -0.108   3.235  0.1544 -2.1184 -0.6113
  837MOL0     H15456   0.728  -0.180   3.488 -1.0824 -1.0049 -1.0218
  837MOL0     H15457   0.844  -0.232   3.603 -2.5191 -0.0423  1.0600
  837MOL0     H15458   0.839  -0.364   3.321  1.1889 -2.9306  0.2048
  837MOL0     H15459   0.928  -0.427   3.461 -1.4588 -2.1463  1.6484
  837MOL0     H15460   0.747  -0.487   3.586  2.6873  1.4724 -0.0299
  837MOL0     H15461   0.625  -0.401   3.475  0.6636 -0.4722 -1.9270
  837MOL0     H15462   0.578  -0.590   3.399 -0.1582 -0.4203 -3.6974
  837MOL0     H15463   0.722  -0.574   3.309 -2.1078  1.6208 -0.9818
  837MOL0     H15464   0.883  -0.692   3.281 -1.5487  2.2574  1.5867
  837MOL0     H15465   1.240  -0.733   3.227 -0.8758  1.3819  2.0306
  837MOL0     H15466   1.085  -0.736   3.150  0.2833 -0.4133 -0.9379
  837MOL0     H15467   1.144  -0.882   3.203  1.7808  0.2876 -1.5394
  837MOL0     H15468   1.407  -1.085   3.600  0.8274 -1.3148  0.2393
  837MOL0     H15469   1.562  -1.189   3.723 -0.4832 -0.6450  0.3339
  837MOL0     H15470   1.762  -1.203   4.015 -0.4003  0.0062 -0.0786
  837MOL0     H15471   1.742  -1.053   4.101 -0.3968 -3.8378  3.7878
  837MOL0     H15472   1.492  -1.063   4.028  1.6269 -0.2660 -4.2641
  837MOL0     H15473   1.539  -1.216   3.950  0.1526 -0.1584 -0.2094
  837MOL0     H15474   1.517  -1.168   4.245  2.3278  2.2171 -1.3530
  837MOL0     H15475   1.621  -1.288   4.188  0.7589  2.6870  0.1750
  837MOL0     H15476   1.428  -1.392   4.041  1.4460 -0.3441  0.7926
  837MOL0     H15477   1.316  -1.262   4.102  0.7155  1.7195 -0.1930
  837MOL0     H15478   1.456  -1.466   4.260  0.2726 -0.2350  1.6180
  837MOL0     H15479   1.367  -1.339   4.346  2.8676  0.6892 -1.5246
  837MOL0     H15480   1.250  -1.539   4.133  0.7543 -1.0125  1.3790
  837MOL0     H15481   1.156  -1.424   4.230 -0.8660 -1.7219  2.8752
  837MOL0     H15482   1.133  -1.587   4.380  0.2974 -1.1068  0.4675
  837MOL0     H15483   1.298  -1.555   4.423 -2.9817 -1.1066  1.6971
  837MOL0     H15484   1.297  -1.793   4.390  0.1046 -0.1708 -0.4434
  837MOL0     H15485   1.373  -1.714   4.263 -0.0722  0.7984 -1.3853
  837MOL0     H15486   1.688  -0.829   3.905 -1.5960  1.7778 -0.0212
  837MOL0     H15487   1.506  -0.699   3.771 -0.2316  0.1762 -0.6229
  837MOL0     H15488   1.120  -0.804   3.698 -2.5765  1.3757  1.7566
  837MOL0     H15489   0.874  -0.732   3.700  0.0458 -0.1521 -0.5934
  837MOL0     H15490   0.554   0.289   3.813  2.4711  0.1453 -0.2974
  837MOL0     H15491   0.503   0.304   4.057 -0.9846 -0.0629  0.5110
  837MOL0     H15492   0.455   0.436   4.428  1.1316 -0.2874 -0.0317
  837MOL0     H15493   0.328   0.365   4.635 -2.0813 -2.0330 -1.5337
  837MOL0     H15494   0.035   0.433   4.781  1.3951 -3.8248 -2.8261
  837MOL0     H15495   0.175   0.342   4.817  0.5804  0.7395 -0.3266
  837MOL0     H15496   0.023   0.371   4.998  2.8419 -3.0222  2.0617
  837MOL0     H15497   0.053   0.542   5.019 -0.7774 -0.1611 -0.0726
  837MOL0     H15498   0.266   0.339   5.047  2.6784  0.9634  2.0375
  837MOL0     H15499   0.270   0.515   5.083  2.4065 -0.3642 -0.7819
  837MOL0     H15500   0.247   0.330   5.282  1.2032  1.0771 -0.9813
  837MOL0     H15501   0.078   0.353   5.228 -0.9260  1.6542 -1.0171
  837MOL0     H15502   0.133   0.700   5.431  1.8299  0.4564  0.6121
  837MOL0     H15503   0.102   0.743   4.596 -0.1664  1.2166 -2.3961
  837MOL0     H15504   0.042   0.792   4.374  0.3975  0.6260  1.9839
  837MOL0     H15505   0.188   0.889   4.371  2.0794 -1.0807 -0.0153
  837MOL0     H15506   0.170   0.770   4.241 -0.0176  1.1983 -0.6675
  838MOL0     O15507   1.475   4.533   3.596  0.0338  0.3585  0.2042
  838MOL0     C15508   1.578   4.471   3.567  0.3331 -0.2682 -1.6287
  838MOL0     O15509   1.710   4.511   3.585 -0.0303 -0.0750  0.5010
  838MOL0     C15510   1.730   4.627   3.651 -0.2529  0.4039  0.1790
  838MOL0     C15511   1.699   4.639   3.786  0.7757 -0.4968  0.3327
  838MOL0     C15512   1.730   4.754   3.862 -0.5122 -0.0569 -0.1783
  838MOL0     C15513   1.793   4.863   3.798 -0.0708 -0.2635  0.6475
  838MOL0     O15514   1.801   4.972   3.878 -0.2187  0.3915  0.1433
  838MOL0     C15515   1.730   5.086   3.835 -0.7055  1.9340 -1.3569
  838MOL0     C15516   1.584   5.081   3.888 -0.9227 -0.0286 -0.7455
  838MOL0     C15517   1.565   5.109   4.043 -1.0284 -1.1278 -0.6889
  838MOL0     C15518   1.430   5.069   4.102 -0.0399 -0.4100  0.3710
  838MOL0     C15519   1.395   5.110   4.251 -0.4014 -0.8660 -0.1214
  838MOL0     C15520   1.464   5.037   4.360  0.3093 -0.1669 -0.0169
  838MOL0     C15521   1.402   5.077   4.497  0.1102  0.5340  0.8328
  838MOL0     C15522   1.473   5.202   4.552 -0.6999  0.9574 -0.6412
  838MOL0     N15523   1.420   5.237   4.688  0.0926  0.2707 -0.0024
  838MOL0     C15524   1.297   5.295   4.703  1.7067  1.0695  0.3801
  838MOL0     C15525   1.277   5.303   4.839  0.4787 -0.1648 -0.2060
  838MOL0     C15526   1.165   5.374   4.912  0.0880 -0.0002  0.4294
  838MOL0     C15527   1.222   5.497   4.988  0.0724 -0.0393 -0.0142
  838MOL0     C15528   1.105   5.542   5.075  0.6472  0.1784  0.4073
  838MOL0     C15529   1.142   5.664   5.168  0.1624 -0.7015 -0.3111
  838MOL0     O15530   1.263   5.637   5.244  0.1779 -0.0663 -0.0553
  838MOL0     C15531   1.296   5.718   5.340 -0.3158 -0.4104 -0.2946
  838MOL0     C15532   1.261   5.854   5.359  0.1061 -0.1855 -0.3444
  838MOL0     C15533   1.276   5.924   5.484  0.5892 -0.8457  0.0325
  838MOL0     C15534   1.205   6.055   5.503 -0.2316  0.6213 -0.7225
  838MOL0     C15535   1.346   5.867   5.583 -0.4979 -0.2392  0.4791
  838MOL0     C15536   1.362   5.917   5.720  0.8410  0.4215 -1.2309
  838MOL0     O15537   1.488   5.908   5.767  0.3100  0.6135 -0.1150
  838MOL0     C15538   1.511   5.927   5.903 -1.1863  1.2009  0.3935
  838MOL0     C15539   1.545   5.823   5.983  0.5652  0.4274 -0.3351
  838MOL0     C15540   1.563   5.849   6.116  0.2335  0.9007 -0.4433
  838MOL0     C15541   1.555   5.976   6.167 -0.1599  0.2668 -0.0610
  838MOL0     O15542   1.591   6.007   6.302 -0.4941  0.3151  0.6005
  838MOL0     C15543   1.657   5.905   6.381  0.6702 -0.3546  0.0312
  838MOL0     C15544   1.815   5.913   6.370 -0.5744  0.0621  0.4701
  838MOL0     C15545   1.875   5.784   6.437  0.3596  0.8195  0.4700
  838MOL0     C15546   2.032   5.808   6.465 -0.7685 -0.7850 -0.6627
  838MOL0     C15547   2.121   5.677   6.448 -0.4915  0.6381 -0.8227
  838MOL0     C15548   2.265   5.708   6.494  0.0122  0.1282 -0.1319
  838MOL0     C15549   2.343   5.588   6.507  0.0810 -0.0276 -0.1156
  838MOL0     C15550   2.311   5.515   6.630  0.1599  0.4969 -0.8853
  838MOL0    Cl15551   2.417   5.368   6.636 -0.2178 -0.4544 -0.0613
  838MOL0     C15552   1.520   6.082   6.093  0.1308 -0.8027 -0.0789
  838MOL0     C15553   1.501   6.060   5.954  0.8122  0.5188 -0.6061
  838MOL0     O15554   1.259   5.948   5.786 -0.0553  0.1905  0.2891
  838MOL0     C15555   1.399   5.736   5.562  0.3188 -1.1666  0.4482
  838MOL0     C15556   1.383   5.665   5.442  0.2155 -0.6041 -0.7143
  838MOL0     N15557   1.394   5.252   4.897  0.9127 -1.0261  0.4963
  838MOL0     N15558   1.484   5.223   4.807  0.3269  0.3817  0.2752
  838MOL0     C15559   1.823   4.856   3.655  0.2868 -0.6752 -0.3114
  838MOL0     C15560   1.802   4.732   3.594 -0.0188  0.5655  0.4040
  838MOL0     C15561   1.548   4.344   3.499 -1.3968  0.1837 -0.4215
  838MOL0     C15562   1.427   4.280   3.525 -0.3279  1.0981 -0.0686
  838MOL0     C15563   1.397   4.170   3.463 -0.2550  0.1238 -0.1754
  838MOL0     C15564   1.483   4.107   3.374  0.7096  0.0390 -0.0660
  838MOL0     O15565   1.443   3.993   3.301 -0.1487  0.2128  0.0332
  838MOL0     C15566   1.314   4.006   3.237  0.4303 -0.3999 -0.0842
  838MOL0     C15567   1.219   3.908   3.320  0.0623 -0.1514 -0.5146
  838MOL0     C15568   1.189   3.784   3.237  0.6202  0.5021  0.7541
  838MOL0     C15569   1.061   3.715   3.285 -0.2287 -0.6404  0.3319
  838MOL0     C15570   1.063   3.692   3.435 -0.7974  0.1886 -0.0683
  838MOL0     C15571   1.068   3.662   3.555  0.1723 -0.3600 -0.3482
  838MOL0     C15572   1.606   4.147   3.364 -1.0173  0.3228  1.1366
  838MOL0     C15573   1.648   4.272   3.418  0.3322  0.7380  0.0055
  838MOL0     C15574   1.784   4.326   3.378 -0.2639 -0.2248  0.4478
  838MOL0     H15575   1.655   4.550   3.830 -2.5470 -0.2055 -2.0554
  838MOL0     H15576   1.701   4.756   3.967  2.7383  2.7618  0.8251
  838MOL0     H15577   1.725   5.092   3.725 -1.2508  0.0721 -1.4768
  838MOL0     H15578   1.785   5.174   3.867  3.7541 -1.3252  1.0752
  838MOL0     H15579   1.535   5.161   3.832  0.3405 -0.5365 -2.6723
  838MOL0     H15580   1.532   4.989   3.863 -1.7618 -0.8775  3.3555
  838MOL0     H15581   1.627   5.044   4.106 -0.7333 -1.4823 -1.3417
  838MOL0     H15582   1.588   5.213   4.068  2.7064 -1.9184 -0.2616
  838MOL0     H15583   1.359   5.123   4.040  0.4047 -0.6429 -0.3484
  838MOL0     H15584   1.423   4.960   4.100 -0.3225 -0.4265  1.4037
  838MOL0     H15585   1.287   5.106   4.267 -0.2236 -3.4551  0.7703
  838MOL0     H15586   1.419   5.217   4.254  1.1574 -1.2078  1.0549
  838MOL0     H15587   1.442   4.932   4.339 -0.0072 -0.1541  0.2329
  838MOL0     H15588   1.573   5.049   4.357  0.3419 -0.4084  0.1471
  838MOL0     H15589   1.407   4.992   4.566  2.5002 -1.2439 -1.3216
  838MOL0     H15590   1.294   5.088   4.482  0.3003  1.0858 -0.2477
  838MOL0     H15591   1.580   5.181   4.554 -0.7168  0.9062 -0.2101
  838MOL0     H15592   1.467   5.287   4.484 -1.9913  0.9842 -0.5226
  838MOL0     H15593   1.227   5.328   4.627  2.7037  0.9877 -0.5999
  838MOL0     H15594   1.119   5.302   4.980 -2.0001  2.4831  1.8584
  838MOL0     H15595   1.093   5.419   4.843  1.6825 -1.9975 -2.7609
  838MOL0     H15596   1.304   5.465   5.053 -0.2991 -3.6392 -1.1110
  838MOL0     H15597   1.261   5.575   4.922  2.1292 -1.0845 -0.1081
  838MOL0     H15598   1.022   5.571   5.010  1.9479 -2.5557 -2.7680
  838MOL0     H15599   1.079   5.448   5.123 -0.2036 -0.1176 -0.5952
  838MOL0     H15600   1.162   5.756   5.112  3.5785  1.6235  4.0751
  838MOL0     H15601   1.059   5.686   5.236  0.3818  4.4638 -1.3083
  838MOL0     H15602   1.190   5.886   5.283  1.2910 -0.0441 -1.4098
  838MOL0     H15603   1.186   6.094   5.403 -0.9391  0.2757 -0.7256
  838MOL0     H15604   1.271   6.120   5.562  1.7258 -2.3573  0.6708
  838MOL0     H15605   1.115   6.037   5.562  0.2591  2.4185  0.6682
  838MOL0     H15606   1.548   5.723   5.940 -3.3078 -1.0090  2.1895
  838MOL0     H15607   1.599   5.759   6.166 -3.9327 -3.0022 -3.6723
  838MOL0     H15608   1.629   5.922   6.485 -0.6338  0.7695 -0.4802
  838MOL0     H15609   1.619   5.804   6.362  2.1639 -0.7021 -1.3881
  838MOL0     H15610   1.847   5.928   6.267 -2.8330 -0.4988 -0.3798
  838MOL0     H15611   1.846   6.010   6.409 -2.7523  0.1497  2.1683
  838MOL0     H15612   1.869   5.697   6.371  2.0452 -0.4304  1.8583
  838MOL0     H15613   1.810   5.772   6.525 -0.5588  1.8539 -0.0318
  838MOL0     H15614   2.036   5.848   6.566 -0.7894 -2.8402  0.1916
  838MOL0     H15615   2.073   5.888   6.402  1.8077  1.4515  3.4155
  838MOL0     H15616   2.076   5.604   6.517  0.8106  0.9788  0.4355
  838MOL0     H15617   2.115   5.633   6.349 -0.4486  2.6790 -1.7935
  838MOL0     H15618   2.265   5.764   6.587  0.2202 -2.6192  1.6270
  838MOL0     H15619   2.309   5.770   6.415  1.4168  2.5526  2.3770
  838MOL0     H15620   2.451   5.602   6.506  0.5416 -2.9800 -0.1556
  838MOL0     H15621   2.322   5.515   6.428 -0.0390 -0.6260  0.4598
  838MOL0     H15622   2.206   5.484   6.641  0.5354 -0.0507  1.8266
  838MOL0     H15623   2.333   5.579   6.716  2.7140 -0.0211 -1.0749
  838MOL0     H15624   1.510   6.184   6.129 -2.7472 -1.5567  1.5652
  838MOL0     H15625   1.480   6.151   5.900 -3.0398  0.8727  1.1784
  838MOL0     H15626   1.458   5.692   5.643  0.4019 -0.4409  0.7925
  838MOL0     H15627   1.415   5.562   5.430 -1.7129 -1.1209 -1.9407
  838MOL0     H15628   1.866   4.940   3.601 -1.5139  1.6616  1.6145
  838MOL0     H15629   1.841   4.720   3.493 -0.9794  0.9271 -0.0207
  838MOL0     H15630   1.351   4.320   3.590  0.0843  2.8791 -0.6137
  838MOL0     H15631   1.309   4.113   3.491  0.7472 -1.5728 -0.3052
  838MOL0     H15632   1.282   4.110   3.231 -0.0689 -0.5597 -0.2591
  838MOL0     H15633   1.317   3.982   3.131 -1.3550  0.2120 -0.3018
  838MOL0     H15634   1.127   3.962   3.345 -0.1466 -0.9932  0.6242
  838MOL0     H15635   1.259   3.883   3.419 -0.4023 -0.4518 -0.4022
  838MOL0     H15636   1.179   3.814   3.132  1.3354  2.5172  1.2206
  838MOL0     H15637   1.265   3.705   3.236 -1.0785 -1.2732 -1.8758
  838MOL0     H15638   1.040   3.632   3.217 -0.0967  1.4796 -2.4904
  838MOL0     H15639   0.975   3.781   3.272 -1.1282 -2.0837 -1.6920
  838MOL0     H15640   1.064   3.662   3.662  0.1455  0.9896 -0.3309
  838MOL0     H15641   1.676   4.085   3.309 -1.5357  2.2374 -1.8877
  838MOL0     H15642   1.838   4.336   3.473  1.0303 -0.4268 -0.2475
  838MOL0     H15643   1.837   4.258   3.310 -0.8225 -1.3845  1.1297
  838MOL0     H15644   1.779   4.420   3.323 -2.6737 -1.0998 -1.0146
  839MOL0     O15645   3.758   5.076   3.417 -1.5304 -0.2494  0.3752
  839MOL0     C15646   3.820   5.157   3.353  0.7097 -0.5365 -0.4343
  839MOL0     O15647   3.819   5.166   3.220 -0.0501  0.0303  0.3471
  839MOL0     C15648   3.719   5.104   3.153  0.5477  0.6336  0.2860
  839MOL0     C15649   3.600   5.159   3.109 -0.7226  0.3201  0.0513
  839MOL0     C15650   3.507   5.085   3.043  0.3157  0.7049  0.8131
  839MOL0     C15651   3.540   4.952   2.999 -1.4213 -0.4436 -0.1272
  839MOL0     O15652   3.442   4.893   2.923 -0.9222 -0.0881  0.1518
  839MOL0     C15653   3.479   4.779   2.847 -0.5738 -0.0293  0.2398
  839MOL0     C15654   3.460   4.650   2.928 -0.7377  0.4261 -0.1757
  839MOL0     C15655   3.328   4.614   2.987 -0.1373 -0.3641  0.7020
  839MOL0     C15656   3.301   4.690   3.120 -0.4233 -0.4456 -0.3532
  839MOL0     C15657   3.191   4.622   3.211 -0.3544 -1.3881 -0.1093
  839MOL0     C15658   3.110   4.716   3.302 -0.1643  1.0288 -0.1104
  839MOL0     C15659   2.985   4.642   3.357  0.2343  0.1332 -0.4451
  839MOL0     C15660   3.024   4.534   3.453 -0.0392  0.5004  0.5599
  839MOL0     N15661   2.909   4.478   3.520  0.2178  0.3026  0.4466
  839MOL0     C15662   2.863   4.530   3.647 -0.2343 -1.0020 -0.4265
  839MOL0     C15663   2.771   4.444   3.689 -0.1333  0.1049  0.1120
  839MOL0     C15664   2.695   4.437   3.821  0.9781 -0.1126 -0.4651
  839MOL0     C15665   2.780   4.368   3.931 -0.2249 -0.6212  0.0965
  839MOL0     C15666   2.799   4.214   3.940 -0.5594 -0.2890  0.2237
  839MOL0     C15667   2.664   4.150   3.965 -0.6349  0.0237 -0.4815
  839MOL0     O15668   2.583   4.225   4.049 -0.6529 -0.7972  0.6611
  839MOL0     C15669   2.465   4.172   4.089  0.4055 -0.2028  0.7099
  839MOL0     C15670   2.428   4.036   4.086 -1.0732  0.5708 -0.8011
  839MOL0     C15671   2.301   4.003   4.132  0.1848  1.3577 -0.0426
  839MOL0     C15672   2.271   3.853   4.156 -0.4254 -0.5257 -0.0111
  839MOL0     C15673   2.193   4.099   4.150  0.3055  0.1413  0.8156
  839MOL0     C15674   2.055   4.074   4.196 -0.7040 -0.0356 -0.8058
  839MOL0     O15675   2.044   3.966   4.269 -0.5663 -0.1087 -0.0781
  839MOL0     C15676   1.929   3.954   4.336  0.4779 -1.7613  0.3264
  839MOL0     C15677   1.800   3.930   4.272 -0.2240 -0.3184  0.8675
  839MOL0     C15678   1.688   3.922   4.359 -0.8952 -0.4415  0.5453
  839MOL0     C15679   1.705   3.917   4.495 -0.5423 -0.5851 -0.7169
  839MOL0     O15680   1.586   3.883   4.565 -0.3067  0.1648  0.8082
  839MOL0     C15681   1.599   3.770   4.656 -0.2499 -0.1462  0.5102
  839MOL0     C15682   1.489   3.674   4.631  0.4344 -0.0484  0.5488
  839MOL0     C15683   1.342   3.727   4.629 -0.4240 -0.3672  0.2902
  839MOL0     C15684   1.251   3.617   4.562  0.6006  0.4651 -0.3247
  839MOL0     C15685   1.097   3.642   4.559  0.7539 -1.0168  0.5546
  839MOL0     C15686   1.075   3.759   4.455  0.1142 -0.7362 -0.1077
  839MOL0     C15687   0.940   3.836   4.469 -0.5414  0.6230  0.3144
  839MOL0     C15688   0.823   3.753   4.429 -0.3040  0.2011  0.1529
  839MOL0    Cl15689   0.815   3.738   4.247 -0.1477  0.2730  0.3987
  839MOL0     C15690   1.819   3.946   4.558  0.2976  1.3274  0.7382
  839MOL0     C15691   1.930   3.974   4.476  0.1381 -0.5799 -0.4633
  839MOL0     O15692   1.968   4.155   4.170 -0.5688  0.9727 -0.2213
  839MOL0     C15693   2.230   4.232   4.136 -0.5476  0.1705  0.0607
  839MOL0     C15694   2.366   4.263   4.103  0.2750 -0.3771  0.8900
  839MOL0     N15695   2.759   4.346   3.587  0.5805 -0.2383  0.3325
  839MOL0     N15696   2.849   4.359   3.491  0.1506 -0.2324 -1.4235
  839MOL0     C15697   3.656   4.893   3.053 -1.2452 -0.0562 -0.7125
  839MOL0     C15698   3.743   4.965   3.136  0.3835 -0.2883  0.8097
  839MOL0     C15699   3.919   5.247   3.427  0.0254 -0.5082 -0.7870
  839MOL0     C15700   4.020   5.311   3.349  0.7423 -0.0131 -0.2011
  839MOL0     C15701   4.129   5.374   3.401 -0.6869  0.0873  0.3343
  839MOL0     C15702   4.135   5.402   3.537 -0.1875  0.3478 -0.4664
  839MOL0     O15703   4.233   5.490   3.594  0.2939  0.4402 -0.4292
  839MOL0     C15704   4.364   5.487   3.533  0.6249 -1.0160 -0.8011
  839MOL0     C15705   4.460   5.557   3.630  0.2331 -0.0616 -0.5270
  839MOL0     C15706   4.439   5.713   3.638  0.4932  0.0130  0.6212
  839MOL0     C15707   4.506   5.775   3.754 -0.2606  0.1821 -0.0401
  839MOL0     C15708   4.648   5.751   3.749  0.1879  0.0490  0.9210
  839MOL0     C15709   4.773   5.737   3.740  0.4936 -0.8474  0.2539
  839MOL0     C15710   4.027   5.364   3.622 -0.7986  1.2818 -1.2206
  839MOL0     C15711   3.929   5.282   3.570  0.2189  0.1393 -0.0559
  839MOL0     C15712   3.816   5.236   3.668  0.1385  0.4355  0.0952
  839MOL0     H15713   3.584   5.261   3.140 -0.0081 -0.9804  5.8066
  839MOL0     H15714   3.414   5.129   3.009 -0.7854 -3.6771 -2.9595
  839MOL0     H15715   3.579   4.780   2.802 -1.0935 -2.4847 -1.1606
  839MOL0     H15716   3.407   4.763   2.766  0.2620 -0.9196 -0.3541
  839MOL0     H15717   3.500   4.572   2.861  3.0728  0.3636  1.8902
  839MOL0     H15718   3.528   4.634   3.012 -0.2306  0.3921 -0.5893
  839MOL0     H15719   3.243   4.629   2.920 -0.8669 -1.6122  1.3202
  839MOL0     H15720   3.341   4.506   3.000  1.3025  0.0158  3.0346
  839MOL0     H15721   3.393   4.690   3.178  0.1437 -1.6255 -1.2188
  839MOL0     H15722   3.264   4.790   3.093 -2.5589 -0.4960  1.9642
  839MOL0     H15723   3.232   4.539   3.268  0.2030 -1.1443 -0.1525
  839MOL0     H15724   3.128   4.571   3.137  1.3076 -0.0018 -2.6394
  839MOL0     H15725   3.185   4.740   3.378  1.9504  1.5484 -2.2098
  839MOL0     H15726   3.083   4.815   3.264  4.2057  1.7123 -2.0420
  839MOL0     H15727   2.939   4.603   3.266  1.4125  1.5519 -1.6968
  839MOL0     H15728   2.917   4.717   3.398 -2.2566 -0.4500 -3.1095
  839MOL0     H15729   3.069   4.451   3.399 -1.4418 -1.2380  1.9300
  839MOL0     H15730   3.092   4.551   3.537 -0.3100  0.1869  0.8493
  839MOL0     H15731   2.896   4.614   3.707  0.8880  0.5986 -3.1216
  839MOL0     H15732   2.605   4.374   3.822  1.0638 -0.2287  0.1309
  839MOL0     H15733   2.679   4.540   3.854  3.6321  0.1805  0.1169
  839MOL0     H15734   2.885   4.400   3.928 -0.8473  1.5238 -2.3873
  839MOL0     H15735   2.744   4.409   4.026 -3.0148 -1.1244 -0.6585
  839MOL0     H15736   2.853   4.167   3.857  2.7417  1.7216  1.0467
  839MOL0     H15737   2.861   4.199   4.029  0.8250 -0.5526 -0.7520
  839MOL0     H15738   2.615   4.132   3.869  3.0604  3.8604 -3.4886
  839MOL0     H15739   2.694   4.055   4.010 -0.4261  0.3393  0.0704
  839MOL0     H15740   2.503   3.960   4.064 -0.8447  1.2629 -2.6399
  839MOL0     H15741   2.284   3.830   4.262 -0.4132  0.0988  0.1306
  839MOL0     H15742   2.341   3.789   4.103 -0.3030 -1.8961  1.7080
  839MOL0     H15743   2.170   3.826   4.124  0.0120 -0.3006 -1.6851
  839MOL0     H15744   1.778   3.918   4.167  0.8887  0.7058  0.4875
  839MOL0     H15745   1.594   3.892   4.314 -1.7654  1.5366  0.9261
  839MOL0     H15746   1.693   3.716   4.645 -0.1958  0.2519 -1.4207
  839MOL0     H15747   1.573   3.807   4.755 -0.0781  3.3510 -0.5968
  839MOL0     H15748   1.508   3.624   4.536 -0.1726  0.3924  0.1956
  839MOL0     H15749   1.493   3.587   4.697 -0.2550 -2.8247 -2.7903
  839MOL0     H15750   1.347   3.813   4.562  1.5729 -0.0597  0.7837
  839MOL0     H15751   1.302   3.760   4.726 -2.2671  0.0271 -0.5626
  839MOL0     H15752   1.262   3.531   4.629 -1.4229  0.6750  0.3496
  839MOL0     H15753   1.286   3.587   4.463  2.5762  1.1808  0.1144
  839MOL0     H15754   1.053   3.552   4.515  2.6307 -1.6445 -0.1489
  839MOL0     H15755   1.055   3.661   4.658 -2.1057  0.3825 -0.8170
  839MOL0     H15756   1.084   3.716   4.355  0.3849  1.0603 -0.8831
  839MOL0     H15757   1.155   3.833   4.453 -0.4539 -0.1080 -1.8519
  839MOL0     H15758   0.934   3.926   4.407  0.7895  1.3235  1.1472
  839MOL0     H15759   0.920   3.864   4.573 -1.1225 -2.7297  1.2202
  839MOL0     H15760   0.743   3.810   4.477  1.5458  1.0865  2.3731
  839MOL0     H15761   0.832   3.654   4.474 -0.3302  0.3966  0.5943
  839MOL0     H15762   1.825   3.947   4.667 -0.3526 -2.9551  0.9728
  839MOL0     H15763   2.018   3.991   4.537 -1.4647  0.3082  1.7162
  839MOL0     H15764   2.165   4.318   4.149 -3.9694 -2.1394 -0.5467
  839MOL0     H15765   2.396   4.366   4.092 -2.1057  0.3595  0.6403
  839MOL0     H15766   3.676   4.789   3.031 -1.4055 -0.1092 -0.6104
  839MOL0     H15767   3.821   4.915   3.192 -0.2600 -3.5126 -0.9358
  839MOL0     H15768   4.028   5.305   3.241 -0.3499  1.7876 -0.4380
  839MOL0     H15769   4.204   5.414   3.333 -3.0829  1.1928 -1.8022
  839MOL0     H15770   4.386   5.380   3.527 -0.0151 -1.2076  0.0512
  839MOL0     H15771   4.366   5.533   3.434 -4.4161  0.5789 -0.4595
  839MOL0     H15772   4.561   5.551   3.588  1.2605  1.6817  1.4994
  839MOL0     H15773   4.457   5.512   3.729  1.2910  1.1697  0.0861
  839MOL0     H15774   4.471   5.763   3.547 -2.1358  0.9465  0.1075
  839MOL0     H15775   4.332   5.730   3.653  0.4934  1.0278 -0.3973
  839MOL0     H15776   4.468   5.720   3.841 -1.0859 -1.5685 -1.4295
  839MOL0     H15777   4.482   5.879   3.778  0.2314 -0.4903  4.2298
  839MOL0     H15778   4.878   5.722   3.727  0.3219 -0.5441 -1.8961
  839MOL0     H15779   4.013   5.386   3.728 -3.1164  0.1084 -1.2200
  839MOL0     H15780   3.812   5.304   3.753 -3.6028 -2.8557  2.9817
  839MOL0     H15781   3.719   5.236   3.617  0.2728  0.4576 -0.1640
  839MOL0     H15782   3.847   5.138   3.703  0.1804 -0.7249 -2.8686
  840MOL0     O15783  10.095   1.025   5.002  0.5145  0.2265 -0.3674
  840MOL0     C15784  10.051   0.999   5.116  0.2184 -0.2578 -0.0485
  840MOL0     O15785  10.052   1.087   5.223  0.4466 -0.2875 -0.9659
  840MOL0     C15786  10.074   1.219   5.185 -0.1815 -0.2554 -0.7461
  840MOL0     C15787  10.206   1.261   5.147 -0.8631  0.4838  0.0685
  840MOL0     C15788  10.221   1.372   5.065 -0.9601  0.3491  0.3379
  840MOL0     C15789  10.116   1.447   5.028  0.2702 -0.8777  0.5518
  840MOL0     O15790  10.115   1.556   4.933 -0.3013  0.6577  0.1905
  840MOL0     C15791  10.246   1.586   4.863 -0.4872 -0.8110 -0.7771
  840MOL0     C15792  10.242   1.725   4.795  0.6029  1.2839 -0.4820
  840MOL0     C15793  10.110   1.768   4.751  0.0871 -0.0377  1.0456
  840MOL0     C15794  10.114   1.870   4.637  0.2705 -0.2712 -0.3530
  840MOL0     C15795  10.229   1.982   4.640  0.1371 -0.1664  0.4621
  840MOL0     C15796  10.196   2.071   4.764 -0.4620 -0.1338  0.1458
  840MOL0     C15797  10.315   2.163   4.800  1.1216 -0.1016 -0.7009
  840MOL0     C15798  10.352   2.264   4.693  0.2814  0.2344  0.5225
  840MOL0     N15799  10.412   2.383   4.754  0.6013  0.7487  0.0396
  840MOL0     C15800  10.354   2.451   4.856  0.5937 -0.2013  0.0005
  840MOL0     C15801  10.455   2.537   4.895  0.3668 -0.4399 -0.0910
  840MOL0     C15802  10.428   2.625   5.009 -0.2321  0.0432  0.1611
  840MOL0     C15803  10.461   2.552   5.140  0.1126  1.3390 -0.1871
  840MOL0     C15804  10.602   2.497   5.137 -0.0932  0.6193  0.3959
  840MOL0     C15805  10.620   2.427   5.277 -1.4016  0.6189  0.6427
  840MOL0     O15806  10.756   2.376   5.293 -0.0789  0.6988 -0.4105
  840MOL0     C15807  10.789   2.337   5.422 -0.0075 -0.1255 -0.1205
  840MOL0     C15808  10.928   2.302   5.444  0.4068  0.2686 -0.2641
  840MOL0     C15809  10.984   2.268   5.565  0.0692  0.3147 -1.0335
  840MOL0     C15810  11.126   2.215   5.547  0.4767 -0.2489  0.0114
  840MOL0     C15811  10.897   2.262   5.682  0.0305 -1.3676  0.0453
  840MOL0     C15812  10.933   2.208   5.819 -0.3213  0.3508 -0.5019
  840MOL0     O15813  10.836   2.217   5.918 -0.0173  0.4520  0.3800
  840MOL0     C15814  10.863   2.174   6.047 -0.6589  0.2981  0.7229
  840MOL0     C15815  10.904   2.260   6.141  0.2770 -0.3409  0.4357
  840MOL0     C15816  10.931   2.223   6.271  0.2802 -0.6841 -0.4345
  840MOL0     C15817  10.919   2.093   6.316  0.8251  0.1257  0.1695
  840MOL0     O15818  10.930   2.049   6.447  0.1164  0.6834 -0.3408
  840MOL0     C15819  11.042   2.102   6.524  0.8495 -0.5359  0.0697
  840MOL0     C15820  11.182   2.049   6.483  0.1390  0.8354  0.2952
  840MOL0     C15821  11.208   1.904   6.478 -0.4062 -0.4893 -1.4640
  840MOL0     C15822  11.371   1.892   6.495 -0.5409 -0.1801  0.5613
  840MOL0     C15823  11.404   1.756   6.565  0.9359 -0.0685 -0.3133
  840MOL0     C15824  11.537   1.692   6.537 -1.0116  0.4013  0.3390
  840MOL0     C15825  11.544   1.615   6.415 -1.4962  0.1828  0.8614
  840MOL0     C15826  11.478   1.478   6.442 -0.4068 -0.0472 -0.2336
  840MOL0    Cl15827  11.513   1.364   6.301  0.4114 -0.4973  0.1697
  840MOL0     C15828  10.858   2.006   6.226 -0.7158  1.0916 -0.6373
  840MOL0     C15829  10.837   2.040   6.092 -0.1096 -0.7795  0.3640
  840MOL0     O15830  11.052   2.166   5.834 -0.5323 -0.1459 -0.0436
  840MOL0     C15831  10.761   2.305   5.658  0.8164 -0.8547  0.9296
  840MOL0     C15832  10.715   2.343   5.538  0.7591 -0.4047 -0.0104
  840MOL0     N15833  10.570   2.507   4.820  0.7136  0.8007  0.4670
  840MOL0     N15834  10.536   2.420   4.734  0.6085 -0.1625 -0.7282
  840MOL0     C15835   9.988   1.417   5.072  0.8706  0.5749  0.0131
  840MOL0     C15836   9.964   1.299   5.150 -0.0724  0.0636  0.2730
  840MOL0     C15837  10.010   0.869   5.143 -0.3657 -1.0284  0.5213
  840MOL0     C15838  10.026   0.830   5.268  0.2068  0.3815 -0.2048
  840MOL0     C15839   9.980   0.699   5.312 -0.6599  0.0538  0.3209
  840MOL0     C15840   9.922   0.613   5.222  0.9478 -0.5538  0.1973
  840MOL0     O15841   9.880   0.484   5.246 -0.4577  0.2403 -0.9135
  840MOL0     C15842   9.926   0.433   5.374  0.8120  0.2374 -0.9058
  840MOL0     C15843   9.896   0.284   5.420  0.6401  0.2635 -0.0713
  840MOL0     C15844   9.888   0.189   5.301  0.2442 -1.0218  0.8726
  840MOL0     C15845   9.936   0.047   5.313 -0.3393  0.8116 -0.6773
  840MOL0     C15846   9.857  -0.034   5.404  0.1754  0.0055  0.1995
  840MOL0     C15847   9.780  -0.094   5.480 -0.0081  0.4726  0.7620
  840MOL0     C15848   9.901   0.666   5.094  1.4544 -0.1095 -0.0759
  840MOL0     C15849   9.941   0.788   5.054  0.2155  0.0661  0.5172
  840MOL0     C15850   9.904   0.828   4.916  0.3599 -0.8731 -0.7186
  840MOL0     H15851  10.279   1.186   5.176 -0.9714  0.8074  1.2255
  840MOL0     H15852  10.318   1.401   5.026 -0.3589 -2.6717 -0.6637
  840MOL0     H15853  10.259   1.512   4.783 -2.9379  0.9134 -2.9381
  840MOL0     H15854  10.333   1.577   4.928 -0.0505 -2.5425 -1.5398
  840MOL0     H15855  10.269   1.804   4.865 -4.0360  2.1551  0.6440
  840MOL0     H15856  10.317   1.721   4.716  2.1891 -1.0403  1.0257
  840MOL0     H15857  10.043   1.695   4.705  1.4367 -1.6533  1.5494
  840MOL0     H15858  10.059   1.815   4.836 -0.9444  2.9272 -1.0796
  840MOL0     H15859  10.133   1.813   4.545 -1.3992  1.1963 -1.6938
  840MOL0     H15860  10.015   1.908   4.608 -0.6681 -2.6080 -0.4393
  840MOL0     H15861  10.231   2.054   4.558 -0.0004  1.7164  2.0317
  840MOL0     H15862  10.330   1.939   4.641 -0.0067 -0.6746 -1.7229
  840MOL0     H15863  10.104   2.130   4.753 -0.5082  0.4061  2.8407
  840MOL0     H15864  10.178   2.009   4.852 -0.7846 -1.1943 -0.6552
  840MOL0     H15865  10.400   2.100   4.824  0.7306 -0.1016  0.7716
  840MOL0     H15866  10.283   2.209   4.894  0.0166 -1.7809 -0.2180
  840MOL0     H15867  10.424   2.222   4.622  2.7734  4.4441  0.2157
  840MOL0     H15868  10.267   2.308   4.641 -2.5405 -1.4668  3.3725
  840MOL0     H15869  10.253   2.460   4.895  0.3151  1.6884 -1.0595
  840MOL0     H15870  10.326   2.666   5.008  0.1167  0.9474 -0.9906
  840MOL0     H15871  10.496   2.710   5.003  0.9037 -0.9127 -1.2825
  840MOL0     H15872  10.458   2.625   5.222  3.0843  0.8007  0.5227
  840MOL0     H15873  10.390   2.476   5.174 -1.3160  1.8331 -1.9252
  840MOL0     H15874  10.621   2.409   5.074 -0.4008 -2.3488  4.0683
  840MOL0     H15875  10.676   2.574   5.115  0.7318 -0.2229  0.1151
  840MOL0     H15876  10.597   2.509   5.346  2.1323  2.4409 -0.1158
  840MOL0     H15877  10.557   2.338   5.286 -1.5695  0.3841 -2.0694
  840MOL0     H15878  10.987   2.315   5.353  0.4070  1.5285 -0.1039
  840MOL0     H15879  11.212   2.273   5.581  2.2835 -1.0424 -2.8935
  840MOL0     H15880  11.143   2.204   5.440 -0.8607 -3.1590 -0.0068
  840MOL0     H15881  11.134   2.119   5.598 -0.3734  0.2978  1.2328
  840MOL0     H15882  10.923   2.365   6.119  3.1565 -0.3593  2.2587
  840MOL0     H15883  10.976   2.296   6.338  2.4132 -0.9551 -1.5134
  840MOL0     H15884  11.053   2.211   6.519 -1.9168 -0.1695  0.6364
  840MOL0     H15885  11.032   2.091   6.632  0.9213 -0.5902  0.0707
  840MOL0     H15886  11.204   2.089   6.384  1.2306 -2.9739 -1.1894
  840MOL0     H15887  11.256   2.098   6.546  2.3934 -0.0886 -1.5010
  840MOL0     H15888  11.173   1.861   6.383 -0.3561  0.4509 -1.9277
  840MOL0     H15889  11.155   1.869   6.567 -0.9330  0.9912 -1.1598
  840MOL0     H15890  11.423   1.971   6.551 -2.0812  0.6007  0.9509
  840MOL0     H15891  11.416   1.898   6.395  0.5993  1.1329  1.1052
  840MOL0     H15892  11.408   1.774   6.673  0.6242 -3.4204  0.3679
  840MOL0     H15893  11.323   1.687   6.539  2.0160 -1.6807  0.4058
  840MOL0     H15894  11.570   1.630   6.621  2.6462  0.8558 -0.5722
  840MOL0     H15895  11.605   1.777   6.530  0.6431 -0.3049  4.4429
  840MOL0     H15896  11.647   1.594   6.386 -1.9987 -3.4138  1.2601
  840MOL0     H15897  11.494   1.665   6.331  1.1343 -1.6449 -2.0053
  840MOL0     H15898  11.369   1.482   6.439 -0.5754 -2.1202  0.9076
  840MOL0     H15899  11.495   1.440   6.543  1.0236  1.6838  0.2237
  840MOL0     H15900  10.824   1.904   6.242  0.1171  0.5529 -2.1735
  840MOL0     H15901  10.788   1.973   6.021 -1.9596  0.6708  0.1949
  840MOL0     H15902  10.690   2.315   5.740 -1.3000 -1.1362 -0.7947
  840MOL0     H15903  10.615   2.379   5.514 -0.0952 -2.3636  0.3978
  840MOL0     H15904   9.908   1.473   5.025 -2.1245 -1.4536  2.2567
  840MOL0     H15905   9.863   1.262   5.163  0.3016 -1.6358 -1.2360
  840MOL0     H15906  10.063   0.894   5.349 -2.0124 -4.2791  5.1974
  840MOL0     H15907   9.993   0.673   5.417  0.8612 -4.7169 -0.7868
  840MOL0     H15908  10.035   0.438   5.384  0.8298 -1.5341  0.3923
  840MOL0     H15909   9.869   0.489   5.449  2.1349  2.3972 -1.4289
  840MOL0     H15910   9.796   0.286   5.463  0.7451 -2.0127  0.4215
  840MOL0     H15911   9.972   0.254   5.492 -1.8772  0.0264  2.6659
  840MOL0     H15912   9.781   0.195   5.276  0.1329 -0.0228  1.5242
  840MOL0     H15913   9.934   0.230   5.210 -2.9884  0.8345 -0.1028
  840MOL0     H15914  10.040   0.056   5.345 -1.1237 -2.9097  4.1895
  840MOL0     H15915   9.935   0.003   5.212  0.1754 -1.6258  0.3031
  840MOL0     H15916   9.717  -0.155   5.542  1.8590 -1.9144  0.4741
  840MOL0     H15917   9.853   0.587   5.037  2.1312 -0.4497 -0.1864
  840MOL0     H15918   9.858   0.927   4.921  0.9332 -0.6628  3.1655
  840MOL0     H15919   9.993   0.849   4.856  0.7572  1.4853  0.5701
  840MOL0     H15920   9.841   0.758   4.860  1.0587 -3.3169  1.3501
  841MOL0     O15921  10.252   9.373   3.586 -0.4687 -0.0981 -0.2188
  841MOL0     C15922  10.248   9.445   3.488  0.2864  0.2766  0.3508
  841MOL0     O15923  10.183   9.565   3.472 -0.3221  0.7563 -0.5909
  841MOL0     C15924  10.109   9.625   3.571  0.3962  0.4487 -0.7259
  841MOL0     C15925  10.139   9.634   3.705  1.0635  1.1385 -0.2502
  841MOL0     C15926  10.053   9.697   3.801 -0.3752 -0.4572  0.4317
  841MOL0     C15927   9.936   9.756   3.759  0.0708  0.3830  1.1225
  841MOL0     O15928   9.862   9.811   3.856  0.6578  0.5222 -0.5343
  841MOL0     C15929   9.865   9.950   3.863 -0.3497 -0.8971 -0.2535
  841MOL0     C15930   9.753  10.018   3.937  0.2647  0.6598  0.4409
  841MOL0     C15931   9.771  10.164   3.950 -0.0348  0.3906 -0.2025
  841MOL0     C15932   9.697  10.234   3.837  0.3053  0.5290 -0.1389
  841MOL0     C15933   9.768  10.374   3.845  0.2901  0.4590  0.5320
  841MOL0     C15934   9.676  10.489   3.818 -0.3134  1.3530  0.4869
  841MOL0     C15935   9.746  10.621   3.787 -0.4000 -0.0039  0.0624
  841MOL0     C15936   9.801  10.635   3.643 -0.4182 -0.0233 -0.8527
  841MOL0     N15937   9.862  10.769   3.633  0.7952 -0.1362 -0.3938
  841MOL0     C15938   9.792  10.879   3.674  0.2828  0.3140 -0.8559
  841MOL0     C15939   9.874  10.985   3.679 -0.3047 -0.5161 -1.0737
  841MOL0     C15940   9.845  11.125   3.721  0.0492 -0.7643  0.0002
  841MOL0     C15941   9.939  11.166   3.834 -0.4350  0.2039 -0.0271
  841MOL0     C15942  10.022  11.283   3.798  0.0298  0.3310 -0.3793
  841MOL0     C15943  10.091  11.347   3.916  0.3751 -0.3458 -1.1392
  841MOL0     O15944  10.151  11.468   3.866  0.0896  0.1596  0.2839
  841MOL0     C15945  10.263  11.457   3.784 -0.6487  0.1216 -0.3531
  841MOL0     C15946  10.354  11.350   3.775 -0.5556 -0.1058  0.6956
  841MOL0     C15947  10.480  11.358   3.701  0.6098  0.6552  0.6965
  841MOL0     C15948  10.583  11.251   3.698  0.3709  0.3058 -0.5631
  841MOL0     C15949  10.501  11.476   3.635 -0.3091 -0.5952  0.6664
  841MOL0     C15950  10.619  11.490   3.536 -1.6625  0.4731 -0.9672
  841MOL0     O15951  10.666  11.395   3.456 -0.1250  0.2305 -0.5574
  841MOL0     C15952  10.787  11.395   3.392 -0.2662  0.0959  0.7922
  841MOL0     C15953  10.901  11.438   3.461  1.2289 -0.8555  0.3926
  841MOL0     C15954  11.023  11.400   3.416 -1.0929 -0.1922  1.1921
  841MOL0     C15955  11.043  11.325   3.300  0.7707 -1.0683 -1.0081
  841MOL0     O15956  11.173  11.288   3.279  0.1368 -0.6672 -0.0785
  841MOL0     C15957  11.228  11.326   3.144 -0.8702  0.7769 -0.5088
  841MOL0     C15958  11.380  11.321   3.149 -0.0378  0.4807  0.5844
  841MOL0     C15959  11.441  11.367   3.015  0.0905  0.1018 -0.2161
  841MOL0     C15960  11.572  11.448   3.041  0.1751  0.0982  0.3484
  841MOL0     C15961  11.556  11.595   3.049 -0.2598 -0.6207 -0.5442
  841MOL0     C15962  11.685  11.677   3.005  0.8890 -0.5254  0.4167
  841MOL0     C15963  11.739  11.673   2.860 -0.0194 -0.7646  0.0096
  841MOL0     C15964  11.648  11.750   2.763  0.5579  0.6626  0.1613
  841MOL0    Cl15965  11.649  11.926   2.775  0.1881 -0.3477  0.1509
  841MOL0     C15966  10.935  11.272   3.228  0.9075 -0.5383 -0.3690
  841MOL0     C15967  10.803  11.315   3.278 -0.1056  0.4347 -0.2483
  841MOL0     O15968  10.674  11.598   3.551  0.2930  0.5279  0.1408
  841MOL0     C15969  10.414  11.591   3.644 -0.1783  0.2706 -1.0345
  841MOL0     C15970  10.305  11.576   3.726  1.1082  0.0454  0.0362
  841MOL0     N15971   9.993  10.931   3.638 -0.3685 -0.3930  0.6356
  841MOL0     N15972   9.993  10.802   3.611  0.5249  0.5884 -0.2127
  841MOL0     C15973   9.903   9.758   3.618  0.6410 -0.0788 -0.3959
  841MOL0     C15974   9.981   9.679   3.538 -0.1916 -0.7105 -0.7449
  841MOL0     C15975  10.314   9.395   3.368  0.2327  0.1832 -0.0564
  841MOL0     C15976  10.427   9.460   3.317 -1.2209 -0.2421  0.8509
  841MOL0     C15977  10.503   9.405   3.214 -0.5851  0.5637 -0.3382
  841MOL0     C15978  10.466   9.284   3.147  0.0057 -0.1939  0.1544
  841MOL0     O15979  10.520   9.235   3.030  0.3622 -0.5756 -0.4625
  841MOL0     C15980  10.609   9.329   2.967 -0.1266  0.1518 -0.3684
  841MOL0     C15981  10.641   9.306   2.821  0.0162  0.5855  0.4214
  841MOL0     C15982  10.742   9.187   2.793 -1.0685 -0.5079  0.0839
  841MOL0     C15983  10.883   9.237   2.821  0.2877  0.1460  0.3920
  841MOL0     C15984  10.978   9.123   2.799 -0.0619 -1.3432 -0.2878
  841MOL0     C15985  11.040   9.014   2.788 -0.5462 -0.3292  0.0592
  841MOL0     C15986  10.350   9.231   3.196  0.2416  0.3792 -0.2932
  841MOL0     C15987  10.271   9.281   3.305  1.2342 -0.1004  0.1048
  841MOL0     C15988  10.156   9.186   3.349  0.1250 -0.2523 -0.1640
  841MOL0     H15989  10.219   9.568   3.737 -0.2152  0.4170  1.6380
  841MOL0     H15990  10.094   9.701   3.902  1.0405  1.9362 -0.1643
  841MOL0     H15991   9.870   9.992   3.762  4.4161  1.3602  0.6511
  841MOL0     H15992   9.950   9.985   3.922 -0.6215  0.7725 -0.7827
  841MOL0     H15993   9.657   9.994   3.891 -0.2643  0.7252  1.4825
  841MOL0     H15994   9.749   9.992   4.043 -1.9361  0.5881  0.3702
  841MOL0     H15995   9.742  10.194   4.051  1.9678  0.7055  0.3136
  841MOL0     H15996   9.877  10.186   3.932  0.3621 -1.3654 -0.2139
  841MOL0     H15997   9.717  10.178   3.746 -1.2893 -1.3005  0.5633
  841MOL0     H15998   9.589  10.245   3.849  0.3997  4.0138 -1.2136
  841MOL0     H15999   9.843  10.379   3.765 -0.6527 -1.3323 -0.5276
  841MOL0     H16000   9.827  10.392   3.935 -0.7050  2.7148  0.7929
  841MOL0     H16001   9.607  10.456   3.739 -0.9879  1.1047  1.1655
  841MOL0     H16002   9.613  10.507   3.906 -0.9829 -2.4884  0.9512
  841MOL0     H16003   9.828  10.644   3.856 -1.6211 -0.4734  1.7312
  841MOL0     H16004   9.668  10.696   3.799 -0.9789 -0.5700 -0.1451
  841MOL0     H16005   9.884  10.568   3.621  0.9879  0.6066  1.9722
  841MOL0     H16006   9.718  10.630   3.573 -1.5537  2.5298  0.1842
  841MOL0     H16007   9.687  10.879   3.700 -0.1178 -4.1656 -1.6652
  841MOL0     H16008   9.745  11.139   3.762 -0.9604 -0.9665 -2.2313
  841MOL0     H16009   9.854  11.181   3.627 -2.0072 -0.9253 -0.3242
  841MOL0     H16010   9.887  11.200   3.924  1.1110  2.8545 -0.0443
  841MOL0     H16011   9.989  11.072   3.859 -4.7336 -3.9812 -4.7643
  841MOL0     H16012  10.092  11.254   3.719 -0.2995  0.5451 -0.7546
  841MOL0     H16013   9.950  11.356   3.759 -0.2380  0.8716  1.0565
  841MOL0     H16014  10.014  11.370   3.991 -1.0069 -2.3010 -1.8724
  841MOL0     H16015  10.165  11.287   3.970  1.5184  1.0643 -1.0690
  841MOL0     H16016  10.333  11.259   3.830 -4.4466  0.5330  0.5920
  841MOL0     H16017  10.548  11.182   3.620  1.4069  1.2030 -1.8613
  841MOL0     H16018  10.578  11.200   3.795 -2.7397 -2.6717 -2.0345
  841MOL0     H16019  10.687  11.276   3.680  0.6234  1.9307  2.5419
  841MOL0     H16020  10.890  11.495   3.552  0.0958  0.2497 -0.4065
  841MOL0     H16021  11.110  11.427   3.476 -0.4662 -2.9153  1.6636
  841MOL0     H16022  11.200  11.238   3.085  2.4593 -1.9016  1.5595
  841MOL0     H16023  11.203  11.425   3.104 -2.3511 -0.0171 -1.6458
  841MOL0     H16024  11.410  11.395   3.224 -1.1112 -0.0702  1.6063
  841MOL0     H16025  11.419  11.224   3.182  0.3576  0.6220  0.5294
  841MOL0     H16026  11.364  11.428   2.966  0.5606 -2.0481 -4.0151
  841MOL0     H16027  11.469  11.290   2.942 -0.8361  1.5347 -2.1890
  841MOL0     H16028  11.643  11.445   2.958  3.8103  1.3659  3.0963
  841MOL0     H16029  11.624  11.407   3.128  1.8917 -3.3910 -2.0836
  841MOL0     H16030  11.467  11.632   2.999 -1.6847 -2.9465  0.1000
  841MOL0     H16031  11.531  11.612   3.154 -1.0727 -0.1950 -0.8006
  841MOL0     H16032  11.764  11.641   3.071 -1.2751  0.3200  3.7100
  841MOL0     H16033  11.680  11.785   3.025 -3.4415 -0.6987  1.3381
  841MOL0     H16034  11.754  11.567   2.837 -0.7763 -0.8362 -0.1686
  841MOL0     H16035  11.839  11.718   2.858 -0.9512  1.4341 -1.1253
  841MOL0     H16036  11.544  11.723   2.781  0.6389  0.6392  0.5999
  841MOL0     H16037  11.686  11.724   2.663  3.3775  3.9403  0.1826
  841MOL0     H16038  10.934  11.226   3.130 -2.4431  0.6698 -1.0325
  841MOL0     H16039  10.727  11.261   3.222  2.1874 -1.0672 -2.1249
  841MOL0     H16040  10.441  11.684   3.596  0.3987 -0.1833 -1.5967
  841MOL0     H16041  10.248  11.664   3.754  1.0795 -0.2917  1.0901
  841MOL0     H16042   9.816   9.804   3.573 -0.2440 -1.5962 -0.3167
  841MOL0     H16043   9.958   9.665   3.433 -0.5013 -3.4526 -0.3768
  841MOL0     H16044  10.460   9.555   3.358 -0.2402 -1.0242  1.9392
  841MOL0     H16045  10.590   9.458   3.177 -0.0745  3.0246  3.7578
  841MOL0     H16046  10.569   9.429   2.986 -0.0652  0.2760 -0.8961
  841MOL0     H16047  10.702   9.330   3.025  0.3844  3.5870 -1.0490
  841MOL0     H16048  10.681   9.399   2.780  0.3000  0.5980  0.7243
  841MOL0     H16049  10.543   9.284   2.776  0.6754  1.3700 -1.5321
  841MOL0     H16050  10.721   9.108   2.866  2.7757 -0.5824  1.3609
  841MOL0     H16051  10.736   9.150   2.691 -0.1698 -0.6619  0.0791
  841MOL0     H16052  10.886   9.284   2.920 -1.0259 -1.2594  1.1283
  841MOL0     H16053  10.891   9.314   2.743 -2.9339 -1.8044 -2.0823
  841MOL0     H16054  11.073   8.912   2.784  0.1994 -0.0655 -2.6551
  841MOL0     H16055  10.318   9.143   3.141  1.7458  0.6905 -1.7239
  841MOL0     H16056  10.162   9.179   3.458 -3.0827  0.7742  0.1761
  841MOL0     H16057  10.061   9.228   3.314  1.4656  3.1499 -0.1717
  841MOL0     H16058  10.163   9.085   3.307  0.7554 -0.4341  0.3664
  842MOL0     O16059   0.646   2.828   5.330 -0.5514 -0.4420 -0.6018
  842MOL0     C16060   0.710   2.837   5.435 -0.3000  0.0654 -0.0290
  842MOL0     O16061   0.673   2.919   5.542  0.1727  0.5123  0.0242
  842MOL0     C16062   0.571   3.015   5.551 -1.1630  0.0746 -0.3116
  842MOL0     C16063   0.582   3.129   5.631  0.0276 -0.8375 -0.2623
  842MOL0     C16064   0.472   3.222   5.649  0.2459 -0.1980 -0.1038
  842MOL0     C16065   0.351   3.199   5.577 -0.5075  0.3568 -1.4314
  842MOL0     O16066   0.249   3.292   5.568 -0.2068 -0.9096 -0.0027
  842MOL0     C16067   0.198   3.340   5.692  0.6797  0.2628 -0.5685
  842MOL0     C16068   0.060   3.401   5.666 -0.2949 -0.9614  0.4896
  842MOL0     C16069   0.053   3.494   5.546 -0.0084  0.7623 -0.9728
  842MOL0     C16070  -0.093   3.531   5.537 -0.0729  0.0711 -0.0196
  842MOL0     C16071  -0.107   3.633   5.432  0.6246  0.5635  0.6399
  842MOL0     C16072  -0.118   3.579   5.288  0.1029 -0.3235  0.1329
  842MOL0     C16073  -0.108   3.700   5.190  0.3149 -0.5258  0.4138
  842MOL0     C16074   0.037   3.711   5.154  0.1261 -0.3737 -0.1066
  842MOL0     N16075   0.073   3.617   5.047  0.2724 -0.0063  0.6338
  842MOL0     C16076   0.126   3.494   5.062  0.1338 -0.3758  0.4865
  842MOL0     C16077   0.166   3.459   4.938 -0.9471 -0.2877 -0.1036
  842MOL0     C16078   0.250   3.332   4.928 -0.0171 -0.1569 -0.5400
  842MOL0     C16079   0.175   3.212   4.863 -0.0104 -0.6022  1.2251
  842MOL0     C16080   0.211   3.073   4.925  0.7598 -0.3844 -0.5421
  842MOL0     C16081   0.128   2.954   4.858 -0.5690 -0.4312  0.8223
  842MOL0     O16082   0.151   2.825   4.930 -0.3073 -0.1525 -0.6106
  842MOL0     C16083   0.141   2.822   5.066 -0.9398  0.5210 -0.7962
  842MOL0     C16084   0.213   2.714   5.122 -0.1778 -0.0019 -0.3773
  842MOL0     C16085   0.206   2.687   5.254  0.5469  0.7641 -0.2493
  842MOL0     C16086   0.295   2.581   5.304 -0.8993  0.2886 -1.3586
  842MOL0     C16087   0.118   2.754   5.336  0.0402  0.1048  0.4453
  842MOL0     C16088   0.084   2.717   5.482 -0.1058 -0.3871  0.0906
  842MOL0     O16089   0.166   2.630   5.554 -0.4805  0.6527  0.4533
  842MOL0     C16090   0.162   2.631   5.690  0.0772 -0.5878  0.2656
  842MOL0     C16091   0.273   2.684   5.762 -0.4091 -0.3265  0.7767
  842MOL0     C16092   0.265   2.674   5.898 -0.1619  0.1250 -0.2662
  842MOL0     C16093   0.169   2.615   5.972  1.2652  0.9428  0.2332
  842MOL0     O16094   0.190   2.608   6.107 -0.2308 -0.2196  0.0906
  842MOL0     C16095   0.066   2.591   6.190 -0.2178 -0.0585  0.1990
  842MOL0     C16096   0.092   2.611   6.343 -1.1991 -0.1051  0.2220
  842MOL0     C16097   0.092   2.757   6.385 -0.0591  0.5170  1.1442
  842MOL0     C16098   0.234   2.811   6.414 -0.2158  0.1354  0.4654
  842MOL0     C16099   0.223   2.961   6.446 -0.8911 -0.5644 -0.1797
  842MOL0     C16100   0.349   3.036   6.399 -1.0862  0.3470 -0.2881
  842MOL0     C16101   0.473   2.994   6.476  0.6030  0.1983  0.5157
  842MOL0     C16102   0.584   3.100   6.439 -0.3528  0.3305 -0.5492
  842MOL0    Cl16103   0.752   3.075   6.496 -0.2924 -0.3051  0.1092
  842MOL0     C16104   0.059   2.558   5.900  0.7550 -0.6923 -0.4296
  842MOL0     C16105   0.057   2.570   5.764 -0.2141 -0.1378  0.6154
  842MOL0     O16106  -0.015   2.779   5.531  0.9460  0.8940  0.2831
  842MOL0     C16107   0.051   2.864   5.273 -1.1980  0.2240 -0.7197
  842MOL0     C16108   0.069   2.905   5.148 -0.1463  0.0617 -0.0292
  842MOL0     N16109   0.145   3.554   4.846 -0.6888 -1.1103 -0.4578
  842MOL0     N16110   0.086   3.655   4.911  1.7167  0.1526 -0.1628
  842MOL0     C16111   0.349   3.078   5.502 -0.7060 -0.2731  0.4608
  842MOL0     C16112   0.450   2.986   5.492 -0.1242  0.2541 -0.2453
  842MOL0     C16113   0.837   2.761   5.451 -0.2247 -0.8851  0.4518
  842MOL0     C16114   0.948   2.821   5.513  0.0042  0.5385 -0.5073
  842MOL0     C16115   1.072   2.755   5.522 -0.0077  0.4401 -0.4807
  842MOL0     C16116   1.081   2.632   5.458 -0.6200  0.5685 -0.0614
  842MOL0     O16117   1.213   2.571   5.469  0.6298 -0.8827  0.4020
  842MOL0     C16118   1.259   2.468   5.375  1.0534 -0.3528  0.5722
  842MOL0     C16119   1.240   2.337   5.448  0.5682  0.1809 -0.0879
  842MOL0     C16120   1.258   2.211   5.368  0.4291 -0.2393 -0.5804
  842MOL0     C16121   1.124   2.135   5.358  0.7094  0.1629 -0.5636
  842MOL0     C16122   1.014   2.197   5.285  0.3781  0.2341 -0.9258
  842MOL0     C16123   0.913   2.239   5.224 -0.5580 -0.0980 -0.3046
  842MOL0     C16124   0.976   2.570   5.398 -0.3998 -1.1940  0.0984
  842MOL0     C16125   0.844   2.626   5.394  0.8024 -0.5482 -0.9613
  842MOL0     C16126   0.738   2.538   5.339  0.0369 -0.3335 -0.2392
  842MOL0     H16127   0.681   3.145   5.673 -0.7153  1.9399  0.7022
  842MOL0     H16128   0.480   3.312   5.710 -3.6276  0.6263 -0.4991
  842MOL0     H16129   0.264   3.422   5.722 -0.5935  1.6295 -1.3587
  842MOL0     H16130   0.187   3.260   5.767  0.5801 -0.4505 -1.3336
  842MOL0     H16131  -0.015   3.323   5.647 -0.5361 -0.1483 -2.3507
  842MOL0     H16132   0.023   3.448   5.758 -1.4141 -0.7384 -0.0554
  842MOL0     H16133   0.111   3.582   5.573  2.6939 -1.6412  1.8512
  842MOL0     H16134   0.092   3.450   5.453 -2.9212 -4.1148 -0.2497
  842MOL0     H16135  -0.157   3.448   5.503 -0.2533  1.0410 -2.2233
  842MOL0     H16136  -0.131   3.573   5.631  2.8725 -0.5648  1.5623
  842MOL0     H16137  -0.022   3.698   5.453  3.9743 -3.8520  2.1476
  842MOL0     H16138  -0.203   3.682   5.453  1.8839  2.0461  3.4420
  842MOL0     H16139  -0.036   3.509   5.273  0.3992  0.2818 -1.1681
  842MOL0     H16140  -0.208   3.521   5.264  1.1431 -2.5634  1.3289
  842MOL0     H16141  -0.153   3.787   5.239  1.0926 -1.4408  2.8763
  842MOL0     H16142  -0.162   3.667   5.100  2.6010 -1.1354 -0.8043
  842MOL0     H16143   0.049   3.815   5.120 -2.3558  0.9747  2.6945
  842MOL0     H16144   0.098   3.710   5.244 -3.0616 -0.5979  2.2294
  842MOL0     H16145   0.153   3.440   5.152 -2.9215  0.7931  2.2401
  842MOL0     H16146   0.268   3.298   5.030 -1.8422  1.1089  0.2457
  842MOL0     H16147   0.342   3.355   4.874  0.6663  1.9584  1.3980
  842MOL0     H16148   0.068   3.233   4.874  0.3014  1.8818  0.0818
  842MOL0     H16149   0.201   3.207   4.757 -2.9674  0.0714  0.3852
  842MOL0     H16150   0.310   3.042   4.889  0.1873 -2.3538 -0.5555
  842MOL0     H16151   0.199   3.082   5.033 -2.5269  0.2378 -0.8571
  842MOL0     H16152   0.021   2.974   4.851 -1.3009 -4.0320 -0.8665
  842MOL0     H16153   0.156   2.947   4.753 -0.7764  1.3215  0.6279
  842MOL0     H16154   0.294   2.663   5.071 -0.1393  1.9286 -2.3912
  842MOL0     H16155   0.341   2.618   5.396 -0.3010 -3.5306  0.0722
  842MOL0     H16156   0.381   2.559   5.240  0.9876 -0.8530  1.3607
  842MOL0     H16157   0.240   2.491   5.333  0.6917 -0.2841 -0.0127
  842MOL0     H16158   0.343   2.745   5.705 -0.8126 -0.4538  0.1368
  842MOL0     H16159   0.329   2.742   5.954 -0.4043  0.7490 -0.7271
  842MOL0     H16160  -0.016   2.659   6.166 -1.4439 -2.0110 -1.3753
  842MOL0     H16161   0.046   2.486   6.168  2.8205 -0.0495 -3.7938
  842MOL0     H16162   0.013   2.557   6.396 -2.9089 -0.3244 -2.3634
  842MOL0     H16163   0.194   2.574   6.360 -0.3462  1.4276 -1.2614
  842MOL0     H16164   0.035   2.765   6.478 -2.7531  0.3310 -0.3861
  842MOL0     H16165   0.026   2.813   6.318 -0.7010 -1.8754 -0.3689
  842MOL0     H16166   0.304   2.797   6.331  0.1257 -2.7428  1.1398
  842MOL0     H16167   0.275   2.744   6.490  4.6380  2.9315  0.7278
  842MOL0     H16168   0.140   3.006   6.390 -0.2249  0.7694 -0.1100
  842MOL0     H16169   0.211   2.973   6.554 -1.0777  0.9671 -0.3567
  842MOL0     H16170   0.344   3.143   6.420 -1.0503  0.5170 -1.1019
  842MOL0     H16171   0.351   3.014   6.292 -6.5101 -1.3904 -0.3395
  842MOL0     H16172   0.507   2.894   6.448  5.1538  1.1800  1.8130
  842MOL0     H16173   0.463   2.985   6.585 -0.1144  2.5556  0.6978
  842MOL0     H16174   0.548   3.194   6.482  0.0908  0.0086  0.5701
  842MOL0     H16175   0.594   3.114   6.331  2.8167  0.1002 -0.3994
  842MOL0     H16176  -0.024   2.520   5.958  0.8543  2.6942  2.2992
  842MOL0     H16177  -0.029   2.537   5.706  0.4809  0.6525 -0.9241
  842MOL0     H16178  -0.010   2.922   5.343 -1.0294 -0.0473 -0.3445
  842MOL0     H16179   0.021   2.991   5.104  1.1463  0.5564 -0.5048
  842MOL0     H16180   0.268   3.064   5.431 -1.0445 -0.5423  0.8976
  842MOL0     H16181   0.435   2.890   5.445  0.9665  0.0736 -0.2569
  842MOL0     H16182   0.944   2.922   5.551 -3.5985  2.5577 -5.1920
  842MOL0     H16183   1.152   2.793   5.584 -0.9575 -0.0928  1.1451
  842MOL0     H16184   1.190   2.468   5.289  1.3157 -0.8622  0.3553
  842MOL0     H16185   1.363   2.483   5.345  1.0892 -0.1264  0.8069
  842MOL0     H16186   1.140   2.346   5.491 -1.3363  4.4761 -4.4272
  842MOL0     H16187   1.316   2.338   5.526  1.5782  1.1839 -1.0497
  842MOL0     H16188   1.294   2.229   5.267 -1.2569 -3.1532 -1.8168
  842MOL0     H16189   1.330   2.140   5.411 -1.0301 -1.5260 -0.1652
  842MOL0     H16190   1.094   2.116   5.462 -0.0241  3.1933 -0.1269
  842MOL0     H16191   1.146   2.039   5.310  0.9854 -2.8395  4.7252
  842MOL0     H16192   0.839   2.265   5.151  3.1044 -1.1084 -4.8109
  842MOL0     H16193   1.001   2.475   5.354  4.5161  0.4436 -1.2859
  842MOL0     H16194   0.641   2.587   5.352  1.2460  3.5300 -3.6635
  842MOL0     H16195   0.748   2.539   5.230  3.7173  1.2268 -0.0120
  842MOL0     H16196   0.751   2.441   5.389 -0.8552 -0.3094  0.0627
  843MOL0     O16197   7.788   6.306   9.399 -0.7503 -0.0993 -0.1076
  843MOL0     C16198   7.696   6.340   9.331 -0.3954 -0.1926  0.4750
  843MOL0     O16199   7.602   6.433   9.364  0.2974 -0.4288 -0.1856
  843MOL0     C16200   7.598   6.503   9.483  0.5437 -0.0645  0.5942
  843MOL0     C16201   7.661   6.463   9.597 -0.7265  0.0006 -0.5048
  843MOL0     C16202   7.654   6.531   9.720 -0.9740  0.5545  0.0877
  843MOL0     C16203   7.567   6.637   9.725  0.8238 -0.0936  0.2941
  843MOL0     O16204   7.550   6.723   9.840  0.7369  0.5803  0.9255
  843MOL0     C16205   7.682   6.752   9.893  0.0811  0.2086  0.3890
  843MOL0     C16206   7.652   6.838  10.018 -0.0121  0.5330  0.0974
  843MOL0     C16207   7.549   6.775  10.109  0.1215  0.7120  0.2980
  843MOL0     C16208   7.545   6.858  10.239 -0.4582  0.2353 -0.1368
  843MOL0     C16209   7.415   6.816  10.321  0.3700 -0.4446 -0.4435
  843MOL0     C16210   7.415   6.862  10.463  0.3735 -0.8602 -0.0245
  843MOL0     C16211   7.365   6.745  10.559  0.3135 -0.1434 -0.0833
  843MOL0     C16212   7.305   6.783  10.684 -0.2831 -1.4156  0.5003
  843MOL0     N16213   7.288   6.674  10.780  0.8733 -0.0933  0.5307
  843MOL0     C16214   7.174   6.605  10.824  0.6492 -0.7034  0.5746
  843MOL0     C16215   7.213   6.498  10.897  0.2056 -0.0464  0.5917
  843MOL0     C16216   7.138   6.383  10.955 -0.0561  0.1937  0.4054
  843MOL0     C16217   7.159   6.362  11.110 -0.0804  0.0027  0.2022
  843MOL0     C16218   7.073   6.459  11.180 -0.5659 -0.3720  0.0061
  843MOL0     C16219   7.072   6.419  11.331  0.0595  0.0397 -0.2008
  843MOL0     O16220   6.982   6.490  11.406  0.1716  0.0948  1.4104
  843MOL0     C16221   6.928   6.445  11.523  0.3444  0.6517 -0.4273
  843MOL0     C16222   6.984   6.354  11.616  0.4222  0.4220  0.4299
  843MOL0     C16223   6.915   6.300  11.716 -1.0978  0.4195  0.1411
  843MOL0     C16224   6.983   6.192  11.793 -1.0004  0.6817  0.2678
  843MOL0     C16225   6.796   6.380  11.766 -0.4624 -0.0355  0.0688
  843MOL0     C16226   6.720   6.346  11.886 -1.3826  0.3332 -0.5130
  843MOL0     O16227   6.581   6.330  11.866 -0.4072 -0.1955  0.4508
  843MOL0     C16228   6.502   6.317  11.979  0.3287 -0.7901  0.1164
  843MOL0     C16229   6.500   6.431  12.056 -0.8341 -0.2518 -0.2999
  843MOL0     C16230   6.407   6.437  12.163  0.1293 -0.0073 -0.0502
  843MOL0     C16231   6.328   6.327  12.200 -0.7820  0.2617  0.6281
  843MOL0     O16232   6.244   6.351  12.303  0.1680  0.5434  0.2791
  843MOL0     C16233   6.158   6.237  12.342 -0.5409 -0.1589 -0.5891
  843MOL0     C16234   6.111   6.268  12.481 -0.3808  0.1383  1.2497
  843MOL0     C16235   6.222   6.270  12.579  0.2933 -0.5368 -0.3653
  843MOL0     C16236   6.160   6.343  12.702 -0.0951 -0.4902  0.3825
  843MOL0     C16237   6.273   6.342  12.810  0.5347 -0.4676  0.3661
  843MOL0     C16238   6.387   6.446  12.783  0.0763 -0.6365 -0.4066
  843MOL0     C16239   6.468   6.474  12.917 -0.6988 -0.7191 -0.1371
  843MOL0     C16240   6.592   6.553  12.889  0.4917 -0.9798 -0.9683
  843MOL0    Cl16241   6.541   6.716  12.846  0.2129  0.3261 -0.4270
  843MOL0     C16242   6.337   6.215  12.120 -1.0741  0.6593  0.5837
  843MOL0     C16243   6.429   6.204  12.013  1.1476  0.2585 -0.3991
  843MOL0     O16244   6.784   6.337  11.995 -0.6054 -0.7641 -0.2397
  843MOL0     C16245   6.750   6.476  11.676 -0.3420  0.0720  0.2021
  843MOL0     C16246   6.810   6.506  11.555 -0.1767 -0.7227 -0.6351
  843MOL0     N16247   7.352   6.510  10.895  0.6515 -0.2245  0.3655
  843MOL0     N16248   7.391   6.618  10.833 -0.4794 -0.6834 -0.2733
  843MOL0     C16249   7.491   6.674   9.616  0.1247 -0.3833  0.0599
  843MOL0     C16250   7.508   6.609   9.496 -0.2767  0.1253 -0.4588
  843MOL0     C16251   7.705   6.299   9.180 -1.1167 -0.5289 -0.6550
  843MOL0     C16252   7.587   6.282   9.097 -0.0634 -0.1298 -0.8652
  843MOL0     C16253   7.595   6.232   8.973  0.1012  0.1331  0.2688
  843MOL0     C16254   7.713   6.197   8.911  0.1133  0.6470 -0.0349
  843MOL0     O16255   7.700   6.131   8.784 -0.5550  0.2364  0.1073
  843MOL0     C16256   7.817   6.061   8.737  0.1978 -0.5704 -0.5333
  843MOL0     C16257   7.894   6.167   8.651 -0.3700  0.0442  0.2731
  843MOL0     C16258   7.841   6.189   8.504 -0.9375  0.3136 -0.8034
  843MOL0     C16259   7.955   6.233   8.417  0.4902 -0.5396  0.2420
  843MOL0     C16260   7.902   6.256   8.286  0.0540  1.7089  0.6651
  843MOL0     C16261   7.855   6.246   8.175 -0.3021  0.4211  0.7543
  843MOL0     C16262   7.829   6.215   8.990 -0.7461  0.4057 -0.0029
  843MOL0     C16263   7.830   6.262   9.122  0.0960  0.6086 -0.5574
  843MOL0     C16264   7.968   6.294   9.178  0.3863  0.8458 -1.0350
  843MOL0     H16265   7.709   6.367   9.615 -1.8615 -0.5319 -0.2738
  843MOL0     H16266   7.690   6.483   9.810 -2.9178 -0.6052  0.3053
  843MOL0     H16267   7.742   6.818   9.830 -0.8660 -0.5762 -1.3935
  843MOL0     H16268   7.742   6.665   9.919 -2.1613 -2.0102 -1.3950
  843MOL0     H16269   7.747   6.860  10.068 -0.0143 -0.5298  0.6036
  843MOL0     H16270   7.611   6.932   9.980 -1.7501 -0.0775  0.3661
  843MOL0     H16271   7.453   6.756  10.061  1.6086 -3.7739 -1.3750
  843MOL0     H16272   7.584   6.675  10.136  1.7814  0.8656 -1.0701
  843MOL0     H16273   7.639   6.839  10.292  1.1151  1.6592 -2.2329
  843MOL0     H16274   7.546   6.965  10.218  0.1262  0.6447  1.7378
  843MOL0     H16275   7.427   6.708  10.329  2.1905 -0.1878  0.9625
  843MOL0     H16276   7.323   6.856  10.277 -0.8324 -0.1446  2.1739
  843MOL0     H16277   7.513   6.907  10.484 -0.2109  1.9275 -2.5128
  843MOL0     H16278   7.352   6.951  10.476  0.2654 -0.4628 -2.6921
  843MOL0     H16279   7.449   6.676  10.569  0.1107 -1.0199 -3.3788
  843MOL0     H16280   7.293   6.686  10.503  1.2324  0.8857 -2.4632
  843MOL0     H16281   7.358   6.864  10.734 -3.7109  0.6560  1.1662
  843MOL0     H16282   7.203   6.821  10.676 -0.0520 -0.3049  2.4137
  843MOL0     H16283   7.076   6.625  10.781  1.9114 -0.2917 -2.3194
  843MOL0     H16284   7.180   6.298  10.901  3.0583  1.1446  1.1483
  843MOL0     H16285   7.031   6.392  10.931 -1.1083 -2.8946  3.1920
  843MOL0     H16286   7.129   6.261  11.142 -0.9560  0.5304  1.0858
  843MOL0     H16287   7.265   6.389  11.118 -0.2968  2.0694 -2.4584
  843MOL0     H16288   7.100   6.565  11.185 -3.1993  0.3647  0.0652
  843MOL0     H16289   6.973   6.464  11.136 -0.6741  0.7140  0.3259
  843MOL0     H16290   7.054   6.311  11.334 -2.2863  0.3674 -0.8280
  843MOL0     H16291   7.172   6.436  11.373 -0.3982  0.0841  0.8905
  843MOL0     H16292   7.074   6.311  11.574  1.3550  3.3420 -0.7754
  843MOL0     H16293   6.921   6.108  11.824 -0.6685  0.1163 -0.5493
  843MOL0     H16294   7.018   6.236  11.887  0.7606 -1.5092  0.7136
  843MOL0     H16295   7.070   6.146  11.745 -2.2647 -1.8349  0.2337
  843MOL0     H16296   6.568   6.512  12.032  1.4574 -0.6734  3.7832
  843MOL0     H16297   6.381   6.538  12.194 -2.1203  0.3316 -2.6079
  843MOL0     H16298   6.074   6.214  12.276  1.0773  0.6586 -3.0691
  843MOL0     H16299   6.211   6.142  12.356 -2.3306 -1.0138  0.6561
  843MOL0     H16300   6.081   6.372  12.465  2.9173  0.8141 -2.4179
  843MOL0     H16301   6.027   6.204  12.508 -1.8856  0.7206 -1.5870
  843MOL0     H16302   6.317   6.308  12.541  1.0974 -0.8417  1.2963
  843MOL0     H16303   6.250   6.171  12.617  4.3080  0.5823  0.0636
  843MOL0     H16304   6.074   6.286  12.738 -0.8195  1.6266  2.1892
  843MOL0     H16305   6.126   6.444  12.679  0.6551  0.3159  2.5753
  843MOL0     H16306   6.232   6.350  12.912  0.5925 -2.1572  0.5588
  843MOL0     H16307   6.326   6.247  12.811  0.5123 -0.5699  3.5920
  843MOL0     H16308   6.338   6.542  12.766  0.3552  0.3076  3.3393
  843MOL0     H16309   6.454   6.417  12.702  3.3696 -1.0037  2.2399
  843MOL0     H16310   6.513   6.393  12.974  1.7260 -1.0995 -2.4065
  843MOL0     H16311   6.405   6.541  12.976 -0.9707  0.0481 -1.2558
  843MOL0     H16312   6.655   6.507  12.813  1.9801 -3.8047  1.7112
  843MOL0     H16313   6.658   6.565  12.976  3.6959 -0.3091 -3.3391
  843MOL0     H16314   6.286   6.125  12.153 -1.1481  0.9244  1.1944
  843MOL0     H16315   6.435   6.118  11.948 -1.2967 -0.3964  0.1680
  843MOL0     H16316   6.662   6.539  11.687 -0.5774  0.0683 -1.5338
  843MOL0     H16317   6.769   6.576  11.483 -1.6020  0.1316  0.9309
  843MOL0     H16318   7.428   6.762   9.622 -1.5272 -1.4158 -1.0781
  843MOL0     H16319   7.450   6.642   9.411 -0.2668  1.0617 -0.1190
  843MOL0     H16320   7.495   6.327   9.134 -0.1770 -1.2492  0.2600
  843MOL0     H16321   7.505   6.227   8.912  0.5944 -3.2167 -0.4214
  843MOL0     H16322   7.872   6.011   8.817 -0.2799 -0.2265  0.0105
  843MOL0     H16323   7.787   5.977   8.673  0.6389 -2.1116  1.2158
  843MOL0     H16324   7.997   6.130   8.649  0.3303  1.7882  1.5231
  843MOL0     H16325   7.902   6.258   8.710 -1.4156  0.9369 -0.9020
  843MOL0     H16326   7.802   6.094   8.468 -1.6174 -0.9230  2.7917
  843MOL0     H16327   7.767   6.269   8.501  0.3819  2.0928  3.9106
  843MOL0     H16328   8.036   6.160   8.416  1.6061  0.5472  2.8160
  843MOL0     H16329   8.007   6.323   8.452  0.0427  0.4080 -1.3918
  843MOL0     H16330   7.816   6.240   8.075  1.3767  2.2350 -0.0771
  843MOL0     H16331   7.929   6.194   8.954 -0.7255  4.1821 -2.6801
  843MOL0     H16332   8.037   6.307   9.094  0.9216  1.4552 -0.5000
  843MOL0     H16333   7.957   6.376   9.249  0.2054 -0.3823  0.4121
  843MOL0     H16334   8.011   6.207   9.229 -1.0985  0.3853 -0.5135
  844MOL0     O16335   6.608   9.304   4.262  0.3320 -0.1185 -0.5459
  844MOL0     C16336   6.518   9.340   4.343  0.0694  0.9330  0.3896
  844MOL0     O16337   6.531   9.341   4.482  0.1578  0.0342 -0.0411
  844MOL0     C16338   6.645   9.291   4.532 -1.0314  0.4824  0.5120
  844MOL0     C16339   6.641   9.163   4.595  0.6289  0.8625  0.5816
  844MOL0     C16340   6.754   9.108   4.650 -0.7713  0.2068 -1.3387
  844MOL0     C16341   6.877   9.177   4.649 -0.4485  0.9030 -0.3815
  844MOL0     O16342   6.985   9.134   4.713 -0.3709  0.5875  0.4177
  844MOL0     C16343   6.994   9.001   4.760 -0.5966 -0.0586  0.7526
  844MOL0     C16344   7.039   8.900   4.653  0.1721 -0.5106  0.2280
  844MOL0     C16345   7.097   8.779   4.718  0.5555  0.1978  0.5368
  844MOL0     C16346   7.181   8.705   4.611 -0.2156  0.2023  0.7199
  844MOL0     C16347   7.313   8.641   4.669  0.5164 -0.2176  0.5322
  844MOL0     C16348   7.286   8.549   4.790 -0.5530  0.2298 -0.0503
  844MOL0     C16349   7.222   8.419   4.737  0.5453  0.2783 -0.9240
  844MOL0     C16350   7.317   8.305   4.773  0.1523 -0.8009  0.4103
  844MOL0     N16351   7.261   8.172   4.735 -0.6401  0.1872 -0.8111
  844MOL0     C16352   7.307   8.112   4.619 -0.2946  0.9004  0.6491
  844MOL0     C16353   7.221   8.008   4.615 -0.2567 -0.2763 -0.6703
  844MOL0     C16354   7.242   7.888   4.525 -0.3985  1.2951  0.0206
  844MOL0     C16355   7.272   7.767   4.611 -0.4642  0.5561 -0.2181
  844MOL0     C16356   7.330   7.652   4.527 -0.4936 -0.0129  0.7750
  844MOL0     C16357   7.381   7.540   4.612 -0.0979  0.3895 -0.6562
  844MOL0     O16358   7.416   7.445   4.508 -0.1336  0.5986  0.4176
  844MOL0     C16359   7.495   7.341   4.545  0.2302 -0.1161 -0.8438
  844MOL0     C16360   7.526   7.255   4.436  0.2395  0.2605 -0.3702
  844MOL0     C16361   7.604   7.137   4.457  0.4774 -0.6042  0.3283
  844MOL0     C16362   7.630   7.062   4.327 -0.3016 -0.7182 -0.1179
  844MOL0     C16363   7.636   7.104   4.593 -0.3599 -0.6975  0.3614
  844MOL0     C16364   7.723   6.989   4.633  0.4573  0.4255 -0.2549
  844MOL0     O16365   7.766   6.986   4.765  0.0778 -0.0210 -0.2616
  844MOL0     C16366   7.820   6.868   4.810  1.0780 -0.1713  0.0965
  844MOL0     C16367   7.745   6.778   4.883 -0.0459 -0.0100 -0.1537
  844MOL0     C16368   7.798   6.653   4.926  1.2733 -0.3107 -0.2661
  844MOL0     C16369   7.930   6.623   4.893  0.0914 -0.2544  1.1849
  844MOL0     O16370   7.979   6.496   4.915 -0.2497 -0.0200  0.1952
  844MOL0     C16371   8.033   6.480   5.051 -0.3045  0.9000 -0.3468
  844MOL0     C16372   8.053   6.327   5.070  0.8384  0.4813  0.9137
  844MOL0     C16373   8.164   6.274   4.984  1.4568  0.1346  0.6260
  844MOL0     C16374   8.230   6.154   5.046 -0.3694  0.0743  0.7788
  844MOL0     C16375   8.331   6.114   4.942  0.4345  0.6950  0.0124
  844MOL0     C16376   8.272   6.045   4.820 -1.2698  0.5979 -1.9358
  844MOL0     C16377   8.367   5.964   4.743 -1.2436 -0.0331 -0.5872
  844MOL0     C16378   8.412   5.828   4.798 -0.2231 -0.3930 -0.3079
  844MOL0    Cl16379   8.489   5.745   4.661 -0.4707 -0.4592 -0.3437
  844MOL0     C16380   8.000   6.709   4.806 -0.5416  0.4846  0.1669
  844MOL0     C16381   7.946   6.829   4.773 -0.4985 -0.1887  0.3822
  844MOL0     O16382   7.727   6.890   4.559 -0.3026  0.5804 -0.9542
  844MOL0     C16383   7.600   7.185   4.701 -0.3255  0.0676  0.0415
  844MOL0     C16384   7.538   7.308   4.677 -0.1324  0.2395 -0.7039
  844MOL0     N16385   7.120   8.014   4.702  0.6950  0.1056 -0.6578
  844MOL0     N16386   7.144   8.113   4.779 -0.2703 -0.4035 -0.1019
  844MOL0     C16387   6.885   9.303   4.590  0.2727  0.2705  0.7038
  844MOL0     C16388   6.768   9.355   4.529 -0.8025  0.0889  0.5377
  844MOL0     C16389   6.386   9.367   4.297  0.1085 -0.6487  0.3282
  844MOL0     C16390   6.337   9.292   4.193 -0.1847 -0.0577 -0.6015
  844MOL0     C16391   6.209   9.303   4.138 -0.2314 -0.1894 -0.0960
  844MOL0     C16392   6.128   9.403   4.186 -0.1084  0.0175 -0.6758
  844MOL0     O16393   5.994   9.434   4.158  0.1431  0.4286  0.3561
  844MOL0     C16394   5.914   9.338   4.085  0.0963 -0.5085  0.5860
  844MOL0     C16395   5.935   9.381   3.933  0.3805 -0.4039  0.1895
  844MOL0     C16396   5.829   9.317   3.834 -0.7775  0.0082 -0.1694
  844MOL0     C16397   5.874   9.172   3.794 -0.8126 -0.7427  0.4286
  844MOL0     C16398   5.782   9.140   3.686  0.1106 -0.2804  1.0836
  844MOL0     C16399   5.723   9.116   3.579 -0.1592  0.7026 -0.2519
  844MOL0     C16400   6.176   9.481   4.296  0.0296 -0.2031 -0.9066
  844MOL0     C16401   6.303   9.463   4.351  0.2200  0.6841  0.2805
  844MOL0     C16402   6.348   9.562   4.459  0.9478 -1.3408  0.1478
  844MOL0     H16403   6.548   9.108   4.609  2.6228 -3.1826 -0.5820
  844MOL0     H16404   6.739   9.011   4.696  2.2075 -0.7089 -2.0385
  844MOL0     H16405   6.903   8.969   4.812 -2.2894  1.0479 -1.3335
  844MOL0     H16406   7.075   9.008   4.833 -1.3802 -0.6662  1.7083
  844MOL0     H16407   6.945   8.864   4.610  1.6776 -1.0884 -2.8622
  844MOL0     H16408   7.101   8.956   4.582 -0.3900  3.3935  2.5455
  844MOL0     H16409   7.160   8.804   4.804 -1.1381  1.1532  1.5516
  844MOL0     H16410   7.025   8.706   4.757  2.4690 -2.1054  0.0308
  844MOL0     H16411   7.114   8.630   4.567 -0.3902 -1.3368  3.3981
  844MOL0     H16412   7.225   8.775   4.540  0.6595  0.2954  1.3400
  844MOL0     H16413   7.368   8.729   4.703 -0.8634  1.1274 -0.5797
  844MOL0     H16414   7.378   8.594   4.595  0.3826  1.6475 -0.8280
  844MOL0     H16415   7.380   8.540   4.846 -0.4061  3.6213  0.4929
  844MOL0     H16416   7.219   8.591   4.866  2.3414  0.1019  2.8295
  844MOL0     H16417   7.199   8.423   4.630  2.3108 -0.0706 -1.3465
  844MOL0     H16418   7.126   8.411   4.789  0.9302  0.4034 -0.1746
  844MOL0     H16419   7.420   8.313   4.737 -0.3870 -0.7086 -1.1891
  844MOL0     H16420   7.321   8.312   4.882 -1.0252 -0.6824  0.4582
  844MOL0     H16421   7.398   8.133   4.562  0.2991  1.6987  1.8464
  844MOL0     H16422   7.330   7.912   4.464 -0.8082  2.8368 -0.0206
  844MOL0     H16423   7.150   7.875   4.467 -0.2494  0.4155 -0.0318
  844MOL0     H16424   7.339   7.798   4.692 -0.5863  0.0134  0.1010
  844MOL0     H16425   7.180   7.741   4.665  0.4072 -1.4309  0.4523
  844MOL0     H16426   7.260   7.609   4.455 -0.1560 -1.3048  1.2001
  844MOL0     H16427   7.421   7.683   4.475 -1.9234  0.5993 -1.5040
  844MOL0     H16428   7.475   7.578   4.650  2.3843 -0.9266 -4.7790
  844MOL0     H16429   7.322   7.493   4.691  2.7594 -1.3824  0.5845
  844MOL0     H16430   7.493   7.285   4.337 -4.3072  1.8543  1.3509
  844MOL0     H16431   7.598   7.120   4.239 -2.5501 -0.2061  0.9637
  844MOL0     H16432   7.558   6.980   4.333 -0.3543 -0.6823 -0.2508
  844MOL0     H16433   7.733   7.029   4.314 -0.7176 -2.7958  1.4016
  844MOL0     H16434   7.642   6.810   4.895  0.5642  1.9581  0.3288
  844MOL0     H16435   7.737   6.583   4.982  0.6698 -0.1956 -0.7696
  844MOL0     H16436   8.130   6.524   5.074  0.7211 -1.2064 -0.3753
  844MOL0     H16437   7.953   6.515   5.118 -1.3718 -2.0259  0.0551
  844MOL0     H16438   8.070   6.306   5.176 -0.3113 -1.5992  0.7399
  844MOL0     H16439   7.955   6.283   5.048  1.8132 -0.6215 -1.5364
  844MOL0     H16440   8.244   6.349   4.978  2.6978 -1.0709  1.6670
  844MOL0     H16441   8.120   6.246   4.887 -0.4411 -0.3009  1.5618
  844MOL0     H16442   8.157   6.073   5.054 -2.7624  2.2366  2.2453
  844MOL0     H16443   8.280   6.180   5.140 -0.8902 -0.9386  1.3523
  844MOL0     H16444   8.402   6.188   4.905  0.9699 -1.2052 -3.1394
  844MOL0     H16445   8.391   6.046   5.004 -0.0648  1.2163  1.1094
  844MOL0     H16446   8.212   6.107   4.754 -1.1258  0.9045 -1.7811
  844MOL0     H16447   8.195   5.978   4.859 -0.2273  0.2609 -0.3109
  844MOL0     H16448   8.457   6.025   4.733 -0.8508 -0.4709  0.1664
  844MOL0     H16449   8.321   5.940   4.647  2.1110  1.2595 -2.6625
  844MOL0     H16450   8.325   5.771   4.829 -1.1114  0.6269 -0.8562
  844MOL0     H16451   8.473   5.830   4.890 -3.1767 -0.9270  1.7988
  844MOL0     H16452   8.105   6.686   4.789  0.1787  2.1539  1.9341
  844MOL0     H16453   7.993   6.905   4.711  1.2998 -0.2092  1.6311
  844MOL0     H16454   7.616   7.167   4.807 -1.2842  0.1353  0.2094
  844MOL0     H16455   7.514   7.378   4.756 -0.8794 -0.7977  0.0274
  844MOL0     H16456   6.975   9.364   4.585 -0.0110  0.8514  2.2771
  844MOL0     H16457   6.779   9.451   4.479  1.3508 -0.9841 -1.2159
  844MOL0     H16458   6.397   9.214   4.148  1.2067  1.3968 -1.3736
  844MOL0     H16459   6.168   9.229   4.070  0.0794 -1.1540  0.7431
  844MOL0     H16460   5.949   9.236   4.104  0.7748  0.3626  5.1460
  844MOL0     H16461   5.809   9.351   4.113 -0.1629 -1.3935  0.0654
  844MOL0     H16462   6.032   9.357   3.889  1.0997  0.0423  1.5014
  844MOL0     H16463   5.926   9.490   3.938  1.8314 -0.2159 -0.6183
  844MOL0     H16464   5.738   9.317   3.894  0.0711  2.9034  1.3201
  844MOL0     H16465   5.817   9.376   3.743  2.5179 -1.7527 -1.9391
  844MOL0     H16466   5.855   9.104   3.877 -0.4576 -0.0566  1.0891
  844MOL0     H16467   5.977   9.177   3.756 -1.6174  2.3920 -1.7323
  844MOL0     H16468   5.665   9.092   3.493 -0.3952 -1.3045  0.4278
  844MOL0     H16469   6.111   9.559   4.334  1.4274  2.3679 -3.3770
  844MOL0     H16470   6.368   9.515   4.556  1.6485  0.6401  1.0194
  844MOL0     H16471   6.440   9.618   4.437  1.0245 -0.9089  1.4597
  844MOL0     H16472   6.275   9.639   4.486  2.3731 -0.4722  1.7745
  845MOL0     O16473   5.357  11.020   8.732 -0.3118 -0.1387 -0.8540
  845MOL0     C16474   5.259  10.948   8.777 -0.5819 -0.2416 -0.4355
  845MOL0     O16475   5.132  10.990   8.807 -0.2468  0.4866 -0.7247
  845MOL0     C16476   5.119  11.128   8.791  0.2669  0.6047 -0.1816
  845MOL0     C16477   5.068  11.200   8.901  0.0570 -0.3356  0.0281
  845MOL0     C16478   5.028  11.334   8.896  0.0274 -0.1858  0.0916
  845MOL0     C16479   5.040  11.403   8.776 -0.6729 -0.8343  0.0489
  845MOL0     O16480   5.005  11.535   8.760  0.6738  0.2524  0.2541
  845MOL0     C16481   4.861  11.550   8.751 -0.3743 -0.1747  0.5029
  845MOL0     C16482   4.829  11.688   8.716  0.4862  0.4153 -0.0934
  845MOL0     C16483   4.683  11.713   8.748  0.1333  0.9036 -0.0047
  845MOL0     C16484   4.644  11.856   8.701  0.8612 -0.0827  0.7095
  845MOL0     C16485   4.534  11.918   8.785 -0.0819  0.3914  1.1799
  845MOL0     C16486   4.494  12.048   8.720 -0.1130 -0.1137  0.2667
  845MOL0     C16487   4.606  12.148   8.707  0.7086  0.8971 -0.4569
  845MOL0     C16488   4.570  12.276   8.618  0.6266 -0.1213  0.5765
  845MOL0     N16489   4.524  12.241   8.488  0.6777  1.3285  0.3468
  845MOL0     C16490   4.582  12.166   8.386  0.5482  0.0372 -0.7423
  845MOL0     C16491   4.496  12.146   8.290 -0.1733 -0.2198  0.4576
  845MOL0     C16492   4.544  12.036   8.183  0.2851  0.0569 -0.6286
  845MOL0     C16493   4.471  12.015   8.047 -0.0857  0.0686 -1.0706
  845MOL0     C16494   4.338  11.939   8.078 -0.2647 -0.2454 -0.7466
  845MOL0     C16495   4.350  11.790   8.122 -0.3454  0.0971  0.0235
  845MOL0     O16496   4.429  11.703   8.039  0.0310 -0.3620 -1.0428
  845MOL0     C16497   4.487  11.591   8.100 -0.5421  0.7288 -1.7511
  845MOL0     C16498   4.586  11.524   8.033  0.2303  0.3765  0.6437
  845MOL0     C16499   4.664  11.420   8.086 -0.6250  0.2588  0.6489
  845MOL0     C16500   4.780  11.367   8.016 -0.1385 -0.0745 -0.1255
  845MOL0     C16501   4.631  11.369   8.208 -0.6058 -0.1488  0.6476
  845MOL0     C16502   4.707  11.270   8.287 -2.1280 -0.6140  0.4142
  845MOL0     O16503   4.777  11.173   8.214 -0.2539 -0.1339 -0.0531
  845MOL0     C16504   4.897  11.125   8.246  0.7254 -1.5034  0.3004
  845MOL0     C16505   5.004  11.220   8.269 -1.2561  0.1972 -0.4820
  845MOL0     C16506   5.130  11.186   8.306 -0.9689  0.7045  0.3366
  845MOL0     C16507   5.168  11.053   8.292  0.2022 -0.0256 -0.1922
  845MOL0     O16508   5.302  11.015   8.312  0.4534 -1.1114  0.1888
  845MOL0     C16509   5.348  10.883   8.297 -0.2151  0.3146  1.0931
  845MOL0     C16510   5.461  10.872   8.199  0.1867 -0.3711 -0.7593
  845MOL0     C16511   5.510  10.724   8.151  0.8675  0.8810 -0.1688
  845MOL0     C16512   5.554  10.625   8.263  0.7691  0.4594 -0.4169
  845MOL0     C16513   5.631  10.503   8.212 -0.5676 -0.0080 -0.0663
  845MOL0     C16514   5.665  10.411   8.326 -0.1924 -0.1289  0.7999
  845MOL0     C16515   5.534  10.343   8.374 -0.3815 -0.3733 -1.1304
  845MOL0     C16516   5.551  10.262   8.500  0.0688 -0.2533  0.4745
  845MOL0    Cl16517   5.619  10.366   8.633 -0.0506 -0.0643  0.1489
  845MOL0     C16518   5.063  10.957   8.263 -0.0374  0.2491 -0.4438
  845MOL0     C16519   4.931  10.996   8.244  0.6945 -0.8587  0.8396
  845MOL0     O16520   4.738  11.313   8.392  0.2727  0.8014 -1.1304
  845MOL0     C16521   4.519  11.415   8.273 -0.1923 -0.6690  0.7992
  845MOL0     C16522   4.448  11.524   8.222 -0.3457  0.9852  1.0596
  845MOL0     N16523   4.371  12.200   8.322  0.1021  0.3136 -1.1105
  845MOL0     N16524   4.397  12.256   8.445 -0.5132  0.1175 -0.3013
  845MOL0     C16525   5.082  11.335   8.667  0.3263 -1.2822 -0.2945
  845MOL0     C16526   5.115  11.198   8.676  0.5743 -0.1296  0.4059
  845MOL0     C16527   5.291  10.806   8.804 -0.6675 -0.2986  0.2120
  845MOL0     C16528   5.196  10.724   8.877  0.2748 -0.2829  0.9613
  845MOL0     C16529   5.207  10.590   8.909 -0.3479 -0.7899  0.2075
  845MOL0     C16530   5.335  10.531   8.877 -0.0100  0.0729  0.1958
  845MOL0     O16531   5.360  10.405   8.897  0.1896  0.3498  0.1947
  845MOL0     C16532   5.253  10.313   8.911  0.1575 -0.5102  0.3469
  845MOL0     C16533   5.308  10.169   8.926  0.3126 -0.4799 -0.1831
  845MOL0     C16534   5.394  10.134   8.815  0.0072  0.7801 -0.2379
  845MOL0     C16535   5.439   9.985   8.832  0.4425  0.0972 -0.6568
  845MOL0     C16536   5.542   9.953   8.730 -0.3093 -0.1666  0.6301
  845MOL0     C16537   5.623   9.913   8.649 -0.0177  0.3487  0.3448
  845MOL0     C16538   5.436  10.612   8.827  0.8004  0.4268  0.5892
  845MOL0     C16539   5.417  10.743   8.778  0.1882 -0.3081 -0.0298
  845MOL0     C16540   5.526  10.801   8.691  0.2123  0.3211 -0.6237
  845MOL0     H16541   5.073  11.150   8.997  1.7988  2.4277  1.4934
  845MOL0     H16542   5.000  11.395   8.981  3.6216  1.3476  0.3816
  845MOL0     H16543   4.807  11.514   8.839 -0.0445 -1.0373  0.3621
  845MOL0     H16544   4.833  11.480   8.671 -0.3863 -0.5189  0.8061
  845MOL0     H16545   4.893  11.766   8.757  0.5890 -0.6605  1.8915
  845MOL0     H16546   4.851  11.702   8.610 -0.6194  1.1341 -0.2390
  845MOL0     H16547   4.625  11.641   8.689  2.4067 -0.8111 -0.2920
  845MOL0     H16548   4.656  11.699   8.853  0.6618  4.3522  0.7040
  845MOL0     H16549   4.731  11.921   8.717 -1.1451  2.6906  0.9448
  845MOL0     H16550   4.636  11.854   8.592  0.9211  4.5131  0.4135
  845MOL0     H16551   4.556  11.919   8.892 -0.4953  0.5515  1.2655
  845MOL0     H16552   4.452  11.847   8.768  0.8995 -0.0378 -2.8179
  845MOL0     H16553   4.464  12.013   8.621  0.9520 -1.2727  0.3252
  845MOL0     H16554   4.404  12.097   8.760 -1.2326  0.6052 -2.8278
  845MOL0     H16555   4.693  12.097   8.665  1.1219  0.9925  0.2654
  845MOL0     H16556   4.636  12.173   8.809  1.4100 -0.9571 -0.1744
  845MOL0     H16557   4.499  12.339   8.672  0.8812 -0.1983  1.0104
  845MOL0     H16558   4.656  12.344   8.624 -0.4473  1.1762  2.3647
  845MOL0     H16559   4.688  12.144   8.379  0.2835 -0.7947 -2.4719
  845MOL0     H16560   4.552  11.945   8.242  0.8323 -1.5875 -3.0825
  845MOL0     H16561   4.644  12.070   8.154  0.6872  1.2629  1.9526
  845MOL0     H16562   4.449  12.108   7.993  2.2581  1.6830  0.5862
  845MOL0     H16563   4.527  11.946   7.983 -2.0517 -0.1933 -2.6243
  845MOL0     H16564   4.282  11.993   8.154  1.8154  0.9011  0.0623
  845MOL0     H16565   4.275  11.949   7.990 -0.0837  2.0198 -0.6784
  845MOL0     H16566   4.398  11.795   8.220  0.7913  1.8084 -0.5815
  845MOL0     H16567   4.245  11.757   8.124 -0.3334  0.0348  1.6855
  845MOL0     H16568   4.629  11.567   7.943  2.7657 -0.7224  1.2415
  845MOL0     H16569   4.762  11.262   7.992 -1.4058 -0.1169  0.9187
  845MOL0     H16570   4.874  11.384   8.070 -0.5246  1.6983  0.0407
  845MOL0     H16571   4.795  11.423   7.923 -1.0663  1.8658  0.8477
  845MOL0     H16572   4.971  11.322   8.251  0.9005  1.5142  2.2288
  845MOL0     H16573   5.203  11.262   8.331  1.3252 -0.8805 -1.1153
  845MOL0     H16574   5.367  10.840   8.396  0.6457 -1.7451  0.0996
  845MOL0     H16575   5.272  10.816   8.257  1.6830  0.5102 -3.5004
  845MOL0     H16576   5.433  10.936   8.114  1.0919 -0.7967 -1.3938
  845MOL0     H16577   5.550  10.919   8.240  0.3277 -1.4714  0.2369
  845MOL0     H16578   5.584  10.729   8.071 -1.3020 -2.7629 -2.6900
  845MOL0     H16579   5.428  10.675   8.098 -1.2579  3.5132  0.4495
  845MOL0     H16580   5.471  10.610   8.332 -2.1082  0.4844 -3.6196
  845MOL0     H16581   5.624  10.669   8.335 -1.1826 -1.4459  2.9404
  845MOL0     H16582   5.563  10.454   8.142  0.0064 -1.3050  0.2528
  845MOL0     H16583   5.721  10.538   8.160  1.2511  0.3864  3.0771
  845MOL0     H16584   5.710  10.470   8.407  2.7014  3.1322 -2.8020
  845MOL0     H16585   5.730  10.333   8.285  0.0318  0.3489  0.2482
  845MOL0     H16586   5.493  10.276   8.299 -0.0617  0.7652 -2.3538
  845MOL0     H16587   5.450  10.409   8.398  0.6130  0.8191 -0.8402
  845MOL0     H16588   5.621  10.183   8.471  1.8313  1.6562 -0.7512
  845MOL0     H16589   5.457  10.214   8.528 -1.0639  1.5526 -0.0852
  845MOL0     H16590   5.085  10.851   8.257  0.9734  0.1010  3.2461
  845MOL0     H16591   4.852  10.927   8.215 -0.3545  1.0065 -1.0508
  845MOL0     H16592   4.478  11.379   8.366 -0.8941 -3.3042 -0.4281
  845MOL0     H16593   4.353  11.558   8.261 -2.2250 -2.4157 -0.1262
  845MOL0     H16594   5.084  11.377   8.567  2.2028 -1.5460 -0.4077
  845MOL0     H16595   5.145  11.147   8.585 -0.9995  2.2181 -1.5565
  845MOL0     H16596   5.099  10.769   8.899 -0.5459 -1.4797 -0.0245
  845MOL0     H16597   5.119  10.533   8.938 -1.3192  1.0163  0.9204
  845MOL0     H16598   5.201  10.339   9.004  0.7873 -1.1675  0.9003
  845MOL0     H16599   5.185  10.313   8.826  0.5305 -2.4611 -0.0082
  845MOL0     H16600   5.223  10.102   8.943  0.4871 -0.7860 -0.5205
  845MOL0     H16601   5.363  10.159   9.019 -2.2216 -1.6661  1.3094
  845MOL0     H16602   5.337  10.146   8.722  0.6609 -2.0208 -1.1157
  845MOL0     H16603   5.489  10.187   8.813  1.8179 -2.2297 -1.9607
  845MOL0     H16604   5.363   9.906   8.826  1.8728 -1.2489 -2.1767
  845MOL0     H16605   5.488   9.961   8.927  0.4291 -0.9590 -0.8963
  845MOL0     H16606   5.681   9.862   8.575 -1.5445  1.4986 -1.7449
  845MOL0     H16607   5.526  10.561   8.795  0.4440  1.5682 -2.6025
  845MOL0     H16608   5.477  10.838   8.600  0.7420  0.6587 -0.7741
  845MOL0     H16609   5.551  10.888   8.751  0.2890 -1.5683  2.2743
  845MOL0     H16610   5.612  10.736   8.674 -1.1926 -1.9150  0.2694
  846MOL0     O16611   2.168   0.632   4.564  0.1793  0.1142  0.7114
  846MOL0     C16612   2.223   0.541   4.504  0.3784  0.4160  0.1618
  846MOL0     O16613   2.281   0.430   4.555 -0.1779 -0.0141 -0.2821
  846MOL0     C16614   2.290   0.413   4.690 -0.3537  0.6758 -0.2390
  846MOL0     C16615   2.235   0.294   4.749  0.7463  0.0567 -0.2950
  846MOL0     C16616   2.242   0.280   4.885 -0.1188  0.4565 -0.1328
  846MOL0     C16617   2.309   0.373   4.965  0.5812  0.9553 -0.2863
  846MOL0     O16618   2.312   0.374   5.097 -0.1645 -0.0357  0.5822
  846MOL0     C16619   2.364   0.259   5.159  0.4999 -0.0974 -0.1397
  846MOL0     C16620   2.425   0.285   5.292 -0.7106  0.0099 -0.7799
  846MOL0     C16621   2.327   0.328   5.401 -0.8186 -0.2501  0.1217
  846MOL0     C16622   2.399   0.406   5.503 -1.8553 -0.5076 -0.7425
  846MOL0     C16623   2.319   0.423   5.624  0.4161 -0.0689 -0.1366
  846MOL0     C16624   2.201   0.513   5.610  0.0416 -0.2163  0.0626
  846MOL0     C16625   2.136   0.525   5.746  0.2548 -0.0887  0.3539
  846MOL0     C16626   2.008   0.619   5.750 -0.3890 -0.3394 -1.0608
  846MOL0     N16627   1.889   0.552   5.696  0.3994  0.0322  0.8336
  846MOL0     C16628   1.837   0.423   5.706 -0.3320 -0.6137 -0.3491
  846MOL0     C16629   1.730   0.416   5.623  0.6020  0.1525 -0.1334
  846MOL0     C16630   1.652   0.295   5.579 -0.3018 -0.4089 -0.5235
  846MOL0     C16631   1.548   0.242   5.683  0.6646 -0.3019 -0.1170
  846MOL0     C16632   1.419   0.323   5.665 -0.0092  0.2881  0.2102
  846MOL0     C16633   1.343   0.272   5.546 -0.3683 -0.0533 -0.3111
  846MOL0     O16634   1.306   0.128   5.564  0.4803 -0.7929 -0.1969
  846MOL0     C16635   1.253   0.065   5.457 -0.2551  0.6372  0.3698
  846MOL0     C16636   1.187   0.126   5.343 -0.1559  0.3815 -0.4582
  846MOL0     C16637   1.128   0.043   5.248  0.8142  1.2945  0.4080
  846MOL0     C16638   1.056   0.115   5.139  0.4422 -0.1090  0.4598
  846MOL0     C16639   1.144  -0.094   5.252  0.0577 -0.2668 -0.4477
  846MOL0     C16640   1.072  -0.191   5.157  0.3557  0.0444 -0.9855
  846MOL0     O16641   1.130  -0.309   5.167 -0.5103 -0.2652  0.2511
  846MOL0     C16642   1.056  -0.409   5.114 -0.2140  0.9183  1.4743
  846MOL0     C16643   1.096  -0.469   4.992 -0.2319  0.0006 -0.7245
  846MOL0     C16644   1.014  -0.570   4.928 -0.4941 -1.1936  0.4656
  846MOL0     C16645   0.878  -0.598   4.974 -0.3059 -0.4706 -0.9935
  846MOL0     O16646   0.794  -0.688   4.916  0.0415 -0.0586  0.3021
  846MOL0     C16647   0.752  -0.637   4.788 -0.0168 -0.4934  0.1461
  846MOL0     C16648   0.613  -0.694   4.754  0.3962 -0.5585  0.7977
  846MOL0     C16649   0.513  -0.680   4.878 -0.4043 -0.5437  0.2872
  846MOL0     C16650   0.378  -0.616   4.836 -0.3851 -0.1140  0.8418
  846MOL0     C16651   0.382  -0.467   4.823 -0.7268 -0.2140 -0.3650
  846MOL0     C16652   0.250  -0.392   4.842  0.5344  0.0364  0.0302
  846MOL0     C16653   0.253  -0.239   4.816  0.2447 -0.6913 -0.8422
  846MOL0     C16654   0.117  -0.166   4.797  0.1392  0.3352 -0.2799
  846MOL0    Cl16655   0.144   0.014   4.807 -0.1469 -0.2526 -0.1358
  846MOL0     C16656   0.839  -0.547   5.096  0.4237 -0.6083 -0.7951
  846MOL0     C16657   0.926  -0.454   5.164  0.3911 -0.0329 -0.0610
  846MOL0     O16658   0.985  -0.148   5.084  0.2503  0.0782  0.5504
  846MOL0     C16659   1.223  -0.153   5.357  0.7847  0.5605  0.8875
  846MOL0     C16660   1.276  -0.074   5.459  0.1158  0.6157 -0.4684
  846MOL0     N16661   1.703   0.543   5.573 -0.2233  1.0786  1.0776
  846MOL0     N16662   1.805   0.617   5.610 -0.3885 -0.2275 -0.9473
  846MOL0     C16663   2.348   0.490   4.901 -1.6766 -0.1768  0.0557
  846MOL0     C16664   2.342   0.512   4.766  1.1342  0.0656 -0.0611
  846MOL0     C16665   2.236   0.566   4.365 -0.3643  0.4578  0.2257
  846MOL0     C16666   2.315   0.674   4.330 -0.4815 -0.1139  0.3386
  846MOL0     C16667   2.343   0.695   4.191  0.5039 -0.2035 -0.2153
  846MOL0     C16668   2.310   0.602   4.091  0.0601 -0.3051  0.2408
  846MOL0     O16669   2.332   0.634   3.960  0.1854  0.1060  0.9527
  846MOL0     C16670   2.347   0.526   3.866  0.1770 -0.7815  0.8214
  846MOL0     C16671   2.213   0.482   3.786  0.4119 -0.1524 -0.1831
  846MOL0     C16672   2.113   0.590   3.758 -0.2039  0.3291  0.2815
  846MOL0     C16673   2.006   0.541   3.661  0.2092  0.1687  0.2271
  846MOL0     C16674   1.907   0.644   3.635 -1.1304  0.2982  0.0904
  846MOL0     C16675   1.838   0.739   3.608 -0.6276 -0.4605  0.5754
  846MOL0     C16676   2.244   0.485   4.134 -0.9558  0.1844  0.8617
  846MOL0     C16677   2.203   0.469   4.267 -0.2276  0.5451  0.3636
  846MOL0     C16678   2.133   0.343   4.306  0.0748  0.7841 -0.0897
  846MOL0     H16679   2.191   0.211   4.694  2.6465 -0.9420 -0.4027
  846MOL0     H16680   2.191   0.198   4.934 -3.1961  0.6571 -2.7114
  846MOL0     H16681   2.442   0.213   5.096  1.0570 -1.5044  1.4966
  846MOL0     H16682   2.284   0.185   5.167  1.1049 -1.0310 -1.9801
  846MOL0     H16683   2.459   0.186   5.324  2.7872  0.6366 -2.0821
  846MOL0     H16684   2.507   0.357   5.289 -0.6057 -0.1040 -0.6504
  846MOL0     H16685   2.241   0.382   5.360 -0.7333  1.6684  2.2363
  846MOL0     H16686   2.294   0.236   5.450 -0.0655 -0.6428 -0.0963
  846MOL0     H16687   2.485   0.356   5.548  0.2357  3.6251  0.2607
  846MOL0     H16688   2.436   0.500   5.462  2.2437 -1.2851  0.7050
  846MOL0     H16689   2.380   0.482   5.695 -3.5337  0.8520  2.8424
  846MOL0     H16690   2.307   0.322   5.664 -2.7078  0.5302  0.6866
  846MOL0     H16691   2.239   0.610   5.577 -3.0916  0.7700 -1.1035
  846MOL0     H16692   2.122   0.477   5.542 -1.4654  3.4508 -0.3936
  846MOL0     H16693   2.209   0.566   5.816  1.1243  0.5023 -0.8824
  846MOL0     H16694   2.093   0.432   5.784 -1.0642  0.3972  0.1258
  846MOL0     H16695   1.985   0.655   5.851  4.4160 -0.3787  0.2737
  846MOL0     H16696   2.021   0.709   5.689  0.4834 -0.6486 -1.3368
  846MOL0     H16697   1.890   0.342   5.757  3.4619  1.1722 -1.0722
  846MOL0     H16698   1.735   0.223   5.576  1.3067  1.3719 -1.0146
  846MOL0     H16699   1.601   0.316   5.484 -0.2488  1.1313 -0.2333
  846MOL0     H16700   1.536   0.135   5.661 -0.1001  0.2355 -2.7196
  846MOL0     H16701   1.591   0.258   5.782  0.8868 -0.5948 -0.1653
  846MOL0     H16702   1.361   0.328   5.757 -0.7427  0.5101 -0.2598
  846MOL0     H16703   1.466   0.421   5.649  3.0082 -1.3849 -2.1797
  846MOL0     H16704   1.255   0.336   5.537 -0.7654 -0.2404  1.6862
  846MOL0     H16705   1.401   0.279   5.453  0.4449  0.2410  0.2066
  846MOL0     H16706   1.170   0.233   5.345 -0.2783  0.4387  3.3417
  846MOL0     H16707   1.076   0.223   5.138 -0.2769  0.0320 -0.8747
  846MOL0     H16708   0.948   0.099   5.145 -0.1771  0.0511 -4.9002
  846MOL0     H16709   1.086   0.080   5.039  1.3761 -0.1704  0.7480
  846MOL0     H16710   1.192  -0.438   4.952 -0.2516  0.4560 -0.4255
  846MOL0     H16711   1.040  -0.623   4.838  1.9738 -0.4399  0.6659
  846MOL0     H16712   0.742  -0.528   4.785 -3.8312 -0.6442 -4.3992
  846MOL0     H16713   0.817  -0.680   4.711 -2.4715 -2.2830 -1.0770
  846MOL0     H16714   0.582  -0.637   4.667  1.9890 -0.7930  0.0506
  846MOL0     H16715   0.616  -0.798   4.719 -1.7162  0.6496 -3.7274
  846MOL0     H16716   0.548  -0.641   4.974  0.7406 -0.7716 -0.0265
  846MOL0     H16717   0.489  -0.783   4.905  0.1990 -0.9822 -0.8357
  846MOL0     H16718   0.317  -0.642   4.924  0.8543 -0.6625  1.5660
  846MOL0     H16719   0.336  -0.667   4.749 -0.4320  1.1039  0.1397
  846MOL0     H16720   0.449  -0.430   4.901 -1.8074 -2.3641  1.7054
  846MOL0     H16721   0.426  -0.442   4.726  2.7195 -0.3026  1.0285
  846MOL0     H16722   0.200  -0.411   4.938  3.9103  0.3684  1.9979
  846MOL0     H16723   0.183  -0.434   4.766  2.0390  1.2685 -2.0906
  846MOL0     H16724   0.310  -0.210   4.728  0.6537 -2.1173 -1.0741
  846MOL0     H16725   0.296  -0.185   4.901 -1.8675  0.9720 -0.7428
  846MOL0     H16726   0.039  -0.203   4.864  0.4682 -1.7452 -1.0015
  846MOL0     H16727   0.093  -0.195   4.695  1.0211 -0.3565 -0.3069
  846MOL0     H16728   0.746  -0.573   5.146  2.2008 -1.8527  2.1626
  846MOL0     H16729   0.890  -0.399   5.251 -0.7072  1.3502 -1.3426
  846MOL0     H16730   1.240  -0.260   5.368 -1.4322 -0.0253 -0.7742
  846MOL0     H16731   1.329  -0.130   5.536  0.3984  1.5973  0.0692
  846MOL0     H16732   2.380   0.568   4.970  0.3021 -0.0073 -0.9701
  846MOL0     H16733   2.368   0.607   4.721  3.3520 -0.1462  0.6345
  846MOL0     H16734   2.357   0.733   4.411  2.6790 -3.2745  1.2935
  846MOL0     H16735   2.381   0.791   4.159  1.4606 -1.1641 -2.0970
  846MOL0     H16736   2.414   0.571   3.792 -0.1685  1.2570  1.6603
  846MOL0     H16737   2.394   0.438   3.910  2.3963  0.8011  1.7691
  846MOL0     H16738   2.165   0.410   3.852 -2.0680  1.9241  0.4567
  846MOL0     H16739   2.245   0.439   3.690  1.7939  0.3883  0.0128
  846MOL0     H16740   2.068   0.618   3.854  0.3556 -0.1065  0.6796
  846MOL0     H16741   2.150   0.685   3.717 -4.8374  2.5547  0.6212
  846MOL0     H16742   1.959   0.447   3.691 -0.4965  0.4325 -0.0306
  846MOL0     H16743   2.061   0.519   3.570 -0.1929  1.4542 -0.3409
  846MOL0     H16744   1.773   0.824   3.605  0.1662  0.1426  0.0318
  846MOL0     H16745   2.213   0.399   4.074 -0.1103 -2.8278  4.3548
  846MOL0     H16746   2.174   0.294   4.395  0.6877 -1.7091 -1.6268
  846MOL0     H16747   2.030   0.375   4.318 -1.4778 -2.5543 -2.7158
  846MOL0     H16748   2.132   0.273   4.222  0.1198  0.0561  0.4991
  847MOL0     O16749   7.401   5.978   7.144 -0.1067  0.0631  0.2049
  847MOL0     C16750   7.370   6.038   7.240 -0.4639 -0.7931  0.0106
  847MOL0     O16751   7.443   6.142   7.289  0.5440 -0.2896  0.5043
  847MOL0     C16752   7.562   6.178   7.222 -0.1635 -0.4942 -0.8464
  847MOL0     C16753   7.551   6.259   7.119 -0.4154  0.4628 -0.1759
  847MOL0     C16754   7.669   6.297   7.045  0.0629 -0.1321  0.4070
  847MOL0     C16755   7.795   6.256   7.090 -0.0609 -0.9305  0.7854
  847MOL0     O16756   7.908   6.290   7.016 -0.1558  0.3864 -0.5274
  847MOL0     C16757   7.924   6.426   7.012  0.4519  0.0285 -0.0516
  847MOL0     C16758   8.018   6.468   7.129 -0.3173 -0.2349 -1.2512
  847MOL0     C16759   8.037   6.622   7.130 -0.2455  0.8488 -0.0428
  847MOL0     C16760   7.911   6.705   7.153  0.7657 -0.0092 -0.7215
  847MOL0     C16761   7.941   6.853   7.189 -1.2270  0.3415 -0.3040
  847MOL0     C16762   7.831   6.922   7.274 -0.5617 -1.6104 -0.6033
  847MOL0     C16763   7.704   6.959   7.196 -0.6789  0.5627 -0.1756
  847MOL0     C16764   7.711   7.098   7.134  0.0139 -0.1542 -0.3798
  847MOL0     N16765   7.804   7.119   7.020  0.2425  0.0620 -0.0711
  847MOL0     C16766   7.936   7.146   7.014  0.7745 -0.5876 -0.4424
  847MOL0     C16767   7.963   7.172   6.883  0.2887  0.7142  0.5179
  847MOL0     C16768   8.080   7.254   6.844  0.3210  0.3467 -0.9184
  847MOL0     C16769   8.222   7.195   6.880 -0.2423 -1.0673 -0.5304
  847MOL0     C16770   8.340   7.275   6.840  0.4561  0.1688 -0.1116
  847MOL0     C16771   8.356   7.415   6.899 -0.6005  0.3963 -0.1698
  847MOL0     O16772   8.371   7.403   7.041 -0.3230  0.5659 -0.5859
  847MOL0     C16773   8.386   7.522   7.106 -0.3080 -0.4958  0.2524
  847MOL0     C16774   8.365   7.650   7.052 -0.8542 -0.5539 -0.0318
  847MOL0     C16775   8.398   7.768   7.126  0.1896 -0.1878 -0.1891
  847MOL0     C16776   8.373   7.902   7.062  0.0592 -0.2742 -0.1597
  847MOL0     C16777   8.422   7.758   7.261  1.1332  0.6396  1.0927
  847MOL0     C16778   8.411   7.866   7.360 -0.2442 -0.9633  0.1500
  847MOL0     O16779   8.514   7.871   7.455  0.8838 -0.7443 -0.7493
  847MOL0     C16780   8.531   7.971   7.544 -0.7618 -0.4454 -1.0622
  847MOL0     C16781   8.510   8.105   7.509  0.0661 -0.0735 -0.7179
  847MOL0     C16782   8.530   8.207   7.597  0.8263  0.5718  0.7921
  847MOL0     C16783   8.589   8.182   7.716 -0.4648  0.2555  0.4678
  847MOL0     O16784   8.609   8.279   7.815 -0.6804 -0.2993  0.0396
  847MOL0     C16785   8.706   8.374   7.765  0.7479 -0.8813  0.1290
  847MOL0     C16786   8.766   8.453   7.884  0.2866  0.1344 -0.2970
  847MOL0     C16787   8.891   8.531   7.832 -0.6062  0.7711 -0.1330
  847MOL0     C16788   8.929   8.633   7.945  0.5370  0.1793  0.8272
  847MOL0     C16789   9.049   8.724   7.913  0.3848  0.0260 -0.1258
  847MOL0     C16790   9.173   8.669   7.852  0.2020 -0.7845 -0.1718
  847MOL0     C16791   9.264   8.776   7.792  0.0835 -0.2096 -0.4462
  847MOL0     C16792   9.224   8.814   7.645 -0.5198 -0.0934 -0.0471
  847MOL0    Cl16793   9.310   8.948   7.580  0.0982 -0.0404 -0.1142
  847MOL0     C16794   8.618   8.049   7.757 -0.1589 -0.7373  0.2424
  847MOL0     C16795   8.592   7.946   7.669 -0.2308  0.1973  0.5416
  847MOL0     O16796   8.304   7.925   7.368 -0.4390 -0.3986  0.9023
  847MOL0     C16797   8.457   7.631   7.314  0.5148 -0.1692 -0.7767
  847MOL0     C16798   8.430   7.519   7.237  0.8093  0.1373  0.1350
  847MOL0     N16799   7.852   7.144   6.801  0.4841  0.8103 -0.5432
  847MOL0     N16800   7.761   7.113   6.890  0.2578 -1.2219  1.0620
  847MOL0     C16801   7.804   6.188   7.207  0.4932  0.8963  0.6019
  847MOL0     C16802   7.689   6.140   7.273  0.4408 -0.4237 -0.7370
  847MOL0     C16803   7.245   5.996   7.312  0.4226  0.1986  0.0936
  847MOL0     C16804   7.167   5.888   7.260 -0.4627 -0.2757 -0.0812
  847MOL0     C16805   7.044   5.852   7.318  0.7714  0.0940 -0.2899
  847MOL0     C16806   6.997   5.934   7.420  0.0558 -0.4770 -0.2744
  847MOL0     O16807   6.868   5.909   7.466 -0.1794  0.0179 -0.1962
  847MOL0     C16808   6.865   5.837   7.594 -0.3894  1.3740  0.2223
  847MOL0     C16809   6.768   5.896   7.693  0.1555 -0.3435  0.1225
  847MOL0     C16810   6.622   5.878   7.644 -0.1867 -0.5674 -0.4795
  847MOL0     C16811   6.565   6.008   7.591 -0.2031  0.5583 -0.1467
  847MOL0     C16812   6.532   6.088   7.708  0.0446 -0.6323 -0.1159
  847MOL0     C16813   6.521   6.157   7.814 -0.7919  0.0420  0.1999
  847MOL0     C16814   7.073   6.036   7.476 -0.5091  0.3953  0.0518
  847MOL0     C16815   7.203   6.067   7.427 -0.3872  1.2895  0.6117
  847MOL0     C16816   7.280   6.181   7.500 -0.1637 -0.2718  0.1833
  847MOL0     H16817   7.452   6.294   7.094 -1.3250  0.3049  2.8380
  847MOL0     H16818   7.658   6.352   6.953  1.3785 -0.9427 -0.2655
  847MOL0     H16819   7.832   6.483   7.021 -1.1184 -2.3960  0.1522
  847MOL0     H16820   7.980   6.444   6.919  1.2427  0.8958  0.5741
  847MOL0     H16821   7.978   6.423   7.220 -1.6897 -1.6910 -2.4927
  847MOL0     H16822   8.112   6.416   7.106 -0.0524  0.9272 -2.9452
  847MOL0     H16823   8.114   6.661   7.197 -1.3541  0.7229  1.3492
  847MOL0     H16824   8.068   6.645   7.027  1.6299 -2.8365 -0.4392
  847MOL0     H16825   7.855   6.713   7.060  0.1157 -4.7953 -0.9709
  847MOL0     H16826   7.849   6.671   7.236  0.0399  2.7331 -0.0324
  847MOL0     H16827   7.975   6.916   7.106  0.9868 -0.1540  0.1527
  847MOL0     H16828   8.028   6.846   7.255 -0.9214  1.0044 -0.6301
  847MOL0     H16829   7.811   6.866   7.365 -2.7107 -1.7932 -1.1393
  847MOL0     H16830   7.879   7.013   7.311  0.6033 -2.1276 -0.7811
  847MOL0     H16831   7.631   6.976   7.275  0.8309  0.0928  1.3928
  847MOL0     H16832   7.685   6.877   7.126  0.9125 -1.1285  1.2512
  847MOL0     H16833   7.610   7.097   7.094 -0.3443 -2.8540  0.4211
  847MOL0     H16834   7.719   7.179   7.208  1.4745  0.3969 -1.1039
  847MOL0     H16835   8.002   7.154   7.100  0.5212 -2.0320 -0.0823
  847MOL0     H16836   8.051   7.348   6.893 -0.2152 -0.4143  0.2807
  847MOL0     H16837   8.080   7.268   6.736 -2.0135  1.2848 -0.8558
  847MOL0     H16838   8.241   7.180   6.986 -0.3352  1.7155 -0.0628
  847MOL0     H16839   8.228   7.092   6.843 -0.9078 -0.6873 -1.7490
  847MOL0     H16840   8.427   7.216   6.871  0.2820  0.5534  1.1569
  847MOL0     H16841   8.339   7.280   6.730 -1.6745  0.6006 -0.1150
  847MOL0     H16842   8.452   7.453   6.861  0.6317 -4.0279 -2.1978
  847MOL0     H16843   8.274   7.481   6.872  0.7133  3.0575  1.8817
  847MOL0     H16844   8.333   7.677   6.952  1.0085  0.1136 -0.4940
  847MOL0     H16845   8.373   7.898   6.953 -2.9674 -0.4429 -0.2222
  847MOL0     H16846   8.451   7.970   7.096 -0.0818 -1.2975  2.4338
  847MOL0     H16847   8.275   7.936   7.095  0.9795  1.2683  1.1037
  847MOL0     H16848   8.465   8.139   7.416  2.1960  2.0198 -1.0725
  847MOL0     H16849   8.488   8.302   7.566 -1.5072 -0.7007 -0.2309
  847MOL0     H16850   8.781   8.319   7.706  1.0889  0.8911 -1.1510
  847MOL0     H16851   8.657   8.443   7.697  0.8280 -0.5346  0.4151
  847MOL0     H16852   8.688   8.525   7.911  0.9048  1.4190 -1.7890
  847MOL0     H16853   8.780   8.400   7.979 -2.2065 -0.0964 -0.0008
  847MOL0     H16854   8.883   8.583   7.736  3.0515  1.4684 -0.2116
  847MOL0     H16855   8.968   8.454   7.832  0.1501  1.5024 -0.6600
  847MOL0     H16856   8.966   8.565   8.022  0.2201 -2.4538 -1.2032
  847MOL0     H16857   8.842   8.694   7.974 -1.2683 -2.8758  2.2688
  847MOL0     H16858   9.002   8.798   7.847 -3.1648 -3.7495 -2.2916
  847MOL0     H16859   9.091   8.783   7.995  0.4522  3.1268 -2.1801
  847MOL0     H16860   9.148   8.591   7.780  3.8450 -1.0455 -1.3655
  847MOL0     H16861   9.218   8.611   7.934  0.0156 -0.6482  0.0269
  847MOL0     H16862   9.358   8.720   7.792  2.3798  3.1721  3.1663
  847MOL0     H16863   9.276   8.852   7.870 -0.4029 -0.4482 -0.1374
  847MOL0     H16864   9.117   8.838   7.641 -0.8249 -0.2657  3.7821
  847MOL0     H16865   9.236   8.731   7.575  1.7524  3.1486 -3.9556
  847MOL0     H16866   8.652   8.030   7.858  1.7291  1.3817  0.0803
  847MOL0     H16867   8.617   7.844   7.696 -1.9280 -0.1770  0.8221
  847MOL0     H16868   8.460   7.626   7.422 -1.8234 -2.0719 -0.7110
  847MOL0     H16869   8.446   7.417   7.270 -3.4953 -0.6600  0.4157
  847MOL0     H16870   7.904   6.168   7.245 -0.3917 -1.0475  2.1043
  847MOL0     H16871   7.694   6.088   7.368 -0.4450 -2.0457 -1.5298
  847MOL0     H16872   7.190   5.840   7.165 -0.9562 -2.1329  0.6773
  847MOL0     H16873   6.974   5.781   7.273 -2.1530  2.4504  0.2009
  847MOL0     H16874   6.835   5.733   7.582  1.4905  0.8547 -0.3759
  847MOL0     H16875   6.970   5.827   7.622  0.2256  0.3618 -2.1471
  847MOL0     H16876   6.796   6.002   7.702  2.3888 -0.3996 -3.8690
  847MOL0     H16877   6.781   5.854   7.793  1.6405  3.1182  1.5768
  847MOL0     H16878   6.601   5.802   7.568 -0.8981  0.6783 -1.5735
  847MOL0     H16879   6.570   5.843   7.734  1.6760  1.3714  1.4527
  847MOL0     H16880   6.474   5.981   7.537 -1.7236  4.0443  0.4238
  847MOL0     H16881   6.639   6.050   7.522  3.4390 -3.2425  0.9632
  847MOL0     H16882   6.496   6.227   7.892 -1.1921  0.7360 -0.5386
  847MOL0     H16883   7.036   6.100   7.556 -0.4877  1.3939 -0.7275
  847MOL0     H16884   7.260   6.264   7.432  2.3265 -0.1033 -0.4466
  847MOL0     H16885   7.236   6.218   7.593 -2.4012 -0.8643 -0.5788
  847MOL0     H16886   7.385   6.155   7.520 -0.1965 -0.4400  0.1426
  848MOL0     O16887   9.108   1.029  10.005  0.3225 -0.1223  0.5457
  848MOL0     C16888   9.136   1.114  10.088 -0.7414 -0.6350 -0.5241
  848MOL0     O16889   9.139   1.094  10.230 -0.4441 -0.0040  0.1678
  848MOL0     C16890   9.078   0.997  10.300  0.2881 -0.4697  0.1400
  848MOL0     C16891   9.115   0.968  10.432 -0.6033 -0.2198 -0.1863
  848MOL0     C16892   9.058   0.874  10.513 -0.0250  0.3828  0.6763
  848MOL0     C16893   8.953   0.804  10.470 -0.1617  0.2406 -0.3800
  848MOL0     O16894   8.900   0.712  10.553  0.3519  0.7254 -0.0536
  848MOL0     C16895   8.808   0.617  10.489 -0.6246  0.5366 -0.4113
  848MOL0     C16896   8.804   0.495  10.579  0.3559  1.0000 -0.0606
  848MOL0     C16897   8.744   0.522  10.717  0.3350 -0.1356  0.3675
  848MOL0     C16898   8.835   0.603  10.819 -0.0197  0.0365 -0.7153
  848MOL0     C16899   8.797   0.564  10.964  0.0461  0.1467 -0.2471
  848MOL0     C16900   8.854   0.661  11.069 -0.2609  0.6904 -0.2683
  848MOL0     C16901   8.785   0.647  11.210 -0.3118  0.2696  0.1738
  848MOL0     C16902   8.842   0.752  11.303  1.2444  0.1247  0.1052
  848MOL0     N16903   8.771   0.878  11.288 -0.2191 -0.4664 -0.1261
  848MOL0     C16904   8.828   0.983  11.224 -0.4830 -0.0507  0.1805
  848MOL0     C16905   8.744   1.081  11.250 -0.6365  1.0888 -0.8913
  848MOL0     C16906   8.774   1.227  11.209  0.7008  0.4031  0.5860
  848MOL0     C16907   8.674   1.284  11.095 -0.7912 -0.2368  0.7178
  848MOL0     C16908   8.703   1.430  11.053 -1.2218 -0.3460  0.5968
  848MOL0     C16909   8.614   1.483  10.942 -0.1693 -0.7802  0.1660
  848MOL0     O16910   8.642   1.630  10.923  0.0736  1.0463 -0.0181
  848MOL0     C16911   8.609   1.680  10.801  0.2948 -0.2860  1.0608
  848MOL0     C16912   8.496   1.759  10.771  0.2379 -0.0362  0.1045
  848MOL0     C16913   8.475   1.823  10.648 -0.1945  0.1332  0.8838
  848MOL0     C16914   8.336   1.884  10.629 -0.4811  0.3451  0.6222
  848MOL0     C16915   8.580   1.825  10.549  0.5349  0.5083  0.1825
  848MOL0     C16916   8.579   1.900  10.419  0.0594  0.7245 -0.5850
  848MOL0     O16917   8.503   2.014  10.410  0.1384 -0.4449  0.2890
  848MOL0     C16918   8.489   2.069  10.287 -0.7148  0.0660  0.3717
  848MOL0     C16919   8.386   2.011  10.204 -0.3206  0.8906  0.1785
  848MOL0     C16920   8.359   2.087  10.087  0.1013 -0.4510  0.0703
  848MOL0     C16921   8.427   2.200  10.034  0.4439  1.0266 -0.0805
  848MOL0     O16922   8.393   2.284   9.925  0.1573 -0.2288 -0.0956
  848MOL0     C16923   8.387   2.233   9.785 -0.3520  0.3412 -0.6332
  848MOL0     C16924   8.528   2.226   9.723 -0.3712 -0.0363  0.2458
  848MOL0     C16925   8.604   2.366   9.723  0.0469 -0.1182 -0.6379
  848MOL0     C16926   8.521   2.488   9.679 -0.2274  0.8227 -0.0618
  848MOL0     C16927   8.603   2.613   9.704 -0.5757 -0.6782 -0.2203
  848MOL0     C16928   8.639   2.684   9.843  0.8707 -0.0706 -0.4216
  848MOL0     C16929   8.518   2.674   9.935  0.2531  0.3039  1.1951
  848MOL0     C16930   8.563   2.747  10.072  0.5390  0.1816 -0.0472
  848MOL0    Cl16931   8.428   2.773  10.192  0.0836  0.0253 -0.2679
  848MOL0     C16932   8.506   2.256  10.138 -0.0863 -0.4616 -0.7121
  848MOL0     C16933   8.550   2.189  10.255  0.1753 -0.8356 -1.0682
  848MOL0     O16934   8.639   1.848  10.324  0.4470 -0.2202 -0.4109
  848MOL0     C16935   8.688   1.752  10.581  0.4241 -0.6639 -0.4425
  848MOL0     C16936   8.705   1.676  10.705  0.6727  0.0709  0.0573
  848MOL0     N16937   8.637   1.040  11.333 -0.4905  0.7067  1.0631
  848MOL0     N16938   8.662   0.916  11.357 -0.3697 -0.2915  0.4267
  848MOL0     C16939   8.902   0.828  10.338  0.1904  0.4284  0.0640
  848MOL0     C16940   8.965   0.924  10.254  0.3024  0.7941 -0.0590
  848MOL0     C16941   9.176   1.249  10.023  0.1865  0.2175  0.6269
  848MOL0     C16942   9.228   1.342  10.104  0.2571  0.5614 -0.8997
  848MOL0     C16943   9.274   1.466  10.068  0.5697 -1.2279 -0.2781
  848MOL0     C16944   9.261   1.508   9.934 -0.4171  1.0732 -0.6878
  848MOL0     O16945   9.275   1.634   9.893  0.8004 -0.1516 -0.2501
  848MOL0     C16946   9.403   1.689   9.914 -0.2629 -0.1448 -0.4406
  848MOL0     C16947   9.394   1.854   9.909  0.1016  0.2875  0.0432
  848MOL0     C16948   9.272   1.916   9.983 -0.0440  0.2681  0.9563
  848MOL0     C16949   9.302   1.916  10.133 -0.1167 -0.2866  1.1895
  848MOL0     C16950   9.178   1.905  10.204 -0.1751 -0.0622  0.3878
  848MOL0     C16951   9.068   1.892  10.249  0.1857  0.2821  0.1676
  848MOL0     C16952   9.193   1.414   9.849  1.5949  0.6106  0.3831
  848MOL0     C16953   9.154   1.284   9.886 -0.5722  1.0354  0.1158
  848MOL0     C16954   9.094   1.194   9.776  0.3372  1.1298  0.7280
  848MOL0     H16955   9.200   1.025  10.468 -1.1606  1.7351 -1.8374
  848MOL0     H16956   9.091   0.854  10.615 -0.2708  0.1233  0.7043
  848MOL0     H16957   8.834   0.580  10.390 -1.8074 -1.9722  0.1480
  848MOL0     H16958   8.714   0.672  10.478 -2.2708 -1.5161  2.1537
  848MOL0     H16959   8.730   0.427  10.535 -0.5087  1.6666  0.3204
  848MOL0     H16960   8.897   0.438  10.585 -1.2530 -1.8555 -0.5230
  848MOL0     H16961   8.650   0.574  10.695 -0.2293 -0.6096  1.5469
  848MOL0     H16962   8.738   0.426  10.768  0.8609  0.8280  2.3786
  848MOL0     H16963   8.943   0.596  10.808 -0.1746 -0.3783 -2.0900
  848MOL0     H16964   8.806   0.706  10.799 -0.3303 -0.2682 -1.9325
  848MOL0     H16965   8.824   0.462  10.992  1.0739  0.4664 -0.0201
  848MOL0     H16966   8.690   0.585  10.972  0.2240  1.0561 -0.1442
  848MOL0     H16967   8.955   0.621  11.084 -0.3543  0.8253  0.8048
  848MOL0     H16968   8.858   0.767  11.043  0.2686  1.0116  1.0380
  848MOL0     H16969   8.805   0.548  11.253  1.1864  0.4119 -0.1342
  848MOL0     H16970   8.678   0.669  11.202  0.1738  2.4241 -1.6473
  848MOL0     H16971   8.805   0.717  11.399  1.3505  1.5124  0.6715
  848MOL0     H16972   8.948   0.772  11.293  0.8151  2.2490 -0.6265
  848MOL0     H16973   8.927   0.989  11.180 -0.6378 -4.6956 -1.3463
  848MOL0     H16974   8.877   1.238  11.173  0.3570  2.0665  0.0206
  848MOL0     H16975   8.769   1.279  11.304  1.0462 -0.5118  1.1196
  848MOL0     H16976   8.690   1.220  11.008 -1.1679  0.1057  0.3904
  848MOL0     H16977   8.572   1.271  11.133 -0.5302 -1.1581  1.1357
  848MOL0     H16978   8.699   1.489  11.145  1.3706  1.7691 -0.4856
  848MOL0     H16979   8.807   1.459  11.032 -0.4048  0.4090  4.7670
  848MOL0     H16980   8.652   1.435  10.851  5.2004  0.3850  1.4262
  848MOL0     H16981   8.509   1.461  10.964  0.8788 -2.5467  4.4286
  848MOL0     H16982   8.419   1.768  10.846  1.6838 -1.1083  1.7826
  848MOL0     H16983   8.300   1.866  10.527  1.4587  3.2130 -0.6884
  848MOL0     H16984   8.350   1.992  10.640  1.7769  0.3087 -1.2127
  848MOL0     H16985   8.273   1.846  10.711 -1.2463  0.8943  0.3033
  848MOL0     H16986   8.317   1.931  10.228 -0.2596 -0.5099 -3.6188
  848MOL0     H16987   8.266   2.058  10.041  1.2096 -1.5656 -1.5876
  848MOL0     H16988   8.355   2.128   9.786  2.2524 -0.5820 -2.4415
  848MOL0     H16989   8.328   2.303   9.726  0.1843 -1.0159 -2.8923
  848MOL0     H16990   8.599   2.156   9.768  2.8603  3.4829  1.1079
  848MOL0     H16991   8.507   2.192   9.621  0.5506 -0.4509  0.1839
  848MOL0     H16992   8.688   2.349   9.656  0.0667  0.0381 -0.6528
  848MOL0     H16993   8.653   2.387   9.819 -1.2954  1.3894 -0.2323
  848MOL0     H16994   8.430   2.492   9.740 -0.2087 -0.9425  0.1330
  848MOL0     H16995   8.491   2.476   9.575  0.9605 -0.5728 -0.2663
  848MOL0     H16996   8.698   2.614   9.649 -0.4445  3.3890 -0.1681
  848MOL0     H16997   8.547   2.690   9.650 -3.7699 -0.7780  2.5843
  848MOL0     H16998   8.668   2.787   9.819 -1.3755  0.1809 -2.4886
  848MOL0     H16999   8.725   2.625   9.875 -0.1602 -0.5327  1.6902
  848MOL0     H17000   8.487   2.574   9.966 -0.5867  0.3199  0.4332
  848MOL0     H17001   8.438   2.740   9.901  2.4000  2.4268 -0.0955
  848MOL0     H17002   8.603   2.846  10.046  0.3531 -0.0531 -1.3091
  848MOL0     H17003   8.648   2.693  10.116  0.1312  0.3338  0.9344
  848MOL0     H17004   8.556   2.348  10.110  1.7053  0.9643  5.6155
  848MOL0     H17005   8.621   2.240  10.320  3.2609  0.1436 -4.8457
  848MOL0     H17006   8.764   1.743  10.505 -2.3233 -4.0504 -3.1199
  848MOL0     H17007   8.788   1.608  10.723  1.4746  0.7053 -1.0993
  848MOL0     H17008   8.818   0.772  10.300  0.9115  1.6306 -3.7576
  848MOL0     H17009   8.924   0.935  10.155 -0.0971 -1.8001 -0.2353
  848MOL0     H17010   9.239   1.310  10.207 -2.4880  0.4256 -0.5672
  848MOL0     H17011   9.310   1.548  10.128 -1.2315  1.9993 -3.2354
  848MOL0     H17012   9.451   1.654  10.006  3.0369 -0.8439 -2.2376
  848MOL0     H17013   9.465   1.670   9.826 -0.2232  1.1901 -0.7230
  848MOL0     H17014   9.390   1.874   9.801  3.6331 -0.8255 -0.3974
  848MOL0     H17015   9.487   1.904   9.938  0.9743 -2.2553  1.9099
  848MOL0     H17016   9.244   2.015   9.946 -2.1644 -0.0796  1.4845
  848MOL0     H17017   9.181   1.865   9.950 -1.0005  2.1503  0.5282
  848MOL0     H17018   9.340   2.015  10.161 -0.6040 -0.5439  2.8904
  848MOL0     H17019   9.363   1.829  10.159  1.6656 -0.1422 -1.9487
  848MOL0     H17020   8.968   1.889  10.287 -0.5918 -1.4960 -1.8438
  848MOL0     H17021   9.189   1.450   9.747 -1.2180  3.1464  1.2443
  848MOL0     H17022   9.136   1.093   9.780 -1.4642  0.3224  5.1161
  848MOL0     H17023   8.986   1.189   9.789 -0.2713  0.5764 -3.3258
  848MOL0     H17024   9.107   1.241   9.678 -0.1646 -1.5432 -0.7046
  849MOL0     O17025   0.449   1.612   7.818  0.1293  0.1242  0.3195
  849MOL0     C17026   0.414   1.661   7.929 -0.5340 -0.4596  0.2869
  849MOL0     O17027   0.500   1.747   8.017 -0.1936  0.2936  0.8300
  849MOL0     C17028   0.631   1.768   7.983 -0.8929  0.2664 -1.0476
  849MOL0     C17029   0.687   1.858   8.068 -0.5198  0.5566  0.4994
  849MOL0     C17030   0.824   1.895   8.059 -0.1195 -0.5336  0.4130
  849MOL0     C17031   0.906   1.844   7.959 -0.3224  1.3690 -1.2450
  849MOL0     O17032   1.037   1.878   7.961  0.1380 -0.3038  0.0339
  849MOL0     C17033   1.111   1.814   7.855 -0.7003 -0.4678 -0.0748
  849MOL0     C17034   1.257   1.869   7.864 -0.1148  0.6712 -0.2833
  849MOL0     C17035   1.351   1.813   7.769 -0.6731  1.2322 -0.2471
  849MOL0     C17036   1.419   1.678   7.805 -0.1821  0.6479  0.6628
  849MOL0     C17037   1.526   1.631   7.708  0.9524  0.2920  0.1871
  849MOL0     C17038   1.642   1.736   7.706  0.2266  0.0334 -0.1928
  849MOL0     C17039   1.773   1.673   7.649 -0.2680 -0.2162 -0.3813
  849MOL0     C17040   1.909   1.739   7.678 -1.0006 -0.1561  0.5770
  849MOL0     N17041   2.024   1.686   7.587  0.1373  0.7575  0.0164
  849MOL0     C17042   2.029   1.649   7.454 -0.2126  0.0976 -0.9932
  849MOL0     C17043   2.161   1.651   7.432 -0.8877 -0.1055  0.4909
  849MOL0     C17044   2.226   1.602   7.304  0.7106  0.1076 -1.3523
  849MOL0     C17045   2.251   1.722   7.203 -0.1410 -0.3210  0.9174
  849MOL0     C17046   2.122   1.795   7.165  0.0393 -0.6301  0.1153
  849MOL0     C17047   2.139   1.872   7.036  0.2309 -0.2917  0.3917
  849MOL0     O17048   2.137   1.795   6.912  0.3482  0.1604  0.1961
  849MOL0     C17049   2.176   1.872   6.808 -0.5670 -0.3093  0.3205
  849MOL0     C17050   2.159   2.012   6.801 -0.7155 -0.1037  0.4027
  849MOL0     C17051   2.181   2.082   6.687 -0.7653  0.5902  0.0298
  849MOL0     C17052   2.161   2.232   6.694 -0.2435  0.3322 -0.3909
  849MOL0     C17053   2.216   2.006   6.562 -0.6374 -0.4994  0.6696
  849MOL0     C17054   2.228   2.072   6.426  0.3116  0.4656 -0.2898
  849MOL0     O17055   2.264   1.985   6.322 -0.3301 -0.5578 -0.7361
  849MOL0     C17056   2.259   2.021   6.193 -0.3183  0.4435  0.7982
  849MOL0     C17057   2.379   2.004   6.113 -0.0836  0.4197 -0.3693
  849MOL0     C17058   2.378   2.015   5.980  0.1155  0.1444  0.1347
  849MOL0     C17059   2.259   2.034   5.918  0.7044 -0.7270  0.9482
  849MOL0     O17060   2.244   2.050   5.784 -0.2248  0.1015  1.1722
  849MOL0     C17061   2.339   1.981   5.700  0.2456 -0.9715  0.2873
  849MOL0     C17062   2.303   2.011   5.559  0.2613  0.2221  0.0299
  849MOL0     C17063   2.209   1.907   5.502  0.3988  0.3564  0.8703
  849MOL0     C17064   2.064   1.898   5.560  0.3898 -0.6309  0.2120
  849MOL0     C17065   1.978   1.787   5.496 -0.3991 -0.0603 -0.1316
  849MOL0     C17066   1.834   1.806   5.525  0.2716 -0.1087 -0.8042
  849MOL0     C17067   1.788   1.749   5.664  0.0412 -0.6771 -0.9875
  849MOL0     C17068   1.651   1.695   5.665 -0.3182  0.9638  0.2053
  849MOL0    Cl17069   1.561   1.739   5.822 -0.1458 -0.2113  0.2033
  849MOL0     C17070   2.139   2.045   5.991  0.4106 -0.0437  0.2444
  849MOL0     C17071   2.134   2.038   6.135 -0.8332 -1.1496  0.2074
  849MOL0     O17072   2.209   2.190   6.419 -0.2620 -0.4138  0.0493
  849MOL0     C17073   2.214   1.868   6.561 -0.0381 -0.3424  0.0709
  849MOL0     C17074   2.202   1.802   6.688 -1.2566  0.2183  0.4175
  849MOL0     N17075   2.229   1.680   7.545  0.5583 -0.7469  0.3363
  849MOL0     N17076   2.149   1.690   7.641  0.2590  0.6864  0.1557
  849MOL0     C17077   0.844   1.736   7.883  0.2461 -0.1555 -0.1563
  849MOL0     C17078   0.711   1.702   7.883 -0.6317 -0.5424  0.0527
  849MOL0     C17079   0.270   1.643   7.968  0.2061 -0.0936 -0.3494
  849MOL0     C17080   0.242   1.684   8.107 -0.1550  0.1122  0.3854
  849MOL0     C17081   0.114   1.652   8.169  0.6532 -0.2767  1.0804
  849MOL0     C17082   0.009   1.606   8.077  0.0667  0.8763 -0.1947
  849MOL0     O17083  -0.111   1.569   8.125 -0.2043  0.4112  0.2004
  849MOL0     C17084  -0.122   1.424   8.152 -0.2293  0.6935  0.3570
  849MOL0     C17085  -0.270   1.374   8.181  0.3742 -0.5982  0.9130
  849MOL0     C17086  -0.272   1.228   8.241  1.4756 -0.7987 -0.4545
  849MOL0     C17087  -0.163   1.190   8.342 -0.4610 -0.0073  0.7222
  849MOL0     C17088  -0.176   1.279   8.459  0.7971  0.0252 -0.1022
  849MOL0     C17089  -0.198   1.336   8.564 -0.2909 -0.2062  0.5085
  849MOL0     C17090   0.036   1.593   7.940 -0.1233 -0.5168  0.1848
  849MOL0     C17091   0.166   1.597   7.883  0.7190  0.1679 -1.0920
  849MOL0     C17092   0.170   1.557   7.737  0.6276  0.3901  0.5235
  849MOL0     H17093   0.628   1.907   8.145 -1.4080  0.4462 -0.1053
  849MOL0     H17094   0.860   1.962   8.136  0.9543 -0.8680  0.2208
  849MOL0     H17095   1.067   1.838   7.757 -0.8055 -0.2554  0.0231
  849MOL0     H17096   1.111   1.705   7.867  1.2232 -0.6137 -1.0658
  849MOL0     H17097   1.263   1.971   7.826  1.2145  0.2254 -1.3898
  849MOL0     H17098   1.292   1.862   7.968 -2.1517  1.7908  0.5359
  849MOL0     H17099   1.300   1.799   7.674 -0.4701  2.1446 -0.5015
  849MOL0     H17100   1.432   1.885   7.757 -1.4850  2.0407 -0.9959
  849MOL0     H17101   1.462   1.681   7.906  1.8500  1.2385 -0.1722
  849MOL0     H17102   1.343   1.599   7.809 -1.7921  1.9585 -1.7753
  849MOL0     H17103   1.484   1.620   7.608 -0.4309  3.1507  0.3598
  849MOL0     H17104   1.558   1.531   7.739 -0.1669  0.2524  1.2954
  849MOL0     H17105   1.622   1.830   7.654 -2.8525 -0.2066  0.3735
  849MOL0     H17106   1.669   1.759   7.809 -0.6284 -1.5555  0.4190
  849MOL0     H17107   1.781   1.671   7.540  1.8866 -1.3741 -0.2629
  849MOL0     H17108   1.790   1.575   7.694  1.6896  0.5957  0.8191
  849MOL0     H17109   1.896   1.847   7.664 -1.2879  0.0602  2.2645
  849MOL0     H17110   1.942   1.728   7.782  0.1921  0.5463  0.2881
  849MOL0     H17111   1.955   1.611   7.384 -1.6400 -1.8580  1.4072
  849MOL0     H17112   2.154   1.533   7.258 -1.2513  1.4898 -0.4801
  849MOL0     H17113   2.322   1.553   7.323  0.4445  0.2847  0.6408
  849MOL0     H17114   2.330   1.788   7.241  0.5689 -2.5832  3.8100
  849MOL0     H17115   2.286   1.684   7.106 -2.9984 -2.2401  0.5324
  849MOL0     H17116   2.041   1.723   7.151  1.1379 -1.9129  0.1355
  849MOL0     H17117   2.089   1.870   7.238 -3.0179 -0.1750 -1.5606
  849MOL0     H17118   2.060   1.947   7.031 -0.5271 -1.1131 -0.2985
  849MOL0     H17119   2.234   1.926   7.041 -0.5469  0.9837  3.8883
  849MOL0     H17120   2.129   2.065   6.891 -0.1887 -0.1839  0.6277
  849MOL0     H17121   2.241   2.292   6.650 -0.6805  0.7913 -0.5768
  849MOL0     H17122   2.139   2.255   6.799  2.9442  0.8995  0.2502
  849MOL0     H17123   2.071   2.261   6.638  0.2175  1.4565 -0.5920
  849MOL0     H17124   2.467   1.971   6.168 -1.0431  0.8282  1.4836
  849MOL0     H17125   2.472   2.010   5.925  0.1047  1.5370 -0.0574
  849MOL0     H17126   2.440   2.018   5.718  0.4455 -0.9723 -0.7574
  849MOL0     H17127   2.312   1.876   5.710 -3.2606 -0.6342 -3.1820
  849MOL0     H17128   2.260   2.110   5.540  2.4906  0.9724 -1.5606
  849MOL0     H17129   2.393   2.007   5.497 -1.5621 -0.6783 -2.7457
  849MOL0     H17130   2.253   1.807   5.494 -1.1076 -0.2343 -0.5126
  849MOL0     H17131   2.193   1.933   5.397 -4.0753 -1.8515  0.7578
  849MOL0     H17132   2.026   1.999   5.541 -2.4772 -1.3563  1.4559
  849MOL0     H17133   2.066   1.879   5.668 -2.0773  2.0329  0.8743
  849MOL0     H17134   1.989   1.771   5.389  1.5796  1.9421 -0.2975
  849MOL0     H17135   2.001   1.687   5.535 -2.9060 -0.1235  1.4698
  849MOL0     H17136   1.771   1.754   5.452 -1.4963 -0.2866  0.7873
  849MOL0     H17137   1.811   1.912   5.518  5.0338  1.1613 -0.7955
  849MOL0     H17138   1.807   1.831   5.734  0.1883 -2.4054  1.1096
  849MOL0     H17139   1.858   1.677   5.708  1.5791  1.1319 -0.3672
  849MOL0     H17140   1.656   1.586   5.661 -0.1742  0.9895 -0.4397
  849MOL0     H17141   1.588   1.727   5.582 -1.0191  1.5384  0.9448
  849MOL0     H17142   2.051   2.055   5.928 -0.1536  0.5026  1.1100
  849MOL0     H17143   2.049   2.053   6.200 -1.5322 -0.3725 -0.8431
  849MOL0     H17144   2.241   1.802   6.479 -0.8123 -0.3176 -0.2106
  849MOL0     H17145   2.209   1.694   6.686 -0.2783  0.2472  1.4070
  849MOL0     H17146   0.900   1.689   7.803 -0.2116 -0.7195 -0.1604
  849MOL0     H17147   0.673   1.622   7.820  0.7816 -1.8454  0.7705
  849MOL0     H17148   0.322   1.721   8.170  1.6627 -1.2905 -0.9767
  849MOL0     H17149   0.106   1.668   8.276  2.6940  0.1274  1.2109
  849MOL0     H17150  -0.074   1.370   8.070  0.7247 -0.5875  1.7101
  849MOL0     H17151  -0.067   1.419   8.247 -1.9030 -0.4605  1.3110
  849MOL0     H17152  -0.308   1.369   8.078  0.0386  2.7186  0.7696
  849MOL0     H17153  -0.327   1.456   8.225 -1.7623 -1.2436 -0.4558
  849MOL0     H17154  -0.363   1.222   8.300  0.9062 -1.2403 -1.3473
  849MOL0     H17155  -0.296   1.162   8.157 -0.0091  1.9847 -2.3707
  849MOL0     H17156  -0.066   1.203   8.294 -0.3511  1.6700  1.3184
  849MOL0     H17157  -0.171   1.087   8.377 -2.5910 -0.1418  0.0128
  849MOL0     H17158  -0.198   1.389   8.657 -1.4213  1.0204 -0.1607
  849MOL0     H17159  -0.048   1.563   7.878  1.6312 -1.2497 -1.9615
  849MOL0     H17160   0.252   1.485   7.737  1.9136  1.4446  5.7153
  849MOL0     H17161   0.080   1.510   7.697 -0.9555  2.2339  1.7013
  849MOL0     H17162   0.184   1.640   7.668 -0.7032 -0.6210 -1.0398
  850MOL0     O17163   8.359   1.455  10.658 -0.2891  0.1615  0.2475
  850MOL0     C17164   8.266   1.518  10.613 -0.1349 -0.3062  0.9813
  850MOL0     O17165   8.142   1.536  10.673 -0.0551 -0.6983  0.0547
  850MOL0     C17166   8.125   1.466  10.798 -0.2595 -0.2460 -0.2493
  850MOL0     C17167   8.148   1.531  10.911 -0.1685  0.2017  0.3265
  850MOL0     C17168   8.144   1.462  11.033 -0.5169  0.4794 -0.3919
  850MOL0     C17169   8.138   1.324  11.034 -0.0008  0.6267 -0.0543
  850MOL0     O17170   8.140   1.249  11.146 -0.6446  0.0849 -0.1352
  850MOL0     C17171   8.216   1.298  11.261  0.5280 -0.8232  0.5273
  850MOL0     C17172   8.217   1.207  11.381 -0.0408  1.1197  0.3976
  850MOL0     C17173   8.295   1.070  11.355  0.4175 -0.0673 -0.2919
  850MOL0     C17174   8.197   0.957  11.295  0.1161 -0.9521 -1.2462
  850MOL0     C17175   8.098   0.910  11.411 -0.2157 -0.6247 -0.1085
  850MOL0     C17176   8.004   0.795  11.374 -0.2841 -0.2196 -0.6074
  850MOL0     C17177   7.942   0.813  11.238  0.0864  0.4125  1.6406
  850MOL0     C17178   7.880   0.687  11.174  1.1049 -0.1634  0.7689
  850MOL0     N17179   7.747   0.645  11.229 -0.0963 -0.8866 -0.2389
  850MOL0     C17180   7.729   0.612  11.363 -0.4012  0.2249  0.0752
  850MOL0     C17181   7.597   0.576  11.373 -0.6569  0.0555  0.4717
  850MOL0     C17182   7.527   0.521  11.500 -0.0104 -0.4349  0.5422
  850MOL0     C17183   7.450   0.624  11.576 -0.3064 -0.3913 -0.8252
  850MOL0     C17184   7.332   0.589  11.662  0.7939 -0.4726  0.4334
  850MOL0     C17185   7.285   0.727  11.714  0.1314 -0.1005  1.5999
  850MOL0     O17186   7.363   0.770  11.814 -0.3074 -0.8074 -0.0537
  850MOL0     C17187   7.340   0.713  11.940  0.2772 -1.2922 -0.1804
  850MOL0     C17188   7.405   0.780  12.046 -0.8709 -0.0297 -0.1123
  850MOL0     C17189   7.390   0.748  12.180  0.6809 -0.4128 -0.4621
  850MOL0     C17190   7.476   0.827  12.278  0.1794  0.0726 -0.0012
  850MOL0     C17191   7.299   0.641  12.216 -0.0283 -0.1662  0.2313
  850MOL0     C17192   7.266   0.602  12.354  0.2998  1.0397  0.6714
  850MOL0     O17193   7.168   0.503  12.367 -0.4269  0.1813  0.3813
  850MOL0     C17194   7.118   0.458  12.485  0.2211 -0.1733  0.0073
  850MOL0     C17195   7.056   0.554  12.571 -0.5346 -0.4433  1.4311
  850MOL0     C17196   6.983   0.498  12.673 -0.4373 -0.2824 -0.1130
  850MOL0     C17197   6.974   0.356  12.700 -0.8506 -0.1844  0.2236
  850MOL0     O17198   6.891   0.318  12.795 -0.0509 -0.1777  0.0621
  850MOL0     C17199   6.875   0.184  12.841 -0.4623  0.1301 -0.2896
  850MOL0     C17200   6.810   0.087  12.743  0.2191  0.0129  0.3879
  850MOL0     C17201   6.813  -0.062  12.785  0.7396 -0.1871  0.9716
  850MOL0     C17202   6.748  -0.171  12.701  0.4220 -0.0766  0.3048
  850MOL0     C17203   6.818  -0.224  12.573 -0.4018  0.1126  0.1421
  850MOL0     C17204   6.794  -0.135  12.452  0.3399 -0.5303 -0.3654
  850MOL0     C17205   6.872  -0.185  12.323 -0.1763 -0.5848  0.7399
  850MOL0     C17206   7.015  -0.125  12.337 -0.5966 -0.0406 -0.4541
  850MOL0    Cl17207   6.993   0.062  12.307 -0.1466  0.0872 -0.5783
  850MOL0     C17208   7.049   0.268  12.619 -0.2462  0.5903  0.7319
  850MOL0     C17209   7.117   0.322  12.508  0.0225  0.0878  0.3995
  850MOL0     O17210   7.312   0.661  12.454  0.0390 -0.1278  0.8577
  850MOL0     C17211   7.241   0.571  12.111  0.3264 -0.3912  0.8462
  850MOL0     C17212   7.262   0.604  11.974  0.6868 -0.0473 -0.6093
  850MOL0     N17213   7.542   0.593  11.247 -1.0696  0.4319  0.1417
  850MOL0     N17214   7.631   0.622  11.158 -0.5064  0.2216 -1.1362
  850MOL0     C17215   8.098   1.259  10.914  0.0872  0.4313 -0.1359
  850MOL0     C17216   8.082   1.329  10.799  0.0691 -0.0347 -0.2336
  850MOL0     C17217   8.269   1.556  10.467 -0.4546 -0.2914 -0.2500
  850MOL0     C17218   8.395   1.550  10.408  0.2221  0.2643 -0.6928
  850MOL0     C17219   8.411   1.595  10.273  0.4219  0.7750  0.7166
  850MOL0     C17220   8.303   1.650  10.196 -0.5756  1.1398  0.6351
  850MOL0     O17221   8.311   1.699  10.068 -0.7833 -0.1733  0.6574
  850MOL0     C17222   8.432   1.659   9.999  0.5365 -0.0570 -0.3218
  850MOL0     C17223   8.447   1.726   9.861 -0.3266  0.0295 -0.1374
  850MOL0     C17224   8.399   1.635   9.739 -0.2334 -0.0719 -1.6006
  850MOL0     C17225   8.457   1.662   9.605  0.1660  0.0384  0.1816
  850MOL0     C17226   8.460   1.800   9.555 -0.1128 -0.7984  0.5316
  850MOL0     C17227   8.444   1.914   9.505  0.0573  0.5466  0.6033
  850MOL0     C17228   8.182   1.656  10.257  0.6409 -0.7694  0.3903
  850MOL0     C17229   8.161   1.607  10.389  0.5242  0.0643  0.6224
  850MOL0     C17230   8.015   1.624  10.445  0.3591 -0.4583 -0.4384
  850MOL0     H17231   8.172   1.636  10.901 -1.2557  0.3932 -0.4784
  850MOL0     H17232   8.173   1.508  11.127  0.8113 -1.7137  0.3299
  850MOL0     H17233   8.165   1.383  11.308  0.6070  0.3925 -1.4486
  850MOL0     H17234   8.312   1.332  11.221  0.4773 -0.5851  0.6026
  850MOL0     H17235   8.273   1.262  11.458 -2.0396  2.7975  0.7615
  850MOL0     H17236   8.119   1.187  11.425 -0.9152  0.3601 -1.7556
  850MOL0     H17237   8.367   1.083  11.274 -0.6523 -1.1359 -1.4783
  850MOL0     H17238   8.352   1.035  11.442 -0.6714  2.0987  1.3745
  850MOL0     H17239   8.137   0.998  11.213  0.4601 -1.8182 -1.9387
  850MOL0     H17240   8.262   0.876  11.263  1.3751  0.3726 -2.1662
  850MOL0     H17241   8.030   0.994  11.423  0.0367 -0.7343  2.6240
  850MOL0     H17242   8.155   0.893  11.502  4.3968 -0.5536 -2.6847
  850MOL0     H17243   8.063   0.703  11.367  1.5606  1.0265 -3.1626
  850MOL0     H17244   7.921   0.795  11.445  0.3958  0.7898  0.2015
  850MOL0     H17245   8.027   0.838  11.175 -1.3984  3.9573  0.7728
  850MOL0     H17246   7.884   0.905  11.223 -0.7676 -0.2497  0.7246
  850MOL0     H17247   7.844   0.724  11.078 -0.8884  0.6864  1.7705
  850MOL0     H17248   7.954   0.607  11.167  1.7013  0.4013  0.5209
  850MOL0     H17249   7.799   0.609  11.446 -3.2722 -1.1901  2.6424
  850MOL0     H17250   7.603   0.477  11.566  2.6310  3.7150  0.7182
  850MOL0     H17251   7.456   0.446  11.466 -3.0695  1.6592  1.8855
  850MOL0     H17252   7.521   0.681  11.636 -1.5661  1.8514 -1.3418
  850MOL0     H17253   7.419   0.704  11.508 -0.2151  0.3378 -0.0297
  850MOL0     H17254   7.261   0.530  11.603 -1.7261  3.5411 -0.9798
  850MOL0     H17255   7.355   0.525  11.748 -3.4963 -0.8213  1.5494
  850MOL0     H17256   7.293   0.800  11.632  2.5703 -0.4153  1.4963
  850MOL0     H17257   7.181   0.718  11.746  0.3328  0.6501  2.5212
  850MOL0     H17258   7.461   0.864  12.006  1.1247 -1.4478 -0.4165
  850MOL0     H17259   7.417   0.841  12.368  3.3287  3.5174  1.7771
  850MOL0     H17260   7.511   0.923  12.239  2.3422 -1.2463 -1.6189
  850MOL0     H17261   7.568   0.768  12.291 -1.7512 -2.6797  2.3369
  850MOL0     H17262   7.071   0.661  12.561 -2.2680 -0.2212  0.9137
  850MOL0     H17263   6.938   0.573  12.737 -0.1270  1.4272 -1.8195
  850MOL0     H17264   6.978   0.152  12.859 -1.8220 -2.7204  3.8966
  850MOL0     H17265   6.831   0.182  12.942 -0.2041  0.8282 -0.1586
  850MOL0     H17266   6.705   0.117  12.741  0.3298  0.4337  0.6930
  850MOL0     H17267   6.858   0.087  12.645 -3.0800 -0.2238 -1.3631
  850MOL0     H17268   6.758  -0.082  12.878 -2.7485  3.4674 -0.0390
  850MOL0     H17269   6.917  -0.089  12.802  0.4901  0.1648  3.3889
  850MOL0     H17270   6.649  -0.136  12.672  1.9870  1.6406 -3.6653
  850MOL0     H17271   6.730  -0.263  12.758 -3.3787 -2.1784 -3.7139
  850MOL0     H17272   6.925  -0.226  12.597 -0.5185 -1.0422  0.6054
  850MOL0     H17273   6.781  -0.324  12.550  0.7797 -0.5555  1.0258
  850MOL0     H17274   6.813  -0.029  12.470 -1.7985 -0.4201  1.6828
  850MOL0     H17275   6.686  -0.142  12.437  0.2098  1.4546 -0.5018
  850MOL0     H17276   6.843  -0.134  12.231  0.3072 -2.2564 -0.3855
  850MOL0     H17277   6.873  -0.294  12.308  0.8842 -0.3085 -1.5963
  850MOL0     H17278   7.078  -0.174  12.261 -0.9252 -2.2049  0.5750
  850MOL0     H17279   7.062  -0.139  12.434 -2.0387  1.0912  0.4396
  850MOL0     H17280   7.053   0.161  12.631  1.5538  0.5023 -0.2721
  850MOL0     H17281   7.145   0.256  12.426  0.8124  4.2845 -3.0694
  850MOL0     H17282   7.162   0.499  12.134 -1.7788  1.6395  0.3025
  850MOL0     H17283   7.196   0.553  11.905 -3.1109  3.4513  0.0730
  850MOL0     H17284   8.079   1.153  10.924 -1.9161  0.8308  0.7326
  850MOL0     H17285   8.047   1.276  10.710 -2.0461 -3.1390  2.2454
  850MOL0     H17286   8.480   1.502  10.455 -0.4778  0.6903  1.0931
  850MOL0     H17287   8.512   1.579  10.236 -0.2322 -2.5264  0.1093
  850MOL0     H17288   8.525   1.671  10.056  0.3992 -2.0730  0.4078
  850MOL0     H17289   8.430   1.551   9.983  2.4236 -0.4311  1.4517
  850MOL0     H17290   8.552   1.747   9.840  0.0605 -2.0382 -0.5436
  850MOL0     H17291   8.392   1.820   9.852  0.8066  0.5165 -3.0392
  850MOL0     H17292   8.433   1.538   9.778 -0.3857  1.2045  2.0833
  850MOL0     H17293   8.290   1.631   9.741 -0.3417  1.5672  1.5862
  850MOL0     H17294   8.405   1.592   9.540 -1.2280  0.4411  0.8327
  850MOL0     H17295   8.563   1.635   9.600  0.4298  1.2241 -1.4104
  850MOL0     H17296   8.419   2.001   9.448 -2.0151  0.8617  1.8802
  850MOL0     H17297   8.093   1.699  10.212 -1.0101  2.2230  5.6467
  850MOL0     H17298   7.964   1.529  10.464  0.3786 -1.1620 -3.3693
  850MOL0     H17299   8.015   1.690  10.532  2.9949  1.9717 -2.0860
  850MOL0     H17300   7.948   1.676  10.375  1.2098  3.0906  1.1432
  851MOL0     O17301   6.990   8.002   9.647 -0.0998  0.6535  0.2065
  851MOL0     C17302   6.959   7.997   9.528 -0.8929  0.0952 -0.8948
  851MOL0     O17303   6.868   8.085   9.460  0.7557  0.2985  0.9114
  851MOL0     C17304   6.823   8.203   9.518 -0.4309  0.6544 -0.4592
  851MOL0     C17305   6.887   8.271   9.629  0.3561 -0.1913 -0.3530
  851MOL0     C17306   6.838   8.392   9.678 -0.4130 -1.2166  0.6642
  851MOL0     C17307   6.720   8.445   9.622  0.6967  0.3061  0.0209
  851MOL0     O17308   6.651   8.559   9.654 -0.1310 -0.2252  0.3440
  851MOL0     C17309   6.713   8.673   9.713 -1.4121  0.3181 -0.4552
  851MOL0     C17310   6.708   8.786   9.619  0.0927  0.8238 -0.0610
  851MOL0     C17311   6.564   8.811   9.562 -0.5900 -0.0747  0.9192
  851MOL0     C17312   6.572   8.939   9.477  0.6745  0.8741 -0.8656
  851MOL0     C17313   6.454   8.949   9.379 -1.0512 -0.9758 -0.5169
  851MOL0     C17314   6.463   9.095   9.323 -0.3523  0.1148  0.6597
  851MOL0     C17315   6.383   9.111   9.195  0.4918 -0.4308  0.5796
  851MOL0     C17316   6.370   9.270   9.165  0.4998  0.9744 -0.0538
  851MOL0     N17317   6.338   9.291   9.026  0.8727 -0.0166  0.5831
  851MOL0     C17318   6.279   9.407   8.994 -0.2893 -0.1569 -0.2855
  851MOL0     C17319   6.295   9.424   8.861 -0.8150 -0.0940  0.1559
  851MOL0     C17320   6.257   9.537   8.774  0.2781  0.2014  0.6394
  851MOL0     C17321   6.347   9.546   8.654  1.0145 -0.0403 -0.7499
  851MOL0     C17322   6.485   9.594   8.709  0.3419 -0.1958 -0.6688
  851MOL0     C17323   6.578   9.654   8.601 -0.1566  0.3182  0.1893
  851MOL0     O17324   6.548   9.797   8.581 -0.1959  0.7857  0.2889
  851MOL0     C17325   6.603   9.897   8.649 -0.8403  0.0013  0.7865
  851MOL0     C17326   6.692   9.869   8.756  0.1052  0.5177  0.6444
  851MOL0     C17327   6.755   9.963   8.837  0.1813  0.1050 -0.7194
  851MOL0     C17328   6.822   9.928   8.969  0.5625  0.2030  0.6536
  851MOL0     C17329   6.744  10.095   8.805 -0.9047  0.3516 -0.4653
  851MOL0     C17330   6.797  10.197   8.889 -0.5891  0.0775 -0.2595
  851MOL0     O17331   6.709  10.262   8.969  0.7541 -0.0864  0.2666
  851MOL0     C17332   6.759  10.346   9.061  0.7370  0.3439 -0.1480
  851MOL0     C17333   6.774  10.478   9.035  0.0399 -0.8351 -0.5395
  851MOL0     C17334   6.818  10.563   9.133 -0.6690 -0.6323 -0.0432
  851MOL0     C17335   6.839  10.528   9.266 -0.0418  0.0819  0.0441
  851MOL0     O17336   6.866  10.627   9.354  0.3031 -0.1448 -0.6782
  851MOL0     C17337   7.001  10.627   9.397  0.1482 -0.0034 -0.8508
  851MOL0     C17338   7.031  10.768   9.447  0.5878 -0.8360 -0.9263
  851MOL0     C17339   7.169  10.784   9.512  0.6666  0.1497  0.0421
  851MOL0     C17340   7.178  10.733   9.663 -1.1199 -0.2954 -0.1425
  851MOL0     C17341   7.308  10.759   9.733 -1.0781  0.1163  0.6172
  851MOL0     C17342   7.320  10.694   9.871 -1.0683 -0.3576 -0.1864
  851MOL0     C17343   7.202  10.730   9.960  0.1780 -1.5064 -0.0890
  851MOL0     C17344   7.239  10.708  10.110 -0.7909  0.1372 -0.5485
  851MOL0    Cl17345   7.335  10.856  10.160 -0.5720  0.3658  0.4507
  851MOL0     C17346   6.829  10.387   9.293  0.3186 -0.7795 -0.0630
  851MOL0     C17347   6.795  10.292   9.192  1.4290  0.3956  0.3714
  851MOL0     O17348   6.919  10.210   8.889 -0.0081 -0.5561 -0.0176
  851MOL0     C17349   6.654  10.125   8.705  1.3499 -0.1750 -0.2325
  851MOL0     C17350   6.585  10.030   8.620  0.7372  0.0548  0.6240
  851MOL0     N17351   6.352   9.305   8.811  0.3797  0.4842 -1.2206
  851MOL0     N17352   6.364   9.223   8.915  0.7407  0.3032 -0.1807
  851MOL0     C17353   6.655   8.375   9.530 -0.5640 -0.0734  0.2393
  851MOL0     C17354   6.698   8.252   9.473  0.2275  0.0660  0.8850
  851MOL0     C17355   7.005   7.885   9.452 -0.2288  0.6288  0.5167
  851MOL0     C17356   7.035   7.768   9.524  0.6717 -0.6514 -0.5984
  851MOL0     C17357   7.078   7.650   9.449 -0.2843  0.2856 -1.1776
  851MOL0     C17358   7.082   7.655   9.315 -0.3232  0.3246  0.2465
  851MOL0     O17359   7.133   7.533   9.260 -0.4681 -0.5180  0.3042
  851MOL0     C17360   7.142   7.509   9.121 -0.2439 -0.8958  0.3203
  851MOL0     C17361   7.274   7.557   9.058 -0.6414  0.8560 -1.0055
  851MOL0     C17362   7.373   7.438   9.076 -0.0563  0.0907  0.0754
  851MOL0     C17363   7.525   7.474   9.063  0.0682 -1.2128 -0.5908
  851MOL0     C17364   7.598   7.350   9.056 -0.2899  0.0346 -0.4474
  851MOL0     C17365   7.665   7.252   9.073 -1.2609 -0.5621  0.1562
  851MOL0     C17366   7.058   7.772   9.239  0.6065  1.1260  0.3883
  851MOL0     C17367   7.030   7.890   9.312 -0.2053 -0.3465  0.0636
  851MOL0     C17368   7.008   8.015   9.227 -0.6638 -0.4174 -0.3004
  851MOL0     H17369   6.958   8.222   9.694 -2.6780 -3.2189  1.0005
  851MOL0     H17370   6.893   8.437   9.760  3.8316 -1.3239 -1.8331
  851MOL0     H17371   6.817   8.647   9.735 -1.2129  3.2170  2.8346
  851MOL0     H17372   6.675   8.701   9.812  2.4253  0.9622  1.0241
  851MOL0     H17373   6.751   8.877   9.662 -2.7955  0.6116  3.9160
  851MOL0     H17374   6.770   8.750   9.537 -0.4232  0.5631 -0.3366
  851MOL0     H17375   6.534   8.732   9.493 -0.2850  2.6848 -2.6851
  851MOL0     H17376   6.486   8.808   9.638 -1.5737 -3.1830 -0.0697
  851MOL0     H17377   6.553   9.018   9.550 -1.7230  0.0153 -0.4708
  851MOL0     H17378   6.670   8.933   9.428  1.8264 -5.0456  1.2611
  851MOL0     H17379   6.357   8.942   9.430  0.3158  1.8673  2.9407
  851MOL0     H17380   6.466   8.872   9.302 -2.0552 -0.0972 -1.5937
  851MOL0     H17381   6.420   9.147   9.409  3.7712 -0.8388  3.6153
  851MOL0     H17382   6.566   9.132   9.314 -0.3035  0.9280  3.5976
  851MOL0     H17383   6.284   9.067   9.206  0.3147 -0.6272 -1.4092
  851MOL0     H17384   6.430   9.061   9.109  1.5968  0.4391  0.6518
  851MOL0     H17385   6.291   9.305   9.232  1.0440  1.0173  0.5702
  851MOL0     H17386   6.466   9.317   9.190  0.6727  0.8653 -0.5042
  851MOL0     H17387   6.225   9.476   9.059  0.6347  0.6809 -0.3778
  851MOL0     H17388   6.252   9.616   8.849 -1.9198 -0.8972  1.7333
  851MOL0     H17389   6.151   9.525   8.749 -0.3388 -0.8858  3.4734
  851MOL0     H17390   6.349   9.451   8.600  3.2288  0.2905 -1.3588
  851MOL0     H17391   6.310   9.617   8.579 -0.7360 -2.3189 -2.1471
  851MOL0     H17392   6.465   9.670   8.785 -0.7857 -1.1579  0.0433
  851MOL0     H17393   6.533   9.509   8.760 -0.3176 -0.6660 -0.8159
  851MOL0     H17394   6.681   9.632   8.633  0.8246  0.4946 -2.5885
  851MOL0     H17395   6.556   9.595   8.512  0.6584 -2.6308  1.7819
  851MOL0     H17396   6.700   9.764   8.784  0.3090  0.5426  0.6820
  851MOL0     H17397   6.927   9.959   8.974  1.3484 -1.3345 -3.0442
  851MOL0     H17398   6.831   9.822   8.995  1.0357  0.3425  1.0975
  851MOL0     H17399   6.754   9.959   9.049 -3.9557 -3.0476 -1.5203
  851MOL0     H17400   6.771  10.520   8.934  5.7768  1.3270 -0.1551
  851MOL0     H17401   6.817  10.670   9.117  0.6434 -0.0656  2.9121
  851MOL0     H17402   7.021  10.557   9.478  1.6599  1.7915  0.3946
  851MOL0     H17403   7.071  10.606   9.315  2.2426 -2.8808  1.4341
  851MOL0     H17404   7.033  10.842   9.367  0.7984 -1.7795 -1.8084
  851MOL0     H17405   6.965  10.801   9.528  2.2885 -1.5339  0.8397
  851MOL0     H17406   7.196  10.890   9.506  1.1364  0.1535  1.8172
  851MOL0     H17407   7.241  10.724   9.455 -1.2784 -0.4598 -1.9134
  851MOL0     H17408   7.155  10.626   9.670 -1.2843 -0.1535  2.5942
  851MOL0     H17409   7.100  10.782   9.723  1.1573  1.7998  1.2909
  851MOL0     H17410   7.398  10.731   9.678 -1.5764  2.4379 -1.6274
  851MOL0     H17411   7.316  10.868   9.743 -1.4050  0.0359  1.8697
  851MOL0     H17412   7.412  10.730   9.919 -0.6000  0.3693 -1.5832
  851MOL0     H17413   7.325  10.585   9.866  0.1275 -0.4092  1.2195
  851MOL0     H17414   7.111  10.676   9.933 -3.0444  4.7283 -3.9993
  851MOL0     H17415   7.185  10.837   9.946  0.0082 -1.6150 -0.7321
  851MOL0     H17416   7.302  10.622  10.131 -0.0899  0.8847  0.5294
  851MOL0     H17417   7.152  10.697  10.175 -0.7527 -0.6420 -0.6255
  851MOL0     H17418   6.851  10.347   9.391 -3.1640 -1.1165  0.7407
  851MOL0     H17419   6.809  10.185   9.208 -0.2058  0.1436  0.2294
  851MOL0     H17420   6.641  10.228   8.674 -2.3502 -0.7934 -1.1548
  851MOL0     H17421   6.528  10.074   8.539  1.9946 -2.4896 -1.8161
  851MOL0     H17422   6.567   8.422   9.489 -0.3162  0.1481 -0.0410
  851MOL0     H17423   6.640   8.215   9.390  1.6959  0.2888 -0.2678
  851MOL0     H17424   7.033   7.771   9.632  1.2246  2.1984 -0.5739
  851MOL0     H17425   7.115   7.567   9.508 -1.6438  0.6578  0.2854
  851MOL0     H17426   7.138   7.401   9.102 -3.0859 -0.8393  0.1516
  851MOL0     H17427   7.057   7.558   9.072 -0.8829  1.2342  3.2707
  851MOL0     H17428   7.318   7.636   9.120  1.7585 -0.4251 -0.9399
  851MOL0     H17429   7.268   7.587   8.953  1.6023 -1.0457 -1.7646
  851MOL0     H17430   7.351   7.380   9.166 -4.5853  1.8524  0.3640
  851MOL0     H17431   7.353   7.375   8.989 -0.8367  1.7398 -1.0010
  851MOL0     H17432   7.558   7.543   9.141 -3.1146 -2.4527  2.1156
  851MOL0     H17433   7.533   7.522   8.965 -1.5819  0.3745 -0.0235
  851MOL0     H17434   7.727   7.165   9.083  1.3237  1.3561  1.9667
  851MOL0     H17435   7.075   7.772   9.132 -0.8582  0.4513  0.1276
  851MOL0     H17436   7.058   8.099   9.275 -0.8807 -1.2229  1.3931
  851MOL0     H17437   7.058   8.010   9.130  2.4978  2.2161  1.0286
  851MOL0     H17438   6.899   8.028   9.227 -0.6570 -0.1741  1.4159
  852MOL0     O17439   9.062   5.780   1.336 -0.6290  0.3454  0.3393
  852MOL0     C17440   8.978   5.706   1.295  0.8489  0.1510 -0.2582
  852MOL0     O17441   8.964   5.572   1.319 -0.2725 -0.0143 -0.5003
  852MOL0     C17442   9.060   5.511   1.394 -0.4427  0.5158  0.9324
  852MOL0     C17443   9.091   5.552   1.528  0.0494 -0.0667  0.5639
  852MOL0     C17444   9.188   5.489   1.594 -0.2744  0.8520  0.8971
  852MOL0     C17445   9.274   5.384   1.539  0.8454  0.4957 -0.8297
  852MOL0     O17446   9.379   5.321   1.589 -0.4071  0.6001  0.0104
  852MOL0     C17447   9.446   5.362   1.710  0.4724 -0.3078 -0.1821
  852MOL0     C17448   9.543   5.486   1.680 -0.1951  0.1534  1.4824
  852MOL0     C17449   9.625   5.515   1.802 -0.3799 -0.7916  0.1202
  852MOL0     C17450   9.538   5.583   1.914 -0.2174 -0.3657  0.3043
  852MOL0     C17451   9.610   5.643   2.033  0.2010 -0.8644  0.7125
  852MOL0     C17452   9.515   5.720   2.132 -0.3431 -0.4282 -0.8699
  852MOL0     C17453   9.584   5.845   2.191 -0.6036  1.7703 -1.4029
  852MOL0     C17454   9.552   5.964   2.117 -0.4124 -0.4231  0.0399
  852MOL0     N17455   9.669   6.032   2.059 -0.0977  0.1889 -0.0457
  852MOL0     C17456   9.774   6.070   2.143  0.2255  0.0945  0.6000
  852MOL0     C17457   9.876   6.088   2.054  0.9956  0.1678  0.8385
  852MOL0     C17458  10.008   6.128   2.104  0.0047  0.4541 -0.1236
  852MOL0     C17459  10.067   6.259   2.054 -0.0677 -0.4517 -0.8716
  852MOL0     C17460  10.186   6.304   2.127 -0.1449  0.4137  0.6934
  852MOL0     C17461  10.214   6.454   2.085 -0.5545  0.6709 -0.8817
  852MOL0     O17462  10.344   6.473   2.147  0.5006 -0.3427 -0.6604
  852MOL0     C17463  10.395   6.602   2.164  0.4256 -0.1723  0.7999
  852MOL0     C17464  10.330   6.720   2.118  0.5130  0.5144  0.2195
  852MOL0     C17465  10.351   6.847   2.186 -0.4629  1.3565 -0.0911
  852MOL0     C17466  10.283   6.971   2.128 -0.5262 -1.1099  0.4720
  852MOL0     C17467  10.444   6.856   2.301  0.4197 -0.1589 -0.3692
  852MOL0     C17468  10.473   6.977   2.373 -0.2150  0.6924  0.0897
  852MOL0     O17469  10.610   6.987   2.403  0.0663 -0.4964  0.3483
  852MOL0     C17470  10.658   7.085   2.475 -0.4145 -0.1443 -0.4739
  852MOL0     C17471  10.749   7.033   2.570  0.1805 -0.2876  0.7068
  852MOL0     C17472  10.817   7.121   2.640 -0.1614 -0.6990  0.6888
  852MOL0     C17473  10.780   7.257   2.656 -0.4733  0.4172  1.8822
  852MOL0     O17474  10.835   7.338   2.754  0.1672  0.5379  0.5312
  852MOL0     C17475  10.821   7.267   2.884 -0.5976  0.2310 -0.6050
  852MOL0     C17476  10.845   7.371   3.000  0.4627 -0.5964 -0.0478
  852MOL0     C17477  10.719   7.457   3.033  0.1516 -0.1675  0.3024
  852MOL0     C17478  10.759   7.594   3.081  0.5390  0.6197 -0.2532
  852MOL0     C17479  10.633   7.681   3.097  0.4083 -0.2887  0.4375
  852MOL0     C17480  10.648   7.798   3.201  0.3280 -0.2734 -0.6412
  852MOL0     C17481  10.744   7.909   3.157 -1.1262  0.5240  0.5051
  852MOL0     C17482  10.748   8.026   3.264  0.2346  0.1370 -0.1946
  852MOL0    Cl17483  10.623   8.152   3.211 -0.0665 -0.0637  0.1288
  852MOL0     C17484  10.695   7.313   2.563  0.3420  1.0885  0.9544
  852MOL0     C17485  10.641   7.223   2.465  0.2429 -1.1254 -0.0718
  852MOL0     O17486  10.392   7.066   2.385 -1.1471  0.4449  0.0121
  852MOL0     C17487  10.514   6.738   2.330 -0.0382  0.2954  0.9524
  852MOL0     C17488  10.486   6.617   2.266 -0.1122 -0.2933 -0.7710
  852MOL0     N17489   9.842   6.070   1.924  0.0028  0.0277  1.0114
  852MOL0     N17490   9.718   6.035   1.933  0.3335 -0.1092  1.1353
  852MOL0     C17491   9.232   5.337   1.407 -0.0733  0.1765  0.4022
  852MOL0     C17492   9.125   5.397   1.340 -0.1972  0.0592  0.0090
  852MOL0     C17493   8.854   5.781   1.235 -0.9436  1.1530  0.3133
  852MOL0     C17494   8.863   5.920   1.249 -0.0753 -1.3516  0.6196
  852MOL0     C17495   8.756   6.002   1.202  0.3719  0.3475 -0.6546
  852MOL0     C17496   8.642   5.936   1.155  0.1366 -0.0782  1.0301
  852MOL0     O17497   8.529   6.005   1.113 -0.6506 -0.0840 -1.3540
  852MOL0     C17498   8.541   6.144   1.093  0.4114 -0.5299 -0.3246
  852MOL0     C17499   8.401   6.198   1.036 -0.3154  1.3314  0.4819
  852MOL0     C17500   8.371   6.145   0.885  0.2583 -0.7778  0.4796
  852MOL0     C17501   8.308   6.001   0.885 -0.4860 -0.0839  0.1785
  852MOL0     C17502   8.159   5.994   0.920  0.1974  0.9130  0.4330
  852MOL0     C17503   8.047   6.034   0.948 -0.4563 -0.0020 -0.2762
  852MOL0     C17504   8.634   5.797   1.141 -0.2088  0.6190  0.2485
  852MOL0     C17505   8.741   5.714   1.180 -0.4621  0.9181  0.1305
  852MOL0     C17506   8.724   5.567   1.155  0.3686 -0.3252  0.8357
  852MOL0     H17507   9.035   5.607   1.603  0.3252 -0.0862  0.7826
  852MOL0     H17508   9.224   5.517   1.693  0.2127  0.5118  0.8189
  852MOL0     H17509   9.513   5.287   1.753 -1.2921 -0.6876  2.0807
  852MOL0     H17510   9.379   5.396   1.789  2.7387  0.0305  1.6951
  852MOL0     H17511   9.611   5.447   1.603 -1.2905 -2.6006  1.7814
  852MOL0     H17512   9.484   5.571   1.645  2.6878  1.2168 -1.3292
  852MOL0     H17513   9.665   5.420   1.839  0.8164 -0.3812 -0.0992
  852MOL0     H17514   9.707   5.578   1.767 -1.8643  1.0589 -0.2090
  852MOL0     H17515   9.465   5.653   1.872 -0.7818  0.4869  2.5538
  852MOL0     H17516   9.475   5.507   1.960 -0.7618 -1.3118 -1.8773
  852MOL0     H17517   9.688   5.704   1.987  0.1992 -1.7116 -0.4553
  852MOL0     H17518   9.673   5.572   2.088  1.1858  0.4244  1.3041
  852MOL0     H17519   9.422   5.746   2.083  0.3677  0.8420 -1.5923
  852MOL0     H17520   9.495   5.651   2.215 -1.8045 -1.2451 -1.8614
  852MOL0     H17521   9.693   5.830   2.197 -0.5751  2.3561 -0.0529
  852MOL0     H17522   9.557   5.853   2.297 -0.7981  1.0793 -1.3924
  852MOL0     H17523   9.486   5.950   2.031  1.5816  0.2126 -1.6765
  852MOL0     H17524   9.498   6.036   2.181 -0.7389 -0.5500 -0.0885
  852MOL0     H17525   9.767   6.095   2.248 -1.1663 -1.1530  0.8382
  852MOL0     H17526  10.085   6.050   2.106  0.6083  1.0455  1.4282
  852MOL0     H17527   9.990   6.160   2.207 -2.1419  1.5263 -0.7810
  852MOL0     H17528  10.104   6.239   1.953  0.1517 -1.3609 -0.6225
  852MOL0     H17529   9.991   6.338   2.054  1.4332  1.0467 -0.7310
  852MOL0     H17530  10.165   6.302   2.235  0.0821 -1.7226  0.7488
  852MOL0     H17531  10.279   6.249   2.112  1.0733  2.7234 -0.6869
  852MOL0     H17532  10.229   6.456   1.977  1.5108 -0.0709 -0.6584
  852MOL0     H17533  10.137   6.523   2.121  0.6396  1.9516 -0.6941
  852MOL0     H17534  10.248   6.719   2.047  1.0073  0.0756 -0.3497
  852MOL0     H17535  10.202   7.016   2.187 -2.7823 -1.3520 -2.2584
  852MOL0     H17536  10.221   6.946   2.042 -0.2749  0.1014 -0.0868
  852MOL0     H17537  10.355   7.051   2.109  0.6250 -1.7582  1.8958
  852MOL0     H17538  10.779   6.929   2.586  0.6717 -0.4121 -0.8406
  852MOL0     H17539  10.907   7.095   2.695  0.5497  2.8241  1.4735
  852MOL0     H17540  10.721   7.224   2.894 -1.1956  1.9958  3.1253
  852MOL0     H17541  10.902   7.195   2.897 -0.6874  0.2057 -0.1618
  852MOL0     H17542  10.884   7.331   3.094  2.2353  0.8671 -0.1009
  852MOL0     H17543  10.916   7.445   2.963  1.6231 -2.0305 -0.8042
  852MOL0     H17544  10.658   7.405   3.108  2.9067 -4.6805 -0.2384
  852MOL0     H17545  10.658   7.464   2.942 -0.1771 -0.0578  0.5304
  852MOL0     H17546  10.825   7.643   3.008  0.5000  1.2688  0.1449
  852MOL0     H17547  10.810   7.591   3.178 -0.1731  2.1650  0.1900
  852MOL0     H17548  10.593   7.705   2.999 -1.7154 -1.5795  0.9371
  852MOL0     H17549  10.553   7.619   3.138 -2.3318  0.7701 -2.9145
  852MOL0     H17550  10.667   7.756   3.300  3.0594  0.0440 -0.9571
  852MOL0     H17551  10.562   7.864   3.215  0.5569 -0.0613 -0.2226
  852MOL0     H17552  10.724   7.955   3.060  1.2951 -1.1570 -0.9084
  852MOL0     H17553  10.845   7.866   3.156 -1.3911 -0.1533  1.4858
  852MOL0     H17554  10.849   8.066   3.270 -0.4710  1.8774  0.5776
  852MOL0     H17555  10.723   7.983   3.361  2.7094 -4.7972 -1.4141
  852MOL0     H17556  10.682   7.420   2.564  0.6163  1.3178 -3.2637
  852MOL0     H17557  10.582   7.263   2.384  1.7549  1.2468 -0.0963
  852MOL0     H17558  10.595   6.743   2.402 -0.6039 -0.1718  1.6294
  852MOL0     H17559  10.540   6.530   2.303  0.7254  1.1534  1.5868
  852MOL0     H17560   9.290   5.260   1.358  0.1266  1.0108 -0.7140
  852MOL0     H17561   9.087   5.365   1.244  0.6112  0.9218 -0.6180
  852MOL0     H17562   8.952   5.976   1.274  0.1261 -1.7359  0.7655
  852MOL0     H17563   8.770   6.109   1.209 -1.0461  0.4619  0.9171
  852MOL0     H17564   8.560   6.196   1.188 -1.2653  1.6393 -1.0993
  852MOL0     H17565   8.621   6.160   1.020 -0.4922 -2.4148 -1.7960
  852MOL0     H17566   8.399   6.307   1.030 -0.8330  1.2565 -1.5534
  852MOL0     H17567   8.325   6.165   1.107  1.8971  1.0705  2.8605
  852MOL0     H17568   8.323   6.214   0.814  1.1835 -1.4800 -0.8712
  852MOL0     H17569   8.473   6.134   0.847 -0.2915 -0.2056 -1.2960
  852MOL0     H17570   8.364   5.934   0.952  0.5592  2.4210  1.9668
  852MOL0     H17571   8.319   5.966   0.782  0.1719  1.6383 -0.3662
  852MOL0     H17572   7.950   6.079   0.952 -0.1665  0.6851 -0.6082
  852MOL0     H17573   8.545   5.754   1.099  0.5627  2.6657 -4.0021
  852MOL0     H17574   8.674   5.511   1.234  1.1205 -1.4374  0.5443
  852MOL0     H17575   8.659   5.551   1.069  1.3431  0.6067 -0.1097
  852MOL0     H17576   8.824   5.526   1.137  0.2633 -0.4287  0.4852
  853MOL0     O17577   3.589   2.404   8.602  0.0278  0.4750 -0.1525
  853MOL0     C17578   3.629   2.338   8.701 -1.8107  0.2019  0.7278
  853MOL0     O17579   3.755   2.348   8.753 -0.2311  0.0946 -0.8693
  853MOL0     C17580   3.853   2.416   8.682 -0.1142  0.4193  0.0834
  853MOL0     C17581   3.920   2.518   8.744  0.4226  0.1260  0.3617
  853MOL0     C17582   4.018   2.585   8.678 -0.4284  0.8321  0.9835
  853MOL0     C17583   4.075   2.538   8.560  0.3507 -0.7572  0.3190
  853MOL0     O17584   4.189   2.604   8.521  0.0965  0.1434  0.1215
  853MOL0     C17585   4.198   2.641   8.384  0.6964 -0.2264 -0.7039
  853MOL0     C17586   4.083   2.734   8.340 -0.0589 -0.1520  0.4798
  853MOL0     C17587   4.099   2.864   8.429  0.5706 -0.1111  0.5265
  853MOL0     C17588   3.954   2.921   8.471  0.6088  0.1507  0.6918
  853MOL0     C17589   3.962   3.067   8.527 -0.4246 -0.3370  1.2240
  853MOL0     C17590   3.836   3.142   8.553  0.4429  0.5885  0.6337
  853MOL0     C17591   3.738   3.080   8.655 -0.7369 -0.8801 -0.5651
  853MOL0     C17592   3.832   3.039   8.783  1.0656 -0.5341  0.6195
  853MOL0     N17593   3.759   2.979   8.897 -0.3370 -1.0529  0.1867
  853MOL0     C17594   3.743   2.845   8.917 -0.2903 -0.0851 -0.5514
  853MOL0     C17595   3.667   2.835   9.029 -0.6877 -0.4580 -0.1428
  853MOL0     C17596   3.614   2.718   9.112 -0.6544  0.1055 -0.2717
  853MOL0     C17597   3.504   2.647   9.031  0.1888  0.0956  0.1877
  853MOL0     C17598   3.399   2.566   9.109 -0.0294  0.2197  0.4355
  853MOL0     C17599   3.308   2.645   9.195  0.6420  0.6457  0.0620
  853MOL0     O17600   3.205   2.697   9.110  0.4817  0.0175 -0.6345
  853MOL0     C17601   3.111   2.779   9.163  2.0414 -0.7771  0.5403
  853MOL0     C17602   3.124   2.824   9.297  0.2788 -0.1331  0.6076
  853MOL0     C17603   3.011   2.874   9.364 -0.2822 -0.6921  0.1547
  853MOL0     C17604   3.013   2.868   9.512  1.1747 -0.6743 -0.4133
  853MOL0     C17605   2.891   2.910   9.292  0.1445  0.0286  0.3332
  853MOL0     C17606   2.768   2.973   9.356  0.6391  0.2586  0.0668
  853MOL0     O17607   2.649   2.955   9.289  0.0787  0.3810 -0.1938
  853MOL0     C17608   2.534   3.018   9.337 -0.3458 -1.5994  0.3892
  853MOL0     C17609   2.433   2.963   9.407 -0.5041  0.3315 -0.0355
  853MOL0     C17610   2.307   3.031   9.412  0.4460  0.2423 -0.4426
  853MOL0     C17611   2.294   3.160   9.365 -0.2182  0.4261 -0.5480
  853MOL0     O17612   2.172   3.223   9.352 -0.9259 -0.7872  0.4904
  853MOL0     C17613   2.077   3.147   9.285  0.0554  0.2822 -0.4753
  853MOL0     C17614   2.121   3.117   9.144  0.1382  0.8190  0.4028
  853MOL0     C17615   2.122   3.246   9.054  0.5362  0.3924 -0.5306
  853MOL0     C17616   2.166   3.223   8.913  0.8846 -0.9546  0.7317
  853MOL0     C17617   2.307   3.284   8.883 -0.7778 -0.3941  0.3924
  853MOL0     C17618   2.425   3.206   8.942 -0.8459 -0.3975  0.3246
  853MOL0     C17619   2.440   3.056   8.893  0.7137 -0.7218  0.0394
  853MOL0     C17620   2.573   3.002   8.940 -0.1944 -0.4998  0.9676
  853MOL0    Cl17621   2.634   2.851   8.860  0.0327  0.2569  0.3410
  853MOL0     C17622   2.411   3.223   9.317 -0.0486  0.5187 -0.1953
  853MOL0     C17623   2.524   3.150   9.291 -0.2769 -0.3995  0.2220
  853MOL0     O17624   2.785   3.036   9.461  0.3189  0.9832  0.4830
  853MOL0     C17625   2.888   2.879   9.156 -0.4434 -0.6076  0.1400
  853MOL0     C17626   2.990   2.813   9.102  0.4932 -0.3634  0.8127
  853MOL0     N17627   3.630   2.959   9.073  0.0081 -0.6521 -0.8461
  853MOL0     N17628   3.682   3.047   8.987  0.5950 -0.1477  0.2732
  853MOL0     C17629   4.011   2.431   8.490 -0.1418  0.1956  0.6872
  853MOL0     C17630   3.896   2.372   8.556  0.6494  0.1265  0.2086
  853MOL0     C17631   3.529   2.269   8.784  0.1011  0.4683  0.4497
  853MOL0     C17632   3.520   2.286   8.922  1.6062  0.0344 -0.0653
  853MOL0     C17633   3.430   2.216   8.997  0.7067 -0.4679 -0.3075
  853MOL0     C17634   3.336   2.130   8.943 -0.3728  0.4864  0.0785
  853MOL0     O17635   3.273   2.046   9.039 -0.0356 -0.2020 -0.7446
  853MOL0     C17636   3.184   1.938   8.993  0.3516  0.5085  0.6164
  853MOL0     C17637   3.260   1.823   8.919  1.2614 -0.5528  0.4425
  853MOL0     C17638   3.375   1.754   9.002 -0.2588 -0.8057 -0.9823
  853MOL0     C17639   3.340   1.735   9.149  0.4016 -0.4306 -0.9631
  853MOL0     C17640   3.236   1.634   9.172  0.3706  0.0885  0.4071
  853MOL0     C17641   3.139   1.563   9.173  0.8179  0.0118  0.4856
  853MOL0     C17642   3.325   2.128   8.800  0.2712 -1.0490  0.7553
  853MOL0     C17643   3.420   2.199   8.721  0.3504  0.2812 -0.8806
  853MOL0     C17644   3.413   2.201   8.568 -0.0888 -0.5125  0.7164
  853MOL0     H17645   3.882   2.558   8.838  4.2902  1.8130  1.4331
  853MOL0     H17646   4.060   2.677   8.717  0.0075  1.1414 -0.1759
  853MOL0     H17647   4.198   2.551   8.321  1.8244 -0.6283 -0.1694
  853MOL0     H17648   4.291   2.698   8.371  1.6029 -1.3795  0.4156
  853MOL0     H17649   4.093   2.749   8.232  3.9458 -0.8924  0.6038
  853MOL0     H17650   3.996   2.671   8.362  1.8981 -2.7458  1.1707
  853MOL0     H17651   4.149   2.851   8.526 -4.4807 -0.4532  3.4429
  853MOL0     H17652   4.143   2.936   8.359  1.4441 -0.8524  0.2952
  853MOL0     H17653   3.886   2.916   8.385  2.8103 -1.5261 -1.1052
  853MOL0     H17654   3.911   2.849   8.540 -2.7506 -0.8537 -2.1438
  853MOL0     H17655   4.010   3.124   8.447 -1.9492  0.3543  0.7472
  853MOL0     H17656   4.033   3.070   8.610  1.5877  0.3318 -0.4491
  853MOL0     H17657   3.865   3.242   8.586  1.8769  0.6464 -0.7037
  853MOL0     H17658   3.775   3.154   8.463  1.5195 -0.6697 -0.2988
  853MOL0     H17659   3.695   2.984   8.626 -2.2642 -0.6492  0.7784
  853MOL0     H17660   3.661   3.153   8.681  0.2531 -0.0255  0.0553
  853MOL0     H17661   3.899   2.964   8.739 -0.0599 -1.7558  0.9174
  853MOL0     H17662   3.894   3.124   8.810  1.0619  1.2807 -4.0695
  853MOL0     H17663   3.781   2.763   8.856 -0.0590 -0.2992 -0.1283
  853MOL0     H17664   3.583   2.758   9.209 -0.0467 -0.2847  0.0944
  853MOL0     H17665   3.683   2.636   9.135 -2.6081 -1.2146  1.2669
  853MOL0     H17666   3.452   2.722   8.970 -2.1305  1.0262  3.0683
  853MOL0     H17667   3.558   2.577   8.967 -0.7864  0.2860 -0.8956
  853MOL0     H17668   3.336   2.514   9.036  2.1640  1.5894 -2.6807
  853MOL0     H17669   3.442   2.485   9.169  0.0114 -1.6603 -1.9790
  853MOL0     H17670   3.260   2.575   9.264  1.0799  1.1039  0.8471
  853MOL0     H17671   3.368   2.722   9.245  1.2946  1.1955 -1.4935
  853MOL0     H17672   3.212   2.804   9.358  2.4126 -0.1771 -2.2627
  853MOL0     H17673   3.066   2.779   9.547 -0.8117 -2.2822 -1.3056
  853MOL0     H17674   2.912   2.856   9.550  0.4302  0.3762 -1.9377
  853MOL0     H17675   3.058   2.960   9.551  1.7731 -0.3519 -1.7810
  853MOL0     H17676   2.447   2.872   9.465 -1.5017  0.9774  1.2587
  853MOL0     H17677   2.229   2.970   9.458 -0.4092  1.3866 -0.3353
  853MOL0     H17678   2.065   3.053   9.339  0.5718  0.9430  0.8045
  853MOL0     H17679   1.978   3.193   9.274  0.6431  1.2250 -2.3515
  853MOL0     H17680   2.217   3.066   9.135  0.7538  1.2095  3.6844
  853MOL0     H17681   2.050   3.044   9.103  1.8187 -0.3301 -0.5814
  853MOL0     H17682   2.186   3.315   9.110  1.1562 -0.5770 -0.0124
  853MOL0     H17683   2.023   3.294   9.048  0.9673  1.0730 -3.5904
  853MOL0     H17684   2.086   3.259   8.848  2.1816  0.5195 -0.1076
  853MOL0     H17685   2.171   3.115   8.895  0.4122 -0.5277 -2.6894
  853MOL0     H17686   2.322   3.297   8.776 -3.2840  0.3156  0.0709
  853MOL0     H17687   2.327   3.381   8.930  1.1398 -0.2659 -0.5886
  853MOL0     H17688   2.404   3.207   9.049  0.1794  0.9584  0.5419
  853MOL0     H17689   2.513   3.271   8.935 -2.0839  1.2235 -1.2863
  853MOL0     H17690   2.434   3.061   8.784  2.2478  2.3680 -0.0284
  853MOL0     H17691   2.358   3.002   8.941  0.1909  3.0683  4.0775
  853MOL0     H17692   2.555   2.980   9.046 -2.6955 -0.7796  0.5416
  853MOL0     H17693   2.656   3.073   8.929 -1.7266  1.0513 -1.5315
  853MOL0     H17694   2.414   3.326   9.282 -1.7995  0.0808 -1.8266
  853MOL0     H17695   2.615   3.183   9.242  0.1290 -0.5996  0.8317
  853MOL0     H17696   2.797   2.893   9.098  0.2455  1.4332 -0.5338
  853MOL0     H17697   2.972   2.778   9.001  1.4057 -0.4461  0.6644
  853MOL0     H17698   4.039   2.401   8.390 -2.5178 -2.8029  0.7759
  853MOL0     H17699   3.850   2.286   8.508  1.2871 -0.7614  1.1308
  853MOL0     H17700   3.587   2.346   8.984  0.0788 -0.1592  1.8594
  853MOL0     H17701   3.446   2.217   9.104  2.9168  0.2366 -0.5807
  853MOL0     H17702   3.152   1.892   9.087 -0.9090  0.3429  0.1217
  853MOL0     H17703   3.095   1.982   8.948  1.4336  2.8618  0.6531
  853MOL0     H17704   3.294   1.869   8.826 -0.0827  0.6222  0.5013
  853MOL0     H17705   3.181   1.755   8.884  0.3100  1.6211 -1.9803
  853MOL0     H17706   3.404   1.659   8.958  1.5967 -0.0937 -1.3718
  853MOL0     H17707   3.466   1.815   9.001  0.9497 -2.5122  0.1067
  853MOL0     H17708   3.312   1.830   9.194 -0.1697 -1.1284  0.2177
  853MOL0     H17709   3.431   1.709   9.205 -0.3849  0.3866  0.7630
  853MOL0     H17710   3.046   1.511   9.187  0.4589 -0.8827 -3.8882
  853MOL0     H17711   3.244   2.075   8.750  0.9418 -0.6631 -0.7872
  853MOL0     H17712   3.336   2.131   8.535 -0.0948 -2.5257  4.3891
  853MOL0     H17713   3.382   2.297   8.527  3.0638  0.6927  0.8826
  853MOL0     H17714   3.510   2.182   8.523 -0.5487  0.3335 -0.6652
  854MOL0     O17715   1.210   0.311   1.196  0.4321  0.1801 -0.7711
  854MOL0     C17716   1.190   0.425   1.187  0.5483 -0.2916  1.1713
  854MOL0     O17717   1.252   0.511   1.089 -0.1447  0.7503 -0.7962
  854MOL0     C17718   1.318   0.464   0.980  0.2585  0.4499 -0.2164
  854MOL0     C17719   1.273   0.341   0.913  0.4508  0.1569 -0.3856
  854MOL0     C17720   1.328   0.291   0.793  0.2206 -0.9559 -0.2427
  854MOL0     C17721   1.447   0.348   0.749  0.4968  0.3637  0.1740
  854MOL0     O17722   1.525   0.282   0.652  0.1265  0.1909 -0.4737
  854MOL0     C17723   1.477   0.198   0.555  0.1139  0.0970  0.4580
  854MOL0     C17724   1.535   0.219   0.416 -0.2883 -0.5003  0.6436
  854MOL0     C17725   1.528   0.092   0.332  0.0035  0.2325 -1.2181
  854MOL0     C17726   1.495   0.129   0.186  0.2157 -0.4344  0.1763
  854MOL0     C17727   1.489   0.000   0.103 -0.9823 -0.5945  0.0989
  854MOL0     C17728   1.477   0.019  -0.047  0.4113 -0.5373  0.0471
  854MOL0     C17729   1.464  -0.119  -0.117  0.2909  1.0838  0.1611
  854MOL0     C17730   1.514  -0.124  -0.266 -0.0692  0.0825 -0.3491
  854MOL0     N17731   1.667  -0.101  -0.279 -0.0564  0.4896  0.7069
  854MOL0     C17732   1.764  -0.192  -0.240 -0.1309 -0.4855 -0.4913
  854MOL0     C17733   1.881  -0.132  -0.264  0.3612  0.0784  0.1498
  854MOL0     C17734   2.026  -0.177  -0.236 -0.0245  0.0962 -1.3591
  854MOL0     C17735   2.090  -0.278  -0.334 -0.6812 -0.3004 -0.5694
  854MOL0     C17736   2.086  -0.258  -0.483 -0.8613 -0.6279  0.4086
  854MOL0     C17737   2.181  -0.151  -0.519 -0.2857  0.4467  0.0390
  854MOL0     O17738   2.200  -0.136  -0.660 -0.7524  0.1748  0.1107
  854MOL0     C17739   2.112  -0.071  -0.743 -0.3060  0.2868 -0.3501
  854MOL0     C17740   2.000  -0.006  -0.694  0.6162  0.8243  0.3020
  854MOL0     C17741   1.899   0.023  -0.786 -0.1500 -0.4214 -1.2727
  854MOL0     C17742   1.767   0.041  -0.717  0.1319  0.4940 -0.4476
  854MOL0     C17743   1.928   0.013  -0.924 -0.1457  0.5057  0.9656
  854MOL0     C17744   1.841   0.084  -1.017 -0.9841 -0.5552 -0.2008
  854MOL0     O17745   1.865   0.047  -1.151 -0.0302 -0.3745 -0.6319
  854MOL0     C17746   1.779   0.089  -1.248  0.0131  0.2745  0.1698
  854MOL0     C17747   1.833   0.147  -1.364  0.7147  0.6351  0.5186
  854MOL0     C17748   1.754   0.203  -1.464  0.0649 -1.0987  0.6080
  854MOL0     C17749   1.613   0.197  -1.451  0.7460  0.5469 -0.2468
  854MOL0     O17750   1.524   0.247  -1.542  0.6077  0.4240  0.3028
  854MOL0     C17751   1.509   0.397  -1.536  0.8835  0.1568 -0.1390
  854MOL0     C17752   1.414   0.443  -1.649  0.1258  0.0164 -1.1750
  854MOL0     C17753   1.487   0.446  -1.784 -0.1899 -0.2563  1.2161
  854MOL0     C17754   1.384   0.481  -1.895 -0.4105 -0.8871  0.3480
  854MOL0     C17755   1.453   0.453  -2.027  0.2687 -0.0413  0.2276
  854MOL0     C17756   1.366   0.456  -2.153  0.3197 -0.3423 -0.1941
  854MOL0     C17757   1.241   0.358  -2.153  0.4215 -0.0817 -0.0798
  854MOL0     C17758   1.193   0.351  -2.296  0.0768 -0.3435  0.4319
  854MOL0    Cl17759   1.318   0.283  -2.416  0.1552 -0.4356 -0.4763
  854MOL0     C17760   1.557   0.140  -1.335 -1.0966  0.7756 -0.0048
  854MOL0     C17761   1.640   0.085  -1.234 -0.7899 -0.2633 -0.5699
  854MOL0     O17762   1.765   0.167  -0.974  0.3739 -0.0095  0.4544
  854MOL0     C17763   2.047  -0.029  -0.970 -0.2429 -0.5362  0.1218
  854MOL0     C17764   2.138  -0.091  -0.879 -0.4950 -0.2511 -0.8312
  854MOL0     N17765   1.864  -0.001  -0.317 -0.5751  0.5744  0.1557
  854MOL0     N17766   1.733   0.012  -0.319 -0.0954  1.1128 -0.0975
  854MOL0     C17767   1.500   0.457   0.819  0.0707  0.3617 -0.9597
  854MOL0     C17768   1.440   0.513   0.935  0.4414  0.6665  0.1377
  854MOL0     C17769   1.090   0.489   1.275  0.3593 -1.3467  0.3383
  854MOL0     C17770   1.088   0.627   1.291 -0.8505 -0.4411  0.2410
  854MOL0     C17771   0.989   0.701   1.361  0.0201  0.3563  0.7000
  854MOL0     C17772   0.906   0.629   1.442  0.3213  0.3162  0.2618
  854MOL0     O17773   0.829   0.714   1.518 -0.0622 -0.3268  0.0450
  854MOL0     C17774   0.759   0.655   1.629  0.6328  0.0455  0.4468
  854MOL0     C17775   0.839   0.633   1.752 -0.5841  0.9446 -0.8326
  854MOL0     C17776   0.766   0.562   1.869 -0.3558 -1.0074 -0.5409
  854MOL0     C17777   0.859   0.563   1.997 -0.6246 -0.8919  0.0290
  854MOL0     C17778   0.798   0.519   2.126 -0.4249 -0.6769  0.5917
  854MOL0     C17779   0.784   0.480   2.239 -0.7759  0.7095  0.2265
  854MOL0     C17780   0.915   0.490   1.448  1.3471  0.5499 -0.0990
  854MOL0     C17781   1.002   0.418   1.364  0.7172  0.1332 -0.2695
  854MOL0     C17782   0.976   0.264   1.367 -0.0942  0.4599 -0.6111
  854MOL0     H17783   1.185   0.284   0.942  1.7969 -3.3119 -2.5676
  854MOL0     H17784   1.293   0.195   0.755  0.0461 -0.9563 -0.0839
  854MOL0     H17785   1.372   0.196   0.525  0.3851 -1.0434 -0.4919
  854MOL0     H17786   1.513   0.096   0.571  0.4144  0.1244 -0.0317
  854MOL0     H17787   1.481   0.301   0.367  1.8971  0.2037 -0.7321
  854MOL0     H17788   1.632   0.262   0.442 -1.7736  3.7822 -0.0473
  854MOL0     H17789   1.629   0.048   0.332 -0.2430 -0.6851  2.4658
  854MOL0     H17790   1.449   0.027   0.371 -1.9659  1.9323 -2.2094
  854MOL0     H17791   1.404   0.189   0.181  0.5306  0.6220  4.1401
  854MOL0     H17792   1.564   0.200   0.139  0.3487 -0.1389  0.8066
  854MOL0     H17793   1.400  -0.053   0.137 -1.4058 -0.4147 -0.7078
  854MOL0     H17794   1.578  -0.059   0.122 -0.2252  0.2547 -0.7096
  854MOL0     H17795   1.388   0.082  -0.060  0.4732  0.1062  2.2819
  854MOL0     H17796   1.551   0.083  -0.096  1.1054 -1.0874  0.3617
  854MOL0     H17797   1.366  -0.166  -0.115  0.3247  1.0344  2.1988
  854MOL0     H17798   1.535  -0.177  -0.057 -0.7102  2.0717  2.4229
  854MOL0     H17799   1.503  -0.223  -0.311 -0.9240 -1.7412  3.4463
  854MOL0     H17800   1.459  -0.046  -0.318  0.4237  1.3331  0.9430
  854MOL0     H17801   1.755  -0.290  -0.193 -4.2303  0.0863  0.2296
  854MOL0     H17802   2.031  -0.218  -0.134  0.9168  1.3461 -0.8708
  854MOL0     H17803   2.074  -0.080  -0.218 -1.2496  0.3786  0.7066
  854MOL0     H17804   2.194  -0.289  -0.299 -1.7785  0.1475  3.3601
  854MOL0     H17805   2.057  -0.381  -0.317 -1.3441 -0.0104 -0.0755
  854MOL0     H17806   2.116  -0.351  -0.531  2.0234 -0.6058  1.9798
  854MOL0     H17807   1.982  -0.232  -0.507  0.3527  2.7497 -1.9099
  854MOL0     H17808   2.151  -0.056  -0.474  3.5148  1.5860  0.5911
  854MOL0     H17809   2.278  -0.170  -0.472 -1.9397 -0.1280  3.5495
  854MOL0     H17810   1.983   0.004  -0.587 -2.3028 -0.8865  0.1041
  854MOL0     H17811   1.731  -0.056  -0.680 -1.1236  0.6526 -1.1810
  854MOL0     H17812   1.681   0.077  -0.774 -2.3405  0.1398  2.7537
  854MOL0     H17813   1.775   0.109  -0.632  2.1743 -0.7689  0.4371
  854MOL0     H17814   1.940   0.146  -1.383  0.2508 -0.2145 -2.7356
  854MOL0     H17815   1.797   0.252  -1.551  0.2348 -1.6245  0.3937
  854MOL0     H17816   1.466   0.438  -1.444  0.6873  1.5268 -0.8018
  854MOL0     H17817   1.604   0.451  -1.542  1.5735 -1.0481 -0.2710
  854MOL0     H17818   1.336   0.367  -1.652 -3.6583  3.0629  3.8750
  854MOL0     H17819   1.375   0.541  -1.619 -2.0416 -0.9214 -0.7387
  854MOL0     H17820   1.536   0.349  -1.797  1.3388  0.6978 -0.7924
  854MOL0     H17821   1.562   0.525  -1.780 -0.0037  0.1766 -3.9344
  854MOL0     H17822   1.351   0.585  -1.895 -0.5487 -0.9230  1.2869
  854MOL0     H17823   1.296   0.415  -1.891 -0.1214 -1.6314 -2.6179
  854MOL0     H17824   1.538   0.519  -2.047  0.4872 -0.8557 -1.7498
  854MOL0     H17825   1.480   0.348  -2.016  2.3599  0.6407  2.6308
  854MOL0     H17826   1.438   0.431  -2.231  1.2062  0.5933  0.3005
  854MOL0     H17827   1.333   0.558  -2.175  3.3627  1.1720  1.6598
  854MOL0     H17828   1.157   0.391  -2.092 -0.3568  0.3657 -1.3520
  854MOL0     H17829   1.269   0.253  -2.139 -0.3235 -0.7805 -3.1788
  854MOL0     H17830   1.164   0.451  -2.330  2.4340 -0.2346 -1.5063
  854MOL0     H17831   1.097   0.298  -2.298  0.0787 -0.3451  0.3897
  854MOL0     H17832   1.450   0.139  -1.316 -1.6457  3.0340 -2.3774
  854MOL0     H17833   1.607   0.040  -1.141  2.7996 -1.6843  0.1860
  854MOL0     H17834   2.069  -0.031  -1.076  0.5721 -0.7481  0.2855
  854MOL0     H17835   2.232  -0.135  -0.908 -0.1497  1.3622 -2.3682
  854MOL0     H17836   1.600   0.488   0.791  1.3593 -1.4965  1.2181
  854MOL0     H17837   1.483   0.599   0.985  0.5710  0.0169  1.1601
  854MOL0     H17838   1.148   0.687   1.224 -2.3052 -0.3031 -1.0122
  854MOL0     H17839   0.995   0.809   1.353 -0.4980  0.3363 -0.1026
  854MOL0     H17840   0.678   0.727   1.647 -3.3717 -2.8664 -3.4937
  854MOL0     H17841   0.706   0.562   1.607  2.5617 -1.1605  0.7172
  854MOL0     H17842   0.892   0.719   1.794  0.0096 -1.3438  3.7705
  854MOL0     H17843   0.913   0.557   1.725 -1.5627 -0.3586  0.0369
  854MOL0     H17844   0.676   0.620   1.893 -0.9139 -2.6873  1.6743
  854MOL0     H17845   0.745   0.460   1.836  4.6093 -2.2583 -0.5958
  854MOL0     H17846   0.896   0.664   2.013  2.0106 -1.8204  0.2384
  854MOL0     H17847   0.955   0.514   1.980  1.0272  0.9653  3.0146
  854MOL0     H17848   0.767   0.438   2.336 -2.7514 -0.9783 -0.7885
  854MOL0     H17849   0.856   0.430   1.516  2.2379 -0.3127 -0.0524
  854MOL0     H17850   0.936   0.216   1.277 -0.8438 -0.5857  0.2489
  854MOL0     H17851   1.076   0.225   1.385 -0.3385  0.1014  0.0308
  854MOL0     H17852   0.904   0.236   1.445 -3.3338 -2.8843 -4.2999
  855MOL0     O17853   6.426   2.170   0.119  0.0594  0.1595  0.2061
  855MOL0     C17854   6.368   2.073   0.076  0.4615 -0.5909 -0.0080
  855MOL0     O17855   6.237   2.054   0.090  0.1933  0.5640 -0.1083
  855MOL0     C17856   6.171   2.116   0.191 -0.3422  0.3986 -0.2956
  855MOL0     C17857   6.042   2.177   0.161  0.0807 -0.4051  0.5504
  855MOL0     C17858   5.950   2.225   0.262 -0.4726  0.8695  0.2759
  855MOL0     C17859   5.995   2.202   0.402  0.4250  0.0753  0.2776
  855MOL0     O17860   5.927   2.230   0.522  0.2635  0.0475  0.0685
  855MOL0     C17861   5.784   2.205   0.517  0.2177  0.1432  0.3038
  855MOL0     C17862   5.740   2.072   0.578 -0.4801  0.2882  0.0161
  855MOL0     C17863   5.782   1.960   0.476 -0.0944 -1.0438 -0.3585
  855MOL0     C17864   5.745   1.819   0.514 -0.9299 -0.9676  0.1366
  855MOL0     C17865   5.769   1.712   0.405  0.5836 -0.1727  0.3076
  855MOL0     C17866   5.727   1.578   0.466  0.2715 -0.5441  0.1015
  855MOL0     C17867   5.735   1.475   0.361 -0.9477 -1.1598  0.0704
  855MOL0     C17868   5.677   1.340   0.419  0.1362  0.1537 -0.1832
  855MOL0     N17869   5.667   1.233   0.321 -0.6321 -0.7977 -0.1457
  855MOL0     C17870   5.768   1.167   0.261 -1.0611  0.2302 -0.2333
  855MOL0     C17871   5.709   1.093   0.170  0.3518 -0.7237 -0.2907
  855MOL0     C17872   5.795   1.029   0.062 -0.3405  0.4148 -0.2069
  855MOL0     C17873   5.747   0.892   0.030 -0.3022 -0.2431 -0.1771
  855MOL0     C17874   5.758   0.798   0.152 -0.7204  0.7668 -0.1534
  855MOL0     C17875   5.716   0.656   0.110  0.5524  0.3742  0.4472
  855MOL0     O17876   5.574   0.649   0.075 -0.4765  0.6393  0.0868
  855MOL0     C17877   5.524   0.528   0.018 -0.3441 -0.3512 -0.0264
  855MOL0     C17878   5.392   0.528  -0.034 -0.0530  0.5806  0.1445
  855MOL0     C17879   5.340   0.417  -0.109  0.4042 -0.2508  0.1567
  855MOL0     C17880   5.197   0.433  -0.156 -0.4833 -0.3709  0.1456
  855MOL0     C17881   5.425   0.299  -0.135  0.1173  0.2747 -0.6175
  855MOL0     C17882   5.372   0.170  -0.192 -0.4502  0.2340 -0.5556
  855MOL0     O17883   5.235   0.144  -0.185 -0.4863  0.2577 -0.1203
  855MOL0     C17884   5.204   0.010  -0.209 -0.3894 -0.2458 -0.8318
  855MOL0     C17885   5.235  -0.097  -0.124 -0.3566 -0.2843  1.0259
  855MOL0     C17886   5.198  -0.229  -0.155 -0.2358 -0.3154 -0.3659
  855MOL0     C17887   5.117  -0.257  -0.263 -0.6333 -0.0274  0.6935
  855MOL0     O17888   5.084  -0.386  -0.280  0.6023 -0.1929  0.1174
  855MOL0     C17889   4.967  -0.424  -0.354 -0.2716 -0.8000  0.2679
  855MOL0     C17890   4.987  -0.547  -0.440  0.1007 -0.3320  0.0751
  855MOL0     C17891   5.019  -0.658  -0.353  0.1097 -0.0265  0.1134
  855MOL0     C17892   5.025  -0.800  -0.421  0.0805  0.2950 -0.8968
  855MOL0     C17893   5.158  -0.837  -0.490 -0.3516  0.6189  0.3536
  855MOL0     C17894   5.276  -0.872  -0.396  1.0237  1.1112  0.5017
  855MOL0     C17895   5.261  -1.010  -0.324  0.1539  0.1311  0.2348
  855MOL0     C17896   5.341  -1.128  -0.375 -0.7329  0.1209 -0.4863
  855MOL0    Cl17897   5.245  -1.245  -0.468 -0.0320 -0.3723  0.0906
  855MOL0     C17898   5.079  -0.150  -0.354  0.2598 -1.1063 -1.2957
  855MOL0     C17899   5.122  -0.020  -0.322 -1.5553  0.5691  1.1394
  855MOL0     O17900   5.455   0.097  -0.235 -0.5100  0.2056 -0.2685
  855MOL0     C17901   5.554   0.309  -0.082  0.1376 -0.2639  0.1228
  855MOL0     C17902   5.600   0.420  -0.013  0.3539 -0.5492  0.8633
  855MOL0     N17903   5.580   1.128   0.164 -0.1081 -0.5449  0.0313
  855MOL0     N17904   5.550   1.193   0.266 -0.0811 -0.4463 -0.2368
  855MOL0     C17905   6.118   2.144   0.422 -0.4033 -0.4215 -0.6084
  855MOL0     C17906   6.203   2.102   0.321  0.6271 -0.2044 -0.4764
  855MOL0     C17907   6.445   1.972   0.007 -0.2228 -0.0081  0.6804
  855MOL0     C17908   6.378   1.902  -0.098  0.4270 -0.3115  0.8818
  855MOL0     C17909   6.449   1.802  -0.172  0.0473 -0.3859 -0.7884
  855MOL0     C17910   6.577   1.761  -0.141  0.5052 -0.5700 -0.2456
  855MOL0     O17911   6.625   1.663  -0.222 -0.7555  0.6628 -0.3798
  855MOL0     C17912   6.737   1.590  -0.172 -0.3651 -0.7283  0.2710
  855MOL0     C17913   6.692   1.469  -0.086  0.1842  0.2532  0.0550
  855MOL0     C17914   6.602   1.387  -0.178  0.4296 -0.1125  0.8473
  855MOL0     C17915   6.591   1.242  -0.145  0.0481  0.7104 -0.3502
  855MOL0     C17916   6.476   1.180  -0.213 -0.2324  0.7705  0.4239
  855MOL0     C17917   6.387   1.125  -0.272  0.1524  0.0467 -0.0411
  855MOL0     C17918   6.642   1.830  -0.024  0.3554 -0.3354 -0.6248
  855MOL0     C17919   6.579   1.930   0.046 -0.1478 -0.0915  0.3255
  855MOL0     C17920   6.638   1.961   0.171 -0.0767 -0.0634 -0.4455
  855MOL0     H17921   6.015   2.213   0.063 -0.9255 -2.0686  0.1860
  855MOL0     H17922   5.852   2.265   0.239 -0.9890 -0.8242 -0.6332
  855MOL0     H17923   5.733   2.225   0.422  2.0807 -1.0920 -1.0311
  855MOL0     H17924   5.737   2.273   0.589  2.3950  1.0698  0.9625
  855MOL0     H17925   5.799   2.045   0.666 -2.4076 -3.3978  0.3735
  855MOL0     H17926   5.632   2.067   0.593 -0.7022  0.1237 -1.4464
  855MOL0     H17927   5.728   1.985   0.384  1.7505 -0.4111 -1.3107
  855MOL0     H17928   5.890   1.957   0.463  0.0014 -1.0264  0.4264
  855MOL0     H17929   5.786   1.788   0.611 -0.1822 -1.6282 -0.3705
  855MOL0     H17930   5.637   1.823   0.533 -1.3231  1.3989 -2.0432
  855MOL0     H17931   5.873   1.718   0.370 -0.6452  3.9018 -3.6585
  855MOL0     H17932   5.719   1.743   0.313 -2.3576  0.6332  2.0477
  855MOL0     H17933   5.793   1.552   0.550 -1.8863 -1.1975  1.6793
  855MOL0     H17934   5.622   1.585   0.497 -0.3762 -0.7251 -1.9362
  855MOL0     H17935   5.840   1.458   0.334 -0.4596 -1.5270  2.0228
  855MOL0     H17936   5.687   1.512   0.270 -2.3445 -1.5872  0.5962
  855MOL0     H17937   5.734   1.305   0.506  0.6450 -1.4216 -1.0996
  855MOL0     H17938   5.571   1.355   0.439 -0.1755  3.1822 -3.2358
  855MOL0     H17939   5.875   1.178   0.274 -0.9754  3.3505 -2.5240
  855MOL0     H17940   5.900   1.020   0.091  0.3099  3.2715 -1.2952
  855MOL0     H17941   5.801   1.093  -0.027 -1.2794  0.5416 -0.1954
  855MOL0     H17942   5.643   0.912   0.003 -0.6946 -0.5176  1.0415
  855MOL0     H17943   5.808   0.845  -0.048 -1.3805 -1.2715 -0.4271
  855MOL0     H17944   5.863   0.787   0.183 -1.2683 -3.3533  0.8577
  855MOL0     H17945   5.704   0.827   0.243 -1.0922 -2.2837  0.6990
  855MOL0     H17946   5.773   0.639   0.018  1.5143 -0.0911  1.0984
  855MOL0     H17947   5.733   0.585   0.193 -1.6739  0.8785  1.3888
  855MOL0     H17948   5.337   0.616  -0.001  0.1017  0.6266  0.2829
  855MOL0     H17949   5.154   0.352  -0.097  7.1973 -3.8959  2.2339
  855MOL0     H17950   5.182   0.405  -0.261  0.5732 -0.3878 -0.0093
  855MOL0     H17951   5.157   0.533  -0.133  0.7249  0.2553 -0.3725
  855MOL0     H17952   5.300  -0.085  -0.038  2.3000 -2.2184 -0.5305
  855MOL0     H17953   5.228  -0.315  -0.096  1.1447 -3.4287 -5.0160
  855MOL0     H17954   4.901  -0.443  -0.269  3.0252  0.2037  3.2832
  855MOL0     H17955   4.936  -0.339  -0.416  0.1308  1.2732  2.7110
  855MOL0     H17956   4.894  -0.574  -0.491  0.4838  1.7371 -1.8839
  855MOL0     H17957   5.071  -0.535  -0.510  0.1567 -3.5987 -0.5941
  855MOL0     H17958   4.939  -0.671  -0.280  0.1101  0.1554  0.1467
  855MOL0     H17959   5.112  -0.639  -0.298 -0.5894  2.1302  0.6629
  855MOL0     H17960   4.953  -0.800  -0.504 -0.5111 -1.9225 -0.4460
  855MOL0     H17961   4.973  -0.879  -0.367  0.1643  0.1950 -0.9600
  855MOL0     H17962   5.147  -0.916  -0.565 -0.7548 -0.4933  1.5567
  855MOL0     H17963   5.192  -0.752  -0.550  0.8517 -0.0435  0.0772
  855MOL0     H17964   5.267  -0.802  -0.312 -2.2221 -0.9870  2.0950
  855MOL0     H17965   5.374  -0.867  -0.444  1.5912  0.0958  1.5247
  855MOL0     H17966   5.154  -1.031  -0.315 -0.5517  0.6872 -4.2090
  855MOL0     H17967   5.295  -0.987  -0.223  1.4698 -0.6084 -0.0119
  855MOL0     H17968   5.382  -1.166  -0.281  0.3043  0.4236 -0.8064
  855MOL0     H17969   5.416  -1.097  -0.448  0.6413 -2.2943 -0.1704
  855MOL0     H17970   5.019  -0.151  -0.445  0.5129  1.7799 -1.5671
  855MOL0     H17971   5.084   0.066  -0.377 -1.7756 -0.0772  0.2662
  855MOL0     H17972   5.617   0.220  -0.087 -0.1310 -0.5115  1.0693
  855MOL0     H17973   5.700   0.407   0.026  0.5106  0.8664  0.9974
  855MOL0     H17974   6.169   2.128   0.517 -0.4448  2.3499 -0.0414
  855MOL0     H17975   6.301   2.068   0.352 -0.2295 -0.0948  2.7488
  855MOL0     H17976   6.276   1.924  -0.129  0.4797 -0.7733  0.3553
  855MOL0     H17977   6.408   1.755  -0.261  0.5242 -2.4584  0.0239
  855MOL0     H17978   6.791   1.558  -0.262 -2.3867 -1.1646 -0.8616
  855MOL0     H17979   6.805   1.654  -0.116 -1.3563 -0.1973  0.8945
  855MOL0     H17980   6.638   1.500   0.004  0.0165 -2.3593  0.9343
  855MOL0     H17981   6.788   1.421  -0.061  0.2379  0.5271  0.3948
  855MOL0     H17982   6.503   1.435  -0.180  0.2249 -0.3209 -3.3394
  855MOL0     H17983   6.638   1.387  -0.281  1.6434 -0.5858  1.2607
  855MOL0     H17984   6.590   1.235  -0.036  2.8066 -0.9618 -0.3446
  855MOL0     H17985   6.680   1.193  -0.186 -0.5428 -2.1276  1.4293
  855MOL0     H17986   6.316   1.056  -0.315 -2.1176  0.4163  2.8050
  855MOL0     H17987   6.743   1.810   0.008  1.1073  1.3871 -1.7631
  855MOL0     H17988   6.697   2.051   0.153  1.2776 -1.3138 -2.6116
  855MOL0     H17989   6.576   1.987   0.258  3.1224  1.3777  1.6084
  855MOL0     H17990   6.702   1.878   0.201  0.6417  1.4304  2.6332
  856MOL0     O17991   8.964   2.320   5.383  0.1448  0.0165 -0.2263
  856MOL0     C17992   9.038   2.383   5.312  0.4480 -0.7504  0.2854
  856MOL0     O17993   9.164   2.331   5.264  0.1239  0.2809 -0.4556
  856MOL0     C17994   9.206   2.205   5.301 -0.5698  0.5148  0.5929
  856MOL0     C17995   9.194   2.142   5.427  0.0548 -0.2469  0.5716
  856MOL0     C17996   9.236   2.014   5.459 -0.1682 -0.1602  0.4408
  856MOL0     C17997   9.288   1.933   5.354 -0.1220  0.9955  0.1565
  856MOL0     O17998   9.316   1.801   5.357 -0.2019 -0.1483 -0.1920
  856MOL0     C17999   9.284   1.727   5.471  1.1530 -0.4079 -0.4770
  856MOL0     C18000   9.402   1.747   5.560  0.0760 -0.3626 -0.5200
  856MOL0     C18001   9.434   1.643   5.656 -0.6048 -0.5139  0.1514
  856MOL0     C18002   9.571   1.654   5.729  0.2747  0.1693  0.1671
  856MOL0     C18003   9.562   1.595   5.866 -0.6796 -0.6484  0.9378
  856MOL0     C18004   9.687   1.651   5.939  0.2603  0.1731  1.4627
  856MOL0     C18005   9.737   1.561   6.055  1.0330  1.0595 -0.1420
  856MOL0     C18006   9.661   1.549   6.186  0.2770  0.4254  0.9339
  856MOL0     N18007   9.573   1.660   6.203  0.9685  0.5679 -0.0385
  856MOL0     C18008   9.436   1.648   6.232  0.1585  0.2104  0.0431
  856MOL0     C18009   9.409   1.771   6.288  0.0250 -0.0313 -0.1009
  856MOL0     C18010   9.271   1.802   6.339  0.6808  0.2192 -0.7039
  856MOL0     C18011   9.252   1.758   6.489 -0.5891  0.3416  0.2737
  856MOL0     C18012   9.200   1.884   6.576  0.1750  0.3371  0.4261
  856MOL0     C18013   9.052   1.908   6.563 -0.3002  0.0048  0.1218
  856MOL0     O18014   9.020   1.941   6.430 -0.4822 -0.0398 -0.2910
  856MOL0     C18015   8.894   1.945   6.398  0.1242 -0.5988 -0.7924
  856MOL0     C18016   8.858   1.912   6.270  0.2693 -0.1455  0.3041
  856MOL0     C18017   8.731   1.896   6.222 -0.4084 -0.1651  0.9388
  856MOL0     C18018   8.727   1.890   6.072  0.4638 -0.8175  0.5569
  856MOL0     C18019   8.623   1.929   6.310 -1.2780 -0.0087  0.1287
  856MOL0     C18020   8.477   1.931   6.286 -0.5180 -0.2813  0.0832
  856MOL0     O18021   8.389   1.995   6.375  0.3418  0.5125 -0.3079
  856MOL0     C18022   8.256   1.985   6.343 -0.4261 -0.2017  0.0698
  856MOL0     C18023   8.180   2.104   6.339  0.1970  1.0089 -0.7119
  856MOL0     C18024   8.038   2.096   6.325 -1.1377  0.5663 -0.4229
  856MOL0     C18025   7.982   1.974   6.325 -0.0959  0.3680  0.9947
  856MOL0     O18026   7.849   1.977   6.328  0.2681  0.7186 -0.5847
  856MOL0     C18027   7.771   1.896   6.235 -0.3795  1.1048  0.0269
  856MOL0     C18028   7.625   1.949   6.217  0.1690  0.4294  0.1948
  856MOL0     C18029   7.613   2.047   6.110 -0.1206 -0.2974 -0.0280
  856MOL0     C18030   7.641   1.989   5.970  0.1177 -1.0898 -0.7278
  856MOL0     C18031   7.570   2.072   5.861  0.0018 -0.9110 -1.4650
  856MOL0     C18032   7.630   2.215   5.847 -0.4717  0.1846 -0.2198
  856MOL0     C18033   7.576   2.295   5.735  0.1739 -0.1816 -0.3417
  856MOL0     C18034   7.427   2.341   5.741 -0.0379  0.7780  0.0171
  856MOL0    Cl18035   7.417   2.427   5.896  0.1285 -0.1394 -0.2249
  856MOL0     C18036   8.055   1.854   6.316  0.4718  0.3483  0.6654
  856MOL0     C18037   8.191   1.857   6.323 -1.0178 -0.9903 -0.4691
  856MOL0     O18038   8.440   1.889   6.177  0.3688 -0.1559  0.1731
  856MOL0     C18039   8.660   1.969   6.447  0.2448 -0.2398  0.5906
  856MOL0     C18040   8.796   1.980   6.485  0.5308 -0.5736  0.4786
  856MOL0     N18041   9.516   1.860   6.282 -0.2374  0.5267 -0.0143
  856MOL0     N18042   9.611   1.788   6.233 -0.4020  1.0280  0.1218
  856MOL0     C18043   9.317   1.996   5.227  1.2309  0.7268 -0.1533
  856MOL0     C18044   9.277   2.129   5.210 -0.7955 -0.8216  0.3973
  856MOL0     C18045   9.006   2.522   5.274  0.4096 -0.5024  0.9080
  856MOL0     C18046   9.109   2.604   5.225  0.3722  0.5096  0.3278
  856MOL0     C18047   9.094   2.734   5.183 -0.1378  0.2401 -0.1495
  856MOL0     C18048   8.965   2.790   5.191 -0.0957 -0.2847 -0.2784
  856MOL0     O18049   8.961   2.922   5.146  0.0509  0.3897  0.1029
  856MOL0     C18050   8.849   3.011   5.177 -0.3488 -0.9086  0.1625
  856MOL0     C18051   8.854   3.041   5.330 -0.8680  0.7802  1.0201
  856MOL0     C18052   8.725   3.114   5.358 -0.6524  1.1810  0.8511
  856MOL0     C18053   8.707   3.164   5.504  0.4162  0.2776  0.4576
  856MOL0     C18054   8.711   3.055   5.603 -0.1767 -0.0149  0.5082
  856MOL0     C18055   8.734   2.963   5.677  0.0029 -0.1461  0.1356
  856MOL0     C18056   8.863   2.710   5.240 -0.9978 -0.2153  0.3604
  856MOL0     C18057   8.879   2.576   5.272  0.3959 -0.4194  0.1871
  856MOL0     C18058   8.758   2.510   5.314 -0.2110  0.6003  0.2950
  856MOL0     H18059   9.132   2.193   5.501  0.8152  0.5215  0.6946
  856MOL0     H18060   9.228   1.971   5.559  2.5446 -2.5228 -0.2551
  856MOL0     H18061   9.258   1.623   5.452 -0.0638 -0.5420  1.6607
  856MOL0     H18062   9.191   1.761   5.518  2.5338  0.9873  1.4397
  856MOL0     H18063   9.491   1.741   5.497  0.8783 -1.0369  0.6317
  856MOL0     H18064   9.402   1.847   5.605  2.8121 -2.1036  4.0652
  856MOL0     H18065   9.345   1.642   5.720 -2.4565  3.1689 -2.0274
  856MOL0     H18066   9.440   1.545   5.607  0.7849  0.1933 -1.1920
  856MOL0     H18067   9.639   1.602   5.662 -1.9052  0.3125 -2.3145
  856MOL0     H18068   9.601   1.759   5.737 -0.2924  0.2198  2.2928
  856MOL0     H18069   9.569   1.487   5.851 -0.2816 -0.6502  1.1419
  856MOL0     H18070   9.471   1.622   5.920  0.5568  1.8282  1.9510
  856MOL0     H18071   9.776   1.665   5.876 -0.6810 -1.3880 -0.3003
  856MOL0     H18072   9.657   1.753   5.967 -0.2762  0.7560 -0.9750
  856MOL0     H18073   9.834   1.606   6.080  0.6810  0.7982  1.8147
  856MOL0     H18074   9.755   1.463   6.011 -3.3341 -0.6589  1.3957
  856MOL0     H18075   9.610   1.452   6.197 -1.7071  1.6051  3.4360
  856MOL0     H18076   9.724   1.544   6.276  0.4694  0.8449  0.8245
  856MOL0     H18077   9.364   1.566   6.237 -1.6147  1.7505  2.7514
  856MOL0     H18078   9.202   1.733   6.289  2.6039 -1.2355 -1.4775
  856MOL0     H18079   9.250   1.909   6.330 -0.3257  0.7099  4.4804
  856MOL0     H18080   9.184   1.672   6.497 -1.0901  0.8481  1.9609
  856MOL0     H18081   9.348   1.721   6.524 -0.8231  0.7510  1.3788
  856MOL0     H18082   9.213   1.867   6.684 -3.6718 -1.2947  0.7799
  856MOL0     H18083   9.253   1.974   6.545  1.3037 -0.8207 -1.2148
  856MOL0     H18084   8.996   1.819   6.595  0.4341 -0.2384  0.7592
  856MOL0     H18085   9.033   1.997   6.623  2.9379  1.2494 -0.4718
  856MOL0     H18086   8.943   1.885   6.208  0.1203  2.0061 -0.9263
  856MOL0     H18087   8.798   1.958   6.023 -0.2832 -0.6950 -0.3709
  856MOL0     H18088   8.625   1.918   6.049 -0.0244 -0.5774  2.7600
  856MOL0     H18089   8.743   1.789   6.033 -1.3356 -1.1333  0.5777
  856MOL0     H18090   8.219   2.197   6.379  0.4962 -0.0654  1.6942
  856MOL0     H18091   7.963   2.175   6.327 -0.1568  1.5176  0.4130
  856MOL0     H18092   7.819   1.888   6.137 -0.3378 -0.8222  0.1589
  856MOL0     H18093   7.748   1.796   6.274 -2.1377  0.1168 -3.1677
  856MOL0     H18094   7.548   1.872   6.209  2.2174 -1.8931  1.4088
  856MOL0     H18095   7.596   2.001   6.308 -1.4483 -0.3544  0.1630
  856MOL0     H18096   7.670   2.139   6.121 -2.4727  0.9897  2.2561
  856MOL0     H18097   7.508   2.077   6.113 -0.3447 -0.9995 -0.4752
  856MOL0     H18098   7.609   1.885   5.955 -1.1748 -0.6314 -1.2606
  856MOL0     H18099   7.747   1.987   5.942  1.2519 -2.2438  3.0705
  856MOL0     H18100   7.584   2.027   5.763 -0.6977  2.4009 -3.2545
  856MOL0     H18101   7.462   2.069   5.880  0.2729  1.2671  1.0320
  856MOL0     H18102   7.737   2.200   5.831 -0.7078 -0.3628 -1.3267
  856MOL0     H18103   7.627   2.268   5.943  0.5675 -0.1913  0.0350
  856MOL0     H18104   7.567   2.234   5.645  2.1639  1.8032 -2.0040
  856MOL0     H18105   7.639   2.384   5.727 -2.1558  1.3851 -3.0542
  856MOL0     H18106   7.360   2.256   5.731 -0.0634  0.5218  2.0442
  856MOL0     H18107   7.410   2.415   5.662 -3.4303  1.5121  1.2766
  856MOL0     H18108   7.997   1.762   6.321  0.4287  0.3664  0.4768
  856MOL0     H18109   8.245   1.766   6.344  0.3834 -0.1695 -0.3948
  856MOL0     H18110   8.583   1.975   6.524  1.0834 -0.5993  1.4801
  856MOL0     H18111   8.819   2.012   6.586  0.4726  0.6766  0.1183
  856MOL0     H18112   9.344   1.931   5.145 -4.1525  2.1712 -3.6534
  856MOL0     H18113   9.294   2.176   5.113  0.1836  2.0359  1.8234
  856MOL0     H18114   9.207   2.557   5.219  0.8745  1.6197 -0.3853
  856MOL0     H18115   9.179   2.793   5.152  1.5768 -2.5097 -1.0605
  856MOL0     H18116   8.868   3.099   5.115 -2.1204 -0.8516 -0.3384
  856MOL0     H18117   8.754   2.969   5.144 -1.6268  1.2366  0.9500
  856MOL0     H18118   8.953   3.085   5.350 -0.3337 -0.5467  1.4313
  856MOL0     H18119   8.852   2.940   5.371 -0.6062 -1.3253 -3.5316
  856MOL0     H18120   8.726   3.204   5.296 -0.2874 -0.3141 -1.4604
  856MOL0     H18121   8.643   3.044   5.336  0.4917 -0.2251  0.9116
  856MOL0     H18122   8.607   3.208   5.507 -0.7209 -2.1237  0.1820
  856MOL0     H18123   8.786   3.235   5.532 -0.4258  0.7289  1.8176
  856MOL0     H18124   8.770   2.887   5.744 -1.7787 -0.8383  0.3515
  856MOL0     H18125   8.769   2.765   5.245  1.6629  4.7581  1.7417
  856MOL0     H18126   8.708   2.589   5.370 -1.9441  1.1311 -1.8539
  856MOL0     H18127   8.682   2.487   5.239  2.2351 -2.5332 -1.5313
  856MOL0     H18128   8.764   2.425   5.383 -1.6262  2.5678  3.0053
  857MOL0     O18129   9.632   6.320   2.335 -0.8291 -1.4944  0.2594
  857MOL0     C18130   9.749   6.349   2.316  0.0318 -0.0760 -0.5661
  857MOL0     O18131   9.849   6.300   2.385  0.7387  0.1511 -0.5870
  857MOL0     C18132   9.843   6.253   2.514 -0.0107 -0.8075  0.4006
  857MOL0     C18133   9.738   6.268   2.606  0.3804 -0.2409  0.0156
  857MOL0     C18134   9.742   6.217   2.732  0.7953 -0.5226  0.2075
  857MOL0     C18135   9.841   6.116   2.766 -0.4206 -0.1745  0.2737
  857MOL0     O18136   9.857   6.035   2.877  0.3299  0.2843  0.1725
  857MOL0     C18137   9.771   6.060   2.984  1.1731 -0.3346 -0.0251
  857MOL0     C18138   9.792   5.943   3.080  0.1649  0.1405 -0.0518
  857MOL0     C18139   9.761   5.809   3.014 -0.2464  0.2906  0.7298
  857MOL0     C18140   9.704   5.702   3.111 -0.3655 -0.4908 -0.0480
  857MOL0     C18141   9.724   5.559   3.066 -0.5577 -0.3715  0.7914
  857MOL0     C18142   9.627   5.475   3.143 -0.0915 -1.5057 -0.7050
  857MOL0     C18143   9.498   5.466   3.055  0.7415  0.5399  0.6585
  857MOL0     C18144   9.379   5.399   3.126 -0.8637  0.0323  0.2034
  857MOL0     N18145   9.343   5.465   3.252  0.5206  0.0694 -0.1164
  857MOL0     C18146   9.418   5.457   3.362 -0.2091  0.5946  0.2976
  857MOL0     C18147   9.359   5.533   3.458  0.3238  0.1095  0.3777
  857MOL0     C18148   9.402   5.566   3.597 -0.1306 -0.2681  0.9759
  857MOL0     C18149   9.518   5.685   3.595 -0.4227  0.5726 -0.3874
  857MOL0     C18150   9.467   5.807   3.523  0.1344  0.1680  1.1471
  857MOL0     C18151   9.556   5.925   3.518 -0.4869  0.1866  0.0424
  857MOL0     O18152   9.495   6.017   3.425  0.2359 -0.3807  0.4274
  857MOL0     C18153   9.558   6.138   3.413 -0.8449 -0.4218  0.6065
  857MOL0     C18154   9.524   6.199   3.292  0.5268 -0.2871  0.4367
  857MOL0     C18155   9.576   6.319   3.256  0.2358  1.0394 -0.2937
  857MOL0     C18156   9.541   6.373   3.127  0.5670  0.8876  0.3960
  857MOL0     C18157   9.666   6.385   3.341 -0.4583 -0.4378  0.3017
  857MOL0     C18158   9.735   6.513   3.301  0.6867  0.5514 -0.0089
  857MOL0     O18159   9.651   6.608   3.262  0.9256  0.8277 -0.5105
  857MOL0     C18160   9.713   6.727   3.219 -0.7464 -0.6091 -0.1820
  857MOL0     C18161   9.712   6.761   3.083  0.6450 -0.5651  0.1453
  857MOL0     C18162   9.758   6.885   3.040  0.0439 -0.5341 -0.1797
  857MOL0     C18163   9.799   6.975   3.134 -0.1613 -0.8375 -0.6018
  857MOL0     O18164   9.854   7.102   3.106  1.0485 -0.2992  0.3751
  857MOL0     C18165   9.847   7.164   2.979  1.2572 -0.2793  0.4029
  857MOL0     C18166   9.829   7.315   2.994  0.4266  0.0313  0.2261
  857MOL0     C18167   9.686   7.334   3.032  0.2496  0.1504 -0.0229
  857MOL0     C18168   9.644   7.485   3.047  0.4333  0.6220  0.4905
  857MOL0     C18169   9.496   7.501   3.055  0.3791  0.0663  0.0384
  857MOL0     C18170   9.465   7.645   3.056 -0.1383 -0.7121 -0.0210
  857MOL0     C18171   9.315   7.663   3.082 -0.3870 -0.3262  0.2520
  857MOL0     C18172   9.268   7.803   3.082  0.3442  0.1253 -0.2097
  857MOL0    Cl18173   9.293   7.883   2.920 -0.3028  0.2545  0.2484
  857MOL0     C18174   9.805   6.945   3.272 -0.2803 -0.1463  0.2105
  857MOL0     C18175   9.770   6.815   3.310 -0.4376  0.1758  0.9596
  857MOL0     O18176   9.860   6.514   3.307 -0.2687 -0.4940 -0.7744
  857MOL0     C18177   9.710   6.323   3.467  1.4191  0.5133  0.7568
  857MOL0     C18178   9.661   6.194   3.492  0.4293  0.2921 -0.0196
  857MOL0     N18179   9.244   5.580   3.402 -0.1323 -0.2657  0.2797
  857MOL0     N18180   9.231   5.535   3.282 -0.3619 -0.1836  0.2137
  857MOL0     C18181   9.943   6.102   2.672 -0.2485 -0.2299 -0.2567
  857MOL0     C18182   9.951   6.174   2.553  0.2740 -0.1422  0.7841
  857MOL0     C18183   9.781   6.441   2.202 -0.6911  0.2057 -0.1987
  857MOL0     C18184   9.709   6.415   2.090  0.5696  0.2076  0.3013
  857MOL0     C18185   9.713   6.509   1.977  0.2711  0.7601 -0.6174
  857MOL0     C18186   9.796   6.622   1.986 -0.7068  0.4660 -0.1488
  857MOL0     O18187   9.786   6.701   1.875  0.5392 -0.0036  0.2285
  857MOL0     C18188   9.853   6.824   1.860 -0.4464  0.2563 -0.3015
  857MOL0     C18189   9.795   6.909   1.747 -0.7961 -0.6689  1.1318
  857MOL0     C18190   9.900   6.963   1.652 -0.1908  0.0356  0.0607
  857MOL0     C18191   9.862   6.964   1.504 -0.1762 -0.2176 -0.5675
  857MOL0     C18192   9.734   7.026   1.475 -1.0659 -0.0476 -0.7898
  857MOL0     C18193   9.630   7.077   1.464  0.7577  0.5026  0.6700
  857MOL0     C18194   9.873   6.640   2.106 -0.4558 -0.7676  1.1313
  857MOL0     C18195   9.871   6.542   2.209 -0.2206 -0.5781 -0.0639
  857MOL0     C18196   9.943   6.570   2.332 -0.4145 -0.0018 -0.1514
  857MOL0     H18197   9.651   6.324   2.573  1.2632  0.2632 -1.5322
  857MOL0     H18198   9.670   6.234   2.811  0.1150 -0.1305 -0.4804
  857MOL0     H18199   9.666   6.062   2.954  0.3513 -3.0709  2.2956
  857MOL0     H18200   9.785   6.152   3.042 -2.1824  0.3675 -0.1454
  857MOL0     H18201   9.897   5.945   3.110  1.0503  0.4058 -2.9025
  857MOL0     H18202   9.728   5.958   3.167  1.2244  2.1145  0.4433
  857MOL0     H18203   9.692   5.823   2.930 -0.0960  3.3363  0.9746
  857MOL0     H18204   9.856   5.767   2.982 -0.3670  0.7302 -0.2424
  857MOL0     H18205   9.752   5.713   3.209  3.8540  0.4302 -2.0060
  857MOL0     H18206   9.598   5.727   3.117 -0.5624 -1.0977 -0.8218
  857MOL0     H18207   9.832   5.542   3.079  0.1857  2.6319 -0.5517
  857MOL0     H18208   9.697   5.547   2.961 -1.0776 -0.4446  0.9341
  857MOL0     H18209   9.672   5.379   3.169  1.5462 -0.4899  0.4935
  857MOL0     H18210   9.595   5.534   3.230 -0.7042  1.5323 -2.8151
  857MOL0     H18211   9.520   5.401   2.971 -4.9636 -0.7626 -0.2347
  857MOL0     H18212   9.476   5.565   3.016  1.4103  1.3279  2.1818
  857MOL0     H18213   9.291   5.387   3.062 -2.0598 -1.3567  1.9873
  857MOL0     H18214   9.416   5.297   3.143 -2.3938 -0.2103  2.5354
  857MOL0     H18215   9.498   5.384   3.369  0.3057  0.6258 -3.3848
  857MOL0     H18216   9.443   5.475   3.642 -2.1839 -1.4519  0.5743
  857MOL0     H18217   9.317   5.591   3.662  0.9890  0.4704  2.2021
  857MOL0     H18218   9.543   5.708   3.699 -2.0117  1.8370 -0.2467
  857MOL0     H18219   9.604   5.646   3.541 -2.5567 -0.6377 -3.1743
  857MOL0     H18220   9.438   5.779   3.422 -2.0505  2.6108  0.9826
  857MOL0     H18221   9.376   5.840   3.575  0.9674  2.0855  1.4546
  857MOL0     H18222   9.575   5.973   3.614 -1.1791  2.1951 -0.7572
  857MOL0     H18223   9.649   5.895   3.468 -1.4727  1.1849 -2.5659
  857MOL0     H18224   9.446   6.151   3.235 -0.6906  0.5556  1.3233
  857MOL0     H18225   9.454   6.324   3.082  0.6759  1.1487 -0.1167
  857MOL0     H18226   9.620   6.360   3.052  1.6905 -2.2188  1.9733
  857MOL0     H18227   9.497   6.473   3.132 -0.8791  0.2188  1.8501
  857MOL0     H18228   9.663   6.694   3.013 -2.0251  1.1836  0.1998
  857MOL0     H18229   9.756   6.901   2.933  2.2699  1.6745  0.0142
  857MOL0     H18230   9.939   7.136   2.925 -0.7670 -1.8574 -2.5167
  857MOL0     H18231   9.760   7.117   2.933  1.7011 -1.0119  0.2917
  857MOL0     H18232   9.890   7.343   3.081  2.8834 -1.6561 -0.8272
  857MOL0     H18233   9.860   7.362   2.901 -2.2833  0.3854 -0.5618
  857MOL0     H18234   9.676   7.284   3.129 -0.9270 -0.1435 -0.2868
  857MOL0     H18235   9.613   7.282   2.970 -0.6181 -0.6106  1.5869
  857MOL0     H18236   9.682   7.544   2.963  2.4543 -2.0166 -0.5989
  857MOL0     H18237   9.692   7.529   3.135  0.4394  4.0003 -1.0369
  857MOL0     H18238   9.439   7.464   2.970  0.1195  0.8494 -0.1432
  857MOL0     H18239   9.451   7.444   3.137 -2.4151  0.4683 -1.1010
  857MOL0     H18240   9.485   7.694   2.961  1.8344 -0.1744  0.6030
  857MOL0     H18241   9.531   7.693   3.130 -0.7244  1.6614 -0.9425
  857MOL0     H18242   9.279   7.615   3.173 -0.2619  2.4414  1.8382
  857MOL0     H18243   9.270   7.600   3.004  2.5667  0.2811 -2.1560
  857MOL0     H18244   9.311   7.868   3.159  1.6209  1.6686 -2.1357
  857MOL0     H18245   9.160   7.796   3.097  0.1788  3.0634  0.5507
  857MOL0     H18246   9.844   7.012   3.349  0.0758 -0.8912  0.6969
  857MOL0     H18247   9.793   6.789   3.413  2.2230  0.0737  0.4154
  857MOL0     H18248   9.768   6.391   3.528  4.5396 -1.2673 -0.0235
  857MOL0     H18249   9.688   6.153   3.588  1.5040  0.0829 -0.3975
  857MOL0     H18250  10.029   6.048   2.709  0.7497  1.6659  0.2958
  857MOL0     H18251  10.032   6.160   2.482  0.6086  0.5922  1.0013
  857MOL0     H18252   9.652   6.322   2.082  1.4732 -0.3602  0.2906
  857MOL0     H18253   9.670   6.500   1.878  3.5745  0.2296 -2.1575
  857MOL0     H18254   9.840   6.873   1.956 -1.9703  0.5502 -0.6257
  857MOL0     H18255   9.959   6.801   1.847  0.1737 -0.1529  4.1719
  857MOL0     H18256   9.749   6.998   1.793  3.3649  4.3158 -3.0138
  857MOL0     H18257   9.715   6.860   1.692  0.3377 -1.0026 -0.2973
  857MOL0     H18258   9.916   7.066   1.685  1.0254 -0.0686 -0.1738
  857MOL0     H18259   9.995   6.911   1.661  0.3941  1.3568  2.6688
  857MOL0     H18260   9.848   6.859   1.477  1.7521 -1.1309  1.6475
  857MOL0     H18261   9.940   7.002   1.437  1.8884 -2.9405  0.1144
  857MOL0     H18262   9.531   7.118   1.455  1.0821  1.0832 -0.4354
  857MOL0     H18263   9.921   6.735   2.129  3.1945 -1.7441 -1.5477
  857MOL0     H18264   9.868   6.573   2.411  0.3827 -0.7047  0.6430
  857MOL0     H18265  10.008   6.491   2.369  2.4597  1.5681 -1.4429
  857MOL0     H18266   9.998   6.664   2.325 -0.8688  0.1771 -1.7674
  858MOL0     O18267   4.225  11.160   1.269 -1.4412 -0.1552 -1.0996
  858MOL0     C18268   4.310  11.153   1.358  0.2116 -0.1987 -0.8399
  858MOL0     O18269   4.397  11.251   1.383  0.0011  1.3151  0.1043
  858MOL0     C18270   4.416  11.351   1.301 -0.0186 -1.3380  0.7420
  858MOL0     C18271   4.332  11.468   1.298 -0.2214  0.2184 -0.1165
  858MOL0     C18272   4.362  11.572   1.209 -1.7219 -0.6799  0.2140
  858MOL0     C18273   4.465  11.559   1.118  0.2782  0.2881  1.0661
  858MOL0     O18274   4.500  11.671   1.038 -0.3079  0.5883  0.3620
  858MOL0     C18275   4.422  11.686   0.923 -0.1788 -0.7805  0.1369
  858MOL0     C18276   4.497  11.755   0.814 -0.8357  0.3768 -0.0533
  858MOL0     C18277   4.502  11.908   0.833  0.7481 -0.7888  0.5463
  858MOL0     C18278   4.539  11.977   0.697  0.6217  0.1944 -0.1620
  858MOL0     C18279   4.510  12.129   0.690 -0.4598 -0.0725  0.1390
  858MOL0     C18280   4.616  12.218   0.746  0.9993 -0.4130 -1.9604
  858MOL0     C18281   4.605  12.364   0.689 -0.6767 -0.4938  0.5697
  858MOL0     C18282   4.717  12.461   0.741 -0.5658  0.7786  0.3567
  858MOL0     N18283   4.661  12.530   0.857 -0.5127 -0.4142  0.4086
  858MOL0     C18284   4.664  12.470   0.978 -0.7293  0.1333  0.4367
  858MOL0     C18285   4.634  12.568   1.068 -0.9453 -0.3008  0.1300
  858MOL0     C18286   4.625  12.566   1.223 -0.1081  0.5248  0.9313
  858MOL0     C18287   4.632  12.420   1.276  1.2828  0.0570  0.3244
  858MOL0     C18288   4.593  12.398   1.418 -0.5282 -0.3796  0.0605
  858MOL0     C18289   4.693  12.464   1.510  0.0473  0.5966 -0.1190
  858MOL0     O18290   4.664  12.418   1.645  0.3214 -0.2318 -0.4186
  858MOL0     C18291   4.539  12.440   1.693 -0.2858  0.6275  0.7301
  858MOL0     C18292   4.469  12.329   1.710  0.5096  1.0320 -0.3885
  858MOL0     C18293   4.348  12.337   1.775  0.8177 -0.1982  0.2320
  858MOL0     C18294   4.288  12.205   1.813  0.0109 -0.4707 -0.1808
  858MOL0     C18295   4.292  12.466   1.794  0.3748 -0.3076 -0.1030
  858MOL0     C18296   4.165  12.492   1.880  1.0293  0.1322 -1.1965
  858MOL0     O18297   4.142  12.627   1.905  0.1772  0.4542  0.4711
  858MOL0     C18298   4.052  12.669   1.998 -0.2685 -0.1032  0.8374
  858MOL0     C18299   3.967  12.766   1.943 -0.3471  0.2929  0.5900
  858MOL0     C18300   3.858  12.821   2.025  0.2567 -0.1527  0.5364
  858MOL0     C18301   3.853  12.792   2.161 -0.1691  0.6602  0.6283
  858MOL0     O18302   3.767  12.842   2.254  0.8326  0.1672 -0.2682
  858MOL0     C18303   3.657  12.918   2.198 -0.9352  0.3785 -1.0832
  858MOL0     C18304   3.572  12.970   2.314 -0.0441 -0.4586  0.4375
  858MOL0     C18305   3.460  13.061   2.256 -0.1191  0.6951 -0.4750
  858MOL0     C18306   3.358  13.100   2.357 -0.4719 -0.2279 -0.2111
  858MOL0     C18307   3.241  13.191   2.314 -0.4475  0.1229  0.4422
  858MOL0     C18308   3.124  13.102   2.264 -0.6907 -0.2953  0.0328
  858MOL0     C18309   3.003  13.185   2.220  0.7064  0.4580  0.6815
  858MOL0     C18310   2.896  13.116   2.135  0.3980 -0.5089  0.3849
  858MOL0    Cl18311   2.816  12.990   2.229  0.3459  0.0762  0.3137
  858MOL0     C18312   3.946  12.699   2.208 -0.2732  0.5561 -1.3065
  858MOL0     C18313   4.047  12.632   2.134 -0.4982 -0.4681 -0.4078
  858MOL0     O18314   4.101  12.396   1.929  0.1175 -0.4275  0.2548
  858MOL0     C18315   4.364  12.581   1.760  0.2536  0.3869 -0.4945
  858MOL0     C18316   4.494  12.572   1.719  0.4429  0.4801 -0.2145
  858MOL0     N18317   4.612  12.684   0.992 -0.0918 -0.3100 -0.3276
  858MOL0     N18318   4.628  12.661   0.866  0.1297  0.0921 -0.4059
  858MOL0     C18319   4.544  11.441   1.123  0.0825  0.2664 -0.3718
  858MOL0     C18320   4.531  11.345   1.225 -0.1098 -0.2636 -0.5615
  858MOL0     C18321   4.321  11.030   1.437 -0.0456  0.1785 -0.1479
  858MOL0     C18322   4.423  11.027   1.538 -0.5135  0.1264 -0.3346
  858MOL0     C18323   4.443  10.916   1.625  0.1935 -0.9905  0.2964
  858MOL0     C18324   4.361  10.801   1.612  1.0331 -0.5243  0.1051
  858MOL0     O18325   4.404  10.696   1.687  0.3899 -0.0433  0.5283
  858MOL0     C18326   4.307  10.599   1.731 -0.1156  0.7139  0.3271
  858MOL0     C18327   4.342  10.553   1.868 -0.3373  0.5396  0.6400
  858MOL0     C18328   4.242  10.436   1.908 -0.3909 -0.8468  0.0144
  858MOL0     C18329   4.266  10.379   2.044 -0.5618  0.2779 -0.0274
  858MOL0     C18330   4.149  10.316   2.094  1.2337 -0.1603  0.6691
  858MOL0     C18331   4.054  10.254   2.126 -0.7613  0.8061 -0.2220
  858MOL0     C18332   4.258  10.804   1.516 -0.5555  0.5059 -0.0106
  858MOL0     C18333   4.244  10.912   1.428  0.7496  0.0419 -0.4928
  858MOL0     C18334   4.147  10.888   1.320  1.2971  0.1144  0.3404
  858MOL0     H18335   4.247  11.472   1.364  0.3340 -1.2079  0.7244
  858MOL0     H18336   4.301  11.662   1.210 -3.2473 -1.6662  1.5723
  858MOL0     H18337   4.337  11.753   0.941 -0.4823 -0.5999 -1.7030
  858MOL0     H18338   4.377  11.592   0.890  0.0016 -1.9045  2.8370
  858MOL0     H18339   4.600  11.720   0.817  0.2649  3.2385 -0.8641
  858MOL0     H18340   4.446  11.739   0.718 -0.6241  4.1898 -0.9714
  858MOL0     H18341   4.397  11.937   0.844  0.2682 -2.3941  0.5882
  858MOL0     H18342   4.564  11.935   0.919  2.1038 -2.0167 -0.0031
  858MOL0     H18343   4.646  11.963   0.677  0.0254 -1.3015 -2.8206
  858MOL0     H18344   4.485  11.931   0.615 -1.5487  0.9504  0.7776
  858MOL0     H18345   4.413  12.139   0.740 -1.0349  1.8746 -1.2352
  858MOL0     H18346   4.506  12.164   0.586  4.1619  0.6501  0.0188
  858MOL0     H18347   4.604  12.209   0.854 -0.2080 -0.2163 -2.0643
  858MOL0     H18348   4.718  12.178   0.734  3.5254  2.7767  4.0952
  858MOL0     H18349   4.499  12.384   0.702 -0.8423 -1.6701  1.1810
  858MOL0     H18350   4.614  12.363   0.580  0.5908 -2.7099  0.6126
  858MOL0     H18351   4.815  12.416   0.761  0.2335  1.0336 -2.4467
  858MOL0     H18352   4.740  12.539   0.666 -1.2057  1.5185  0.9164
  858MOL0     H18353   4.689  12.368   1.005 -1.7780 -0.7148 -1.6140
  858MOL0     H18354   4.536  12.611   1.267  0.5574 -0.3813  3.3643
  858MOL0     H18355   4.698  12.632   1.272  1.7331 -0.4953 -0.3107
  858MOL0     H18356   4.559  12.363   1.217 -0.7950  3.1172 -0.2943
  858MOL0     H18357   4.736  12.386   1.275  1.4870  0.3806  2.9422
  858MOL0     H18358   4.496  12.444   1.436  0.4539  1.5024  0.7551
  858MOL0     H18359   4.583  12.292   1.442 -2.0483 -0.5224 -1.0142
  858MOL0     H18360   4.798  12.455   1.483  0.1411 -0.0662  0.4362
  858MOL0     H18361   4.685  12.573   1.515  3.2082  0.9321 -0.6126
  858MOL0     H18362   4.519  12.233   1.710 -0.9020  0.2302  1.2408
  858MOL0     H18363   4.280  12.203   1.922  2.2685  5.2841  0.4101
  858MOL0     H18364   4.341  12.116   1.778  0.9357 -1.7367  3.9036
  858MOL0     H18365   4.184  12.198   1.779  0.1695 -0.1911 -0.7397
  858MOL0     H18366   3.950  12.769   1.835 -1.7566 -1.1126  0.7317
  858MOL0     H18367   3.796  12.890   1.969  2.6935  0.5248 -1.5434
  858MOL0     H18368   3.709  13.000   2.148 -2.2188  2.3349  0.6504
  858MOL0     H18369   3.592  12.854   2.137 -2.1258  1.0768 -0.5797
  858MOL0     H18370   3.534  12.883   2.367 -0.4334 -1.1038 -0.8690
  858MOL0     H18371   3.637  13.025   2.384  2.0771 -2.1761 -0.0563
  858MOL0     H18372   3.401  13.014   2.177  0.2702 -1.3588  0.3850
  858MOL0     H18373   3.502  13.151   2.210 -2.2569  1.1099 -1.7587
  858MOL0     H18374   3.409  13.157   2.435 -2.1847 -0.2887  1.0221
  858MOL0     H18375   3.312  13.009   2.397  1.0534 -0.7929  0.3107
  858MOL0     H18376   3.208  13.261   2.391 -1.3750  1.1776 -0.8551
  858MOL0     H18377   3.262  13.250   2.224 -3.4266 -1.8289 -1.7359
  858MOL0     H18378   3.100  13.037   2.349 -1.3790 -0.6976 -0.4678
  858MOL0     H18379   3.163  13.048   2.177  2.4149  2.4075 -0.4481
  858MOL0     H18380   3.048  13.268   2.165 -1.6041 -0.0087 -2.1626
  858MOL0     H18381   2.953  13.224   2.309  0.5049  3.6413 -0.7141
  858MOL0     H18382   2.925  13.082   2.035 -0.8810  0.1334 -0.2278
  858MOL0     H18383   2.821  13.190   2.105  0.8244  0.0156  0.6050
  858MOL0     H18384   3.972  12.679   2.311  4.6402 -0.5206 -2.4986
  858MOL0     H18385   4.113  12.553   2.166  0.5464 -0.8045 -3.1580
  858MOL0     H18386   4.333  12.683   1.778  1.0391  0.7304 -1.0605
  858MOL0     H18387   4.543  12.665   1.694  2.2858 -0.1710  0.7799
  858MOL0     H18388   4.614  11.418   1.043 -0.4453 -2.0220 -0.2402
  858MOL0     H18389   4.594  11.257   1.232  0.4363  0.2405  2.3027
  858MOL0     H18390   4.500  11.102   1.549  0.9998 -0.9828 -2.6464
  858MOL0     H18391   4.533  10.911   1.684  1.7560  0.5721 -1.7824
  858MOL0     H18392   4.208  10.642   1.748 -0.5215 -0.5388  1.2891
  858MOL0     H18393   4.300  10.511   1.665 -2.3267  1.4072 -0.4577
  858MOL0     H18394   4.335  10.635   1.940 -1.0990  2.4528 -1.4858
  858MOL0     H18395   4.444  10.514   1.863 -0.3776  0.0843  2.4388
  858MOL0     H18396   4.139  10.471   1.904  0.2821  1.2159 -3.4798
  858MOL0     H18397   4.252  10.342   1.853  2.3421 -2.3674  2.7575
  858MOL0     H18398   4.296  10.454   2.117  3.6389 -1.0570 -0.1644
  858MOL0     H18399   4.347  10.307   2.034 -2.4315 -1.9996  0.4016
  858MOL0     H18400   3.959  10.209   2.148  0.3042 -0.3405  2.5030
  858MOL0     H18401   4.212  10.707   1.497 -0.6004  1.1577 -4.3374
  858MOL0     H18402   4.203  10.881   1.226  2.6595  0.4952  1.1022
  858MOL0     H18403   4.107  10.786   1.324 -1.5314  1.1122 -0.1486
  858MOL0     H18404   4.072  10.967   1.314  2.6080  1.4443  0.8493
  859MOL0     O18405   7.412   8.346   9.328  0.1011 -0.0227  0.0709
  859MOL0     C18406   7.326   8.295   9.246 -0.3194 -0.8021  0.3564
  859MOL0     O18407   7.210   8.343   9.215  0.5857 -0.6106 -0.6856
  859MOL0     C18408   7.181   8.470   9.275  0.7413  0.2626  0.7654
  859MOL0     C18409   7.069   8.459   9.357  0.4183  0.1595 -0.2420
  859MOL0     C18410   7.031   8.578   9.418  0.1293  0.5237  0.3346
  859MOL0     C18411   7.107   8.700   9.404  0.0032 -0.1086  0.1665
  859MOL0     O18412   7.061   8.824   9.450 -0.2432  0.8520 -0.3387
  859MOL0     C18413   7.034   8.920   9.338 -0.2570 -0.6256 -1.5498
  859MOL0     C18414   7.037   9.062   9.387 -0.0323 -0.5453  0.5847
  859MOL0     C18415   7.077   9.163   9.279  0.1930  0.3628  0.2040
  859MOL0     C18416   6.951   9.165   9.180 -0.3028 -0.0225 -0.0155
  859MOL0     C18417   6.974   9.284   9.082 -1.0291 -0.8531  0.3777
  859MOL0     C18418   6.914   9.422   9.099  0.5013 -0.7175  0.6061
  859MOL0     C18419   6.926   9.509   8.971 -0.5894 -0.4496 -0.3733
  859MOL0     C18420   7.069   9.548   8.926 -1.1760 -1.3615  0.5009
  859MOL0     N18421   7.060   9.644   8.817  0.5785  0.2328 -0.2023
  859MOL0     C18422   7.108   9.772   8.827 -0.2670  0.5366 -0.3082
  859MOL0     C18423   7.073   9.834   8.710 -0.1783 -0.2050 -0.0704
  859MOL0     C18424   7.087   9.976   8.682 -0.8061 -0.1121  0.3442
  859MOL0     C18425   7.226  10.033   8.701 -0.9171  0.3186 -0.6897
  859MOL0     C18426   7.263  10.080   8.846  0.8990  0.3740  0.5058
  859MOL0     C18427   7.419  10.101   8.857  1.0680  1.1896  0.2701
  859MOL0     O18428   7.508   9.991   8.821  0.9579  0.0580  0.1922
  859MOL0     C18429   7.476   9.875   8.885 -0.7432  0.5722 -0.1132
  859MOL0     C18430   7.455   9.850   9.026 -0.6065  0.0726 -0.6266
  859MOL0     C18431   7.449   9.720   9.071  1.1136 -0.5074  0.2385
  859MOL0     C18432   7.430   9.682   9.220  0.1766  0.3697  1.5052
  859MOL0     C18433   7.447   9.611   8.981 -0.2707 -0.4497  0.0637
  859MOL0     C18434   7.401   9.472   9.007  0.1134 -0.5483 -0.6310
  859MOL0     O18435   7.435   9.374   8.928  0.2434 -0.2101 -0.5362
  859MOL0     C18436   7.390   9.249   8.946 -1.1581  0.0930  0.8692
  859MOL0     C18437   7.448   9.163   9.034 -0.7652 -0.2396 -0.2022
  859MOL0     C18438   7.404   9.030   9.057 -0.1366 -0.2826 -0.2572
  859MOL0     C18439   7.310   8.980   8.977 -0.2540 -0.0350  0.1572
  859MOL0     O18440   7.271   8.840   8.991 -1.0134  0.2564  0.9244
  859MOL0     C18441   7.136   8.804   8.935 -0.4939 -0.3361  0.1358
  859MOL0     C18442   7.068   8.689   9.016  0.9477 -0.8632 -0.1086
  859MOL0     C18443   6.958   8.624   8.932 -0.5289 -0.5134 -0.2641
  859MOL0     C18444   6.882   8.517   9.015  0.4932  0.2804  0.3110
  859MOL0     C18445   6.765   8.572   9.080  0.4354 -0.5143 -0.6830
  859MOL0     C18446   6.680   8.458   9.141  0.2562  0.2636 -0.6627
  859MOL0     C18447   6.548   8.504   9.188 -0.5223 -0.0642 -1.0293
  859MOL0     C18448   6.452   8.551   9.083  0.2240  0.6232  0.4854
  859MOL0    Cl18449   6.402   8.414   8.976  0.1022  0.3167  0.0023
  859MOL0     C18450   7.263   9.058   8.875  1.0195  0.0289  0.3733
  859MOL0     C18451   7.297   9.197   8.864 -0.8667 -0.2224 -0.0997
  859MOL0     O18452   7.315   9.457   9.089 -0.3288 -0.3882 -0.0574
  859MOL0     C18453   7.467   9.638   8.844 -0.0148 -0.9775  0.9530
  859MOL0     C18454   7.484   9.767   8.800 -0.3479  0.4051  0.2440
  859MOL0     N18455   6.986   9.754   8.638  0.4214  0.4577 -0.1308
  859MOL0     N18456   6.986   9.633   8.701  0.8639 -0.6502  0.0458
  859MOL0     C18457   7.226   8.705   9.333  0.1745  0.8599 -0.0077
  859MOL0     C18458   7.256   8.585   9.268 -0.6247 -1.1661  0.4547
  859MOL0     C18459   7.377   8.185   9.161  0.3979  0.1168  0.5207
  859MOL0     C18460   7.386   8.200   9.018 -0.1144  0.1663  0.0597
  859MOL0     C18461   7.408   8.094   8.935  0.3090 -0.7290 -0.7757
  859MOL0     C18462   7.427   7.968   8.996 -0.5565 -0.1553  0.0983
  859MOL0     O18463   7.429   7.851   8.919  0.5976 -0.3173 -1.3750
  859MOL0     C18464   7.458   7.859   8.778  0.5954  0.0116  0.0794
  859MOL0     C18465   7.468   7.714   8.715  0.5751  0.3430  0.2486
  859MOL0     C18466   7.537   7.709   8.577 -0.6982  0.5833 -0.3132
  859MOL0     C18467   7.682   7.685   8.591 -0.2266 -0.0507 -0.5375
  859MOL0     C18468   7.741   7.647   8.467 -0.0983  0.5480  0.6405
  859MOL0     C18469   7.805   7.607   8.365 -0.7886 -0.8084 -0.7541
  859MOL0     C18470   7.432   7.953   9.137 -0.3735  0.1272  0.2289
  859MOL0     C18471   7.399   8.063   9.220  0.0545  0.6960 -0.6792
  859MOL0     C18472   7.394   8.034   9.376  0.6020 -0.9543 -0.1262
  859MOL0     H18473   7.022   8.361   9.352 -2.0816  1.3404 -2.7363
  859MOL0     H18474   6.940   8.579   9.477  1.0931  0.2585  1.8967
  859MOL0     H18475   6.930   8.905   9.306 -0.5327 -1.4728 -0.3091
  859MOL0     H18476   7.108   8.912   9.257 -3.2375  0.4414 -4.6465
  859MOL0     H18477   6.942   9.093   9.432 -1.4352 -3.1790 -0.3039
  859MOL0     H18478   7.109   9.074   9.468  0.9278 -0.4074 -0.2623
  859MOL0     H18479   7.107   9.257   9.325 -0.6775 -0.1245  1.8158
  859MOL0     H18480   7.166   9.122   9.229  1.3310 -0.3363  2.6284
  859MOL0     H18481   6.941   9.066   9.135 -0.5799  0.8378 -1.9818
  859MOL0     H18482   6.859   9.188   9.235  0.6140  0.2411  1.4372
  859MOL0     H18483   6.933   9.237   8.992  0.7483 -0.4370 -0.6815
  859MOL0     H18484   7.080   9.305   9.067 -0.8649 -1.6667  0.3130
  859MOL0     H18485   6.807   9.425   9.121  0.6069  2.1714  1.1885
  859MOL0     H18486   6.950   9.476   9.188 -2.5236  2.3926  0.1768
  859MOL0     H18487   6.856   9.592   8.979  1.8019  1.5570  1.8027
  859MOL0     H18488   6.888   9.451   8.887  1.5987  0.8690 -2.4057
  859MOL0     H18489   7.117   9.598   9.011  2.6811 -2.4231 -0.8270
  859MOL0     H18490   7.135   9.466   8.895  2.6007  0.5100  2.7418
  859MOL0     H18491   7.173   9.816   8.902  1.5995  0.9191 -2.0627
  859MOL0     H18492   7.012  10.036   8.734 -0.5143 -1.2131  2.1266
  859MOL0     H18493   7.075   9.994   8.574  0.4228  0.8198  0.3442
  859MOL0     H18494   7.301   9.967   8.656 -0.6975 -0.5034  0.8232
  859MOL0     H18495   7.222  10.132   8.654 -2.0460  1.8445  2.3676
  859MOL0     H18496   7.224  10.181   8.863 -1.6258 -0.7558  2.0567
  859MOL0     H18497   7.223  10.013   8.923  1.5663 -0.9781 -0.2815
  859MOL0     H18498   7.443  10.177   8.782  2.4263  0.1306 -0.4162
  859MOL0     H18499   7.444  10.156   8.948  0.6283  0.7999  0.6306
  859MOL0     H18500   7.468   9.938   9.088 -2.8954 -1.5769  2.4734
  859MOL0     H18501   7.480   9.762   9.276 -0.3108  3.4253 -2.0067
  859MOL0     H18502   7.484   9.587   9.225 -1.4425 -0.8080 -1.2871
  859MOL0     H18503   7.327   9.688   9.255  0.1920 -0.5498  1.7125
  859MOL0     H18504   7.529   9.214   9.086 -1.3270  2.4640 -1.7828
  859MOL0     H18505   7.454   8.973   9.134  1.1036 -0.4758 -1.1733
  859MOL0     H18506   7.075   8.893   8.921 -0.3637 -0.5881 -2.4389
  859MOL0     H18507   7.141   8.769   8.831 -3.0059  2.0187 -0.8890
  859MOL0     H18508   7.135   8.602   9.022  2.6217  0.1427 -2.6106
  859MOL0     H18509   7.026   8.720   9.112  1.0323 -3.4919  0.8467
  859MOL0     H18510   6.998   8.580   8.840  0.3620 -1.4314  0.5366
  859MOL0     H18511   6.885   8.700   8.906 -0.2135  0.3177  1.1832
  859MOL0     H18512   6.943   8.461   9.086  1.8323  4.2980  2.6308
  859MOL0     H18513   6.848   8.444   8.940  0.8577  2.0586 -1.6704
  859MOL0     H18514   6.785   8.638   9.165  1.3541 -2.7570  0.9634
  859MOL0     H18515   6.703   8.641   9.023 -0.7320  0.1585  1.2979
  859MOL0     H18516   6.735   8.415   9.225 -0.6943 -0.7130 -0.5172
  859MOL0     H18517   6.661   8.378   9.070  1.6423 -0.6894 -0.0169
  859MOL0     H18518   6.555   8.584   9.262 -0.0657 -0.5639 -0.5245
  859MOL0     H18519   6.499   8.428   9.249 -2.2138 -0.3053 -2.6122
  859MOL0     H18520   6.486   8.628   9.013 -2.2675  0.0208 -1.5585
  859MOL0     H18521   6.369   8.600   9.135 -0.4565  0.5456 -0.4974
  859MOL0     H18522   7.194   9.019   8.800  1.1869  1.0311 -0.3140
  859MOL0     H18523   7.249   9.251   8.784 -1.2603 -0.5184 -0.0650
  859MOL0     H18524   7.452   9.564   8.766 -0.7991 -1.6577  1.7369
  859MOL0     H18525   7.517   9.791   8.700  4.8062  0.3343  1.6380
  859MOL0     H18526   7.280   8.798   9.321  0.4150  0.7801  0.4312
  859MOL0     H18527   7.346   8.583   9.207 -1.2842 -3.2253 -0.5316
  859MOL0     H18528   7.361   8.294   8.969 -1.4011 -0.0358  0.2889
  859MOL0     H18529   7.402   8.109   8.827  3.1630 -0.4631 -0.9690
  859MOL0     H18530   7.382   7.921   8.729  0.8527  2.1036  2.0929
  859MOL0     H18531   7.555   7.909   8.775  0.5130  0.2146  0.5627
  859MOL0     H18532   7.365   7.680   8.706  1.1420 -1.7820  1.0300
  859MOL0     H18533   7.511   7.639   8.783 -4.7097  0.5464  4.4261
  859MOL0     H18534   7.487   7.636   8.512 -1.3754  0.3158  0.4785
  859MOL0     H18535   7.528   7.805   8.526  0.5719  1.6407  1.3843
  859MOL0     H18536   7.704   7.599   8.654  1.3456 -0.5566 -1.6966
  859MOL0     H18537   7.726   7.775   8.635 -1.0171 -0.2304  0.6610
  859MOL0     H18538   7.863   7.588   8.278 -0.2473 -1.4895 -0.2517
  859MOL0     H18539   7.454   7.855   9.177  0.6908 -1.6063 -4.0108
  859MOL0     H18540   7.395   8.120   9.444  0.7552  0.9699 -2.4153
  859MOL0     H18541   7.299   7.986   9.401 -1.3841  3.0758  0.9712
  859MOL0     H18542   7.483   7.982   9.410  0.3115 -1.5732 -0.2989
  860MOL0     O18543   0.123   8.513   6.895 -0.5572 -0.3897  0.2678
  860MOL0     C18544   0.131   8.493   6.772 -0.4971 -0.9405 -0.6933
  860MOL0     O18545   0.049   8.398   6.704 -0.0778  0.4268 -0.4014
  860MOL0     C18546  -0.067   8.372   6.769 -0.0046 -1.2245  0.1541
  860MOL0     C18547  -0.155   8.484   6.787 -0.5132  0.0359 -0.2443
  860MOL0     C18548  -0.279   8.461   6.848  0.4829  0.6865  0.0583
  860MOL0     C18549  -0.324   8.328   6.891 -0.6570  0.9628 -0.2021
  860MOL0     O18550  -0.448   8.288   6.944 -0.4017 -0.6960 -0.0297
  860MOL0     C18551  -0.527   8.392   6.996  0.1130 -0.2516 -0.4590
  860MOL0     C18552  -0.670   8.328   7.026  0.2221  0.0844  0.4539
  860MOL0     C18553  -0.729   8.371   7.161  0.3157 -1.0511  0.7803
  860MOL0     C18554  -0.704   8.274   7.276  0.5146  0.6036 -0.2748
  860MOL0     C18555  -0.742   8.328   7.420 -0.9177 -0.0733  0.8549
  860MOL0     C18556  -0.673   8.464   7.448 -0.6248  0.4902 -0.6428
  860MOL0     C18557  -0.688   8.521   7.598 -0.3671  0.5977  0.7092
  860MOL0     C18558  -0.553   8.520   7.664  0.1793  0.7770  0.2861
  860MOL0     N18559  -0.572   8.588   7.796  0.5209 -0.8020 -0.0496
  860MOL0     C18560  -0.663   8.554   7.906 -0.6624  0.3085  0.2810
  860MOL0     C18561  -0.674   8.672   7.977 -1.1276  0.5947 -0.2181
  860MOL0     C18562  -0.736   8.665   8.111 -0.2090  0.0495 -0.6521
  860MOL0     C18563  -0.742   8.799   8.185  1.4208 -0.2058 -0.1001
  860MOL0     C18564  -0.844   8.886   8.103 -0.2791 -0.8934 -0.2675
  860MOL0     C18565  -0.797   9.037   8.091 -0.2943 -0.5271  0.1136
  860MOL0     O18566  -0.727   9.079   8.205  0.2202  0.8302  0.5600
  860MOL0     C18567  -0.684   9.212   8.202  0.7466  0.8192  0.0951
  860MOL0     C18568  -0.554   9.232   8.251  0.8771  0.7580 -0.3625
  860MOL0     C18569  -0.496   9.363   8.261  0.4871  1.0582  0.0484
  860MOL0     C18570  -0.367   9.372   8.327 -0.6166 -0.1821  0.7838
  860MOL0     C18571  -0.574   9.475   8.222 -0.1075  0.2717  0.2084
  860MOL0     C18572  -0.526   9.615   8.229  0.6480 -0.0806  0.1515
  860MOL0     O18573  -0.614   9.719   8.190 -0.0128  0.4556 -0.6546
  860MOL0     C18574  -0.555   9.842   8.188 -0.5677  0.1500 -0.9157
  860MOL0     C18575  -0.466   9.877   8.092 -1.2791  0.4783 -0.4979
  860MOL0     C18576  -0.398   9.997   8.101  0.5784  1.3174 -0.2216
  860MOL0     C18577  -0.433  10.095   8.199  1.7946 -0.1107 -0.7107
  860MOL0     O18578  -0.365  10.208   8.197  0.2951 -0.5660 -0.1836
  860MOL0     C18579  -0.440  10.327   8.190 -0.1865 -0.0919 -0.4719
  860MOL0     C18580  -0.343  10.422   8.125 -0.8013 -0.8988 -0.5618
  860MOL0     C18581  -0.287  10.389   7.985  0.0907  0.5296  0.4217
  860MOL0     C18582  -0.389  10.414   7.869  0.1839 -0.5258 -0.6222
  860MOL0     C18583  -0.323  10.360   7.740 -0.8636  0.0768  0.2861
  860MOL0     C18584  -0.429  10.365   7.643  0.3385 -0.0107 -0.1781
  860MOL0     C18585  -0.379  10.311   7.506 -0.8886 -0.2885  0.4511
  860MOL0     C18586  -0.503  10.285   7.422  0.0149  0.3090 -0.5482
  860MOL0    Cl18587  -0.469  10.262   7.255 -0.2644 -0.3046  0.4398
  860MOL0     C18588  -0.526  10.058   8.292 -1.0034 -0.8858 -0.6438
  860MOL0     C18589  -0.598   9.941   8.280  0.1194  0.5712 -0.5916
  860MOL0     O18590  -0.415   9.636   8.265 -0.4069 -0.3376  0.2169
  860MOL0     C18591  -0.712   9.457   8.180  0.3875  1.2120  0.5817
  860MOL0     C18592  -0.765   9.324   8.171  0.3544  0.4288 -0.0243
  860MOL0     N18593  -0.607   8.773   7.905 -0.1558  0.3105 -0.0093
  860MOL0     N18594  -0.556   8.717   7.801  0.2972 -0.5018 -0.2655
  860MOL0     C18595  -0.234   8.225   6.869  0.0707 -0.2827 -0.0688
  860MOL0     C18596  -0.111   8.244   6.811 -1.4371  0.5205 -0.6610
  860MOL0     C18597   0.225   8.573   6.687  0.5997 -0.6351  0.1301
  860MOL0     C18598   0.247   8.525   6.553 -0.1294  0.5268 -0.0542
  860MOL0     C18599   0.324   8.604   6.464 -0.3610  1.2888 -0.8945
  860MOL0     C18600   0.398   8.713   6.506  0.7440  0.1161 -0.0224
  860MOL0     O18601   0.478   8.780   6.415  0.0886  0.4214  0.0436
  860MOL0     C18602   0.521   8.910   6.444 -0.2227 -0.0125  0.2451
  860MOL0     C18603   0.658   8.910   6.512  0.0195 -0.4173 -0.2204
  860MOL0     C18604   0.764   8.906   6.409 -0.0840 -0.0805  0.9442
  860MOL0     C18605   0.904   8.884   6.469  0.2757  0.3289 -0.2690
  860MOL0     C18606   0.941   8.751   6.511 -0.4503 -1.2285  0.0165
  860MOL0     C18607   0.966   8.639   6.555  0.1488 -0.2298  0.7107
  860MOL0     C18608   0.390   8.759   6.641  0.3992  0.3892  1.2794
  860MOL0     C18609   0.299   8.684   6.725 -0.8178 -0.4960 -0.7362
  860MOL0     C18610   0.301   8.723   6.867 -0.2696 -0.6694  0.4825
  860MOL0     H18611  -0.125   8.578   6.742 -2.8876  0.5920 -0.7762
  860MOL0     H18612  -0.344   8.544   6.871 -2.6536 -0.9149 -2.1582
  860MOL0     H18613  -0.546   8.473   6.925 -1.7012 -2.7716 -3.0935
  860MOL0     H18614  -0.477   8.433   7.085 -0.2684 -1.2202  0.2229
  860MOL0     H18615  -0.744   8.358   6.951 -0.6228 -2.6271  0.0866
  860MOL0     H18616  -0.675   8.219   7.020 -0.7619  0.1732 -4.0683
  860MOL0     H18617  -0.684   8.467   7.189 -3.2305  0.9023  0.3509
  860MOL0     H18618  -0.835   8.388   7.142  0.0942 -3.4791 -0.4875
  860MOL0     H18619  -0.753   8.180   7.250 -0.7621  1.3087 -0.4902
  860MOL0     H18620  -0.595   8.267   7.276  0.6802 -0.2989  4.2428
  860MOL0     H18621  -0.692   8.259   7.490  2.5187  1.3155 -0.0183
  860MOL0     H18622  -0.848   8.344   7.440 -1.4923 -1.4932 -0.8961
  860MOL0     H18623  -0.569   8.458   7.413 -0.6699  3.1940 -1.5395
  860MOL0     H18624  -0.724   8.542   7.391 -1.8016  0.0961 -0.1494
  860MOL0     H18625  -0.750   8.441   7.640 -1.2455 -0.2803 -2.0403
  860MOL0     H18626  -0.728   8.622   7.608  0.8034  1.5042 -2.6237
  860MOL0     H18627  -0.525   8.416   7.683 -4.8875 -1.3385 -1.8258
  860MOL0     H18628  -0.468   8.575   7.623  0.8787  0.1768  0.8972
  860MOL0     H18629  -0.701   8.460   7.943 -1.0971  0.8167  1.1583
  860MOL0     H18630  -0.681   8.596   8.175  0.0934  1.0742  0.2317
  860MOL0     H18631  -0.837   8.628   8.092  0.1826 -1.9185  0.8723
  860MOL0     H18632  -0.763   8.796   8.292  2.1909  3.5121  0.2980
  860MOL0     H18633  -0.636   8.825   8.182  1.4529 -0.3503 -0.2124
  860MOL0     H18634  -0.866   8.852   8.002  1.1698  1.1337 -1.3223
  860MOL0     H18635  -0.934   8.875   8.164 -1.3909 -2.5692 -2.0854
  860MOL0     H18636  -0.724   9.061   8.013  0.0422 -1.2548  0.1919
  860MOL0     H18637  -0.880   9.107   8.075  2.4551  2.8747 -0.5134
  860MOL0     H18638  -0.504   9.142   8.286 -1.6038  0.4382  2.8762
  860MOL0     H18639  -0.288   9.368   8.251  0.3966 -0.6093  1.8334
  860MOL0     H18640  -0.370   9.290   8.400 -0.4485 -1.3980 -0.5212
  860MOL0     H18641  -0.346   9.460   8.388 -1.1768  1.8979 -1.8616
  860MOL0     H18642  -0.439   9.808   8.012 -1.4368 -0.3525  0.1558
  860MOL0     H18643  -0.314  10.013   8.034 -2.7012  1.3911 -4.7792
  860MOL0     H18644  -0.537  10.320   8.139 -0.0842  0.5369 -0.7521
  860MOL0     H18645  -0.468  10.358   8.292  0.4941  3.2654 -1.1894
  860MOL0     H18646  -0.385  10.522   8.111  0.9049 -0.4517 -3.1990
  860MOL0     H18647  -0.263  10.438   8.198 -1.2656 -4.6407  1.0007
  860MOL0     H18648  -0.237  10.292   7.974  2.7757  1.6091  2.0949
  860MOL0     H18649  -0.201  10.452   7.961  0.3498 -1.1424 -3.9888
  860MOL0     H18650  -0.412  10.521   7.870  0.9845 -0.3461 -0.0766
  860MOL0     H18651  -0.482  10.363   7.893 -0.1535  1.0409  1.8208
  860MOL0     H18652  -0.239  10.419   7.702 -0.6347 -0.1343  0.4612
  860MOL0     H18653  -0.284  10.258   7.749  5.4814  1.9249 -1.2489
  860MOL0     H18654  -0.458  10.470   7.633 -0.4643 -0.3412 -1.6467
  860MOL0     H18655  -0.511  10.307   7.685 -0.8668  2.3044  0.8359
  860MOL0     H18656  -0.317  10.221   7.506 -0.9699 -0.3463  0.6211
  860MOL0     H18657  -0.318  10.391   7.464 -0.5484 -0.5002  0.5428
  860MOL0     H18658  -0.578  10.364   7.428 -2.3821 -1.8990  0.7894
  860MOL0     H18659  -0.544  10.189   7.455  3.0859 -1.0685 -0.3963
  860MOL0     H18660  -0.551  10.120   8.378 -0.3218 -1.8763  0.2933
  860MOL0     H18661  -0.684   9.932   8.346  1.9937 -0.7670  1.8450
  860MOL0     H18662  -0.774   9.545   8.170  1.1351  1.5866 -0.9366
  860MOL0     H18663  -0.866   9.321   8.131 -0.4456  0.2070  1.9129
  860MOL0     H18664  -0.242   8.117   6.881 -1.0883 -0.4025 -1.6282
  860MOL0     H18665  -0.043   8.160   6.802  2.0704  3.3285 -2.7852
  860MOL0     H18666   0.197   8.436   6.514 -0.9659  0.1469  1.7620
  860MOL0     H18667   0.333   8.563   6.363  0.8179 -2.6920  0.6203
  860MOL0     H18668   0.519   8.955   6.344  0.7402  0.9411  0.6376
  860MOL0     H18669   0.458   8.975   6.505  1.7354  3.1416 -0.8792
  860MOL0     H18670   0.664   8.836   6.592 -1.2924  1.0746  1.3614
  860MOL0     H18671   0.679   9.011   6.550 -1.2476 -0.8399  1.7678
  860MOL0     H18672   0.739   8.830   6.334  0.8918  0.8194 -0.3535
  860MOL0     H18673   0.762   8.999   6.350 -2.6633  1.2490  2.9436
  860MOL0     H18674   0.919   8.945   6.558  2.8764 -2.9785  1.8137
  860MOL0     H18675   0.972   8.922   6.393 -1.1530  0.8978 -1.3225
  860MOL0     H18676   0.978   8.540   6.592  1.5856 -0.1488  0.5127
  860MOL0     H18677   0.431   8.855   6.670  0.2108  1.3707 -1.4151
  860MOL0     H18678   0.361   8.647   6.919 -0.5746 -1.6097 -0.5143
  860MOL0     H18679   0.342   8.824   6.880 -2.3163 -0.1331  3.8791
  860MOL0     H18680   0.202   8.735   6.912 -0.5044  1.8867 -0.5216
  861MOL0     O18681  11.497   4.665   7.846 -0.0405  0.3487  0.4766
  861MOL0     C18682  11.574   4.612   7.925  0.8371 -0.0926 -0.0876
  861MOL0     O18683  11.532   4.504   8.003  0.2460 -0.3815 -0.3844
  861MOL0     C18684  11.410   4.455   7.982 -0.5318  0.2799 -0.5881
  861MOL0     C18685  11.398   4.340   7.902  0.1956 -0.9742 -0.2392
  861MOL0     C18686  11.271   4.300   7.862  1.3120 -0.0755  0.3271
  861MOL0     C18687  11.159   4.357   7.927  0.4901  0.7081  0.0639
  861MOL0     O18688  11.036   4.311   7.889 -0.0703  0.4686  0.0754
  861MOL0     C18689  11.004   4.180   7.929  0.5539 -0.9139 -0.7732
  861MOL0     C18690  10.867   4.184   7.999  0.0423  0.6746 -0.2184
  861MOL0     C18691  10.751   4.228   7.913 -0.2764 -0.3204  1.2046
  861MOL0     C18692  10.657   4.326   7.974  0.4895 -0.4614 -0.4730
  861MOL0     C18693  10.574   4.276   8.101 -0.9003 -0.3888 -0.2436
  861MOL0     C18694  10.470   4.378   8.154 -0.7957 -0.1578 -0.1418
  861MOL0     C18695  10.548   4.509   8.200  0.7834 -0.3615  0.2234
  861MOL0     C18696  10.459   4.612   8.263 -0.1716  0.8834 -0.9583
  861MOL0     N18697  10.420   4.572   8.401 -0.2937  0.8353 -0.0193
  861MOL0     C18698  10.453   4.629   8.516  0.5258  0.3570 -0.2549
  861MOL0     C18699  10.361   4.582   8.608 -0.7901 -0.5750  0.0308
  861MOL0     C18700  10.354   4.618   8.754 -0.1370 -0.2851 -0.7061
  861MOL0     C18701  10.227   4.701   8.775 -0.3019  0.2583 -0.3850
  861MOL0     C18702  10.252   4.852   8.747  0.2127 -0.4781 -0.7223
  861MOL0     C18703  10.130   4.938   8.788  0.1732  0.4240  0.0638
  861MOL0     O18704   9.999   4.900   8.721 -1.3060  0.0387  0.4203
  861MOL0     C18705   9.877   4.944   8.776 -0.5934  0.0583  0.3477
  861MOL0     C18706   9.853   5.057   8.858  0.0759 -0.7013 -0.0431
  861MOL0     C18707   9.727   5.098   8.905  0.1742 -0.0617 -0.5269
  861MOL0     C18708   9.720   5.228   8.983 -0.7221 -0.0191 -0.1966
  861MOL0     C18709   9.613   5.022   8.858  0.0334 -1.5077  0.3464
  861MOL0     C18710   9.469   5.060   8.891 -0.9556  0.1273  0.0210
  861MOL0     O18711   9.444   5.195   8.898  0.1958  1.2473  0.0674
  861MOL0     C18712   9.308   5.219   8.891  0.3073 -0.1029 -0.8497
  861MOL0     C18713   9.225   5.229   8.786  0.6052  0.4925  0.7663
  861MOL0     C18714   9.085   5.270   8.796 -0.0399  0.1435 -0.1981
  861MOL0     C18715   9.035   5.295   8.921 -0.4504  0.1787 -0.1569
  861MOL0     O18716   8.904   5.319   8.945 -0.3212 -0.6339 -0.1415
  861MOL0     C18717   8.833   5.388   8.840 -0.2473  0.2251 -0.4175
  861MOL0     C18718   8.736   5.297   8.750 -0.8820 -0.0811 -0.7137
  861MOL0     C18719   8.614   5.261   8.827 -0.4296 -0.1830  0.0626
  861MOL0     C18720   8.494   5.216   8.747  0.9187  0.9384  0.0279
  861MOL0     C18721   8.369   5.214   8.828  1.1719  0.6523  0.7084
  861MOL0     C18722   8.245   5.163   8.748 -0.6691 -0.1396 -0.0967
  861MOL0     C18723   8.270   5.022   8.688  0.4477 -1.0325 -0.0789
  861MOL0     C18724   8.146   4.975   8.613  0.5653 -1.2675  1.2058
  861MOL0    Cl18725   8.181   4.830   8.526  0.1215  0.2926 -0.3878
  861MOL0     C18726   9.117   5.273   9.031 -0.8407 -0.8739 -0.8351
  861MOL0     C18727   9.245   5.231   9.021 -0.6854  0.8616  1.0109
  861MOL0     O18728   9.387   4.969   8.894 -0.9403 -0.1705  1.0559
  861MOL0     C18729   9.637   4.907   8.779 -0.7977 -0.9292 -0.1855
  861MOL0     C18730   9.764   4.873   8.739  0.6445  0.8966 -0.0072
  861MOL0     N18731  10.282   4.488   8.547 -0.0245  0.3769  0.0495
  861MOL0     N18732  10.329   4.468   8.423 -0.0430  0.2588 -0.0869
  861MOL0     C18733  11.171   4.469   8.007 -0.5851 -0.6844  0.0131
  861MOL0     C18734  11.301   4.514   8.040 -0.1492  0.4227  0.2507
  861MOL0     C18735  11.713   4.653   7.954  0.3368 -0.2322 -0.2530
  861MOL0     C18736  11.771   4.606   8.072 -0.0975  0.4048  0.0689
  861MOL0     C18737  11.903   4.637   8.096  0.2223  0.2138  0.3361
  861MOL0     C18738  11.981   4.712   8.008 -1.0496 -0.3095  0.7439
  861MOL0     O18739  12.105   4.741   8.064 -0.3951  0.8268  0.6235
  861MOL0     C18740  12.216   4.738   7.980  1.0686 -0.3027 -0.5142
  861MOL0     C18741  12.345   4.754   8.056  0.1254  0.0861 -0.0161
  861MOL0     C18742  12.475   4.788   7.958 -0.3397 -0.2480 -0.6055
  861MOL0     C18743  12.591   4.827   8.043  0.7588 -0.3975  0.1330
  861MOL0     C18744  12.646   4.709   8.120  0.7250 -0.0659 -0.3136
  861MOL0     C18745  12.669   4.617   8.194  0.0774  0.4592 -0.0153
  861MOL0     C18746  11.922   4.749   7.884 -0.4177  0.0487 -0.0881
  861MOL0     C18747  11.792   4.700   7.848 -0.2801 -0.0698 -0.3642
  861MOL0     C18748  11.744   4.735   7.711 -0.2530 -1.2700  0.5938
  861MOL0     H18749  11.493   4.300   7.869  2.1264  1.3137  2.1062
  861MOL0     H18750  11.274   4.218   7.791  1.1752  0.8486 -0.7708
  861MOL0     H18751  11.084   4.141   7.992 -0.0201  0.4897  0.9007
  861MOL0     H18752  10.998   4.112   7.844 -0.7422 -2.7688  0.7122
  861MOL0     H18753  10.849   4.081   8.033  1.1796  1.2827  2.5165
  861MOL0     H18754  10.881   4.245   8.089 -2.0275  2.1449 -0.8097
  861MOL0     H18755  10.795   4.280   7.827 -0.2275 -1.7828  0.3055
  861MOL0     H18756  10.700   4.145   7.863 -0.4382  1.3853 -1.7055
  861MOL0     H18757  10.716   4.412   8.008  2.0580 -0.3309 -3.2027
  861MOL0     H18758  10.584   4.353   7.897  3.3474 -1.5904 -3.8333
  861MOL0     H18759  10.631   4.254   8.192 -1.2326  2.6197  0.8072
  861MOL0     H18760  10.527   4.181   8.076  1.7524 -1.6795 -0.6732
  861MOL0     H18761  10.406   4.396   8.067 -0.7696 -3.8022 -1.0658
  861MOL0     H18762  10.430   4.313   8.232  1.4814 -2.9672 -1.1222
  861MOL0     H18763  10.592   4.565   8.117 -0.7642  0.9353  0.2216
  861MOL0     H18764  10.614   4.467   8.276 -0.7686 -1.6090  0.9322
  861MOL0     H18765  10.510   4.708   8.264  0.3709  0.6509  2.2416
  861MOL0     H18766  10.369   4.622   8.202 -0.1235 -0.9710 -1.4094
  861MOL0     H18767  10.532   4.696   8.551 -2.6620  2.9639  2.7378
  861MOL0     H18768  10.449   4.670   8.769 -0.1523 -0.2972 -0.5699
  861MOL0     H18769  10.350   4.532   8.821  2.2185 -0.9190 -1.2849
  861MOL0     H18770  10.153   4.664   8.703  2.0315 -1.5811 -1.9940
  861MOL0     H18771  10.186   4.690   8.876 -1.8802  1.0900 -0.9057
  861MOL0     H18772  10.336   4.879   8.811 -1.2478  0.1191  1.0161
  861MOL0     H18773  10.263   4.864   8.638 -2.8471 -2.1638 -1.3352
  861MOL0     H18774  10.114   4.928   8.896 -1.9512  1.7082 -0.0802
  861MOL0     H18775  10.139   5.042   8.758 -1.0370 -0.1722 -2.6346
  861MOL0     H18776   9.941   5.109   8.895  0.0955  0.8840 -2.1480
  861MOL0     H18777   9.695   5.313   8.920 -1.9996  1.3594  2.0340
  861MOL0     H18778   9.821   5.244   9.023  0.9437  1.3675 -4.4032
  861MOL0     H18779   9.635   5.219   9.052 -1.6111  0.1310 -1.2559
  861MOL0     H18780   9.260   5.194   8.690  3.2379 -0.0570  1.8458
  861MOL0     H18781   9.029   5.277   8.703 -0.7907 -3.6541 -0.1960
  861MOL0     H18782   8.762   5.465   8.873 -2.7165 -0.4059 -3.7576
  861MOL0     H18783   8.904   5.438   8.773  0.4497 -3.1285 -2.3790
  861MOL0     H18784   8.715   5.355   8.660 -0.6443 -3.9435 -3.5011
  861MOL0     H18785   8.792   5.206   8.726 -2.7380 -1.5235  0.1633
  861MOL0     H18786   8.586   5.355   8.877  1.2957  1.9221 -2.6471
  861MOL0     H18787   8.651   5.186   8.897  1.9264  1.2286  0.4277
  861MOL0     H18788   8.524   5.114   8.719 -5.1052 -0.1489 -4.3536
  861MOL0     H18789   8.487   5.272   8.654  1.1779 -1.2255 -1.3554
  861MOL0     H18790   8.377   5.145   8.913 -2.8025 -0.6941  0.1939
  861MOL0     H18791   8.345   5.318   8.851 -1.7935  0.3437 -0.5373
  861MOL0     H18792   8.218   5.235   8.671 -1.0625  1.3219  1.3572
  861MOL0     H18793   8.156   5.147   8.810 -0.0017  1.0512  1.2181
  861MOL0     H18794   8.299   4.947   8.762 -1.8922 -0.1553  1.8402
  861MOL0     H18795   8.353   5.014   8.616  2.1709  2.7599  1.1936
  861MOL0     H18796   8.113   5.051   8.542  3.4102  0.8349  1.9798
  861MOL0     H18797   8.062   4.962   8.683 -1.3903  0.9970 -0.5602
  861MOL0     H18798   9.066   5.291   9.125 -2.2797 -2.2194 -1.3098
  861MOL0     H18799   9.301   5.208   9.111 -1.2683  2.4318  1.8096
  861MOL0     H18800   9.561   4.867   8.713  2.3322 -2.0327 -3.5032
  861MOL0     H18801   9.765   4.786   8.674  1.7671  1.0266 -0.1903
  861MOL0     H18802  11.093   4.526   8.056  0.6350 -1.3620  2.9721
  861MOL0     H18803  11.323   4.599   8.104 -1.4606  1.0459 -0.0917
  861MOL0     H18804  11.704   4.551   8.137  0.2751  0.3293  0.3891
  861MOL0     H18805  11.950   4.589   8.181 -0.6319 -1.5065 -0.1138
  861MOL0     H18806  12.219   4.652   7.912 -1.3519  0.4614 -1.7215
  861MOL0     H18807  12.204   4.828   7.919 -0.2130  0.7119  1.1655
  861MOL0     H18808  12.362   4.652   8.092  2.5129 -0.4854 -2.4282
  861MOL0     H18809  12.327   4.821   8.141  3.3159 -2.0810  2.6283
  861MOL0     H18810  12.504   4.703   7.895  1.9726 -1.0618  1.3599
  861MOL0     H18811  12.446   4.879   7.905  2.5157  2.2940  1.8133
  861MOL0     H18812  12.560   4.897   8.121  2.4346  1.2788 -0.6430
  861MOL0     H18813  12.665   4.874   7.979 -0.7762  0.3063 -1.2012
  861MOL0     H18814  12.681   4.538   8.266 -0.0035  1.6269  1.3319
  861MOL0     H18815  11.992   4.797   7.816  1.0382  0.8233  1.8510
  861MOL0     H18816  11.665   4.811   7.707  0.1397 -0.9101 -1.2112
  861MOL0     H18817  11.824   4.785   7.656  1.2893 -3.0389  1.1372
  861MOL0     H18818  11.720   4.648   7.650  1.2724 -0.2120 -1.6499
  862MOL0     O18819   5.134   5.186   1.735  0.1036 -0.1974 -0.1886
  862MOL0     C18820   5.034   5.152   1.806 -0.8260 -0.0312 -1.3638
  862MOL0     O18821   5.045   5.048   1.909  0.2844 -0.0329 -0.4069
  862MOL0     C18822   5.152   4.965   1.928 -0.1182 -0.0253 -1.0164
  862MOL0     C18823   5.261   4.934   1.848  0.6500 -0.6360  0.6477
  862MOL0     C18824   5.360   4.839   1.882 -0.2671 -0.8138  0.3514
  862MOL0     C18825   5.353   4.758   1.995  0.7647 -0.7806 -0.0385
  862MOL0     O18826   5.425   4.646   2.027  0.8329 -0.1930  0.0390
  862MOL0     C18827   5.546   4.626   1.936 -0.5860 -0.2175 -0.0416
  862MOL0     C18828   5.655   4.533   1.991 -0.2019 -0.3506  0.1177
  862MOL0     C18829   5.593   4.397   2.027  0.9344 -0.1206 -1.2207
  862MOL0     C18830   5.695   4.292   2.063  0.0168  1.0751 -0.3369
  862MOL0     C18831   5.766   4.322   2.197 -0.0603  0.1422  0.0352
  862MOL0     C18832   5.888   4.231   2.204 -1.0539  0.1404 -0.5665
  862MOL0     C18833   5.946   4.237   2.353 -0.5003  0.0083 -0.0821
  862MOL0     C18834   5.846   4.151   2.441 -0.3261  0.1104 -0.5519
  862MOL0     N18835   5.922   4.109   2.564  0.4270 -0.2410 -0.1792
  862MOL0     C18836   6.003   4.204   2.632  0.6748 -0.4069  0.4101
  862MOL0     C18837   6.095   4.129   2.687  0.1793  0.6972 -0.0433
  862MOL0     C18838   6.211   4.158   2.776  1.0447 -0.2863  1.0953
  862MOL0     C18839   6.209   4.119   2.918  0.2972  1.0078  0.3795
  862MOL0     C18840   6.157   4.229   3.004 -0.4563  0.5774  0.6330
  862MOL0     C18841   6.147   4.189   3.147 -0.4939 -0.3778  0.0611
  862MOL0     O18842   6.098   4.305   3.212  0.1803  0.0723  0.7594
  862MOL0     C18843   5.970   4.327   3.228  0.1100  0.4242 -0.2569
  862MOL0     C18844   5.912   4.453   3.198  0.1008  0.4284  0.4387
  862MOL0     C18845   5.775   4.483   3.209  1.1284  0.1896  0.0427
  862MOL0     C18846   5.710   4.606   3.163  0.3777 -0.5297 -0.0577
  862MOL0     C18847   5.693   4.369   3.237 -0.7139  0.1038  0.4736
  862MOL0     C18848   5.551   4.393   3.240 -0.0273  0.8299 -0.3879
  862MOL0     O18849   5.499   4.428   3.361  0.0764 -0.2787 -0.4779
  862MOL0     C18850   5.368   4.457   3.384  0.5356  0.6341  0.3838
  862MOL0     C18851   5.285   4.377   3.476 -0.0908  0.3676  0.7657
  862MOL0     C18852   5.147   4.414   3.476  0.2239  0.2817 -0.2241
  862MOL0     C18853   5.097   4.520   3.403  0.9855  0.5573 -0.5104
  862MOL0     O18854   4.957   4.541   3.429  0.2714  0.8033 -0.9960
  862MOL0     C18855   4.922   4.656   3.497 -0.1429  0.0649 -0.3232
  862MOL0     C18856   4.970   4.655   3.649  0.6908 -0.1778 -0.2633
  862MOL0     C18857   4.922   4.784   3.712 -0.4735  0.8914  0.4207
  862MOL0     C18858   4.992   4.800   3.848 -0.1149  0.2731 -0.4465
  862MOL0     C18859   4.974   4.939   3.914  0.1960  0.3346  0.4259
  862MOL0     C18860   5.104   4.987   3.976 -0.0399  0.0026  0.4411
  862MOL0     C18861   5.164   4.891   4.077 -0.2266  0.1450 -0.1693
  862MOL0     C18862   5.310   4.931   4.124 -1.1457 -0.2528 -0.4179
  862MOL0    Cl18863   5.353   4.844   4.285 -0.1179  0.1733 -0.2608
  862MOL0     C18864   5.169   4.592   3.307  0.1976 -0.3705 -0.7191
  862MOL0     C18865   5.305   4.563   3.297 -0.7512  0.4588 -0.4766
  862MOL0     O18866   5.494   4.402   3.132 -0.1871  0.5593  0.1782
  862MOL0     C18867   5.736   4.247   3.261  0.1271  0.6190 -0.7958
  862MOL0     C18868   5.883   4.225   3.272 -0.1292  0.6035  0.1725
  862MOL0     N18869   6.073   3.994   2.650 -0.0420 -0.1752  0.8788
  862MOL0     N18870   5.964   3.982   2.585  0.5247 -0.9124 -0.1841
  862MOL0     C18871   5.245   4.786   2.078  0.1615 -0.1812  0.8933
  862MOL0     C18872   5.145   4.883   2.047  0.2963  0.0281 -0.0568
  862MOL0     C18873   4.915   5.224   1.771 -0.9472  1.0757  0.1909
  862MOL0     C18874   4.801   5.190   1.837  1.0978  0.0671  0.2638
  862MOL0     C18875   4.683   5.267   1.837  0.1800 -1.4426 -0.4513
  862MOL0     C18876   4.659   5.373   1.754 -0.4158 -0.1456  0.2187
  862MOL0     O18877   4.543   5.446   1.767  0.3908 -0.4996  0.8949
  862MOL0     C18878   4.531   5.549   1.675 -0.5934  0.3696 -0.4353
  862MOL0     C18879   4.393   5.604   1.687  0.0892 -0.2467  0.7597
  862MOL0     C18880   4.343   5.673   1.558  0.4365 -0.1992  0.1865
  862MOL0     C18881   4.212   5.755   1.565  0.2554 -0.5009  0.1978
  862MOL0     C18882   4.176   5.819   1.443 -0.3455  0.6156  0.2985
  862MOL0     C18883   4.136   5.865   1.339  0.3519  0.0470 -0.2065
  862MOL0     C18884   4.784   5.401   1.679  1.1558 -0.2815 -0.8845
  862MOL0     C18885   4.908   5.335   1.686  0.3114 -1.0547 -0.1346
  862MOL0     C18886   5.019   5.390   1.602  0.0427 -0.7224  0.1527
  862MOL0     H18887   5.261   4.974   1.747 -3.7623 -1.9834 -0.1151
  862MOL0     H18888   5.433   4.807   1.808  1.4941  0.9763  1.2169
  862MOL0     H18889   5.592   4.723   1.917 -0.1209 -0.1433  1.3040
  862MOL0     H18890   5.512   4.585   1.840  0.4058 -1.3217  0.0436
  862MOL0     H18891   5.733   4.516   1.916 -0.9157 -0.3667 -0.6206
  862MOL0     H18892   5.713   4.586   2.068  1.4629  1.0900 -2.0169
  862MOL0     H18893   5.518   4.414   2.105  1.5460 -0.4916 -0.5308
  862MOL0     H18894   5.547   4.365   1.934  0.6816 -1.8687 -0.5235
  862MOL0     H18895   5.658   4.190   2.071  0.1236  1.1139  0.7771
  862MOL0     H18896   5.757   4.290   1.973  0.4390 -0.0853 -0.0330
  862MOL0     H18897   5.696   4.320   2.281  2.0777  0.5696  1.9112
  862MOL0     H18898   5.806   4.424   2.193  1.5189 -0.4325  0.3036
  862MOL0     H18899   5.863   4.129   2.174  0.6570 -0.3027 -0.6305
  862MOL0     H18900   5.959   4.253   2.123 -2.3031  2.1071 -1.2043
  862MOL0     H18901   5.946   4.345   2.373 -3.6274  0.1554 -0.4949
  862MOL0     H18902   6.048   4.196   2.359  0.1364  1.2609 -1.6287
  862MOL0     H18903   5.755   4.207   2.462  0.3079  0.9809 -0.0677
  862MOL0     H18904   5.816   4.061   2.385 -1.9291  1.3060 -1.7228
  862MOL0     H18905   6.001   4.312   2.633  0.7573 -0.2977 -2.7259
  862MOL0     H18906   6.223   4.266   2.764 -1.2941 -0.0605  0.3350
  862MOL0     H18907   6.297   4.106   2.733  0.6236 -2.5599  2.7687
  862MOL0     H18908   6.162   4.021   2.926  0.9328  0.7234  0.6993
  862MOL0     H18909   6.312   4.113   2.955  0.0550  1.3943  1.1318
  862MOL0     H18910   6.212   4.321   2.985  2.5486 -0.6555  2.6091
  862MOL0     H18911   6.057   4.257   2.970 -1.1709 -0.8897  1.4287
  862MOL0     H18912   6.078   4.105   3.153  0.1995 -0.8327  3.8637
  862MOL0     H18913   6.245   4.151   3.177  0.0731  0.7104 -0.3551
  862MOL0     H18914   5.972   4.534   3.157  2.5329 -2.3389 -1.8706
  862MOL0     H18915   5.664   4.587   3.065  0.0544 -1.8426  0.3210
  862MOL0     H18916   5.775   4.694   3.161 -0.7431  0.3707  1.7047
  862MOL0     H18917   5.631   4.645   3.227  0.6814 -0.7023  0.4293
  862MOL0     H18918   5.328   4.295   3.534  3.2736  1.7008  0.4015
  862MOL0     H18919   5.074   4.354   3.529  0.5157  0.7172  0.6911
  862MOL0     H18920   4.965   4.738   3.439  0.9432  3.1451  4.2754
  862MOL0     H18921   4.812   4.662   3.501 -0.0832  3.0132  3.7272
  862MOL0     H18922   4.927   4.570   3.703 -0.8151  1.7373  1.7483
  862MOL0     H18923   5.079   4.654   3.649  0.8390  2.8854 -2.3545
  862MOL0     H18924   4.815   4.801   3.722 -0.1471  2.3159  1.9272
  862MOL0     H18925   4.958   4.861   3.643 -1.4552  1.3637  0.4217
  862MOL0     H18926   5.100   4.787   3.848 -0.1390  0.0854 -0.9435
  862MOL0     H18927   4.955   4.729   3.923 -0.7935  0.8474 -0.2189
  862MOL0     H18928   4.940   5.014   3.842 -1.9076 -2.3929 -1.6395
  862MOL0     H18929   4.905   4.927   3.999 -0.3319  0.8433  0.0754
  862MOL0     H18930   5.098   5.086   4.023  3.4152  0.0939  0.9649
  862MOL0     H18931   5.177   5.003   3.896 -1.0180  1.7414 -0.1544
  862MOL0     H18932   5.169   4.789   4.037 -0.1097 -0.5481  1.5333
  862MOL0     H18933   5.097   4.891   4.163  1.6159  3.4711  1.4678
  862MOL0     H18934   5.299   5.037   4.150 -3.5582 -0.1853 -1.4462
  862MOL0     H18935   5.374   4.923   4.036 -2.0666 -1.1196 -1.0319
  862MOL0     H18936   5.106   4.656   3.245  0.1289  1.8780  1.4862
  862MOL0     H18937   5.365   4.611   3.221 -0.0982  0.1334 -0.1816
  862MOL0     H18938   5.665   4.166   3.274  1.7794 -0.8363 -0.3303
  862MOL0     H18939   5.916   4.125   3.298 -1.3054  0.3094  0.5504
  862MOL0     H18940   5.232   4.718   2.162 -0.7866 -2.7674 -1.1863
  862MOL0     H18941   5.071   4.878   2.126  2.4349  1.2099  2.1495
  862MOL0     H18942   4.805   5.109   1.910 -1.1486  0.8973  1.3881
  862MOL0     H18943   4.601   5.241   1.904 -0.8660 -0.0481 -1.1334
  862MOL0     H18944   4.597   5.632   1.699 -0.5783  0.4497 -0.7443
  862MOL0     H18945   4.542   5.512   1.572 -0.9363 -0.1582 -0.2893
  862MOL0     H18946   4.379   5.666   1.776 -1.0692 -0.6688  0.8833
  862MOL0     H18947   4.331   5.514   1.697  0.5517 -0.4977  1.4256
  862MOL0     H18948   4.419   5.750   1.543 -1.0642  1.6577  1.5118
  862MOL0     H18949   4.335   5.594   1.484  3.2459 -0.4246  0.0259
  862MOL0     H18950   4.231   5.841   1.630  1.3623 -0.4931 -0.1096
  862MOL0     H18951   4.127   5.693   1.596 -1.6841  1.3282 -1.1396
  862MOL0     H18952   4.082   5.902   1.254 -0.7276  0.3314  0.5905
  862MOL0     H18953   4.776   5.493   1.621 -0.3652 -0.5492 -1.1387
  862MOL0     H18954   4.989   5.479   1.546  1.4251 -0.8157 -0.7812
  862MOL0     H18955   5.110   5.403   1.661 -0.0105 -2.3055  0.6367
  862MOL0     H18956   5.050   5.320   1.524 -1.0092 -2.2364  1.0436
  863MOL0     O18957   9.975   9.197   4.455 -0.4204 -0.6302 -0.5045
  863MOL0     C18958  10.045   9.289   4.495 -0.2240 -0.5169 -0.5379
  863MOL0     O18959  10.099   9.385   4.414 -0.5465  0.3564  0.7181
  863MOL0     C18960  10.060   9.395   4.283  0.1743 -0.3854 -0.6708
  863MOL0     C18961  10.168   9.400   4.186  0.0296 -0.9673  0.1419
  863MOL0     C18962  10.139   9.395   4.046 -0.1285 -1.4281 -0.7755
  863MOL0     C18963  10.009   9.375   3.999 -0.5497  0.9219 -0.6873
  863MOL0     O18964  10.015   9.356   3.863  0.3410  0.3064  0.0262
  863MOL0     C18965   9.879   9.333   3.815  1.2257 -0.2540 -0.1591
  863MOL0     C18966   9.871   9.271   3.675 -0.8323 -0.3093  0.6534
  863MOL0     C18967   9.770   9.338   3.585 -0.0525 -0.3834 -0.0202
  863MOL0     C18968   9.750   9.280   3.445  0.5384 -0.0277  0.3901
  863MOL0     C18969   9.624   9.197   3.440 -1.0382  0.2875  0.0856
  863MOL0     C18970   9.613   9.117   3.298 -0.1974  0.2683  0.4230
  863MOL0     C18971   9.494   9.014   3.304 -0.4846  0.0206 -0.2246
  863MOL0     C18972   9.503   8.909   3.186  0.4403 -0.6648 -0.5327
  863MOL0     N18973   9.374   8.821   3.180 -0.4193  0.6563  0.5878
  863MOL0     C18974   9.296   8.831   3.070 -0.0605  0.8967  0.7917
  863MOL0     C18975   9.199   8.743   3.089 -0.9514  0.2663 -0.8558
  863MOL0     C18976   9.091   8.692   2.998  0.8706  0.0721  0.2731
  863MOL0     C18977   9.131   8.546   2.942  0.3102  0.2189 -0.2221
  863MOL0     C18978   9.020   8.461   2.876  0.6451 -1.3984 -0.0969
  863MOL0     C18979   8.953   8.538   2.771  0.2812 -0.1894  0.6063
  863MOL0     O18980   8.823   8.475   2.757 -0.0973  0.2392 -1.0646
  863MOL0     C18981   8.760   8.466   2.633 -0.4218  0.1419  0.2490
  863MOL0     C18982   8.672   8.364   2.611 -0.0730  0.7718  0.1233
  863MOL0     C18983   8.601   8.341   2.491 -0.3093 -0.0658  1.2918
  863MOL0     C18984   8.497   8.230   2.491 -0.0560 -0.3777 -0.9395
  863MOL0     C18985   8.652   8.414   2.375  1.7592  0.0332 -0.2820
  863MOL0     C18986   8.581   8.398   2.234  0.4386  0.3651 -1.0329
  863MOL0     O18987   8.621   8.492   2.142 -0.1602  0.6114 -0.6411
  863MOL0     C18988   8.571   8.516   2.017  0.0470 -0.7764 -0.8042
  863MOL0     C18989   8.440   8.485   1.987  0.5402 -0.0792 -0.4517
  863MOL0     C18990   8.387   8.538   1.875 -0.5220  0.9210  0.8653
  863MOL0     C18991   8.460   8.623   1.788  0.6065  0.1414  0.1732
  863MOL0     O18992   8.410   8.678   1.665  0.3127 -0.1806 -0.8524
  863MOL0     C18993   8.269   8.685   1.655 -0.3006 -0.2167 -0.2479
  863MOL0     C18994   8.238   8.772   1.526 -1.1585  0.2135  0.0077
  863MOL0     C18995   8.092   8.768   1.487  0.2268  0.1428 -0.3228
  863MOL0     C18996   8.060   8.848   1.364  0.0467 -0.3048 -0.2716
  863MOL0     C18997   8.107   8.783   1.244  0.6887  0.5495  0.3333
  863MOL0     C18998   8.067   8.854   1.116 -0.5648 -0.2985  0.1251
  863MOL0     C18999   8.100   8.777   0.996 -0.1254  0.9505  0.0276
  863MOL0     C19000   8.249   8.728   0.987  0.0297  0.3876  0.3032
  863MOL0    Cl19001   8.368   8.861   1.022 -0.4533  0.1177  0.3226
  863MOL0     C19002   8.598   8.645   1.812  0.2407 -0.7133  0.2277
  863MOL0     C19003   8.648   8.602   1.940 -0.5797 -0.1943 -0.5063
  863MOL0     O19004   8.502   8.305   2.213  0.5574 -0.6574 -0.0813
  863MOL0     C19005   8.746   8.520   2.405 -0.4072 -0.6737  0.3675
  863MOL0     C19006   8.800   8.550   2.526  0.6925 -0.2156  0.4530
  863MOL0     N19007   9.218   8.698   3.222 -0.5386  0.0101  0.3100
  863MOL0     N19008   9.325   8.752   3.278  0.5065 -0.1787  0.5120
  863MOL0     C19009   9.900   9.378   4.094 -0.4777 -1.1230  0.0128
  863MOL0     C19010   9.928   9.390   4.228 -0.1592 -0.1449  0.2047
  863MOL0     C19011  10.084   9.296   4.642  0.2295  0.4115  0.1039
  863MOL0     C19012  10.172   9.393   4.683  0.1481 -0.3373 -0.4312
  863MOL0     C19013  10.217   9.408   4.815  0.0490 -0.4341 -0.3137
  863MOL0     C19014  10.151   9.346   4.913  0.6854  0.7111  0.1156
  863MOL0     O19015  10.184   9.364   5.051  0.4200 -0.1903 -0.3118
  863MOL0     C19016  10.286   9.459   5.090  1.2640  0.1279 -0.5700
  863MOL0     C19017  10.256   9.603   5.070 -0.4194 -0.6947 -0.4524
  863MOL0     C19018  10.112   9.629   5.130  0.5490  0.5923 -0.1217
  863MOL0     C19019  10.106   9.717   5.256  0.8757  0.4957 -0.1201
  863MOL0     C19020  10.159   9.637   5.375  0.0169 -0.2420 -0.3557
  863MOL0     C19021  10.201   9.581   5.477  0.5629 -0.1657 -0.2181
  863MOL0     C19022  10.060   9.247   4.885 -0.4202  0.1770 -0.8247
  863MOL0     C19023  10.025   9.218   4.750  0.0892  0.0016 -0.1483
  863MOL0     C19024   9.904   9.126   4.727 -0.1679  0.3081 -0.4975
  863MOL0     H19025  10.271   9.424   4.208  0.0196 -2.2341  1.6907
  863MOL0     H19026  10.223   9.406   3.979 -0.2344  1.6272 -0.5762
  863MOL0     H19027   9.831   9.431   3.804  1.4733 -0.3038 -1.9752
  863MOL0     H19028   9.820   9.273   3.885 -0.4838  2.5654  0.9857
  863MOL0     H19029   9.964   9.266   3.618 -1.4002 -1.4834 -0.2160
  863MOL0     H19030   9.842   9.166   3.681 -0.7080 -0.3092  1.3224
  863MOL0     H19031   9.679   9.359   3.642 -0.6678  0.8223 -1.3966
  863MOL0     H19032   9.806   9.436   3.551 -0.7135  0.3525  1.2978
  863MOL0     H19033   9.759   9.359   3.370 -0.8013  0.3601  0.6111
  863MOL0     H19034   9.827   9.208   3.417  0.6121  0.1078  0.2421
  863MOL0     H19035   9.538   9.263   3.455 -0.0516  1.5083  0.5377
  863MOL0     H19036   9.631   9.121   3.518 -2.4174 -1.3950 -1.3440
  863MOL0     H19037   9.600   9.181   3.211 -3.0425  0.9598  1.2234
  863MOL0     H19038   9.712   9.073   3.287 -0.6688 -0.3651 -1.6720
  863MOL0     H19039   9.397   9.065   3.296 -1.2134 -0.4093  3.6854
  863MOL0     H19040   9.496   8.958   3.398  1.2883 -4.2406 -2.5477
  863MOL0     H19041   9.526   8.950   3.088 -1.4771 -1.9194 -1.5647
  863MOL0     H19042   9.579   8.840   3.223  3.8243  1.5125 -2.8931
  863MOL0     H19043   9.304   8.891   2.979  1.2345 -1.1217 -0.4892
  863MOL0     H19044   9.082   8.767   2.918  3.2042 -0.5552 -0.6648
  863MOL0     H19045   8.993   8.686   3.046 -0.1038  1.1644 -1.4623
  863MOL0     H19046   9.226   8.546   2.889 -0.6456  0.3650 -2.0182
  863MOL0     H19047   9.150   8.505   3.041  1.5103  1.8311  0.2565
  863MOL0     H19048   9.059   8.368   2.835  3.0584 -1.8387  2.7920
  863MOL0     H19049   8.942   8.429   2.946  1.6702 -2.1676  0.7432
  863MOL0     H19050   8.933   8.644   2.792 -1.4239 -0.4315  0.3325
  863MOL0     H19051   9.013   8.541   2.679 -2.6478 -1.3552 -1.4679
  863MOL0     H19052   8.672   8.305   2.703  2.0753  1.2568  0.4937
  863MOL0     H19053   8.478   8.193   2.593  1.0851  0.9477 -0.2083
  863MOL0     H19054   8.511   8.147   2.421 -0.9383 -1.5032  0.1680
  863MOL0     H19055   8.405   8.283   2.466 -0.8479 -0.4873  1.4682
  863MOL0     H19056   8.378   8.411   2.037 -0.0551 -1.1878 -2.6849
  863MOL0     H19057   8.288   8.507   1.844  0.7460 -2.0835 -0.5992
  863MOL0     H19058   8.231   8.586   1.628 -1.8904  0.6734 -1.3968
  863MOL0     H19059   8.230   8.721   1.751 -1.3785  0.3493 -0.8831
  863MOL0     H19060   8.278   8.873   1.537 -1.3771  0.4482 -1.2139
  863MOL0     H19061   8.298   8.728   1.446 -0.6395 -1.0566  1.0630
  863MOL0     H19062   8.031   8.806   1.570  0.8213 -2.1342  1.2609
  863MOL0     H19063   8.057   8.665   1.478 -1.0884  0.6224 -0.8838
  863MOL0     H19064   8.109   8.944   1.379 -3.0054  1.3886 -0.3996
  863MOL0     H19065   7.953   8.872   1.361 -0.1221 -0.8705  0.7907
  863MOL0     H19066   8.216   8.784   1.243  0.8556  1.3955 -4.4512
  863MOL0     H19067   8.074   8.679   1.235  0.5561  0.3885  2.2763
  863MOL0     H19068   8.108   8.954   1.097 -2.2484  0.4070  0.0696
  863MOL0     H19069   7.959   8.870   1.107 -0.3920  1.9460  1.4624
  863MOL0     H19070   8.071   8.836   0.908 -1.7237 -1.8051 -1.4422
  863MOL0     H19071   8.035   8.691   0.986 -0.7957  1.2592  1.5668
  863MOL0     H19072   8.270   8.694   0.885 -0.0570  0.0965  0.3825
  863MOL0     H19073   8.269   8.645   1.055 -1.2020  1.0253  1.5121
  863MOL0     H19074   8.648   8.706   1.738 -1.1043  1.1037  0.7465
  863MOL0     H19075   8.739   8.639   1.987 -2.7122  0.4192  3.5729
  863MOL0     H19076   8.786   8.583   2.327 -0.2269  1.9940  2.4642
  863MOL0     H19077   8.873   8.628   2.545 -0.6906  0.7669  1.9988
  863MOL0     H19078   9.793   9.377   4.072 -0.6293  3.2168 -0.3785
  863MOL0     H19079   9.842   9.381   4.294  0.0324 -2.3679  0.2319
  863MOL0     H19080  10.229   9.450   4.610 -2.1419  1.4281 -0.9752
  863MOL0     H19081  10.291   9.483   4.837 -3.0322  3.6208 -2.2741
  863MOL0     H19082  10.299   9.454   5.198  1.7582 -1.7809 -0.6894
  863MOL0     H19083  10.381   9.432   5.043  3.4676  1.3870  2.7944
  863MOL0     H19084  10.257   9.639   4.966 -1.6034  3.5620  0.7862
  863MOL0     H19085  10.335   9.654   5.126  0.3794 -0.5931 -1.6142
  863MOL0     H19086  10.052   9.678   5.053 -1.6579 -1.5078  0.1384
  863MOL0     H19087  10.050   9.539   5.140  1.2655  0.1555  0.6148
  863MOL0     H19088  10.002   9.735   5.283  1.1870  1.1146  0.7016
  863MOL0     H19089  10.146   9.818   5.250  0.3101  0.7271 -0.0258
  863MOL0     H19090  10.232   9.526   5.564  0.1830 -0.7842 -0.4649
  863MOL0     H19091  10.002   9.196   4.961  1.8676 -0.7214  0.4067
  863MOL0     H19092   9.845   9.192   4.663  1.4213 -0.1421 -2.5166
  863MOL0     H19093   9.932   9.032   4.678 -1.9177  0.0735 -1.1028
  863MOL0     H19094   9.842   9.109   4.816 -1.6431  1.5282 -1.2441
  864MOL0     O19095   0.676  11.390  10.407  0.0895  0.3077  0.0679
  864MOL0     C19096   0.692  11.456  10.298  0.0944 -0.7843  0.1120
  864MOL0     O19097   0.668  11.584  10.276 -0.2647  0.2991  0.0806
  864MOL0     C19098   0.647  11.663  10.381 -0.1411  0.5773 -0.4232
  864MOL0     C19099   0.745  11.751  10.423 -0.0154 -0.0041 -0.5075
  864MOL0     C19100   0.727  11.835  10.536 -0.5963  0.1417 -0.3275
  864MOL0     C19101   0.600  11.846  10.591 -0.7107 -0.4068  0.3719
  864MOL0     O19102   0.565  11.928  10.700  0.3314  0.3918  0.3364
  864MOL0     C19103   0.656  11.908  10.812 -0.0168 -0.9294  0.7401
  864MOL0     C19104   0.670  12.044  10.875 -0.5761  0.1237 -0.2037
  864MOL0     C19105   0.736  12.029  11.005 -0.0713 -0.8761  0.5535
  864MOL0     C19106   0.763  12.179  11.052  0.7057 -0.7337 -0.2756
  864MOL0     C19107   0.814  12.176  11.195 -1.5002  1.3468 -0.4691
  864MOL0     C19108   0.939  12.075  11.215 -0.1655 -0.2591  0.6558
  864MOL0     C19109   1.022  12.100  11.336 -0.6831  0.0375  0.2787
  864MOL0     C19110   1.136  11.999  11.363  0.4448 -0.2532 -0.6841
  864MOL0     N19111   1.094  11.860  11.390  0.2388 -0.3707 -0.0179
  864MOL0     C19112   0.992  11.802  11.452  0.4334 -0.8177  0.0144
  864MOL0     C19113   1.022  11.666  11.445  0.0042  0.1832  0.1348
  864MOL0     C19114   0.940  11.560  11.508 -0.3481 -0.4448  0.5703
  864MOL0     C19115   0.791  11.574  11.477  0.9889 -0.5320  0.6837
  864MOL0     C19116   0.714  11.461  11.541  0.4893  0.1532  0.1735
  864MOL0     C19117   0.574  11.439  11.499 -1.2212  0.5922 -0.4303
  864MOL0     O19118   0.518  11.572  11.480 -1.0116  0.1736 -0.8700
  864MOL0     C19119   0.387  11.598  11.453 -0.3497 -0.0104  0.2074
  864MOL0     C19120   0.311  11.494  11.398 -0.0099 -0.7117 -0.2999
  864MOL0     C19121   0.181  11.514  11.353  0.3167  0.3468 -0.2497
  864MOL0     C19122   0.104  11.399  11.287  0.1363  0.2387  0.2562
  864MOL0     C19123   0.121  11.638  11.379  0.0994 -0.0421 -0.4023
  864MOL0     C19124  -0.016  11.670  11.336  0.7455  0.2550  0.6289
  864MOL0     O19125  -0.093  11.715  11.441  0.4038 -0.9788 -0.6991
  864MOL0     C19126  -0.196  11.801  11.420 -0.0668 -0.2530  0.5340
  864MOL0     C19127  -0.185  11.934  11.460 -1.3022  0.7757 -0.6794
  864MOL0     C19128  -0.291  12.026  11.448 -0.7428  0.2392 -0.3439
  864MOL0     C19129  -0.414  11.983  11.388 -0.6444  0.5311  0.2341
  864MOL0     O19130  -0.516  12.067  11.380 -0.6228  0.0001 -1.0955
  864MOL0     C19131  -0.561  12.123  11.506  0.6895  0.7047  0.0123
  864MOL0     C19132  -0.715  12.126  11.504 -0.1974  0.0955 -0.2810
  864MOL0     C19133  -0.769  12.175  11.646 -0.1830  0.0945  0.1523
  864MOL0     C19134  -0.776  12.333  11.652 -0.0832  0.7221 -1.2795
  864MOL0     C19135  -0.825  12.386  11.793 -0.8385 -0.1262  0.8467
  864MOL0     C19136  -0.862  12.535  11.796  0.3583  0.2264  0.6744
  864MOL0     C19137  -0.751  12.641  11.795 -0.5666  0.3763  0.8357
  864MOL0     C19138  -0.779  12.755  11.695 -0.5688 -0.0038  0.1550
  864MOL0    Cl19139  -0.907  12.854  11.750  0.4367  0.3431  0.2755
  864MOL0     C19140  -0.427  11.842  11.349  0.2909  0.6781 -0.4377
  864MOL0     C19141  -0.315  11.757  11.366 -0.3371  0.3172 -0.3256
  864MOL0     O19142  -0.044  11.670  11.217 -0.7428 -0.6192 -0.0530
  864MOL0     C19143   0.180  11.733  11.453 -0.1524  0.9375 -0.2042
  864MOL0     C19144   0.316  11.715  11.481  0.1112  0.9758 -0.9937
  864MOL0     N19145   1.128  11.648  11.357  0.2517 -0.2680  0.3067
  864MOL0     N19146   1.152  11.764  11.315 -0.3146 -0.3046 -0.0185
  864MOL0     C19147   0.496  11.752  10.553 -1.4667  0.1194  0.2938
  864MOL0     C19148   0.527  11.667  10.447  1.3854  0.7669  0.0885
  864MOL0     C19149   0.711  11.372  10.171  0.0815 -0.1477 -1.2288
  864MOL0     C19150   0.699  11.439  10.051  0.1954  0.5371  0.5826
  864MOL0     C19151   0.717  11.372   9.933  0.0876  0.4688  0.4918
  864MOL0     C19152   0.754  11.238   9.926  0.7406 -0.1032 -0.3929
  864MOL0     O19153   0.764  11.169   9.806  0.0888  0.1351 -0.3059
  864MOL0     C19154   0.639  11.116   9.755 -0.5288  0.1486  0.4058
  864MOL0     C19155   0.688  10.981   9.683  0.8033 -0.5524 -0.8036
  864MOL0     C19156   0.710  10.874   9.792  0.2353  0.6372  0.5471
  864MOL0     C19157   0.670  10.732   9.737 -0.1445  0.1847 -0.6359
  864MOL0     C19158   0.759  10.670   9.634  1.0773 -0.1584  0.8901
  864MOL0     C19159   0.832  10.646   9.538  0.0105  0.2273  0.7497
  864MOL0     C19160   0.770  11.175  10.048  0.3427  0.8149 -0.9429
  864MOL0     C19161   0.753  11.243  10.167 -0.2337  0.6176  0.0038
  864MOL0     C19162   0.795  11.161  10.279  0.0228 -0.0111 -0.7102
  864MOL0     H19163   0.838  11.758  10.367  0.1316 -3.8994 -1.0485
  864MOL0     H19164   0.803  11.905  10.570 -1.4494  1.0218 -0.1935
  864MOL0     H19165   0.748  11.864  10.770 -0.6982 -1.6733  0.0000
  864MOL0     H19166   0.617  11.840  10.888 -4.0050  0.6447  0.3200
  864MOL0     H19167   0.730  12.108  10.809  1.0067 -1.0313  0.0569
  864MOL0     H19168   0.570  12.085  10.891 -3.3744 -5.4037 -1.1647
  864MOL0     H19169   0.673  11.975  11.076  0.6958 -3.6308 -0.7521
  864MOL0     H19170   0.830  11.978  10.985  0.4988  0.6901 -1.0763
  864MOL0     H19171   0.827  12.236  10.984 -0.6806 -0.2528 -1.2220
  864MOL0     H19172   0.672  12.239  11.051  0.2957 -1.3414 -0.2750
  864MOL0     H19173   0.732  12.141  11.257 -0.4450  1.9564  1.3447
  864MOL0     H19174   0.846  12.275  11.229 -0.3536  1.5740 -2.0733
  864MOL0     H19175   0.897  11.973  11.213 -0.1293 -0.5140  4.7740
  864MOL0     H19176   1.002  12.102  11.131 -1.8257  2.0166  0.0429
  864MOL0     H19177   0.959  12.102  11.425 -1.1908 -2.5351  0.0482
  864MOL0     H19178   1.057  12.204  11.326 -0.3431  0.0298  1.2393
  864MOL0     H19179   1.208  11.997  11.281 -0.6444 -1.0112 -1.6536
  864MOL0     H19180   1.195  12.040  11.446  3.8404 -2.4257 -1.8511
  864MOL0     H19181   0.910  11.854  11.500  0.0214 -0.9415 -0.5490
  864MOL0     H19182   0.951  11.541  11.615 -0.9111 -2.2382  0.3472
  864MOL0     H19183   0.982  11.471  11.459 -1.2327 -0.0714 -0.9497
  864MOL0     H19184   0.752  11.665  11.521  2.5565 -0.0695  1.1845
  864MOL0     H19185   0.781  11.562  11.368  0.9642 -3.0273  0.9053
  864MOL0     H19186   0.764  11.364  11.533 -1.7051 -0.8910 -2.7540
  864MOL0     H19187   0.723  11.500  11.643 -0.9173  3.2068 -0.7549
  864MOL0     H19188   0.565  11.378  11.409 -4.1138  2.2991 -1.4386
  864MOL0     H19189   0.512  11.383  11.569 -2.1188  0.8831 -0.9722
  864MOL0     H19190   0.363  11.399  11.388 -0.8093 -1.1783 -0.0859
  864MOL0     H19191   0.169  11.336  11.226 -1.4182 -2.4326  1.1557
  864MOL0     H19192   0.022  11.428  11.221  1.3288  2.4036 -0.3366
  864MOL0     H19193   0.061  11.330  11.361  0.0369 -0.2197 -0.2280
  864MOL0     H19194  -0.086  11.957  11.498 -0.5138 -3.0028 -0.1279
  864MOL0     H19195  -0.279  12.126  11.486 -0.9791 -0.8934  3.0486
  864MOL0     H19196  -0.529  12.048  11.579  0.5024 -0.9987 -1.5926
  864MOL0     H19197  -0.531  12.224  11.536 -0.0390  1.7502 -2.5574
  864MOL0     H19198  -0.753  12.189  11.423 -4.5583 -0.4331  1.0478
  864MOL0     H19199  -0.755  12.026  11.481  3.1599 -1.2863 -0.6939
  864MOL0     H19200  -0.705  12.147  11.730 -1.4757 -1.8259  0.5477
  864MOL0     H19201  -0.866  12.126  11.656 -1.3583  1.8640 -1.7052
  864MOL0     H19202  -0.844  12.366  11.573 -2.3744  0.8111  0.6252
  864MOL0     H19203  -0.680  12.380  11.628  1.0882  1.0138  3.1195
  864MOL0     H19204  -0.915  12.327  11.815 -0.7425 -1.3132 -1.6317
  864MOL0     H19205  -0.760  12.364  11.878 -2.3592  1.7207  2.5971
  864MOL0     H19206  -0.924  12.554  11.884 -1.3479 -2.5370  0.1806
  864MOL0     H19207  -0.930  12.551  11.712  2.5161  2.7654 -0.7255
  864MOL0     H19208  -0.652  12.601  11.771 -0.1642  1.2188  1.0375
  864MOL0     H19209  -0.738  12.689  11.893  0.7024  0.2036  0.7665
  864MOL0     H19210  -0.794  12.722  11.592  2.0051 -1.9939  0.3151
  864MOL0     H19211  -0.691  12.820  11.689  0.3408 -1.3490 -3.7905
  864MOL0     H19212  -0.515  11.802  11.299  0.8790  0.6588 -1.4888
  864MOL0     H19213  -0.331  11.653  11.341 -0.5520  0.6143 -1.5078
  864MOL0     H19214   0.140  11.825  11.495  2.2675  1.4473  1.2250
  864MOL0     H19215   0.365  11.802  11.524 -0.2355  0.3792  0.7075
  864MOL0     H19216   0.402  11.744  10.605 -1.3092 -3.0457  0.2776
  864MOL0     H19217   0.451  11.603  10.404  2.3371 -0.2762 -0.0780
  864MOL0     H19218   0.677  11.545  10.044  1.3224  0.7009 -1.0266
  864MOL0     H19219   0.706  11.446   9.854 -0.4183  0.3383  0.4338
  864MOL0     H19220   0.564  11.094   9.831 -0.2293 -1.7226  0.2061
  864MOL0     H19221   0.611  11.198   9.688  2.6639  0.0949 -1.2256
  864MOL0     H19222   0.778  10.984   9.621 -0.5954 -0.9930 -2.9493
  864MOL0     H19223   0.617  10.948   9.606  1.1514 -0.1315 -1.3058
  864MOL0     H19224   0.819  10.870   9.800  0.2565  0.1786  0.1090
  864MOL0     H19225   0.663  10.890   9.889 -2.2456  1.5279 -0.7121
  864MOL0     H19226   0.573  10.739   9.687  0.8319  1.6488 -2.4526
  864MOL0     H19227   0.666  10.671   9.828  0.9264 -0.9400 -1.2974
  864MOL0     H19228   0.902  10.625   9.459 -0.3632  0.0593  0.4554
  864MOL0     H19229   0.811  11.075  10.048  0.4177  0.8278  0.7772
  864MOL0     H19230   0.708  11.113  10.324  0.4582 -1.2111 -1.1041
  864MOL0     H19231   0.870  11.085  10.256  1.1839  0.5042  1.2108
  864MOL0     H19232   0.855  11.216  10.352  1.4210 -2.6098  0.2275
  865MOL0     O19233  10.521   6.447  10.330 -0.0760  0.4268  0.6584
  865MOL0     C19234  10.615   6.457  10.259 -0.2439  0.1672  1.0562
  865MOL0     O19235  10.614   6.452  10.118  0.7549  0.1872  0.6822
  865MOL0     C19236  10.502   6.468  10.046 -0.3908 -0.3429  0.0789
  865MOL0     C19237  10.473   6.384   9.935  0.2519  0.3335 -1.4190
  865MOL0     C19238  10.347   6.395   9.875 -0.5879 -0.4853  0.8951
  865MOL0     C19239  10.249   6.483   9.919 -0.6259  0.1084  0.0666
  865MOL0     O19240  10.131   6.506   9.859  0.5204 -0.0187 -0.4701
  865MOL0     C19241  10.116   6.478   9.721  0.4199  0.5998 -0.0656
  865MOL0     C19242  10.088   6.610   9.649  0.0374 -0.0957 -0.5872
  865MOL0     C19243  10.214   6.705   9.654 -0.2158 -0.1125 -0.7337
  865MOL0     C19244  10.337   6.655   9.599 -0.9160 -0.0759 -0.2359
  865MOL0     C19245  10.455   6.749   9.631  0.8434  0.4506  0.0618
  865MOL0     C19246  10.568   6.742   9.522 -0.3591  0.6826  0.7650
  865MOL0     C19247  10.695   6.814   9.567 -0.2919  0.0859  0.3484
  865MOL0     C19248  10.794   6.820   9.449 -0.1774  0.5050  0.6984
  865MOL0     N19249  10.738   6.884   9.329  0.2676 -0.1174 -1.0974
  865MOL0     C19250  10.681   7.018   9.326 -0.0224  0.6596 -0.1575
  865MOL0     C19251  10.666   7.047   9.197 -0.1513 -0.3619  0.3771
  865MOL0     C19252  10.622   7.181   9.148  0.7237  0.1904 -0.4353
  865MOL0     C19253  10.633   7.204   9.001 -1.1457 -0.3463  0.0238
  865MOL0     C19254  10.658   7.361   8.977 -0.2303 -0.2331 -0.1050
  865MOL0     C19255  10.629   7.412   8.836 -0.2967  0.2857  0.0476
  865MOL0     O19256  10.485   7.411   8.813  0.7333  0.0678  0.0916
  865MOL0     C19257  10.445   7.482   8.700 -0.5958 -1.2156 -0.4066
  865MOL0     C19258  10.323   7.538   8.703 -0.1235  0.6699 -0.0125
  865MOL0     C19259  10.261   7.606   8.591 -1.0706 -0.4993  0.1162
  865MOL0     C19260  10.124   7.670   8.600  0.7414  0.1021  0.5634
  865MOL0     C19261  10.338   7.627   8.471 -0.1097  0.2539  0.6172
  865MOL0     C19262  10.303   7.704   8.344 -0.7784 -0.0574 -0.4803
  865MOL0     O19263  10.395   7.706   8.235 -0.9548  0.2014 -0.4910
  865MOL0     C19264  10.379   7.743   8.103 -0.3270  0.4661 -0.9433
  865MOL0     C19265  10.497   7.758   8.030  0.5530  0.2146  0.2785
  865MOL0     C19266  10.493   7.776   7.896 -0.3737  0.1387  0.2122
  865MOL0     C19267  10.377   7.808   7.822  0.2824  0.8551  1.1935
  865MOL0     O19268  10.373   7.822   7.679 -0.0248  0.3798  0.3075
  865MOL0     C19269  10.481   7.898   7.623 -0.6447  0.1395  0.7414
  865MOL0     C19270  10.449   7.921   7.472 -0.5661 -0.2773 -0.1416
  865MOL0     C19271  10.532   8.020   7.384  0.0477  0.5898  0.6523
  865MOL0     C19272  10.471   8.041   7.241  0.6592  0.8823  0.1583
  865MOL0     C19273  10.561   8.134   7.148 -1.0456 -0.6860  0.3618
  865MOL0     C19274  10.498   8.156   7.012 -0.0579 -0.1776  1.1168
  865MOL0     C19275  10.492   8.302   6.970  0.1743 -0.6848  0.2252
  865MOL0     C19276  10.361   8.380   7.016  0.0488  0.4405  0.8464
  865MOL0    Cl19277  10.398   8.440   7.174  0.3084 -0.3428  0.1870
  865MOL0     C19278  10.259   7.808   7.899  0.1954 -1.2377 -0.3809
  865MOL0     C19279  10.259   7.785   8.041  1.0078 -0.3756  0.2901
  865MOL0     O19280  10.196   7.763   8.352  0.1481 -0.5256 -0.3346
  865MOL0     C19281  10.466   7.579   8.476  0.3433 -0.1725 -0.1493
  865MOL0     C19282  10.518   7.513   8.589 -0.5610  0.5128 -0.6620
  865MOL0     N19283  10.689   6.927   9.126 -0.6717 -0.3231  0.2968
  865MOL0     N19284  10.723   6.834   9.206  0.1786  0.5392 -0.6947
  865MOL0     C19285  10.274   6.560  10.028 -0.3365  0.3333  0.4187
  865MOL0     C19286  10.403   6.554  10.088 -0.2236 -0.8945  0.3329
  865MOL0     C19287  10.747   6.471  10.315  0.5987 -0.4893 -0.4065
  865MOL0     C19288  10.806   6.599  10.290  0.5373  0.0024 -0.1303
  865MOL0     C19289  10.948   6.618  10.312  0.2915 -1.2088  0.0429
  865MOL0     C19290  11.018   6.532  10.383 -0.5847  0.9386  1.0812
  865MOL0     O19291  11.141   6.567  10.412 -0.3437  0.3990  0.3223
  865MOL0     C19292  11.187   6.549  10.544 -0.0672  0.1890 -0.3262
  865MOL0     C19293  11.099   6.623  10.651 -0.3776  0.0169 -0.2571
  865MOL0     C19294  11.076   6.527  10.771 -0.6955  0.0356 -0.5153
  865MOL0     C19295  11.186   6.542  10.877  0.0113  0.3580 -0.2642
  865MOL0     C19296  11.299   6.462  10.849  0.3757 -0.2834 -0.3845
  865MOL0     C19297  11.398   6.399  10.827 -0.6572  0.0860  0.4097
  865MOL0     C19298  10.957   6.403  10.410  0.0941 -0.9786  0.4196
  865MOL0     C19299  10.831   6.364  10.363 -0.4433 -0.8320 -0.2555
  865MOL0     C19300  10.765   6.218  10.388 -0.4666 -0.4298 -0.2671
  865MOL0     H19301  10.535   6.299   9.909  0.8778  0.2555  0.2279
  865MOL0     H19302  10.319   6.323   9.799 -2.0971  1.1351 -0.1271
  865MOL0     H19303  10.038   6.404   9.702 -1.2518  2.6187 -1.6584
  865MOL0     H19304  10.210   6.437   9.682  0.3572  0.6916 -0.3208
  865MOL0     H19305  10.043   6.597   9.550  1.8449 -2.1712 -1.2039
  865MOL0     H19306  10.009   6.659   9.707 -1.6938 -0.1143 -2.8103
  865MOL0     H19307  10.186   6.799   9.605 -1.7415  0.1609  0.5596
  865MOL0     H19308  10.230   6.741   9.756  1.2916 -0.4090 -0.8429
  865MOL0     H19309  10.362   6.556   9.639 -0.4721  0.1815  0.1381
  865MOL0     H19310  10.330   6.642   9.490  0.3989 -1.2677 -0.2119
  865MOL0     H19311  10.486   6.721   9.732  3.5841  0.7783 -0.6126
  865MOL0     H19312  10.412   6.849   9.622 -0.4191 -0.0938 -0.1151
  865MOL0     H19313  10.584   6.637   9.498 -0.6979  0.6664  0.5994
  865MOL0     H19314  10.524   6.801   9.441  1.5743 -1.3242 -1.9083
  865MOL0     H19315  10.735   6.755   9.649 -2.4457 -0.5993  0.9874
  865MOL0     H19316  10.662   6.914   9.597 -0.5127  0.4374 -0.9867
  865MOL0     H19317  10.887   6.870   9.479  0.0534 -0.6139  1.9446
  865MOL0     H19318  10.824   6.719   9.419  1.4346  2.1023 -3.8684
  865MOL0     H19319  10.660   7.087   9.408 -1.6463  1.0125 -0.8432
  865MOL0     H19320  10.687   7.256   9.193 -0.0372  0.7201 -0.1877
  865MOL0     H19321  10.515   7.197   9.169  0.5978  1.6275 -1.9766
  865MOL0     H19322  10.718   7.150   8.957  0.6683  2.4180 -0.1216
  865MOL0     H19323  10.541   7.169   8.955 -2.1266  0.6179  1.2042
  865MOL0     H19324  10.587   7.423   9.032 -0.8873 -2.1717  1.3464
  865MOL0     H19325  10.757   7.387   9.014 -0.6570  3.6912 -1.3304
  865MOL0     H19326  10.667   7.514   8.830  0.3143  0.0294 -0.4986
  865MOL0     H19327  10.676   7.354   8.757  1.3053 -1.1470  1.9594
  865MOL0     H19328  10.266   7.541   8.795 -0.5148  1.1665 -0.2635
  865MOL0     H19329  10.054   7.606   8.545  0.3569  0.0040  1.1685
  865MOL0     H19330  10.114   7.775   8.573 -1.8292 -0.0934  0.5566
  865MOL0     H19331  10.095   7.659   8.704  1.0889 -2.8754  0.4450
  865MOL0     H19332  10.590   7.753   8.086  0.0542  2.4335  1.4030
  865MOL0     H19333  10.585   7.775   7.839 -1.9278  2.1588 -2.5786
  865MOL0     H19334  10.483   7.992   7.678  3.7440  0.7530 -0.1113
  865MOL0     H19335  10.583   7.858   7.631  1.1833  4.0399 -0.3885
  865MOL0     H19336  10.436   7.817   7.440  0.2485 -2.6828  5.9633
  865MOL0     H19337  10.352   7.971   7.473  0.0547  1.0591  2.1403
  865MOL0     H19338  10.634   7.984   7.369  0.5475  3.0209 -3.0276
  865MOL0     H19339  10.544   8.116   7.435 -3.3670  2.6326 -1.9288
  865MOL0     H19340  10.364   8.062   7.242 -0.1071 -2.4675  1.3303
  865MOL0     H19341  10.477   7.939   7.200 -1.4359  0.5284  0.6375
  865MOL0     H19342  10.582   8.233   7.189 -2.4934 -0.9060  1.6993
  865MOL0     H19343  10.654   8.080   7.127  0.2338  0.8406  1.8018
  865MOL0     H19344  10.401   8.108   7.026  2.2219 -4.7912  3.2236
  865MOL0     H19345  10.544   8.096   6.934 -0.6900 -2.0215  2.1183
  865MOL0     H19346  10.469   8.308   6.863 -0.6700  2.0615  0.4762
  865MOL0     H19347  10.582   8.358   6.996 -0.8230 -0.0581  2.6789
  865MOL0     H19348  10.264   8.330   7.019 -1.4863  3.1769  0.8974
  865MOL0     H19349  10.339   8.475   6.965 -0.9993  1.0118  2.2731
  865MOL0     H19350  10.167   7.827   7.845 -1.1746 -1.5874  1.7182
  865MOL0     H19351  10.161   7.781   8.088 -0.4402 -0.7140 -2.5702
  865MOL0     H19352  10.521   7.589   8.383 -0.7150  2.0855 -0.6272
  865MOL0     H19353  10.624   7.487   8.581  0.1140  2.9544 -0.3817
  865MOL0     H19354  10.203   6.641  10.040 -1.6293  0.0825 -3.8164
  865MOL0     H19355  10.430   6.623  10.167 -1.2192 -2.3027  1.9827
  865MOL0     H19356  10.747   6.678  10.245 -1.0507 -0.2115  1.4729
  865MOL0     H19357  10.992   6.712  10.281 -0.3255 -0.0248  2.5011
  865MOL0     H19358  11.206   6.443  10.565  0.6713  0.3586 -0.1065
  865MOL0     H19359  11.287   6.592  10.548  0.8573 -1.8772  0.0109
  865MOL0     H19360  11.006   6.662  10.609  1.0059  1.0555 -2.5134
  865MOL0     H19361  11.153   6.709  10.691  0.4124 -1.5875  2.3892
  865MOL0     H19362  10.980   6.545  10.821 -1.0950 -4.2620  0.6983
  865MOL0     H19363  11.090   6.427  10.729  1.3952 -0.0442  0.2596
  865MOL0     H19364  11.145   6.506  10.972  2.5332 -0.7017  0.5000
  865MOL0     H19365  11.226   6.643  10.892  1.8360 -0.4735  0.7565
  865MOL0     H19366  11.485   6.338  10.815  1.0772  1.8172  3.0719
  865MOL0     H19367  11.021   6.324  10.449  0.8530 -0.6715 -0.1783
  865MOL0     H19368  10.804   6.180  10.483 -1.2895 -0.5753  0.0213
  865MOL0     H19369  10.657   6.229  10.398 -0.1895  1.2950  1.5943
  865MOL0     H19370  10.785   6.148  10.307 -1.0233 -0.1342 -0.6639
  866MOL0     O19371   1.616   5.289   3.286  0.2292 -0.3991 -0.6431
  866MOL0     C19372   1.589   5.197   3.366  1.0747  0.0697  0.3279
  866MOL0     O19373   1.591   5.206   3.507 -0.0729 -0.0122  1.0618
  866MOL0     C19374   1.597   5.343   3.544  0.0913  0.3776 -0.4850
  866MOL0     C19375   1.483   5.419   3.540 -0.4056 -0.7867  0.3988
  866MOL0     C19376   1.492   5.544   3.592  1.5370 -0.7596 -0.2713
  866MOL0     C19377   1.609   5.602   3.642 -0.0599 -0.0296 -0.8124
  866MOL0     O19378   1.606   5.730   3.669 -0.8494 -1.0721 -0.1400
  866MOL0     C19379   1.735   5.798   3.672  0.5231 -0.4416 -1.2206
  866MOL0     C19380   1.720   5.949   3.649  0.3481 -0.4175 -0.1928
  866MOL0     C19381   1.667   6.015   3.775 -0.5831 -0.8876 -0.1845
  866MOL0     C19382   1.727   6.158   3.786 -0.0567  0.7471  0.3580
  866MOL0     C19383   1.673   6.225   3.911 -0.0995 -0.0022  0.3354
  866MOL0     C19384   1.740   6.354   3.932  0.1417 -0.0747 -0.7628
  866MOL0     C19385   1.665   6.437   4.039  0.3683 -0.2642  0.1474
  866MOL0     C19386   1.759   6.540   4.093 -0.7787 -0.3703 -0.5675
  866MOL0     N19387   1.694   6.662   4.130 -0.3980 -0.1863 -0.3410
  866MOL0     C19388   1.621   6.753   4.053 -0.0885  0.4290  1.0058
  866MOL0     C19389   1.577   6.850   4.131  0.0567  0.3680 -0.4522
  866MOL0     C19390   1.500   6.969   4.099  0.7825 -0.0420 -0.0234
  866MOL0     C19391   1.353   6.933   4.117 -0.4368 -0.4848  0.8504
  866MOL0     C19392   1.289   7.001   4.238  0.0861 -0.0818 -0.0085
  866MOL0     C19393   1.146   6.944   4.248  0.7065  0.0378  0.0911
  866MOL0     O19394   1.131   6.797   4.240 -0.3604 -0.8383 -0.0775
  866MOL0     C19395   1.169   6.714   4.345 -0.5110  0.7064 -0.4480
  866MOL0     C19396   1.162   6.571   4.338 -0.9471  0.7890  0.1839
  866MOL0     C19397   1.222   6.488   4.433 -0.2391  0.2469 -0.6262
  866MOL0     C19398   1.204   6.339   4.403  0.8748 -0.3556 -1.2030
  866MOL0     C19399   1.293   6.547   4.547 -0.2462  0.6850  1.1038
  866MOL0     C19400   1.373   6.475   4.647  0.7698  0.9407 -0.3394
  866MOL0     O19401   1.432   6.544   4.743  0.0122 -0.4774 -0.0001
  866MOL0     C19402   1.535   6.483   4.812  0.1551  0.1302 -0.8062
  866MOL0     C19403   1.552   6.511   4.950 -0.5160 -0.4203  0.0454
  866MOL0     C19404   1.659   6.459   5.029  1.5195  0.5703  0.5301
  866MOL0     C19405   1.747   6.375   4.976  0.0345 -0.3660 -0.4172
  866MOL0     O19406   1.857   6.325   5.052  0.0381  0.7676  0.2937
  866MOL0     C19407   1.970   6.396   5.099 -0.2132 -0.5655  0.5012
  866MOL0     C19408   2.000   6.344   5.232 -0.1879  0.1797  0.6339
  866MOL0     C19409   2.097   6.222   5.217 -0.3512  0.5769 -0.7096
  866MOL0     C19410   2.114   6.145   5.353  0.3591 -0.4182 -0.1796
  866MOL0     C19411   2.134   5.997   5.340 -0.1479 -0.2635  0.2176
  866MOL0     C19412   2.247   5.959   5.237 -0.6212 -0.0446 -0.4279
  866MOL0     C19413   2.377   5.996   5.303 -0.2551  0.1114  1.0934
  866MOL0     C19414   2.498   5.929   5.232  0.9141 -0.1826 -0.5155
  866MOL0    Cl19415   2.480   5.977   5.062 -0.1969 -0.0224  0.0856
  866MOL0     C19416   1.734   6.341   4.844  1.6230 -0.0689 -0.6794
  866MOL0     C19417   1.640   6.397   4.760 -0.4823 -0.3900  0.1171
  866MOL0     O19418   1.383   6.356   4.622 -0.5781  0.6433 -0.7608
  866MOL0     C19419   1.285   6.691   4.550  0.3785  0.4289  0.6526
  866MOL0     C19420   1.221   6.772   4.451  0.7319  0.8472 -0.2356
  866MOL0     N19421   1.642   6.823   4.259 -0.2088 -0.7661  0.5246
  866MOL0     N19422   1.711   6.718   4.251  0.7584  0.1595  0.0147
  866MOL0     C19423   1.722   5.519   3.649  0.4281 -0.1499  0.1564
  866MOL0     C19424   1.714   5.391   3.600  0.1843 -0.4112 -0.6304
  866MOL0     C19425   1.535   5.069   3.298  0.4089  0.2505  0.3157
  866MOL0     C19426   1.551   4.941   3.362 -0.9181 -0.0614  1.3261
  866MOL0     C19427   1.517   4.823   3.294  0.6769  0.3648  0.7056
  866MOL0     C19428   1.461   4.825   3.166 -0.4172 -1.7031  1.0823
  866MOL0     O19429   1.402   4.725   3.099 -0.1111  0.3707 -0.5070
  866MOL0     C19430   1.398   4.593   3.168  0.0758  0.3293  0.6923
  866MOL0     C19431   1.507   4.486   3.138 -1.0054  0.7056  0.5193
  866MOL0     C19432   1.519   4.420   2.999  0.5811 -0.4365 -0.8147
  866MOL0     C19433   1.435   4.281   2.989 -0.9574 -0.4233 -0.1541
  866MOL0     C19434   1.437   4.249   2.851  0.0994 -0.7617  0.6829
  866MOL0     C19435   1.436   4.246   2.729 -0.2921  0.0838 -1.4155
  866MOL0     C19436   1.438   4.949   3.100  0.5118  0.1869 -0.0786
  866MOL0     C19437   1.474   5.072   3.166  0.4760 -0.4523 -0.0298
  866MOL0     C19438   1.423   5.200   3.090 -0.5723  0.2731  0.2084
  866MOL0     H19439   1.384   5.380   3.520 -0.4336  0.0926 -1.3969
  866MOL0     H19440   1.406   5.609   3.588  1.8977 -0.0731  1.7462
  866MOL0     H19441   1.783   5.766   3.578  1.4273 -1.4645 -0.4364
  866MOL0     H19442   1.788   5.769   3.763  0.9239  1.2084 -0.9008
  866MOL0     H19443   1.819   5.986   3.621 -0.3459  1.2188 -0.6450
  866MOL0     H19444   1.648   5.968   3.568 -1.5423 -3.6634  0.5649
  866MOL0     H19445   1.560   6.031   3.762 -0.3186  0.1892 -1.1998
  866MOL0     H19446   1.691   5.945   3.856  0.3492 -1.2898 -0.7897
  866MOL0     H19447   1.836   6.153   3.794 -0.1462  1.5012  2.8630
  866MOL0     H19448   1.687   6.214   3.702  1.0799  0.5592 -0.3336
  866MOL0     H19449   1.670   6.155   3.995  1.8846 -0.9260 -0.3000
  866MOL0     H19450   1.569   6.249   3.889  0.1663  1.0773  0.1871
  866MOL0     H19451   1.840   6.332   3.971  0.4712 -1.2077 -2.1425
  866MOL0     H19452   1.745   6.415   3.841 -0.1242 -0.6853 -1.1968
  866MOL0     H19453   1.627   6.366   4.113  0.4081 -2.4717 -1.8311
  866MOL0     H19454   1.583   6.489   3.989  1.1225  1.2451  0.4257
  866MOL0     H19455   1.817   6.502   4.177 -0.6760 -0.6238 -0.7513
  866MOL0     H19456   1.836   6.558   4.017  0.6648 -2.0713  0.4045
  866MOL0     H19457   1.590   6.744   3.949  3.7077  1.8627 -0.4498
  866MOL0     H19458   1.523   6.998   3.996  0.6555  3.1771  0.7432
  866MOL0     H19459   1.523   7.053   4.165  2.2802 -2.0948  2.2431
  866MOL0     H19460   1.311   6.977   4.025  0.5959 -2.5972 -0.7297
  866MOL0     H19461   1.337   6.826   4.105  1.4406 -0.6070 -1.1878
  866MOL0     H19462   1.347   6.987   4.329 -1.2874  2.3622  1.3535
  866MOL0     H19463   1.276   7.109   4.222  2.0456  0.0320 -1.1415
  866MOL0     H19464   1.087   6.977   4.334 -0.1778 -1.6183  0.1611
  866MOL0     H19465   1.091   6.978   4.159 -0.6984 -2.8098 -0.2627
  866MOL0     H19466   1.110   6.526   4.254  2.9713 -0.1494 -1.9774
  866MOL0     H19467   1.175   6.286   4.494  2.8713  1.3283  0.5238
  866MOL0     H19468   1.289   6.283   4.359  0.0477 -1.4424 -1.4744
  866MOL0     H19469   1.115   6.317   4.343 -1.1033 -1.1770  1.8456
  866MOL0     H19470   1.480   6.579   4.994  1.8226  0.9683  1.9884
  866MOL0     H19471   1.668   6.486   5.133 -0.2498  2.3772  0.2755
  866MOL0     H19472   2.057   6.387   5.033  1.5027  1.3312  2.3409
  866MOL0     H19473   1.950   6.502   5.116 -4.9152 -0.7232 -2.2574
  866MOL0     H19474   2.054   6.422   5.286 -0.6823 -0.1794  1.6718
  866MOL0     H19475   1.911   6.334   5.295  1.6182  0.7080  3.4212
  866MOL0     H19476   2.195   6.242   5.174  0.3997 -2.0683 -0.4279
  866MOL0     H19477   2.053   6.155   5.142  1.9771 -0.8083 -0.9427
  866MOL0     H19478   2.029   6.164   5.419  0.0780 -2.6007  0.1374
  866MOL0     H19479   2.195   6.190   5.412  0.7104 -1.0233 -0.1936
  866MOL0     H19480   2.142   5.954   5.440  0.2492 -1.0492 -0.1402
  866MOL0     H19481   2.049   5.954   5.285 -1.2336  2.7373 -0.6587
  866MOL0     H19482   2.241   6.007   5.139  1.6080  0.9160 -0.1499
  866MOL0     H19483   2.238   5.854   5.210 -0.4736  0.4834 -2.7083
  866MOL0     H19484   2.369   5.964   5.408 -1.2883  0.7180  1.2131
  866MOL0     H19485   2.388   6.104   5.317  1.2018  0.0297  0.7420
  866MOL0     H19486   2.481   5.822   5.247 -1.1573  0.1584 -0.0128
  866MOL0     H19487   2.593   5.950   5.282 -0.2683 -1.5002  2.5818
  866MOL0     H19488   1.800   6.270   4.795  1.7375  0.9126 -2.0132
  866MOL0     H19489   1.635   6.375   4.654 -1.0875  0.1651  0.0189
  866MOL0     H19490   1.322   6.755   4.630 -2.1326  4.0406 -0.8249
  866MOL0     H19491   1.220   6.873   4.490 -0.3368  0.0673  1.9478
  866MOL0     H19492   1.826   5.544   3.666  0.1393  0.4525  1.1090
  866MOL0     H19493   1.804   5.330   3.607 -1.2176 -2.5171  0.0834
  866MOL0     H19494   1.591   4.942   3.463 -1.1533 -2.4277  1.5016
  866MOL0     H19495   1.531   4.731   3.350 -0.0321  0.8302  1.6639
  866MOL0     H19496   1.385   4.618   3.274 -0.5226  5.7383 -0.3974
  866MOL0     H19497   1.306   4.542   3.138 -1.1343  2.1078  1.1900
  866MOL0     H19498   1.494   4.405   3.210 -3.4320  2.1213  1.7822
  866MOL0     H19499   1.603   4.537   3.153 -0.2852 -0.6155  0.5589
  866MOL0     H19500   1.484   4.508   2.943  2.8200 -0.0593 -1.7385
  866MOL0     H19501   1.623   4.401   2.971  0.9871  1.2656 -0.6104
  866MOL0     H19502   1.334   4.313   3.019 -1.1352  1.4005 -2.3635
  866MOL0     H19503   1.490   4.208   3.048  1.4227 -1.1060 -3.0078
  866MOL0     H19504   1.465   4.237   2.626 -0.2327 -2.7826 -1.2342
  866MOL0     H19505   1.386   4.953   3.005 -0.2056  1.6786  0.3401
  866MOL0     H19506   1.509   5.257   3.054 -0.1474 -0.3116  0.2815
  866MOL0     H19507   1.368   5.171   2.999 -0.2867 -1.4402  0.5339
  866MOL0     H19508   1.368   5.254   3.167  2.0638 -1.5515  3.7040
  867MOL0     O19509   9.175  10.581   6.127  0.5122  0.0587 -1.0008
  867MOL0     C19510   9.137  10.467   6.154  0.8835  0.3626 -0.5827
  867MOL0     O19511   9.174  10.348   6.095 -0.3616 -0.0982 -0.0072
  867MOL0     C19512   9.272  10.375   6.005  0.1306  0.0985  0.5278
  867MOL0     C19513   9.405  10.376   6.037  0.7180  0.5135 -1.1323
  867MOL0     C19514   9.508  10.403   5.947 -0.0492  0.0089 -0.2572
  867MOL0     C19515   9.466  10.418   5.812 -0.7230 -0.9223  0.6267
  867MOL0     O19516   9.576  10.441   5.735  0.7423 -0.3644 -0.0416
  867MOL0     C19517   9.563  10.456   5.590  0.0943  0.2096  0.0170
  867MOL0     C19518   9.530  10.600   5.548  0.2003 -0.1008  0.2972
  867MOL0     C19519   9.525  10.614   5.392 -0.4434  1.6531  0.0572
  867MOL0     C19520   9.660  10.575   5.321  0.5527  0.3236 -0.3526
  867MOL0     C19521   9.769  10.638   5.391 -0.9004 -1.0360  0.9906
  867MOL0     C19522   9.892  10.634   5.314 -0.5536  0.2496  0.3707
  867MOL0     C19523   9.901  10.745   5.206 -0.7620 -0.5777 -0.2208
  867MOL0     C19524  10.046  10.759   5.167  0.1681  0.7667 -0.1569
  867MOL0     N19525  10.045  10.813   5.027 -0.1982  0.9076  0.1325
  867MOL0     C19526  10.022  10.736   4.913 -0.6417  0.8602 -0.2574
  867MOL0     C19527  10.010  10.816   4.808 -0.7205  0.1197 -0.8953
  867MOL0     C19528  10.025  10.787   4.663 -0.5851  0.0564  1.0769
  867MOL0     C19529   9.920  10.695   4.612  0.3757  0.2782  0.0536
  867MOL0     C19530   9.774  10.755   4.635  0.7524  0.5175  0.3179
  867MOL0     C19531   9.671  10.653   4.588 -0.0490  0.1949 -0.4684
  867MOL0     O19532   9.701  10.530   4.652  0.0263  0.8586 -0.2047
  867MOL0     C19533   9.639  10.481   4.768  0.7772 -0.1423 -0.8595
  867MOL0     C19534   9.502  10.482   4.774 -0.0663  0.0836  0.4806
  867MOL0     C19535   9.429  10.432   4.884 -0.2461  0.0103 -0.0140
  867MOL0     C19536   9.283  10.440   4.871  0.2553  1.0476 -0.9347
  867MOL0     C19537   9.506  10.378   4.991  0.2655 -0.4873  0.5214
  867MOL0     C19538   9.439  10.330   5.116 -0.6813  1.4114 -0.4334
  867MOL0     O19539   9.348  10.402   5.177  0.3823  0.2805  0.2141
  867MOL0     C19540   9.269  10.346   5.270 -1.2493 -0.3567  0.7143
  867MOL0     C19541   9.140  10.395   5.272  0.5698 -0.4702 -0.6596
  867MOL0     C19542   9.059  10.384   5.390 -0.4595  0.8421 -0.6981
  867MOL0     C19543   9.084  10.287   5.495 -0.1313 -0.2862 -0.6618
  867MOL0     O19544   9.013  10.250   5.609 -0.3955  1.1411  0.3480
  867MOL0     C19545   8.885  10.306   5.631  0.2341  0.6173 -0.7218
  867MOL0     C19546   8.836  10.252   5.766  0.6291 -0.0406 -0.7010
  867MOL0     C19547   8.693  10.301   5.811 -0.6227  0.0757  0.4426
  867MOL0     C19548   8.687  10.313   5.957 -0.9385  0.3605  0.1970
  867MOL0     C19549   8.548  10.334   6.026  0.0970  0.2198 -0.4045
  867MOL0     C19550   8.564  10.346   6.182  0.4137  0.5011  0.4403
  867MOL0     C19551   8.437  10.392   6.260  0.2346 -0.2851  0.5556
  867MOL0     C19552   8.381  10.529   6.226 -0.0158 -0.1061 -0.4127
  867MOL0    Cl19553   8.270  10.582   6.346  0.4818  0.1819  0.0575
  867MOL0     C19554   9.211  10.222   5.485  0.5221 -0.0394 -0.7586
  867MOL0     C19555   9.294  10.254   5.376  0.0283 -0.0700 -0.7528
  867MOL0     O19556   9.465  10.206   5.136  0.1860 -0.3806 -0.2831
  867MOL0     C19557   9.648  10.385   4.986  0.6934 -0.1144  0.4073
  867MOL0     C19558   9.708  10.436   4.876 -0.2259 -0.2299 -0.7929
  867MOL0     N19559  10.009  10.942   4.860 -0.4833  0.0695  0.4009
  867MOL0     N19560  10.010  10.942   4.989 -0.1018  0.0783 -0.3383
  867MOL0     C19561   9.338  10.402   5.770  0.2332 -0.1282  0.3545
  867MOL0     C19562   9.234  10.378   5.867 -0.0044 -0.7104  0.5525
  867MOL0     C19563   9.013  10.455   6.249 -0.4477 -0.6122  0.6896
  867MOL0     C19564   8.979  10.578   6.313 -0.4242  1.3052  0.4779
  867MOL0     C19565   8.879  10.572   6.406  1.2467  0.6936  1.2920
  867MOL0     C19566   8.813  10.452   6.438  0.0201  1.1105 -0.0695
  867MOL0     O19567   8.709  10.430   6.519 -0.9246 -1.1359  0.5154
  867MOL0     C19568   8.683  10.532   6.620  0.3464  0.1089  0.0553
  867MOL0     C19569   8.605  10.493   6.754  1.2718  0.5675  1.1775
  867MOL0     C19570   8.687  10.383   6.831  0.9966  0.7506  0.1917
  867MOL0     C19571   8.600  10.305   6.939 -0.5374  0.8531 -1.1131
  867MOL0     C19572   8.546  10.377   7.052 -0.4435 -0.3124  0.2353
  867MOL0     C19573   8.478  10.430   7.138 -0.1277  0.1902 -0.1595
  867MOL0     C19574   8.838  10.335   6.363 -0.1110 -0.1009 -0.5625
  867MOL0     C19575   8.941  10.334   6.274  0.5514  0.4933  0.2387
  867MOL0     C19576   8.954  10.201   6.204 -0.0319 -0.7254 -0.3574
  867MOL0     H19577   9.429  10.360   6.141  0.2929 -3.5094 -1.5226
  867MOL0     H19578   9.611  10.401   5.981 -0.7506  1.2936  2.1549
  867MOL0     H19579   9.494  10.378   5.557  1.5809 -1.6986  1.1857
  867MOL0     H19580   9.659  10.426   5.548 -1.0694  1.2648 -3.7666
  867MOL0     H19581   9.433  10.619   5.595  0.9677  0.8122  1.6154
  867MOL0     H19582   9.594  10.681   5.584  2.7450 -0.6259 -2.6155
  867MOL0     H19583   9.450  10.546   5.351  2.9911 -0.6411 -3.0853
  867MOL0     H19584   9.491  10.716   5.372 -0.2210  1.4830 -1.2650
  867MOL0     H19585   9.662  10.466   5.312 -1.4771  0.3701 -2.1293
  867MOL0     H19586   9.657  10.623   5.223 -1.7770 -0.4938 -0.7465
  867MOL0     H19587   9.793  10.598   5.490 -0.4368 -1.1163  0.8519
  867MOL0     H19588   9.743  10.744   5.406  0.1006 -0.3740 -1.5151
  867MOL0     H19589   9.963  10.641   5.397 -1.8498 -3.6503  2.0636
  867MOL0     H19590   9.899  10.538   5.262 -0.9165  0.2854  0.2601
  867MOL0     H19591   9.879  10.843   5.249  0.6758 -0.5472  0.4948
  867MOL0     H19592   9.840  10.733   5.116  0.3500  0.2976 -1.1258
  867MOL0     H19593  10.103  10.827   5.230  1.4147  1.5205 -1.9907
  867MOL0     H19594  10.079  10.656   5.178  2.5631  0.8770 -4.2855
  867MOL0     H19595  10.018  10.628   4.913 -3.1717  0.8960 -0.9955
  867MOL0     H19596  10.117  10.729   4.650 -2.6035 -3.2364  0.3753
  867MOL0     H19597  10.024  10.874   4.597 -0.6332 -1.9976 -1.8321
  867MOL0     H19598   9.949  10.672   4.509 -5.0556 -0.3239 -1.6967
  867MOL0     H19599   9.920  10.602   4.669 -0.1049  0.4597  0.3629
  867MOL0     H19600   9.753  10.780   4.739 -0.5138 -0.4613  0.3170
  867MOL0     H19601   9.748  10.833   4.564 -1.6241 -0.9895 -0.5994
  867MOL0     H19602   9.567  10.686   4.605  0.4861  1.4312  0.6109
  867MOL0     H19603   9.675  10.634   4.480 -0.4519  1.4263 -0.7132
  867MOL0     H19604   9.451  10.517   4.684  0.0367  0.5973  0.6174
  867MOL0     H19605   9.224  10.364   4.923  1.5734  0.4477 -0.2780
  867MOL0     H19606   9.250  10.431   4.767 -1.7399 -1.3569 -0.1986
  867MOL0     H19607   9.239  10.535   4.904  1.1667  0.8285  1.0766
  867MOL0     H19608   9.103  10.466   5.200 -0.5600  1.2331  1.4731
  867MOL0     H19609   8.955  10.414   5.388 -0.4988  0.7441 -0.3020
  867MOL0     H19610   8.879  10.415   5.627 -2.3504  0.5361 -1.2925
  867MOL0     H19611   8.812  10.269   5.558 -0.2029 -0.1261  0.0605
  867MOL0     H19612   8.847  10.143   5.757 -1.1136 -0.3601  0.6173
  867MOL0     H19613   8.907  10.270   5.848  2.5799 -0.7210 -2.1639
  867MOL0     H19614   8.615  10.229   5.783  0.0607 -0.1653 -0.8978
  867MOL0     H19615   8.669  10.399   5.770  3.9005  0.2912 -2.3502
  867MOL0     H19616   8.749  10.399   5.986  2.1932 -0.5669 -3.0651
  867MOL0     H19617   8.734  10.226   6.004 -0.3048  0.8827  0.5504
  867MOL0     H19618   8.517  10.428   5.980  3.1756  0.8998 -1.3123
  867MOL0     H19619   8.477  10.253   6.004  0.6830 -0.9916  1.8489
  867MOL0     H19620   8.646  10.418   6.190 -0.6530  2.0616 -1.7604
  867MOL0     H19621   8.600  10.248   6.215  0.8531 -0.1225 -1.7015
  867MOL0     H19622   8.474  10.382   6.362  0.0528 -0.1086  0.6387
  867MOL0     H19623   8.353  10.324   6.247  0.3978 -0.3809 -0.0244
  867MOL0     H19624   8.329  10.531   6.130 -0.2994  0.7926 -0.2464
  867MOL0     H19625   8.468  10.594   6.237  0.7310 -1.2016  0.4354
  867MOL0     H19626   9.230  10.145   5.559 -0.7877 -0.9965 -1.3769
  867MOL0     H19627   9.389  10.203   5.372 -0.1915 -0.4035 -2.6272
  867MOL0     H19628   9.699  10.352   5.075  0.7162  1.0557  0.8496
  867MOL0     H19629   9.815  10.420   4.872 -0.1221  0.5312 -1.2882
  867MOL0     H19630   9.302  10.400   5.668 -1.4943 -4.5106  0.8443
  867MOL0     H19631   9.129  10.382   5.840  0.9039 -0.5346 -3.5962
  867MOL0     H19632   9.035  10.669   6.292  1.2179  0.8039  2.4202
  867MOL0     H19633   8.832  10.656   6.456  0.9241 -0.0495  2.2622
  867MOL0     H19634   8.779  10.566   6.661 -0.1862  1.8087 -0.0260
  867MOL0     H19635   8.624  10.611   6.573 -0.2374 -0.1755  0.2984
  867MOL0     H19636   8.504  10.457   6.731  1.3712  0.9718  0.0445
  867MOL0     H19637   8.605  10.585   6.812  2.4409  2.2054 -1.2407
  867MOL0     H19638   8.734  10.318   6.757  3.8200  4.0303 -1.1474
  867MOL0     H19639   8.769  10.428   6.887 -0.6554  2.2417  1.5156
  867MOL0     H19640   8.660  10.222   6.976  2.1097  2.9504 -0.3291
  867MOL0     H19641   8.517  10.249   6.895 -0.8208  2.0013 -2.1072
  867MOL0     H19642   8.409  10.464   7.212  0.4910  0.4686  0.2985
  867MOL0     H19643   8.793  10.237   6.376  0.0319  0.0736  1.5781
  867MOL0     H19644   8.957  10.214   6.095  0.4981  0.6303 -0.1904
  867MOL0     H19645   9.047  10.156   6.240  1.0255  2.0259  0.6112
  867MOL0     H19646   8.869  10.135   6.224 -0.6428  0.1297 -0.0931
  868MOL0     O19647   4.793   7.802   6.590 -0.1026 -0.5189 -0.5802
  868MOL0     C19648   4.783   7.817   6.712 -0.6378  0.7814  0.4027
  868MOL0     O19649   4.777   7.939   6.781  0.4573 -0.5660 -0.6482
  868MOL0     C19650   4.727   8.053   6.720  0.3194  0.4482 -0.8931
  868MOL0     C19651   4.748   8.105   6.586 -0.3858  0.2362 -0.2243
  868MOL0     C19652   4.719   8.234   6.557 -0.1531 -1.0026 -0.8627
  868MOL0     C19653   4.666   8.323   6.649 -0.1965  0.4769  0.1097
  868MOL0     O19654   4.656   8.448   6.598  0.5103 -0.1632 -0.7599
  868MOL0     C19655   4.543   8.529   6.646 -0.0890 -0.9938 -0.4864
  868MOL0     C19656   4.581   8.641   6.742  0.1295 -1.0437  0.4987
  868MOL0     C19657   4.470   8.688   6.840 -1.0133  1.0191 -0.5847
  868MOL0     C19658   4.493   8.827   6.903 -0.1168  0.4520 -0.5053
  868MOL0     C19659   4.355   8.894   6.947 -0.1697  0.8660  0.4252
  868MOL0     C19660   4.276   8.964   6.830 -0.0442 -0.2262 -0.4113
  868MOL0     C19661   4.158   9.052   6.880  0.1846  0.9860 -0.5472
  868MOL0     C19662   4.083   8.988   6.997  0.1143 -0.2825  0.3781
  868MOL0     N19663   4.022   8.859   6.957  0.1264 -0.3606 -0.6267
  868MOL0     C19664   4.030   8.750   7.036  0.2194 -0.0577  0.4184
  868MOL0     C19665   3.938   8.664   6.982  0.2161 -0.2227 -0.0113
  868MOL0     C19666   3.883   8.531   7.034 -0.2625 -0.8016  0.1432
  868MOL0     C19667   3.991   8.438   7.100  0.0676  1.0068  0.3468
  868MOL0     C19668   4.067   8.361   6.982  0.5096  0.9032  0.1522
  868MOL0     C19669   4.144   8.242   7.035 -0.8896 -0.1013  0.2361
  868MOL0     O19670   4.285   8.278   7.049 -0.9291 -0.2277  0.6920
  868MOL0     C19671   4.371   8.179   7.096  0.6272 -0.8803  0.5379
  868MOL0     C19672   4.426   8.189   7.226 -0.1250  1.4649 -0.6858
  868MOL0     C19673   4.518   8.097   7.280  0.4732  0.9285  0.1672
  868MOL0     C19674   4.582   8.128   7.416  0.5786 -0.3421 -0.7529
  868MOL0     C19675   4.561   7.989   7.204  0.1568 -0.2712 -1.1756
  868MOL0     C19676   4.688   7.916   7.243 -0.3953 -0.3612 -0.6607
  868MOL0     O19677   4.708   7.846   7.366  0.5421  0.1913  0.2139
  868MOL0     C19678   4.833   7.796   7.396 -0.2456  0.0311 -0.8819
  868MOL0     C19679   4.935   7.886   7.441  0.0202 -0.2358 -0.0302
  868MOL0     C19680   5.063   7.843   7.469 -0.2671 -0.8103 -0.2231
  868MOL0     C19681   5.094   7.702   7.471  0.0588  0.0994 -0.3413
  868MOL0     O19682   5.213   7.643   7.521 -0.1133 -0.3433  0.8718
  868MOL0     C19683   5.329   7.729   7.490  0.6656  0.1517 -0.6762
  868MOL0     C19684   5.469   7.672   7.514  0.3764  0.6300  0.1723
  868MOL0     C19685   5.476   7.553   7.418 -0.6202 -0.0158 -0.1113
  868MOL0     C19686   5.573   7.439   7.461 -0.3695 -0.5327  0.5822
  868MOL0     C19687   5.568   7.297   7.395  0.3087 -0.0072  0.0467
  868MOL0     C19688   5.639   7.204   7.486 -0.5275  0.8218 -0.3638
  868MOL0     C19689   5.652   7.067   7.423 -0.8634  1.3610 -0.5163
  868MOL0     C19690   5.533   7.014   7.346 -0.0435 -0.4204 -0.2781
  868MOL0    Cl19691   5.375   7.028   7.460 -0.1748  0.1132  0.1092
  868MOL0     C19692   4.993   7.616   7.423 -0.1156 -0.8960  0.1656
  868MOL0     C19693   4.859   7.659   7.387 -0.1310 -0.4725  0.1437
  868MOL0     O19694   4.779   7.937   7.162 -0.0633  0.2242 -0.0597
  868MOL0     C19695   4.507   7.973   7.069 -0.0030  0.7537 -0.1129
  868MOL0     C19696   4.417   8.072   7.023  0.7693  0.2297  0.5309
  868MOL0     N19697   3.883   8.718   6.866 -0.3027 -0.4882  0.0511
  868MOL0     N19698   3.930   8.837   6.861 -0.6373 -0.0302  0.2905
  868MOL0     C19699   4.643   8.283   6.784 -1.2273 -0.7460 -0.0779
  868MOL0     C19700   4.666   8.149   6.813  0.5513  1.1789 -0.5611
  868MOL0     C19701   4.807   7.691   6.796 -0.3978 -0.4832 -0.6807
  868MOL0     C19702   4.861   7.711   6.922  0.7183 -0.5200  0.0135
  868MOL0     C19703   4.903   7.598   6.995 -0.6196 -0.5572  0.1027
  868MOL0     C19704   4.880   7.462   6.946 -0.0269 -0.4404 -0.6045
  868MOL0     O19705   4.909   7.345   7.015 -0.5299  0.5108 -0.3018
  868MOL0     C19706   4.989   7.344   7.137 -0.4007 -0.3044  0.0923
  868MOL0     C19707   5.134   7.382   7.115 -0.0826 -0.1283  1.0496
  868MOL0     C19708   5.194   7.300   7.006  0.0396  0.7093 -0.7659
  868MOL0     C19709   5.345   7.332   6.995  0.6627 -0.2299  0.2188
  868MOL0     C19710   5.379   7.475   6.972  0.6433  0.4696 -0.4461
  868MOL0     C19711   5.412   7.587   6.934  0.1691 -0.0887  0.3604
  868MOL0     C19712   4.825   7.442   6.823  0.4664 -0.9202  0.5183
  868MOL0     C19713   4.789   7.559   6.747  0.0706  0.1330  0.5192
  868MOL0     C19714   4.729   7.536   6.607 -0.6388 -0.7694  0.4269
  868MOL0     H19715   4.807   8.047   6.516  2.1808 -2.2955  3.6048
  868MOL0     H19716   4.723   8.274   6.455  1.0691 -0.9200 -0.8026
  868MOL0     H19717   4.460   8.466   6.682 -0.2062  0.1248  1.2740
  868MOL0     H19718   4.508   8.567   6.549 -2.4675 -0.2165  0.5927
  868MOL0     H19719   4.651   8.582   6.803  1.7679 -0.9988 -1.2419
  868MOL0     H19720   4.614   8.731   6.689  0.6289 -0.0147  2.4238
  868MOL0     H19721   4.382   8.680   6.776 -1.9022 -0.9219  0.7639
  868MOL0     H19722   4.437   8.614   6.914 -1.9007  1.2266 -0.7621
  868MOL0     H19723   4.562   8.829   6.988 -1.9905  1.8993  1.0834
  868MOL0     H19724   4.529   8.886   6.819  1.4799  1.3851  0.7658
  868MOL0     H19725   4.377   8.975   7.017 -3.2128  0.6950  1.7516
  868MOL0     H19726   4.285   8.823   6.991 -0.0195 -0.0958 -0.8174
  868MOL0     H19727   4.350   9.021   6.773  0.8703 -1.5070 -0.5523
  868MOL0     H19728   4.232   8.892   6.761  0.8689 -0.8771 -0.3309
  868MOL0     H19729   4.090   9.066   6.796 -0.1186  3.1301 -0.0057
  868MOL0     H19730   4.196   9.150   6.913  1.0531  0.7006 -0.6627
  868MOL0     H19731   4.151   8.987   7.082  0.9246  1.3888 -0.2107
  868MOL0     H19732   4.002   9.056   7.023  0.2244 -0.2326  0.5852
  868MOL0     H19733   4.089   8.736   7.126 -1.4994  1.1491  1.7907
  868MOL0     H19734   3.838   8.478   6.949  0.4259 -3.9111  1.5531
  868MOL0     H19735   3.803   8.553   7.105 -0.7125  2.3634 -1.2164
  868MOL0     H19736   4.053   8.483   7.178 -1.1457 -0.5799  2.3256
  868MOL0     H19737   3.930   8.361   7.148 -2.1305  1.3115 -1.7754
  868MOL0     H19738   3.994   8.326   6.909  0.2593  0.9341  0.3824
  868MOL0     H19739   4.124   8.435   6.925  0.4984 -0.0335 -1.0833
  868MOL0     H19740   4.099   8.213   7.130  0.1850  1.5392  1.2960
  868MOL0     H19741   4.136   8.156   6.968  0.6549  0.2653 -0.4660
  868MOL0     H19742   4.386   8.273   7.281  0.5779  0.8497  0.7985
  868MOL0     H19743   4.555   8.061   7.497  1.9832 -0.3709 -0.2891
  868MOL0     H19744   4.559   8.232   7.443  3.0268  0.1649 -0.3330
  868MOL0     H19745   4.691   8.125   7.422  0.6740  2.2972  0.1838
  868MOL0     H19746   4.925   7.994   7.431  1.9642 -0.1667 -2.2146
  868MOL0     H19747   5.144   7.908   7.501  0.3485 -1.0430 -1.2899
  868MOL0     H19748   5.322   7.778   7.392  3.3917  0.2177 -0.9097
  868MOL0     H19749   5.320   7.808   7.566  1.1608 -1.0155  0.6502
  868MOL0     H19750   5.545   7.742   7.479 -0.1616  0.8347 -0.6193
  868MOL0     H19751   5.496   7.632   7.612  1.2534 -3.8315 -1.6186
  868MOL0     H19752   5.504   7.588   7.318  1.3612 -0.4073  0.2560
  868MOL0     H19753   5.378   7.510   7.398 -1.0987  0.5108  1.0105
  868MOL0     H19754   5.546   7.425   7.566  0.3462 -0.2862  0.8013
  868MOL0     H19755   5.672   7.483   7.447 -1.6311  2.4742  0.3383
  868MOL0     H19756   5.460   7.280   7.386  0.4287 -0.1408 -1.4354
  868MOL0     H19757   5.609   7.299   7.293 -1.4178  2.3775 -0.7087
  868MOL0     H19758   5.600   7.196   7.587 -0.2593  1.3350 -0.2160
  868MOL0     H19759   5.734   7.253   7.510  0.2006 -1.9658  3.0846
  868MOL0     H19760   5.675   6.999   7.505 -0.2067  2.7052  0.4504
  868MOL0     H19761   5.743   7.069   7.362 -1.6652  1.9104 -1.7312
  868MOL0     H19762   5.544   6.906   7.332 -3.0100 -1.0447  1.2734
  868MOL0     H19763   5.509   7.072   7.257  3.0004  3.4860  1.1344
  868MOL0     H19764   5.017   7.513   7.444 -2.6577 -1.0505  3.0296
  868MOL0     H19765   4.791   7.590   7.339 -1.8996 -0.3616  2.3064
  868MOL0     H19766   4.556   7.903   7.002  1.8435  0.7435  1.2049
  868MOL0     H19767   4.384   8.062   6.920 -1.3148  0.9237  1.0641
  868MOL0     H19768   4.630   8.355   6.864 -0.9220 -0.0800 -0.6168
  868MOL0     H19769   4.645   8.139   6.919 -1.5645  2.7990 -0.7726
  868MOL0     H19770   4.882   7.813   6.955 -0.5221  0.4331 -1.9161
  868MOL0     H19771   4.943   7.622   7.093  0.2998 -2.1551  0.1547
  868MOL0     H19772   4.936   7.413   7.203 -1.0902  2.1510 -2.8212
  868MOL0     H19773   4.989   7.243   7.178 -0.1652 -0.1384  0.5049
  868MOL0     H19774   5.191   7.376   7.208 -0.2981  0.8877  1.2667
  868MOL0     H19775   5.129   7.487   7.085 -3.6507 -0.0923  1.3064
  868MOL0     H19776   5.173   7.194   7.022 -1.3906  0.8838 -1.3041
  868MOL0     H19777   5.140   7.326   6.914  0.7104 -0.9787 -1.6656
  868MOL0     H19778   5.384   7.271   6.912 -3.8135 -2.2365 -0.7054
  868MOL0     H19779   5.397   7.306   7.088  4.2297  0.5978 -1.3772
  868MOL0     H19780   5.439   7.687   6.908 -1.9446  0.5332  0.3680
  868MOL0     H19781   4.823   7.339   6.789  2.0485 -0.9289  0.3924
  868MOL0     H19782   4.714   7.428   6.596 -0.0523 -0.8294  0.1932
  868MOL0     H19783   4.631   7.583   6.598 -0.1856  0.8176  2.8855
  868MOL0     H19784   4.796   7.557   6.523  0.5105  1.8494  1.8991
  869MOL0     O19785   4.661   7.219   9.749  0.4638  0.0299 -0.7837
  869MOL0     C19786   4.657   7.097   9.730  0.0986  0.1362 -0.3117
  869MOL0     O19787   4.682   7.031   9.607  0.3551  0.4238  0.4094
  869MOL0     C19788   4.713   7.102   9.492 -0.4591 -0.7700  0.6073
  869MOL0     C19789   4.642   7.049   9.372  0.4700 -0.7576 -0.6483
  869MOL0     C19790   4.677   7.108   9.246  1.5351  0.0315  0.1500
  869MOL0     C19791   4.773   7.209   9.231  0.4667  0.3233  0.1648
  869MOL0     O19792   4.794   7.252   9.105  0.4350  0.2384 -0.9764
  869MOL0     C19793   4.912   7.320   9.066  0.7524  0.1610  0.1140
  869MOL0     C19794   4.944   7.305   8.913  0.1615  0.2141  0.3810
  869MOL0     C19795   5.026   7.421   8.846  0.0173 -0.6238  0.0109
  869MOL0     C19796   5.158   7.467   8.923  0.2618  0.9455  0.8225
  869MOL0     C19797   5.204   7.601   8.869 -0.1146 -0.5751  0.1364
  869MOL0     C19798   5.351   7.634   8.909 -0.5542  0.2861 -0.5551
  869MOL0     C19799   5.416   7.727   8.809  0.1925 -0.1472 -0.3118
  869MOL0     C19800   5.436   7.664   8.675 -1.1829 -0.3595  0.2741
  869MOL0     N19801   5.522   7.553   8.680  0.0517  0.1970  0.4113
  869MOL0     C19802   5.652   7.558   8.685 -0.2851  0.3080 -0.6128
  869MOL0     C19803   5.704   7.434   8.683  0.4874  0.8233  0.6914
  869MOL0     C19804   5.841   7.371   8.666 -1.3617  0.1222 -0.7629
  869MOL0     C19805   5.901   7.417   8.539  0.2252 -0.4494  0.8213
  869MOL0     C19806   5.842   7.362   8.406  0.4240 -0.8205 -0.0602
  869MOL0     C19807   5.938   7.372   8.295  0.3918  0.7244 -0.1399
  869MOL0     O19808   5.871   7.344   8.166 -0.2068 -0.2284 -0.2230
  869MOL0     C19809   5.823   7.446   8.096  0.3572 -0.2087  0.0569
  869MOL0     C19810   5.819   7.585   8.135 -0.4854 -0.7289 -0.4928
  869MOL0     C19811   5.756   7.690   8.067  0.0154  1.0047 -0.1781
  869MOL0     C19812   5.761   7.826   8.125  0.0864 -0.2753  0.0379
  869MOL0     C19813   5.697   7.646   7.943 -0.1060  0.6765 -0.0158
  869MOL0     C19814   5.635   7.742   7.854 -0.3096 -0.9123  0.3832
  869MOL0     O19815   5.525   7.806   7.911 -0.2675  0.5915  0.1055
  869MOL0     C19816   5.458   7.896   7.842 -0.3530  0.0552  0.5462
  869MOL0     C19817   5.324   7.889   7.846 -0.0626 -1.1867 -0.6319
  869MOL0     C19818   5.240   7.984   7.782  0.3397 -0.0977 -1.0727
  869MOL0     C19819   5.294   8.092   7.709 -0.2956  0.0239  0.7780
  869MOL0     O19820   5.223   8.188   7.635 -1.0054 -0.1719 -0.2348
  869MOL0     C19821   5.081   8.200   7.657  0.0879 -0.3582  0.6534
  869MOL0     C19822   5.040   8.318   7.574  0.2579 -0.5147  1.3329
  869MOL0     C19823   4.909   8.308   7.507 -0.4225 -0.0761  0.7703
  869MOL0     C19824   4.868   8.436   7.448 -0.7423 -0.0087 -0.2147
  869MOL0     C19825   4.731   8.433   7.378 -0.8662  0.0766 -0.6872
  869MOL0     C19826   4.708   8.577   7.320  0.7328  1.2432 -0.2033
  869MOL0     C19827   4.585   8.586   7.230  0.5994 -0.1693  0.0365
  869MOL0     C19828   4.453   8.593   7.319 -1.3914  0.2840  0.6897
  869MOL0    Cl19829   4.317   8.630   7.213 -0.0251 -0.4342 -0.7033
  869MOL0     C19830   5.433   8.094   7.714 -0.2634 -1.2673  0.1583
  869MOL0     C19831   5.516   8.007   7.784  0.7930 -0.4919 -0.9301
  869MOL0     O19832   5.680   7.757   7.742 -0.2206 -0.0340  0.0832
  869MOL0     C19833   5.706   7.513   7.901  0.4833  0.5989  0.0803
  869MOL0     C19834   5.759   7.412   7.975 -0.7414 -1.3562  0.3778
  869MOL0     N19835   5.597   7.350   8.690 -0.1394 -1.2321 -0.4376
  869MOL0     N19836   5.489   7.419   8.675 -0.2275 -0.0137 -0.0890
  869MOL0     C19837   4.843   7.249   9.350  0.3447  0.7647  0.3718
  869MOL0     C19838   4.817   7.192   9.473  0.5420 -0.0751  0.0470
  869MOL0     C19839   4.639   7.012   9.850  0.0613 -0.6663 -0.3503
  869MOL0     C19840   4.653   6.877   9.822 -0.4675  0.0643 -0.1829
  869MOL0     C19841   4.636   6.791   9.929 -0.4714 -0.1252 -0.2011
  869MOL0     C19842   4.599   6.831  10.055 -0.4888 -0.8020 -0.3244
  869MOL0     O19843   4.553   6.731  10.145  0.0328  0.6405 -0.0235
  869MOL0     C19844   4.469   6.776  10.252 -0.7324  0.0213  0.2942
  869MOL0     C19845   4.388   6.649  10.299 -0.0114 -0.0030  0.7557
  869MOL0     C19846   4.485   6.550  10.372  0.1667 -1.0198  0.8154
  869MOL0     C19847   4.433   6.412  10.414 -0.0162  0.4055 -0.4871
  869MOL0     C19848   4.539   6.321  10.458 -0.1783  0.2541 -0.0411
  869MOL0     C19849   4.628   6.242  10.491 -0.2307 -0.6793  0.0514
  869MOL0     C19850   4.592   6.965  10.080 -0.7316  0.3435 -0.9922
  869MOL0     C19851   4.606   7.060   9.980 -0.3776  0.4935  0.9119
  869MOL0     C19852   4.590   7.208  10.021 -0.3648  0.3516 -0.0115
  869MOL0     H19853   4.560   6.980   9.391 -0.6085  1.2304  2.7673
  869MOL0     H19854   4.617   7.082   9.160  1.0556  1.9545 -0.1259
  869MOL0     H19855   5.001   7.290   9.122  0.9375  0.9416  0.2572
  869MOL0     H19856   4.908   7.428   9.083  0.4370  0.3651 -1.1247
  869MOL0     H19857   4.998   7.210   8.906  1.3187  0.7810  1.2105
  869MOL0     H19858   4.853   7.292   8.854  1.9240  0.0673 -2.4734
  869MOL0     H19859   5.068   7.369   8.759  1.7445  0.3934  0.2084
  869MOL0     H19860   4.969   7.513   8.833  0.4019 -0.1636  1.5009
  869MOL0     H19861   5.160   7.477   9.032  0.7131 -1.2194  1.0608
  869MOL0     H19862   5.240   7.396   8.906  0.9535  1.5978  1.3539
  869MOL0     H19863   5.141   7.674   8.919 -0.6262 -1.2927  0.5688
  869MOL0     H19864   5.184   7.622   8.764  2.3462 -1.6556 -0.6148
  869MOL0     H19865   5.357   7.684   9.007  0.7593 -3.1369  1.2863
  869MOL0     H19866   5.414   7.544   8.909 -1.7241 -0.5849  0.9900
  869MOL0     H19867   5.511   7.754   8.856  0.0474  0.7433 -0.5209
  869MOL0     H19868   5.350   7.812   8.792 -0.5487 -0.8109 -0.8430
  869MOL0     H19869   5.337   7.634   8.639 -2.5374  5.1701 -1.5929
  869MOL0     H19870   5.470   7.727   8.593 -0.2137 -0.7289  0.3821
  869MOL0     H19871   5.707   7.652   8.685 -1.5384  1.1264  1.5996
  869MOL0     H19872   5.839   7.262   8.661  2.2442 -0.1537  0.9016
  869MOL0     H19873   5.909   7.398   8.747 -1.0244 -1.9553 -0.3060
  869MOL0     H19874   5.898   7.526   8.538  4.2363 -0.1827  1.8048
  869MOL0     H19875   6.009   7.400   8.538  0.0706 -1.5248  0.8631
  869MOL0     H19876   5.803   7.260   8.405  0.0492 -0.6794 -0.1250
  869MOL0     H19877   5.750   7.422   8.397  0.0618 -1.6545 -3.1577
  869MOL0     H19878   5.976   7.474   8.307  0.5043  0.6289  0.3321
  869MOL0     H19879   6.020   7.301   8.311 -0.7564 -1.5126 -3.2175
  869MOL0     H19880   5.872   7.613   8.225  2.4573 -1.8378 -1.7644
  869MOL0     H19881   5.662   7.872   8.133  0.1690 -0.2750  1.3681
  869MOL0     H19882   5.821   7.890   8.059 -1.2532  3.3298  2.0168
  869MOL0     H19883   5.809   7.840   8.223 -1.2451  2.5939  0.3963
  869MOL0     H19884   5.276   7.806   7.898 -1.1523 -0.3665 -0.2898
  869MOL0     H19885   5.134   7.969   7.794  0.0481  2.2812 -0.0277
  869MOL0     H19886   5.038   8.107   7.619 -1.8201 -0.3909  2.7481
  869MOL0     H19887   5.059   8.201   7.764 -0.7138  1.1611  0.4923
  869MOL0     H19888   5.037   8.408   7.636 -1.1817 -1.0672  2.1153
  869MOL0     H19889   5.118   8.327   7.498 -0.2018 -0.4374  0.8661
  869MOL0     H19890   4.839   8.285   7.588 -1.0098 -0.9566  0.0351
  869MOL0     H19891   4.905   8.228   7.432  0.1907  0.7668 -0.1851
  869MOL0     H19892   4.947   8.458   7.375 -1.3226 -0.0781 -0.8757
  869MOL0     H19893   4.882   8.518   7.518  0.3054 -2.4036  2.5739
  869MOL0     H19894   4.737   8.364   7.293 -0.7835  0.0793 -0.6841
  869MOL0     H19895   4.646   8.409   7.443 -0.0262 -1.8329 -0.2078
  869MOL0     H19896   4.799   8.609   7.268  0.3515  0.3736 -1.4686
  869MOL0     H19897   4.693   8.654   7.396 -2.5467  2.3703 -1.8047
  869MOL0     H19898   4.595   8.513   7.149 -1.4706 -1.1561  0.5924
  869MOL0     H19899   4.578   8.684   7.184 -1.4000 -0.3157 -0.0568
  869MOL0     H19900   4.465   8.679   7.386 -0.4707  2.2320 -1.8131
  869MOL0     H19901   4.436   8.503   7.378 -1.5309  0.8460  1.5387
  869MOL0     H19902   5.483   8.184   7.679  0.1772 -0.9056  1.6735
  869MOL0     H19903   5.623   8.023   7.798  0.1100  2.1934  2.7881
  869MOL0     H19904   5.658   7.492   7.806 -1.4809 -1.6850  1.4583
  869MOL0     H19905   5.752   7.306   7.953  2.3457 -2.1702  2.5985
  869MOL0     H19906   4.916   7.327   9.335  1.4926  0.1147  2.2454
  869MOL0     H19907   4.881   7.233   9.550  1.0594  2.7945 -1.7236
  869MOL0     H19908   4.669   6.836   9.723 -1.2150 -0.0536 -0.2600
  869MOL0     H19909   4.641   6.685   9.910  1.8545  0.1395 -1.4232
  869MOL0     H19910   4.531   6.826  10.328  0.1028 -2.8768  1.6584
  869MOL0     H19911   4.394   6.844  10.210 -1.6299  0.8078  2.9690
  869MOL0     H19912   4.336   6.608  10.211 -0.2636  2.5283 -0.3608
  869MOL0     H19913   4.312   6.677  10.373 -0.1328  1.1292  0.2176
  869MOL0     H19914   4.579   6.553  10.316 -0.8544  3.9143 -1.1217
  869MOL0     H19915   4.500   6.596  10.470 -1.8086  0.8204  0.3321
  869MOL0     H19916   4.373   6.374  10.331  0.0519  2.0322 -1.3241
  869MOL0     H19917   4.369   6.425  10.501 -5.2145 -3.0307 -3.2666
  869MOL0     H19918   4.708   6.180  10.526  0.1408  0.3505  1.0823
  869MOL0     H19919   4.589   7.002  10.182 -1.3481  0.8097 -1.1793
  869MOL0     H19920   4.530   7.270   9.954  1.5263  0.3563 -1.7761
  869MOL0     H19921   4.554   7.218  10.124 -2.9745  0.9506 -0.9008
  869MOL0     H19922   4.692   7.244  10.009  0.2068 -2.0061 -3.6650
  870MOL0     O19923   9.257   3.062   7.211  0.7519 -0.2460  0.2632
  870MOL0     C19924   9.189   3.094   7.312  0.1356  0.7248  0.0567
  870MOL0     O19925   9.234   3.111   7.439 -0.6095 -0.4308 -0.4543
  870MOL0     C19926   9.361   3.085   7.485  0.3436  0.0507  0.5375
  870MOL0     C19927   9.366   3.041   7.619 -0.5011 -0.2981  0.1298
  870MOL0     C19928   9.489   2.988   7.670  0.0080  0.5197  0.0890
  870MOL0     C19929   9.606   3.003   7.602 -0.4571 -0.4701 -0.8105
  870MOL0     O19930   9.726   2.958   7.645 -0.6686 -0.4558  0.3279
  870MOL0     C19931   9.738   2.949   7.790  0.1382 -0.8054 -0.1719
  870MOL0     C19932   9.706   2.807   7.833  0.1650 -0.0757 -0.3968
  870MOL0     C19933   9.738   2.697   7.725  0.0377 -1.1153 -0.1977
  870MOL0     C19934   9.777   2.565   7.794  0.5743  0.6193  0.2262
  870MOL0     C19935   9.834   2.457   7.697  0.3199 -0.5735 -0.2343
  870MOL0     C19936   9.976   2.496   7.657  1.2289 -0.1126  0.7796
  870MOL0     C19937  10.007   2.440   7.519  0.1205 -0.0132 -0.4644
  870MOL0     C19938   9.962   2.513   7.405  0.8121 -0.5270 -0.1340
  870MOL0     N19939   9.977   2.430   7.285  0.0894  0.1487  0.0784
  870MOL0     C19940  10.080   2.462   7.198 -0.0257 -0.4557  0.0315
  870MOL0     C19941  10.039   2.388   7.087  0.8638 -1.1649  1.0819
  870MOL0     C19942  10.112   2.393   6.949  0.5935  0.1649 -0.8175
  870MOL0     C19943  10.240   2.303   6.969  0.5515 -0.6718 -0.5105
  870MOL0     C19944  10.327   2.307   6.831  0.4273 -0.5039 -0.5314
  870MOL0     C19945  10.475   2.294   6.866  0.4284  0.2854  0.3934
  870MOL0     O19946  10.561   2.333   6.758  0.0406 -0.1108  0.4049
  870MOL0     C19947  10.701   2.348   6.779 -0.3077  0.1406 -0.0368
  870MOL0     C19948  10.768   2.418   6.680 -0.6874  0.6777  0.1077
  870MOL0     C19949  10.908   2.436   6.684 -0.3272 -0.0934 -0.3029
  870MOL0     C19950  10.975   2.502   6.562  0.9242  0.2558  0.6229
  870MOL0     C19951  10.978   2.396   6.799 -0.3887  0.0314 -0.0068
  870MOL0     C19952  11.129   2.424   6.822  0.9157  0.0462 -0.3716
  870MOL0     O19953  11.164   2.560   6.808 -0.6505  0.5024 -0.1625
  870MOL0     C19954  11.296   2.571   6.819 -0.3462 -1.0909 -0.7988
  870MOL0     C19955  11.380   2.576   6.711 -0.8327  0.0424  0.5346
  870MOL0     C19956  11.524   2.583   6.725  0.0973  0.5919  0.9167
  870MOL0     C19957  11.584   2.577   6.855  0.4439  0.4246  0.8265
  870MOL0     O19958  11.722   2.592   6.864  0.0881 -0.2930 -0.3754
  870MOL0     C19959  11.788   2.624   6.992 -0.0518  0.4324  0.3339
  870MOL0     C19960  11.938   2.629   6.980 -0.1695  0.0423 -0.3766
  870MOL0     C19961  11.989   2.714   6.862 -0.8581  0.1661 -0.0261
  870MOL0     C19962  12.128   2.667   6.809 -0.2109  0.1434  0.0958
  870MOL0     C19963  12.180   2.756   6.698  0.2809  1.0863 -0.3392
  870MOL0     C19964  12.286   2.674   6.614 -0.2363 -0.2197 -0.1179
  870MOL0     C19965  12.419   2.644   6.695  1.1201  1.2207  0.2807
  870MOL0     C19966  12.539   2.730   6.665  0.3527 -0.9351 -0.4373
  870MOL0    Cl19967  12.686   2.660   6.738 -0.1755 -0.2337  0.0004
  870MOL0     C19968  11.496   2.569   6.966 -0.1363 -0.0910  0.0483
  870MOL0     C19969  11.361   2.580   6.950  0.9886 -0.8268  0.7406
  870MOL0     O19970  11.198   2.331   6.872  0.1834  0.2561 -0.1790
  870MOL0     C19971  10.903   2.348   6.901 -0.7826 -0.0464 -0.7697
  870MOL0     C19972  10.772   2.303   6.891  0.1685 -0.1867  0.2219
  870MOL0     N19973   9.909   2.342   7.100  0.7912  0.5836  0.0326
  870MOL0     N19974   9.878   2.366   7.227  0.5179 -0.5370  0.4408
  870MOL0     C19975   9.607   3.055   7.478  0.6139 -0.1540 -0.6114
  870MOL0     C19976   9.488   3.096   7.414 -0.0419  0.1148 -0.9984
  870MOL0     C19977   9.045   3.118   7.288  0.4612  0.0254 -0.1266
  870MOL0     C19978   8.968   3.021   7.232 -0.8171 -0.5393 -0.8806
  870MOL0     C19979   8.828   3.046   7.214 -0.7606  0.7342 -0.0880
  870MOL0     C19980   8.771   3.168   7.250 -0.5283  0.3744  0.2190
  870MOL0     O19981   8.636   3.179   7.225 -0.3199 -0.1038  0.4483
  870MOL0     C19982   8.562   3.202   7.341  0.1327  0.9739 -0.8643
  870MOL0     C19983   8.475   3.071   7.388 -0.5688 -0.7009 -0.1415
  870MOL0     C19984   8.365   3.039   7.278 -0.5075  0.0602  0.2454
  870MOL0     C19985   8.243   3.117   7.305  0.6417  0.9079 -0.3583
  870MOL0     C19986   8.136   3.052   7.236 -0.4299  0.4513 -0.0881
  870MOL0     C19987   8.046   2.992   7.177  0.5799 -0.6840 -0.2696
  870MOL0     C19988   8.847   3.281   7.294 -0.2930  0.8700 -0.6206
  870MOL0     C19989   8.985   3.253   7.316  0.1643  0.4578 -0.2633
  870MOL0     C19990   9.072   3.359   7.365  0.0254 -0.4603 -1.1028
  870MOL0     H19991   9.271   3.025   7.670  0.0550 -4.6172  0.2283
  870MOL0     H19992   9.475   2.953   7.772 -0.2351  0.9516  0.2072
  870MOL0     H19993   9.681   3.018   7.853  0.0033  0.8876 -2.0427
  870MOL0     H19994   9.841   2.975   7.817  0.6473  1.0356 -3.3171
  870MOL0     H19995   9.773   2.790   7.918  2.5535  1.0806 -1.9720
  870MOL0     H19996   9.598   2.793   7.849 -0.0536  0.9107 -0.9812
  870MOL0     H19997   9.655   2.688   7.655 -0.9480 -0.5631  0.8667
  870MOL0     H19998   9.823   2.738   7.670 -3.0801  0.5463 -4.2764
  870MOL0     H19999   9.845   2.591   7.876  0.4085  2.6136 -0.2333
  870MOL0     H20000   9.693   2.531   7.856  1.5980 -1.7509  0.4224
  870MOL0     H20001   9.761   2.442   7.617  1.8598  0.4618 -1.9144
  870MOL0     H20002   9.854   2.365   7.753  0.5138 -0.5679 -0.2912
  870MOL0     H20003   9.984   2.604   7.645  0.8434 -0.3686 -3.8460
  870MOL0     H20004  10.049   2.466   7.732 -0.0848  0.7309  2.4657
  870MOL0     H20005   9.971   2.337   7.525 -1.8936  0.6352 -0.8575
  870MOL0     H20006  10.115   2.431   7.504 -0.1035 -0.0260 -2.4317
  870MOL0     H20007   9.857   2.536   7.425  0.8884 -0.5617  0.3208
  870MOL0     H20008  10.021   2.602   7.383 -0.8384  0.1518 -2.1875
  870MOL0     H20009  10.168   2.524   7.212 -0.2929  0.0403 -0.4341
  870MOL0     H20010  10.150   2.495   6.936  1.7103 -0.1954 -0.5217
  870MOL0     H20011  10.045   2.371   6.865  0.5576  1.0266 -1.0224
  870MOL0     H20012  10.304   2.340   7.050  2.8134 -2.8108 -1.1780
  870MOL0     H20013  10.212   2.201   6.995 -1.7187 -0.0924 -0.4865
  870MOL0     H20014  10.296   2.223   6.769 -0.4017  0.3240 -1.2588
  870MOL0     H20015  10.297   2.403   6.787  0.0990 -0.0364  0.6501
  870MOL0     H20016  10.503   2.361   6.948 -0.6731  1.1708  0.0650
  870MOL0     H20017  10.485   2.193   6.907 -0.6916 -0.2607 -0.6049
  870MOL0     H20018  10.717   2.435   6.585  0.7878 -0.2425 -0.8855
  870MOL0     H20019  11.070   2.455   6.537  1.1297 -0.4136  2.4965
  870MOL0     H20020  10.985   2.607   6.591 -1.5176  0.7110  0.0346
  870MOL0     H20021  10.927   2.496   6.464  1.1090 -2.0483  0.6163
  870MOL0     H20022  11.345   2.577   6.608  4.1298 -0.2437 -1.4524
  870MOL0     H20023  11.577   2.589   6.631 -0.7185  1.9164  0.5181
  870MOL0     H20024  11.752   2.722   7.022  0.2842  0.8473 -0.5641
  870MOL0     H20025  11.745   2.553   7.063 -3.6666  0.1888 -1.8504
  870MOL0     H20026  11.991   2.658   7.072 -0.8192  1.1791 -0.3514
  870MOL0     H20027  11.964   2.525   6.956  0.4244  0.4808 -1.7340
  870MOL0     H20028  11.997   2.815   6.903  2.5351  0.5623 -1.3557
  870MOL0     H20029  11.918   2.719   6.780  0.5552 -1.6886 -1.4402
  870MOL0     H20030  12.138   2.562   6.781  1.6694  0.0312  1.0270
  870MOL0     H20031  12.191   2.700   6.892 -0.4370  0.9472 -0.0372
  870MOL0     H20032  12.101   2.777   6.625  0.2646 -0.9554 -0.9631
  870MOL0     H20033  12.224   2.849   6.735 -2.2826  1.7629  1.2653
  870MOL0     H20034  12.308   2.727   6.520 -0.1713  0.4897  0.2889
  870MOL0     H20035  12.239   2.581   6.582 -1.7100  1.0033 -1.7652
  870MOL0     H20036  12.459   2.546   6.668  0.7482  1.2414 -0.3700
  870MOL0     H20037  12.397   2.660   6.801 -0.4924 -0.3506  0.2217
  870MOL0     H20038  12.531   2.825   6.719 -1.0336 -0.9072 -0.6648
  870MOL0     H20039  12.550   2.756   6.559  0.8006  0.7335 -0.0196
  870MOL0     H20040  11.523   2.555   7.070  3.6386 -0.1255 -0.8061
  870MOL0     H20041  11.295   2.570   7.035 -2.0017  1.8300 -1.0398
  870MOL0     H20042  10.946   2.308   6.993 -0.8852 -0.4541 -0.8942
  870MOL0     H20043  10.722   2.243   6.966  0.4848  0.9934  1.4221
  870MOL0     H20044   9.695   3.061   7.414  0.6752  3.0231 -0.4298
  870MOL0     H20045   9.494   3.143   7.316 -1.0456  1.0580 -0.6269
  870MOL0     H20046   9.011   2.925   7.208  2.6164 -0.3967  3.3792
  870MOL0     H20047   8.770   2.958   7.189  1.3508 -0.1811 -2.2526
  870MOL0     H20048   8.632   3.228   7.421  2.3237  1.0395 -2.7046
  870MOL0     H20049   8.483   3.277   7.329  0.2499  1.2660  0.1190
  870MOL0     H20050   8.431   3.106   7.482 -1.2559 -0.2819 -0.6118
  870MOL0     H20051   8.547   2.992   7.413  3.5072  2.9977  1.2644
  870MOL0     H20052   8.403   3.060   7.178  1.1887  1.8614  1.1840
  870MOL0     H20053   8.347   2.933   7.300  0.8768 -0.6284 -1.6289
  870MOL0     H20054   8.249   3.223   7.277  1.6054  1.3832  1.5066
  870MOL0     H20055   8.219   3.117   7.411 -0.5381 -0.2702 -0.5989
  870MOL0     H20056   7.970   2.940   7.121  1.6261 -2.3369 -0.2204
  870MOL0     H20057   8.804   3.381   7.296  2.1941  2.0063 -0.2259
  870MOL0     H20058   9.174   3.354   7.326  0.6156  0.0886  0.3117
  870MOL0     H20059   9.025   3.455   7.342  2.0529  0.0571 -3.4850
  870MOL0     H20060   9.085   3.348   7.473 -2.3721  4.5815 -0.0112
  871MOL0     O20061   6.991   5.685   6.116 -0.8539 -0.0177 -0.8881
  871MOL0     C20062   7.076   5.732   6.196  0.8003 -0.6860  0.2518
  871MOL0     O20063   7.212   5.721   6.176 -0.5411  0.1753  0.6686
  871MOL0     C20064   7.256   5.598   6.139 -1.1803 -0.5283  1.2576
  871MOL0     C20065   7.378   5.596   6.068 -0.9279 -0.4057  0.5846
  871MOL0     C20066   7.445   5.485   6.030 -0.7020  0.1320  0.6377
  871MOL0     C20067   7.386   5.355   6.049  0.2146  0.0622 -0.4666
  871MOL0     O20068   7.440   5.246   5.984 -0.2574  0.2625  0.0750
  871MOL0     C20069   7.418   5.120   6.054 -0.6097 -0.7144 -0.3968
  871MOL0     C20070   7.526   5.016   6.000 -0.4100 -0.1065 -0.4282
  871MOL0     C20071   7.517   4.871   6.055 -0.1364  0.2168  0.5767
  871MOL0     C20072   7.652   4.799   6.034  0.7675  0.8585 -0.1246
  871MOL0     C20073   7.644   4.657   6.060 -0.1921 -0.6724  0.3379
  871MOL0     C20074   7.725   4.571   5.963  0.7560 -0.2426  0.1447
  871MOL0     C20075   7.670   4.422   5.956 -0.2271  0.4253 -0.2801
  871MOL0     C20076   7.714   4.371   5.826 -0.1336  0.1641  0.4523
  871MOL0     N20077   7.665   4.235   5.806  1.1671  0.0901  0.0090
  871MOL0     C20078   7.585   4.184   5.706 -0.6336  0.1291 -0.0080
  871MOL0     C20079   7.588   4.046   5.723  0.0672  0.1589 -0.2220
  871MOL0     C20080   7.505   3.936   5.655 -0.5529 -0.3203 -0.1250
  871MOL0     C20081   7.372   3.922   5.725  0.2843  0.0420 -0.3638
  871MOL0     C20082   7.286   3.803   5.675  0.4551 -0.2948 -0.1052
  871MOL0     C20083   7.229   3.844   5.543  0.0313 -0.2343 -0.7390
  871MOL0     O20084   7.105   3.771   5.514  0.4609 -0.1377  1.1627
  871MOL0     C20085   7.115   3.635   5.500 -0.0113 -0.3140  1.1171
  871MOL0     C20086   7.056   3.553   5.587  0.9530  0.4988  1.0575
  871MOL0     C20087   7.051   3.420   5.556 -1.3176 -0.4580 -0.2044
  871MOL0     C20088   6.998   3.326   5.659  0.2598  0.3983 -0.2169
  871MOL0     C20089   7.108   3.366   5.435 -0.6087 -0.7953 -0.8127
  871MOL0     C20090   7.103   3.227   5.390  0.4081  0.9105 -0.2750
  871MOL0     O20091   7.107   3.214   5.247 -0.0875  0.4874 -0.4004
  871MOL0     C20092   7.146   3.092   5.212 -0.8206  0.9975 -0.1843
  871MOL0     C20093   7.055   2.999   5.162 -0.5205 -0.3684 -0.6573
  871MOL0     C20094   7.103   2.877   5.114 -0.5418  0.2373  0.5149
  871MOL0     C20095   7.245   2.846   5.116 -0.4788 -0.8674 -0.6223
  871MOL0     O20096   7.288   2.733   5.056  0.0719 -0.3767  0.3510
  871MOL0     C20097   7.370   2.644   5.131  0.3339  0.1756  0.4144
  871MOL0     C20098   7.423   2.527   5.044  0.8935 -0.4123 -0.3760
  871MOL0     C20099   7.537   2.567   4.959 -0.3709 -1.7189  0.7837
  871MOL0     C20100   7.669   2.487   4.963  0.8818 -0.4399 -0.9088
  871MOL0     C20101   7.659   2.356   4.877 -0.6246  0.6340  0.1180
  871MOL0     C20102   7.782   2.260   4.921 -0.2216  0.2479 -0.7022
  871MOL0     C20103   7.738   2.114   4.908 -0.7689 -0.1666  0.0953
  871MOL0     C20104   7.640   2.085   5.018 -0.3004 -0.9061  0.5475
  871MOL0    Cl20105   7.717   2.067   5.183 -0.4465  0.0598  0.3008
  871MOL0     C20106   7.334   2.944   5.159  1.4034 -0.1617  0.0629
  871MOL0     C20107   7.281   3.064   5.211  0.0249 -0.0452 -0.2222
  871MOL0     O20108   7.098   3.130   5.469 -0.2007 -1.1446 -0.4540
  871MOL0     C20109   7.174   3.461   5.350 -0.3666  0.3849 -1.5885
  871MOL0     C20110   7.177   3.597   5.380  0.3390  0.5621  0.4205
  871MOL0     N20111   7.674   4.028   5.825  0.2869  0.6723  0.2969
  871MOL0     N20112   7.716   4.138   5.873 -0.1356 -0.1358 -0.8800
  871MOL0     C20113   7.272   5.349   6.126  0.7570  0.3166 -0.4512
  871MOL0     C20114   7.202   5.473   6.166  0.8747  0.1910 -0.0390
  871MOL0     C20115   7.024   5.832   6.294  0.3586 -0.0398  0.3988
  871MOL0     C20116   7.110   5.921   6.348 -0.7049  0.4058 -0.4831
  871MOL0     C20117   7.078   6.005   6.455 -1.2904 -0.2431 -0.1212
  871MOL0     C20118   6.945   6.009   6.501  0.1375 -0.7580 -0.4727
  871MOL0     O20119   6.909   6.105   6.601  0.4969 -0.0042  0.6498
  871MOL0     C20120   6.987   6.097   6.724  0.3009  0.1375  1.2226
  871MOL0     C20121   6.955   5.969   6.801  0.1410  0.3540 -0.1127
  871MOL0     C20122   6.849   5.984   6.911 -0.3739  0.1225  0.7662
  871MOL0     C20123   6.910   6.019   7.039  0.1142 -0.2200 -0.0551
  871MOL0     C20124   6.813   6.061   7.142 -0.5613  0.4705  0.3663
  871MOL0     C20125   6.740   6.084   7.236  0.0336  0.8890  0.5030
  871MOL0     C20126   6.849   5.930   6.432 -0.2453 -0.4261  0.1635
  871MOL0     C20127   6.887   5.833   6.331 -1.0461  0.6384 -0.8777
  871MOL0     C20128   6.780   5.735   6.275  0.4739 -0.0867  0.1228
  871MOL0     H20129   7.425   5.693   6.053  0.8402 -1.2202  0.6440
  871MOL0     H20130   7.538   5.505   5.977  0.8802  0.0656  3.1990
  871MOL0     H20131   7.314   5.086   6.049 -0.9995  0.5034 -0.8006
  871MOL0     H20132   7.431   5.132   6.162  2.8758  2.0843 -0.9544
  871MOL0     H20133   7.519   5.005   5.892 -0.0111 -0.0873 -0.4557
  871MOL0     H20134   7.627   5.046   6.030 -0.0923 -3.5020  2.6562
  871MOL0     H20135   7.493   4.876   6.161  0.9687  1.7441  0.8049
  871MOL0     H20136   7.436   4.829   5.996 -0.6804 -0.7016  1.9383
  871MOL0     H20137   7.672   4.825   5.930 -1.2723 -1.0083 -1.0789
  871MOL0     H20138   7.722   4.840   6.107 -0.5566  2.4303  0.3238
  871MOL0     H20139   7.536   4.638   6.058 -0.2416 -0.4372  0.7187
  871MOL0     H20140   7.685   4.650   6.161 -0.9465  2.1371  0.9281
  871MOL0     H20141   7.709   4.622   5.867 -1.9372 -0.1796  0.5367
  871MOL0     H20142   7.830   4.570   5.990  0.7828  0.2896  0.0763
  871MOL0     H20143   7.561   4.414   5.956 -0.1159 -1.7599  1.1756
  871MOL0     H20144   7.713   4.364   6.038 -0.3963 -2.0275 -1.8074
  871MOL0     H20145   7.678   4.439   5.748 -1.0875 -3.1099 -2.1789
  871MOL0     H20146   7.823   4.374   5.812 -0.2240  0.4728 -0.2215
  871MOL0     H20147   7.522   4.244   5.642  1.0478 -1.0990 -3.0193
  871MOL0     H20148   7.558   3.841   5.665 -4.0177 -2.3950 -0.0524
  871MOL0     H20149   7.503   3.960   5.548 -2.3142 -0.0155 -0.0462
  871MOL0     H20150   7.397   3.900   5.829  0.3955  1.2936 -0.1079
  871MOL0     H20151   7.317   4.016   5.735 -0.0079 -0.0889 -0.7020
  871MOL0     H20152   7.344   3.710   5.665 -1.3233 -1.3663 -1.0048
  871MOL0     H20153   7.206   3.799   5.749 -0.3790 -0.3659 -0.9985
  871MOL0     H20154   7.214   3.952   5.549 -1.6378 -0.5129  3.5366
  871MOL0     H20155   7.310   3.831   5.470 -0.3993 -0.8941 -1.1117
  871MOL0     H20156   7.019   3.586   5.684 -0.6952  1.6744  0.0811
  871MOL0     H20157   7.078   3.257   5.688  1.6893  1.4906 -1.3554
  871MOL0     H20158   6.918   3.266   5.614 -1.6081  0.3556  2.8380
  871MOL0     H20159   6.953   3.379   5.744  3.1189  0.3317  1.4753
  871MOL0     H20160   6.952   3.033   5.174 -0.2167  0.2974  0.1403
  871MOL0     H20161   7.037   2.800   5.075  3.0139 -3.2804  0.8320
  871MOL0     H20162   7.461   2.699   5.157 -0.5246  0.7938  2.3278
  871MOL0     H20163   7.326   2.614   5.227 -0.0163 -0.2594  0.1230
  871MOL0     H20164   7.449   2.453   5.119  0.1633  1.6326  2.0309
  871MOL0     H20165   7.352   2.472   4.981 -1.4675  0.2874  1.5166
  871MOL0     H20166   7.573   2.663   4.998 -1.1067  0.3336 -3.0588
  871MOL0     H20167   7.499   2.589   4.858 -0.8441  2.2837  1.6598
  871MOL0     H20168   7.695   2.451   5.063 -0.6333 -2.6105 -1.2142
  871MOL0     H20169   7.753   2.539   4.917  0.0530 -0.6389 -2.7181
  871MOL0     H20170   7.557   2.317   4.879 -1.3884  2.4889  2.8360
  871MOL0     H20171   7.679   2.389   4.774  0.2869 -0.1517  0.0234
  871MOL0     H20172   7.806   2.265   5.028 -0.2729 -2.3313 -0.4975
  871MOL0     H20173   7.875   2.273   4.864 -0.1969  0.0091 -0.7159
  871MOL0     H20174   7.814   2.038   4.925 -0.1425  0.0025 -1.7444
  871MOL0     H20175   7.700   2.092   4.808  1.2297  0.2465 -0.8083
  871MOL0     H20176   7.597   1.987   4.997 -0.0557 -1.1232  1.0453
  871MOL0     H20177   7.563   2.163   5.015  2.4570  2.1486  2.5369
  871MOL0     H20178   7.442   2.941   5.170  1.1602 -1.3510  2.8397
  871MOL0     H20179   7.343   3.152   5.224 -1.8546  1.8879 -3.1972
  871MOL0     H20180   7.237   3.423   5.270  3.0205 -0.6642  1.3045
  871MOL0     H20181   7.222   3.672   5.316  2.4290 -0.4035  0.6506
  871MOL0     H20182   7.226   5.253   6.146  0.6627  0.5715  0.6153
  871MOL0     H20183   7.104   5.451   6.209 -0.0129  2.6110 -0.6817
  871MOL0     H20184   7.213   5.935   6.315  0.4157  0.8972  2.7480
  871MOL0     H20185   7.154   6.076   6.485 -2.0296  0.4067  0.2820
  871MOL0     H20186   7.093   6.109   6.699  1.0156 -1.2220  3.3897
  871MOL0     H20187   6.962   6.185   6.785  1.0517  1.1346  0.1448
  871MOL0     H20188   7.048   5.927   6.839 -0.9760 -0.9193  1.3939
  871MOL0     H20189   6.922   5.884   6.742  0.3331 -0.4871  0.9626
  871MOL0     H20190   6.785   6.063   6.870  2.8028  1.5734 -1.7880
  871MOL0     H20191   6.786   5.896   6.931 -1.7209  0.4541 -1.6740
  871MOL0     H20192   6.980   6.099   7.014 -0.1905  0.4528  1.1863
  871MOL0     H20193   6.969   5.938   7.083  3.4432  3.0518  2.0616
  871MOL0     H20194   6.673   6.088   7.320 -1.2555 -0.9067 -0.3664
  871MOL0     H20195   6.748   5.931   6.471 -0.1279 -1.3958  0.5110
  871MOL0     H20196   6.798   5.627   6.276  0.8645 -0.0297 -0.2799
  871MOL0     H20197   6.688   5.763   6.328  1.3738  3.4227  0.0660
  871MOL0     H20198   6.744   5.761   6.175 -1.6702  0.3976  0.9479
  872MOL0     O20199   7.799   4.278   7.094 -0.0374 -0.5367  0.5673
  872MOL0     C20200   7.835   4.291   7.207 -1.0895 -0.1875  0.3433
  872MOL0     O20201   7.940   4.369   7.249 -0.8412 -0.0595  0.0016
  872MOL0     C20202   8.029   4.436   7.159  0.0243  1.0822 -0.4963
  872MOL0     C20203   8.152   4.471   7.206  0.4055  0.0727 -0.0919
  872MOL0     C20204   8.246   4.528   7.119  0.9088 -0.3332 -0.6251
  872MOL0     C20205   8.218   4.564   6.984  0.2735  0.6447  0.5399
  872MOL0     O20206   8.310   4.628   6.894  0.0114  0.1395  0.1782
  872MOL0     C20207   8.448   4.632   6.925 -0.6895 -0.1733  0.4865
  872MOL0     C20208   8.475   4.768   6.979  0.3317 -0.3497  0.5309
  872MOL0     C20209   8.615   4.790   7.051  0.7161 -0.2214  0.5222
  872MOL0     C20210   8.648   4.694   7.163 -0.8812  0.1248  0.3752
  872MOL0     C20211   8.782   4.740   7.228 -0.8640  0.0783  0.5980
  872MOL0     C20212   8.801   4.664   7.365 -0.3765 -0.6084 -0.9613
  872MOL0     C20213   8.945   4.644   7.396 -0.4343  0.8563 -0.1735
  872MOL0     C20214   8.962   4.605   7.537 -0.3528 -0.5445  0.5336
  872MOL0     N20215   8.974   4.729   7.623  0.0993 -1.3687 -0.2233
  872MOL0     C20216   9.087   4.808   7.630  0.3049  0.0061  0.0907
  872MOL0     C20217   9.060   4.902   7.722  0.0853 -0.5811 -1.0188
  872MOL0     C20218   9.154   4.997   7.784  0.0994 -1.1006 -0.3418
  872MOL0     C20219   9.294   4.948   7.835  0.3064 -0.0602  0.3115
  872MOL0     C20220   9.399   5.064   7.842  1.1146 -0.3559 -0.3144
  872MOL0     C20221   9.393   5.168   7.963  0.1098  0.3839  0.3456
  872MOL0     O20222   9.263   5.227   7.956 -0.5850 -0.0334  0.1595
  872MOL0     C20223   9.254   5.366   7.970 -1.1901  0.2209 -0.3740
  872MOL0     C20224   9.157   5.434   7.899  0.0425  0.4356 -0.0367
  872MOL0     C20225   9.149   5.573   7.908  0.0216  0.1365 -0.6572
  872MOL0     C20226   9.046   5.625   7.813 -0.3992  0.2513 -0.0490
  872MOL0     C20227   9.230   5.651   8.003  0.2110  0.6567 -0.0585
  872MOL0     C20228   9.214   5.790   8.023 -0.2646  0.3358  0.7028
  872MOL0     O20229   9.113   5.846   7.961 -0.2211 -0.4275 -0.5771
  872MOL0     C20230   9.072   5.974   7.971  0.0307  0.2377 -0.3647
  872MOL0     C20231   8.969   6.007   7.883  0.3492  0.4769 -0.1532
  872MOL0     C20232   8.926   6.136   7.874 -0.1579 -0.1723 -0.8643
  872MOL0     C20233   8.972   6.228   7.970 -0.3218  0.5423 -0.9614
  872MOL0     O20234   8.933   6.357   7.987  0.1780  0.2692 -0.4578
  872MOL0     C20235   8.894   6.418   7.870 -0.3149 -1.4200 -0.6803
  872MOL0     C20236   8.935   6.564   7.880  0.2895 -0.1823  1.5719
  872MOL0     C20237   8.899   6.649   7.766 -0.6092 -0.1325 -0.5463
  872MOL0     C20238   8.905   6.793   7.822  0.3143  0.3697  1.6508
  872MOL0     C20239   8.904   6.895   7.700 -0.7463 -0.2935 -0.5227
  872MOL0     C20240   8.790   6.893   7.602 -0.4789 -0.5587 -0.4393
  872MOL0     C20241   8.651   6.915   7.664  0.5346  0.8364 -0.2575
  872MOL0     C20242   8.558   6.805   7.617  0.3902  0.5336 -0.4787
  872MOL0    Cl20243   8.411   6.817   7.721  0.1807 -0.1513  0.1552
  872MOL0     C20244   9.052   6.183   8.074 -0.4397 -0.2545  0.4478
  872MOL0     C20245   9.111   6.066   8.071  0.5031  0.5315  0.2032
  872MOL0     O20246   9.292   5.847   8.097  0.0373 -0.5405  0.5355
  872MOL0     C20247   9.325   5.583   8.080  0.5225  0.0386 -0.0365
  872MOL0     C20248   9.341   5.444   8.061  0.4431 -0.4723  0.2604
  872MOL0     N20249   8.926   4.902   7.753 -0.5225 -0.3808  0.4617
  872MOL0     N20250   8.874   4.795   7.692  0.6027 -0.5669 -0.3892
  872MOL0     C20251   8.087   4.531   6.937 -0.3738 -0.8386 -0.1995
  872MOL0     C20252   7.994   4.474   7.024  0.3235 -0.5289  0.0246
  872MOL0     C20253   7.751   4.228   7.309 -0.5870  0.6528 -0.2721
  872MOL0     C20254   7.620   4.208   7.270 -0.7416  0.5958  0.2183
  872MOL0     C20255   7.529   4.138   7.351  0.0238 -1.0825  0.1652
  872MOL0     C20256   7.556   4.107   7.482 -0.5953  0.2260 -0.2126
  872MOL0     O20257   7.460   4.028   7.547 -0.6349  0.8511  0.3503
  872MOL0     C20258   7.474   3.984   7.683 -0.1074 -0.2651 -0.4256
  872MOL0     C20259   7.464   4.106   7.778  0.5549 -1.1272 -0.6133
  872MOL0     C20260   7.504   4.078   7.928  0.0018  0.2292 -0.0512
  872MOL0     C20261   7.410   3.985   8.005  0.0123 -0.1546 -0.0404
  872MOL0     C20262   7.268   4.031   7.984 -0.4072 -0.4966 -1.0399
  872MOL0     C20263   7.160   4.072   7.944 -0.6904 -0.2750  1.1530
  872MOL0     C20264   7.686   4.148   7.527 -0.8784 -0.4127 -0.1508
  872MOL0     C20265   7.780   4.203   7.440  0.5357 -0.2207  0.0970
  872MOL0     C20266   7.906   4.227   7.503 -0.3100 -0.3813  0.6317
  872MOL0     H20267   8.171   4.460   7.312  0.4198 -2.5432 -0.3087
  872MOL0     H20268   8.341   4.557   7.163  1.3487  1.0745 -2.3806
  872MOL0     H20269   8.503   4.598   6.837 -0.9322  1.5831 -0.3783
  872MOL0     H20270   8.467   4.559   7.004 -1.5372  0.4986  1.3447
  872MOL0     H20271   8.474   4.834   6.892 -0.0321 -0.0198  0.7849
  872MOL0     H20272   8.394   4.803   7.043 -0.7695 -0.4590 -0.7675
  872MOL0     H20273   8.698   4.775   6.981  0.9270 -2.7863  1.2387
  872MOL0     H20274   8.627   4.893   7.087 -0.8437  0.0997  0.2040
  872MOL0     H20275   8.577   4.699   7.246 -1.0034  0.6708  0.2381
  872MOL0     H20276   8.664   4.587   7.145  4.0108  0.2946  2.2768
  872MOL0     H20277   8.780   4.849   7.227  1.1965  0.2971 -3.5724
  872MOL0     H20278   8.858   4.702   7.159 -0.9438 -2.5295  1.8542
  872MOL0     H20279   8.758   4.723   7.446 -0.3123 -1.3966 -0.3355
  872MOL0     H20280   8.750   4.567   7.367  0.1381 -0.9298  2.2475
  872MOL0     H20281   9.006   4.732   7.376 -1.1930  1.2556 -0.7442
  872MOL0     H20282   8.986   4.561   7.338 -2.4504 -0.8875  0.7494
  872MOL0     H20283   8.877   4.548   7.575 -1.2634 -0.2070 -0.9215
  872MOL0     H20284   9.053   4.546   7.554  0.3645  0.1101 -0.8560
  872MOL0     H20285   9.177   4.790   7.572 -0.8333 -1.3147 -1.3561
  872MOL0     H20286   9.106   5.047   7.868 -0.8909  1.3492 -2.2363
  872MOL0     H20287   9.174   5.071   7.706 -4.7158  0.5184 -0.3378
  872MOL0     H20288   9.282   4.904   7.935 -1.4067  0.0259  0.1685
  872MOL0     H20289   9.335   4.882   7.758 -2.3692 -1.6004  0.0882
  872MOL0     H20290   9.503   5.031   7.848  1.1649 -0.3055 -0.8584
  872MOL0     H20291   9.388   5.115   7.745  0.8228 -2.6582 -1.5454
  872MOL0     H20292   9.393   5.112   8.057  2.5272  0.5306  0.4896
  872MOL0     H20293   9.482   5.232   7.961 -0.2333  0.8649 -1.7283
  872MOL0     H20294   9.099   5.368   7.836  0.7177 -0.2350  0.0334
  872MOL0     H20295   9.029   5.555   7.731 -0.4640 -2.8481  2.4153
  872MOL0     H20296   9.082   5.718   7.770  0.6936 -0.6072 -1.0546
  872MOL0     H20297   8.945   5.635   7.854 -2.1327 -1.5358 -3.4403
  872MOL0     H20298   8.950   5.943   7.798  1.6593  1.1408 -0.9792
  872MOL0     H20299   8.871   6.167   7.786 -0.7901 -0.4247 -0.5647
  872MOL0     H20300   8.944   6.384   7.779  1.6870 -3.7949  1.1709
  872MOL0     H20301   8.789   6.388   7.862 -0.8420 -0.9914  3.0055
  872MOL0     H20302   8.886   6.606   7.969  1.4205 -3.9992  4.2124
  872MOL0     H20303   9.043   6.567   7.895  0.5757 -0.3375 -0.3101
  872MOL0     H20304   8.796   6.622   7.742 -0.2835 -1.0011 -1.0382
  872MOL0     H20305   8.957   6.625   7.676 -2.5907 -3.4004 -1.1250
  872MOL0     H20306   8.996   6.804   7.883  0.8111 -1.2686  1.2525
  872MOL0     H20307   8.821   6.818   7.888 -0.0422  3.7682  0.0920
  872MOL0     H20308   8.918   6.995   7.740  4.0485 -1.6613  2.1014
  872MOL0     H20309   8.992   6.861   7.643 -1.0998  1.8780 -2.5031
  872MOL0     H20310   8.797   6.793   7.558 -1.8330 -0.0093 -2.0247
  872MOL0     H20311   8.798   6.966   7.520 -0.4186  0.0277  0.0796
  872MOL0     H20312   8.603   7.009   7.634 -0.3603  0.4003 -0.2024
  872MOL0     H20313   8.656   6.922   7.773 -0.6376 -0.6795 -0.0775
  872MOL0     H20314   8.589   6.701   7.633 -0.1678  0.5517  0.8524
  872MOL0     H20315   8.525   6.817   7.513  0.2870  0.2245 -0.4804
  872MOL0     H20316   9.074   6.256   8.152  1.2598 -2.4304  2.1222
  872MOL0     H20317   9.178   6.042   8.153 -0.2006  0.2341  0.7002
  872MOL0     H20318   9.383   5.628   8.161 -1.9548  1.8309  0.8686
  872MOL0     H20319   9.424   5.394   8.111  0.1703  0.4388  1.6784
  872MOL0     H20320   8.054   4.543   6.834  2.1939  0.9873 -0.8776
  872MOL0     H20321   7.896   4.450   6.986  1.3362 -0.3917 -2.9240
  872MOL0     H20322   7.582   4.230   7.171  0.5186 -2.3095 -1.0344
  872MOL0     H20323   7.436   4.108   7.303  0.2642  2.2273 -2.8467
  872MOL0     H20324   7.408   3.904   7.717 -0.4419  0.1082 -0.1856
  872MOL0     H20325   7.571   3.936   7.700  0.5186  0.2568 -2.3137
  872MOL0     H20326   7.362   4.145   7.771  1.0177  0.6725  1.5663
  872MOL0     H20327   7.536   4.182   7.746  0.3569 -1.3482 -1.6363
  872MOL0     H20328   7.609   4.051   7.942 -0.2580 -0.4644  0.6332
  872MOL0     H20329   7.494   4.180   7.966 -0.6319  0.9816 -2.1053
  872MOL0     H20330   7.431   3.995   8.112  0.9645 -1.4549 -0.0748
  872MOL0     H20331   7.418   3.879   7.979 -2.9102 -0.8160  1.3425
  872MOL0     H20332   7.059   4.083   7.910 -0.3182  1.0720  0.3812
  872MOL0     H20333   7.720   4.134   7.629  0.5660  1.1958 -0.3612
  872MOL0     H20334   7.906   4.170   7.596 -1.6857  0.2757  1.0648
  872MOL0     H20335   7.988   4.189   7.442 -0.2626 -0.6363  0.8506
  872MOL0     H20336   7.929   4.332   7.525 -0.0614 -0.2775 -0.0942
  873MOL0     O20337   4.087  10.209   6.464  0.1797 -0.2484 -0.2213
  873MOL0     C20338   4.096  10.137   6.362  0.3396 -0.0341 -0.6059
  873MOL0     O20339   4.117  10.180   6.234  0.0135 -1.0214 -0.4198
  873MOL0     C20340   4.072  10.312   6.206 -0.7998  0.5812  0.0308
  873MOL0     C20341   3.952  10.335   6.154  0.6736 -0.2167 -0.0189
  873MOL0     C20342   3.905  10.463   6.120 -0.4165 -0.5443  0.0311
  873MOL0     C20343   3.982  10.571   6.154  0.5062 -0.6403  1.2098
  873MOL0     O20344   3.925  10.691   6.118  0.1745 -0.4362  0.1364
  873MOL0     C20345   3.964  10.798   6.203  0.0500  0.5760 -0.1548
  873MOL0     C20346   4.028  10.901   6.121 -0.1326 -0.7722  0.1965
  873MOL0     C20347   4.089  11.029   6.185 -0.2060 -0.6341  0.0715
  873MOL0     C20348   4.144  11.131   6.074 -0.4207  0.1110  0.6574
  873MOL0     C20349   4.031  11.229   6.038 -0.0384  0.4386 -0.3221
  873MOL0     C20350   4.085  11.363   5.979  0.4948 -0.0889 -0.0247
  873MOL0     C20351   4.093  11.348   5.824 -1.3834  0.4620 -0.1661
  873MOL0     C20352   4.138  11.482   5.767  1.2792  0.0211  0.0315
  873MOL0     N20353   4.103  11.495   5.618 -0.0305 -1.1241  0.4517
  873MOL0     C20354   4.192  11.540   5.521 -0.3856 -0.8700 -0.0582
  873MOL0     C20355   4.122  11.550   5.408  0.5577  0.4339 -0.8037
  873MOL0     C20356   4.179  11.600   5.277  0.0632  0.2838 -0.6494
  873MOL0     C20357   4.074  11.645   5.174  0.3208 -0.5267 -0.2192
  873MOL0     C20358   3.984  11.759   5.234  0.0060 -0.5621  0.1770
  873MOL0     C20359   3.906  11.818   5.119  0.4400 -0.3611  0.3730
  873MOL0     O20360   3.988  11.924   5.078 -0.8172 -0.2317 -0.4224
  873MOL0     C20361   3.971  11.961   4.946 -0.4856 -0.1822  0.4411
  873MOL0     C20362   4.054  12.072   4.917  0.0992 -0.3154  0.7060
  873MOL0     C20363   4.053  12.133   4.788  0.7237 -0.0520 -0.1620
  873MOL0     C20364   4.157  12.233   4.746 -0.5842  0.9272 -0.0054
  873MOL0     C20365   3.964  12.084   4.696  0.2335 -1.0680  0.4768
  873MOL0     C20366   3.943  12.152   4.557  0.5205 -1.3825 -0.7268
  873MOL0     O20367   3.853  12.092   4.474 -0.6022 -0.1007  0.0515
  873MOL0     C20368   3.809  12.135   4.348 -0.3767 -0.5729  0.4465
  873MOL0     C20369   3.735  12.045   4.277  0.4160 -0.3429 -0.2667
  873MOL0     C20370   3.701  12.080   4.144  0.1230  0.9520  0.0478
  873MOL0     C20371   3.735  12.204   4.083  0.3558  0.8253  1.0231
  873MOL0     O20372   3.702  12.222   3.950 -1.1530  0.2554  0.4080
  873MOL0     C20373   3.731  12.352   3.892  0.4397  0.6092 -0.5371
  873MOL0     C20374   3.679  12.357   3.746 -0.5252 -0.6507  0.3974
  873MOL0     C20375   3.743  12.249   3.657 -0.2264 -0.1228  0.8784
  873MOL0     C20376   3.739  12.293   3.507  0.1047 -0.2404  0.3225
  873MOL0     C20377   3.829  12.212   3.403  0.7844 -0.5476  0.3208
  873MOL0     C20378   3.787  12.227   3.255  0.0259  0.9794  0.7342
  873MOL0     C20379   3.717  12.104   3.201  0.1568  0.8193 -1.0490
  873MOL0     C20380   3.585  12.072   3.273  0.5125 -0.3175 -0.5754
  873MOL0    Cl20381   3.584  11.892   3.261  0.0291  0.2622 -0.1833
  873MOL0     C20382   3.804  12.294   4.165  0.0986  0.6524  0.1036
  873MOL0     C20383   3.830  12.266   4.297 -0.6713  0.0524  0.4027
  873MOL0     O20384   4.005  12.244   4.523  0.0153  0.0521  0.6615
  873MOL0     C20385   3.877  11.976   4.727 -0.3553 -0.1693 -0.0242
  873MOL0     C20386   3.883  11.913   4.850  0.5886 -0.5933  0.1945
  873MOL0     N20387   3.994  11.506   5.435  0.2945  0.2853 -0.9279
  873MOL0     N20388   3.985  11.464   5.554  0.3299  0.3667  0.1240
  873MOL0     C20389   4.105  10.548   6.217 -0.3473  0.2823  0.0516
  873MOL0     C20390   4.160  10.419   6.237  0.3117  1.3018 -0.0487
  873MOL0     C20391   4.092   9.993   6.384 -0.9840  1.1449 -0.0142
  873MOL0     C20392   4.011   9.921   6.289  0.2418  0.2038  0.1797
  873MOL0     C20393   4.019   9.786   6.291  1.5270 -1.0595  0.1625
  873MOL0     C20394   4.068   9.717   6.400  0.4417  0.1531 -1.0524
  873MOL0     O20395   4.062   9.579   6.418  0.6517  0.4780 -0.5647
  873MOL0     C20396   4.084   9.488   6.308  0.2670  0.1358  1.0283
  873MOL0     C20397   4.052   9.355   6.377  0.5855  0.5666  0.1629
  873MOL0     C20398   4.173   9.304   6.449  0.1519  1.2520 -0.9652
  873MOL0     C20399   4.171   9.148   6.468 -0.3814 -0.2728 -0.1848
  873MOL0     C20400   4.302   9.085   6.475  0.0873  0.5180  0.3370
  873MOL0     C20401   4.413   9.044   6.497 -0.6031  0.2186  0.3673
  873MOL0     C20402   4.130   9.783   6.505 -1.2678  0.1336  0.2875
  873MOL0     C20403   4.150   9.925   6.496  1.3597 -0.0548  0.1489
  873MOL0     C20404   4.223   9.982   6.609  0.2427 -0.2857 -0.6144
  873MOL0     H20405   3.891  10.249   6.128  2.4416 -1.3609 -0.5646
  873MOL0     H20406   3.802  10.474   6.086 -0.9841  1.3471  2.1096
  873MOL0     H20407   4.029  10.783   6.290  0.7663  0.0760 -0.7610
  873MOL0     H20408   3.883  10.849   6.256  0.2200  2.1677 -1.3377
  873MOL0     H20409   4.100  10.860   6.049  0.7522  0.0528  0.5821
  873MOL0     H20410   3.954  10.936   6.049  1.2162 -1.1887 -1.4577
  873MOL0     H20411   4.018  11.076   6.254 -0.5191 -2.5574  1.1288
  873MOL0     H20412   4.174  10.989   6.242 -0.1586 -2.7169 -1.3659
  873MOL0     H20413   4.234  11.181   6.111 -1.0062  0.7446  1.2512
  873MOL0     H20414   4.180  11.081   5.983 -1.3063 -0.8761  0.8238
  873MOL0     H20415   3.972  11.257   6.125  0.1129  0.0017 -0.0729
  873MOL0     H20416   3.951  11.193   5.973  0.6937 -1.7276 -0.1203
  873MOL0     H20417   4.010  11.438   6.003  1.2509  0.6307  0.1386
  873MOL0     H20418   4.179  11.391   6.028  0.7220 -0.4369 -0.2598
  873MOL0     H20419   3.994  11.326   5.784 -0.8452 -1.3605 -0.6371
  873MOL0     H20420   4.157  11.263   5.797  0.6896  2.8215 -3.5821
  873MOL0     H20421   4.105  11.560   5.836 -2.9020 -3.5903  2.6227
  873MOL0     H20422   4.246  11.494   5.771  1.1223  1.2965  2.5870
  873MOL0     H20423   4.297  11.567   5.527 -1.1336  2.6804 -0.3198
  873MOL0     H20424   4.261  11.535   5.247 -0.4719 -0.8038  0.1918
  873MOL0     H20425   4.219  11.695   5.315 -2.6487  0.7990  1.2375
  873MOL0     H20426   4.126  11.682   5.085 -0.6377  1.9062  0.1522
  873MOL0     H20427   4.013  11.557   5.148 -1.0482  0.5675 -0.8774
  873MOL0     H20428   3.912  11.717   5.305 -3.5065  0.5860 -2.3884
  873MOL0     H20429   4.036  11.845   5.277  1.2385  0.3998 -2.9576
  873MOL0     H20430   3.871  11.737   5.055  1.5289  2.0665 -3.6659
  873MOL0     H20431   3.821  11.859   5.175 -0.6584 -0.3622 -1.2532
  873MOL0     H20432   4.116  12.115   4.995  4.1316 -0.3150 -2.1819
  873MOL0     H20433   4.223  12.247   4.832  1.1473  1.0686 -1.2995
  873MOL0     H20434   4.126  12.329   4.704  1.9404  1.2328 -1.4014
  873MOL0     H20435   4.219  12.190   4.667 -2.6112  0.5920 -1.4712
  873MOL0     H20436   3.720  11.945   4.317  1.7547  0.8433  3.6291
  873MOL0     H20437   3.672  11.996   4.081  3.5727 -0.6397  0.3152
  873MOL0     H20438   3.680  12.431   3.948  2.0422 -0.1225  2.1949
  873MOL0     H20439   3.838  12.369   3.905  0.4070  0.3260  0.1778
  873MOL0     H20440   3.573  12.336   3.735 -0.9771  2.1240 -1.6415
  873MOL0     H20441   3.690  12.458   3.705 -2.6847 -0.8846 -0.8917
  873MOL0     H20442   3.694  12.153   3.675 -0.9475 -0.5018 -2.4644
  873MOL0     H20443   3.848  12.242   3.688 -0.2360 -0.4133  0.8495
  873MOL0     H20444   3.765  12.396   3.479  0.2043 -1.0118 -2.7987
  873MOL0     H20445   3.635  12.278   3.477 -0.6524 -1.0673  3.0956
  873MOL0     H20446   3.929  12.256   3.397  1.3257 -1.8635 -1.1405
  873MOL0     H20447   3.845  12.107   3.428  0.5846 -0.4699  0.7854
  873MOL0     H20448   3.879  12.242   3.198 -0.8223  0.9609 -0.6895
  873MOL0     H20449   3.728  12.318   3.241 -1.3728  0.0550  0.3831
  873MOL0     H20450   3.778  12.013   3.202 -1.2127 -0.1383 -1.1182
  873MOL0     H20451   3.693  12.131   3.098 -2.8569  1.8981 -0.1632
  873MOL0     H20452   3.503  12.126   3.225  0.5890  0.3080 -0.0283
  873MOL0     H20453   3.588  12.108   3.376 -2.1243 -1.8532  0.1403
  873MOL0     H20454   3.856  12.380   4.123  0.6107  0.3458  0.1125
  873MOL0     H20455   3.870  12.344   4.361 -1.1585  1.7468 -1.2535
  873MOL0     H20456   3.816  11.922   4.656 -0.7029 -3.2382  2.3748
  873MOL0     H20457   3.811  11.834   4.866 -1.9967  1.6161  0.2112
  873MOL0     H20458   4.175  10.630   6.223  1.0257 -0.7683 -1.0175
  873MOL0     H20459   4.253  10.397   6.289 -1.1394 -2.9398  1.2175
  873MOL0     H20460   3.951   9.971   6.214 -0.3413 -0.1024  0.4352
  873MOL0     H20461   3.958   9.729   6.221  0.4627  1.5651 -1.2002
  873MOL0     H20462   4.015   9.508   6.225  0.9357  2.8652  1.0382
  873MOL0     H20463   4.184   9.490   6.264 -1.6732 -0.8754 -4.2044
  873MOL0     H20464   4.017   9.287   6.299  1.2235 -0.9638  1.1741
  873MOL0     H20465   3.960   9.369   6.434 -0.0273 -3.8951  0.5877
  873MOL0     H20466   4.264   9.329   6.394  1.6432  1.9573  1.6896
  873MOL0     H20467   4.178   9.368   6.537  0.0117 -0.6131  0.4631
  873MOL0     H20468   4.127   9.091   6.386  1.9606 -0.4642 -1.3977
  873MOL0     H20469   4.118   9.119   6.559 -2.5614 -0.6195 -1.4973
  873MOL0     H20470   4.518   9.024   6.498 -0.1810  2.2520  0.2144
  873MOL0     H20471   4.164   9.709   6.577 -3.6583 -4.2374 -2.5720
  873MOL0     H20472   4.148  10.013   6.682  1.9769 -1.6070  1.8744
  873MOL0     H20473   4.286   9.908   6.659  0.7190  0.4318 -0.1190
  873MOL0     H20474   4.274  10.078   6.591 -0.7846  0.2106 -0.9709
  874MOL0     O20475   5.080   8.921   3.175  0.4106  0.3071 -0.3507
  874MOL0     C20476   4.962   8.963   3.144 -0.3645  0.0494 -0.4554
  874MOL0     O20477   4.868   8.887   3.081  0.6550 -0.9362 -0.5962
  874MOL0     C20478   4.909   8.807   2.984  0.2383  0.7173 -0.8173
  874MOL0     C20479   4.990   8.847   2.876 -0.9022  1.3728  1.1308
  874MOL0     C20480   5.032   8.765   2.780  0.3156  0.3915  0.3233
  874MOL0     C20481   4.990   8.630   2.773  1.1202 -0.3016 -0.8710
  874MOL0     O20482   5.040   8.555   2.669 -0.2013 -0.6868  0.3649
  874MOL0     C20483   4.973   8.429   2.638  0.5885 -0.1491  0.1513
  874MOL0     C20484   5.067   8.332   2.557  0.9710  0.1968 -1.1070
  874MOL0     C20485   5.081   8.370   2.419  1.0448 -0.8295  0.2324
  874MOL0     C20486   5.159   8.269   2.336  0.5597  0.4568  0.7997
  874MOL0     C20487   5.130   8.295   2.187 -0.2856 -0.2643 -0.9747
  874MOL0     C20488   5.218   8.410   2.137  0.1076 -0.6429 -0.4839
  874MOL0     C20489   5.220   8.410   1.983 -0.3876  0.6926 -0.3453
  874MOL0     C20490   5.350   8.333   1.938 -0.0968 -0.0881 -0.9031
  874MOL0     N20491   5.344   8.315   1.793 -0.1536 -0.3031  0.1195
  874MOL0     C20492   5.326   8.421   1.709  0.5693  0.0534  0.3013
  874MOL0     C20493   5.376   8.369   1.592  0.2051 -0.1013 -0.0046
  874MOL0     C20494   5.358   8.454   1.467 -0.1077  0.3104  0.6153
  874MOL0     C20495   5.210   8.459   1.414 -0.1673 -0.5012 -0.8584
  874MOL0     C20496   5.199   8.538   1.283 -0.1197 -1.1222 -0.0842
  874MOL0     C20497   5.249   8.487   1.155 -0.5044  0.1161  0.2849
  874MOL0     O20498   5.175   8.557   1.053  0.0159 -0.2933  0.1971
  874MOL0     C20499   5.125   8.510   0.934  0.2196 -0.5558 -0.6529
  874MOL0     C20500   5.153   8.386   0.882 -0.8984 -0.7900  0.3404
  874MOL0     C20501   5.104   8.353   0.750 -0.6719 -0.0584  0.4345
  874MOL0     C20502   5.142   8.213   0.688  0.1252  0.3219  0.1798
  874MOL0     C20503   5.021   8.447   0.682 -0.2111 -0.0117 -0.5676
  874MOL0     C20504   4.955   8.420   0.548 -0.8961 -0.3602  0.7400
  874MOL0     O20505   4.888   8.522   0.488  0.5816  0.3273 -0.5647
  874MOL0     C20506   4.837   8.513   0.360 -0.4133 -0.3768 -0.0818
  874MOL0     C20507   4.889   8.604   0.273 -0.4308 -0.8206 -0.0531
  874MOL0     C20508   4.860   8.597   0.133 -0.3097  0.2345  0.5679
  874MOL0     C20509   4.776   8.494   0.084 -0.1714 -0.4383 -0.6312
  874MOL0     O20510   4.755   8.476  -0.052  0.1846 -0.0505  0.2790
  874MOL0     C20511   4.806   8.560  -0.158  0.2141  0.4587  0.1781
  874MOL0     C20512   4.728   8.691  -0.162 -0.3207  0.0525 -0.9677
  874MOL0     C20513   4.580   8.666  -0.183  0.5896 -0.2646 -0.2786
  874MOL0     C20514   4.503   8.803  -0.159 -1.7768  0.2433  0.2243
  874MOL0     C20515   4.375   8.790  -0.226  1.1214  0.1712 -0.0308
  874MOL0     C20516   4.310   8.932  -0.252  1.0240  0.1190 -0.1693
  874MOL0     C20517   4.298   9.023  -0.124  0.0861  0.8345 -0.8376
  874MOL0     C20518   4.220   9.141  -0.165 -0.2387 -0.0240  0.5665
  874MOL0    Cl20519   4.049   9.130  -0.178 -0.1755 -0.1490  0.0136
  874MOL0     C20520   4.717   8.406   0.179  0.1710 -0.0907  0.8686
  874MOL0     C20521   4.740   8.425   0.318 -0.4631 -0.7063 -0.1884
  874MOL0     O20522   4.967   8.306   0.499  0.2403  0.1305 -0.6081
  874MOL0     C20523   4.996   8.572   0.740  1.4615  0.1092  0.6904
  874MOL0     C20524   5.048   8.610   0.862  0.4413  0.5628  0.2473
  874MOL0     N20525   5.419   8.237   1.599 -0.7955 -1.0501 -0.0518
  874MOL0     N20526   5.404   8.209   1.725  0.3745  0.4591 -0.7263
  874MOL0     C20527   4.909   8.593   2.874  0.3825  0.1845 -0.4596
  874MOL0     C20528   4.867   8.670   2.986 -1.1270  0.5749 -0.4336
  874MOL0     C20529   4.921   9.098   3.191 -0.7285  0.0084 -0.4197
  874MOL0     C20530   4.989   9.162   3.297  0.1023  0.4662 -0.7610
  874MOL0     C20531   4.969   9.303   3.327 -0.7707  0.4364  0.0106
  874MOL0     C20532   4.866   9.367   3.260 -0.4347 -0.2979  0.8768
  874MOL0     O20533   4.833   9.493   3.282  0.2681  0.7846  0.5440
  874MOL0     C20534   4.936   9.588   3.295 -0.2711 -0.3907  0.1126
  874MOL0     C20535   4.878   9.717   3.345 -0.8709  1.0568 -0.4334
  874MOL0     C20536   4.798   9.791   3.240  0.4371 -0.9535  0.6158
  874MOL0     C20537   4.710   9.896   3.309  0.6378 -0.1528  0.4785
  874MOL0     C20538   4.799   9.999   3.362  0.7876 -0.5983 -0.7073
  874MOL0     C20539   4.876  10.088   3.403  0.6011  0.3237 -0.0312
  874MOL0     C20540   4.785   9.307   3.171 -0.1649  0.1385 -0.2931
  874MOL0     C20541   4.817   9.168   3.141 -0.1223 -0.6418 -0.1703
  874MOL0     C20542   4.727   9.125   3.025  0.0540  0.7240  0.7777
  874MOL0     H20543   5.031   8.947   2.875  1.0458  0.6867 -2.1481
  874MOL0     H20544   5.104   8.796   2.705 -0.2829  2.4660  0.5372
  874MOL0     H20545   4.885   8.462   2.583  1.6848 -0.4910 -1.8882
  874MOL0     H20546   4.945   8.385   2.735 -3.3871  2.8468  0.6277
  874MOL0     H20547   5.167   8.330   2.602  0.4601 -1.1095  0.0241
  874MOL0     H20548   5.018   8.235   2.563 -1.0067  1.1601  5.0432
  874MOL0     H20549   4.983   8.383   2.373 -0.4427 -1.8604  2.8669
  874MOL0     H20550   5.121   8.472   2.427 -2.4333  0.7375 -0.5133
  874MOL0     H20551   5.267   8.259   2.353  0.7531  1.6281  0.4024
  874MOL0     H20552   5.105   8.175   2.347 -1.0177  1.0796 -1.0449
  874MOL0     H20553   5.022   8.299   2.167 -1.1197 -2.6272  2.1960
  874MOL0     H20554   5.167   8.202   2.143 -3.3542 -3.7265  2.8317
  874MOL0     H20555   5.177   8.508   2.162 -0.5661 -0.9590 -0.3373
  874MOL0     H20556   5.316   8.400   2.184  2.0217  0.2418 -3.9092
  874MOL0     H20557   5.232   8.515   1.953 -0.6808  2.3577  4.4585
  874MOL0     H20558   5.125   8.365   1.952 -0.6802 -1.7656  3.4440
  874MOL0     H20559   5.444   8.385   1.959 -0.6467  0.8503 -0.7088
  874MOL0     H20560   5.351   8.235   1.986 -1.4341  1.2572  2.1513
  874MOL0     H20561   5.277   8.517   1.725 -0.0622 -0.2403  0.1764
  874MOL0     H20562   5.435   8.417   1.399  2.0783  1.8338  2.1370
  874MOL0     H20563   5.389   8.550   1.510  1.1984  0.9968 -1.7173
  874MOL0     H20564   5.170   8.358   1.407 -0.6081 -0.6231  2.0928
  874MOL0     H20565   5.142   8.514   1.480 -0.4404 -1.6248 -0.1836
  874MOL0     H20566   5.093   8.558   1.268 -0.2704 -1.8033  0.0574
  874MOL0     H20567   5.236   8.638   1.307 -1.3690 -0.6642 -0.0362
  874MOL0     H20568   5.355   8.507   1.142 -0.9110  3.1779  0.9176
  874MOL0     H20569   5.221   8.381   1.155 -2.6227  0.5371  3.2163
  874MOL0     H20570   5.228   8.323   0.927  1.9709 -0.9678 -4.0163
  874MOL0     H20571   5.046   8.161   0.684  0.0116  0.5241  0.2712
  874MOL0     H20572   5.215   8.176   0.761 -0.6648 -1.5112  0.0796
  874MOL0     H20573   5.188   8.228   0.590  0.4811  1.0388  0.4493
  874MOL0     H20574   4.953   8.685   0.306 -0.6769 -0.8758  0.5858
  874MOL0     H20575   4.906   8.662   0.059  0.5477 -0.7456  0.2228
  874MOL0     H20576   4.915   8.567  -0.147  0.1398  2.5480  0.0281
  874MOL0     H20577   4.796   8.523  -0.260  0.7531 -2.4524  1.1023
  874MOL0     H20578   4.740   8.742  -0.066 -2.9403 -3.1731  1.2828
  874MOL0     H20579   4.771   8.751  -0.243  0.1572  2.0537  0.6858
  874MOL0     H20580   4.543   8.592  -0.112 -3.6449 -1.4563 -3.3616
  874MOL0     H20581   4.572   8.626  -0.284  1.0465 -2.6989  0.5845
  874MOL0     H20582   4.569   8.872  -0.211 -2.3606 -0.9032 -2.1411
  874MOL0     H20583   4.490   8.824  -0.052 -1.8598 -2.8063  0.8934
  874MOL0     H20584   4.387   8.739  -0.322 -0.4485 -0.8068  0.2594
  874MOL0     H20585   4.306   8.723  -0.174  2.7995 -0.9275  0.8513
  874MOL0     H20586   4.206   8.918  -0.285  1.0640 -1.2626  0.2221
  874MOL0     H20587   4.366   8.988  -0.328  1.2788 -2.4422 -2.0088
  874MOL0     H20588   4.397   9.049  -0.087  0.4560  0.5675 -1.6210
  874MOL0     H20589   4.248   8.969  -0.043  2.5063 -0.5239 -0.1465
  874MOL0     H20590   4.252   9.162  -0.268  2.7454  1.2607  1.6407
  874MOL0     H20591   4.250   9.231  -0.111 -1.9054  2.2088 -1.9014
  874MOL0     H20592   4.646   8.330   0.146  0.3455 -0.8716  2.2482
  874MOL0     H20593   4.689   8.358   0.386 -3.2614  0.8410 -0.6149
  874MOL0     H20594   4.922   8.639   0.696 -0.2124 -1.3353  1.2072
  874MOL0     H20595   5.038   8.703   0.918  1.2352  0.8582 -0.0869
  874MOL0     H20596   4.877   8.489   2.873  0.1162  0.2383 -2.6475
  874MOL0     H20597   4.806   8.628   3.065  0.6868  3.0719  2.5561
  874MOL0     H20598   5.062   9.100   3.349 -2.0476  1.6377  4.2694
  874MOL0     H20599   5.021   9.354   3.407 -2.1437  1.8387  0.0424
  874MOL0     H20600   4.995   9.549   3.378 -2.1743 -1.8905  0.8514
  874MOL0     H20601   4.997   9.614   3.208 -3.2408  1.0458 -1.7049
  874MOL0     H20602   4.965   9.774   3.378 -0.2219  0.4605 -1.0791
  874MOL0     H20603   4.816   9.686   3.429 -3.3701 -1.1369 -2.8654
  874MOL0     H20604   4.862   9.836   3.164 -0.2787  0.5235  0.8657
  874MOL0     H20605   4.738   9.716   3.188  1.0040  0.6655 -2.6148
  874MOL0     H20606   4.654   9.851   3.392  1.0198 -1.1434  0.2218
  874MOL0     H20607   4.637   9.943   3.243  0.3751  0.6991  1.3540
  874MOL0     H20608   4.935  10.171   3.434  0.5665 -0.7613  3.2983
  874MOL0     H20609   4.712   9.377   3.133  2.0295  1.3047 -2.7155
  874MOL0     H20610   4.641   9.191   3.029  0.5198  1.3017  1.6804
  874MOL0     H20611   4.787   9.127   2.933 -1.4030 -3.3690 -0.4820
  874MOL0     H20612   4.685   9.025   3.038 -3.1033  1.8418  0.0948
  875MOL0     O20613   2.196  11.021   3.249  0.5666  0.9309 -0.5204
  875MOL0     C20614   2.258  10.930   3.185  0.0599  0.2620 -0.2779
  875MOL0     O20615   2.291  10.800   3.237  0.0036  0.1901  0.1270
  875MOL0     C20616   2.313  10.783   3.370 -0.5396 -0.3442 -0.5820
  875MOL0     C20617   2.336  10.882   3.476  0.4255  0.5907 -0.6087
  875MOL0     C20618   2.378  10.852   3.606  0.3669 -0.8912 -0.3652
  875MOL0     C20619   2.422  10.731   3.644  0.7650  0.5774 -0.6106
  875MOL0     O20620   2.472  10.724   3.774  1.1062  0.0811 -0.0151
  875MOL0     C20621   2.484  10.607   3.841  0.4447  0.7702 -0.3241
  875MOL0     C20622   2.519  10.646   3.993 -0.1692  0.2820  0.3209
  875MOL0     C20623   2.500  10.540   4.100 -0.0467 -0.5548 -0.1116
  875MOL0     C20624   2.589  10.411   4.092 -0.4840  0.0679  0.0704
  875MOL0     C20625   2.737  10.436   4.124  0.8356  0.1431  0.1111
  875MOL0     C20626   2.758  10.443   4.280  0.3421  0.3729 -0.7175
  875MOL0     C20627   2.896  10.494   4.323  0.1177 -1.3280 -0.5466
  875MOL0     C20628   2.912  10.647   4.323 -0.1764 -0.1445 -0.0951
  875MOL0     N20629   3.025  10.695   4.403 -0.1260  0.0606 -0.0506
  875MOL0     C20630   3.155  10.648   4.403 -0.5092  0.7746 -0.6228
  875MOL0     C20631   3.206  10.704   4.513  0.1015 -0.8916  0.1925
  875MOL0     C20632   3.333  10.646   4.572  0.1542 -0.4472 -0.3460
  875MOL0     C20633   3.303  10.498   4.619  0.0907  0.2508 -0.4991
  875MOL0     C20634   3.269  10.490   4.762 -0.1562  0.1167  0.0777
  875MOL0     C20635   3.231  10.347   4.811 -0.0144 -1.2540 -0.5723
  875MOL0     O20636   3.333  10.254   4.759 -0.2503  0.6489  0.3811
  875MOL0     C20637   3.454  10.243   4.818  0.4300 -0.1002 -1.0586
  875MOL0     C20638   3.544  10.166   4.743 -0.0319  0.1064 -0.4917
  875MOL0     C20639   3.673  10.133   4.802  0.2638 -0.3088 -0.1816
  875MOL0     C20640   3.777  10.047   4.726  1.3679  0.0289 -0.4774
  875MOL0     C20641   3.693  10.178   4.943 -0.2518 -0.9341  0.4426
  875MOL0     C20642   3.819  10.137   5.003 -0.1684  0.1854 -0.7941
  875MOL0     O20643   3.886  10.228   5.079 -0.2550  0.0349 -0.2774
  875MOL0     C20644   4.019  10.241   5.048  0.3801 -0.2979 -0.1494
  875MOL0     C20645   4.058  10.336   4.951 -0.8495  0.3047  0.8589
  875MOL0     C20646   4.189  10.349   4.904  0.0333 -0.6662  0.0654
  875MOL0     C20647   4.291  10.281   4.974  0.5751 -0.5527 -0.2097
  875MOL0     O20648   4.427  10.301   4.957  0.0120  0.5840  0.3958
  875MOL0     C20649   4.517  10.272   5.065 -0.1778  0.9986 -0.5482
  875MOL0     C20650   4.661  10.303   5.028 -0.2136  0.5360 -0.2293
  875MOL0     C20651   4.680  10.457   5.051  0.1895 -0.1179  0.2741
  875MOL0     C20652   4.827  10.495   5.000  0.9225  0.2552  0.3430
  875MOL0     C20653   4.837  10.516   4.851 -0.5063 -0.2157 -0.5977
  875MOL0     C20654   4.782  10.649   4.788 -0.9314 -0.0472  0.1756
  875MOL0     C20655   4.825  10.672   4.636 -0.0723 -0.2945 -0.6809
  875MOL0     C20656   4.792  10.555   4.546 -0.0637  0.4330  0.4133
  875MOL0    Cl20657   4.858  10.597   4.378  0.4974 -0.2625  0.1598
  875MOL0     C20658   4.249  10.191   5.069 -0.1095 -0.7967 -0.9157
  875MOL0     C20659   4.122  10.166   5.109 -0.2654 -0.5258 -1.0241
  875MOL0     O20660   3.843  10.015   4.999 -0.2472 -0.3393 -0.2277
  875MOL0     C20661   3.605  10.251   5.013 -0.1121  0.3509  0.2638
  875MOL0     C20662   3.484  10.281   4.949 -0.0034 -0.4525 -0.5623
  875MOL0     N20663   3.127  10.803   4.573 -0.0866 -0.2058  0.0244
  875MOL0     N20664   3.019  10.787   4.504  0.3236 -0.0855  0.4620
  875MOL0     C20665   2.423  10.630   3.536 -0.2714 -0.1037 -0.2626
  875MOL0     C20666   2.373  10.654   3.407 -0.2336 -0.7279  0.5402
  875MOL0     C20667   2.288  10.953   3.038  1.1298 -0.2427 -0.6811
  875MOL0     C20668   2.191  10.966   2.946 -0.6416  0.9505  0.5493
  875MOL0     C20669   2.224  10.979   2.805  0.0694 -0.2488  0.4450
  875MOL0     C20670   2.361  10.972   2.757  0.9699  1.0164 -0.5208
  875MOL0     O20671   2.406  10.969   2.632 -1.1358 -0.1507  0.4654
  875MOL0     C20672   2.342  10.895   2.529 -1.0709 -0.3299 -0.0051
  875MOL0     C20673   2.421  10.899   2.402 -1.1381 -0.1147  0.2091
  875MOL0     C20674   2.551  10.815   2.424  0.0463  0.0630 -0.0988
  875MOL0     C20675   2.617  10.803   2.280 -0.0872  0.4082 -0.3427
  875MOL0     C20676   2.751  10.743   2.295  0.0312  0.0826 -0.5602
  875MOL0     C20677   2.875  10.730   2.305 -0.3440  0.2539  0.1527
  875MOL0     C20678   2.451  10.958   2.858 -0.9449  0.3136 -0.1790
  875MOL0     C20679   2.419  10.969   2.997 -0.1096  0.4453  0.3348
  875MOL0     C20680   2.533  10.971   3.098 -0.2328  0.4812 -0.4505
  875MOL0     H20681   2.324  10.989   3.460 -2.6392  0.5020  0.5369
  875MOL0     H20682   2.387  10.925   3.686  0.9199 -1.3557  0.0092
  875MOL0     H20683   2.560  10.537   3.804 -0.5836  0.1981 -1.3782
  875MOL0     H20684   2.391  10.551   3.854 -0.1636  1.2362 -2.3027
  875MOL0     H20685   2.624  10.675   3.989 -0.3836  1.0058 -2.6621
  875MOL0     H20686   2.470  10.744   4.000  1.6813  1.3792 -1.1584
  875MOL0     H20687   2.521  10.586   4.197  2.7579 -1.0433 -0.3864
  875MOL0     H20688   2.396  10.508   4.097 -0.0791 -0.3709 -1.7395
  875MOL0     H20689   2.546  10.341   4.164  3.1031 -0.7102  1.6847
  875MOL0     H20690   2.572  10.376   3.989 -2.0460 -1.7637  0.8891
  875MOL0     H20691   2.774  10.530   4.082 -4.3375  1.3354 -2.5054
  875MOL0     H20692   2.796  10.360   4.073  0.0809 -0.6830  0.4447
  875MOL0     H20693   2.675  10.493   4.333  0.7640 -1.7755  2.2202
  875MOL0     H20694   2.744  10.343   4.321  0.0500  0.5110 -0.4678
  875MOL0     H20695   2.979  10.448   4.268  2.3591  0.1787  1.4402
  875MOL0     H20696   2.919  10.470   4.427  0.4400 -2.2707 -0.8215
  875MOL0     H20697   2.920  10.683   4.220 -0.6826  2.3093  0.6570
  875MOL0     H20698   2.812  10.672   4.358 -0.2993  1.0925 -1.2574
  875MOL0     H20699   3.205  10.576   4.339 -2.2423 -1.1353  0.0562
  875MOL0     H20700   3.376  10.702   4.655 -0.1330 -2.0119  0.9144
  875MOL0     H20701   3.414  10.648   4.499  4.4713 -1.6363  3.8779
  875MOL0     H20702   3.236  10.442   4.553  4.8838 -3.5066 -2.7173
  875MOL0     H20703   3.397  10.445   4.608  0.9469  1.4193  0.8331
  875MOL0     H20704   3.350  10.531   4.822 -0.2545 -1.0194  1.0312
  875MOL0     H20705   3.176  10.544   4.785  0.3458  2.7092 -3.1343
  875MOL0     H20706   3.224  10.342   4.920 -0.4645  0.8878 -0.4709
  875MOL0     H20707   3.133  10.314   4.775 -1.1663  0.0893  1.1611
  875MOL0     H20708   3.519  10.137   4.642 -1.7053  0.3845 -0.1758
  875MOL0     H20709   3.778   9.942   4.755 -1.2437  0.5126  1.7753
  875MOL0     H20710   3.878  10.089   4.739  2.2745 -1.5157 -2.0897
  875MOL0     H20711   3.763  10.059   4.619 -0.0766 -0.8059 -0.4074
  875MOL0     H20712   3.982  10.394   4.899  3.3645  1.9453 -4.3629
  875MOL0     H20713   4.211  10.426   4.830 -0.2640  3.1529  3.5664
  875MOL0     H20714   4.483  10.319   5.158 -2.5162 -1.7834  0.1403
  875MOL0     H20715   4.521  10.164   5.082  2.7145  1.0021 -0.7454
  875MOL0     H20716   4.720  10.245   5.100 -0.9763  1.8732  1.5469
  875MOL0     H20717   4.682  10.272   4.925  2.4102 -1.7573  0.8474
  875MOL0     H20718   4.680  10.475   5.159  1.5736 -1.7606  0.5983
  875MOL0     H20719   4.606  10.514   4.994  1.0364 -0.1920 -0.9486
  875MOL0     H20720   4.888  10.415   5.041 -0.4918 -1.1773 -0.2571
  875MOL0     H20721   4.857  10.592   5.042  3.2164  0.2328 -1.0887
  875MOL0     H20722   4.937  10.492   4.814 -0.8198 -0.4407 -1.3162
  875MOL0     H20723   4.776  10.436   4.808 -3.7668  2.6971 -1.8827
  875MOL0     H20724   4.824  10.727   4.853 -0.5560 -0.5537  0.5424
  875MOL0     H20725   4.674  10.663   4.803 -0.6482  1.4640  0.9721
  875MOL0     H20726   4.933  10.690   4.644 -0.6670  3.0015  3.4109
  875MOL0     H20727   4.780  10.764   4.596  0.7492 -0.2397 -1.5035
  875MOL0     H20728   4.684  10.543   4.534 -0.8055  4.8657  0.8108
  875MOL0     H20729   4.829  10.453   4.560 -2.1460 -0.2535  1.4660
  875MOL0     H20730   4.326  10.130   5.116  1.5347 -0.3191 -2.8467
  875MOL0     H20731   4.111  10.098   5.192 -3.9798  0.9347 -0.1399
  875MOL0     H20732   3.621  10.285   5.115  0.4340  0.0718  0.2767
  875MOL0     H20733   3.405  10.329   5.005  0.6902  0.5553 -0.4179
  875MOL0     H20734   2.469  10.532   3.546  2.1260  0.8986 -0.8764
  875MOL0     H20735   2.387  10.584   3.324  2.0279 -1.4088  1.4187
  875MOL0     H20736   2.087  10.941   2.966 -1.9156  4.2182 -1.2368
  875MOL0     H20737   2.138  10.977   2.740 -0.8721  0.2824  1.6294
  875MOL0     H20738   2.336  10.795   2.574  1.2786  0.2051  1.6956
  875MOL0     H20739   2.242  10.934   2.510  1.1916  6.4917 -0.5731
  875MOL0     H20740   2.438  10.998   2.361 -1.0753 -0.6169 -1.0121
  875MOL0     H20741   2.355  10.838   2.340  1.4207 -3.0957  0.1656
  875MOL0     H20742   2.616  10.868   2.494  0.2957  1.4916 -1.3502
  875MOL0     H20743   2.519  10.715   2.454 -4.0053  0.9184 -0.9351
  875MOL0     H20744   2.625  10.904   2.240  0.5733  0.2489 -0.6378
  875MOL0     H20745   2.552  10.740   2.220 -0.6207  1.7601 -1.2256
  875MOL0     H20746   2.982  10.719   2.312 -0.4160 -0.4075  0.2514
  875MOL0     H20747   2.558  10.957   2.842 -0.4289  6.0857  0.6772
  875MOL0     H20748   2.558  11.075   3.121 -1.1699  0.4664  0.7572
  875MOL0     H20749   2.512  10.925   3.195  0.4115 -0.9972 -0.9917
  875MOL0     H20750   2.617  10.926   3.046  0.0239 -0.2522  0.5776
  876MOL0     O20751   8.764   4.404  10.549  0.4047 -0.1526  0.1819
  876MOL0     C20752   8.820   4.508  10.519  0.6697  0.1761  0.4288
  876MOL0     O20753   8.888   4.520  10.390 -0.6785 -0.3462 -1.2206
  876MOL0     C20754   8.874   4.418  10.295 -0.3618 -0.5718 -0.9937
  876MOL0     C20755   8.757   4.330  10.279 -0.0666 -0.3644  0.4161
  876MOL0     C20756   8.760   4.259  10.160  0.2061  0.4350  0.2421
  876MOL0     C20757   8.863   4.260  10.060 -0.1917 -0.5225 -0.5068
  876MOL0     O20758   8.849   4.181   9.952  0.5006 -0.2146  0.1449
  876MOL0     C20759   8.883   4.233   9.827  0.7448 -0.4848  0.4937
  876MOL0     C20760   8.826   4.155   9.715  0.0589 -0.0232  1.3896
  876MOL0     C20761   8.674   4.141   9.720  0.4866 -0.0189  0.7753
  876MOL0     C20762   8.625   4.046   9.617 -0.0631 -0.6268 -0.7878
  876MOL0     C20763   8.485   4.008   9.647 -0.3655  0.6434  0.2976
  876MOL0     C20764   8.448   3.906   9.537  0.7260 -0.1253 -1.2569
  876MOL0     C20765   8.410   3.975   9.405 -0.4458  0.2753 -0.9007
  876MOL0     C20766   8.314   3.892   9.314 -0.0173 -0.7906 -0.1350
  876MOL0     N20767   8.177   3.890   9.367 -0.2086 -0.7794  0.3600
  876MOL0     C20768   8.096   4.001   9.365 -1.2266  0.0023 -0.8177
  876MOL0     C20769   7.971   3.957   9.352  0.9665  0.0644  0.1999
  876MOL0     C20770   7.849   4.037   9.336  0.6286 -0.1143 -0.3751
  876MOL0     C20771   7.813   4.072   9.188 -0.1315 -0.1846  0.2191
  876MOL0     C20772   7.690   4.163   9.177  0.0273  0.8914  1.0037
  876MOL0     C20773   7.720   4.304   9.204 -0.6277  0.0913  0.0335
  876MOL0     O20774   7.816   4.362   9.104 -0.5512  1.3083 -0.7041
  876MOL0     C20775   7.770   4.422   8.985 -0.4620  0.2739 -0.7052
  876MOL0     C20776   7.636   4.451   8.948 -1.2264 -1.0502 -0.5227
  876MOL0     C20777   7.608   4.510   8.817 -0.0545  0.3103 -0.5210
  876MOL0     C20778   7.457   4.525   8.776  0.1018 -0.6134 -0.0380
  876MOL0     C20779   7.706   4.558   8.740  1.0569  0.1260  1.0658
  876MOL0     C20780   7.685   4.621   8.609  0.4507  0.3509 -0.2796
  876MOL0     O20781   7.584   4.575   8.522  0.7620 -0.0260  0.2681
  876MOL0     C20782   7.565   4.661   8.422  0.4376 -0.7609  0.0424
  876MOL0     C20783   7.438   4.736   8.423 -0.2766  1.2276  0.9290
  876MOL0     C20784   7.418   4.815   8.307 -0.5994  0.3631 -0.2293
  876MOL0     C20785   7.513   4.824   8.200  0.0403  0.2650 -0.2507
  876MOL0     O20786   7.482   4.906   8.098  0.6721  0.0574  0.4929
  876MOL0     C20787   7.570   4.927   7.983 -0.3635  0.9668  0.4978
  876MOL0     C20788   7.515   5.043   7.899 -1.4038  0.1633  0.1644
  876MOL0     C20789   7.549   5.183   7.953  0.0184 -0.6051 -0.5769
  876MOL0     C20790   7.435   5.280   7.912  0.7499  0.0968 -0.2810
  876MOL0     C20791   7.388   5.271   7.768 -0.1153 -1.2549  0.7522
  876MOL0     C20792   7.304   5.388   7.714 -0.4729 -0.6906 -0.3953
  876MOL0     C20793   7.384   5.523   7.686  1.1842  0.4196 -0.6196
  876MOL0     C20794   7.296   5.635   7.639 -0.1059 -0.2279  0.3099
  876MOL0    Cl20795   7.191   5.674   7.787  0.1286 -0.3713  0.3580
  876MOL0     C20796   7.641   4.764   8.213 -0.4521 -0.4827 -0.6038
  876MOL0     C20797   7.664   4.679   8.320  0.1274  0.8001 -1.6164
  876MOL0     O20798   7.749   4.730   8.601 -0.1418  0.4913  0.0628
  876MOL0     C20799   7.835   4.541   8.778 -0.7560 -0.0510  0.5088
  876MOL0     C20800   7.868   4.464   8.894 -0.8908  0.6697 -0.4985
  876MOL0     N20801   7.975   3.819   9.365 -0.7140  0.1358  0.1334
  876MOL0     N20802   8.101   3.781   9.378 -0.3682 -0.4179 -0.2622
  876MOL0     C20803   8.980   4.334  10.084  0.7621 -1.4865 -0.4427
  876MOL0     C20804   8.979   4.417  10.199  0.4469 -0.8272 -0.5523
  876MOL0     C20805   8.824   4.617  10.610 -0.0222 -0.1254 -0.3361
  876MOL0     C20806   8.865   4.745  10.555 -0.5919  0.4616 -0.2116
  876MOL0     C20807   8.888   4.850  10.638  0.0985  0.0788  0.0367
  876MOL0     C20808   8.866   4.843  10.776  0.1463 -1.0661 -0.0191
  876MOL0     O20809   8.896   4.948  10.862  0.1193 -0.6295 -0.4438
  876MOL0     C20810   8.825   4.968  10.990  0.1744 -0.3730  0.6678
  876MOL0     C20811   8.735   5.098  10.988 -0.1194 -0.2962  0.0036
  876MOL0     C20812   8.607   5.072  10.910  0.8871 -0.2865 -0.4012
  876MOL0     C20813   8.503   4.986  10.993  1.2757  0.8097 -0.3492
  876MOL0     C20814   8.455   4.862  10.921 -0.0018 -0.4916  0.4269
  876MOL0     C20815   8.405   4.774  10.860 -0.4140 -0.2584 -1.1528
  876MOL0     C20816   8.811   4.728  10.822  0.7439  0.1046 -0.3688
  876MOL0     C20817   8.785   4.619  10.744 -0.8215  0.5066  0.7034
  876MOL0     C20818   8.718   4.500  10.810  0.2414  1.1679  0.2348
  876MOL0     H20819   8.676   4.330  10.352  0.5362  2.7833  1.2433
  876MOL0     H20820   8.691   4.181  10.131  1.8225 -1.0167  0.1068
  876MOL0     H20821   8.991   4.233   9.815  0.8419  1.9811  0.8967
  876MOL0     H20822   8.844   4.335   9.825 -0.4505 -0.9182  0.7289
  876MOL0     H20823   8.866   4.186   9.618  1.3517 -2.7025  0.9698
  876MOL0     H20824   8.859   4.051   9.722 -2.7142 -1.0787 -0.0787
  876MOL0     H20825   8.649   4.119   9.824  0.5940  4.7525  2.0757
  876MOL0     H20826   8.626   4.234   9.687 -0.7630 -0.4611  1.3046
  876MOL0     H20827   8.631   4.080   9.513 -1.6458  2.4665  0.0267
  876MOL0     H20828   8.675   3.948   9.620 -0.7091 -0.9689 -0.9470
  876MOL0     H20829   8.404   4.081   9.637 -2.1501 -1.5644 -4.0765
  876MOL0     H20830   8.474   3.958   9.744  0.8918 -0.2994 -0.0184
  876MOL0     H20831   8.531   3.834   9.528 -0.3984 -2.0662  2.0468
  876MOL0     H20832   8.365   3.850   9.581  1.8859  0.9250  2.7521
  876MOL0     H20833   8.496   3.982   9.338 -0.8940 -1.2879 -1.6879
  876MOL0     H20834   8.376   4.073   9.439 -2.4841 -1.5068  2.8492
  876MOL0     H20835   8.306   3.946   9.219  4.0378 -1.5151 -1.1119
  876MOL0     H20836   8.350   3.792   9.288 -0.0939 -0.5283 -1.2739
  876MOL0     H20837   8.132   4.103   9.357 -3.5366  0.8565 -0.9779
  876MOL0     H20838   7.875   4.126   9.395 -0.5061  1.7055 -2.4624
  876MOL0     H20839   7.760   3.984   9.370 -1.0411  2.5412 -0.2946
  876MOL0     H20840   7.897   4.119   9.136 -0.8831  0.9985  0.0560
  876MOL0     H20841   7.791   3.972   9.151  0.9836 -2.5660  5.0846
  876MOL0     H20842   7.665   4.155   9.070  1.5365 -0.7191  0.7183
  876MOL0     H20843   7.611   4.128   9.244 -1.2392  2.8826  0.6170
  876MOL0     H20844   7.627   4.360   9.214 -1.9545 -2.1817  0.9816
  876MOL0     H20845   7.771   4.313   9.300  1.8559  1.1011 -1.2713
  876MOL0     H20846   7.559   4.417   9.016 -0.7208 -2.1288 -0.4722
  876MOL0     H20847   7.440   4.618   8.721  0.9133 -0.4571 -0.0399
  876MOL0     H20848   7.396   4.522   8.866 -2.7933 -2.2885 -1.8872
  876MOL0     H20849   7.433   4.443   8.708  0.5486 -1.1787  0.4763
  876MOL0     H20850   7.355   4.718   8.490  0.8148 -1.6397  1.6804
  876MOL0     H20851   7.324   4.866   8.288 -2.0003 -2.8281 -2.8499
  876MOL0     H20852   7.673   4.939   8.020 -0.3424 -2.5139  1.9209
  876MOL0     H20853   7.577   4.840   7.917  1.4931  0.8309  0.7968
  876MOL0     H20854   7.557   5.054   7.798 -2.7122  4.4857 -0.1197
  876MOL0     H20855   7.407   5.030   7.890 -1.3268  0.2605 -1.2440
  876MOL0     H20856   7.647   5.217   7.918  0.4851 -3.1386 -1.9481
  876MOL0     H20857   7.554   5.187   8.063  0.8167  0.7697 -0.6349
  876MOL0     H20858   7.456   5.382   7.946 -1.1210  0.3812  0.1240
  876MOL0     H20859   7.343   5.255   7.966 -1.1042 -0.3951 -3.3780
  876MOL0     H20860   7.472   5.255   7.700 -1.3222 -2.6636 -0.4628
  876MOL0     H20861   7.342   5.173   7.750 -3.1563 -0.4846  3.3494
  876MOL0     H20862   7.223   5.407   7.784 -1.5673 -3.1021 -0.8997
  876MOL0     H20863   7.260   5.343   7.624 -1.5812  1.5464 -1.0545
  876MOL0     H20864   7.468   5.509   7.618  1.1489 -0.6394 -0.4654
  876MOL0     H20865   7.425   5.557   7.782 -0.0348  1.3051 -0.3767
  876MOL0     H20866   7.243   5.597   7.551  0.0697 -1.2387  0.6273
  876MOL0     H20867   7.356   5.724   7.622 -1.5224  0.3863 -2.0163
  876MOL0     H20868   7.730   4.776   8.153 -0.6852  2.9969 -0.4822
  876MOL0     H20869   7.743   4.604   8.325  0.3282  0.8827 -3.0322
  876MOL0     H20870   7.921   4.566   8.717  0.6124  1.7705  2.9960
  876MOL0     H20871   7.972   4.435   8.906 -2.0239 -4.6283 -1.0473
  876MOL0     H20872   9.059   4.348  10.011 -1.7968  0.9351 -3.0099
  876MOL0     H20873   9.050   4.499  10.199 -0.5905  0.1816  2.1725
  876MOL0     H20874   8.873   4.764  10.448 -1.3108  0.2036 -0.3178
  876MOL0     H20875   8.936   4.941  10.604 -1.4224  2.6294  4.0404
  876MOL0     H20876   8.760   4.883  11.015 -1.8951  1.6616  2.7565
  876MOL0     H20877   8.891   4.978  11.077 -1.1298  2.3693  1.4757
  876MOL0     H20878   8.793   5.173  10.934 -0.4155  0.6579  0.9938
  876MOL0     H20879   8.714   5.123  11.092  0.6917  0.2385  0.0428
  876MOL0     H20880   8.559   5.168  10.889 -1.8238 -1.4533  0.0140
  876MOL0     H20881   8.633   5.024  10.815  1.1625  0.1116 -0.5267
  876MOL0     H20882   8.418   5.052  11.013  0.2440  0.0277 -1.8987
  876MOL0     H20883   8.544   4.952  11.088  0.9865 -0.9186 -0.8047
  876MOL0     H20884   8.374   4.688  10.805 -1.5047 -0.3745 -0.3802
  876MOL0     H20885   8.779   4.714  10.925 -0.8113  2.1956 -0.4919
  876MOL0     H20886   8.676   4.522  10.909 -1.9430  2.2709 -0.8918
  876MOL0     H20887   8.633   4.467  10.751 -0.2823 -0.1647  1.6635
  876MOL0     H20888   8.792   4.419  10.813  0.4926  1.4099  1.7736
  877MOL0     O20889  11.270   4.209   0.324  0.9692 -0.5441 -0.6241
  877MOL0     C20890  11.233   4.100   0.271 -0.4872 -0.9605 -0.4450
  877MOL0     O20891  11.267   3.976   0.314 -0.0915  0.1609  0.5569
  877MOL0     C20892  11.382   3.953   0.380  0.4232  0.7232 -0.4725
  877MOL0     C20893  11.406   3.987   0.510  0.7701  1.1238  0.0440
  877MOL0     C20894  11.534   3.955   0.576  0.2901 -0.4357  0.8341
  877MOL0     C20895  11.629   3.879   0.510  0.0907 -0.4571  0.4850
  877MOL0     O20896  11.748   3.857   0.575  0.3902  0.4535 -0.5493
  877MOL0     C20897  11.774   3.757   0.672  1.2439  0.5384  0.0888
  877MOL0     C20898  11.734   3.608   0.628 -0.5530 -0.0912  0.7305
  877MOL0     C20899  11.773   3.508   0.728 -1.1038 -1.0176 -0.1499
  877MOL0     C20900  11.730   3.371   0.677  0.1946  0.9844 -0.9241
  877MOL0     C20901  11.766   3.263   0.791 -0.2201  0.3511 -0.7956
  877MOL0     C20902  11.919   3.272   0.815 -0.4190  0.4263  0.4747
  877MOL0     C20903  11.974   3.154   0.902  0.1429 -0.1171  1.0354
  877MOL0     C20904  11.994   3.023   0.818  0.7684  0.4276  0.4117
  877MOL0     N20905  12.023   2.897   0.880  0.0061  0.6568 -0.4868
  877MOL0     C20906  12.127   2.869   0.967 -0.6148 -0.2190 -0.0244
  877MOL0     C20907  12.120   2.743   0.999  0.2131 -0.1918  0.0639
  877MOL0     C20908  12.216   2.677   1.093  0.6159  0.0165 -1.0092
  877MOL0     C20909  12.348   2.650   1.024 -0.0536  1.5151 -0.5326
  877MOL0     C20910  12.338   2.563   0.900 -0.8042  0.7159 -0.5474
  877MOL0     C20911  12.476   2.527   0.858  0.1522 -0.5355 -0.1764
  877MOL0     O20912  12.544   2.445   0.954 -0.5360  0.0918  0.6759
  877MOL0     C20913  12.629   2.345   0.916 -0.1134  0.3768 -0.5072
  877MOL0     C20914  12.663   2.242   1.017 -0.1612 -0.3315 -0.7233
  877MOL0     C20915  12.761   2.148   0.994 -0.1946  0.2255 -0.4744
  877MOL0     C20916  12.811   2.085   1.119  0.2086  0.5610  0.5606
  877MOL0     C20917  12.805   2.134   0.859  1.1945  0.6848  0.1592
  877MOL0     C20918  12.889   2.010   0.816 -0.2842  0.2591 -0.5136
  877MOL0     O20919  12.912   1.925   0.914 -0.2377  0.6109 -0.1464
  877MOL0     C20920  12.991   1.810   0.899  0.2455  0.4359  0.1270
  877MOL0     C20921  13.016   1.736   1.018 -0.0344 -0.4104 -0.1294
  877MOL0     C20922  13.104   1.625   1.026  0.0779  0.5288  0.0115
  877MOL0     C20923  13.176   1.593   0.910 -0.0262 -0.7191  0.4882
  877MOL0     O20924  13.261   1.484   0.918  0.3724 -0.0318  0.5807
  877MOL0     C20925  13.373   1.466   0.823 -0.6833  0.1469  0.8835
  877MOL0     C20926  13.484   1.362   0.866 -0.5858 -0.0406  0.0471
  877MOL0     C20927  13.621   1.397   0.807 -0.5411  0.5872  0.3289
  877MOL0     C20928  13.677   1.528   0.859 -0.7990 -0.9811  0.8067
  877MOL0     C20929  13.839   1.524   0.859  0.3268 -0.9597  0.7921
  877MOL0     C20930  13.888   1.501   0.719 -0.7387 -0.0657  1.4036
  877MOL0     C20931  14.036   1.544   0.702  0.5228 -0.0751 -0.3494
  877MOL0     C20932  14.101   1.505   0.565  0.2510  1.0786 -0.6570
  877MOL0    Cl20933  14.245   1.602   0.526  0.2438  0.3412 -0.7100
  877MOL0     C20934  13.153   1.663   0.788  0.2594  0.7158  0.5606
  877MOL0     C20935  13.060   1.765   0.781  0.2162 -0.3931  0.6324
  877MOL0     O20936  12.926   2.000   0.702  0.2275  0.0704 -0.0669
  877MOL0     C20937  12.761   2.221   0.757  0.9129  0.2035  0.8175
  877MOL0     C20938  12.692   2.339   0.783 -0.8598 -0.9995 -0.3381
  877MOL0     N20939  12.005   2.687   0.955 -0.5914  0.0607  1.2246
  877MOL0     N20940  11.948   2.784   0.884  0.0793 -0.4810  0.0396
  877MOL0     C20941  11.603   3.836   0.375  0.9877 -0.4162  0.4060
  877MOL0     C20942  11.479   3.874   0.313 -0.2432 -0.3031  0.1494
  877MOL0     C20943  11.146   4.108   0.157 -0.4174  0.1868 -0.1855
  877MOL0     C20944  11.030   4.032   0.159  0.1135  0.5098 -0.3036
  877MOL0     C20945  10.935   4.035   0.059  1.1465 -0.3262  0.0446
  877MOL0     C20946  10.950   4.119  -0.050  0.8033  0.4412 -0.5015
  877MOL0     O20947  10.878   4.150  -0.156  0.1992  0.3239 -0.3055
  877MOL0     C20948  10.734   4.145  -0.156 -0.3824 -0.8048  0.6201
  877MOL0     C20949  10.688   4.064  -0.277  0.3650  0.0414  0.3903
  877MOL0     C20950  10.626   4.152  -0.394 -0.5864 -0.1279 -0.9663
  877MOL0     C20951  10.475   4.181  -0.376  0.6675 -0.4677 -0.0350
  877MOL0     C20952  10.411   4.240  -0.488 -1.1406  1.5425 -0.2103
  877MOL0     C20953  10.347   4.290  -0.568  1.0427  0.6408  0.0082
  877MOL0     C20954  11.075   4.180  -0.061 -0.2581  1.7421 -0.2494
  877MOL0     C20955  11.168   4.192   0.040 -0.2025  0.4509  0.0744
  877MOL0     C20956  11.285   4.281   0.036 -0.0297  0.3078  1.1945
  877MOL0     H20957  11.328   4.046   0.555 -0.0062 -2.9181  4.9564
  877MOL0     H20958  11.559   3.992   0.675  1.4772  0.8231  0.0906
  877MOL0     H20959  11.719   3.775   0.765 -2.9397  1.1200 -2.2403
  877MOL0     H20960  11.880   3.764   0.699  1.0065 -2.8307  2.6157
  877MOL0     H20961  11.627   3.608   0.604 -0.3171 -1.7473 -0.4820
  877MOL0     H20962  11.774   3.587   0.529 -0.4944  0.4325  0.6418
  877MOL0     H20963  11.879   3.527   0.749 -1.5024  0.0471  1.0320
  877MOL0     H20964  11.726   3.517   0.826  4.0402 -0.9484  2.6103
  877MOL0     H20965  11.622   3.366   0.666  0.1874 -2.8232 -0.5929
  877MOL0     H20966  11.781   3.327   0.590  2.7078 -1.2533  1.4783
  877MOL0     H20967  11.742   3.165   0.750 -3.0711 -0.7911  3.0102
  877MOL0     H20968  11.701   3.264   0.879 -2.4489  1.3889 -2.3404
  877MOL0     H20969  11.978   3.267   0.723  2.7269  0.4892  2.3469
  877MOL0     H20970  11.937   3.368   0.863 -0.1282  2.0592 -2.6566
  877MOL0     H20971  11.912   3.142   0.992 -0.6385  0.1289  0.5387
  877MOL0     H20972  12.071   3.186   0.941 -0.1144  1.0612  0.7442
  877MOL0     H20973  11.911   3.001   0.750  3.7829 -2.4398 -2.6912
  877MOL0     H20974  12.073   3.040   0.745 -0.2307  0.6543 -0.6475
  877MOL0     H20975  12.196   2.940   1.010 -0.0854 -0.5147 -0.3708
  877MOL0     H20976  12.166   2.588   1.130  3.3121 -0.0430  3.0519
  877MOL0     H20977  12.227   2.743   1.180 -0.0619  0.2854 -1.1223
  877MOL0     H20978  12.394   2.738   0.979 -0.7228  0.9917 -2.3388
  877MOL0     H20979  12.420   2.610   1.097  0.2074 -1.5271 -2.2961
  877MOL0     H20980  12.300   2.466   0.935 -0.9769 -0.2358 -3.1454
  877MOL0     H20981  12.270   2.612   0.830  0.6052 -0.3044 -2.7531
  877MOL0     H20982  12.476   2.470   0.764  0.6654 -0.9257  0.0529
  877MOL0     H20983  12.533   2.619   0.844 -0.1274  0.2480  3.2293
  877MOL0     H20984  12.602   2.251   1.106  0.5777 -3.2204  0.2082
  877MOL0     H20985  12.805   1.976   1.116  0.7167  0.5339 -2.7023
  877MOL0     H20986  12.747   2.123   1.199 -1.5991 -1.9370  0.4333
  877MOL0     H20987  12.911   2.121   1.146  0.2922  1.0378 -0.3406
  877MOL0     H20988  12.964   1.768   1.107  3.2118  0.7115  1.5117
  877MOL0     H20989  13.089   1.567   1.116 -1.7422  3.9488  2.1280
  877MOL0     H20990  13.335   1.443   0.723  1.1426  1.1750 -0.1087
  877MOL0     H20991  13.431   1.558   0.811  3.2500 -2.1480  0.5822
  877MOL0     H20992  13.498   1.361   0.975 -1.2748 -1.9131  0.1619
  877MOL0     H20993  13.451   1.263   0.834 -0.2742  0.1611 -0.9376
  877MOL0     H20994  13.600   1.403   0.699 -4.4679 -0.6752  0.8728
  877MOL0     H20995  13.696   1.320   0.827 -0.9324  0.3651  0.9772
  877MOL0     H20996  13.647   1.563   0.957 -1.9769  0.1253  0.0797
  877MOL0     H20997  13.643   1.609   0.794 -0.0060  0.5647  2.2473
  877MOL0     H20998  13.877   1.613   0.910 -0.2179  0.3679 -1.0077
  877MOL0     H20999  13.871   1.443   0.926 -1.0204 -1.9690  0.2594
  877MOL0     H21000  13.829   1.563   0.651 -0.6794  1.8620  3.0408
  877MOL0     H21001  13.884   1.393   0.701  0.6565 -0.8952  5.2574
  877MOL0     H21002  14.101   1.508   0.782 -0.4782  1.6939  1.3163
  877MOL0     H21003  14.031   1.652   0.718 -1.1107 -0.4035  1.7936
  877MOL0     H21004  14.030   1.535   0.487 -1.7139  2.5309  1.5556
  877MOL0     H21005  14.118   1.397   0.561 -0.7048  0.8773  0.2685
  877MOL0     H21006  13.209   1.640   0.698  1.2132 -2.1722  1.7777
  877MOL0     H21007  13.053   1.810   0.682  0.3850 -1.2412  0.2267
  877MOL0     H21008  12.799   2.205   0.656 -1.4568 -1.5537  0.1221
  877MOL0     H21009  12.680   2.415   0.707 -0.6796  1.0947  1.6111
  877MOL0     H21010  11.677   3.791   0.309  0.6679  0.1840 -0.3867
  877MOL0     H21011  11.478   3.842   0.209 -1.8187 -0.4550  0.1871
  877MOL0     H21012  11.028   3.970   0.248 -0.2389 -0.3617 -0.8955
  877MOL0     H21013  10.851   3.967   0.073 -0.0456  1.3070  1.2359
  877MOL0     H21014  10.713   4.103  -0.058 -1.1699 -3.9283 -0.7545
  877MOL0     H21015  10.694   4.247  -0.156  0.4012 -0.4497 -1.2122
  877MOL0     H21016  10.611   4.003  -0.228 -0.4249  2.1894  2.0009
  877MOL0     H21017  10.771   4.001  -0.309 -0.2562 -2.1688  2.7897
  877MOL0     H21018  10.678   4.249  -0.398  1.2439 -0.9330  1.1765
  877MOL0     H21019  10.635   4.091  -0.485  0.1822 -0.8785 -0.4044
  877MOL0     H21020  10.465   4.256  -0.297  0.7665  2.0342 -2.2608
  877MOL0     H21021  10.425   4.085  -0.360 -0.9519  0.7407  2.7197
  877MOL0     H21022  10.297   4.337  -0.650 -0.4648  1.3089  1.2579
  877MOL0     H21023  11.107   4.220  -0.157  3.7236 -0.8590 -0.2454
  877MOL0     H21024  11.299   4.339  -0.056 -0.6626 -1.6030 -0.1576
  877MOL0     H21025  11.265   4.357   0.112  0.5204  2.9657 -1.1434
  877MOL0     H21026  11.369   4.224   0.077 -1.6506 -1.2035  2.5466
  878MOL0     O21027   5.134   8.754   1.809  0.4309  0.5426  0.2466
  878MOL0     C21028   5.147   8.879   1.817  0.1834 -0.2124 -0.9875
  878MOL0     O21029   5.249   8.946   1.749 -0.1893 -0.7729 -0.3143
  878MOL0     C21030   5.361   8.861   1.722 -0.1847 -0.5678 -0.9160
  878MOL0     C21031   5.406   8.855   1.585 -0.7915  0.5543  0.8442
  878MOL0     C21032   5.534   8.795   1.556  1.7076 -0.8130  0.9423
  878MOL0     C21033   5.603   8.726   1.655 -0.5332 -0.0445 -0.4715
  878MOL0     O21034   5.717   8.668   1.611  0.5824 -0.3577  0.1329
  878MOL0     C21035   5.726   8.527   1.627  0.2043 -0.0242 -0.7815
  878MOL0     C21036   5.777   8.467   1.759  0.2210  0.9404  0.8944
  878MOL0     C21037   5.757   8.310   1.751  0.1775  0.0102  0.0303
  878MOL0     C21038   5.853   8.253   1.647  0.1139 -1.1368 -0.9314
  878MOL0     C21039   5.826   8.104   1.613 -0.3126 -1.1460 -0.3977
  878MOL0     C21040   5.872   8.015   1.731 -0.0267  0.8854 -0.0561
  878MOL0     C21041   5.904   7.880   1.671  0.3385  0.4043  1.3386
  878MOL0     C21042   5.935   7.772   1.772 -0.3280  0.2974 -0.3591
  878MOL0     N21043   6.064   7.795   1.837  0.6226  0.0463 -0.7857
  878MOL0     C21044   6.100   7.884   1.938  0.2136  0.4155  0.4556
  878MOL0     C21045   6.232   7.887   1.933  0.4333  0.0375 -0.6363
  878MOL0     C21046   6.328   7.990   2.007  0.2336 -1.1726 -0.0120
  878MOL0     C21047   6.391   7.927   2.133 -0.0024 -0.2986 -0.4555
  878MOL0     C21048   6.490   8.026   2.208  0.1003 -0.3092  0.0643
  878MOL0     C21049   6.558   7.951   2.327  0.9538  0.0859 -0.0291
  878MOL0     O21050   6.474   7.964   2.436 -0.2078  0.2444  0.5124
  878MOL0     C21051   6.509   7.879   2.530 -0.2413  0.0452  0.5952
  878MOL0     C21052   6.611   7.916   2.611  0.3284 -0.1765 -0.0642
  878MOL0     C21053   6.645   7.836   2.722 -0.1068 -0.1502 -0.8936
  878MOL0     C21054   6.751   7.891   2.808 -0.3110 -0.8866 -0.4197
  878MOL0     C21055   6.584   7.706   2.747  0.4477 -0.3179  0.2660
  878MOL0     C21056   6.618   7.620   2.854  0.2160  0.6966  0.1462
  878MOL0     O21057   6.515   7.532   2.888  0.4631  0.4187  0.7007
  878MOL0     C21058   6.550   7.432   2.980  0.4229 -0.8342  1.1326
  878MOL0     C21059   6.599   7.310   2.937  0.0685  0.5372  0.3732
  878MOL0     C21060   6.651   7.221   3.030 -0.7072  0.2429  0.8424
  878MOL0     C21061   6.650   7.245   3.164 -0.1161  0.4765  0.4661
  878MOL0     O21062   6.700   7.145   3.245  0.4512  0.7417 -0.0248
  878MOL0     C21063   6.742   7.173   3.379 -0.1795  0.5375 -0.3022
  878MOL0     C21064   6.830   7.046   3.408  0.3569 -0.5094  0.5579
  878MOL0     C21065   6.856   7.036   3.551 -0.4842 -0.3449 -0.2809
  878MOL0     C21066   6.743   6.966   3.636 -0.0134 -0.0446 -0.5966
  878MOL0     C21067   6.804   6.931   3.771  0.7938  0.7491 -0.8684
  878MOL0     C21068   6.703   6.836   3.845  0.2576 -0.3946 -1.1992
  878MOL0     C21069   6.715   6.849   3.999 -0.0720 -0.6751 -0.1498
  878MOL0     C21070   6.822   6.754   4.056 -0.3866 -0.4646 -1.1576
  878MOL0    Cl21071   6.764   6.589   4.038 -0.1955 -0.1805 -0.4157
  878MOL0     C21072   6.581   7.364   3.214 -0.4985 -0.0560 -0.7675
  878MOL0     C21073   6.538   7.463   3.116 -0.0544 -0.4018 -0.2693
  878MOL0     O21074   6.727   7.621   2.909  0.1434  0.4507 -0.0392
  878MOL0     C21075   6.480   7.667   2.656 -1.1887 -0.1761  0.7834
  878MOL0     C21076   6.442   7.757   2.553  0.3012  1.2742  0.0564
  878MOL0     N21077   6.270   7.791   1.843 -0.5362  0.0452  0.1150
  878MOL0     N21078   6.174   7.739   1.786 -0.0490  1.1434 -0.7273
  878MOL0     C21079   5.554   8.730   1.788 -0.0910 -0.3375 -0.2193
  878MOL0     C21080   5.438   8.795   1.824  0.8989  0.0869 -0.1633
  878MOL0     C21081   5.032   8.951   1.890 -0.6132  0.5876 -0.7323
  878MOL0     C21082   4.900   8.906   1.870 -0.2966 -0.0631  0.7393
  878MOL0     C21083   4.795   8.968   1.949 -0.0129  0.2056  0.8561
  878MOL0     C21084   4.821   9.071   2.042  0.8080  0.1566  0.9469
  878MOL0     O21085   4.722   9.140   2.104 -0.4773  0.1750  0.0141
  878MOL0     C21086   4.585   9.113   2.086 -0.0269  0.5171 -0.5961
  878MOL0     C21087   4.500   9.209   2.169 -0.2004 -0.0239  0.5922
  878MOL0     C21088   4.452   9.343   2.105  0.2114 -0.6311 -0.1804
  878MOL0     C21089   4.467   9.356   1.956 -0.1547 -0.2784  0.3242
  878MOL0     C21090   4.431   9.486   1.903 -0.8958  0.4618  0.2298
  878MOL0     C21091   4.427   9.597   1.852 -0.5426  0.7753 -0.7995
  878MOL0     C21092   4.950   9.118   2.063 -0.5145  0.2607  0.4981
  878MOL0     C21093   5.061   9.058   1.987  0.3719 -0.3756  0.0705
  878MOL0     C21094   5.206   9.098   2.009  0.6964  0.1623 -0.3750
  878MOL0     H21095   5.358   8.899   1.498  0.0320 -3.1449 -1.7305
  878MOL0     H21096   5.576   8.796   1.456 -0.2039  0.5513  0.0986
  878MOL0     H21097   5.790   8.497   1.543  2.8417  0.8809  0.7862
  878MOL0     H21098   5.627   8.487   1.603  0.2702 -0.3512 -0.5082
  878MOL0     H21099   5.884   8.481   1.771  0.2844  0.8565  0.4477
  878MOL0     H21100   5.725   8.510   1.845  1.4261 -0.6747  2.4807
  878MOL0     H21101   5.783   8.265   1.847  2.7762  1.1416 -0.0753
  878MOL0     H21102   5.649   8.296   1.735 -0.6330  2.0583  2.9786
  878MOL0     H21103   5.840   8.310   1.554 -1.4669 -0.6877 -0.4534
  878MOL0     H21104   5.956   8.282   1.672 -1.6677  4.2591  1.6701
  878MOL0     H21105   5.888   8.086   1.524  1.5627  3.2165 -0.2230
  878MOL0     H21106   5.721   8.096   1.583 -1.1782  3.2761  0.7732
  878MOL0     H21107   5.964   8.061   1.769  1.2924 -3.1281  2.1709
  878MOL0     H21108   5.803   8.004   1.814  0.7965  3.8343  1.1379
  878MOL0     H21109   5.982   7.896   1.595  0.1800  3.3268  1.6762
  878MOL0     H21110   5.823   7.837   1.611  1.3474  0.7574 -0.3676
  878MOL0     H21111   5.845   7.758   1.832 -0.6058 -1.7484 -1.1493
  878MOL0     H21112   5.945   7.681   1.711  2.0492  2.2089 -3.1082
  878MOL0     H21113   6.032   7.946   1.996  1.2043  0.4811  1.6030
  878MOL0     H21114   6.263   8.072   2.037 -0.8885 -2.6062  1.6974
  878MOL0     H21115   6.403   8.021   1.934 -1.0527  0.1006 -0.8444
  878MOL0     H21116   6.317   7.895   2.207  0.8280  1.9112  1.4220
  878MOL0     H21117   6.440   7.834   2.103 -0.2760  0.2421 -2.7799
  878MOL0     H21118   6.575   8.054   2.145 -0.5626  1.0634 -0.2608
  878MOL0     H21119   6.447   8.122   2.240  2.0785  0.6335  0.0197
  878MOL0     H21120   6.569   7.847   2.294 -1.2944 -0.1651 -0.1255
  878MOL0     H21121   6.656   7.985   2.360  0.7201  0.4840  0.2712
  878MOL0     H21122   6.653   8.015   2.593 -1.7703  1.5831  3.5897
  878MOL0     H21123   6.800   7.975   2.758 -1.3796 -1.7403 -3.0949
  878MOL0     H21124   6.832   7.818   2.804  0.5978  0.0955 -0.4004
  878MOL0     H21125   6.705   7.921   2.902 -0.6015 -1.7334 -0.2886
  878MOL0     H21126   6.599   7.279   2.832  1.5863 -0.9151  0.7634
  878MOL0     H21127   6.695   7.124   3.009 -0.6164 -0.1877  2.8447
  878MOL0     H21128   6.806   7.261   3.386 -0.9920  1.0258  1.3278
  878MOL0     H21129   6.648   7.177   3.434 -0.4508 -0.9334 -0.6305
  878MOL0     H21130   6.768   6.962   3.377 -4.3326  3.0677 -0.7991
  878MOL0     H21131   6.916   7.055   3.341 -0.3767  0.7376 -0.2419
  878MOL0     H21132   6.892   7.126   3.600  2.7469 -3.1816  3.1151
  878MOL0     H21133   6.946   6.974   3.560  1.4911  1.4548 -4.6146
  878MOL0     H21134   6.724   6.868   3.593 -0.2625  0.0757 -0.7671
  878MOL0     H21135   6.659   7.036   3.637 -1.5213 -1.7845 -0.2471
  878MOL0     H21136   6.891   6.868   3.756 -1.1298 -1.4997 -3.3629
  878MOL0     H21137   6.823   7.028   3.819 -1.4457  2.1062 -2.5030
  878MOL0     H21138   6.719   6.729   3.826 -2.0478 -2.0211  4.1721
  878MOL0     H21139   6.599   6.838   3.813 -0.6322 -2.3649  1.2458
  878MOL0     H21140   6.615   6.819   4.032 -0.4713 -0.4615 -1.1172
  878MOL0     H21141   6.721   6.952   4.034 -1.3153 -0.3767 -0.7328
  878MOL0     H21142   6.838   6.781   4.160 -1.0353 -1.8114 -0.6854
  878MOL0     H21143   6.916   6.771   4.002 -0.1100  0.8380 -0.3014
  878MOL0     H21144   6.568   7.362   3.322  1.7445 -0.8457 -0.4628
  878MOL0     H21145   6.480   7.550   3.147 -0.4111 -0.6998 -0.0883
  878MOL0     H21146   6.433   7.569   2.663 -2.8474  0.6307  1.4118
  878MOL0     H21147   6.358   7.732   2.489  0.3447  1.5495 -0.1109
  878MOL0     H21148   5.608   8.688   1.872  0.4203  1.4665  0.3996
  878MOL0     H21149   5.409   8.800   1.929 -1.6735  4.4232 -0.8284
  878MOL0     H21150   4.871   8.824   1.804  0.1254  0.5069 -0.1716
  878MOL0     H21151   4.690   8.950   1.927 -0.7291  2.3203  2.1791
  878MOL0     H21152   4.557   9.116   1.980 -1.0861  0.2460 -0.3361
  878MOL0     H21153   4.559   9.011   2.115 -1.1533  0.8206 -0.4751
  878MOL0     H21154   4.570   9.225   2.251  1.9153  0.2806 -1.1986
  878MOL0     H21155   4.415   9.152   2.209  0.8143  0.3123  3.5144
  878MOL0     H21156   4.347   9.362   2.129 -0.6823 -0.9718 -3.3727
  878MOL0     H21157   4.515   9.419   2.153  1.9044 -1.0075 -1.7350
  878MOL0     H21158   4.393   9.285   1.917 -0.4578  2.1545 -4.2151
  878MOL0     H21159   4.560   9.314   1.918  0.2705  2.5148 -2.0577
  878MOL0     H21160   4.416   9.695   1.809  0.5240  0.3203 -2.1504
  878MOL0     H21161   4.984   9.206   2.117  3.0746 -2.0943  2.4675
  878MOL0     H21162   5.267   9.007   2.004 -3.4183 -3.0377  1.4971
  878MOL0     H21163   5.232   9.174   1.934  0.5591  2.4491  1.7608
  878MOL0     H21164   5.219   9.137   2.110 -0.1124 -1.8912  0.5626
  879MOL0     O21165   5.422   2.577   0.875  0.5341 -0.0165  0.2962
  879MOL0     C21166   5.524   2.632   0.842 -0.5075 -0.1684 -0.5610
  879MOL0     O21167   5.601   2.706   0.928  0.1966 -0.4848 -0.5751
  879MOL0     C21168   5.596   2.676   1.062  0.6295 -0.4945 -0.6799
  879MOL0     C21169   5.510   2.749   1.140  0.3725 -0.1278 -0.3831
  879MOL0     C21170   5.513   2.731   1.278 -0.3242 -0.8452  0.6021
  879MOL0     C21171   5.593   2.636   1.334 -0.1259 -0.6889 -0.8094
  879MOL0     O21172   5.574   2.629   1.468  0.8234  0.3484 -0.1172
  879MOL0     C21173   5.625   2.511   1.533 -0.0769 -0.3697 -0.4378
  879MOL0     C21174   5.621   2.530   1.685  0.7413  0.7978  0.4080
  879MOL0     C21175   5.487   2.587   1.742  0.1031 -0.1468 -0.0433
  879MOL0     C21176   5.370   2.493   1.713 -0.2162 -0.3026 -0.1775
  879MOL0     C21177   5.246   2.524   1.793 -0.7393 -0.5042 -0.6785
  879MOL0     C21178   5.266   2.449   1.926 -0.2267 -0.1130 -0.8214
  879MOL0     C21179   5.177   2.504   2.036 -0.1521 -0.5729  0.1109
  879MOL0     C21180   5.154   2.435   2.167  1.0619  0.5270  0.0640
  879MOL0     N21181   5.273   2.368   2.225  0.2008  1.4143  0.4607
  879MOL0     C21182   5.390   2.427   2.257 -0.7293  0.0566 -0.2591
  879MOL0     C21183   5.474   2.330   2.283 -0.0235  1.6424 -0.2098
  879MOL0     C21184   5.621   2.344   2.315  0.5295  0.4186  0.1836
  879MOL0     C21185   5.706   2.332   2.191  0.3256  0.7753 -0.6270
  879MOL0     C21186   5.712   2.453   2.095  0.7770  0.2424  0.0287
  879MOL0     C21187   5.724   2.594   2.175 -0.3005 -0.0072 -0.4938
  879MOL0     O21188   5.830   2.573   2.277 -0.4482 -0.1085  0.3894
  879MOL0     C21189   5.968   2.598   2.248 -0.8763 -0.3103  0.6456
  879MOL0     C21190   6.056   2.555   2.348 -0.1359 -0.8770 -0.1145
  879MOL0     C21191   6.195   2.579   2.343  0.3235 -1.1676 -0.5549
  879MOL0     C21192   6.284   2.537   2.455 -0.6149  0.9517 -0.7580
  879MOL0     C21193   6.246   2.640   2.228 -0.3170  0.0381 -0.8587
  879MOL0     C21194   6.392   2.667   2.207  1.0718  0.1991 -0.3979
  879MOL0     O21195   6.484   2.567   2.220  0.0632  0.0163 -0.3407
  879MOL0     C21196   6.612   2.578   2.169  0.8383 -0.1343  0.3399
  879MOL0     C21197   6.647   2.474   2.087  0.5014 -1.3534  0.6180
  879MOL0     C21198   6.779   2.470   2.040  0.2368 -0.3544  0.8203
  879MOL0     C21199   6.873   2.562   2.067  0.3777  0.3124  0.0575
  879MOL0     O21200   6.996   2.542   2.006  0.0420 -0.5114 -0.3014
  879MOL0     C21201   7.041   2.661   1.945  0.1098 -0.3166 -0.2054
  879MOL0     C21202   7.105   2.631   1.817 -0.4273 -0.6823 -0.1967
  879MOL0     C21203   7.014   2.549   1.729  0.9751 -0.6739  1.1486
  879MOL0     C21204   7.031   2.595   1.581  0.7062  0.3876 -0.3707
  879MOL0     C21205   7.178   2.568   1.519  0.1363 -0.5082 -0.2140
  879MOL0     C21206   7.194   2.619   1.374 -0.1526  0.0269  1.0480
  879MOL0     C21207   7.106   2.543   1.267  0.2479  0.8393 -0.3150
  879MOL0     C21208   7.120   2.570   1.123  0.5749  1.3433 -1.0362
  879MOL0    Cl21209   7.070   2.735   1.058  0.2272 -0.6657  0.1533
  879MOL0     C21210   6.834   2.667   2.151 -0.2850  0.4616 -0.1841
  879MOL0     C21211   6.707   2.671   2.207 -0.4808  0.2810 -1.2039
  879MOL0     O21212   6.423   2.784   2.194  0.4533  0.7167 -0.1917
  879MOL0     C21213   6.161   2.692   2.130 -0.8957 -0.5766 -0.3426
  879MOL0     C21214   6.029   2.667   2.136 -0.0676  0.1144  0.0140
  879MOL0     N21215   5.403   2.211   2.285  0.4790 -0.4397 -0.4713
  879MOL0     N21216   5.279   2.235   2.263  0.3937  0.1087 -0.7202
  879MOL0     C21217   5.687   2.570   1.262 -0.5040  0.1360  0.7991
  879MOL0     C21218   5.687   2.589   1.125 -0.7273  0.3032 -0.1394
  879MOL0     C21219   5.587   2.634   0.705 -1.2115  0.5005  0.6481
  879MOL0     C21220   5.691   2.727   0.684 -0.5040  0.1968  0.2660
  879MOL0     C21221   5.768   2.726   0.563  0.0675  0.8284  0.4238
  879MOL0     C21222   5.724   2.648   0.452 -0.1255 -0.0276 -0.1453
  879MOL0     O21223   5.781   2.651   0.324 -0.8079  0.6349  0.4797
  879MOL0     C21224   5.704   2.641   0.204 -0.5323 -1.1852 -0.0404
  879MOL0     C21225   5.759   2.532   0.114 -0.5692  0.4912  0.9702
  879MOL0     C21226   5.711   2.549  -0.029  0.2526 -0.5051 -0.2684
  879MOL0     C21227   5.560   2.543  -0.056  0.0936  0.1963  0.0535
  879MOL0     C21228   5.494   2.435   0.018  0.0618  0.0457  0.4249
  879MOL0     C21229   5.440   2.345   0.091  0.4487 -1.5168 -0.5728
  879MOL0     C21230   5.626   2.555   0.477  1.1154  0.7507  0.4703
  879MOL0     C21231   5.554   2.545   0.600 -0.4479  0.1516 -0.4426
  879MOL0     C21232   5.426   2.452   0.599  0.6538  0.2020  0.2693
  879MOL0     H21233   5.428   2.810   1.103 -1.1861 -0.3665  2.3842
  879MOL0     H21234   5.444   2.794   1.332 -0.3534 -0.0313 -0.3462
  879MOL0     H21235   5.728   2.490   1.501  0.1037  1.3219 -1.0868
  879MOL0     H21236   5.556   2.429   1.515 -0.6015 -0.2556  0.9300
  879MOL0     H21237   5.659   2.438   1.731 -1.5240 -0.5856 -0.3300
  879MOL0     H21238   5.695   2.609   1.703 -1.9036  3.0743  2.1609
  879MOL0     H21239   5.491   2.600   1.850 -0.3513 -1.2376  0.1144
  879MOL0     H21240   5.475   2.683   1.691  2.4592 -1.0959 -2.6725
  879MOL0     H21241   5.354   2.506   1.605 -3.5722  2.7845  0.4996
  879MOL0     H21242   5.415   2.394   1.722  2.0319  0.3723 -2.7321
  879MOL0     H21243   5.149   2.519   1.741  0.1616  4.6490 -3.5907
  879MOL0     H21244   5.250   2.628   1.827 -0.6067 -1.2378  1.7304
  879MOL0     H21245   5.226   2.348   1.919 -1.9245  0.3817  1.0730
  879MOL0     H21246   5.369   2.457   1.962 -0.0237 -0.8241 -1.2164
  879MOL0     H21247   5.082   2.512   1.983  0.2518 -1.1655 -0.7246
  879MOL0     H21248   5.196   2.608   2.061 -1.2986  0.3235 -2.4728
  879MOL0     H21249   5.091   2.491   2.237 -0.4620 -0.3035 -0.5943
  879MOL0     H21250   5.086   2.351   2.149  0.0821  0.7228  2.4295
  879MOL0     H21251   5.422   2.528   2.233  1.8911 -0.5489  0.4543
  879MOL0     H21252   5.635   2.263   2.388  0.3266  1.2047  1.1213
  879MOL0     H21253   5.641   2.436   2.370 -0.4804  2.3421 -2.4825
  879MOL0     H21254   5.813   2.319   2.209  0.8917  1.0131 -3.3193
  879MOL0     H21255   5.679   2.241   2.138  4.0498 -2.1428  1.9500
  879MOL0     H21256   5.788   2.435   2.019  0.1897 -3.1171  0.1004
  879MOL0     H21257   5.618   2.456   2.039  0.7923 -1.2288 -0.1161
  879MOL0     H21258   5.736   2.679   2.107 -0.5068  0.8924  0.5699
  879MOL0     H21259   5.631   2.598   2.233  0.6664  0.3645  1.0922
  879MOL0     H21260   6.017   2.498   2.431 -0.0004 -3.1613 -1.5460
  879MOL0     H21261   6.376   2.596   2.447  0.6701 -0.4853  2.1083
  879MOL0     H21262   6.298   2.429   2.449  2.0233  1.2346 -0.9663
  879MOL0     H21263   6.240   2.566   2.551 -0.1335 -0.3475 -0.1300
  879MOL0     H21264   6.565   2.405   2.071 -1.1192  1.1699 -3.5786
  879MOL0     H21265   6.810   2.385   1.979 -4.4937 -1.8930  0.1066
  879MOL0     H21266   6.955   2.723   1.918  2.0802  1.8612 -1.8368
  879MOL0     H21267   7.107   2.720   2.009  0.0531  3.1194 -3.0391
  879MOL0     H21268   7.146   2.716   1.763 -0.7728 -0.3293  0.0853
  879MOL0     H21269   7.187   2.561   1.835 -0.4166 -0.5777  0.1723
  879MOL0     H21270   6.907   2.554   1.753  1.2491 -0.0656  2.3032
  879MOL0     H21271   7.043   2.444   1.738 -0.1234 -1.2123 -0.9635
  879MOL0     H21272   7.004   2.699   1.563  2.8772  1.1197  0.3449
  879MOL0     H21273   6.970   2.534   1.513  1.6083 -1.1966  0.1902
  879MOL0     H21274   7.252   2.623   1.577 -0.2982 -1.3016  1.1472
  879MOL0     H21275   7.208   2.463   1.528  0.0991 -0.3139  4.3787
  879MOL0     H21276   7.295   2.586   1.350 -0.1368 -0.6669  1.9917
  879MOL0     H21277   7.185   2.727   1.356 -0.9341 -0.0225  1.0944
  879MOL0     H21278   6.998   2.543   1.286  0.5734 -2.2556  2.5846
  879MOL0     H21279   7.134   2.439   1.284  0.4950  1.2965  2.8344
  879MOL0     H21280   7.051   2.502   1.072 -1.3320  0.6225  2.2494
  879MOL0     H21281   7.220   2.546   1.084 -0.6396 -1.6570 -2.6352
  879MOL0     H21282   6.895   2.756   2.162  1.5535 -0.6381 -0.9753
  879MOL0     H21283   6.686   2.752   2.276  0.4718  0.0649 -0.6355
  879MOL0     H21284   6.190   2.746   2.040 -1.7868 -1.1665 -1.0016
  879MOL0     H21285   5.966   2.711   2.060 -0.9960 -1.1135  0.0474
  879MOL0     H21286   5.751   2.491   1.301  0.1676 -0.5465 -1.5132
  879MOL0     H21287   5.753   2.525   1.067 -4.4277 -1.1776 -3.1199
  879MOL0     H21288   5.729   2.788   0.766 -1.9039  2.1137 -0.4479
  879MOL0     H21289   5.848   2.797   0.541 -0.3864  1.4014  0.5797
  879MOL0     H21290   5.598   2.632   0.228 -0.5521  0.5432  0.6379
  879MOL0     H21291   5.729   2.739   0.162  5.1588 -0.0040  4.6834
  879MOL0     H21292   5.708   2.442   0.150 -0.4683 -0.4001 -0.9808
  879MOL0     H21293   5.867   2.517   0.124 -0.1771  0.0158 -2.5914
  879MOL0     H21294   5.739   2.650  -0.060 -2.5189 -0.2477 -2.3328
  879MOL0     H21295   5.760   2.476  -0.094  0.7543  1.3691 -2.1125
  879MOL0     H21296   5.555   2.522  -0.163  1.2304 -2.8379  0.4888
  879MOL0     H21297   5.510   2.640  -0.050 -0.3035 -0.1058  2.1372
  879MOL0     H21298   5.393   2.284   0.165 -2.2597  1.2930  0.2556
  879MOL0     H21299   5.584   2.502   0.392 -2.6640 -0.1009  2.6300
  879MOL0     H21300   5.432   2.394   0.506 -1.0818 -0.3124  0.4480
  879MOL0     H21301   5.430   2.384   0.684  2.6196 -3.2653 -2.3261
  879MOL0     H21302   5.337   2.516   0.602 -0.1734 -0.8025 -1.2685
  880MOL0     O21303   0.798   1.927   3.092  0.5138  0.2724 -0.1508
  880MOL0     C21304   0.900   1.952   3.153 -0.2354  0.0160 -0.6322
  880MOL0     O21305   1.000   2.044   3.120 -0.1468 -0.1136 -0.3788
  880MOL0     C21306   1.001   2.084   2.984 -0.4676 -0.8990 -0.4416
  880MOL0     C21307   0.981   2.004   2.872 -0.2745  0.1242 -0.0794
  880MOL0     C21308   1.015   2.051   2.738 -0.5639 -1.0802 -0.6208
  880MOL0     C21309   1.042   2.196   2.720  0.3632  0.1137 -0.7554
  880MOL0     O21310   1.055   2.268   2.607  0.1171  0.0777  0.7314
  880MOL0     C21311   1.030   2.194   2.482  0.0942  0.2535  0.1925
  880MOL0     C21312   1.030   2.282   2.353 -0.3205 -0.2962  0.6076
  880MOL0     C21313   1.170   2.308   2.306 -0.3116 -0.7602  0.8609
  880MOL0     C21314   1.178   2.393   2.174 -0.2142  0.2215  0.0586
  880MOL0     C21315   1.167   2.304   2.060 -0.5823  0.3093 -0.8161
  880MOL0     C21316   1.123   2.382   1.937 -0.4670  1.2766  0.7902
  880MOL0     C21317   1.123   2.295   1.810 -0.9550  0.3333  1.3952
  880MOL0     C21318   1.261   2.245   1.767 -0.2812  0.8611  0.6531
  880MOL0     N21319   1.241   2.157   1.651  1.2894  0.2473 -1.5015
  880MOL0     C21320   1.174   2.035   1.645  0.9577  0.4559  0.0397
  880MOL0     C21321   1.211   1.980   1.526 -0.2645  0.7435 -0.2356
  880MOL0     C21322   1.142   1.855   1.480  0.6788  0.9859 -0.0732
  880MOL0     C21323   1.222   1.729   1.510 -0.1077 -0.1903 -0.2348
  880MOL0     C21324   1.323   1.675   1.404  0.8549 -0.7500  0.5765
  880MOL0     C21325   1.450   1.767   1.403 -0.6306  0.7898 -0.3010
  880MOL0     O21326   1.548   1.693   1.329 -0.9994  0.6891 -0.5296
  880MOL0     C21327   1.678   1.743   1.347  0.0405  0.0781 -0.1875
  880MOL0     C21328   1.727   1.855   1.425 -1.1334  0.1177  1.2349
  880MOL0     C21329   1.864   1.890   1.433  0.0695  0.7960 -0.2866
  880MOL0     C21330   1.893   2.002   1.524  0.9660  0.2502  0.1989
  880MOL0     C21331   1.954   1.809   1.359 -0.3672  0.3910 -0.3894
  880MOL0     C21332   2.105   1.818   1.380 -0.0757 -0.8463 -0.6979
  880MOL0     O21333   2.165   1.936   1.422  0.4957 -0.9153  0.1067
  880MOL0     C21334   2.302   1.932   1.431 -0.1144 -0.7680  0.0427
  880MOL0     C21335   2.358   1.899   1.548  0.1236  0.5296 -0.1436
  880MOL0     C21336   2.502   1.882   1.561  0.2563  0.2212 -0.6775
  880MOL0     C21337   2.584   1.906   1.460 -0.1338 -0.3314 -0.1108
  880MOL0     O21338   2.715   1.890   1.468 -0.8020  0.1723 -0.2157
  880MOL0     C21339   2.780   1.791   1.558 -0.4079  0.4530 -0.0517
  880MOL0     C21340   2.856   1.714   1.450 -0.6365  0.2322 -0.5637
  880MOL0     C21341   2.968   1.784   1.373  0.4622 -0.7714  0.1391
  880MOL0     C21342   3.077   1.845   1.460 -0.0015 -0.3794 -0.1890
  880MOL0     C21343   3.188   1.908   1.383 -0.3588  0.6206  0.4692
  880MOL0     C21344   3.293   1.954   1.478  0.5194  0.3359 -0.0805
  880MOL0     C21345   3.427   2.005   1.413 -0.1190 -0.3847 -0.0965
  880MOL0     C21346   3.536   2.011   1.523 -1.2126 -0.8165  0.1287
  880MOL0    Cl21347   3.553   1.872   1.618  0.1541 -0.0208  0.2578
  880MOL0     C21348   2.528   1.936   1.332  0.0677 -1.5595  0.2243
  880MOL0     C21349   2.386   1.957   1.313 -0.8471 -0.1311  0.5139
  880MOL0     O21350   2.171   1.717   1.358 -0.4331 -0.1355  0.3130
  880MOL0     C21351   1.903   1.718   1.269  0.4932 -0.3551  0.3695
  880MOL0     C21352   1.774   1.676   1.271 -0.2265  0.0917 -0.0110
  880MOL0     N21353   1.300   2.064   1.457  0.5711  0.8870  0.6300
  880MOL0     N21354   1.319   2.162   1.534 -0.5678  0.2591 -0.6108
  880MOL0     C21355   1.067   2.277   2.832  0.4129 -0.1608  0.2702
  880MOL0     C21356   1.050   2.223   2.962 -0.1697  1.0336  0.3255
  880MOL0     C21357   0.913   1.878   3.286  0.2990 -0.0823  0.8727
  880MOL0     C21358   0.797   1.800   3.318 -0.6217  0.4191 -0.8496
  880MOL0     C21359   0.792   1.733   3.443 -0.4254 -0.3824  0.1889
  880MOL0     C21360   0.897   1.738   3.530 -0.8430  0.0251 -0.4076
  880MOL0     O21361   0.902   1.686   3.657  0.3673  0.0251 -0.4625
  880MOL0     C21362   0.775   1.705   3.735 -0.4875  0.5729 -0.2493
  880MOL0     C21363   0.791   1.751   3.877  0.1319 -1.1466  0.0457
  880MOL0     C21364   0.909   1.690   3.958  0.1711 -0.4407 -0.4015
  880MOL0     C21365   1.035   1.785   3.939 -0.2105  0.3963  0.6402
  880MOL0     C21366   1.157   1.755   4.024  0.1185  0.0665  0.7831
  880MOL0     C21367   1.261   1.739   4.082 -0.3189  0.3555  0.0096
  880MOL0     C21368   1.008   1.822   3.508  0.1697  0.6323  0.1589
  880MOL0     C21369   1.020   1.884   3.381  0.0473 -0.3981  1.2361
  880MOL0     C21370   1.150   1.971   3.359 -0.2379  0.4899  0.2480
  880MOL0     H21371   0.959   1.898   2.872 -0.9778  0.1304 -3.5452
  880MOL0     H21372   1.018   1.983   2.653 -0.0640 -1.4574 -0.3079
  880MOL0     H21373   0.932   2.147   2.485  0.3106 -0.1775  0.5624
  880MOL0     H21374   1.100   2.112   2.465 -0.8091 -0.2697 -1.1398
  880MOL0     H21375   0.972   2.234   2.273 -0.8779 -1.8392  1.8988
  880MOL0     H21376   0.964   2.367   2.369 -0.4795  0.0868 -1.6549
  880MOL0     H21377   1.219   2.370   2.382  0.0796 -1.5688  1.2802
  880MOL0     H21378   1.229   2.218   2.287 -0.7650 -0.7990 -0.4131
  880MOL0     H21379   1.095   2.465   2.181 -0.4761 -0.0221 -0.5129
  880MOL0     H21380   1.274   2.443   2.159  1.2336 -2.5749 -0.6243
  880MOL0     H21381   1.104   2.216   2.077 -0.4336  0.2154 -0.7487
  880MOL0     H21382   1.265   2.268   2.028 -0.5516  0.5940 -1.0403
  880MOL0     H21383   1.025   2.425   1.960 -2.3071 -2.2352  0.1556
  880MOL0     H21384   1.194   2.465   1.930  3.4403 -1.6924  1.7691
  880MOL0     H21385   1.097   2.370   1.734  1.8898  1.5098  1.4496
  880MOL0     H21386   1.062   2.205   1.819  0.5016 -0.8693 -0.1218
  880MOL0     H21387   1.323   2.331   1.739 -0.4986  0.0594 -2.7946
  880MOL0     H21388   1.297   2.187   1.852  1.7528  0.4992 -0.4048
  880MOL0     H21389   1.115   1.991   1.725 -1.0599 -0.3695 -1.7881
  880MOL0     H21390   1.107   1.859   1.377  0.0514 -0.8781  0.0414
  880MOL0     H21391   1.048   1.848   1.535 -0.8656  2.3892 -2.3788
  880MOL0     H21392   1.260   1.737   1.612 -0.7291  1.3878 -0.1128
  880MOL0     H21393   1.148   1.648   1.509  1.3012 -1.5521 -1.6576
  880MOL0     H21394   1.359   1.579   1.441  1.1475 -0.9542 -0.2228
  880MOL0     H21395   1.273   1.668   1.307  1.9681  1.9447 -0.2713
  880MOL0     H21396   1.430   1.859   1.348 -0.2801  0.6713 -0.6372
  880MOL0     H21397   1.472   1.798   1.505 -1.3783  4.4681 -1.1127
  880MOL0     H21398   1.659   1.911   1.488 -0.6095  0.2862  1.6622
  880MOL0     H21399   1.921   1.958   1.621 -0.8273 -0.9857  0.2146
  880MOL0     H21400   1.803   2.064   1.525  0.4310 -0.4805 -0.9030
  880MOL0     H21401   1.967   2.070   1.483  0.1686 -1.1721 -4.1117
  880MOL0     H21402   2.299   1.887   1.639  3.4955 -0.1978  2.1443
  880MOL0     H21403   2.541   1.860   1.660  1.7209  1.4879 -0.9266
  880MOL0     H21404   2.849   1.833   1.631 -0.0102 -0.5353  0.1647
  880MOL0     H21405   2.709   1.724   1.608  0.2441 -0.0944  0.1499
  880MOL0     H21406   2.905   1.622   1.486  2.0383  1.6729 -0.2486
  880MOL0     H21407   2.777   1.675   1.385 -0.6315  1.6407 -1.4405
  880MOL0     H21408   2.931   1.861   1.304 -1.4973 -3.6648 -2.2758
  880MOL0     H21409   3.025   1.708   1.319  0.9397 -1.7645  1.9651
  880MOL0     H21410   3.109   1.757   1.518 -1.3352  0.5245  2.0470
  880MOL0     H21411   3.034   1.926   1.518  0.1584 -2.0061  2.3579
  880MOL0     H21412   3.232   1.829   1.321 -2.1377  1.7381 -2.4365
  880MOL0     H21413   3.144   1.980   1.313  0.0211  0.9335  0.5514
  880MOL0     H21414   3.318   1.860   1.528  4.1546  1.1347 -0.0957
  880MOL0     H21415   3.244   2.034   1.534 -2.6031  1.8732 -4.4117
  880MOL0     H21416   3.418   2.099   1.358  1.7845  0.9086  1.6599
  880MOL0     H21417   3.454   1.938   1.330 -0.6187  0.2787 -0.8157
  880MOL0     H21418   3.501   2.090   1.590  0.1930  1.6084 -1.8083
  880MOL0     H21419   3.628   2.046   1.475 -2.5378  1.6198 -0.8209
  880MOL0     H21420   2.587   1.951   1.243 -1.2304  3.8791 -0.0619
  880MOL0     H21421   2.347   1.984   1.216  0.4421 -1.3935 -0.3873
  880MOL0     H21422   1.973   1.666   1.204  2.0223  2.5001 -0.4240
  880MOL0     H21423   1.744   1.584   1.222  0.8267 -0.9096  1.1640
  880MOL0     H21424   1.092   2.383   2.833  1.1647 -0.2182 -3.0642
  880MOL0     H21425   1.078   2.285   3.046 -1.3133  2.7809 -0.5386
  880MOL0     H21426   0.703   1.797   3.265 -0.3471  1.2848 -1.4216
  880MOL0     H21427   0.701   1.684   3.475  0.4188 -0.5585  2.4829
  880MOL0     H21428   0.709   1.777   3.686  1.0236  1.6784 -0.7580
  880MOL0     H21429   0.725   1.608   3.740 -2.2726  1.3129 -2.3109
  880MOL0     H21430   0.700   1.720   3.930  0.6991 -3.6562 -0.2794
  880MOL0     H21431   0.803   1.859   3.878 -1.6881 -0.8615 -2.0404
  880MOL0     H21432   0.888   1.689   4.066 -0.7580  0.7310 -0.5467
  880MOL0     H21433   0.936   1.594   3.915 -1.6333 -0.1719 -2.2914
  880MOL0     H21434   1.007   1.888   3.961  1.1930  1.5336 -2.4448
  880MOL0     H21435   1.084   1.787   3.842  0.3534 -1.6831  0.8377
  880MOL0     H21436   1.340   1.711   4.148 -1.6775  0.7358  1.8928
  880MOL0     H21437   1.083   1.828   3.586  0.4482 -1.2859  0.0995
  880MOL0     H21438   1.231   1.922   3.414 -1.4391  0.2431  1.8877
  880MOL0     H21439   1.168   1.973   3.252 -0.9046 -0.0139  0.1215
  880MOL0     H21440   1.133   2.073   3.393  1.8321  1.2876 -0.9419
  881MOL0     O21441   3.226   0.764   3.475 -0.8028 -0.0720 -0.9766
  881MOL0     C21442   3.230   0.648   3.439  0.3369 -0.8426  0.6695
  881MOL0     O21443   3.234   0.549   3.529  1.1088 -0.5542  0.7058
  881MOL0     C21444   3.236   0.559   3.662 -1.8820 -0.5614 -0.3540
  881MOL0     C21445   3.115   0.586   3.713  1.0879  0.0605  0.1787
  881MOL0     C21446   3.088   0.613   3.849  0.6092 -0.5086  0.7694
  881MOL0     C21447   3.201   0.597   3.934 -0.1328 -0.0784  0.0028
  881MOL0     O21448   3.193   0.622   4.071  0.8486  0.6057 -0.2382
  881MOL0     C21449   3.070   0.676   4.128  0.3318 -0.1489  0.8592
  881MOL0     C21450   3.075   0.694   4.285  1.1331 -0.7450 -1.1627
  881MOL0     C21451   3.160   0.582   4.356 -0.8712  0.5494  0.1288
  881MOL0     C21452   3.091   0.544   4.489  0.5414  0.0653 -0.8783
  881MOL0     C21453   3.113   0.649   4.604 -1.0507 -0.3345 -0.2666
  881MOL0     C21454   3.109   0.574   4.739  0.2838  0.2823 -0.5817
  881MOL0     C21455   3.119   0.655   4.870 -0.0822  0.6130  0.6145
  881MOL0     C21456   3.224   0.763   4.865  0.5711  0.2842 -0.3598
  881MOL0     N21457   3.216   0.836   4.994 -0.4402 -0.6776  0.7187
  881MOL0     C21458   3.256   0.790   5.124  0.2684 -0.6262  0.5174
  881MOL0     C21459   3.252   0.912   5.185  0.2686  0.4167 -0.7998
  881MOL0     C21460   3.281   0.915   5.333  0.3326 -0.2182  0.5115
  881MOL0     C21461   3.155   0.886   5.402  0.6247  0.4164 -0.7831
  881MOL0     C21462   3.166   0.857   5.554  0.3457 -0.9185 -0.4030
  881MOL0     C21463   3.197   0.982   5.638 -0.1318 -0.4584 -0.2010
  881MOL0     O21464   3.101   1.085   5.636 -0.1937  0.0105  0.6285
  881MOL0     C21465   3.133   1.190   5.720  0.1142 -0.0062  0.3534
  881MOL0     C21466   3.257   1.195   5.789 -0.0993  0.5875 -0.0798
  881MOL0     C21467   3.295   1.302   5.860  0.0002 -0.4559 -0.3773
  881MOL0     C21468   3.430   1.307   5.938  0.4961  0.0475  1.2813
  881MOL0     C21469   3.212   1.416   5.864  0.3611  0.2355  0.4452
  881MOL0     C21470   3.234   1.531   5.954  0.0928  1.1180  1.0082
  881MOL0     O21471   3.120   1.615   5.963 -0.5139 -0.2094 -0.1140
  881MOL0     C21472   3.128   1.706   6.062 -0.4150 -0.5835 -0.3723
  881MOL0     C21473   3.153   1.666   6.193  0.1693  0.2231  0.6412
  881MOL0     C21474   3.215   1.762   6.279  1.1574 -0.1159 -0.1869
  881MOL0     C21475   3.229   1.897   6.245  0.5077 -0.8921  0.1927
  881MOL0     O21476   3.297   1.978   6.335  0.0839  0.2160 -0.3679
  881MOL0     C21477   3.378   2.082   6.271  0.8582 -0.0952  0.2464
  881MOL0     C21478   3.408   2.197   6.362  0.0610  0.0765  0.3437
  881MOL0     C21479   3.509   2.289   6.290 -0.0115  0.0718 -0.0800
  881MOL0     C21480   3.483   2.434   6.337 -0.1696 -0.0860 -1.0833
  881MOL0     C21481   3.579   2.530   6.259  0.0489  0.2473 -0.9223
  881MOL0     C21482   3.727   2.521   6.303  0.3828  0.1523 -0.1601
  881MOL0     C21483   3.815   2.627   6.233 -0.5753 -0.8949 -0.5276
  881MOL0     C21484   3.855   2.575   6.095  0.2945 -0.1089  0.3018
  881MOL0    Cl21485   3.889   2.718   5.995 -0.7803  0.2991  0.2526
  881MOL0     C21486   3.183   1.944   6.122  0.8521 -0.1401  0.6231
  881MOL0     C21487   3.123   1.846   6.026  0.3180 -0.4210 -0.4617
  881MOL0     O21488   3.339   1.551   6.014  0.0670  0.5629  0.5676
  881MOL0     C21489   3.086   1.406   5.792 -0.8639  0.1204 -0.0944
  881MOL0     C21490   3.042   1.289   5.729  0.2969  0.1005 -0.6414
  881MOL0     N21491   3.239   1.020   5.096 -0.0521 -0.6348  0.4209
  881MOL0     N21492   3.198   0.973   4.979 -1.3270  0.6414 -0.0700
  881MOL0     C21493   3.334   0.563   3.880 -0.4221 -0.3844 -0.4961
  881MOL0     C21494   3.338   0.535   3.745 -0.4952 -0.0103  0.1832
  881MOL0     C21495   3.253   0.629   3.289  0.4113 -0.9050 -0.3361
  881MOL0     C21496   3.286   0.744   3.205  0.0071  0.3493 -0.4057
  881MOL0     C21497   3.296   0.733   3.068 -0.9140 -0.5910 -0.0088
  881MOL0     C21498   3.273   0.611   3.007  0.3311 -0.4697  0.8345
  881MOL0     O21499   3.313   0.597   2.870  0.1548 -0.7368 -0.3831
  881MOL0     C21500   3.291   0.476   2.813  0.1891 -0.2018  1.1013
  881MOL0     C21501   3.144   0.454   2.769 -0.6549  0.1101  0.2890
  881MOL0     C21502   3.098   0.554   2.659 -0.5579  0.9302 -0.1261
  881MOL0     C21503   3.179   0.560   2.530 -0.2157  0.1448 -0.6653
  881MOL0     C21504   3.135   0.665   2.437 -0.1368  0.2557  0.1224
  881MOL0     C21505   3.073   0.727   2.350  0.1066 -0.1819 -0.3613
  881MOL0     C21506   3.223   0.511   3.083 -0.2125  0.5663  0.2307
  881MOL0     C21507   3.214   0.509   3.218 -0.4357 -0.8748 -0.7360
  881MOL0     C21508   3.159   0.393   3.297 -0.3711  0.1383 -0.3610
  881MOL0     H21509   3.025   0.598   3.652  2.7234 -1.1437 -2.7007
  881MOL0     H21510   2.996   0.665   3.873  0.3524  0.9042 -2.7898
  881MOL0     H21511   2.994   0.600   4.111 -1.0229  1.4606 -0.6429
  881MOL0     H21512   3.040   0.767   4.075 -3.3182 -1.1657  0.8911
  881MOL0     H21513   3.116   0.788   4.321 -4.1500  0.4417  3.1813
  881MOL0     H21514   2.975   0.704   4.328  2.5757  1.8444  2.0088
  881MOL0     H21515   3.158   0.490   4.296 -6.2034  0.3524  0.1154
  881MOL0     H21516   3.256   0.615   4.395 -0.8620 -0.4069  0.9295
  881MOL0     H21517   2.985   0.519   4.475  0.7921 -1.8278  0.2041
  881MOL0     H21518   3.125   0.441   4.504 -2.7716 -1.3918 -2.2763
  881MOL0     H21519   3.049   0.737   4.603  0.8962  1.2370  2.0284
  881MOL0     H21520   3.211   0.695   4.584 -0.4894 -1.4965 -0.2870
  881MOL0     H21521   3.021   0.510   4.739  0.5627 -0.1087 -1.0810
  881MOL0     H21522   3.195   0.506   4.737  0.8697  0.9936 -0.1644
  881MOL0     H21523   3.136   0.592   4.958 -1.8620  0.3147  0.7939
  881MOL0     H21524   3.018   0.694   4.889  0.4932  1.9884  0.9658
  881MOL0     H21525   3.318   0.707   4.862  0.7256  0.5629 -0.9397
  881MOL0     H21526   3.221   0.837   4.784 -2.2266  3.0485  2.0215
  881MOL0     H21527   3.275   0.687   5.150 -2.4165 -1.8107 -1.6914
  881MOL0     H21528   3.316   1.014   5.364 -3.6374  2.1752 -1.8257
  881MOL0     H21529   3.354   0.837   5.359 -0.0088 -1.3160 -1.6052
  881MOL0     H21530   3.090   0.972   5.383  2.7968  2.3789  0.1887
  881MOL0     H21531   3.106   0.795   5.365 -0.8584  1.5453 -1.7278
  881MOL0     H21532   3.078   0.807   5.594  0.2186  0.0860  0.6261
  881MOL0     H21533   3.251   0.788   5.560  0.6239 -0.4911  0.9473
  881MOL0     H21534   3.210   0.947   5.741 -1.4354 -0.7546 -0.1074
  881MOL0     H21535   3.289   1.030   5.605 -1.4273  2.6103  0.2976
  881MOL0     H21536   3.334   1.119   5.784 -0.4758  0.2860 -2.1375
  881MOL0     H21537   3.499   1.376   5.889 -0.5286  1.8212  2.2275
  881MOL0     H21538   3.466   1.205   5.920 -0.8556  0.1454 -3.3906
  881MOL0     H21539   3.415   1.328   6.044  2.1938  1.6913  1.2401
  881MOL0     H21540   3.135   1.565   6.228  0.5458 -0.4868 -1.1451
  881MOL0     H21541   3.251   1.720   6.372 -0.8243 -1.0834  0.2057
  881MOL0     H21542   3.474   2.037   6.242 -0.4339 -1.6818 -1.8707
  881MOL0     H21543   3.340   2.132   6.181 -0.5880 -0.5182  0.6055
  881MOL0     H21544   3.317   2.245   6.398 -0.9677 -1.7992  0.3637
  881MOL0     H21545   3.449   2.159   6.456  0.6772  0.1313  0.1048
  881MOL0     H21546   3.506   2.276   6.181 -0.7126 -1.8910  0.1398
  881MOL0     H21547   3.614   2.262   6.304 -0.3091 -1.5766 -0.8541
  881MOL0     H21548   3.502   2.434   6.444 -1.6934 -0.9356 -0.7765
  881MOL0     H21549   3.377   2.462   6.332  0.1207  0.9637 -1.7569
  881MOL0     H21550   3.565   2.497   6.156  0.2157 -0.3851 -0.7478
  881MOL0     H21551   3.542   2.633   6.266  1.3136  0.7462 -1.3821
  881MOL0     H21552   3.770   2.424   6.275  2.5230  1.3637 -1.3318
  881MOL0     H21553   3.724   2.534   6.411  0.8812  2.0485 -0.3433
  881MOL0     H21554   3.901   2.644   6.299 -1.1107 -2.7606  0.7300
  881MOL0     H21555   3.757   2.720   6.227  1.4317  0.5015  0.4954
  881MOL0     H21556   3.785   2.505   6.049 -0.1593  1.6439 -1.8740
  881MOL0     H21557   3.952   2.528   6.111 -0.6799 -2.3827 -0.1433
  881MOL0     H21558   3.173   2.049   6.096 -1.3056 -0.1304  1.2892
  881MOL0     H21559   3.079   1.878   5.932 -2.7066 -3.2280 -0.1896
  881MOL0     H21560   3.008   1.482   5.793 -0.0731  0.9454 -0.0857
  881MOL0     H21561   2.942   1.291   5.686 -0.9735  0.0445  2.1305
  881MOL0     H21562   3.422   0.552   3.942  1.2466  0.2745 -2.6233
  881MOL0     H21563   3.430   0.484   3.719  1.5848  2.4586  2.1859
  881MOL0     H21564   3.295   0.845   3.243  1.1391  0.4606 -0.9340
  881MOL0     H21565   3.353   0.802   3.005 -0.3402 -1.5176 -0.5288
  881MOL0     H21566   3.358   0.469   2.727 -1.9834 -1.9178 -0.5334
  881MOL0     H21567   3.331   0.400   2.881  3.4817  0.4981  0.1519
  881MOL0     H21568   3.081   0.451   2.858  3.4360  0.9024  3.4970
  881MOL0     H21569   3.123   0.360   2.717 -3.3600  1.5068 -1.3830
  881MOL0     H21570   2.997   0.522   2.630  0.6914 -1.7290 -1.9937
  881MOL0     H21571   3.086   0.651   2.706 -1.8470  0.0860  1.3944
  881MOL0     H21572   3.173   0.464   2.478  0.2148  0.0307 -0.5055
  881MOL0     H21573   3.285   0.581   2.543 -0.3544  1.1445 -1.0393
  881MOL0     H21574   3.039   0.784   2.266 -0.1029 -3.0773 -2.3861
  881MOL0     H21575   3.183   0.421   3.039 -1.3280  1.5074 -0.7644
  881MOL0     H21576   3.090   0.425   3.376  0.9527 -0.7516  1.2302
  881MOL0     H21577   3.103   0.328   3.229  1.2114 -0.1243 -1.4798
  881MOL0     H21578   3.239   0.328   3.335 -0.8886 -2.2956 -3.0454
  882MOL0     O21579   1.564  11.043   0.369  0.7580  0.3518  0.2755
  882MOL0     C21580   1.486  11.127   0.332  1.0755  0.0096 -0.2717
  882MOL0     O21581   1.517  11.262   0.317  0.0620 -0.4587  0.4798
  882MOL0     C21582   1.649  11.285   0.274 -0.0649  0.8477  0.2165
  882MOL0     C21583   1.687  11.250   0.146 -0.6295 -0.8263 -0.1446
  882MOL0     C21584   1.823  11.286   0.110  0.1329 -0.5385  0.9490
  882MOL0     C21585   1.908  11.366   0.188 -0.2175 -0.8339 -0.3679
  882MOL0     O21586   2.022  11.418   0.125  0.8507  0.0230 -0.3560
  882MOL0     C21587   2.072  11.553   0.152 -0.3368  0.3633  0.5058
  882MOL0     C21588   1.975  11.651   0.091  0.2575 -0.1959  0.3309
  882MOL0     C21589   2.025  11.797   0.117  0.1494  0.1332 -0.0556
  882MOL0     C21590   2.044  11.835   0.260  0.0819 -0.0409 -0.2030
  882MOL0     C21591   1.924  11.789   0.342  0.7426  0.5363  0.5243
  882MOL0     C21592   1.919  11.866   0.478 -0.0889 -0.6662 -0.0099
  882MOL0     C21593   2.045  11.857   0.562  0.3741 -0.8680 -0.1131
  882MOL0     C21594   2.050  11.711   0.616 -0.5442 -0.5434  0.0087
  882MOL0     N21595   1.929  11.671   0.680 -0.7349 -0.6246 -0.4650
  882MOL0     C21596   1.855  11.735   0.776  0.5606 -0.7364 -0.5791
  882MOL0     C21597   1.746  11.663   0.803  0.8552 -0.2097  0.0963
  882MOL0     C21598   1.637  11.699   0.898  0.5257  0.2458  0.2923
  882MOL0     C21599   1.648  11.628   1.032  0.1179  0.4468  0.3178
  882MOL0     C21600   1.546  11.680   1.141 -0.6324 -0.1077 -0.8412
  882MOL0     C21601   1.402  11.654   1.101  0.0229  0.9767 -0.4999
  882MOL0     O21602   1.380  11.512   1.072 -0.3415  0.5608 -0.0559
  882MOL0     C21603   1.257  11.471   1.022  0.4882  0.9498 -0.4442
  882MOL0     C21604   1.132  11.527   1.035 -0.1438 -0.6788 -0.4615
  882MOL0     C21605   1.017  11.485   0.977  0.3177  0.7546  1.0086
  882MOL0     C21606   0.884  11.564   1.008  0.1998  0.4448  0.4305
  882MOL0     C21607   1.015  11.366   0.897 -0.0248 -1.4077  0.1485
  882MOL0     C21608   0.898  11.299   0.830  0.0862  0.3975  0.4564
  882MOL0     O21609   0.921  11.190   0.745 -0.2965 -0.3495 -0.1694
  882MOL0     C21610   0.811  11.105   0.747 -0.3059  0.2630 -0.7639
  882MOL0     C21611   0.694  11.118   0.664 -0.0362  0.3005 -0.7803
  882MOL0     C21612   0.589  11.025   0.677  0.5070  0.8614  0.1987
  882MOL0     C21613   0.612  10.903   0.741  0.6112 -0.3612 -0.7537
  882MOL0     O21614   0.511  10.812   0.751  0.3443 -0.8103 -0.3508
  882MOL0     C21615   0.430  10.795   0.871  0.7188 -0.4179  0.8931
  882MOL0     C21616   0.295  10.866   0.835 -0.4237  0.9282  0.1725
  882MOL0     C21617   0.218  10.892   0.965 -0.5113 -0.3159 -0.2048
  882MOL0     C21618   0.079  10.946   0.932 -0.3475 -0.0738 -0.0735
  882MOL0     C21619  -0.008  10.973   1.056 -0.1487  0.1501 -0.4066
  882MOL0     C21620  -0.138  11.047   1.025 -0.8604 -0.5495  0.1087
  882MOL0     C21621  -0.110  11.196   1.028 -0.1385  0.3374 -0.0775
  882MOL0     C21622  -0.245  11.284   1.015 -0.8808  0.3540  0.6798
  882MOL0    Cl21623  -0.347  11.277   1.159  0.0606  0.3414 -0.2164
  882MOL0     C21624   0.734  10.881   0.811  0.2961  0.1829  0.6771
  882MOL0     C21625   0.825  10.991   0.823 -0.7165  0.7349  1.0141
  882MOL0     O21626   0.785  11.346   0.842 -0.1356  0.1936  0.1095
  882MOL0     C21627   1.144  11.309   0.880  1.0807 -0.0085  0.1061
  882MOL0     C21628   1.260  11.362   0.939  0.4664  0.8757  0.1299
  882MOL0     N21629   1.737  11.570   0.705 -0.0757 -0.2453  0.2107
  882MOL0     N21630   1.854  11.571   0.643  0.8975  0.5467  0.4100
  882MOL0     C21631   1.860  11.401   0.308 -0.1177  0.0531 -0.6753
  882MOL0     C21632   1.732  11.355   0.357  0.6295 -0.0106 -0.0669
  882MOL0     C21633   1.355  11.088   0.275  0.0136  0.6731  0.9511
  882MOL0     C21634   1.280  11.182   0.204 -0.8434 -0.6578  1.4186
  882MOL0     C21635   1.146  11.175   0.169 -0.4382 -0.4369 -0.2551
  882MOL0     C21636   1.085  11.050   0.190  0.1549  0.0093 -0.3112
  882MOL0     O21637   0.948  11.030   0.146 -0.4434  0.3013 -0.7113
  882MOL0     C21638   0.862  10.939   0.222  0.4457 -0.7924  0.0517
  882MOL0     C21639   0.714  10.947   0.175  0.9145 -1.0636  0.5578
  882MOL0     C21640   0.623  11.060   0.252 -0.2424 -0.5805 -0.0291
  882MOL0     C21641   0.667  11.209   0.221  0.0458  0.1694  0.1912
  882MOL0     C21642   0.600  11.306   0.316 -0.6622  1.3841 -0.3798
  882MOL0     C21643   0.555  11.381   0.391  0.9301  0.3453  0.0895
  882MOL0     C21644   1.156  10.946   0.260 -0.4132  0.2796 -0.2673
  882MOL0     C21645   1.286  10.963   0.304 -1.5281 -0.1288 -0.7955
  882MOL0     C21646   1.354  10.845   0.377 -0.1270 -0.4076 -0.7413
  882MOL0     H21647   1.628  11.210   0.064 -1.1570 -0.8661  0.2530
  882MOL0     H21648   1.847  11.289   0.004 -3.6249  0.4995 -0.0225
  882MOL0     H21649   2.169  11.560   0.101 -0.8813 -2.3327 -1.1048
  882MOL0     H21650   2.089  11.573   0.258 -3.1433  1.3165  0.8439
  882MOL0     H21651   1.966  11.627  -0.015 -0.3407  0.0929  0.3160
  882MOL0     H21652   1.881  11.649   0.147  0.9461 -0.9081  1.5141
  882MOL0     H21653   2.120  11.817   0.066 -0.1964  1.8328 -0.0833
  882MOL0     H21654   1.955  11.867   0.070 -0.7586 -0.7369 -0.0163
  882MOL0     H21655   2.136  11.794   0.305 -0.2572  2.5943  3.3770
  882MOL0     H21656   2.060  11.943   0.264 -2.7446  0.4138  2.4544
  882MOL0     H21657   1.922  11.681   0.357 -1.5071  0.3297 -0.7708
  882MOL0     H21658   1.838  11.815   0.280  1.9127  1.1595 -0.9150
  882MOL0     H21659   1.919  11.971   0.446  2.3915 -0.2472  1.1682
  882MOL0     H21660   1.824  11.844   0.527 -1.0614 -2.8517 -2.6089
  882MOL0     H21661   2.032  11.932   0.639  3.0740 -0.1032 -0.2825
  882MOL0     H21662   2.138  11.887   0.512  0.5366  1.9023  1.6868
  882MOL0     H21663   2.073  11.650   0.529  0.2349  0.7324 -0.7063
  882MOL0     H21664   2.132  11.689   0.685 -2.5757 -1.8753  2.1795
  882MOL0     H21665   1.886  11.823   0.832 -0.2440  1.0455 -2.7340
  882MOL0     H21666   1.543  11.674   0.847 -0.7172  2.3580  1.4080
  882MOL0     H21667   1.635  11.807   0.914  0.4144 -0.1512  3.8457
  882MOL0     H21668   1.640  11.522   1.009 -3.9939  0.6254  0.2680
  882MOL0     H21669   1.751  11.653   1.063  1.5361 -3.4827 -0.6678
  882MOL0     H21670   1.570  11.631   1.236 -3.0547 -0.9693 -0.6033
  882MOL0     H21671   1.557  11.788   1.152 -0.8391 -0.1459 -0.2278
  882MOL0     H21672   1.335  11.675   1.185 -0.6704 -2.9585  0.0961
  882MOL0     H21673   1.367  11.704   1.010  0.0262  0.7723 -0.6149
  882MOL0     H21674   1.126  11.613   1.101  0.4195 -2.4379  2.0456
  882MOL0     H21675   0.811  11.490   1.042 -0.4113  1.9694  2.6131
  882MOL0     H21676   0.850  11.618   0.918 -2.3491 -1.8993 -0.1477
  882MOL0     H21677   0.893  11.635   1.091  1.0548  1.2724 -0.3477
  882MOL0     H21678   0.682  11.220   0.629 -0.7525  0.1963 -0.8424
  882MOL0     H21679   0.493  11.047   0.631  1.0104  0.5015 -1.0510
  882MOL0     H21680   0.421  10.689   0.897 -4.8245  0.8967  7.2164
  882MOL0     H21681   0.481  10.854   0.947  0.7173  5.2287 -2.9114
  882MOL0     H21682   0.312  10.955   0.774  2.3742  0.7507  0.5924
  882MOL0     H21683   0.246  10.802   0.762  0.4002  2.2461 -1.5908
  882MOL0     H21684   0.275  10.964   1.025 -1.3232  0.5134 -0.4132
  882MOL0     H21685   0.208  10.801   1.025  0.7018 -1.3252 -1.4642
  882MOL0     H21686   0.023  10.882   0.863  1.8770 -1.2846 -0.8763
  882MOL0     H21687   0.090  11.044   0.885  2.3395 -1.1670 -1.9941
  882MOL0     H21688  -0.021  10.881   1.114  2.0178 -0.3317 -0.5719
  882MOL0     H21689   0.053  11.028   1.128  0.7754 -1.9676  0.5131
  882MOL0     H21690  -0.202  11.032   1.112  1.1475  2.4404  2.2860
  882MOL0     H21691  -0.178  11.019   0.927  1.7653 -2.5837 -0.4600
  882MOL0     H21692  -0.050  11.222   0.940 -0.8121  0.0742 -0.6283
  882MOL0     H21693  -0.064  11.214   1.125  3.9410 -2.5284 -1.2126
  882MOL0     H21694  -0.299  11.272   0.920 -0.3716  0.8552  0.3232
  882MOL0     H21695  -0.217  11.390   1.019 -3.7210  1.1586  1.6922
  882MOL0     H21696   0.749  10.780   0.848 -2.1838 -1.0845 -1.4449
  882MOL0     H21697   0.922  10.971   0.868  0.7060 -1.0293 -2.4387
  882MOL0     H21698   1.159  11.226   0.812  0.2033 -0.0574 -0.0304
  882MOL0     H21699   1.353  11.310   0.919 -0.6416 -0.9815 -0.3982
  882MOL0     H21700   1.933  11.442   0.377  0.4784 -1.7282 -0.1847
  882MOL0     H21701   1.718  11.380   0.462 -0.5009  2.8394 -0.7989
  882MOL0     H21702   1.327  11.280   0.196 -0.6574 -0.5270  3.5757
  882MOL0     H21703   1.088  11.242   0.107  0.4370 -1.7307 -2.6268
  882MOL0     H21704   0.904  10.838   0.219 -0.4741 -1.2020 -3.0966
  882MOL0     H21705   0.864  10.969   0.327 -0.4857  2.7881 -0.8211
  882MOL0     H21706   0.671  10.847   0.174  2.9309 -2.0062  1.5876
  882MOL0     H21707   0.725  10.984   0.072 -0.3869 -0.5278  0.5858
  882MOL0     H21708   0.520  11.054   0.216  0.6381 -3.5567 -2.4154
  882MOL0     H21709   0.616  11.052   0.361  0.7203 -0.1678  0.0735
  882MOL0     H21710   0.629  11.233   0.122  0.7413 -1.3264 -0.4789
  882MOL0     H21711   0.775  11.228   0.221  0.3198 -0.5450 -3.9451
  882MOL0     H21712   0.507  11.437   0.469 -2.6699 -2.4995  0.1760
  882MOL0     H21713   1.100  10.855   0.278  1.5039 -0.9908 -0.4409
  882MOL0     H21714   1.384  10.895   0.470 -0.1903  1.0458 -1.4623
  882MOL0     H21715   1.290  10.761   0.407 -1.3700  0.5960 -0.4718
  882MOL0     H21716   1.442  10.803   0.328  3.0913  2.3315  2.1493
  883MOL0     O21717   2.307   0.826   7.542 -0.2021  0.3683 -0.8407
  883MOL0     C21718   2.366   0.720   7.574  0.3220 -0.1981 -0.3498
  883MOL0     O21719   2.354   0.662   7.703  0.5197 -0.2701  0.6217
  883MOL0     C21720   2.318   0.751   7.801  0.3866  0.2362 -0.6758
  883MOL0     C21721   2.203   0.740   7.878 -0.4574  0.2231  0.3579
  883MOL0     C21722   2.184   0.824   7.989  0.7872  0.4656 -0.1986
  883MOL0     C21723   2.275   0.926   8.019 -0.1638 -0.0014 -0.1476
  883MOL0     O21724   2.245   1.011   8.122  0.5331 -0.0460  0.2541
  883MOL0     C21725   2.304   1.145   8.132  0.3146  0.4502  0.0548
  883MOL0     C21726   2.275   1.206   8.266  0.0347 -0.3778  0.2059
  883MOL0     C21727   2.318   1.358   8.262  0.3362 -0.2693 -0.2897
  883MOL0     C21728   2.193   1.436   8.285  0.9272 -0.0331 -0.5318
  883MOL0     C21729   2.226   1.571   8.346 -0.5513 -0.3530 -0.0094
  883MOL0     C21730   2.092   1.655   8.368  0.6328 -0.0151  0.3515
  883MOL0     C21731   1.997   1.613   8.480 -0.6803 -0.2676 -0.5246
  883MOL0     C21732   2.060   1.569   8.611 -0.1302 -0.5232 -0.8229
  883MOL0     N21733   2.116   1.684   8.671  0.9256  0.0239 -0.3371
  883MOL0     C21734   2.027   1.777   8.734  0.0344  0.0227  0.3375
  883MOL0     C21735   2.110   1.883   8.745 -1.1088 -0.1035 -0.0328
  883MOL0     C21736   2.109   2.021   8.807 -0.9466  0.1736  0.2187
  883MOL0     C21737   1.970   2.053   8.849 -0.6642  0.0171 -0.3009
  883MOL0     C21738   1.960   2.204   8.893  0.0883 -0.1417 -0.0892
  883MOL0     C21739   1.934   2.293   8.765 -0.5488  0.1498 -0.3210
  883MOL0     O21740   2.044   2.328   8.680 -0.3314 -0.6542  0.0591
  883MOL0     C21741   2.015   2.387   8.560  0.8952 -1.4010  0.3543
  883MOL0     C21742   2.101   2.357   8.466  1.2183 -0.6740 -1.0581
  883MOL0     C21743   2.100   2.414   8.340  0.4421 -0.8354 -0.8736
  883MOL0     C21744   2.176   2.348   8.232 -0.3512  0.0920  0.1396
  883MOL0     C21745   2.019   2.528   8.314 -0.5404 -1.0159 -0.1085
  883MOL0     C21746   2.025   2.609   8.187  0.1281 -0.6801 -0.8141
  883MOL0     O21747   1.910   2.676   8.154  0.4476  0.7652 -0.2965
  883MOL0     C21748   1.911   2.742   8.033 -0.3472  1.0563  0.4256
  883MOL0     C21749   2.007   2.825   7.975 -0.2155  0.9753  0.1914
  883MOL0     C21750   1.975   2.913   7.866  0.0657 -0.1570  0.1854
  883MOL0     C21751   1.841   2.926   7.825 -0.5771 -0.8637  0.9635
  883MOL0     O21752   1.790   2.999   7.718 -0.0263  0.2153  0.1210
  883MOL0     C21753   1.849   3.118   7.666 -0.4116  0.2435  0.1885
  883MOL0     C21754   1.744   3.230   7.661 -0.4359  0.1991 -0.5776
  883MOL0     C21755   1.687   3.288   7.789  0.6113 -0.6311 -0.2628
  883MOL0     C21756   1.792   3.376   7.858  0.6602  0.2515 -0.4241
  883MOL0     C21757   1.767   3.419   8.004 -0.1437 -0.4442 -0.0335
  883MOL0     C21758   1.877   3.492   8.078 -0.1893 -0.6541  0.3171
  883MOL0     C21759   2.004   3.404   8.101  0.2084 -0.3152  0.3817
  883MOL0     C21760   2.126   3.491   8.137  0.1588 -0.1109 -0.1626
  883MOL0    Cl21761   2.087   3.604   8.271  0.2334  0.2189  0.2963
  883MOL0     C21762   1.745   2.848   7.882 -0.0315  0.3196 -0.5694
  883MOL0     C21763   1.778   2.755   7.984  0.2807 -0.0818 -0.7633
  883MOL0     O21764   2.131   2.629   8.140  0.0654  0.4602  0.0896
  883MOL0     C21765   1.918   2.553   8.404 -0.1723 -0.7805  0.2498
  883MOL0     C21766   1.921   2.487   8.530 -0.4679 -0.3277 -0.2683
  883MOL0     N21767   2.231   1.843   8.684  0.6605 -0.2290 -0.3607
  883MOL0     N21768   2.240   1.719   8.652  0.2003  0.4126  0.1605
  883MOL0     C21769   2.388   0.929   7.946  1.3141 -1.4013 -0.2527
  883MOL0     C21770   2.410   0.846   7.840 -0.2150  0.7547  0.3596
  883MOL0     C21771   2.466   0.655   7.482  0.5630  0.2247 -0.9796
  883MOL0     C21772   2.493   0.515   7.496 -1.6647 -1.0020  0.1450
  883MOL0     C21773   2.578   0.448   7.406 -0.8859  0.4727 -0.0023
  883MOL0     C21774   2.642   0.515   7.307 -0.5127 -0.2147  0.8538
  883MOL0     O21775   2.728   0.436   7.240  0.2079  0.2818 -0.3043
  883MOL0     C21776   2.769   0.469   7.096 -0.1487 -0.6252 -0.3319
  883MOL0     C21777   2.691   0.382   7.008  1.1994 -0.2693  0.3285
  883MOL0     C21778   2.649   0.441   6.863 -0.1654 -0.8649  0.0974
  883MOL0     C21779   2.732   0.386   6.750  0.6214 -0.8503 -0.7440
  883MOL0     C21780   2.878   0.402   6.767  0.4212  1.3863  0.1329
  883MOL0     C21781   2.996   0.433   6.774  0.0672 -0.5683  0.6026
  883MOL0     C21782   2.624   0.654   7.292  1.1402  0.0672 -0.0008
  883MOL0     C21783   2.535   0.729   7.386 -0.4926  0.9502 -0.5850
  883MOL0     C21784   2.527   0.878   7.374  0.3855 -0.4723 -0.6403
  883MOL0     H21785   2.126   0.674   7.839 -1.2683 -0.2740  2.6193
  883MOL0     H21786   2.102   0.811   8.058  1.9628  0.9379  1.3290
  883MOL0     H21787   2.258   1.194   8.045 -0.0960 -4.1396 -2.6237
  883MOL0     H21788   2.413   1.140   8.126  0.2302 -0.1344 -1.7156
  883MOL0     H21789   2.170   1.192   8.293 -0.4560 -0.9222 -1.8129
  883MOL0     H21790   2.330   1.150   8.342  2.8466 -0.0393 -1.4246
  883MOL0     H21791   2.392   1.374   8.341 -2.5721 -0.4496  2.6882
  883MOL0     H21792   2.370   1.397   8.174  1.7054 -0.1262  0.5576
  883MOL0     H21793   2.135   1.460   8.196  0.2743 -1.8192 -0.6356
  883MOL0     H21794   2.126   1.384   8.354  0.8179 -1.5550 -1.7406
  883MOL0     H21795   2.293   1.627   8.279 -0.7514 -2.1259 -1.8015
  883MOL0     H21796   2.273   1.559   8.444 -3.4715 -2.5163  1.2922
  883MOL0     H21797   2.117   1.757   8.398 -1.6679 -0.0894  2.9030
  883MOL0     H21798   2.034   1.654   8.276 -0.0011 -6.4531  0.3404
  883MOL0     H21799   1.938   1.529   8.441 -4.3367  1.9241 -0.1572
  883MOL0     H21800   1.929   1.698   8.479 -0.4440 -0.0865 -1.0399
  883MOL0     H21801   1.981   1.547   8.684 -1.6128  2.3149 -1.4314
  883MOL0     H21802   2.128   1.484   8.610 -0.1331 -0.5800  0.7101
  883MOL0     H21803   1.928   1.769   8.778 -0.2733 -0.3729 -0.3998
  883MOL0     H21804   2.153   2.095   8.739  0.4646 -0.7385  0.1014
  883MOL0     H21805   2.182   2.020   8.888  1.5089 -2.3462 -1.8327
  883MOL0     H21806   1.895   2.028   8.773  1.6967 -1.1988 -2.3757
  883MOL0     H21807   1.947   1.989   8.935 -0.1363 -0.2935 -0.3877
  883MOL0     H21808   1.873   2.219   8.957  1.1902  1.5985  1.0977
  883MOL0     H21809   2.051   2.240   8.941  1.2642 -3.1206  0.1436
  883MOL0     H21810   1.851   2.242   8.714  0.2718 -4.6998  2.5300
  883MOL0     H21811   1.899   2.384   8.815 -0.2784 -1.5304  3.2295
  883MOL0     H21812   2.178   2.288   8.499  0.9945  0.9781  3.7183
  883MOL0     H21813   2.265   2.410   8.217 -0.8554  0.3759 -2.0984
  883MOL0     H21814   2.138   2.353   8.130  1.6661 -0.2350 -0.6796
  883MOL0     H21815   2.216   2.248   8.250 -0.9723 -0.9248 -3.3812
  883MOL0     H21816   2.103   2.828   8.026 -1.0273 -1.7551  2.1273
  883MOL0     H21817   2.047   2.981   7.821  1.7319 -1.0105  1.4218
  883MOL0     H21818   1.922   3.154   7.739 -0.2998  0.4955 -0.0475
  883MOL0     H21819   1.878   3.103   7.562 -2.1325 -0.1046 -0.2716
  883MOL0     H21820   1.776   3.310   7.593 -0.2381 -0.0728 -0.8030
  883MOL0     H21821   1.659   3.192   7.603 -2.8366  0.8681  2.2306
  883MOL0     H21822   1.643   3.213   7.856 -1.9993 -0.3564 -1.5559
  883MOL0     H21823   1.606   3.360   7.775 -0.3798 -1.6491  0.0898
  883MOL0     H21824   1.781   3.467   7.797  0.3010 -0.1337 -0.9519
  883MOL0     H21825   1.892   3.334   7.854  0.2408 -0.9061  0.6465
  883MOL0     H21826   1.673   3.475   8.009  0.9284  1.4158 -0.1236
  883MOL0     H21827   1.755   3.331   8.067  0.3011  0.9154  2.0177
  883MOL0     H21828   1.832   3.512   8.176 -0.8148 -0.9551  0.0913
  883MOL0     H21829   1.898   3.594   8.043 -4.1949  0.2542  0.1238
  883MOL0     H21830   2.037   3.349   8.013  1.4641 -1.6114  1.6238
  883MOL0     H21831   1.975   3.333   8.178 -1.3342  0.5388  0.6366
  883MOL0     H21832   2.147   3.553   8.050 -1.0987 -0.5204 -0.7944
  883MOL0     H21833   2.210   3.425   8.159  1.7795  2.1822  0.8364
  883MOL0     H21834   1.640   2.840   7.853  0.3904 -3.1602 -1.5354
  883MOL0     H21835   1.696   2.705   8.035  0.1011  2.2641  1.4175
  883MOL0     H21836   1.845   2.631   8.385  0.6205  0.3201  1.5106
  883MOL0     H21837   1.864   2.540   8.606  1.0487  2.7950 -1.1182
  883MOL0     H21838   2.460   1.008   7.962  0.1563 -0.2899 -0.2981
  883MOL0     H21839   2.498   0.864   7.779  0.2029 -2.2121 -0.0431
  883MOL0     H21840   2.444   0.450   7.568 -2.6131 -2.3037 -1.6170
  883MOL0     H21841   2.596   0.341   7.415  0.0189  0.2792 -3.1690
  883MOL0     H21842   2.747   0.573   7.071  0.4726 -0.6576 -1.0443
  883MOL0     H21843   2.875   0.447   7.080  0.0639 -0.0598  0.2537
  883MOL0     H21844   2.599   0.352   7.059  2.2727 -0.6114  2.1361
  883MOL0     H21845   2.751   0.294   6.984  1.7833  0.2183 -0.0327
  883MOL0     H21846   2.545   0.411   6.849  0.2940 -3.5276  1.7220
  883MOL0     H21847   2.653   0.550   6.856 -0.5643 -0.8260  0.4276
  883MOL0     H21848   2.710   0.437   6.656 -1.0806  1.0177  0.5954
  883MOL0     H21849   2.703   0.280   6.757 -4.0937  0.3154  1.4711
  883MOL0     H21850   3.100   0.458   6.770  0.0706 -0.6797 -0.3496
  883MOL0     H21851   2.678   0.710   7.216 -1.8437  1.4737 -1.2456
  883MOL0     H21852   2.626   0.912   7.345  1.5177 -2.1215  1.0480
  883MOL0     H21853   2.450   0.901   7.300  1.0537  1.5246 -0.7741
  883MOL0     H21854   2.506   0.931   7.468 -2.1806 -3.4039  0.6570
  884MOL0     O21855   1.376   3.459   1.611 -0.0783  0.4493  0.3835
  884MOL0     C21856   1.334   3.490   1.725  0.3726  0.6881  0.6675
  884MOL0     O21857   1.277   3.607   1.767  0.9820 -0.6640 -0.4900
  884MOL0     C21858   1.244   3.694   1.658 -0.5665 -0.0153 -0.1260
  884MOL0     C21859   1.341   3.742   1.574 -0.0498  0.2287  0.8409
  884MOL0     C21860   1.308   3.817   1.453  0.0308  0.7546 -0.0344
  884MOL0     C21861   1.183   3.855   1.433 -0.1586  0.0436 -0.3451
  884MOL0     O21862   1.157   3.922   1.314 -0.4750  0.0210  0.5339
  884MOL0     C21863   1.074   4.041   1.312 -0.3978  0.0090 -0.2267
  884MOL0     C21864   1.101   4.137   1.193 -0.0905  0.2595 -0.0408
  884MOL0     C21865   1.097   4.278   1.236 -0.0662  0.3410  0.2236
  884MOL0     C21866   1.059   4.367   1.114  0.6980  0.3220 -0.1688
  884MOL0     C21867   0.901   4.370   1.090 -0.4916 -0.1830 -0.3088
  884MOL0     C21868   0.861   4.486   0.999  0.1715  0.6028  1.0330
  884MOL0     C21869   0.716   4.507   0.982  0.2224  0.4030  0.1995
  884MOL0     C21870   0.664   4.407   0.877  0.5656 -0.1391 -0.8841
  884MOL0     N21871   0.529   4.445   0.832 -0.6075 -0.2535  0.5974
  884MOL0     C21872   0.421   4.361   0.829  0.9657  0.0771 -0.8236
  884MOL0     C21873   0.348   4.408   0.726 -0.1501  0.1787  0.0621
  884MOL0     C21874   0.217   4.352   0.688  0.0855 -0.6723 -0.7909
  884MOL0     C21875   0.220   4.255   0.560  0.4376  0.6460 -0.1341
  884MOL0     C21876   0.277   4.331   0.442  0.3249 -0.2096  0.0809
  884MOL0     C21877   0.254   4.257   0.308  0.2743  0.0834  0.2474
  884MOL0     O21878   0.303   4.332   0.198 -0.8836 -0.4306 -0.3618
  884MOL0     C21879   0.441   4.341   0.168 -0.8155  0.8756  0.0696
  884MOL0     C21880   0.487   4.424   0.059 -0.6750 -0.2985 -0.3696
  884MOL0     C21881   0.626   4.415   0.022  0.7586 -0.1595  0.3057
  884MOL0     C21882   0.653   4.497  -0.100 -1.0802  0.0723 -0.5855
  884MOL0     C21883   0.719   4.324   0.084 -0.1478  0.7374  0.0107
  884MOL0     C21884   0.872   4.323   0.047 -0.9046  0.3424 -0.4044
  884MOL0     O21885   0.916   4.379  -0.067  0.5847 -0.8479  0.2270
  884MOL0     C21886   1.050   4.378  -0.105  0.1333  0.0643 -0.3534
  884MOL0     C21887   1.079   4.284  -0.200 -0.6539  0.3135  0.8112
  884MOL0     C21888   1.215   4.253  -0.229 -0.2467 -0.3754 -0.1590
  884MOL0     C21889   1.316   4.338  -0.180 -0.0306  0.8941 -0.1396
  884MOL0     O21890   1.448   4.328  -0.210  0.2525  1.7123 -0.2299
  884MOL0     C21891   1.529   4.235  -0.134 -0.6231  0.9289  0.2134
  884MOL0     C21892   1.607   4.309  -0.023  0.7992  0.3158  0.4118
  884MOL0     C21893   1.701   4.206   0.057  0.1324  0.0014 -0.1285
  884MOL0     C21894   1.811   4.255   0.143 -0.5653 -0.3760  0.0406
  884MOL0     C21895   1.946   4.171   0.131  0.9626  0.3804  0.6916
  884MOL0     C21896   2.043   4.202   0.247  0.8040 -0.5269  0.2079
  884MOL0     C21897   2.185   4.133   0.229 -0.2758  0.6212  0.1980
  884MOL0     C21898   2.282   4.196   0.335  0.9502 -0.0854  0.3931
  884MOL0    Cl21899   2.201   4.209   0.496 -0.2405 -0.4187 -0.1706
  884MOL0     C21900   1.274   4.444  -0.100  0.0628  1.3024 -0.4185
  884MOL0     C21901   1.144   4.465  -0.051 -0.6244  0.2792 -0.2181
  884MOL0     O21902   0.950   4.266   0.128  0.3189 -0.0099 -0.3193
  884MOL0     C21903   0.666   4.228   0.180  0.4601 -0.4408  0.2143
  884MOL0     C21904   0.534   4.244   0.231 -1.0941 -0.1855  0.5676
  884MOL0     N21905   0.405   4.526   0.691  0.4250  0.2065 -0.2232
  884MOL0     N21906   0.514   4.540   0.745  0.4124 -0.0002  0.6226
  884MOL0     C21907   1.083   3.817   1.533  0.4166 -1.3096 -0.4345
  884MOL0     C21908   1.115   3.730   1.636  0.2271  1.2659  0.5679
  884MOL0     C21909   1.352   3.386   1.833  0.2477  0.4689  0.6793
  884MOL0     C21910   1.438   3.281   1.801 -1.1921 -0.5054  0.2587
  884MOL0     C21911   1.484   3.192   1.894  0.2285  0.3751 -0.4025
  884MOL0     C21912   1.437   3.195   2.020  0.0396 -0.3444 -0.7111
  884MOL0     O21913   1.488   3.101   2.102  0.0230 -0.1870  0.4498
  884MOL0     C21914   1.527   3.132   2.231  0.2700 -0.0686 -0.1463
  884MOL0     C21915   1.676   3.084   2.251  0.1542  1.2941 -0.6963
  884MOL0     C21916   1.700   3.098   2.404  0.3284 -0.3679 -0.7383
  884MOL0     C21917   1.842   3.061   2.434 -0.8261 -0.2672 -0.0741
  884MOL0     C21918   1.938   3.153   2.365  0.0982 -0.0141 -0.4054
  884MOL0     C21919   2.036   3.200   2.319 -0.4482  0.1521  0.1838
  884MOL0     C21920   1.352   3.298   2.059  0.0800  1.1843  0.3138
  884MOL0     C21921   1.298   3.390   1.963  1.0141 -0.1901  0.1884
  884MOL0     C21922   1.214   3.499   2.014 -0.4248  0.1541  0.2154
  884MOL0     H21923   1.447   3.735   1.593  0.1501 -2.4235 -0.7178
  884MOL0     H21924   1.385   3.842   1.381 -2.7955  2.3802 -2.7650
  884MOL0     H21925   1.100   4.083   1.410 -0.6969  1.8849 -0.9244
  884MOL0     H21926   0.967   4.020   1.300 -0.5429  1.5909 -2.1400
  884MOL0     H21927   1.199   4.115   1.150 -0.3361  0.5661 -0.7740
  884MOL0     H21928   1.028   4.100   1.120  2.1744 -1.8458 -1.3993
  884MOL0     H21929   1.024   4.296   1.315 -0.9746  0.0456 -0.5253
  884MOL0     H21930   1.190   4.321   1.274  0.3670 -0.3361 -0.0491
  884MOL0     H21931   1.093   4.468   1.141 -1.3083  0.7565  1.0112
  884MOL0     H21932   1.107   4.328   1.024 -1.7386 -2.0287 -0.5684
  884MOL0     H21933   0.861   4.393   1.189  0.5406  1.2814 -0.1852
  884MOL0     H21934   0.869   4.271   1.058 -1.9552  0.1898 -0.0797
  884MOL0     H21935   0.896   4.576   1.052 -0.0178 -0.2564  2.6756
  884MOL0     H21936   0.913   4.486   0.903  2.8697 -0.5639  2.3677
  884MOL0     H21937   0.690   4.605   0.940 -0.1644 -0.9951 -3.1711
  884MOL0     H21938   0.662   4.493   1.076  0.0570  3.0995  0.5770
  884MOL0     H21939   0.732   4.405   0.791  2.3586  5.6716 -0.0563
  884MOL0     H21940   0.650   4.308   0.922  1.2201 -1.7976 -4.0085
  884MOL0     H21941   0.409   4.265   0.877  2.7580 -0.3755 -1.2375
  884MOL0     H21942   0.138   4.423   0.661 -1.3977 -1.6395  0.7682
  884MOL0     H21943   0.185   4.293   0.775 -0.8976  0.2577 -0.4948
  884MOL0     H21944   0.275   4.164   0.585 -2.0623 -0.7460  0.5949
  884MOL0     H21945   0.121   4.222   0.530  0.7909 -2.4941  1.6951
  884MOL0     H21946   0.229   4.427   0.426 -2.5875 -1.2405  1.9415
  884MOL0     H21947   0.384   4.350   0.458  0.3528 -0.4689  0.2127
  884MOL0     H21948   0.290   4.154   0.318  0.0681 -0.7088 -4.8615
  884MOL0     H21949   0.148   4.264   0.284  0.5839  0.0086 -1.2041
  884MOL0     H21950   0.416   4.489   0.010  0.1190 -1.7729 -3.8008
  884MOL0     H21951   0.712   4.443  -0.175 -0.4846 -3.6382  2.3012
  884MOL0     H21952   0.721   4.578  -0.070  1.1082 -1.6197 -0.7075
  884MOL0     H21953   0.562   4.526  -0.154 -1.7802  0.1740  0.6241
  884MOL0     H21954   0.999   4.222  -0.238 -0.5929  1.6881 -1.7856
  884MOL0     H21955   1.243   4.171  -0.294 -1.3607 -1.3084  0.4996
  884MOL0     H21956   1.459   4.163  -0.090 -0.6805  2.1000  2.1079
  884MOL0     H21957   1.602   4.195  -0.205 -0.5856  2.0199 -0.3829
  884MOL0     H21958   1.660   4.396  -0.062  3.2309 -1.5318 -0.6744
  884MOL0     H21959   1.534   4.350   0.047 -0.1922  0.3192 -0.5834
  884MOL0     H21960   1.736   4.124  -0.007 -1.3394 -1.8640  1.3492
  884MOL0     H21961   1.635   4.139   0.113 -0.6736 -3.6581 -4.7739
  884MOL0     H21962   1.774   4.239   0.245  2.6838 -1.9120  1.1003
  884MOL0     H21963   1.827   4.362   0.129  0.1928 -0.3790  0.7954
  884MOL0     H21964   1.925   4.064   0.146 -1.9613  1.0374  2.1663
  884MOL0     H21965   1.982   4.195   0.031 -0.3428  0.8929  0.3164
  884MOL0     H21966   1.991   4.170   0.338  1.3258  1.2684  1.1801
  884MOL0     H21967   2.063   4.309   0.255 -0.7075 -0.2776  1.0093
  884MOL0     H21968   2.210   4.144   0.123  1.5322  0.8258  0.6136
  884MOL0     H21969   2.164   4.031   0.262 -1.5902  1.0226  0.7104
  884MOL0     H21970   2.308   4.296   0.299 -2.1566  0.8343  0.4130
  884MOL0     H21971   2.371   4.133   0.337 -0.5942 -2.4080  0.5186
  884MOL0     H21972   1.353   4.510  -0.065  0.6928 -0.5032  1.8148
  884MOL0     H21973   1.121   4.520   0.039  1.5825 -0.8502  1.1489
  884MOL0     H21974   0.726   4.141   0.207 -0.5205 -0.5413  2.2250
  884MOL0     H21975   0.508   4.176   0.311  1.9257  0.8313  2.5766
  884MOL0     H21976   0.983   3.855   1.515  1.3483  0.5111 -2.1710
  884MOL0     H21977   1.044   3.700   1.712  1.3542  0.1088  1.1916
  884MOL0     H21978   1.466   3.262   1.698 -1.0131 -0.6958  0.3422
  884MOL0     H21979   1.559   3.124   1.854 -0.7957 -0.6655 -0.6225
  884MOL0     H21980   1.515   3.238   2.255  1.5876 -0.1193  0.8017
  884MOL0     H21981   1.458   3.073   2.292 -0.2599  1.4271  0.7500
  884MOL0     H21982   1.748   3.127   2.182 -0.7873 -2.9145 -4.8118
  884MOL0     H21983   1.672   2.979   2.219 -0.7720  0.6940  1.2323
  884MOL0     H21984   1.683   3.201   2.436  3.8461 -0.1111  0.7752
  884MOL0     H21985   1.639   3.031   2.465 -0.3015 -3.1401 -4.1054
  884MOL0     H21986   1.854   2.955   2.408 -1.3076 -0.2624 -0.3148
  884MOL0     H21987   1.877   3.066   2.538 -0.6431  2.9435 -0.2089
  884MOL0     H21988   2.126   3.234   2.273  0.3755 -2.6319 -0.4281
  884MOL0     H21989   1.328   3.312   2.164  0.9194 -0.3046  0.7431
  884MOL0     H21990   1.138   3.514   1.937  0.8944 -3.6436 -2.1017
  884MOL0     H21991   1.166   3.468   2.107 -1.3857 -0.2855 -0.4167
  884MOL0     H21992   1.275   3.586   2.042 -1.0857 -0.1165  2.7888
  885MOL0     O21993   6.207   8.338   1.839  0.2455  0.1894 -0.3150
  885MOL0     C21994   6.236   8.447   1.892 -0.5952  0.1664  0.6286
  885MOL0     O21995   6.187   8.494   2.006 -0.7687  0.2295 -0.1612
  885MOL0     C21996   6.133   8.398   2.090 -0.0891 -0.3880 -0.5204
  885MOL0     C21997   6.208   8.320   2.171 -0.2023 -0.5071 -0.8678
  885MOL0     C21998   6.155   8.210   2.241 -0.7018 -0.2924 -0.0046
  885MOL0     C21999   6.018   8.182   2.230  0.0536  0.6753 -0.5076
  885MOL0     O22000   5.963   8.070   2.281 -0.9855  0.6221 -0.2211
  885MOL0     C22001   6.026   7.981   2.375 -0.4990 -0.6685  0.2417
  885MOL0     C22002   6.031   8.045   2.520  0.1139  0.5927  0.1997
  885MOL0     C22003   6.131   7.964   2.607 -0.3585  0.0170  0.0587
  885MOL0     C22004   6.113   7.977   2.753 -0.2859 -0.3987  0.1693
  885MOL0     C22005   6.227   7.895   2.823  0.7289  0.0866 -0.3116
  885MOL0     C22006   6.185   7.849   2.962  0.8889  0.6327 -0.2364
  885MOL0     C22007   6.284   7.777   3.033  0.3339  0.0637  0.3305
  885MOL0     C22008   6.402   7.852   3.091 -0.0717 -0.4573  0.0072
  885MOL0     N22009   6.364   7.980   3.155 -0.0747 -1.0473  0.1280
  885MOL0     C22010   6.341   8.095   3.078 -0.2257  0.1394  0.2572
  885MOL0     C22011   6.296   8.186   3.159  0.2778  0.4829 -1.0393
  885MOL0     C22012   6.247   8.324   3.137 -0.0525 -0.3095 -0.1752
  885MOL0     C22013   6.123   8.357   3.216 -0.0687  0.3684 -0.5038
  885MOL0     C22014   6.003   8.273   3.181 -0.9846 -0.4026 -0.1073
  885MOL0     C22015   5.870   8.331   3.239 -0.4677 -1.0554  0.8207
  885MOL0     O22016   5.768   8.279   3.149 -1.0454 -0.1786  0.0160
  885MOL0     C22017   5.650   8.243   3.193 -0.1373 -0.4996  0.0875
  885MOL0     C22018   5.574   8.174   3.104 -0.8048 -0.2849 -0.8093
  885MOL0     C22019   5.457   8.104   3.131  0.1487  0.5744  0.2309
  885MOL0     C22020   5.387   8.029   3.031 -0.2556 -0.2043 -0.6895
  885MOL0     C22021   5.407   8.112   3.270 -0.1234 -0.5373  0.9175
  885MOL0     C22022   5.301   8.020   3.317  0.1993 -0.3071  0.1075
  885MOL0     O22023   5.261   8.047   3.443 -0.1875 -0.0563  0.2266
  885MOL0     C22024   5.156   8.005   3.505  0.0404 -0.1503  0.4519
  885MOL0     C22025   5.036   8.072   3.506 -0.3926  0.2228 -0.8142
  885MOL0     C22026   4.919   8.014   3.552 -0.5260  0.8068 -0.5112
  885MOL0     C22027   4.929   7.899   3.633  0.4456 -0.0951  0.0051
  885MOL0     O22028   4.820   7.843   3.701  0.2607 -0.7819  1.0408
  885MOL0     C22029   4.699   7.914   3.708 -0.3769 -0.0834 -0.0404
  885MOL0     C22030   4.636   7.861   3.843  0.9928  0.7543  0.1499
  885MOL0     C22031   4.546   7.970   3.901  0.3934 -0.0210 -0.2856
  885MOL0     C22032   4.404   7.980   3.837  0.2308 -0.5781  0.1653
  885MOL0     C22033   4.307   8.085   3.901 -0.1184  0.5215  0.1105
  885MOL0     C22034   4.372   8.223   3.951 -0.4788  0.7879  0.1062
  885MOL0     C22035   4.271   8.330   4.004 -1.2421 -0.6029 -0.7527
  885MOL0     C22036   4.342   8.416   4.109 -0.2810 -0.5789  0.2469
  885MOL0    Cl22037   4.454   8.520   4.006 -0.1777  0.0215 -0.1619
  885MOL0     C22038   5.055   7.836   3.639  0.3531 -0.9596 -0.9423
  885MOL0     C22039   5.168   7.883   3.572 -0.2826 -0.0797 -1.3268
  885MOL0     O22040   5.249   7.936   3.243  0.0053  0.4957 -0.3127
  885MOL0     C22041   5.488   8.190   3.362 -0.4268  0.2293  0.3374
  885MOL0     C22042   5.607   8.246   3.326  0.1727  0.1191  0.2879
  885MOL0     N22043   6.284   8.126   3.287  0.2547  0.1286  0.0666
  885MOL0     N22044   6.328   8.009   3.282 -0.2615  0.3531 -0.3253
  885MOL0     C22045   5.939   8.258   2.143 -1.5142 -0.1552 -0.2646
  885MOL0     C22046   5.997   8.367   2.079 -1.1972  0.0309 -0.4886
  885MOL0     C22047   6.338   8.526   1.830  0.1226  0.1969  0.7778
  885MOL0     C22048   6.313   8.605   1.720 -0.1093 -0.8068  0.1519
  885MOL0     C22049   6.414   8.672   1.645  0.4340 -0.1581 -0.8260
  885MOL0     C22050   6.544   8.656   1.676 -0.6970  0.1597 -0.1410
  885MOL0     O22051   6.657   8.708   1.613  0.2326  0.2824 -0.3545
  885MOL0     C22052   6.626   8.801   1.508 -0.3890  0.9261  0.4198
  885MOL0     C22053   6.541   8.928   1.550 -0.0001  0.6454  1.3822
  885MOL0     C22054   6.611   9.062   1.528  0.0228  0.0506 -0.0118
  885MOL0     C22055   6.723   9.067   1.629 -0.0192 -1.2764 -0.4836
  885MOL0     C22056   6.798   9.189   1.583  0.0397 -0.3867 -2.0210
  885MOL0     C22057   6.855   9.289   1.544  0.0307 -0.2752  1.0562
  885MOL0     C22058   6.573   8.589   1.797 -0.4980  0.9561  0.8146
  885MOL0     C22059   6.471   8.524   1.880  0.7957  0.2529 -0.4568
  885MOL0     C22060   6.508   8.441   2.001  0.0612  0.6566 -0.4065
  885MOL0     H22061   6.314   8.340   2.182 -0.6949  2.6837 -0.8320
  885MOL0     H22062   6.216   8.144   2.301 -0.9643  0.1639  0.7820
  885MOL0     H22063   6.126   7.958   2.337  0.5188  5.0979 -1.6872
  885MOL0     H22064   5.969   7.888   2.372 -0.8646 -0.4408 -2.9099
  885MOL0     H22065   6.053   8.152   2.517  0.8729  0.4879  1.3827
  885MOL0     H22066   5.930   8.029   2.561  0.1390  0.1774  0.1053
  885MOL0     H22067   6.107   7.858   2.593  0.1698 -0.3707  1.8506
  885MOL0     H22068   6.234   7.997   2.588 -0.8121  1.0096 -0.7035
  885MOL0     H22069   6.107   8.083   2.777 -1.9650 -0.7924  1.7648
  885MOL0     H22070   6.017   7.927   2.770 -1.5798  0.1831 -4.2623
  885MOL0     H22071   6.308   7.968   2.816 -0.3807  1.2174 -1.8585
  885MOL0     H22072   6.246   7.802   2.769 -0.5469 -0.8165  0.7310
  885MOL0     H22073   6.154   7.935   3.023 -2.2250 -0.6835  0.1922
  885MOL0     H22074   6.098   7.784   2.955  0.1979  1.6542 -1.5721
  885MOL0     H22075   6.325   7.701   2.966  2.6175 -1.0248  2.7573
  885MOL0     H22076   6.239   7.731   3.122  1.4949  2.8748  2.5382
  885MOL0     H22077   6.464   7.796   3.161  1.1359  0.5977 -0.1699
  885MOL0     H22078   6.467   7.862   3.004  3.3054 -3.9565  1.8488
  885MOL0     H22079   6.354   8.108   2.971 -0.3744 -1.1911  0.0675
  885MOL0     H22080   6.210   8.343   3.036 -2.3663  0.1904  0.6980
  885MOL0     H22081   6.328   8.386   3.176 -0.8777  0.2617  0.6818
  885MOL0     H22082   6.138   8.343   3.323 -0.2929 -1.1945 -0.6524
  885MOL0     H22083   6.097   8.461   3.193  0.2118  0.9829  1.7266
  885MOL0     H22084   6.008   8.265   3.072  0.5142 -1.9077  0.0220
  885MOL0     H22085   6.019   8.173   3.224 -2.2092 -0.8638 -0.6712
  885MOL0     H22086   5.853   8.299   3.342 -3.0534 -1.4195  0.3605
  885MOL0     H22087   5.861   8.439   3.233  0.3521 -0.8188  3.0003
  885MOL0     H22088   5.619   8.152   3.008 -0.0048  0.8387 -0.7082
  885MOL0     H22089   5.428   8.063   2.935  3.5901 -0.5602  0.6611
  885MOL0     H22090   5.279   8.049   3.027 -0.5865 -1.6277  0.4474
  885MOL0     H22091   5.391   7.921   3.049 -2.9808 -0.1123  1.0718
  885MOL0     H22092   5.027   8.172   3.464 -3.6294 -0.3339 -1.7190
  885MOL0     H22093   4.819   8.057   3.545 -2.8572 -3.9587 -0.5571
  885MOL0     H22094   4.709   8.023   3.714 -0.2194 -0.1751  2.2896
  885MOL0     H22095   4.641   7.888   3.620  1.8960 -1.1236 -1.3192
  885MOL0     H22096   4.577   7.779   3.800  2.4090 -0.6104  0.7193
  885MOL0     H22097   4.706   7.827   3.920  0.6235  0.0226  0.1710
  885MOL0     H22098   4.603   8.063   3.899  1.3107 -0.4709  1.9326
  885MOL0     H22099   4.542   7.951   4.008  2.6857 -0.7937 -0.2676
  885MOL0     H22100   4.354   7.882   3.839 -2.4927  0.7216  0.4344
  885MOL0     H22101   4.408   8.020   3.735 -2.0058  1.5302  0.8039
  885MOL0     H22102   4.237   8.102   3.819 -0.0074  1.1210  0.1305
  885MOL0     H22103   4.257   8.037   3.986 -1.1472  0.4632 -0.5201
  885MOL0     H22104   4.411   8.273   3.861  1.4256 -0.0240  0.4405
  885MOL0     H22105   4.451   8.194   4.020  1.5785 -2.9179 -3.3894
  885MOL0     H22106   4.188   8.272   4.045 -0.8093 -1.1500 -0.6393
  885MOL0     H22107   4.237   8.397   3.924 -0.2385 -0.4633 -1.0784
  885MOL0     H22108   4.403   8.351   4.174  2.6774 -1.8279 -3.4266
  885MOL0     H22109   4.271   8.481   4.161  2.1366  0.5066  2.4539
  885MOL0     H22110   5.079   7.747   3.696  2.1727  0.7692  1.1715
  885MOL0     H22111   5.259   7.825   3.585 -0.6676 -0.4237 -0.0427
  885MOL0     H22112   5.463   8.170   3.466  1.8242 -1.2780  0.6703
  885MOL0     H22113   5.655   8.307   3.402  0.2670  2.1743 -1.3328
  885MOL0     H22114   5.838   8.238   2.107  0.3055 -3.1549 -4.5101
  885MOL0     H22115   5.928   8.429   2.023 -1.6846 -0.4376 -0.4218
  885MOL0     H22116   6.214   8.618   1.678  0.9795 -0.2701 -2.5093
  885MOL0     H22117   6.369   8.737   1.571  0.8758 -2.1281 -2.9217
  885MOL0     H22118   6.724   8.841   1.479 -0.1288  0.0931  0.1398
  885MOL0     H22119   6.587   8.752   1.419  1.3034 -0.4239  0.3704
  885MOL0     H22120   6.523   8.919   1.657  3.2547 -1.0669  1.9033
  885MOL0     H22121   6.449   8.933   1.490  1.2323 -3.2526 -1.2349
  885MOL0     H22122   6.652   9.067   1.427 -3.2065  0.7029 -1.3977
  885MOL0     H22123   6.543   9.147   1.530  0.5400  0.4746 -0.1626
  885MOL0     H22124   6.788   8.979   1.627  0.0458 -1.2767  0.6205
  885MOL0     H22125   6.691   9.087   1.732  1.7225 -0.1410 -0.1109
  885MOL0     H22126   6.898   9.377   1.500 -2.4154  0.2156 -0.5550
  885MOL0     H22127   6.677   8.569   1.821 -0.6665 -0.0103  0.8054
  885MOL0     H22128   6.471   8.490   2.092 -1.2325  0.6121 -0.8866
  885MOL0     H22129   6.471   8.338   1.999 -2.2750  1.3860  0.7507
  885MOL0     H22130   6.617   8.431   2.006  0.2632  0.4621 -3.5788
  886MOL0     O22131   1.409  10.301   0.823 -0.2128 -0.9694  0.4223
  886MOL0     C22132   1.467  10.204   0.789 -0.2398 -0.8460 -0.4120
  886MOL0     O22133   1.428  10.073   0.808  0.3242 -0.3111  0.7141
  886MOL0     C22134   1.306  10.041   0.857  0.1797  0.3904  0.5591
  886MOL0     C22135   1.298   9.927   0.939 -0.8853  0.6660  0.3299
  886MOL0     C22136   1.181   9.878   0.993 -0.1340  0.2895 -0.6973
  886MOL0     C22137   1.064   9.934   0.954  0.5597  0.2583  0.1995
  886MOL0     O22138   0.961   9.861   0.988  0.2390 -1.1256 -0.4587
  886MOL0     C22139   0.873   9.912   1.079 -0.4377  0.2152 -0.7230
  886MOL0     C22140   0.768   9.822   1.121  0.1499  0.6366  0.7948
  886MOL0     C22141   0.656   9.814   1.020  0.0045  0.1841 -0.0789
  886MOL0     C22142   0.515   9.828   1.086  0.0598  0.6624  0.1771
  886MOL0     C22143   0.420   9.775   0.980  0.0616  0.1611 -0.4796
  886MOL0     C22144   0.273   9.773   1.020 -0.2299 -0.5741 -0.5244
  886MOL0     C22145   0.185   9.690   0.931 -0.1570  0.4629  0.1400
  886MOL0     C22146   0.192   9.751   0.789 -0.9020 -0.6600  0.5469
  886MOL0     N22147   0.091   9.711   0.702 -0.0646 -0.2369  0.4702
  886MOL0     C22148  -0.043   9.735   0.735  0.5012  0.1062 -0.2669
  886MOL0     C22149  -0.112   9.661   0.652 -0.3689 -0.1522 -0.1679
  886MOL0     C22150  -0.264   9.657   0.650  0.7678 -0.5036 -0.8160
  886MOL0     C22151  -0.313   9.778   0.575 -0.4788 -0.3760  0.3780
  886MOL0     C22152  -0.300   9.912   0.628  0.7923 -0.8142 -0.6251
  886MOL0     C22153  -0.352  10.027   0.549 -0.0274  0.2398 -0.1942
  886MOL0     O22154  -0.331  10.158   0.608 -0.1920  1.2122 -0.2991
  886MOL0     C22155  -0.367  10.275   0.541 -0.5192  0.1597  0.3943
  886MOL0     C22156  -0.449  10.263   0.427  0.1956 -0.1495 -0.5365
  886MOL0     C22157  -0.484  10.381   0.365  0.1372  0.2158 -0.2267
  886MOL0     C22158  -0.567  10.379   0.238  0.1186  0.3083  0.5575
  886MOL0     C22159  -0.449  10.509   0.413 -0.1064  0.2603 -0.4846
  886MOL0     C22160  -0.505  10.629   0.367  0.9051 -0.6288 -0.5053
  886MOL0     O22161  -0.424  10.712   0.301  0.0208 -0.1776 -0.0579
  886MOL0     C22162  -0.483  10.836   0.260 -0.4258  0.1767 -0.5026
  886MOL0     C22163  -0.495  10.861   0.123 -0.7799 -0.5414  0.6734
  886MOL0     C22164  -0.539  10.993   0.076 -0.5521  1.1332 -0.8617
  886MOL0     C22165  -0.583  11.087   0.169 -0.0418  0.3727 -0.4672
  886MOL0     O22166  -0.633  11.206   0.121  0.1199 -0.1994 -1.1209
  886MOL0     C22167  -0.719  11.282   0.202 -1.0095  0.1521  0.4312
  886MOL0     C22168  -0.776  11.406   0.135  0.8323  0.1282  0.2562
  886MOL0     C22169  -0.675  11.498   0.077 -0.0121 -0.1415  0.7796
  886MOL0     C22170  -0.707  11.647   0.095 -0.0727  0.2255  0.1366
  886MOL0     C22171  -0.573  11.718   0.114 -0.0900  0.4578  0.4980
  886MOL0     C22172  -0.539  11.715   0.266  0.2217  0.7075 -0.0511
  886MOL0     C22173  -0.464  11.836   0.305 -0.4631  0.4422  0.2512
  886MOL0     C22174  -0.324  11.854   0.236 -0.2346  0.3734 -0.2402
  886MOL0    Cl22175  -0.223  11.951   0.335  0.2094  0.0650 -0.5946
  886MOL0     C22176  -0.579  11.049   0.306  0.4756 -0.2170 -0.4695
  886MOL0     C22177  -0.522  10.932   0.352  1.7561  0.0143 -0.6053
  886MOL0     O22178  -0.627  10.649   0.394  0.5620  0.2549  0.1552
  886MOL0     C22179  -0.380  10.516   0.539 -0.4131  0.4498 -0.9093
  886MOL0     C22180  -0.326  10.398   0.603  0.1960 -1.5119  0.0437
  886MOL0     N22181  -0.030   9.603   0.559 -0.1252  0.8203 -0.1892
  886MOL0     N22182   0.092   9.630   0.595  0.4895 -0.3486 -0.7528
  886MOL0     C22183   1.064  10.048   0.869 -0.0710 -0.9077  0.2252
  886MOL0     C22184   1.185  10.099   0.819 -0.2080  0.5305  0.4475
  886MOL0     C22185   1.601  10.222   0.737  0.7066  0.6061  0.6384
  886MOL0     C22186   1.696  10.117   0.765  0.9624 -0.5626 -0.4141
  886MOL0     C22187   1.827  10.124   0.718  0.0781 -0.0058  0.7733
  886MOL0     C22188   1.868  10.220   0.629 -0.3100  0.1367 -0.1155
  886MOL0     O22189   1.993  10.192   0.571  0.4330  0.4939 -0.3854
  886MOL0     C22190   2.033  10.248   0.447  1.0331  0.6087  0.2551
  886MOL0     C22191   2.143  10.153   0.384  0.5172  0.7777  0.6385
  886MOL0     C22192   2.276  10.134   0.468 -0.2753 -0.6584 -0.0564
  886MOL0     C22193   2.350  10.016   0.415  0.8578  1.0895  0.2506
  886MOL0     C22194   2.397  10.019   0.271 -0.3502 -0.0341  0.0697
  886MOL0     C22195   2.411  10.031   0.146  0.4328  0.3282  0.0011
  886MOL0     C22196   1.778  10.328   0.591  0.1375 -0.4506  0.2461
  886MOL0     C22197   1.645  10.330   0.655 -0.0734  0.0970 -0.4661
  886MOL0     C22198   1.552  10.446   0.618  1.0480 -0.9571 -0.0497
  886MOL0     H22199   1.387   9.870   0.966 -0.2063  1.6099  0.1234
  886MOL0     H22200   1.194   9.790   1.054  2.5046 -0.3041 -1.9557
  886MOL0     H22201   0.832  10.004   1.038 -1.6840 -0.2366 -0.5372
  886MOL0     H22202   0.930   9.937   1.170  1.6776 -1.0139 -1.6240
  886MOL0     H22203   0.806   9.724   1.152 -4.4914 -0.7853  2.8484
  886MOL0     H22204   0.725   9.865   1.212 -3.0332  0.2382 -0.4204
  886MOL0     H22205   0.674   9.897   0.950  1.3307  3.1950  3.5097
  886MOL0     H22206   0.667   9.721   0.963  3.1727 -0.1157  0.8303
  886MOL0     H22207   0.525   9.764   1.175 -4.2344 -1.2538 -0.4872
  886MOL0     H22208   0.497   9.934   1.104  1.8633  1.0148  0.1043
  886MOL0     H22209   0.447   9.672   0.952 -2.5498 -0.3216 -1.6123
  886MOL0     H22210   0.426   9.838   0.891 -1.8478  0.2017 -0.6128
  886MOL0     H22211   0.272   9.729   1.120  4.6915 -0.0343 -0.0301
  886MOL0     H22212   0.226   9.871   1.024  0.9391  0.0104  3.4092
  886MOL0     H22213   0.084   9.700   0.971  0.2396 -2.4266  2.2442
  886MOL0     H22214   0.195   9.581   0.938 -0.8292  0.4534  1.1218
  886MOL0     H22215   0.185   9.860   0.802 -0.8447 -0.4124 -1.2317
  886MOL0     H22216   0.285   9.732   0.734 -1.7976 -1.9247 -0.5856
  886MOL0     H22217  -0.089   9.798   0.810  1.0077  0.2584 -0.0805
  886MOL0     H22218  -0.303   9.656   0.752 -2.5124 -0.4792 -1.9302
  886MOL0     H22219  -0.316   9.570   0.608  1.2298 -1.2894  0.2082
  886MOL0     H22220  -0.260   9.780   0.479 -0.9404  0.9123  0.1223
  886MOL0     H22221  -0.415   9.756   0.540  0.4878 -1.6372 -1.9097
  886MOL0     H22222  -0.359   9.921   0.720  1.7470  0.2047 -0.0861
  886MOL0     H22223  -0.193   9.930   0.640  1.9373 -3.9032 -4.2436
  886MOL0     H22224  -0.320  10.014   0.445 -0.6807  0.3244 -0.4171
  886MOL0     H22225  -0.460  10.013   0.536  0.1048 -0.5979 -0.4145
  886MOL0     H22226  -0.487  10.172   0.381 -1.5747  0.6491 -0.7583
  886MOL0     H22227  -0.513  10.348   0.148 -0.2233  4.1089 -1.1308
  886MOL0     H22228  -0.602  10.475   0.200 -0.7375 -1.1249 -2.5731
  886MOL0     H22229  -0.654  10.313   0.236  1.9069 -2.2179  0.6286
  886MOL0     H22230  -0.448  10.783   0.065  1.5315  0.4791  1.0647
  886MOL0     H22231  -0.524  11.026  -0.026  1.7781 -0.0999 -0.9788
  886MOL0     H22232  -0.797  11.217   0.243 -1.0584 -0.3236 -0.3793
  886MOL0     H22233  -0.667  11.318   0.291 -1.7387 -2.1054  1.8393
  886MOL0     H22234  -0.841  11.367   0.056  0.5979 -4.3873  2.3677
  886MOL0     H22235  -0.839  11.462   0.204  2.8143  0.4150  1.9199
  886MOL0     H22236  -0.667  11.489  -0.032  3.2027  1.3197  0.7745
  886MOL0     H22237  -0.576  11.473   0.117  1.4984  3.3139 -0.3521
  886MOL0     H22238  -0.774  11.656   0.181 -1.9109 -3.0744 -0.7729
  886MOL0     H22239  -0.751  11.681   0.001  2.5459 -2.0578 -2.0715
  886MOL0     H22240  -0.491  11.674   0.057  0.0921  2.1634 -0.6210
  886MOL0     H22241  -0.593  11.818   0.074  1.1830  0.8858  0.8937
  886MOL0     H22242  -0.477  11.627   0.284  1.4414  1.2670 -1.3112
  886MOL0     H22243  -0.628  11.722   0.330 -0.0277  0.9083 -0.4179
  886MOL0     H22244  -0.444  11.827   0.412  0.9200  0.2341 -0.0057
  886MOL0     H22245  -0.514  11.933   0.293  1.8985  1.6352 -0.5301
  886MOL0     H22246  -0.330  11.907   0.141  1.9557  2.8271  0.8573
  886MOL0     H22247  -0.266  11.762   0.220  0.1100  0.7627 -1.2726
  886MOL0     H22248  -0.608  11.123   0.380  0.5141  1.8998 -2.4486
  886MOL0     H22249  -0.535  10.919   0.459  2.1833  1.0813 -0.4088
  886MOL0     H22250  -0.365  10.612   0.588 -1.4553  1.4661 -2.4815
  886MOL0     H22251  -0.256  10.403   0.686  0.9344  0.8479 -0.6234
  886MOL0     H22252   0.969  10.095   0.844 -1.0676 -1.2418  3.0112
  886MOL0     H22253   1.177  10.189   0.759  2.8898 -0.2284 -1.3162
  886MOL0     H22254   1.675  10.029   0.825 -0.1883  1.6431  2.6812
  886MOL0     H22255   1.906  10.053   0.740  0.8461  0.4087 -0.4848
  886MOL0     H22256   1.941  10.251   0.388  0.3277 -2.0111  1.1013
  886MOL0     H22257   2.068  10.350   0.469 -0.4999  1.0086  0.9475
  886MOL0     H22258   2.166  10.206   0.291  1.9610 -0.7553  0.0616
  886MOL0     H22259   2.094  10.058   0.361  1.7337  0.0780  0.8777
  886MOL0     H22260   2.328  10.230   0.462 -0.8075 -0.4159 -1.0042
  886MOL0     H22261   2.254  10.107   0.571  3.6779  2.5083  1.9045
  886MOL0     H22262   2.292   9.924   0.421  0.7301  0.6913 -4.3214
  886MOL0     H22263   2.444  10.008   0.470  1.7530  1.7685 -1.1404
  886MOL0     H22264   2.410  10.027   0.039 -1.5999  1.4288 -0.0727
  886MOL0     H22265   1.807  10.400   0.516  1.7053  0.1392  1.3660
  886MOL0     H22266   1.454  10.419   0.577 -1.7786  4.8852  1.7958
  886MOL0     H22267   1.512  10.507   0.700  1.6053  1.6333 -1.6135
  886MOL0     H22268   1.597  10.515   0.546 -1.8386  0.0502 -1.0268
  887MOL0     O22269   7.739   3.247   8.151 -0.0509  0.2037  0.0290
  887MOL0     C22270   7.728   3.128   8.138  0.2156 -0.0436  0.5009
  887MOL0     O22271   7.614   3.065   8.107  0.0368 -0.4296  0.1646
  887MOL0     C22272   7.497   3.123   8.151 -0.3663  0.8035  0.1778
  887MOL0     C22273   7.449   3.076   8.277  0.0789 -1.1151 -0.6005
  887MOL0     C22274   7.319   3.113   8.324 -0.4268 -0.1015  0.5512
  887MOL0     C22275   7.250   3.210   8.246 -0.9711 -0.2025 -0.3628
  887MOL0     O22276   7.136   3.252   8.305 -0.7167  0.3337 -0.4818
  887MOL0     C22277   7.134   3.400   8.321 -0.0086 -0.3307  0.0001
  887MOL0     C22278   7.072   3.427   8.455  0.2897  0.8034 -0.0269
  887MOL0     C22279   6.914   3.449   8.456 -0.2316 -0.2744  0.3755
  887MOL0     C22280   6.847   3.322   8.404 -0.6517  0.6746  0.4223
  887MOL0     C22281   6.701   3.311   8.430  0.7879  1.2701 -0.1300
  887MOL0     C22282   6.669   3.298   8.583  0.3374 -0.7593 -0.2628
  887MOL0     C22283   6.523   3.290   8.635  0.5296 -1.1364  1.0968
  887MOL0     C22284   6.511   3.319   8.786  0.2938  0.2826  0.2898
  887MOL0     N22285   6.600   3.223   8.856  0.4600  0.0148  0.6068
  887MOL0     C22286   6.683   3.264   8.956 -0.3288 -0.0177  1.1448
  887MOL0     C22287   6.718   3.156   9.024 -0.0476  0.8213 -0.3584
  887MOL0     C22288   6.814   3.141   9.137  0.6379 -0.1486 -0.0450
  887MOL0     C22289   6.934   3.055   9.096 -0.7807  0.8164 -0.5583
  887MOL0     C22290   6.921   2.913   9.156  0.5879 -0.1820  0.8069
  887MOL0     C22291   7.046   2.828   9.138  0.2054  0.5407 -0.4557
  887MOL0     O22292   7.015   2.694   9.186 -0.0145  0.2767  0.1276
  887MOL0     C22293   7.123   2.610   9.195 -0.7767  0.5145 -0.4095
  887MOL0     C22294   7.108   2.494   9.263 -0.4348 -0.9164  0.0216
  887MOL0     C22295   7.212   2.394   9.281 -0.1161  0.3099 -0.3056
  887MOL0     C22296   7.183   2.274   9.365 -0.5289 -0.9370  0.7747
  887MOL0     C22297   7.341   2.415   9.219 -0.2235  0.2059 -0.9347
  887MOL0     C22298   7.443   2.313   9.223  0.4562 -0.3224 -0.3405
  887MOL0     O22299   7.573   2.357   9.235 -0.2550  0.3202 -0.5216
  887MOL0     C22300   7.677   2.267   9.220 -0.1963 -0.2319  1.1557
  887MOL0     C22301   7.748   2.275   9.101 -0.3706 -0.5565  0.1133
  887MOL0     C22302   7.875   2.223   9.095 -0.4670  0.8690 -0.4869
  887MOL0     C22303   7.932   2.150   9.199  0.3585  0.5879 -0.2038
  887MOL0     O22304   8.057   2.088   9.179  0.4718 -0.4057 -0.2347
  887MOL0     C22305   8.101   1.990   9.291  0.5702 -0.1036 -0.3369
  887MOL0     C22306   8.046   1.851   9.263  0.2599 -0.6087  0.1692
  887MOL0     C22307   8.074   1.750   9.372  0.0651 -0.1836 -0.5006
  887MOL0     C22308   8.037   1.788   9.513 -0.2010  1.5163  0.3367
  887MOL0     C22309   7.989   1.671   9.592 -0.2431  0.2913 -0.3407
  887MOL0     C22310   7.975   1.693   9.747 -0.3076 -0.7708  0.7896
  887MOL0     C22311   7.937   1.559   9.805  0.5926  0.6792  0.5647
  887MOL0     C22312   7.939   1.570   9.961  0.0729  0.8112 -0.9527
  887MOL0    Cl22313   7.828   1.690  10.041  0.3307  0.1222 -0.1458
  887MOL0     C22314   7.858   2.128   9.316  0.6432 -0.1936 -0.5922
  887MOL0     C22315   7.729   2.194   9.330  0.6305 -0.1684  1.1028
  887MOL0     O22316   7.415   2.190   9.226 -0.4215  0.3183 -0.3010
  887MOL0     C22317   7.368   2.546   9.158  0.1644  0.6257 -0.2021
  887MOL0     C22318   7.263   2.639   9.141 -0.1869  0.1407 -0.4360
  887MOL0     N22319   6.643   3.055   8.981 -1.0077  0.7572  1.0359
  887MOL0     N22320   6.567   3.092   8.878 -0.2870 -0.8096 -0.0224
  887MOL0     C22321   7.296   3.248   8.121 -0.1498 -0.4478 -0.4362
  887MOL0     C22322   7.418   3.198   8.070 -0.7252 -0.7354 -0.2199
  887MOL0     C22323   7.864   3.045   8.116  0.9551  0.2945 -0.1036
  887MOL0     C22324   7.859   2.955   8.011 -0.0745  0.7461 -0.2420
  887MOL0     C22325   7.968   2.868   8.005  0.4914 -1.0746  0.3631
  887MOL0     C22326   8.073   2.872   8.099  0.6564  0.1462 -0.1071
  887MOL0     O22327   8.189   2.797   8.064  0.6395 -0.5497 -1.1918
  887MOL0     C22328   8.301   2.801   8.154  0.3191  0.1114  0.2658
  887MOL0     C22329   8.427   2.779   8.070 -0.1088  0.0235 -0.0617
  887MOL0     C22330   8.542   2.745   8.162 -0.2121  1.0282  0.3973
  887MOL0     C22331   8.669   2.788   8.083  0.1948 -1.0361  0.4971
  887MOL0     C22332   8.716   2.691   7.978 -0.5610 -0.5153  0.7040
  887MOL0     C22333   8.747   2.627   7.885 -0.3833 -0.6699  0.1083
  887MOL0     C22334   8.067   2.957   8.208 -0.3568  0.3201 -0.1787
  887MOL0     C22335   7.959   3.045   8.218 -0.8446  0.1066 -0.8268
  887MOL0     C22336   7.974   3.133   8.341 -0.0718  0.3676  0.3898
  887MOL0     H22337   7.500   2.990   8.319  0.0476 -0.3944  0.9958
  887MOL0     H22338   7.283   3.088   8.424  1.2380  1.9691  1.7532
  887MOL0     H22339   7.073   3.448   8.244 -0.9101  0.9920  1.4782
  887MOL0     H22340   7.235   3.440   8.330 -0.7301  1.4766  0.5547
  887MOL0     H22341   7.084   3.342   8.522 -0.7094 -1.9728 -3.1311
  887MOL0     H22342   7.117   3.521   8.489 -0.8660  1.6831 -0.8126
  887MOL0     H22343   6.899   3.474   8.561  2.5143  1.3202  0.4602
  887MOL0     H22344   6.893   3.545   8.410 -0.1778 -1.3046 -1.9410
  887MOL0     H22345   6.862   3.310   8.297  0.8782  0.0697  0.6799
  887MOL0     H22346   6.886   3.227   8.444  2.1255 -0.3407 -4.0151
  887MOL0     H22347   6.655   3.222   8.388 -2.1935  2.1852  0.9027
  887MOL0     H22348   6.648   3.395   8.383  1.7955  1.4092 -1.0557
  887MOL0     H22349   6.719   3.211   8.627  2.5157  1.5639  2.2700
  887MOL0     H22350   6.723   3.379   8.633 -0.5356 -0.8930  0.9488
  887MOL0     H22351   6.474   3.193   8.622 -0.5439 -0.5227  0.4215
  887MOL0     H22352   6.472   3.365   8.573  1.6677 -2.5379 -1.6798
  887MOL0     H22353   6.540   3.422   8.807 -5.4490  2.4379 -0.6438
  887MOL0     H22354   6.409   3.306   8.823  0.6932 -0.3541  1.2406
  887MOL0     H22355   6.704   3.368   8.975 -1.4045  0.8277 -1.7796
  887MOL0     H22356   6.755   3.079   9.206  0.5431  0.1438  0.1398
  887MOL0     H22357   6.840   3.233   9.190 -3.9100  2.2891 -1.5424
  887MOL0     H22358   6.952   3.054   8.988  0.4973 -1.3613 -0.3774
  887MOL0     H22359   7.024   3.104   9.134 -0.2391  2.4107 -3.5881
  887MOL0     H22360   6.886   2.911   9.260 -4.8526 -0.0272 -0.7024
  887MOL0     H22361   6.840   2.862   9.103  0.1225 -0.0027  1.3309
  887MOL0     H22362   7.076   2.838   9.033  1.4197 -2.3716 -0.4791
  887MOL0     H22363   7.128   2.874   9.194  0.8618  0.1886 -1.1143
  887MOL0     H22364   7.006   2.484   9.298 -0.7246  2.0610  0.3344
  887MOL0     H22365   7.166   2.193   9.294  1.7190 -1.0497  0.2954
  887MOL0     H22366   7.087   2.291   9.416 -2.2855 -0.4633 -2.4328
  887MOL0     H22367   7.262   2.238   9.433 -0.0331  1.1627  1.3819
  887MOL0     H22368   7.717   2.325   9.010  1.2112  3.9259  1.7486
  887MOL0     H22369   7.946   2.245   9.016  0.8669 -1.6395 -0.0669
  887MOL0     H22370   8.210   1.978   9.284  0.3811 -2.0253 -0.5316
  887MOL0     H22371   8.083   2.033   9.390  0.9606 -0.4800 -0.1012
  887MOL0     H22372   7.937   1.861   9.262  0.4290  2.1023 -0.8424
  887MOL0     H22373   8.067   1.826   9.159  0.7266 -1.9786  0.5789
  887MOL0     H22374   8.179   1.721   9.368  0.5874  1.3274  1.3730
  887MOL0     H22375   8.013   1.662   9.344  3.3011 -2.5728 -0.5971
  887MOL0     H22376   7.955   1.859   9.516 -1.3711  0.2629  4.1192
  887MOL0     H22377   8.120   1.839   9.563 -1.2752  1.8307  1.8536
  887MOL0     H22378   7.888   1.644   9.561  0.5437 -1.9640 -1.1287
  887MOL0     H22379   8.059   1.591   9.566  1.0553  1.5706 -0.9367
  887MOL0     H22380   7.909   1.773   9.781  1.7912  0.0836  3.1705
  887MOL0     H22381   8.071   1.733   9.780 -0.9943  2.2792 -0.5164
  887MOL0     H22382   7.996   1.473   9.774  0.6706 -0.2438  3.0199
  887MOL0     H22383   7.837   1.532   9.769  0.5519 -2.1067  2.4430
  887MOL0     H22384   8.044   1.588   9.986 -0.1350 -0.9758  1.6492
  887MOL0     H22385   7.914   1.475  10.009  0.8477  0.9913 -0.1646
  887MOL0     H22386   7.880   2.062   9.399 -0.1129 -1.1096 -1.1020
  887MOL0     H22387   7.669   2.195   9.420  0.4214 -0.4729  0.9676
  887MOL0     H22388   7.468   2.572   9.125  1.3629  0.0469  2.6679
  887MOL0     H22389   7.281   2.735   9.094 -2.6226  0.8479 -0.0403
  887MOL0     H22390   7.233   3.323   8.075 -2.0375 -0.4145  2.0327
  887MOL0     H22391   7.444   3.227   7.969  2.2274  4.0637  1.5345
  887MOL0     H22392   7.781   2.971   7.937 -0.4535  1.5293  0.3190
  887MOL0     H22393   7.965   2.801   7.920 -3.2195  1.6668 -1.9446
  887MOL0     H22394   8.314   2.894   8.209 -1.2807  2.1033 -2.4083
  887MOL0     H22395   8.297   2.718   8.225  0.4725  1.8076  2.3110
  887MOL0     H22396   8.449   2.870   8.015  1.1556 -0.9551 -1.2565
  887MOL0     H22397   8.416   2.703   7.992 -2.0384 -0.5178  0.6857
  887MOL0     H22398   8.524   2.805   8.252 -3.6030  0.2098  0.3766
  887MOL0     H22399   8.552   2.637   8.173  0.2492  1.0157 -0.0887
  887MOL0     H22400   8.758   2.811   8.143 -0.1364 -0.4618  0.7758
  887MOL0     H22401   8.643   2.887   8.043 -1.5327 -1.5640  0.2517
  887MOL0     H22402   8.771   2.569   7.799 -0.6883 -0.6128 -0.0148
  887MOL0     H22403   8.145   2.956   8.284 -0.6383  0.0414  0.1092
  887MOL0     H22404   8.078   3.165   8.347  0.1298 -0.3940  1.2736
  887MOL0     H22405   7.907   3.220   8.346 -0.2384  0.2441  0.3224
  887MOL0     H22406   7.959   3.072   8.430 -2.2252 -0.6705 -0.6031
  888MOL0     O22407   9.850   2.547   5.284  0.0298  0.4442 -0.2002
  888MOL0     C22408   9.916   2.490   5.199  0.9243  0.1401  0.3080
  888MOL0     O22409  10.034   2.543   5.141  0.0913  0.2758  0.4081
  888MOL0     C22410  10.102   2.657   5.192  1.3141  0.2317 -0.6048
  888MOL0     C22411  10.081   2.788   5.132 -0.8244 -0.0378  0.8080
  888MOL0     C22412  10.137   2.902   5.197 -0.1401  0.0689  1.2913
  888MOL0     C22413  10.240   2.886   5.294 -0.9019 -0.1722 -0.2096
  888MOL0     O22414  10.319   2.989   5.342  0.5164  0.3273  0.2558
  888MOL0     C22415  10.326   3.109   5.263 -0.2929 -0.4850  0.1819
  888MOL0     C22416  10.210   3.212   5.295 -1.2927 -0.2448  0.5552
  888MOL0     C22417  10.265   3.344   5.235  0.2248  0.0220  0.4070
  888MOL0     C22418  10.165   3.457   5.262 -0.1691 -1.5818  0.3135
  888MOL0     C22419  10.054   3.468   5.157 -0.6779  0.2197 -0.3980
  888MOL0     C22420   9.913   3.479   5.224  0.0629 -0.1640 -0.0326
  888MOL0     C22421   9.801   3.495   5.124 -0.5876 -0.9379  0.7782
  888MOL0     C22422   9.664   3.525   5.190 -0.7656 -0.1344  0.2093
  888MOL0     N22423   9.594   3.400   5.198  0.9779  0.2871 -0.4486
  888MOL0     C22424   9.519   3.348   5.104  0.2547 -0.3186 -0.4861
  888MOL0     C22425   9.450   3.244   5.165  0.0943 -0.5249  1.1557
  888MOL0     C22426   9.346   3.171   5.104  0.0647 -0.0147  0.6630
  888MOL0     C22427   9.202   3.209   5.144 -0.0585  0.2635 -0.5472
  888MOL0     C22428   9.165   3.347   5.083  0.4819 -0.8443 -0.4685
  888MOL0     C22429   9.020   3.404   5.112  1.0956 -0.4307  0.0418
  888MOL0     O22430   9.003   3.440   5.251 -0.2959  0.1477  0.1114
  888MOL0     C22431   8.926   3.554   5.279  1.0967  0.6865  1.0907
  888MOL0     C22432   8.898   3.657   5.193  0.6151  0.3990  0.0061
  888MOL0     C22433   8.838   3.777   5.239  0.9854 -0.8404  0.7500
  888MOL0     C22434   8.828   3.893   5.143 -0.3182  0.2495 -0.3166
  888MOL0     C22435   8.809   3.791   5.377  0.1698 -0.2139 -0.6401
  888MOL0     C22436   8.762   3.923   5.434  0.8434 -0.3746  0.3149
  888MOL0     O22437   8.834   3.963   5.548 -0.6098  0.2796  0.0907
  888MOL0     C22438   8.823   4.094   5.591  0.2016  0.3329  0.6508
  888MOL0     C22439   8.736   4.115   5.686  0.7324 -0.3973 -0.7326
  888MOL0     C22440   8.720   4.244   5.729 -0.1459 -0.8079 -0.4250
  888MOL0     C22441   8.785   4.359   5.689 -1.1158  0.3451  0.3458
  888MOL0     O22442   8.764   4.485   5.740 -0.1204  0.5104 -0.5149
  888MOL0     C22443   8.641   4.520   5.796  0.1731  0.6054  0.7287
  888MOL0     C22444   8.627   4.665   5.814  0.1693  0.3215  0.3878
  888MOL0     C22445   8.513   4.693   5.908 -0.3183 -0.2320  0.4717
  888MOL0     C22446   8.487   4.844   5.901 -0.7644  0.0502 -0.4665
  888MOL0     C22447   8.400   4.888   5.773 -0.1208  0.2131 -0.8906
  888MOL0     C22448   8.314   5.007   5.807  0.3044  0.3762  0.0096
  888MOL0     C22449   8.216   5.045   5.690  0.2267  0.1337 -0.3227
  888MOL0     C22450   8.119   5.156   5.745  0.0722  0.0301  0.4286
  888MOL0    Cl22451   8.208   5.299   5.762  0.5536 -0.0909  0.2054
  888MOL0     C22452   8.881   4.331   5.593  0.3208 -0.3164 -0.0295
  888MOL0     C22453   8.899   4.200   5.543  0.4636 -0.0031 -0.1197
  888MOL0     O22454   8.658   3.976   5.395 -0.2514  0.0718  0.4188
  888MOL0     C22455   8.833   3.685   5.466 -0.0191 -0.0150  0.1079
  888MOL0     C22456   8.894   3.573   5.414  1.4593  0.1653  0.0416
  888MOL0     N22457   9.485   3.236   5.302  0.7000 -0.3076  0.4638
  888MOL0     N22458   9.569   3.330   5.321 -0.2529 -0.2874  0.1403
  888MOL0     C22459  10.264   2.761   5.351  0.2104  0.4359  0.7350
  888MOL0     C22460  10.182   2.655   5.305 -0.4358  0.3246 -0.0576
  888MOL0     C22461   9.848   2.375   5.136  0.3669  0.1014  0.2697
  888MOL0     C22462   9.923   2.315   5.030 -0.9601  0.1357 -0.0815
  888MOL0     C22463   9.890   2.194   4.977 -0.3177 -0.2538  0.2418
  888MOL0     C22464   9.781   2.122   5.028  0.3601 -0.2347  0.3725
  888MOL0     O22465   9.775   1.987   4.994  0.4060 -0.2594  0.5889
  888MOL0     C22466   9.656   1.926   5.035  0.7628  0.2118  0.2778
  888MOL0     C22467   9.665   1.836   5.157 -0.4106  0.9461  0.5405
  888MOL0     C22468   9.728   1.695   5.121  0.4473 -0.4081  1.0857
  888MOL0     C22469   9.719   1.589   5.244 -0.0206 -0.4688 -0.2394
  888MOL0     C22470   9.778   1.634   5.371  0.2177 -0.7241  1.1026
  888MOL0     C22471   9.834   1.667   5.473  1.0210  0.3849  0.3839
  888MOL0     C22472   9.704   2.175   5.129  0.6736 -0.1570  0.1555
  888MOL0     C22473   9.735   2.304   5.183  0.7818  0.3943 -0.1351
  888MOL0     C22474   9.648   2.352   5.293  0.4934 -0.1828 -1.2332
  888MOL0     H22475  10.020   2.810   5.045 -2.1139  2.8045  2.3366
  888MOL0     H22476  10.116   2.999   5.152 -1.5395  1.2192  4.1775
  888MOL0     H22477  10.339   3.088   5.156 -0.4939  3.2047 -0.6840
  888MOL0     H22478  10.416   3.155   5.304 -1.4443  0.7591  1.3798
  888MOL0     H22479  10.111   3.177   5.265 -2.1534  1.3321  1.4433
  888MOL0     H22480  10.214   3.214   5.404  0.7970  2.1448  0.5145
  888MOL0     H22481  10.368   3.368   5.262  1.0389 -0.5369 -1.9655
  888MOL0     H22482  10.287   3.338   5.128  3.0217 -0.0527  0.9262
  888MOL0     H22483  10.120   3.458   5.362 -0.9424  3.2611  0.1956
  888MOL0     H22484  10.225   3.549   5.258  0.4943 -2.0134  0.2593
  888MOL0     H22485  10.051   3.382   5.089  1.9904  1.1877 -1.8866
  888MOL0     H22486  10.066   3.561   5.101  2.7370 -1.6725 -3.2396
  888MOL0     H22487   9.889   3.403   5.299  0.0283 -0.1701 -0.0497
  888MOL0     H22488   9.909   3.569   5.285 -1.6912 -0.0861 -0.2219
  888MOL0     H22489   9.791   3.410   5.056 -0.7431 -1.2118  1.1330
  888MOL0     H22490   9.830   3.581   5.064 -0.4796 -1.5724 -0.1007
  888MOL0     H22491   9.678   3.568   5.290 -1.1182  0.4264  0.0252
  888MOL0     H22492   9.615   3.600   5.127 -1.5410 -0.5828  0.2739
  888MOL0     H22493   9.504   3.396   5.008  1.7313 -1.2756 -1.2411
  888MOL0     H22494   9.351   3.066   5.135  2.6011  0.3792  1.8625
  888MOL0     H22495   9.349   3.177   4.995 -0.6841 -0.3290  0.6218
  888MOL0     H22496   9.135   3.125   5.123  0.5848 -1.0014  2.0105
  888MOL0     H22497   9.203   3.217   5.253  0.5386  2.5488 -0.6625
  888MOL0     H22498   9.229   3.420   5.133  0.1648 -0.8321 -0.0754
  888MOL0     H22499   9.198   3.357   4.979 -1.7716 -1.4981 -1.3133
  888MOL0     H22500   9.013   3.489   5.043  2.2486 -0.8857 -0.6590
  888MOL0     H22501   8.946   3.326   5.092 -0.4786  0.6674  1.2656
  888MOL0     H22502   8.916   3.664   5.086 -2.5444  0.5601 -0.6402
  888MOL0     H22503   8.724   3.926   5.137 -1.1748 -1.3391  3.1313
  888MOL0     H22504   8.861   3.860   5.044  0.5520  2.1358 -0.6910
  888MOL0     H22505   8.892   3.972   5.183  0.9485 -0.8105 -0.1929
  888MOL0     H22506   8.677   4.035   5.729 -1.2466  2.8927  3.3992
  888MOL0     H22507   8.645   4.255   5.808  1.0977  2.1129  0.4858
  888MOL0     H22508   8.559   4.474   5.741  1.0683 -1.5646  1.1262
  888MOL0     H22509   8.642   4.484   5.900  1.1890  0.0112  0.5173
  888MOL0     H22510   8.718   4.698   5.865 -0.1479 -0.8868  1.8057
  888MOL0     H22511   8.615   4.718   5.719 -1.8538 -0.9448 -0.1386
  888MOL0     H22512   8.549   4.675   6.010 -0.5925 -0.3283  0.5506
  888MOL0     H22513   8.429   4.625   5.893 -0.7583 -0.0443  1.8736
  888MOL0     H22514   8.582   4.897   5.910  0.3927 -1.6013 -2.1656
  888MOL0     H22515   8.424   4.859   5.990  1.7656  0.9308  1.3014
  888MOL0     H22516   8.474   4.913   5.697  0.7289 -0.6144 -0.3690
  888MOL0     H22517   8.336   4.804   5.745  1.8476 -2.1579  1.0995
  888MOL0     H22518   8.393   5.079   5.832  2.8055 -2.3847  0.6685
  888MOL0     H22519   8.260   4.996   5.902 -0.2967 -1.4660 -0.5177
  888MOL0     H22520   8.160   4.954   5.669  1.4307 -0.7788  0.3241
  888MOL0     H22521   8.276   5.084   5.607  0.8208  3.9359  1.6380
  888MOL0     H22522   8.084   5.125   5.844  1.0767 -1.5684  0.3244
  888MOL0     H22523   8.030   5.173   5.684  1.3533  0.6639 -1.3399
  888MOL0     H22524   8.951   4.411   5.569  0.7808 -0.4933  0.7134
  888MOL0     H22525   8.965   4.174   5.460 -1.4136 -0.7837 -1.4484
  888MOL0     H22526   8.818   3.691   5.573  0.1430  0.2116  0.1200
  888MOL0     H22527   8.935   3.501   5.484 -0.8113  0.7762  2.1488
  888MOL0     H22528  10.332   2.754   5.435  2.1620  0.8192 -0.7429
  888MOL0     H22529  10.170   2.570   5.372 -1.6178 -1.6826 -2.6278
  888MOL0     H22530  10.010   2.372   4.998 -0.6836  1.7036  3.0504
  888MOL0     H22531   9.961   2.156   4.904 -1.5125 -2.1876  0.0137
  888MOL0     H22532   9.576   2.000   5.030  2.1760  2.1122  3.1702
  888MOL0     H22533   9.639   1.853   4.955  1.8240 -3.3175  3.0105
  888MOL0     H22534   9.564   1.826   5.199 -0.3667  2.1222  0.9528
  888MOL0     H22535   9.727   1.881   5.235  0.0947 -0.7511  1.1689
  888MOL0     H22536   9.679   1.659   5.030  1.2884  1.2315 -0.0625
  888MOL0     H22537   9.835   1.713   5.102  0.2295 -0.1289  0.0983
  888MOL0     H22538   9.766   1.498   5.205  2.2792  0.9313 -0.8983
  888MOL0     H22539   9.617   1.558   5.268  0.1510 -2.0886 -1.4497
  888MOL0     H22540   9.885   1.709   5.558  1.5005  2.4981 -0.8883
  888MOL0     H22541   9.629   2.128   5.191  2.7603 -1.9593  1.4415
  888MOL0     H22542   9.583   2.272   5.329 -0.7042  1.3162  0.0751
  888MOL0     H22543   9.699   2.375   5.388  0.7545 -0.5298 -1.2864
  888MOL0     H22544   9.578   2.433   5.272  1.4400  1.5196  1.5193
  889MOL0     O22545   8.217   4.022   6.623  0.7254 -0.5168 -0.3388
  889MOL0     C22546   8.331   4.016   6.573  0.7490 -0.1090  0.1725
  889MOL0     O22547   8.358   3.956   6.452  0.3424  0.1635 -0.1648
  889MOL0     C22548   8.278   3.967   6.352 -0.6088 -0.4243  0.9529
  889MOL0     C22549   8.344   3.898   6.245  0.7900  0.7748  0.0588
  889MOL0     C22550   8.273   3.874   6.129 -0.0836  0.1967  0.3556
  889MOL0     C22551   8.164   3.946   6.106  0.4415 -0.6833  0.9943
  889MOL0     O22552   8.111   3.918   5.979  0.1381  0.1948 -0.2878
  889MOL0     C22553   7.972   3.884   5.967 -0.2692 -0.7901  0.3449
  889MOL0     C22554   7.969   3.741   5.885 -0.5679 -0.3582 -0.8907
  889MOL0     C22555   7.997   3.757   5.732 -0.0338  0.2381 -0.3745
  889MOL0     C22556   7.882   3.826   5.652 -0.1190  0.0055 -0.8667
  889MOL0     C22557   7.905   3.827   5.499  1.1905 -0.5680 -0.7020
  889MOL0     C22558   7.813   3.925   5.411 -0.0208 -0.5280 -0.5019
  889MOL0     C22559   7.857   4.076   5.436 -0.3115  0.3147 -0.3698
  889MOL0     C22560   7.823   4.175   5.321 -0.2645 -0.4191 -0.0425
  889MOL0     N22561   7.709   4.260   5.370  0.7466  0.0054  0.2888
  889MOL0     C22562   7.723   4.372   5.446 -0.1407  0.1504  0.7371
  889MOL0     C22563   7.602   4.424   5.438 -0.3178 -0.7960 -1.2002
  889MOL0     C22564   7.595   4.560   5.500  0.5928  0.3412 -1.0709
  889MOL0     C22565   7.457   4.594   5.552 -0.3200 -0.4244 -0.3328
  889MOL0     C22566   7.363   4.641   5.439  0.4291 -0.7397  0.5881
  889MOL0     C22567   7.227   4.706   5.489  0.0509 -0.2601  0.5442
  889MOL0     O22568   7.266   4.801   5.586  0.0067 -0.0933 -0.3004
  889MOL0     C22569   7.158   4.876   5.636 -1.2845  0.2828 -0.2841
  889MOL0     C22570   7.032   4.859   5.589  0.9472  0.0868 -0.2026
  889MOL0     C22571   6.926   4.924   5.641  1.3705 -0.0342 -0.1636
  889MOL0     C22572   6.782   4.884   5.593 -0.3868 -0.8665 -0.6300
  889MOL0     C22573   6.946   5.024   5.739 -0.5702  0.3664  1.0106
  889MOL0     C22574   6.840   5.099   5.797  0.2226  1.0401 -0.3351
  889MOL0     O22575   6.830   5.225   5.757  0.1779 -0.2060  0.3822
  889MOL0     C22576   6.737   5.311   5.810  0.3365 -0.1575  0.7872
  889MOL0     C22577   6.637   5.353   5.721  0.4827 -1.0134  0.3284
  889MOL0     C22578   6.549   5.454   5.766  0.1615 -0.7460  0.6787
  889MOL0     C22579   6.560   5.504   5.900  0.7368 -0.3760 -0.3942
  889MOL0     O22580   6.468   5.607   5.927 -0.4735 -0.4407  0.8529
  889MOL0     C22581   6.455   5.672   6.053 -0.1674  0.3511  0.0150
  889MOL0     C22582   6.356   5.780   6.043  0.0875 -0.7259  0.2196
  889MOL0     C22583   6.410   5.910   6.108 -0.3343 -0.1929 -0.3592
  889MOL0     C22584   6.288   5.992   6.157 -0.6251 -0.5309  0.1857
  889MOL0     C22585   6.358   6.117   6.224  0.7546 -0.2945  1.2054
  889MOL0     C22586   6.250   6.218   6.260 -0.7887 -0.1299 -0.4949
  889MOL0     C22587   6.338   6.327   6.327 -0.3492  0.1385  0.7478
  889MOL0     C22588   6.234   6.440   6.352  0.6170 -0.0831 -0.0874
  889MOL0    Cl22589   6.133   6.382   6.493  0.0161  0.1566 -0.0823
  889MOL0     C22590   6.652   5.451   5.996  0.1417 -0.4984  0.1914
  889MOL0     C22591   6.744   5.359   5.943  0.1301  0.6041  0.6642
  889MOL0     O22592   6.759   5.041   5.868  0.1028  0.4305  0.3684
  889MOL0     C22593   7.083   5.042   5.783  0.3456 -0.6664  0.0243
  889MOL0     C22594   7.190   4.970   5.736 -0.8070 -0.5129 -0.2165
  889MOL0     N22595   7.510   4.329   5.395 -0.0213  0.0158  0.0896
  889MOL0     N22596   7.576   4.227   5.349 -0.3537  0.7851  0.2009
  889MOL0     C22597   8.097   4.018   6.206  0.2738 -0.1547  0.8439
  889MOL0     C22598   8.155   4.024   6.328  0.1384  0.3398 -0.2837
  889MOL0     C22599   8.444   4.048   6.656 -0.1205 -0.0921 -0.5151
  889MOL0     C22600   8.569   3.986   6.635  0.8568 -0.5797  1.0255
  889MOL0     C22601   8.681   4.015   6.702 -0.1981 -0.3637 -0.3853
  889MOL0     C22602   8.675   4.111   6.802  0.2681 -0.4459  0.1732
  889MOL0     O22603   8.777   4.146   6.890 -0.1605  0.0360  0.6302
  889MOL0     C22604   8.910   4.103   6.846 -0.3741  0.8666  0.1791
  889MOL0     C22605   9.014   4.133   6.941  0.4582 -0.2709 -0.4662
  889MOL0     C22606   9.022   4.032   7.045  0.1394 -0.3367  0.2824
  889MOL0     C22607   9.110   4.091   7.163  0.2111  0.3702  0.3303
  889MOL0     C22608   9.261   4.080   7.134  0.9523 -0.4103 -0.0434
  889MOL0     C22609   9.376   4.055   7.102  0.5605  0.9787  1.0568
  889MOL0     C22610   8.546   4.171   6.838 -0.5000 -0.6806  0.1494
  889MOL0     C22611   8.430   4.146   6.759 -0.2959 -0.6189 -1.3468
  889MOL0     C22612   8.307   4.226   6.804  0.4674  1.1198 -0.3553
  889MOL0     H22613   8.428   3.831   6.259 -1.2407 -1.9715  0.0288
  889MOL0     H22614   8.313   3.809   6.051  3.6515  2.0828  0.5058
  889MOL0     H22615   7.926   3.958   5.900 -1.6585 -2.6978 -0.9084
  889MOL0     H22616   7.922   3.879   6.064 -4.5497 -2.0270 -1.6966
  889MOL0     H22617   8.033   3.668   5.935  0.1360  1.8330  1.6530
  889MOL0     H22618   7.868   3.702   5.901 -0.8299 -0.1085 -1.8928
  889MOL0     H22619   8.098   3.795   5.719  1.1251 -1.7758  1.9877
  889MOL0     H22620   7.999   3.654   5.696  0.1068  0.6737 -1.6586
  889MOL0     H22621   7.795   3.765   5.680  0.5945  0.4490  2.6890
  889MOL0     H22622   7.865   3.926   5.692  1.2500 -0.0769 -0.0310
  889MOL0     H22623   7.887   3.726   5.462  1.1877 -2.1786  3.1433
  889MOL0     H22624   8.007   3.858   5.472  1.6258 -0.2288  1.1773
  889MOL0     H22625   7.812   3.909   5.303  1.7687  1.9385 -0.9725
  889MOL0     H22626   7.707   3.924   5.437 -0.5565  0.3380 -2.4658
  889MOL0     H22627   7.966   4.083   5.446 -0.1846 -0.8450 -0.8518
  889MOL0     H22628   7.801   4.100   5.527  0.8516  2.4317 -0.1325
  889MOL0     H22629   7.913   4.235   5.305 -1.2953  1.0170 -0.7369
  889MOL0     H22630   7.792   4.124   5.229  1.1561  0.2271 -0.9068
  889MOL0     H22631   7.819   4.413   5.477  0.9137 -0.0681 -1.9859
  889MOL0     H22632   7.618   4.633   5.422  0.6307  2.4294  0.8079
  889MOL0     H22633   7.664   4.555   5.584  0.4433 -2.0298 -1.0271
  889MOL0     H22634   7.414   4.508   5.604 -0.4252  0.0375  0.3537
  889MOL0     H22635   7.474   4.676   5.622 -2.9506  0.0169 -0.1193
  889MOL0     H22636   7.420   4.719   5.389  1.9546 -0.8650  2.0774
  889MOL0     H22637   7.351   4.555   5.371  2.2592 -1.4738  1.1265
  889MOL0     H22638   7.182   4.746   5.397  0.8682  1.4453  0.8374
  889MOL0     H22639   7.163   4.628   5.531 -1.7089 -0.0334 -1.5144
  889MOL0     H22640   7.000   4.801   5.503 -0.6508  2.3832 -1.2685
  889MOL0     H22641   6.713   4.905   5.675  0.2632  2.5644 -0.8071
  889MOL0     H22642   6.776   4.776   5.577 -0.3430 -0.9697  0.0091
  889MOL0     H22643   6.745   4.934   5.502  0.8075 -3.2756 -2.5499
  889MOL0     H22644   6.623   5.325   5.617  2.6232 -0.7358 -0.0762
  889MOL0     H22645   6.473   5.497   5.702  1.3422 -1.9903 -1.6962
  889MOL0     H22646   6.426   5.596   6.126  0.3445  0.1553  0.0184
  889MOL0     H22647   6.554   5.706   6.084  1.1157 -2.6791 -0.4105
  889MOL0     H22648   6.338   5.793   5.936  1.2096 -0.7695  0.0076
  889MOL0     H22649   6.262   5.748   6.088 -0.5034 -0.2732 -0.6608
  889MOL0     H22650   6.483   5.970   6.053 -0.3539 -0.7809 -1.0430
  889MOL0     H22651   6.458   5.877   6.200  0.1908 -1.1906 -0.9732
  889MOL0     H22652   6.207   5.958   6.223  0.1561 -3.6470 -0.3101
  889MOL0     H22653   6.229   6.023   6.071  0.3129  0.6648 -0.0638
  889MOL0     H22654   6.412   6.077   6.310 -2.4385 -2.6640  2.3217
  889MOL0     H22655   6.425   6.156   6.147 -0.0628  0.8740  1.0531
  889MOL0     H22656   6.187   6.161   6.329 -1.0426  1.0022  0.2487
  889MOL0     H22657   6.188   6.263   6.183 -1.1229  2.9125  1.3717
  889MOL0     H22658   6.424   6.353   6.266  0.5437 -0.8974  1.5347
  889MOL0     H22659   6.380   6.307   6.426 -1.1842 -0.8031  0.9231
  889MOL0     H22660   6.160   6.460   6.274  2.2972 -0.6383 -1.9124
  889MOL0     H22661   6.285   6.530   6.389 -1.4312  0.3282  1.9449
  889MOL0     H22662   6.659   5.484   6.099 -0.1237 -1.1203  0.4158
  889MOL0     H22663   6.827   5.315   5.998  0.7092 -1.9946 -2.0490
  889MOL0     H22664   7.106   5.130   5.843  1.5024  0.2693 -1.6848
  889MOL0     H22665   7.292   4.994   5.762 -1.9963  2.0926  2.5920
  889MOL0     H22666   8.006   4.073   6.191  0.3996 -0.2978 -0.5916
  889MOL0     H22667   8.093   4.076   6.400  0.3233 -1.7960  1.5227
  889MOL0     H22668   8.570   3.915   6.553 -1.2952  0.8807 -0.3607
  889MOL0     H22669   8.770   3.959   6.672 -0.5484  0.0293 -2.2339
  889MOL0     H22670   8.911   3.997   6.821  1.1840  0.8163  0.3629
  889MOL0     H22671   8.936   4.160   6.757 -1.0984  2.3145  0.8597
  889MOL0     H22672   8.987   4.227   6.991  0.0961 -0.5316 -0.1560
  889MOL0     H22673   9.116   4.136   6.903 -0.0189 -1.4143 -1.9483
  889MOL0     H22674   8.922   3.997   7.073  0.9356 -1.0168  2.4995
  889MOL0     H22675   9.073   3.951   6.993  1.1587  0.1804  0.4481
  889MOL0     H22676   9.084   4.024   7.245  0.4706 -0.2789 -0.1117
  889MOL0     H22677   9.077   4.188   7.200  1.0631 -0.2050  2.8051
  889MOL0     H22678   9.467   4.017   7.061  0.3141  0.8865  0.5862
  889MOL0     H22679   8.540   4.234   6.927  0.4934  0.5131 -0.5905
  889MOL0     H22680   8.224   4.170   6.848  0.4371  1.5820  0.1821
  889MOL0     H22681   8.331   4.308   6.871 -0.3782  1.0506  0.0506
  889MOL0     H22682   8.266   4.277   6.717 -1.9683  1.6054  0.9874
  890MOL0     O22683   3.511   6.093   2.289  0.3125 -0.3325 -0.4220
  890MOL0     C22684   3.473   6.211   2.282  0.2346 -0.2788  0.2148
  890MOL0     O22685   3.536   6.309   2.200 -0.6579  0.5254  0.2163
  890MOL0     C22686   3.545   6.444   2.238 -0.4792  0.4125 -0.4088
  890MOL0     C22687   3.516   6.542   2.142 -0.1152 -0.8507  0.4106
  890MOL0     C22688   3.540   6.673   2.169  0.4886 -0.1407 -0.2403
  890MOL0     C22689   3.574   6.708   2.300  0.5894 -0.3250  0.4302
  890MOL0     O22690   3.578   6.831   2.346 -0.3716 -0.3317  0.0062
  890MOL0     C22691   3.509   6.926   2.259 -1.4226  0.0185 -0.2560
  890MOL0     C22692   3.461   7.041   2.348  0.1304 -0.8681  0.0672
  890MOL0     C22693   3.472   7.174   2.288  0.1169  0.3890  0.5888
  890MOL0     C22694   3.371   7.274   2.342  0.2937 -0.6764  0.4826
  890MOL0     C22695   3.405   7.421   2.312 -0.7827  0.3341 -0.2866
  890MOL0     C22696   3.378   7.451   2.157  0.1812  0.1392 -0.3820
  890MOL0     C22697   3.429   7.594   2.130  0.2012 -0.9968  0.4895
  890MOL0     C22698   3.384   7.623   1.983  1.0230 -0.1817 -0.0240
  890MOL0     N22699   3.456   7.729   1.918  0.4568 -1.1168  0.0385
  890MOL0     C22700   3.500   7.726   1.786  0.1989  0.5599 -0.3833
  890MOL0     C22701   3.541   7.846   1.754 -0.2205 -0.4072  0.1167
  890MOL0     C22702   3.635   7.883   1.641 -0.0665 -0.1188  0.0876
  890MOL0     C22703   3.748   7.776   1.647  0.0581  0.7092 -0.0927
  890MOL0     C22704   3.870   7.807   1.555  0.3250  0.4613 -0.1683
  890MOL0     C22705   4.000   7.730   1.573 -0.1053  0.6902  0.6274
  890MOL0     O22706   4.084   7.785   1.680  0.2965 -0.3161 -0.3374
  890MOL0     C22707   4.215   7.738   1.681 -0.3745  0.2407  0.0655
  890MOL0     C22708   4.313   7.844   1.703  0.0933  0.5996 -0.2029
  890MOL0     C22709   4.445   7.819   1.713  0.0207  0.1173 -0.5273
  890MOL0     C22710   4.534   7.938   1.698 -0.4013 -0.0871  0.2083
  890MOL0     C22711   4.492   7.683   1.715  0.3226 -0.3909 -0.0689
  890MOL0     C22712   4.637   7.642   1.750 -0.0217 -0.9165  0.9711
  890MOL0     O22713   4.643   7.505   1.772 -0.4472 -0.2479 -0.0262
  890MOL0     C22714   4.764   7.439   1.784 -0.3813 -1.5172  0.2627
  890MOL0     C22715   4.776   7.321   1.856  0.7951  0.0178 -0.1107
  890MOL0     C22716   4.900   7.255   1.882 -0.4006 -0.8582 -0.9799
  890MOL0     C22717   5.023   7.309   1.823  0.6516 -0.0018  0.1789
  890MOL0     O22718   5.136   7.233   1.827 -0.8507  0.2191 -0.9665
  890MOL0     C22719   5.194   7.235   1.958  0.2400 -1.4306  0.8701
  890MOL0     C22720   5.337   7.174   1.963  0.3916  0.6822 -0.2884
  890MOL0     C22721   5.426   7.248   1.868  0.5441  0.0242  1.3058
  890MOL0     C22722   5.549   7.321   1.933 -0.2382 -0.2965  1.1309
  890MOL0     C22723   5.619   7.417   1.830 -0.4702 -0.1579 -0.0824
  890MOL0     C22724   5.542   7.505   1.731 -0.0882  0.3649  0.0694
  890MOL0     C22725   5.458   7.613   1.789 -0.5690 -0.5336 -0.2078
  890MOL0     C22726   5.442   7.731   1.701 -0.5741 -0.1114  0.4955
  890MOL0    Cl22727   5.578   7.839   1.712 -0.4215  0.5466  0.1625
  890MOL0     C22728   5.010   7.428   1.749  0.5958 -0.1164 -0.7686
  890MOL0     C22729   4.888   7.483   1.723 -0.8152  0.3278 -0.2694
  890MOL0     O22730   4.733   7.723   1.764 -0.3750  0.0473  0.8031
  890MOL0     C22731   4.399   7.578   1.696  0.0307 -0.3761 -0.1279
  890MOL0     C22732   4.261   7.609   1.670  0.4047  0.1942  0.4939
  890MOL0     N22733   3.517   7.931   1.860 -0.1508  1.4823 -0.2121
  890MOL0     N22734   3.457   7.859   1.958  0.0571  0.3900  0.2422
  890MOL0     C22735   3.605   6.613   2.394 -0.6677 -0.3167  0.7512
  890MOL0     C22736   3.605   6.485   2.361  0.1504  0.2745  0.6618
  890MOL0     C22737   3.360   6.244   2.368  0.5523  0.8763 -0.6257
  890MOL0     C22738   3.255   6.323   2.307 -0.5091 -0.2447 -0.1589
  890MOL0     C22739   3.135   6.343   2.378  0.6009 -0.1343  0.6207
  890MOL0     C22740   3.105   6.270   2.500  0.1532  0.4184 -0.0324
  890MOL0     O22741   2.983   6.271   2.562  0.8084 -0.3423  0.7128
  890MOL0     C22742   2.916   6.399   2.569 -0.5207 -0.5070 -0.1076
  890MOL0     C22743   2.789   6.409   2.478 -0.6122  0.4441 -0.8117
  890MOL0     C22744   2.755   6.559   2.456 -0.7288  0.2566 -0.0785
  890MOL0     C22745   2.667   6.601   2.577 -0.0634  0.2588 -0.8220
  890MOL0     C22746   2.594   6.723   2.536 -0.1040 -0.1510 -0.7272
  890MOL0     C22747   2.548   6.825   2.496  0.1973 -0.2826 -0.7402
  890MOL0     C22748   3.208   6.196   2.556 -0.4982  0.1656 -0.4006
  890MOL0     C22749   3.329   6.180   2.493 -0.2764 -0.9169  0.3749
  890MOL0     C22750   3.425   6.085   2.564 -0.4592 -0.3098  0.6045
  890MOL0     H22751   3.482   6.512   2.044  2.8883  0.0019 -1.0107
  890MOL0     H22752   3.522   6.741   2.086 -2.0744  0.4586  0.7057
  890MOL0     H22753   3.424   6.889   2.202 -1.0712 -0.5019 -0.4481
  890MOL0     H22754   3.584   6.963   2.188 -0.2965 -0.8581  0.4368
  890MOL0     H22755   3.354   7.038   2.373 -0.1392  0.7657 -0.7591
  890MOL0     H22756   3.518   7.049   2.441  0.9700  1.6112 -0.5887
  890MOL0     H22757   3.577   7.198   2.309  1.5135 -4.4548  0.2810
  890MOL0     H22758   3.468   7.167   2.179 -0.2215  1.2633  0.5384
  890MOL0     H22759   3.272   7.247   2.306  0.2053  0.8676 -0.5643
  890MOL0     H22760   3.378   7.264   2.451  3.4495  3.1083  0.8859
  890MOL0     H22761   3.509   7.443   2.339 -0.6481 -0.5042 -0.0768
  890MOL0     H22762   3.333   7.488   2.359 -1.7820  1.2772 -2.9304
  890MOL0     H22763   3.432   7.374   2.102 -1.9977 -2.5744  1.0438
  890MOL0     H22764   3.271   7.434   2.149 -0.2219 -1.2269  4.5945
  890MOL0     H22765   3.538   7.598   2.127  0.1662 -0.3226 -0.1308
  890MOL0     H22766   3.380   7.667   2.195  1.0483 -0.9859  1.1206
  890MOL0     H22767   3.407   7.533   1.924  0.7162  0.0040 -0.4285
  890MOL0     H22768   3.277   7.639   1.972  1.2534 -0.3218 -3.5864
  890MOL0     H22769   3.498   7.635   1.727 -1.3494  1.9736 -2.6555
  890MOL0     H22770   3.670   7.985   1.660 -1.3478  0.4982 -0.7519
  890MOL0     H22771   3.582   7.887   1.545 -0.7067  2.3670  0.4786
  890MOL0     H22772   3.780   7.754   1.749 -1.1843 -0.1473  0.1447
  890MOL0     H22773   3.691   7.689   1.612  1.3421  0.7755 -2.5725
  890MOL0     H22774   3.854   7.791   1.448 -0.5771  0.4485 -0.0366
  890MOL0     H22775   3.888   7.912   1.579  2.9400  0.1363 -0.3306
  890MOL0     H22776   3.966   7.628   1.592  0.2621 -0.0638 -2.3173
  890MOL0     H22777   4.056   7.725   1.480  1.4798 -0.9398  1.6216
  890MOL0     H22778   4.260   7.938   1.719  0.7042  1.1589 -1.3541
  890MOL0     H22779   4.480   8.033   1.692 -1.2367 -0.6179 -1.4841
  890MOL0     H22780   4.586   7.912   1.605  0.7021 -1.8699  1.2704
  890MOL0     H22781   4.613   7.947   1.773  0.6865  2.0216 -1.0961
  890MOL0     H22782   4.689   7.282   1.909  1.3201 -1.1377 -0.0612
  890MOL0     H22783   4.911   7.165   1.941  1.7492 -1.1032 -1.6489
  890MOL0     H22784   5.197   7.333   2.006  0.7074 -1.0083 -0.0025
  890MOL0     H22785   5.123   7.162   1.999 -0.3813 -2.5277 -1.9184
  890MOL0     H22786   5.385   7.184   2.061 -1.3292 -2.5991  1.0728
  890MOL0     H22787   5.324   7.069   1.936 -1.4366  1.1420 -1.3694
  890MOL0     H22788   5.363   7.329   1.831  2.5257  2.1916  2.4632
  890MOL0     H22789   5.455   7.187   1.782  3.1778 -1.8425  3.3440
  890MOL0     H22790   5.624   7.257   1.980  0.3280 -1.2814 -1.0206
  890MOL0     H22791   5.512   7.387   2.012 -2.3523  0.8868 -0.7150
  890MOL0     H22792   5.696   7.473   1.883 -2.8470  1.9179  1.4208
  890MOL0     H22793   5.676   7.351   1.764  1.0051  1.0758 -0.0845
  890MOL0     H22794   5.476   7.437   1.676  1.1207 -0.3811 -0.4923
  890MOL0     H22795   5.615   7.544   1.660  0.6402  0.0710  0.6450
  890MOL0     H22796   5.481   7.646   1.890  1.1840 -2.0687 -0.0569
  890MOL0     H22797   5.356   7.578   1.801 -0.5980 -0.5409 -0.4619
  890MOL0     H22798   5.351   7.789   1.718 -1.9318 -0.8541 -3.2490
  890MOL0     H22799   5.448   7.707   1.594  2.6677  0.9114  0.3567
  890MOL0     H22800   5.096   7.469   1.697 -0.0300 -2.1086 -3.6652
  890MOL0     H22801   4.881   7.576   1.666 -1.6022  0.6779  0.3758
  890MOL0     H22802   4.429   7.473   1.697  2.1261  0.1562  1.9431
  890MOL0     H22803   4.186   7.530   1.668 -1.5579  1.7992  3.6263
  890MOL0     H22804   3.653   6.634   2.489  1.1274  5.2260 -0.9953
  890MOL0     H22805   3.632   6.409   2.434  1.1935 -1.5550 -1.5163
  890MOL0     H22806   3.267   6.366   2.209 -0.7685  0.4396  0.1054
  890MOL0     H22807   3.049   6.399   2.342 -1.5209 -1.7221  2.8964
  890MOL0     H22808   2.884   6.403   2.674  0.2521 -3.2887  0.3040
  890MOL0     H22809   2.991   6.472   2.537 -0.9799 -1.8539 -5.1454
  890MOL0     H22810   2.713   6.359   2.540  1.9208 -2.3209  0.2918
  890MOL0     H22811   2.797   6.353   2.385 -1.9658  1.3645 -1.5255
  890MOL0     H22812   2.847   6.617   2.462 -1.1258  1.2092 -2.2246
  890MOL0     H22813   2.703   6.575   2.361  2.2279  1.1623 -1.6659
  890MOL0     H22814   2.726   6.620   2.667  0.0922 -0.3697 -0.7858
  890MOL0     H22815   2.600   6.518   2.601 -0.7223  0.1332 -2.8711
  890MOL0     H22816   2.507   6.911   2.447 -0.8865  0.2743  1.0898
  890MOL0     H22817   3.202   6.150   2.654 -0.6345 -2.2234 -1.4561
  890MOL0     H22818   3.422   5.988   2.515 -0.6798 -0.4269  0.8436
  890MOL0     H22819   3.529   6.115   2.550 -0.0824 -0.5429  2.5471
  890MOL0     H22820   3.424   6.085   2.674  2.2728 -3.2607  0.7572
  891MOL0     O22821   3.391  11.218   0.174  0.0372 -0.6017  0.9606
  891MOL0     C22822   3.403  11.195   0.302 -0.5229 -0.5634  0.9671
  891MOL0     O22823   3.301  11.151   0.380  0.4522 -0.0812 -0.9705
  891MOL0     C22824   3.187  11.122   0.310 -0.3468  0.8184 -0.1491
  891MOL0     C22825   3.174  11.020   0.223  0.3508  0.1567 -0.2842
  891MOL0     C22826   3.052  11.010   0.159 -0.5040 -0.1068 -0.0119
  891MOL0     C22827   2.935  11.077   0.200 -0.0015  0.2423  0.1439
  891MOL0     O22828   2.812  11.055   0.138  0.1433  0.2451 -0.4402
  891MOL0     C22829   2.697  11.129   0.189  0.3246 -1.1318 -0.9861
  891MOL0     C22830   2.579  11.075   0.106  0.8241  0.4193  0.0524
  891MOL0     C22831   2.447  11.102   0.176  0.4918  0.0623  0.6498
  891MOL0     C22832   2.337  11.053   0.087  0.1725 -0.0548 -0.1324
  891MOL0     C22833   2.208  11.050   0.179  0.1741  0.7280 -0.4776
  891MOL0     C22834   2.078  11.066   0.109  0.1958  0.7096 -0.1612
  891MOL0     C22835   2.044  10.934   0.033  0.0308  0.0203 -0.3085
  891MOL0     C22836   1.979  10.945  -0.110 -0.9994 -0.0419 -0.4267
  891MOL0     N22837   2.060  10.913  -0.224 -0.8767  0.7576 -0.2677
  891MOL0     C22838   2.186  10.964  -0.251  0.0292 -0.0774  0.1930
  891MOL0     C22839   2.206  10.937  -0.378 -0.4310  0.0907  0.0685
  891MOL0     C22840   2.331  10.974  -0.440  0.2583  0.2984  1.0119
  891MOL0     C22841   2.339  10.910  -0.579 -0.1266 -0.6943  0.7613
  891MOL0     C22842   2.339  10.752  -0.584  0.0824 -0.2936 -0.5241
  891MOL0     C22843   2.478  10.681  -0.555  0.5350  0.3525 -0.0439
  891MOL0     O22844   2.527  10.754  -0.441 -0.4885  0.4635 -0.3197
  891MOL0     C22845   2.658  10.731  -0.398  0.6968 -0.5423 -0.3060
  891MOL0     C22846   2.708  10.787  -0.275 -0.8721 -0.0617  0.4411
  891MOL0     C22847   2.844  10.774  -0.228  0.2469 -0.0304  0.4842
  891MOL0     C22848   2.886  10.855  -0.109  0.8247 -0.2598  0.1029
  891MOL0     C22849   2.924  10.688  -0.294  0.2007 -0.8192 -0.0682
  891MOL0     C22850   3.060  10.649  -0.252 -0.3532  0.2321 -0.4304
  891MOL0     O22851   3.131  10.748  -0.184  0.2819  0.7144  0.7563
  891MOL0     C22852   3.261  10.728  -0.157  0.1709 -0.0448  0.4189
  891MOL0     C22853   3.354  10.696  -0.258 -0.8009  0.2445 -0.1259
  891MOL0     C22854   3.493  10.698  -0.229 -0.7084  0.2542  0.6924
  891MOL0     C22855   3.534  10.731  -0.097  0.2381  0.3111 -0.1445
  891MOL0     O22856   3.668  10.760  -0.073  0.2729 -0.7282 -0.5347
  891MOL0     C22857   3.732  10.630  -0.050 -1.0343 -0.7081  0.6399
  891MOL0     C22858   3.728  10.587   0.096 -0.3423  0.3811  0.2965
  891MOL0     C22859   3.798  10.447   0.114 -0.0201  0.0672  0.5414
  891MOL0     C22860   3.704  10.327   0.082 -0.4242 -0.0575 -0.1775
  891MOL0     C22861   3.592  10.313   0.175  0.9495  1.3288  0.0816
  891MOL0     C22862   3.491  10.217   0.115  1.0874 -0.2165  1.6256
  891MOL0     C22863   3.403  10.155   0.237 -0.6686  0.6790  0.2438
  891MOL0     C22864   3.463  10.021   0.296 -1.0026 -0.0576 -0.4404
  891MOL0    Cl22865   3.425   9.904   0.185 -0.2519  0.2962 -0.4539
  891MOL0     C22866   3.442  10.753   0.005 -0.5438 -0.7748  0.3811
  891MOL0     C22867   3.306  10.761  -0.026  0.7868 -0.4755 -0.2820
  891MOL0     O22868   3.111  10.545  -0.290 -0.3333 -0.1413  0.0277
  891MOL0     C22869   2.874  10.634  -0.414  0.7560  0.2058  0.1591
  891MOL0     C22870   2.755  10.661  -0.472  0.0533 -0.2788  0.2833
  891MOL0     N22871   2.095  10.880  -0.438  0.4821  0.2324 -0.1904
  891MOL0     N22872   2.010  10.860  -0.340 -0.3468  0.6246 -0.7410
  891MOL0     C22873   2.952  11.163   0.305  0.4323 -0.4352  0.1617
  891MOL0     C22874   3.077  11.189   0.365 -0.3568 -0.5604  0.3403
  891MOL0     C22875   3.542  11.229   0.362 -0.2911 -0.4820 -1.1404
  891MOL0     C22876   3.638  11.274   0.265 -0.0463 -0.6312  1.0810
  891MOL0     C22877   3.771  11.303   0.304 -0.3170 -0.1351 -0.8362
  891MOL0     C22878   3.802  11.295   0.445  0.2270  0.8170 -0.3565
  891MOL0     O22879   3.920  11.353   0.478  0.3030  0.3170  0.4637
  891MOL0     C22880   3.964  11.384   0.616  0.0005  0.5670  0.7751
  891MOL0     C22881   4.072  11.486   0.617  1.2355  0.4337  0.1641
  891MOL0     C22882   4.179  11.466   0.517  0.4082  0.8663  0.0829
  891MOL0     C22883   4.294  11.564   0.541 -0.4613 -0.6060  0.1963
  891MOL0     C22884   4.391  11.572   0.424 -0.4497 -0.6069 -0.3428
  891MOL0     C22885   4.457  11.563   0.325  0.2134  0.6508 -0.2626
  891MOL0     C22886   3.707  11.250   0.540 -0.2427 -0.4315 -0.1456
  891MOL0     C22887   3.574  11.211   0.503  0.6242  0.1088  0.4647
  891MOL0     C22888   3.477  11.154   0.607 -0.3363 -0.1955  0.9298
  891MOL0     H22889   3.265  10.970   0.192 -0.8631 -1.5144 -1.3261
  891MOL0     H22890   3.050  10.939   0.077 -1.4232  2.0410 -1.9830
  891MOL0     H22891   2.686  11.237   0.181 -0.5969 -1.1460 -0.1120
  891MOL0     H22892   2.678  11.092   0.290  1.4840 -0.5243 -0.5306
  891MOL0     H22893   2.582  11.117   0.004  2.1588 -0.5409 -0.3256
  891MOL0     H22894   2.592  10.967   0.095  0.5482  0.5446 -2.0737
  891MOL0     H22895   2.458  11.054   0.274 -0.1689  1.4092  1.4002
  891MOL0     H22896   2.438  11.210   0.189  1.6454  0.0824  1.4937
  891MOL0     H22897   2.317  11.122   0.005 -0.2373 -1.4964 -1.2904
  891MOL0     H22898   2.359  10.951   0.055  1.0911 -0.1408  0.7149
  891MOL0     H22899   2.213  11.139   0.243  1.4859  1.4167 -1.4928
  891MOL0     H22900   2.199  10.963   0.243  2.2090  1.0809  0.3374
  891MOL0     H22901   2.010  11.098   0.187 -1.7613 -3.2619  0.0476
  891MOL0     H22902   2.080  11.142   0.031  2.5703  1.1635  0.2717
  891MOL0     H22903   1.984  10.874   0.102  1.0906  0.7801  1.3495
  891MOL0     H22904   2.133  10.873   0.015  0.3570  0.7271 -1.1771
  891MOL0     H22905   1.900  10.870  -0.116  0.6864 -2.1737  1.9055
  891MOL0     H22906   1.939  11.045  -0.127 -0.9580  0.5565  2.5063
  891MOL0     H22907   2.258  11.008  -0.183 -1.6167  2.6423  0.3468
  891MOL0     H22908   2.418  10.941  -0.382  0.1701  0.9901  1.5537
  891MOL0     H22909   2.330  11.082  -0.456 -0.7481 -0.0763 -2.3502
  891MOL0     H22910   2.248  10.947  -0.628  0.3855 -1.8550 -1.2094
  891MOL0     H22911   2.420  10.943  -0.644 -0.9804 -3.3471 -1.9216
  891MOL0     H22912   2.252  10.709  -0.535  0.4933 -1.1556 -0.5355
  891MOL0     H22913   2.319  10.720  -0.687 -1.9197  0.4124 -0.4011
  891MOL0     H22914   2.454  10.577  -0.529 -0.3626  0.9932  1.8806
  891MOL0     H22915   2.550  10.688  -0.637  1.8657 -2.1449  0.7852
  891MOL0     H22916   2.648  10.854  -0.214 -2.1880 -3.0564  2.6486
  891MOL0     H22917   2.955  10.804  -0.042  2.0036  2.2482  0.9489
  891MOL0     H22918   2.807  10.885  -0.039  1.1752 -1.9578  1.2731
  891MOL0     H22919   2.942  10.940  -0.148 -2.2837  0.2098 -4.0280
  891MOL0     H22920   3.324  10.670  -0.359 -2.6217  0.0511  0.4392
  891MOL0     H22921   3.567  10.669  -0.303 -1.5308  1.5081 -0.6827
  891MOL0     H22922   3.707  10.554  -0.125  2.4526 -0.2496 -1.1541
  891MOL0     H22923   3.838  10.646  -0.070 -0.9347 -1.2635  0.7003
  891MOL0     H22924   3.770  10.671   0.151  1.6066 -0.1448 -0.3186
  891MOL0     H22925   3.623  10.580   0.128 -0.0547 -0.1475  1.1535
  891MOL0     H22926   3.828  10.425   0.217  1.5947 -2.4372 -0.3519
  891MOL0     H22927   3.883  10.451   0.045  0.2350  2.2667  0.9239
  891MOL0     H22928   3.758  10.233   0.067 -1.6010 -0.6061 -1.1576
  891MOL0     H22929   3.659  10.336  -0.018 -0.3104 -0.6058 -0.2822
  891MOL0     H22930   3.628  10.264   0.265 -0.2290 -1.9582 -1.0878
  891MOL0     H22931   3.540  10.405   0.203 -2.1216  0.0516 -0.9788
  891MOL0     H22932   3.543  10.144   0.053  0.1324  1.3333 -1.1791
  891MOL0     H22933   3.423  10.266   0.045  2.9232 -2.2022 -1.7682
  891MOL0     H22934   3.302  10.138   0.198 -1.3094  1.9481  1.2854
  891MOL0     H22935   3.395  10.225   0.320 -0.0603 -1.7165  2.4266
  891MOL0     H22936   3.414  10.007   0.393 -0.6242 -0.2779 -0.2798
  891MOL0     H22937   3.572  10.025   0.308 -0.6580 -4.3386 -0.7861
  891MOL0     H22938   3.490  10.786   0.097  2.3202  1.0554 -1.5967
  891MOL0     H22939   3.234  10.787   0.051 -1.6713 -3.3480 -1.4010
  891MOL0     H22940   2.935  10.559  -0.462 -0.8336  0.4264 -2.3935
  891MOL0     H22941   2.729  10.607  -0.562 -1.6171 -3.6171  2.5661
  891MOL0     H22942   2.859  11.208   0.339  0.1599 -1.2943  0.5887
  891MOL0     H22943   3.092  11.263   0.443  2.4788  2.2931 -2.5926
  891MOL0     H22944   3.612  11.277   0.160 -0.2833 -1.1898  1.1192
  891MOL0     H22945   3.857  11.323   0.241  1.1272  1.1388  1.4239
  891MOL0     H22946   3.876  11.416   0.673  0.4363  2.9120  0.2360
  891MOL0     H22947   4.022  11.301   0.659  1.8219  0.3535 -1.8678
  891MOL0     H22948   4.115  11.487   0.717 -1.0024 -0.7688  1.2103
  891MOL0     H22949   4.022  11.581   0.593 -2.1678 -1.2121  0.0946
  891MOL0     H22950   4.219  11.364   0.523  1.7083  1.4411  3.6426
  891MOL0     H22951   4.141  11.492   0.418 -4.1662  0.1841  1.3873
  891MOL0     H22952   4.341  11.526   0.632 -2.5223 -1.1194  1.1204
  891MOL0     H22953   4.259  11.668   0.543  1.1441  0.0878 -2.5105
  891MOL0     H22954   4.515  11.550   0.236 -2.4621  0.8808 -2.1830
  891MOL0     H22955   3.731  11.241   0.645  1.0060  2.0234 -0.1414
  891MOL0     H22956   3.522  11.151   0.707 -0.1048  1.0860  0.8784
  891MOL0     H22957   3.393  11.224   0.614 -0.2649  0.0372 -0.3114
  891MOL0     H22958   3.454  11.051   0.578 -1.5862  1.1475 -3.6468
  892MOL0     O22959   0.075   8.562  10.540 -0.4352 -0.2840 -0.2362
  892MOL0     C22960   0.119   8.657  10.605  0.7744  0.5360 -0.2536
  892MOL0     O22961   0.231   8.718  10.581  0.2509  0.2485 -0.3329
  892MOL0     C22962   0.311   8.692  10.477 -0.0744  0.0370 -0.3595
  892MOL0     C22963   0.384   8.786  10.423 -0.5739  0.5682 -1.3222
  892MOL0     C22964   0.479   8.754  10.324 -0.1238  0.0373 -0.1830
  892MOL0     C22965   0.507   8.618  10.293 -0.4266 -0.9544  0.2751
  892MOL0     O22966   0.610   8.611  10.208 -0.0968  0.1947 -0.1189
  892MOL0     C22967   0.644   8.483  10.148 -0.4871  1.0724 -0.5155
  892MOL0     C22968   0.562   8.435  10.035  0.1607 -0.3921  0.6743
  892MOL0     C22969   0.547   8.528   9.912  0.3085 -0.2866  0.7593
  892MOL0     C22970   0.426   8.629   9.935 -0.3176 -0.3977 -0.5724
  892MOL0     C22971   0.378   8.714   9.825  0.3763 -0.0934 -0.0548
  892MOL0     C22972   0.367   8.629   9.702 -0.4490  0.4054  0.3123
  892MOL0     C22973   0.326   8.715   9.580 -0.1741 -0.3425  0.4135
  892MOL0     C22974   0.253   8.635   9.474 -0.3229  0.1491 -0.2497
  892MOL0     N22975   0.348   8.535   9.415  0.0881  0.2136  0.7249
  892MOL0     C22976   0.443   8.562   9.317  0.8199  0.7784  0.3442
  892MOL0     C22977   0.500   8.434   9.300 -0.8094 -0.2836 -0.7588
  892MOL0     C22978   0.619   8.398   9.204  0.1232  0.0022 -1.1114
  892MOL0     C22979   0.633   8.490   9.089 -0.0208  0.6198  0.2020
  892MOL0     C22980   0.724   8.606   9.105  1.4172 -0.2397 -0.3502
  892MOL0     C22981   0.725   8.709   8.991 -0.1753  0.5430 -0.8443
  892MOL0     O22982   0.597   8.734   8.947 -0.6842 -0.0357  0.2416
  892MOL0     C22983   0.526   8.831   9.010 -0.7219 -0.5580  0.0886
  892MOL0     C22984   0.422   8.879   8.943  0.6434 -0.3076 -0.0056
  892MOL0     C22985   0.341   8.995   8.988 -0.4644  1.1130  0.2666
  892MOL0     C22986   0.209   9.021   8.910 -0.2150  0.2352  0.2975
  892MOL0     C22987   0.356   9.040   9.112 -0.1271 -0.0960  0.5226
  892MOL0     C22988   0.281   9.149   9.176  1.5889  0.0620 -0.0532
  892MOL0     O22989   0.219   9.242   9.093 -0.0445 -0.4091 -0.3151
  892MOL0     C22990   0.188   9.368   9.144  0.1161 -0.0153  0.3466
  892MOL0     C22991   0.277   9.459   9.187 -0.0184  1.3349 -0.4627
  892MOL0     C22992   0.238   9.584   9.241  0.4749  0.4257  0.5011
  892MOL0     C22993   0.102   9.620   9.252 -0.0923  0.4487 -0.0944
  892MOL0     O22994   0.076   9.745   9.296  0.0974  0.0164 -0.4541
  892MOL0     C22995   0.157   9.855   9.254 -0.2162  0.6361 -1.1485
  892MOL0     C22996   0.243   9.896   9.375 -0.2449  0.5715 -0.5239
  892MOL0     C22997   0.189  10.014   9.440 -0.3873 -0.6214 -0.4698
  892MOL0     C22998   0.250  10.039   9.582 -0.4526  0.7489  0.0151
  892MOL0     C22999   0.161  10.121   9.680  0.0123  0.0142  0.3609
  892MOL0     C23000   0.216  10.118   9.816 -0.1155  0.2550 -0.1272
  892MOL0     C23001   0.166  10.011   9.909 -0.3599 -0.9390  0.6579
  892MOL0     C23002   0.231  10.043  10.051 -0.4175 -0.0251  0.6817
  892MOL0    Cl23003   0.236   9.893  10.150  0.3130  0.0470  0.1091
  892MOL0     C23004   0.007   9.531   9.200  0.2007  0.6391 -0.2588
  892MOL0     C23005   0.050   9.405   9.145  0.9601 -0.5274 -0.0644
  892MOL0     O23006   0.294   9.165   9.299 -0.1888  1.4078 -0.1988
  892MOL0     C23007   0.461   8.982   9.186 -0.1546 -0.9386 -0.5168
  892MOL0     C23008   0.531   8.874   9.142  0.1595  0.8535 -0.8747
  892MOL0     N23009   0.446   8.343   9.383  0.1376  0.3371 -0.7395
  892MOL0     N23010   0.353   8.406   9.455  0.6003  0.1635 -0.0916
  892MOL0     C23011   0.433   8.516  10.346  0.0052  0.2831 -0.1485
  892MOL0     C23012   0.337   8.557  10.436  0.2483 -0.0587 -0.3447
  892MOL0     C23013   0.059   8.690  10.730  0.1788  0.3597 -0.2754
  892MOL0     C23014   0.022   8.818  10.768 -0.8852 -0.6809  0.7015
  892MOL0     C23015  -0.042   8.852  10.889  0.3887 -0.4028 -0.1922
  892MOL0     C23016  -0.055   8.755  10.984 -0.3581 -0.9935 -0.3357
  892MOL0     O23017  -0.110   8.802  11.101 -0.1559 -0.8196  0.3939
  892MOL0     C23018  -0.121   8.707  11.212 -0.1322 -0.3606 -0.7614
  892MOL0     C23019   0.004   8.707  11.298  0.5645 -0.7428 -0.4796
  892MOL0     C23020   0.032   8.852  11.345 -0.0024 -0.3238 -0.6227
  892MOL0     C23021   0.118   8.848  11.466  0.9694  0.2224 -0.9192
  892MOL0     C23022   0.189   8.970  11.483 -0.2965 -0.3990  1.2482
  892MOL0     C23023   0.267   9.057  11.521 -0.5019 -0.2902 -0.0120
  892MOL0     C23024  -0.027   8.627  10.951 -0.9784  0.4859 -0.4204
  892MOL0     C23025   0.030   8.591  10.828 -0.9539  0.0475 -0.6353
  892MOL0     C23026   0.079   8.449  10.816 -0.2516 -0.6957 -0.4931
  892MOL0     H23027   0.363   8.891  10.441  0.6813  1.0408 -2.4674
  892MOL0     H23028   0.541   8.827  10.274  0.9668 -0.5208  0.3346
  892MOL0     H23029   0.632   8.413  10.231 -3.8315  0.8857 -1.0124
  892MOL0     H23030   0.750   8.484  10.122 -0.0094 -2.0689  0.8232
  892MOL0     H23031   0.601   8.341   9.995  1.2478  0.7167 -0.9559
  892MOL0     H23032   0.468   8.400  10.078 -0.5336 -0.4702 -0.8516
  892MOL0     H23033   0.638   8.578   9.878  0.5886 -2.3612 -1.9034
  892MOL0     H23034   0.519   8.469   9.824 -0.2174  2.2994 -0.9309
  892MOL0     H23035   0.341   8.572   9.975  0.7145 -0.7113  1.2803
  892MOL0     H23036   0.465   8.699  10.010  0.5677 -2.4344  0.9788
  892MOL0     H23037   0.443   8.801   9.814  2.8952 -1.7429  0.9973
  892MOL0     H23038   0.278   8.747   9.855  0.0930 -0.7220 -0.2816
  892MOL0     H23039   0.464   8.589   9.672  0.2133  1.3777  1.1230
  892MOL0     H23040   0.296   8.546   9.711 -2.4940  1.8457 -1.5486
  892MOL0     H23041   0.404   8.783   9.544 -1.0950  0.2990 -0.3996
  892MOL0     H23042   0.238   8.775   9.604  0.9834  2.2343 -1.4000
  892MOL0     H23043   0.164   8.587   9.517  0.6433 -0.6631  0.9178
  892MOL0     H23044   0.227   8.706   9.395 -1.0149  0.2336  0.0446
  892MOL0     H23045   0.454   8.651   9.257 -1.6442  1.5310  0.8648
  892MOL0     H23046   0.599   8.294   9.176  2.2772 -0.2292 -1.9261
  892MOL0     H23047   0.708   8.392   9.267 -0.2789 -2.3512 -0.6375
  892MOL0     H23048   0.673   8.433   9.005 -3.2789 -2.9937  0.7844
  892MOL0     H23049   0.532   8.528   9.068 -0.6059 -1.4813 -1.0856
  892MOL0     H23050   0.702   8.660   9.198  0.4121 -4.4162  2.0571
  892MOL0     H23051   0.824   8.563   9.109  1.0610 -1.4561 -2.8189
  892MOL0     H23052   0.771   8.801   9.028 -0.8361  0.4337  0.2959
  892MOL0     H23053   0.783   8.665   8.910  0.0810 -1.7679  0.5082
  892MOL0     H23054   0.404   8.843   8.842 -0.1439 -0.9288  0.3505
  892MOL0     H23055   0.198   8.955   8.823  2.3877 -1.2683  0.9851
  892MOL0     H23056   0.222   9.121   8.868 -2.3888 -0.5427 -2.5339
  892MOL0     H23057   0.125   9.021   8.980  1.4864  0.2883  2.4628
  892MOL0     H23058   0.381   9.427   9.191 -0.6860 -1.3994 -2.4741
  892MOL0     H23059   0.313   9.653   9.278  0.7212  0.6933 -0.4756
  892MOL0     H23060   0.230   9.828   9.177  0.7764 -1.2703  0.3716
  892MOL0     H23061   0.080   9.925   9.219 -2.9356 -2.0100 -0.7950
  892MOL0     H23062   0.241   9.819   9.453  1.8927 -1.5084 -2.3383
  892MOL0     H23063   0.349   9.912   9.356 -0.8881  3.0166 -2.5870
  892MOL0     H23064   0.080  10.008   9.448 -0.5713  0.7590 -1.4813
  892MOL0     H23065   0.215  10.103   9.383 -2.2822 -0.2473 -0.8073
  892MOL0     H23066   0.348  10.084   9.571 -0.4034 -0.0338 -5.5616
  892MOL0     H23067   0.267   9.940   9.624 -0.7709 -0.2408 -2.0459
  892MOL0     H23068   0.143  10.225   9.651 -2.4232 -0.1397  1.1078
  892MOL0     H23069   0.060  10.079   9.690  1.2761 -3.1139  1.2525
  892MOL0     H23070   0.194  10.209   9.872 -0.0457  0.1742  0.0346
  892MOL0     H23071   0.325  10.115   9.806 -0.2738 -2.3038 -2.1105
  892MOL0     H23072   0.195   9.908   9.884  0.1541 -1.0844  1.7648
  892MOL0     H23073   0.059  10.011   9.929 -0.1703  0.5668  1.8688
  892MOL0     H23074   0.170  10.120  10.100 -2.2005 -0.2190 -1.0730
  892MOL0     H23075   0.328  10.085  10.022 -0.6312  1.1492  1.5729
  892MOL0     H23076  -0.097   9.558   9.186 -0.5101 -2.1697 -1.1066
  892MOL0     H23077  -0.016   9.338   9.091  0.1182 -0.4577  0.8431
  892MOL0     H23078   0.483   9.029   9.282  0.0465  1.9532 -1.8653
  892MOL0     H23079   0.602   8.820   9.204  2.3507  1.3610 -2.7646
  892MOL0     H23080   0.460   8.414  10.321  2.8844  0.1438  2.8480
  892MOL0     H23081   0.280   8.481  10.489 -0.2227  0.3398 -0.2747
  892MOL0     H23082   0.037   8.905  10.705 -3.5977 -0.8857 -0.3788
  892MOL0     H23083  -0.072   8.952  10.915  1.2193  0.7069 -3.0814
  892MOL0     H23084  -0.203   8.742  11.275 -0.9993  1.5405 -2.7836
  892MOL0     H23085  -0.137   8.605  11.177 -0.1207 -1.0328  1.1246
  892MOL0     H23086   0.089   8.682  11.234  1.3557  0.4111  0.0872
  892MOL0     H23087  -0.015   8.633  11.376 -0.7041  0.3005  0.2421
  892MOL0     H23088   0.082   8.897  11.259 -1.8678  1.8470 -0.6774
  892MOL0     H23089  -0.063   8.906  11.356 -1.2657 -1.5330 -4.1482
  892MOL0     H23090   0.200   8.777  11.454 -0.1844 -1.3542  0.1248
  892MOL0     H23091   0.054   8.827  11.553  2.3106  0.4838  0.1678
  892MOL0     H23092   0.325   9.136  11.564 -1.2355 -0.4627  1.3711
  892MOL0     H23093  -0.031   8.549  11.026 -0.6424  2.2206  1.5139
  892MOL0     H23094  -0.009   8.397  10.776  0.9913 -1.6901 -2.0129
  892MOL0     H23095   0.168   8.429  10.756  2.5142 -1.3804  3.4288
  892MOL0     H23096   0.096   8.411  10.917 -0.8154 -0.2167 -0.2110
  893MOL0     O23097   8.618   7.928  11.053  0.4960 -0.7429  0.3533
  893MOL0     C23098   8.550   7.986  11.141 -0.0525 -0.0025 -0.1452
  893MOL0     O23099   8.564   7.972  11.272  0.0314  0.3520  0.1548
  893MOL0     C23100   8.645   7.866  11.308 -0.6533 -0.2434 -0.3490
  893MOL0     C23101   8.613   7.732  11.313 -0.7539 -0.9357 -0.1100
  893MOL0     C23102   8.707   7.631  11.333 -0.4857 -0.2251  0.5897
  893MOL0     C23103   8.846   7.670  11.363  0.9427 -0.3710  0.1351
  893MOL0     O23104   8.924   7.564  11.392  0.4911 -0.7822 -0.2246
  893MOL0     C23105   9.062   7.583  11.429  0.8873 -0.6400 -0.9071
  893MOL0     C23106   9.125   7.445  11.422  0.7011  0.2758 -0.2305
  893MOL0     C23107   9.088   7.350  11.532  0.3353  0.4826 -0.3009
  893MOL0     C23108   9.131   7.394  11.669  0.9466 -0.4589  0.5911
  893MOL0     C23109   9.284   7.350  11.697 -0.1991 -0.3653 -0.8123
  893MOL0     C23110   9.338   7.381  11.833 -0.0873 -0.2536 -0.2662
  893MOL0     C23111   9.323   7.524  11.871 -0.2200  0.0218 -0.2897
  893MOL0     C23112   9.409   7.561  11.999  0.4572  0.0352 -0.1075
  893MOL0     N23113   9.391   7.701  12.038 -0.6372 -0.5348  0.2076
  893MOL0     C23114   9.314   7.745  12.148  0.1738 -0.4781 -0.6504
  893MOL0     C23115   9.354   7.873  12.174  0.0319  0.0431  0.5378
  893MOL0     C23116   9.320   7.963  12.282 -0.0780 -0.5022 -0.2986
  893MOL0     C23117   9.372   8.109  12.253 -0.3467 -0.1363 -0.4827
  893MOL0     C23118   9.294   8.179  12.132  0.4173 -0.0237  0.2239
  893MOL0     C23119   9.348   8.322  12.109  0.7692 -0.8597 -0.8188
  893MOL0     O23120   9.462   8.323  12.021  0.5963  0.0118 -0.6151
  893MOL0     C23121   9.451   8.315  11.884 -0.0845  0.8890 -1.0097
  893MOL0     C23122   9.580   8.320  11.833  0.1742 -0.2449 -0.4967
  893MOL0     C23123   9.596   8.315  11.696 -0.2690  0.2762 -0.4318
  893MOL0     C23124   9.738   8.346  11.650 -1.0555 -0.3395 -0.2532
  893MOL0     C23125   9.484   8.308  11.612 -1.5123 -0.2783 -0.0111
  893MOL0     C23126   9.493   8.315  11.465  0.4712 -0.0216  0.9498
  893MOL0     O23127   9.428   8.428  11.415  0.5362  0.4618 -0.6996
  893MOL0     C23128   9.433   8.459  11.277  0.8774 -0.0936  0.3933
  893MOL0     C23129   9.346   8.400  11.182 -0.1175  0.5051 -0.1905
  893MOL0     C23130   9.354   8.442  11.050 -0.2015  1.3547 -0.3134
  893MOL0     C23131   9.450   8.535  11.009  0.1438  0.5636 -0.6236
  893MOL0     O23132   9.475   8.575  10.881  0.2210 -1.1164  0.0112
  893MOL0     C23133   9.446   8.489  10.770  0.6746  0.0910  0.3631
  893MOL0     C23134   9.550   8.523  10.667  0.7865 -0.3763  0.1032
  893MOL0     C23135   9.672   8.427  10.687  0.2097 -0.1828 -0.4410
  893MOL0     C23136   9.669   8.300  10.596  0.5222 -0.5235 -0.1882
  893MOL0     C23137   9.755   8.184  10.640  0.7119 -0.8561 -0.6234
  893MOL0     C23138   9.697   8.080  10.750  0.9138 -0.3472 -0.5053
  893MOL0     C23139   9.817   8.018  10.829 -1.1337  0.8226  1.0121
  893MOL0     C23140   9.890   7.916  10.754 -0.3599 -0.7337  0.1934
  893MOL0    Cl23141   9.786   7.790  10.699 -0.3139 -0.4465  0.3673
  893MOL0     C23142   9.534   8.595  11.107 -0.1536  1.0399  1.0440
  893MOL0     C23143   9.524   8.562  11.241  0.3388 -1.8786  0.5737
  893MOL0     O23144   9.569   8.243  11.399  0.2506 -0.6887  0.0376
  893MOL0     C23145   9.357   8.300  11.662 -0.0389  0.1069 -0.4147
  893MOL0     C23146   9.339   8.304  11.797  0.2331  0.5485 -0.1994
  893MOL0     N23147   9.456   7.902  12.084 -0.3431  0.2151  0.0601
  893MOL0     N23148   9.470   7.805  11.999 -1.2250  0.2875  0.9278
  893MOL0     C23149   8.883   7.803  11.347 -0.6267  0.4983  0.3587
  893MOL0     C23150   8.782   7.904  11.325 -0.2131  0.4358  0.2696
  893MOL0     C23151   8.465   8.104  11.084 -0.1924 -0.1437 -0.0032
  893MOL0     C23152   8.428   8.208  11.169  0.8371 -0.4267  0.0221
  893MOL0     C23153   8.387   8.331  11.105  0.3012 -0.5592 -0.7068
  893MOL0     C23154   8.363   8.347  10.968  0.6545  0.0107  0.0728
  893MOL0     O23155   8.298   8.456  10.913  0.2923  0.1941  0.0878
  893MOL0     C23156   8.354   8.587  10.951  0.1500 -1.0344  0.5030
  893MOL0     C23157   8.426   8.648  10.832  0.1956 -1.2447  0.0362
  893MOL0     C23158   8.493   8.781  10.857  0.4884 -0.5475 -0.2147
  893MOL0     C23159   8.605   8.806  10.750 -0.3744 -0.1613  0.4218
  893MOL0     C23160   8.691   8.907  10.812 -0.1174  0.6370 -0.4039
  893MOL0     C23161   8.765   9.000  10.854 -1.1086  0.5647  0.2857
  893MOL0     C23162   8.373   8.229  10.896  0.6298 -0.2436 -0.1182
  893MOL0     C23163   8.422   8.111  10.948  0.1779  0.0834 -0.3385
  893MOL0     C23164   8.438   8.005  10.853  0.2264 -0.2220 -0.3055
  893MOL0     H23165   8.507   7.713  11.298 -1.1023 -0.4130  1.4439
  893MOL0     H23166   8.675   7.528  11.342 -2.8648  0.4140  0.1003
  893MOL0     H23167   9.067   7.646  11.518 -3.4735 -1.3341  0.0867
  893MOL0     H23168   9.123   7.632  11.352  2.6205 -0.1934  0.6914
  893MOL0     H23169   9.121   7.399  11.322  1.0633  1.9186 -1.0341
  893MOL0     H23170   9.232   7.468  11.425  0.6125  0.7459 -0.4867
  893MOL0     H23171   8.982   7.325  11.536  0.7572 -1.2729  1.4645
  893MOL0     H23172   9.140   7.255  11.512  0.8448  0.6587  0.1786
  893MOL0     H23173   9.107   7.500  11.683  0.3614 -0.3577 -0.9519
  893MOL0     H23174   9.067   7.344  11.743 -0.7722  1.7600  0.7379
  893MOL0     H23175   9.346   7.403  11.624  1.5985  0.9399  1.5207
  893MOL0     H23176   9.290   7.246  11.663  0.8969 -0.1582 -1.2902
  893MOL0     H23177   9.272   7.326  11.901 -0.5649 -1.1030 -1.3752
  893MOL0     H23178   9.443   7.357  11.853 -0.3473  0.4263  2.2573
  893MOL0     H23179   9.220   7.557  11.887 -0.3166 -0.2103 -0.4226
  893MOL0     H23180   9.367   7.580  11.787  0.4546  3.2087  2.0235
  893MOL0     H23181   9.382   7.502  12.087 -1.2155  0.1004 -0.5267
  893MOL0     H23182   9.516   7.549  11.982  1.0788  2.2938  1.7069
  893MOL0     H23183   9.246   7.685  12.208  1.4513 -1.7749 -0.4357
  893MOL0     H23184   9.378   7.935  12.370 -0.0014 -1.4173 -0.6224
  893MOL0     H23185   9.212   7.948  12.293 -0.5732 -2.4158 -5.2759
  893MOL0     H23186   9.361   8.159  12.349  1.3458 -3.0485  1.3680
  893MOL0     H23187   9.475   8.091  12.223 -1.1333 -0.7001 -3.1825
  893MOL0     H23188   9.301   8.118  12.042 -1.3207 -1.8665  1.2566
  893MOL0     H23189   9.189   8.182  12.161  0.4755 -2.3270  0.8712
  893MOL0     H23190   9.270   8.378  12.058 -1.1515 -0.9784  1.7660
  893MOL0     H23191   9.376   8.372  12.202 -2.5632  2.1853 -1.2612
  893MOL0     H23192   9.648   8.315  11.918 -1.5206 -3.3901  0.8664
  893MOL0     H23193   9.759   8.318  11.547 -3.9174 -3.4973 -0.1829
  893MOL0     H23194   9.811   8.293  11.711 -0.8338  1.3292  0.9994
  893MOL0     H23195   9.757   8.453  11.638  0.5915 -0.7498 -1.5592
  893MOL0     H23196   9.275   8.330  11.226  0.6985 -0.7749 -0.8370
  893MOL0     H23197   9.280   8.416  10.975 -2.7696 -0.0134  2.4735
  893MOL0     H23198   9.457   8.382  10.788 -3.0563 -0.5004  0.0257
  893MOL0     H23199   9.347   8.512  10.729  0.1292 -1.6167  0.6416
  893MOL0     H23200   9.496   8.508  10.573 -0.3629  1.2314  0.4791
  893MOL0     H23201   9.588   8.625  10.669  2.1860 -0.8775  2.2444
  893MOL0     H23202   9.669   8.393  10.791 -2.2940 -0.2645 -0.4613
  893MOL0     H23203   9.764   8.482  10.666  1.4835 -2.0250  0.0423
  893MOL0     H23204   9.689   8.336  10.495 -0.6649  1.3494  0.1877
  893MOL0     H23205   9.567   8.261  10.597 -0.0690  0.9027 -1.5228
  893MOL0     H23206   9.793   8.126  10.555  1.2537 -1.7168  0.1830
  893MOL0     H23207   9.844   8.232  10.684  0.1747  2.2403 -2.5608
  893MOL0     H23208   9.641   8.004  10.694  2.4898  0.7803 -3.8956
  893MOL0     H23209   9.636   8.141  10.817  3.1070 -1.1073  2.3736
  893MOL0     H23210   9.787   7.962  10.918 -0.7369 -2.2664 -0.6617
  893MOL0     H23211   9.886   8.095  10.866 -1.3317  1.6907 -0.3277
  893MOL0     H23212   9.968   7.880  10.821  1.5267  2.7123  0.0850
  893MOL0     H23213   9.938   7.975  10.675 -0.5062  1.2222  1.4711
  893MOL0     H23214   9.610   8.664  11.071  0.8687 -0.6151 -0.0751
  893MOL0     H23215   9.583   8.602  11.323  0.3597 -1.4632  0.3577
  893MOL0     H23216   9.268   8.293  11.601  0.5389  2.6164 -1.6637
  893MOL0     H23217   9.245   8.269  11.837  1.5322 -2.0896  0.8122
  893MOL0     H23218   8.983   7.842  11.358 -0.6718  0.9812 -0.8079
  893MOL0     H23219   8.819   8.002  11.299  0.6046  0.4955  1.5758
  893MOL0     H23220   8.470   8.208  11.269 -0.9529  1.3436  0.8248
  893MOL0     H23221   8.360   8.412  11.172  0.4224 -2.4836  1.8474
  893MOL0     H23222   8.276   8.654  10.989 -1.6759 -2.9322  0.3082
  893MOL0     H23223   8.413   8.588  11.043 -2.0818  2.9756  2.1852
  893MOL0     H23224   8.364   8.662  10.743  3.0421  1.4019 -1.7557
  893MOL0     H23225   8.500   8.571  10.812 -0.1284 -1.7269  0.6532
  893MOL0     H23226   8.421   8.862  10.844  0.4857 -0.7514 -1.5982
  893MOL0     H23227   8.530   8.785  10.960 -1.2099  0.4813  0.3927
  893MOL0     H23228   8.573   8.838  10.650  1.4040 -0.4828 -0.2946
  893MOL0     H23229   8.661   8.712  10.745  0.7984  0.5885 -1.7894
  893MOL0     H23230   8.830   9.079  10.885 -1.5529  1.0357  0.0542
  893MOL0     H23231   8.339   8.230  10.793  0.7822  1.2565 -0.1783
  893MOL0     H23232   8.419   7.910  10.905 -0.7199  1.9986  3.8186
  893MOL0     H23233   8.363   8.020  10.775  0.0519 -2.7393 -0.7068
  893MOL0     H23234   8.541   8.002  10.816 -0.2021  0.1579 -1.5954
  894MOL0     O23235   3.233   0.363  10.216 -0.0359 -0.1100  0.1731
  894MOL0     C23236   3.162   0.262  10.187 -0.8910  0.0221 -0.0240
  894MOL0     O23237   3.122   0.167  10.276 -0.6506 -0.4953 -0.4358
  894MOL0     C23238   3.122   0.207  10.409  0.5325 -0.6177  0.3336
  894MOL0     C23239   3.011   0.290  10.451  0.0470  0.2820  0.6090
  894MOL0     C23240   3.005   0.321  10.579 -0.5176  0.5833 -0.1104
  894MOL0     C23241   3.097   0.279  10.681 -0.5008 -0.2642 -0.2937
  894MOL0     O23242   3.081   0.292  10.823  0.0371  0.4241  0.7880
  894MOL0     C23243   2.960   0.234  10.874 -0.9144  0.2289 -0.9452
  894MOL0     C23244   2.972   0.210  11.023  0.1984  0.1331  0.2421
  894MOL0     C23245   2.978   0.333  11.117  0.1338  0.4700  0.4576
  894MOL0     C23246   3.013   0.274  11.249  0.1087 -0.6196  0.2868
  894MOL0     C23247   3.000   0.388  11.343 -0.5606 -0.6495  0.2850
  894MOL0     C23248   2.996   0.348  11.494  0.3450 -0.1382 -0.5979
  894MOL0     C23249   3.112   0.268  11.554  0.2976 -0.4666  0.2668
  894MOL0     C23250   3.091   0.224  11.698  0.5524  0.0228 -0.7376
  894MOL0     N23251   3.118   0.331  11.800  1.1634  0.6134  0.4667
  894MOL0     C23252   3.246   0.348  11.848  0.3999  0.3482 -0.6031
  894MOL0     C23253   3.234   0.456  11.927  0.2968  0.2462  0.7935
  894MOL0     C23254   3.342   0.523  12.009 -0.3737  0.4475  1.0370
  894MOL0     C23255   3.333   0.470  12.151  0.1077  0.1106 -0.4231
  894MOL0     C23256   3.423   0.551  12.246  0.2122  0.2469  0.7558
  894MOL0     C23257   3.362   0.689  12.266  0.6375 -0.1673  0.2535
  894MOL0     O23258   3.235   0.688  12.344 -0.9830  0.1534 -0.5564
  894MOL0     C23259   3.238   0.664  12.483 -0.1088  0.3904 -0.5655
  894MOL0     C23260   3.360   0.677  12.560 -0.2103 -0.5482 -0.2003
  894MOL0     C23261   3.349   0.677  12.701 -0.9553  0.1691 -0.0948
  894MOL0     C23262   3.478   0.698  12.786  0.2828  0.3109  0.1511
  894MOL0     C23263   3.225   0.647  12.764  1.0075  0.5562  0.8392
  894MOL0     C23264   3.207   0.655  12.913  0.2158  0.1198  0.8698
  894MOL0     O23265   3.219   0.543  12.987 -0.0471  0.4899  0.7270
  894MOL0     C23266   3.193   0.569  13.118  1.3474 -0.5567  0.0772
  894MOL0     C23267   3.066   0.580  13.174 -0.6731  1.0660 -0.4584
  894MOL0     C23268   3.042   0.603  13.308 -0.5329 -0.1358  0.7037
  894MOL0     C23269   3.151   0.634  13.389  0.0470  0.3898  0.0510
  894MOL0     O23270   3.134   0.654  13.523  0.2400 -0.2626 -0.1371
  894MOL0     C23271   3.123   0.524  13.590  0.1654  0.7812  0.6091
  894MOL0     C23272   2.976   0.454  13.595 -0.5710 -1.3077  0.8343
  894MOL0     C23273   2.966   0.348  13.706  0.1203  0.8445 -0.3028
  894MOL0     C23274   2.957   0.402  13.848  0.2929  0.1437 -0.3210
  894MOL0     C23275   2.915   0.306  13.961  0.4578 -0.3894  0.9902
  894MOL0     C23276   2.993   0.180  13.982  0.5126 -0.0820 -0.2871
  894MOL0     C23277   2.912   0.064  14.056  0.5214  0.2602 -0.4039
  894MOL0     C23278   2.999  -0.067  14.062  0.0210  0.9940 -0.2095
  894MOL0    Cl23279   3.144  -0.032  14.164  0.2441  0.1937  0.1387
  894MOL0     C23280   3.278   0.619  13.346 -0.5860  0.9437  0.2307
  894MOL0     C23281   3.302   0.586  13.214  0.0453 -0.3976 -1.5566
  894MOL0     O23282   3.201   0.770  12.954 -0.3012 -0.2891  0.0342
  894MOL0     C23283   3.110   0.627  12.691 -0.5197 -0.0263  0.2744
  894MOL0     C23284   3.122   0.630  12.552 -0.1506 -0.5304  0.2441
  894MOL0     N23285   3.100   0.496  11.932  0.6859  0.2293 -0.0254
  894MOL0     N23286   3.038   0.433  11.836  0.2927  0.7229  1.3505
  894MOL0     C23287   3.204   0.204  10.638  0.6836 -0.2560 -0.3786
  894MOL0     C23288   3.220   0.159  10.499 -0.2848  0.7137  0.2807
  894MOL0     C23289   3.125   0.236  10.043 -0.5387 -0.5421  0.7331
  894MOL0     C23290   3.042   0.128  10.020 -0.0021  0.0694 -0.2575
  894MOL0     C23291   3.008   0.080   9.896  0.1980  0.0535  0.9191
  894MOL0     C23292   3.043   0.166   9.784 -0.5658  1.8746 -0.5097
  894MOL0     O23293   2.993   0.121   9.670  0.0344  0.0784 -0.3122
  894MOL0     C23294   3.040   0.189   9.549 -1.0309 -0.2126 -0.6837
  894MOL0     C23295   3.005   0.093   9.427  0.4878  0.2936 -0.0751
  894MOL0     C23296   2.858   0.046   9.427 -0.3545  0.5741  0.4968
  894MOL0     C23297   2.756   0.141   9.355  0.5433  0.2672 -0.2561
  894MOL0     C23298   2.736   0.267   9.432 -0.1836  0.3343  0.7017
  894MOL0     C23299   2.709   0.376   9.474 -0.4795  0.4753  0.6157
  894MOL0     C23300   3.133   0.274   9.806 -0.7341 -0.2425 -0.1464
  894MOL0     C23301   3.168   0.316   9.939 -0.9427  0.5817  0.1725
  894MOL0     C23302   3.256   0.433   9.952 -0.3572 -0.0107 -0.1523
  894MOL0     H23303   2.943   0.323  10.373  2.7899 -1.2474 -2.6836
  894MOL0     H23304   2.930   0.393  10.606  1.2686  1.6250  2.5696
  894MOL0     H23305   2.950   0.137  10.823  3.0840 -0.6720 -0.3901
  894MOL0     H23306   2.875   0.303  10.877 -0.2286  1.0516  0.1229
  894MOL0     H23307   2.878   0.157  11.044  0.1777 -0.2168 -0.6736
  894MOL0     H23308   3.057   0.142  11.031 -2.2369 -3.8650 -3.4349
  894MOL0     H23309   3.054   0.397  11.072  0.2813 -0.5814 -0.8394
  894MOL0     H23310   2.881   0.383  11.121  0.4356  1.0233  2.6232
  894MOL0     H23311   2.936   0.198  11.270 -0.6163 -0.9083 -2.9145
  894MOL0     H23312   3.113   0.230  11.247  0.6388  0.5654 -1.1501
  894MOL0     H23313   2.902   0.436  11.334 -0.3361 -0.0785  0.7607
  894MOL0     H23314   3.077   0.464  11.322 -1.3126  0.9523  2.8361
  894MOL0     H23315   2.983   0.437  11.556 -2.9235  0.5259 -2.0457
  894MOL0     H23316   2.903   0.293  11.510 -0.9508  1.3786 -2.5478
  894MOL0     H23317   3.206   0.319  11.528  0.0005  0.4598  0.9448
  894MOL0     H23318   3.114   0.177  11.493 -0.2754 -1.3798  1.5769
  894MOL0     H23319   2.991   0.188  11.723  0.3587  0.5564 -0.7190
  894MOL0     H23320   3.161   0.141  11.708  0.0035 -0.5795 -1.7228
  894MOL0     H23321   3.338   0.302  11.815  0.5694  0.9699 -1.0112
  894MOL0     H23322   3.325   0.631  12.013 -0.5422  0.3855  3.3436
  894MOL0     H23323   3.445   0.502  11.979 -0.4922  0.2190  0.7903
  894MOL0     H23324   3.230   0.483  12.184  0.6896  0.9538  1.1678
  894MOL0     H23325   3.352   0.363  12.147 -4.6267 -0.8720 -2.5375
  894MOL0     H23326   3.441   0.502  12.342  2.5038 -1.6482 -0.5639
  894MOL0     H23327   3.520   0.560  12.196  1.3371 -2.4677  2.2432
  894MOL0     H23328   3.429   0.760  12.316 -0.0112  0.3299  0.4309
  894MOL0     H23329   3.334   0.728  12.168  4.6497  0.4383 -0.8539
  894MOL0     H23330   3.453   0.704  12.512 -0.6640  2.3080  0.3858
  894MOL0     H23331   3.457   0.748  12.881  0.1814 -0.9849  0.8396
  894MOL0     H23332   3.550   0.751  12.723  1.1558 -1.0385 -0.0222
  894MOL0     H23333   3.520   0.600  12.808 -0.9506 -0.4873 -0.8984
  894MOL0     H23334   2.983   0.558  13.108  1.8003  4.1571 -5.1694
  894MOL0     H23335   2.940   0.603  13.345 -0.0494 -0.3662  2.0920
  894MOL0     H23336   3.181   0.452  13.533 -2.3067  0.6634 -2.0331
  894MOL0     H23337   3.160   0.526  13.693  1.5650 -1.1152  0.1807
  894MOL0     H23338   2.899   0.526  13.624  2.1926  1.0609  2.9380
  894MOL0     H23339   2.963   0.410  13.496  0.7851 -1.0778  0.5353
  894MOL0     H23340   3.041   0.269  13.695 -1.6072 -0.9524  0.1239
  894MOL0     H23341   2.873   0.295  13.682  0.5326 -0.6367  1.1876
  894MOL0     H23342   2.900   0.495  13.840  3.3170  2.4435  2.3265
  894MOL0     H23343   3.057   0.438  13.873 -0.6020  2.6857 -0.0810
  894MOL0     H23344   2.899   0.374  14.046 -2.7793  1.6073 -0.9978
  894MOL0     H23345   2.815   0.272  13.933 -2.6184  5.5513  3.0095
  894MOL0     H23346   3.080   0.211  14.040  1.6294 -0.9634 -1.4129
  894MOL0     H23347   3.028   0.146  13.884  0.3676  1.4796 -0.9095
  894MOL0     H23348   2.819   0.042  14.003  0.3337 -2.0592  0.7472
  894MOL0     H23349   2.888   0.083  14.161 -2.4487 -1.4913 -0.6621
  894MOL0     H23350   3.027  -0.109  13.965 -1.9009 -2.1623  0.4528
  894MOL0     H23351   2.934  -0.147  14.100  0.8457 -1.8399 -4.1948
  894MOL0     H23352   3.368   0.634  13.404  1.9752 -2.7603 -2.3007
  894MOL0     H23353   3.401   0.584  13.168 -0.3282 -1.2253 -2.3713
  894MOL0     H23354   3.012   0.626  12.738  0.3448  0.7874  2.2171
  894MOL0     H23355   3.032   0.625  12.492 -0.7232  1.4786  0.8530
  894MOL0     H23356   3.271   0.171  10.717  1.3397  1.0287 -0.3837
  894MOL0     H23357   3.293   0.089  10.461  0.1997  1.6073 -0.4857
  894MOL0     H23358   3.004   0.076  10.107  0.6250  2.1840  1.3680
  894MOL0     H23359   2.943  -0.006   9.885  1.7333 -0.8236 -3.2704
  894MOL0     H23360   2.984   0.280   9.527 -0.3992  1.3481  3.4183
  894MOL0     H23361   3.147   0.211   9.539 -0.7907 -0.6756  0.7394
  894MOL0     H23362   3.055  -0.004   9.435 -2.4157 -1.3166 -0.0795
  894MOL0     H23363   3.020   0.137   9.328  2.2997 -0.7250 -0.3101
  894MOL0     H23364   2.851  -0.043   9.364  1.3414  0.0371  1.0179
  894MOL0     H23365   2.812   0.005   9.517 -0.8176  1.3067  0.6051
  894MOL0     H23366   2.663   0.085   9.354 -0.4685  1.8880 -0.7650
  894MOL0     H23367   2.787   0.149   9.250  3.2186 -3.2201  0.0920
  894MOL0     H23368   2.685   0.470   9.520 -1.1255  0.3364  0.5757
  894MOL0     H23369   3.167   0.338   9.726  0.4367 -1.0805 -0.3375
  894MOL0     H23370   3.341   0.407  10.016 -1.7496 -2.0268  0.9812
  894MOL0     H23371   3.299   0.465   9.857  0.7685  1.8664  0.9366
  894MOL0     H23372   3.199   0.510  10.004  0.2663 -0.3082  1.0150
  895MOL0     O23373   8.972   0.595   2.309  0.0929 -0.1397  1.1537
  895MOL0     C23374   8.982   0.529   2.198 -0.4549 -0.5961 -0.1898
  895MOL0     O23375   8.907   0.413   2.167  0.3492 -1.0662  0.0520
  895MOL0     C23376   8.824   0.346   2.252 -1.0576  0.3120  0.2391
  895MOL0     C23377   8.726   0.273   2.191  1.2532 -0.5065  0.0017
  895MOL0     C23378   8.632   0.193   2.265 -0.7877  0.6300 -0.2727
  895MOL0     C23379   8.645   0.197   2.409  0.3860 -0.5052  0.1903
  895MOL0     O23380   8.560   0.119   2.480 -0.6337  1.0257 -0.1943
  895MOL0     C23381   8.422   0.146   2.458 -0.1252  0.5820  0.1459
  895MOL0     C23382   8.354   0.046   2.547 -0.3744  0.0400 -0.5653
  895MOL0     C23383   8.341  -0.092   2.482 -0.6611 -0.3868 -0.2295
  895MOL0     C23384   8.306  -0.103   2.335 -0.5688 -1.0105  0.5870
  895MOL0     C23385   8.283  -0.244   2.284  0.2581 -0.4008  0.3095
  895MOL0     C23386   8.418  -0.323   2.279 -0.1594 -0.0774 -0.4919
  895MOL0     C23387   8.385  -0.471   2.273 -0.1482  0.2818  0.2525
  895MOL0     C23388   8.497  -0.565   2.296 -0.5882  0.4583 -0.5554
  895MOL0     N23389   8.461  -0.705   2.314 -0.0181 -0.1132 -0.2474
  895MOL0     C23390   8.511  -0.789   2.414 -0.6160  0.6699 -0.3820
  895MOL0     C23391   8.461  -0.906   2.380  1.4830 -1.0828  0.0688
  895MOL0     C23392   8.466  -1.029   2.447  0.4961 -0.7096 -0.4646
  895MOL0     C23393   8.606  -1.095   2.451  0.2535  1.2405 -0.2086
  895MOL0     C23394   8.675  -1.158   2.316 -0.2219  0.4117 -0.6451
  895MOL0     C23395   8.798  -1.255   2.351  0.9291 -1.0015  0.9308
  895MOL0     O23396   8.793  -1.338   2.473  0.1602  0.4737  0.1714
  895MOL0     C23397   8.892  -1.434   2.483 -0.2890  0.8110  0.7228
  895MOL0     C23398   9.005  -1.468   2.397 -1.4460  0.1463 -0.6168
  895MOL0     C23399   9.102  -1.568   2.432 -0.0312 -0.0281  0.3695
  895MOL0     C23400   9.201  -1.596   2.328  0.6104  0.4372  0.7593
  895MOL0     C23401   9.089  -1.639   2.556 -0.0624 -0.1875  0.7772
  895MOL0     C23402   9.182  -1.744   2.608  0.6527 -0.4741 -0.3964
  895MOL0     O23403   9.240  -1.826   2.530  0.7298 -0.1591 -0.4049
  895MOL0     C23404   9.346  -1.900   2.565  0.5993  1.4958 -0.7759
  895MOL0     C23405   9.351  -1.991   2.675  0.1051 -0.2651 -0.0727
  895MOL0     C23406   9.461  -2.082   2.691 -0.5441 -0.1745  0.2156
  895MOL0     C23407   9.566  -2.074   2.597  0.3638 -0.8051 -0.0525
  895MOL0     O23408   9.658  -2.170   2.601  0.0609 -0.0501  0.1418
  895MOL0     C23409   9.784  -2.134   2.532 -0.7908  0.6396  0.4087
  895MOL0     C23410   9.895  -2.227   2.590  0.3768  0.3826  0.6839
  895MOL0     C23411   9.942  -2.135   2.695 -0.4330 -1.1082 -0.6105
  895MOL0     C23412  10.051  -2.200   2.781 -0.2310 -0.1396 -0.4910
  895MOL0     C23413  10.143  -2.104   2.860 -0.0907  0.0822  0.3146
  895MOL0     C23414  10.095  -2.070   3.002  0.6678  0.0634  0.5782
  895MOL0     C23415   9.959  -1.994   3.016 -0.6692  0.6923 -0.6595
  895MOL0     C23416   9.951  -1.861   2.950  0.7543  0.8373 -0.4381
  895MOL0    Cl23417  10.081  -1.753   3.026 -0.3755 -0.0029 -0.1308
  895MOL0     C23418   9.558  -1.986   2.490  0.5269  1.0043  0.2915
  895MOL0     C23419   9.453  -1.901   2.479  0.1469  0.1205  1.1863
  895MOL0     O23420   9.198  -1.741   2.730  0.7560 -0.4686 -1.2118
  895MOL0     C23421   8.978  -1.596   2.639 -1.2133  0.3495  0.4887
  895MOL0     C23422   8.884  -1.501   2.607  0.6461 -0.0335  0.5637
  895MOL0     N23423   8.397  -0.896   2.260 -0.4128 -0.1822 -0.7844
  895MOL0     N23424   8.411  -0.784   2.212  0.4116  0.3274 -0.1676
  895MOL0     C23425   8.745   0.273   2.471 -0.5545 -0.8283 -0.0888
  895MOL0     C23426   8.839   0.341   2.390  0.0393 -0.3110  0.0175
  895MOL0     C23427   9.076   0.592   2.092 -0.3757 -0.3074 -0.0382
  895MOL0     C23428   9.075   0.519   1.969  1.2356  0.7771  1.0468
  895MOL0     C23429   9.161   0.555   1.867 -0.0420  0.8701  0.3773
  895MOL0     C23430   9.237   0.671   1.872  0.2012  0.1896 -0.3599
  895MOL0     O23431   9.336   0.685   1.773  0.3838 -0.6829 -0.1567
  895MOL0     C23432   9.404   0.818   1.773  0.6626  0.3102  0.0880
  895MOL0     C23433   9.487   0.854   1.653  0.3007 -0.0023  0.1133
  895MOL0     C23434   9.589   0.750   1.606  0.9227  0.7631 -0.7284
  895MOL0     C23435   9.690   0.798   1.501 -0.3122  0.5373  0.2270
  895MOL0     C23436   9.626   0.813   1.365  0.6903  0.4507 -0.3275
  895MOL0     C23437   9.558   0.828   1.262 -0.4181 -0.0893  0.2005
  895MOL0     C23438   9.226   0.754   1.986  0.1279  1.1364 -0.1708
  895MOL0     C23439   9.136   0.721   2.091 -0.0642  0.7176  0.7498
  895MOL0     C23440   9.128   0.809   2.214 -1.1735  0.4107  0.6459
  895MOL0     H23441   8.706   0.275   2.084 -1.7214  0.8427  0.4639
  895MOL0     H23442   8.560   0.131   2.214  2.0254 -2.1088 -1.2605
  895MOL0     H23443   8.408   0.130   2.351  5.1664 -3.1585 -0.3919
  895MOL0     H23444   8.389   0.246   2.486  1.1974  0.9225  0.5963
  895MOL0     H23445   8.403   0.054   2.644  0.9259  1.5923 -1.3049
  895MOL0     H23446   8.251   0.081   2.559  0.1197  1.9497 -1.4712
  895MOL0     H23447   8.439  -0.140   2.491 -0.6029 -0.6527 -1.9651
  895MOL0     H23448   8.270  -0.160   2.530  1.3668 -2.6221 -0.2558
  895MOL0     H23449   8.218  -0.041   2.319 -0.7176 -1.5584 -0.8680
  895MOL0     H23450   8.390  -0.056   2.282  0.4754 -2.3677  0.9728
  895MOL0     H23451   8.234  -0.238   2.186  0.6374 -1.5910  0.0288
  895MOL0     H23452   8.213  -0.288   2.356  1.0364  1.8383  2.5671
  895MOL0     H23453   8.488  -0.295   2.200 -1.9406 -2.0988 -2.9560
  895MOL0     H23454   8.471  -0.303   2.373 -1.4341 -1.9133  0.6820
  895MOL0     H23455   8.344  -0.495   2.175 -0.3719  0.7866  0.2198
  895MOL0     H23456   8.311  -0.488   2.352  0.5294  1.4767  1.1846
  895MOL0     H23457   8.571  -0.554   2.216 -3.6186  0.8885 -3.5060
  895MOL0     H23458   8.537  -0.525   2.390  2.0440  2.4589 -2.3881
  895MOL0     H23459   8.577  -0.771   2.498  0.0912 -1.5236 -0.4095
  895MOL0     H23460   8.403  -1.093   2.385 -1.5927  1.5883 -0.9091
  895MOL0     H23461   8.409  -1.023   2.541 -0.0879 -0.9607 -0.7950
  895MOL0     H23462   8.674  -1.016   2.484  2.4450  1.6161 -4.8275
  895MOL0     H23463   8.600  -1.176   2.524  1.4025  1.8107  0.5454
  895MOL0     H23464   8.597  -1.216   2.265  1.9326 -3.7324  0.3058
  895MOL0     H23465   8.712  -1.074   2.257 -0.7835  0.3754 -1.0571
  895MOL0     H23466   8.798  -1.323   2.265 -0.0444 -0.0577  0.1637
  895MOL0     H23467   8.884  -1.188   2.341  0.7169 -1.0411 -1.7497
  895MOL0     H23468   9.014  -1.426   2.297 -3.1062 -2.6133 -2.0488
  895MOL0     H23469   9.306  -1.602   2.357  0.1291 -0.5720  2.4160
  895MOL0     H23470   9.190  -1.522   2.247 -0.2608  1.3177  1.6582
  895MOL0     H23471   9.171  -1.696   2.296 -7.2509  2.0817  0.9213
  895MOL0     H23472   9.263  -2.001   2.738  0.4863 -1.8059  0.2511
  895MOL0     H23473   9.460  -2.165   2.760 -1.8437  0.4182  0.9383
  895MOL0     H23474   9.776  -2.156   2.425 -1.1426 -5.8623  1.3607
  895MOL0     H23475   9.802  -2.028   2.550  0.6632  0.4936 -0.0847
  895MOL0     H23476   9.844  -2.316   2.628  0.7596  0.2954  0.9884
  895MOL0     H23477   9.976  -2.237   2.517  0.7373  1.2099  0.9587
  895MOL0     H23478   9.857  -2.108   2.758 -0.5526 -0.0094 -1.2064
  895MOL0     H23479   9.990  -2.041   2.665  2.1137 -1.7079  1.1871
  895MOL0     H23480  10.121  -2.248   2.712  2.7480 -0.3796  2.4038
  895MOL0     H23481  10.009  -2.274   2.850 -0.0432  1.9162  2.0065
  895MOL0     H23482  10.236  -2.161   2.863 -1.8690 -3.0364  1.5523
  895MOL0     H23483  10.162  -2.018   2.797  3.5254 -0.8144 -0.0245
  895MOL0     H23484  10.177  -2.017   3.051  1.8263  0.6598 -1.8117
  895MOL0     H23485  10.090  -2.164   3.058 -2.0855  0.7464  1.5993
  895MOL0     H23486   9.951  -1.997   3.125  0.5725 -2.0191 -0.5561
  895MOL0     H23487   9.890  -2.063   2.967  1.0045 -1.1744 -0.5171
  895MOL0     H23488   9.848  -1.826   2.965 -0.0965 -2.0579  1.3605
  895MOL0     H23489   9.980  -1.871   2.845 -2.1380 -1.1722 -1.1946
  895MOL0     H23490   9.643  -1.978   2.424 -0.8572  0.1890 -1.6699
  895MOL0     H23491   9.462  -1.825   2.402  0.9401  2.3901  3.3880
  895MOL0     H23492   8.953  -1.637   2.737  1.2079  0.0663  1.0526
  895MOL0     H23493   8.816  -1.488   2.691  3.8767  2.3357  3.0191
  895MOL0     H23494   8.769   0.265   2.577  4.3838 -1.6509 -1.0311
  895MOL0     H23495   8.908   0.408   2.440 -1.6236  1.7758 -0.3677
  895MOL0     H23496   9.014   0.430   1.954  3.3325 -0.4984 -0.4171
  895MOL0     H23497   9.171   0.479   1.790 -2.1935  0.3504  0.5558
  895MOL0     H23498   9.324   0.893   1.775  1.0256  0.8479 -2.2454
  895MOL0     H23499   9.461   0.813   1.866 -2.2564 -2.8994  1.9230
  895MOL0     H23500   9.545   0.947   1.653  0.3458 -0.0311  0.2119
  895MOL0     H23501   9.405   0.845   1.580  0.2920 -0.9903  0.2225
  895MOL0     H23502   9.661   0.741   1.688 -1.1597  4.1224  1.7375
  895MOL0     H23503   9.548   0.651   1.582  0.4039  0.7714  0.0741
  895MOL0     H23504   9.771   0.729   1.477  0.8838  2.1287 -0.4646
  895MOL0     H23505   9.737   0.893   1.526 -0.6995  0.9630 -0.6017
  895MOL0     H23506   9.491   0.826   1.178 -1.8077 -0.4229  1.2681
  895MOL0     H23507   9.270   0.853   1.998 -2.1927  2.2565 -0.3294
  895MOL0     H23508   9.187   0.792   2.305  1.5243  3.5747 -0.3120
  895MOL0     H23509   9.138   0.911   2.177 -4.2441 -0.0559 -1.8578
  895MOL0     H23510   9.024   0.798   2.245 -1.9297  0.0275 -1.8252
  896MOL0     O23511   3.804  10.384   4.644 -0.2804  0.0951 -0.9224
  896MOL0     C23512   3.816  10.477   4.562 -0.2864  0.3304 -1.4146
  896MOL0     O23513   3.821  10.476   4.429  0.4065 -0.6111 -0.2503
  896MOL0     C23514   3.768  10.376   4.354 -0.4071 -0.6572 -0.2232
  896MOL0     C23515   3.818  10.371   4.228 -0.3326 -0.6747 -0.4293
  896MOL0     C23516   3.768  10.275   4.139 -0.3068 -0.8994 -0.3252
  896MOL0     C23517   3.659  10.187   4.184  0.2852  0.1381  0.4713
  896MOL0     O23518   3.587  10.103   4.109  0.1908  0.4886 -0.0330
  896MOL0     C23519   3.599  10.122   3.964  0.1955  0.4325  0.3388
  896MOL0     C23520   3.472  10.078   3.912  0.3649  0.1964 -0.3162
  896MOL0     C23521   3.464  10.050   3.758  1.2493  0.0406  0.1254
  896MOL0     C23522   3.491  10.170   3.661  0.8117 -0.8693 -0.6124
  896MOL0     C23523   3.475  10.116   3.512  0.0821  0.3086  0.0994
  896MOL0     C23524   3.534  10.193   3.400 -0.6037 -0.1367 -0.7868
  896MOL0     C23525   3.471  10.330   3.379 -0.3160  0.0379  1.0270
  896MOL0     C23526   3.519  10.380   3.236  0.8569  0.6448  0.3456
  896MOL0     N23527   3.497  10.522   3.215  0.6430 -0.1754  0.0227
  896MOL0     C23528   3.434  10.586   3.113 -0.7658  0.0872  1.4322
  896MOL0     C23529   3.468  10.712   3.121  0.2152 -0.0518  0.2054
  896MOL0     C23530   3.420  10.822   3.037 -0.0731  0.1657  0.4846
  896MOL0     C23531   3.531  10.878   2.952 -0.3310 -1.0667 -1.2882
  896MOL0     C23532   3.467  10.992   2.872 -0.1393 -0.0481  0.3552
  896MOL0     C23533   3.450  11.131   2.949 -0.0601  0.0117  0.1309
  896MOL0     O23534   3.583  11.165   2.984  0.3832  0.5984  0.3404
  896MOL0     C23535   3.596  11.273   3.064  0.2006  0.8295  0.3191
  896MOL0     C23536   3.714  11.342   3.054 -0.3026 -0.3880 -0.3926
  896MOL0     C23537   3.754  11.424   3.167  0.9832  0.7234 -0.0735
  896MOL0     C23538   3.876  11.499   3.150  0.3304 -0.1771  0.0948
  896MOL0     C23539   3.665  11.443   3.273  0.3285  0.7753 -0.7119
  896MOL0     C23540   3.719  11.495   3.399 -0.5661 -0.4442  0.7120
  896MOL0     O23541   3.673  11.617   3.450  0.1382  0.3332  0.4314
  896MOL0     C23542   3.724  11.681   3.555  0.4343 -0.3918 -1.0483
  896MOL0     C23543   3.862  11.682   3.576  0.5500  0.4711 -0.0541
  896MOL0     C23544   3.916  11.752   3.680  0.3507 -0.0329 -0.6913
  896MOL0     C23545   3.834  11.834   3.762  0.3753  0.1035  0.5517
  896MOL0     O23546   3.873  11.878   3.881 -0.2753 -0.2316 -1.0074
  896MOL0     C23547   3.994  11.828   3.942  0.3147 -0.3077  0.0983
  896MOL0     C23548   4.013  11.893   4.088 -0.7702  0.0947 -0.0630
  896MOL0     C23549   4.149  11.847   4.151 -0.9092 -0.3627  0.3466
  896MOL0     C23550   4.166  11.885   4.295  0.0373  0.8870 -0.2478
  896MOL0     C23551   4.281  11.813   4.357  0.0248  0.5217 -0.2847
  896MOL0     C23552   4.331  11.870   4.486 -0.2071  0.4694  0.3776
  896MOL0     C23553   4.228  11.889   4.601  0.3969 -0.8323 -0.7133
  896MOL0     C23554   4.185  11.751   4.662  0.4145 -0.5824 -0.6193
  896MOL0    Cl23555   4.295  11.706   4.791 -0.2074 -0.2291  0.1497
  896MOL0     C23556   3.703  11.849   3.726  0.4375 -0.1013 -0.2819
  896MOL0     C23557   3.642  11.767   3.632  0.0744  0.0093 -0.7816
  896MOL0     O23558   3.807  11.429   3.455  0.4868  0.7668  0.2763
  896MOL0     C23559   3.548  11.376   3.281  0.5430  0.8480  1.3736
  896MOL0     C23560   3.511  11.286   3.177  0.4009 -0.0211  0.6721
  896MOL0     N23561   3.549  10.735   3.224  0.9072  0.6740  0.1753
  896MOL0     N23562   3.585  10.618   3.273  1.0135  0.1951  0.5502
  896MOL0     C23563   3.626  10.186   4.317  0.0020  0.0861  0.7064
  896MOL0     C23564   3.667  10.292   4.397  0.5363  0.1977  0.8088
  896MOL0     C23565   3.825  10.611   4.627 -0.3298 -0.0074  0.5946
  896MOL0     C23566   3.879  10.714   4.542  0.2903  0.3558  0.0474
  896MOL0     C23567   3.875  10.847   4.594 -0.8837 -0.5501 -0.0347
  896MOL0     C23568   3.821  10.882   4.717 -1.1649  0.1630  0.3158
  896MOL0     O23569   3.829  11.010   4.768 -0.9379  0.2015  0.0891
  896MOL0     C23570   3.836  11.033   4.908  0.0629 -0.1845  0.7891
  896MOL0     C23571   3.984  11.028   4.942  0.4244  0.2891 -0.7104
  896MOL0     C23572   4.020  11.060   5.082 -0.3959  0.4428 -0.6204
  896MOL0     C23573   3.974  11.206   5.130 -0.4664 -0.1064  0.1277
  896MOL0     C23574   4.068  11.301   5.061 -1.5235 -0.0916  0.1859
  896MOL0     C23575   4.148  11.385   5.011 -0.5189 -0.4044 -0.2292
  896MOL0     C23576   3.757  10.779   4.788 -0.5391 -0.7310 -0.4053
  896MOL0     C23577   3.755  10.643   4.747 -0.7092  0.1313 -0.3914
  896MOL0     C23578   3.681  10.543   4.830 -0.0723  0.4140  1.7486
  896MOL0     H23579   3.907  10.431   4.210 -1.7097  1.3069 -1.0644
  896MOL0     H23580   3.820  10.267   4.044 -2.0537  0.5284 -1.4747
  896MOL0     H23581   3.681  10.069   3.915 -2.3585 -1.2322 -2.5822
  896MOL0     H23582   3.623  10.224   3.936 -0.8904  0.4136 -0.7832
  896MOL0     H23583   3.450   9.980   3.955 -2.3008 -0.1053 -2.1054
  896MOL0     H23584   3.390  10.144   3.941 -0.6790  0.7193 -3.9508
  896MOL0     H23585   3.535   9.970   3.732 -0.2620 -0.8835 -1.3718
  896MOL0     H23586   3.366  10.004   3.741  1.5835  0.3074 -3.0357
  896MOL0     H23587   3.425  10.252   3.691 -0.2255 -1.9200  0.1179
  896MOL0     H23588   3.595  10.202   3.673  0.5641 -0.1656 -0.3030
  896MOL0     H23589   3.368  10.108   3.492  0.2921  1.1688 -1.5578
  896MOL0     H23590   3.512  10.013   3.512 -3.8716 -1.2943  1.5313
  896MOL0     H23591   3.640  10.214   3.415 -0.6741  1.0622 -1.8450
  896MOL0     H23592   3.540  10.131   3.311  3.8554  1.6483 -1.9926
  896MOL0     H23593   3.508  10.393   3.460  0.8668 -0.5873  0.9840
  896MOL0     H23594   3.361  10.331   3.384 -0.3953 -1.7941  0.1835
  896MOL0     H23595   3.625  10.356   3.222  0.5440 -0.7574  0.2658
  896MOL0     H23596   3.462  10.338   3.153 -0.0253  2.6715 -0.1445
  896MOL0     H23597   3.378  10.537   3.034 -0.0068 -1.5163  1.8570
  896MOL0     H23598   3.381  10.891   3.112 -0.1269  0.0782  0.5374
  896MOL0     H23599   3.338  10.785   2.975 -0.7352 -1.1144  2.0318
  896MOL0     H23600   3.616  10.919   3.007 -0.8314 -1.2137 -0.3895
  896MOL0     H23601   3.578  10.799   2.892  1.1269 -0.3069 -1.1913
  896MOL0     H23602   3.544  10.999   2.794  1.7423 -2.1155  1.8894
  896MOL0     H23603   3.373  10.965   2.822 -0.2074  2.5654 -1.0999
  896MOL0     H23604   3.411  11.206   2.880  1.4271  3.2053  2.5244
  896MOL0     H23605   3.396  11.111   3.042 -1.2653 -1.4793 -0.8460
  896MOL0     H23606   3.781  11.320   2.971  0.2427  1.3421 -0.4437
  896MOL0     H23607   3.874  11.549   3.053  1.7534  0.1919  0.2244
  896MOL0     H23608   3.959  11.429   3.162  2.9379  2.6158 -0.3527
  896MOL0     H23609   3.873  11.572   3.232  0.1648 -0.9131  0.7625
  896MOL0     H23610   3.924  11.631   3.502 -4.7969  2.8021 -7.3636
  896MOL0     H23611   4.019  11.726   3.705 -0.0902 -0.0109  1.3005
  896MOL0     H23612   3.994  11.721   3.964 -2.1082 -0.1867  1.1202
  896MOL0     H23613   4.074  11.867   3.880  0.0743 -0.8937 -0.5892
  896MOL0     H23614   3.986  11.999   4.091  1.3829  0.7068 -0.3962
  896MOL0     H23615   3.933  11.854   4.151  1.4671 -2.3481  1.4756
  896MOL0     H23616   4.231  11.895   4.096 -1.9485  0.5124 -0.4868
  896MOL0     H23617   4.148  11.739   4.139  0.2748 -0.4373  0.7486
  896MOL0     H23618   4.072  11.870   4.349 -1.0473  2.8546 -1.4448
  896MOL0     H23619   4.185  11.993   4.294 -1.0894  1.1347  1.4055
  896MOL0     H23620   4.252  11.709   4.376 -0.7992  1.1757  2.5353
  896MOL0     H23621   4.365  11.822   4.288 -1.4916  2.3909 -1.9878
  896MOL0     H23622   4.363  11.970   4.459 -2.8343  0.9255 -1.3626
  896MOL0     H23623   4.416  11.809   4.520  0.9351  2.7304  1.8083
  896MOL0     H23624   4.138  11.936   4.559 -0.8168  1.3847  3.7910
  896MOL0     H23625   4.273  11.948   4.681  1.5653 -4.1377  1.2487
  896MOL0     H23626   4.175  11.673   4.585  1.4132 -2.2917  0.8966
  896MOL0     H23627   4.093  11.772   4.718  1.5144  1.0041  0.7032
  896MOL0     H23628   3.641  11.918   3.782 -1.0781 -0.4059 -1.5271
  896MOL0     H23629   3.536  11.776   3.609  0.3763  1.5191 -1.7311
  896MOL0     H23630   3.470  11.368   3.357  0.4396 -0.3915  1.1607
  896MOL0     H23631   3.415  11.239   3.196 -1.8763  3.3419 -1.3740
  896MOL0     H23632   3.553  10.112   4.347  0.1818 -0.1932  0.4683
  896MOL0     H23633   3.623  10.297   4.496 -0.4235 -2.3157  0.5799
  896MOL0     H23634   3.911  10.692   4.440  0.2178 -1.2117  0.3452
  896MOL0     H23635   3.925  10.924   4.536 -2.1038  1.5207  1.4868
  896MOL0     H23636   3.803  11.135   4.931  1.4503  0.4305  0.1706
  896MOL0     H23637   3.786  10.961   4.973  0.1412 -1.0118 -0.0436
  896MOL0     H23638   4.020  11.105   4.873  1.5136  2.7877  2.3754
  896MOL0     H23639   4.018  10.928   4.915  0.2979  0.4148 -1.3454
  896MOL0     H23640   3.985  10.980   5.148 -4.6754  3.4744  1.2248
  896MOL0     H23641   4.130  11.057   5.084 -0.3856  0.6091  1.2513
  896MOL0     H23642   3.984  11.215   5.239 -0.7597  2.1092  0.0283
  896MOL0     H23643   3.871  11.235   5.108 -0.4426 -0.4939 -0.5338
  896MOL0     H23644   4.215  11.465   4.984  3.6001 -1.7300  4.4974
  896MOL0     H23645   3.714  10.791   4.887  1.2508 -1.1939  0.4611
  896MOL0     H23646   3.748  10.464   4.865  0.6033 -0.4826 -1.3120
  896MOL0     H23647   3.624  10.597   4.906 -3.2431 -0.5503  0.2410
  896MOL0     H23648   3.607  10.503   4.760  1.2166  2.3512 -0.8934
  897MOL0     O23649   9.874   0.402   5.752 -0.0596  1.0549 -0.0467
  897MOL0     C23650   9.931   0.390   5.864 -0.7175  0.4960 -0.0349
  897MOL0     O23651  10.045   0.456   5.901  0.0341  0.4960 -0.3627
  897MOL0     C23652  10.101   0.541   5.807 -0.1531  1.0312 -1.1100
  897MOL0     C23653  10.198   0.490   5.726  0.2818  0.6355  1.2736
  897MOL0     C23654  10.236   0.570   5.611 -0.0045  0.2254 -0.6923
  897MOL0     C23655  10.203   0.707   5.600 -0.7668 -1.3003  0.2556
  897MOL0     O23656  10.263   0.774   5.497  0.5989 -0.6135 -0.5608
  897MOL0     C23657  10.387   0.835   5.522  1.0895 -0.2418 -0.6004
  897MOL0     C23658  10.437   0.942   5.421  0.6906 -1.0832 -0.4596
  897MOL0     C23659  10.587   0.970   5.428 -0.2174 -0.1677 -0.6106
  897MOL0     C23660  10.633   1.043   5.302 -0.6757  0.1718 -0.4424
  897MOL0     C23661  10.556   1.166   5.274  0.5268 -0.0355  0.9125
  897MOL0     C23662  10.590   1.264   5.388 -0.3455 -0.2240 -0.4671
  897MOL0     C23663  10.586   1.411   5.345 -0.9356 -0.9404 -0.4753
  897MOL0     C23664  10.657   1.505   5.438  0.3696  0.5987  0.2538
  897MOL0     N23665  10.634   1.466   5.583  0.0882  0.1407 -1.1664
  897MOL0     C23666  10.528   1.508   5.663 -0.4025 -0.1249  0.7037
  897MOL0     C23667  10.567   1.488   5.790  0.2835 -0.8669  0.1145
  897MOL0     C23668  10.468   1.534   5.893 -0.0988 -0.2797 -0.7227
  897MOL0     C23669  10.535   1.536   6.038  0.1331 -0.6836 -0.2957
  897MOL0     C23670  10.512   1.681   6.094  0.3144 -0.8415  0.1577
  897MOL0     C23671  10.383   1.698   6.161 -0.8987  0.2159 -0.0648
  897MOL0     O23672  10.384   1.640   6.293 -0.2189 -0.0825 -0.1477
  897MOL0     C23673  10.274   1.583   6.350 -0.7319  0.4057 -0.8974
  897MOL0     C23674  10.285   1.523   6.480 -0.2808 -0.0134 -0.9052
  897MOL0     C23675  10.165   1.473   6.537  0.3247 -0.1119  0.7268
  897MOL0     C23676  10.176   1.433   6.679 -0.5540  0.7418  0.2617
  897MOL0     C23677  10.041   1.462   6.468  0.6947 -0.2476  0.5204
  897MOL0     C23678   9.917   1.391   6.516 -0.0095 -0.0935  0.3904
  897MOL0     O23679   9.934   1.284   6.594  0.2970 -0.4649 -0.1064
  897MOL0     C23680   9.824   1.224   6.658 -0.1482  0.4876 -0.7316
  897MOL0     C23681   9.753   1.120   6.601 -0.0077  0.1466 -0.3106
  897MOL0     C23682   9.665   1.049   6.677  0.0910  0.7126  0.0202
  897MOL0     C23683   9.643   1.081   6.809  0.7133  0.8169 -0.1462
  897MOL0     O23684   9.560   1.006   6.883 -0.3442 -0.4016  0.6112
  897MOL0     C23685   9.434   0.957   6.831  0.3133  1.1497 -0.2245
  897MOL0     C23686   9.349   0.889   6.930 -1.2828 -0.1970 -0.2511
  897MOL0     C23687   9.276   0.990   7.021 -0.1817 -0.8984  0.4758
  897MOL0     C23688   9.146   0.940   7.091  0.4778  0.7949 -0.5740
  897MOL0     C23689   9.184   0.822   7.197  0.5327  0.4183 -0.1313
  897MOL0     C23690   9.259   0.878   7.327  1.1922 -0.5819 -0.0385
  897MOL0     C23691   9.305   0.758   7.410 -0.4052  0.1951  0.0454
  897MOL0     C23692   9.334   0.806   7.549  0.0130 -0.4831 -0.6801
  897MOL0    Cl23693   9.461   0.933   7.569 -0.5583 -0.4331 -0.2911
  897MOL0     C23694   9.703   1.189   6.869 -1.0329 -0.3400  0.5283
  897MOL0     C23695   9.804   1.254   6.790 -0.0773 -0.0346  0.2838
  897MOL0     O23696   9.813   1.430   6.475  0.6294 -0.9223 -1.0406
  897MOL0     C23697  10.042   1.510   6.343 -0.1782  0.2196  0.6669
  897MOL0     C23698  10.153   1.575   6.283  0.6147 -0.3904  0.5055
  897MOL0     N23699  10.692   1.417   5.792  0.6964  0.1006 -0.5294
  897MOL0     N23700  10.727   1.407   5.667 -0.2580 -1.5256 -0.0801
  897MOL0     C23701  10.099   0.756   5.679  0.9251  0.3161 -1.0668
  897MOL0     C23702  10.054   0.674   5.789  0.0790  0.0484  0.0697
  897MOL0     C23703   9.875   0.289   5.968 -0.0906 -0.6219  0.2527
  897MOL0     C23704   9.936   0.272   6.091  0.2716 -0.4208  0.4694
  897MOL0     C23705   9.889   0.188   6.188 -0.0099  0.9271  0.2054
  897MOL0     C23706   9.773   0.107   6.159 -0.2787  0.5845  0.1572
  897MOL0     O23707   9.726   0.008   6.249 -0.5467  0.6392  0.3274
  897MOL0     C23708   9.830  -0.066   6.313  1.3076  1.4336  0.3946
  897MOL0     C23709   9.775  -0.188   6.388  0.3047  0.0492  1.2733
  897MOL0     C23710   9.730  -0.293   6.287  0.0544 -0.5151  0.2058
  897MOL0     C23711   9.676  -0.423   6.358  0.7753 -0.1969  0.3054
  897MOL0     C23712   9.770  -0.476   6.460  0.1117  0.3881 -0.1749
  897MOL0     C23713   9.855  -0.513   6.536  0.2478  0.7075 -0.5919
  897MOL0     C23714   9.708   0.113   6.038 -0.5645  0.6901 -0.4945
  897MOL0     C23715   9.759   0.210   5.943  0.0241  0.2485  0.6967
  897MOL0     C23716   9.672   0.216   5.819  0.1354 -0.1942 -0.0233
  897MOL0     H23717  10.242   0.396   5.758 -2.7556 -2.4773 -2.6381
  897MOL0     H23718  10.315   0.527   5.550  1.4689  0.0687  1.2141
  897MOL0     H23719  10.461   0.755   5.516 -0.8298 -2.3478  1.8107
  897MOL0     H23720  10.379   0.876   5.623 -0.8461 -0.5181 -0.5905
  897MOL0     H23721  10.412   0.913   5.319 -1.7115 -2.4994  0.4378
  897MOL0     H23722  10.379   1.031   5.448 -0.2856 -2.1442  1.0915
  897MOL0     H23723  10.605   1.029   5.519 -1.9024 -2.8675  1.6475
  897MOL0     H23724  10.634   0.874   5.450 -1.3778 -0.0372  3.0850
  897MOL0     H23725  10.741   1.055   5.312  0.0474 -4.9662  1.5101
  897MOL0     H23726  10.615   0.979   5.215  0.3999  1.5965 -1.7426
  897MOL0     H23727  10.449   1.146   5.266  0.5052  0.6044 -0.7462
  897MOL0     H23728  10.586   1.206   5.177 -1.0067  2.4083  1.3697
  897MOL0     H23729  10.524   1.242   5.472  0.0663 -2.5289 -0.6925
  897MOL0     H23730  10.690   1.235   5.419 -0.9078 -0.7485  0.9442
  897MOL0     H23731  10.485   1.446   5.320  0.4225  0.7735 -4.2837
  897MOL0     H23732  10.635   1.424   5.248 -0.2677 -0.2004 -0.0517
  897MOL0     H23733  10.764   1.511   5.419  0.4770  1.4175  1.0404
  897MOL0     H23734  10.611   1.603   5.420 -1.4372 -0.2205  0.1025
  897MOL0     H23735  10.443   1.562   5.623 -0.1780  0.7620  1.3985
  897MOL0     H23736  10.377   1.473   5.900  0.3196 -0.9558 -0.9675
  897MOL0     H23737  10.426   1.632   5.870 -1.9313 -0.5108  1.2892
  897MOL0     H23738  10.486   1.464   6.104 -0.4546 -1.1223 -1.1870
  897MOL0     H23739  10.642   1.514   6.038 -0.2370 -3.2264 -3.3324
  897MOL0     H23740  10.592   1.700   6.167  1.8703  2.0582 -2.0850
  897MOL0     H23741  10.509   1.750   6.009 -2.9496  2.1199  2.3907
  897MOL0     H23742  10.357   1.801   6.183  1.7896  0.8051  0.6244
  897MOL0     H23743  10.304   1.667   6.091  1.3748  0.6430 -3.0023
  897MOL0     H23744  10.384   1.534   6.524 -1.2717  1.5279  1.0746
  897MOL0     H23745  10.091   1.475   6.732 -0.1023  0.1033  1.5340
  897MOL0     H23746  10.275   1.455   6.720 -0.1703  0.5410 -0.5339
  897MOL0     H23747  10.176   1.323   6.683  1.8353  0.5504 -1.9530
  897MOL0     H23748   9.762   1.107   6.493  0.6438 -0.4344 -0.1917
  897MOL0     H23749   9.611   0.970   6.626 -1.6963  0.9052  1.5093
  897MOL0     H23750   9.376   1.042   6.795 -1.0121  1.5385  2.5743
  897MOL0     H23751   9.448   0.879   6.756 -4.5575 -0.1547 -0.0822
  897MOL0     H23752   9.271   0.833   6.876 -1.6475 -1.1209  1.1851
  897MOL0     H23753   9.410   0.822   6.991 -0.2988  3.5706  3.3781
  897MOL0     H23754   9.243   1.066   6.949 -0.4321 -1.2269  0.2419
  897MOL0     H23755   9.343   1.027   7.099 -2.2252 -1.5831  2.6548
  897MOL0     H23756   9.076   0.898   7.018  2.5129 -1.1851 -1.5115
  897MOL0     H23757   9.100   1.015   7.156 -0.2101  0.1438 -0.2936
  897MOL0     H23758   9.091   0.771   7.227  0.8792 -0.4957 -0.5728
  897MOL0     H23759   9.240   0.748   7.139 -1.7644 -2.2624  0.8564
  897MOL0     H23760   9.190   0.938   7.387 -0.6497 -1.2007 -1.4633
  897MOL0     H23761   9.344   0.947   7.315  3.2268 -2.8009  0.7589
  897MOL0     H23762   9.401   0.719   7.375  1.1113  0.6541  3.3242
  897MOL0     H23763   9.230   0.679   7.418  1.9569 -2.3023 -1.0138
  897MOL0     H23764   9.363   0.720   7.611 -0.4181 -0.2331 -0.1220
  897MOL0     H23765   9.244   0.824   7.609  0.4335  1.4709 -0.5750
  897MOL0     H23766   9.685   1.195   6.976  1.5165 -0.4564  1.0118
  897MOL0     H23767   9.878   1.314   6.842  2.1271 -4.6637  3.1468
  897MOL0     H23768   9.955   1.500   6.280  0.0745  0.5020  0.2643
  897MOL0     H23769  10.133   1.604   6.180  0.5680  1.1816  0.9407
  897MOL0     H23770  10.053   0.846   5.641 -1.9159 -0.4096  0.3997
  897MOL0     H23771   9.980   0.722   5.852  0.6897  1.4617 -0.2528
  897MOL0     H23772  10.014   0.337   6.128  0.8245 -0.9897  0.3313
  897MOL0     H23773   9.938   0.183   6.285 -1.2653  1.6206  0.8969
  897MOL0     H23774   9.902  -0.100   6.237 -1.2526  0.7089 -1.8781
  897MOL0     H23775   9.884  -0.005   6.386 -0.3893  0.7263  2.3286
  897MOL0     H23776   9.697  -0.157   6.458 -1.9565  2.3262 -1.9661
  897MOL0     H23777   9.855  -0.227   6.452 -0.6800 -3.0669  0.7723
  897MOL0     H23778   9.655  -0.248   6.221  0.7594 -1.6382 -1.4362
  897MOL0     H23779   9.811  -0.323   6.220 -0.8099  0.6299 -1.4305
  897MOL0     H23780   9.661  -0.501   6.283 -0.6774  2.3203 -2.2460
  897MOL0     H23781   9.585  -0.403   6.415  1.2046  0.2599  0.8525
  897MOL0     H23782   9.924  -0.526   6.617 -1.5885  0.0488  0.9279
  897MOL0     H23783   9.625   0.049   6.011  0.1630 -0.8329  0.7110
  897MOL0     H23784   9.633   0.317   5.805  0.8968  0.2122  0.6813
  897MOL0     H23785   9.737   0.184   5.737  1.0958 -1.4654  1.1983
  897MOL0     H23786   9.585   0.151   5.830 -0.7353  0.7899 -0.8504
  898MOL0     O23787   5.557  11.382   5.695 -0.1307 -0.1863  0.5331
  898MOL0     C23788   5.622  11.315   5.620 -0.6970 -0.8479 -0.3607
  898MOL0     O23789   5.571  11.239   5.523 -0.0088  0.5393 -0.2692
  898MOL0     C23790   5.450  11.260   5.452  0.2142  0.1947 -0.0604
  898MOL0     C23791   5.365  11.148   5.442  0.0543 -0.9620  0.1332
  898MOL0     C23792   5.234  11.150   5.396  0.5410  0.6031 -0.2195
  898MOL0     C23793   5.191  11.271   5.330  1.0957 -0.3298  1.1560
  898MOL0     O23794   5.065  11.284   5.266 -0.1566 -0.1515  0.3420
  898MOL0     C23795   4.958  11.234   5.348  0.1807  0.1026  0.3221
  898MOL0     C23796   4.836  11.309   5.310 -0.1788 -0.6731  0.3246
  898MOL0     C23797   4.711  11.239   5.371 -0.0243  0.8458 -0.2917
  898MOL0     C23798   4.581  11.316   5.353 -1.2065 -0.1679  0.0071
  898MOL0     C23799   4.455  11.229   5.365  0.0816 -0.2339 -0.3086
  898MOL0     C23800   4.446  11.187   5.519 -0.1188  0.1824  0.6903
  898MOL0     C23801   4.327  11.087   5.535 -0.6052 -0.0437  0.2721
  898MOL0     C23802   4.194  11.134   5.489 -0.2349  0.6071  0.6250
  898MOL0     N23803   4.083  11.048   5.530 -0.6120  0.0578  0.5502
  898MOL0     C23804   4.036  11.032   5.660 -0.4605 -0.7896 -0.0260
  898MOL0     C23805   3.948  10.919   5.652 -1.1297  0.3037 -0.6679
  898MOL0     C23806   3.862  10.869   5.758  0.4463  0.8760 -0.6041
  898MOL0     C23807   3.755  10.764   5.730  0.6618  0.0788 -0.1198
  898MOL0     C23808   3.696  10.696   5.852  0.4159  0.0182  1.0505
  898MOL0     C23809   3.599  10.779   5.939 -0.0946 -0.1631  0.3318
  898MOL0     O23810   3.582  10.731   6.070 -0.0401  0.4773 -0.6258
  898MOL0     C23811   3.495  10.799   6.154  0.8275 -0.0264  0.7025
  898MOL0     C23812   3.436  10.926   6.131  0.3321  0.0014 -1.0449
  898MOL0     C23813   3.369  10.995   6.234 -0.4536 -0.6234 -0.4304
  898MOL0     C23814   3.317  11.139   6.207 -0.4322  0.9228 -0.8452
  898MOL0     C23815   3.350  10.932   6.367  0.0926 -0.4668  0.6957
  898MOL0     C23816   3.243  10.983   6.460  1.1122  0.7024 -1.4605
  898MOL0     O23817   3.265  10.957   6.602 -0.1909 -0.5151  0.1981
  898MOL0     C23818   3.161  10.987   6.678 -0.4075  0.1687 -0.1730
  898MOL0     C23819   3.062  10.890   6.689 -0.1221  0.7415 -0.9529
  898MOL0     C23820   2.946  10.905   6.773 -0.5108  0.2268 -0.5414
  898MOL0     C23821   2.934  11.020   6.841  0.7373  1.2101 -0.3000
  898MOL0     O23822   2.827  11.014   6.928  0.1519  0.2784 -0.1686
  898MOL0     C23823   2.797  11.147   6.984  0.2398  0.1352  0.4305
  898MOL0     C23824   2.662  11.139   7.058 -0.0580 -1.2419 -0.8880
  898MOL0     C23825   2.669  11.053   7.180  0.0146  0.1686  0.3910
  898MOL0     C23826   2.542  11.063   7.269  0.2462  0.2725  0.3618
  898MOL0     C23827   2.554  11.003   7.406 -0.0251 -0.5020  0.1468
  898MOL0     C23828   2.532  10.849   7.423  0.1895 -1.1092  0.1143
  898MOL0     C23829   2.636  10.761   7.348  0.9179  1.0763  0.3482
  898MOL0     C23830   2.580  10.675   7.234 -0.5167  0.1389 -1.1468
  898MOL0    Cl23831   2.453  10.732   7.126 -0.6253  0.3435 -0.0244
  898MOL0     C23832   3.024  11.130   6.824 -0.5629 -0.0288  0.2996
  898MOL0     C23833   3.138  11.121   6.732  0.5896 -0.5393 -0.9588
  898MOL0     O23834   3.133  11.022   6.412 -0.4636 -0.9466  0.2555
  898MOL0     C23835   3.416  10.805   6.397  0.6341 -0.6578  0.6963
  898MOL0     C23836   3.482  10.749   6.289 -0.1784  0.9057 -0.1886
  898MOL0     N23837   3.951  10.891   5.519  0.3101  1.1638 -0.0716
  898MOL0     N23838   4.018  10.966   5.440  0.4095 -0.5132  1.0073
  898MOL0     C23839   5.275  11.378   5.340  0.0942 -0.9934  1.3365
  898MOL0     C23840   5.401  11.379   5.402  0.1227  0.1991  0.2656
  898MOL0     C23841   5.767  11.296   5.654  0.5218 -0.0692  0.3676
  898MOL0     C23842   5.826  11.196   5.579 -0.7391  0.2475 -0.2181
  898MOL0     C23843   5.958  11.166   5.599  1.1312  1.0673  0.1685
  898MOL0     C23844   6.042  11.244   5.670 -0.4678 -0.5433 -0.1166
  898MOL0     O23845   6.178  11.218   5.688  0.6795 -0.3759 -0.1897
  898MOL0     C23846   6.244  11.119   5.613 -0.2306  1.5144 -0.7559
  898MOL0     C23847   6.261  11.013   5.713  0.2683  0.4374 -0.0539
  898MOL0     C23848   6.332  10.885   5.666 -0.3728 -0.5981  0.3901
  898MOL0     C23849   6.480  10.906   5.619  0.4908  0.8768  0.5799
  898MOL0     C23850   6.571  10.972   5.720 -0.6751  0.2144  0.3481
  898MOL0     C23851   6.636  11.045   5.789 -0.3262 -0.1951 -0.4934
  898MOL0     C23852   5.984  11.352   5.735  0.4930  0.0119  0.5450
  898MOL0     C23853   5.845  11.386   5.731 -0.1192 -0.8202 -0.1316
  898MOL0     C23854   5.795  11.509   5.809  0.3203 -0.4932  0.4533
  898MOL0     H23855   5.415  11.056   5.469 -0.6614 -1.2785  0.4061
  898MOL0     H23856   5.169  11.063   5.393  0.1479  0.8580  0.6742
  898MOL0     H23857   4.977  11.240   5.455 -0.7668  0.6435  0.4736
  898MOL0     H23858   4.941  11.130   5.320 -1.0790 -0.0317  1.5073
  898MOL0     H23859   4.844  11.413   5.342  1.0699 -0.6198 -0.0858
  898MOL0     H23860   4.828  11.314   5.201  0.4968  0.0968  0.3041
  898MOL0     H23861   4.685  11.152   5.311  1.4993  1.8695 -2.5818
  898MOL0     H23862   4.719  11.215   5.478 -0.3140 -0.0868 -0.4698
  898MOL0     H23863   4.579  11.406   5.416  1.0848  0.0039 -0.0760
  898MOL0     H23864   4.578  11.357   5.252 -0.0882  2.6186  0.9947
  898MOL0     H23865   4.473  11.138   5.308  1.3755  0.0993 -0.4685
  898MOL0     H23866   4.375  11.295   5.329  1.7909  1.3535 -1.3538
  898MOL0     H23867   4.540  11.136   5.543  1.7482  3.7404  1.6706
  898MOL0     H23868   4.438  11.271   5.589  4.5597 -0.5060  2.4212
  898MOL0     H23869   4.306  11.047   5.635  5.3576  0.3145  2.0690
  898MOL0     H23870   4.365  11.002   5.477  0.3110  0.7717 -0.3628
  898MOL0     H23871   4.181  11.230   5.539 -1.7558  0.7235  0.0749
  898MOL0     H23872   4.196  11.157   5.382 -2.3861  4.9160  1.2568
  898MOL0     H23873   4.064  11.085   5.750 -1.9983  1.1404 -0.6216
  898MOL0     H23874   3.805  10.956   5.790 -1.1347  0.7941 -2.9409
  898MOL0     H23875   3.914  10.835   5.848 -0.3668  1.0468 -0.0490
  898MOL0     H23876   3.675  10.810   5.671  0.5763 -1.2275 -1.0538
  898MOL0     H23877   3.799  10.679   5.677  0.7627 -1.6721  2.5961
  898MOL0     H23878   3.647  10.603   5.821  1.7299 -0.5065  0.4687
  898MOL0     H23879   3.780  10.665   5.916  0.7678  1.0752  1.1251
  898MOL0     H23880   3.643  10.880   5.945  1.0448 -0.5461 -0.9454
  898MOL0     H23881   3.507  10.789   5.881  1.4379  1.4552 -2.0424
  898MOL0     H23882   3.440  10.963   6.029  1.6492 -0.0369 -1.0246
  898MOL0     H23883   3.215  11.133   6.169  0.2945 -2.3354 -2.6899
  898MOL0     H23884   3.373  11.176   6.120  1.5610 -1.2394 -0.5831
  898MOL0     H23885   3.341  11.217   6.279  3.4903 -2.4600  1.9943
  898MOL0     H23886   3.084  10.787   6.661  0.2836  0.5089  0.1571
  898MOL0     H23887   2.872  10.826   6.783 -0.0348 -0.1369  0.1422
  898MOL0     H23888   2.870  11.196   7.050 -0.3731 -0.2378  1.3961
  898MOL0     H23889   2.789  11.217   6.900 -1.9931  3.2058  2.9662
  898MOL0     H23890   2.633  11.242   7.080  0.7878 -1.0314 -0.7299
  898MOL0     H23891   2.584  11.095   6.996  0.0075  0.1943 -2.0399
  898MOL0     H23892   2.763  11.076   7.231 -0.7485  0.6529  1.6486
  898MOL0     H23893   2.679  10.956   7.131 -1.1304  1.0268 -1.6623
  898MOL0     H23894   2.454  11.020   7.219 -3.2015  1.2206  4.9856
  898MOL0     H23895   2.512  11.168   7.268  1.7955  0.8357  3.3717
  898MOL0     H23896   2.651  11.022   7.451  0.3538  0.5837 -1.0725
  898MOL0     H23897   2.480  11.051   7.472 -2.0033 -2.6621 -0.3573
  898MOL0     H23898   2.428  10.819   7.405 -0.7911  0.3365  2.7348
  898MOL0     H23899   2.550  10.840   7.531 -0.7597  0.7524  0.4720
  898MOL0     H23900   2.667  10.682   7.417 -2.0226 -0.7763 -0.2550
  898MOL0     H23901   2.725  10.811   7.307  0.2332 -0.6930 -3.7360
  898MOL0     H23902   2.532  10.593   7.288  1.4296  1.2796  2.6502
  898MOL0     H23903   2.661  10.646   7.166 -1.5193  0.7679 -2.6660
  898MOL0     H23904   3.022  11.225   6.876  2.9630  1.0464 -1.2463
  898MOL0     H23905   3.192  11.207   6.695  0.6482 -0.6385 -1.1074
  898MOL0     H23906   3.397  10.759   6.493 -1.4317 -1.4849 -0.0654
  898MOL0     H23907   3.526  10.652   6.308 -3.2635 -0.4308  0.6647
  898MOL0     H23908   5.236  11.475   5.312 -0.6937 -1.8837 -0.8414
  898MOL0     H23909   5.454  11.473   5.415 -0.7609  1.4745 -3.6791
  898MOL0     H23910   5.780  11.117   5.521  1.4998 -2.1109  1.0035
  898MOL0     H23911   5.987  11.076   5.545 -0.4218  1.6894 -1.8328
  898MOL0     H23912   6.192  11.069   5.531  1.2614  0.9218 -1.3919
  898MOL0     H23913   6.340  11.154   5.573  1.1139  1.0234  1.8375
  898MOL0     H23914   6.169  10.986   5.764 -0.0405 -0.5660 -1.0992
  898MOL0     H23915   6.324  11.058   5.790  0.0492 -0.0324  0.3989
  898MOL0     H23916   6.335  10.808   5.744  3.6597  1.6785  2.8183
  898MOL0     H23917   6.279  10.848   5.578 -2.2979  1.6560  0.5107
  898MOL0     H23918   6.469  10.970   5.532 -2.6936 -0.9521 -0.5268
  898MOL0     H23919   6.518  10.812   5.578 -1.4785  0.3812 -0.2084
  898MOL0     H23920   6.699  11.100   5.856  0.6812 -3.0741  1.1039
  898MOL0     H23921   6.048  11.425   5.785 -1.5872  1.4275  1.2478
  898MOL0     H23922   5.884  11.558   5.847  1.4390 -3.2937  1.7531
  898MOL0     H23923   5.747  11.579   5.740 -0.2424 -1.8492 -0.5821
  898MOL0     H23924   5.718  11.493   5.885 -3.0449 -0.6040 -2.6981
  899MOL0     O23925   8.921   9.734  11.211 -0.4745 -0.2010  0.5369
  899MOL0     C23926   8.979   9.647  11.279  0.4145  0.0421  0.2619
  899MOL0     O23927   9.007   9.521  11.242 -1.0024 -0.1449 -0.5524
  899MOL0     C23928   9.035   9.486  11.117 -0.7689 -0.4901  0.1829
  899MOL0     C23929   9.095   9.575  11.032 -0.0612  0.3381 -0.1238
  899MOL0     C23930   9.126   9.539  10.896  1.0751  0.2641 -0.9950
  899MOL0     C23931   9.100   9.406  10.850  0.0494 -0.1610 -0.1396
  899MOL0     O23932   9.100   9.354  10.726 -0.2061  0.4308  0.5553
  899MOL0     C23933   9.177   9.403  10.622 -0.3908  0.0480 -0.2339
  899MOL0     C23934   9.150   9.328  10.497 -0.0293 -0.7196  0.4625
  899MOL0     C23935   9.097   9.180  10.515  0.9976  0.5271  0.2484
  899MOL0     C23936   9.206   9.063  10.539  0.5407 -0.4049 -0.3342
  899MOL0     C23937   9.160   8.926  10.590  0.2168 -0.4246  0.1770
  899MOL0     C23938   9.185   8.931  10.737 -1.1796 -0.2905 -0.2478
  899MOL0     C23939   9.194   8.792  10.799  0.9884 -0.1133  0.2279
  899MOL0     C23940   9.108   8.783  10.925  0.1920  0.4185 -0.2879
  899MOL0     N23941   9.140   8.869  11.040  0.2590 -0.4257  0.7161
  899MOL0     C23942   9.243   8.848  11.129  0.3576 -0.4706  0.7618
  899MOL0     C23943   9.235   8.956  11.213  0.2472  0.5465 -1.2245
  899MOL0     C23944   9.324   8.978  11.340  0.0804  0.7849  0.9604
  899MOL0     C23945   9.432   8.864  11.366  0.4867 -0.0144  0.4037
  899MOL0     C23946   9.513   8.893  11.489  0.7457 -0.1442 -0.3412
  899MOL0     C23947   9.623   9.006  11.466  0.0671  0.8900  0.7885
  899MOL0     O23948   9.686   8.995  11.334 -0.2600 -0.0965 -0.5614
  899MOL0     C23949   9.763   9.093  11.282  0.8160 -0.7138  0.3763
  899MOL0     C23950   9.824   9.055  11.164  0.6333 -0.4033 -1.3435
  899MOL0     C23951   9.916   9.140  11.101 -0.4644 -0.1085  0.1682
  899MOL0     C23952  10.002   9.086  10.995 -0.0050  0.9910 -0.6692
  899MOL0     C23953   9.934   9.277  11.149  0.5081 -0.2568  0.5405
  899MOL0     C23954  10.007   9.377  11.074 -0.0091  0.3994 -0.0101
  899MOL0     O23955  10.032   9.363  10.934  0.3560  0.3152 -0.7968
  899MOL0     C23956  10.074   9.467  10.853 -0.5741 -0.1586 -0.8070
  899MOL0     C23957  10.018   9.599  10.858 -0.7791 -0.7257  0.3403
  899MOL0     C23958  10.043   9.689  10.749 -0.1717 -0.5689 -1.1562
  899MOL0     C23959  10.145   9.651  10.657 -0.5896 -0.5290  1.2558
  899MOL0     O23960  10.192   9.723  10.555 -0.5089 -0.2144  0.1274
  899MOL0     C23961  10.157   9.865  10.537  0.1501 -0.3590  0.5134
  899MOL0     C23962  10.227   9.909  10.408 -0.4003  0.1265  0.2384
  899MOL0     C23963  10.269  10.060  10.419  0.0904 -0.3932  0.5213
  899MOL0     C23964  10.384  10.107  10.334  0.3074  0.4586 -0.5234
  899MOL0     C23965  10.349  10.097  10.181 -1.3030 -0.2874  0.5984
  899MOL0     C23966  10.468  10.177  10.110  0.1390  0.1442 -0.0044
  899MOL0     C23967  10.460  10.168   9.957  0.0540 -0.1536  0.0611
  899MOL0     C23968  10.560  10.265   9.891  0.4807  0.2665  0.4323
  899MOL0    Cl23969  10.724  10.235   9.925  0.1405  0.2108 -0.0192
  899MOL0     C23970  10.202   9.524  10.654 -0.3614 -0.0147  0.7290
  899MOL0     C23971  10.159   9.432  10.749  0.3424 -0.0350 -0.1276
  899MOL0     O23972  10.057   9.465  11.140  0.0758 -0.0607 -0.0577
  899MOL0     C23973   9.868   9.312  11.265 -0.2530 -0.7429  0.4941
  899MOL0     C23974   9.781   9.227  11.325  0.0873 -0.1030 -0.1583
  899MOL0     N23975   9.122   9.032  11.192 -0.2484  1.3017 -0.0676
  899MOL0     N23976   9.067   8.972  11.083 -0.8562 -0.6406 -0.4530
  899MOL0     C23977   9.043   9.317  10.951  0.4071 -0.8997 -0.5199
  899MOL0     C23978   9.013   9.356  11.080  1.1863 -0.0719 -0.1322
  899MOL0     C23979   9.007   9.672  11.425 -0.1270 -0.8013 -0.1175
  899MOL0     C23980   8.954   9.793  11.479 -0.8727 -0.4347  0.3798
  899MOL0     C23981   8.961   9.816  11.614 -0.3228  0.1013 -0.4931
  899MOL0     C23982   9.030   9.731  11.698 -0.1364  0.4176  0.6391
  899MOL0     O23983   9.023   9.763  11.834 -0.3103 -0.0875  0.5580
  899MOL0     C23984   9.126   9.709  11.919  0.1094 -1.5606  0.2392
  899MOL0     C23985   9.080   9.733  12.057  0.1404 -0.2080 -0.0757
  899MOL0     C23986   8.995   9.623  12.121 -0.1486 -0.0196  0.5802
  899MOL0     C23987   8.955   9.666  12.263  0.0147 -0.4821 -0.6800
  899MOL0     C23988   8.834   9.752  12.266 -0.0092 -0.0556 -0.4354
  899MOL0     C23989   8.745   9.838  12.249  0.4574  0.7662  0.0705
  899MOL0     C23990   9.090   9.621  11.645  0.1802 -0.5731 -0.3655
  899MOL0     C23991   9.094   9.594  11.508  0.1961 -0.6594 -0.2889
  899MOL0     C23992   9.188   9.491  11.465  0.5128 -0.1020 -0.3657
  899MOL0     H23993   9.146   9.665  11.066  1.1095  0.3835 -1.8481
  899MOL0     H23994   9.158   9.615  10.825 -0.1230 -1.1080 -3.1323
  899MOL0     H23995   9.284   9.392  10.642 -0.8466 -0.1627  2.4645
  899MOL0     H23996   9.153   9.506  10.596  2.9869  0.9879  0.0202
  899MOL0     H23997   9.080   9.396  10.449  0.3327  0.8908  2.1412
  899MOL0     H23998   9.248   9.319  10.447  0.6235 -2.4608  1.9469
  899MOL0     H23999   9.022   9.181  10.594  2.0155  1.3987  1.2474
  899MOL0     H24000   9.039   9.149  10.428  0.5277 -2.2109  1.4342
  899MOL0     H24001   9.261   9.048  10.446 -0.0685  3.3680 -1.4661
  899MOL0     H24002   9.264   9.116  10.616 -1.9440  5.8495 -2.0872
  899MOL0     H24003   9.218   8.851  10.536  0.6371  3.1423 -5.1089
  899MOL0     H24004   9.053   8.910  10.569  0.3774 -2.1410  0.5452
  899MOL0     H24005   9.279   8.979  10.767 -2.0063  1.2082  0.0845
  899MOL0     H24006   9.113   8.998  10.785 -0.0162  0.1303  1.0032
  899MOL0     H24007   9.297   8.777  10.832  1.4467 -0.5528 -1.3394
  899MOL0     H24008   9.171   8.719  10.721  0.1028  0.0181  0.3478
  899MOL0     H24009   9.001   8.798  10.907 -0.7128 -2.4735  1.8943
  899MOL0     H24010   9.121   8.680  10.959  1.3693  0.6147 -0.1162
  899MOL0     H24011   9.331   8.786  11.119 -0.6779 -2.2723  2.2119
  899MOL0     H24012   9.252   8.973  11.422  2.5474 -1.8043  3.2225
  899MOL0     H24013   9.373   9.074  11.325 -1.4069  1.6922  1.7488
  899MOL0     H24014   9.372   8.773  11.379 -1.9902  1.7177  1.8809
  899MOL0     H24015   9.502   8.857  11.282 -1.9234  1.4746 -1.8537
  899MOL0     H24016   9.444   8.922  11.568 -1.1596  0.6797 -2.1870
  899MOL0     H24017   9.568   8.803  11.518 -0.0779 -0.1720  1.2142
  899MOL0     H24018   9.568   9.100  11.465 -2.3410 -0.3913  2.5828
  899MOL0     H24019   9.706   9.013  11.537  0.1883  3.1167  0.4982
  899MOL0     H24020   9.789   8.960  11.125 -3.7382  0.8821 -1.1738
  899MOL0     H24021   9.984   9.106  10.889  0.7364 -2.9477 -1.7117
  899MOL0     H24022  10.000   8.977  11.008 -0.3284  1.1165  0.5138
  899MOL0     H24023  10.104   9.115  11.018  2.1788 -4.4784 -1.8950
  899MOL0     H24024   9.965   9.633  10.947 -2.7943 -0.6370 -0.8238
  899MOL0     H24025   9.998   9.788  10.740 -0.5367 -0.5632  0.3883
  899MOL0     H24026  10.049   9.879  10.544 -0.5085 -4.2127  0.5064
  899MOL0     H24027  10.194   9.916  10.626 -1.2769  0.9584  0.3830
  899MOL0     H24028  10.308   9.842  10.380  0.6976  1.4088  0.2154
  899MOL0     H24029  10.168   9.899  10.316  3.8341 -0.5320 -2.6782
  899MOL0     H24030  10.302  10.072  10.522 -0.0093  4.0045  0.2419
  899MOL0     H24031  10.181  10.125  10.407 -1.6092 -2.6576 -0.1032
  899MOL0     H24032  10.475  10.052  10.361 -0.6732 -1.2778 -0.5838
  899MOL0     H24033  10.411  10.210  10.359 -0.1038  0.5452 -0.4319
  899MOL0     H24034  10.362   9.994  10.145  5.1801  0.3056  0.1008
  899MOL0     H24035  10.253  10.141  10.153  1.3836  3.9925 -3.2934
  899MOL0     H24036  10.569  10.136  10.123  0.3344  1.3357  2.6932
  899MOL0     H24037  10.475  10.283  10.133  0.4485 -0.4403  3.0693
  899MOL0     H24038  10.358  10.186   9.924  0.4575 -1.5151 -2.1553
  899MOL0     H24039  10.478  10.063   9.932  3.1345  0.0339  1.0647
  899MOL0     H24040  10.537  10.369   9.915 -1.0465  0.0910 -0.1490
  899MOL0     H24041  10.540  10.251   9.784 -0.5156 -0.8994  0.7493
  899MOL0     H24042  10.290   9.491  10.600  1.8113 -0.4560  4.2260
  899MOL0     H24043  10.198   9.331  10.751  1.2069  0.2567 -1.2114
  899MOL0     H24044   9.874   9.418  11.286 -2.9492 -0.4531  0.1005
  899MOL0     H24045   9.718   9.266  11.404 -0.0202 -0.2461 -0.1736
  899MOL0     H24046   9.021   9.219  10.910 -1.5547 -0.4777 -0.6130
  899MOL0     H24047   8.962   9.292  11.151  0.7313  1.6934  1.1980
  899MOL0     H24048   8.891   9.864  11.426 -1.8376 -0.8229  0.9670
  899MOL0     H24049   8.910   9.900  11.659  1.4548  1.6317 -1.1691
  899MOL0     H24050   9.130   9.602  11.898 -2.9050 -1.5010 -1.1372
  899MOL0     H24051   9.218   9.764  11.898 -0.9507 -0.2343 -1.1684
  899MOL0     H24052   9.015   9.821  12.060 -0.9298 -0.9361 -1.0680
  899MOL0     H24053   9.173   9.744  12.115  0.4828  1.0739 -0.8162
  899MOL0     H24054   8.908   9.604  12.057 -0.6808  1.0512  0.9563
  899MOL0     H24055   9.064   9.538  12.123  2.3947  1.9064 -0.2072
  899MOL0     H24056   9.046   9.707  12.308 -0.7991  1.1498 -0.4422
  899MOL0     H24057   8.937   9.571  12.314 -0.7647 -0.4752 -0.9253
  899MOL0     H24058   8.674   9.917  12.233  0.1381  0.2922 -0.9904
  899MOL0     H24059   9.144   9.550  11.707 -1.3678 -0.3145  1.3622
  899MOL0     H24060   9.254   9.446  11.540 -0.2169  0.2732  0.5152
  899MOL0     H24061   9.130   9.412  11.418 -0.4854  1.4537 -1.8838
  899MOL0     H24062   9.249   9.541  11.388  1.3476 -2.0104 -1.0121
  900MOL0     O24063   3.119   3.225   7.771  0.2972 -0.2200  0.5319
  900MOL0     C24064   3.057   3.205   7.875  0.2586 -0.9728  0.7689
  900MOL0     O24065   2.913   3.203   7.879  0.2647 -1.3955 -0.3930
  900MOL0     C24066   2.846   3.272   7.781 -0.1811 -0.4759  0.8546
  900MOL0     C24067   2.727   3.214   7.739  0.4770 -0.3135  0.6389
  900MOL0     C24068   2.660   3.271   7.632  0.2085  0.4226  0.7379
  900MOL0     C24069   2.709   3.394   7.583 -0.4752  0.5629 -0.1105
  900MOL0     O24070   2.653   3.466   7.485  0.2646  0.0118  0.9395
  900MOL0     C24071   2.511   3.466   7.468 -0.6193 -0.5703  0.6360
  900MOL0     C24072   2.473   3.393   7.338  0.7709 -0.5790  0.0749
  900MOL0     C24073   2.582   3.413   7.227 -0.8120 -0.0951  0.0568
  900MOL0     C24074   2.510   3.366   7.095  0.6868  0.8628 -0.5707
  900MOL0     C24075   2.587   3.415   6.976 -0.4274 -0.3588 -0.0680
  900MOL0     C24076   2.508   3.382   6.849  0.2071  0.4889  0.6849
  900MOL0     C24077   2.598   3.409   6.727 -0.8272 -0.4404 -0.2543
  900MOL0     C24078   2.657   3.554   6.708 -0.0826 -1.3600 -0.2053
  900MOL0     N24079   2.567   3.675   6.707  0.0662  0.3054 -0.1874
  900MOL0     C24080   2.470   3.691   6.616 -1.1377  0.0505  0.1205
  900MOL0     C24081   2.410   3.802   6.657 -0.0719  0.2369  0.4296
  900MOL0     C24082   2.278   3.873   6.604 -0.8637  0.5009 -0.2391
  900MOL0     C24083   2.220   3.782   6.487 -0.0470 -0.0714 -0.3261
  900MOL0     C24084   2.294   3.792   6.357 -0.5478 -0.8511 -0.0233
  900MOL0     C24085   2.259   3.919   6.288 -1.3352  0.4244 -0.7454
  900MOL0     O24086   2.124   3.918   6.244 -0.4392 -0.0478  0.1480
  900MOL0     C24087   2.089   4.023   6.162  0.1863 -0.3827 -0.8287
  900MOL0     C24088   2.031   4.148   6.204  0.2846  0.2393  0.2534
  900MOL0     C24089   1.994   4.252   6.110 -1.0678 -0.0721 -0.8022
  900MOL0     C24090   1.932   4.379   6.151 -0.0334  0.0217 -0.1259
  900MOL0     C24091   2.010   4.219   5.975  0.5788 -0.3819 -0.5445
  900MOL0     C24092   1.947   4.303   5.868  0.5878 -0.2370 -0.1872
  900MOL0     O24093   1.999   4.429   5.845  0.7734  0.8335 -0.4882
  900MOL0     C24094   1.970   4.494   5.726  0.4845 -0.1466 -0.1253
  900MOL0     C24095   1.963   4.436   5.592  0.1126  0.3684  0.5871
  900MOL0     C24096   1.944   4.519   5.479  0.2672  0.1451  0.2960
  900MOL0     C24097   1.943   4.659   5.499 -0.2328  0.0036  0.3858
  900MOL0     O24098   1.921   4.740   5.387 -0.6139  0.7431 -0.3638
  900MOL0     C24099   2.004   4.853   5.373  0.3472  0.1605 -0.2995
  900MOL0     C24100   1.923   4.984   5.333 -0.5292  1.0492  0.4626
  900MOL0     C24101   1.866   4.977   5.191  0.9418  0.1173  0.0751
  900MOL0     C24102   1.796   5.111   5.143  0.9760 -0.1277  0.1266
  900MOL0     C24103   1.753   5.123   4.999 -0.3641 -0.2878  0.5834
  900MOL0     C24104   1.859   5.076   4.888 -0.6671 -0.1412  0.1467
  900MOL0     C24105   1.803   5.127   4.750  0.5291  0.0013 -0.1875
  900MOL0     C24106   1.908   5.117   4.620  0.2629  0.7404 -0.3813
  900MOL0    Cl24107   2.047   5.221   4.640  0.1842  0.1949  0.3271
  900MOL0     C24108   1.947   4.716   5.629 -0.7626  0.7743  0.7503
  900MOL0     C24109   1.954   4.633   5.738 -1.5781  0.5369 -0.6200
  900MOL0     O24110   1.854   4.255   5.801 -0.2509 -0.0184  0.1596
  900MOL0     C24111   2.060   4.096   5.938  0.3323 -0.7226  0.0292
  900MOL0     C24112   2.097   4.004   6.032  0.6052 -0.0870 -0.6248
  900MOL0     N24113   2.489   3.862   6.754 -0.1990 -0.5149 -0.3721
  900MOL0     N24114   2.586   3.781   6.786 -0.3362  0.5977  0.0214
  900MOL0     C24115   2.815   3.459   7.628 -0.9807 -0.2842 -0.1656
  900MOL0     C24116   2.886   3.401   7.735 -0.5312  0.6990 -0.8107
  900MOL0     C24117   3.129   3.145   7.994  0.1456  0.2958 -0.6706
  900MOL0     C24118   3.073   3.038   8.079  0.2393 -0.3737  0.0641
  900MOL0     C24119   3.134   2.986   8.193 -0.2312 -0.1671 -0.0846
  900MOL0     C24120   3.259   3.035   8.229 -0.6849 -0.8815 -0.0728
  900MOL0     O24121   3.328   2.975   8.330 -0.8276 -0.5140 -0.1637
  900MOL0     C24122   3.470   3.006   8.356  0.5410  0.1339 -0.1912
  900MOL0     C24123   3.552   2.936   8.249  0.2087 -0.3046 -1.1142
  900MOL0     C24124   3.598   2.804   8.299  0.2779 -0.3533 -0.1451
  900MOL0     C24125   3.636   2.713   8.184 -0.6780  0.5668 -0.2010
  900MOL0     C24126   3.768   2.743   8.130 -0.2737  0.1086 -0.4030
  900MOL0     C24127   3.879   2.768   8.102  0.2493 -0.7942  1.1037
  900MOL0     C24128   3.310   3.137   8.149  0.3221  1.0175  0.4131
  900MOL0     C24129   3.251   3.188   8.035  0.0751  0.4274  0.0058
  900MOL0     C24130   3.323   3.301   7.973 -1.2124 -0.6000  0.3921
  900MOL0     H24131   2.699   3.120   7.785 -0.7165 -0.9062 -1.1737
  900MOL0     H24132   2.578   3.223   7.580  0.3825  2.0605 -1.1674
  900MOL0     H24133   2.482   3.570   7.451 -2.1634 -1.0886 -0.1083
  900MOL0     H24134   2.464   3.416   7.554 -0.2438 -0.6793  0.7791
  900MOL0     H24135   2.478   3.285   7.356  1.6578 -0.9401 -2.0822
  900MOL0     H24136   2.377   3.418   7.291  2.3600 -2.5211 -4.8022
  900MOL0     H24137   2.614   3.518   7.223  0.6343 -0.4807  0.8708
  900MOL0     H24138   2.679   3.365   7.244  0.4204  1.0262 -3.0751
  900MOL0     H24139   2.499   3.257   7.096  1.6207  0.7583  0.9329
  900MOL0     H24140   2.409   3.405   7.079  1.0444  2.1760  0.1971
  900MOL0     H24141   2.687   3.371   6.967  0.3941  1.6107 -1.3349
  900MOL0     H24142   2.591   3.524   6.983 -2.4010 -0.3215  1.6480
  900MOL0     H24143   2.465   3.281   6.843  4.4165 -1.6003  2.0755
  900MOL0     H24144   2.427   3.454   6.837  0.2382  0.5283  0.7115
  900MOL0     H24145   2.554   3.377   6.632  0.7529  1.8144 -1.8439
  900MOL0     H24146   2.687   3.347   6.740 -1.1643 -0.9295 -0.2458
  900MOL0     H24147   2.740   3.573   6.776 -0.2176 -2.6255  0.3526
  900MOL0     H24148   2.705   3.556   6.610 -2.4570  0.1603 -1.4223
  900MOL0     H24149   2.452   3.639   6.522  3.0350 -2.1582  0.3125
  900MOL0     H24150   2.322   3.968   6.571 -1.3978  0.2063 -1.9275
  900MOL0     H24151   2.211   3.883   6.689 -0.5149  0.7917  0.0053
  900MOL0     H24152   2.210   3.680   6.525 -2.2638 -0.5537 -1.9544
  900MOL0     H24153   2.116   3.809   6.464  0.1243  1.8806  0.9011
  900MOL0     H24154   2.403   3.789   6.370 -0.3615  0.9961 -0.8753
  900MOL0     H24155   2.269   3.708   6.292 -2.9314 -0.7943  0.7398
  900MOL0     H24156   2.266   4.006   6.354  0.2421 -1.9977  2.5954
  900MOL0     H24157   2.331   3.922   6.206 -3.2309 -2.7742 -2.7695
  900MOL0     H24158   2.007   4.173   6.307 -0.8639  0.2529 -0.0109
  900MOL0     H24159   1.825   4.376   6.130 -0.0287 -2.7733 -0.1077
  900MOL0     H24160   1.975   4.462   6.094 -0.7153 -0.3982 -1.2574
  900MOL0     H24161   1.938   4.402   6.258  0.4838  1.2762 -0.4070
  900MOL0     H24162   1.966   4.330   5.569 -1.5416  0.3008  0.5740
  900MOL0     H24163   1.945   4.470   5.383 -1.7766  0.3200  0.1401
  900MOL0     H24164   2.074   4.872   5.455 -1.4758 -0.5306  1.4850
  900MOL0     H24165   2.059   4.826   5.282  0.6496  1.4993 -0.5384
  900MOL0     H24166   1.837   4.988   5.401  0.8535 -0.7329  2.4212
  900MOL0     H24167   1.985   5.072   5.351 -2.9915  2.5626  2.1956
  900MOL0     H24168   1.786   4.903   5.179 -0.2579  1.4891 -0.9388
  900MOL0     H24169   1.941   4.949   5.116  0.3150 -0.9990 -0.1613
  900MOL0     H24170   1.873   5.185   5.166  0.6210  0.1282  0.5271
  900MOL0     H24171   1.706   5.136   5.201 -0.8625  0.2846 -2.6835
  900MOL0     H24172   1.661   5.063   4.990  0.6886 -1.6296 -3.4537
  900MOL0     H24173   1.721   5.225   4.976 -0.5240 -0.9230 -2.4311
  900MOL0     H24174   1.868   4.967   4.890 -1.7502 -0.3665 -2.6803
  900MOL0     H24175   1.957   5.122   4.907 -0.3421 -0.7052 -0.1250
  900MOL0     H24176   1.781   5.234   4.756  2.0923  0.2773  1.4283
  900MOL0     H24177   1.704   5.082   4.736  1.0883 -1.0324 -0.9476
  900MOL0     H24178   1.863   5.142   4.524  0.3531 -2.3179 -1.3166
  900MOL0     H24179   1.937   5.012   4.608 -1.9838  0.2281 -1.9991
  900MOL0     H24180   1.952   4.823   5.647  0.7331  0.8583  0.0254
  900MOL0     H24181   1.972   4.688   5.830  4.2709 -1.1609 -0.3311
  900MOL0     H24182   2.049   4.077   5.831 -2.9397 -0.3187  0.1737
  900MOL0     H24183   2.144   3.908   6.011 -0.0526 -1.5430  3.6483
  900MOL0     H24184   2.845   3.559   7.596 -2.8471  0.1959 -0.5254
  900MOL0     H24185   2.968   3.455   7.782 -1.5697  1.1538  0.5569
  900MOL0     H24186   2.977   2.993   8.057 -2.1077  3.3540  1.5793
  900MOL0     H24187   3.095   2.905   8.254  2.0600 -0.5299  1.0136
  900MOL0     H24188   3.481   3.114   8.348 -0.6376  0.3456  0.8327
  900MOL0     H24189   3.501   2.971   8.455  0.0472  0.6892  0.1636
  900MOL0     H24190   3.628   3.011   8.227 -1.3822  2.4941  1.9801
  900MOL0     H24191   3.500   2.924   8.153 -0.3156 -1.4796 -0.6987
  900MOL0     H24192   3.680   2.815   8.371  2.3276 -2.0042 -2.0770
  900MOL0     H24193   3.518   2.753   8.354  2.0615 -0.9321  2.0676
  900MOL0     H24194   3.566   2.723   8.101  0.8948 -4.8918 -2.6534
  900MOL0     H24195   3.628   2.609   8.217  0.5175  0.1666 -1.1361
  900MOL0     H24196   3.975   2.775   8.055  0.6252 -0.9479  1.8249
  900MOL0     H24197   3.411   3.174   8.167  1.8755 -2.5130 -0.2764
  900MOL0     H24198   3.265   3.383   7.928 -0.2137 -0.4031 -0.5940
  900MOL0     H24199   3.375   3.357   8.052  2.0027 -4.2011  1.1080
  900MOL0     H24200   3.380   3.257   7.890 -1.3961 -0.1221  0.0074
  901MOL0     O24201  11.185   0.097   6.849 -0.2465 -0.0410 -0.2910
  901MOL0     C24202  11.222  -0.018   6.851 -0.7869 -0.2387  0.1471
  901MOL0     O24203  11.204  -0.101   6.746 -1.1176 -0.1796 -0.9140
  901MOL0     C24204  11.104  -0.076   6.650  0.5573 -0.0152  0.3448
  901MOL0     C24205  11.120  -0.110   6.509 -0.6154 -0.3887 -0.1344
  901MOL0     C24206  11.015  -0.123   6.422 -0.4783 -0.0720  0.4549
  901MOL0     C24207  10.889  -0.081   6.467  0.8839 -0.6263 -0.2311
  901MOL0     O24208  10.788  -0.073   6.379  0.4976 -1.1756  0.0318
  901MOL0     C24209  10.802  -0.030   6.246 -0.2920 -0.2403 -0.0236
  901MOL0     C24210  10.729   0.105   6.214  0.3250  0.7449  0.2683
  901MOL0     C24211  10.761   0.213   6.315 -0.3761 -0.1963  0.3009
  901MOL0     C24212  10.902   0.274   6.283 -0.9354  0.3388 -0.7897
  901MOL0     C24213  10.937   0.375   6.395 -0.5374  0.7016  0.0852
  901MOL0     C24214  10.983   0.306   6.524 -0.0040  1.1275 -0.0400
  901MOL0     C24215  11.042   0.420   6.604 -0.4253  0.2895  0.2578
  901MOL0     C24216  11.126   0.342   6.705  0.4601 -0.3080  0.4024
  901MOL0     N24217  11.233   0.432   6.757 -0.5355  0.7410  0.8230
  901MOL0     C24218  11.348   0.446   6.692  0.2339 -0.6269 -0.7251
  901MOL0     C24219  11.424   0.522   6.782 -0.0468  0.2339 -0.2314
  901MOL0     C24220  11.560   0.573   6.745 -0.3210 -0.3843  0.1906
  901MOL0     C24221  11.693   0.503   6.814 -0.2853 -0.9145 -0.3033
  901MOL0     C24222  11.684   0.349   6.813 -0.4003  0.7405  1.2559
  901MOL0     C24223  11.798   0.291   6.894  0.0856  0.6814 -0.6778
  901MOL0     O24224  11.747   0.269   7.031 -0.4783  0.0907 -0.3165
  901MOL0     C24225  11.837   0.227   7.125  0.4371  0.5073 -1.2260
  901MOL0     C24226  11.961   0.176   7.100 -0.7259  0.1934 -0.2517
  901MOL0     C24227  12.058   0.164   7.205 -0.2310 -0.7887  0.5028
  901MOL0     C24228  12.201   0.159   7.145 -0.6538 -0.3137 -0.6291
  901MOL0     C24229  12.025   0.193   7.340  0.7328  0.4608 -0.1618
  901MOL0     C24230  12.118   0.189   7.462 -0.1960 -0.3088 -0.1070
  901MOL0     O24231  12.061   0.159   7.579  0.5714  0.1431  0.0658
  901MOL0     C24232  12.130   0.175   7.698 -0.7616 -0.6290 -0.6189
  901MOL0     C24233  12.231   0.274   7.731  0.5075 -0.0309 -0.0271
  901MOL0     C24234  12.293   0.268   7.850  0.1445 -0.5267 -0.6791
  901MOL0     C24235  12.262   0.172   7.956 -0.7006 -0.9188  0.8440
  901MOL0     O24236  12.322   0.164   8.081 -1.2096 -0.2151  0.5887
  901MOL0     C24237  12.363   0.288   8.128 -0.7535  0.2133 -0.7179
  901MOL0     C24238  12.415   0.278   8.272  0.0742  0.7337  0.2335
  901MOL0     C24239  12.566   0.268   8.277  0.5112 -0.1353  1.2216
  901MOL0     C24240  12.623   0.299   8.412  0.1797  0.9126  0.2437
  901MOL0     C24241  12.564   0.408   8.505 -0.3076 -0.8358 -0.1497
  901MOL0     C24242  12.583   0.552   8.442 -0.4987  0.5002  1.3757
  901MOL0     C24243  12.575   0.667   8.551  0.8094 -0.5332  0.7333
  901MOL0     C24244  12.544   0.809   8.473  0.2571  0.7049 -0.9603
  901MOL0    Cl24245  12.543   0.932   8.605  0.4551 -0.3257  0.1733
  901MOL0     C24246  12.152   0.090   7.926 -0.1450 -0.7166  0.9483
  901MOL0     C24247  12.094   0.087   7.804 -0.5218 -0.4302  0.5221
  901MOL0     O24248  12.239   0.189   7.445 -0.1325  0.3313 -0.2330
  901MOL0     C24249  11.892   0.219   7.368  0.7449 -0.7126 -0.2354
  901MOL0     C24250  11.801   0.234   7.260 -0.2175 -0.7476  0.4486
  901MOL0     N24251  11.357   0.536   6.899  0.5585  0.2043 -0.2760
  901MOL0     N24252  11.243   0.477   6.879  0.3775  0.3704 -0.3223
  901MOL0     C24253  10.866  -0.024   6.590 -0.5475 -0.1726  0.6266
  901MOL0     C24254  10.972  -0.035   6.688 -0.6679 -0.4207  0.5677
  901MOL0     C24255  11.313  -0.076   6.963 -0.2465  0.4368 -0.1873
  901MOL0     C24256  11.375  -0.195   6.929 -0.8923 -0.1368  0.0234
  901MOL0     C24257  11.475  -0.248   7.025 -0.2930 -0.3157 -0.6371
  901MOL0     C24258  11.487  -0.187   7.150  1.2245  0.1635 -0.8432
  901MOL0     O24259  11.569  -0.249   7.238  0.6742 -0.9151 -0.2240
  901MOL0     C24260  11.597  -0.181   7.363 -0.0683 -0.5542 -0.4977
  901MOL0     C24261  11.678  -0.266   7.459 -0.6232 -0.0547 -0.5150
  901MOL0     C24262  11.734  -0.199   7.592 -0.1071  0.6122  0.0742
  901MOL0     C24263  11.649  -0.192   7.727 -0.0237 -0.7011  1.2195
  901MOL0     C24264  11.641  -0.317   7.790  0.4704  0.6160  0.0029
  901MOL0     C24265  11.635  -0.439   7.817 -0.0804  0.1827  0.3006
  901MOL0     C24266  11.417  -0.071   7.179  0.7292  0.8779  0.0130
  901MOL0     C24267  11.338  -0.012   7.082 -0.7341 -0.0016 -0.5140
  901MOL0     C24268  11.271   0.128   7.125 -0.0322  0.6117  0.5262
  901MOL0     H24269  11.220  -0.132   6.475  0.4203 -0.3624  2.6072
  901MOL0     H24270  11.024  -0.157   6.319 -3.5228  1.6316 -0.5125
  901MOL0     H24271  10.761  -0.102   6.174  1.6884  3.2072 -5.1837
  901MOL0     H24272  10.906  -0.009   6.218 -0.9556 -0.1129 -2.5965
  901MOL0     H24273  10.765   0.143   6.118 -1.5715 -1.7274 -1.5717
  901MOL0     H24274  10.621   0.089   6.214  0.5197 -0.7610 -0.4300
  901MOL0     H24275  10.682   0.287   6.325  0.1408  0.2815  0.9021
  901MOL0     H24276  10.758   0.168   6.415  0.3267  1.1631  0.9517
  901MOL0     H24277  10.975   0.193   6.276 -1.2021  0.2281 -2.8860
  901MOL0     H24278  10.897   0.314   6.181 -1.9263  0.5639 -0.6596
  901MOL0     H24279  10.848   0.432   6.422 -0.5690  0.4601  0.5098
  901MOL0     H24280  11.014   0.438   6.349 -3.4977  1.3450 -4.5970
  901MOL0     H24281  10.895   0.268   6.576 -1.5056 -1.0863 -3.8215
  901MOL0     H24282  11.056   0.230   6.495 -0.9097  1.3572 -3.3124
  901MOL0     H24283  10.964   0.478   6.652  0.8345  1.2035  1.2734
  901MOL0     H24284  11.100   0.492   6.546 -3.3519  2.0664 -0.6432
  901MOL0     H24285  11.064   0.295   6.781 -0.8634 -2.5178 -1.8815
  901MOL0     H24286  11.184   0.259   6.665  0.9614 -0.0893  0.6627
  901MOL0     H24287  11.377   0.404   6.596 -2.7113 -3.0744 -0.6844
  901MOL0     H24288  11.569   0.678   6.776  3.3266 -0.9727  1.6275
  901MOL0     H24289  11.580   0.587   6.638  1.7649  2.6687  0.8272
  901MOL0     H24290  11.780   0.531   6.755 -0.7337  1.5573  0.1148
  901MOL0     H24291  11.709   0.552   6.911  1.6218  2.2518 -2.0737
  901MOL0     H24292  11.589   0.310   6.849 -0.2251 -1.5090 -0.4866
  901MOL0     H24293  11.689   0.329   6.705  0.8579 -2.5607  1.7993
  901MOL0     H24294  11.851   0.206   6.851  0.0637 -0.2571  1.0823
  901MOL0     H24295  11.864   0.378   6.895 -2.8252  3.0625 -0.5740
  901MOL0     H24296  11.998   0.154   7.001 -0.1353  2.6866 -0.6469
  901MOL0     H24297  12.211   0.167   7.036 -1.9960  0.7046 -0.7012
  901MOL0     H24298  12.237   0.064   7.186 -2.6515 -1.7728 -2.0651
  901MOL0     H24299  12.258   0.243   7.187 -1.6732 -0.5576  1.3397
  901MOL0     H24300  12.259   0.340   7.649  0.2073 -0.2853 -0.3357
  901MOL0     H24301  12.376   0.339   7.851 -0.2345  0.0340  2.9152
  901MOL0     H24302  12.437   0.336   8.063 -1.6859  1.6315 -0.7593
  901MOL0     H24303  12.272   0.348   8.123 -1.6207 -1.1442 -2.9961
  901MOL0     H24304  12.370   0.369   8.312 -1.4586 -0.4781  1.4120
  901MOL0     H24305  12.363   0.191   8.313  1.9002 -1.0307 -0.9888
  901MOL0     H24306  12.607   0.348   8.215  0.8042 -0.9519  0.3315
  901MOL0     H24307  12.587   0.169   8.234 -2.5711  0.1232 -1.2176
  901MOL0     H24308  12.722   0.341   8.392 -0.8682  2.2078 -2.9385
  901MOL0     H24309  12.619   0.211   8.477 -3.4040  0.3935 -0.4479
  901MOL0     H24310  12.455   0.392   8.509 -1.2023  3.9966  0.2669
  901MOL0     H24311  12.603   0.409   8.607  0.0289  3.5923 -0.1524
  901MOL0     H24312  12.516   0.558   8.356 -0.3782  0.2455  1.2626
  901MOL0     H24313  12.681   0.559   8.392 -0.8988 -0.5843  0.3767
  901MOL0     H24314  12.675   0.684   8.592  1.5399 -1.3338 -0.6506
  901MOL0     H24315  12.500   0.640   8.626  0.9404  1.6569  1.7228
  901MOL0     H24316  12.446   0.821   8.426  0.0366 -0.5310 -0.8524
  901MOL0     H24317  12.620   0.815   8.395  0.6723 -2.4669 -0.9327
  901MOL0     H24318  12.105   0.026   8.000  0.5247 -1.3304  0.8491
  901MOL0     H24319  12.019   0.011   7.786  0.7179 -1.1766 -1.9722
  901MOL0     H24320  11.858   0.234   7.469  1.4526 -4.5060  0.7210
  901MOL0     H24321  11.699   0.271   7.269  0.4711  2.7217 -3.1873
  901MOL0     H24322  10.767   0.014   6.609 -0.7091 -0.6206  0.6847
  901MOL0     H24323  10.943  -0.008   6.789 -0.0505  1.0254  0.3878
  901MOL0     H24324  11.363  -0.240   6.831  1.3290 -3.2853  1.0403
  901MOL0     H24325  11.546  -0.326   7.001 -0.2497 -0.3234 -0.4856
  901MOL0     H24326  11.651  -0.087   7.350 -0.1420 -0.2236  1.3772
  901MOL0     H24327  11.502  -0.167   7.413  0.2335 -0.1646 -0.0283
  901MOL0     H24328  11.761  -0.316   7.410 -0.1805  0.2523 -0.0954
  901MOL0     H24329  11.610  -0.346   7.489 -1.1686  0.8579  0.8145
  901MOL0     H24330  11.815  -0.261   7.633 -1.7832 -0.6864  1.5994
  901MOL0     H24331  11.763  -0.097   7.564  1.8030 -0.0366 -0.4769
  901MOL0     H24332  11.543  -0.171   7.710  0.0196  0.7120  2.5114
  901MOL0     H24333  11.701  -0.116   7.785  0.0358 -0.8324  1.3368
  901MOL0     H24334  11.633  -0.543   7.842 -0.3935 -0.2951 -1.5673
  901MOL0     H24335  11.419  -0.026   7.278 -1.7807  0.5332  0.2840
  901MOL0     H24336  11.164   0.136   7.104 -0.6864 -1.1105  2.8396
  901MOL0     H24337  11.280   0.136   7.233  1.2376 -1.8345  0.6606
  901MOL0     H24338  11.325   0.210   7.076 -0.3039  0.3740 -0.1961
  902MOL0     O24339   2.514   5.893   7.172  0.6410 -0.9101 -0.4134
  902MOL0     C24340   2.440   5.986   7.202  0.0089  0.5074  0.3647
  902MOL0     O24341   2.462   6.118   7.185  1.2428 -1.1550 -0.1938
  902MOL0     C24342   2.603   6.154   7.158  0.0289 -1.4951  0.1658
  902MOL0     C24343   2.649   6.276   7.207  0.3859 -0.1311  0.2365
  902MOL0     C24344   2.783   6.322   7.196 -0.7080 -0.0701 -0.6240
  902MOL0     C24345   2.868   6.243   7.114 -0.2365  1.2567 -1.4195
  902MOL0     O24346   2.987   6.307   7.090 -0.3589  0.2623 -0.2847
  902MOL0     C24347   3.081   6.253   7.000  1.0471 -0.3902 -0.1804
  902MOL0     C24348   3.156   6.134   7.063 -0.2664  0.0789  0.6054
  902MOL0     C24349   3.258   6.197   7.167 -0.1153  0.0706 -0.7057
  902MOL0     C24350   3.212   6.202   7.318 -0.5690 -0.0600  0.3634
  902MOL0     C24351   3.216   6.043   7.364 -0.1140  0.9262  0.3364
  902MOL0     C24352   3.133   6.017   7.493  0.1963  0.9147  0.1331
  902MOL0     C24353   3.106   5.863   7.521 -0.1154 -0.3499  0.0296
  902MOL0     C24354   3.237   5.790   7.543  0.0877  0.2719 -0.7177
  902MOL0     N24355   3.208   5.642   7.541 -0.1509 -0.8392 -0.4853
  902MOL0     C24356   3.309   5.554   7.529 -0.0057 -0.0402 -0.9378
  902MOL0     C24357   3.251   5.440   7.516  0.3207  0.6349  0.1765
  902MOL0     C24358   3.332   5.316   7.483  0.0468 -0.0004  0.2954
  902MOL0     C24359   3.240   5.194   7.480 -0.0982 -0.7138  1.0000
  902MOL0     C24360   3.170   5.190   7.340 -1.4071  0.3766 -0.9247
  902MOL0     C24361   3.039   5.119   7.345 -0.4185  0.9371 -0.5461
  902MOL0     O24362   3.064   4.976   7.355 -1.0232  0.3002 -1.1199
  902MOL0     C24363   2.963   4.912   7.300  0.2426  0.0308  1.1318
  902MOL0     C24364   2.833   4.899   7.350 -0.3104 -0.4830 -0.5471
  902MOL0     C24365   2.745   4.808   7.304  0.1503  0.4049 -0.7748
  902MOL0     C24366   2.598   4.817   7.358  0.4708 -0.4109  0.1070
  902MOL0     C24367   2.790   4.714   7.204 -0.0487 -0.0145 -0.0434
  902MOL0     C24368   2.691   4.612   7.155  0.1552 -0.0201 -0.2299
  902MOL0     O24369   2.701   4.477   7.176 -0.2080  0.5848 -0.7831
  902MOL0     C24370   2.808   4.413   7.235  0.6401 -0.6972 -0.3294
  902MOL0     C24371   2.886   4.329   7.153 -0.2177 -0.0354  0.8384
  902MOL0     C24372   2.998   4.268   7.203 -1.4971  0.9478 -0.3379
  902MOL0     C24373   3.021   4.270   7.342  0.0158  0.3773  0.3487
  902MOL0     O24374   3.112   4.176   7.383 -1.0540 -1.1139  0.6323
  902MOL0     C24375   3.177   4.189   7.517  0.3913  0.1203  0.7537
  902MOL0     C24376   3.285   4.084   7.530 -0.5211 -0.6112  0.0627
  902MOL0     C24377   3.403   4.110   7.426  0.4073 -0.8207  0.1217
  902MOL0     C24378   3.486   3.971   7.417 -1.6048 -0.2542  0.1145
  902MOL0     C24379   3.635   3.981   7.356 -0.1692 -0.3394  0.8930
  902MOL0     C24380   3.726   3.852   7.376 -0.0185 -0.4204  0.3811
  902MOL0     C24381   3.862   3.864   7.314  0.2533 -0.6002 -0.5026
  902MOL0     C24382   3.950   3.750   7.361 -0.3414  0.5750  0.9245
  902MOL0    Cl24383   4.081   3.738   7.252  0.4890  0.2976 -0.3309
  902MOL0     C24384   2.945   4.355   7.430  1.2611 -0.0125  0.5079
  902MOL0     C24385   2.837   4.433   7.375 -0.6808  0.4542  0.7671
  902MOL0     O24386   2.602   4.663   7.090 -0.7286 -0.2510  0.5505
  902MOL0     C24387   2.920   4.721   7.157 -0.5110  0.2432  0.7671
  902MOL0     C24388   3.005   4.814   7.206  0.5354 -0.6763 -0.1700
  902MOL0     N24389   3.110   5.462   7.509  0.0511 -1.0038  0.1693
  902MOL0     N24390   3.088   5.587   7.534  0.3592  0.1733  0.2618
  902MOL0     C24391   2.822   6.125   7.064  0.2004  0.2675  0.1143
  902MOL0     C24392   2.695   6.081   7.079  0.1440 -0.6883  0.0298
  902MOL0     C24393   2.295   5.952   7.218 -1.2431 -0.8779 -0.6890
  902MOL0     C24394   2.202   6.052   7.174 -1.4171  1.0644  0.3953
  902MOL0     C24395   2.077   6.022   7.191  0.6230  1.2211  0.3704
  902MOL0     C24396   2.022   5.917   7.275  0.2819  0.1323  0.7482
  902MOL0     O24397   1.893   5.889   7.304  0.3791 -0.2378 -0.1502
  902MOL0     C24398   1.799   5.964   7.225  0.4827  0.3878 -1.1222
  902MOL0     C24399   1.654   5.923   7.247 -0.3782  0.9309 -0.1841
  902MOL0     C24400   1.614   5.903   7.384 -0.9226  0.5225 -0.1865
  902MOL0     C24401   1.461   5.916   7.392  0.1367 -1.0030  0.1221
  902MOL0     C24402   1.420   6.062   7.378  0.1873  0.7860 -0.5890
  902MOL0     C24403   1.394   6.180   7.373 -0.6413  0.3051 -0.0439
  902MOL0     C24404   2.116   5.831   7.326  0.1716 -0.1837 -0.7306
  902MOL0     C24405   2.252   5.842   7.299 -0.4520  0.1373 -0.3335
  902MOL0     C24406   2.338   5.728   7.350 -1.1899  0.2938  0.0518
  902MOL0     H24407   2.575   6.344   7.246  0.1213 -0.6367  0.6332
  902MOL0     H24408   2.811   6.413   7.249 -0.7629 -1.4435  1.9220
  902MOL0     H24409   3.151   6.332   6.975  1.4454 -0.4752  0.6426
  902MOL0     H24410   3.025   6.215   6.914  1.2903 -0.3082 -0.3765
  902MOL0     H24411   3.097   6.060   7.118  1.1872 -0.3557  1.6719
  902MOL0     H24412   3.217   6.079   6.991 -3.0912 -3.8699  0.9278
  902MOL0     H24413   3.346   6.132   7.175 -0.1518  0.0737 -0.2882
  902MOL0     H24414   3.296   6.296   7.138  3.0868 -1.4816 -2.3767
  902MOL0     H24415   3.288   6.264   7.364  0.7498  1.3908 -3.3816
  902MOL0     H24416   3.115   6.251   7.330  0.2064  1.1430  2.0121
  902MOL0     H24417   3.321   6.015   7.378 -1.1157 -2.5132  2.3170
  902MOL0     H24418   3.169   5.971   7.297 -0.1712  2.0581 -0.8790
  902MOL0     H24419   3.181   6.066   7.578 -3.6636 -0.1481  3.2534
  902MOL0     H24420   3.030   6.054   7.496 -0.9166 -1.3496 -3.4649
  902MOL0     H24421   3.053   5.827   7.432 -0.4320  0.0599  0.0502
  902MOL0     H24422   3.042   5.865   7.609 -3.4224  5.9820 -1.8950
  902MOL0     H24423   3.318   5.810   7.472 -0.2738 -1.5015 -1.6728
  902MOL0     H24424   3.265   5.814   7.646 -0.3810  1.3155 -0.8200
  902MOL0     H24425   3.416   5.570   7.518  0.3190 -1.5926 -0.2823
  902MOL0     H24426   3.411   5.303   7.557  0.7894  0.1357 -0.4598
  902MOL0     H24427   3.393   5.333   7.393  1.3001 -3.4761  0.3609
  902MOL0     H24428   3.290   5.104   7.516 -0.3034 -0.1977  2.7114
  902MOL0     H24429   3.164   5.206   7.559  0.8534 -1.5700  2.0799
  902MOL0     H24430   3.145   5.287   7.295 -2.9481 -1.0158 -3.3555
  902MOL0     H24431   3.243   5.139   7.276 -0.2488  0.3791  0.3515
  902MOL0     H24432   2.968   5.145   7.424 -0.5696 -1.6719  0.3019
  902MOL0     H24433   2.986   5.147   7.254  3.0618 -1.4757 -3.6101
  902MOL0     H24434   2.802   4.966   7.430 -1.7239 -1.2713 -0.4001
  902MOL0     H24435   2.596   4.903   7.426  1.3014 -0.6056  0.3967
  902MOL0     H24436   2.573   4.732   7.422  2.1092 -1.4107 -0.5174
  902MOL0     H24437   2.533   4.834   7.272  3.2213 -1.7048 -2.4027
  902MOL0     H24438   2.872   4.300   7.049  0.8046  0.3139  0.5830
  902MOL0     H24439   3.052   4.190   7.151 -1.9445 -3.9478  5.4246
  902MOL0     H24440   3.211   4.293   7.523 -3.3852  1.4715  1.7782
  902MOL0     H24441   3.108   4.172   7.600  0.8800  2.0928  1.6195
  902MOL0     H24442   3.328   4.087   7.631 -1.4542 -1.8613  0.5341
  902MOL0     H24443   3.237   3.986   7.519 -1.3093 -0.5557  2.4453
  902MOL0     H24444   3.476   4.185   7.459  2.1998 -2.1785 -0.5678
  902MOL0     H24445   3.365   4.147   7.331  0.1858 -1.1543  0.0810
  902MOL0     H24446   3.441   3.890   7.359  1.7148 -1.4648 -0.9497
  902MOL0     H24447   3.497   3.931   7.518  1.9946 -4.0242 -1.5019
  902MOL0     H24448   3.628   3.990   7.247  2.3965  1.2867  0.7679
  902MOL0     H24449   3.686   4.076   7.377 -1.7209  0.6301  0.3970
  902MOL0     H24450   3.670   3.765   7.340 -1.7261 -0.0006  1.8669
  902MOL0     H24451   3.736   3.833   7.483  1.9416 -3.6761 -0.2377
  902MOL0     H24452   3.906   3.957   7.351  0.8020 -1.6241  1.5652
  902MOL0     H24453   3.859   3.861   7.205 -0.1037 -3.1325 -0.4719
  902MOL0     H24454   3.901   3.653   7.372  1.2922 -0.7689 -2.2392
  902MOL0     H24455   3.998   3.785   7.453  1.1438 -0.5187  0.6022
  902MOL0     H24456   2.964   4.366   7.536  0.0345  0.7884  0.6689
  902MOL0     H24457   2.774   4.501   7.430 -3.8677 -1.5843 -0.1145
  902MOL0     H24458   2.939   4.648   7.079  1.3888  0.6442  0.8146
  902MOL0     H24459   3.111   4.803   7.188  0.4774  1.1120 -2.0429
  902MOL0     H24460   2.891   6.068   7.002  3.4947  0.7737  2.9530
  902MOL0     H24461   2.669   5.987   7.033 -1.9044 -0.3135  0.3166
  902MOL0     H24462   2.225   6.138   7.112  1.2440 -0.9337 -1.6657
  902MOL0     H24463   2.007   6.093   7.147 -0.8520 -1.2869 -1.6009
  902MOL0     H24464   1.805   6.070   7.248 -1.3277  0.9299 -2.8825
  902MOL0     H24465   1.824   5.952   7.119 -0.3892  3.6061 -1.7855
  902MOL0     H24466   1.635   5.832   7.190  0.7208 -1.0444  2.4130
  902MOL0     H24467   1.597   6.001   7.196 -1.1712 -0.1252 -0.9481
  902MOL0     H24468   1.644   5.801   7.409 -3.3245 -0.7463 -2.0354
  902MOL0     H24469   1.669   5.975   7.445  1.4618  0.7758 -2.4668
  902MOL0     H24470   1.418   5.879   7.485  0.2677  1.1247  1.0874
  902MOL0     H24471   1.411   5.856   7.315  0.9330  0.4200 -1.5669
  902MOL0     H24472   1.348   6.275   7.357 -0.3754  0.5475  0.5860
  902MOL0     H24473   2.076   5.753   7.390 -0.8778  1.7050  1.0131
  902MOL0     H24474   2.434   5.763   7.389 -1.3644  1.0362 -0.1671
  902MOL0     H24475   2.279   5.671   7.423 -1.3106 -1.2483 -1.1884
  902MOL0     H24476   2.356   5.649   7.276 -2.8147 -4.4682  4.1419
  903MOL0     O24477   4.122   8.964  10.414 -0.0935  0.2021  0.4333
  903MOL0     C24478   4.244   8.990  10.397  0.4511 -0.0831 -0.4723
  903MOL0     O24479   4.331   9.035  10.500 -0.3281  0.1180 -0.0502
  903MOL0     C24480   4.261   9.080  10.608 -0.1714  0.8111  0.3270
  903MOL0     C24481   4.173   9.182  10.616  0.3957  1.0331  0.0600
  903MOL0     C24482   4.132   9.226  10.740 -0.2758  0.2787 -0.4310
  903MOL0     C24483   4.181   9.170  10.858  0.5704  0.3172  0.3965
  903MOL0     O24484   4.158   9.217  10.988  0.0872  0.3512  0.0298
  903MOL0     C24485   4.074   9.339  10.997  0.0014 -0.0872 -0.0281
  903MOL0     C24486   4.063   9.375  11.145 -0.2503 -0.3362  0.0282
  903MOL0     C24487   4.079   9.526  11.184  0.2851 -0.9657  0.3935
  903MOL0     C24488   4.088   9.544  11.326 -0.0915  0.0801  1.8218
  903MOL0     C24489   4.091   9.695  11.361  0.5115  0.4893 -0.7424
  903MOL0     C24490   4.192   9.781  11.276  0.4041  0.5088  0.6589
  903MOL0     C24491   4.233   9.910  11.357  0.4104  0.1610  0.3054
  903MOL0     C24492   4.337  10.000  11.283 -0.2889 -1.1245  0.1461
  903MOL0     N24493   4.269  10.043  11.152 -0.4451  0.6669 -0.3867
  903MOL0     C24494   4.162  10.127  11.152 -0.4300  0.0245 -0.1770
  903MOL0     C24495   4.149  10.154  11.022  0.6974  0.1198  0.6304
  903MOL0     C24496   4.041  10.241  10.976  0.5842  1.1271 -0.6117
  903MOL0     C24497   3.979  10.190  10.854  0.2643  0.3415 -0.1649
  903MOL0     C24498   3.848  10.269  10.832  0.2939  0.4072 -0.2620
  903MOL0     C24499   3.797  10.223  10.704 -0.2684  0.2218  1.0528
  903MOL0     O24500   3.676  10.297  10.660 -0.2962  0.0186 -1.2110
  903MOL0     C24501   3.617  10.279  10.537  0.4092 -0.8970  0.2769
  903MOL0     C24502   3.655  10.182  10.441  0.0816 -0.2578  0.5880
  903MOL0     C24503   3.593  10.193  10.308 -0.2011 -0.5573 -1.2166
  903MOL0     C24504   3.648  10.097  10.199  0.5749 -0.4542  0.0770
  903MOL0     C24505   3.489  10.288  10.281 -0.0521  0.0748  0.3173
  903MOL0     C24506   3.435  10.313  10.147 -0.5421  0.1002  0.8193
  903MOL0     O24507   3.512  10.296  10.043  0.1257  0.9373 -0.4631
  903MOL0     C24508   3.470  10.353   9.929 -0.1438 -0.0141  1.4101
  903MOL0     C24509   3.395  10.282   9.835 -0.6300 -1.4009  0.1970
  903MOL0     C24510   3.335  10.336   9.727 -0.3292 -0.0433  0.8623
  903MOL0     C24511   3.349  10.472   9.707  0.0244  0.0461  0.6713
  903MOL0     O24512   3.283  10.549   9.607 -0.7845 -0.5201  0.0543
  903MOL0     C24513   3.166  10.512   9.532 -0.4260  0.2652 -1.0055
  903MOL0     C24514   3.125  10.625   9.439  0.2387  0.0031 -0.2080
  903MOL0     C24515   3.072  10.744   9.512 -0.1259 -0.2500  0.2690
  903MOL0     C24516   2.966  10.712   9.627 -1.1443  1.0219 -0.7627
  903MOL0     C24517   2.890  10.833   9.675  0.6979  0.1735  0.0368
  903MOL0     C24518   2.986  10.944   9.722 -0.0280  0.0112 -0.4289
  903MOL0     C24519   2.921  11.082   9.747  0.0850  0.1917 -0.3588
  903MOL0     C24520   2.834  11.075   9.870  0.4129  0.2485  0.0992
  903MOL0    Cl24521   2.792  11.246   9.920  0.5212 -0.3982 -0.4738
  903MOL0     C24522   3.440  10.545   9.781 -0.5355 -0.0322 -0.1528
  903MOL0     C24523   3.500  10.485   9.891 -0.9710 -0.6376  1.1790
  903MOL0     O24524   3.319  10.336  10.145  0.3778 -0.2576  0.7141
  903MOL0     C24525   3.449  10.373  10.388 -0.0219  0.6284  0.6173
  903MOL0     C24526   3.510  10.362  10.514 -0.5373  0.1873  0.7166
  903MOL0     N24527   4.250  10.099  10.939  0.0371  0.8125 -0.9192
  903MOL0     N24528   4.319  10.026  11.026 -0.7340  0.2576  0.0563
  903MOL0     C24529   4.283   9.079  10.844 -0.0010 -0.2870  0.1807
  903MOL0     C24530   4.323   9.041  10.723 -0.0585  0.4813  0.2435
  903MOL0     C24531   4.299   8.974  10.266 -0.1079  0.1675  0.4088
  903MOL0     C24532   4.276   8.851  10.197  0.4159 -0.1702  0.0161
  903MOL0     C24533   4.327   8.826  10.069 -0.3744 -0.6621  0.1040
  903MOL0     C24534   4.406   8.926  10.003 -0.1353  0.4122 -0.5461
  903MOL0     O24535   4.450   8.907   9.875  0.4389 -0.0842  0.1989
  903MOL0     C24536   4.547   8.797   9.867 -0.1220 -0.7391  0.3638
  903MOL0     C24537   4.674   8.838   9.797  0.1914  0.0954 -0.2232
  903MOL0     C24538   4.728   8.963   9.874  0.1453  1.2476  0.5987
  903MOL0     C24539   4.841   9.039   9.807 -0.3756  1.4335  1.3396
  903MOL0     C24540   4.801   9.112   9.684 -0.0822 -0.6102 -0.1330
  903MOL0     C24541   4.771   9.183   9.588  0.7647 -0.1841  0.0155
  903MOL0     C24542   4.427   9.048  10.065 -0.4365  0.9945 -0.6697
  903MOL0     C24543   4.372   9.073  10.192  0.0339 -0.6067 -0.3681
  903MOL0     C24544   4.399   9.214  10.237 -0.2299 -0.5363 -0.3524
  903MOL0     H24545   4.127   9.220  10.525 -1.3506 -2.9286 -0.9028
  903MOL0     H24546   4.069   9.315  10.739  0.6771  1.0648  2.3032
  903MOL0     H24547   3.976   9.331  10.950  0.9290 -2.5093 -1.7124
  903MOL0     H24548   4.131   9.417  10.945  1.2908 -1.6244 -0.9992
  903MOL0     H24549   3.968   9.333  11.179  0.2621 -2.3184 -0.8532
  903MOL0     H24550   4.148   9.329  11.197 -0.9900  1.1126  2.7376
  903MOL0     H24551   4.174   9.562  11.142  1.2116 -0.4893  2.7452
  903MOL0     H24552   3.994   9.577  11.139  1.7242  1.3375  0.1298
  903MOL0     H24553   4.011   9.487  11.379 -0.7557 -2.6256 -1.6738
  903MOL0     H24554   4.183   9.501  11.360  2.4261  2.3767 -1.7160
  903MOL0     H24555   4.129   9.704  11.463  3.0443 -1.6640 -1.3668
  903MOL0     H24556   3.996   9.747  11.353  1.0247  1.3081 -1.9841
  903MOL0     H24557   4.276   9.717  11.250  0.1967  0.5580 -0.1798
  903MOL0     H24558   4.157   9.810  11.176 -0.9139 -1.5624  0.4606
  903MOL0     H24559   4.254   9.897  11.464 -0.0018 -3.4157  0.0463
  903MOL0     H24560   4.138   9.963  11.355  1.0423  1.4134 -3.5022
  903MOL0     H24561   4.360  10.086  11.345 -2.1371 -0.7169  0.2998
  903MOL0     H24562   4.434   9.951  11.270  2.7068  3.9634  0.9480
  903MOL0     H24563   4.108  10.164  11.238 -0.6670  0.0577 -0.3405
  903MOL0     H24564   4.073  10.339  10.941 -1.7938  2.2960  0.2235
  903MOL0     H24565   3.961  10.239  11.051  2.3816 -1.8376  1.4498
  903MOL0     H24566   4.045  10.212  10.770  0.7785 -0.5958 -0.0087
  903MOL0     H24567   3.967  10.082  10.856  1.7293  0.1362 -1.0442
  903MOL0     H24568   3.778  10.260  10.915  0.5725  3.0258  0.3535
  903MOL0     H24569   3.867  10.376  10.822  0.0009  0.6577  1.5264
  903MOL0     H24570   3.874  10.238  10.628 -0.2431 -1.7667  0.6195
  903MOL0     H24571   3.769  10.117  10.705 -0.7071  0.3113  3.5652
  903MOL0     H24572   3.729  10.106  10.466 -0.8213 -1.1919  0.4834
  903MOL0     H24573   3.708  10.152  10.126  0.5192 -1.4750 -0.7759
  903MOL0     H24574   3.563  10.047  10.151  0.7461 -0.2168 -0.4756
  903MOL0     H24575   3.716  10.026  10.248  1.4234  0.1868 -0.1566
  903MOL0     H24576   3.370  10.181   9.867 -3.8043 -2.2518 -4.1229
  903MOL0     H24577   3.268  10.289   9.656 -1.7088  2.9062  0.0312
  903MOL0     H24578   3.199  10.430   9.467 -1.6491 -1.2160  0.1751
  903MOL0     H24579   3.083  10.487   9.598  0.3677  1.4393  0.5169
  903MOL0     H24580   3.205  10.655   9.371  0.0535  1.5999  0.2356
  903MOL0     H24581   3.049  10.571   9.382 -1.0880 -0.9801  2.3438
  903MOL0     H24582   3.030  10.818   9.443  1.8176  1.6256  0.9378
  903MOL0     H24583   3.165  10.792   9.546  2.4528 -0.2370 -5.5727
  903MOL0     H24584   3.020  10.662   9.708 -1.3424  1.6214 -0.2549
  903MOL0     H24585   2.892  10.637   9.597 -0.1420 -1.3138  2.0610
  903MOL0     H24586   2.819  10.875   9.604 -1.6165  0.1095  2.1702
  903MOL0     H24587   2.832  10.794   9.760  0.1779 -0.2396 -0.4977
  903MOL0     H24588   3.062  10.960   9.645  0.2129 -0.0181 -0.1953
  903MOL0     H24589   3.037  10.918   9.815 -0.0365 -1.7579 -0.8762
  903MOL0     H24590   2.872  11.113   9.654  0.7276 -1.3822 -1.2538
  903MOL0     H24591   2.993  11.163   9.762 -1.0923  1.1601  0.3203
  903MOL0     H24592   2.891  11.023   9.947  1.3502 -0.2292 -0.8915
  903MOL0     H24593   2.738  11.025   9.857  0.4182  0.7555 -2.4133
  903MOL0     H24594   3.460  10.646   9.749  0.1369  0.5669  1.9955
  903MOL0     H24595   3.573  10.538   9.951  0.7499  0.7684 -1.9041
  903MOL0     H24596   3.366  10.443  10.387  1.3656  2.4471  3.1375
  903MOL0     H24597   3.481  10.428  10.595  1.2333  1.3501  0.4486
  903MOL0     H24598   4.337   9.039  10.930  0.1802  1.3638  0.8831
  903MOL0     H24599   4.417   8.987  10.716  2.7847  4.3810  3.3379
  903MOL0     H24600   4.216   8.767  10.232 -1.0902  0.8880  0.0945
  903MOL0     H24601   4.301   8.738  10.011  0.5127 -0.9137  0.0696
  903MOL0     H24602   4.568   8.758   9.968 -2.2686 -0.3864  0.9893
  903MOL0     H24603   4.487   8.724   9.814  0.0945 -2.6639  2.6162
  903MOL0     H24604   4.647   8.862   9.694  0.3565 -1.2366 -0.5874
  903MOL0     H24605   4.754   8.763   9.796  1.5291  1.3938  1.3477
  903MOL0     H24606   4.644   9.033   9.875  0.2100  1.3381  2.1531
  903MOL0     H24607   4.765   8.928   9.970 -0.8005 -2.3997 -0.2082
  903MOL0     H24608   4.902   8.958   9.765 -4.4806 -0.8021 -0.9510
  903MOL0     H24609   4.882   9.114   9.874  1.8265 -0.3852  2.1765
  903MOL0     H24610   4.737   9.232   9.499 -0.3071 -2.4804 -0.9226
  903MOL0     H24611   4.484   9.110   9.997  0.2856 -0.7169 -1.7036
  903MOL0     H24612   4.310   9.267  10.273  0.6337 -0.2160  1.3917
  903MOL0     H24613   4.486   9.220  10.303 -0.3723 -0.4051 -0.1754
  903MOL0     H24614   4.414   9.274  10.147 -1.5680  0.4192  0.0186
  904MOL0     O24615  10.254  10.276   3.135 -0.2482  0.0506  0.7592
  904MOL0     C24616  10.259  10.174   3.064 -1.3937 -0.2650 -0.4151
  904MOL0     O24617  10.318  10.055   3.103 -0.4381 -0.0323 -0.0674
  904MOL0     C24618  10.368  10.046   3.235  0.2298  0.1671  0.2954
  904MOL0     C24619  10.474  10.121   3.282 -0.6898  0.2303  0.7943
  904MOL0     C24620  10.538  10.092   3.403 -0.1872  0.0695  0.4273
  904MOL0     C24621  10.489   9.992   3.487  0.2133  0.7024 -0.1077
  904MOL0     O24622  10.565   9.985   3.595 -0.2696  0.0416 -0.4512
  904MOL0     C24623  10.529   9.885   3.697  0.3614  0.0664  0.4445
  904MOL0     C24624  10.414   9.937   3.780  0.1586 -0.4543  0.0482
  904MOL0     C24625  10.388   9.865   3.909 -0.9596 -0.1886 -0.4312
  904MOL0     C24626  10.292   9.963   3.984  0.7819 -1.1108 -0.6827
  904MOL0     C24627  10.255   9.908   4.127 -0.2089 -0.1580 -0.8960
  904MOL0     C24628  10.180  10.000   4.219  0.8932 -0.6773 -0.2500
  904MOL0     C24629  10.111   9.940   4.345  0.0010  0.1137  0.1797
  904MOL0     C24630  10.178   9.833   4.421 -0.7451  0.0461 -0.6042
  904MOL0     N24631  10.121   9.832   4.556 -0.9031  0.8680 -0.1684
  904MOL0     C24632   9.999   9.780   4.585 -0.0597  0.7953 -0.7885
  904MOL0     C24633  10.001   9.767   4.717  0.7259 -0.2490 -0.7799
  904MOL0     C24634   9.899   9.690   4.800  0.0678 -0.2031  0.3610
  904MOL0     C24635   9.778   9.645   4.721 -0.7083  0.5676  0.4453
  904MOL0     C24636   9.793   9.512   4.644  0.3245  0.1560 -0.0998
  904MOL0     C24637   9.669   9.481   4.559 -0.6824  0.2987 -0.3541
  904MOL0     O24638   9.663   9.582   4.465  0.0704  0.1709 -0.0448
  904MOL0     C24639   9.583   9.551   4.349  0.0376  0.0572  0.5449
  904MOL0     C24640   9.622   9.614   4.227 -0.5446  0.1326 -0.2708
  904MOL0     C24641   9.550   9.595   4.103  0.1350  0.7815  0.9071
  904MOL0     C24642   9.576   9.680   3.982 -0.5403 -0.1592 -0.3178
  904MOL0     C24643   9.453   9.486   4.098  0.3260 -0.4384 -0.6572
  904MOL0     C24644   9.391   9.440   3.974 -0.8600 -0.1324 -0.0885
  904MOL0     O24645   9.260   9.428   3.987  0.1842  0.5742  0.7234
  904MOL0     C24646   9.185   9.435   3.878 -0.2235  0.2481  0.3847
  904MOL0     C24647   9.196   9.544   3.785  0.0553  0.9858  0.5742
  904MOL0     C24648   9.108   9.538   3.671  0.6749  0.2378 -0.4338
  904MOL0     C24649   9.015   9.434   3.644  0.7736  0.1349 -0.2306
  904MOL0     O24650   8.929   9.446   3.540 -1.3048  0.9103 -0.0275
  904MOL0     C24651   8.981   9.499   3.421 -0.4780 -0.1303  0.2707
  904MOL0     C24652   8.894   9.630   3.387 -0.6135  0.3410 -0.5306
  904MOL0     C24653   8.933   9.672   3.248 -0.4539  0.9099 -0.3453
  904MOL0     C24654   9.077   9.738   3.235 -0.4793  0.8588  0.2124
  904MOL0     C24655   9.106   9.816   3.110  0.1988 -0.0904 -0.7763
  904MOL0     C24656   9.020   9.941   3.078 -0.3992 -0.0271  0.5183
  904MOL0     C24657   9.100  10.058   3.016 -0.8483 -0.3523 -0.0274
  904MOL0     C24658   9.186  10.140   3.108  0.2870  1.0981  0.4013
  904MOL0    Cl24659   9.082  10.231   3.223 -0.8042 -0.0009 -0.6519
  904MOL0     C24660   9.002   9.337   3.741 -1.1155  0.2410  0.7271
  904MOL0     C24661   9.087   9.332   3.851  0.3003  0.3376  0.0678
  904MOL0     O24662   9.461   9.442   3.868  0.0960  0.0239  0.1723
  904MOL0     C24663   9.415   9.424   4.214 -0.3639  0.2725  0.3388
  904MOL0     C24664   9.477   9.453   4.345 -0.7618  0.3861 -0.0976
  904MOL0     N24665  10.104   9.837   4.777  0.3706 -0.8099  0.3642
  904MOL0     N24666  10.182   9.867   4.671  0.1787  0.5419 -0.1263
  904MOL0     C24667  10.385   9.909   3.443 -0.1216  0.0540  0.7066
  904MOL0     C24668  10.325   9.941   3.311  0.2791 -0.1106 -0.6902
  904MOL0     C24669  10.212  10.187   2.923  0.2822  0.0318 -0.0511
  904MOL0     C24670  10.226  10.075   2.838  0.2410 -0.4559 -0.2009
  904MOL0     C24671  10.172  10.067   2.709 -0.5343 -0.5123 -0.0318
  904MOL0     C24672  10.115  10.184   2.649 -0.3455 -0.5243 -0.0212
  904MOL0     O24673  10.082  10.175   2.519 -0.6492  0.6263 -1.3869
  904MOL0     C24674  10.083  10.291   2.432 -0.1271 -0.5826  0.2957
  904MOL0     C24675   9.936  10.346   2.412  0.5810  0.9406  0.4327
  904MOL0     C24676   9.906  10.449   2.294  0.2627  0.4366 -0.4317
  904MOL0     C24677   9.878  10.384   2.156  0.0176 -0.3977 -0.4545
  904MOL0     C24678   9.743  10.328   2.152 -0.2455  0.0609  0.2007
  904MOL0     C24679   9.622  10.310   2.141  0.2761 -0.6428 -0.0269
  904MOL0     C24680  10.111  10.296   2.726  0.1862  0.1554 -1.1411
  904MOL0     C24681  10.151  10.303   2.860  0.1783  0.5452 -0.6611
  904MOL0     C24682  10.114  10.426   2.931 -0.2496  0.1596  0.6120
  904MOL0     H24683  10.492  10.213   3.228 -0.5365  0.2141  0.8192
  904MOL0     H24684  10.613  10.162   3.439 -1.6834  1.6188  0.6517
  904MOL0     H24685  10.620   9.869   3.755  1.6293  0.1009 -1.4236
  904MOL0     H24686  10.512   9.783   3.662  1.0841  0.5639 -1.5261
  904MOL0     H24687  10.440  10.038   3.811 -1.7520 -0.9501  3.9187
  904MOL0     H24688  10.318   9.947   3.727  0.1700  0.2681  0.1598
  904MOL0     H24689  10.340   9.767   3.900  0.8870 -1.3404  1.2643
  904MOL0     H24690  10.476   9.861   3.975 -2.5265  2.5935  2.1130
  904MOL0     H24691  10.330  10.064   4.000 -1.2945 -0.5226  0.8817
  904MOL0     H24692  10.201   9.964   3.923  0.7702 -0.3480 -0.6515
  904MOL0     H24693  10.342   9.850   4.159  0.1555 -0.3570 -2.1921
  904MOL0     H24694  10.198   9.816   4.107  0.4739 -0.9194  0.5037
  904MOL0     H24695  10.236  10.090   4.247 -0.2730 -0.2928  0.9421
  904MOL0     H24696  10.096  10.038   4.160 -1.1008 -1.9063  1.6597
  904MOL0     H24697  10.013   9.903   4.313 -0.1299  0.6020  0.0122
  904MOL0     H24698  10.092  10.025   4.411 -4.0726  1.0054 -1.8697
  904MOL0     H24699  10.161   9.738   4.369  0.0837 -0.7976  0.5833
  904MOL0     H24700  10.284   9.851   4.441 -0.8548  2.3331 -1.8483
  904MOL0     H24701   9.926   9.738   4.516  0.2163  0.5359 -0.9296
  904MOL0     H24702   9.861   9.746   4.886  0.5086  1.2717 -0.3730
  904MOL0     H24703   9.954   9.605   4.841 -0.6355 -0.3536  1.0138
  904MOL0     H24704   9.712   9.624   4.806  3.7530 -2.9947  3.5263
  904MOL0     H24705   9.756   9.730   4.656  1.8862 -0.5332 -2.0876
  904MOL0     H24706   9.883   9.524   4.583 -0.5160  0.2076 -1.3665
  904MOL0     H24707   9.809   9.431   4.717 -0.6967 -1.9970 -2.1160
  904MOL0     H24708   9.688   9.385   4.509  0.6518  0.0615  0.5410
  904MOL0     H24709   9.590   9.482   4.635 -1.1568  0.9398 -0.8524
  904MOL0     H24710   9.697   9.693   4.228 -0.4668  0.2822  4.1915
  904MOL0     H24711   9.486   9.715   3.930 -1.2121 -0.9005  0.3186
  904MOL0     H24712   9.640   9.626   3.912 -0.4646  2.3754 -2.3476
  904MOL0     H24713   9.630   9.769   4.014  2.3636 -1.9159  0.0412
  904MOL0     H24714   9.277   9.611   3.810  1.2419  0.2368 -1.0523
  904MOL0     H24715   9.115   9.624   3.605 -4.4011  0.8942 -0.5295
  904MOL0     H24716   9.080   9.543   3.437 -0.8766  0.6949  0.5171
  904MOL0     H24717   8.982   9.430   3.336 -1.0822 -0.9788  0.9222
  904MOL0     H24718   8.790   9.610   3.414 -0.2389  0.0091  0.7180
  904MOL0     H24719   8.930   9.711   3.451  1.2116 -0.0203 -1.0460
  904MOL0     H24720   8.863   9.748   3.213 -1.5718 -0.2419 -0.7066
  904MOL0     H24721   8.928   9.591   3.174 -2.3816 -2.0534  2.7530
  904MOL0     H24722   9.159   9.665   3.235 -0.8144  0.4289 -1.6462
  904MOL0     H24723   9.080   9.802   3.324 -0.8292 -0.8526  1.5150
  904MOL0     H24724   9.208   9.855   3.111  0.7710 -1.4984  1.1073
  904MOL0     H24725   9.102   9.740   3.031 -4.1012  0.2526 -1.1512
  904MOL0     H24726   8.971   9.977   3.168  1.2773  1.4164  0.9079
  904MOL0     H24727   8.938   9.915   3.010  0.0190  0.2215 -0.0958
  904MOL0     H24728   9.021  10.122   2.976  0.5483  1.6611  0.3032
  904MOL0     H24729   9.160  10.031   2.929 -0.0160  1.8209 -0.1962
  904MOL0     H24730   9.246  10.212   3.053  2.8481  0.5237  2.2340
  904MOL0     H24731   9.258  10.075   3.160  1.5646  0.5529 -1.9151
  904MOL0     H24732   8.948   9.249   3.706  2.3584 -1.0529 -1.9366
  904MOL0     H24733   9.074   9.248   3.919 -0.9177  0.4440 -0.0216
  904MOL0     H24734   9.339   9.347   4.223  0.0962 -0.2883 -0.4599
  904MOL0     H24735   9.456   9.397   4.435  2.7859 -1.2723 -0.1173
  904MOL0     H24736  10.337   9.824   3.492 -2.2300 -0.3192 -1.7245
  904MOL0     H24737  10.257   9.874   3.259 -1.5309  0.0693  1.2811
  904MOL0     H24738  10.251   9.978   2.880 -0.3834 -0.7088 -0.3898
  904MOL0     H24739  10.177   9.972   2.656  0.8416  0.2587 -1.3760
  904MOL0     H24740  10.148  10.369   2.474  0.9993 -1.8891  1.0497
  904MOL0     H24741  10.119  10.276   2.330 -0.0379 -1.5736  0.4655
  904MOL0     H24742   9.906  10.398   2.504  1.1516  0.8049  0.6978
  904MOL0     H24743   9.863  10.265   2.402 -0.1093  1.0942  3.2575
  904MOL0     H24744   9.821  10.514   2.318  1.9927  2.2883  1.1170
  904MOL0     H24745   9.989  10.520   2.286  0.3515  0.0756 -5.1735
  904MOL0     H24746   9.948  10.304   2.130 -1.7318 -1.8465 -0.9112
  904MOL0     H24747   9.890  10.460   2.078 -1.0823 -1.5757 -1.8255
  904MOL0     H24748   9.520  10.276   2.140 -1.0186  2.3056  3.9584
  904MOL0     H24749  10.058  10.384   2.691  0.0592  0.9544  0.9319
  904MOL0     H24750  10.027  10.475   2.888 -0.2856  0.8499  1.4379
  904MOL0     H24751  10.092  10.405   3.036  1.9547  0.2668  1.1371
  904MOL0     H24752  10.200  10.493   2.919  0.2252 -0.3249  1.2310
  905MOL0     O24753   1.322   5.356   6.857 -0.4451  0.4479 -0.2387
  905MOL0     C24754   1.438   5.349   6.869 -0.5103  0.4447 -0.9512
  905MOL0     O24755   1.515   5.396   6.973 -0.8765  0.1578  0.4642
  905MOL0     C24756   1.455   5.417   7.095 -0.7178  0.5518 -0.1048
  905MOL0     C24757   1.482   5.328   7.204  0.0659 -0.6497  0.9560
  905MOL0     C24758   1.431   5.358   7.332 -0.5874 -0.7379  0.4520
  905MOL0     C24759   1.357   5.478   7.361  0.4232  1.1978  0.3544
  905MOL0     O24760   1.311   5.517   7.489 -0.2521 -0.6750 -0.0639
  905MOL0     C24761   1.391   5.472   7.606  0.3368  0.1991  0.1717
  905MOL0     C24762   1.282   5.454   7.712 -0.0365  0.0767  0.5192
  905MOL0     C24763   1.182   5.354   7.661  0.5425 -0.0971 -0.6163
  905MOL0     C24764   1.074   5.326   7.768  0.1419  1.0146  0.1572
  905MOL0     C24765   0.992   5.194   7.735  0.1213  0.8129 -0.3277
  905MOL0     C24766   0.917   5.212   7.609 -0.5739  0.3072  0.9099
  905MOL0     C24767   0.839   5.089   7.577 -1.3735  1.0071 -0.1748
  905MOL0     C24768   0.708   5.060   7.655  0.9288 -0.1652 -0.6489
  905MOL0     N24769   0.646   4.932   7.617 -0.0029  0.3783  0.8703
  905MOL0     C24770   0.535   4.912   7.540  0.0865 -1.0453  0.6281
  905MOL0     C24771   0.520   4.776   7.535  0.1559  0.1713  0.0501
  905MOL0     C24772   0.438   4.698   7.435  0.7939  0.1516 -0.1664
  905MOL0     C24773   0.515   4.701   7.307 -0.8193  0.8804 -0.0860
  905MOL0     C24774   0.413   4.667   7.189  0.3215 -0.7886 -0.5331
  905MOL0     C24775   0.459   4.704   7.048  0.2286  0.5445  0.1162
  905MOL0     O24776   0.352   4.710   6.957  0.4494  0.3892  0.2292
  905MOL0     C24777   0.378   4.672   6.825 -0.1773 -0.6687 -0.1129
  905MOL0     C24778   0.494   4.699   6.753  0.1808  0.0213 -1.9111
  905MOL0     C24779   0.504   4.690   6.617 -1.0615 -0.6885  0.2518
  905MOL0     C24780   0.633   4.734   6.542 -0.5418 -1.3951  0.1319
  905MOL0     C24781   0.396   4.639   6.548 -1.0057 -0.5789  1.1395
  905MOL0     C24782   0.390   4.641   6.388 -0.5625 -0.3364 -1.5063
  905MOL0     O24783   0.276   4.652   6.329  0.1887  0.0662 -0.5549
  905MOL0     C24784   0.257   4.635   6.195  0.8466 -0.1705 -0.1664
  905MOL0     C24785   0.243   4.740   6.105  0.5353  0.2321 -0.0455
  905MOL0     C24786   0.212   4.725   5.970  0.0306 -0.5277  0.1118
  905MOL0     C24787   0.218   4.594   5.922 -0.1072 -0.6462 -0.1848
  905MOL0     O24788   0.190   4.583   5.785  0.6854 -0.5771 -0.4123
  905MOL0     C24789   0.305   4.549   5.711  0.5540 -0.6391  0.5810
  905MOL0     C24790   0.277   4.570   5.560 -0.1151 -0.0424  0.0430
  905MOL0     C24791   0.225   4.709   5.504  0.3588 -0.2182  0.0334
  905MOL0     C24792   0.184   4.707   5.363 -0.8243 -0.4700 -0.8111
  905MOL0     C24793   0.170   4.849   5.328 -0.5579 -0.2849  0.2441
  905MOL0     C24794   0.128   4.874   5.188  0.6271  0.2392 -0.1270
  905MOL0     C24795   0.222   4.802   5.088  0.0402  1.1630 -0.3056
  905MOL0     C24796   0.176   4.851   4.953 -0.4337  0.5075  0.2878
  905MOL0    Cl24797   0.007   4.808   4.906 -0.6715  0.3626 -0.9765
  905MOL0     C24798   0.204   4.485   6.015 -0.8582  0.1990  0.1832
  905MOL0     C24799   0.236   4.507   6.149  0.7688 -0.7117  0.0847
  905MOL0     O24800   0.500   4.639   6.325  1.1167 -0.4541 -0.1131
  905MOL0     C24801   0.286   4.605   6.611 -0.7024  1.0524 -0.4070
  905MOL0     C24802   0.270   4.621   6.752 -0.5380 -0.0949  0.0483
  905MOL0     N24803   0.597   4.726   7.635  0.1425  0.0937  0.1586
  905MOL0     N24804   0.665   4.817   7.691  0.5376 -0.2836 -0.8880
  905MOL0     C24805   1.329   5.555   7.256  0.4031 -0.6021  1.0065
  905MOL0     C24806   1.376   5.530   7.123 -0.1946  0.1603  0.3410
  905MOL0     C24807   1.511   5.274   6.754 -0.3578 -0.0352  0.1709
  905MOL0     C24808   1.644   5.231   6.775  0.2339 -0.8035 -0.4021
  905MOL0     C24809   1.709   5.166   6.672 -0.1269 -0.2261 -0.3353
  905MOL0     C24810   1.654   5.134   6.551  0.4244  0.5748  0.1638
  905MOL0     O24811   1.735   5.074   6.459 -0.0172 -0.8805  0.1248
  905MOL0     C24812   1.703   5.079   6.320 -0.3955 -0.8314  0.0746
  905MOL0     C24813   1.630   4.946   6.282  0.1373 -0.0837  0.6389
  905MOL0     C24814   1.632   4.898   6.133 -0.1781 -0.5395  0.2631
  905MOL0     C24815   1.582   4.761   6.108  0.7109  0.6268  0.5271
  905MOL0     C24816   1.652   4.649   6.169  0.5748 -0.0683 -0.2426
  905MOL0     C24817   1.694   4.562   6.244 -0.6832 -0.3652 -0.2782
  905MOL0     C24818   1.525   5.174   6.527 -0.6070  0.4614  0.7480
  905MOL0     C24819   1.459   5.250   6.618 -0.0692  0.5365 -0.0285
  905MOL0     C24820   1.326   5.302   6.583 -0.4552  0.7399 -0.0045
  905MOL0     H24821   1.548   5.250   7.168  0.6939  1.1033 -1.9568
  905MOL0     H24822   1.456   5.283   7.407 -1.5279 -3.1871 -1.5625
  905MOL0     H24823   1.458   5.542   7.657  0.1159 -0.5628  1.5784
  905MOL0     H24824   1.444   5.377   7.594  3.7036  1.4554  3.1017
  905MOL0     H24825   1.323   5.409   7.803  1.8161  1.5172  0.4539
  905MOL0     H24826   1.238   5.553   7.727 -0.2863 -0.4778  4.7106
  905MOL0     H24827   1.129   5.396   7.575  0.2618  3.8204  1.2352
  905MOL0     H24828   1.232   5.262   7.631 -0.9723 -1.0194 -0.4199
  905MOL0     H24829   1.124   5.309   7.864  0.7678  1.9991  0.0192
  905MOL0     H24830   1.010   5.414   7.771 -1.1643  0.2427 -2.2358
  905MOL0     H24831   0.927   5.164   7.818 -0.7859 -0.3714 -1.4284
  905MOL0     H24832   1.057   5.109   7.716  2.1175  1.9393  1.1099
  905MOL0     H24833   0.837   5.286   7.616 -0.5918  0.1845  2.1047
  905MOL0     H24834   0.985   5.227   7.524 -3.1264  1.9458 -0.9899
  905MOL0     H24835   0.905   5.003   7.568 -1.6429  0.9448 -1.8315
  905MOL0     H24836   0.808   5.105   7.474 -2.0633  2.2961  0.2044
  905MOL0     H24837   0.727   5.069   7.762 -2.5210  1.1558 -0.0154
  905MOL0     H24838   0.638   5.143   7.645  3.3703  2.1969  0.6121
  905MOL0     H24839   0.489   4.987   7.477  0.7497 -0.3961  0.8951
  905MOL0     H24840   0.339   4.743   7.430  0.3869 -0.8975 -3.2242
  905MOL0     H24841   0.414   4.595   7.465 -1.3807  0.1087 -1.8050
  905MOL0     H24842   0.562   4.798   7.289 -1.5148  1.4928  1.2419
  905MOL0     H24843   0.591   4.622   7.311 -0.6329  1.0788  0.3302
  905MOL0     H24844   0.413   4.558   7.181 -4.0181 -0.9375 -1.2932
  905MOL0     H24845   0.310   4.703   7.199 -0.3624 -1.9365 -2.7244
  905MOL0     H24846   0.498   4.806   7.050 -1.5266  1.6087 -5.1689
  905MOL0     H24847   0.539   4.634   7.023  0.8406  1.2057  0.1834
  905MOL0     H24848   0.573   4.752   6.806  2.4367 -5.4213  0.8677
  905MOL0     H24849   0.705   4.789   6.604 -0.8934 -0.6335 -0.1244
  905MOL0     H24850   0.614   4.812   6.467  2.6048  0.5328  1.1522
  905MOL0     H24851   0.695   4.656   6.497 -0.5097 -1.7656  0.8073
  905MOL0     H24852   0.244   4.847   6.121 -1.3926  0.5607 -1.6482
  905MOL0     H24853   0.194   4.807   5.901 -2.3384  1.0562  2.4126
  905MOL0     H24854   0.382   4.624   5.733 -1.0711  2.0392 -1.9273
  905MOL0     H24855   0.337   4.446   5.722 -1.0232 -1.3611 -0.9735
  905MOL0     H24856   0.364   4.533   5.505 -0.1549 -1.8156  1.0841
  905MOL0     H24857   0.204   4.490   5.540  1.7538 -1.6544 -0.6631
  905MOL0     H24858   0.323   4.757   5.514  1.5100 -2.5036  0.6233
  905MOL0     H24859   0.145   4.766   5.552  0.0109  1.4411 -2.3623
  905MOL0     H24860   0.097   4.642   5.349  0.1063 -1.8671 -0.2993
  905MOL0     H24861   0.259   4.649   5.308 -1.5536 -0.1358 -2.2241
  905MOL0     H24862   0.085   4.885   5.387  0.5822  0.3417  1.5830
  905MOL0     H24863   0.256   4.913   5.352 -0.2890 -0.4143 -0.3509
  905MOL0     H24864   0.132   4.981   5.164  2.1106  0.0663 -0.7556
  905MOL0     H24865   0.024   4.846   5.172  0.8116  0.3239 -1.6062
  905MOL0     H24866   0.205   4.694   5.096 -0.0881  1.1048 -1.3093
  905MOL0     H24867   0.328   4.810   5.114  0.0593 -0.9101  0.4347
  905MOL0     H24868   0.240   4.809   4.874  0.5790  0.5672  1.0622
  905MOL0     H24869   0.187   4.959   4.961  1.4790  0.4114 -0.4274
  905MOL0     H24870   0.187   4.384   5.979  2.4655 -0.6756  0.7976
  905MOL0     H24871   0.240   4.427   6.222 -1.5883 -0.6398  0.3792
  905MOL0     H24872   0.206   4.579   6.541  0.9660  0.2064 -2.1065
  905MOL0     H24873   0.182   4.585   6.802 -1.3390  1.5045 -0.1497
  905MOL0     H24874   1.280   5.650   7.273  1.1444 -0.1228  0.4979
  905MOL0     H24875   1.358   5.603   7.046  1.7326  0.1587 -0.1641
  905MOL0     H24876   1.694   5.236   6.870 -1.7223  1.2121  0.6239
  905MOL0     H24877   1.814   5.138   6.674 -0.0266  0.1537  0.0012
  905MOL0     H24878   1.632   5.157   6.292 -0.4110 -1.5882 -2.1731
  905MOL0     H24879   1.799   5.082   6.267 -0.7124 -3.8573 -0.8434
  905MOL0     H24880   1.529   4.947   6.322 -0.0737 -5.1630  0.8970
  905MOL0     H24881   1.691   4.869   6.331  2.5511 -0.0678 -2.0255
  905MOL0     H24882   1.578   4.969   6.071  2.0861  0.1448 -1.0579
  905MOL0     H24883   1.734   4.892   6.093  0.1789  1.1449  0.8645
  905MOL0     H24884   1.578   4.743   6.000  2.7531 -1.1579  0.6906
  905MOL0     H24885   1.477   4.765   6.139  1.7503 -0.0432  4.6776
  905MOL0     H24886   1.735   4.500   6.321 -0.5385  0.8975  0.6878
  905MOL0     H24887   1.468   5.142   6.440  0.0752  1.8851 -0.2671
  905MOL0     H24888   1.252   5.251   6.646  0.0253  2.3099  1.9118
  905MOL0     H24889   1.330   5.410   6.600 -0.4451  0.8351 -0.5914
  905MOL0     H24890   1.303   5.279   6.478 -0.1084  1.2621 -0.1998
  906MOL0     O24891   7.702   7.089   5.064 -0.0189  0.2162 -1.0563
  906MOL0     C24892   7.823   7.086   5.076 -0.0473 -0.8170  0.1405
  906MOL0     O24893   7.913   7.188   5.054  0.2447 -0.6313 -0.4918
  906MOL0     C24894   7.864   7.305   4.989  0.3073 -0.0962  0.1670
  906MOL0     C24895   7.804   7.404   5.063  0.4158 -0.0197  0.2622
  906MOL0     C24896   7.748   7.515   5.002 -0.8923 -1.1461  0.4771
  906MOL0     C24897   7.757   7.539   4.859 -0.3337 -0.1686  0.9386
  906MOL0     O24898   7.709   7.654   4.803 -0.9828 -0.6747 -0.8059
  906MOL0     C24899   7.731   7.680   4.667  0.8432 -0.2641  0.0210
  906MOL0     C24900   7.877   7.729   4.641 -0.6242 -0.1393  0.1009
  906MOL0     C24901   7.898   7.750   4.494  0.0889 -0.1142 -0.6187
  906MOL0     C24902   8.035   7.823   4.478  0.1585 -0.3673 -0.2215
  906MOL0     C24903   8.038   7.865   4.327 -0.3648  0.0680 -0.6958
  906MOL0     C24904   8.041   7.745   4.231  0.0658 -0.6466 -0.1797
  906MOL0     C24905   8.159   7.652   4.266  0.0169  0.2647  1.1759
  906MOL0     C24906   8.212   7.542   4.159  0.9665 -0.3890 -0.9243
  906MOL0     N24907   8.118   7.426   4.136 -0.1156  0.1085  0.4421
  906MOL0     C24908   8.015   7.421   4.041 -0.1975  1.0926  0.1157
  906MOL0     C24909   7.953   7.305   4.071 -0.3753  1.1034  0.4659
  906MOL0     C24910   7.823   7.278   3.999 -0.9972 -0.7430 -0.3109
  906MOL0     C24911   7.784   7.371   3.882 -0.4632  0.7480 -0.4848
  906MOL0     C24912   7.644   7.338   3.857 -0.5585  1.0573 -0.0394
  906MOL0     C24913   7.576   7.426   3.754  0.2355 -0.4830  0.4598
  906MOL0     O24914   7.572   7.567   3.790  0.0037  0.4174 -1.0852
  906MOL0     C24915   7.487   7.638   3.710 -0.8608  0.2995 -0.3541
  906MOL0     C24916   7.433   7.593   3.585  0.5192 -0.0946  1.4671
  906MOL0     C24917   7.350   7.682   3.506 -0.5319 -0.2097  1.0749
  906MOL0     C24918   7.323   7.646   3.362 -0.1460 -0.7517 -0.5986
  906MOL0     C24919   7.299   7.800   3.567  0.8564 -0.3210 -0.3447
  906MOL0     C24920   7.193   7.892   3.523  0.1851  0.3325  0.0571
  906MOL0     O24921   7.121   7.856   3.411 -0.0979  0.7049 -0.4990
  906MOL0     C24922   6.996   7.813   3.429  1.1186  0.6368  0.0212
  906MOL0     C24923   6.885   7.888   3.478 -0.4244 -0.6110 -0.8042
  906MOL0     C24924   6.762   7.829   3.502  0.1133 -0.1199 -0.4312
  906MOL0     C24925   6.730   7.704   3.450  0.3843  0.2057 -0.2553
  906MOL0     O24926   6.602   7.650   3.452  0.6940 -0.5085 -0.0887
  906MOL0     C24927   6.480   7.736   3.461 -0.2551  0.8840 -0.6777
  906MOL0     C24928   6.365   7.645   3.461  0.3126  0.6938 -0.1928
  906MOL0     C24929   6.228   7.698   3.467  0.0727 -0.1209 -0.6778
  906MOL0     C24930   6.126   7.588   3.420 -1.7073  1.1669  0.4327
  906MOL0     C24931   5.984   7.640   3.443 -0.7880 -0.0761 -0.4384
  906MOL0     C24932   5.923   7.694   3.316  0.5220 -0.6563 -0.2479
  906MOL0     C24933   5.957   7.843   3.290  0.2629 -0.4740  0.4378
  906MOL0     C24934   5.851   7.923   3.205  0.3998 -0.5671  0.1617
  906MOL0    Cl24935   5.845   7.854   3.043  0.2864 -0.1053  0.2574
  906MOL0     C24936   6.832   7.632   3.382 -0.3224 -0.6981 -0.2492
  906MOL0     C24937   6.963   7.688   3.379  0.1507 -0.0230 -0.8953
  906MOL0     O24938   7.161   7.972   3.610  0.3229 -0.5793  0.5990
  906MOL0     C24939   7.363   7.841   3.685  0.0570 -0.0809  0.2392
  906MOL0     C24940   7.456   7.764   3.757  0.3456 -0.8154  0.2703
  906MOL0     N24941   8.005   7.250   4.185  0.2125 -0.4489 -0.3443
  906MOL0     N24942   8.108   7.323   4.221  0.1370 -0.7363  0.8622
  906MOL0     C24943   7.824   7.436   4.785 -0.5352 -0.2586 -1.3791
  906MOL0     C24944   7.870   7.316   4.851 -0.8387 -0.0621  0.3020
  906MOL0     C24945   7.880   6.958   5.142 -1.0055 -1.0915  0.3985
  906MOL0     C24946   8.013   6.921   5.122 -0.2801 -0.0088  0.9210
  906MOL0     C24947   8.078   6.811   5.184 -0.3133  0.4866 -1.0735
  906MOL0     C24948   8.013   6.729   5.270  0.2864  0.4436  0.9268
  906MOL0     O24949   8.074   6.619   5.321 -0.1504  0.1760 -1.0715
  906MOL0     C24950   8.185   6.642   5.405 -0.0686 -0.4468 -0.9660
  906MOL0     C24951   8.203   6.522   5.500 -1.4091 -0.3366 -1.3344
  906MOL0     C24952   8.245   6.405   5.423  0.4790 -0.1146  0.7091
  906MOL0     C24953   8.254   6.274   5.492  0.2250 -0.5035 -0.3210
  906MOL0     C24954   8.358   6.264   5.595  0.6575  0.5435  0.3080
  906MOL0     C24955   8.432   6.260   5.697 -0.0278 -0.4720 -0.6186
  906MOL0     C24956   7.873   6.752   5.288  0.6630  0.4972  0.7093
  906MOL0     C24957   7.808   6.865   5.213 -0.3053  0.2271  0.1585
  906MOL0     C24958   7.659   6.869   5.229  0.6627 -0.1197 -0.3494
  906MOL0     H24959   7.785   7.399   5.170  0.0247 -3.1845  0.1584
  906MOL0     H24960   7.695   7.601   5.042  1.3727  1.1957 -1.2469
  906MOL0     H24961   7.663   7.762   4.639 -0.9663 -0.3306  3.6961
  906MOL0     H24962   7.712   7.594   4.603  2.7103 -0.5154 -0.2329
  906MOL0     H24963   7.894   7.817   4.703 -2.6605  1.8881 -1.9812
  906MOL0     H24964   7.935   7.642   4.671 -1.4200 -0.1047  1.8373
  906MOL0     H24965   7.880   7.660   4.434 -1.3684 -1.2830  1.4272
  906MOL0     H24966   7.814   7.814   4.465 -0.7405 -0.5210  0.7832
  906MOL0     H24967   8.035   7.915   4.537  0.6029 -0.9418  0.6957
  906MOL0     H24968   8.122   7.764   4.508 -0.5015 -1.0187  0.4417
  906MOL0     H24969   8.131   7.921   4.314  1.5224 -3.2507 -3.2912
  906MOL0     H24970   7.942   7.913   4.301  0.7734  0.7131 -4.4436
  906MOL0     H24971   7.947   7.689   4.219 -0.3255 -0.4818  1.8769
  906MOL0     H24972   8.062   7.777   4.128 -2.5463 -1.8990 -1.2023
  906MOL0     H24973   8.137   7.607   4.363  1.9088  0.1325  1.5831
  906MOL0     H24974   8.244   7.719   4.282  1.4611 -0.8185 -1.3391
  906MOL0     H24975   8.229   7.597   4.065  0.0826  1.5386  0.0024
  906MOL0     H24976   8.299   7.495   4.207 -1.4463 -1.1618  3.1054
  906MOL0     H24977   7.973   7.502   3.983 -1.7813  3.2956  3.9543
  906MOL0     H24978   7.744   7.284   4.074 -2.1269  1.2240 -1.5612
  906MOL0     H24979   7.840   7.179   3.955  0.5712 -0.1120 -1.1866
  906MOL0     H24980   7.780   7.474   3.921 -2.7990  1.1115 -1.5232
  906MOL0     H24981   7.866   7.357   3.812  0.1809 -1.4529  0.6247
  906MOL0     H24982   7.646   7.238   3.813  2.7302  1.1292 -0.3357
  906MOL0     H24983   7.589   7.339   3.952  1.6773 -3.7237  1.6474
  906MOL0     H24984   7.620   7.403   3.657  1.9416 -0.3007  1.1603
  906MOL0     H24985   7.473   7.390   3.757  0.0511 -0.0778 -0.6654
  906MOL0     H24986   7.473   7.504   3.538  0.7726  2.3567 -3.6440
  906MOL0     H24987   7.291   7.735   3.307 -1.3886  1.9276  3.9166
  906MOL0     H24988   7.248   7.566   3.362  0.9958 -2.0995  3.2946
  906MOL0     H24989   7.418   7.605   3.328 -0.8765 -1.5131 -1.8163
  906MOL0     H24990   6.902   7.989   3.515 -1.4691 -0.7079  0.0021
  906MOL0     H24991   6.685   7.880   3.560  0.9779 -1.9127  2.5481
  906MOL0     H24992   6.482   7.792   3.555  1.0996 -0.3902  0.0969
  906MOL0     H24993   6.466   7.803   3.376 -2.9256  1.7749  0.3477
  906MOL0     H24994   6.365   7.586   3.369 -0.2457 -2.0063  1.4090
  906MOL0     H24995   6.381   7.574   3.543 -0.5009  1.0834  0.3214
  906MOL0     H24996   6.203   7.788   3.409  1.0550 -0.9067 -2.3796
  906MOL0     H24997   6.199   7.728   3.569 -0.8261 -0.8341 -0.7085
  906MOL0     H24998   6.140   7.492   3.471 -1.7537  1.4446  0.9783
  906MOL0     H24999   6.145   7.567   3.314  0.1425  0.6333  0.8316
  906MOL0     H25000   5.934   7.549   3.477  4.8268 -3.7199 -0.5292
  906MOL0     H25001   5.969   7.713   3.523 -0.1219  0.6027 -0.9111
  906MOL0     H25002   5.814   7.684   3.317  0.3255  1.0668 -1.2105
  906MOL0     H25003   5.964   7.638   3.231  2.7017  0.3706  0.0798
  906MOL0     H25004   6.054   7.866   3.244 -1.3036  0.2982 -2.7302
  906MOL0     H25005   5.959   7.887   3.390 -2.5013  0.2104  0.2703
  906MOL0     H25006   5.877   8.028   3.189  4.2691 -1.2230  1.1554
  906MOL0     H25007   5.757   7.917   3.261  0.1135  0.1445 -0.2319
  906MOL0     H25008   6.821   7.531   3.344 -3.1154  0.5173 -3.0947
  906MOL0     H25009   7.044   7.626   3.345 -0.3170 -1.0300 -0.2314
  906MOL0     H25010   7.329   7.928   3.740  0.4952  1.1623 -1.3866
  906MOL0     H25011   7.483   7.800   3.856 -1.5001 -0.9085  0.8474
  906MOL0     H25012   7.845   7.443   4.679 -0.6724  0.0161 -1.3900
  906MOL0     H25013   7.923   7.234   4.803 -1.9113 -1.1576  0.9364
  906MOL0     H25014   8.071   6.994   5.066 -1.3586 -1.3020 -2.0873
  906MOL0     H25015   8.185   6.797   5.175 -0.3538 -1.5556  0.7917
  906MOL0     H25016   8.265   6.653   5.331 -0.4681  3.5749 -1.0367
  906MOL0     H25017   8.186   6.732   5.467  1.0143  0.5454 -2.3760
  906MOL0     H25018   8.118   6.493   5.563 -1.7691  3.4516  0.1752
  906MOL0     H25019   8.282   6.557   5.567 -1.3991  1.3584 -2.1825
  906MOL0     H25020   8.170   6.382   5.347 -1.5778 -0.0271  2.6086
  906MOL0     H25021   8.340   6.428   5.374 -0.5790  2.0599 -0.4351
  906MOL0     H25022   8.286   6.188   5.433  0.8974 -1.7426  1.7711
  906MOL0     H25023   8.166   6.242   5.548  0.8891 -0.0947  0.9939
  906MOL0     H25024   8.473   6.246   5.795 -0.9972  1.1566  0.0664
  906MOL0     H25025   7.812   6.673   5.332  0.6856  0.6440  1.0042
  906MOL0     H25026   7.611   6.871   5.131 -1.3614 -0.6423  0.5693
  906MOL0     H25027   7.624   6.778   5.278 -2.0723 -0.8521 -3.3153
  906MOL0     H25028   7.645   6.956   5.295  1.9963 -2.4204  3.2581
  907MOL0     O25029   1.672   7.071   9.559  0.3026 -0.3961 -0.2180
  907MOL0     C25030   1.584   6.989   9.597 -0.0952 -0.3281  0.9307
  907MOL0     O25031   1.452   7.017   9.580  0.9106 -0.1513  0.6487
  907MOL0     C25032   1.412   7.132   9.535 -0.1844  0.4265 -0.1410
  907MOL0     C25033   1.400   7.225   9.638  0.8810 -0.3215  0.8643
  907MOL0     C25034   1.359   7.357   9.605 -0.0716 -0.0424 -0.1702
  907MOL0     C25035   1.321   7.389   9.470  0.4718 -0.6755  0.3516
  907MOL0     O25036   1.266   7.515   9.432  0.0182 -0.5797  0.3624
  907MOL0     C25037   1.221   7.614   9.529  0.2523 -0.4521 -0.2215
  907MOL0     C25038   1.115   7.708   9.477 -0.8475 -0.1864 -0.9730
  907MOL0     C25039   1.154   7.851   9.525 -0.5520 -0.3998 -0.1144
  907MOL0     C25040   1.058   7.945   9.450  0.0788 -0.8200 -0.2280
  907MOL0     C25041   1.062   8.092   9.481  0.2158  0.4871  0.6882
  907MOL0     C25042   1.167   8.155   9.380 -0.3769  1.4426  0.1488
  907MOL0     C25043   1.159   8.308   9.400 -0.1325  0.5018  0.7693
  907MOL0     C25044   1.040   8.368   9.331  0.0930  0.3558 -0.2137
  907MOL0     N25045   1.022   8.328   9.192 -0.8456  0.0321  0.1586
  907MOL0     C25046   1.075   8.378   9.078 -1.0684 -0.3920 -1.0040
  907MOL0     C25047   1.031   8.295   8.978 -0.0796  1.0024 -0.4326
  907MOL0     C25048   1.089   8.299   8.843 -0.9543 -0.0059  0.2359
  907MOL0     C25049   1.135   8.164   8.782 -0.4038  0.0191 -0.5541
  907MOL0     C25050   1.152   8.168   8.625 -0.3735 -0.2988 -0.3581
  907MOL0     C25051   1.282   8.227   8.579  0.5004  0.4685 -0.7904
  907MOL0     O25052   1.300   8.365   8.621  0.4192  0.0918 -0.3751
  907MOL0     C25053   1.423   8.419   8.585  0.1591  1.2477  0.1265
  907MOL0     C25054   1.549   8.354   8.583 -0.2052  0.3062 -0.0377
  907MOL0     C25055   1.666   8.418   8.541  0.3486 -0.4516  0.3498
  907MOL0     C25056   1.792   8.329   8.557  0.5590 -0.6893 -0.1136
  907MOL0     C25057   1.659   8.548   8.493 -0.4589 -0.5162 -0.8699
  907MOL0     C25058   1.785   8.637   8.465  0.3509  1.0793 -0.1007
  907MOL0     O25059   1.761   8.764   8.431 -0.1996 -1.1393 -0.2323
  907MOL0     C25060   1.878   8.848   8.414  0.7132 -0.1623 -0.0681
  907MOL0     C25061   1.972   8.836   8.317 -1.0066 -0.0751  0.5268
  907MOL0     C25062   2.090   8.904   8.321  0.0115 -0.5288 -0.8883
  907MOL0     C25063   2.101   9.014   8.413 -1.0612  0.3375  0.4329
  907MOL0     O25064   2.217   9.084   8.433 -0.5623  0.8253 -0.2820
  907MOL0     C25065   2.214   9.211   8.379 -0.5020  0.2411  0.2287
  907MOL0     C25066   2.356   9.247   8.338  0.3035  0.0018 -0.0511
  907MOL0     C25067   2.417   9.172   8.215  0.3508 -0.0902 -0.2250
  907MOL0     C25068   2.524   9.233   8.124 -0.3769 -0.1862 -0.2689
  907MOL0     C25069   2.493   9.381   8.077 -0.5687 -0.3874 -0.4795
  907MOL0     C25070   2.605   9.430   7.983  0.4857  0.5410 -1.0229
  907MOL0     C25071   2.572   9.560   7.911  0.5720  0.0621 -0.3523
  907MOL0     C25072   2.673   9.594   7.804 -0.5568  0.8005  0.4084
  907MOL0    Cl25073   2.826   9.629   7.883 -0.8301  0.0216  0.4400
  907MOL0     C25074   2.001   9.039   8.504  0.7963 -0.6546 -0.5351
  907MOL0     C25075   1.892   8.951   8.508 -0.5401 -0.4930 -0.9807
  907MOL0     O25076   1.891   8.584   8.459 -0.5612 -0.5666  1.0343
  907MOL0     C25077   1.537   8.610   8.490  0.3483  0.1466 -0.4995
  907MOL0     C25078   1.419   8.551   8.551  0.9710 -0.3250 -0.2814
  907MOL0     N25079   0.938   8.209   9.028  0.2727  0.3012  0.2378
  907MOL0     N25080   0.921   8.241   9.153 -0.9821  0.7250 -0.0930
  907MOL0     C25081   1.324   7.282   9.370 -0.0818  0.1225 -0.2587
  907MOL0     C25082   1.353   7.156   9.417  1.5686 -1.0687  0.0248
  907MOL0     C25083   1.614   6.848   9.642 -0.0902 -0.6798 -0.7111
  907MOL0     C25084   1.510   6.758   9.633 -0.6817 -0.0840 -0.4654
  907MOL0     C25085   1.532   6.624   9.675 -0.2730 -0.5073 -0.3004
  907MOL0     C25086   1.657   6.569   9.708 -0.5095 -1.6209  0.2732
  907MOL0     O25087   1.667   6.438   9.728  0.4375  0.4673 -0.9171
  907MOL0     C25088   1.649   6.368   9.605 -0.6538  0.4983  0.7054
  907MOL0     C25089   1.773   6.288   9.568 -0.4603  1.2671  0.5473
  907MOL0     C25090   1.804   6.185   9.676  0.4908  0.0102  0.1345
  907MOL0     C25091   1.947   6.205   9.732 -0.4584 -0.2096  0.1946
  907MOL0     C25092   1.961   6.325   9.813  0.3803 -0.2017  0.2562
  907MOL0     C25093   1.959   6.432   9.867 -0.2252  0.1805 -1.1868
  907MOL0     C25094   1.763   6.665   9.701 -0.0382  1.0308  0.2066
  907MOL0     C25095   1.745   6.801   9.678  0.8231  0.3841  0.5534
  907MOL0     C25096   1.876   6.886   9.677 -0.1063  0.2809  0.2301
  907MOL0     H25097   1.411   7.197   9.742  0.3565  0.1523  1.0470
  907MOL0     H25098   1.368   7.432   9.683  0.8335 -0.5365  0.2056
  907MOL0     H25099   1.306   7.674   9.562  1.5369 -2.1981 -0.2134
  907MOL0     H25100   1.191   7.572   9.625  2.0198  0.2023  0.6573
  907MOL0     H25101   1.122   7.706   9.367 -1.6098 -1.7431 -1.0145
  907MOL0     H25102   1.015   7.692   9.518 -0.8343  1.4200 -0.2367
  907MOL0     H25103   1.132   7.862   9.632 -2.1208  2.5324 -0.6294
  907MOL0     H25104   1.257   7.877   9.498 -1.0299  0.9172 -0.7669
  907MOL0     H25105   1.061   7.934   9.341 -0.7346 -2.3305 -0.1356
  907MOL0     H25106   0.959   7.910   9.480 -0.7506  0.8913 -0.8445
  907MOL0     H25107   1.089   8.099   9.587  0.4263 -2.3390  0.8977
  907MOL0     H25108   0.965   8.135   9.453 -1.1637 -2.4275  0.6640
  907MOL0     H25109   1.261   8.111   9.414 -0.5758  0.2459 -0.7743
  907MOL0     H25110   1.152   8.127   9.275 -1.0689 -3.1544  1.2478
  907MOL0     H25111   1.248   8.358   9.361  0.5472 -0.5386  0.9538
  907MOL0     H25112   1.155   8.330   9.507 -1.1973  3.9599  0.1452
  907MOL0     H25113   0.952   8.343   9.391 -0.2575  0.2480 -0.7659
  907MOL0     H25114   1.054   8.477   9.328  0.7726  0.3084  0.9262
  907MOL0     H25115   1.145   8.459   9.061 -0.7546 -0.4795 -0.1663
  907MOL0     H25116   1.171   8.371   8.850 -1.5686  0.6456  0.9821
  907MOL0     H25117   1.007   8.333   8.779 -1.3838  1.8901  1.7118
  907MOL0     H25118   1.218   8.118   8.837 -2.2807 -2.3775  0.4585
  907MOL0     H25119   1.057   8.089   8.794  0.9318 -1.8308 -2.6435
  907MOL0     H25120   1.145   8.067   8.585 -1.6710 -0.9582  1.3928
  907MOL0     H25121   1.068   8.224   8.583 -0.1015 -0.2858 -0.9013
  907MOL0     H25122   1.354   8.160   8.626 -2.4548 -1.5030  1.2673
  907MOL0     H25123   1.297   8.223   8.471 -2.1322  0.4899 -1.2330
  907MOL0     H25124   1.544   8.247   8.603 -0.1978  0.4741  0.9082
  907MOL0     H25125   1.778   8.237   8.616 -1.5758  0.6287  1.5955
  907MOL0     H25126   1.866   8.381   8.618  0.1512 -0.3668  0.1071
  907MOL0     H25127   1.830   8.302   8.458  1.3222  0.7901 -0.2444
  907MOL0     H25128   1.948   8.763   8.241 -0.0394 -1.8546  1.8487
  907MOL0     H25129   2.181   8.870   8.272 -0.3027 -0.6343 -1.4041
  907MOL0     H25130   2.153   9.201   8.289 -0.6432 -2.9558  0.5783
  907MOL0     H25131   2.174   9.278   8.455 -1.9681 -1.3387  0.9145
  907MOL0     H25132   2.343   9.353   8.313 -1.2420  0.2991  1.8044
  907MOL0     H25133   2.423   9.246   8.425  1.3495 -0.3201 -0.8329
  907MOL0     H25134   2.334   9.146   8.149 -0.3574 -3.0562  1.6356
  907MOL0     H25135   2.465   9.077   8.244  0.9227  0.5815  1.1280
  907MOL0     H25136   2.546   9.170   8.037  0.0273 -0.9302  0.3490
  907MOL0     H25137   2.621   9.234   8.174 -0.2705 -0.6692 -0.4592
  907MOL0     H25138   2.393   9.375   8.034 -2.0449  3.0505  1.9896
  907MOL0     H25139   2.481   9.442   8.166 -1.3067 -0.7164 -0.3482
  907MOL0     H25140   2.625   9.352   7.909 -2.3297  0.9746 -2.3788
  907MOL0     H25141   2.694   9.448   8.044  1.8405 -0.3712 -2.6561
  907MOL0     H25142   2.585   9.642   7.982 -1.6378  0.1778 -0.0212
  907MOL0     H25143   2.470   9.570   7.873 -0.2708  0.6016  1.9010
  907MOL0     H25144   2.636   9.689   7.764 -2.3696  2.0686  4.5186
  907MOL0     H25145   2.676   9.515   7.728 -0.8202 -1.2431  2.4180
  907MOL0     H25146   2.014   9.120   8.574  1.0636 -1.6242  0.5589
  907MOL0     H25147   1.834   8.962   8.599  1.6774  1.2904  0.3189
  907MOL0     H25148   1.521   8.708   8.444 -2.4759  0.9135  1.8274
  907MOL0     H25149   1.323   8.601   8.556 -0.4450 -2.7931 -0.9244
  907MOL0     H25150   1.285   7.295   9.270  0.6754  3.2098 -0.2385
  907MOL0     H25151   1.343   7.069   9.352  1.4681 -1.7550  0.9347
  907MOL0     H25152   1.410   6.791   9.610 -0.9483  0.7901  1.7237
  907MOL0     H25153   1.450   6.552   9.676  0.2072 -1.1742 -2.5171
  907MOL0     H25154   1.562   6.301   9.611 -0.3665 -0.1042 -1.2485
  907MOL0     H25155   1.620   6.433   9.523  0.2823  1.1885  0.9084
  907MOL0     H25156   1.850   6.366   9.571  0.4324  0.5057 -0.9910
  907MOL0     H25157   1.776   6.240   9.470 -0.2244 -0.4522  1.3483
  907MOL0     H25158   1.735   6.185   9.761  1.1024 -0.5624  0.6356
  907MOL0     H25159   1.787   6.086   9.632  1.7011  0.7551 -2.1719
  907MOL0     H25160   2.017   6.220   9.649 -1.4019 -0.6951 -0.7134
  907MOL0     H25161   1.979   6.112   9.780  2.0354 -1.6059 -3.6909
  907MOL0     H25162   1.961   6.524   9.923  1.1742 -0.7893  0.4766
  907MOL0     H25163   1.852   6.610   9.728 -0.9853 -0.2797  0.8087
  907MOL0     H25164   1.911   6.927   9.582  3.7064 -1.8117  0.5298
  907MOL0     H25165   1.848   6.965   9.748  0.3862  1.2480 -0.6283
  907MOL0     H25166   1.968   6.844   9.719 -1.5390 -0.0844  3.2837
  908MOL0     O25167   7.414   4.241   9.089 -0.3847  0.2174  0.5929
  908MOL0     C25168   7.305   4.281   9.066 -0.3248 -0.1027  0.7176
  908MOL0     O25169   7.254   4.397   9.119  0.0706  0.0022  0.0053
  908MOL0     C25170   7.322   4.478   9.199 -0.3706 -0.0892 -0.1081
  908MOL0     C25171   7.348   4.460   9.344  0.8573  0.2009 -0.3078
  908MOL0     C25172   7.401   4.559   9.424 -0.6293 -0.2553 -0.8171
  908MOL0     C25173   7.443   4.672   9.362 -0.8009 -0.9225 -0.3433
  908MOL0     O25174   7.524   4.774   9.410  0.0844 -0.0072  0.1847
  908MOL0     C25175   7.632   4.724   9.498 -0.0642 -0.0209 -0.3003
  908MOL0     C25176   7.763   4.789   9.477  0.3962  0.4768  0.9117
  908MOL0     C25177   7.795   4.771   9.325 -0.5552  0.2012  1.0984
  908MOL0     C25178   7.948   4.773   9.302  0.6249  0.7199 -0.0150
  908MOL0     C25179   7.987   4.806   9.154  0.2255  0.1964  0.4038
  908MOL0     C25180   8.141   4.820   9.143 -0.4864 -0.2184 -1.1190
  908MOL0     C25181   8.222   4.695   9.179 -0.3193 -0.1736 -0.0216
  908MOL0     C25182   8.165   4.569   9.110  0.6589 -0.2095  0.1754
  908MOL0     N25183   8.235   4.444   9.152  0.3909 -0.2525 -0.5866
  908MOL0     C25184   8.364   4.402   9.116  0.1703 -1.1377 -0.1147
  908MOL0     C25185   8.392   4.293   9.179 -1.3584 -0.0335 -0.5843
  908MOL0     C25186   8.519   4.230   9.192 -1.1862  0.2181 -0.0929
  908MOL0     C25187   8.642   4.316   9.155 -0.4462  1.1424 -0.0928
  908MOL0     C25188   8.658   4.405   9.283 -0.0271  0.5364 -0.1079
  908MOL0     C25189   8.770   4.497   9.259  0.3521  0.8093 -0.4968
  908MOL0     O25190   8.733   4.632   9.244  0.0088 -0.4229  0.2726
  908MOL0     C25191   8.827   4.722   9.289  0.9416  1.1169  0.1847
  908MOL0     C25192   8.913   4.786   9.202 -0.3761 -0.4754  0.3837
  908MOL0     C25193   9.019   4.867   9.254  0.2966 -1.0840  0.6132
  908MOL0     C25194   9.140   4.920   9.170  0.4826 -0.3654  0.3693
  908MOL0     C25195   9.019   4.900   9.394 -1.0816  0.4308 -0.0642
  908MOL0     C25196   9.105   4.991   9.452 -0.1711  0.0013  0.7435
  908MOL0     O25197   9.195   4.950   9.542 -0.2636 -0.0561  0.2126
  908MOL0     C25198   9.260   5.047   9.620 -0.2500 -0.3372  0.3105
  908MOL0     C25199   9.244   5.039   9.759 -0.2072 -0.6636 -0.7809
  908MOL0     C25200   9.296   5.138   9.840  0.1573 -0.1689  0.5792
  908MOL0     C25201   9.374   5.243   9.785 -0.4177 -0.8010  0.1474
  908MOL0     O25202   9.409   5.350   9.868 -0.0806  0.0088 -0.4814
  908MOL0     C25203   9.535   5.337   9.934  0.2750 -0.2127  0.9017
  908MOL0     C25204   9.543   5.449  10.038 -0.2146  0.3938 -0.1783
  908MOL0     C25205   9.678   5.437  10.117 -0.1246 -0.7982 -0.3122
  908MOL0     C25206   9.693   5.556  10.213 -0.6242 -0.0972 -0.1909
  908MOL0     C25207   9.817   5.554  10.315  0.5364 -0.4170  0.3205
  908MOL0     C25208   9.963   5.570  10.260  0.4262 -0.0172 -0.5066
  908MOL0     C25209  10.006   5.726  10.236 -0.0728 -0.2878 -0.2740
  908MOL0     C25210  10.029   5.815  10.349  0.7193  0.8477 -0.1132
  908MOL0    Cl25211  10.106   5.725  10.490 -0.0993  0.0912 -0.0649
  908MOL0     C25212   9.394   5.252   9.639 -0.3317 -0.1330 -1.4265
  908MOL0     C25213   9.331   5.154   9.564  0.3826 -1.3481  0.5326
  908MOL0     O25214   9.086   5.108   9.431  0.1246 -0.0925 -0.0693
  908MOL0     C25215   8.932   4.836   9.471  0.0605 -0.1349  0.6707
  908MOL0     C25216   8.830   4.751   9.420 -1.0445  0.0820 -0.2040
  908MOL0     N25217   8.271   4.260   9.255 -0.4569  0.9205 -0.0295
  908MOL0     N25218   8.182   4.350   9.230  0.0980  0.1146 -0.4898
  908MOL0     C25219   7.422   4.689   9.220 -0.2384 -0.1507 -0.1484
  908MOL0     C25220   7.371   4.594   9.139  0.6543 -0.2299 -0.6709
  908MOL0     C25221   7.252   4.238   8.932  0.0806  0.6209  1.1152
  908MOL0     C25222   7.124   4.284   8.915  0.5615 -0.1412  0.0666
  908MOL0     C25223   7.060   4.262   8.797 -0.5774  0.7895  0.7409
  908MOL0     C25224   7.112   4.184   8.696 -0.5852  0.2425  0.8117
  908MOL0     O25225   7.043   4.160   8.582  0.3443  0.3339 -0.9923
  908MOL0     C25226   6.961   4.041   8.583  0.1157  0.1828 -0.2856
  908MOL0     C25227   6.947   3.985   8.442 -1.1388 -0.2263 -0.0495
  908MOL0     C25228   7.047   3.871   8.418  0.5129 -0.1703 -0.1566
  908MOL0     C25229   7.038   3.814   8.268  0.1364 -0.0532  0.5605
  908MOL0     C25230   7.166   3.749   8.232 -0.4995  0.4831  0.1475
  908MOL0     C25231   7.266   3.687   8.200  0.5890 -0.7720  0.5007
  908MOL0     C25232   7.243   4.143   8.709 -0.1418  0.0216  1.4261
  908MOL0     C25233   7.320   4.169   8.829 -0.0298  0.0542 -0.6839
  908MOL0     C25234   7.465   4.121   8.843 -0.6431 -0.9897 -0.7226
  908MOL0     H25235   7.305   4.369   9.385  0.3264  0.8866  0.6901
  908MOL0     H25236   7.408   4.552   9.532  2.3986 -1.0280 -0.9974
  908MOL0     H25237   7.645   4.616   9.487 -2.8715 -0.2526 -2.2593
  908MOL0     H25238   7.595   4.739   9.600 -1.4420 -0.1341 -0.7607
  908MOL0     H25239   7.760   4.894   9.507  0.4208  0.4129  1.1436
  908MOL0     H25240   7.840   4.736   9.535 -3.0836 -2.4942  3.3296
  908MOL0     H25241   7.750   4.686   9.272 -2.5580  1.9985 -0.2716
  908MOL0     H25242   7.747   4.856   9.276 -0.2382 -1.3535 -2.1892
  908MOL0     H25243   8.005   4.846   9.362  0.8830 -2.1763  3.6429
  908MOL0     H25244   7.983   4.671   9.319 -2.8647 -1.2644 -3.3748
  908MOL0     H25245   7.961   4.903   9.111  3.6131  1.2909  0.5026
  908MOL0     H25246   7.946   4.738   9.079  0.5668  1.3870 -0.9128
  908MOL0     H25247   8.174   4.860   9.046  5.9855  1.7175  1.3698
  908MOL0     H25248   8.172   4.899   9.213  0.0568 -1.1548 -0.2835
  908MOL0     H25249   8.217   4.679   9.287  1.9233 -2.0512 -0.1139
  908MOL0     H25250   8.329   4.700   9.155 -0.9343 -1.2695 -3.6928
  908MOL0     H25251   8.057   4.576   9.122  0.1686  4.1042 -4.0326
  908MOL0     H25252   8.169   4.564   9.001 -2.1991  2.0441 -0.1307
  908MOL0     H25253   8.425   4.464   9.051  0.1369 -1.9901 -0.9925
  908MOL0     H25254   8.528   4.144   9.125  0.3842 -0.6023  1.0911
  908MOL0     H25255   8.527   4.194   9.295  0.5978 -0.2454 -0.3498
  908MOL0     H25256   8.727   4.247   9.156 -2.5477 -1.6032  1.6420
  908MOL0     H25257   8.645   4.375   9.063 -2.1197  0.2322 -0.7706
  908MOL0     H25258   8.571   4.460   9.321  0.1375 -2.4833  5.5674
  908MOL0     H25259   8.676   4.345   9.372  2.6778  0.6525 -0.4972
  908MOL0     H25260   8.830   4.481   9.349 -3.1319  1.8457  2.2478
  908MOL0     H25261   8.816   4.464   9.166 -0.7559  1.2944 -1.2426
  908MOL0     H25262   8.920   4.741   9.104 -2.3440 -0.0720  0.0166
  908MOL0     H25263   9.150   4.863   9.078  0.0059  1.5079 -0.8970
  908MOL0     H25264   9.233   4.903   9.226  0.2395 -2.4326  0.2167
  908MOL0     H25265   9.133   5.024   9.135 -3.0230 -0.5454  0.2180
  908MOL0     H25266   9.181   4.960   9.798 -0.3860 -0.5524 -0.8468
  908MOL0     H25267   9.284   5.142   9.947 -0.6648  1.9731  0.4484
  908MOL0     H25268   9.548   5.236   9.972  0.9264  0.1863  1.7796
  908MOL0     H25269   9.619   5.370   9.872 -0.4813  0.5038  0.2348
  908MOL0     H25270   9.530   5.545   9.987  2.3653  1.4511  1.0095
  908MOL0     H25271   9.460   5.444  10.109  1.0358  1.9676  1.4944
  908MOL0     H25272   9.761   5.431  10.046  0.2014 -2.4921  0.1682
  908MOL0     H25273   9.675   5.345  10.176 -0.2494  0.8646  2.4259
  908MOL0     H25274   9.599   5.567  10.267  0.9494  1.9543  2.3640
  908MOL0     H25275   9.709   5.645  10.151 -2.2174 -0.0419 -0.5678
  908MOL0     H25276   9.800   5.630  10.392 -0.3894  0.1119 -0.3864
  908MOL0     H25277   9.803   5.454  10.356 -5.9386 -1.4576 -3.1941
  908MOL0     H25278   9.972   5.513  10.167  1.1499  0.9017 -1.0165
  908MOL0     H25279  10.042   5.539  10.329 -0.0938  0.0578  0.1360
  908MOL0     H25280   9.924   5.775  10.182 -1.0632  0.1792  1.5708
  908MOL0     H25281  10.095   5.720  10.174 -0.1102 -1.9511 -0.2201
  908MOL0     H25282   9.929   5.832  10.390 -0.3690  0.4719 -2.4432
  908MOL0     H25283  10.098   5.900  10.340  0.5836  0.9077 -0.6645
  908MOL0     H25284   9.444   5.336   9.594 -1.2312  0.5208 -1.2331
  908MOL0     H25285   9.328   5.175   9.458  0.5709 -3.2356  0.1324
  908MOL0     H25286   8.924   4.846   9.579  2.8681  0.8067  0.8643
  908MOL0     H25287   8.769   4.695   9.490 -0.2764  1.0138  1.2685
  908MOL0     H25288   7.454   4.782   9.174 -0.0172  1.6125  3.2748
  908MOL0     H25289   7.355   4.626   9.037  0.8269  1.4432 -0.2024
  908MOL0     H25290   7.068   4.343   8.987 -0.1211 -0.4048 -0.2335
  908MOL0     H25291   6.962   4.308   8.787 -0.2219  1.1034 -2.5529
  908MOL0     H25292   6.973   3.962   8.658 -3.1500 -1.7830 -1.6176
  908MOL0     H25293   6.860   4.075   8.603  0.5884  0.3946  1.9993
  908MOL0     H25294   6.955   4.056   8.360  3.2431 -1.2493 -0.7665
  908MOL0     H25295   6.845   3.945   8.436 -1.0414 -0.7443  1.4169
  908MOL0     H25296   7.148   3.909   8.436  0.5409 -0.4829  0.3706
  908MOL0     H25297   7.028   3.785   8.484  0.1628 -0.2422 -0.3469
  908MOL0     H25298   7.017   3.900   8.203  1.5009 -0.0392  0.0908
  908MOL0     H25299   6.950   3.750   8.262 -1.9405  2.6347  0.6795
  908MOL0     H25300   7.349   3.623   8.177  1.6955  1.6909 -3.3931
  908MOL0     H25301   7.285   4.091   8.624 -1.0685  0.0320  0.9443
  908MOL0     H25302   7.518   4.217   8.845 -0.1405 -1.2774  0.1150
  908MOL0     H25303   7.486   4.081   8.943  0.0930  2.7156  0.7820
  908MOL0     H25304   7.509   4.058   8.765  2.3900 -0.2065  0.2007
  909MOL0     O25305  10.725  10.633   5.326  0.2942  0.1225 -0.5044
  909MOL0     C25306  10.808  10.727   5.307 -0.2045 -1.2012  0.5005
  909MOL0     O25307  10.883  10.748   5.189 -0.1298 -0.6509  0.9921
  909MOL0     C25308  10.912  10.631   5.127 -0.8838  0.8935  0.6944
  909MOL0     C25309  10.971  10.513   5.175 -0.1899 -0.6939 -0.0576
  909MOL0     C25310  10.977  10.392   5.103  0.3170 -0.9209 -0.0402
  909MOL0     C25311  10.934  10.387   4.972  0.8235 -0.5815  0.2563
  909MOL0     O25312  10.930  10.270   4.891  0.1626 -0.7807 -0.1535
  909MOL0     C25313  10.849  10.169   4.938  0.4158  0.6162  0.3641
  909MOL0     C25314  10.875  10.035   4.846  0.3817  1.1364 -0.3309
  909MOL0     C25315  10.798  10.049   4.704 -0.5113 -0.1938 -1.0250
  909MOL0     C25316  10.863   9.951   4.613 -1.3381 -0.4742 -0.6044
  909MOL0     C25317  10.802   9.948   4.471  0.2892  0.3397  0.3291
  909MOL0     C25318  10.650   9.909   4.469 -0.2559 -0.3796  0.4998
  909MOL0     C25319  10.611   9.887   4.322 -0.5392 -0.3682 -0.6224
  909MOL0     C25320  10.645   9.741   4.268 -1.0348 -1.1077  0.1757
  909MOL0     N25321  10.615   9.630   4.354 -0.2565  0.1464 -0.4661
  909MOL0     C25322  10.701   9.532   4.408 -0.0711 -0.5279  0.0672
  909MOL0     C25323  10.623   9.467   4.489 -0.3650  0.4571 -1.0235
  909MOL0     C25324  10.654   9.355   4.580 -1.0032  0.4363 -0.1989
  909MOL0     C25325  10.694   9.385   4.730  1.2422  0.3835  1.3136
  909MOL0     C25326  10.802   9.490   4.761  0.1620  0.1190  0.4474
  909MOL0     C25327  10.741   9.617   4.825  0.1458 -0.1305  0.4224
  909MOL0     O25328  10.653   9.607   4.941 -0.6277 -0.1347 -0.1362
  909MOL0     C25329  10.610   9.727   4.984 -0.3887  0.2320 -1.4109
  909MOL0     C25330  10.660   9.777   5.102  0.0679 -0.1814  0.5903
  909MOL0     C25331  10.619   9.893   5.157  0.1651 -0.6863  0.5347
  909MOL0     C25332  10.665   9.934   5.293  0.2220 -0.3561  0.4560
  909MOL0     C25333  10.506   9.957   5.088  0.2656 -0.2782 -0.7775
  909MOL0     C25334  10.431  10.091   5.122  0.4100  0.6200 -0.6919
  909MOL0     O25335  10.461  10.144   5.241 -0.1314 -0.2250  0.0672
  909MOL0     C25336  10.414  10.267   5.290 -0.6133  0.2538  0.8263
  909MOL0     C25337  10.275  10.305   5.280  0.3507  0.1470 -0.1391
  909MOL0     C25338  10.235  10.415   5.345 -0.4542  0.2766 -0.3396
  909MOL0     C25339  10.326  10.494   5.410  0.3709 -0.5476 -0.2383
  909MOL0     O25340  10.275  10.608   5.456 -0.0524  0.0615 -0.2857
  909MOL0     C25341  10.276  10.623   5.602  0.3221 -0.1108 -0.2734
  909MOL0     C25342  10.165  10.713   5.655  0.6500 -0.5263  1.2241
  909MOL0     C25343  10.182  10.860   5.602  0.0172  0.3492  0.5888
  909MOL0     C25344  10.066  10.934   5.659  0.4563  0.6943 -0.0335
  909MOL0     C25345  10.037  11.077   5.603  0.0506 -0.4775 -0.4774
  909MOL0     C25346   9.964  11.066   5.464 -0.2989  0.3507  0.5771
  909MOL0     C25347   9.947  11.201   5.390 -0.2388 -0.8828  0.5992
  909MOL0     C25348   9.844  11.181   5.279  0.0826 -0.1756 -0.1018
  909MOL0    Cl25349   9.676  11.177   5.341  0.5537 -0.0758 -0.3946
  909MOL0     C25350  10.460  10.466   5.420 -0.9046  0.1703 -0.8137
  909MOL0     C25351  10.504  10.350   5.361  0.5655  0.0566 -0.0655
  909MOL0     O25352  10.343  10.133   5.048 -0.1447  0.2964  0.4310
  909MOL0     C25353  10.460   9.906   4.969  0.3109  0.1453  0.6857
  909MOL0     C25354  10.515   9.796   4.912  0.4119  0.7785 -0.0502
  909MOL0     N25355  10.492   9.508   4.470 -0.7958  0.8534  0.2611
  909MOL0     N25356  10.485   9.592   4.378  0.3295 -0.6700  0.3030
  909MOL0     C25357  10.887  10.503   4.910 -0.6086 -0.0545  0.0016
  909MOL0     C25358  10.884  10.622   4.989 -0.7306  0.6424 -0.1709
  909MOL0     C25359  10.800  10.843   5.400 -0.5901  0.1483  0.0468
  909MOL0     C25360  10.818  10.974   5.358  0.4666 -0.1241 -0.8348
  909MOL0     C25361  10.807  11.086   5.439  0.2376  0.2228 -0.8043
  909MOL0     C25362  10.794  11.069   5.576  0.8662  0.4281 -0.5067
  909MOL0     O25363  10.810  11.182   5.667  0.3913 -0.3454  0.1272
  909MOL0     C25364  10.797  11.321   5.626  0.5626  1.2258 -0.2202
  909MOL0     C25365  10.929  11.395   5.601  0.0794 -0.5598 -0.3200
  909MOL0     C25366  11.027  11.387   5.713 -0.4460 -0.4830  0.2087
  909MOL0     C25367  10.994  11.505   5.805  0.3482  0.5860  0.0377
  909MOL0     C25368  11.058  11.482   5.937 -0.6144  0.2099  0.5724
  909MOL0     C25369  11.122  11.478   6.040  0.9939  0.6416  0.2591
  909MOL0     C25370  10.769  10.940   5.626  0.3033 -0.6752  0.0593
  909MOL0     C25371  10.769  10.830   5.540 -0.2473  0.3194  0.3455
  909MOL0     C25372  10.780  10.694   5.602  0.1661  0.4841  0.3351
  909MOL0     H25373  11.009  10.494   5.275  2.6848  0.3626 -0.8456
  909MOL0     H25374  11.033  10.310   5.147  1.3924 -1.0441 -1.5591
  909MOL0     H25375  10.745  10.201   4.929  0.8661  1.6662 -1.4923
  909MOL0     H25376  10.863  10.154   5.046 -0.7437  2.3597  0.7791
  909MOL0     H25377  10.975   9.992   4.839 -0.5106 -1.0525 -0.3777
  909MOL0     H25378  10.826   9.957   4.904  0.8234 -2.6435 -4.4636
  909MOL0     H25379  10.693  10.022   4.712 -0.7293  0.0530 -2.7470
  909MOL0     H25380  10.821  10.145   4.657  0.3498 -2.1554 -5.0817
  909MOL0     H25381  10.968   9.983   4.605 -1.2727 -0.4446  0.2364
  909MOL0     H25382  10.876   9.849   4.651 -3.0239 -2.7225 -5.3460
  909MOL0     H25383  10.852   9.873   4.408 -1.0438  1.2484 -1.9345
  909MOL0     H25384  10.804  10.051   4.435  0.7881  0.5340  0.8933
  909MOL0     H25385  10.614   9.820   4.521 -2.6148  0.9655  1.3705
  909MOL0     H25386  10.596   9.996   4.510  2.1874  1.8145 -0.6655
  909MOL0     H25387  10.649   9.964   4.255  0.6439 -1.3063 -1.0693
  909MOL0     H25388  10.501   9.890   4.321 -0.6354  1.7128  2.8582
  909MOL0     H25389  10.598   9.733   4.170 -3.6713 -0.2357  1.2625
  909MOL0     H25390  10.752   9.741   4.246 -0.7928  1.9644  0.8719
  909MOL0     H25391  10.807   9.515   4.394  0.3221  1.4393  0.2729
  909MOL0     H25392  10.732   9.288   4.543  1.4558  0.3346  4.5008
  909MOL0     H25393  10.567   9.288   4.579  0.3243 -1.3779 -1.9537
  909MOL0     H25394  10.604   9.413   4.785 -1.2092 -2.1932 -1.0460
  909MOL0     H25395  10.727   9.290   4.775  1.0260 -0.7656 -0.8083
  909MOL0     H25396  10.887   9.452   4.817  1.2093  0.6394 -0.7406
  909MOL0     H25397  10.844   9.516   4.663  1.5500 -2.9665  0.1078
  909MOL0     H25398  10.820   9.689   4.848 -0.7871  0.2630  2.6311
  909MOL0     H25399  10.683   9.639   4.735  3.8562 -2.0875 -2.7135
  909MOL0     H25400  10.734   9.721   5.158  0.8071  1.3942  1.2383
  909MOL0     H25401  10.577   9.957   5.354 -2.0497 -2.7847 -1.6127
  909MOL0     H25402  10.730  10.022   5.293  1.8103 -1.4644 -0.4714
  909MOL0     H25403  10.717   9.849   5.338 -3.1185 -0.3164  5.1527
  909MOL0     H25404  10.192  10.252   5.235 -2.8721  3.7662  1.0725
  909MOL0     H25405  10.132  10.449   5.350 -0.2333  0.8711  0.2337
  909MOL0     H25406  10.263  10.529   5.656  1.8407  0.3162  0.9264
  909MOL0     H25407  10.370  10.670   5.633 -0.4067  1.6883 -0.6467
  909MOL0     H25408  10.072  10.671   5.615  0.3364 -1.2080  2.6201
  909MOL0     H25409  10.161  10.703   5.764 -0.7292 -0.7812  1.1708
  909MOL0     H25410  10.180  10.854   5.493  0.3525  0.0766  0.5969
  909MOL0     H25411  10.273  10.907   5.640  0.0961  0.3078  0.4511
  909MOL0     H25412  10.097  10.942   5.763  0.7881 -2.0715  0.1644
  909MOL0     H25413   9.987  10.862   5.639  0.5908  1.5915 -5.1085
  909MOL0     H25414   9.979  11.141   5.670 -1.6571  0.1340 -2.4371
  909MOL0     H25415  10.137  11.118   5.585  0.5225 -0.7622  1.3091
  909MOL0     H25416   9.868  11.015   5.473 -0.7915  0.9872 -0.7423
  909MOL0     H25417  10.032  11.009   5.399 -1.1935 -2.5078  2.0062
  909MOL0     H25418  10.041  11.232   5.343 -1.7194  1.7032 -0.9357
  909MOL0     H25419   9.906  11.283   5.451  0.3090 -0.4436  0.3932
  909MOL0     H25420   9.867  11.092   5.219  0.6107 -0.8556  1.0859
  909MOL0     H25421   9.846  11.263   5.207 -0.4997  2.4438  2.6786
  909MOL0     H25422  10.527  10.529   5.478  0.9867 -2.5980  0.2083
  909MOL0     H25423  10.610  10.326   5.364  0.0931 -2.1281  1.1387
  909MOL0     H25424  10.367   9.948   4.930 -0.0768 -0.7990  0.5514
  909MOL0     H25425  10.480   9.763   4.815  0.6509  0.4837 -0.0373
  909MOL0     H25426  10.857  10.498   4.806 -1.5984  3.1509  0.0381
  909MOL0     H25427  10.843  10.711   4.942 -0.6280 -0.7776 -3.1693
  909MOL0     H25428  10.814  10.992   5.251  0.2919 -0.6282 -0.9111
  909MOL0     H25429  10.809  11.188   5.402 -1.1247  1.1100  1.4120
  909MOL0     H25430  10.726  11.338   5.544  0.3857  0.5780 -0.2065
  909MOL0     H25431  10.743  11.373   5.706 -1.2477  1.9094 -1.7913
  909MOL0     H25432  10.903  11.500   5.581 -0.4947 -1.1000 -2.7320
  909MOL0     H25433  10.974  11.362   5.507 -3.9473 -1.1217 -2.2992
  909MOL0     H25434  11.031  11.292   5.768  1.6319  0.1092  1.1981
  909MOL0     H25435  11.130  11.389   5.676 -0.4551  1.5120  0.1814
  909MOL0     H25436  10.889  11.524   5.830  0.6643  0.2203  1.8030
  909MOL0     H25437  11.034  11.600   5.766 -2.5941  1.3391 -1.4518
  909MOL0     H25438  11.189  11.468   6.124  3.2374 -2.9584 -1.7015
  909MOL0     H25439  10.742  10.910   5.727  1.8932 -4.4472 -0.4317
  909MOL0     H25440  10.797  10.704   5.710  2.0518 -0.2050  0.1414
  909MOL0     H25441  10.689  10.638   5.584 -0.2409  1.0163  0.7009
  909MOL0     H25442  10.864  10.638   5.560  0.2338  1.4374 -0.8474
  910MOL0     O25443   0.208  10.205   7.589 -0.3914  0.1920  1.2592
  910MOL0     C25444   0.235  10.126   7.498  0.1488  0.5223  0.4242
  910MOL0     O25445   0.336  10.030   7.506 -0.2131 -0.2483 -0.0208
  910MOL0     C25446   0.435  10.021   7.608  0.4903 -0.2474  0.0517
  910MOL0     C25447   0.504  10.139   7.656  0.9358  1.0172 -0.4647
  910MOL0     C25448   0.588  10.131   7.767 -0.7826 -1.2009 -0.2600
  910MOL0     C25449   0.611  10.010   7.832 -0.1918 -0.8780  0.4063
  910MOL0     O25450   0.682   9.996   7.950  0.4437 -0.8210  0.1452
  910MOL0     C25451   0.823  10.025   7.952  0.7342 -0.7296 -0.2906
  910MOL0     C25452   0.900   9.903   7.902 -0.7883 -0.1940 -0.5097
  910MOL0     C25453   0.917   9.809   8.022 -0.0456  0.3953  0.3602
  910MOL0     C25454   0.999   9.688   8.000 -1.3018 -0.0132 -0.1575
  910MOL0     C25455   1.147   9.705   7.961 -0.2925  0.5518  0.3947
  910MOL0     C25456   1.238   9.580   7.976  0.0364  0.3977 -0.0566
  910MOL0     C25457   1.239   9.508   8.115 -0.0010  0.1209  0.3066
  910MOL0     C25458   1.270   9.352   8.105 -0.2947 -0.0123 -1.1182
  910MOL0     N25459   1.176   9.270   8.022  0.2627  0.2352 -0.8936
  910MOL0     C25460   1.056   9.219   8.061  0.1846 -0.2076  0.6630
  910MOL0     C25461   1.010   9.161   7.951 -0.6609 -0.5596 -0.6302
  910MOL0     C25462   0.883   9.078   7.946 -0.5686 -0.3396  0.4719
  910MOL0     C25463   0.905   8.952   8.023 -0.3306 -0.4530 -0.3443
  910MOL0     C25464   0.799   8.847   8.013 -0.7310 -0.1139 -1.0423
  910MOL0     C25465   0.807   8.738   8.123 -0.2936 -0.2664 -0.9695
  910MOL0     O25466   0.820   8.606   8.069 -0.5732  0.6212  0.7269
  910MOL0     C25467   0.699   8.540   8.059  1.0965  0.3063 -0.4031
  910MOL0     C25468   0.569   8.607   8.062  0.4280  0.5376  1.2682
  910MOL0     C25469   0.449   8.531   8.049 -0.5018 -0.2449 -0.9764
  910MOL0     C25470   0.325   8.615   8.078  0.3539  0.1121  0.0022
  910MOL0     C25471   0.465   8.384   8.046  0.6844 -0.9261  0.7844
  910MOL0     C25472   0.351   8.294   8.021  0.1739 -0.2925  0.2500
  910MOL0     O25473   0.385   8.184   7.942  0.5442  0.1222  0.0941
  910MOL0     C25474   0.289   8.104   7.889  0.3792 -0.1095  0.0311
  910MOL0     C25475   0.225   8.147   7.770  0.3123 -0.1205 -0.8195
  910MOL0     C25476   0.139   8.056   7.703 -0.5521  0.8707  0.2781
  910MOL0     C25477   0.119   7.927   7.757  0.7638  0.1515  0.3225
  910MOL0     O25478   0.047   7.830   7.690 -0.3079 -0.8102  0.1137
  910MOL0     C25479   0.032   7.839   7.543 -0.1928  0.8837 -0.9494
  910MOL0     C25480  -0.047   7.709   7.495  0.4897  0.3736  0.4278
  910MOL0     C25481  -0.035   7.685   7.348  0.7252 -1.1546 -0.1301
  910MOL0     C25482  -0.123   7.568   7.303 -0.1985  0.0250  0.2067
  910MOL0     C25483  -0.252   7.609   7.233 -0.4166 -0.3042 -0.4874
  910MOL0     C25484  -0.334   7.487   7.214  0.2495 -0.2271  0.8122
  910MOL0     C25485  -0.464   7.506   7.148 -0.1531 -0.9460  0.0789
  910MOL0     C25486  -0.569   7.415   7.204  0.0101 -0.7017 -0.7566
  910MOL0    Cl25487  -0.526   7.247   7.172  0.1914 -0.2587 -0.1465
  910MOL0     C25488   0.185   7.892   7.875  0.4962 -0.6017  0.4465
  910MOL0     C25489   0.266   7.985   7.943 -0.0943 -0.1794  0.4843
  910MOL0     O25490   0.249   8.316   8.089 -0.1092  0.0137 -0.5967
  910MOL0     C25491   0.591   8.331   8.048  0.5875  1.0192  1.0026
  910MOL0     C25492   0.707   8.402   8.054 -0.0127  0.2888 -0.2687
  910MOL0     N25493   1.099   9.171   7.847 -0.5797  0.3187 -0.6582
  910MOL0     N25494   1.201   9.239   7.896  0.1427  0.1837  0.4555
  910MOL0     C25495   0.556   9.892   7.785 -0.6457 -0.2129 -0.1937
  910MOL0     C25496   0.468   9.897   7.675  1.0260 -0.2323 -0.3138
  910MOL0     C25497   0.137  10.110   7.388 -0.2500  0.0903  1.0359
  910MOL0     C25498   0.158  10.009   7.293 -0.1284 -0.0915  0.0520
  910MOL0     C25499   0.076   9.999   7.178  0.2467  0.2947  0.3736
  910MOL0     C25500  -0.036  10.069   7.153  0.5553 -0.0397 -1.1204
  910MOL0     O25501  -0.107  10.048   7.034  0.6737 -0.0958 -0.2775
  910MOL0     C25502  -0.247  10.014   7.048 -0.0907 -0.5030 -0.0397
  910MOL0     C25503  -0.319   9.984   6.917  0.6896  0.9273  0.0463
  910MOL0     C25504  -0.467   9.957   6.937  0.0794 -0.0350  0.0306
  910MOL0     C25505  -0.535   9.905   6.815 -0.1996 -0.1331  0.1932
  910MOL0     C25506  -0.498   9.770   6.776  0.4949  0.4119 -0.0185
  910MOL0     C25507  -0.474   9.658   6.740 -0.2091 -0.0033 -0.5960
  910MOL0     C25508  -0.059  10.171   7.259 -0.1361  0.3205  0.3737
  910MOL0     C25509   0.026  10.197   7.370 -0.6863 -0.0624  0.0975
  910MOL0     C25510   0.001  10.330   7.447  0.7882 -0.3765 -0.0348
  910MOL0     H25511   0.484  10.232   7.604 -0.7016 -0.0226 -1.8198
  910MOL0     H25512   0.632  10.219   7.813 -1.6333 -0.7354 -0.3289
  910MOL0     H25513   0.865  10.054   8.049 -2.3622 -0.6766  1.1455
  910MOL0     H25514   0.844  10.112   7.889  3.5399  0.9736  2.6994
  910MOL0     H25515   0.852   9.860   7.814  0.1188  0.5575 -1.3904
  910MOL0     H25516   0.993   9.948   7.867 -0.7161 -0.2579 -0.3996
  910MOL0     H25517   0.949   9.872   8.105 -0.9876  2.2240 -0.6024
  910MOL0     H25518   0.816   9.783   8.052 -0.2516  2.4421  1.6401
  910MOL0     H25519   0.998   9.636   8.096 -0.8878 -0.0795 -0.1843
  910MOL0     H25520   0.953   9.627   7.921  1.8151 -2.0608 -0.6201
  910MOL0     H25521   1.189   9.760   8.046 -1.0783 -1.0510  1.8957
  910MOL0     H25522   1.165   9.750   7.863  3.2067 -0.2923  0.5346
  910MOL0     H25523   1.230   9.502   7.899  1.7307 -1.0524  1.1677
  910MOL0     H25524   1.336   9.625   7.958  0.5668 -0.7638 -0.1891
  910MOL0     H25525   1.149   9.523   8.175 -2.1208 -1.4639 -2.2461
  910MOL0     H25526   1.321   9.551   8.173  1.2413  1.1222 -2.1021
  910MOL0     H25527   1.373   9.333   8.073  0.9861 -1.9359  3.4194
  910MOL0     H25528   1.259   9.313   8.206 -1.8435  1.2183 -0.7720
  910MOL0     H25529   1.003   9.234   8.154 -0.6355 -0.0398  0.1792
  910MOL0     H25530   0.852   9.055   7.843 -1.1575  0.5239  0.4389
  910MOL0     H25531   0.794   9.134   7.976 -2.3704 -1.5188 -2.2261
  910MOL0     H25532   1.001   8.911   7.990  0.9805  3.0082 -1.3670
  910MOL0     H25533   0.928   8.978   8.127  3.3966  1.7120 -1.5212
  910MOL0     H25534   0.705   8.896   8.043 -0.0778  0.2270  0.5789
  910MOL0     H25535   0.799   8.808   7.912  1.1334  2.4681 -2.1632
  910MOL0     H25536   0.894   8.772   8.180 -0.2192  0.5528 -1.5527
  910MOL0     H25537   0.722   8.750   8.191  0.3310  1.4845 -0.4437
  910MOL0     H25538   0.557   8.714   8.075  0.4479  0.5434  1.2442
  910MOL0     H25539   0.255   8.600   7.995  1.5466 -2.0110 -0.6810
  910MOL0     H25540   0.341   8.721   8.101 -0.5570  0.5949 -1.4260
  910MOL0     H25541   0.282   8.563   8.164  0.2650 -1.3136 -0.8753
  910MOL0     H25542   0.244   8.244   7.725 -0.9354  0.3233 -0.4385
  910MOL0     H25543   0.084   8.090   7.616 -1.0847  2.8192  1.3221
  910MOL0     H25544  -0.027   7.925   7.511 -0.5942  1.2512  0.6810
  910MOL0     H25545   0.136   7.841   7.508 -0.1926 -1.7597 -1.3049
  910MOL0     H25546  -0.008   7.617   7.540  0.5264 -0.1350 -0.6343
  910MOL0     H25547  -0.150   7.720   7.532  0.6274 -3.0590  2.2736
  910MOL0     H25548   0.066   7.650   7.327  0.3983 -2.3969  0.3111
  910MOL0     H25549  -0.052   7.782   7.299  0.0075 -0.1578  1.9699
  910MOL0     H25550  -0.141   7.503   7.389 -2.9293 -2.7304 -2.2312
  910MOL0     H25551  -0.074   7.506   7.227 -3.6574 -1.9410 -0.6730
  910MOL0     H25552  -0.309   7.678   7.296 -0.5350 -0.2303 -0.6728
  910MOL0     H25553  -0.225   7.672   7.148 -1.1501  0.4843 -0.1452
  910MOL0     H25554  -0.348   7.466   7.320  0.1854 -1.1611  0.6280
  910MOL0     H25555  -0.272   7.409   7.168  0.7544 -0.2341  1.4899
  910MOL0     H25556  -0.456   7.491   7.040 -0.9140  3.6322 -0.8455
  910MOL0     H25557  -0.485   7.612   7.164 -1.2222 -1.0301 -0.6565
  910MOL0     H25558  -0.663   7.454   7.165 -0.8004  0.2441  1.8943
  910MOL0     H25559  -0.573   7.431   7.312  0.2374 -1.6141 -0.5977
  910MOL0     H25560   0.187   7.791   7.916  0.2581 -0.6369  0.3719
  910MOL0     H25561   0.323   7.948   8.028  0.4943  3.0710  1.6563
  910MOL0     H25562   0.601   8.224   8.034 -2.1034  0.7234  0.8191
  910MOL0     H25563   0.800   8.346   8.048 -0.8064 -1.1995  0.7029
  910MOL0     H25564   0.593   9.802   7.834  3.5804  0.7507 -1.1649
  910MOL0     H25565   0.420   9.805   7.644  1.0220  0.6111 -3.0532
  910MOL0     H25566   0.246   9.947   7.309  1.3284  1.2323 -2.2710
  910MOL0     H25567   0.109   9.939   7.093  3.5366 -0.7983  2.2561
  910MOL0     H25568  -0.254   9.925   7.111  0.6868  0.6160  1.6992
  910MOL0     H25569  -0.293  10.092   7.110  1.3422 -0.4233  0.9760
  910MOL0     H25570  -0.277   9.889   6.882 -1.8649  0.3328 -1.6935
  910MOL0     H25571  -0.306  10.060   6.839 -1.4786  0.5510 -0.7459
  910MOL0     H25572  -0.491   9.903   7.029 -2.0449  1.6201  0.5367
  910MOL0     H25573  -0.503  10.060   6.952  1.5419  0.8504 -2.0091
  910MOL0     H25574  -0.543   9.977   6.734 -3.2390  0.5198  0.9530
  910MOL0     H25575  -0.643   9.913   6.831 -0.0512 -0.3332  1.4118
  910MOL0     H25576  -0.468   9.553   6.716  1.2631 -0.3051  0.8830
  910MOL0     H25577  -0.144  10.240   7.251  0.7779  1.4625  0.2190
  910MOL0     H25578  -0.063  10.319   7.534  0.1305  0.3056 -0.4144
  910MOL0     H25579   0.090  10.383   7.483  0.3183 -0.3340  1.0940
  910MOL0     H25580  -0.056  10.402   7.387  1.0796 -0.9511 -1.0225
  911MOL0     O25581   8.354   6.829   8.879 -0.2503  0.5364 -0.6335
  911MOL0     C25582   8.381   6.752   8.974 -0.6718 -0.5385  0.9674
  911MOL0     O25583   8.304   6.693   9.056  0.2718 -0.3773  0.3858
  911MOL0     C25584   8.167   6.704   9.045  0.4881  0.5057 -0.2088
  911MOL0     C25585   8.103   6.666   9.162  0.6313 -0.1341  0.3759
  911MOL0     C25586   7.975   6.689   9.183  0.6622  0.3331 -0.9141
  911MOL0     C25587   7.895   6.747   9.081 -0.5552 -0.7825 -0.0704
  911MOL0     O25588   7.767   6.785   9.096 -0.2730 -0.4485  0.2036
  911MOL0     C25589   7.676   6.691   9.136  0.8501  0.7105 -0.2659
  911MOL0     C25590   7.542   6.751   9.167  0.5682 -0.1158  0.0032
  911MOL0     C25591   7.547   6.876   9.262  0.2114 -0.4624 -0.1036
  911MOL0     C25592   7.405   6.936   9.252 -0.5389  0.9836  0.0286
  911MOL0     C25593   7.381   7.045   9.356  0.9798 -0.6629 -0.2073
  911MOL0     C25594   7.235   7.109   9.324  0.2968 -0.3509 -0.6125
  911MOL0     C25595   7.200   7.211   9.438  0.6818 -0.3313  0.4584
  911MOL0     C25596   7.066   7.188   9.519 -0.1925 -0.5975 -0.0090
  911MOL0     N25597   7.038   7.042   9.544 -0.3835 -0.0303  0.2651
  911MOL0     C25598   7.122   6.963   9.610 -0.0196 -0.2128 -0.2450
  911MOL0     C25599   7.072   6.837   9.610  1.3438 -0.2267 -1.1021
  911MOL0     C25600   7.132   6.705   9.668  0.6198 -0.1483  0.5747
  911MOL0     C25601   7.221   6.721   9.790 -0.7384 -0.4377  0.1049
  911MOL0     C25602   7.145   6.743   9.914 -0.0344 -0.3870  0.8581
  911MOL0     C25603   7.061   6.626   9.973  0.6045  0.1209  0.9898
  911MOL0     O25604   7.123   6.497   9.965 -0.4071  1.0454  0.1771
  911MOL0     C25605   7.173   6.447  10.078  0.2697 -0.2311 -0.7659
  911MOL0     C25606   7.097   6.442  10.195 -0.2186 -0.4982 -0.1551
  911MOL0     C25607   7.152   6.394  10.316 -0.1543 -0.4137 -0.0329
  911MOL0     C25608   7.060   6.397  10.441  0.6107 -0.1063 -0.4360
  911MOL0     C25609   7.295   6.360  10.317  0.9697 -0.4692  0.4534
  911MOL0     C25610   7.363   6.295  10.430  0.8000  0.4107  0.5146
  911MOL0     O25611   7.503   6.291  10.429  0.1338  0.1020  0.4169
  911MOL0     C25612   7.554   6.242  10.547  1.1223 -0.0243 -0.6050
  911MOL0     C25613   7.661   6.147  10.548 -0.3641  0.4580 -0.3363
  911MOL0     C25614   7.714   6.103  10.668 -0.1269 -0.5078 -0.5438
  911MOL0     C25615   7.673   6.150  10.789  0.9920 -0.0943 -0.4468
  911MOL0     O25616   7.720   6.123  10.915  0.2469 -0.4879  0.1423
  911MOL0     C25617   7.821   6.024  10.940  0.3253  0.4780 -0.5207
  911MOL0     C25618   7.895   6.032  11.076 -0.3963 -0.5921  0.7591
  911MOL0     C25619   7.963   6.168  11.085  0.2297  0.0589  0.0041
  911MOL0     C25620   7.884   6.298  11.114  0.3687  0.2063  0.6215
  911MOL0     C25621   7.784   6.288  11.221  0.2892  0.4797 -0.0181
  911MOL0     C25622   7.835   6.253  11.360 -0.2981  0.4757 -0.2483
  911MOL0     C25623   7.917   6.375  11.413 -0.0917  0.0691 -1.0837
  911MOL0     C25624   7.982   6.358  11.547 -0.9069  0.3606  0.2584
  911MOL0    Cl25625   7.854   6.349  11.679 -0.2576 -0.2703 -0.1840
  911MOL0     C25626   7.584   6.261  10.786 -0.4350 -0.1654  0.5376
  911MOL0     C25627   7.521   6.308  10.671  0.0317  0.6684 -0.5198
  911MOL0     O25628   7.290   6.255  10.522  0.7977 -0.7722 -0.8837
  911MOL0     C25629   7.370   6.375  10.193  0.1012 -0.4027 -0.1752
  911MOL0     C25630   7.310   6.409  10.079 -0.2978 -0.4020 -0.4820
  911MOL0     N25631   6.957   6.849   9.528 -0.0054 -0.1661 -0.5189
  911MOL0     N25632   6.948   6.960   9.479 -0.8758 -0.9288  0.2114
  911MOL0     C25633   7.957   6.783   8.958  0.5668 -0.1232 -0.9036
  911MOL0     C25634   8.091   6.757   8.939  0.0916 -1.1842 -0.1399
  911MOL0     C25635   8.520   6.729   8.996 -0.2607  0.2198  0.2007
  911MOL0     C25636   8.614   6.833   8.975  0.2171  0.2505 -0.0681
  911MOL0     C25637   8.754   6.813   8.979  0.0896 -0.3652  0.1233
  911MOL0     C25638   8.807   6.686   9.009 -0.2602  0.1066  0.1765
  911MOL0     O25639   8.940   6.657   9.005 -0.3312 -0.4205 -0.1680
  911MOL0     C25640   9.043   6.757   9.005 -0.5279  0.0559 -0.9784
  911MOL0     C25641   9.071   6.796   9.148  0.2665 -0.1880  0.8469
  911MOL0     C25642   9.132   6.687   9.228  0.4835 -0.2941 -0.6103
  911MOL0     C25643   9.152   6.722   9.383 -0.3371 -0.2497 -0.0623
  911MOL0     C25644   9.285   6.784   9.401  0.3905  0.7378  0.5208
  911MOL0     C25645   9.391   6.843   9.414  0.5007 -1.2901  0.4324
  911MOL0     C25646   8.710   6.579   9.036 -0.3984 -0.8829  0.1568
  911MOL0     C25647   8.575   6.598   9.028  0.2926 -1.7052  0.3708
  911MOL0     C25648   8.481   6.475   9.058 -0.9907  0.7227  0.1763
  911MOL0     H25649   8.168   6.628   9.241 -1.3209  1.3157  2.8214
  911MOL0     H25650   7.930   6.669   9.280 -2.3470 -1.6931 -2.5618
  911MOL0     H25651   7.712   6.655   9.233  1.0422 -0.3658 -0.7304
  911MOL0     H25652   7.678   6.610   9.064  3.7294  0.1327  0.3251
  911MOL0     H25653   7.491   6.758   9.070  1.6813 -1.6158 -0.7524
  911MOL0     H25654   7.488   6.674   9.223 -0.9365  0.7036 -0.2530
  911MOL0     H25655   7.572   6.851   9.365  0.2792  3.0673  0.8664
  911MOL0     H25656   7.614   6.951   9.218 -1.9422  1.9972  0.6005
  911MOL0     H25657   7.396   6.982   9.153  0.3819 -1.9720 -1.5576
  911MOL0     H25658   7.321   6.867   9.261 -1.4654  2.0150 -0.4194
  911MOL0     H25659   7.456   7.124   9.347 -1.9548  2.5309  1.4368
  911MOL0     H25660   7.392   6.995   9.453  1.2563 -1.9873 -0.8956
  911MOL0     H25661   7.224   7.162   9.229  1.5988  2.6017  0.7703
  911MOL0     H25662   7.160   7.029   9.331  0.5366 -0.4529  2.2276
  911MOL0     H25663   7.215   7.315   9.407  2.5950 -0.0492  2.1111
  911MOL0     H25664   7.277   7.185   9.512 -0.6049 -2.4479  1.1580
  911MOL0     H25665   7.080   7.242   9.613  1.3230 -0.7034 -0.1436
  911MOL0     H25666   6.983   7.226   9.459 -2.9061 -2.5805  2.2203
  911MOL0     H25667   7.220   6.999   9.641  0.7672 -0.6183 -2.1517
  911MOL0     H25668   7.201   6.670   9.590  0.7135  2.0394 -0.4036
  911MOL0     H25669   7.058   6.626   9.684  2.0532 -1.9471 -1.0832
  911MOL0     H25670   7.285   6.634   9.808  1.3151  0.5276 -2.0283
  911MOL0     H25671   7.297   6.798   9.770  0.9167 -1.7617  0.9893
  911MOL0     H25672   7.212   6.767   9.997 -0.5082 -1.6386  1.6311
  911MOL0     H25673   7.078   6.828   9.898  2.5030  1.1992 -2.7164
  911MOL0     H25674   7.029   6.660  10.072  1.1596 -1.3859  1.7093
  911MOL0     H25675   6.962   6.636   9.927  1.5511  3.6512 -0.6611
  911MOL0     H25676   6.997   6.482  10.187  0.3771  0.9957 -0.5550
  911MOL0     H25677   7.058   6.295  10.480  3.0375 -0.6575 -1.5560
  911MOL0     H25678   6.957   6.418  10.413  0.2634 -0.2021  0.7316
  911MOL0     H25679   7.096   6.470  10.514 -0.2789  0.7922 -0.8683
  911MOL0     H25680   7.691   6.092  10.459  0.9980  0.7851 -0.1029
  911MOL0     H25681   7.797   6.033  10.659 -1.8275 -2.7272  0.0574
  911MOL0     H25682   7.768   5.929  10.951 -2.3282  2.0536  1.6440
  911MOL0     H25683   7.892   6.019  10.856  0.3750  0.4854 -0.4802
  911MOL0     H25684   7.819   6.021  11.153 -1.1034 -3.1416 -0.2030
  911MOL0     H25685   7.963   5.947  11.088  0.2815 -0.1919 -0.0977
  911MOL0     H25686   8.018   6.187  10.992 -2.5607  1.3307 -1.5493
  911MOL0     H25687   8.036   6.156  11.165 -0.9449 -1.1814  0.9409
  911MOL0     H25688   7.838   6.327  11.019 -0.7340 -4.6461 -0.6585
  911MOL0     H25689   7.954   6.377  11.139  3.2705 -1.3826 -1.8338
  911MOL0     H25690   7.734   6.384  11.234  1.3645  1.3961 -2.2020
  911MOL0     H25691   7.708   6.213  11.199  1.7264 -1.4994  1.3897
  911MOL0     H25692   7.897   6.163  11.354 -2.9203 -1.4263 -0.6730
  911MOL0     H25693   7.750   6.228  11.425 -1.0312 -2.5188 -2.1502
  911MOL0     H25694   7.845   6.456  11.425 -2.5602 -2.3592  2.4425
  911MOL0     H25695   7.997   6.400  11.343 -0.1186  0.6379 -0.9136
  911MOL0     H25696   8.049   6.442  11.571 -0.5857 -0.4477  2.4126
  911MOL0     H25697   8.050   6.273  11.541  0.7890  1.7116 -0.8864
  911MOL0     H25698   7.541   6.305  10.875  2.8118  2.3930  1.0081
  911MOL0     H25699   7.434   6.372  10.687 -2.1748 -1.7379 -2.1129
  911MOL0     H25700   7.470   6.335  10.183 -0.9080 -3.0672 -0.5034
  911MOL0     H25701   7.372   6.413   9.990  1.0785 -3.8973  0.1709
  911MOL0     H25702   7.899   6.819   8.874  1.2157 -0.7208 -1.6277
  911MOL0     H25703   8.135   6.804   8.852 -0.1974 -2.2245 -0.8682
  911MOL0     H25704   8.578   6.933   8.951  2.5133  1.0299 -0.4732
  911MOL0     H25705   8.823   6.893   8.957 -1.8110  1.7678  1.4576
  911MOL0     H25706   9.133   6.712   8.961 -0.8016 -1.8769  0.3086
  911MOL0     H25707   9.017   6.842   8.942 -0.1965  0.5405 -0.4681
  911MOL0     H25708   8.973   6.819   9.191 -2.0994  0.3113 -4.1121
  911MOL0     H25709   9.128   6.889   9.152  1.5619 -0.9880  4.5193
  911MOL0     H25710   9.071   6.596   9.219  0.1097 -0.4035  2.1561
  911MOL0     H25711   9.228   6.661   9.181  0.1570 -0.7487 -1.0464
  911MOL0     H25712   9.147   6.636   9.449 -0.0995 -2.0878 -2.3211
  911MOL0     H25713   9.077   6.798   9.408 -1.0282 -1.0936  0.4570
  911MOL0     H25714   9.475   6.909   9.426 -1.4828  1.3741  0.4174
  911MOL0     H25715   8.763   6.485   9.045 -1.0897 -1.1687  1.5099
  911MOL0     H25716   8.426   6.485   9.152 -0.7473  0.9023  0.2995
  911MOL0     H25717   8.403   6.466   8.982 -1.2299  0.0675  0.4889
  911MOL0     H25718   8.541   6.383   9.058  1.2648  2.0870 -1.4247
  912MOL0     O25719   7.334   0.726   2.913 -0.1712 -0.0398  1.4347
  912MOL0     C25720   7.239   0.803   2.909  0.1498 -0.4252 -0.2682
  912MOL0     O25721   7.120   0.782   2.836 -0.3829 -0.4636  0.8869
  912MOL0     C25722   7.134   0.700   2.726  0.7064 -0.4947 -0.8254
  912MOL0     C25723   7.025   0.614   2.702  0.2762  0.5336 -0.1031
  912MOL0     C25724   7.022   0.527   2.588 -0.5704  0.6139  0.4453
  912MOL0     C25725   7.134   0.529   2.505 -0.2613  0.8470  0.2675
  912MOL0     O25726   7.170   0.445   2.401 -0.4319 -1.1540 -0.0153
  912MOL0     C25727   7.122   0.312   2.397 -0.2527  0.0845  0.5801
  912MOL0     C25728   7.210   0.217   2.482 -0.1182  0.0259  0.3384
  912MOL0     C25729   7.333   0.172   2.410  0.0498  0.0750  0.1898
  912MOL0     C25730   7.434   0.101   2.494  0.2841  0.1945  0.8290
  912MOL0     C25731   7.379  -0.020   2.557 -0.1182  0.1671 -0.1545
  912MOL0     C25732   7.468  -0.135   2.599 -0.3530 -1.4161 -1.1876
  912MOL0     C25733   7.575  -0.091   2.696 -0.6446 -1.1360 -1.3360
  912MOL0     C25734   7.512  -0.062   2.832 -0.1086  0.6645 -0.2161
  912MOL0     N25735   7.584  -0.128   2.940  0.7945 -0.4394 -0.2646
  912MOL0     C25736   7.690  -0.062   2.990 -0.5971 -0.2542 -0.2437
  912MOL0     C25737   7.751  -0.157   3.061  0.2967  0.2768 -0.7071
  912MOL0     C25738   7.877  -0.136   3.132  0.0361 -0.5061 -0.1490
  912MOL0     C25739   7.996  -0.207   3.066 -0.8774  0.4197 -0.2073
  912MOL0     C25740   8.004  -0.355   3.117  0.5730  0.5506  0.1070
  912MOL0     C25741   8.134  -0.423   3.066 -0.3398 -0.4175 -0.7608
  912MOL0     O25742   8.156  -0.539   3.143  0.6558 -0.0190  0.7638
  912MOL0     C25743   8.235  -0.626   3.078  0.4313 -0.4811  0.8241
  912MOL0     C25744   8.376  -0.617   3.070 -0.5945 -1.0564  0.5365
  912MOL0     C25745   8.448  -0.714   2.999 -0.4277  0.1042 -0.2682
  912MOL0     C25746   8.599  -0.702   2.987 -0.7321  0.0474 -0.4008
  912MOL0     C25747   8.379  -0.823   2.936 -0.8143 -0.3223 -0.3783
  912MOL0     C25748   8.439  -0.927   2.840  0.7393  0.5755 -0.7182
  912MOL0     O25749   8.456  -1.055   2.879  0.1228  0.3308  0.3777
  912MOL0     C25750   8.377  -1.108   2.987 -0.5881  0.5091  0.9757
  912MOL0     C25751   8.410  -1.077   3.119  0.2564  0.3830  0.3792
  912MOL0     C25752   8.350  -1.140   3.234 -0.0776  0.3733  0.6418
  912MOL0     C25753   8.255  -1.245   3.215 -0.1792 -0.9570 -0.2520
  912MOL0     O25754   8.206  -1.314   3.326 -0.4814 -0.0028 -0.0982
  912MOL0     C25755   8.067  -1.348   3.356 -0.2432  0.7777 -0.2951
  912MOL0     C25756   7.963  -1.240   3.327 -0.1948  1.1217 -0.3274
  912MOL0     C25757   8.017  -1.096   3.355 -0.0081 -0.1858 -0.3782
  912MOL0     C25758   7.900  -0.996   3.367  0.0819 -0.3573  0.7619
  912MOL0     C25759   7.937  -0.858   3.423  0.1373  0.3619  0.3579
  912MOL0     C25760   7.808  -0.797   3.481 -0.0702  0.6832  0.0693
  912MOL0     C25761   7.815  -0.649   3.506 -0.5657  0.2676  0.1864
  912MOL0     C25762   7.841  -0.563   3.376 -0.5469  0.0029 -0.4651
  912MOL0    Cl25763   7.855  -0.387   3.433 -0.3702  0.3579  0.3286
  912MOL0     C25764   8.217  -1.268   3.079 -0.2860  0.3340  0.1150
  912MOL0     C25765   8.279  -1.207   2.970 -0.7470  0.2452  0.0531
  912MOL0     O25766   8.483  -0.880   2.737  0.4949  0.6330 -0.2110
  912MOL0     C25767   8.240  -0.835   2.954  0.4489 -0.2974 -0.2955
  912MOL0     C25768   8.168  -0.736   3.017  0.1446 -0.1456 -0.0570
  912MOL0     N25769   7.684  -0.276   3.054  0.1357  0.5412  0.3530
  912MOL0     N25770   7.577  -0.254   2.993 -0.1278 -0.1476 -0.6375
  912MOL0     C25771   7.245   0.614   2.523  0.1144 -0.0212  0.1020
  912MOL0     C25772   7.244   0.699   2.637  0.4958  0.2562  0.5443
  912MOL0     C25773   7.252   0.939   2.968 -0.0985 -1.0884  0.8424
  912MOL0     C25774   7.158   1.030   2.907  0.2757 -0.9707  0.0114
  912MOL0     C25775   7.166   1.166   2.949 -0.1437  0.3624 -0.9681
  912MOL0     C25776   7.252   1.214   3.053  0.0397 -0.6952  0.2501
  912MOL0     O25777   7.244   1.341   3.097 -0.4970 -0.6156 -0.3226
  912MOL0     C25778   7.119   1.406   3.117  0.5230 -0.7104 -0.0779
  912MOL0     C25779   7.136   1.524   3.214  1.0210  0.1804  0.4631
  912MOL0     C25780   7.237   1.624   3.157 -0.1394 -0.1893  0.3950
  912MOL0     C25781   7.258   1.633   3.006 -0.3853 -0.0663  0.1892
  912MOL0     C25782   7.345   1.748   2.964 -0.1627  0.3577 -0.3796
  912MOL0     C25783   7.406   1.841   2.915 -0.0384 -0.8971 -0.8897
  912MOL0     C25784   7.340   1.125   3.112  0.8346 -0.3172 -0.5664
  912MOL0     C25785   7.348   0.995   3.062  0.6365  0.0854 -0.5261
  912MOL0     C25786   7.434   0.892   3.136 -0.1605 -1.1552  1.2170
  912MOL0     H25787   6.941   0.610   2.770  0.2185 -0.1542 -0.2085
  912MOL0     H25788   6.927   0.475   2.594 -0.6800  0.8745  0.9905
  912MOL0     H25789   7.117   0.270   2.296 -0.2046 -0.0720  0.6411
  912MOL0     H25790   7.020   0.308   2.436 -1.3492  4.6633 -1.2522
  912MOL0     H25791   7.243   0.269   2.573  1.2361 -0.5150  0.1767
  912MOL0     H25792   7.162   0.121   2.499  1.8445 -1.2861 -1.1109
  912MOL0     H25793   7.300   0.112   2.325  2.8746  2.6721 -3.0264
  912MOL0     H25794   7.379   0.258   2.360 -2.1564  1.4011  0.2711
  912MOL0     H25795   7.526   0.080   2.438  0.2297  2.6639 -0.3307
  912MOL0     H25796   7.462   0.177   2.568  3.2724  0.7924 -0.7752
  912MOL0     H25797   7.303  -0.060   2.490 -0.8466 -0.4428  1.0289
  912MOL0     H25798   7.325   0.014   2.645  0.4429 -4.1345  2.1125
  912MOL0     H25799   7.422  -0.223   2.644 -0.0755 -0.6156  0.7407
  912MOL0     H25800   7.518  -0.167   2.507  2.2973  0.0443 -0.3883
  912MOL0     H25801   7.620   0.002   2.661 -2.4415 -0.7539 -2.7438
  912MOL0     H25802   7.653  -0.168   2.701  0.3176 -0.2557 -2.2724
  912MOL0     H25803   7.513   0.047   2.838  1.6642  0.6255  1.0343
  912MOL0     H25804   7.411  -0.102   2.837  0.6457 -1.9441 -2.8423
  912MOL0     H25805   7.715   0.042   2.969  0.8101 -0.6367 -0.5916
  912MOL0     H25806   7.874  -0.170   3.236 -0.5464  0.9052  0.3160
  912MOL0     H25807   7.882  -0.027   3.134 -3.8894 -0.2025 -0.7792
  912MOL0     H25808   7.999  -0.199   2.957  2.7647  2.4354 -0.1045
  912MOL0     H25809   8.086  -0.155   3.099 -1.7367  2.4583 -0.9515
  912MOL0     H25810   7.997  -0.354   3.226  1.8846 -0.8256  0.2353
  912MOL0     H25811   7.915  -0.413   3.090 -0.8209  1.8198  1.7449
  912MOL0     H25812   8.145  -0.424   2.957  0.1478 -0.7873 -0.7152
  912MOL0     H25813   8.212  -0.353   3.095 -0.2484 -0.3876 -1.0688
  912MOL0     H25814   8.418  -0.525   3.108  0.4355 -1.6700  0.9192
  912MOL0     H25815   8.640  -0.621   2.926 -0.8367  0.0551 -0.4607
  912MOL0     H25816   8.639  -0.796   2.947 -0.5475  0.3527 -0.9512
  912MOL0     H25817   8.639  -0.686   3.087  0.6780  0.5667 -1.0185
  912MOL0     H25818   8.484  -1.000   3.142  1.2439  0.3165 -2.2242
  912MOL0     H25819   8.378  -1.109   3.334 -0.5473 -2.5942  1.7849
  912MOL0     H25820   8.041  -1.440   3.302 -3.0234 -0.3146  2.6016
  912MOL0     H25821   8.060  -1.369   3.463  1.8538 -0.3894 -0.3492
  912MOL0     H25822   7.932  -1.254   3.223  0.9480 -4.7546 -0.1795
  912MOL0     H25823   7.873  -1.259   3.387 -2.1806 -0.0339 -3.4238
  912MOL0     H25824   8.085  -1.062   3.276 -0.7776  2.9625  0.1800
  912MOL0     H25825   8.079  -1.101   3.445  2.0605 -2.1544 -1.7817
  912MOL0     H25826   7.827  -1.033   3.440 -1.3457  3.1346  1.2735
  912MOL0     H25827   7.850  -0.973   3.273  3.1082  3.0498 -0.2239
  912MOL0     H25828   8.005  -0.861   3.509 -1.4833 -3.5201  1.7575
  912MOL0     H25829   7.977  -0.804   3.337  1.1764  0.2940  0.7844
  912MOL0     H25830   7.770  -0.847   3.570 -3.5564 -1.9954 -2.6212
  912MOL0     H25831   7.732  -0.808   3.403  2.6828 -2.8674 -2.4488
  912MOL0     H25832   7.889  -0.628   3.584 -3.2880  0.5709  2.8548
  912MOL0     H25833   7.719  -0.626   3.551  0.2186 -0.3243  2.3037
  912MOL0     H25834   7.765  -0.582   3.300 -2.0209  0.3904  0.8589
  912MOL0     H25835   7.938  -0.591   3.334  0.1997 -0.7311  1.6217
  912MOL0     H25836   8.137  -1.337   3.054 -0.6586  0.6296  0.4822
  912MOL0     H25837   8.260  -1.244   2.870 -1.1808 -2.0418  0.9389
  912MOL0     H25838   8.188  -0.922   2.915  2.2702 -1.7554  0.4223
  912MOL0     H25839   8.062  -0.757   3.026 -0.1614  0.3078 -2.2482
  912MOL0     H25840   7.324   0.606   2.450 -1.0886 -2.7086 -1.0398
  912MOL0     H25841   7.336   0.753   2.658 -0.8869  3.8945 -1.6467
  912MOL0     H25842   7.071   1.022   2.843  1.1528 -0.5596 -1.2638
  912MOL0     H25843   7.107   1.241   2.897  0.6145  3.0021  1.6594
  912MOL0     H25844   7.060   1.438   3.030 -1.8947 -1.2881  1.2766
  912MOL0     H25845   7.045   1.338   3.159  2.0768 -3.5015 -1.5416
  912MOL0     H25846   7.174   1.475   3.304  2.2954  0.6092  0.1723
  912MOL0     H25847   7.045   1.584   3.220  1.1506  0.7242 -1.8890
  912MOL0     H25848   7.214   1.728   3.181 -0.8965 -0.8498  2.7669
  912MOL0     H25849   7.335   1.595   3.197 -0.1777 -0.6395  0.1738
  912MOL0     H25850   7.172   1.654   2.942 -0.4284 -2.4007 -0.6210
  912MOL0     H25851   7.300   1.539   2.968  0.3297 -0.1814  1.2302
  912MOL0     H25852   7.465   1.900   2.849  2.1332  2.4614  3.4804
  912MOL0     H25853   7.422   1.164   3.171  1.5269  2.5358 -3.1698
  912MOL0     H25854   7.519   0.884   3.067 -1.6228 -3.7890 -0.4607
  912MOL0     H25855   7.463   0.929   3.235  1.0812 -2.1830  1.2616
  912MOL0     H25856   7.382   0.796   3.146 -1.0263 -0.8381  0.0475
  913MOL0     O25857   0.134   4.276   3.165 -0.3781  0.1174 -0.3018
  913MOL0     C25858   0.166   4.174   3.228  0.4373  0.3253 -0.7822
  913MOL0     O25859   0.077   4.071   3.253  0.5814 -0.2179  0.0442
  913MOL0     C25860  -0.051   4.084   3.208  0.5138 -0.4421  0.0766
  913MOL0     C25861  -0.135   4.185   3.260  0.3084  0.2767  0.4076
  913MOL0     C25862  -0.265   4.176   3.229  0.1749 -0.1752 -0.1179
  913MOL0     C25863  -0.328   4.093   3.137  0.3600  0.3229  0.1401
  913MOL0     O25864  -0.464   4.093   3.116 -0.1873 -0.3843  0.8855
  913MOL0     C25865  -0.527   3.961   3.115  0.0274 -0.4998  1.0902
  913MOL0     C25866  -0.673   3.957   3.147 -0.0065 -0.1635 -0.8478
  913MOL0     C25867  -0.705   3.971   3.298  0.0739  0.1072 -0.1573
  913MOL0     C25868  -0.745   4.117   3.339  0.6928 -0.4583  0.5976
  913MOL0     C25869  -0.722   4.135   3.488 -0.5996 -0.2098 -0.9965
  913MOL0     C25870  -0.740   4.276   3.541 -0.3095  0.0735  0.5972
  913MOL0     C25871  -0.885   4.317   3.587  0.7107 -0.1253  1.3343
  913MOL0     C25872  -0.996   4.300   3.489  1.0719  0.9786  0.3350
  913MOL0     N25873  -1.109   4.395   3.523  0.1050  0.6167  0.8382
  913MOL0     C25874  -1.208   4.368   3.618  0.0507 -0.2803  0.6364
  913MOL0     C25875  -1.276   4.490   3.614  0.3784  1.4019  0.6030
  913MOL0     C25876  -1.405   4.503   3.698  0.1528 -0.5358  0.6330
  913MOL0     C25877  -1.508   4.413   3.624  0.3071  0.5213 -0.6686
  913MOL0     C25878  -1.611   4.361   3.730  0.0190 -0.6027 -0.7077
  913MOL0     C25879  -1.729   4.297   3.657  0.0728  0.2096  0.1949
  913MOL0     O25880  -1.813   4.236   3.760  0.1282 -0.2503  0.0485
  913MOL0     C25881  -1.926   4.166   3.711  1.3615 -0.5167 -0.8410
  913MOL0     C25882  -1.973   4.151   3.579 -0.9207 -0.5488  0.3175
  913MOL0     C25883  -2.092   4.099   3.545 -0.6304  0.2790 -0.2004
  913MOL0     C25884  -2.122   4.106   3.395 -0.2412 -1.1799  0.1156
  913MOL0     C25885  -2.175   4.049   3.648 -0.5655 -0.5169 -0.2794
  913MOL0     C25886  -2.307   3.973   3.622 -0.5156  0.1490  0.1575
  913MOL0     O25887  -2.345   3.947   3.488 -0.6368 -0.4473 -0.5829
  913MOL0     C25888  -2.474   3.919   3.458 -0.3290 -0.0883 -0.1246
  913MOL0     C25889  -2.588   3.957   3.525  0.0042 -0.0729 -0.6299
  913MOL0     C25890  -2.710   3.929   3.486  0.3669  0.3842 -0.0339
  913MOL0     C25891  -2.730   3.866   3.359  0.4843  0.5750 -0.0718
  913MOL0     O25892  -2.839   3.849   3.286  0.8212 -0.5032  0.1696
  913MOL0     C25893  -2.963   3.858   3.350  0.0923  0.7086 -0.3218
  913MOL0     C25894  -3.077   3.817   3.253  0.1923  0.3640 -0.7351
  913MOL0     C25895  -3.216   3.808   3.329  0.7531 -0.9871  0.6745
  913MOL0     C25896  -3.340   3.827   3.234  0.2839 -0.0466 -0.0622
  913MOL0     C25897  -3.469   3.803   3.318 -0.4410  0.1721 -0.1232
  913MOL0     C25898  -3.593   3.813   3.231 -1.0746 -1.1039  0.7466
  913MOL0     C25899  -3.719   3.802   3.311 -1.0258  0.4734  1.0289
  913MOL0     C25900  -3.824   3.716   3.232 -0.1012  0.1457 -0.5010
  913MOL0    Cl25901  -3.961   3.669   3.344  0.4867  0.1261  0.2309
  913MOL0     C25902  -2.622   3.823   3.291  0.0672  0.0391  0.3895
  913MOL0     C25903  -2.498   3.851   3.343  0.6110  0.1162  1.0785
  913MOL0     O25904  -2.370   3.943   3.719 -0.8543  0.6134 -0.6478
  913MOL0     C25905  -2.135   4.070   3.781  0.2576 -0.1941 -0.6232
  913MOL0     C25906  -2.012   4.124   3.808  0.3520 -0.0854  0.5390
  913MOL0     N25907  -1.226   4.571   3.515 -0.3885  0.6720  0.0626
  913MOL0     N25908  -1.122   4.515   3.466  0.3737  0.1304  0.0874
  913MOL0     C25909  -0.242   3.994   3.093  0.2395 -0.2886  0.7426
  913MOL0     C25910  -0.106   3.986   3.122 -0.5324  0.6401 -0.6898
  913MOL0     C25911   0.303   4.167   3.277  0.9717  0.3311  0.5113
  913MOL0     C25912   0.369   4.285   3.300  0.2818 -0.1933 -0.1905
  913MOL0     C25913   0.493   4.286   3.368  0.5451 -0.2772 -0.2662
  913MOL0     C25914   0.558   4.169   3.397  0.3738 -1.1376  0.8368
  913MOL0     O25915   0.683   4.186   3.450  0.3263 -0.1331 -0.4332
  913MOL0     C25916   0.754   4.070   3.504 -0.4588 -0.6133 -0.0839
  913MOL0     C25917   0.846   4.133   3.619 -1.1877  0.5100 -0.2694
  913MOL0     C25918   0.988   4.070   3.609 -0.1783 -0.1252  0.0783
  913MOL0     C25919   1.072   4.094   3.731  0.4248  0.0962 -0.2762
  913MOL0     C25920   1.199   4.033   3.706 -0.3752  0.2420 -0.0605
  913MOL0     C25921   1.310   3.985   3.705 -0.6248  0.2722  0.9520
  913MOL0     C25922   0.493   4.048   3.365  0.6210  0.1573  0.0677
  913MOL0     C25923   0.362   4.043   3.304 -0.9264 -0.0195  0.8784
  913MOL0     C25924   0.301   3.903   3.287 -0.3400 -0.2586 -0.2123
  913MOL0     H25925  -0.094   4.252   3.335 -1.8060  0.6471  1.3145
  913MOL0     H25926  -0.322   4.257   3.274  0.7450 -0.3748  0.9878
  913MOL0     H25927  -0.468   3.892   3.175  0.3677  1.3948  3.0471
  913MOL0     H25928  -0.531   3.932   3.009  0.5695  0.1478  0.8860
  913MOL0     H25929  -0.730   4.012   3.072 -1.9746 -2.8472 -1.4748
  913MOL0     H25930  -0.716   3.859   3.125 -0.2046 -0.1677 -0.4553
  913MOL0     H25931  -0.779   3.896   3.325 -0.6582  0.8115 -0.1604
  913MOL0     H25932  -0.611   3.957   3.354 -0.2735 -2.0067 -0.0443
  913MOL0     H25933  -0.680   4.190   3.290  2.5469 -1.7218  1.0186
  913MOL0     H25934  -0.847   4.137   3.307  0.3740  1.2549  2.4621
  913MOL0     H25935  -0.618   4.110   3.513 -0.1186  0.0298 -2.6732
  913MOL0     H25936  -0.793   4.068   3.537 -0.0788 -0.1827 -0.1850
  913MOL0     H25937  -0.672   4.292   3.625  2.3902 -2.0001 -1.0502
  913MOL0     H25938  -0.703   4.343   3.464 -1.3396 -0.2197 -0.1826
  913MOL0     H25939  -0.893   4.423   3.614  1.4158  0.2560  0.1199
  913MOL0     H25940  -0.908   4.251   3.671 -2.5104 -1.5451 -0.4732
  913MOL0     H25941  -0.966   4.302   3.384 -2.6109 -2.1043 -0.9854
  913MOL0     H25942  -1.028   4.196   3.501 -0.5056  1.4336  0.1946
  913MOL0     H25943  -1.239   4.278   3.670 -0.1843 -1.2721 -1.1499
  913MOL0     H25944  -1.436   4.608   3.704 -0.9174 -0.8830  1.3915
  913MOL0     H25945  -1.390   4.470   3.801 -0.9125 -0.7897  0.7115
  913MOL0     H25946  -1.562   4.468   3.546  1.1843  0.1492 -1.5459
  913MOL0     H25947  -1.468   4.322   3.578 -3.6251 -2.4755  1.2148
  913MOL0     H25948  -1.559   4.289   3.793  0.4238  0.2342 -0.0663
  913MOL0     H25949  -1.657   4.441   3.789  0.7296 -1.6031  1.2655
  913MOL0     H25950  -1.775   4.371   3.591  0.3694  1.9092  1.8153
  913MOL0     H25951  -1.691   4.213   3.599  0.8048  0.3534  0.4494
  913MOL0     H25952  -1.910   4.199   3.505 -0.2373  1.6151  2.1480
  913MOL0     H25953  -2.147   4.011   3.345  1.4447 -0.9323 -1.2682
  913MOL0     H25954  -2.047   4.145   3.327 -2.5398 -0.4676 -2.1843
  913MOL0     H25955  -2.207   4.173   3.378  0.8288  0.0863 -0.4118
  913MOL0     H25956  -2.579   4.032   3.603  0.0143  0.7552 -1.4099
  913MOL0     H25957  -2.786   3.975   3.548  1.2722  2.7048 -0.5409
  913MOL0     H25958  -2.967   3.791   3.436  0.5605  1.0252 -0.0474
  913MOL0     H25959  -2.982   3.961   3.384  2.2681  0.3556  2.3063
  913MOL0     H25960  -3.084   3.883   3.166 -0.9395  0.6310 -0.4610
  913MOL0     H25961  -3.052   3.719   3.212 -1.8837 -0.9887  1.0436
  913MOL0     H25962  -3.213   3.883   3.408  1.4632  1.0783 -1.1885
  913MOL0     H25963  -3.235   3.711   3.375 -2.0900 -0.5723  0.5580
  913MOL0     H25964  -3.330   3.761   3.147 -0.3813  2.1137 -1.8838
  913MOL0     H25965  -3.342   3.928   3.191 -1.1170 -0.2024 -0.4131
  913MOL0     H25966  -3.463   3.702   3.358  0.5355 -0.1225 -0.9712
  913MOL0     H25967  -3.463   3.868   3.406  0.6540 -1.3591  0.9891
  913MOL0     H25968  -3.589   3.744   3.147  0.5189  2.5296 -2.4471
  913MOL0     H25969  -3.580   3.911   3.186  2.4862 -0.2355  3.1836
  913MOL0     H25970  -3.748   3.907   3.323  3.7110  1.8199  2.7747
  913MOL0     H25971  -3.702   3.744   3.401 -0.5738 -0.1182  0.5693
  913MOL0     H25972  -3.783   3.629   3.182 -1.3756 -1.5409  1.2304
  913MOL0     H25973  -3.887   3.773   3.163 -1.1301  2.6011  2.2152
  913MOL0     H25974  -2.642   3.772   3.197  0.7844  0.0746  0.2138
  913MOL0     H25975  -2.407   3.810   3.301 -0.9085 -1.8296 -0.5222
  913MOL0     H25976  -2.193   4.029   3.862 -0.4035 -1.5332 -1.7448
  913MOL0     H25977  -1.983   4.129   3.913 -1.3023  0.7756  0.9961
  913MOL0     H25978  -0.270   3.907   3.034  2.6270 -0.6398  0.0277
  913MOL0     H25979  -0.055   3.900   3.082 -0.2630  0.2800  0.4033
  913MOL0     H25980   0.329   4.378   3.261  0.9807 -0.3671 -1.3562
  913MOL0     H25981   0.557   4.372   3.388 -0.8414  0.4263  1.3788
  913MOL0     H25982   0.694   3.991   3.549 -1.8931 -0.6980 -2.0040
  913MOL0     H25983   0.817   4.028   3.425  0.0347 -0.0557  0.0098
  913MOL0     H25984   0.815   4.109   3.722  2.1735 -0.0139  0.7474
  913MOL0     H25985   0.858   4.241   3.608  1.5709  0.4772  1.4621
  913MOL0     H25986   0.983   3.962   3.591  1.5858  0.2064 -3.0680
  913MOL0     H25987   1.041   4.121   3.528 -0.9687 -1.9092 -1.6519
  913MOL0     H25988   1.026   4.040   3.813  0.1722  1.6542  0.6515
  913MOL0     H25989   1.092   4.201   3.746 -0.5445  1.1256 -4.7752
  913MOL0     H25990   1.409   3.947   3.688  0.5855  2.4530  2.5875
  913MOL0     H25991   0.534   3.951   3.393 -0.5753 -0.5665 -0.6367
  913MOL0     H25992   0.232   3.882   3.370  1.5431 -2.6065  0.9075
  913MOL0     H25993   0.238   3.915   3.199 -0.5395  2.0896  0.1978
  913MOL0     H25994   0.369   3.817   3.278  0.1477 -0.5676  4.2062
  914MOL0     O25995   5.013   1.521   3.245  0.5320 -0.1968 -0.5597
  914MOL0     C25996   5.100   1.552   3.160 -0.5961 -0.2789  0.2879
  914MOL0     O25997   5.113   1.683   3.103 -1.1145 -0.5444  0.5050
  914MOL0     C25998   5.037   1.777   3.164  0.7070 -0.2886 -0.5543
  914MOL0     C25999   5.073   1.816   3.302  0.2215  0.6297  0.5787
  914MOL0     C26000   5.010   1.929   3.361 -0.2701  0.3706  0.5161
  914MOL0     C26001   4.909   1.998   3.293 -0.4278  0.3421  0.4738
  914MOL0     O26002   4.846   2.105   3.342 -0.1395  0.4065 -0.4202
  914MOL0     C26003   4.783   2.093   3.471 -0.8002 -1.3703 -0.7579
  914MOL0     C26004   4.725   2.234   3.493  0.1765  1.4797  0.0462
  914MOL0     C26005   4.587   2.243   3.412 -0.6218 -0.2008 -0.5115
  914MOL0     C26006   4.557   2.379   3.366  0.2178  0.9465  0.5705
  914MOL0     C26007   4.422   2.370   3.281 -0.6125 -0.2371 -1.0298
  914MOL0     C26008   4.295   2.336   3.344 -0.9211 -0.4866  0.5919
  914MOL0     C26009   4.184   2.364   3.240 -0.0469  0.4054 -0.3547
  914MOL0     C26010   4.052   2.324   3.296 -0.3088  0.1734 -0.0621
  914MOL0     N26011   3.942   2.372   3.202 -0.3722 -0.6910  0.0948
  914MOL0     C26012   3.807   2.339   3.214  0.2138 -1.2206  0.3846
  914MOL0     C26013   3.741   2.423   3.124 -0.3039  0.2618  0.3005
  914MOL0     C26014   3.593   2.438   3.093 -0.4030  0.2399  0.2093
  914MOL0     C26015   3.564   2.498   2.958  0.0964 -0.0769  0.0926
  914MOL0     C26016   3.415   2.495   2.924  0.8288  0.2743  0.6447
  914MOL0     C26017   3.366   2.557   2.794 -0.7262 -0.2014  0.2859
  914MOL0     O26018   3.223   2.531   2.788  0.3493 -0.3148  0.5907
  914MOL0     C26019   3.155   2.537   2.674  0.0242 -0.5857 -0.6225
  914MOL0     C26020   3.195   2.613   2.570 -0.0200  0.5118 -0.8849
  914MOL0     C26021   3.114   2.624   2.459 -0.3221 -0.7822 -0.5285
  914MOL0     C26022   3.166   2.717   2.348 -0.1774 -0.4908 -0.3110
  914MOL0     C26023   2.994   2.564   2.452  0.8603  0.0699  0.5020
  914MOL0     C26024   2.895   2.572   2.339  0.2003 -0.2046 -1.2095
  914MOL0     O26025   2.768   2.572   2.378 -0.2146  0.4852  0.2500
  914MOL0     C26026   2.691   2.579   2.268 -0.2877 -1.5433  0.4403
  914MOL0     C26027   2.633   2.700   2.233 -0.4741  0.2086 -0.4559
  914MOL0     C26028   2.561   2.713   2.109  1.1021 -0.0701  0.0477
  914MOL0     C26029   2.539   2.599   2.034  0.1070  0.4388  0.2929
  914MOL0     O26030   2.451   2.607   1.931  0.5961 -0.3577  0.0895
  914MOL0     C26031   2.501   2.588   1.799  0.0849 -0.2838 -0.3149
  914MOL0     C26032   2.536   2.729   1.730 -0.0281  0.1192  0.6006
  914MOL0     C26033   2.547   2.708   1.570 -1.4359 -0.6898 -0.2785
  914MOL0     C26034   2.617   2.838   1.524  0.4346 -0.8883 -0.5954
  914MOL0     C26035   2.666   2.829   1.376  0.3285 -0.3518 -0.1672
  914MOL0     C26036   2.806   2.774   1.386  0.1844  1.1597 -0.2662
  914MOL0     C26037   2.882   2.765   1.256  0.0460  0.5458  0.5773
  914MOL0     C26038   2.979   2.881   1.254 -0.1216  0.9303  0.5460
  914MOL0    Cl26039   2.905   3.030   1.299 -0.2551 -0.5053  0.0815
  914MOL0     C26040   2.577   2.475   2.080  0.6685 -0.6568 -0.2649
  914MOL0     C26041   2.658   2.464   2.192  0.1150 -0.1566 -0.8691
  914MOL0     O26042   2.940   2.582   2.229  0.1700  0.3065  0.5303
  914MOL0     C26043   2.956   2.483   2.570 -0.1394 -0.5524 -1.0983
  914MOL0     C26044   3.041   2.470   2.677 -0.0141  1.2185 -0.2991
  914MOL0     N26045   3.843   2.490   3.049  0.0210 -0.0001 -0.4851
  914MOL0     N26046   3.956   2.464   3.097 -0.5500 -0.9515  0.0912
  914MOL0     C26047   4.879   1.962   3.164 -0.6018 -0.5468 -0.1025
  914MOL0     C26048   4.939   1.846   3.100  0.0116  0.5380  0.2328
  914MOL0     C26049   5.168   1.454   3.076  0.1897  0.8910  0.4671
  914MOL0     C26050   5.182   1.493   2.945 -0.4979 -0.3228  0.5633
  914MOL0     C26051   5.241   1.409   2.846  0.4253 -0.4689 -0.1854
  914MOL0     C26052   5.316   1.294   2.884  0.2057  0.9567  0.6917
  914MOL0     O26053   5.357   1.213   2.778 -0.5775  0.6560 -0.3854
  914MOL0     C26054   5.402   1.082   2.785 -1.1740 -0.3757 -0.2360
  914MOL0     C26055   5.293   0.978   2.838 -0.9775  0.1136 -0.4491
  914MOL0     C26056   5.312   0.848   2.756  0.3653 -0.5043  0.0066
  914MOL0     C26057   5.212   0.738   2.785 -0.3627  0.8560 -0.1808
  914MOL0     C26058   5.248   0.603   2.740  0.3413  0.3195 -0.0493
  914MOL0     C26059   5.292   0.496   2.701 -0.5781 -0.1027 -0.2113
  914MOL0     C26060   5.316   1.262   3.016 -0.7364 -0.7366 -0.3846
  914MOL0     C26061   5.245   1.339   3.115 -0.6093  0.3675  0.3163
  914MOL0     C26062   5.257   1.298   3.265  0.8541  0.1759 -0.1564
  914MOL0     H26063   5.131   1.749   3.364 -0.9637  0.6795  1.7798
  914MOL0     H26064   5.042   1.982   3.451  1.1507  0.5058 -0.0402
  914MOL0     H26065   4.850   2.071   3.555 -0.7552 -1.1495 -0.7371
  914MOL0     H26066   4.712   2.010   3.465  1.5832 -3.4720 -2.0761
  914MOL0     H26067   4.700   2.240   3.600 -0.3786 -2.4396  0.3050
  914MOL0     H26068   4.793   2.316   3.470 -0.9481  2.7018  0.9066
  914MOL0     H26069   4.593   2.174   3.328 -0.0585 -0.5182 -0.2163
  914MOL0     H26070   4.502   2.207   3.471  1.0092  3.0926  4.5623
  914MOL0     H26071   4.528   2.447   3.447 -3.4383 -0.5485  0.6999
  914MOL0     H26072   4.635   2.417   3.300  0.5528 -0.6730 -0.0057
  914MOL0     H26073   4.443   2.298   3.201  0.2057 -1.9344  0.6416
  914MOL0     H26074   4.412   2.473   3.245  2.3608  0.2023 -0.9005
  914MOL0     H26075   4.292   2.235   3.386 -0.7886 -0.5266  0.5055
  914MOL0     H26076   4.270   2.396   3.433 -1.7968 -1.1525  0.8078
  914MOL0     H26077   4.210   2.317   3.145  3.1978  1.8394 -0.3153
  914MOL0     H26078   4.163   2.471   3.227 -5.0233 -0.5486 -2.2418
  914MOL0     H26079   4.046   2.216   3.312  1.7602  0.4377  3.9896
  914MOL0     H26080   4.035   2.360   3.398 -1.9125 -2.4615  0.6973
  914MOL0     H26081   3.762   2.257   3.268  1.6379 -1.5463  1.1142
  914MOL0     H26082   3.542   2.503   3.164 -2.9267 -3.0297  1.6849
  914MOL0     H26083   3.549   2.338   3.101  0.8715 -0.3302  0.4996
  914MOL0     H26084   3.611   2.596   2.952 -0.7988  0.2782 -2.1318
  914MOL0     H26085   3.613   2.441   2.878 -1.1077 -0.6475 -0.2681
  914MOL0     H26086   3.382   2.392   2.939  1.1934  0.4633  3.1100
  914MOL0     H26087   3.371   2.560   3.000  1.8939  0.8282  0.8162
  914MOL0     H26088   3.377   2.665   2.784 -1.9988 -0.1625 -1.1069
  914MOL0     H26089   3.415   2.490   2.722 -0.0023 -0.3178  0.8724
  914MOL0     H26090   3.288   2.669   2.573  1.8592 -2.4165 -0.7719
  914MOL0     H26091   3.169   2.671   2.248  0.5314  2.1223 -1.5671
  914MOL0     H26092   3.270   2.739   2.373  0.0418  0.3438 -1.8425
  914MOL0     H26093   3.118   2.815   2.338  2.7488  1.2125  1.1245
  914MOL0     H26094   2.657   2.784   2.298  1.1893 -0.9349  0.4890
  914MOL0     H26095   2.510   2.793   2.057 -0.3870  0.1729  1.7732
  914MOL0     H26096   2.577   2.510   1.791  0.2566 -0.2760  1.0838
  914MOL0     H26097   2.422   2.549   1.734 -2.4655 -1.1684  3.0522
  914MOL0     H26098   2.454   2.796   1.758  0.0001 -0.5103  2.3631
  914MOL0     H26099   2.628   2.771   1.772 -0.3712  2.0642 -0.4576
  914MOL0     H26100   2.454   2.688   1.516 -3.3786 -0.1869  2.6325
  914MOL0     H26101   2.611   2.623   1.545 -2.0463 -1.3314  0.3003
  914MOL0     H26102   2.702   2.861   1.590 -0.2035  1.3949 -0.4846
  914MOL0     H26103   2.560   2.928   1.547 -1.6977 -1.9875 -1.3658
  914MOL0     H26104   2.596   2.774   1.312 -1.6161  3.2928 -1.5491
  914MOL0     H26105   2.663   2.930   1.333  2.2530 -0.1320  0.1560
  914MOL0     H26106   2.800   2.674   1.429 -1.9097  1.5635  0.5346
  914MOL0     H26107   2.861   2.831   1.461  1.4895 -0.1963 -0.1471
  914MOL0     H26108   2.813   2.775   1.172  0.0478  0.9472  0.6239
  914MOL0     H26109   2.935   2.669   1.246  0.7785  0.6602  2.7540
  914MOL0     H26110   3.024   2.886   1.155  0.5883  2.6603  0.9227
  914MOL0     H26111   3.058   2.863   1.327 -0.2456  0.5148  0.5770
  914MOL0     H26112   2.568   2.388   2.016  0.0619  1.4164 -3.2556
  914MOL0     H26113   2.705   2.372   2.224 -2.1749 -0.3922  2.3315
  914MOL0     H26114   2.863   2.431   2.555 -0.9108  0.6586 -0.6988
  914MOL0     H26115   3.024   2.418   2.771  2.4741 -1.5840 -1.2241
  914MOL0     H26116   4.803   2.021   3.112 -2.1135 -1.9423  0.4684
  914MOL0     H26117   4.903   1.830   2.999 -4.1254  3.6343  0.9530
  914MOL0     H26118   5.122   1.577   2.910 -0.4679 -0.5598 -0.0592
  914MOL0     H26119   5.257   1.439   2.743  0.5215 -0.9524 -0.3143
  914MOL0     H26120   5.445   1.048   2.690  1.2701  0.2568  0.5554
  914MOL0     H26121   5.480   1.090   2.862 -0.4917 -0.0999 -0.9388
  914MOL0     H26122   5.194   1.025   2.835 -1.5364 -0.6718  2.5493
  914MOL0     H26123   5.311   0.954   2.943  0.2961 -3.5622 -1.3750
  914MOL0     H26124   5.297   0.874   2.651 -0.5030 -1.1038 -0.0280
  914MOL0     H26125   5.415   0.814   2.769  2.3671  4.6238 -0.3392
  914MOL0     H26126   5.115   0.764   2.742 -0.0704  3.6787  0.6670
  914MOL0     H26127   5.190   0.737   2.892  0.5733  2.7191  0.0542
  914MOL0     H26128   5.329   0.398   2.677  1.9445  1.2550 -2.3556
  914MOL0     H26129   5.374   1.177   3.050  2.1233  0.8892 -0.8385
  914MOL0     H26130   5.155   1.284   3.299  1.1426  0.4478  0.8474
  914MOL0     H26131   5.308   1.204   3.286 -2.8900 -2.2741 -1.0780
  914MOL0     H26132   5.301   1.379   3.325 -1.5530  3.5519 -2.5157
  915MOL0     O26133   1.026   7.387   8.744  0.7153  0.2569 -0.3334
  915MOL0     C26134   1.087   7.276   8.736  0.5161 -0.2782 -1.2980
  915MOL0     O26135   1.123   7.214   8.616  0.5317 -0.0630  0.8324
  915MOL0     C26136   1.071   7.258   8.501  2.0730 -0.6107  0.6720
  915MOL0     C26137   0.933   7.273   8.473  0.0517  0.1110  1.2269
  915MOL0     C26138   0.894   7.317   8.347 -0.4336 -0.4136  0.1349
  915MOL0     C26139   0.986   7.342   8.242  0.3689 -1.2135 -0.4132
  915MOL0     O26140   0.949   7.369   8.112 -0.0886  0.4902 -0.5860
  915MOL0     C26141   0.836   7.459   8.085  0.1604  0.3531 -1.1188
  915MOL0     C26142   0.871   7.606   8.121 -0.2241  0.5699 -0.6786
  915MOL0     C26143   0.831   7.645   8.262 -0.8725 -0.0577 -0.1916
  915MOL0     C26144   0.690   7.713   8.270  0.1909 -0.3743 -0.0270
  915MOL0     C26145   0.562   7.630   8.279  0.6861 -0.8384  0.6764
  915MOL0     C26146   0.522   7.601   8.433  0.6735  0.7484 -0.3282
  915MOL0     C26147   0.397   7.511   8.458 -0.4329  0.5067 -0.2080
  915MOL0     C26148   0.401   7.371   8.389 -0.4370 -0.2629  0.1401
  915MOL0     N26149   0.293   7.292   8.449  0.4307  0.0805 -0.4295
  915MOL0     C26150   0.278   7.251   8.580  0.5918 -0.0257  0.0365
  915MOL0     C26151   0.149   7.203   8.582 -0.2240 -0.5838 -0.7039
  915MOL0     C26152   0.080   7.142   8.700  0.4139 -0.4841 -0.0724
  915MOL0     C26153   0.120   6.995   8.748  1.2559 -0.4406  0.4135
  915MOL0     C26154   0.020   6.942   8.854  0.1401 -0.2801 -0.0388
  915MOL0     C26155   0.047   6.802   8.885  0.5744  0.4922 -0.8887
  915MOL0     O26156   0.013   6.771   9.025 -0.2484  0.4364  0.0830
  915MOL0     C26157  -0.057   6.652   9.041 -0.4998  0.4279  0.4883
  915MOL0     C26158   0.012   6.545   9.107 -0.9667  0.3742 -0.3891
  915MOL0     C26159  -0.036   6.415   9.123 -0.5951  0.9410  1.7398
  915MOL0     C26160   0.060   6.314   9.189  0.1305  0.4581 -0.7189
  915MOL0     C26161  -0.163   6.381   9.064  0.3250  0.1914  0.0546
  915MOL0     C26162  -0.238   6.261   9.080  0.9302 -0.0947 -0.3993
  915MOL0     O26163  -0.368   6.255   9.028  0.2669 -0.9109 -1.2303
  915MOL0     C26164  -0.440   6.152   9.073 -0.6374 -0.5916  0.2354
  915MOL0     C26165  -0.443   6.036   9.000  0.5884  0.5491 -0.2739
  915MOL0     C26166  -0.491   5.915   9.062 -0.6206  0.7184  2.0458
  915MOL0     C26167  -0.553   5.915   9.189 -0.0351  0.6500  0.4335
  915MOL0     O26168  -0.605   5.799   9.252 -0.4353  0.2204 -0.4475
  915MOL0     C26169  -0.684   5.729   9.154  0.3037 -0.2602  1.1832
  915MOL0     C26170  -0.737   5.597   9.208 -0.4832 -1.1005  0.4122
  915MOL0     C26171  -0.848   5.509   9.132  0.5494 -0.5012 -0.0289
  915MOL0     C26172  -0.867   5.378   9.206  0.6862 -0.5413 -0.0953
  915MOL0     C26173  -1.005   5.376   9.275 -0.1352 -0.4839  0.5494
  915MOL0     C26174  -1.121   5.314   9.201 -0.4033  0.3348  0.6887
  915MOL0     C26175  -1.143   5.367   9.068  0.6039  0.4598  0.3389
  915MOL0     C26176  -1.287   5.337   9.015 -1.1072  0.6422 -0.3018
  915MOL0    Cl26177  -1.345   5.178   9.044 -0.2550 -0.2297 -0.3209
  915MOL0     C26178  -0.556   6.034   9.254 -0.0059  0.0836  0.1384
  915MOL0     C26179  -0.495   6.153   9.202  0.6221  0.7595 -0.8382
  915MOL0     O26180  -0.183   6.166   9.133 -0.1571 -0.2957 -0.3333
  915MOL0     C26181  -0.230   6.494   8.998 -0.5119 -0.4410  0.0013
  915MOL0     C26182  -0.176   6.621   8.993  0.6913 -0.4039 -0.4369
  915MOL0     N26183   0.099   7.202   8.459  0.2693 -0.2890 -0.3755
  915MOL0     N26184   0.176   7.258   8.377 -0.0176  0.6286 -0.0978
  915MOL0     C26185   1.124   7.335   8.274 -0.1285 -0.0604 -0.3749
  915MOL0     C26186   1.163   7.292   8.402  0.2303  0.3617  0.0772
  915MOL0     C26187   1.107   7.196   8.858  0.1856 -1.1832  0.3186
  915MOL0     C26188   1.141   7.065   8.837  0.3052 -0.1494  0.0095
  915MOL0     C26189   1.163   6.980   8.938  1.0881  0.2240  0.7068
  915MOL0     C26190   1.142   7.020   9.066  0.3935 -0.6253 -0.5220
  915MOL0     O26191   1.153   6.941   9.178  0.2139  0.2679 -0.1394
  915MOL0     C26192   1.206   6.811   9.162 -0.3061 -0.0376 -0.7139
  915MOL0     C26193   1.237   6.744   9.298 -0.4445 -0.7057  1.1863
  915MOL0     C26194   1.295   6.597   9.285 -0.4730  0.0699  0.1580
  915MOL0     C26195   1.437   6.588   9.226 -0.5340  0.1074 -1.1482
  915MOL0     C26196   1.438   6.598   9.080  0.4864  0.4623  0.7192
  915MOL0     C26197   1.456   6.624   8.963 -0.0427  0.0545 -0.0412
  915MOL0     C26198   1.094   7.149   9.086 -1.4193  1.0613 -0.7699
  915MOL0     C26199   1.080   7.245   8.989 -0.1242  0.3703  0.0708
  915MOL0     C26200   1.005   7.374   9.030 -0.7451  0.2600  0.4762
  915MOL0     H26201   0.849   7.266   8.541  0.0359  3.7320  1.7705
  915MOL0     H26202   0.787   7.332   8.339 -0.7835 -2.0011  1.2955
  915MOL0     H26203   0.753   7.417   8.143 -1.7319  1.8066 -2.6002
  915MOL0     H26204   0.808   7.445   7.980  0.8589 -5.3540 -0.8311
  915MOL0     H26205   0.980   7.614   8.122 -0.1156  0.9582 -3.9215
  915MOL0     H26206   0.837   7.676   8.045  2.5600  1.0875 -1.5535
  915MOL0     H26207   0.816   7.558   8.326 -0.0614  0.4265  0.6905
  915MOL0     H26208   0.897   7.725   8.298  0.9242 -1.9416  0.9223
  915MOL0     H26209   0.690   7.791   8.347 -0.1578 -0.2177 -0.1809
  915MOL0     H26210   0.692   7.773   8.178  3.0865 -1.2671 -0.6610
  915MOL0     H26211   0.560   7.541   8.215  1.5861 -1.5402  1.5786
  915MOL0     H26212   0.476   7.682   8.237 -0.6516 -2.1070  1.7204
  915MOL0     H26213   0.609   7.562   8.486  1.2133  2.9050  0.4849
  915MOL0     H26214   0.504   7.692   8.491  2.5657  2.0290 -1.6326
  915MOL0     H26215   0.310   7.565   8.420 -1.4172  0.4535  1.8260
  915MOL0     H26216   0.398   7.512   8.567 -1.2673  3.2249 -0.1601
  915MOL0     H26217   0.383   7.404   8.286  1.5935  2.0998  0.4538
  915MOL0     H26218   0.500   7.326   8.400 -0.2120  0.4681  1.2595
  915MOL0     H26219   0.342   7.269   8.666 -0.4758  0.4536  0.7574
  915MOL0     H26220  -0.028   7.162   8.691  0.7953  2.4083  0.7132
  915MOL0     H26221   0.120   7.200   8.783  1.7341 -2.3095  0.6174
  915MOL0     H26222   0.118   6.928   8.661 -1.3655 -0.4160  0.3794
  915MOL0     H26223   0.223   6.999   8.784  1.2127 -3.6919  1.2066
  915MOL0     H26224   0.035   7.005   8.942  2.8929  0.6581 -1.0852
  915MOL0     H26225  -0.084   6.948   8.820  0.2345 -2.3381 -0.8005
  915MOL0     H26226  -0.011   6.737   8.818 -0.3188  0.7764 -0.3988
  915MOL0     H26227   0.151   6.768   8.878  0.5107 -0.5804  1.9987
  915MOL0     H26228   0.111   6.575   9.140 -2.0174  1.2637  2.2307
  915MOL0     H26229   0.105   6.251   9.113  1.3529  0.5649 -0.1118
  915MOL0     H26230   0.017   6.252   9.268  1.4074 -0.4267 -0.6949
  915MOL0     H26231   0.144   6.362   9.241  0.9833  2.0658 -3.3992
  915MOL0     H26232  -0.393   6.047   8.904  0.8937  1.2865 -0.0364
  915MOL0     H26233  -0.489   5.832   8.991 -3.0648  1.1356  1.3803
  915MOL0     H26234  -0.768   5.796   9.131 -0.3146 -0.4387  2.7873
  915MOL0     H26235  -0.634   5.718   9.057  0.8703  0.6461  1.3620
  915MOL0     H26236  -0.650   5.531   9.213 -2.7523 -4.2987  0.9738
  915MOL0     H26237  -0.771   5.605   9.311  0.4723  3.1478  0.5815
  915MOL0     H26238  -0.820   5.488   9.029  0.8748 -0.5788  0.0760
  915MOL0     H26239  -0.938   5.571   9.124 -1.0560 -2.5530  1.1741
  915MOL0     H26240  -0.788   5.354   9.278  1.2942  1.7251  0.0755
  915MOL0     H26241  -0.866   5.295   9.135  0.7280 -1.4185  0.9030
  915MOL0     H26242  -1.002   5.304   9.358 -0.5928 -3.1872 -1.6318
  915MOL0     H26243  -1.042   5.472   9.312  0.2431  0.1053 -0.5725
  915MOL0     H26244  -1.207   5.341   9.264  1.2832 -0.4824  3.5013
  915MOL0     H26245  -1.107   5.206   9.205 -0.9148  0.2899  1.5369
  915MOL0     H26246  -1.070   5.333   8.994 -0.4569 -1.3996  0.0527
  915MOL0     H26247  -1.132   5.475   9.060  0.1288  0.3917 -4.9727
  915MOL0     H26248  -1.304   5.343   8.908 -0.6036 -0.1137 -0.4284
  915MOL0     H26249  -1.342   5.414   9.071  0.3030  1.2035  0.3728
  915MOL0     H26250  -0.583   6.048   9.358 -0.4992  3.1435 -0.3180
  915MOL0     H26251  -0.470   6.235   9.268 -4.0956  0.2537  2.0161
  915MOL0     H26252  -0.327   6.469   8.956 -1.3446 -3.2406  3.0647
  915MOL0     H26253  -0.238   6.700   8.953  0.8393 -0.6496 -1.1663
  915MOL0     H26254   1.196   7.363   8.198 -1.5910 -1.0741 -2.2273
  915MOL0     H26255   1.265   7.280   8.437 -1.2123 -1.3704  4.2237
  915MOL0     H26256   1.161   7.015   8.743  3.7165 -1.8403  1.4456
  915MOL0     H26257   1.191   6.876   8.922 -1.1504 -0.2635 -0.6609
  915MOL0     H26258   1.141   6.751   9.098  0.7507 -0.1649 -1.7054
  915MOL0     H26259   1.299   6.819   9.104  1.6341 -0.9732  2.0781
  915MOL0     H26260   1.152   6.755   9.365  0.3351  2.2235  1.8523
  915MOL0     H26261   1.318   6.800   9.346  0.2431 -0.2744 -0.3784
  915MOL0     H26262   1.296   6.562   9.389 -1.5393 -1.7110 -0.3785
  915MOL0     H26263   1.217   6.545   9.227 -0.3733 -1.0221  0.9752
  915MOL0     H26264   1.481   6.495   9.261 -0.1429  1.7501  3.3714
  915MOL0     H26265   1.503   6.668   9.261 -2.0297  1.5972 -1.5568
  915MOL0     H26266   1.470   6.654   8.861 -0.4520 -2.5053 -0.9347
  915MOL0     H26267   1.068   7.177   9.188  1.0490  1.8777 -0.2878
  915MOL0     H26268   0.898   7.361   9.016 -1.1180  0.9924  2.3533
  915MOL0     H26269   1.017   7.398   9.136  0.6126 -2.9490  1.1864
  915MOL0     H26270   1.027   7.462   8.968  0.5077 -0.0480  0.4466
  916MOL0     O26271   9.581   5.085   5.710 -0.2261  0.5985  0.9840
  916MOL0     C26272   9.693   5.068   5.760  1.4129  0.1612  0.9301
  916MOL0     O26273   9.812   5.120   5.719 -0.6905  0.4238  0.0578
  916MOL0     C26274   9.815   5.207   5.610 -0.4372  1.3383 -0.0352
  916MOL0     C26275   9.899   5.314   5.615  0.4882 -0.6764  0.0365
  916MOL0     C26276   9.904   5.400   5.502  0.0017 -1.6418 -0.5662
  916MOL0     C26277   9.827   5.387   5.387 -0.1750  0.6514 -0.2961
  916MOL0     O26278   9.812   5.465   5.279 -0.9003  0.2313  0.4812
  916MOL0     C26279   9.910   5.571   5.263 -0.8740 -0.3520 -0.2403
  916MOL0     C26280   9.909   5.640   5.125 -0.1162 -0.5351 -0.6636
  916MOL0     C26281  10.003   5.768   5.111  0.4153  0.1530  0.9333
  916MOL0     C26282   9.964   5.839   4.980  0.2264 -0.0891 -0.1988
  916MOL0     C26283   9.845   5.930   4.990 -0.3081  0.2517 -0.7483
  916MOL0     C26284   9.775   5.950   4.849 -0.2775 -0.1569 -0.5168
  916MOL0     C26285   9.651   6.044   4.850 -0.1917  0.9753 -0.4776
  916MOL0     C26286   9.677   6.179   4.915  0.9405  0.5202 -0.1626
  916MOL0     N26287   9.556   6.248   4.893 -0.4952  0.0577 -0.0916
  916MOL0     C26288   9.532   6.324   4.786 -0.4038  0.3913 -0.3934
  916MOL0     C26289   9.396   6.340   4.783  0.1740  0.0077  0.0481
  916MOL0     C26290   9.329   6.436   4.691 -0.2553  0.9308  0.2405
  916MOL0     C26291   9.367   6.584   4.692  0.0532 -0.8109  0.0092
  916MOL0     C26292   9.345   6.632   4.837 -0.9559  0.5885 -0.8703
  916MOL0     C26293   9.355   6.789   4.846  0.5479  0.4907 -0.9812
  916MOL0     O26294   9.368   6.828   4.986  0.8722 -0.2949 -0.3317
  916MOL0     C26295   9.374   6.967   5.003  0.1010 -0.2700  0.3932
  916MOL0     C26296   9.423   7.006   5.126 -0.5660 -0.0165  0.4819
  916MOL0     C26297   9.448   7.138   5.161 -0.1998 -0.5633 -0.1162
  916MOL0     C26298   9.528   7.164   5.288 -0.0695  0.2258 -0.5930
  916MOL0     C26299   9.408   7.240   5.065  0.4225  0.3793 -0.4450
  916MOL0     C26300   9.402   7.381   5.113  0.4681  0.0934  0.1873
  916MOL0     O26301   9.451   7.478   5.021 -0.6683 -0.3322  0.0008
  916MOL0     C26302   9.482   7.608   5.039 -0.3364 -0.9424 -0.7028
  916MOL0     C26303   9.513   7.675   5.161  1.1024 -1.0859  0.0293
  916MOL0     C26304   9.532   7.811   5.164 -0.0943  0.2386  0.5406
  916MOL0     C26305   9.531   7.888   5.043 -0.1063 -0.3395 -0.4592
  916MOL0     O26306   9.577   8.017   5.028  1.1121  0.1720  0.5417
  916MOL0     C26307   9.584   8.116   5.136  0.3384  0.4227 -0.4526
  916MOL0     C26308   9.508   8.247   5.112  0.0396 -0.0051  0.1830
  916MOL0     C26309   9.359   8.261   5.171 -0.5095 -0.5114  0.6235
  916MOL0     C26310   9.270   8.136   5.159  0.6176  0.0276 -0.3394
  916MOL0     C26311   9.132   8.164   5.222 -0.5548  0.3930  0.0847
  916MOL0     C26312   9.057   8.297   5.214 -0.5722 -0.5140 -0.2218
  916MOL0     C26313   8.912   8.268   5.273  0.9367  0.3708  0.4442
  916MOL0     C26314   8.895   8.226   5.419 -0.9077 -0.0045 -0.1110
  916MOL0    Cl26315   8.733   8.269   5.463  0.1810 -0.1007  0.1903
  916MOL0     C26316   9.494   7.824   4.926  0.0754 -0.4136 -0.1964
  916MOL0     C26317   9.479   7.688   4.922 -0.3128  0.5208 -0.6900
  916MOL0     O26318   9.366   7.396   5.232 -0.5528 -0.0277 -0.1298
  916MOL0     C26319   9.364   7.203   4.941 -0.8518 -0.1019 -0.8740
  916MOL0     C26320   9.341   7.068   4.914 -0.5576  0.9052 -0.3187
  916MOL0     N26321   9.333   6.274   4.881 -0.7420 -0.0091 -0.7312
  916MOL0     N26322   9.436   6.224   4.951  0.3584  0.4552 -0.1260
  916MOL0     C26323   9.749   5.267   5.378 -0.2687 -0.4653  0.8693
  916MOL0     C26324   9.742   5.179   5.485  1.0973  1.0120 -0.1690
  916MOL0     C26325   9.693   5.017   5.904  0.4007 -0.7430  0.2258
  916MOL0     C26326   9.815   5.042   5.986  0.4185  0.2638 -0.4030
  916MOL0     C26327   9.826   4.997   6.120  0.3177  0.1696 -0.8449
  916MOL0     C26328   9.720   4.938   6.184 -0.1439  0.0580 -0.2629
  916MOL0     O26329   9.741   4.884   6.310 -1.3206 -0.1988  0.5616
  916MOL0     C26330   9.709   4.745   6.310 -0.1722 -0.4112  0.1402
  916MOL0     C26331   9.781   4.674   6.194  0.1742 -0.2866  0.4795
  916MOL0     C26332   9.771   4.523   6.197  0.0525 -0.0766  0.4520
  916MOL0     C26333   9.636   4.464   6.179  1.0069 -0.1476 -0.4636
  916MOL0     C26334   9.580   4.425   6.311  0.6934 -0.3733 -0.1871
  916MOL0     C26335   9.525   4.392   6.415  0.5167  0.1723 -0.1463
  916MOL0     C26336   9.594   4.942   6.115  0.7143 -0.0639 -0.8343
  916MOL0     C26337   9.582   4.967   5.978  0.2038  1.1339 -0.0686
  916MOL0     C26338   9.449   4.930   5.921  0.2279  0.9601 -0.0647
  916MOL0     H26339   9.962   5.333   5.701 -1.3677  1.8067  0.9609
  916MOL0     H26340   9.969   5.487   5.502 -1.1597 -0.7379  0.8723
  916MOL0     H26341  10.009   5.525   5.267 -2.4280 -4.0696 -0.4157
  916MOL0     H26342   9.893   5.647   5.340 -2.1669  0.1934 -1.0322
  916MOL0     H26343   9.916   5.568   5.043  0.0341 -0.4956 -0.6856
  916MOL0     H26344   9.807   5.681   5.117 -1.3869 -3.5354 -1.0990
  916MOL0     H26345   9.989   5.832   5.198  2.6296  2.5267 -0.3101
  916MOL0     H26346  10.109   5.741   5.108  0.0512 -1.3344  0.7504
  916MOL0     H26347  10.051   5.894   4.943 -0.5592 -1.7194 -5.1973
  916MOL0     H26348   9.936   5.771   4.900 -0.4273  1.2337 -1.1393
  916MOL0     H26349   9.883   6.030   5.012 -1.0334  0.6709 -1.3595
  916MOL0     H26350   9.765   5.896   5.057 -0.1482  1.1044 -0.1107
  916MOL0     H26351   9.852   5.995   4.784  1.6173 -0.0881  1.6540
  916MOL0     H26352   9.752   5.851   4.809 -0.0011 -1.9586  3.3677
  916MOL0     H26353   9.574   5.988   4.904  0.2321  0.2323 -0.6290
  916MOL0     H26354   9.622   6.053   4.744 -2.2669 -1.2503 -0.1921
  916MOL0     H26355   9.696   6.174   5.023 -0.6822  0.1893  0.1416
  916MOL0     H26356   9.765   6.223   4.869 -0.3385  0.1654 -3.1544
  916MOL0     H26357   9.613   6.377   4.737 -0.7777  0.9995 -0.3771
  916MOL0     H26358   9.222   6.416   4.704 -0.0093  0.7995  2.2677
  916MOL0     H26359   9.356   6.388   4.596  1.8074 -0.3298  1.3857
  916MOL0     H26360   9.476   6.584   4.685  0.2441 -1.5620  2.0753
  916MOL0     H26361   9.310   6.643   4.620 -0.7545 -2.5485 -0.8474
  916MOL0     H26362   9.239   6.609   4.847 -0.7253  0.0555  0.5229
  916MOL0     H26363   9.412   6.575   4.901 -0.3542  3.2723  1.0968
  916MOL0     H26364   9.447   6.806   4.789  0.5059  0.2343 -1.1277
  916MOL0     H26365   9.267   6.829   4.794  0.3877  0.0778 -1.0288
  916MOL0     H26366   9.442   6.928   5.198  2.1164 -0.2962 -0.4113
  916MOL0     H26367   9.590   7.077   5.311  0.8393  0.8515 -0.6400
  916MOL0     H26368   9.462   7.192   5.371  0.0388 -2.3480  0.4534
  916MOL0     H26369   9.603   7.241   5.265  0.4225 -0.1601 -0.2972
  916MOL0     H26370   9.494   7.621   5.253 -0.1642  1.5713  1.4277
  916MOL0     H26371   9.568   7.851   5.258  0.7465  0.4960  0.1267
  916MOL0     H26372   9.563   8.077   5.236 -1.4750  0.3227 -0.8344
  916MOL0     H26373   9.692   8.131   5.145  0.2195  0.3682  1.3400
  916MOL0     H26374   9.569   8.319   5.167  1.0500  0.1834 -1.1468
  916MOL0     H26375   9.504   8.262   5.004 -4.8724 -1.5485 -0.1151
  916MOL0     H26376   9.318   8.339   5.105  1.1239 -3.4998 -4.5238
  916MOL0     H26377   9.376   8.289   5.275  1.7564 -2.6379  0.9060
  916MOL0     H26378   9.320   8.048   5.201  2.3484  1.8528  1.6634
  916MOL0     H26379   9.243   8.117   5.055 -2.9861  0.8129  0.3192
  916MOL0     H26380   9.062   8.093   5.177 -1.6645  0.7152  1.2255
  916MOL0     H26381   9.154   8.136   5.326  3.0186 -1.9176 -1.1154
  916MOL0     H26382   9.054   8.347   5.117 -2.0911  2.9597  1.4398
  916MOL0     H26383   9.106   8.369   5.280 -0.3531 -0.8678  0.0001
  916MOL0     H26384   8.863   8.196   5.208 -1.4687  0.5306  1.9501
  916MOL0     H26385   8.860   8.364   5.262  4.2850  2.3297  0.1983
  916MOL0     H26386   8.965   8.274   5.488 -1.8391  0.8334  0.2722
  916MOL0     H26387   8.914   8.119   5.413  1.9696  0.5023 -2.4014
  916MOL0     H26388   9.474   7.898   4.849  1.5414  2.3661  1.9217
  916MOL0     H26389   9.456   7.650   4.823  2.6242 -0.0599 -1.2470
  916MOL0     H26390   9.334   7.274   4.864  0.7004 -0.6106 -2.0020
  916MOL0     H26391   9.322   7.040   4.811 -2.5003  0.1554  0.2085
  916MOL0     H26392   9.712   5.247   5.278  2.4226 -2.8669  0.2253
  916MOL0     H26393   9.679   5.092   5.475 -2.2335  2.9145  2.0337
  916MOL0     H26394   9.905   5.080   5.938  0.6392  1.8111  1.1273
  916MOL0     H26395   9.926   5.014   6.158  0.0231  2.8423 -1.0213
  916MOL0     H26396   9.747   4.695   6.399  2.5992 -2.0421 -1.8095
  916MOL0     H26397   9.600   4.734   6.305 -0.3645  0.0080  2.5864
  916MOL0     H26398   9.885   4.705   6.205 -0.2234  2.1185 -1.6286
  916MOL0     H26399   9.751   4.707   6.094  2.9797 -3.1362 -1.5045
  916MOL0     H26400   9.838   4.484   6.120  1.4538 -2.5095  2.7537
  916MOL0     H26401   9.815   4.486   6.290 -1.5060 -0.3591  1.1053
  916MOL0     H26402   9.642   4.376   6.115 -1.8553 -0.7663 -0.0535
  916MOL0     H26403   9.565   4.526   6.123  1.2214  1.1760  0.6808
  916MOL0     H26404   9.478   4.367   6.508 -1.0014  0.6120 -0.7675
  916MOL0     H26405   9.507   4.918   6.174  0.8058 -0.4727 -0.8647
  916MOL0     H26406   9.473   4.873   5.831 -1.7777 -1.9478  1.0635
  916MOL0     H26407   9.390   4.869   5.991  2.6183 -1.0893  0.3121
  916MOL0     H26408   9.403   5.027   5.902  2.7173  2.1189 -0.4830
  917MOL0     O26409   6.464  10.062  11.357 -0.0828 -0.3668 -0.3543
  917MOL0     C26410   6.399  10.102  11.262  0.0009  0.3541 -0.1546
  917MOL0     O26411   6.260  10.104  11.252  0.6165  0.4756  0.9866
  917MOL0     C26412   6.193  10.047  11.354  0.0606  0.5294  0.9925
  917MOL0     C26413   6.119  10.128  11.438 -1.0024  0.3852 -0.1134
  917MOL0     C26414   6.045  10.062  11.544  0.1390  0.0686  0.2237
  917MOL0     C26415   6.046   9.923  11.563  0.8721  1.0967 -0.5545
  917MOL0     O26416   5.975   9.842  11.655 -0.2638  0.1528  0.3688
  917MOL0     C26417   5.938   9.883  11.786 -0.0304  0.1611  1.0212
  917MOL0     C26418   5.894   9.753  11.858 -0.4535  0.0319 -0.1327
  917MOL0     C26419   5.745   9.728  11.880  0.7204  1.1649  0.1751
  917MOL0     C26420   5.722   9.631  12.005 -0.5335 -0.7276  0.5071
  917MOL0     C26421   5.574   9.633  12.046 -0.6213  0.6203 -0.1545
  917MOL0     C26422   5.550   9.540  12.162 -0.6096 -0.1274 -0.3855
  917MOL0     C26423   5.400   9.531  12.200 -0.0726 -0.0822  0.0832
  917MOL0     C26424   5.347   9.663  12.257  0.1417 -0.1505 -0.0848
  917MOL0     N26425   5.440   9.713  12.357 -0.6503  0.2699  0.0049
  917MOL0     C26426   5.481   9.648  12.468 -0.2279 -0.3236  0.0406
  917MOL0     C26427   5.592   9.716  12.513  0.7591  0.4643  0.8407
  917MOL0     C26428   5.675   9.673  12.630 -0.6696  1.0797 -1.0030
  917MOL0     C26429   5.688   9.783  12.734 -0.1006 -0.1874  0.3648
  917MOL0     C26430   5.797   9.755  12.847 -0.4448  0.1809  0.0667
  917MOL0     C26431   5.813   9.856  12.958 -0.9940  0.0638  0.1295
  917MOL0     O26432   5.925   9.829  13.051  0.3659  0.2753  0.6664
  917MOL0     C26433   5.911   9.719  13.129  1.0063 -0.1179 -0.4408
  917MOL0     C26434   5.830   9.736  13.241 -0.7692  0.5201 -0.2878
  917MOL0     C26435   5.783   9.623  13.315  1.0396 -0.1597 -0.3945
  917MOL0     C26436   5.683   9.653  13.426  0.1001  0.0411 -0.0139
  917MOL0     C26437   5.845   9.499  13.303 -0.5393 -0.1153  0.4271
  917MOL0     C26438   5.815   9.382  13.385  0.3739  0.5259  0.7311
  917MOL0     O26439   5.694   9.369  13.442  0.2666  0.1569 -0.2504
  917MOL0     C26440   5.657   9.266  13.516  0.4577  0.9135 -0.6667
  917MOL0     C26441   5.595   9.290  13.631 -0.4977  0.0309  0.3292
  917MOL0     C26442   5.562   9.194  13.719 -0.5788  1.2230 -0.0066
  917MOL0     C26443   5.597   9.056  13.698 -0.0905  1.0094 -0.3754
  917MOL0     O26444   5.561   8.949  13.778  0.1593 -0.3708  0.3126
  917MOL0     C26445   5.538   8.982  13.914  0.2203  0.3971  1.0334
  917MOL0     C26446   5.495   8.859  13.999 -0.3059 -0.3785 -0.7542
  917MOL0     C26447   5.349   8.854  14.037  0.1294  0.4062  1.1135
  917MOL0     C26448   5.266   8.819  13.914  0.1254 -0.1278 -0.8005
  917MOL0     C26449   5.120   8.820  13.946  0.2622 -0.6817 -1.0763
  917MOL0     C26450   5.041   8.768  13.831 -1.5346  0.5783 -0.1310
  917MOL0     C26451   4.893   8.756  13.870  0.3896  0.1665  1.1475
  917MOL0     C26452   4.802   8.682  13.769 -0.2014  0.1121  0.8629
  917MOL0    Cl26453   4.832   8.503  13.772  0.3744  0.0700 -0.4918
  917MOL0     C26454   5.653   9.024  13.569 -0.6515 -0.8439 -1.2322
  917MOL0     C26455   5.678   9.129  13.480  0.1891 -0.3858  0.3950
  917MOL0     O26456   5.900   9.288  13.374  0.0202 -0.2100 -0.2393
  917MOL0     C26457   5.948   9.493  13.208  1.0639  0.2714 -0.0848
  917MOL0     C26458   5.973   9.597  13.121  0.5282  0.0944 -0.9186
  917MOL0     N26459   5.628   9.814  12.426  0.0823 -0.4435 -0.0700
  917MOL0     N26460   5.536   9.815  12.348 -0.1366  0.1472  0.8700
  917MOL0     C26461   6.092   9.849  11.458  0.1624 -0.0392 -0.0249
  917MOL0     C26462   6.175   9.908  11.359  0.8636  0.1048 -0.0858
  917MOL0     C26463   6.477  10.178  11.155  0.0249  0.3308 -0.3209
  917MOL0     C26464   6.449  10.313  11.125 -0.1231  0.1442 -0.6545
  917MOL0     C26465   6.519  10.373  11.018  1.0750 -0.4699  0.7629
  917MOL0     C26466   6.606  10.304  10.932  0.2468 -0.5486  0.5965
  917MOL0     O26467   6.658  10.372  10.827 -0.3413  0.1302 -0.0978
  917MOL0     C26468   6.801  10.347  10.818  0.8868  0.3680  0.1821
  917MOL0     C26469   6.868  10.467  10.749 -0.4601  0.7444  0.0180
  917MOL0     C26470   7.021  10.443  10.736 -0.0745  1.1040  0.2476
  917MOL0     C26471   7.090  10.563  10.678  0.7983  0.1562  0.8612
  917MOL0     C26472   7.091  10.668  10.781  0.2531  0.3009  0.0381
  917MOL0     C26473   7.115  10.752  10.865 -0.8972  0.0033  0.1860
  917MOL0     C26474   6.632  10.166  10.960 -0.0667  0.6346 -0.2522
  917MOL0     C26475   6.578  10.104  11.077 -0.0766 -0.1794 -0.9877
  917MOL0     C26476   6.601   9.955  11.110  0.0861 -0.0627  0.4032
  917MOL0     H26477   6.114  10.236  11.428 -1.3637  0.2943 -0.9799
  917MOL0     H26478   5.978  10.114  11.611 -5.3493  0.1407 -4.4854
  917MOL0     H26479   5.860   9.959  11.778  1.6252  1.9220  0.9645
  917MOL0     H26480   6.032   9.917  11.831  1.0152 -1.3106  0.0550
  917MOL0     H26481   5.931   9.666  11.804  0.2948  0.3169 -0.0967
  917MOL0     H26482   5.949   9.754  11.952  2.1681  0.8839 -1.5672
  917MOL0     H26483   5.692   9.823  11.892 -1.7308 -0.3632  2.2373
  917MOL0     H26484   5.699   9.693  11.787 -1.9278  1.8685  1.1216
  917MOL0     H26485   5.761   9.533  11.976  1.2479  0.3298 -0.9262
  917MOL0     H26486   5.787   9.662  12.087 -0.3250 -2.4932  1.0551
  917MOL0     H26487   5.518   9.591  11.962  3.3347 -1.4955 -2.0348
  917MOL0     H26488   5.543   9.736  12.064 -4.0998 -0.1540 -0.9298
  917MOL0     H26489   5.573   9.441  12.123  1.3654  0.2895 -0.3920
  917MOL0     H26490   5.613   9.554  12.250 -0.4777 -2.1237 -0.1150
  917MOL0     H26491   5.395   9.445  12.268  0.9307 -1.2751 -1.2844
  917MOL0     H26492   5.346   9.500  12.110 -1.1578  0.9499  0.3517
  917MOL0     H26493   5.340   9.736  12.176  1.1572  0.2896  0.2190
  917MOL0     H26494   5.251   9.639  12.303  2.0410 -0.2486  4.2347
  917MOL0     H26495   5.432   9.558  12.502  0.8552 -2.4529 -3.5165
  917MOL0     H26496   5.773   9.648  12.590  1.2493  0.9770  3.2647
  917MOL0     H26497   5.633   9.587  12.685  0.7219 -0.3311 -2.0546
  917MOL0     H26498   5.721   9.873  12.682 -1.2389 -0.8925 -1.7038
  917MOL0     H26499   5.592   9.813  12.777  0.0900  3.6823 -1.5061
  917MOL0     H26500   5.768   9.658  12.889  1.0180  0.1830  1.1593
  917MOL0     H26501   5.896   9.733  12.806 -0.6092 -1.3034  0.3942
  917MOL0     H26502   5.818   9.957  12.918  0.5025 -0.0146  0.0778
  917MOL0     H26503   5.721   9.848  13.017 -1.6590 -2.1541 -1.0959
  917MOL0     H26504   5.778   9.830  13.262 -1.2389  0.5963 -1.6739
  917MOL0     H26505   5.585   9.609  13.401  1.2042 -2.6177 -0.0360
  917MOL0     H26506   5.672   9.760  13.443  4.3194  1.5049 -4.3196
  917MOL0     H26507   5.715   9.611  13.522  1.6878  1.6267  0.1821
  917MOL0     H26508   5.579   9.393  13.660 -2.3008 -0.0973 -0.0810
  917MOL0     H26509   5.523   9.240  13.810  2.6644  0.8543  1.7271
  917MOL0     H26510   5.634   9.015  13.957  0.7069 -1.7977  1.7845
  917MOL0     H26511   5.464   9.062  13.928 -1.8288 -1.2013 -0.1307
  917MOL0     H26512   5.533   8.773  13.944  4.0865 -0.0596  1.2901
  917MOL0     H26513   5.549   8.862  14.095 -0.2273 -1.1271 -0.7693
  917MOL0     H26514   5.327   8.945  14.093  0.9896  2.0232 -1.0032
  917MOL0     H26515   5.333   8.767  14.102 -1.2602 -1.0330 -1.0231
  917MOL0     H26516   5.302   8.725  13.872  1.3478  0.2510 -0.6342
  917MOL0     H26517   5.280   8.899  13.841  0.5079 -0.1038 -0.7035
  917MOL0     H26518   5.098   8.765  14.038  0.1831 -0.7393 -1.1292
  917MOL0     H26519   5.087   8.923  13.966  0.7219  0.0724 -3.7940
  917MOL0     H26520   5.079   8.666  13.820 -2.0644  0.2895  0.6221
  917MOL0     H26521   5.063   8.825  13.741  1.4756 -1.2584 -0.7231
  917MOL0     H26522   4.857   8.859  13.874  0.1150  0.0255  3.2579
  917MOL0     H26523   4.873   8.710  13.967  2.3942  0.2413  1.6404
  917MOL0     H26524   4.816   8.723  13.668  0.9194  1.5311  1.5473
  917MOL0     H26525   4.699   8.709  13.795 -0.1519  1.3429 -0.1194
  917MOL0     H26526   5.659   8.921  13.536 -0.9387 -1.5004  0.6450
  917MOL0     H26527   5.733   9.113  13.388  1.9361  2.2027  0.8659
  917MOL0     H26528   6.012   9.407  13.193 -0.9408 -1.3049 -0.1739
  917MOL0     H26529   6.051   9.578  13.048  1.4256 -3.7209  0.7358
  917MOL0     H26530   6.085   9.741  11.466  3.0981 -0.3144 -0.0540
  917MOL0     H26531   6.212   9.837  11.286  1.7632 -0.2680  0.7111
  917MOL0     H26532   6.373  10.369  11.178 -0.9862  1.1827 -2.8753
  917MOL0     H26533   6.489  10.476  11.002 -2.1106 -1.2316  1.1840
  917MOL0     H26534   6.853  10.350  10.914  1.1159 -1.3493  0.1454
  917MOL0     H26535   6.802  10.254  10.760 -0.2841  1.0150 -0.9389
  917MOL0     H26536   6.865  10.553  10.816  3.2292  0.4521  0.7618
  917MOL0     H26537   6.818  10.481  10.653  0.3393  0.5214 -0.4428
  917MOL0     H26538   7.073  10.417  10.829  0.9744 -1.9753 -1.0768
  917MOL0     H26539   7.050  10.358  10.674  3.0954 -0.5419  3.5546
  917MOL0     H26540   7.031  10.599  10.593  2.7187  1.7486  0.1035
  917MOL0     H26541   7.187  10.546  10.629 -0.2480  0.0398 -1.2946
  917MOL0     H26542   7.135  10.814  10.949  1.0690  0.7440 -0.7556
  917MOL0     H26543   6.689  10.108  10.888 -1.9689  0.8890 -2.0736
  917MOL0     H26544   6.514   9.907  11.157 -1.2132  0.1425 -1.6542
  917MOL0     H26545   6.619   9.905  11.015  1.7507  0.3525  0.4726
  917MOL0     H26546   6.686   9.947  11.178  1.1070 -2.6318 -1.0458
  918MOL0     O26547   9.638   8.535   9.947 -0.5939  0.3915 -0.3223
  918MOL0     C26548   9.613   8.420   9.907  0.0596 -0.6231 -0.1911
  918MOL0     O26549   9.584   8.388   9.779 -0.3052 -0.4021  0.1680
  918MOL0     C26550   9.608   8.472   9.669 -0.1333  1.3442  0.4476
  918MOL0     C26551   9.705   8.576   9.661  0.9476 -0.4565 -0.1895
  918MOL0     C26552   9.721   8.656   9.546  0.4998 -0.1053  0.0093
  918MOL0     C26553   9.630   8.638   9.446  0.1471 -0.1085 -0.4219
  918MOL0     O26554   9.628   8.719   9.335  1.0363 -0.5048 -0.1111
  918MOL0     C26555   9.497   8.732   9.260 -0.2070 -0.2185  0.7226
  918MOL0     C26556   9.518   8.839   9.157 -0.3379  0.0476  0.0487
  918MOL0     C26557   9.528   8.976   9.229 -0.0853 -0.0209  0.2630
  918MOL0     C26558   9.634   9.066   9.173 -0.2293  0.3759 -0.0721
  918MOL0     C26559   9.655   9.195   9.258  0.6610 -0.7460 -0.5055
  918MOL0     C26560   9.711   9.301   9.169 -0.1377  0.5725 -0.2061
  918MOL0     C26561   9.713   9.438   9.246 -0.6904  0.3202  0.3752
  918MOL0     C26562   9.589   9.523   9.240  0.7110 -0.6726  0.3692
  918MOL0     N26563   9.570   9.570   9.104 -0.1784  0.0845  0.4352
  918MOL0     C26564   9.621   9.682   9.047 -0.0979 -0.3764  0.5304
  918MOL0     C26565   9.550   9.697   8.936 -0.3513 -1.0847  0.5091
  918MOL0     C26566   9.573   9.810   8.842  0.6085  1.3283 -0.4391
  918MOL0     C26567   9.515   9.932   8.923  0.1022  0.6942  0.4471
  918MOL0     C26568   9.526  10.070   8.846 -0.4715 -0.5071 -0.4571
  918MOL0     C26569   9.409  10.165   8.877  0.1100  0.2017 -0.7382
  918MOL0     O26570   9.441  10.291   8.816  0.8155 -0.3151  0.4953
  918MOL0     C26571   9.387  10.398   8.880  0.4589  0.5353 -1.3570
  918MOL0     C26572   9.284  10.402   8.973  0.0090  0.8882  0.2801
  918MOL0     C26573   9.217  10.527   9.020 -0.3736  0.5613 -0.2729
  918MOL0     C26574   9.108  10.510   9.126  0.4003  1.0339 -0.1432
  918MOL0     C26575   9.273  10.645   8.968 -0.3430  0.3049  1.2046
  918MOL0     C26576   9.221  10.777   8.999  0.3033 -0.2847 -0.3273
  918MOL0     O26577   9.309  10.877   8.998 -0.2432  0.0613  0.7343
  918MOL0     C26578   9.270  10.991   9.062  0.4661  0.7775  0.2113
  918MOL0     C26579   9.305  11.017   9.186  0.1902 -0.1501 -0.4957
  918MOL0     C26580   9.257  11.134   9.246 -0.9326  0.0752  0.0889
  918MOL0     C26581   9.175  11.226   9.175  0.2784  0.6319 -0.5641
  918MOL0     O26582   9.139  11.334   9.251 -0.3260  0.0644 -0.1911
  918MOL0     C26583   9.037  11.428   9.201  0.3192 -0.0057 -0.6709
  918MOL0     C26584   9.001  11.518   9.314  0.3408 -0.0927 -0.5941
  918MOL0     C26585   8.913  11.632   9.265 -0.5526  0.0138 -0.0066
  918MOL0     C26586   8.876  11.719   9.380  0.3218 -0.7076 -0.0243
  918MOL0     C26587   8.770  11.815   9.339 -0.2739 -1.1106 -0.9326
  918MOL0     C26588   8.747  11.914   9.458  0.0577  0.1818  0.0581
  918MOL0     C26589   8.717  11.874   9.597  0.8349  0.8057 -0.6261
  918MOL0     C26590   8.596  11.786   9.613  0.6351 -0.5390  0.1894
  918MOL0    Cl26591   8.573  11.739   9.794  0.1918 -0.0886 -0.1117
  918MOL0     C26592   9.146  11.207   9.044 -0.2364 -0.5451  0.2388
  918MOL0     C26593   9.196  11.089   8.991  0.5072 -0.2663  0.5809
  918MOL0     O26594   9.100  10.789   9.017 -0.7207 -0.2556 -0.5764
  918MOL0     C26595   9.374  10.637   8.870 -0.5000  0.1354  0.6454
  918MOL0     C26596   9.427  10.517   8.822 -0.5753 -0.3007  0.3223
  918MOL0     N26597   9.454   9.597   8.939 -0.2277 -0.7187  0.2117
  918MOL0     N26598   9.467   9.518   9.032 -0.4865  0.4154 -0.2537
  918MOL0     C26599   9.535   8.538   9.455  0.5573  0.1364  0.7160
  918MOL0     C26600   9.532   8.447   9.561  0.0214 -0.1488  0.8159
  918MOL0     C26601   9.603   8.319  10.013  0.9567  0.0389 -0.2907
  918MOL0     C26602   9.487   8.237  10.017  0.8959  1.1187 -0.4388
  918MOL0     C26603   9.473   8.121  10.097 -0.0147 -0.0657 -0.2408
  918MOL0     C26604   9.576   8.088  10.187  0.6645  0.1219 -0.2296
  918MOL0     O26605   9.540   7.985  10.274 -0.6023 -0.1999 -0.4171
  918MOL0     C26606   9.625   7.953  10.390  1.1296 -0.0127 -0.1807
  918MOL0     C26607   9.606   7.798  10.410  0.1120 -0.2081  0.6742
  918MOL0     C26608   9.485   7.769  10.501 -0.3628 -0.3121  0.2271
  918MOL0     C26609   9.458   7.617  10.503  0.0175 -0.8824  0.3890
  918MOL0     C26610   9.320   7.602  10.549  0.3242  1.0131 -0.1331
  918MOL0     C26611   9.207   7.576  10.596 -0.2618 -0.0120  0.1012
  918MOL0     C26612   9.680   8.174  10.196 -0.8233 -0.2897 -0.2786
  918MOL0     C26613   9.697   8.280  10.110 -0.4394  0.3640  0.7594
  918MOL0     C26614   9.837   8.357  10.113 -0.4905 -0.3550 -0.3870
  918MOL0     H26615   9.767   8.606   9.744 -0.8729  2.0134  0.3907
  918MOL0     H26616   9.802   8.725   9.524 -0.9060  1.6698  0.1948
  918MOL0     H26617   9.419   8.764   9.329  2.0024  1.1095  2.7655
  918MOL0     H26618   9.479   8.641   9.202 -0.3211 -0.1307  0.6197
  918MOL0     H26619   9.605   8.807   9.099 -0.3153  0.7442 -0.3077
  918MOL0     H26620   9.429   8.860   9.097  1.3442  2.8418 -1.7172
  918MOL0     H26621   9.432   9.026   9.215  0.5318  1.1685  0.1566
  918MOL0     H26622   9.546   8.970   9.336  1.3185 -1.0402  0.0031
  918MOL0     H26623   9.724   9.005   9.169  0.6086  1.5347 -4.4093
  918MOL0     H26624   9.605   9.087   9.069  2.2171  0.4141 -0.8236
  918MOL0     H26625   9.722   9.192   9.344  1.6323  2.2190 -1.0525
  918MOL0     H26626   9.563   9.223   9.311 -1.0155 -0.8507 -3.1347
  918MOL0     H26627   9.816   9.274   9.155  0.6377  3.3132 -0.2481
  918MOL0     H26628   9.660   9.313   9.073  2.1739 -1.5989 -1.8300
  918MOL0     H26629   9.788   9.502   9.199 -0.1791 -1.4013 -1.2316
  918MOL0     H26630   9.743   9.428   9.351  0.5319  0.5659  0.0657
  918MOL0     H26631   9.505   9.460   9.270  0.8806 -1.5783 -0.9370
  918MOL0     H26632   9.591   9.616   9.297  0.1827 -0.5678  0.2173
  918MOL0     H26633   9.704   9.742   9.083  2.0212 -2.6768 -0.2243
  918MOL0     H26634   9.513   9.792   8.752 -1.3350 -0.0478  1.0215
  918MOL0     H26635   9.680   9.818   8.825  0.3143  1.7735 -2.3075
  918MOL0     H26636   9.410   9.928   8.953 -0.2304  0.4469 -0.6931
  918MOL0     H26637   9.577   9.941   9.013 -1.6082 -0.2638  1.7830
  918MOL0     H26638   9.625  10.111   8.864 -1.0141  1.5404 -1.7835
  918MOL0     H26639   9.530  10.051   8.738 -1.2708 -2.3123 -0.2123
  918MOL0     H26640   9.312  10.120   8.849  0.1841  0.8022 -2.0045
  918MOL0     H26641   9.409  10.172   8.986 -1.0333 -1.0525 -0.6206
  918MOL0     H26642   9.224  10.316   9.000 -0.3729  0.7107 -1.0518
  918MOL0     H26643   9.100  10.414   9.177  0.4749  1.5317  0.8313
  918MOL0     H26644   9.015  10.532   9.074 -0.0240  0.0099  0.1683
  918MOL0     H26645   9.136  10.575   9.210 -3.0420  0.9772  1.1853
  918MOL0     H26646   9.361  10.941   9.240  1.5696 -0.1903 -1.9277
  918MOL0     H26647   9.297  11.156   9.344  0.6441  1.1978 -0.7567
  918MOL0     H26648   9.080  11.492   9.123 -1.7093  2.8970  0.4584
  918MOL0     H26649   8.943  11.385   9.166 -0.7838  4.5801 -4.2767
  918MOL0     H26650   8.941  11.470   9.392 -1.1807  1.9711 -0.4165
  918MOL0     H26651   9.099  11.554   9.347 -0.7672  3.4297 -0.7121
  918MOL0     H26652   8.818  11.594   9.227 -0.6018 -0.0772  0.2050
  918MOL0     H26653   8.953  11.687   9.180  0.2729 -0.1564  0.2592
  918MOL0     H26654   8.961  11.775   9.422 -1.2566  0.0099  2.4003
  918MOL0     H26655   8.834  11.658   9.460 -0.8374  2.1955  1.6937
  918MOL0     H26656   8.791  11.878   9.253 -0.1358  0.7546  0.4000
  918MOL0     H26657   8.678  11.759   9.316  0.2613 -3.0514  1.2359
  918MOL0     H26658   8.658  11.969   9.427 -0.5143 -0.4761  0.4899
  918MOL0     H26659   8.826  11.988   9.467 -0.4070  0.7647 -0.5914
  918MOL0     H26660   8.695  11.963   9.656 -2.6280  0.4483 -1.1647
  918MOL0     H26661   8.801  11.817   9.637  0.8680  0.9025 -0.5580
  918MOL0     H26662   8.602  11.697   9.551 -1.8019 -0.8950  0.3551
  918MOL0     H26663   8.504  11.840   9.588  2.4017  4.6384  3.2560
  918MOL0     H26664   9.099  11.286   8.985  0.7288  0.5968  0.9658
  918MOL0     H26665   9.191  11.077   8.884  0.4814 -2.7338  0.7992
  918MOL0     H26666   9.430  10.726   8.845  1.1543 -0.6695  1.3169
  918MOL0     H26667   9.503  10.524   8.745 -0.2763  0.8082  0.6945
  918MOL0     H26668   9.464   8.513   9.376  0.1887 -0.8262  1.3316
  918MOL0     H26669   9.463   8.364   9.560  1.9068 -1.7991 -0.6868
  918MOL0     H26670   9.406   8.257   9.948  1.6852  0.7679 -1.4910
  918MOL0     H26671   9.389   8.053  10.093 -0.6757  0.7018  0.2896
  918MOL0     H26672   9.730   7.977  10.370  0.4830  2.0682 -1.3457
  918MOL0     H26673   9.593   8.010  10.478  0.6481  3.6622 -2.4872
  918MOL0     H26674   9.687   7.748  10.465 -0.1627 -0.6464  0.6824
  918MOL0     H26675   9.588   7.754  10.311 -1.2358 -0.5408  1.0526
  918MOL0     H26676   9.508   7.793  10.605  1.7768  1.2786 -0.5391
  918MOL0     H26677   9.400   7.821  10.455  0.4085  0.7130 -0.0916
  918MOL0     H26678   9.525   7.558  10.565  2.1244  0.5518 -0.4019
  918MOL0     H26679   9.461   7.577  10.401  0.5797 -0.0932  0.0892
  918MOL0     H26680   9.104   7.556  10.618 -1.1688  0.3782 -3.2655
  918MOL0     H26681   9.754   8.166  10.274  1.2827 -0.1057 -2.1632
  918MOL0     H26682   9.891   8.355  10.018  0.7254  0.9413  0.2414
  918MOL0     H26683   9.832   8.459  10.152  1.9965 -0.0880 -0.5714
  918MOL0     H26684   9.902   8.311  10.188 -0.0188  0.7728 -0.0875
  919MOL0     O26685   8.462   9.124   3.676  0.1860 -0.1405 -0.5348
  919MOL0     C26686   8.363   9.126   3.754 -0.3310 -0.0645 -0.5286
  919MOL0     O26687   8.372   9.104   3.888  0.1149  0.1791  0.0836
  919MOL0     C26688   8.495   9.084   3.946 -0.7848 -0.3677  0.2863
  919MOL0     C26689   8.560   9.176   4.037 -0.3031  0.3572 -0.5318
  919MOL0     C26690   8.694   9.168   4.058 -0.2675  0.1721  0.4452
  919MOL0     C26691   8.765   9.060   4.015 -0.6437 -0.8426  0.2610
  919MOL0     O26692   8.901   9.059   4.034  0.6544 -0.3544  0.0130
  919MOL0     C26693   8.955   9.109   4.162  0.2137  0.2981  0.0411
  919MOL0     C26694   9.087   9.041   4.182 -0.4773 -0.4309  0.6018
  919MOL0     C26695   9.157   9.093   4.309 -0.2194 -1.0990 -0.3822
  919MOL0     C26696   9.290   9.021   4.325  0.1781 -0.7879  0.7067
  919MOL0     C26697   9.374   9.087   4.432  0.9326  0.6445  0.0280
  919MOL0     C26698   9.499   9.020   4.475 -0.2811  0.4945 -0.2051
  919MOL0     C26699   9.595   9.016   4.366 -0.5047 -0.1005 -0.2366
  919MOL0     C26700   9.718   8.940   4.407  0.7864  1.0431 -0.7884
  919MOL0     N26701   9.704   8.793   4.401 -0.3795 -0.9598  0.9916
  919MOL0     C26702   9.714   8.711   4.292  0.5865  0.4919 -0.2642
  919MOL0     C26703   9.692   8.587   4.345 -0.5077  0.9852  0.9142
  919MOL0     C26704   9.682   8.451   4.268  0.0034  0.7704  0.2271
  919MOL0     C26705   9.570   8.362   4.307  0.0653 -1.0252 -0.5138
  919MOL0     C26706   9.432   8.390   4.246  0.5175 -0.0060  0.0718
  919MOL0     C26707   9.381   8.536   4.251  0.2797  0.5394  1.1616
  919MOL0     O26708   9.267   8.540   4.171  0.2239  0.5855 -0.1905
  919MOL0     C26709   9.142   8.532   4.224 -0.3966 -0.1067 -0.6766
  919MOL0     C26710   9.038   8.598   4.151 -0.3654  0.5945  1.3567
  919MOL0     C26711   8.911   8.581   4.195 -0.3195  0.5027 -0.7415
  919MOL0     C26712   8.809   8.644   4.108 -0.1742 -0.2546 -0.1224
  919MOL0     C26713   8.881   8.529   4.322  0.7074  0.7148  0.1170
  919MOL0     C26714   8.737   8.515   4.381 -0.0524  0.8783 -0.7837
  919MOL0     O26715   8.623   8.575   4.321  0.1337 -0.2332 -0.9191
  919MOL0     C26716   8.493   8.527   4.347  0.6790 -1.4448  0.1843
  919MOL0     C26717   8.441   8.520   4.474 -0.0326 -0.3932  0.6855
  919MOL0     C26718   8.311   8.489   4.506 -0.3382 -0.2521  0.3110
  919MOL0     C26719   8.233   8.441   4.400  0.1937  0.2563  0.1882
  919MOL0     O26720   8.111   8.378   4.407 -0.1734 -0.2855  0.2403
  919MOL0     C26721   8.051   8.346   4.535  0.2020 -0.0017 -0.8399
  919MOL0     C26722   7.911   8.270   4.530 -0.1721 -0.7444  0.5910
  919MOL0     C26723   7.866   8.201   4.658 -0.2190 -0.2375  0.1870
  919MOL0     C26724   7.724   8.144   4.634  0.9028  0.4125  0.5829
  919MOL0     C26725   7.638   8.124   4.758  0.2720  0.7339  0.4225
  919MOL0     C26726   7.693   8.012   4.849  1.0508  0.0166 -0.2975
  919MOL0     C26727   7.596   7.981   4.966  1.3638 -0.2708 -0.3377
  919MOL0     C26728   7.633   8.067   5.096  0.2709 -0.8738  0.4839
  919MOL0    Cl26729   7.523   8.010   5.237 -0.1007 -0.3036 -0.1502
  919MOL0     C26730   8.285   8.447   4.270  0.7702 -0.2207 -0.6968
  919MOL0     C26731   8.416   8.486   4.243 -0.9190 -0.8013  0.2532
  919MOL0     O26732   8.726   8.426   4.465 -0.0623  0.3427 -0.7056
  919MOL0     C26733   8.986   8.467   4.391 -0.4432 -0.4761 -0.3308
  919MOL0     C26734   9.111   8.470   4.347 -0.4012 -0.4687 -0.9799
  919MOL0     N26735   9.692   8.601   4.486 -0.6899  0.3818  0.3759
  919MOL0     N26736   9.690   8.723   4.515  0.0558 -0.1877 -0.3148
  919MOL0     C26737   8.716   8.981   3.927  0.0929  0.0063  0.3200
  919MOL0     C26738   8.578   8.980   3.901  0.5999  0.9083  0.1379
  919MOL0     C26739   8.231   9.132   3.696  0.4171 -0.5920 -0.8970
  919MOL0     C26740   8.123   9.110   3.789 -0.4224  0.4631 -0.4908
  919MOL0     C26741   7.993   9.123   3.739  1.5924  0.1044 -0.4683
  919MOL0     C26742   7.965   9.149   3.610 -0.0525  0.1291 -0.8387
  919MOL0     O26743   7.838   9.142   3.556  0.4875 -0.3443  0.1087
  919MOL0     C26744   7.779   9.011   3.559 -0.0225  0.4537 -0.9796
  919MOL0     C26745   7.624   9.022   3.537 -0.1810  0.2454 -0.6420
  919MOL0     C26746   7.551   9.097   3.639  0.2057 -0.5772 -0.4987
  919MOL0     C26747   7.404   9.121   3.599  0.0263 -0.2257  0.7774
  919MOL0     C26748   7.355   9.213   3.703 -0.2181  0.4831 -0.1568
  919MOL0     C26749   7.301   9.280   3.788 -0.3305 -0.3977 -0.4474
  919MOL0     C26750   8.067   9.167   3.522 -0.1922  0.5880 -0.3660
  919MOL0     C26751   8.206   9.156   3.557  0.4377 -0.4481  0.2902
  919MOL0     C26752   8.307   9.174   3.444  0.0597  0.2292  0.3801
  919MOL0     H26753   8.493   9.248   4.082 -3.1879 -1.4656 -1.6885
  919MOL0     H26754   8.746   9.245   4.114 -0.8734  2.0948 -1.4872
  919MOL0     H26755   8.883   9.092   4.243 -2.4566  0.6403 -2.0989
  919MOL0     H26756   8.983   9.213   4.146  1.5362  0.2987  1.9654
  919MOL0     H26757   9.078   8.933   4.196  0.4654 -0.6747 -0.4853
  919MOL0     H26758   9.157   9.048   4.099 -1.1950  1.5110  0.1038
  919MOL0     H26759   9.184   9.198   4.296 -0.8671 -0.5391  2.2000
  919MOL0     H26760   9.099   9.095   4.401  0.5462  2.0027  0.1393
  919MOL0     H26761   9.268   8.922   4.367  2.0806 -1.7941 -0.5296
  919MOL0     H26762   9.331   9.029   4.224 -0.2406  2.3118  0.6955
  919MOL0     H26763   9.311   9.112   4.518 -1.6444 -0.9089 -1.2926
  919MOL0     H26764   9.404   9.181   4.385  0.0425  0.4668 -0.9255
  919MOL0     H26765   9.550   9.065   4.561  0.5670  0.9670 -0.9360
  919MOL0     H26766   9.477   8.916   4.501 -0.3221 -0.2153 -2.7907
  919MOL0     H26767   9.633   9.118   4.359 -1.3969  0.2978  0.4727
  919MOL0     H26768   9.549   8.979   4.274  2.5868 -3.0252 -0.7978
  919MOL0     H26769   9.806   8.951   4.342  1.6403 -1.5020 -0.1737
  919MOL0     H26770   9.745   8.964   4.510  0.5214  2.4554 -1.0284
  919MOL0     H26771   9.743   8.736   4.191  0.7470  0.6828 -0.1733
  919MOL0     H26772   9.780   8.405   4.289  1.1481  3.4435  1.2348
  919MOL0     H26773   9.678   8.459   4.159 -2.7274 -0.1396  0.2006
  919MOL0     H26774   9.596   8.256   4.308  0.2591 -0.9773 -0.4659
  919MOL0     H26775   9.554   8.384   4.413  2.4904 -0.0988 -0.2676
  919MOL0     H26776   9.440   8.358   4.142 -0.2208 -3.8278  1.0447
  919MOL0     H26777   9.361   8.323   4.296  1.1319 -2.6910 -2.4275
  919MOL0     H26778   9.362   8.571   4.353 -0.9805  1.1501  0.7288
  919MOL0     H26779   9.454   8.607   4.210 -1.5603  3.1677  2.1741
  919MOL0     H26780   9.078   8.643   4.061  1.7903 -0.4575  1.7445
  919MOL0     H26781   8.847   8.676   4.011  2.3496  1.2968  1.2664
  919MOL0     H26782   8.754   8.728   4.153 -0.0970 -1.6766  2.9058
  919MOL0     H26783   8.731   8.568   4.105  1.6271 -2.5169  3.4535
  919MOL0     H26784   8.501   8.540   4.563 -0.7902  0.7796  0.9448
  919MOL0     H26785   8.280   8.481   4.609  0.8691  5.2017  1.4148
  919MOL0     H26786   8.116   8.275   4.587 -0.2529 -0.0611 -0.3470
  919MOL0     H26787   8.051   8.434   4.600  1.4758 -0.8779  0.3793
  919MOL0     H26788   7.838   8.346   4.502  2.7941  2.7616  1.6181
  919MOL0     H26789   7.913   8.190   4.456 -2.1830 -0.5899  0.3357
  919MOL0     H26790   7.858   8.257   4.752 -1.5982 -1.5645  0.9134
  919MOL0     H26791   7.926   8.112   4.682  0.4908 -0.1956 -1.3255
  919MOL0     H26792   7.733   8.055   4.571  2.8573  1.2066 -0.3328
  919MOL0     H26793   7.677   8.227   4.579 -0.1113 -0.0290  0.7533
  919MOL0     H26794   7.632   8.213   4.822  2.8962  0.3884  1.2841
  919MOL0     H26795   7.534   8.096   4.740  0.8818 -1.0722 -0.5171
  919MOL0     H26796   7.794   8.042   4.879  0.8726  0.0045  0.3329
  919MOL0     H26797   7.707   7.923   4.786  0.1799  0.2945 -0.8998
  919MOL0     H26798   7.596   7.874   4.990  0.1518 -1.1426 -3.6316
  919MOL0     H26799   7.493   8.006   4.941 -0.4028 -3.7242  2.4948
  919MOL0     H26800   7.618   8.174   5.075  0.0499 -1.3088 -1.8420
  919MOL0     H26801   7.737   8.045   5.123 -0.0189 -1.5611  1.0699
  919MOL0     H26802   8.223   8.410   4.189 -3.1324  1.9447  0.9696
  919MOL0     H26803   8.449   8.482   4.139 -1.5062 -2.0700  0.1056
  919MOL0     H26804   8.969   8.413   4.484 -0.7250  0.8270  0.4043
  919MOL0     H26805   9.192   8.433   4.409 -0.2080  1.0853 -0.2676
  919MOL0     H26806   8.782   8.911   3.878  0.2863  0.7442 -0.5012
  919MOL0     H26807   8.536   8.901   3.840  0.5943 -0.3435  1.6898
  919MOL0     H26808   8.149   9.053   3.878  5.1476 -0.2433 -2.1429
  919MOL0     H26809   7.907   9.099   3.800  1.0659  3.3077  0.2371
  919MOL0     H26810   7.818   8.939   3.487 -3.5386 -3.1478  0.3268
  919MOL0     H26811   7.795   8.967   3.658 -0.3392 -0.8526 -1.4917
  919MOL0     H26812   7.584   8.920   3.539 -0.5709  0.4035 -0.2220
  919MOL0     H26813   7.606   9.074   3.443  0.1537 -0.4472 -1.0928
  919MOL0     H26814   7.551   9.032   3.726 -1.5864  0.0786  0.0434
  919MOL0     H26815   7.588   9.198   3.662 -2.5673  0.7827 -1.5830
  919MOL0     H26816   7.349   9.026   3.604  1.4676 -1.2253 -0.9435
  919MOL0     H26817   7.376   9.173   3.507  0.1130 -0.4015  0.6481
  919MOL0     H26818   7.247   9.326   3.868  1.6543  2.1775 -0.4330
  919MOL0     H26819   8.030   9.178   3.421  4.4956  1.1854 -2.2650
  919MOL0     H26820   8.367   9.263   3.465  0.6731  0.5906 -2.5621
  919MOL0     H26821   8.358   9.080   3.425  0.4589  0.6811 -0.9013
  919MOL0     H26822   8.237   9.187   3.361  2.7874 -0.1039 -2.1006
  920MOL0     O26823   1.282   6.174  10.633 -0.3919  0.2730 -0.0807
  920MOL0     C26824   1.201   6.217  10.708  0.0722 -0.4995 -0.1686
  920MOL0     O26825   1.226   6.293  10.821  0.0045  0.1479  0.8292
  920MOL0     C26826   1.355   6.324  10.864  0.5623 -0.2081  0.2522
  920MOL0     C26827   1.416   6.441  10.803 -0.6618 -0.0049  0.9209
  920MOL0     C26828   1.536   6.490  10.853 -0.5215  0.4841  0.1990
  920MOL0     C26829   1.594   6.414  10.955 -0.5873 -1.0165 -0.9071
  920MOL0     O26830   1.713   6.469  11.000 -0.5947  0.1077 -0.7537
  920MOL0     C26831   1.803   6.363  11.047  0.6881  0.3520  0.1303
  920MOL0     C26832   1.945   6.405  11.081  1.2118 -0.1295  0.6191
  920MOL0     C26833   2.032   6.446  10.967 -0.2368 -0.2098  0.2234
  920MOL0     C26834   2.172   6.489  11.015 -0.5448 -0.0666 -0.2023
  920MOL0     C26835   2.262   6.514  10.892  0.2913 -0.1323  0.2103
  920MOL0     C26836   2.409   6.550  10.933  0.6052 -0.6105  0.9928
  920MOL0     C26837   2.496   6.585  10.809 -0.4659 -0.3206 -1.1009
  920MOL0     C26838   2.560   6.457  10.748 -0.1808 -1.0343  0.2535
  920MOL0     N26839   2.686   6.407  10.819 -0.1465  0.0216  0.3032
  920MOL0     C26840   2.790   6.485  10.850  0.1870 -1.0529 -0.4526
  920MOL0     C26841   2.875   6.408  10.924  0.4857  0.2242 -0.4671
  920MOL0     C26842   3.002   6.431  10.991  0.6676 -0.3231  0.2929
  920MOL0     C26843   2.988   6.476  11.137 -0.5691 -0.2915 -0.2985
  920MOL0     C26844   3.137   6.486  11.192 -0.4513 -0.6095  0.2623
  920MOL0     C26845   3.217   6.621  11.172  0.2844 -0.1319 -0.6089
  920MOL0     O26846   3.279   6.659  11.296 -0.2238 -0.4617  0.2690
  920MOL0     C26847   3.206   6.722  11.394  0.4247 -0.3573  0.7021
  920MOL0     C26848   3.267   6.749  11.520  0.7415 -0.1646  0.7996
  920MOL0     C26849   3.190   6.795  11.629 -0.5572  1.1695 -0.2916
  920MOL0     C26850   3.256   6.825  11.760  0.7154 -0.7203  0.3267
  920MOL0     C26851   3.052   6.821  11.611 -0.5756 -0.1356  0.0485
  920MOL0     C26852   2.955   6.833  11.719 -1.0418  0.0797 -0.4534
  920MOL0     O26853   2.835   6.899  11.696 -0.6183  0.2145 -0.0444
  920MOL0     C26854   2.769   6.934  11.806  0.1049 -0.1912  0.6944
  920MOL0     C26855   2.683   6.847  11.862  0.5158 -0.1285 -0.2526
  920MOL0     C26856   2.614   6.874  11.978 -0.1672 -0.3769 -0.1732
  920MOL0     C26857   2.626   7.002  12.044  0.9835 -0.2503  1.2993
  920MOL0     O26858   2.554   7.040  12.152 -0.3223 -0.0167 -0.1746
  920MOL0     C26859   2.472   6.951  12.231 -1.5659  0.0014 -0.3689
  920MOL0     C26860   2.558   6.842  12.312 -0.3926 -0.1154  0.7964
  920MOL0     C26861   2.503   6.806  12.444  0.3035  0.8066  0.3113
  920MOL0     C26862   2.363   6.749  12.415 -1.3042  0.1411 -0.0544
  920MOL0     C26863   2.303   6.687  12.547 -0.2520 -0.7414  0.3909
  920MOL0     C26864   2.152   6.660  12.541 -0.1694  1.0532 -0.0783
  920MOL0     C26865   2.081   6.628  12.675  0.4734  0.5188  0.5495
  920MOL0     C26866   1.983   6.736  12.725  0.2142  0.1343  1.6049
  920MOL0    Cl26867   2.051   6.896  12.697  0.3127 -0.0619  0.2323
  920MOL0     C26868   2.701   7.092  11.978 -0.1052 -0.6086  0.6287
  920MOL0     C26869   2.776   7.065  11.862 -0.1262 -0.2277  0.1978
  920MOL0     O26870   2.977   6.761  11.824  0.4097 -0.5103  0.4954
  920MOL0     C26871   3.001   6.814  11.474 -0.1000  0.5857 -0.9140
  920MOL0     C26872   3.075   6.757  11.372  0.0884 -0.0708  0.1058
  920MOL0     N26873   2.800   6.289  10.940  0.1635 -0.0901  0.2363
  920MOL0     N26874   2.694   6.288  10.881  0.3085 -0.5804 -0.6744
  920MOL0     C26875   1.537   6.299  11.013  0.2303 -0.2259  0.1608
  920MOL0     C26876   1.412   6.257  10.967 -0.1888 -0.1239  0.2995
  920MOL0     C26877   1.062   6.189  10.680 -0.3460 -0.0183 -0.3708
  920MOL0     C26878   0.971   6.283  10.730 -0.1592  0.2039  0.1456
  920MOL0     C26879   0.835   6.270  10.713  0.1282  0.6034  0.3070
  920MOL0     C26880   0.789   6.148  10.650  0.6298  0.2849 -0.2354
  920MOL0     O26881   0.654   6.128  10.653 -0.3125 -0.3375  0.0116
  920MOL0     C26882   0.586   5.999  10.687  0.4425 -0.7279  0.1399
  920MOL0     C26883   0.438   5.996  10.644 -0.2089 -0.5242 -0.0171
  920MOL0     C26884   0.421   5.991  10.495  0.3046 -0.2326 -0.6631
  920MOL0     C26885   0.289   6.051  10.458 -0.1092 -0.2835 -0.1577
  920MOL0     C26886   0.248   6.022  10.313  0.2617 -0.3325  0.3220
  920MOL0     C26887   0.206   5.998  10.200 -0.1145 -1.1043 -0.6123
  920MOL0     C26888   0.880   6.048  10.608  0.8309 -1.1107 -0.1861
  920MOL0     C26889   1.016   6.074  10.620 -0.5606 -0.6885 -0.6777
  920MOL0     C26890   1.105   5.959  10.579 -1.0164 -0.8133 -0.4920
  920MOL0     H26891   1.355   6.489  10.727 -1.6177 -3.0963 -0.4040
  920MOL0     H26892   1.582   6.581  10.816  1.6383 -1.1367 -1.4024
  920MOL0     H26893   1.812   6.298  10.960 -0.5056  1.2467 -0.6928
  920MOL0     H26894   1.769   6.309  11.136  0.5828 -0.7760 -0.5767
  920MOL0     H26895   1.939   6.479  11.161  1.4512 -1.4578  1.9022
  920MOL0     H26896   1.990   6.318  11.129  1.1633 -2.0826 -2.5553
  920MOL0     H26897   2.039   6.352  10.912 -2.7179 -2.4718  3.4215
  920MOL0     H26898   1.986   6.527  10.909  2.6186  1.0554 -0.4571
  920MOL0     H26899   2.158   6.589  11.057  0.5686 -0.7376  1.9225
  920MOL0     H26900   2.217   6.417  11.084  1.8108  2.4555  1.0366
  920MOL0     H26901   2.218   6.601  10.842  1.4107  1.2028  1.4718
  920MOL0     H26902   2.280   6.430  10.825  3.9281  3.6193 -4.2408
  920MOL0     H26903   2.399   6.637  10.999 -1.7734  0.7616 -1.0225
  920MOL0     H26904   2.464   6.469  10.982  1.6084 -1.7158 -1.7651
  920MOL0     H26905   2.583   6.643  10.839  0.6752 -1.0178 -2.8893
  920MOL0     H26906   2.436   6.638  10.735 -2.2904 -1.7780 -0.7596
  920MOL0     H26907   2.478   6.383  10.751  0.7518 -2.1097 -0.0513
  920MOL0     H26908   2.587   6.483  10.646  0.7665  2.0521  1.1761
  920MOL0     H26909   2.802   6.586  10.812  2.7163 -2.0029 -2.4410
  920MOL0     H26910   3.045   6.512  10.932 -3.1048 -1.4286 -4.5921
  920MOL0     H26911   3.075   6.351  10.975 -0.0133 -0.9860  0.4344
  920MOL0     H26912   2.941   6.574  11.149  2.9730  1.7375 -1.4049
  920MOL0     H26913   2.926   6.405  11.191  0.9732 -1.3775  0.1075
  920MOL0     H26914   3.134   6.466  11.300  2.5779  1.3516  0.8474
  920MOL0     H26915   3.199   6.408  11.147  1.7307  1.6047 -0.8071
  920MOL0     H26916   3.296   6.614  11.097 -0.1344 -1.7927 -0.9410
  920MOL0     H26917   3.152   6.700  11.130  0.8982  0.4914 -0.4012
  920MOL0     H26918   3.375   6.739  11.522  0.9817  1.8368 -0.2851
  920MOL0     H26919   3.220   6.916  11.808 -0.2086 -0.2999 -1.1061
  920MOL0     H26920   3.362   6.846  11.742  0.2773 -0.1203 -1.8743
  920MOL0     H26921   3.246   6.744  11.833  2.1817 -0.4256  0.8952
  920MOL0     H26922   2.688   6.747  11.822  0.0591 -0.8793  1.4831
  920MOL0     H26923   2.556   6.791  12.016  2.8776 -2.2790  0.6431
  920MOL0     H26924   2.410   7.007  12.301  2.7727  2.3149  2.0128
  920MOL0     H26925   2.402   6.899  12.165 -2.2014  1.5331 -0.9633
  920MOL0     H26926   2.558   6.763  12.237 -0.0360  1.5158 -0.9952
  920MOL0     H26927   2.660   6.880  12.322 -0.4172  0.6365 -1.3786
  920MOL0     H26928   2.502   6.896  12.507  2.1695 -0.9460  3.0881
  920MOL0     H26929   2.563   6.739  12.506 -1.1023  0.6257  1.5230
  920MOL0     H26930   2.383   6.674  12.337  0.9712  0.8112 -0.1832
  920MOL0     H26931   2.290   6.826  12.388 -1.2681 -0.7438 -3.1035
  920MOL0     H26932   2.367   6.602  12.575  0.1029 -0.6954 -0.2750
  920MOL0     H26933   2.305   6.770  12.618 -0.7149  0.5125 -1.0165
  920MOL0     H26934   2.149   6.565  12.487 -1.4951  0.2255  1.3520
  920MOL0     H26935   2.112   6.745  12.484  2.4285  1.2624 -1.7472
  920MOL0     H26936   2.150   6.604  12.756  0.0709  0.3722  0.8512
  920MOL0     H26937   2.004   6.551  12.664 -1.4296  1.9817  2.7093
  920MOL0     H26938   1.949   6.715  12.827 -2.9983  0.4385  0.7112
  920MOL0     H26939   1.900   6.742  12.653  1.7337 -0.2588 -0.2624
  920MOL0     H26940   2.719   7.192  12.018 -2.4637  2.8569 -5.5370
  920MOL0     H26941   2.838   7.139  11.813 -1.3110  0.9967  0.4689
  920MOL0     H26942   2.897   6.838  11.453 -0.1140  0.6067 -0.8217
  920MOL0     H26943   3.026   6.740  11.276 -0.7654  0.3016  0.4600
  920MOL0     H26944   1.580   6.239  11.092  3.4274  2.6782  0.8824
  920MOL0     H26945   1.369   6.172  11.018 -1.7557  0.8378  0.6557
  920MOL0     H26946   1.008   6.371  10.780  1.9555 -0.7297  0.2958
  920MOL0     H26947   0.762   6.346  10.739 -0.9060  0.4222 -1.8298
  920MOL0     H26948   0.626   5.905  10.647 -0.9528 -2.9121  3.4089
  920MOL0     H26949   0.589   5.999  10.796 -0.2714  2.7853  0.2811
  920MOL0     H26950   0.398   6.087  10.689  1.5597  0.9009 -1.2158
  920MOL0     H26951   0.396   5.902  10.683  2.4505 -2.3543 -1.2646
  920MOL0     H26952   0.491   6.036  10.424 -1.7606 -0.0878 -2.7423
  920MOL0     H26953   0.409   5.885  10.470 -0.2272 -0.5193  0.7259
  920MOL0     H26954   0.288   6.156  10.486  0.4434 -0.9262  2.5664
  920MOL0     H26955   0.220   6.002  10.527  1.4332 -3.2128 -0.5277
  920MOL0     H26956   0.165   5.987  10.101 -0.7037 -2.0781 -0.2791
  920MOL0     H26957   0.837   5.960  10.561 -0.0743  0.8087 -3.2485
  920MOL0     H26958   1.195   5.951  10.640  0.3605 -0.1327 -2.3110
  920MOL0     H26959   1.049   5.866  10.565 -0.5841 -1.4201  1.5894
  920MOL0     H26960   1.145   5.994  10.483 -0.4565 -2.0173 -0.7137
  921MOL0     O26961   2.335   9.241   6.198 -0.1195 -0.2674  0.7005
  921MOL0     C26962   2.431   9.299   6.149 -0.4302 -0.2887  0.8383
  921MOL0     O26963   2.555   9.301   6.202 -0.5681  0.3371  0.0560
  921MOL0     C26964   2.584   9.249   6.326 -0.2067  0.7157 -0.0778
  921MOL0     C26965   2.672   9.323   6.408  0.0883  0.7516  0.5361
  921MOL0     C26966   2.733   9.290   6.530 -0.2784 -0.0357 -0.2379
  921MOL0     C26967   2.706   9.164   6.587  0.0550 -0.1692  0.6548
  921MOL0     O26968   2.769   9.110   6.705 -1.1672 -0.5918  0.0863
  921MOL0     C26969   2.863   9.203   6.780 -0.2135  0.4558 -0.2132
  921MOL0     C26970   2.948   9.115   6.869 -0.2604 -0.4150 -0.0794
  921MOL0     C26971   2.869   9.059   6.994  0.3440 -0.1033  0.8678
  921MOL0     C26972   2.937   8.972   7.088 -0.2741  0.1636 -0.2992
  921MOL0     C26973   2.833   8.923   7.196  0.1832 -0.4550 -0.2861
  921MOL0     C26974   2.886   8.844   7.320 -1.3491 -0.5903 -0.1292
  921MOL0     C26975   2.949   8.707   7.286 -0.4701 -0.4087 -0.1563
  921MOL0     C26976   2.849   8.588   7.293  0.5746 -0.2680 -0.2584
  921MOL0     N26977   2.925   8.456   7.285 -0.1892  0.2929 -0.5638
  921MOL0     C26978   2.891   8.347   7.203  0.6892 -0.2679 -0.3744
  921MOL0     C26979   2.991   8.258   7.236 -0.4941 -0.5536 -0.7229
  921MOL0     C26980   3.007   8.122   7.193  0.8228  0.6760  0.4136
  921MOL0     C26981   2.969   8.101   7.044 -0.9751 -0.4811 -0.2818
  921MOL0     C26982   3.008   7.956   6.998 -0.2365  0.4118  0.2453
  921MOL0     C26983   2.909   7.903   6.884  0.3778 -0.1813 -0.1698
  921MOL0     O26984   2.877   8.010   6.786  0.0243  0.1241 -0.6024
  921MOL0     C26985   2.882   7.966   6.660  1.0069  0.4544  0.9350
  921MOL0     C26986   2.974   8.011   6.568 -0.4217 -0.1857 -0.2229
  921MOL0     C26987   2.971   7.983   6.427  0.2298 -1.0615 -0.8283
  921MOL0     C26988   3.080   8.042   6.331  0.1375 -0.0806  0.3729
  921MOL0     C26989   2.868   7.903   6.382 -0.3820 -0.2805 -0.4598
  921MOL0     C26990   2.847   7.852   6.242 -0.7451 -0.5202  0.9622
  921MOL0     O26991   2.725   7.813   6.209 -0.2678 -0.7362 -0.1596
  921MOL0     C26992   2.671   7.833   6.087 -0.8188  0.0267 -0.5075
  921MOL0     C26993   2.719   7.929   5.996 -0.5027  0.7100 -0.9215
  921MOL0     C26994   2.658   7.955   5.876  0.0216 -0.2198 -0.8027
  921MOL0     C26995   2.545   7.880   5.837  0.1578 -0.4850 -0.9377
  921MOL0     O26996   2.490   7.899   5.717  0.0355 -0.6028 -0.4205
  921MOL0     C26997   2.459   8.035   5.686  1.0302  0.4250  0.0591
  921MOL0     C26998   2.362   8.038   5.570  0.3324  0.5803  0.6170
  921MOL0     C26999   2.279   8.169   5.565 -1.2703  0.0730 -0.2085
  921MOL0     C27000   2.184   8.156   5.451 -0.0132  0.0225  0.8810
  921MOL0     C27001   2.159   8.283   5.389  0.6102  0.2597  0.1387
  921MOL0     C27002   2.081   8.260   5.264 -0.2543  0.2429  0.4834
  921MOL0     C27003   1.931   8.225   5.296  0.0946 -0.6707  0.3678
  921MOL0     C27004   1.847   8.279   5.180 -0.1677  0.3045 -0.0766
  921MOL0    Cl27005   1.886   8.172   5.035 -0.0499 -0.4431  0.1560
  921MOL0     C27006   2.490   7.786   5.928  0.4325 -0.2380  0.1366
  921MOL0     C27007   2.556   7.765   6.049 -1.0545  0.4582  0.1582
  921MOL0     O27008   2.943   7.856   6.159 -0.1738 -0.2561  0.1099
  921MOL0     C27009   2.778   7.849   6.475 -0.4930  0.1357  1.0972
  921MOL0     C27010   2.780   7.879   6.608  0.3755  0.1636 -0.5603
  921MOL0     N27011   3.060   8.306   7.348 -0.4032  0.3219  0.4916
  921MOL0     N27012   3.024   8.420   7.380  0.5614 -0.4407  0.2056
  921MOL0     C27013   2.625   9.074   6.502  0.1650 -0.9044  0.1553
  921MOL0     C27014   2.569   9.119   6.380 -0.0590 -1.3157 -0.7206
  921MOL0     C27015   2.420   9.357   6.015 -0.5689  0.7673  0.2457
  921MOL0     C27016   2.540   9.426   5.973 -0.2314 -0.5714  0.0929
  921MOL0     C27017   2.546   9.492   5.850  0.6982  0.0106  0.0112
  921MOL0     C27018   2.424   9.504   5.773  0.2970  0.3850 -0.3523
  921MOL0     O27019   2.420   9.580   5.656  0.7587  0.6453  0.3598
  921MOL0     C27020   2.405   9.503   5.536 -0.5983 -0.0128  0.0807
  921MOL0     C27021   2.401   9.597   5.417  0.3088  0.8408 -0.4990
  921MOL0     C27022   2.376   9.533   5.279 -0.1545  0.6664  0.4900
  921MOL0     C27023   2.229   9.489   5.245  0.2044 -0.1295 -0.2383
  921MOL0     C27024   2.217   9.455   5.102 -0.1639  0.4343 -1.3072
  921MOL0     C27025   2.217   9.435   4.982 -0.2089  0.1129  0.4906
  921MOL0     C27026   2.303   9.445   5.819 -0.6241 -0.2019  0.1402
  921MOL0     C27027   2.294   9.366   5.936 -0.5454  0.3673  1.0356
  921MOL0     C27028   2.166   9.307   5.967  1.2023  0.7257 -0.2582
  921MOL0     H27029   2.696   9.418   6.361 -1.9952  0.2212 -1.8261
  921MOL0     H27030   2.796   9.362   6.581 -1.7785 -1.1840  3.6160
  921MOL0     H27031   2.801   9.272   6.837 -2.2843  0.9858 -2.9063
  921MOL0     H27032   2.939   9.266   6.734  1.9637 -0.0570  2.4184
  921MOL0     H27033   2.984   9.039   6.799 -2.0559 -1.2049 -0.1930
  921MOL0     H27034   3.034   9.170   6.909  0.2497  0.4240 -2.1780
  921MOL0     H27035   2.849   9.150   7.052  2.9186  0.8379  0.4300
  921MOL0     H27036   2.778   9.013   6.956  2.0850 -2.9555 -0.1426
  921MOL0     H27037   2.969   8.891   7.022  1.4943  1.4403 -1.0657
  921MOL0     H27038   3.022   9.016   7.141  2.2323 -4.0544 -0.3899
  921MOL0     H27039   2.753   8.863   7.151 -0.9699  0.6712  0.1839
  921MOL0     H27040   2.779   9.011   7.234 -0.8298 -0.3603 -1.8144
  921MOL0     H27041   2.961   8.913   7.360 -1.1894 -1.5900  1.3830
  921MOL0     H27042   2.796   8.844   7.382 -4.5779  0.2887 -4.3647
  921MOL0     H27043   3.031   8.689   7.355  0.1081 -1.0885 -0.9916
  921MOL0     H27044   2.991   8.712   7.185 -0.1692  0.6603  0.0144
  921MOL0     H27045   2.789   8.598   7.384  1.5081  1.3223  0.2327
  921MOL0     H27046   2.782   8.592   7.207  0.1067 -2.2986 -0.0341
  921MOL0     H27047   2.811   8.333   7.131 -0.0896  0.5236  0.3073
  921MOL0     H27048   2.950   8.060   7.262 -1.1672  1.0091 -0.8629
  921MOL0     H27049   3.107   8.083   7.214  1.2416  0.3253 -1.9197
  921MOL0     H27050   2.862   8.101   7.021 -1.1785 -1.2237  0.6181
  921MOL0     H27051   3.027   8.166   6.978  1.6399 -0.4053  1.9522
  921MOL0     H27052   3.110   7.956   6.960  0.6071  0.1695  2.3453
  921MOL0     H27053   2.989   7.878   7.073 -5.0947 -0.6020 -1.6055
  921MOL0     H27054   2.939   7.803   6.851 -0.9653 -2.1516  3.8769
  921MOL0     H27055   2.818   7.881   6.941  0.4170  1.5968  0.6458
  921MOL0     H27056   3.061   8.066   6.605 -0.1591 -0.6267 -0.1801
  921MOL0     H27057   3.108   7.967   6.256 -2.0936  0.5088 -1.1380
  921MOL0     H27058   3.173   8.063   6.384  1.9326 -0.0367 -2.5315
  921MOL0     H27059   3.033   8.133   6.293 -2.4851 -0.6435  2.0209
  921MOL0     H27060   2.810   7.983   6.019 -0.3443 -0.5081  1.6050
  921MOL0     H27061   2.709   8.026   5.811 -0.6635  0.5679 -0.4976
  921MOL0     H27062   2.420   8.099   5.765  0.0119 -0.1968  0.0663
  921MOL0     H27063   2.555   8.088   5.680  2.1613 -1.0860  2.8372
  921MOL0     H27064   2.413   8.030   5.474 -2.8638 -0.3132 -1.1717
  921MOL0     H27065   2.293   7.953   5.562  1.6965 -0.5358  0.3893
  921MOL0     H27066   2.346   8.255   5.556 -0.2263 -0.2330  3.1192
  921MOL0     H27067   2.216   8.176   5.654  0.6785 -2.9729  1.6224
  921MOL0     H27068   2.095   8.119   5.502 -0.3554  0.8125  0.8627
  921MOL0     H27069   2.233   8.093   5.375 -0.0813  1.0779 -0.0609
  921MOL0     H27070   2.094   8.334   5.461 -2.7117 -2.9428 -0.3238
  921MOL0     H27071   2.247   8.340   5.355 -1.7089  3.8633 -0.4061
  921MOL0     H27072   2.130   8.177   5.212 -2.2572 -1.4583  1.1748
  921MOL0     H27073   2.082   8.349   5.199 -1.7908  0.3532  0.5850
  921MOL0     H27074   1.891   8.273   5.385  1.3763 -1.2855  1.3129
  921MOL0     H27075   1.920   8.116   5.290 -1.3845 -0.6518  1.9273
  921MOL0     H27076   1.873   8.383   5.157 -0.5751 -0.4017 -4.6454
  921MOL0     H27077   1.741   8.270   5.202 -0.6284  0.5633 -1.9898
  921MOL0     H27078   2.391   7.741   5.920  0.5089 -0.3089 -0.4533
  921MOL0     H27079   2.512   7.692   6.116  1.3294 -0.2091  1.1025
  921MOL0     H27080   2.702   7.778   6.444  1.9973 -2.1827 -0.0740
  921MOL0     H27081   2.699   7.847   6.672  0.2089 -1.2042 -1.4118
  921MOL0     H27082   2.612   8.971   6.533  1.4341 -0.5615  1.9291
  921MOL0     H27083   2.502   9.058   6.320 -2.4996  1.1095 -0.6780
  921MOL0     H27084   2.635   9.436   6.025 -0.1637  2.7630 -0.4312
  921MOL0     H27085   2.641   9.516   5.804  0.8024 -0.6451 -0.1269
  921MOL0     H27086   2.492   9.441   5.512 -0.7321  0.5092 -1.8775
  921MOL0     H27087   2.316   9.439   5.542  1.0188 -2.3941  0.0706
  921MOL0     H27088   2.484   9.668   5.410  1.4352 -0.6400 -4.7729
  921MOL0     H27089   2.316   9.666   5.419  0.4031  0.9497  0.1674
  921MOL0     H27090   2.412   9.602   5.202  3.2363 -2.3710 -0.9238
  921MOL0     H27091   2.451   9.455   5.264  1.3753  2.4228 -1.6125
  921MOL0     H27092   2.154   9.566   5.265 -2.0649 -1.8659 -1.5911
  921MOL0     H27093   2.209   9.403   5.309  3.2173 -1.0916 -0.4501
  921MOL0     H27094   2.209   9.413   4.878  0.4967 -0.9779  0.6587
  921MOL0     H27095   2.221   9.464   5.751  1.6880  0.3010 -2.7654
  921MOL0     H27096   2.091   9.334   5.892 -0.5399 -1.1031  0.7141
  921MOL0     H27097   2.184   9.199   5.962 -0.8349  0.2454  1.5323
  921MOL0     H27098   2.111   9.325   6.059 -3.3275  0.9444 -2.6866
  922MOL0     O27099   9.574   1.269   9.692  0.6968 -0.0628 -0.1218
  922MOL0     C27100   9.534   1.158   9.735 -0.3011 -0.2262  0.7956
  922MOL0     O27101   9.468   1.067   9.653  0.0658 -0.2794 -0.0316
  922MOL0     C27102   9.461   1.085   9.511  0.3688 -0.8040 -0.4336
  922MOL0     C27103   9.381   0.993   9.442  0.3555 -0.1473  1.2663
  922MOL0     C27104   9.371   0.992   9.300 -0.7570  0.6549 -1.0100
  922MOL0     C27105   9.446   1.082   9.224  0.0461  0.8160  0.4695
  922MOL0     O27106   9.449   1.069   9.085 -0.4480 -0.4687  0.2520
  922MOL0     C27107   9.413   0.942   9.014 -0.1617 -1.3415  0.2727
  922MOL0     C27108   9.516   0.830   9.035 -0.0701 -0.4493 -0.9317
  922MOL0     C27109   9.652   0.892   8.985 -0.9618  0.4785  0.1032
  922MOL0     C27110   9.771   0.787   9.002 -0.1081  1.6453  1.4304
  922MOL0     C27111   9.825   0.731   8.872 -0.2593  0.0808 -0.3396
  922MOL0     C27112   9.741   0.636   8.796 -1.3326 -0.2704 -0.1612
  922MOL0     C27113   9.815   0.583   8.675 -0.5539 -0.1111  0.0963
  922MOL0     C27114   9.732   0.469   8.606  0.3699 -0.7585 -0.0847
  922MOL0     N27115   9.606   0.508   8.548 -0.3150 -0.7770  0.0289
  922MOL0     C27116   9.483   0.477   8.585  0.9386 -0.0985 -0.0003
  922MOL0     C27117   9.412   0.534   8.485 -0.4464  0.5912 -0.0919
  922MOL0     C27118   9.258   0.550   8.448 -0.4115  0.4700  0.2577
  922MOL0     C27119   9.183   0.578   8.580 -0.1277  0.0515  0.0418
  922MOL0     C27120   9.197   0.720   8.639  0.0546 -0.0722 -0.1613
  922MOL0     C27121   9.138   0.735   8.781 -0.0739  0.3580 -0.0215
  922MOL0     O27122   9.206   0.643   8.874  0.6447 -0.6574  0.3977
  922MOL0     C27123   9.189   0.667   9.001 -0.1762  0.0293 -0.7846
  922MOL0     C27124   9.076   0.737   9.056  0.4610 -0.4594  0.1031
  922MOL0     C27125   9.054   0.749   9.190 -0.1562  0.1572 -0.1283
  922MOL0     C27126   8.932   0.817   9.241  0.1356 -0.1664 -0.1809
  922MOL0     C27127   9.142   0.675   9.285 -0.8540 -0.1824 -0.9677
  922MOL0     C27128   9.122   0.656   9.422  0.1523 -0.3819  0.0508
  922MOL0     O27129   9.235   0.649   9.502  0.3361  0.5247  0.0364
  922MOL0     C27130   9.216   0.619   9.635  0.9187  0.8835  0.3754
  922MOL0     C27131   9.173   0.724   9.720  0.2020  0.1993  0.9306
  922MOL0     C27132   9.160   0.702   9.862  0.0607  0.2955  0.5816
  922MOL0     C27133   9.189   0.573   9.914  0.4168  0.4785 -0.2641
  922MOL0     O27134   9.171   0.535  10.041  0.5988  0.3304  0.0564
  922MOL0     C27135   9.061   0.603  10.103 -0.0952  0.1218 -0.7292
  922MOL0     C27136   8.923   0.538  10.087 -0.6886 -0.9304 -0.2816
  922MOL0     C27137   8.940   0.386  10.089  0.2872 -0.0337 -0.5734
  922MOL0     C27138   8.800   0.325  10.102 -1.1430  0.0476  0.4148
  922MOL0     C27139   8.810   0.166  10.081  0.1983 -0.0905  0.1251
  922MOL0     C27140   8.888   0.111  10.206 -0.2930 -0.4900 -0.8519
  922MOL0     C27141   8.872  -0.043  10.209  0.4004 -0.2299 -0.0869
  922MOL0     C27142   8.958  -0.112  10.097 -0.4115 -0.0175 -0.1978
  922MOL0    Cl27143   9.130  -0.121  10.156 -0.0758  0.0874  0.0468
  922MOL0     C27144   9.232   0.476   9.824  0.6812  0.4894  1.4779
  922MOL0     C27145   9.243   0.496   9.687 -1.2778 -0.4987  0.1361
  922MOL0     O27146   9.006   0.632   9.457  0.2658  0.1778  0.9973
  922MOL0     C27147   9.259   0.621   9.236 -0.3751 -0.5169 -0.6418
  922MOL0     C27148   9.279   0.617   9.099 -0.0345 -0.2008  0.6696
  922MOL0     N27149   9.497   0.581   8.387  0.7045  0.0656 -0.0860
  922MOL0     N27150   9.612   0.556   8.423  0.5606  0.7268  0.7552
  922MOL0     C27151   9.530   1.165   9.291 -0.3852  0.5298  0.3547
  922MOL0     C27152   9.544   1.167   9.428  0.8791  0.7607 -0.8207
  922MOL0     C27153   9.537   1.134   9.874  0.0555 -0.0961  0.4201
  922MOL0     C27154   9.499   1.003   9.913 -0.9448  0.3310 -0.1357
  922MOL0     C27155   9.507   0.960  10.044 -0.3398 -1.0361 -0.5981
  922MOL0     C27156   9.563   1.042  10.148  0.5155 -0.4018  0.6878
  922MOL0     O27157   9.569   1.007  10.282 -0.4051 -0.0972 -0.1795
  922MOL0     C27158   9.494   0.894  10.332 -0.4364 -0.8456  1.4588
  922MOL0     C27159   9.498   0.894  10.483 -1.1309  0.6258  0.7027
  922MOL0     C27160   9.431   0.777  10.561  0.0498 -0.0890 -0.5270
  922MOL0     C27161   9.500   0.636  10.537 -0.0130  0.7977  0.9269
  922MOL0     C27162   9.472   0.575  10.404  1.2109 -1.0947  0.7952
  922MOL0     C27163   9.423   0.546  10.294 -0.7000 -1.0908 -0.4294
  922MOL0     C27164   9.612   1.168  10.104  0.3189 -1.0196  0.1653
  922MOL0     C27165   9.591   1.222   9.975 -0.0817  0.9448  0.4342
  922MOL0     C27166   9.634   1.363   9.957  0.4670 -0.5218 -0.7668
  922MOL0     H27167   9.317   0.925   9.498 -0.7272  0.2516  0.5547
  922MOL0     H27168   9.323   0.903   9.260 -3.5614  3.9044 -5.9738
  922MOL0     H27169   9.419   0.965   8.907  0.5352  1.7394  0.8575
  922MOL0     H27170   9.307   0.927   9.036 -0.5727  1.1638  0.3747
  922MOL0     H27171   9.514   0.807   9.142  0.6750  2.5816 -0.1783
  922MOL0     H27172   9.496   0.742   8.972  1.1876 -2.4655  1.3200
  922MOL0     H27173   9.646   0.912   8.877  2.3972 -0.5022 -0.3972
  922MOL0     H27174   9.692   0.982   9.034  3.5922 -0.6524 -1.0513
  922MOL0     H27175   9.853   0.846   9.042  3.0130 -0.0331 -1.9033
  922MOL0     H27176   9.747   0.708   9.074 -3.2336  2.4123  1.4051
  922MOL0     H27177   9.919   0.682   8.896  0.1582 -0.6686 -3.1730
  922MOL0     H27178   9.839   0.819   8.808 -0.6809  0.0151 -0.5256
  922MOL0     H27179   9.719   0.560   8.871 -0.6981 -0.8943 -0.5962
  922MOL0     H27180   9.651   0.684   8.756  0.4949  1.5100 -2.4109
  922MOL0     H27181   9.917   0.552   8.702  0.3697  1.7917 -0.9661
  922MOL0     H27182   9.826   0.663   8.600  1.5588 -2.0508 -1.8309
  922MOL0     H27183   9.798   0.422   8.533 -0.7376  0.2041 -1.7733
  922MOL0     H27184   9.703   0.395   8.682 -1.5841 -2.6266 -2.4695
  922MOL0     H27185   9.443   0.434   8.676 -0.7488  0.8739 -0.2520
  922MOL0     H27186   9.211   0.458   8.411 -0.3754  1.0616 -1.3396
  922MOL0     H27187   9.232   0.622   8.370  0.1491 -1.0096 -1.3653
  922MOL0     H27188   9.078   0.583   8.549  0.1392  2.8785 -0.7059
  922MOL0     H27189   9.207   0.503   8.654  0.4414  0.7763  0.5998
  922MOL0     H27190   9.297   0.763   8.641  0.0808 -0.1121  2.4163
  922MOL0     H27191   9.132   0.784   8.578  1.3395  1.2931 -0.1507
  922MOL0     H27192   9.144   0.841   8.808 -0.6351 -0.0863  1.9957
  922MOL0     H27193   9.035   0.699   8.777  0.6011 -1.6436 -0.3918
  922MOL0     H27194   8.998   0.777   8.993  1.6821  1.4084 -0.3129
  922MOL0     H27195   8.900   0.905   9.186 -1.6320  1.0735  2.6129
  922MOL0     H27196   8.954   0.846   9.344  0.2642  1.0341 -0.5306
  922MOL0     H27197   8.845   0.751   9.239  0.3680 -0.4655 -0.4781
  922MOL0     H27198   9.140   0.822   9.686 -3.6239 -1.0116  0.6122
  922MOL0     H27199   9.111   0.784   9.913 -3.5815 -1.0393 -0.4815
  922MOL0     H27200   9.084   0.606  10.210 -1.4739 -0.9547 -0.3764
  922MOL0     H27201   9.045   0.705  10.068 -2.2228  0.3854  0.7959
  922MOL0     H27202   8.856   0.581  10.162 -1.8738 -2.0636 -0.6655
  922MOL0     H27203   8.884   0.560   9.987  0.7499 -1.0360 -0.8896
  922MOL0     H27204   8.984   0.345  10.181 -2.4170 -0.5294  0.6058
  922MOL0     H27205   9.008   0.342  10.015  2.2079 -1.6151  1.9379
  922MOL0     H27206   8.749   0.377  10.020  2.3505  3.8871  0.4118
  922MOL0     H27207   8.748   0.336  10.198 -2.3787 -0.6070 -0.1468
  922MOL0     H27208   8.710   0.123  10.084 -1.8012  4.0495  0.7961
  922MOL0     H27209   8.854   0.142   9.984 -0.7967 -1.8913  0.0808
  922MOL0     H27210   8.856   0.169  10.294 -0.2598  0.5238 -1.4863
  922MOL0     H27211   8.997   0.119  10.195 -0.2129 -0.0539  0.1874
  922MOL0     H27212   8.769  -0.068  10.183 -0.1458  1.4325  0.3885
  922MOL0     H27213   8.894  -0.082  10.309 -0.6108 -0.2198  0.1531
  922MOL0     H27214   8.951  -0.067   9.998 -1.7248  0.2191 -0.0120
  922MOL0     H27215   8.915  -0.211  10.077  0.7985 -0.2335 -1.8784
  922MOL0     H27216   9.247   0.372   9.851  4.8221  0.7670  0.8092
  922MOL0     H27217   9.283   0.419   9.622 -0.4279  0.2150 -0.2058
  922MOL0     H27218   9.327   0.574   9.305 -2.2279 -1.0895  0.8712
  922MOL0     H27219   9.374   0.575   9.067  0.2343  1.6564 -1.1374
  922MOL0     H27220   9.586   1.229   9.223  2.0747 -0.5823  1.2075
  922MOL0     H27221   9.609   1.241   9.475  1.6023 -1.0883  1.2748
  922MOL0     H27222   9.449   0.932   9.848 -1.6583 -0.0532  0.8108
  922MOL0     H27223   9.462   0.871  10.087 -3.2244  0.2953 -0.6082
  922MOL0     H27224   9.389   0.898  10.301 -0.4831  1.8302  1.7015
  922MOL0     H27225   9.535   0.799  10.296  0.9764  0.2390  0.0328
  922MOL0     H27226   9.471   0.997  10.508 -0.2439  1.7163 -2.4850
  922MOL0     H27227   9.602   0.895  10.515 -0.4128  1.6525 -1.4773
  922MOL0     H27228   9.436   0.803  10.667 -1.8938  0.6145 -0.5625
  922MOL0     H27229   9.322   0.777  10.547 -0.2646  1.5820  1.3913
  922MOL0     H27230   9.477   0.562  10.614 -1.2334  0.5358  0.3413
  922MOL0     H27231   9.608   0.647  10.548  0.8331 -3.4958 -1.1137
  922MOL0     H27232   9.379   0.500  10.208 -0.3544 -2.8140  0.2749
  922MOL0     H27233   9.649   1.238  10.178  2.4607  1.1515 -2.6919
  922MOL0     H27234   9.689   1.398  10.045 -2.1636 -2.5033  1.8529
  922MOL0     H27235   9.690   1.370   9.864 -1.3065 -2.8356 -2.1112
  922MOL0     H27236   9.544   1.423   9.943  0.7904  0.3521  0.6695
  923MOL0     O27237   1.639   1.805   0.314  0.1437  0.3703  0.5432
  923MOL0     C27238   1.538   1.748   0.341  0.8169  0.3554  0.7820
  923MOL0     O27239   1.410   1.795   0.320 -0.6275 -0.1937  0.8724
  923MOL0     C27240   1.400   1.911   0.253  0.5217  1.1359 -1.4383
  923MOL0     C27241   1.446   1.935   0.124  0.1827  0.2667  0.6723
  923MOL0     C27242   1.426   2.065   0.070  0.5845 -0.5525 -0.9388
  923MOL0     C27243   1.365   2.171   0.140 -1.5049  0.0854 -0.3064
  923MOL0     O27244   1.351   2.290   0.082  0.5380  0.4268  0.2797
  923MOL0     C27245   1.218   2.348   0.098 -0.6686  1.3110  0.7217
  923MOL0     C27246   1.175   2.423  -0.028  0.4680  0.4367  0.9856
  923MOL0     C27247   1.018   2.444  -0.028 -0.3552  0.6867  0.8414
  923MOL0     C27248   0.985   2.578  -0.110  0.2095 -0.2122  0.7030
  923MOL0     C27249   0.833   2.598  -0.106 -0.3102 -0.4320 -0.5414
  923MOL0     C27250   0.797   2.737  -0.165  0.5926  0.7012 -0.7968
  923MOL0     C27251   0.644   2.750  -0.166  0.2957 -0.4057  0.2084
  923MOL0     C27252   0.610   2.894  -0.134  0.2517  0.7571  0.8842
  923MOL0     N27253   0.517   2.906  -0.021  0.0437 -0.6633  0.9915
  923MOL0     C27254   0.413   3.002  -0.020 -0.3143 -0.2901 -0.0099
  923MOL0     C27255   0.377   3.013   0.113 -0.1563  0.3732 -0.1846
  923MOL0     C27256   0.267   3.115   0.181 -0.4849  0.1816  0.5008
  923MOL0     C27257   0.334   3.253   0.213  0.4366  0.3352  0.6782
  923MOL0     C27258   0.232   3.357   0.270  0.2796  0.4087 -0.1661
  923MOL0     C27259   0.321   3.481   0.293  0.5671 -1.1414  0.8700
  923MOL0     O27260   0.410   3.463   0.408  0.2558  0.5937  0.1068
  923MOL0     C27261   0.479   3.570   0.471  0.8193 -0.6912  0.5003
  923MOL0     C27262   0.547   3.544   0.592  0.7791 -0.2660 -0.4029
  923MOL0     C27263   0.609   3.639   0.673 -0.2764  0.2651  0.1201
  923MOL0     C27264   0.669   3.585   0.806  0.3744 -0.1549  0.5800
  923MOL0     C27265   0.598   3.777   0.633 -0.7221 -0.1987 -0.0146
  923MOL0     C27266   0.652   3.891   0.720 -0.1117  0.3835 -0.0385
  923MOL0     O27267   0.697   3.996   0.652 -0.2675  1.1965  0.4632
  923MOL0     C27268   0.810   4.057   0.704 -0.1606  0.5236 -0.3001
  923MOL0     C27269   0.836   4.187   0.655  0.1858 -0.3483  0.0709
  923MOL0     C27270   0.960   4.244   0.674  0.9957 -0.6578 -0.3180
  923MOL0     C27271   1.054   4.191   0.754  0.3773  0.8803  0.5549
  923MOL0     O27272   1.177   4.243   0.784  0.3269  0.0464  0.6182
  923MOL0     C27273   1.248   4.321   0.684  0.8123 -1.6796  0.3814
  923MOL0     C27274   1.303   4.448   0.751 -1.1654 -0.3992  0.0706
  923MOL0     C27275   1.394   4.418   0.878 -0.1816 -0.5367 -0.4767
  923MOL0     C27276   1.417   4.544   0.970 -1.1794 -1.2567  0.1881
  923MOL0     C27277   1.500   4.653   0.908 -0.3234  0.7827 -0.2549
  923MOL0     C27278   1.627   4.603   0.831 -0.6073 -0.2977  0.2645
  923MOL0     C27279   1.721   4.716   0.787 -0.7222 -0.0659 -0.7606
  923MOL0     C27280   1.865   4.666   0.786  0.3557 -0.4448 -1.3094
  923MOL0    Cl27281   1.957   4.805   0.710  0.1900  0.0231  0.1160
  923MOL0     C27282   1.027   4.062   0.822 -1.6375  0.6403  0.7721
  923MOL0     C27283   0.907   3.996   0.792  0.0066 -0.2225 -0.5857
  923MOL0     O27284   0.625   3.899   0.839 -0.3183  0.2480  0.2091
  923MOL0     C27285   0.537   3.804   0.508  0.4532  0.2328  0.3031
  923MOL0     C27286   0.482   3.704   0.429  0.3069 -0.1200 -0.0680
  923MOL0     N27287   0.465   2.937   0.195  0.1882  0.4524  0.1906
  923MOL0     N27288   0.527   2.862   0.106  1.0355 -0.7828  0.3301
  923MOL0     C27289   1.334   2.146   0.267 -0.5486 -0.4782  0.4954
  923MOL0     C27290   1.347   2.019   0.328 -0.4655  0.1494  0.3570
  923MOL0     C27291   1.538   1.610   0.396 -0.0832  0.2879  0.5016
  923MOL0     C27292   1.442   1.570   0.484 -0.3446  0.8971  0.6747
  923MOL0     C27293   1.448   1.454   0.559 -0.3749 -0.4035  0.3522
  923MOL0     C27294   1.557   1.375   0.552 -0.2235  0.4087  0.8227
  923MOL0     O27295   1.578   1.262   0.634 -0.5254 -1.3734 -1.0370
  923MOL0     C27296   1.485   1.246   0.742  0.6685  0.0002 -1.8429
  923MOL0     C27297   1.540   1.131   0.844 -0.0982 -0.3691 -0.2284
  923MOL0     C27298   1.514   0.983   0.808  1.0444 -0.2862  0.0927
  923MOL0     C27299   1.557   0.958   0.657  0.3408 -0.1105  0.3609
  923MOL0     C27300   1.563   0.821   0.609 -1.0424 -0.5269 -0.3673
  923MOL0     C27301   1.575   0.711   0.560  0.4832  0.3208  0.2152
  923MOL0     C27302   1.654   1.405   0.452  0.1877  0.2793 -1.5074
  923MOL0     C27303   1.648   1.514   0.375 -0.1449  0.1359  0.2481
  923MOL0     C27304   1.742   1.540   0.253  0.2287 -0.1610 -0.8278
  923MOL0     H27305   1.509   1.863   0.072  0.5589 -0.4718  2.0837
  923MOL0     H27306   1.468   2.087  -0.028  2.6318  1.2618  0.2823
  923MOL0     H27307   1.233   2.417   0.182 -0.1850 -1.1731  2.8109
  923MOL0     H27308   1.144   2.271   0.121  1.0159 -0.6014  0.0061
  923MOL0     H27309   1.233   2.515  -0.025 -1.1216  1.4532  2.8288
  923MOL0     H27310   1.201   2.365  -0.117  1.3304 -1.5067  2.4182
  923MOL0     H27311   0.983   2.356  -0.082  0.6227  0.3587  0.7148
  923MOL0     H27312   0.964   2.431   0.066  1.4454 -0.4718  1.7789
  923MOL0     H27313   1.040   2.666  -0.075 -1.5479  1.8044 -1.2925
  923MOL0     H27314   1.003   2.556  -0.215 -1.1433 -1.5137  0.7196
  923MOL0     H27315   0.788   2.592  -0.007  0.4440  0.4389 -0.1382
  923MOL0     H27316   0.784   2.514  -0.157  0.2116 -3.0291  2.8425
  923MOL0     H27317   0.858   2.800  -0.100  0.4478 -0.6060  0.6621
  923MOL0     H27318   0.831   2.749  -0.268 -0.4072 -3.8492 -1.9051
  923MOL0     H27319   0.609   2.680  -0.090  1.5181 -1.8214 -0.4746
  923MOL0     H27320   0.597   2.710  -0.256 -3.5928 -1.1868  2.3824
  923MOL0     H27321   0.700   2.954  -0.116  0.9556 -0.0758  0.2083
  923MOL0     H27322   0.565   2.949  -0.217  3.3622  2.2528  0.0612
  923MOL0     H27323   0.373   3.059  -0.104 -1.9456 -3.7068 -1.7747
  923MOL0     H27324   0.229   3.080   0.277 -0.1472  2.3323  1.4913
  923MOL0     H27325   0.190   3.143   0.108  1.0704  4.7906  0.3039
  923MOL0     H27326   0.408   3.238   0.293  0.2808  2.3536  1.2397
  923MOL0     H27327   0.381   3.299   0.126  2.1640 -1.3635  0.6377
  923MOL0     H27328   0.156   3.373   0.193  0.8894 -3.6287 -1.8534
  923MOL0     H27329   0.191   3.320   0.365 -0.4272 -1.2871 -1.0871
  923MOL0     H27330   0.387   3.510   0.211 -0.5317 -1.6301 -0.2081
  923MOL0     H27331   0.256   3.569   0.293  0.1575 -1.1250 -4.3485
  923MOL0     H27332   0.557   3.439   0.620  0.5503  0.1558  1.3821
  923MOL0     H27333   0.718   3.667   0.859  0.3202  2.1228 -2.6597
  923MOL0     H27334   0.741   3.515   0.763 -2.5304 -1.0234 -3.4690
  923MOL0     H27335   0.586   3.530   0.852  0.2226 -0.2532  0.1929
  923MOL0     H27336   0.759   4.236   0.596  3.3642  2.8193 -1.8464
  923MOL0     H27337   0.967   4.349   0.647  0.5970 -1.0525 -2.0871
  923MOL0     H27338   1.331   4.272   0.633  0.4980  0.0499 -1.9550
  923MOL0     H27339   1.184   4.356   0.603  1.6684  0.7972  0.6770
  923MOL0     H27340   1.368   4.508   0.687 -2.1950  0.1571 -0.4826
  923MOL0     H27341   1.218   4.513   0.775  0.3609  0.4065  3.9493
  923MOL0     H27342   1.495   4.383   0.854 -0.2759 -0.5375 -0.8754
  923MOL0     H27343   1.351   4.340   0.941 -0.1259  0.9484  1.5076
  923MOL0     H27344   1.479   4.509   1.053  3.0801 -0.0629 -2.1815
  923MOL0     H27345   1.320   4.583   1.002  0.2025  2.4727  0.3006
  923MOL0     H27346   1.435   4.706   0.837 -2.1756  0.6201  1.2577
  923MOL0     H27347   1.529   4.722   0.988  3.1654 -1.3562  0.5352
  923MOL0     H27348   1.608   4.539   0.745 -0.7856  0.9548 -0.6580
  923MOL0     H27349   1.686   4.541   0.899  1.2033  0.9484 -0.0788
  923MOL0     H27350   1.707   4.805   0.849  1.0504  0.8160 -1.5395
  923MOL0     H27351   1.691   4.760   0.692 -0.1573  1.9792 -0.0281
  923MOL0     H27352   1.883   4.570   0.735 -1.6009 -2.9617  2.2536
  923MOL0     H27353   1.907   4.662   0.887  2.8686 -0.5595 -2.2810
  923MOL0     H27354   1.093   4.017   0.896 -0.2055  2.7157  0.8603
  923MOL0     H27355   0.871   3.904   0.839 -1.8693  1.4499  1.4861
  923MOL0     H27356   0.542   3.904   0.466 -0.1475  0.6500  1.1958
  923MOL0     H27357   0.436   3.719   0.331 -1.7933  0.0090  0.8793
  923MOL0     H27358   1.290   2.228   0.323  1.4161  2.5688 -2.1123
  923MOL0     H27359   1.318   1.996   0.430  0.0408 -4.0522 -0.2711
  923MOL0     H27360   1.346   1.616   0.504  1.0074  2.3767  4.5711
  923MOL0     H27361   1.366   1.446   0.629 -0.9958  0.3127 -0.2651
  923MOL0     H27362   1.474   1.346   0.785  1.4288  0.7430 -3.2981
  923MOL0     H27363   1.386   1.213   0.707  0.7109 -1.4467 -0.7052
  923MOL0     H27364   1.502   1.146   0.946 -0.5199  1.7319 -0.6432
  923MOL0     H27365   1.646   1.154   0.852 -0.6503  2.0998  1.1371
  923MOL0     H27366   1.579   0.918   0.868  2.9968  1.5206  0.0345
  923MOL0     H27367   1.412   0.947   0.824  0.5749 -1.2655 -3.9032
  923MOL0     H27368   1.657   1.002   0.649  0.1694 -0.1269 -3.2224
  923MOL0     H27369   1.487   1.017   0.597 -0.3766  0.1003  1.3801
  923MOL0     H27370   1.563   0.612   0.520 -1.7048  1.1217 -1.2798
  923MOL0     H27371   1.742   1.342   0.443  0.0715  0.3624 -3.8738
  923MOL0     H27372   1.676   1.534   0.166 -1.2812  1.2600  0.1480
  923MOL0     H27373   1.799   1.633   0.260 -1.4849  1.0709 -2.1966
  923MOL0     H27374   1.798   1.448   0.235 -0.9668 -1.1539  0.2621
  924MOL0     O27375   6.612   2.664   9.813  0.3137 -0.5197 -0.0675
  924MOL0     C27376   6.645   2.684   9.698 -0.2329 -0.0540  0.3917
  924MOL0     O27377   6.743   2.615   9.629  0.5766  0.3559 -0.0246
  924MOL0     C27378   6.793   2.495   9.676  0.7943  0.4297 -0.6531
  924MOL0     C27379   6.749   2.407   9.771 -0.0954  0.6329  0.0197
  924MOL0     C27380   6.838   2.305   9.822 -0.1632  0.0517  0.2749
  924MOL0     C27381   6.961   2.287   9.767  0.5387 -0.5256 -0.0861
  924MOL0     O27382   7.049   2.221   9.843 -1.2822  0.5193  0.2793
  924MOL0     C27383   7.126   2.113   9.790 -0.0475 -0.3025 -0.5813
  924MOL0     C27384   7.043   2.031   9.692  0.2398 -1.5420  0.8347
  924MOL0     C27385   7.103   1.902   9.650 -0.2746  0.4652  0.2717
  924MOL0     C27386   7.022   1.846   9.537 -1.1055 -0.0606  0.1472
  924MOL0     C27387   7.081   1.702   9.504  0.8131  1.6502  0.4025
  924MOL0     C27388   7.006   1.632   9.395 -0.2393 -0.7252  0.3815
  924MOL0     C27389   6.910   1.520   9.451 -0.7641 -0.6304  0.1132
  924MOL0     C27390   6.823   1.458   9.340 -0.0565 -0.0985 -0.9498
  924MOL0     N27391   6.880   1.398   9.218 -0.5017 -0.1654  0.1350
  924MOL0     C27392   6.909   1.456   9.099  0.8331  0.5686 -0.8887
  924MOL0     C27393   6.953   1.362   9.014 -1.1847  1.1050  1.0444
  924MOL0     C27394   6.995   1.387   8.863 -0.8260  0.9857  0.2139
  924MOL0     C27395   6.879   1.356   8.770  0.7841  0.3336 -0.1324
  924MOL0     C27396   6.764   1.452   8.790  0.3343  0.1261 -0.7823
  924MOL0     C27397   6.645   1.410   8.688 -1.0129 -0.5435  0.2055
  924MOL0     O27398   6.698   1.429   8.562  0.4587  0.0042  0.1096
  924MOL0     C27399   6.612   1.428   8.447  0.1475  0.1392 -0.1386
  924MOL0     C27400   6.641   1.494   8.321 -0.7090 -0.6579 -0.6627
  924MOL0     C27401   6.559   1.476   8.207  0.1196  1.0532  0.0665
  924MOL0     C27402   6.607   1.539   8.076 -0.2547 -0.2437  0.1467
  924MOL0     C27403   6.438   1.409   8.225  0.6308 -0.7263  0.6786
  924MOL0     C27404   6.335   1.384   8.125 -0.2638 -0.1288 -0.0251
  924MOL0     O27405   6.327   1.490   8.036 -0.5195  0.0925 -0.6142
  924MOL0     C27406   6.266   1.483   7.916 -0.6647 -0.3133 -0.8330
  924MOL0     C27407   6.233   1.363   7.846  0.3638  0.1339 -0.9929
  924MOL0     C27408   6.201   1.361   7.718  0.3900 -0.2841  0.6079
  924MOL0     C27409   6.193   1.477   7.643 -0.0315  0.6828 -0.9551
  924MOL0     O27410   6.170   1.474   7.515 -0.3834  0.0742 -0.1609
  924MOL0     C27411   6.052   1.396   7.472 -0.5581 -0.7160 -0.5732
  924MOL0     C27412   6.048   1.421   7.316 -0.6281 -0.6163 -0.7493
  924MOL0     C27413   5.911   1.358   7.270 -1.3192  0.5406 -0.0306
  924MOL0     C27414   5.875   1.377   7.131  0.2740 -0.1797  0.7471
  924MOL0     C27415   5.720   1.364   7.129 -0.6882 -0.1934  0.4252
  924MOL0     C27416   5.657   1.397   6.988 -0.5691  0.4945 -1.0078
  924MOL0     C27417   5.649   1.549   6.943  0.5415  0.3214  0.1855
  924MOL0     C27418   5.649   1.574   6.787  0.1479 -0.0243  0.1149
  924MOL0    Cl27419   5.793   1.509   6.699  0.5833  0.3626 -0.1643
  924MOL0     C27420   6.194   1.593   7.715  0.2459 -0.2909 -0.1775
  924MOL0     C27421   6.236   1.606   7.853 -0.3897  1.1118 -1.1115
  924MOL0     O27422   6.251   1.295   8.129  0.6919  0.3954 -0.0268
  924MOL0     C27423   6.404   1.369   8.351  0.1908 -0.0279 -0.2930
  924MOL0     C27424   6.494   1.372   8.456  0.5925  1.0650  0.1415
  924MOL0     N27425   6.945   1.238   9.084  0.0626 -0.7391 -0.3078
  924MOL0     N27426   6.906   1.263   9.208  0.4620 -0.2639 -0.5809
  924MOL0     C27427   7.006   2.376   9.670  0.4447  0.3172  0.7514
  924MOL0     C27428   6.925   2.481   9.626  0.3601  1.0895 -0.9534
  924MOL0     C27429   6.588   2.792   9.614 -1.5759  0.0049  1.2619
  924MOL0     C27430   6.623   2.791   9.473 -0.1404  0.5496 -0.5637
  924MOL0     C27431   6.580   2.887   9.381  0.0915  0.3476  0.6256
  924MOL0     C27432   6.497   2.993   9.424 -0.5656 -0.1438 -0.2593
  924MOL0     O27433   6.449   3.093   9.341 -0.8496  1.0377 -0.6311
  924MOL0     C27434   6.304   3.099   9.344  0.2068 -0.0884 -0.6984
  924MOL0     C27435   6.236   3.194   9.249 -0.1834 -0.4952 -0.6309
  924MOL0     C27436   6.281   3.170   9.108 -0.2928 -0.9803 -0.8370
  924MOL0     C27437   6.181   3.226   9.018 -0.3506  0.2857  0.4629
  924MOL0     C27438   6.193   3.372   9.009 -0.5286  0.0880  0.1581
  924MOL0     C27439   6.227   3.485   8.998  0.5958 -0.4316 -0.8650
  924MOL0     C27440   6.474   3.006   9.557  0.0974 -0.3653  0.5481
  924MOL0     C27441   6.511   2.913   9.651  0.0311 -0.6495 -0.5899
  924MOL0     C27442   6.475   2.934   9.802  1.1521 -0.5675  0.1240
  924MOL0     H27443   6.645   2.419   9.801  0.4553  2.9862  1.2497
  924MOL0     H27444   6.814   2.247   9.911 -0.9708  1.4704  1.0124
  924MOL0     H27445   7.153   2.038   9.865 -1.1569 -0.5647 -0.4365
  924MOL0     H27446   7.216   2.159   9.747 -0.4919  2.7018  1.3525
  924MOL0     H27447   6.942   2.017   9.732  1.2708 -1.7985  3.6236
  924MOL0     H27448   7.035   2.092   9.602 -2.5080 -3.9577 -0.7283
  924MOL0     H27449   7.208   1.920   9.625  0.0487 -0.6209  0.7920
  924MOL0     H27450   7.101   1.833   9.735 -1.1504  0.1647  0.0122
  924MOL0     H27451   6.917   1.834   9.565 -0.8671 -0.9845  0.7215
  924MOL0     H27452   7.018   1.914   9.452 -2.0477  1.0200  1.0226
  924MOL0     H27453   7.085   1.630   9.587  0.0660 -1.9923 -2.4459
  924MOL0     H27454   7.178   1.713   9.455  0.6152 -0.1727 -0.5010
  924MOL0     H27455   6.942   1.707   9.348  2.5044  1.8799  0.4788
  924MOL0     H27456   7.060   1.580   9.315 -1.2677 -0.1364 -0.7252
  924MOL0     H27457   6.844   1.563   9.527 -1.5045 -0.3340 -0.6858
  924MOL0     H27458   6.959   1.432   9.495 -0.2904 -0.9412 -1.0015
  924MOL0     H27459   6.757   1.378   9.376 -2.6524  1.0408 -2.8314
  924MOL0     H27460   6.752   1.535   9.310  0.0782  0.7316  0.7371
  924MOL0     H27461   6.895   1.558   9.063 -4.7606 -0.0850 -1.4044
  924MOL0     H27462   7.083   1.325   8.849 -2.0327 -0.8509  0.3752
  924MOL0     H27463   7.029   1.490   8.849  0.3096  0.3320 -2.1870
  924MOL0     H27464   6.910   1.349   8.666 -2.1092  0.7181 -1.1139
  924MOL0     H27465   6.840   1.258   8.801  0.9991 -0.4067 -2.0763
  924MOL0     H27466   6.747   1.445   8.898 -1.3799  3.3068 -0.7302
  924MOL0     H27467   6.799   1.551   8.759 -1.6273  0.9011 -0.6741
  924MOL0     H27468   6.613   1.306   8.703 -2.1811 -0.3277 -0.6486
  924MOL0     H27469   6.563   1.481   8.705 -0.9653  0.4497 -3.1147
  924MOL0     H27470   6.735   1.548   8.315 -2.7136  3.2996 -0.0777
  924MOL0     H27471   6.576   1.479   7.989 -0.3402 -0.5440  0.3857
  924MOL0     H27472   6.713   1.562   8.086 -0.2169 -1.0402  1.9130
  924MOL0     H27473   6.564   1.640   8.081  1.7243  0.6495  0.0533
  924MOL0     H27474   6.258   1.267   7.891  1.3993  0.9401  0.2269
  924MOL0     H27475   6.176   1.272   7.661  0.7864  1.2650 -2.1496
  924MOL0     H27476   6.069   1.289   7.486 -2.7429 -1.0008  0.2817
  924MOL0     H27477   5.961   1.428   7.524 -0.4799  1.4876 -1.6885
  924MOL0     H27478   6.057   1.530   7.304 -0.3525 -0.2261  2.1571
  924MOL0     H27479   6.135   1.369   7.274  0.5221  0.7831 -0.2149
  924MOL0     H27480   5.846   1.416   7.336  1.1029 -0.6348  3.7488
  924MOL0     H27481   5.899   1.255   7.308 -1.1109 -0.6683 -2.9993
  924MOL0     H27482   5.914   1.307   7.056 -0.3529  1.9367 -1.7082
  924MOL0     H27483   5.898   1.476   7.092  0.6455 -0.8543 -0.8328
  924MOL0     H27484   5.696   1.262   7.160  0.7616 -0.2565  1.4702
  924MOL0     H27485   5.672   1.435   7.198  1.4129 -0.0273  1.7927
  924MOL0     H27486   5.556   1.356   6.989  0.7155 -3.1270  0.9514
  924MOL0     H27487   5.711   1.335   6.916  0.1644  0.9573 -0.8656
  924MOL0     H27488   5.722   1.618   6.987 -2.2908  2.2804  2.2151
  924MOL0     H27489   5.555   1.588   6.984  1.6094  4.5908 -0.8862
  924MOL0     H27490   5.659   1.681   6.766 -0.7005 -0.1710 -1.1583
  924MOL0     H27491   5.552   1.539   6.752 -0.4600  1.0545  0.6851
  924MOL0     H27492   6.170   1.686   7.664  1.0968  0.6654  1.0823
  924MOL0     H27493   6.241   1.705   7.897 -0.0092  0.5822  0.0809
  924MOL0     H27494   6.306   1.323   8.361  0.2901 -0.2085 -0.1394
  924MOL0     H27495   6.468   1.325   8.550  0.3398 -0.0393 -0.4688
  924MOL0     H27496   7.109   2.374   9.637 -0.1904 -0.4850 -1.3599
  924MOL0     H27497   6.969   2.547   9.552  3.1008  2.2415  1.5151
  924MOL0     H27498   6.675   2.708   9.425  0.9287  0.9558 -0.1286
  924MOL0     H27499   6.605   2.869   9.276  0.7127 -1.9903  1.1013
  924MOL0     H27500   6.255   3.002   9.345  0.4010 -0.1856 -0.3353
  924MOL0     H27501   6.278   3.139   9.443  0.8929 -4.0162  1.2565
  924MOL0     H27502   6.280   3.292   9.273  2.5744 -2.6031  4.3614
  924MOL0     H27503   6.129   3.191   9.272 -0.4495  0.9657 -1.4828
  924MOL0     H27504   6.377   3.222   9.098 -1.4159  1.1182 -1.1362
  924MOL0     H27505   6.280   3.062   9.087 -2.2125 -0.9734 -0.9698
  924MOL0     H27506   6.079   3.200   9.046 -0.7648  0.0069 -1.2136
  924MOL0     H27507   6.210   3.181   8.922 -0.9566 -0.6771  0.7250
  924MOL0     H27508   6.239   3.589   8.976  0.9867 -0.3708 -0.3959
  924MOL0     H27509   6.430   3.100   9.590  0.2600 -0.2064  0.3120
  924MOL0     H27510   6.469   3.042   9.820 -0.0251 -0.8987  1.9882
  924MOL0     H27511   6.378   2.891   9.829 -0.0389  3.0668  2.3586
  924MOL0     H27512   6.544   2.884   9.871  0.5134 -0.2855  0.9950
  925MOL0     O27513   5.363   4.626   1.614  0.2399 -0.3209  0.2405
  925MOL0     C27514   5.364   4.739   1.559 -0.1543  0.2540  0.8823
  925MOL0     O27515   5.481   4.800   1.525  0.4526 -0.2695  0.1338
  925MOL0     C27516   5.597   4.764   1.581  0.4045  0.6136  0.2314
  925MOL0     C27517   5.645   4.625   1.582 -0.6404  0.7978  1.2075
  925MOL0     C27518   5.763   4.589   1.656  0.8786 -1.0982 -1.0103
  925MOL0     C27519   5.826   4.688   1.732  0.3203 -0.3271 -0.0115
  925MOL0     O27520   5.941   4.643   1.794  0.3985 -0.4515  0.4365
  925MOL0     C27521   6.021   4.725   1.875 -0.1790  1.4728  1.3293
  925MOL0     C27522   6.117   4.653   1.963 -0.9163  1.2695 -0.0795
  925MOL0     C27523   6.224   4.562   1.897 -0.3118  0.1757 -0.1809
  925MOL0     C27524   6.340   4.540   1.989 -0.7696 -0.1694 -0.5628
  925MOL0     C27525   6.424   4.410   1.950 -0.2068  1.2802  0.1637
  925MOL0     C27526   6.557   4.419   2.034  0.5576  0.3770  0.7533
  925MOL0     C27527   6.660   4.321   1.971  0.1640  0.7539 -0.3956
  925MOL0     C27528   6.785   4.328   2.049 -0.1102  0.7430  0.4525
  925MOL0     N27529   6.906   4.255   1.993  0.0048 -0.7479 -0.7110
  925MOL0     C27530   6.940   4.120   2.004  0.5203 -0.0271  0.3587
  925MOL0     C27531   7.064   4.107   1.937  1.3078 -0.2943  0.7106
  925MOL0     C27532   7.154   3.986   1.932  0.7310  0.1031 -0.0360
  925MOL0     C27533   7.271   4.012   2.033 -0.4277  0.4284 -0.3087
  925MOL0     C27534   7.357   3.885   2.061 -0.6188 -0.3547 -0.1250
  925MOL0     C27535   7.470   3.862   1.960  0.1646  0.6352  0.1532
  925MOL0     O27536   7.419   3.769   1.858  0.1069 -0.1545  0.6741
  925MOL0     C27537   7.500   3.697   1.772  0.0307 -0.4333 -0.6367
  925MOL0     C27538   7.635   3.653   1.801  0.0764 -0.4232  0.3863
  925MOL0     C27539   7.709   3.571   1.704  0.5825  0.1185 -0.3201
  925MOL0     C27540   7.842   3.535   1.750  0.1193  0.4864 -0.1646
  925MOL0     C27541   7.648   3.541   1.585 -0.8738 -0.0219  0.0794
  925MOL0     C27542   7.733   3.484   1.474  0.5392 -0.2982  0.1202
  925MOL0     O27543   7.672   3.378   1.396  0.5518  0.2152 -0.2614
  925MOL0     C27544   7.746   3.337   1.295 -0.5854  0.2029 -0.0833
  925MOL0     C27545   7.742   3.387   1.173 -0.8971 -0.5091  0.5921
  925MOL0     C27546   7.824   3.329   1.074  0.9297  0.3094  0.0235
  925MOL0     C27547   7.903   3.216   1.108 -0.5216 -1.3384 -0.2288
  925MOL0     O27548   7.964   3.128   1.024 -0.0800 -0.5689  0.5923
  925MOL0     C27549   7.938   3.137   0.884  0.8059  0.1363  0.0776
  925MOL0     C27550   8.029   3.236   0.811  0.0444  0.0260 -0.6069
  925MOL0     C27551   8.074   3.177   0.681 -0.7029 -1.3336  0.0742
  925MOL0     C27552   8.149   3.292   0.603  0.3550  0.1151 -0.1182
  925MOL0     C27553   8.179   3.233   0.463  0.3540 -0.1312 -0.4262
  925MOL0     C27554   8.300   3.152   0.459 -0.8711  0.9002  0.1093
  925MOL0     C27555   8.428   3.242   0.485 -0.9307 -0.3149  0.1100
  925MOL0     C27556   8.554   3.173   0.435  0.1075 -0.2837 -0.2199
  925MOL0    Cl27557   8.589   3.025   0.524  0.1577 -0.1107 -0.2293
  925MOL0     C27558   7.905   3.171   1.244 -0.0681  0.9769 -0.2163
  925MOL0     C27559   7.833   3.236   1.331  0.3288 -0.2540 -0.4970
  925MOL0     O27560   7.851   3.534   1.451  0.4922 -1.2981  0.0259
  925MOL0     C27561   7.512   3.575   1.561 -0.1604  0.0456 -0.9165
  925MOL0     C27562   7.441   3.655   1.648 -0.5033  0.3863  0.4259
  925MOL0     N27563   7.087   4.229   1.885 -0.6648  1.1860 -0.0851
  925MOL0     N27564   7.004   4.315   1.924 -1.1127 -0.3422 -0.1054
  925MOL0     C27565   5.775   4.817   1.732  0.8890  0.3247 -0.4769
  925MOL0     C27566   5.658   4.861   1.663 -0.6837  1.0616  0.7555
  925MOL0     C27567   5.233   4.804   1.526  0.1688 -0.0796 -1.0010
  925MOL0     C27568   5.109   4.761   1.577 -1.0566  0.3420  0.2227
  925MOL0     C27569   4.993   4.830   1.557  1.3655 -0.0421 -0.4491
  925MOL0     C27570   4.982   4.950   1.499  0.6655  0.9312 -0.0130
  925MOL0     O27571   4.855   5.005   1.496  0.5958 -0.0608  0.2528
  925MOL0     C27572   4.780   4.962   1.384 -0.0955 -0.0078 -0.0580
  925MOL0     C27573   4.839   4.991   1.251  0.5628 -0.4149  0.2146
  925MOL0     C27574   4.745   4.933   1.143 -0.0200  0.1124 -0.2619
  925MOL0     C27575   4.806   4.950   1.001 -0.2972  0.0611  0.5649
  925MOL0     C27576   4.794   4.832   0.920 -0.0924 -0.5393 -0.1437
  925MOL0     C27577   4.761   4.747   0.839  0.7527 -0.0159 -0.4541
  925MOL0     C27578   5.104   5.006   1.455 -0.9194  0.9273  0.1719
  925MOL0     C27579   5.232   4.931   1.469 -0.2836 -0.2476 -0.0414
  925MOL0     C27580   5.353   5.012   1.426  0.3654  1.1262  0.2194
  925MOL0     H27581   5.600   4.552   1.515 -3.2771  1.2048  2.4333
  925MOL0     H27582   5.799   4.487   1.666  1.2365 -0.9474 -0.7592
  925MOL0     H27583   5.946   4.787   1.925 -1.1744  2.5151 -1.2917
  925MOL0     H27584   6.068   4.792   1.803 -1.5967  1.3049  0.2076
  925MOL0     H27585   6.159   4.738   2.017  0.2060  1.5499 -1.3530
  925MOL0     H27586   6.057   4.600   2.038  3.0304 -0.6911  1.9935
  925MOL0     H27587   6.182   4.466   1.868  2.1205 -0.5265 -1.5751
  925MOL0     H27588   6.270   4.606   1.808 -1.9481 -0.3776 -1.3534
  925MOL0     H27589   6.406   4.627   1.994  1.7356 -2.0448  1.6690
  925MOL0     H27590   6.292   4.517   2.085 -2.2081 -3.2460 -1.8788
  925MOL0     H27591   6.448   4.408   1.844 -3.8400 -0.8810 -0.7660
  925MOL0     H27592   6.365   4.320   1.971  1.0267  0.0319 -1.4573
  925MOL0     H27593   6.602   4.516   2.010  0.9482 -0.6253 -3.3526
  925MOL0     H27594   6.541   4.430   2.141 -2.3101  1.1927  0.3291
  925MOL0     H27595   6.688   4.336   1.866  2.7465  1.6553  0.3415
  925MOL0     H27596   6.623   4.218   1.971  0.5756  0.5851 -1.4474
  925MOL0     H27597   6.822   4.431   2.044 -0.9986  1.0080 -2.2876
  925MOL0     H27598   6.750   4.282   2.142 -1.9204  3.0679  1.0229
  925MOL0     H27599   6.888   4.040   2.055 -1.0552 -1.7391 -3.4720
  925MOL0     H27600   7.186   3.953   1.833 -0.2508 -0.3221 -0.2244
  925MOL0     H27601   7.099   3.895   1.957  1.8840 -0.2157  1.4810
  925MOL0     H27602   7.322   4.106   2.011 -1.0394  1.2670  1.6986
  925MOL0     H27603   7.228   4.041   2.129 -0.5778 -0.2967 -0.1496
  925MOL0     H27604   7.415   3.895   2.153 -0.9869  2.9128 -0.1407
  925MOL0     H27605   7.302   3.790   2.065 -1.0141 -0.1503 -0.5742
  925MOL0     H27606   7.509   3.957   1.921  0.5629  0.2877 -0.3005
  925MOL0     H27607   7.551   3.810   2.012 -1.7869 -2.5772  0.2243
  925MOL0     H27608   7.689   3.681   1.891  1.4421 -1.9003  0.0831
  925MOL0     H27609   7.926   3.596   1.715  0.3090  1.5217  1.9232
  925MOL0     H27610   7.855   3.430   1.722 -2.1322  0.0074  0.4599
  925MOL0     H27611   7.849   3.537   1.859  0.1206 -0.8739 -0.1192
  925MOL0     H27612   7.684   3.474   1.144  1.7321  0.9942 -0.5287
  925MOL0     H27613   7.826   3.368   0.973 -2.8589  2.4560  0.5880
  925MOL0     H27614   7.951   3.037   0.842 -2.2338 -0.2653 -0.0971
  925MOL0     H27615   7.835   3.161   0.856  0.0471 -2.1811  0.6234
  925MOL0     H27616   7.965   3.322   0.792  1.5623  0.8671 -2.2154
  925MOL0     H27617   8.112   3.266   0.875 -2.0008  0.2252  2.0955
  925MOL0     H27618   7.986   3.150   0.622 -0.0020  1.3963 -2.4722
  925MOL0     H27619   8.130   3.084   0.695 -0.8324 -1.3461  0.5156
  925MOL0     H27620   8.238   3.312   0.662 -2.4479  0.8079  4.3303
  925MOL0     H27621   8.089   3.381   0.582 -1.7854 -1.4727 -1.2165
  925MOL0     H27622   8.091   3.179   0.425 -1.4026 -1.1747  4.4070
  925MOL0     H27623   8.189   3.317   0.393  1.9302 -0.3205 -0.4469
  925MOL0     H27624   8.323   3.114   0.359  0.1855  0.9836  0.3109
  925MOL0     H27625   8.295   3.068   0.529 -2.5205  0.8452 -0.0324
  925MOL0     H27626   8.444   3.263   0.591  0.3730 -1.0875  0.0885
  925MOL0     H27627   8.422   3.334   0.425  0.5850 -1.2709 -1.6371
  925MOL0     H27628   8.643   3.236   0.444 -0.5085  0.3198  2.8517
  925MOL0     H27629   8.532   3.150   0.331  0.5481  1.2381 -0.6807
  925MOL0     H27630   7.960   3.078   1.261 -1.9893 -0.0582  0.7230
  925MOL0     H27631   7.830   3.200   1.434 -0.3943 -1.2261 -0.8431
  925MOL0     H27632   7.461   3.547   1.470  1.5413 -0.1750 -1.8470
  925MOL0     H27633   7.342   3.698   1.636 -0.0157  1.6069  0.5954
  925MOL0     H27634   5.823   4.904   1.776  0.6983  0.5136 -0.6454
  925MOL0     H27635   5.625   4.963   1.648 -0.4504  1.4699  2.7709
  925MOL0     H27636   5.098   4.658   1.611  1.5280  0.1990  0.7933
  925MOL0     H27637   4.905   4.772   1.581  1.1475  1.1916  2.0615
  925MOL0     H27638   4.748   4.859   1.401  0.2530 -0.1847 -0.4345
  925MOL0     H27639   4.693   5.028   1.389 -1.5732 -1.9392  2.8833
  925MOL0     H27640   4.940   4.954   1.232  0.7669  0.5896 -0.7646
  925MOL0     H27641   4.838   5.098   1.229  0.1263 -0.9193 -2.6833
  925MOL0     H27642   4.729   4.825   1.150  1.1982 -0.0338  0.6067
  925MOL0     H27643   4.648   4.981   1.159  0.4322  0.1670  2.9619
  925MOL0     H27644   4.913   4.969   1.017 -0.1264  0.6256 -1.0567
  925MOL0     H27645   4.766   5.044   0.963  6.3776  2.1550 -2.8588
  925MOL0     H27646   4.738   4.675   0.763  1.9290  0.1935 -1.0425
  925MOL0     H27647   5.099   5.107   1.415 -3.8854  0.5252 -0.7420
  925MOL0     H27648   5.427   5.035   1.504  0.2375 -1.9396  1.3994
  925MOL0     H27649   5.408   4.955   1.350  0.9841  2.1391 -0.1130
  925MOL0     H27650   5.322   5.099   1.368  1.9569  0.0597 -2.4087
  926MOL0     O27651   1.081   7.257   3.781  0.6798 -0.7433 -0.4006
  926MOL0     C27652   0.965   7.259   3.831  0.7884 -0.5526  0.2685
  926MOL0     O27653   0.855   7.301   3.755 -0.5657 -0.4571 -0.3118
  926MOL0     C27654   0.864   7.323   3.623  0.6865 -1.0210 -0.3428
  926MOL0     C27655   0.925   7.440   3.579  0.3587  0.2924 -0.2923
  926MOL0     C27656   0.956   7.463   3.444 -0.7914  0.1449 -1.0960
  926MOL0     C27657   0.907   7.367   3.354  0.9062 -0.5327 -0.3035
  926MOL0     O27658   0.922   7.378   3.220 -0.2331  0.6492  0.6367
  926MOL0     C27659   1.038   7.445   3.169  0.1067 -0.6506  0.5825
  926MOL0     C27660   1.096   7.391   3.037  0.7088  0.5101 -0.2473
  926MOL0     C27661   1.189   7.277   3.053  0.0888  0.5613  0.3447
  926MOL0     C27662   1.194   7.195   2.921  0.8202  0.2400 -0.1022
  926MOL0     C27663   1.312   7.098   2.925 -0.6504  0.4626 -0.5972
  926MOL0     C27664   1.439   7.167   2.878 -0.2720 -0.5885  0.6934
  926MOL0     C27665   1.559   7.066   2.854  1.1396  0.8003  0.2751
  926MOL0     C27666   1.652   7.137   2.757  0.3536 -0.0227 -0.3986
  926MOL0     N27667   1.791   7.087   2.768  0.0314  0.4604  0.0502
  926MOL0     C27668   1.905   7.156   2.796  0.3127  1.3452 -0.3597
  926MOL0     C27669   2.006   7.067   2.771 -0.6121  0.2559 -0.1823
  926MOL0     C27670   2.151   7.082   2.782  0.4143 -0.6560  0.4750
  926MOL0     C27671   2.220   6.963   2.858  0.0774 -1.6302 -0.1709
  926MOL0     C27672   2.372   6.961   2.817 -0.4303  0.0576  0.8422
  926MOL0     C27673   2.453   6.851   2.893 -0.7473 -0.3058 -0.4420
  926MOL0     O27674   2.600   6.872   2.877  0.6298 -0.3766  0.1939
  926MOL0     C27675   2.692   6.814   2.958 -0.6891 -0.1492  0.2879
  926MOL0     C27676   2.676   6.771   3.090  0.4181 -0.3678 -0.7865
  926MOL0     C27677   2.783   6.727   3.170  0.4382 -0.6295  0.0731
  926MOL0     C27678   2.745   6.698   3.309  0.6636 -0.8951  0.6873
  926MOL0     C27679   2.914   6.728   3.116 -0.2686 -0.3109  0.5453
  926MOL0     C27680   3.035   6.688   3.189  0.3882 -0.5613 -0.0556
  926MOL0     O27681   3.155   6.747   3.148 -0.2934 -0.2034  0.1573
  926MOL0     C27682   3.277   6.711   3.199  0.9400  0.3044  0.3334
  926MOL0     C27683   3.365   6.815   3.232  0.2738  0.0548 -0.4755
  926MOL0     C27684   3.490   6.786   3.289  0.6737 -0.1318 -1.0815
  926MOL0     C27685   3.533   6.650   3.297 -0.9614  0.0769 -0.1201
  926MOL0     O27686   3.661   6.619   3.334  0.7527  0.0582 -0.2134
  926MOL0     C27687   3.772   6.703   3.299  0.3853  0.3804  0.0837
  926MOL0     C27688   3.809   6.688   3.149 -0.3942 -0.0667 -0.8504
  926MOL0     C27689   3.852   6.834   3.098 -0.3860 -0.1177 -0.6403
  926MOL0     C27690   3.967   6.902   3.176  1.4437  0.5010 -0.1225
  926MOL0     C27691   4.037   7.015   3.102  0.1585 -0.2720 -0.5071
  926MOL0     C27692   4.134   7.105   3.187 -0.2012 -0.9189  0.1118
  926MOL0     C27693   4.286   7.057   3.200 -0.0813  0.1518  0.9190
  926MOL0     C27694   4.377   7.062   3.083 -0.2246  0.4328  1.2893
  926MOL0    Cl27695   4.443   7.236   3.047  0.3196 -0.1856  0.0505
  926MOL0     C27696   3.445   6.548   3.253 -0.3838  0.1970 -0.0376
  926MOL0     C27697   3.320   6.575   3.198  0.5555  0.2348 -0.3605
  926MOL0     O27698   3.029   6.597   3.269  0.6135 -0.0905 -0.0808
  926MOL0     C27699   2.926   6.781   2.984 -1.5825  0.1807  0.3778
  926MOL0     C27700   2.823   6.821   2.913  0.1425 -0.5071 -1.1592
  926MOL0     N27701   1.952   6.944   2.744  0.1092  0.1229  0.5064
  926MOL0     N27702   1.830   6.960   2.742 -0.0227  0.2578  0.2248
  926MOL0     C27703   0.833   7.256   3.395 -0.8334 -0.6560  0.7790
  926MOL0     C27704   0.819   7.227   3.528 -0.9311 -1.0001 -0.9518
  926MOL0     C27705   0.932   7.235   3.969 -0.2636  0.7478  0.4601
  926MOL0     C27706   0.799   7.199   3.992 -1.5483 -0.4506  0.4178
  926MOL0     C27707   0.758   7.181   4.123  0.4498  0.2540 -0.2686
  926MOL0     C27708   0.849   7.189   4.235  0.1769 -0.0141  0.1036
  926MOL0     O27709   0.814   7.170   4.368  0.1380 -0.0895  1.0004
  926MOL0     C27710   0.681   7.124   4.403 -0.1764 -0.3770  0.1454
  926MOL0     C27711   0.661   7.111   4.554 -0.8426  0.3532  1.2739
  926MOL0     C27712   0.767   7.041   4.643 -0.1710 -0.2182  0.3761
  926MOL0     C27713   0.802   6.905   4.599 -0.7870 -0.1832 -0.4074
  926MOL0     C27714   0.921   6.867   4.664  0.7829  0.1591 -0.0219
  926MOL0     C27715   1.015   6.845   4.730  0.3446  1.1095 -0.2903
  926MOL0     C27716   0.973   7.226   4.207 -0.6611  1.1688 -0.5450
  926MOL0     C27717   1.019   7.260   4.076  0.7279 -0.5073 -0.2124
  926MOL0     C27718   1.166   7.301   4.045  0.0729  0.7393 -0.1100
  926MOL0     H27719   0.955   7.518   3.649 -1.6445  2.5485 -1.7945
  926MOL0     H27720   1.005   7.554   3.411 -1.1775  1.8188  2.4972
  926MOL0     H27721   1.127   7.454   3.231  1.1551 -1.1958 -0.7786
  926MOL0     H27722   1.006   7.546   3.142  1.9024  0.1276  1.2184
  926MOL0     H27723   1.017   7.357   2.969 -0.5585 -3.4676  2.8141
  926MOL0     H27724   1.156   7.474   2.998 -0.7193  2.7252  2.0062
  926MOL0     H27725   1.292   7.307   3.078  0.8154 -0.0963 -1.6246
  926MOL0     H27726   1.146   7.222   3.137  0.3521  1.5204  1.1279
  926MOL0     H27727   1.099   7.142   2.913  1.8597 -2.4733  3.1708
  926MOL0     H27728   1.193   7.253   2.828 -0.5169 -0.1432 -0.3487
  926MOL0     H27729   1.297   7.018   2.852 -1.5014  0.3515 -0.3065
  926MOL0     H27730   1.321   7.056   3.026 -0.4770 -0.7222 -1.0788
  926MOL0     H27731   1.416   7.222   2.786  0.8842 -0.4094  0.4965
  926MOL0     H27732   1.487   7.239   2.945  2.1257  0.1357 -1.6110
  926MOL0     H27733   1.518   6.971   2.819 -3.3818  2.1710  1.1320
  926MOL0     H27734   1.611   7.029   2.943 -0.9677 -6.0615 -0.7667
  926MOL0     H27735   1.613   7.116   2.657  0.8742  0.4603 -0.7061
  926MOL0     H27736   1.661   7.243   2.780  2.5788 -0.3939  0.6533
  926MOL0     H27737   1.915   7.258   2.833 -1.0439  1.1487  0.6551
  926MOL0     H27738   2.174   7.178   2.829  1.3312 -0.5072 -0.2548
  926MOL0     H27739   2.180   7.088   2.676 -1.5245  1.6373 -0.0285
  926MOL0     H27740   2.216   6.970   2.967 -0.2920  1.4702 -0.3104
  926MOL0     H27741   2.177   6.867   2.828 -0.3173  0.0659 -6.3207
  926MOL0     H27742   2.393   6.933   2.714  0.5235 -0.3824  1.1456
  926MOL0     H27743   2.416   7.061   2.824 -1.3183  0.5578 -0.3112
  926MOL0     H27744   2.437   6.876   2.998  2.5151  1.3126 -0.1810
  926MOL0     H27745   2.427   6.747   2.875 -1.2496 -1.1387  3.9657
  926MOL0     H27746   2.580   6.770   3.140 -0.3771  3.5963 -1.9032
  926MOL0     H27747   2.637   6.685   3.321  0.6256 -2.3948 -0.9080
  926MOL0     H27748   2.779   6.779   3.374  0.6466  1.1882 -1.7540
  926MOL0     H27749   2.790   6.604   3.344 -1.7349 -1.8779  1.3538
  926MOL0     H27750   3.331   6.918   3.225  0.4850  0.5103  3.2282
  926MOL0     H27751   3.548   6.875   3.305 -2.6970  2.4805 -2.2097
  926MOL0     H27752   3.754   6.801   3.343 -2.1945  0.1620 -0.3558
  926MOL0     H27753   3.863   6.670   3.352  0.9722 -0.4218 -1.3635
  926MOL0     H27754   3.882   6.609   3.132 -0.2695  0.2795 -1.9659
  926MOL0     H27755   3.717   6.658   3.099  0.3210 -1.1706 -1.5358
  926MOL0     H27756   3.766   6.901   3.085  2.5627  3.5652 -3.3954
  926MOL0     H27757   3.890   6.828   2.995  1.6579  0.8145  0.0183
  926MOL0     H27758   4.039   6.827   3.210  4.2612  1.8192 -2.6487
  926MOL0     H27759   3.912   6.941   3.262 -2.5010 -1.2135 -1.6109
  926MOL0     H27760   4.077   7.004   3.001 -0.7955  2.9351 -1.3680
  926MOL0     H27761   3.952   7.081   3.079  0.4763 -0.6231 -2.8771
  926MOL0     H27762   4.082   7.121   3.282 -0.0530 -2.1869  0.4131
  926MOL0     H27763   4.144   7.202   3.136 -1.1315 -2.3033 -2.9038
  926MOL0     H27764   4.279   6.949   3.215  1.4616 -0.5157 -2.2716
  926MOL0     H27765   4.342   7.103   3.282  1.6706 -0.7939  0.3006
  926MOL0     H27766   4.318   7.019   3.001 -0.3091  1.2976  0.8908
  926MOL0     H27767   4.460   6.991   3.096 -0.9667 -1.0604 -1.3255
  926MOL0     H27768   3.495   6.451   3.257  0.7098  0.7728  2.4662
  926MOL0     H27769   3.252   6.498   3.165  0.7910 -1.0571  1.9573
  926MOL0     H27770   3.019   6.776   2.928 -1.8898  1.8947 -0.3604
  926MOL0     H27771   2.834   6.864   2.814 -1.2295  4.6013  0.5979
  926MOL0     H27772   0.776   7.201   3.321  0.7989  2.3763 -3.0679
  926MOL0     H27773   0.758   7.141   3.556 -4.0052  0.7555 -1.7317
  926MOL0     H27774   0.725   7.176   3.916  0.6320 -0.3321 -1.9036
  926MOL0     H27775   0.651   7.173   4.137  0.8046 -0.7153  2.4354
  926MOL0     H27776   0.588   7.176   4.379  0.0157 -0.3419 -0.5311
  926MOL0     H27777   0.663   7.024   4.363 -1.9262 -0.5394  1.2153
  926MOL0     H27778   0.568   7.054   4.568 -0.4380  0.0412  2.9015
  926MOL0     H27779   0.627   7.207   4.593 -0.8637  1.6686 -1.7017
  926MOL0     H27780   0.854   7.107   4.654 -0.2270  0.6790 -3.2135
  926MOL0     H27781   0.714   7.026   4.737 -3.3560  0.6934 -1.1347
  926MOL0     H27782   0.822   6.894   4.492  3.4297 -4.1341  0.5275
  926MOL0     H27783   0.723   6.839   4.635  2.0841 -4.0403 -0.5831
  926MOL0     H27784   1.103   6.833   4.789  0.5974 -1.0252 -1.0174
  926MOL0     H27785   1.044   7.219   4.289 -2.5999 -2.0868  1.0757
  926MOL0     H27786   1.169   7.375   3.965  1.2276  0.9788  0.1412
  926MOL0     H27787   1.218   7.335   4.135 -0.6876  0.9239  0.2630
  926MOL0     H27788   1.224   7.213   4.015  1.4820  1.7169 -0.3248
  927MOL0     O27789   3.708   2.935   2.901  1.1725  0.5069  0.0082
  927MOL0     C27790   3.784   2.850   2.868  0.4539  1.2485  0.5471
  927MOL0     O27791   3.770   2.760   2.764  0.0044  0.3559  0.2924
  927MOL0     C27792   3.704   2.795   2.649 -0.0581 -0.6854 -0.2965
  927MOL0     C27793   3.595   2.892   2.643  1.3802  0.5765  0.0007
  927MOL0     C27794   3.512   2.906   2.529  0.5854  0.3505 -0.2350
  927MOL0     C27795   3.548   2.851   2.413 -0.1313  0.3856  0.2656
  927MOL0     O27796   3.484   2.888   2.298 -0.3500 -0.9469  0.0396
  927MOL0     C27797   3.572   2.915   2.182 -0.4705 -0.8429 -0.4213
  927MOL0     C27798   3.501   3.006   2.085  0.3736 -0.1617 -0.2795
  927MOL0     C27799   3.364   2.944   2.038  0.4777 -0.8939  0.0790
  927MOL0     C27800   3.379   2.857   1.918  0.5584 -0.6815  0.8720
  927MOL0     C27801   3.239   2.790   1.885 -0.3317 -0.4484  0.1504
  927MOL0     C27802   3.244   2.647   1.955  0.6795  0.3290 -0.9950
  927MOL0     C27803   3.108   2.580   1.938  0.1309 -0.0865  0.0211
  927MOL0     C27804   3.120   2.432   1.984  0.1849  0.8085  0.7696
  927MOL0     N27805   3.038   2.346   1.894 -0.4725  0.7383  0.4117
  927MOL0     C27806   2.895   2.343   1.895 -0.6782  0.7291 -0.8008
  927MOL0     C27807   2.867   2.229   1.824  1.0089  0.4540 -0.2274
  927MOL0     C27808   2.730   2.171   1.795 -1.7701 -0.8647  0.1714
  927MOL0     C27809   2.660   2.218   1.665 -0.0534 -0.1212  0.4770
  927MOL0     C27810   2.736   2.184   1.541  0.4485 -0.0671  0.2100
  927MOL0     C27811   2.836   2.297   1.498 -0.7163  0.2025  0.1460
  927MOL0     O27812   2.761   2.377   1.405 -0.5768  0.1910  0.2718
  927MOL0     C27813   2.759   2.341   1.275  0.2168  0.5973 -0.4014
  927MOL0     C27814   2.793   2.218   1.214 -0.1390 -0.0005 -0.1403
  927MOL0     C27815   2.760   2.186   1.080  0.4600 -0.1100  0.1010
  927MOL0     C27816   2.816   2.060   1.021  0.1177 -0.3476  0.5324
  927MOL0     C27817   2.701   2.291   1.004  1.0372  0.2285 -0.1273
  927MOL0     C27818   2.661   2.273   0.863 -0.1970  0.8700  0.9422
  927MOL0     O27819   2.569   2.356   0.811  0.5824  0.0780 -0.6475
  927MOL0     C27820   2.528   2.371   0.675 -0.5922  0.4080  0.2052
  927MOL0     C27821   2.394   2.350   0.661  0.4845  1.0023 -0.6489
  927MOL0     C27822   2.337   2.343   0.536  0.5413  0.9610  0.6886
  927MOL0     C27823   2.413   2.357   0.424 -0.0126 -0.4398 -0.1942
  927MOL0     O27824   2.336   2.362   0.309  0.1960  0.3099 -0.1984
  927MOL0     C27825   2.407   2.352   0.189 -0.4621  0.0448 -0.7396
  927MOL0     C27826   2.322   2.389   0.073 -0.2898  0.2102 -0.4914
  927MOL0     C27827   2.215   2.286   0.047 -0.5004  1.0669 -0.2820
  927MOL0     C27828   2.184   2.250  -0.097  0.1359  0.0933  0.0165
  927MOL0     C27829   2.039   2.227  -0.110  0.3801 -0.2263  0.5980
  927MOL0     C27830   1.979   2.099  -0.042 -0.7456  0.1843 -0.1231
  927MOL0     C27831   1.838   2.081  -0.082  0.2872 -0.0146  0.3596
  927MOL0     C27832   1.767   1.966   0.002  0.1197  0.4526 -0.4184
  927MOL0    Cl27833   1.859   1.811  -0.017  0.1849  0.4521 -0.0004
  927MOL0     C27834   2.551   2.366   0.437  0.0493  0.3054  0.8771
  927MOL0     C27835   2.610   2.377   0.559  0.3447  0.8753 -0.0301
  927MOL0     O27836   2.703   2.177   0.792 -0.1635 -0.8439 -0.0670
  927MOL0     C27837   2.656   2.407   1.062  0.2691 -0.6404 -0.9270
  927MOL0     C27838   2.698   2.439   1.196  0.0651  0.2202  0.2648
  927MOL0     N27839   2.976   2.174   1.764  0.0583  0.0977 -0.8384
  927MOL0     N27840   3.083   2.233   1.824 -0.0751 -0.5763  0.3570
  927MOL0     C27841   3.666   2.769   2.412 -0.7410  0.5417  0.2215
  927MOL0     C27842   3.751   2.753   2.523 -0.3581 -0.0130 -0.0864
  927MOL0     C27843   3.921   2.855   2.933 -0.5566 -0.0476 -1.0191
  927MOL0     C27844   3.985   2.728   2.938 -0.2778  0.6255 -0.1283
  927MOL0     C27845   4.125   2.727   2.984  0.0413  0.3377  0.1217
  927MOL0     C27846   4.174   2.846   3.041 -0.2074  0.3070  1.4665
  927MOL0     O27847   4.308   2.854   3.079  0.0331  0.6090  0.2585
  927MOL0     C27848   4.392   2.732   3.084 -0.1575  0.3054  0.0323
  927MOL0     C27849   4.528   2.743   3.005 -0.2878 -0.5429  0.3391
  927MOL0     C27850   4.491   2.719   2.856 -0.0711 -0.7498  1.0229
  927MOL0     C27851   4.605   2.642   2.783  0.2740 -0.1999  0.2213
  927MOL0     C27852   4.585   2.667   2.644  0.5031 -0.3702  1.0781
  927MOL0     C27853   4.560   2.698   2.527  0.1476 -0.4939 -0.1996
  927MOL0     C27854   4.104   2.967   3.036  0.4391 -0.0541  0.2316
  927MOL0     C27855   3.982   2.975   2.983 -0.1882 -0.2725 -0.4022
  927MOL0     C27856   3.922   3.111   2.959  0.7054  0.1646 -0.7508
  927MOL0     H27857   3.547   2.932   2.731 -0.1989  0.6015 -0.8417
  927MOL0     H27858   3.428   2.973   2.543  2.0295  1.7266  2.8519
  927MOL0     H27859   3.588   2.822   2.126 -2.6010  0.0095 -2.6230
  927MOL0     H27860   3.666   2.967   2.203  0.3914 -2.5222  0.0119
  927MOL0     H27861   3.470   3.103   2.124  0.5202  0.5107 -1.7643
  927MOL0     H27862   3.561   3.041   2.000 -0.9880 -1.2815 -1.7842
  927MOL0     H27863   3.315   2.889   2.119  1.9041 -1.2955  0.7156
  927MOL0     H27864   3.292   3.019   2.006 -0.7874 -1.4713  1.4555
  927MOL0     H27865   3.422   2.915   1.836  2.0445 -2.5946  0.2034
  927MOL0     H27866   3.460   2.785   1.927  1.3731 -0.3872 -2.5130
  927MOL0     H27867   3.224   2.774   1.778  0.7329 -0.9915  0.0706
  927MOL0     H27868   3.159   2.855   1.922  2.2156  1.8028  2.1365
  927MOL0     H27869   3.321   2.584   1.910  0.7636 -0.0438 -0.3293
  927MOL0     H27870   3.277   2.653   2.059 -1.9356 -0.0801 -0.0638
  927MOL0     H27871   3.082   2.588   1.832  3.0728  3.5703 -0.6279
  927MOL0     H27872   3.028   2.630   1.993 -1.7657 -0.1543 -2.5227
  927MOL0     H27873   3.219   2.385   1.983 -0.9328 -1.7515  1.1259
  927MOL0     H27874   3.081   2.425   2.086  0.7326  2.6060  1.1195
  927MOL0     H27875   2.828   2.408   1.951 -1.7467 -1.7524  1.0157
  927MOL0     H27876   2.674   2.215   1.878 -0.6821  1.5240 -0.2901
  927MOL0     H27877   2.735   2.062   1.787 -2.4294 -1.0229  1.6112
  927MOL0     H27878   2.564   2.166   1.665  0.0212 -0.3784  2.9026
  927MOL0     H27879   2.640   2.326   1.667 -2.3503 -0.4111 -1.9263
  927MOL0     H27880   2.795   2.092   1.547  1.2976  0.2772 -1.8240
  927MOL0     H27881   2.659   2.173   1.464 -0.4356 -2.5878  1.3492
  927MOL0     H27882   2.868   2.356   1.584 -0.4232  0.6110 -0.2367
  927MOL0     H27883   2.925   2.252   1.454  1.0524  2.6141  1.0273
  927MOL0     H27884   2.848   2.153   1.281 -2.4338 -0.5787  1.2942
  927MOL0     H27885   2.892   2.081   0.944 -0.0444 -2.6256 -0.3343
  927MOL0     H27886   2.741   2.001   0.968 -0.9380 -0.9433  2.6033
  927MOL0     H27887   2.873   2.001   1.093  1.0645 -0.5527 -0.3519
  927MOL0     H27888   2.343   2.339   0.756  0.2129  1.1519 -0.7757
  927MOL0     H27889   2.232   2.321   0.522  1.3156 -2.5727 -0.5431
  927MOL0     H27890   2.487   2.427   0.190 -1.4023  1.0935  0.6423
  927MOL0     H27891   2.444   2.250   0.189  0.3554  0.2242  2.6833
  927MOL0     H27892   2.291   2.493   0.082  0.2619  0.4704 -1.4763
  927MOL0     H27893   2.396   2.386  -0.007 -0.8948 -0.2182 -1.0516
  927MOL0     H27894   2.131   2.331   0.100 -0.7811  0.8690 -0.5543
  927MOL0     H27895   2.225   2.192   0.103 -0.5338  1.9023  1.1806
  927MOL0     H27896   2.238   2.158  -0.121  0.9184  0.1406  1.5279
  927MOL0     H27897   2.210   2.330  -0.167 -0.5711 -0.1544 -0.5457
  927MOL0     H27898   1.990   2.306  -0.052  0.4263 -1.6958  2.7346
  927MOL0     H27899   2.002   2.229  -0.213 -1.7326 -0.8728  1.2958
  927MOL0     H27900   1.985   2.105   0.067 -1.9330  1.4437 -0.1012
  927MOL0     H27901   2.040   2.012  -0.069  1.3921  0.3606  3.4597
  927MOL0     H27902   1.828   2.061  -0.189  0.4324  1.8720 -0.0449
  927MOL0     H27903   1.776   2.167  -0.058  0.3947  0.4979 -1.0924
  927MOL0     H27904   1.668   1.937  -0.037 -0.1209 -0.8793  1.0808
  927MOL0     H27905   1.749   2.014   0.099 -4.3024  2.3385 -1.9109
  927MOL0     H27906   2.616   2.386   0.352 -2.6802  1.5175 -1.0695
  927MOL0     H27907   2.717   2.394   0.564  0.6625 -0.0219 -2.4986
  927MOL0     H27908   2.617   2.494   1.010 -0.7558 -0.0994  0.6844
  927MOL0     H27909   2.672   2.525   1.256 -0.5456 -1.5205  2.6491
  927MOL0     H27910   3.700   2.738   2.314 -1.7035 -2.4030  0.7353
  927MOL0     H27911   3.844   2.699   2.527 -0.9820 -1.1478  4.5308
  927MOL0     H27912   3.927   2.650   2.891  0.1697  0.2223 -0.0244
  927MOL0     H27913   4.174   2.635   2.956 -2.5658 -1.3466  0.7183
  927MOL0     H27914   4.418   2.709   3.188  0.3157 -0.3261 -0.2170
  927MOL0     H27915   4.346   2.639   3.048  0.7841 -0.5333  0.9348
  927MOL0     H27916   4.577   2.654   3.045  0.9227  0.3234  0.8299
  927MOL0     H27917   4.590   2.833   3.010  2.0608 -2.1330  2.2631
  927MOL0     H27918   4.405   2.652   2.847 -0.5996 -0.1053  1.2380
  927MOL0     H27919   4.471   2.807   2.796 -1.1701 -2.1248 -0.7355
  927MOL0     H27920   4.606   2.533   2.796  0.4469 -0.4554 -1.6479
  927MOL0     H27921   4.703   2.683   2.810  0.7101  1.0271 -2.8202
  927MOL0     H27922   4.526   2.743   2.436  1.1453 -0.2559 -0.4743
  927MOL0     H27923   4.149   3.060   3.069  4.1692 -2.2456  1.9352
  927MOL0     H27924   3.924   3.142   2.854 -1.1444  1.8484 -0.3647
  927MOL0     H27925   3.826   3.102   3.010  1.5698 -1.0424  0.7368
  927MOL0     H27926   3.982   3.180   3.019  1.0839  0.9249 -1.9675
  928MOL0     O27927   4.949   3.119   5.412  0.1585 -0.3792  0.1366
  928MOL0     C27928   4.924   3.202   5.327 -0.2921 -0.3837  0.8060
  928MOL0     O27929   4.823   3.300   5.339  0.2039  0.6546 -0.1578
  928MOL0     C27930   4.714   3.270   5.423 -0.2830  0.1868 -0.2486
  928MOL0     C27931   4.656   3.143   5.438 -0.6845  0.4378  0.4626
  928MOL0     C27932   4.549   3.125   5.521  0.4344  0.5214 -0.3000
  928MOL0     C27933   4.485   3.240   5.576  0.6598 -0.2872 -1.4071
  928MOL0     O27934   4.369   3.227   5.660  0.1797  0.1665  0.0870
  928MOL0     C27935   4.363   3.110   5.752  0.2982 -0.2433  0.5695
  928MOL0     C27936   4.230   3.038   5.742 -0.7375  0.2588  0.0926
  928MOL0     C27937   4.104   3.133   5.765  0.7460  1.3296  0.4612
  928MOL0     C27938   3.985   3.046   5.794 -0.5969  0.3466 -0.0343
  928MOL0     C27939   3.844   3.124   5.773 -0.4954  0.0769 -1.2584
  928MOL0     C27940   3.726   3.044   5.826  0.2330  1.2568 -0.4545
  928MOL0     C27941   3.689   2.918   5.750  0.3093 -0.0682  0.1889
  928MOL0     C27942   3.582   2.826   5.810  0.1529 -0.3820  0.2067
  928MOL0     N27943   3.524   2.747   5.697  0.2974  0.1544 -0.3977
  928MOL0     C27944   3.422   2.801   5.626  0.1516  0.1813 -0.7804
  928MOL0     C27945   3.392   2.716   5.529 -0.4099 -0.4239  0.1625
  928MOL0     C27946   3.299   2.726   5.418  0.3723  0.8765 -0.4196
  928MOL0     C27947   3.272   2.596   5.343 -0.4731  0.5893 -0.7210
  928MOL0     C27948   3.131   2.596   5.282 -0.2380  0.9624 -0.4281
  928MOL0     C27949   3.098   2.504   5.167  0.5348 -0.0814 -0.6830
  928MOL0     O27950   3.210   2.518   5.074 -0.3338  0.7392  0.2737
  928MOL0     C27951   3.225   2.406   4.998 -0.5963  0.3555  0.0780
  928MOL0     C27952   3.122   2.317   4.964  0.4346 -0.5280  0.6385
  928MOL0     C27953   3.149   2.203   4.884 -0.4755  0.2751  0.4833
  928MOL0     C27954   3.031   2.115   4.844  0.4480 -0.5906 -0.0836
  928MOL0     C27955   3.284   2.179   4.837  0.5564  0.6911 -0.0510
  928MOL0     C27956   3.332   2.062   4.754 -0.8042  0.4902  0.5268
  928MOL0     O27957   3.455   2.076   4.703  0.2583 -0.1232  0.1394
  928MOL0     C27958   3.514   1.983   4.612 -0.4709 -0.5163  0.6597
  928MOL0     C27959   3.534   1.843   4.634 -0.1964  1.1135 -0.0357
  928MOL0     C27960   3.600   1.774   4.531 -0.9293 -0.2210 -0.1487
  928MOL0     C27961   3.640   1.835   4.415 -0.2103  0.4132 -0.3403
  928MOL0     O27962   3.716   1.775   4.319 -0.0544  0.9027 -0.0654
  928MOL0     C27963   3.757   1.631   4.324 -0.3102  0.3241  0.4067
  928MOL0     C27964   3.848   1.592   4.206  0.4158 -0.4216  0.4388
  928MOL0     C27965   3.788   1.646   4.067  0.4950  0.0151 -0.1068
  928MOL0     C27966   3.884   1.595   3.955 -0.2875  0.1674 -0.2501
  928MOL0     C27967   3.869   1.664   3.820 -0.2522 -0.1611  0.3340
  928MOL0     C27968   3.908   1.810   3.819 -0.2139 -0.5354 -1.1783
  928MOL0     C27969   4.029   1.831   3.727  0.1734 -0.2914 -0.6848
  928MOL0     C27970   3.983   1.828   3.575 -0.4220 -0.8992  0.8597
  928MOL0    Cl27971   4.109   1.788   3.466  0.1142 -0.0239  0.2458
  928MOL0     C27972   3.620   1.972   4.395 -0.2202  0.0474  0.3095
  928MOL0     C27973   3.562   2.049   4.496 -0.1996  0.3539  0.0423
  928MOL0     O27974   3.262   1.958   4.740  0.0498  0.6455  0.2517
  928MOL0     C27975   3.385   2.265   4.877  0.3350 -0.3096  0.5273
  928MOL0     C27976   3.350   2.382   4.953 -0.4878 -0.0024  0.0586
  928MOL0     N27977   3.484   2.608   5.541 -0.1929 -0.0827  0.3693
  928MOL0     N27978   3.555   2.623   5.646 -0.2904 -0.5080  0.3483
  928MOL0     C27979   4.539   3.365   5.558  0.0894  0.1986  0.2462
  928MOL0     C27980   4.648   3.380   5.475  0.6816 -0.2768 -0.4312
  928MOL0     C27981   5.011   3.226   5.207  0.1518  0.0871 -0.5397
  928MOL0     C27982   5.014   3.352   5.152  0.3136  0.2669  0.4952
  928MOL0     C27983   5.092   3.379   5.039  0.1734 -0.3587 -0.3909
  928MOL0     C27984   5.181   3.286   4.980  0.4551 -0.0363 -0.2231
  928MOL0     O27985   5.257   3.308   4.876 -0.2009  0.0003  0.3789
  928MOL0     C27986   5.178   3.330   4.753  0.2041  0.3424  0.4216
  928MOL0     C27987   5.286   3.344   4.642 -1.0036  0.0150 -0.7329
  928MOL0     C27988   5.366   3.476   4.663  0.7961 -0.0708  0.2450
  928MOL0     C27989   5.351   3.578   4.551 -0.3177  1.1729 -0.0475
  928MOL0     C27990   5.215   3.600   4.504 -0.5320  0.4624  0.5703
  928MOL0     C27991   5.114   3.639   4.458  0.4910  0.0401  0.5423
  928MOL0     C27992   5.178   3.159   5.034 -0.4849  0.0234  0.2690
  928MOL0     C27993   5.099   3.129   5.144  0.5907 -0.5865 -1.1326
  928MOL0     C27994   5.097   2.985   5.196 -0.1525  0.2060 -0.5402
  928MOL0     H27995   4.687   3.052   5.387 -1.6641  1.5648 -2.3426
  928MOL0     H27996   4.509   3.024   5.521  1.2321  0.0462 -4.0581
  928MOL0     H27997   4.341   3.148   5.853 -0.4825 -3.2946  1.6752
  928MOL0     H27998   4.447   3.040   5.750 -0.5016 -1.3611  2.8299
  928MOL0     H27999   4.221   2.974   5.654 -0.6912 -2.7876  2.1390
  928MOL0     H28000   4.232   2.970   5.828  3.1002 -0.3879 -0.3514
  928MOL0     H28001   4.132   3.197   5.849 -1.7800  3.1809  0.0129
  928MOL0     H28002   4.101   3.199   5.678  5.2335 -2.9758 -3.5689
  928MOL0     H28003   3.996   2.956   5.734 -1.8865 -0.1863  0.4920
  928MOL0     H28004   3.981   3.008   5.897 -1.5042 -0.3618 -0.3155
  928MOL0     H28005   3.844   3.129   5.663  1.3615  0.4268 -1.2838
  928MOL0     H28006   3.836   3.223   5.818 -1.8766 -0.9669  0.9640
  928MOL0     H28007   3.757   3.023   5.929  2.9397  4.0135 -0.5537
  928MOL0     H28008   3.644   3.116   5.825 -0.2636  0.7063  0.2064
  928MOL0     H28009   3.786   2.869   5.744  0.4409  0.0848  0.9191
  928MOL0     H28010   3.666   2.943   5.646  0.5816 -1.7903 -0.3064
  928MOL0     H28011   3.634   2.763   5.883  1.5042  0.3148 -0.1304
  928MOL0     H28012   3.503   2.890   5.851  2.6886  3.0266  0.1945
  928MOL0     H28013   3.378   2.900   5.632  1.1543  0.8029 -2.7112
  928MOL0     H28014   3.344   2.791   5.342  1.8579 -0.3885 -0.6722
  928MOL0     H28015   3.210   2.769   5.465  0.7886  3.4546 -1.8014
  928MOL0     H28016   3.347   2.598   5.264 -0.6469 -2.5430 -1.0859
  928MOL0     H28017   3.287   2.515   5.415  0.9855  1.2639 -0.2263
  928MOL0     H28018   3.057   2.566   5.357 -2.0735  1.9786 -1.7491
  928MOL0     H28019   3.112   2.690   5.229 -0.0030  0.4595 -1.4196
  928MOL0     H28020   3.085   2.403   5.206  2.2214 -0.0493  0.0220
  928MOL0     H28021   3.009   2.543   5.116  0.9464  2.0601  0.1202
  928MOL0     H28022   3.019   2.338   4.990 -0.5195 -0.1026 -2.9902
  928MOL0     H28023   3.037   2.040   4.923  0.6190 -0.4241  0.0653
  928MOL0     H28024   3.035   2.077   4.742 -1.2361 -1.9596  0.3248
  928MOL0     H28025   2.937   2.170   4.857  0.7564 -0.4275  1.8423
  928MOL0     H28026   3.508   1.794   4.727 -0.0282 -1.4281 -1.2541
  928MOL0     H28027   3.620   1.669   4.548  1.3594  0.0418 -1.0112
  928MOL0     H28028   3.815   1.620   4.416 -1.0252  0.1171  0.8436
  928MOL0     H28029   3.676   1.558   4.321  1.7726 -2.0753 -0.2368
  928MOL0     H28030   3.943   1.645   4.221 -0.9182  2.9759 -2.0560
  928MOL0     H28031   3.870   1.485   4.209  2.8119  0.0262  1.8023
  928MOL0     H28032   3.774   1.754   4.069  2.8446  0.3582 -0.0978
  928MOL0     H28033   3.695   1.591   4.048  1.4129 -1.6514  0.0181
  928MOL0     H28034   3.887   1.485   3.952  0.1160 -0.2959  5.4965
  928MOL0     H28035   3.982   1.620   3.997 -0.6397  0.4302  0.4272
  928MOL0     H28036   3.917   1.607   3.739  2.3408 -1.1152  2.4197
  928MOL0     H28037   3.761   1.667   3.800 -1.1831 -2.0575  4.1959
  928MOL0     H28038   3.931   1.842   3.921  0.9826  1.1519 -1.9284
  928MOL0     H28039   3.821   1.868   3.788 -0.3600 -0.1721 -0.1382
  928MOL0     H28040   4.106   1.756   3.751  1.5012  0.5466 -2.1316
  928MOL0     H28041   4.081   1.923   3.754  3.5042 -1.7237 -1.6009
  928MOL0     H28042   3.954   1.928   3.542  1.6546 -1.1960 -2.2578
  928MOL0     H28043   3.903   1.755   3.559  3.0922 -4.5918 -2.0693
  928MOL0     H28044   3.652   2.033   4.311 -1.7490 -0.6318 -0.8149
  928MOL0     H28045   3.549   2.154   4.474  0.9223  0.1767 -1.6469
  928MOL0     H28046   3.493   2.265   4.865  0.5605  2.3344  1.8899
  928MOL0     H28047   3.426   2.450   4.989 -0.8104  0.8244 -0.7783
  928MOL0     H28048   4.499   3.447   5.617 -2.2686 -1.0554  0.4857
  928MOL0     H28049   4.695   3.475   5.453  0.5651 -0.7218 -2.8748
  928MOL0     H28050   4.955   3.435   5.190 -3.0490 -2.3901  1.6305
  928MOL0     H28051   5.084   3.480   5.002 -2.6892 -0.2829  0.1666
  928MOL0     H28052   5.116   3.241   4.739 -0.9981  0.7819  2.5632
  928MOL0     H28053   5.110   3.415   4.765 -1.1275 -0.8167  1.4918
  928MOL0     H28054   5.252   3.339   4.538  2.3654  1.7124 -2.0673
  928MOL0     H28055   5.354   3.258   4.651  1.2920  1.8103 -0.0642
  928MOL0     H28056   5.360   3.509   4.768  3.1775  0.0888  0.3885
  928MOL0     H28057   5.472   3.452   4.655  1.1322  1.4738 -0.2153
  928MOL0     H28058   5.398   3.566   4.453  1.9879  4.5527  0.4712
  928MOL0     H28059   5.406   3.668   4.580  3.7941 -0.4834 -1.9431
  928MOL0     H28060   5.021   3.681   4.426 -1.1474 -3.0986  0.7134
  928MOL0     H28061   5.233   3.074   4.995  0.5309  0.7921 -0.0093
  928MOL0     H28062   5.146   2.999   5.293  1.9273 -0.9286 -1.3739
  928MOL0     H28063   4.995   2.949   5.215  0.9773 -2.4656  1.0331
  928MOL0     H28064   5.161   2.914   5.144  1.9334  1.1719  0.5875
  929MOL0     O28065   2.167   2.216   9.281 -0.0882  0.7819 -0.1647
  929MOL0     C28066   2.181   2.092   9.267 -0.2226 -0.1247  0.6968
  929MOL0     O28067   2.121   1.999   9.342  0.1443 -0.1309  0.3084
  929MOL0     C28068   2.094   2.015   9.480 -0.1557 -0.3011  0.9963
  929MOL0     C28069   2.022   1.918   9.542 -0.6155  0.4783  0.8179
  929MOL0     C28070   1.983   1.929   9.679 -0.1456  0.1196  0.2385
  929MOL0     C28071   2.031   2.033   9.755  0.1242 -1.5095 -0.3990
  929MOL0     O28072   1.996   2.072   9.883  0.7821  0.0756  0.2721
  929MOL0     C28073   1.918   1.986   9.967 -0.2892 -0.5398  0.0265
  929MOL0     C28074   1.934   2.053  10.115 -0.0121  0.4823 -0.0611
  929MOL0     C28075   1.802   2.082  10.182  0.8913  0.3211 -0.3062
  929MOL0     C28076   1.802   2.220  10.257  0.8367  0.7182 -0.2720
  929MOL0     C28077   1.653   2.243  10.319 -1.1111  0.2952  0.3771
  929MOL0     C28078   1.656   2.374  10.392 -0.1088 -0.2748 -0.0753
  929MOL0     C28079   1.718   2.361  10.528  0.4795 -0.5162  0.4115
  929MOL0     C28080   1.676   2.468  10.628 -0.7536  0.1220 -0.6492
  929MOL0     N28081   1.538   2.452  10.667  0.4584  0.3753 -0.0404
  929MOL0     C28082   1.464   2.351  10.732  0.1811  0.4449  0.2186
  929MOL0     C28083   1.338   2.397  10.734  0.6913 -0.0863 -0.4472
  929MOL0     C28084   1.234   2.329  10.814 -0.5310  0.3106  0.0193
  929MOL0     C28085   1.168   2.234  10.719 -0.0919 -1.1615  0.3400
  929MOL0     C28086   1.093   2.300  10.604 -0.8080  1.2021  0.1814
  929MOL0     C28087   0.979   2.391  10.638  0.1769  0.4927 -0.7100
  929MOL0     O28088   0.860   2.342  10.572  0.4536  0.4879  0.4555
  929MOL0     C28089   0.741   2.409  10.568 -0.5956  0.5506  0.3996
  929MOL0     C28090   0.621   2.336  10.555 -0.0371  0.5512 -0.2225
  929MOL0     C28091   0.490   2.398  10.556  0.2702 -0.1228 -0.5211
  929MOL0     C28092   0.368   2.317  10.532  0.3054  0.3504 -0.2341
  929MOL0     C28093   0.489   2.543  10.560  0.3972  0.4859  0.0126
  929MOL0     C28094   0.353   2.618  10.570 -0.8677  0.5026  1.6091
  929MOL0     O28095   0.350   2.758  10.524  0.3725  0.2342  0.5113
  929MOL0     C28096   0.243   2.833  10.555 -0.3352 -0.4971  0.2417
  929MOL0     C28097   0.233   2.899  10.684  0.5320 -0.4069 -0.2894
  929MOL0     C28098   0.114   2.962  10.735 -0.7606 -0.1746  1.0341
  929MOL0     C28099   0.001   2.960  10.648  0.0700 -0.5814  0.5853
  929MOL0     O28100  -0.115   3.015  10.698  0.9845  0.3009  0.0906
  929MOL0     C28101  -0.202   2.904  10.706  0.3511 -0.1391 -1.4982
  929MOL0     C28102  -0.313   2.964  10.790  0.0354  0.7233 -1.1532
  929MOL0     C28103  -0.395   3.061  10.713 -0.6271 -0.0857  0.2564
  929MOL0     C28104  -0.526   3.097  10.774 -0.2709 -0.6536  0.2621
  929MOL0     C28105  -0.583   3.220  10.695  1.1303 -0.0013 -0.1903
  929MOL0     C28106  -0.688   3.265  10.789 -0.7872  0.9071 -0.0784
  929MOL0     C28107  -0.742   3.395  10.734  0.5323  0.0374 -0.1264
  929MOL0     C28108  -0.830   3.472  10.824  0.2036  0.8738 -0.2349
  929MOL0    Cl28109  -0.933   3.370  10.930  0.3518  0.3430  0.5572
  929MOL0     C28110   0.009   2.893  10.519 -0.0933  0.0421  0.0729
  929MOL0     C28111   0.129   2.829  10.481 -0.7613  0.7663 -0.0116
  929MOL0     O28112   0.261   2.565  10.631  0.2061 -0.3838 -0.1438
  929MOL0     C28113   0.606   2.606  10.569 -0.0455 -0.1059  0.8856
  929MOL0     C28114   0.731   2.544  10.572 -0.4000 -0.1595 -0.4282
  929MOL0     N28115   1.332   2.518  10.667 -0.1792 -1.0095 -0.4115
  929MOL0     N28116   1.452   2.552  10.621 -0.9139 -0.0311  1.0923
  929MOL0     C28117   2.116   2.131   9.690 -0.2550  0.1734 -0.0970
  929MOL0     C28118   2.144   2.125   9.556 -0.0732  0.1284  0.4679
  929MOL0     C28119   2.285   2.035   9.182  0.7743 -1.1712  1.1900
  929MOL0     C28120   2.395   2.115   9.163  0.1645  0.5575 -0.8959
  929MOL0     C28121   2.517   2.058   9.115  1.1361 -0.2031 -0.8731
  929MOL0     C28122   2.516   1.935   9.049 -0.6773 -0.3244 -0.6248
  929MOL0     O28123   2.632   1.899   8.988 -0.7076 -0.7140 -0.4189
  929MOL0     C28124   2.605   1.855   8.855  0.0615  0.4335 -0.0424
  929MOL0     C28125   2.656   1.717   8.846  0.0983 -0.2580 -0.4195
  929MOL0     C28126   2.803   1.704   8.896 -0.6242  0.5480 -0.1723
  929MOL0     C28127   2.907   1.684   8.781  0.3667 -0.1357 -0.6224
  929MOL0     C28128   2.927   1.819   8.715  0.0903 -0.3434 -1.4722
  929MOL0     C28129   2.951   1.917   8.649 -0.4493 -0.5102 -0.4800
  929MOL0     C28130   2.399   1.858   9.067  0.4925 -1.3027 -0.2783
  929MOL0     C28131   2.287   1.904   9.136  0.4260  0.6645 -0.3400
  929MOL0     C28132   2.168   1.814   9.131 -0.1009 -0.7128  0.1174
  929MOL0     H28133   1.983   1.851   9.467  0.6033  1.6287 -0.9258
  929MOL0     H28134   1.925   1.854   9.732  1.7347 -1.8550 -0.3539
  929MOL0     H28135   1.952   1.882   9.981 -0.4404 -0.9237 -2.1681
  929MOL0     H28136   1.813   1.973   9.939 -1.0042  2.2986  1.0889
  929MOL0     H28137   1.991   1.979  10.173  2.4393 -0.2857 -3.1961
  929MOL0     H28138   2.003   2.138  10.115  1.8006 -0.9044 -0.6058
  929MOL0     H28139   1.719   2.087  10.111 -2.7832 -1.2256  3.4390
  929MOL0     H28140   1.769   2.001  10.247  3.1451 -1.2941 -1.0544
  929MOL0     H28141   1.891   2.224  10.320 -0.5790 -1.9694  2.0870
  929MOL0     H28142   1.826   2.297  10.182 -1.9071  2.1413  0.1858
  929MOL0     H28143   1.621   2.167  10.391 -0.0908 -2.1419 -1.6002
  929MOL0     H28144   1.582   2.242  10.236  1.0042  0.3026 -1.5424
  929MOL0     H28145   1.717   2.446  10.337 -4.1307  2.9924 -0.7153
  929MOL0     H28146   1.557   2.419  10.393 -0.7224 -1.5475 -0.9184
  929MOL0     H28147   1.828   2.357  10.529  0.5724  1.2478  0.9583
  929MOL0     H28148   1.698   2.262  10.569  2.3362 -1.7829 -1.5014
  929MOL0     H28149   1.741   2.465  10.716 -0.4682  5.0077 -0.4521
  929MOL0     H28150   1.695   2.569  10.592  2.6909 -0.5347 -1.0301
  929MOL0     H28151   1.510   2.264  10.778  0.9450  1.0163  0.5546
  929MOL0     H28152   1.169   2.408  10.853 -2.7015 -1.2391 -0.2511
  929MOL0     H28153   1.269   2.277  10.903  2.2550  1.1790 -0.4809
  929MOL0     H28154   1.251   2.179  10.673  1.5124  0.7004  0.8582
  929MOL0     H28155   1.109   2.161  10.774 -0.4314  0.3631  2.1164
  929MOL0     H28156   1.166   2.361  10.549 -1.8020  0.6817 -1.7970
  929MOL0     H28157   1.051   2.222  10.539  2.8000 -0.3285 -0.5839
  929MOL0     H28158   0.966   2.365  10.744  2.8912 -1.1176 -0.7058
  929MOL0     H28159   0.993   2.499  10.625 -1.1218  1.5874  4.4414
  929MOL0     H28160   0.635   2.230  10.538  2.5494  0.9540 -1.0739
  929MOL0     H28161   0.305   2.357  10.452  0.7342  0.6046 -0.4483
  929MOL0     H28162   0.306   2.316  10.622  2.5464 -1.0187  1.3905
  929MOL0     H28163   0.387   2.209  10.524  1.3818  0.3510  1.6620
  929MOL0     H28164   0.317   2.915  10.750  0.9281  2.4828 -1.3361
  929MOL0     H28165   0.098   3.001  10.835 -0.2169  3.8270 -0.2659
  929MOL0     H28166  -0.250   2.879  10.611 -3.8374 -0.6004  0.5440
  929MOL0     H28167  -0.162   2.812  10.750 -1.9992 -0.4973  0.0271
  929MOL0     H28168  -0.389   2.899  10.835  0.7588 -0.3182 -1.4190
  929MOL0     H28169  -0.273   3.017  10.877 -2.1789 -0.9645  1.0237
  929MOL0     H28170  -0.421   3.011  10.619 -1.9809  0.8337  0.1256
  929MOL0     H28171  -0.341   3.147  10.672 -0.3498 -1.8062 -3.3217
  929MOL0     H28172  -0.506   3.128  10.877  2.7219 -0.9274 -0.1473
  929MOL0     H28173  -0.589   3.007  10.771 -3.1115  1.2493 -1.6823
  929MOL0     H28174  -0.505   3.293  10.673  1.1951  1.4251  3.8494
  929MOL0     H28175  -0.634   3.183  10.606 -1.7454  1.6814  0.5906
  929MOL0     H28176  -0.638   3.293  10.883 -0.5698 -0.7260  0.3148
  929MOL0     H28177  -0.769   3.194  10.801  0.0005 -0.0578 -0.3293
  929MOL0     H28178  -0.803   3.365  10.648 -1.3404  0.9535  0.8106
  929MOL0     H28179  -0.673   3.470  10.694 -0.9284  1.6386  0.1983
  929MOL0     H28180  -0.887   3.547  10.769 -5.5227 -2.4896  0.3626
  929MOL0     H28181  -0.764   3.515  10.900 -0.5020  1.8593 -0.1544
  929MOL0     H28182  -0.072   2.902  10.448  1.5038  0.4809 -1.8030
  929MOL0     H28183   0.128   2.770  10.390  0.5384  3.6594 -2.0496
  929MOL0     H28184   0.593   2.714  10.565  0.1721 -0.1140 -0.6147
  929MOL0     H28185   0.811   2.617  10.581 -2.0474  1.8255 -1.1491
  929MOL0     H28186   2.142   2.222   9.744  1.2796 -0.7286  0.7332
  929MOL0     H28187   2.213   2.200   9.519 -0.6671  2.1927  3.2028
  929MOL0     H28188   2.401   2.213   9.209  0.5131 -1.0236  2.7887
  929MOL0     H28189   2.609   2.113   9.101  0.6805  0.6251 -0.6760
  929MOL0     H28190   2.497   1.859   8.837 -0.5123  0.2881  2.9000
  929MOL0     H28191   2.657   1.924   8.788  2.1334 -1.1576 -0.1791
  929MOL0     H28192   2.635   1.695   8.741 -1.2583  3.7465 -1.1792
  929MOL0     H28193   2.590   1.651   8.902 -0.3482 -0.4343 -1.1378
  929MOL0     H28194   2.835   1.787   8.959  1.6499  1.5278 -2.4424
  929MOL0     H28195   2.811   1.608   8.949  1.3060  0.5308 -0.4151
  929MOL0     H28196   2.863   1.609   8.714 -0.0179 -0.8159  0.3590
  929MOL0     H28197   3.002   1.650   8.824 -1.3589 -2.4378  1.6811
  929MOL0     H28198   2.985   1.982   8.571  0.1297 -1.2673 -0.8799
  929MOL0     H28199   2.403   1.757   9.029 -0.0916 -2.4777  2.5053
  929MOL0     H28200   2.074   1.869   9.139  0.7740  1.1084 -1.2003
  929MOL0     H28201   2.166   1.771   9.030 -1.4466  0.7324 -0.5121
  929MOL0     H28202   2.169   1.735   9.206  3.2433 -2.6977 -1.7592
  930MOL0     O28203   9.889   6.230  11.174  0.1554  1.0723  0.2766
  930MOL0     C28204   9.939   6.315  11.099 -0.2073 -0.2519  0.1695
  930MOL0     O28205   9.989   6.289  10.965  0.3524 -0.1036  0.0686
  930MOL0     C28206   9.952   6.176  10.904 -0.3694  0.7750  0.0929
  930MOL0     C28207   9.821   6.132  10.888  0.4598  0.0230 -0.9279
  930MOL0     C28208   9.778   6.013  10.835  0.1734  0.6020 -0.0727
  930MOL0     C28209   9.876   5.924  10.787 -0.2670 -0.8628  0.1314
  930MOL0     O28210   9.853   5.799  10.727 -0.0208 -0.4226  0.2735
  930MOL0     C28211   9.711   5.759  10.710  0.2180  0.2871 -0.9387
  930MOL0     C28212   9.667   5.817  10.581  0.3526 -0.7355 -0.1520
  930MOL0     C28213   9.528   5.765  10.537 -0.4044  0.1225  0.6146
  930MOL0     C28214   9.482   5.835  10.402 -0.0576  0.5086 -0.7246
  930MOL0     C28215   9.357   5.769  10.339  0.9136  0.1458 -0.0855
  930MOL0     C28216   9.319   5.847  10.212 -0.3677 -0.8275  0.0810
  930MOL0     C28217   9.421   5.822  10.102 -0.8244  0.4932 -0.5902
  930MOL0     C28218   9.390   5.905   9.978 -0.5192  0.3188 -1.1905
  930MOL0     N28219   9.302   5.830   9.877 -0.1081 -0.2968  0.8940
  930MOL0     C28220   9.337   5.718   9.790 -0.2495 -0.3516  0.2996
  930MOL0     C28221   9.224   5.691   9.725 -0.8149 -0.4884 -0.5779
  930MOL0     C28222   9.202   5.578   9.625  0.0765  1.8322  0.5128
  930MOL0     C28223   9.058   5.588   9.558  0.3244 -0.3611  0.1121
  930MOL0     C28224   9.043   5.483   9.445 -0.0924  0.0009 -0.1955
  930MOL0     C28225   8.904   5.478   9.407 -0.0056 -0.3619  0.0724
  930MOL0     O28226   8.886   5.386   9.296 -0.6615  1.0096  0.0554
  930MOL0     C28227   8.757   5.358   9.264  0.4659  0.1970  0.5754
  930MOL0     C28228   8.736   5.227   9.218 -0.4458 -0.0046  0.1174
  930MOL0     C28229   8.602   5.179   9.197 -0.0310  0.5021 -0.6418
  930MOL0     C28230   8.590   5.033   9.173 -0.5241 -0.5456 -0.4724
  930MOL0     C28231   8.492   5.268   9.223 -0.2515 -0.2017 -0.3164
  930MOL0     C28232   8.352   5.223   9.214  0.8913  0.2841 -0.0230
  930MOL0     O28233   8.266   5.307   9.282  1.0731 -0.1844  0.4600
  930MOL0     C28234   8.130   5.281   9.254 -0.4034  0.1497 -0.0391
  930MOL0     C28235   8.066   5.370   9.170  0.4509 -0.0859 -0.7584
  930MOL0     C28236   7.937   5.332   9.143 -0.2798 -0.4138  0.5700
  930MOL0     C28237   7.874   5.227   9.203  0.9274  1.2903  0.4740
  930MOL0     O28238   7.742   5.190   9.177  0.1480  0.6604 -0.3638
  930MOL0     C28239   7.683   5.225   9.057 -0.2398  1.0841 -0.0614
  930MOL0     C28240   7.717   5.112   8.963 -0.5892  0.4007 -0.1382
  930MOL0     C28241   7.652   5.141   8.822 -0.5849 -0.2011  0.0401
  930MOL0     C28242   7.741   5.138   8.691 -0.1227 -0.8826  0.0075
  930MOL0     C28243   7.679   5.164   8.554  1.1072 -0.0210 -0.4523
  930MOL0     C28244   7.786   5.204   8.450 -0.9450  0.0029 -0.0785
  930MOL0     C28245   7.730   5.213   8.311 -0.1147  0.6330  0.3532
  930MOL0     C28246   7.749   5.352   8.244  1.0621  0.6779 -1.2722
  930MOL0    Cl28247   7.929   5.399   8.222  0.8736  0.1970  0.1153
  930MOL0     C28248   7.933   5.146   9.294 -0.3847  0.1676 -0.7027
  930MOL0     C28249   8.069   5.176   9.326  0.9051  0.8482 -0.0331
  930MOL0     O28250   8.322   5.109   9.165  0.0039  0.8277 -1.2433
  930MOL0     C28251   8.523   5.399   9.267  1.6508  0.7364  0.4792
  930MOL0     C28252   8.650   5.440   9.295  0.7293 -0.0475 -0.6203
  930MOL0     N28253   9.129   5.788   9.752 -0.7176 -0.3554 -0.0163
  930MOL0     N28254   9.174   5.865   9.850  0.4409  0.1204 -0.0405
  930MOL0     C28255  10.010   5.958  10.809 -0.3513 -0.4593 -0.1156
  930MOL0     C28256  10.040   6.083  10.866  0.2112  1.2164  0.1516
  930MOL0     C28257   9.964   6.444  11.156 -0.2087 -0.3861 -0.2782
  930MOL0     C28258   9.881   6.494  11.256  0.2865  0.7017  0.7733
  930MOL0     C28259   9.883   6.628  11.310  0.0125 -0.3088  0.8387
  930MOL0     C28260   9.984   6.709  11.268  0.7134 -0.6121 -0.9937
  930MOL0     O28261   9.980   6.844  11.320 -0.3910 -0.3740 -0.2917
  930MOL0     C28262  10.055   6.940  11.246 -0.3583  0.4690  0.3294
  930MOL0     C28263  10.013   7.080  11.297 -0.0867 -0.8330 -0.6283
  930MOL0     C28264   9.872   7.122  11.290  0.0534  0.0622  0.2956
  930MOL0     C28265   9.856   7.234  11.382 -0.3886 -0.2188  0.9272
  930MOL0     C28266   9.718   7.266  11.402 -0.6428  0.0973 -0.7285
  930MOL0     C28267   9.603   7.287  11.431  0.1406 -0.3168  0.5280
  930MOL0     C28268  10.081   6.667  11.179  0.3070  0.7965  0.6939
  930MOL0     C28269  10.070   6.534  11.119  0.1433  0.7864  0.1258
  930MOL0     C28270  10.169   6.499  11.019 -0.1340 -0.6888 -0.0102
  930MOL0     H28271   9.743   6.199  10.925 -0.7153 -1.3624 -0.8126
  930MOL0     H28272   9.672   5.989  10.834  0.0337  0.9324  2.0828
  930MOL0     H28273   9.661   5.782  10.805  2.6366  2.2052 -0.0215
  930MOL0     H28274   9.720   5.651  10.694  1.2706 -0.0333  1.3660
  930MOL0     H28275   9.663   5.926  10.593 -0.5964 -0.8611  0.8229
  930MOL0     H28276   9.733   5.799  10.495 -1.6269 -0.5513 -1.7937
  930MOL0     H28277   9.530   5.658  10.514 -1.0405  0.3019 -0.3222
  930MOL0     H28278   9.456   5.786  10.616 -4.0200  0.4327 -2.4577
  930MOL0     H28279   9.459   5.940  10.420 -1.0378  0.4682 -1.7083
  930MOL0     H28280   9.561   5.834  10.326  0.2629 -0.1610 -0.3983
  930MOL0     H28281   9.263   5.773  10.395 -0.5473 -1.5088 -2.2422
  930MOL0     H28282   9.372   5.663  10.318 -1.1750 -0.3146  0.5683
  930MOL0     H28283   9.220   5.816  10.177 -0.3974  1.4047 -2.0167
  930MOL0     H28284   9.297   5.950  10.239  0.0810 -1.2166  2.0703
  930MOL0     H28285   9.424   5.714  10.090  2.6541 -0.0949  3.4071
  930MOL0     H28286   9.522   5.854  10.131 -1.8288  3.8324 -0.3362
  930MOL0     H28287   9.351   6.000  10.014 -0.1538 -0.3319  1.0583
  930MOL0     H28288   9.482   5.924   9.922  1.3952 -3.7572  0.1754
  930MOL0     H28289   9.431   5.665   9.779  1.3109  2.2299  0.4074
  930MOL0     H28290   9.202   5.492   9.693  0.1279  1.3821 -0.0560
  930MOL0     H28291   9.285   5.594   9.556 -1.8483 -0.4894 -2.6417
  930MOL0     H28292   8.989   5.563   9.639 -0.5839  3.7087  0.8050
  930MOL0     H28293   9.029   5.688   9.526  1.7411  0.6364  1.7929
  930MOL0     H28294   9.101   5.500   9.353 -0.0577 -1.7163 -0.5377
  930MOL0     H28295   9.080   5.391   9.492 -0.3457  0.6807  1.3813
  930MOL0     H28296   8.844   5.449   9.493  1.5630  0.8857  1.6600
  930MOL0     H28297   8.880   5.578   9.370  1.5957 -1.0091 -3.1426
  930MOL0     H28298   8.826   5.167   9.214  2.8872  4.3533  2.0622
  930MOL0     H28299   8.536   4.996   9.085 -1.8188 -1.8649  0.8186
  930MOL0     H28300   8.529   4.997   9.256 -1.8190  4.1464  0.9306
  930MOL0     H28301   8.690   4.992   9.191 -0.1528  1.0343  1.4271
  930MOL0     H28302   8.114   5.443   9.106  2.2069  1.4865  2.1525
  930MOL0     H28303   7.891   5.396   9.067  1.1930  0.9015  0.7422
  930MOL0     H28304   7.574   5.224   9.073 -0.3151  0.7728 -0.5778
  930MOL0     H28305   7.705   5.324   9.015 -0.0184  0.1811 -2.1963
  930MOL0     H28306   7.823   5.111   8.940 -0.8232  2.0661 -1.4097
  930MOL0     H28307   7.683   5.014   8.999  0.7150 -1.2115 -2.9937
  930MOL0     H28308   7.596   5.234   8.823 -2.2545 -1.1503 -1.0684
  930MOL0     H28309   7.573   5.066   8.822  1.5423 -2.6047  0.4813
  930MOL0     H28310   7.787   5.039   8.685  0.8058 -0.4505 -0.1790
  930MOL0     H28311   7.812   5.221   8.695 -1.1465  0.2104 -2.4040
  930MOL0     H28312   7.619   5.082   8.513 -0.2762  1.4174 -1.4276
  930MOL0     H28313   7.591   5.229   8.562  1.1836  0.1258 -0.7971
  930MOL0     H28314   7.868   5.133   8.460 -0.8809  0.2937  1.7636
  930MOL0     H28315   7.825   5.301   8.484  1.5812 -0.4292 -1.4872
  930MOL0     H28316   7.626   5.177   8.311  0.2812 -0.5564  0.7792
  930MOL0     H28317   7.791   5.148   8.247  1.2231  0.7917  1.4192
  930MOL0     H28318   7.705   5.437   8.297 -0.2543  0.7649 -2.4393
  930MOL0     H28319   7.709   5.357   8.142 -0.3282 -0.3690 -0.8076
  930MOL0     H28320   7.890   5.053   9.328 -0.6363  0.5457  0.0339
  930MOL0     H28321   8.133   5.120   9.393 -0.1087  0.6826  0.8134
  930MOL0     H28322   8.444   5.472   9.284 -0.4441 -0.2580 -3.5255
  930MOL0     H28323   8.655   5.531   9.353 -3.2168 -1.7358  2.8915
  930MOL0     H28324  10.091   5.909  10.757  0.0135 -0.6073  0.5886
  930MOL0     H28325  10.143   6.115  10.873  1.3515 -1.7292 -1.5007
  930MOL0     H28326   9.792   6.435  11.272 -0.2112  0.5099 -2.1759
  930MOL0     H28327   9.798   6.660  11.368 -0.6900 -0.3582 -0.1437
  930MOL0     H28328  10.162   6.923  11.263 -0.3902 -0.4337 -0.3274
  930MOL0     H28329  10.025   6.943  11.141 -0.8488 -0.0969  0.4528
  930MOL0     H28330  10.077   7.160  11.258 -3.0462  1.0914 -1.9090
  930MOL0     H28331  10.044   7.068  11.401 -4.4734  0.4400  1.0582
  930MOL0     H28332   9.848   7.165  11.193 -1.2468  1.8459  1.3424
  930MOL0     H28333   9.818   7.032  11.323  2.3424 -0.6265  2.4540
  930MOL0     H28334   9.914   7.319  11.345 -2.6335  0.7777 -0.4772
  930MOL0     H28335   9.885   7.213  11.485 -1.5503  2.9304  2.0324
  930MOL0     H28336   9.502   7.296  11.466  0.7774  0.5020  2.2680
  930MOL0     H28337  10.165   6.726  11.146 -0.1907  0.8303 -0.6015
  930MOL0     H28338  10.262   6.550  11.045 -0.5137  1.0175 -1.7428
  930MOL0     H28339  10.184   6.391  11.033 -0.9460 -0.5510  2.3022
  930MOL0     H28340  10.146   6.520  10.914 -0.2539  1.2879  0.3707
  931MOL0     O28341   7.329   9.775   6.531 -0.3140 -0.0155 -0.0062
  931MOL0     C28342   7.351   9.817   6.419  1.2662 -0.7346  0.1031
  931MOL0     O28343   7.348   9.743   6.311 -0.8616  0.3962 -0.4425
  931MOL0     C28344   7.308   9.608   6.323 -0.3777  0.3680 -0.1300
  931MOL0     C28345   7.230   9.552   6.229  0.0546  0.5560 -0.0162
  931MOL0     C28346   7.192   9.420   6.241 -1.2444  0.4006 -0.2621
  931MOL0     C28347   7.245   9.325   6.332 -0.1993 -0.2074 -0.3797
  931MOL0     O28348   7.203   9.202   6.334  0.1545  0.1800 -0.3979
  931MOL0     C28349   7.288   9.083   6.354 -0.5237  0.0263  0.2789
  931MOL0     C28350   7.427   9.095   6.275  0.4053 -0.4682 -0.8859
  931MOL0     C28351   7.493   8.959   6.295 -0.1198  0.0288  0.0273
  931MOL0     C28352   7.606   8.965   6.398 -0.3884 -0.2474 -0.7773
  931MOL0     C28353   7.680   8.830   6.406  0.3575 -0.9291 -0.7434
  931MOL0     C28354   7.816   8.846   6.476 -0.0185 -0.0726 -0.3777
  931MOL0     C28355   7.907   8.927   6.389 -0.8756  0.0566  0.5703
  931MOL0     C28356   8.044   8.892   6.437  0.9816  0.2925 -0.0486
  931MOL0     N28357   8.149   8.992   6.424  0.3787  0.5815  0.6283
  931MOL0     C28358   8.197   9.033   6.297  0.8167  0.6407 -0.2187
  931MOL0     C28359   8.288   9.130   6.320  0.4218  0.2346  0.0356
  931MOL0     C28360   8.376   9.217   6.235  0.2241 -0.3424 -0.5437
  931MOL0     C28361   8.291   9.329   6.166 -0.2532  0.0774  0.3622
  931MOL0     C28362   8.388   9.403   6.067 -0.2365 -0.5960 -0.3782
  931MOL0     C28363   8.337   9.533   6.033 -0.6217 -0.2413  0.3828
  931MOL0     O28364   8.195   9.533   6.001 -0.4879  0.1214  0.5292
  931MOL0     C28365   8.168   9.518   5.865  0.6096  0.0947  0.0926
  931MOL0     C28366   8.038   9.551   5.824 -0.7193  0.1819 -0.0526
  931MOL0     C28367   7.994   9.529   5.700  0.3755  0.1645  0.5273
  931MOL0     C28368   7.847   9.558   5.680 -0.4583 -0.3499 -0.3105
  931MOL0     C28369   8.077   9.489   5.593 -0.1782 -0.2723  0.2234
  931MOL0     C28370   8.042   9.453   5.456 -0.0843 -0.6295 -0.5846
  931MOL0     O28371   8.137   9.388   5.378  1.0345  0.9385 -0.6509
  931MOL0     C28372   8.131   9.401   5.242  0.4366 -0.2661 -0.2462
  931MOL0     C28373   8.201   9.303   5.174 -0.4788 -0.0431 -0.2099
  931MOL0     C28374   8.235   9.310   5.040  0.3970 -0.8286 -0.1122
  931MOL0     C28375   8.187   9.421   4.969 -0.1088 -0.7521 -0.7992
  931MOL0     O28376   8.196   9.444   4.829 -0.3815 -0.2818 -0.4494
  931MOL0     C28377   8.321   9.406   4.761  0.1048 -0.6303  0.8324
  931MOL0     C28378   8.314   9.449   4.615 -0.6936  0.8390 -0.6171
  931MOL0     C28379   8.329   9.598   4.594 -0.3798 -0.6724 -0.2211
  931MOL0     C28380   8.327   9.645   4.451  0.0954  0.3568  0.5354
  931MOL0     C28381   8.443   9.597   4.371 -0.9754 -0.7087  0.2864
  931MOL0     C28382   8.581   9.615   4.437 -0.8133 -0.2820 -0.2867
  931MOL0     C28383   8.699   9.610   4.337 -0.3124  0.0098  0.1927
  931MOL0     C28384   8.807   9.501   4.378  0.3374 -0.0730  0.8791
  931MOL0    Cl28385   8.954   9.518   4.272 -0.2067  0.2212 -0.4067
  931MOL0     C28386   8.118   9.527   5.037 -0.3256 -0.2710  0.7003
  931MOL0     C28387   8.082   9.512   5.173 -0.9397 -1.3189  0.2708
  931MOL0     O28388   7.926   9.474   5.415 -0.7372 -0.7152 -0.0581
  931MOL0     C28389   8.211   9.457   5.631  0.9223 -0.5857 -0.0514
  931MOL0     C28390   8.255   9.480   5.767  0.9780  0.1654  0.3167
  931MOL0     N28391   8.276   9.151   6.458 -0.5804 -0.1438 -0.5606
  931MOL0     N28392   8.192   9.073   6.515 -0.2050  0.7658  0.3529
  931MOL0     C28393   7.338   9.382   6.418 -0.0136 -1.2372 -0.1874
  931MOL0     C28394   7.374   9.520   6.415  0.1896 -0.0282  0.1166
  931MOL0     C28395   7.374   9.964   6.401  0.9693 -0.5962 -0.5391
  931MOL0     C28396   7.431  10.002   6.280 -0.3543  0.0246 -0.1337
  931MOL0     C28397   7.478  10.131   6.250  0.0971  0.0968 -0.3039
  931MOL0     C28398   7.462  10.233   6.341  0.3483  0.4489 -0.9518
  931MOL0     O28399   7.527  10.353   6.332  0.3173  0.0890 -0.9381
  931MOL0     C28400   7.518  10.408   6.202 -0.0847 -0.2729  1.1107
  931MOL0     C28401   7.516  10.564   6.224  0.5249  0.7180 -0.3488
  931MOL0     C28402   7.390  10.615   6.294  0.1620 -0.3667 -0.0129
  931MOL0     C28403   7.391  10.762   6.316  0.2429 -0.2304 -0.2520
  931MOL0     C28404   7.280  10.814   6.399 -0.0550 -0.3750  0.0548
  931MOL0     C28405   7.177  10.857   6.452 -0.3818  0.3235 -0.5200
  931MOL0     C28406   7.395  10.198   6.472 -1.2041 -0.0696 -0.0093
  931MOL0     C28407   7.355  10.062   6.498 -0.8431 -0.6157 -1.0178
  931MOL0     C28408   7.317  10.027   6.643  0.6246  0.2143  1.3356
  931MOL0     H28409   7.177   9.605   6.151 -3.2232 -1.6778  0.5241
  931MOL0     H28410   7.123   9.385   6.165 -0.7209 -1.0322 -0.1161
  931MOL0     H28411   7.225   9.001   6.319  0.0450 -0.7164  0.9545
  931MOL0     H28412   7.303   9.063   6.461 -1.9068 -2.6393  0.0467
  931MOL0     H28413   7.412   9.118   6.169 -1.8708  0.7631 -0.3492
  931MOL0     H28414   7.488   9.176   6.315  1.9501 -0.6876 -2.6394
  931MOL0     H28415   7.419   8.882   6.320 -1.7396  1.8722  1.3192
  931MOL0     H28416   7.540   8.923   6.203 -0.6694 -1.5885  0.3445
  931MOL0     H28417   7.677   9.038   6.359 -0.1484  1.1134  1.9425
  931MOL0     H28418   7.557   9.001   6.489  0.1473  2.6005 -1.5360
  931MOL0     H28419   7.700   8.772   6.315 -4.2072 -1.0566 -1.9068
  931MOL0     H28420   7.614   8.768   6.467  0.8868 -1.4374 -0.6759
  931MOL0     H28421   7.798   8.887   6.575 -1.8594  0.3665 -0.8632
  931MOL0     H28422   7.860   8.746   6.483  1.0944  0.4040 -0.4426
  931MOL0     H28423   7.878   9.031   6.409  1.6493  0.3228  3.6783
  931MOL0     H28424   7.898   8.892   6.286  0.0793  1.3805  0.0021
  931MOL0     H28425   8.036   8.887   6.546 -1.1310 -3.1156 -0.2150
  931MOL0     H28426   8.087   8.800   6.396  3.0266 -1.3641  5.0716
  931MOL0     H28427   8.160   8.986   6.207 -1.7805 -2.1175  2.0705
  931MOL0     H28428   8.432   9.155   6.165  1.0888  0.2425 -0.3864
  931MOL0     H28429   8.451   9.261   6.301 -0.0084 -1.6990  0.6574
  931MOL0     H28430   8.211   9.286   6.105  0.6503  1.6826 -2.1336
  931MOL0     H28431   8.257   9.400   6.242  4.4852 -1.3829  4.4096
  931MOL0     H28432   8.491   9.417   6.101  0.1401 -1.6528 -1.0261
  931MOL0     H28433   8.385   9.340   5.978  2.2358  1.0567 -1.7423
  931MOL0     H28434   8.345   9.597   6.122  2.3783 -0.4535  0.3799
  931MOL0     H28435   8.402   9.593   5.968  2.4401 -0.2517  3.1521
  931MOL0     H28436   7.980   9.575   5.912  3.2491 -0.5223  3.0593
  931MOL0     H28437   7.800   9.600   5.769  2.5756 -2.4718  2.5555
  931MOL0     H28438   7.785   9.476   5.640 -0.2456 -2.1788  2.7883
  931MOL0     H28439   7.845   9.639   5.607  4.9906 -0.4756 -1.0182
  931MOL0     H28440   8.260   9.227   5.223  2.3167  0.4829 -2.5054
  931MOL0     H28441   8.295   9.233   4.992  0.7418  0.4951 -1.8928
  931MOL0     H28442   8.406   9.452   4.811 -0.5814  1.2585  0.3789
  931MOL0     H28443   8.341   9.299   4.766  0.4898 -0.5350  1.3787
  931MOL0     H28444   8.398   9.399   4.568 -0.6550  0.6073 -0.3060
  931MOL0     H28445   8.220   9.410   4.574 -1.1485  0.5629  0.6244
  931MOL0     H28446   8.425   9.625   4.639 -2.5143  1.5856  3.5049
  931MOL0     H28447   8.260   9.652   4.659 -0.5480 -0.4358 -0.5974
  931MOL0     H28448   8.330   9.754   4.446 -2.6647  0.4531 -1.6987
  931MOL0     H28449   8.233   9.624   4.398  1.2161 -1.9159 -0.7123
  931MOL0     H28450   8.424   9.489   4.362 -2.4133 -0.7749  3.0416
  931MOL0     H28451   8.450   9.648   4.275  2.1390 -0.5594  0.4936
  931MOL0     H28452   8.593   9.537   4.514 -1.2247  0.2153  0.2973
  931MOL0     H28453   8.581   9.713   4.486  1.3765 -0.1074 -0.5695
  931MOL0     H28454   8.741   9.710   4.332 -0.3026  0.1643  2.4238
  931MOL0     H28455   8.659   9.580   4.239 -0.8186 -4.3252  1.4819
  931MOL0     H28456   8.771   9.399   4.365 -0.8099  0.5890 -2.0215
  931MOL0     H28457   8.841   9.508   4.482 -0.1827  1.2655  0.9829
  931MOL0     H28458   8.072   9.604   4.976 -1.1127 -1.9620 -0.9545
  931MOL0     H28459   8.025   9.590   5.222  3.0677  1.6108  0.7725
  931MOL0     H28460   8.283   9.437   5.552  0.3705  0.4926 -0.8530
  931MOL0     H28461   8.355   9.448   5.793  0.5601 -2.8562 -1.3352
  931MOL0     H28462   7.390   9.322   6.492 -2.1213  0.2961  2.7389
  931MOL0     H28463   7.450   9.560   6.481  2.4215 -0.1131 -2.2369
  931MOL0     H28464   7.427   9.939   6.192 -5.1782  1.8803 -1.5832
  931MOL0     H28465   7.531  10.143   6.156 -1.1519 -0.8549 -1.1721
  931MOL0     H28466   7.609  10.386   6.145 -1.8638 -0.0386 -1.9917
  931MOL0     H28467   7.438  10.384   6.133 -0.7838 -1.1161  2.1765
  931MOL0     H28468   7.534  10.620   6.131  0.2189 -1.4926 -1.8265
  931MOL0     H28469   7.601  10.565   6.292 -0.2014 -3.0351  0.8307
  931MOL0     H28470   7.303  10.579   6.239  1.3665 -2.7635 -0.4642
  931MOL0     H28471   7.375  10.559   6.386  0.2933 -0.6493 -0.1606
  931MOL0     H28472   7.370  10.807   6.218 -2.5548  0.2879  0.5027
  931MOL0     H28473   7.478  10.805   6.366  0.4308  0.8076 -1.4136
  931MOL0     H28474   7.091  10.908   6.491  2.4723  3.8451  1.8610
  931MOL0     H28475   7.387  10.267   6.556  2.2712 -0.4263  0.7595
  931MOL0     H28476   7.215   9.987   6.638 -0.0241  1.8928 -0.1145
  931MOL0     H28477   7.401   9.970   6.684 -0.8312 -2.2067  1.1557
  931MOL0     H28478   7.307  10.118   6.703 -1.6385  1.8973 -1.2862
  932MOL0     O28479   9.508   4.921   0.108  0.6672 -0.2722  1.0773
  932MOL0     C28480   9.516   4.819   0.041  0.8249 -0.0236  0.2611
  932MOL0     O28481   9.425   4.720   0.050 -0.4208 -0.2401  0.4022
  932MOL0     C28482   9.334   4.733   0.155  0.2423  0.0450 -0.0250
  932MOL0     C28483   9.216   4.807   0.143  0.3884  0.6028  0.6498
  932MOL0     C28484   9.122   4.782   0.246  0.3694 -0.1156  0.1691
  932MOL0     C28485   9.153   4.705   0.362 -0.5696 -1.3340  0.4396
  932MOL0     O28486   9.062   4.712   0.472 -0.2635  0.0673  0.6176
  932MOL0     C28487   9.127   4.730   0.607 -0.1436 -0.1322 -0.1402
  932MOL0     C28488   9.015   4.785   0.698 -0.5521  0.5377  0.4117
  932MOL0     C28489   8.916   4.669   0.729 -0.7888 -0.4612 -0.7290
  932MOL0     C28490   8.809   4.675   0.629  1.9122  0.5387  0.4056
  932MOL0     C28491   8.673   4.603   0.667  0.2165 -0.7609 -0.3915
  932MOL0     C28492   8.698   4.440   0.683 -0.7459 -0.8127 -0.2320
  932MOL0     C28493   8.587   4.381   0.758 -0.2425  0.7489 -0.8890
  932MOL0     C28494   8.449   4.402   0.690  0.3432 -0.3497 -0.2684
  932MOL0     N28495   8.336   4.329   0.750 -0.2460 -0.1171 -0.0112
  932MOL0     C28496   8.291   4.343   0.876 -0.2294 -0.0526 -0.0939
  932MOL0     C28497   8.169   4.298   0.883 -0.0960 -0.0656  0.2171
  932MOL0     C28498   8.077   4.298   0.998  0.4149 -0.3244 -0.2259
  932MOL0     C28499   7.952   4.371   0.958 -0.4077 -0.2647 -0.6194
  932MOL0     C28500   7.856   4.359   1.082 -0.6048 -0.2589  0.7158
  932MOL0     C28501   7.880   4.460   1.186  0.0921 -1.1686  0.2711
  932MOL0     O28502   7.767   4.450   1.273  0.6393 -0.9501 -0.4927
  932MOL0     C28503   7.721   4.572   1.318 -1.3328 -0.5181 -0.4153
  932MOL0     C28504   7.675   4.675   1.238  0.6572  0.4848 -0.6591
  932MOL0     C28505   7.624   4.788   1.305 -0.0704 -0.2512  1.5278
  932MOL0     C28506   7.550   4.894   1.218  0.4466  0.5617 -0.4165
  932MOL0     C28507   7.617   4.793   1.447 -0.3229  0.4705  0.7639
  932MOL0     C28508   7.569   4.908   1.532  1.3276 -0.6075  1.0014
  932MOL0     O28509   7.557   4.888   1.667 -0.3298  0.2560  0.9123
  932MOL0     C28510   7.495   4.978   1.752  0.0255  0.8187  0.1424
  932MOL0     C28511   7.377   5.051   1.713 -0.1053 -0.0233  0.7950
  932MOL0     C28512   7.324   5.142   1.806 -0.6629 -0.0859 -0.0475
  932MOL0     C28513   7.367   5.145   1.942 -0.3441  0.2309  0.5356
  932MOL0     O28514   7.313   5.228   2.030 -0.2157  0.0225 -0.1410
  932MOL0     C28515   7.175   5.212   2.054 -0.1284  0.9694 -0.2024
  932MOL0     C28516   7.141   5.092   2.150 -0.4014  0.0419  0.2118
  932MOL0     C28517   6.988   5.095   2.194 -0.1292 -0.2050  0.4379
  932MOL0     C28518   6.965   5.015   2.321 -0.3106  0.4634 -0.5328
  932MOL0     C28519   6.818   5.038   2.371  1.5190  0.6143  0.0118
  932MOL0     C28520   6.800   4.999   2.522  0.6159 -0.5972 -0.2409
  932MOL0     C28521   6.822   4.852   2.570  0.6843 -0.8182  0.9569
  932MOL0     C28522   6.888   4.839   2.712 -0.1287  1.3463  0.2413
  932MOL0    Cl28523   6.890   4.668   2.769  0.0151  0.4689  0.2107
  932MOL0     C28524   7.482   5.067   1.978 -0.3813  0.8667  0.6337
  932MOL0     C28525   7.538   4.979   1.886  0.8991 -0.2726  0.6191
  932MOL0     O28526   7.531   5.012   1.478 -0.2222 -0.6105  0.9729
  932MOL0     C28527   7.669   4.684   1.517 -0.1604 -1.4824  0.1200
  932MOL0     C28528   7.713   4.577   1.455  0.0773  0.7977 -0.0042
  932MOL0     N28529   8.131   4.259   0.758 -0.2905  1.1922  0.1007
  932MOL0     N28530   8.235   4.270   0.681  0.4661 -0.2624  0.1189
  932MOL0     C28531   9.278   4.642   0.364 -0.5345  0.6207 -0.4197
  932MOL0     C28532   9.365   4.646   0.257  0.1564 -0.3442 -1.1620
  932MOL0     C28533   9.620   4.802  -0.061  0.1891 -0.2939 -0.4855
  932MOL0     C28534   9.619   4.692  -0.151 -0.3117  0.3867 -0.2526
  932MOL0     C28535   9.724   4.671  -0.241 -0.0622 -0.0023 -0.0552
  932MOL0     C28536   9.828   4.766  -0.249 -0.1454  1.2403  0.1426
  932MOL0     O28537   9.928   4.764  -0.347  0.4471  0.7368 -0.1611
  932MOL0     C28538   9.952   4.637  -0.406 -0.4306 -0.2089  0.2998
  932MOL0     C28539  10.098   4.621  -0.478  0.2732 -0.0818  0.0784
  932MOL0     C28540  10.159   4.742  -0.524 -0.3555 -0.2405  0.2503
  932MOL0     C28541  10.296   4.728  -0.611  0.7090 -0.1303 -0.6874
  932MOL0     C28542  10.363   4.851  -0.592 -0.5887  0.1270  0.5378
  932MOL0     C28543  10.423   4.957  -0.568  0.1008 -0.6753  0.7453
  932MOL0     C28544   9.824   4.885  -0.185 -0.1625 -0.2208 -0.6062
  932MOL0     C28545   9.725   4.909  -0.084 -0.5677 -0.2557  0.6701
  932MOL0     C28546   9.743   5.043  -0.009  0.3521  0.7386  0.3296
  932MOL0     H28547   9.214   4.871   0.056 -0.7055  1.6560  1.4050
  932MOL0     H28548   9.023   4.824   0.230 -0.1148 -1.7743 -1.6021
  932MOL0     H28549   9.200   4.810   0.617 -2.2093  1.6151  2.4772
  932MOL0     H28550   9.175   4.640   0.648  2.6286  0.8778 -0.9980
  932MOL0     H28551   9.071   4.822   0.785 -2.0484  0.5949  1.3874
  932MOL0     H28552   8.968   4.871   0.650  0.2893  0.9257  0.2684
  932MOL0     H28553   8.961   4.570   0.742  0.9299  0.5099  1.2815
  932MOL0     H28554   8.861   4.688   0.822 -2.7991 -0.1533 -1.9270
  932MOL0     H28555   8.774   4.778   0.620  1.8357  0.4338 -0.5594
  932MOL0     H28556   8.845   4.630   0.537  0.1380  0.0007 -0.0717
  932MOL0     H28557   8.592   4.631   0.599  0.5267 -0.6132 -0.7019
  932MOL0     H28558   8.637   4.626   0.768 -0.1060 -0.4818 -0.5711
  932MOL0     H28559   8.686   4.407   0.579  1.9817  0.2949 -1.0161
  932MOL0     H28560   8.788   4.394   0.725 -3.9357 -3.3935  4.7414
  932MOL0     H28561   8.576   4.420   0.860 -0.9539 -0.6289 -0.4212
  932MOL0     H28562   8.603   4.275   0.777  0.3624  0.8351 -0.8854
  932MOL0     H28563   8.420   4.504   0.665 -0.5948 -0.6166 -0.3130
  932MOL0     H28564   8.452   4.370   0.586 -1.8332 -0.7916 -0.2409
  932MOL0     H28565   8.348   4.378   0.962  0.4790 -2.0234  0.2986
  932MOL0     H28566   8.137   4.340   1.080  1.4672  1.3565 -1.7538
  932MOL0     H28567   8.048   4.195   1.017  3.0259 -1.2865 -0.9151
  932MOL0     H28568   7.983   4.474   0.938  1.7841 -0.8465 -0.4544
  932MOL0     H28569   7.895   4.344   0.869 -0.0625  1.4164 -1.4043
  932MOL0     H28570   7.754   4.360   1.042 -0.4675  1.2677  0.3508
  932MOL0     H28571   7.862   4.264   1.137  0.3585  1.3702  3.5873
  932MOL0     H28572   7.977   4.442   1.233  1.3592  1.6070 -1.0198
  932MOL0     H28573   7.891   4.557   1.136  0.6708 -1.6532 -0.5697
  932MOL0     H28574   7.676   4.675   1.130  1.2355 -0.7164 -0.6732
  932MOL0     H28575   7.622   4.976   1.216 -0.3851  1.2861 -0.7924
  932MOL0     H28576   7.452   4.916   1.260 -1.0050 -4.3176 -0.5555
  932MOL0     H28577   7.529   4.860   1.116 -1.5783  0.0247  0.1343
  932MOL0     H28578   7.342   5.050   1.610  1.4915  1.4403  0.1961
  932MOL0     H28579   7.254   5.218   1.773  0.6779  1.3977  0.3556
  932MOL0     H28580   7.143   5.300   2.110  0.6047  0.1370  1.6360
  932MOL0     H28581   7.112   5.191   1.967  0.0030 -1.7122  0.2640
  932MOL0     H28582   7.185   5.004   2.103  0.5540  0.4665  0.2911
  932MOL0     H28583   7.206   5.117   2.235  0.2516  2.7572 -0.9765
  932MOL0     H28584   6.929   5.057   2.110  1.1932  1.7243 -1.4767
  932MOL0     H28585   6.963   5.201   2.200 -0.5416 -0.0866 -2.3032
  932MOL0     H28586   7.034   5.062   2.392 -1.9524 -0.9240  2.1816
  932MOL0     H28587   7.001   4.912   2.309  0.0991  0.6064 -0.5373
  932MOL0     H28588   6.798   5.144   2.350  0.1458  0.2517 -0.6339
  932MOL0     H28589   6.744   4.986   2.308  0.1224  2.2784  0.1947
  932MOL0     H28590   6.700   5.033   2.552  1.8848 -0.0587  4.0792
  932MOL0     H28591   6.863   5.069   2.578 -1.3595  1.5204 -0.5076
  932MOL0     H28592   6.884   4.804   2.494 -0.0488 -1.0596  0.4957
  932MOL0     H28593   6.728   4.797   2.554 -0.1237  0.9225 -0.6292
  932MOL0     H28594   6.833   4.894   2.788 -1.7980 -2.2271  1.8395
  932MOL0     H28595   6.987   4.879   2.689 -0.1250 -0.0055 -2.4730
  932MOL0     H28596   7.538   5.085   2.070  1.6022  1.1668 -0.5862
  932MOL0     H28597   7.623   4.917   1.912  0.6414 -0.1531  1.7984
  932MOL0     H28598   7.660   4.677   1.625  3.8395 -0.4846  0.6759
  932MOL0     H28599   7.737   4.493   1.520  0.0032 -0.0457 -1.0439
  932MOL0     H28600   9.312   4.587   0.451 -2.5988 -0.2033 -0.0901
  932MOL0     H28601   9.461   4.597   0.263  1.1792  1.7115  0.3459
  932MOL0     H28602   9.532   4.628  -0.143 -0.2985 -0.0537 -2.7998
  932MOL0     H28603   9.707   4.586  -0.306 -2.3770  0.7275 -0.4845
  932MOL0     H28604   9.938   4.555  -0.336  2.3704  1.8707  3.6058
  932MOL0     H28605   9.883   4.629  -0.491  0.8244 -0.7012 -0.7204
  932MOL0     H28606  10.073   4.562  -0.567  0.0447 -1.8288  1.2512
  932MOL0     H28607  10.159   4.561  -0.410 -1.0788 -0.5766  0.9161
  932MOL0     H28608  10.086   4.799  -0.583  1.2450  2.9636  1.1481
  932MOL0     H28609  10.162   4.809  -0.438 -2.4202 -1.3638  1.2811
  932MOL0     H28610  10.257   4.714  -0.712 -1.0064 -0.4177 -0.0326
  932MOL0     H28611  10.346   4.638  -0.574 -2.8039 -2.2113 -0.5909
  932MOL0     H28612  10.467   5.049  -0.536 -1.3063  0.0203  0.7385
  932MOL0     H28613   9.898   4.961  -0.209 -2.5902  2.3553 -0.5492
  932MOL0     H28614   9.729   5.035   0.099  1.6291 -2.4774  0.3573
  932MOL0     H28615   9.837   5.099  -0.022 -0.6133  2.3719  0.1274
  932MOL0     H28616   9.677   5.121  -0.049  0.3353  0.7847  0.4471
  933MOL0     O28617   0.906   5.500   3.353 -0.2244 -0.5303 -0.6910
  933MOL0     C28618   0.930   5.560   3.456 -0.6721  0.6399  0.2867
  933MOL0     O28619   1.001   5.504   3.560  0.4892  0.8225 -0.0449
  933MOL0     C28620   1.060   5.370   3.561  0.3089 -0.9914  0.3220
  933MOL0     C28621   1.091   5.327   3.693 -0.4364  0.9665  0.0283
  933MOL0     C28622   1.173   5.219   3.716 -0.7368 -0.5459 -0.0691
  933MOL0     C28623   1.219   5.141   3.612 -1.1476  0.1495 -0.6214
  933MOL0     O28624   1.307   5.039   3.635  0.7389 -0.5069 -0.4862
  933MOL0     C28625   1.243   4.913   3.662 -0.1138 -0.2218 -1.2531
  933MOL0     C28626   1.193   4.838   3.537 -0.7043  0.4102 -0.1113
  933MOL0     C28627   1.090   4.723   3.575 -0.9696 -0.3671  0.1609
  933MOL0     C28628   1.039   4.661   3.436  0.3051  0.0184 -0.1337
  933MOL0     C28629   0.903   4.583   3.457  0.5278 -0.6242 -0.1177
  933MOL0     C28630   0.861   4.511   3.329 -0.1567 -0.1710 -0.2241
  933MOL0     C28631   0.937   4.380   3.307 -1.4070 -0.1735 -0.0992
  933MOL0     C28632   0.868   4.308   3.185  0.1907  0.4329 -0.4776
  933MOL0     N28633   0.951   4.199   3.133 -0.4479  0.1814 -0.7028
  933MOL0     C28634   1.051   4.204   3.034 -0.7810 -0.4663  0.0733
  933MOL0     C28635   1.083   4.070   3.018  0.0837 -1.3956  0.4562
  933MOL0     C28636   1.171   4.020   2.898 -0.5089 -0.2362 -0.2817
  933MOL0     C28637   1.108   4.047   2.759 -0.3813  0.1764  0.0023
  933MOL0     C28638   0.968   3.976   2.750  0.2236 -0.1275  0.2521
  933MOL0     C28639   0.924   3.932   2.619  0.3868 -0.1370  0.1912
  933MOL0     O28640   0.928   4.044   2.537  0.1224 -0.1127  0.3477
  933MOL0     C28641   0.811   4.098   2.494 -0.4801  0.7219  0.5055
  933MOL0     C28642   0.806   4.170   2.370 -0.2094 -0.0245 -0.4304
  933MOL0     C28643   0.691   4.225   2.319  0.0902 -0.7461 -0.2649
  933MOL0     C28644   0.694   4.297   2.191  1.0124 -0.0841  1.4209
  933MOL0     C28645   0.570   4.188   2.379  0.8138 -0.1246 -0.6468
  933MOL0     C28646   0.433   4.222   2.325  0.3093 -0.0781  0.9201
  933MOL0     O28647   0.357   4.300   2.417 -0.8239  0.8189  0.0273
  933MOL0     C28648   0.255   4.364   2.354 -0.0061  0.4604 -0.4591
  933MOL0     C28649   0.271   4.498   2.317  0.2381  0.1759  0.2257
  933MOL0     C28650   0.169   4.561   2.246  0.7833  0.4190 -0.7086
  933MOL0     C28651   0.042   4.502   2.217 -0.0319 -0.4751  0.1993
  933MOL0     O28652  -0.052   4.582   2.150  0.2861  0.4921  0.0499
  933MOL0     C28653  -0.158   4.502   2.084 -0.4331  0.7642  0.0387
  933MOL0     C28654  -0.277   4.473   2.163 -0.9182 -0.2429 -1.4962
  933MOL0     C28655  -0.370   4.381   2.088 -0.2411  1.2261 -0.9048
  933MOL0     C28656  -0.467   4.307   2.181 -0.2777  0.1700 -0.6610
  933MOL0     C28657  -0.563   4.406   2.250 -0.4996 -0.5809 -0.4285
  933MOL0     C28658  -0.660   4.474   2.151 -0.1330  0.0064 -0.2192
  933MOL0     C28659  -0.721   4.608   2.201 -0.8877  0.1317 -0.5472
  933MOL0     C28660  -0.817   4.588   2.323 -0.7031  0.4151 -0.1371
  933MOL0    Cl28661  -0.950   4.482   2.271 -0.1909 -0.4695  0.2896
  933MOL0     C28662   0.030   4.366   2.268  0.2549  0.0703  0.2259
  933MOL0     C28663   0.132   4.307   2.337 -0.4514  0.1702  0.5794
  933MOL0     O28664   0.411   4.226   2.207 -0.1910  0.8127 -0.0071
  933MOL0     C28665   0.566   4.128   2.504  0.4505  1.0096 -0.0640
  933MOL0     C28666   0.689   4.083   2.563  0.7294 -0.6898 -0.3824
  933MOL0     N28667   1.004   3.996   3.100 -0.4246 -0.2072  0.3723
  933MOL0     N28668   0.928   4.068   3.173  0.8698 -0.4813 -0.6541
  933MOL0     C28669   1.193   5.181   3.482  0.4094 -0.2612  0.4223
  933MOL0     C28670   1.117   5.301   3.454  0.4682 -0.5150 -0.0019
  933MOL0     C28671   0.864   5.680   3.476  0.4692 -0.2946  0.2903
  933MOL0     C28672   0.886   5.758   3.595 -0.2756 -0.4043 -0.7897
  933MOL0     C28673   0.815   5.872   3.632 -2.0810 -0.7803  0.6363
  933MOL0     C28674   0.744   5.945   3.536  0.2450  0.1692  0.3780
  933MOL0     O28675   0.716   6.074   3.565  0.3961  0.7232  0.2024
  933MOL0     C28676   0.608   6.134   3.505  0.7288 -0.0451  0.0823
  933MOL0     C28677   0.586   6.269   3.576 -0.3052  0.7726 -0.9118
  933MOL0     C28678   0.538   6.380   3.486  0.1746 -0.8049  0.1065
  933MOL0     C28679   0.516   6.510   3.559  0.7753  0.0200  0.7643
  933MOL0     C28680   0.437   6.607   3.471 -0.3228 -0.7022 -0.6023
  933MOL0     C28681   0.395   6.683   3.386  0.2800  0.1034  0.3141
  933MOL0     C28682   0.717   5.879   3.418  0.4974  0.1538 -0.0900
  933MOL0     C28683   0.767   5.744   3.395  1.0146 -0.6214 -0.5118
  933MOL0     C28684   0.715   5.668   3.273 -0.2042  0.0414 -0.2869
  933MOL0     H28685   1.066   5.390   3.778 -0.9398  4.7664 -2.6498
  933MOL0     H28686   1.223   5.199   3.810  0.8712  0.9711 -0.5411
  933MOL0     H28687   1.168   4.922   3.740  0.7860 -1.7287 -0.1678
  933MOL0     H28688   1.320   4.854   3.713 -2.1039  0.5109  3.0712
  933MOL0     H28689   1.129   4.903   3.477 -3.3607 -3.6383 -2.0662
  933MOL0     H28690   1.269   4.801   3.469  0.0923 -0.1533  1.0426
  933MOL0     H28691   1.143   4.655   3.642  2.3280  2.6105  0.8764
  933MOL0     H28692   1.019   4.778   3.638 -1.2325 -1.6826  1.0503
  933MOL0     H28693   1.033   4.735   3.356 -0.7129  0.2407  0.1210
  933MOL0     H28694   1.118   4.588   3.423 -0.6539 -1.7469  2.8693
  933MOL0     H28695   0.822   4.652   3.482  0.8263 -1.0553  2.3001
  933MOL0     H28696   0.917   4.510   3.537 -2.7405  0.0708  1.2381
  933MOL0     H28697   0.754   4.488   3.338 -0.0443 -1.0415 -0.9075
  933MOL0     H28698   0.860   4.580   3.243 -0.4133  0.0837 -0.0173
  933MOL0     H28699   0.950   4.310   3.391 -3.0628  1.6279  1.7618
  933MOL0     H28700   1.040   4.392   3.272 -0.2001 -4.1223  1.5044
  933MOL0     H28701   0.776   4.274   3.232  0.7219  2.7226  2.5040
  933MOL0     H28702   0.849   4.379   3.104  2.8549  1.4090 -0.3744
  933MOL0     H28703   1.082   4.287   2.971 -1.0347 -0.1860  0.3132
  933MOL0     H28704   1.196   3.914   2.904  2.8438  0.3220 -1.7859
  933MOL0     H28705   1.272   4.060   2.911  0.6634 -2.9734 -0.2977
  933MOL0     H28706   1.098   4.155   2.766  2.2217  0.3937  4.0222
  933MOL0     H28707   1.170   4.009   2.678 -1.7476 -3.1069  0.3005
  933MOL0     H28708   0.956   3.884   2.808  1.4039 -1.0055 -0.8238
  933MOL0     H28709   0.892   4.044   2.787  1.1390  0.6119  0.7973
  933MOL0     H28710   1.005   3.878   2.570 -2.2192  0.0750 -5.0800
  933MOL0     H28711   0.829   3.877   2.614 -1.1522  2.3526  0.1223
  933MOL0     H28712   0.899   4.188   2.317 -0.2233  0.4657 -0.2897
  933MOL0     H28713   0.655   4.237   2.108 -2.0594  0.9398  1.9936
  933MOL0     H28714   0.797   4.325   2.167  1.3984 -1.5956  1.2348
  933MOL0     H28715   0.636   4.388   2.205  1.0118  0.2405 -0.3638
  933MOL0     H28716   0.365   4.547   2.339 -1.2696  1.8682  3.7490
  933MOL0     H28717   0.190   4.666   2.228  0.5018  0.7941  0.9990
  933MOL0     H28718  -0.181   4.564   1.998 -1.9810  0.9456  0.5561
  933MOL0     H28719  -0.115   4.407   2.049 -2.3377  0.9372 -3.0940
  933MOL0     H28720  -0.253   4.416   2.254  1.4012 -0.3737 -2.1240
  933MOL0     H28721  -0.328   4.560   2.204 -0.0040  0.0872 -1.0143
  933MOL0     H28722  -0.319   4.300   2.035 -1.0339 -0.7753  1.2049
  933MOL0     H28723  -0.412   4.442   2.008  0.0731  2.8650  0.1178
  933MOL0     H28724  -0.402   4.253   2.250  0.7830  0.7715 -1.1747
  933MOL0     H28725  -0.524   4.232   2.124  0.7117 -2.6807  1.8063
  933MOL0     H28726  -0.630   4.383   2.333 -1.4888  4.4412  0.5321
  933MOL0     H28727  -0.503   4.482   2.302  0.1707 -1.1677 -0.3366
  933MOL0     H28728  -0.735   4.403   2.114 -1.0041  0.9212 -0.2585
  933MOL0     H28729  -0.607   4.494   2.058  4.0151  0.3016  1.9996
  933MOL0     H28730  -0.780   4.662   2.127  0.3411  1.3683 -0.6688
  933MOL0     H28731  -0.647   4.682   2.234 -2.8161  1.2784  1.4247
  933MOL0     H28732  -0.860   4.679   2.366  1.8488  1.8353 -0.4116
  933MOL0     H28733  -0.765   4.538   2.406 -0.8515  1.7053  0.7594
  933MOL0     H28734  -0.060   4.315   2.234 -0.9972  0.8086  2.2660
  933MOL0     H28735   0.133   4.203   2.367  1.4700 -0.2598 -0.7884
  933MOL0     H28736   0.472   4.105   2.552  0.6858 -0.8849 -0.4351
  933MOL0     H28737   0.681   4.028   2.657  1.9229 -2.8627 -1.4565
  933MOL0     H28738   1.234   5.121   3.401  1.5428  2.1359 -0.8701
  933MOL0     H28739   1.103   5.331   3.351 -3.5615  0.9638  0.7812
  933MOL0     H28740   0.939   5.718   3.681 -0.2184 -2.9451 -1.9334
  933MOL0     H28741   0.844   5.919   3.726 -1.0925 -0.6556  0.2822
  933MOL0     H28742   0.624   6.153   3.399 -2.5229 -1.8260 -0.8778
  933MOL0     H28743   0.520   6.069   3.512 -0.6165  1.7982  1.6038
  933MOL0     H28744   0.683   6.300   3.615 -0.1412 -2.7426  2.0251
  933MOL0     H28745   0.518   6.265   3.662 -0.3205  0.9402 -0.9148
  933MOL0     H28746   0.628   6.388   3.424  1.1497 -2.5612  1.2061
  933MOL0     H28747   0.446   6.366   3.428  0.0840  6.4556 -2.6067
  933MOL0     H28748   0.606   6.566   3.582  0.7177  0.4308  0.0184
  933MOL0     H28749   0.459   6.489   3.651 -0.1068  0.9122  0.4383
  933MOL0     H28750   0.359   6.748   3.309  1.8496  0.0971 -0.4450
  933MOL0     H28751   0.660   5.928   3.340  1.6184  0.1272 -0.9349
  933MOL0     H28752   0.622   5.703   3.227 -0.7725 -0.1776  0.6823
  933MOL0     H28753   0.800   5.662   3.204  2.0166  0.3508  2.2357
  933MOL0     H28754   0.696   5.565   3.305 -0.2134  0.8166  2.4867
  934MOL0     O28755   9.893   8.384   5.014  0.1955 -0.7379  0.2566
  934MOL0     C28756   9.952   8.483   5.054  0.1371  0.7182 -0.0031
  934MOL0     O28757   9.989   8.504   5.178  0.0842 -0.6054 -0.8826
  934MOL0     C28758   9.932   8.432   5.274  1.4245  0.7530  0.3213
  934MOL0     C28759   9.789   8.409   5.285 -0.1356  0.7245  0.6100
  934MOL0     C28760   9.737   8.324   5.383  0.2923  0.3967  0.0742
  934MOL0     C28761   9.826   8.258   5.468 -0.3373  0.0248  0.0406
  934MOL0     O28762   9.792   8.173   5.566  0.2090  0.4169  1.2299
  934MOL0     C28763   9.763   8.040   5.519  0.6998 -0.4216  0.1689
  934MOL0     C28764   9.665   7.983   5.615  0.1823  0.2857  0.3283
  934MOL0     C28765   9.520   8.036   5.603  0.1648  0.4891 -0.0946
  934MOL0     C28766   9.415   7.977   5.705 -0.0107 -0.2280 -0.1032
  934MOL0     C28767   9.268   7.982   5.645 -0.3805  0.5741 -0.1899
  934MOL0     C28768   9.172   7.904   5.719  0.5891 -0.0265  0.0418
  934MOL0     C28769   9.034   7.911   5.653 -0.4723  0.2062 -0.2434
  934MOL0     C28770   8.922   7.857   5.736  1.3646  0.0795 -0.2048
  934MOL0     N28771   8.823   7.777   5.664  0.7427 -0.7362 -0.1321
  934MOL0     C28772   8.737   7.824   5.566  0.5412  0.1890 -1.0648
  934MOL0     C28773   8.687   7.719   5.498  0.7468  0.2213  0.9371
  934MOL0     C28774   8.616   7.720   5.358  0.5108  0.4316 -1.0297
  934MOL0     C28775   8.684   7.816   5.257 -0.0638 -0.0982 -0.2808
  934MOL0     C28776   8.601   7.816   5.118  0.6915 -0.6498 -0.0513
  934MOL0     C28777   8.657   7.912   5.014  0.2762  1.9439  0.5189
  934MOL0     O28778   8.775   7.844   4.959  0.1968  0.1010 -0.3974
  934MOL0     C28779   8.872   7.920   4.892  1.0908  0.9618  0.3244
  934MOL0     C28780   8.858   8.049   4.852  0.0276  0.9417 -0.2703
  934MOL0     C28781   8.976   8.120   4.800  1.2308  1.1052 -0.3133
  934MOL0     C28782   8.963   8.265   4.787  0.1188 -0.0605  0.2384
  934MOL0     C28783   9.090   8.046   4.774 -0.3274 -0.0683 -1.5139
  934MOL0     C28784   9.201   8.098   4.706  0.5357 -0.3803  0.7558
  934MOL0     O28785   9.304   8.011   4.689  0.0488 -0.1518  0.1495
  934MOL0     C28786   9.423   8.042   4.628  0.1726 -0.3597 -0.6206
  934MOL0     C28787   9.510   8.132   4.688  0.4099 -0.5023 -0.6073
  934MOL0     C28788   9.636   8.155   4.627  0.0289 -0.4651 -0.3577
  934MOL0     C28789   9.678   8.089   4.512  0.1436 -0.3082  0.4895
  934MOL0     O28790   9.805   8.095   4.461  0.0863  0.1781  0.3831
  934MOL0     C28791   9.897   8.201   4.501  0.2764 -0.2822 -0.2033
  934MOL0     C28792  10.034   8.203   4.421 -0.9488 -0.0336  0.2928
  934MOL0     C28793  10.097   8.060   4.408 -0.9448  0.4915  0.5766
  934MOL0     C28794  10.185   8.058   4.288  0.9211  0.1863 -0.6966
  934MOL0     C28795  10.254   7.917   4.285  0.1658 -0.9447 -0.0878
  934MOL0     C28796  10.336   7.889   4.159  0.0067 -0.0354 -0.1380
  934MOL0     C28797  10.358   7.735   4.139 -0.4762 -0.1006  0.0184
  934MOL0     C28798  10.479   7.702   4.043  0.5114  0.3967  0.2207
  934MOL0    Cl28799  10.469   7.795   3.886  0.6518 -0.2385  0.1137
  934MOL0     C28800   9.590   7.996   4.457  0.5777 -0.5164  0.4294
  934MOL0     C28801   9.457   7.979   4.513  0.0327 -1.2827  0.1752
  934MOL0     O28802   9.193   8.207   4.645  0.6777  0.0430  0.3144
  934MOL0     C28803   9.095   7.910   4.823 -0.2346  0.0175  0.6779
  934MOL0     C28804   8.981   7.851   4.864 -0.2257  0.1398  0.5391
  934MOL0     N28805   8.731   7.603   5.559  0.0397 -0.3781 -0.2947
  934MOL0     N28806   8.797   7.645   5.661  0.0998  0.0011 -0.2808
  934MOL0     C28807   9.966   8.277   5.457 -0.0854  0.0673 -0.3445
  934MOL0     C28808  10.011   8.360   5.358  0.5726 -0.3143 -0.0316
  934MOL0     C28809  10.008   8.573   4.953  0.3851 -0.5139 -1.3792
  934MOL0     C28810  10.147   8.609   4.958 -0.2259 -1.4207 -0.4087
  934MOL0     C28811  10.202   8.695   4.857 -0.3610  1.2801  0.0158
  934MOL0     C28812  10.108   8.742   4.766  0.5164  0.6294  0.0629
  934MOL0     O28813  10.170   8.815   4.668  0.3064  0.4053 -0.1226
  934MOL0     C28814  10.106   8.822   4.537  0.6920 -1.0564 -0.3137
  934MOL0     C28815  10.088   8.682   4.470 -0.0251 -0.3848 -0.7646
  934MOL0     C28816  10.132   8.679   4.332  0.4082 -0.6163 -0.2038
  934MOL0     C28817  10.103   8.545   4.272  0.4739  0.8692  1.2304
  934MOL0     C28818  10.228   8.469   4.269  0.8871 -0.5455  0.5917
  934MOL0     C28819  10.322   8.408   4.232 -0.4738 -0.3845  0.8776
  934MOL0     C28820   9.972   8.713   4.771  0.0154  0.5399  0.0508
  934MOL0     C28821   9.917   8.628   4.861 -0.1136  0.5329  0.2178
  934MOL0     C28822   9.774   8.598   4.848  1.1465 -0.4368  0.0387
  934MOL0     H28823   9.718   8.467   5.227 -0.8911  0.4366  1.2290
  934MOL0     H28824   9.630   8.308   5.385  0.3037 -0.8490 -3.0758
  934MOL0     H28825   9.858   7.985   5.514  1.8142  0.9719  3.2776
  934MOL0     H28826   9.728   8.036   5.415  0.4486  0.3496  0.2149
  934MOL0     H28827   9.664   7.874   5.603 -2.8579  0.2619 -0.1501
  934MOL0     H28828   9.692   8.001   5.720 -0.7545 -3.4976  1.3736
  934MOL0     H28829   9.519   8.145   5.612  0.2366  0.4249  0.7750
  934MOL0     H28830   9.485   8.005   5.504 -0.1399 -0.1628  0.2184
  934MOL0     H28831   9.441   7.872   5.722 -1.8528 -1.5579 -4.1901
  934MOL0     H28832   9.408   8.037   5.796 -0.3171 -2.6145  1.5338
  934MOL0     H28833   9.274   7.945   5.543 -0.6546 -0.0425  0.0134
  934MOL0     H28834   9.239   8.087   5.645 -1.4571  0.3684  2.6866
  934MOL0     H28835   9.197   7.798   5.725 -2.0757 -0.7362 -0.0341
  934MOL0     H28836   9.177   7.943   5.822 -0.9051 -0.4742  0.3106
  934MOL0     H28837   9.040   7.851   5.562 -0.9163  0.9423 -0.7664
  934MOL0     H28838   9.010   8.015   5.629 -1.0450 -0.0476 -0.7830
  934MOL0     H28839   8.952   7.787   5.815  0.3007 -0.8621 -0.6046
  934MOL0     H28840   8.880   7.943   5.790  2.4490 -0.4539  1.5655
  934MOL0     H28841   8.725   7.931   5.552  0.6983  0.4467  0.5433
  934MOL0     H28842   8.511   7.750   5.363  0.8537  1.6178 -0.6011
  934MOL0     H28843   8.625   7.620   5.314  4.4742  1.1229 -2.1746
  934MOL0     H28844   8.694   7.920   5.290  0.1706 -0.1312 -0.2454
  934MOL0     H28845   8.784   7.776   5.242  0.2682  1.1904 -1.8432
  934MOL0     H28846   8.588   7.713   5.085  1.6472 -0.9945  0.6120
  934MOL0     H28847   8.500   7.859   5.113  0.9346 -0.1153 -0.6044
  934MOL0     H28848   8.579   7.929   4.938  1.1064 -1.8307 -1.4158
  934MOL0     H28849   8.692   8.003   5.064 -0.0004  1.5094  1.5283
  934MOL0     H28850   8.771   8.108   4.879 -2.0263 -1.1800 -1.7379
  934MOL0     H28851   8.963   8.294   4.682  0.5566  1.1747  0.5579
  934MOL0     H28852   9.053   8.305   4.834  1.3861 -2.6038  0.1622
  934MOL0     H28853   8.867   8.303   4.823 -0.0970 -0.1911 -0.1958
  934MOL0     H28854   9.473   8.184   4.776 -0.5570 -2.2561  0.0571
  934MOL0     H28855   9.707   8.225   4.669  2.6679 -1.2255 -3.2225
  934MOL0     H28856   9.852   8.301   4.494  0.7775 -0.1678 -4.4967
  934MOL0     H28857   9.923   8.165   4.601 -1.3934 -2.1407 -0.3853
  934MOL0     H28858  10.016   8.251   4.325  0.6713  1.6850  0.7754
  934MOL0     H28859  10.115   8.255   4.473 -0.7728 -1.1399  1.1659
  934MOL0     H28860  10.018   7.985   4.412 -0.3383 -0.2361 -0.6394
  934MOL0     H28861  10.155   8.043   4.499 -0.4314 -3.2864 -0.2946
  934MOL0     H28862  10.264   8.134   4.292  3.1723 -1.8583 -2.9324
  934MOL0     H28863  10.128   8.065   4.195  1.3024  0.3664 -0.9184
  934MOL0     H28864  10.314   7.901   4.375 -0.5393  2.7537  1.1941
  934MOL0     H28865  10.167   7.852   4.295 -0.3738 -0.1389  0.5489
  934MOL0     H28866  10.433   7.940   4.160 -0.4992  0.9498  1.0807
  934MOL0     H28867  10.272   7.926   4.079 -0.8605 -1.5951 -0.2005
  934MOL0     H28868  10.266   7.692   4.099 -0.4383  1.6137 -2.1067
  934MOL0     H28869  10.384   7.679   4.229  1.3217 -1.7541 -1.4251
  934MOL0     H28870  10.488   7.593   4.035  0.7187  0.3830  0.6258
  934MOL0     H28871  10.577   7.739   4.076  2.0341 -1.4894 -1.8116
  934MOL0     H28872   9.597   7.946   4.360  2.0123  1.3635 -0.4991
  934MOL0     H28873   9.382   7.928   4.454  0.8618 -3.3419  0.7795
  934MOL0     H28874   9.187   7.854   4.808 -1.0310 -2.0559  2.8258
  934MOL0     H28875   8.987   7.746   4.890  1.2160 -0.2063 -1.0085
  934MOL0     H28876  10.044   8.232   5.519 -0.0479 -2.6323 -2.1706
  934MOL0     H28877  10.118   8.378   5.345  1.3558 -3.2840  1.3759
  934MOL0     H28878  10.218   8.582   5.034  4.0014  4.6689 -1.4484
  934MOL0     H28879  10.308   8.721   4.853  0.2767 -1.1295 -0.4970
  934MOL0     H28880  10.002   8.855   4.547  1.5731  1.6851  0.6465
  934MOL0     H28881  10.163   8.889   4.472  1.0301  0.8172  1.8019
  934MOL0     H28882   9.980   8.661   4.466 -0.7803  1.7309  3.0147
  934MOL0     H28883  10.138   8.601   4.525  0.1336  0.1246 -0.1397
  934MOL0     H28884  10.081   8.757   4.274  0.1895 -1.0445 -0.5883
  934MOL0     H28885  10.237   8.706   4.324  0.6434 -0.4623  2.4566
  934MOL0     H28886  10.054   8.528   4.176 -0.4711  3.2869  1.2193
  934MOL0     H28887  10.023   8.503   4.333 -0.1514 -0.4537 -0.4476
  934MOL0     H28888  10.412   8.359   4.202  1.2484  2.4836  0.9221
  934MOL0     H28889   9.906   8.749   4.692  1.3125  0.1530 -1.2371
  934MOL0     H28890   9.725   8.682   4.800  1.2598  1.0306  2.3602
  934MOL0     H28891   9.754   8.512   4.783 -0.4497  1.3947 -2.0366
  934MOL0     H28892   9.717   8.579   4.939  0.7584 -0.2498 -0.1645
  935MOL0     O28893  11.369   0.936   1.439 -0.0773  0.3605 -0.1357
  935MOL0     C28894  11.462   0.996   1.490 -1.2968  0.4690 -0.0710
  935MOL0     O28895  11.484   1.133   1.488 -0.2242 -0.0484 -1.3279
  935MOL0     C28896  11.411   1.225   1.423  0.7061 -0.6086  0.6995
  935MOL0     C28897  11.383   1.204   1.285  0.5576  0.8325 -0.1202
  935MOL0     C28898  11.311   1.292   1.205  0.4125  0.2875  0.1284
  935MOL0     C28899  11.284   1.419   1.257  0.4950 -0.0425 -0.3297
  935MOL0     O28900  11.230   1.521   1.178 -0.9122  0.3871  0.2242
  935MOL0     C28901  11.201   1.651   1.223 -0.4951 -0.4230  0.2306
  935MOL0     C28902  11.141   1.736   1.110 -0.4175 -0.3528 -0.4343
  935MOL0     C28903  11.079   1.858   1.155  0.2226 -0.3289 -0.6870
  935MOL0     C28904  10.952   1.862   1.248  0.1365  0.9479  0.0393
  935MOL0     C28905  10.888   2.002   1.251  0.0349  0.3836 -0.7879
  935MOL0     C28906  10.747   1.998   1.323  0.4319  0.4799  0.0609
  935MOL0     C28907  10.673   2.133   1.315  0.6049 -0.7993 -0.1325
  935MOL0     C28908  10.665   2.198   1.173  1.0269  0.7363  0.1403
  935MOL0     N28909  10.608   2.337   1.185 -1.1024 -0.1070  0.1359
  935MOL0     C28910  10.485   2.379   1.228 -0.9775 -0.1094  0.4900
  935MOL0     C28911  10.490   2.521   1.218  0.6403 -0.4897  0.1326
  935MOL0     C28912  10.384   2.614   1.262 -0.2570 -0.4721 -0.1980
  935MOL0     C28913  10.436   2.757   1.301 -1.4022  0.6021 -0.2098
  935MOL0     C28914  10.468   2.795   1.442 -0.0666 -0.2704 -0.2030
  935MOL0     C28915  10.542   2.681   1.521  0.2631 -1.0988  0.5460
  935MOL0     O28916  10.530   2.683   1.658  0.0019  0.2880 -0.0651
  935MOL0     C28917  10.574   2.806   1.698 -0.3089  0.3852  0.4983
  935MOL0     C28918  10.706   2.849   1.713 -0.0482 -0.9882 -0.7410
  935MOL0     C28919  10.734   2.970   1.781 -0.9861 -0.2819  0.3894
  935MOL0     C28920  10.889   3.006   1.809  0.5608  0.4674 -0.0199
  935MOL0     C28921  10.622   3.062   1.812  0.2335 -0.1200  0.2204
  935MOL0     C28922  10.647   3.197   1.877  0.9192 -0.0954 -0.1172
  935MOL0     O28923  10.542   3.244   1.949  0.2449  0.4705 -0.3564
  935MOL0     C28924  10.546   3.369   2.003 -0.3070 -0.1127 -0.4980
  935MOL0     C28925  10.591   3.491   1.947  0.2324  0.1234 -0.1687
  935MOL0     C28926  10.577   3.617   2.002  0.7774 -0.2592 -0.1788
  935MOL0     C28927  10.510   3.622   2.126  0.0301  0.6914 -0.8489
  935MOL0     O28928  10.506   3.739   2.196 -0.9132 -0.0806  0.2640
  935MOL0     C28929  10.412   3.768   2.290  0.8886  0.2079 -0.7363
  935MOL0     C28930  10.275   3.776   2.218 -0.0666 -0.8246  0.7635
  935MOL0     C28931  10.165   3.801   2.313  0.3739 -0.3322  0.0465
  935MOL0     C28932  10.137   3.948   2.349 -0.2546  0.1698 -0.3069
  935MOL0     C28933  10.024   3.966   2.455 -0.0150  0.0202  0.0553
  935MOL0     C28934   9.898   3.923   2.391 -0.5560 -0.1042  0.5953
  935MOL0     C28935   9.799   3.959   2.503  0.3489 -0.2637  0.3325
  935MOL0     C28936   9.654   3.908   2.478 -0.6596 -1.1136  0.0003
  935MOL0    Cl28937   9.569   3.899   2.630  0.0743 -0.1977 -0.0154
  935MOL0     C28938  10.471   3.495   2.186 -0.6603 -0.6656  0.0619
  935MOL0     C28939  10.477   3.381   2.119 -0.2989  0.6646 -1.0621
  935MOL0     O28940  10.755   3.258   1.862  0.2892  0.3236 -0.7216
  935MOL0     C28941  10.491   3.014   1.797  0.2211 -0.3036  1.0943
  935MOL0     C28942  10.474   2.886   1.747  0.1795 -0.6011 -0.6389
  935MOL0     N28943  10.613   2.552   1.163  0.3921 -0.1106  0.4144
  935MOL0     N28944  10.675   2.438   1.137  0.1482 -0.0109 -0.0901
  935MOL0     C28945  11.312   1.447   1.398 -0.1536 -0.4151  1.4261
  935MOL0     C28946  11.373   1.344   1.474 -0.8619 -0.0976 -0.9616
  935MOL0     C28947  11.568   0.917   1.565 -0.1828 -1.1081  0.5406
  935MOL0     C28948  11.596   0.956   1.698  0.6160 -0.6422  0.5145
  935MOL0     C28949  11.687   0.885   1.774  0.6356  0.2564 -0.8895
  935MOL0     C28950  11.765   0.783   1.718 -0.9163  0.7901 -0.3323
  935MOL0     O28951  11.860   0.736   1.794  0.1875 -0.5543 -0.3332
  935MOL0     C28952  11.944   0.618   1.776  0.6841  0.1661  0.2588
  935MOL0     C28953  11.888   0.492   1.845  0.0185 -0.6095  0.1047
  935MOL0     C28954  11.827   0.523   1.977  1.2384  0.2816 -0.3592
  935MOL0     C28955  11.805   0.392   2.065 -0.1853 -0.1268 -0.5824
  935MOL0     C28956  11.734   0.286   1.993  0.6335 -0.0287 -0.6580
  935MOL0     C28957  11.683   0.198   1.932 -0.2907 -0.1525  0.1611
  935MOL0     C28958  11.737   0.743   1.589 -0.7426 -0.2248  0.5940
  935MOL0     C28959  11.635   0.807   1.514 -0.5733  0.1547 -1.2257
  935MOL0     C28960  11.620   0.767   1.370 -0.5546 -1.2464  0.3890
  935MOL0     H28961  11.412   1.111   1.238 -0.8472 -1.7159  3.5993
  935MOL0     H28962  11.298   1.271   1.100  1.3020  1.2921 -0.2010
  935MOL0     H28963  11.278   1.708   1.277 -0.1421 -0.8169  0.1432
  935MOL0     H28964  11.118   1.644   1.294 -1.5910 -1.3403 -1.1105
  935MOL0     H28965  11.226   1.760   1.045  2.0751 -3.8676  1.2274
  935MOL0     H28966  11.066   1.676   1.056 -0.0364 -0.4536 -0.8560
  935MOL0     H28967  11.158   1.920   1.199  0.6744 -0.3114 -1.5110
  935MOL0     H28968  11.051   1.908   1.062 -1.3440 -0.2926 -0.2238
  935MOL0     H28969  10.879   1.787   1.216 -0.6067  0.8597  1.8276
  935MOL0     H28970  10.981   1.839   1.351  5.1536  2.0751 -0.8755
  935MOL0     H28971  10.878   2.032   1.146 -3.3182 -0.3303 -0.7734
  935MOL0     H28972  10.949   2.081   1.296 -0.8935  2.5711 -3.1468
  935MOL0     H28973  10.684   1.922   1.277 -0.7601 -0.3464  2.8545
  935MOL0     H28974  10.778   1.964   1.422  1.8076 -1.7122 -1.0458
  935MOL0     H28975  10.706   2.206   1.390 -1.3789  0.6968 -0.6364
  935MOL0     H28976  10.565   2.118   1.328  0.5731 -0.3083  0.1970
  935MOL0     H28977  10.762   2.192   1.124  0.6118 -2.8258 -0.4898
  935MOL0     H28978  10.596   2.137   1.113  2.7709 -3.1140  1.7489
  935MOL0     H28979  10.403   2.312   1.251 -1.1980  0.1615  0.4949
  935MOL0     H28980  10.322   2.572   1.342 -0.8830  1.0892  0.1685
  935MOL0     H28981  10.318   2.623   1.175  0.1053 -1.3124 -0.5668
  935MOL0     H28982  10.526   2.784   1.245 -2.5247  0.3644 -2.2407
  935MOL0     H28983  10.358   2.828   1.270 -0.5463  0.4995 -2.8433
  935MOL0     H28984  10.525   2.888   1.446  0.2712 -0.4107 -1.3049
  935MOL0     H28985  10.366   2.802   1.482 -1.2001 -1.2196 -2.6483
  935MOL0     H28986  10.498   2.588   1.482 -1.4422  0.5240 -1.7280
  935MOL0     H28987  10.645   2.694   1.486 -0.8905 -0.3565 -3.0219
  935MOL0     H28988  10.795   2.788   1.695 -0.2179 -2.2148  2.0421
  935MOL0     H28989  10.935   2.906   1.802 -2.1003 -0.7835 -1.1873
  935MOL0     H28990  10.906   3.053   1.906  1.0552  0.8070 -0.2688
  935MOL0     H28991  10.939   3.067   1.733 -1.0161 -0.5243 -1.9621
  935MOL0     H28992  10.647   3.489   1.854  1.3223  1.4131  0.4178
  935MOL0     H28993  10.607   3.710   1.955 -2.3396  0.2133 -1.4795
  935MOL0     H28994  10.405   3.699   2.375  0.9089  0.8529 -0.2044
  935MOL0     H28995  10.429   3.868   2.331 -1.8169  0.0438  1.0513
  935MOL0     H28996  10.275   3.840   2.129 -0.6053 -0.7428  0.8200
  935MOL0     H28997  10.253   3.679   2.171 -3.9801 -0.2595  1.0518
  935MOL0     H28998  10.185   3.742   2.403  0.6134 -1.9477 -1.0281
  935MOL0     H28999  10.077   3.763   2.260  1.8662 -2.4635 -1.0652
  935MOL0     H29000  10.114   3.994   2.253  1.5867  0.8427 -0.4692
  935MOL0     H29001  10.228   3.999   2.382 -0.4687 -0.3607  1.2221
  935MOL0     H29002  10.039   3.906   2.544 -1.0928  3.5212  2.8237
  935MOL0     H29003  10.022   4.067   2.497 -3.6595 -0.0528  0.3775
  935MOL0     H29004   9.897   3.818   2.360 -0.2646 -0.6770  2.4125
  935MOL0     H29005   9.878   3.984   2.302 -3.4457 -0.4650  0.8783
  935MOL0     H29006   9.817   4.065   2.522  3.0229 -0.8970  1.8114
  935MOL0     H29007   9.831   3.901   2.590  1.5518 -1.2635 -0.7348
  935MOL0     H29008   9.673   3.803   2.454  1.5140 -1.1796  1.6551
  935MOL0     H29009   9.600   3.941   2.389 -0.3397 -0.6880 -0.0429
  935MOL0     H29010  10.434   3.501   2.288 -0.8562 -2.4585  0.1216
  935MOL0     H29011  10.415   3.300   2.156  1.7676 -1.0072 -1.0977
  935MOL0     H29012  10.403   3.067   1.830  0.2869  0.2582  0.3958
  935MOL0     H29013  10.372   2.849   1.753 -0.9653  2.2342 -1.0371
  935MOL0     H29014  11.286   1.542   1.444  0.2064  1.2360 -1.5262
  935MOL0     H29015  11.379   1.369   1.579  1.0754  2.1683 -1.5446
  935MOL0     H29016  11.540   1.035   1.747 -1.2567 -1.1203 -0.7378
  935MOL0     H29017  11.717   0.916   1.873 -3.2173  1.6615 -0.0011
  935MOL0     H29018  11.963   0.593   1.672  0.0371  2.8813 -0.5840
  935MOL0     H29019  12.045   0.640   1.811  1.2276 -1.2722 -0.3313
  935MOL0     H29020  11.976   0.429   1.859 -0.2152 -0.7869  0.8162
  935MOL0     H29021  11.809   0.451   1.783 -1.9251 -0.2704  2.2156
  935MOL0     H29022  11.883   0.596   2.037 -1.1381  1.2856  0.7692
  935MOL0     H29023  11.728   0.567   1.962  0.3154 -0.8042  2.0639
  935MOL0     H29024  11.749   0.409   2.157  1.1871 -1.7636  0.6209
  935MOL0     H29025  11.900   0.348   2.094  0.5036  0.0805 -2.3600
  935MOL0     H29026  11.637   0.117   1.880  1.2292 -2.8872  2.7298
  935MOL0     H29027  11.806   0.673   1.541 -0.7885  1.0139 -1.3920
  935MOL0     H29028  11.560   0.840   1.314  2.1643  2.1772  1.5300
  935MOL0     H29029  11.724   0.771   1.334 -0.8426 -2.0111 -0.5764
  935MOL0     H29030  11.581   0.665   1.368 -4.1714  0.0315 -0.1302
  936MOL0     O29031   6.247   0.092   5.946  0.4308  0.8253 -0.4396
  936MOL0     C29032   6.312   0.094   6.048  0.0886  0.7503 -0.9638
  936MOL0     O29033   6.280   0.015   6.155 -0.8247  0.2860  0.5953
  936MOL0     C29034   6.170  -0.074   6.157 -0.9722  0.4574 -0.9063
  936MOL0     C29035   6.190  -0.199   6.214  0.5805 -0.7579 -0.1273
  936MOL0     C29036   6.090  -0.290   6.231  0.6901  0.3747 -0.2526
  936MOL0     C29037   5.954  -0.250   6.201  0.1709  0.3407 -0.9023
  936MOL0     O29038   5.865  -0.353   6.222 -0.6027 -0.2150 -0.3159
  936MOL0     C29039   5.726  -0.311   6.208 -0.3791 -0.2231 -0.3691
  936MOL0     C29040   5.624  -0.414   6.263  0.1446  0.0091 -0.0857
  936MOL0     C29041   5.628  -0.431   6.408  0.2045 -0.5142  0.4535
  936MOL0     C29042   5.525  -0.524   6.484 -0.2985  0.7782  0.6809
  936MOL0     C29043   5.493  -0.667   6.432 -0.1186 -0.6704 -0.6785
  936MOL0     C29044   5.389  -0.740   6.528  0.4746 -1.2614  0.3868
  936MOL0     C29045   5.321  -0.858   6.460 -0.6100 -0.4605  0.2463
  936MOL0     C29046   5.405  -0.984   6.445  0.0198  0.6343 -0.6454
  936MOL0     N29047   5.500  -0.997   6.560 -0.5999  0.8729 -0.1853
  936MOL0     C29048   5.639  -0.982   6.547  0.3247 -0.0902 -0.0132
  936MOL0     C29049   5.680  -0.966   6.679  0.0980 -0.1845  0.4894
  936MOL0     C29050   5.816  -0.949   6.723 -0.5257  0.0541  0.1615
  936MOL0     C29051   5.898  -0.850   6.627  0.3415 -0.2600  0.1260
  936MOL0     C29052   5.820  -0.704   6.634 -0.3924 -0.0878  0.1036
  936MOL0     C29053   5.870  -0.618   6.738 -1.0028  0.1257 -0.0971
  936MOL0     O29054   5.858  -0.678   6.861  0.6408  0.0693 -0.0960
  936MOL0     C29055   5.897  -0.606   6.969 -0.6448 -1.6000 -0.3225
  936MOL0     C29056   5.975  -0.670   7.059 -0.1364  0.0095  0.0396
  936MOL0     C29057   6.019  -0.609   7.180 -0.4234 -0.2894 -0.1168
  936MOL0     C29058   6.096  -0.690   7.276  0.1676  0.1200  0.4767
  936MOL0     C29059   5.977  -0.479   7.213  0.2013 -0.2593  0.5163
  936MOL0     C29060   6.048  -0.402   7.315  0.1045  0.5702  0.0927
  936MOL0     O29061   5.986  -0.292   7.367 -0.9244 -0.2684 -0.5416
  936MOL0     C29062   6.046  -0.233   7.479  0.5530  0.3434  0.5061
  936MOL0     C29063   6.029  -0.281   7.604  0.0471  0.4110  0.2850
  936MOL0     C29064   6.090  -0.223   7.711 -0.3475 -0.2322  0.5396
  936MOL0     C29065   6.167  -0.107   7.693 -0.4663 -0.6152 -0.0537
  936MOL0     O29066   6.221  -0.048   7.799 -0.5407 -0.4004 -0.7026
  936MOL0     C29067   6.315   0.061   7.787 -0.0746  0.3300 -0.0191
  936MOL0     C29068   6.352   0.120   7.916  0.2838  0.2234  0.3821
  936MOL0     C29069   6.258   0.227   7.963  0.7671  0.2963 -0.2915
  936MOL0     C29070   6.313   0.293   8.084 -0.0914 -0.2135 -0.5064
  936MOL0     C29071   6.199   0.372   8.156 -0.4479  0.4802 -0.5316
  936MOL0     C29072   6.162   0.500   8.086 -0.3678  0.6059  0.0696
  936MOL0     C29073   6.017   0.525   8.079  0.3957 -0.2634  0.2476
  936MOL0     C29074   5.955   0.430   7.968 -0.7852  0.2579 -0.8526
  936MOL0    Cl29075   5.996   0.468   7.803 -0.3568  0.0392 -0.7083
  936MOL0     C29076   6.187  -0.061   7.562  0.0087 -0.0714  0.9952
  936MOL0     C29077   6.111  -0.119   7.457 -0.1678  0.0077 -0.0150
  936MOL0     O29078   6.163  -0.430   7.344  0.1408  0.1396 -0.0276
  936MOL0     C29079   5.896  -0.411   7.113  0.2710 -0.0218  0.6328
  936MOL0     C29080   5.853  -0.472   6.994 -1.0406  0.2897 -0.1992
  936MOL0     N29081   5.576  -0.987   6.765 -0.0483  0.0387  0.1085
  936MOL0     N29082   5.463  -1.000   6.692  0.1621 -0.5170  0.1914
  936MOL0     C29083   5.924  -0.123   6.134 -0.8539  0.2262 -0.1115
  936MOL0     C29084   6.036  -0.039   6.117 -0.1732 -0.4970 -0.3018
  936MOL0     C29085   6.417   0.205   6.069 -0.7754  0.6833  0.4818
  936MOL0     C29086   6.517   0.183   6.176 -0.2044 -0.4439 -0.5459
  936MOL0     C29087   6.624   0.264   6.188 -0.8322 -0.8662 -0.0938
  936MOL0     C29088   6.632   0.380   6.105  0.4444  0.5542  0.1113
  936MOL0     O29089   6.729   0.462   6.150  0.2002 -0.6235 -0.5510
  936MOL0     C29090   6.748   0.599   6.092 -0.3165  0.2418  0.5196
  936MOL0     C29091   6.669   0.713   6.170 -0.2215  0.5487 -0.0477
  936MOL0     C29092   6.751   0.782   6.273  0.5257  0.1971 -0.3090
  936MOL0     C29093   6.673   0.837   6.392 -0.0774  0.2359  0.4293
  936MOL0     C29094   6.584   0.949   6.356 -0.9810  0.6131  0.7868
  936MOL0     C29095   6.517   1.050   6.331  0.0582 -0.1476 -0.3947
  936MOL0     C29096   6.545   0.401   5.995  0.5615 -0.0593 -0.0717
  936MOL0     C29097   6.435   0.315   5.980 -0.0879 -0.0846 -0.2285
  936MOL0     C29098   6.351   0.339   5.855  0.4674  1.7238  0.6613
  936MOL0     H29099   6.280  -0.219   6.272 -0.0985 -1.3960  0.7332
  936MOL0     H29100   6.101  -0.386   6.281 -3.9820  0.3533  1.1861
  936MOL0     H29101   5.698  -0.298   6.103  1.2946 -2.7761 -1.2214
  936MOL0     H29102   5.708  -0.219   6.265 -0.7604 -1.0262  0.8415
  936MOL0     H29103   5.519  -0.403   6.235 -0.0139 -1.0314  0.0587
  936MOL0     H29104   5.651  -0.509   6.217  2.9255  1.1702 -1.0978
  936MOL0     H29105   5.728  -0.469   6.426  0.1204  0.0097  2.2097
  936MOL0     H29106   5.621  -0.338   6.464  2.6173  0.1311 -0.2360
  936MOL0     H29107   5.572  -0.548   6.580 -0.5610 -3.9559 -0.1365
  936MOL0     H29108   5.433  -0.465   6.497 -1.2623  1.0032 -4.8571
  936MOL0     H29109   5.583  -0.729   6.434 -1.6402 -3.0389 -0.7571
  936MOL0     H29110   5.453  -0.663   6.330 -0.9854  0.0489 -0.3216
  936MOL0     H29111   5.425  -0.761   6.629 -0.2757  0.1357  0.9760
  936MOL0     H29112   5.304  -0.675   6.548 -1.4509 -3.2633 -0.9122
  936MOL0     H29113   5.295  -0.819   6.361  0.4184  2.6964  1.1147
  936MOL0     H29114   5.226  -0.882   6.508  0.2687 -1.0670  1.7628
  936MOL0     H29115   5.342  -1.074   6.442 -2.3173  1.8861  3.5332
  936MOL0     H29116   5.466  -0.965   6.357  0.4501 -0.5886 -0.6323
  936MOL0     H29117   5.697  -0.968   6.456 -0.6780  1.0127 -0.5149
  936MOL0     H29118   5.864  -1.047   6.726 -2.1810 -0.7849  1.9180
  936MOL0     H29119   5.805  -0.909   6.825 -1.5090  1.4335 -0.4484
  936MOL0     H29120   5.998  -0.834   6.669 -0.3837  3.6982  0.7466
  936MOL0     H29121   5.913  -0.894   6.528  0.3859  0.8532 -0.3840
  936MOL0     H29122   5.823  -0.666   6.531  1.2646 -2.5378 -0.8621
  936MOL0     H29123   5.714  -0.723   6.656 -0.4159  0.5374  0.5476
  936MOL0     H29124   5.978  -0.608   6.725 -0.7288 -1.0195  1.0316
  936MOL0     H29125   5.811  -0.526   6.731 -1.1644  0.0249 -0.1013
  936MOL0     H29126   5.987  -0.773   7.027 -0.6548  0.4845 -1.7778
  936MOL0     H29127   6.074  -0.797   7.273 -4.0507  0.8114  0.6155
  936MOL0     H29128   6.073  -0.659   7.379 -1.0688 -1.0962  0.5967
  936MOL0     H29129   6.202  -0.665   7.261  0.2765  0.5890  1.8538
  936MOL0     H29130   5.973  -0.373   7.618 -0.6221  0.8706  0.6728
  936MOL0     H29131   6.067  -0.269   7.807  4.1492 -2.7212  0.7119
  936MOL0     H29132   6.409   0.031   7.740 -1.6241 -0.6368 -2.6675
  936MOL0     H29133   6.263   0.138   7.730 -0.8876 -0.8855 -0.9698
  936MOL0     H29134   6.345   0.040   7.991  1.0393 -0.8377 -0.6421
  936MOL0     H29135   6.455   0.157   7.920  0.0166  0.9589  0.7125
  936MOL0     H29136   6.159   0.186   7.986 -0.0648  0.8919 -2.5388
  936MOL0     H29137   6.229   0.307   7.894 -2.0955 -0.0962  0.3576
  936MOL0     H29138   6.390   0.367   8.061  1.2567 -1.0605  1.1052
  936MOL0     H29139   6.378   0.230   8.144  1.1328  1.6403  0.2212
  936MOL0     H29140   6.111   0.308   8.166 -1.1804  1.4564 -0.5465
  936MOL0     H29141   6.219   0.407   8.258 -1.9417  4.2185 -1.3348
  936MOL0     H29142   6.211   0.508   7.988 -2.6993  1.8456 -1.0778
  936MOL0     H29143   6.209   0.580   8.144 -0.0384  1.1040 -0.8601
  936MOL0     H29144   6.010   0.632   8.059  2.1916 -0.2438 -0.5067
  936MOL0     H29145   5.966   0.497   8.172  0.3314  0.6897  0.5058
  936MOL0     H29146   5.847   0.432   7.981 -0.6715  0.4762  0.1949
  936MOL0     H29147   5.981   0.325   7.986  1.3679  0.8876  0.1732
  936MOL0     H29148   6.276   0.001   7.554  0.5053 -0.4264  3.0702
  936MOL0     H29149   6.111  -0.085   7.354 -0.2872  0.8266  0.2509
  936MOL0     H29150   5.857  -0.315   7.145 -1.3905 -0.3337 -0.3534
  936MOL0     H29151   5.785  -0.415   6.930  1.3769  2.1629 -1.2646
  936MOL0     H29152   5.823  -0.097   6.103 -2.4640 -3.0868  1.6748
  936MOL0     H29153   6.011   0.063   6.089  0.8551 -0.1256  0.0704
  936MOL0     H29154   6.500   0.111   6.255 -0.2383 -1.5637 -1.5519
  936MOL0     H29155   6.698   0.247   6.265 -2.0543  0.6512  1.4969
  936MOL0     H29156   6.854   0.628   6.098  0.6932 -3.1651  1.0724
  936MOL0     H29157   6.730   0.606   5.984 -1.4453 -3.3721  0.3478
  936MOL0     H29158   6.575   0.665   6.198  0.0021 -0.2901 -0.6994
  936MOL0     H29159   6.654   0.784   6.087  0.3016  1.4469  0.6050
  936MOL0     H29160   6.822   0.708   6.311  0.2015  0.6555  1.2428
  936MOL0     H29161   6.798   0.865   6.219  2.1907 -1.4400 -1.5081
  936MOL0     H29162   6.748   0.872   6.463 -0.3938 -0.4210  1.0916
  936MOL0     H29163   6.609   0.767   6.446 -0.0171 -2.0785 -2.2954
  936MOL0     H29164   6.460   1.140   6.323  0.5345  0.1563 -0.4472
  936MOL0     H29165   6.531   0.484   5.927  0.4580  0.7931  0.9559
  936MOL0     H29166   6.379   0.436   5.813  3.7943  1.1718  1.3479
  936MOL0     H29167   6.380   0.254   5.793 -0.4217 -1.1500  3.8343
  936MOL0     H29168   6.242   0.329   5.867  0.5108 -0.6122 -0.3591
  937MOL0     O29169   4.504   4.540   9.964  0.0619  1.0561  0.2359
  937MOL0     C29170   4.475   4.432   9.914  0.6550 -0.4455 -0.0647
  937MOL0     O29171   4.532   4.386   9.805  0.6644 -0.1469 -0.8553
  937MOL0     C29172   4.583   4.478   9.716  0.6072  0.4394 -0.2471
  937MOL0     C29173   4.714   4.462   9.673  0.1480 -0.3858  0.5105
  937MOL0     C29174   4.752   4.533   9.557 -0.0952  0.3460 -0.2403
  937MOL0     C29175   4.666   4.634   9.497 -0.3859 -0.6477 -0.7959
  937MOL0     O29176   4.711   4.695   9.386  0.0927  0.0451 -0.3492
  937MOL0     C29177   4.835   4.766   9.404  0.3796 -0.1809  0.4726
  937MOL0     C29178   4.859   4.862   9.287 -0.7280  0.2744 -0.1884
  937MOL0     C29179   4.736   4.946   9.257 -0.1827 -0.2427 -0.5986
  937MOL0     C29180   4.729   5.085   9.350 -0.1184  0.1616  1.1005
  937MOL0     C29181   4.848   5.180   9.330 -0.0682 -0.5120  0.2024
  937MOL0     C29182   4.843   5.263   9.202 -0.5421 -0.0063 -0.6467
  937MOL0     C29183   4.954   5.363   9.164 -1.0874  0.2505 -0.6277
  937MOL0     C29184   5.085   5.280   9.125  0.2326  0.4492 -0.0212
  937MOL0     N29185   5.206   5.356   9.131  0.0677  0.3141 -0.7391
  937MOL0     C29186   5.262   5.412   9.020  0.5932  0.6081  0.7096
  937MOL0     C29187   5.394   5.453   9.058  0.3480  1.0474  0.0391
  937MOL0     C29188   5.499   5.528   8.986 -0.1724  0.8381  0.0684
  937MOL0     C29189   5.470   5.674   9.012  1.3938 -0.3730 -0.2545
  937MOL0     C29190   5.562   5.771   8.926 -0.8164 -1.1421 -0.9896
  937MOL0     C29191   5.500   5.908   8.907  0.7679  0.5812 -0.6741
  937MOL0     O29192   5.610   5.989   8.866 -0.3582  0.4202 -0.4021
  937MOL0     C29193   5.584   6.088   8.789  0.1144 -0.1739  0.5023
  937MOL0     C29194   5.649   6.090   8.665 -0.8268 -1.0691 -0.1037
  937MOL0     C29195   5.627   6.199   8.574  0.0593 -0.2248  0.2930
  937MOL0     C29196   5.730   6.204   8.459  0.5083  0.1903 -0.0041
  937MOL0     C29197   5.522   6.297   8.599 -0.3086  0.2851 -0.7126
  937MOL0     C29198   5.484   6.398   8.507 -0.5819 -0.0989  0.2900
  937MOL0     O29199   5.361   6.460   8.531  1.0417  0.3769  0.0751
  937MOL0     C29200   5.315   6.563   8.446 -0.7927 -0.0607 -1.6490
  937MOL0     C29201   5.362   6.609   8.316  0.0868  0.5915 -1.3834
  937MOL0     C29202   5.311   6.727   8.268  1.1246 -0.5652  0.8520
  937MOL0     C29203   5.205   6.793   8.317  0.8083  0.2765 -1.4997
  937MOL0     O29204   5.175   6.907   8.255 -0.0859  0.1960  1.3105
  937MOL0     C29205   5.080   7.004   8.294  0.4651 -1.2182 -0.4574
  937MOL0     C29206   5.117   7.095   8.416  0.0927  0.6081 -0.2414
  937MOL0     C29207   5.254   7.167   8.402 -0.3714 -0.5564  0.2916
  937MOL0     C29208   5.272   7.278   8.293  0.2893 -0.5735  0.0160
  937MOL0     C29209   5.402   7.344   8.301  0.2482 -0.1475  0.2884
  937MOL0     C29210   5.439   7.400   8.157  1.0615  0.8268  0.6893
  937MOL0     C29211   5.361   7.523   8.098  0.3538 -0.1215  0.1869
  937MOL0     C29212   5.340   7.633   8.198  0.8942 -1.0025  0.0824
  937MOL0    Cl29213   5.478   7.681   8.289 -0.2050  0.1267 -0.0115
  937MOL0     C29214   5.151   6.749   8.440  0.6622  0.1171  0.1451
  937MOL0     C29215   5.210   6.639   8.504 -0.0120 -0.4750  0.4399
  937MOL0     O29216   5.569   6.441   8.427 -0.2606  0.4248 -0.1782
  937MOL0     C29217   5.444   6.276   8.715  0.7460 -0.3891 -0.4948
  937MOL0     C29218   5.482   6.182   8.810  0.8139 -0.2104  0.4974
  937MOL0     N29219   5.412   5.410   9.195  0.6999 -0.2338  1.0645
  937MOL0     N29220   5.302   5.353   9.225 -0.0130 -0.1724  1.0685
  937MOL0     C29221   4.546   4.663   9.559  0.4058  0.0417  0.4980
  937MOL0     C29222   4.503   4.577   9.662 -0.0234  0.2338  0.2206
  937MOL0     C29223   4.365   4.363   9.968  0.2684 -0.7965 -0.4512
  937MOL0     C29224   4.381   4.228  10.005 -0.0516 -0.0703  1.3825
  937MOL0     C29225   4.287   4.156  10.063  0.0242 -0.3202 -0.1621
  937MOL0     C29226   4.159   4.211  10.080  0.3951 -0.8547 -0.7395
  937MOL0     O29227   4.046   4.159  10.133  0.9228  0.4947  0.8466
  937MOL0     C29228   4.046   4.017  10.165 -0.2457 -0.8467  0.5005
  937MOL0     C29229   3.930   3.986  10.255 -0.8348 -1.0865 -0.3671
  937MOL0     C29230   3.942   4.071  10.380 -0.7504 -0.0094 -0.1076
  937MOL0     C29231   3.816   4.067  10.468 -0.1165  0.3637  0.0214
  937MOL0     C29232   3.801   3.932  10.541  0.6288 -0.1006  0.0375
  937MOL0     C29233   3.802   3.829  10.618  0.2522  0.4886  0.5930
  937MOL0     C29234   4.133   4.350  10.046 -0.6807  1.1377  0.9636
  937MOL0     C29235   4.240   4.423   9.991 -0.6916  0.3050  0.0530
  937MOL0     C29236   4.216   4.576   9.963 -0.0527  0.1354 -0.6245
  937MOL0     H29237   4.781   4.396   9.727 -1.3039  0.2750  3.3056
  937MOL0     H29238   4.844   4.518   9.501 -0.0989  1.0549 -0.4550
  937MOL0     H29239   4.922   4.699   9.412 -1.0843 -2.6260 -2.2105
  937MOL0     H29240   4.834   4.818   9.500  0.4885 -0.1387  0.4509
  937MOL0     H29241   4.946   4.922   9.315  0.4570 -2.1922  1.8863
  937MOL0     H29242   4.894   4.819   9.193  2.7055  1.3285  0.4676
  937MOL0     H29243   4.731   4.969   9.150  3.2990 -2.6912 -1.4674
  937MOL0     H29244   4.644   4.889   9.274 -0.6025 -0.0197 -1.9786
  937MOL0     H29245   4.638   5.136   9.316 -0.5389 -1.7119 -0.8599
  937MOL0     H29246   4.718   5.061   9.456 -1.0618 -0.5327  0.8628
  937MOL0     H29247   4.948   5.136   9.338 -0.3516 -0.7728  4.2207
  937MOL0     H29248   4.844   5.248   9.416  3.0863  0.6829 -0.4306
  937MOL0     H29249   4.828   5.203   9.112 -0.6961 -1.3043  0.2019
  937MOL0     H29250   4.753   5.322   9.217  0.2005  1.1074 -0.4409
  937MOL0     H29251   4.970   5.423   9.255  1.7809  0.4121 -1.1566
  937MOL0     H29252   4.937   5.431   9.081  0.1118  0.8211 -0.4328
  937MOL0     H29253   5.095   5.200   9.198 -0.2422 -0.2792 -0.7378
  937MOL0     H29254   5.069   5.223   9.034 -1.9947 -2.8431  2.2223
  937MOL0     H29255   5.224   5.436   8.921  1.5060 -1.5966 -0.2439
  937MOL0     H29256   5.514   5.496   8.883 -1.2392  0.9533 -0.1398
  937MOL0     H29257   5.591   5.508   9.041 -2.1059  2.3738  4.3642
  937MOL0     H29258   5.363   5.684   8.989  0.0244 -2.2601  4.2800
  937MOL0     H29259   5.485   5.707   9.115  0.0633  1.4333 -0.5745
  937MOL0     H29260   5.656   5.793   8.977 -1.9951 -0.5893  1.0615
  937MOL0     H29261   5.588   5.738   8.825  1.4664 -1.2067 -0.4154
  937MOL0     H29262   5.417   5.908   8.835 -0.2540 -0.4220  0.4594
  937MOL0     H29263   5.454   5.950   8.996  3.7890 -1.7982  2.2805
  937MOL0     H29264   5.738   6.028   8.651  0.8525  0.3191  3.2793
  937MOL0     H29265   5.805   6.280   8.485  0.5865 -0.2695  1.2056
  937MOL0     H29266   5.684   6.224   8.363 -2.6019 -0.5215  1.2268
  937MOL0     H29267   5.779   6.108   8.440  2.2070  0.4424  2.4817
  937MOL0     H29268   5.431   6.556   8.251 -0.2730  1.4937 -2.5426
  937MOL0     H29269   5.363   6.769   8.183  0.8406  0.6217  1.2429
  937MOL0     H29270   5.071   7.076   8.213  1.1143 -0.8980 -0.2606
  937MOL0     H29271   4.978   6.967   8.299 -0.1280  0.4176  0.5260
  937MOL0     H29272   5.040   7.171   8.434  0.7716  1.0756  0.7826
  937MOL0     H29273   5.114   7.028   8.503 -0.5268 -0.0486 -0.7542
  937MOL0     H29274   5.331   7.090   8.401 -3.0442 -3.4470  0.3979
  937MOL0     H29275   5.265   7.233   8.488 -1.4279  0.4619 -0.3174
  937MOL0     H29276   5.198   7.358   8.299 -0.3310 -1.1823  0.5662
  937MOL0     H29277   5.260   7.226   8.197 -1.4819 -1.1675  0.5186
  937MOL0     H29278   5.394   7.419   8.381 -0.9753 -1.1550  1.1498
  937MOL0     H29279   5.477   7.267   8.322 -0.9917 -2.2771 -2.5014
  937MOL0     H29280   5.436   7.311   8.093 -2.7757  0.2670  1.4065
  937MOL0     H29281   5.545   7.426   8.165  2.0054 -2.6943  1.3830
  937MOL0     H29282   5.266   7.491   8.054 -1.3922  0.0713  3.5073
  937MOL0     H29283   5.422   7.548   8.011 -0.3979 -1.4662 -0.7568
  937MOL0     H29284   5.263   7.605   8.270  1.9563 -2.9148  0.5499
  937MOL0     H29285   5.299   7.721   8.148  0.9876 -1.1065 -0.1800
  937MOL0     H29286   5.070   6.798   8.493  0.4836 -0.4121  0.3619
  937MOL0     H29287   5.168   6.610   8.599 -1.8114  2.4298  0.6553
  937MOL0     H29288   5.367   6.350   8.735  3.6685  3.2519 -1.5943
  937MOL0     H29289   5.437   6.173   8.908 -1.6898 -0.2266 -0.5843
  937MOL0     H29290   4.482   4.737   9.512  1.3018 -0.4565 -1.6260
  937MOL0     H29291   4.402   4.607   9.689  0.0774 -0.9664  2.1596
  937MOL0     H29292   4.480   4.188   9.986 -0.4659 -1.0590  1.2451
  937MOL0     H29293   4.297   4.051  10.089  0.4868 -0.7068 -1.7678
  937MOL0     H29294   4.076   3.948  10.086 -3.0274  0.8211 -2.2198
  937MOL0     H29295   4.136   4.006  10.227  0.2049 -3.3314 -0.5059
  937MOL0     H29296   3.935   3.881  10.284 -2.7832 -1.1439 -0.1461
  937MOL0     H29297   3.835   4.014  10.209 -2.4483 -0.8950  2.8113
  937MOL0     H29298   4.022   4.032  10.444 -1.3611  0.1604  0.7794
  937MOL0     H29299   3.982   4.170  10.354 -1.2428  0.9010  2.3229
  937MOL0     H29300   3.726   4.070  10.407 -1.3354 -0.5522  1.7150
  937MOL0     H29301   3.805   4.162  10.521 -1.1224  1.4842 -2.0652
  937MOL0     H29302   3.821   3.761  10.698 -1.2563  0.4640  0.9570
  937MOL0     H29303   4.044   4.403  10.078 -0.1233  2.9451 -0.3488
  937MOL0     H29304   4.259   4.633  10.046 -1.7230 -2.0352  1.9480
  937MOL0     H29305   4.237   4.613   9.863  1.1498  2.6032  0.4440
  937MOL0     H29306   4.109   4.598   9.970 -0.0337 -0.0498  0.5378
  938MOL0     O29307   7.506   6.847   2.656 -0.0854 -0.1023  0.2741
  938MOL0     C29308   7.563   6.851   2.548  0.0299  0.7557 -0.3978
  938MOL0     O29309   7.593   6.747   2.462 -0.1510 -0.2767  0.0646
  938MOL0     C29310   7.537   6.621   2.482  0.0201 -0.6947 -0.5347
  938MOL0     C29311   7.487   6.541   2.380 -0.3378  0.3200 -0.0366
  938MOL0     C29312   7.438   6.408   2.400 -0.0108 -0.3194 -0.2229
  938MOL0     C29313   7.447   6.347   2.526  0.3972 -0.1658 -0.6975
  938MOL0     O29314   7.388   6.217   2.542 -0.3911  0.0167  0.8729
  938MOL0     C29315   7.327   6.185   2.670 -0.1800 -0.7664  0.7689
  938MOL0     C29316   7.194   6.263   2.702  0.7435  0.2600  0.6986
  938MOL0     C29317   7.198   6.417   2.756 -0.3511  0.4262  1.1025
  938MOL0     C29318   7.076   6.462   2.830 -0.2090  0.8096 -0.0249
  938MOL0     C29319   7.117   6.581   2.921 -0.5270 -0.2483  0.3668
  938MOL0     C29320   7.021   6.599   3.034  0.7489 -0.2857 -0.4996
  938MOL0     C29321   6.988   6.746   3.038  0.3720 -0.4415  0.3421
  938MOL0     C29322   6.873   6.776   3.137  0.1437  0.2189 -0.1893
  938MOL0     N29323   6.915   6.738   3.273  0.1805  0.4155 -0.1047
  938MOL0     C29324   7.034   6.780   3.331  0.9908  0.1312  0.4402
  938MOL0     C29325   7.045   6.712   3.447 -0.7599 -0.4832 -0.5743
  938MOL0     C29326   7.159   6.714   3.547 -0.5363 -0.3674  0.4941
  938MOL0     C29327   7.113   6.653   3.680  0.7293 -0.6204  0.3781
  938MOL0     C29328   7.218   6.647   3.785 -1.0374 -0.3854  0.2612
  938MOL0     C29329   7.157   6.668   3.923  0.3653  0.3850 -0.4543
  938MOL0     O29330   7.240   6.621   4.031  0.3588  0.3136  0.4136
  938MOL0     C29331   7.189   6.571   4.149 -1.0531 -0.5585  0.1209
  938MOL0     C29332   7.276   6.571   4.256  0.0862 -0.5075 -0.0465
  938MOL0     C29333   7.227   6.523   4.381 -1.3349  0.4696  0.4494
  938MOL0     C29334   7.327   6.517   4.498 -0.8597 -0.6827 -0.9256
  938MOL0     C29335   7.088   6.480   4.396 -0.2441 -0.2780 -0.6135
  938MOL0     C29336   7.018   6.437   4.530 -0.5673  0.5215 -0.2481
  938MOL0     O29337   6.892   6.375   4.509 -0.8858  0.0718  1.2038
  938MOL0     C29338   6.852   6.281   4.598  0.4884  0.5018  0.2236
  938MOL0     C29339   6.935   6.188   4.665 -0.4355 -0.3207 -0.6588
  938MOL0     C29340   6.874   6.089   4.733 -0.2353  0.4097 -0.1114
  938MOL0     C29341   6.737   6.056   4.726  0.0838  0.1419 -0.1265
  938MOL0     O29342   6.697   5.944   4.794 -0.0721 -0.0182  0.5076
  938MOL0     C29343   6.555   5.904   4.819  0.6182  0.1675  0.3617
  938MOL0     C29344   6.539   5.769   4.878 -0.0739  0.2380  0.1688
  938MOL0     C29345   6.624   5.666   4.804 -0.1562  0.1664 -0.0205
  938MOL0     C29346   6.604   5.647   4.649 -1.0620 -0.4818 -0.6297
  938MOL0     C29347   6.708   5.567   4.577  0.0162 -0.0949 -0.4566
  938MOL0     C29348   6.838   5.640   4.521 -0.1283  0.0366 -0.8277
  938MOL0     C29349   6.813   5.769   4.436 -0.3685 -0.3867 -0.8854
  938MOL0     C29350   6.948   5.820   4.385  0.3742  0.7776  0.3375
  938MOL0    Cl29351   7.042   5.704   4.285 -0.1230  0.0485 -0.2598
  938MOL0     C29352   6.661   6.149   4.650 -0.1939 -0.5609  0.8905
  938MOL0     C29353   6.721   6.260   4.587  0.3408 -0.0342 -1.0115
  938MOL0     O29354   7.070   6.455   4.639  0.3136 -0.2778 -0.6093
  938MOL0     C29355   7.007   6.469   4.280 -1.3375 -0.1804 -0.1932
  938MOL0     C29356   7.061   6.514   4.159 -0.5247 -0.3386 -0.4695
  938MOL0     N29357   6.933   6.628   3.460  0.0932  0.4643  0.6139
  938MOL0     N29358   6.858   6.647   3.357 -0.9321  0.0514 -0.5414
  938MOL0     C29359   7.506   6.425   2.626 -0.8845 -0.8257  0.2757
  938MOL0     C29360   7.543   6.560   2.605 -0.1083  1.3203 -0.0783
  938MOL0     C29361   7.602   6.988   2.510  0.3053  0.1397 -0.7922
  938MOL0     C29362   7.638   7.010   2.378 -0.3454  0.2611  1.2868
  938MOL0     C29363   7.684   7.142   2.324  0.3394 -0.6123  0.7980
  938MOL0     C29364   7.697   7.245   2.417 -0.1791  0.2234 -0.0994
  938MOL0     O29365   7.760   7.361   2.382  0.3955 -0.0084 -0.1891
  938MOL0     C29366   7.856   7.417   2.477  0.3796 -0.2633  0.0129
  938MOL0     C29367   7.812   7.561   2.517 -0.3974 -0.2036 -0.1151
  938MOL0     C29368   7.845   7.667   2.405  0.5828 -0.0535  0.2013
  938MOL0     C29369   7.740   7.677   2.304 -0.9462 -0.3865 -0.3983
  938MOL0     C29370   7.617   7.738   2.349  0.6736  0.3572 -0.4872
  938MOL0     C29371   7.509   7.783   2.382  0.6618 -0.1209  0.3524
  938MOL0     C29372   7.650   7.228   2.548 -0.5142 -0.7354 -0.1126
  938MOL0     C29373   7.613   7.103   2.596  0.0642 -0.0036 -0.1934
  938MOL0     C29374   7.536   7.112   2.728  0.3463  0.0348 -0.5860
  938MOL0     H29375   7.474   6.596   2.287 -4.0258  1.9282  1.2158
  938MOL0     H29376   7.387   6.363   2.316 -0.1799  1.9358 -1.4012
  938MOL0     H29377   7.407   6.191   2.745  0.7377  0.5397 -0.2674
  938MOL0     H29378   7.292   6.082   2.661 -1.1166 -0.3277 -1.4053
  938MOL0     H29379   7.127   6.262   2.616  0.3665  1.1108  0.9784
  938MOL0     H29380   7.150   6.208   2.785  4.4912  4.1740  5.9714
  938MOL0     H29381   7.290   6.442   2.809  0.9013  3.3765 -2.0602
  938MOL0     H29382   7.193   6.479   2.666 -2.8676 -1.4604 -0.1970
  938MOL0     H29383   6.997   6.496   2.763 -0.5347  0.9810  0.4450
  938MOL0     H29384   7.044   6.382   2.897  2.3315  1.2009  1.8224
  938MOL0     H29385   7.148   6.668   2.861 -0.6134  0.4395  1.3086
  938MOL0     H29386   7.209   6.559   2.975 -1.6370 -3.0837  1.2707
  938MOL0     H29387   6.938   6.528   3.036  0.8312 -0.3872  1.8893
  938MOL0     H29388   7.061   6.579   3.134 -1.1746 -0.6063  0.2384
  938MOL0     H29389   6.958   6.786   2.940 -1.6491 -1.0422  0.6751
  938MOL0     H29390   7.077   6.809   3.054  0.5265 -0.2223 -1.1968
  938MOL0     H29391   6.873   6.885   3.130  1.9429  0.2393 -0.4948
  938MOL0     H29392   6.776   6.729   3.118  0.5517 -1.0815  0.8310
  938MOL0     H29393   7.088   6.868   3.300 -0.5667  1.0148  0.1195
  938MOL0     H29394   7.194   6.817   3.557  1.4982 -0.8177 -1.1871
  938MOL0     H29395   7.245   6.658   3.509 -2.2145 -3.7934  1.2713
  938MOL0     H29396   7.032   6.717   3.716  0.2877 -0.9966  0.0618
  938MOL0     H29397   7.070   6.555   3.659  2.3931 -1.5173  0.9715
  938MOL0     H29398   7.270   6.552   3.767  0.0824  0.4701 -1.2974
  938MOL0     H29399   7.293   6.719   3.750 -0.4838 -0.6716  0.8373
  938MOL0     H29400   7.139   6.771   3.953 -1.5818  0.2630 -1.0864
  938MOL0     H29401   7.060   6.617   3.924 -0.9269  2.6977 -1.0253
  938MOL0     H29402   7.378   6.609   4.245 -0.4222  0.5685 -1.3862
  938MOL0     H29403   7.332   6.417   4.542  1.8960 -0.4676 -0.5937
  938MOL0     H29404   7.296   6.582   4.580 -3.2585 -2.8556  0.0301
  938MOL0     H29405   7.426   6.538   4.458 -1.2703  0.9453 -1.1274
  938MOL0     H29406   7.042   6.202   4.661 -0.8576  3.6070 -2.5429
  938MOL0     H29407   6.943   6.031   4.794 -1.3781 -2.1087 -1.0558
  938MOL0     H29408   6.514   5.970   4.896  1.0031 -1.0461  1.6551
  938MOL0     H29409   6.494   5.925   4.730 -0.8629  2.1965  1.7393
  938MOL0     H29410   6.559   5.754   4.985  1.6973 -2.5840 -0.4508
  938MOL0     H29411   6.438   5.733   4.858 -0.3481  0.5421  0.9781
  938MOL0     H29412   6.606   5.567   4.847 -0.3511 -0.4351 -1.4335
  938MOL0     H29413   6.725   5.705   4.821  0.0675 -0.1449 -0.5904
  938MOL0     H29414   6.585   5.745   4.604 -0.1254  0.0396  0.0694
  938MOL0     H29415   6.504   5.605   4.634 -1.2085  0.2185 -1.7288
  938MOL0     H29416   6.741   5.486   4.643 -0.2978  2.0406  2.5559
  938MOL0     H29417   6.661   5.524   4.488  0.6948 -0.8018 -0.4804
  938MOL0     H29418   6.891   5.570   4.455 -1.2103 -2.6031  0.9211
  938MOL0     H29419   6.904   5.677   4.599  1.2529  1.5992 -2.6230
  938MOL0     H29420   6.773   5.852   4.495 -1.0371 -1.7296  0.6217
  938MOL0     H29421   6.741   5.740   4.360 -1.7747 -2.7748  1.2048
  938MOL0     H29422   6.997   5.843   4.480  0.1004 -2.4552  1.3902
  938MOL0     H29423   6.934   5.907   4.320 -0.2562 -0.0804 -0.6997
  938MOL0     H29424   6.553   6.141   4.653 -0.2968 -0.4455 -1.2506
  938MOL0     H29425   6.657   6.316   4.520 -0.3839 -2.8139 -2.8367
  938MOL0     H29426   6.907   6.425   4.279 -0.5641 -2.8734  5.0416
  938MOL0     H29427   7.003   6.501   4.069 -0.1984  0.3203 -0.7835
  938MOL0     H29428   7.510   6.386   2.727 -1.4287 -0.9830  0.2406
  938MOL0     H29429   7.598   6.615   2.681  0.0725 -1.0739  1.6366
  938MOL0     H29430   7.632   6.936   2.299 -3.1020  2.7719 -1.0973
  938MOL0     H29431   7.709   7.148   2.218 -0.5259 -0.3141  0.6043
  938MOL0     H29432   7.861   7.355   2.567  0.9502  2.0098  1.6333
  938MOL0     H29433   7.953   7.416   2.427 -1.6960 -1.7136 -4.5438
  938MOL0     H29434   7.867   7.587   2.608 -0.3802 -1.3438  0.2143
  938MOL0     H29435   7.707   7.553   2.546 -0.2243  0.4727  0.7608
  938MOL0     H29436   7.854   7.763   2.456 -1.2099  1.0936 -1.5258
  938MOL0     H29437   7.931   7.622   2.354 -0.6928 -1.6152 -0.6784
  938MOL0     H29438   7.719   7.579   2.261  0.5062 -0.7041 -0.4348
  938MOL0     H29439   7.786   7.741   2.229 -0.7247  0.3853  0.3728
  938MOL0     H29440   7.424   7.821   2.435  0.3668 -1.0439  0.5566
  938MOL0     H29441   7.652   7.314   2.614  2.1557 -3.0511  3.2214
  938MOL0     H29442   7.434   7.090   2.697 -0.6405  0.6315  1.9777
  938MOL0     H29443   7.576   7.041   2.801 -1.4189 -1.0442 -0.6115
  938MOL0     H29444   7.543   7.215   2.765 -4.0295  0.2867 -0.0135
  939MOL0     O29445   1.304   2.793   3.449  0.9645  0.7279 -0.3034
  939MOL0     C29446   1.287   2.742   3.339  0.4625  0.1740 -0.0665
  939MOL0     O29447   1.277   2.610   3.320  0.0423 -0.0984  0.0091
  939MOL0     C29448   1.276   2.516   3.419 -0.3688  0.6127  0.0119
  939MOL0     C29449   1.231   2.530   3.556  0.0894 -1.3981  0.6554
  939MOL0     C29450   1.218   2.424   3.641  0.6825  0.1379  0.0860
  939MOL0     C29451   1.260   2.300   3.590 -0.1124  0.0015 -1.4238
  939MOL0     O29452   1.247   2.187   3.670  0.1121  0.0344  0.5188
  939MOL0     C29453   1.352   2.165   3.766 -0.3439  0.6338  0.7850
  939MOL0     C29454   1.360   2.015   3.796 -0.2387 -0.0686 -0.0974
  939MOL0     C29455   1.417   1.936   3.677 -0.4557 -0.1702  0.1780
  939MOL0     C29456   1.558   1.879   3.709  0.2150 -0.6528 -0.0593
  939MOL0     C29457   1.542   1.768   3.812  0.4328 -0.3025 -0.0762
  939MOL0     C29458   1.659   1.678   3.803  0.0180 -0.0042 -0.7975
  939MOL0     C29459   1.623   1.563   3.910 -0.4882  0.0517 -0.0010
  939MOL0     C29460   1.735   1.464   3.945 -0.1822 -0.5650  0.1700
  939MOL0     N29461   1.855   1.522   4.012  0.1706  0.1611  0.5483
  939MOL0     C29462   1.872   1.568   4.137 -0.0736  0.5563  0.5368
  939MOL0     C29463   1.995   1.613   4.141  0.2423  0.5877  0.5508
  939MOL0     C29464   2.046   1.676   4.269  0.0658 -0.3079  0.0781
  939MOL0     C29465   2.158   1.588   4.327 -0.3189  0.1626 -0.2550
  939MOL0     C29466   2.103   1.462   4.398  1.3854 -0.4133 -0.4260
  939MOL0     C29467   2.090   1.483   4.550 -0.2494 -0.6113 -0.7771
  939MOL0     O29468   2.223   1.482   4.600  0.6161  0.8308  0.6502
  939MOL0     C29469   2.255   1.530   4.727  0.3130  0.0203 -0.6929
  939MOL0     C29470   2.173   1.577   4.826 -1.0088 -0.0542 -0.2030
  939MOL0     C29471   2.224   1.640   4.945 -0.4675  0.5764 -0.4744
  939MOL0     C29472   2.128   1.695   5.043 -0.8032  0.4817  0.3341
  939MOL0     C29473   2.367   1.633   4.975 -0.2961 -0.3332  0.3960
  939MOL0     C29474   2.440   1.701   5.096  0.9348 -0.8030 -0.5060
  939MOL0     O29475   2.572   1.665   5.107 -0.3200 -0.4244  0.1094
  939MOL0     C29476   2.657   1.705   5.214  0.4363  0.2995  0.5339
  939MOL0     C29477   2.785   1.671   5.191  0.5644  0.5114  0.3076
  939MOL0     C29478   2.882   1.693   5.277  0.2271 -0.3829  0.0105
  939MOL0     C29479   2.861   1.746   5.405 -0.6192 -0.0777  0.4887
  939MOL0     O29480   2.975   1.752   5.475 -0.4342  0.0479 -0.5668
  939MOL0     C29481   2.983   1.834   5.595  0.3764 -0.3199 -0.2090
  939MOL0     C29482   3.116   1.907   5.597  0.7210 -0.4196  0.0193
  939MOL0     C29483   3.235   1.822   5.566 -0.3204 -0.3154 -0.5834
  939MOL0     C29484   3.374   1.882   5.588 -0.4145  0.6875 -0.5535
  939MOL0     C29485   3.473   1.809   5.683 -0.2660  0.5735  0.5701
  939MOL0     C29486   3.548   1.694   5.616  0.5431 -0.6387  0.7580
  939MOL0     C29487   3.613   1.625   5.737 -0.3784  0.2820  0.4877
  939MOL0     C29488   3.715   1.527   5.680  0.6698 -0.2255 -0.3583
  939MOL0    Cl29489   3.748   1.405   5.791 -0.0188  0.1138 -0.2615
  939MOL0     C29490   2.731   1.797   5.432 -0.1379  0.2189  1.1040
  939MOL0     C29491   2.632   1.772   5.334 -0.2381  0.5976  0.0913
  939MOL0     O29492   2.381   1.774   5.184  0.6513  0.5714  0.3077
  939MOL0     C29493   2.440   1.562   4.868  0.0385  1.1209  0.5579
  939MOL0     C29494   2.387   1.532   4.747 -0.6802 -0.6085  0.3467
  939MOL0     N29495   2.053   1.594   4.028  0.4164  0.0084 -0.1653
  939MOL0     N29496   1.972   1.535   3.948  0.5329 -0.0401 -0.6154
  939MOL0     C29497   1.312   2.279   3.467 -1.2793 -0.3272 -0.1199
  939MOL0     C29498   1.319   2.388   3.383 -0.6668  0.1770 -0.5583
  939MOL0     C29499   1.250   2.813   3.219  0.3809 -0.8557 -0.5754
  939MOL0     C29500   1.187   2.931   3.246 -0.5638 -0.8760  0.0645
  939MOL0     C29501   1.126   2.998   3.133  0.3348 -1.3859  0.0132
  939MOL0     C29502   1.115   2.943   3.009 -0.5051 -0.3394  0.0311
  939MOL0     O29503   1.074   3.020   2.901  0.0536 -0.1259 -0.8190
  939MOL0     C29504   0.962   3.102   2.907  0.6852 -0.4135 -0.7106
  939MOL0     C29505   0.838   3.034   2.947  0.0317  0.3769 -0.7995
  939MOL0     C29506   0.704   3.097   2.903  0.2986 -1.0363 -0.3072
  939MOL0     C29507   0.625   3.116   3.034 -0.4066 -0.1177 -1.1648
  939MOL0     C29508   0.509   3.196   3.000 -0.1560 -0.7088  0.5480
  939MOL0     C29509   0.428   3.269   2.946  0.2401 -0.2718  0.1616
  939MOL0     C29510   1.191   2.827   2.984 -0.7407 -0.1738  0.0260
  939MOL0     C29511   1.265   2.761   3.085  0.7527 -0.2936  0.8153
  939MOL0     C29512   1.336   2.632   3.042  1.7411  0.6824  0.2348
  939MOL0     H29513   1.195   2.626   3.592 -0.2118 -0.6678 -1.4686
  939MOL0     H29514   1.178   2.439   3.740 -1.6710 -1.3098 -0.5867
  939MOL0     H29515   1.322   2.217   3.857  0.0769 -0.3181  1.4747
  939MOL0     H29516   1.450   2.204   3.736  0.1811 -1.0558  0.1984
  939MOL0     H29517   1.422   2.006   3.886 -2.6362 -0.5451  1.6443
  939MOL0     H29518   1.263   1.977   3.832 -0.2314 -0.0051 -0.0087
  939MOL0     H29519   1.361   1.845   3.651  2.1080 -1.7182 -0.3313
  939MOL0     H29520   1.428   2.000   3.589  0.2042 -0.4255  0.0624
  939MOL0     H29521   1.611   1.850   3.618  2.1578  2.8614 -0.2323
  939MOL0     H29522   1.613   1.954   3.766 -0.1587 -1.9503  2.1242
  939MOL0     H29523   1.454   1.706   3.795  0.2102  0.1348 -0.5232
  939MOL0     H29524   1.532   1.821   3.907 -1.6365 -1.2201  0.2629
  939MOL0     H29525   1.664   1.626   3.707 -1.3627  2.1357 -2.1325
  939MOL0     H29526   1.752   1.730   3.826  1.2847 -1.2424 -2.8871
  939MOL0     H29527   1.536   1.502   3.883  1.5649 -2.0805 -2.3112
  939MOL0     H29528   1.597   1.620   4.000  1.9968  1.0302  0.1743
  939MOL0     H29529   1.680   1.392   4.006 -1.4487 -0.8777 -1.2633
  939MOL0     H29530   1.761   1.396   3.864 -0.3978 -0.3173 -0.1096
  939MOL0     H29531   1.806   1.562   4.223  1.0266  1.8056  1.5065
  939MOL0     H29532   1.967   1.686   4.344  1.9784 -2.2186  2.5183
  939MOL0     H29533   2.083   1.777   4.248 -0.0377 -0.4085 -0.6108
  939MOL0     H29534   2.219   1.560   4.241  1.2639  2.4241  0.0479
  939MOL0     H29535   2.218   1.653   4.393  0.5927  1.2955 -2.1142
  939MOL0     H29536   2.001   1.435   4.370  1.2660 -0.6255  0.2039
  939MOL0     H29537   2.173   1.380   4.379 -0.3851 -1.8241 -1.1325
  939MOL0     H29538   2.024   1.570   4.561 -0.2134 -0.4947 -1.4096
  939MOL0     H29539   2.042   1.401   4.603  0.5132  1.5317  3.6990
  939MOL0     H29540   2.066   1.583   4.809 -0.8825 -0.0250 -1.0673
  939MOL0     H29541   2.137   1.803   5.061  1.7979 -0.2315  5.0395
  939MOL0     H29542   2.144   1.657   5.144 -3.0331  2.4255  1.5366
  939MOL0     H29543   2.026   1.666   5.017 -0.6528 -0.5741  0.8940
  939MOL0     H29544   2.808   1.619   5.099  5.0587 -1.1458  2.0887
  939MOL0     H29545   2.980   1.649   5.264  1.1732  1.6883 -0.2311
  939MOL0     H29546   2.898   1.900   5.612  1.9549  1.6374  0.4155
  939MOL0     H29547   3.003   1.760   5.673  0.2975 -1.2930 -1.0958
  939MOL0     H29548   3.112   1.990   5.526  4.3057 -0.2978 -0.2290
  939MOL0     H29549   3.134   1.943   5.699  0.0404  0.2791 -0.1023
  939MOL0     H29550   3.222   1.799   5.459  0.9149 -1.1368 -0.5754
  939MOL0     H29551   3.225   1.729   5.621 -3.9675 -2.9020 -4.8956
  939MOL0     H29552   3.366   1.989   5.610 -0.0158  0.5216  0.4445
  939MOL0     H29553   3.416   1.876   5.487  0.3762 -2.9091 -0.1127
  939MOL0     H29554   3.548   1.882   5.714  2.8220 -1.6991 -1.0665
  939MOL0     H29555   3.421   1.782   5.776 -0.7627 -1.3144 -0.2063
  939MOL0     H29556   3.605   1.727   5.529  0.3410  0.1359  0.9141
  939MOL0     H29557   3.474   1.619   5.586  0.4069  0.1266 -0.9537
  939MOL0     H29558   3.537   1.563   5.786 -0.6504 -1.3730 -1.8399
  939MOL0     H29559   3.653   1.699   5.807 -0.4304 -1.0486  1.9756
  939MOL0     H29560   3.806   1.586   5.664  1.4450 -0.7543  1.8064
  939MOL0     H29561   3.670   1.488   5.588 -1.5830  0.8393  0.2295
  939MOL0     H29562   2.706   1.842   5.528 -0.3142 -1.0424  1.6628
  939MOL0     H29563   2.535   1.814   5.358  0.2273  0.7246  1.8749
  939MOL0     H29564   2.548   1.557   4.878  0.2023  3.8121  0.8239
  939MOL0     H29565   2.449   1.504   4.663 -0.1953 -2.0761  1.1513
  939MOL0     H29566   1.330   2.178   3.429  0.4726 -0.2067  0.3045
  939MOL0     H29567   1.356   2.366   3.284 -2.0740  0.7778 -1.2438
  939MOL0     H29568   1.176   2.971   3.346  1.6285 -2.3758  0.9869
  939MOL0     H29569   1.080   3.094   3.152  3.1718 -0.1329  1.1622
  939MOL0     H29570   0.965   3.184   2.980 -2.7350 -2.2627  1.7918
  939MOL0     H29571   0.952   3.145   2.807  0.6146  2.8114  0.5423
  939MOL0     H29572   0.841   3.023   3.056  3.8210  0.3464 -0.7626
  939MOL0     H29573   0.830   2.929   2.915  2.7885  0.9600 -3.9252
  939MOL0     H29574   0.729   3.196   2.863 -1.2557  0.5039  2.3207
  939MOL0     H29575   0.644   3.039   2.832 -1.5082 -0.2852  0.5498
  939MOL0     H29576   0.683   3.161   3.116 -0.8777 -0.9884 -0.3303
  939MOL0     H29577   0.570   3.027   3.066 -1.7790  0.7476 -0.9917
  939MOL0     H29578   0.338   3.324   2.927 -2.2726 -2.1960  4.7593
  939MOL0     H29579   1.194   2.798   2.880 -0.4410  0.5133 -0.1557
  939MOL0     H29580   1.306   2.547   3.105  2.1451 -1.7232 -2.6084
  939MOL0     H29581   1.313   2.598   2.941 -2.2504  0.8501  0.9201
  939MOL0     H29582   1.445   2.638   3.050  2.4828 -4.6863 -1.8239
  940MOL0     O29583   1.219   4.123   5.907 -0.5512  0.3004  0.3853
  940MOL0     C29584   1.326   4.175   5.884 -0.6716  0.4308 -0.3423
  940MOL0     O29585   1.449   4.114   5.874 -0.3786  0.2582 -0.3145
  940MOL0     C29586   1.449   3.979   5.915 -0.7383 -0.4440  0.6219
  940MOL0     C29587   1.554   3.942   5.985  0.2463 -0.5446  0.1420
  940MOL0     C29588   1.577   3.809   6.021  0.3353 -0.3689  0.5292
  940MOL0     C29589   1.490   3.710   5.977 -0.6975  0.1632 -0.1118
  940MOL0     O29590   1.519   3.582   5.987  0.1651  0.1570  0.6487
  940MOL0     C29591   1.565   3.523   6.109 -0.1553 -0.2902  0.5740
  940MOL0     C29592   1.549   3.366   6.107 -0.6611 -1.2146 -0.0004
  940MOL0     C29593   1.404   3.310   6.097 -1.0769  0.1124 -0.8977
  940MOL0     C29594   1.402   3.163   6.099 -0.4405 -0.1389  0.1077
  940MOL0     C29595   1.261   3.107   6.136  0.3010 -0.1723 -0.1361
  940MOL0     C29596   1.238   2.972   6.064 -0.1887  1.1819 -0.3316
  940MOL0     C29597   1.142   2.887   6.136  0.5791 -0.1755  0.0048
  940MOL0     C29598   1.110   2.753   6.067  0.0266  1.0548  0.3825
  940MOL0     N29599   0.993   2.705   6.138 -0.5168  0.3963  0.9682
  940MOL0     C29600   0.871   2.764   6.130 -0.6997 -0.2104 -0.2158
  940MOL0     C29601   0.789   2.686   6.199 -0.3613  0.0430 -0.7657
  940MOL0     C29602   0.649   2.718   6.192  0.3458  1.0107  0.3274
  940MOL0     C29603   0.572   2.576   6.174  0.2510  0.4875  0.2015
  940MOL0     C29604   0.606   2.477   6.068  0.0260 -0.0758 -0.4575
  940MOL0     C29605   0.485   2.390   6.040  0.1575 -0.5283 -0.0983
  940MOL0     O29606   0.416   2.338   6.152 -1.4199  0.3481  0.2409
  940MOL0     C29607   0.321   2.255   6.117  0.6195 -0.1311 -0.9169
  940MOL0     C29608   0.237   2.264   5.999  0.7617 -0.0372 -0.8221
  940MOL0     C29609   0.166   2.158   5.945  0.4835  0.0523  0.5165
  940MOL0     C29610   0.110   2.182   5.817  0.4588 -0.5472  0.5189
  940MOL0     C29611   0.187   2.037   6.013  0.0773  0.3506  0.5447
  940MOL0     C29612   0.165   1.903   5.946  0.3971 -0.8521 -0.2405
  940MOL0     O29613   0.271   1.817   5.959  0.6602  0.6229  0.2105
  940MOL0     C29614   0.258   1.681   5.932  0.1903 -0.1709  0.9618
  940MOL0     C29615   0.139   1.605   5.894 -0.1849 -0.8696  1.0887
  940MOL0     C29616   0.143   1.463   5.870  0.3521 -0.5089  0.1235
  940MOL0     C29617   0.264   1.397   5.860 -0.0031 -0.6244  0.3517
  940MOL0     O29618   0.286   1.261   5.850  1.0678  0.1313  0.4081
  940MOL0     C29619   0.183   1.170   5.863  0.1504  0.3323 -0.0426
  940MOL0     C29620   0.118   1.158   5.728 -0.1140  0.8931 -0.1721
  940MOL0     C29621   0.007   1.052   5.722  0.0345  0.0806 -0.6433
  940MOL0     C29622  -0.062   1.051   5.587  0.9801 -0.2818 -0.9350
  940MOL0     C29623  -0.146   0.925   5.592  0.2139 -0.0486  0.9509
  940MOL0     C29624  -0.222   0.913   5.459 -0.9035 -0.3380  0.5596
  940MOL0     C29625  -0.286   0.777   5.449 -0.3001 -0.3896 -0.9041
  940MOL0     C29626  -0.393   0.770   5.334 -0.0076 -0.0086 -0.9766
  940MOL0    Cl29627  -0.532   0.884   5.363 -0.2610  0.6248 -0.0744
  940MOL0     C29628   0.383   1.472   5.871 -0.8267  0.5566  0.0785
  940MOL0     C29629   0.375   1.605   5.911  0.0962 -0.1200  0.9753
  940MOL0     O29630   0.058   1.891   5.880  0.1561  0.1804  0.1621
  940MOL0     C29631   0.232   2.031   6.146  0.1394 -0.3426  0.1835
  940MOL0     C29632   0.301   2.142   6.193  1.3154  0.2585  0.8941
  940MOL0     N29633   0.862   2.569   6.251 -0.5541  0.1334  0.5384
  940MOL0     N29634   0.988   2.596   6.217 -1.3645 -0.3365  0.5049
  940MOL0     C29635   1.373   3.747   5.904  0.5455  0.3227 -0.5054
  940MOL0     C29636   1.351   3.880   5.876  0.5721  0.3287 -0.1832
  940MOL0     C29637   1.318   4.326   5.864  0.9164 -0.4033 -0.5560
  940MOL0     C29638   1.186   4.388   5.846 -0.1310 -0.4214  0.7227
  940MOL0     C29639   1.163   4.525   5.847  0.0119 -0.4498  0.5077
  940MOL0     C29640   1.282   4.610   5.856 -0.5077  0.0472 -1.4434
  940MOL0     O29641   1.259   4.741   5.828  0.4073 -0.1500 -0.8543
  940MOL0     C29642   1.186   4.833   5.917  0.5884 -0.5015 -0.9133
  940MOL0     C29643   1.161   4.958   5.836 -0.9922 -0.3970  0.9326
  940MOL0     C29644   1.086   5.055   5.924 -0.0720 -0.6185 -0.3731
  940MOL0     C29645   1.049   5.180   5.855 -0.2576 -0.4244 -0.7634
  940MOL0     C29646   0.958   5.162   5.736  0.2801 -0.1059  0.2939
  940MOL0     C29647   0.884   5.156   5.638  0.0615  0.6658 -0.3566
  940MOL0     C29648   1.408   4.553   5.852  0.7319 -0.4889 -0.3211
  940MOL0     C29649   1.433   4.419   5.865 -0.2258 -0.2481 -0.8562
  940MOL0     C29650   1.575   4.380   5.880  0.4521 -0.4466  0.5899
  940MOL0     H29651   1.627   4.018   6.008  4.8789 -4.0248 -1.5068
  940MOL0     H29652   1.670   3.787   6.073  2.9644  1.5017 -2.9678
  940MOL0     H29653   1.517   3.567   6.197 -0.4590 -1.3765  0.9707
  940MOL0     H29654   1.666   3.557   6.134 -0.7645  1.9257  0.2672
  940MOL0     H29655   1.611   3.316   6.032  0.0513 -4.1715  2.3463
  940MOL0     H29656   1.605   3.333   6.195  2.9430  2.3000 -0.6948
  940MOL0     H29657   1.344   3.346   6.181 -1.5714  0.6811 -1.4802
  940MOL0     H29658   1.360   3.340   6.001 -0.6823 -0.1283 -1.1562
  940MOL0     H29659   1.441   3.124   6.004  0.2539 -0.5089  0.5389
  940MOL0     H29660   1.478   3.122   6.165  2.0608  2.8142 -0.6892
  940MOL0     H29661   1.185   3.181   6.108 -0.2553 -0.3384  0.8939
  940MOL0     H29662   1.239   3.087   6.242  0.5067  0.8880  0.1177
  940MOL0     H29663   1.205   2.998   5.964  1.0266  0.2832 -1.0006
  940MOL0     H29664   1.325   2.905   6.071  0.1712  1.5908 -0.8378
  940MOL0     H29665   1.054   2.949   6.157  0.5587  0.2994 -1.4000
  940MOL0     H29666   1.179   2.858   6.235  2.2283 -1.8655 -1.0558
  940MOL0     H29667   1.099   2.767   5.959  2.4798  0.7688  0.0386
  940MOL0     H29668   1.204   2.698   6.075 -0.9788 -0.8255 -0.2668
  940MOL0     H29669   0.840   2.849   6.071  0.2210 -0.7885 -1.5925
  940MOL0     H29670   0.618   2.770   6.100 -1.4412 -2.7972 -1.4481
  940MOL0     H29671   0.611   2.771   6.280  3.2931  0.1484  2.2443
  940MOL0     H29672   0.574   2.526   6.272  1.9898 -0.5836 -0.3283
  940MOL0     H29673   0.470   2.615   6.173 -0.2851 -0.6960  2.2957
  940MOL0     H29674   0.627   2.546   5.986 -0.4708  4.1801  2.6401
  940MOL0     H29675   0.699   2.426   6.095 -1.1519 -2.4963 -0.7045
  940MOL0     H29676   0.418   2.459   5.989  3.4111  3.1574  0.1685
  940MOL0     H29677   0.515   2.326   5.957 -2.0441 -0.4505 -1.0190
  940MOL0     H29678   0.244   2.353   5.936  1.5444 -0.9495 -2.0794
  940MOL0     H29679   0.094   2.290   5.812 -0.3061 -0.6252  1.1570
  940MOL0     H29680   0.014   2.131   5.808  1.1351 -2.4871  3.0946
  940MOL0     H29681   0.181   2.161   5.735  1.7506 -1.3828  1.8083
  940MOL0     H29682   0.041   1.651   5.897  0.9642  2.4459 -2.9048
  940MOL0     H29683   0.050   1.408   5.862  0.4367 -0.5412 -0.7704
  940MOL0     H29684   0.225   1.072   5.887  0.1088  0.6414  1.3879
  940MOL0     H29685   0.105   1.204   5.932  0.4392  0.8931  0.0136
  940MOL0     H29686   0.079   1.251   5.687  1.1368  0.1779 -3.2387
  940MOL0     H29687   0.189   1.128   5.651  0.1979  0.2705  0.3483
  940MOL0     H29688  -0.076   1.065   5.792 -1.9788 -0.1111 -2.8854
  940MOL0     H29689   0.046   0.952   5.742  1.7106  1.0731  1.3795
  940MOL0     H29690  -0.003   1.047   5.495  1.6778  0.6003 -0.5570
  940MOL0     H29691  -0.123   1.142   5.582  1.6544  0.3020  0.5060
  940MOL0     H29692  -0.073   0.844   5.600  1.2706  0.9782  2.2662
  940MOL0     H29693  -0.217   0.930   5.676 -0.6948  2.9698  0.1270
  940MOL0     H29694  -0.141   0.919   5.386 -0.8700  1.7814  0.7108
  940MOL0     H29695  -0.291   0.998   5.458  1.6838  2.0819  3.6893
  940MOL0     H29696  -0.324   0.743   5.546 -0.9513  1.0409 -0.6491
  940MOL0     H29697  -0.203   0.714   5.413  0.9311  0.4599  0.3614
  940MOL0     H29698  -0.440   0.671   5.341 -1.3842  0.7009  0.8462
  940MOL0     H29699  -0.341   0.776   5.238 -1.9565 -0.1986 -2.1080
  940MOL0     H29700   0.479   1.426   5.847 -0.8704  0.1439  0.6608
  940MOL0     H29701   0.474   1.646   5.929  0.4429  0.1501 -1.2056
  940MOL0     H29702   0.228   1.943   6.209 -0.2372 -0.6101 -0.2088
  940MOL0     H29703   0.346   2.135   6.292 -1.4704  0.9270  2.2998
  940MOL0     H29704   1.311   3.673   5.855  0.7363  1.3778 -2.4563
  940MOL0     H29705   1.263   3.899   5.814  0.2236 -1.5728 -0.3220
  940MOL0     H29706   1.094   4.329   5.841 -0.2563 -0.3788  2.1176
  940MOL0     H29707   1.066   4.574   5.835  1.0682  1.6223 -0.0691
  940MOL0     H29708   1.088   4.785   5.928  1.7153 -2.8761 -0.4692
  940MOL0     H29709   1.232   4.848   6.015 -3.1001  0.2243  0.8726
  940MOL0     H29710   1.112   4.934   5.741 -0.7321 -1.7671  1.1160
  940MOL0     H29711   1.260   4.997   5.811 -2.0586  3.1154  1.7006
  940MOL0     H29712   0.996   4.999   5.950  0.9577 -3.0745 -1.6892
  940MOL0     H29713   1.147   5.070   6.013  1.8255 -0.9068 -1.5641
  940MOL0     H29714   1.138   5.238   5.832  3.0687 -4.0603  1.5916
  940MOL0     H29715   0.995   5.224   5.940  0.7787 -0.9535  0.1950
  940MOL0     H29716   0.827   5.150   5.547  1.4068 -3.7877 -1.1500
  940MOL0     H29717   1.485   4.630   5.849  0.7543 -0.5611 -2.3699
  940MOL0     H29718   1.601   4.416   5.980 -3.9717 -0.5564  1.9720
  940MOL0     H29719   1.598   4.274   5.864  1.7349 -0.4643  2.3215
  940MOL0     H29720   1.635   4.426   5.801 -1.9441  0.1104 -0.9959
  941MOL0     O29721   6.283   5.857   5.078 -0.5982  1.6032  0.9241
  941MOL0     C29722   6.210   5.936   5.140  0.1536  0.5916  0.1922
  941MOL0     O29723   6.241   5.984   5.275  0.1262 -0.0348  0.7518
  941MOL0     C29724   6.351   5.942   5.344 -0.1561  0.1500  0.1766
  941MOL0     C29725   6.478   5.943   5.289 -0.9034  0.1139  0.3907
  941MOL0     C29726   6.593   5.920   5.369  0.2130 -0.0740  1.2793
  941MOL0     C29727   6.578   5.893   5.507 -0.4536 -0.3671  0.1498
  941MOL0     O29728   6.691   5.891   5.572 -0.5067 -0.0131 -0.0334
  941MOL0     C29729   6.692   5.839   5.701  0.4064  0.0840  0.1472
  941MOL0     C29730   6.843   5.835   5.740  0.6752 -0.5532  0.5149
  941MOL0     C29731   6.934   5.720   5.679  0.6565  1.1195  0.0657
  941MOL0     C29732   7.071   5.683   5.727 -0.2875  0.8815 -0.9397
  941MOL0     C29733   7.138   5.555   5.684  0.9211  0.0374  0.0201
  941MOL0     C29734   7.203   5.593   5.555 -0.2693 -0.4284  0.2129
  941MOL0     C29735   7.224   5.474   5.458 -0.5442 -0.0144 -0.5247
  941MOL0     C29736   7.269   5.526   5.318 -0.4925  0.5698  0.1370
  941MOL0     N29737   7.376   5.627   5.334 -0.6302  1.0906  0.0820
  941MOL0     C29738   7.382   5.737   5.256 -0.3345  0.0982  0.7295
  941MOL0     C29739   7.503   5.788   5.286  0.3258  0.6058  0.2040
  941MOL0     C29740   7.556   5.919   5.223 -0.0772  0.6332  0.0037
  941MOL0     C29741   7.651   5.882   5.107  0.2180  0.1636 -1.1864
  941MOL0     C29742   7.741   6.008   5.064  0.1579  0.4439 -0.6300
  941MOL0     C29743   7.860   5.956   4.973  0.7395  0.0163  1.1750
  941MOL0     O29744   7.818   5.898   4.850 -0.5100  0.8815  0.3932
  941MOL0     C29745   7.917   5.819   4.797  0.5911  0.8323 -0.6455
  941MOL0     C29746   7.941   5.687   4.841  0.9258  0.1179 -0.3449
  941MOL0     C29747   8.026   5.593   4.786  0.0459 -0.2835 -0.0437
  941MOL0     C29748   8.044   5.465   4.868 -0.6598 -0.3821  0.1446
  941MOL0     C29749   8.093   5.631   4.668 -0.3596 -0.6900  0.0686
  941MOL0     C29750   8.177   5.531   4.583 -0.1429 -0.5735  0.4143
  941MOL0     O29751   8.237   5.578   4.469  0.2865 -0.1774 -0.2325
  941MOL0     C29752   8.328   5.502   4.401 -0.2072  0.0232  0.6589
  941MOL0     C29753   8.459   5.540   4.367 -0.6137 -0.3379  0.5557
  941MOL0     C29754   8.537   5.451   4.294  0.1863 -0.4557 -0.3277
  941MOL0     C29755   8.494   5.323   4.245 -0.4524 -0.4157  0.2700
  941MOL0     O29756   8.569   5.250   4.158 -0.4113 -0.4712 -0.4114
  941MOL0     C29757   8.574   5.108   4.185 -0.6887  0.3711  0.2103
  941MOL0     C29758   8.481   5.028   4.091  1.9836 -0.1814 -0.4352
  941MOL0     C29759   8.549   5.019   3.951 -0.2333  1.0000 -0.1084
  941MOL0     C29760   8.635   4.892   3.959  0.4689 -0.8423  1.0864
  941MOL0     C29761   8.710   4.844   3.830  0.5413  0.6786 -0.3758
  941MOL0     C29762   8.743   4.700   3.821  0.8512 -0.0764 -0.9312
  941MOL0     C29763   8.799   4.666   3.685  0.0470  0.2347 -0.4928
  941MOL0     C29764   8.834   4.519   3.688  1.0062  0.1718 -0.1086
  941MOL0    Cl29765   8.976   4.495   3.797  0.0273  0.2697  0.1560
  941MOL0     C29766   8.368   5.281   4.283 -0.5498 -0.4254  0.2549
  941MOL0     C29767   8.291   5.370   4.365  0.3736 -0.1143  0.2225
  941MOL0     O29768   8.208   5.427   4.641 -0.3247 -0.3786 -0.2908
  941MOL0     C29769   8.068   5.760   4.622  0.1893 -0.2639 -0.2830
  941MOL0     C29770   7.984   5.856   4.678  0.4511  0.0445 -0.3141
  941MOL0     N29771   7.566   5.713   5.385  0.1072  0.2400 -0.9046
  941MOL0     N29772   7.488   5.609   5.410  0.6753 -0.0395 -0.2135
  941MOL0     C29773   6.446   5.879   5.563 -0.6044 -0.5433  0.0460
  941MOL0     C29774   6.340   5.908   5.480 -0.1955 -0.5030 -0.1703
  941MOL0     C29775   6.075   5.973   5.089  0.5840 -0.1313  0.0002
  941MOL0     C29776   6.027   6.101   5.121  0.3667  0.5837 -0.0918
  941MOL0     C29777   5.905   6.146   5.082 -0.0066 -0.7716  0.4126
  941MOL0     C29778   5.820   6.070   5.004 -0.9248  0.3437  1.3491
  941MOL0     O29779   5.687   6.087   4.968  0.0608 -0.0511 -0.3392
  941MOL0     C29780   5.657   6.227   4.957  0.3022  0.3149 -0.0115
  941MOL0     C29781   5.550   6.252   4.852  0.1685  0.3146 -0.0565
  941MOL0     C29782   5.421   6.276   4.922  0.4526  0.4185  0.0146
  941MOL0     C29783   5.314   6.311   4.810 -1.1959 -0.5693 -0.3803
  941MOL0     C29784   5.190   6.355   4.870  0.3650  0.1232 -0.0269
  941MOL0     C29785   5.090   6.390   4.924  0.5753  0.0477 -0.4692
  941MOL0     C29786   5.869   5.945   4.963 -0.8600 -0.1051  0.7894
  941MOL0     C29787   5.996   5.893   5.004 -0.6081 -0.2485 -0.1301
  941MOL0     C29788   6.028   5.748   4.977 -1.4373 -0.4854 -0.7856
  941MOL0     H29789   6.500   5.973   5.187  2.0218 -4.2180 -0.5249
  941MOL0     H29790   6.696   5.928   5.335  0.4194  0.2426  1.9594
  941MOL0     H29791   6.645   5.741   5.714 -0.8523  0.3345 -2.0800
  941MOL0     H29792   6.652   5.912   5.772  1.5647  0.1325  0.7596
  941MOL0     H29793   6.897   5.928   5.721  0.3691 -0.3570  0.6056
  941MOL0     H29794   6.844   5.814   5.847 -0.5863 -3.2548  0.0831
  941MOL0     H29795   6.872   5.631   5.692  2.0347  0.3225  1.5814
  941MOL0     H29796   6.949   5.736   5.572 -1.3916  0.6675 -0.3318
  941MOL0     H29797   7.134   5.771   5.711  0.5479  0.0249 -2.5301
  941MOL0     H29798   7.051   5.669   5.834 -0.0974 -0.2633 -1.0485
  941MOL0     H29799   7.061   5.479   5.671  0.4639  0.3645  0.7396
  941MOL0     H29800   7.208   5.514   5.758  0.5842  0.2373  0.4559
  941MOL0     H29801   7.142   5.671   5.508  0.0418 -0.1478  0.2765
  941MOL0     H29802   7.296   5.645   5.579  1.3292 -0.3908 -4.8233
  941MOL0     H29803   7.131   5.421   5.435 -0.4397  0.2230 -1.5337
  941MOL0     H29804   7.292   5.400   5.503 -1.2427  0.9733  2.4043
  941MOL0     H29805   7.299   5.454   5.241  2.1454  0.8881  0.7692
  941MOL0     H29806   7.184   5.578   5.275 -0.7502 -0.6042 -0.8459
  941MOL0     H29807   7.321   5.767   5.172  1.3775  0.4353 -0.4573
  941MOL0     H29808   7.600   5.985   5.298 -0.2562  0.9647 -0.1809
  941MOL0     H29809   7.466   5.973   5.191  0.7762  1.5355 -0.9145
  941MOL0     H29810   7.724   5.812   5.149  1.3687  2.6720  1.3034
  941MOL0     H29811   7.586   5.843   5.028  0.0083  2.9150 -2.5052
  941MOL0     H29812   7.674   6.067   5.000 -1.9724  1.1007  2.0229
  941MOL0     H29813   7.774   6.074   5.145  2.4764  1.5563 -2.3796
  941MOL0     H29814   7.907   6.051   4.945 -1.7614  2.1698  3.7171
  941MOL0     H29815   7.933   5.896   5.028  1.7141 -1.8584 -1.9261
  941MOL0     H29816   7.883   5.662   4.929  0.2859 -0.1604 -0.8430
  941MOL0     H29817   7.958   5.461   4.937 -0.3707  2.5337  0.7946
  941MOL0     H29818   8.143   5.459   4.914 -0.0696  1.6774 -0.7457
  941MOL0     H29819   8.049   5.383   4.795  0.2364 -0.0150 -0.2135
  941MOL0     H29820   8.507   5.635   4.387 -0.7276  0.1079 -1.1327
  941MOL0     H29821   8.639   5.483   4.272  0.6394 -3.3074 -3.1094
  941MOL0     H29822   8.675   5.068   4.173  0.2101  2.5294  0.2381
  941MOL0     H29823   8.530   5.081   4.281 -3.0219  2.1941 -0.2444
  941MOL0     H29824   8.450   4.936   4.141  2.4164  0.5920  1.3281
  941MOL0     H29825   8.396   5.095   4.075  1.7476 -0.0594  1.1757
  941MOL0     H29826   8.606   5.110   3.929  0.1104  1.0560  0.9410
  941MOL0     H29827   8.474   5.000   3.875 -0.6016  1.2576  0.1861
  941MOL0     H29828   8.570   4.809   3.986 -1.1911 -0.0064 -0.1322
  941MOL0     H29829   8.710   4.911   4.037  1.1937 -0.0843  0.2308
  941MOL0     H29830   8.650   4.862   3.741  1.9392  1.2197 -1.2292
  941MOL0     H29831   8.796   4.908   3.810 -0.7415  2.3729 -0.7563
  941MOL0     H29832   8.654   4.641   3.844  2.0285 -0.2937  4.1422
  941MOL0     H29833   8.820   4.690   3.898 -0.3209 -0.5805  0.2037
  941MOL0     H29834   8.882   4.729   3.653  1.9387  0.2054  3.7345
  941MOL0     H29835   8.716   4.671   3.614 -0.8446  3.2909  0.6177
  941MOL0     H29836   8.850   4.487   3.585 -2.7379  2.0751 -1.4564
  941MOL0     H29837   8.752   4.463   3.733  0.3811  0.3534 -1.0019
  941MOL0     H29838   8.333   5.181   4.262  0.1141 -0.6164  0.0408
  941MOL0     H29839   8.190   5.342   4.394  0.5743  0.5497  1.6102
  941MOL0     H29840   8.122   5.796   4.535 -0.4665 -2.5669 -1.7247
  941MOL0     H29841   7.966   5.955   4.638  0.7237  0.0411 -0.4488
  941MOL0     H29842   6.417   5.825   5.653 -0.5351 -0.4322  0.1351
  941MOL0     H29843   6.243   5.909   5.529 -0.1909  1.7578 -0.0655
  941MOL0     H29844   6.086   6.172   5.178 -2.1225  4.4931 -1.9501
  941MOL0     H29845   5.889   6.246   5.123  1.8703 -0.3835  0.3279
  941MOL0     H29846   5.629   6.275   5.051  0.8178  0.5219  0.0389
  941MOL0     H29847   5.748   6.271   4.915  0.1656  0.0931 -0.5382
  941MOL0     H29848   5.543   6.166   4.784  0.7805 -0.0762  0.3672
  941MOL0     H29849   5.580   6.336   4.787 -1.9924  0.8245 -0.4669
  941MOL0     H29850   5.400   6.185   4.980  2.8369 -1.4840 -1.8460
  941MOL0     H29851   5.427   6.365   4.985  2.4316  2.6316 -2.9684
  941MOL0     H29852   5.294   6.226   4.744 -1.6175 -1.5500  0.9600
  941MOL0     H29853   5.356   6.400   4.762 -0.6057  0.7215  2.3229
  941MOL0     H29854   4.991   6.427   4.945  0.1883 -0.5086 -1.2611
  941MOL0     H29855   5.796   5.890   4.904 -0.5875  0.0774  0.2742
  941MOL0     H29856   6.133   5.726   4.954 -0.8747 -1.0116  1.9412
  941MOL0     H29857   6.026   5.690   5.070  0.3445  2.0329  0.9673
  941MOL0     H29858   5.953   5.703   4.911 -3.0939 -0.8334  1.2235
  942MOL0     O29859  10.738   4.992  10.299  0.0638  0.3795 -1.4256
  942MOL0     C29860  10.630   4.933  10.282  0.8165 -0.0648 -0.6663
  942MOL0     O29861  10.621   4.814  10.220 -0.2971 -0.2843  0.2367
  942MOL0     C29862  10.738   4.755  10.181  0.0625 -0.5130  0.0484
  942MOL0     C29863  10.778   4.761  10.051  0.1465  0.1376  0.6429
  942MOL0     C29864  10.899   4.701  10.009 -0.0393 -0.1832 -0.2943
  942MOL0     C29865  10.992   4.642  10.097 -0.1912 -0.6214 -0.5262
  942MOL0     O29866  11.119   4.604  10.072 -0.0364 -0.5729 -0.2814
  942MOL0     C29867  11.211   4.694  10.004  1.0455 -0.4095 -0.7016
  942MOL0     C29868  11.248   4.817  10.084 -0.3164 -0.0745 -0.4901
  942MOL0     C29869  11.366   4.894  10.020 -0.6676  0.5476 -0.0893
  942MOL0     C29870  11.361   5.042  10.051 -0.1144 -0.2067 -0.2037
  942MOL0     C29871  11.376   5.086  10.192 -0.9875 -0.2129 -0.8945
  942MOL0     C29872  11.366   5.239  10.208  0.6105  1.0988  0.0191
  942MOL0     C29873  11.370   5.282  10.349 -1.6540  0.6223  0.5077
  942MOL0     C29874  11.501   5.242  10.427 -0.2272 -0.2467  0.2660
  942MOL0     N29875  11.512   5.335  10.542  0.9085 -0.1452  0.2115
  942MOL0     C29876  11.430   5.367  10.647 -0.5388  0.1985 -0.9661
  942MOL0     C29877  11.488   5.474  10.710 -0.4672  0.8577  0.0737
  942MOL0     C29878  11.434   5.559  10.816  0.2995 -0.5350  0.6105
  942MOL0     C29879  11.376   5.493  10.937  0.6247  0.9056  0.5913
  942MOL0     C29880  11.344   5.586  11.046  0.2578 -0.6648 -0.9692
  942MOL0     C29881  11.261   5.513  11.154  0.6657 -0.1555 -0.1762
  942MOL0     O29882  11.157   5.598  11.209 -0.5766 -0.7484 -0.0575
  942MOL0     C29883  11.063   5.540  11.294 -0.1096 -0.3407  0.1480
  942MOL0     C29884  10.947   5.612  11.330  0.0374  0.0050  0.0432
  942MOL0     C29885  10.835   5.559  11.394  0.4135  0.4594 -0.6251
  942MOL0     C29886  10.725   5.661  11.416  1.0327  0.9814 -0.2503
  942MOL0     C29887  10.838   5.418  11.429  0.3737 -0.6549  0.7807
  942MOL0     C29888  10.721   5.338  11.488 -0.0172 -0.3235  0.0078
  942MOL0     O29889  10.610   5.405  11.528 -0.1902 -0.0332 -0.2346
  942MOL0     C29890  10.518   5.336  11.598 -0.7215  0.1257  0.0741
  942MOL0     C29891  10.541   5.229  11.688 -1.0451 -0.0431  0.7399
  942MOL0     C29892  10.445   5.180  11.780  1.3850 -0.3265  0.7352
  942MOL0     C29893  10.313   5.244  11.763  0.8143  0.2239 -0.0614
  942MOL0     O29894  10.217   5.176  11.843  0.4974  0.1046  0.9542
  942MOL0     C29895  10.072   5.193  11.804  0.0592  0.8499  0.0945
  942MOL0     C29896   9.979   5.164  11.915 -0.3337 -0.0135  0.6439
  942MOL0     C29897   9.993   5.271  12.027 -0.5549  0.2119 -0.0119
  942MOL0     C29898   9.891   5.217  12.141 -0.4907  0.5630  0.0158
  942MOL0     C29899   9.864   5.294  12.269  0.3511  0.6522 -0.4355
  942MOL0     C29900   9.989   5.339  12.343  0.2077 -0.3715  0.3155
  942MOL0     C29901  10.057   5.476  12.301  0.5132 -0.3781 -0.6732
  942MOL0     C29902  10.195   5.471  12.350 -0.8488 -0.2352  0.0843
  942MOL0    Cl29903  10.299   5.594  12.281 -0.6133 -0.1491  0.0860
  942MOL0     C29904  10.290   5.341  11.659 -0.2687  0.3026 -1.5121
  942MOL0     C29905  10.394   5.397  11.599  0.2251 -0.5031 -0.9110
  942MOL0     O29906  10.731   5.217  11.479  0.2615  0.4618  0.7710
  942MOL0     C29907  10.954   5.352  11.401  0.2866 -0.1279  0.5976
  942MOL0     C29908  11.075   5.413  11.348 -0.3396 -0.0405  0.0667
  942MOL0     N29909  11.606   5.504  10.642  0.8646 -0.8087  0.0281
  942MOL0     N29910  11.624   5.427  10.544 -0.5729 -0.0243  0.1140
  942MOL0     C29911  10.943   4.645  10.228 -0.1640 -0.6171  0.3451
  942MOL0     C29912  10.826   4.698  10.272  0.3222 -0.2666 -0.3032
  942MOL0     C29913  10.510   4.983  10.352 -0.8458 -0.0607  0.5618
  942MOL0     C29914  10.525   5.009  10.484  0.3577 -0.4243  0.6379
  942MOL0     C29915  10.420   5.068  10.562 -0.7922  0.4287  0.0794
  942MOL0     C29916  10.299   5.099  10.494  0.2088  0.6877  1.3084
  942MOL0     O29917  10.205   5.157  10.570 -0.1529  0.2943 -0.5134
  942MOL0     C29918  10.068   5.162  10.537  0.4129 -0.3897 -0.8615
  942MOL0     C29919  10.017   5.295  10.590  1.1798 -0.8695  0.6226
  942MOL0     C29920  10.029   5.312  10.738 -0.7110  0.4488 -0.7341
  942MOL0     C29921   9.972   5.454  10.784 -0.2747 -1.1794  0.3474
  942MOL0     C29922   9.977   5.480  10.927  0.8835 -0.6125 -0.6764
  942MOL0     C29923  10.012   5.487  11.047 -0.4630  0.0058  0.9554
  942MOL0     C29924  10.280   5.052  10.362 -0.9933 -0.9507 -0.4897
  942MOL0     C29925  10.390   4.990  10.287  0.4877 -0.2913 -0.4024
  942MOL0     C29926  10.371   4.935  10.145 -0.6753  0.5315 -0.3905
  942MOL0     H29927  10.708   4.802   9.979  1.3737 -1.2007 -1.4035
  942MOL0     H29928  10.918   4.700   9.902 -0.9998  0.1903 -0.4756
  942MOL0     H29929  11.170   4.714   9.905 -1.1351  0.4635  0.3210
  942MOL0     H29930  11.305   4.637   9.997  0.8170 -1.5871  3.2812
  942MOL0     H29931  11.165   4.887  10.077 -0.5767 -0.5141 -5.7891
  942MOL0     H29932  11.286   4.792  10.183 -0.7089  0.4042 -0.2116
  942MOL0     H29933  11.468   4.867  10.046 -0.1145  4.6788  3.0423
  942MOL0     H29934  11.348   4.878   9.913  1.0305  2.8971 -0.7828
  942MOL0     H29935  11.441   5.100  10.005 -0.7688  1.3918  0.5832
  942MOL0     H29936  11.264   5.076  10.013 -1.9955 -1.3543  3.1181
  942MOL0     H29937  11.471   5.047  10.231 -0.9864  0.1738 -0.4885
  942MOL0     H29938  11.295   5.048  10.255  1.3617 -1.6129  1.5107
  942MOL0     H29939  11.439   5.303  10.156 -2.4617  3.6360 -1.4847
  942MOL0     H29940  11.275   5.276  10.160 -0.9076  1.4979  2.9964
  942MOL0     H29941  11.285   5.247  10.409  0.3004 -1.3067  2.3167
  942MOL0     H29942  11.366   5.391  10.339  0.2174  0.6978  0.3580
  942MOL0     H29943  11.488   5.138  10.458 -3.4092 -1.0042 -2.8435
  942MOL0     H29944  11.586   5.258  10.360  0.5300 -1.8374  0.8261
  942MOL0     H29945  11.333   5.323  10.666  0.4887 -2.5752 -1.5965
  942MOL0     H29946  11.364   5.618  10.756  0.6299 -0.6420  0.1131
  942MOL0     H29947  11.515   5.619  10.860 -1.6924  1.2901  1.9778
  942MOL0     H29948  11.287   5.437  10.909  1.5201 -0.0417 -0.4866
  942MOL0     H29949  11.448   5.422  10.979  0.5419  1.5894  1.9415
  942MOL0     H29950  11.435   5.635  11.081 -0.5265 -0.3228  0.7195
  942MOL0     H29951  11.301   5.670  10.990  4.4504  0.9870 -2.1209
  942MOL0     H29952  11.219   5.418  11.118  0.3325 -1.7509  3.9150
  942MOL0     H29953  11.337   5.497  11.231 -0.6502  0.1897  1.2414
  942MOL0     H29954  10.946   5.711  11.286 -3.2889 -1.5144 -3.9154
  942MOL0     H29955  10.720   5.680  11.524  0.4499  0.9287 -0.2636
  942MOL0     H29956  10.626   5.631  11.383  0.1122  0.0145  3.0229
  942MOL0     H29957  10.756   5.749  11.359 -1.1488  0.6115 -2.1441
  942MOL0     H29958  10.644   5.195  11.693 -0.7261 -0.0612 -2.8464
  942MOL0     H29959  10.457   5.111  11.863 -0.1942  0.7281  1.8952
  942MOL0     H29960  10.052   5.296  11.770  1.4877  1.0151 -0.3364
  942MOL0     H29961  10.048   5.117  11.729 -0.4914 -0.0826  1.1965
  942MOL0     H29962   9.876   5.169  11.879  0.0310  0.3007 -0.4120
  942MOL0     H29963  10.017   5.070  11.956  1.9917  0.4878 -0.1837
  942MOL0     H29964   9.942   5.364  12.002 -1.5456 -0.2652  0.1596
  942MOL0     H29965  10.093   5.289  12.067 -0.5896  2.6397 -0.8836
  942MOL0     H29966   9.927   5.121  12.179  2.4116  1.5737  0.0481
  942MOL0     H29967   9.794   5.205  12.093 -0.5523  0.7119  0.1025
  942MOL0     H29968   9.819   5.390  12.241 -1.6131  0.2752  1.2715
  942MOL0     H29969   9.798   5.228  12.326 -0.6575 -1.4384 -3.7260
  942MOL0     H29970  10.063   5.258  12.337  0.9609  0.4012 -1.6232
  942MOL0     H29971   9.961   5.347  12.449 -0.0349 -2.2490  0.4161
  942MOL0     H29972  10.008   5.559  12.353  4.1815  1.0370  0.8157
  942MOL0     H29973  10.046   5.496  12.194  1.3100  2.7755 -0.2409
  942MOL0     H29974  10.238   5.372  12.332  0.0386 -0.3965  2.6769
  942MOL0     H29975  10.205   5.484  12.458  0.7761  1.4090 -0.2047
  942MOL0     H29976  10.193   5.391  11.658 -1.0646 -1.0840  0.1688
  942MOL0     H29977  10.368   5.485  11.540 -2.1900  1.3163  2.4901
  942MOL0     H29978  10.963   5.248  11.429  1.6035 -0.5779 -1.2692
  942MOL0     H29979  11.167   5.357  11.329  0.2406  0.9046  0.0092
  942MOL0     H29980  11.003   4.594  10.303 -0.3161 -1.9057 -0.3780
  942MOL0     H29981  10.795   4.716  10.374 -1.7204  1.6626 -1.1640
  942MOL0     H29982  10.619   4.981  10.531  1.7293  1.7809 -0.6428
  942MOL0     H29983  10.461   5.081  10.661  2.7457  0.7830 -1.2688
  942MOL0     H29984  10.047   5.181  10.431 -4.5765  1.7813  0.2150
  942MOL0     H29985  10.024   5.070  10.578  2.2732 -1.1173 -0.3845
  942MOL0     H29986   9.911   5.308  10.566  1.4411 -1.2906 -0.8386
  942MOL0     H29987  10.070   5.376  10.539  0.5067 -0.9879 -0.2786
  942MOL0     H29988   9.964   5.238  10.785 -0.8110  1.2966  0.5436
  942MOL0     H29989  10.130   5.306  10.780 -1.0451  0.5325  0.1061
  942MOL0     H29990   9.869   5.475  10.755  0.4447  3.1404  0.3792
  942MOL0     H29991  10.019   5.541  10.738 -2.2473 -0.1132  0.2422
  942MOL0     H29992  10.053   5.496  11.145  3.3756  0.7383 -0.5377
  942MOL0     H29993  10.183   5.072  10.316 -1.7413  0.6205  1.5843
  942MOL0     H29994  10.465   4.931  10.088 -0.6980 -4.3822 -0.5156
  942MOL0     H29995  10.345   4.829  10.151  1.7108 -0.0770  0.6225
  942MOL0     H29996  10.283   4.973  10.093 -2.3527 -3.3483 -0.7530
  943MOL0     O29997  10.818   7.744   9.271 -0.2300  0.2029 -0.0588
  943MOL0     C29998  10.925   7.787   9.279  0.5838  0.2674  0.3356
  943MOL0     O29999  11.035   7.712   9.300 -0.4725 -0.3646 -0.5061
  943MOL0     C30000  11.028   7.594   9.372 -0.2074  0.4932 -1.3922
  943MOL0     C30001  11.084   7.474   9.332  0.6952 -0.6278  0.1299
  943MOL0     C30002  11.072   7.362   9.406  0.1855 -0.9993  0.3144
  943MOL0     C30003  10.996   7.355   9.523 -0.0207 -0.0934 -0.0563
  943MOL0     O30004  10.971   7.242   9.599 -0.5276 -0.1119  0.4540
  943MOL0     C30005  11.087   7.168   9.653 -0.3246 -0.1311 -0.3889
  943MOL0     C30006  11.147   7.255   9.765  0.2252 -0.8503  0.1437
  943MOL0     C30007  11.238   7.179   9.863 -0.8886  0.2247  0.8606
  943MOL0     C30008  11.169   7.079   9.937  0.0034  1.1190 -0.3676
  943MOL0     C30009  11.266   7.013  10.042 -1.4576  0.3680 -0.5040
  943MOL0     C30010  11.305   7.092  10.167 -0.5414  0.9219  0.1701
  943MOL0     C30011  11.389   7.012  10.264 -0.5977  0.0435 -0.1890
  943MOL0     C30012  11.315   6.886  10.322 -0.2681 -0.1887 -0.5213
  943MOL0     N30013  11.384   6.842  10.445  0.3006 -0.2367 -0.1364
  943MOL0     C30014  11.487   6.751  10.428 -0.0205  0.5273 -0.1877
  943MOL0     C30015  11.511   6.727  10.558 -0.3050  0.1822  0.5656
  943MOL0     C30016  11.615   6.627  10.615 -0.6142 -0.1649 -0.1914
  943MOL0     C30017  11.758   6.676  10.609 -0.6203  0.2560  0.6073
  943MOL0     C30018  11.818   6.753  10.733  0.3528  0.0884  0.0568
  943MOL0     C30019  11.962   6.752  10.764  0.2178 -0.2075 -0.1289
  943MOL0     O30020  12.000   6.624  10.814  0.1683 -0.5571 -0.5273
  943MOL0     C30021  12.112   6.601  10.886 -1.6348  0.0442 -1.3301
  943MOL0     C30022  12.145   6.470  10.905 -0.3983 -0.6496 -0.1816
  943MOL0     C30023  12.259   6.442  10.987  1.2041  0.1101 -0.6934
  943MOL0     C30024  12.302   6.300  11.008  0.1642  0.1021  0.4581
  943MOL0     C30025  12.346   6.538  11.033  0.2957  0.4475 -1.0528
  943MOL0     C30026  12.478   6.503  11.105  0.3921  0.8564  0.1151
  943MOL0     O30027  12.592   6.578  11.076 -0.2178  0.2854 -0.7121
  943MOL0     C30028  12.696   6.564  11.168 -0.3246  0.0861  0.5640
  943MOL0     C30029  12.825   6.514  11.133  0.0476  0.0795 -0.3243
  943MOL0     C30030  12.936   6.565  11.195  0.6153  0.2410 -0.4620
  943MOL0     C30031  12.929   6.619  11.325  0.7881 -0.6017 -0.9122
  943MOL0     O30032  13.036   6.639  11.414  0.4999 -0.2153 -0.2361
  943MOL0     C30033  13.163   6.613  11.356  0.4502 -0.4616 -0.1225
  943MOL0     C30034  13.284   6.653  11.442 -0.2393 -0.1509  0.2456
  943MOL0     C30035  13.306   6.553  11.550 -0.1591 -1.1842  0.7467
  943MOL0     C30036  13.412   6.594  11.657  0.5416 -0.4686  0.2588
  943MOL0     C30037  13.498   6.466  11.686 -0.1965  0.2923  0.3301
  943MOL0     C30038  13.599   6.396  11.584 -0.5397  0.8351  0.2842
  943MOL0     C30039  13.622   6.233  11.595  0.0705 -0.5898 -0.6388
  943MOL0     C30040  13.687   6.181  11.728  0.7604  0.6774 -0.2126
  943MOL0    Cl30041  13.855   6.238  11.725  0.0530 -0.5064  0.0229
  943MOL0     C30042  12.804   6.648  11.377  0.1542 -0.1407  0.0316
  943MOL0     C30043  12.687   6.623  11.296  0.2985  0.6457  0.4797
  943MOL0     O30044  12.475   6.420  11.192  0.2447  0.5215  0.1191
  943MOL0     C30045  12.311   6.667  11.003 -0.3041  0.2229 -0.3021
  943MOL0     C30046  12.199   6.700  10.932  0.3139  0.1529 -0.0527
  943MOL0     N30047  11.427   6.787  10.649  0.1276 -0.4024  0.1449
  943MOL0     N30048  11.348   6.862  10.579  0.6609 -0.2426 -0.9450
  943MOL0     C30049  10.939   7.471   9.567 -1.2397 -0.1698 -0.1894
  943MOL0     C30050  10.956   7.591   9.494 -0.4132 -0.1801  0.6211
  943MOL0     C30051  10.936   7.935   9.237 -0.3108  1.0993 -0.1815
  943MOL0     C30052  10.814   8.000   9.201 -0.0462  0.2557  0.8631
  943MOL0     C30053  10.815   8.141   9.171  0.0918 -0.1492 -0.6475
  943MOL0     C30054  10.933   8.212   9.196 -0.0984  0.1883  0.5905
  943MOL0     O30055  10.940   8.351   9.178  0.6258  1.3091  0.0912
  943MOL0     C30056  10.853   8.405   9.078 -0.9495  0.5724  0.1417
  943MOL0     C30057  10.890   8.556   9.073  0.1633  0.3507  0.0157
  943MOL0     C30058  11.025   8.599   9.012  0.5546 -0.0389 -0.0620
  943MOL0     C30059  11.051   8.744   8.982 -0.3332  0.6454  0.2917
  943MOL0     C30060  10.961   8.781   8.870  0.6682 -0.2686 -0.5181
  943MOL0     C30061  10.893   8.821   8.780  0.3947  0.0860 -0.6463
  943MOL0     C30062  11.054   8.143   9.229  1.4673 -0.4599 -0.5764
  943MOL0     C30063  11.059   8.006   9.252 -0.0657 -0.3138  0.1861
  943MOL0     C30064  11.191   7.952   9.281 -0.8971  0.6223 -0.7477
  943MOL0     H30065  11.155   7.482   9.250  3.1451  1.4479  2.2413
  943MOL0     H30066  11.137   7.280   9.378 -0.1201 -1.4467  0.8967
  943MOL0     H30067  11.159   7.143   9.575 -2.1303 -3.2258 -1.2372
  943MOL0     H30068  11.041   7.072   9.679  0.5109 -0.2321  0.8236
  943MOL0     H30069  11.207   7.332   9.716 -2.4460  2.0522  1.1321
  943MOL0     H30070  11.065   7.304   9.817 -1.1199 -1.6312 -1.1766
  943MOL0     H30071  11.322   7.142   9.803 -2.2868  2.5048 -2.8416
  943MOL0     H30072  11.293   7.250   9.926  3.0977  1.4800 -3.3889
  943MOL0     H30073  11.084   7.117   9.994  1.4407  4.2001 -0.0591
  943MOL0     H30074  11.122   6.997   9.883  0.0415 -0.6636  2.1221
  943MOL0     H30075  11.356   6.979   9.990 -0.4430 -1.3529  2.1702
  943MOL0     H30076  11.211   6.926  10.079  0.5266 -1.5766 -1.8579
  943MOL0     H30077  11.366   7.180  10.144  2.1792  0.0854  3.4578
  943MOL0     H30078  11.226   7.131  10.231  0.1728  1.8041  0.5438
  943MOL0     H30079  11.422   7.079  10.344  2.5709  0.2913 -1.5481
  943MOL0     H30080  11.485   6.990  10.216 -0.2396  1.3967 -0.1473
  943MOL0     H30081  11.210   6.910  10.344 -0.3990 -0.8948 -0.3471
  943MOL0     H30082  11.311   6.797  10.258 -0.0123 -2.2809  2.1767
  943MOL0     H30083  11.540   6.712  10.342  0.3531 -0.2126  0.3544
  943MOL0     H30084  11.601   6.533  10.561  0.2699 -0.4012 -0.0245
  943MOL0     H30085  11.605   6.605  10.722  0.4094 -0.2461 -0.1003
  943MOL0     H30086  11.809   6.581  10.590 -1.2729  0.3158 -1.7847
  943MOL0     H30087  11.775   6.745  10.526 -3.5411  3.5268  2.4704
  943MOL0     H30088  11.788   6.857  10.722  1.9085  0.4629 -1.0549
  943MOL0     H30089  11.767   6.705  10.817 -0.3259 -0.8361 -0.8527
  943MOL0     H30090  12.034   6.787  10.690  0.0476  1.4229  0.4275
  943MOL0     H30091  11.970   6.821  10.849  0.7614 -2.5705  1.8343
  943MOL0     H30092  12.091   6.393  10.852 -2.6996  0.1462  0.8943
  943MOL0     H30093  12.256   6.272  11.104 -1.0259  1.6993  0.3957
  943MOL0     H30094  12.409   6.279  11.010  0.0647 -0.5725  3.0928
  943MOL0     H30095  12.257   6.243  10.926  2.2585  1.3458 -1.6670
  943MOL0     H30096  12.841   6.448  11.049  0.4748  0.4024 -0.4985
  943MOL0     H30097  13.033   6.552  11.149  0.1680 -1.0658 -1.0853
  943MOL0     H30098  13.183   6.506  11.351  1.3445 -0.2974 -0.2091
  943MOL0     H30099  13.166   6.667  11.261  2.6703  0.5076  0.4437
  943MOL0     H30100  13.371   6.652  11.375  1.3618 -1.1424  2.2238
  943MOL0     H30101  13.256   6.749  11.486 -2.0096 -0.9305  0.9213
  943MOL0     H30102  13.340   6.467  11.492 -0.9384 -1.1474  0.2285
  943MOL0     H30103  13.212   6.526  11.600 -1.8330  1.0288 -0.9821
  943MOL0     H30104  13.365   6.624  11.751  3.5697  1.2778  1.3738
  943MOL0     H30105  13.470   6.680  11.621  1.9383 -0.4137  2.4223
  943MOL0     H30106  13.555   6.501  11.773  2.5145  1.2153 -1.6925
  943MOL0     H30107  13.424   6.398  11.728 -1.1435  3.0626  3.6352
  943MOL0     H30108  13.698   6.442  11.586 -1.6003  3.2648  0.7673
  943MOL0     H30109  13.567   6.422  11.483  0.1362 -0.0913 -0.1893
  943MOL0     H30110  13.697   6.229  11.515  0.7961 -3.1021  0.0533
  943MOL0     H30111  13.534   6.173  11.570 -0.7198  1.3137 -2.6978
  943MOL0     H30112  13.674   6.072  11.726  0.4165  0.6959  0.5688
  943MOL0     H30113  13.631   6.223  11.813 -0.4009  1.5212 -1.3537
  943MOL0     H30114  12.789   6.701  11.471 -2.4812  1.1578 -0.9834
  943MOL0     H30115  12.586   6.655  11.317 -1.2749 -1.8898 -2.5742
  943MOL0     H30116  12.376   6.749  11.033  0.0838 -0.6078  1.2017
  943MOL0     H30117  12.170   6.803  10.916  0.5955  0.1241 -0.8068
  943MOL0     H30118  10.883   7.470   9.660  2.8918 -1.5297  2.6009
  943MOL0     H30119  10.900   7.678   9.528 -1.4604  0.5498 -2.5992
  943MOL0     H30120  10.715   7.956   9.201 -0.3072  0.8445  0.8525
  943MOL0     H30121  10.722   8.189   9.144 -1.2192 -1.0938  1.8669
  943MOL0     H30122  10.862   8.347   8.986 -0.4078 -2.0487  1.7595
  943MOL0     H30123  10.747   8.401   9.108 -0.1057 -1.7019  3.4082
  943MOL0     H30124  10.869   8.606   9.168 -3.4907  1.1573 -1.0479
  943MOL0     H30125  10.812   8.586   9.002  1.4136 -1.0254 -2.0585
  943MOL0     H30126  11.107   8.556   9.071  1.2359  0.1839 -0.8218
  943MOL0     H30127  11.029   8.546   8.916 -1.6586  0.0230 -0.2351
  943MOL0     H30128  11.157   8.762   8.957  0.4421  0.5667  3.1869
  943MOL0     H30129  11.036   8.811   9.067  1.4923  0.8432  0.5132
  943MOL0     H30130  10.826   8.865   8.709 -1.1991  4.0200  2.9039
  943MOL0     H30131  11.142   8.206   9.238 -0.2076  1.7560  1.7350
  943MOL0     H30132  11.221   7.875   9.210 -0.6850 -2.2609  2.2146
  943MOL0     H30133  11.269   8.029   9.281 -2.2425  2.0561  0.3700
  943MOL0     H30134  11.196   7.908   9.381  2.5833  1.1988 -0.5484
  944MOL0     O30135  11.348  10.976   2.090 -1.2633 -1.1886  0.5566
  944MOL0     C30136  11.318  11.074   2.023 -0.0390  0.0653  0.5424
  944MOL0     O30137  11.185  11.108   1.983  0.1195  0.1530  0.4762
  944MOL0     C30138  11.076  11.066   2.063 -0.5614  0.6416  0.0955
  944MOL0     C30139  10.948  11.100   2.009  0.3147  0.1146 -0.3863
  944MOL0     C30140  10.830  11.097   2.086 -0.3850 -0.0806  0.7268
  944MOL0     C30141  10.842  11.044   2.220 -0.4140 -0.7867  0.9024
  944MOL0     O30142  10.727  11.029   2.284 -0.0847 -0.4053 -0.3125
  944MOL0     C30143  10.735  11.053   2.422  0.1991  0.9263  0.7486
  944MOL0     C30144  10.601  11.119   2.473 -0.6361 -0.4107  0.4842
  944MOL0     C30145  10.610  11.276   2.473 -0.3057 -0.0406  0.4575
  944MOL0     C30146  10.513  11.341   2.575  0.9638 -1.0253 -1.3558
  944MOL0     C30147  10.532  11.496   2.584  0.3625  0.2480 -0.2978
  944MOL0     C30148  10.464  11.574   2.706 -0.8883 -0.8348 -0.2622
  944MOL0     C30149  10.539  11.530   2.839  0.2490  0.3503  0.2976
  944MOL0     C30150  10.655  11.617   2.878  0.1615 -0.1727  0.4194
  944MOL0     N30151  10.630  11.726   2.983  0.2710  0.3996  0.0811
  944MOL0     C30152  10.651  11.703   3.118 -0.3413 -0.8067  0.2128
  944MOL0     C30153  10.646  11.827   3.169 -0.2791 -0.1758  0.0832
  944MOL0     C30154  10.610  11.861   3.311 -0.0920  0.2673 -1.1571
  944MOL0     C30155  10.456  11.865   3.343  0.7494  0.1519  0.7340
  944MOL0     C30156  10.444  11.937   3.476 -0.2451 -0.7008  0.6994
  944MOL0     C30157  10.292  11.948   3.501 -0.3096  0.4958  0.1232
  944MOL0     O30158  10.231  11.817   3.519 -0.0779 -0.7009  0.5510
  944MOL0     C30159  10.099  11.787   3.482  0.2335  0.0402  0.6931
  944MOL0     C30160  10.071  11.655   3.456  0.3896  0.1649  0.3852
  944MOL0     C30161   9.937  11.624   3.417 -0.5456  0.7909  0.2024
  944MOL0     C30162   9.925  11.472   3.402 -0.2154  0.6417 -0.2006
  944MOL0     C30163   9.844  11.721   3.383  0.0356  0.2044 -0.9383
  944MOL0     C30164   9.720  11.703   3.310 -0.3541  0.4505 -0.4562
  944MOL0     O30165   9.705  11.583   3.246  0.1202 -0.5036  0.4297
  944MOL0     C30166   9.604  11.553   3.158 -0.9009  0.3785 -0.3469
  944MOL0     C30167   9.528  11.646   3.084 -0.7597 -0.5528 -0.6378
  944MOL0     C30168   9.437  11.603   2.984 -0.1335  0.1671 -0.7507
  944MOL0     C30169   9.407  11.467   2.961 -0.1804 -0.2681  0.1722
  944MOL0     O30170   9.304  11.414   2.884  1.1390 -0.0688  0.0364
  944MOL0     C30171   9.279  11.476   2.756  0.7440 -0.0391 -0.3278
  944MOL0     C30172   9.316  11.375   2.646 -0.0510  0.7331 -0.2788
  944MOL0     C30173   9.463  11.330   2.640  0.5934  0.4658 -0.0829
  944MOL0     C30174   9.556  11.452   2.642  0.7023 -1.0488 -0.6810
  944MOL0     C30175   9.695  11.411   2.588 -0.1156  0.1624  0.7841
  944MOL0     C30176   9.707  11.400   2.432  1.2025  0.3786 -0.5140
  944MOL0     C30177   9.838  11.330   2.397  0.8013  0.9475  0.0976
  944MOL0     C30178   9.860  11.304   2.243  1.3043  0.8592 -0.4484
  944MOL0    Cl30179   9.765  11.179   2.163  0.0395  0.5589 -0.2283
  944MOL0     C30180   9.486  11.376   3.040  0.3605  0.1250  0.3851
  944MOL0     C30181   9.588  11.414   3.136 -0.0261 -0.1023 -0.0869
  944MOL0     O30182   9.642  11.793   3.316  0.5814 -0.2399  0.6780
  944MOL0     C30183   9.876  11.850   3.433  0.5288  0.1938  0.1991
  944MOL0     C30184   9.998  11.881   3.492  0.1918 -0.6021 -0.4995
  944MOL0     N30185  10.630  11.917   3.063 -0.9008 -0.1416  0.3736
  944MOL0     N30186  10.617  11.855   2.950 -1.5527 -0.0593 -0.1938
  944MOL0     C30187  10.966  11.014   2.272  0.8342  0.1863  0.2973
  944MOL0     C30188  11.078  11.030   2.198 -1.1443 -0.3780  0.2450
  944MOL0     C30189  11.425  11.144   1.954  0.9462  1.4031  0.1764
  944MOL0     C30190  11.553  11.083   1.951 -0.1569  0.4324  0.7879
  944MOL0     C30191  11.659  11.139   1.879 -0.0727 -0.2188 -0.5781
  944MOL0     C30192  11.647  11.266   1.819 -0.4476  0.1457  0.1558
  944MOL0     O30193  11.746  11.341   1.762  0.3918 -0.9562  0.0927
  944MOL0     C30194  11.880  11.303   1.739 -0.7408 -0.1794  1.0187
  944MOL0     C30195  11.939  11.421   1.669  0.5375  0.2076 -0.2999
  944MOL0     C30196  11.916  11.552   1.741  0.0869 -1.1391  0.4115
  944MOL0     C30197  11.956  11.680   1.654 -0.6626 -0.3587  0.4917
  944MOL0     C30198  12.097  11.711   1.685 -0.5094  0.3842  0.9695
  944MOL0     C30199  12.211  11.762   1.706 -0.1844 -0.8304  0.0438
  944MOL0     C30200  11.530  11.334   1.841  0.1591  0.8794 -0.1183
  944MOL0     C30201  11.421  11.275   1.900  0.6129  1.2295 -1.0935
  944MOL0     C30202  11.295  11.356   1.914  0.7045  0.9148  0.7110
  944MOL0     H30203  10.952  11.139   1.907  2.4968  1.4525  0.1442
  944MOL0     H30204  10.736  11.127   2.040 -0.4926  1.0644  1.6427
  944MOL0     H30205  10.808  11.132   2.440 -1.5607  3.4803 -2.2176
  944MOL0     H30206  10.754  10.963   2.481 -4.6141  1.6025  3.9075
  944MOL0     H30207  10.508  11.092   2.422 -0.4112  1.5511 -1.1046
  944MOL0     H30208  10.593  11.078   2.574 -1.9309  1.7533  1.3425
  944MOL0     H30209  10.714  11.304   2.490  0.4188 -0.9940 -1.9736
  944MOL0     H30210  10.585  11.322   2.377 -1.3373  1.4215  1.3841
  944MOL0     H30211  10.411  11.331   2.536  0.1544  4.4275 -1.3374
  944MOL0     H30212  10.529  11.281   2.665  0.6068  1.4281  0.4306
  944MOL0     H30213  10.486  11.535   2.492 -0.6633  1.3427  0.6434
  944MOL0     H30214  10.636  11.528   2.588  1.3369 -1.8776 -4.0140
  944MOL0     H30215  10.473  11.681   2.687  0.4477 -0.3536  2.5312
  944MOL0     H30216  10.362  11.542   2.729 -0.2897 -0.1615  4.3190
  944MOL0     H30217  10.576  11.427   2.837 -0.0711  0.1966  1.3779
  944MOL0     H30218  10.473  11.541   2.926  0.1855  2.2526  0.0619
  944MOL0     H30219  10.742  11.557   2.906 -0.6008 -1.6084 -0.1337
  944MOL0     H30220  10.686  11.666   2.785 -1.7175  0.0040 -0.1604
  944MOL0     H30221  10.647  11.610   3.174  1.7775 -1.5032 -0.6618
  944MOL0     H30222  10.660  11.956   3.333 -1.8139  0.7648  0.9399
  944MOL0     H30223  10.658  11.790   3.379 -0.1240  0.3426 -1.0565
  944MOL0     H30224  10.413  11.933   3.268  0.8365 -1.8563 -1.2420
  944MOL0     H30225  10.406  11.771   3.316  1.7590  0.0729 -1.0277
  944MOL0     H30226  10.510  11.912   3.560  1.7164  1.9772  0.1222
  944MOL0     H30227  10.479  12.039   3.458 -0.9933 -0.3556  1.1435
  944MOL0     H30228  10.279  11.989   3.602 -1.6617 -1.1565  0.6781
  944MOL0     H30229  10.243  12.024   3.439  2.2103  1.6577 -0.5780
  944MOL0     H30230  10.140  11.572   3.461 -1.8051 -1.7057  3.9794
  944MOL0     H30231   9.836  11.419   3.437  2.4059 -2.8196  1.7865
  944MOL0     H30232   9.994  11.416   3.465  0.0331 -0.2092 -1.2070
  944MOL0     H30233   9.954  11.450   3.299  1.3797  2.5827 -0.2300
  944MOL0     H30234   9.567  11.747   3.078 -0.8850 -0.4756 -0.2057
  944MOL0     H30235   9.388  11.665   2.909  1.3758  0.7720 -1.2719
  944MOL0     H30236   9.173  11.502   2.752  0.8442  0.5387  0.6753
  944MOL0     H30237   9.332  11.570   2.740  0.1691  0.1534 -1.1770
  944MOL0     H30238   9.259  11.282   2.653  2.4063 -0.7581  5.2322
  944MOL0     H30239   9.284  11.419   2.551  0.5669 -1.4995 -1.5808
  944MOL0     H30240   9.487  11.279   2.546  1.7748 -0.0761  0.4943
  944MOL0     H30241   9.475  11.260   2.723 -1.8241  0.9082  0.7138
  944MOL0     H30242   9.542  11.481   2.747 -3.7345 -1.0360 -1.0835
  944MOL0     H30243   9.506  11.533   2.588 -1.7889 -1.9409  0.1417
  944MOL0     H30244   9.766  11.490   2.614  2.1822 -2.1968  2.2437
  944MOL0     H30245   9.734  11.320   2.635  0.2824 -0.4804 -0.7278
  944MOL0     H30246   9.696  11.499   2.388  0.7912  1.1986  1.3331
  944MOL0     H30247   9.630  11.330   2.398 -0.5760  0.7978  2.3405
  944MOL0     H30248   9.864  11.240   2.454  3.6568  3.4912  3.2083
  944MOL0     H30249   9.904  11.408   2.434  0.1119  0.6281  2.1552
  944MOL0     H30250   9.961  11.272   2.216  0.2850 -1.2753 -1.9739
  944MOL0     H30251   9.825  11.396   2.196  0.1522  0.5267 -0.2693
  944MOL0     H30252   9.456  11.272   3.045  1.3759 -0.1877  0.2525
  944MOL0     H30253   9.635  11.336   3.193 -0.8145  0.2018  1.0152
  944MOL0     H30254   9.801  11.929   3.433 -0.7503 -0.9984  0.2132
  944MOL0     H30255  10.015  11.985   3.517 -2.3322 -0.3987  0.6688
  944MOL0     H30256  10.980  10.984   2.375  0.2240  2.0843  0.9801
  944MOL0     H30257  11.169  11.017   2.256 -2.2805 -1.2732  1.9300
  944MOL0     H30258  11.571  10.990   2.004  1.7060  0.4519  0.2493
  944MOL0     H30259  11.754  11.088   1.864 -0.6146 -0.6873 -2.7772
  944MOL0     H30260  11.930  11.283   1.834  0.0484 -0.1672  0.6143
  944MOL0     H30261  11.880  11.215   1.674 -2.1480  0.9130 -0.5387
  944MOL0     H30262  11.894  11.423   1.570 -0.3783  0.7157  0.1137
  944MOL0     H30263  12.047  11.416   1.654  0.5521 -1.1373  0.0850
  944MOL0     H30264  11.808  11.572   1.743  0.1318  0.8981 -4.4855
  944MOL0     H30265  11.975  11.555   1.833  1.2992  1.9377 -0.3397
  944MOL0     H30266  11.896  11.770   1.675 -0.7660 -0.5061  0.8480
  944MOL0     H30267  11.929  11.646   1.554 -2.4159 -1.3567  1.2504
  944MOL0     H30268  12.304  11.805   1.737 -0.1261 -0.2382 -0.9178
  944MOL0     H30269  11.525  11.437   1.808  2.3224  1.2153  0.4735
  944MOL0     H30270  11.296  11.449   1.856 -2.2529  0.0029 -1.0236
  944MOL0     H30271  11.215  11.298   1.866 -1.2740  2.2303  2.2647
  944MOL0     H30272  11.265  11.370   2.018 -0.0356  5.5724  0.0866
  945MOL0     O30273   8.462   0.973   6.958 -0.6310 -0.7022 -0.2962
  945MOL0     C30274   8.481   0.884   7.040  0.1872  0.6035 -0.8679
  945MOL0     O30275   8.457   0.748   7.026 -0.1579  0.8090  0.8146
  945MOL0     C30276   8.375   0.712   6.913  0.2407  0.1745  0.4173
  945MOL0     C30277   8.396   0.590   6.846  0.4045  0.0860  0.5104
  945MOL0     C30278   8.317   0.542   6.738 -0.0456  0.3837 -0.0636
  945MOL0     C30279   8.217   0.622   6.686 -0.1551  0.3390 -0.4111
  945MOL0     O30280   8.145   0.590   6.576  0.5480 -0.1451 -0.5672
  945MOL0     C30281   8.127   0.459   6.539  0.1710  0.1316  0.0499
  945MOL0     C30282   8.055   0.462   6.405 -1.2215 -0.3886 -0.2416
  945MOL0     C30283   8.017   0.325   6.335  0.3497 -1.1680  0.4037
  945MOL0     C30284   8.143   0.241   6.301 -0.4436 -0.4069  1.0195
  945MOL0     C30285   8.097   0.099   6.276 -0.5121 -0.1521 -0.5904
  945MOL0     C30286   8.003   0.081   6.148  0.1253  1.0154  1.4451
  945MOL0     C30287   7.924  -0.046   6.148  0.4926  0.3869 -0.0595
  945MOL0     C30288   7.800  -0.035   6.241 -0.2599 -0.4168 -0.5015
  945MOL0     N30289   7.677   0.031   6.189 -0.6726 -0.6529  1.6699
  945MOL0     C30290   7.603  -0.018   6.090 -0.2724  0.2689  0.5526
  945MOL0     C30291   7.490   0.054   6.089  0.4015 -0.0559  0.1315
  945MOL0     C30292   7.375   0.044   5.982  0.1018 -0.2831 -0.0862
  945MOL0     C30293   7.332  -0.108   5.950 -0.3598 -0.1627 -1.3455
  945MOL0     C30294   7.211  -0.153   6.034  0.7397 -0.0884  0.7170
  945MOL0     C30295   7.140  -0.279   5.986  1.1128  0.8309 -1.1306
  945MOL0     O30296   7.233  -0.389   5.964  0.1511  0.2890 -0.2224
  945MOL0     C30297   7.191  -0.521   5.981  0.6137 -0.4323  0.0184
  945MOL0     C30298   7.062  -0.570   6.031 -0.0520 -0.1033  0.1603
  945MOL0     C30299   7.030  -0.707   6.038  0.6825 -0.9625  0.1582
  945MOL0     C30300   6.896  -0.728   6.098 -0.4037 -0.8653 -0.0186
  945MOL0     C30301   7.124  -0.806   6.005  0.1869  0.8405 -0.2494
  945MOL0     C30302   7.106  -0.952   6.008  0.4873  0.3021  0.3446
  945MOL0     O30303   7.202  -1.034   5.954 -0.8389 -0.0006 -0.4705
  945MOL0     C30304   7.176  -1.160   5.925  0.4004  0.2741  0.3079
  945MOL0     C30305   7.151  -1.196   5.791  0.0111  0.1741  0.8374
  945MOL0     C30306   7.109  -1.331   5.764 -0.3373  0.0509 -0.5709
  945MOL0     C30307   7.101  -1.425   5.872  0.7437 -0.4718  0.1889
  945MOL0     O30308   7.071  -1.559   5.840 -0.2472 -0.4493 -0.2788
  945MOL0     C30309   7.138  -1.633   5.741 -0.2212  0.3222  0.0390
  945MOL0     C30310   7.055  -1.661   5.609 -0.4664  0.0748  0.3702
  945MOL0     C30311   6.940  -1.758   5.644 -0.4351 -0.2687  0.2568
  945MOL0     C30312   6.849  -1.767   5.522  0.1759 -0.1345 -0.3262
  945MOL0     C30313   6.765  -1.897   5.522  0.4625  0.0061 -0.3796
  945MOL0     C30314   6.849  -2.028   5.481  0.1196 -0.0375 -0.4666
  945MOL0     C30315   6.767  -2.160   5.503  0.4780 -0.4010  0.8152
  945MOL0     C30316   6.724  -2.233   5.372  0.2034 -0.8856  0.7568
  945MOL0    Cl30317   6.587  -2.149   5.282 -0.2450  0.2384  0.4772
  945MOL0     C30318   7.140  -1.390   5.995  0.6142  0.0114 -0.4267
  945MOL0     C30319   7.181  -1.260   6.026  0.7323 -0.1282 -0.8462
  945MOL0     O30320   7.012  -1.001   6.062  0.7212  0.1502 -0.9480
  945MOL0     C30321   7.252  -0.755   5.973 -0.1462 -0.8657 -0.4682
  945MOL0     C30322   7.283  -0.622   5.964 -0.5980  0.5208  0.0367
  945MOL0     N30323   7.500   0.148   6.198  0.1667 -0.0141  0.0581
  945MOL0     N30324   7.611   0.132   6.254 -0.3829 -0.5587  0.6352
  945MOL0     C30325   8.207   0.749   6.741  0.3031  0.3242  0.1111
  945MOL0     C30326   8.281   0.790   6.853  0.5576 -0.1476 -0.6362
  945MOL0     C30327   8.553   0.922   7.170 -0.6275 -0.4861 -0.4835
  945MOL0     C30328   8.496   0.884   7.291  0.1434 -0.0895  0.2613
  945MOL0     C30329   8.562   0.913   7.413 -0.0416 -0.4033 -0.7141
  945MOL0     C30330   8.686   0.967   7.422 -0.2516  0.1442 -0.2633
  945MOL0     O30331   8.723   1.022   7.545  0.1896 -0.8212  0.3126
  945MOL0     C30332   8.856   1.005   7.591 -0.0597  0.2708  1.1320
  945MOL0     C30333   8.890   1.130   7.674  0.8423 -0.2590 -0.1904
  945MOL0     C30334   9.008   1.102   7.778  0.0401  0.4629  0.9582
  945MOL0     C30335   9.044   1.228   7.855 -0.2896  0.4662 -0.1611
  945MOL0     C30336   9.172   1.213   7.933 -0.0634  0.5423 -0.9233
  945MOL0     C30337   9.284   1.209   7.984  0.7821  0.1069 -0.2828
  945MOL0     C30338   8.748   1.010   7.304  0.5986  0.1509  0.9406
  945MOL0     C30339   8.684   0.979   7.175 -0.0292 -0.1218 -0.6918
  945MOL0     C30340   8.754   1.019   7.053  0.4108  0.0168  0.4015
  945MOL0     H30341   8.471   0.521   6.885  1.9299  0.4547 -1.5626
  945MOL0     H30342   8.344   0.452   6.684 -4.2573 -0.4279 -1.1451
  945MOL0     H30343   8.076   0.397   6.612  1.2566 -0.0218  0.7032
  945MOL0     H30344   8.224   0.414   6.517  0.1222  0.6486 -1.4001
  945MOL0     H30345   7.965   0.521   6.422 -2.1568 -1.7947 -0.0898
  945MOL0     H30346   8.127   0.506   6.336 -0.3443 -0.1857  0.7705
  945MOL0     H30347   7.956   0.258   6.396 -1.0685 -0.5413 -0.2739
  945MOL0     H30348   7.952   0.356   6.253  0.0001  0.2663  1.1779
  945MOL0     H30349   8.197   0.282   6.215 -2.3389 -0.6339 -0.3347
  945MOL0     H30350   8.204   0.233   6.391  1.4550 -1.3251 -0.3033
  945MOL0     H30351   8.051   0.062   6.368  1.4763 -0.2577  0.4069
  945MOL0     H30352   8.183   0.032   6.271  1.2329  1.8826  0.6389
  945MOL0     H30353   7.939   0.170   6.150  0.7590  1.4826  3.5704
  945MOL0     H30354   8.065   0.082   6.058  0.8464 -1.0059  1.8640
  945MOL0     H30355   7.982  -0.126   6.194 -0.9192 -0.0759  1.0246
  945MOL0     H30356   7.893  -0.081   6.049  2.1181 -2.1738  0.2501
  945MOL0     H30357   7.776  -0.137   6.269  1.3343 -0.9314 -0.8912
  945MOL0     H30358   7.833   0.015   6.332  3.8238 -3.4847 -0.0113
  945MOL0     H30359   7.629  -0.104   6.028 -2.3056 -2.3983  3.1221
  945MOL0     H30360   7.409   0.085   5.886 -0.8126 -0.2678 -0.4141
  945MOL0     H30361   7.290   0.106   6.010  0.5921 -0.4505  1.9038
  945MOL0     H30362   7.303  -0.117   5.845 -0.6000  0.8414 -1.3734
  945MOL0     H30363   7.414  -0.178   5.967  1.3016  1.8053 -0.8890
  945MOL0     H30364   7.232  -0.163   6.141 -5.8154 -2.3050  2.2232
  945MOL0     H30365   7.134  -0.076   6.019  2.1596  1.0091 -1.5366
  945MOL0     H30366   7.066  -0.309   6.060  0.0237 -0.2382 -2.5877
  945MOL0     H30367   7.083  -0.256   5.895  3.0411  0.1650 -2.5901
  945MOL0     H30368   6.982  -0.500   6.055 -0.0526 -0.4851  1.3133
  945MOL0     H30369   6.857  -0.830   6.097 -0.5091 -0.8655  1.6117
  945MOL0     H30370   6.823  -0.660   6.054  1.8066  2.8320  1.5364
  945MOL0     H30371   6.899  -0.699   6.203 -0.0554  0.9000 -0.4700
  945MOL0     H30372   7.141  -1.130   5.705 -0.5106  1.3385  1.7611
  945MOL0     H30373   7.081  -1.352   5.661 -2.3508  2.0496 -0.5165
  945MOL0     H30374   7.234  -1.588   5.713 -0.4005 -0.1979 -1.5246
  945MOL0     H30375   7.162  -1.733   5.777  0.6995  1.4339  2.7251
  945MOL0     H30376   7.022  -1.574   5.552  0.9181  0.2236 -0.2435
  945MOL0     H30377   7.123  -1.706   5.536 -3.8583 -0.2651 -2.9029
  945MOL0     H30378   6.874  -1.714   5.719 -0.1084 -0.1592  0.4819
  945MOL0     H30379   6.987  -1.849   5.682  1.0982  1.3509  2.5609
  945MOL0     H30380   6.916  -1.759   5.436  2.6377 -0.3753  1.4650
  945MOL0     H30381   6.782  -1.680   5.525  1.9732  1.3904 -1.8296
  945MOL0     H30382   6.735  -1.904   5.627 -3.0079 -0.7042 -1.2918
  945MOL0     H30383   6.672  -1.888   5.465 -0.9954 -0.4752  1.7992
  945MOL0     H30384   6.933  -2.038   5.550 -0.5512 -0.6101  0.2802
  945MOL0     H30385   6.890  -2.020   5.380  0.2893 -0.6221 -0.4448
  945MOL0     H30386   6.672  -2.142   5.554 -2.4575 -2.6098 -3.2611
  945MOL0     H30387   6.836  -2.233   5.546  0.6563 -0.4354  0.4734
  945MOL0     H30388   6.698  -2.334   5.402  1.9628 -2.5399 -2.6805
  945MOL0     H30389   6.808  -2.255   5.305  0.2351  1.7196 -0.2161
  945MOL0     H30390   7.140  -1.453   6.083  0.3826  2.3377  1.3173
  945MOL0     H30391   7.213  -1.242   6.128 -0.1649 -1.5298 -0.2865
  945MOL0     H30392   7.340  -0.810   5.943 -0.1353 -0.0619 -1.9865
  945MOL0     H30393   7.383  -0.609   5.924  0.7260  1.5611  3.3039
  945MOL0     H30394   8.129   0.812   6.698 -0.6525 -2.2002 -2.1392
  945MOL0     H30395   8.244   0.881   6.899  0.8719 -0.8939  1.1800
  945MOL0     H30396   8.391   0.859   7.294 -0.5365  2.6197  2.5892
  945MOL0     H30397   8.498   0.901   7.501  1.5762  0.0070  0.5693
  945MOL0     H30398   8.850   0.916   7.653  0.7790 -1.2049 -0.7916
  945MOL0     H30399   8.924   0.993   7.506 -1.8829 -0.1108 -0.3305
  945MOL0     H30400   8.803   1.154   7.735  0.0499 -0.2035 -1.3089
  945MOL0     H30401   8.916   1.213   7.607  2.6834 -1.2472 -0.7733
  945MOL0     H30402   8.983   1.026   7.853  1.8375  1.9070  3.1487
  945MOL0     H30403   9.101   1.081   7.725 -1.1339  2.8710 -2.3852
  945MOL0     H30404   8.962   1.247   7.925 -0.3336  0.7845 -0.2925
  945MOL0     H30405   9.050   1.317   7.790 -1.8661  0.2235 -0.6854
  945MOL0     H30406   9.381   1.211   8.028  0.6691 -1.8528  0.1711
  945MOL0     H30407   8.844   1.061   7.313  1.3159 -1.3246  1.9447
  945MOL0     H30408   8.722   1.117   7.018  3.0872  0.4458 -1.0917
  945MOL0     H30409   8.862   1.024   7.069  0.4669  0.1250  0.0043
  945MOL0     H30410   8.720   0.955   6.971 -0.8274  0.0849  0.8398
  946MOL0     O30411   4.198   1.981   9.171 -0.1918  0.2311  0.5426
  946MOL0     C30412   4.235   1.979   9.057 -0.1632 -0.2138  0.1216
  946MOL0     O30413   4.318   2.079   9.009  0.2162  0.7771  0.1739
  946MOL0     C30414   4.406   2.141   9.093 -0.1289  1.2995  0.1775
  946MOL0     C30415   4.510   2.058   9.153  0.0528 -0.5520 -0.2910
  946MOL0     C30416   4.594   2.108   9.254 -1.1063 -0.3315  0.1614
  946MOL0     C30417   4.584   2.245   9.294 -0.6309  0.3216  0.9221
  946MOL0     O30418   4.642   2.297   9.411 -0.8012 -0.0568 -0.0835
  946MOL0     C30419   4.750   2.216   9.468 -1.0252 -0.8684 -0.1153
  946MOL0     C30420   4.831   2.303   9.568 -0.0484  0.3432  0.6212
  946MOL0     C30421   4.900   2.412   9.496 -0.1522  0.1474 -0.5825
  946MOL0     C30422   4.946   2.529   9.587 -0.3788  0.2285  0.0533
  946MOL0     C30423   5.049   2.484   9.685  0.6340  0.4589  0.3542
  946MOL0     C30424   5.118   2.606   9.751 -0.4835 -0.1328  0.1416
  946MOL0     C30425   5.235   2.558   9.847  0.4249  0.0276 -0.2616
  946MOL0     C30426   5.356   2.530   9.758  0.8600  0.2039 -0.4323
  946MOL0     N30427   5.471   2.474   9.834  0.3870  0.3744  0.4141
  946MOL0     C30428   5.591   2.420   9.785 -0.5758  0.0914  0.0268
  946MOL0     C30429   5.666   2.386   9.892  0.1213 -0.3040  0.3344
  946MOL0     C30430   5.804   2.335   9.884  0.1936 -0.5268 -0.4507
  946MOL0     C30431   5.883   2.355  10.021  0.3482  0.7744  0.1582
  946MOL0     C30432   6.013   2.284  10.000  0.2366 -0.8188 -0.1717
  946MOL0     C30433   6.123   2.305  10.101  0.0415  0.2777 -0.4381
  946MOL0     O30434   6.244   2.246  10.068  0.4439  0.1223  0.3501
  946MOL0     C30435   6.338   2.257  10.165 -0.6479 -0.3857 -0.1961
  946MOL0     C30436   6.471   2.299  10.135 -0.7277  0.1200 -0.1540
  946MOL0     C30437   6.570   2.306  10.236  0.1360  0.7370 -1.2628
  946MOL0     C30438   6.710   2.357  10.214  0.6962 -1.2662  0.0278
  946MOL0     C30439   6.535   2.272  10.367 -0.0211  0.6090 -1.0467
  946MOL0     C30440   6.633   2.252  10.477  0.3017  0.0883  0.2419
  946MOL0     O30441   6.713   2.346  10.515  0.3823  0.2957 -0.2751
  946MOL0     C30442   6.825   2.320  10.589 -0.1016  0.6256 -0.0239
  946MOL0     C30443   6.833   2.210  10.687 -1.2916  0.7779 -0.8656
  946MOL0     C30444   6.947   2.202  10.766  0.5536  0.3518 -0.2470
  946MOL0     C30445   7.054   2.284  10.746 -0.7707  0.3471  0.5881
  946MOL0     O30446   7.149   2.278  10.837 -0.0505  0.1419 -0.4190
  946MOL0     C30447   7.264   2.355  10.829 -0.0744  0.1800  1.3689
  946MOL0     C30448   7.366   2.330  10.939  0.3909  0.6903  0.0416
  946MOL0     C30449   7.307   2.379  11.087  0.0802  0.3159 -0.6501
  946MOL0     C30450   7.414   2.346  11.192  0.4856 -0.3106  0.0231
  946MOL0     C30451   7.352   2.389  11.335 -0.1827 -0.1383 -1.1465
  946MOL0     C30452   7.452   2.334  11.436  0.5023  0.0923 -0.4055
  946MOL0     C30453   7.411   2.354  11.581 -0.4777  1.6346 -0.5382
  946MOL0     C30454   7.261   2.310  11.613 -0.7588 -0.3588  0.8371
  946MOL0    Cl30455   7.220   2.360  11.780  0.1988 -0.1778 -0.5959
  946MOL0     C30456   7.050   2.384  10.650 -0.1948 -0.4953 -0.4360
  946MOL0     C30457   6.933   2.398  10.576 -0.0671  0.3294  0.4440
  946MOL0     O30458   6.648   2.130  10.502 -0.0509  0.1503  1.0048
  946MOL0     C30459   6.402   2.233  10.393 -0.0821 -0.7177  1.2277
  946MOL0     C30460   6.305   2.218  10.295 -0.2758  0.2564 -0.4451
  946MOL0     N30461   5.588   2.410  10.009  0.9429 -0.1694 -0.6103
  946MOL0     N30462   5.475   2.475   9.975  0.3673 -0.7065 -0.6717
  946MOL0     C30463   4.492   2.325   9.217  0.0613 -0.6988  0.3846
  946MOL0     C30464   4.391   2.266   9.128 -0.3405 -0.7457 -0.4282
  946MOL0     C30465   4.178   1.876   8.953  0.1650 -0.0186  0.1314
  946MOL0     C30466   4.227   1.886   8.814 -0.2324 -0.3703  0.8204
  946MOL0     C30467   4.177   1.792   8.724 -0.1544 -0.1154  0.5741
  946MOL0     C30468   4.088   1.686   8.765 -0.9022 -0.6367  0.9836
  946MOL0     O30469   4.042   1.595   8.679  0.9408 -0.0602  0.9366
  946MOL0     C30470   4.117   1.493   8.627 -0.0371 -0.0088 -0.6750
  946MOL0     C30471   4.266   1.535   8.578 -0.5172 -0.3027 -0.3900
  946MOL0     C30472   4.370   1.537   8.691  1.1593  0.6445  0.5748
  946MOL0     C30473   4.503   1.597   8.641 -0.3442  0.0404  0.3743
  946MOL0     C30474   4.589   1.660   8.749  0.3417  0.2909 -0.3613
  946MOL0     C30475   4.645   1.697   8.849  0.6584 -0.7551  0.2500
  946MOL0     C30476   4.040   1.683   8.894 -0.0669 -0.0362  0.3097
  946MOL0     C30477   4.089   1.771   8.991 -0.3023 -0.3150 -0.1825
  946MOL0     C30478   4.042   1.739   9.138  0.0007  0.1652  0.4865
  946MOL0     H30479   4.514   1.951   9.135  0.8127 -0.2866 -1.7803
  946MOL0     H30480   4.669   2.049   9.308 -2.1924 -1.2661  0.6935
  946MOL0     H30481   4.812   2.188   9.382 -0.9485 -0.6619 -0.1269
  946MOL0     H30482   4.701   2.133   9.520 -4.0068  2.5459  3.1735
  946MOL0     H30483   4.758   2.341   9.641 -0.9745  2.9415 -1.5075
  946MOL0     H30484   4.902   2.242   9.624 -2.9111 -1.4289  2.6319
  946MOL0     H30485   4.992   2.378   9.449  0.4794  0.0505  0.6756
  946MOL0     H30486   4.840   2.454   9.415 -0.7456  3.6552  1.4761
  946MOL0     H30487   4.995   2.595   9.515  1.0120 -3.0814 -2.3195
  946MOL0     H30488   4.862   2.578   9.637 -1.6193  1.6999 -3.1556
  946MOL0     H30489   5.117   2.427   9.621 -0.2412  0.0464 -0.2219
  946MOL0     H30490   5.014   2.419   9.767  0.6288  1.5106  1.2050
  946MOL0     H30491   5.159   2.666   9.670  1.9987 -1.7322  0.1154
  946MOL0     H30492   5.059   2.683   9.802  1.6684  1.5676  0.1802
  946MOL0     H30493   5.212   2.473   9.912 -0.7406 -1.4099 -2.4357
  946MOL0     H30494   5.258   2.638   9.918 -2.0226 -0.1894  0.9003
  946MOL0     H30495   5.325   2.459   9.681 -3.8170  1.6893 -0.1966
  946MOL0     H30496   5.375   2.632   9.725 -0.5174  1.3213  1.9463
  946MOL0     H30497   5.619   2.404   9.681 -0.3738  0.4393  0.0270
  946MOL0     H30498   5.861   2.383   9.804 -0.0854 -0.0318 -0.3563
  946MOL0     H30499   5.790   2.233   9.848 -2.9029  0.1133 -1.4007
  946MOL0     H30500   5.891   2.459  10.053 -1.2804  0.5640  1.3874
  946MOL0     H30501   5.834   2.311  10.109  2.1409 -2.1776 -0.1874
  946MOL0     H30502   5.988   2.178   9.991  0.9149 -0.9206 -1.0441
  946MOL0     H30503   6.065   2.312   9.907 -0.4722 -3.2744 -1.4037
  946MOL0     H30504   6.134   2.412  10.124 -1.9650  0.1012  1.7999
  946MOL0     H30505   6.075   2.270  10.193  1.7936  1.2796  0.9170
  946MOL0     H30506   6.475   2.332  10.032 -1.3337 -1.7636 -0.8253
  946MOL0     H30507   6.784   2.295  10.265  0.7633 -1.3784 -0.2029
  946MOL0     H30508   6.714   2.454  10.264 -2.9936 -1.0744  0.1529
  946MOL0     H30509   6.736   2.367  10.108  1.5686  1.5964  0.4233
  946MOL0     H30510   6.761   2.132  10.708 -0.4352  0.7317  2.3062
  946MOL0     H30511   6.955   2.131  10.848 -0.7827  2.2137  1.6003
  946MOL0     H30512   7.310   2.342  10.731 -1.9414  0.3790  0.4164
  946MOL0     H30513   7.241   2.461  10.842  2.6664  0.7911  1.7622
  946MOL0     H30514   7.384   2.222  10.928 -1.1745  0.5771 -2.5061
  946MOL0     H30515   7.459   2.381  10.913 -0.4674  1.8066 -1.0101
  946MOL0     H30516   7.217   2.322  11.109 -1.0146  2.0879 -0.3855
  946MOL0     H30517   7.296   2.487  11.085 -1.0620  0.2063 -1.7461
  946MOL0     H30518   7.504   2.403  11.170 -1.7676  2.8332 -1.8537
  946MOL0     H30519   7.433   2.238  11.197  2.0245 -0.0706 -0.2406
  946MOL0     H30520   7.339   2.498  11.336 -2.7490 -0.3786 -0.2782
  946MOL0     H30521   7.255   2.339  11.344  1.7463 -4.3800 -1.7944
  946MOL0     H30522   7.545   2.388  11.414 -1.8707  4.4174 -0.7651
  946MOL0     H30523   7.477   2.228  11.424  3.5516  0.5629  0.7989
  946MOL0     H30524   7.416   2.461  11.603  3.4088  1.7239 -1.2115
  946MOL0     H30525   7.482   2.307  11.648 -2.0090  0.2018  0.1462
  946MOL0     H30526   7.253   2.203  11.593  0.0318 -0.8344  2.8865
  946MOL0     H30527   7.194   2.372  11.552 -1.3950 -0.4893  1.3947
  946MOL0     H30528   7.131   2.457  10.645  0.5591 -1.3937 -3.3184
  946MOL0     H30529   6.930   2.477  10.502  1.3115  1.9849  2.0583
  946MOL0     H30530   6.377   2.205  10.495 -0.7986  0.2697  1.3374
  946MOL0     H30531   6.208   2.177  10.322 -0.2753 -2.2222 -3.6399
  946MOL0     H30532   4.493   2.430   9.245 -3.0031 -0.7445  0.9312
  946MOL0     H30533   4.320   2.332   9.078  1.3650  2.0736  0.6653
  946MOL0     H30534   4.301   1.956   8.777  0.4767 -2.4109 -1.9329
  946MOL0     H30535   4.200   1.810   8.620  2.4804  0.8998  1.2493
  946MOL0     H30536   4.121   1.416   8.705  3.0475 -0.6748 -1.3520
  946MOL0     H30537   4.068   1.447   8.541 -2.0896 -0.5778  0.6945
  946MOL0     H30538   4.277   1.630   8.524 -0.8823 -0.1807 -0.2516
  946MOL0     H30539   4.294   1.468   8.497  0.2555 -0.4522 -0.0139
  946MOL0     H30540   4.331   1.594   8.776 -1.1484  1.4687 -0.9539
  946MOL0     H30541   4.389   1.434   8.724  1.2413  1.0901  1.9945
  946MOL0     H30542   4.500   1.668   8.558  2.0116 -0.6448 -0.3784
  946MOL0     H30543   4.567   1.516   8.604 -2.7587 -0.2869 -3.6624
  946MOL0     H30544   4.690   1.739   8.937 -0.8008 -0.0307  0.6741
  946MOL0     H30545   3.974   1.601   8.919  1.7969 -0.9882  2.4140
  946MOL0     H30546   3.953   1.800   9.152  0.0842  1.0638 -2.3019
  946MOL0     H30547   4.036   1.630   9.147  1.2654 -0.0113 -0.4414
  946MOL0     H30548   4.118   1.761   9.214  2.0820 -2.8090 -0.5237
  947MOL0     O30549   8.461   7.692  10.422 -0.2226  0.4635  0.1918
  947MOL0     C30550   8.369   7.626  10.382 -0.6822  0.2544 -0.3388
  947MOL0     O30551   8.245   7.624  10.439  0.7044  0.3312  1.4266
  947MOL0     C30552   8.234   7.674  10.564 -0.4306 -0.5129 -0.2039
  947MOL0     C30553   8.149   7.784  10.583  0.2711 -0.0038 -0.4209
  947MOL0     C30554   8.125   7.838  10.713  0.4279  0.7969 -0.0080
  947MOL0     C30555   8.193   7.791  10.820 -0.1546 -0.3719 -0.0263
  947MOL0     O30556   8.184   7.829  10.952  0.2657  0.1883 -1.0494
  947MOL0     C30557   8.078   7.920  10.977 -0.0300 -0.7005 -0.2295
  947MOL0     C30558   8.089   7.972  11.123  0.4989 -0.3251  1.6985
  947MOL0     C30559   7.987   8.078  11.174  0.5776 -0.8431  0.7568
  947MOL0     C30560   8.002   8.136  11.311  1.0739 -0.1858 -0.4656
  947MOL0     C30561   7.903   8.240  11.362  0.7867  0.1167 -0.5484
  947MOL0     C30562   7.742   8.220  11.345 -0.7658  0.7726 -0.2805
  947MOL0     C30563   7.655   8.302  11.428 -1.2811 -0.6426  0.8747
  947MOL0     C30564   7.503   8.261  11.417  0.8174  0.6658  0.2883
  947MOL0     N30565   7.408   8.381  11.425 -0.7662  0.5088 -0.1573
  947MOL0     C30566   7.404   8.476  11.325  0.3745 -0.0488 -0.1814
  947MOL0     C30567   7.306   8.562  11.375  0.2653  0.4925  1.1496
  947MOL0     C30568   7.229   8.651  11.287 -0.4450  0.5088 -0.9959
  947MOL0     C30569   7.222   8.790  11.355 -0.5605  0.4737 -0.2795
  947MOL0     C30570   7.156   8.888  11.257 -0.3357 -0.4267 -0.0288
  947MOL0     C30571   7.099   9.000  11.341  0.4370  0.3587 -0.8861
  947MOL0     O30572   7.199   9.075  11.407 -0.2486 -0.1025 -0.5485
  947MOL0     C30573   7.156   9.177  11.485  0.3492 -0.0046 -0.2177
  947MOL0     C30574   7.031   9.245  11.468  0.1434 -0.4794 -0.8340
  947MOL0     C30575   6.999   9.351  11.545 -0.6454  0.2447 -0.0319
  947MOL0     C30576   6.883   9.435  11.511 -0.2518  0.1168  0.0177
  947MOL0     C30577   7.094   9.400  11.635 -0.0154  0.1211  0.4997
  947MOL0     C30578   7.060   9.523  11.714 -0.1555  0.0853  0.1061
  947MOL0     O30579   7.173   9.596  11.758 -0.3599 -0.4547 -0.0180
  947MOL0     C30580   7.143   9.655  11.874  0.0953 -1.1038 -0.0347
  947MOL0     C30581   7.125   9.585  11.999  1.3467 -0.2736  0.0252
  947MOL0     C30582   7.107   9.649  12.117  1.1541 -0.1606 -0.5034
  947MOL0     C30583   7.105   9.805  12.117 -0.0630  0.5558 -1.0058
  947MOL0     O30584   7.109   9.874  12.231  0.5414 -0.9392  0.0439
  947MOL0     C30585   7.082   9.812  12.361  0.1563  0.2636  0.2273
  947MOL0     C30586   6.942   9.774  12.384  1.2274 -0.4571 -0.5446
  947MOL0     C30587   6.853   9.898  12.400  0.3643  0.0476  0.5979
  947MOL0     C30588   6.711   9.859  12.427 -0.1369 -0.2076  0.5519
  947MOL0     C30589   6.616   9.979  12.394  0.5613  0.3609  0.3202
  947MOL0     C30590   6.486   9.977  12.485  0.2449 -0.6789  0.3110
  947MOL0     C30591   6.412  10.101  12.470  0.0357 -0.4042 -0.2820
  947MOL0     C30592   6.491  10.212  12.533  0.1230 -0.1021 -0.0562
  947MOL0    Cl30593   6.390  10.357  12.528 -0.4363 -0.4360 -1.1748
  947MOL0     C30594   7.121   9.872  11.994 -0.7848 -0.4631  0.4305
  947MOL0     C30595   7.133   9.796  11.874  0.0981 -0.3453  0.4485
  947MOL0     O30596   6.946   9.533  11.763  0.2838 -0.0410 -0.5512
  947MOL0     C30597   7.223   9.341  11.649 -0.2100  0.0059 -0.0400
  947MOL0     C30598   7.242   9.229  11.576  0.3075  0.5556  0.1806
  947MOL0     N30599   7.274   8.534  11.507  0.0827 -0.2628  0.3809
  947MOL0     N30600   7.338   8.425  11.535  0.8679  0.8354 -0.2630
  947MOL0     C30601   8.285   7.685  10.803 -0.0493  0.4249  0.6491
  947MOL0     C30602   8.311   7.632  10.672  0.6075  0.4107  0.0791
  947MOL0     C30603   8.395   7.544  10.260  0.6797  0.0994 -0.3377
  947MOL0     C30604   8.380   7.409  10.264 -0.5165 -0.1035  0.5108
  947MOL0     C30605   8.426   7.335  10.160 -0.7834 -0.4584 -0.1942
  947MOL0     C30606   8.486   7.389  10.047 -0.1704  0.4782  0.0278
  947MOL0     O30607   8.528   7.293   9.951 -0.2493  0.3386 -0.3415
  947MOL0     C30608   8.603   7.329   9.834 -0.1245  0.6213  0.1598
  947MOL0     C30609   8.671   7.200   9.786  0.0650  0.0453 -0.9843
  947MOL0     C30610   8.723   7.201   9.644 -0.5668 -0.3031 -0.7856
  947MOL0     C30611   8.777   7.067   9.581 -0.3677 -0.2109  0.5942
  947MOL0     C30612   8.877   6.995   9.662 -0.0812  0.3561  1.1891
  947MOL0     C30613   8.955   6.933   9.730  0.3526 -0.0395 -0.7245
  947MOL0     C30614   8.498   7.529  10.043 -0.2020 -0.3540 -0.8078
  947MOL0     C30615   8.454   7.608  10.148  0.0566 -0.1947  0.4689
  947MOL0     C30616   8.497   7.755  10.157  0.3134 -0.3287  1.2926
  947MOL0     H30617   8.094   7.825  10.499  0.0812  0.3647 -0.1228
  947MOL0     H30618   8.069   7.930  10.723 -0.4109  0.3815 -0.7692
  947MOL0     H30619   7.977   7.880  10.967 -0.5466  0.6134 -0.4584
  947MOL0     H30620   8.077   8.001  10.903 -1.3821 -0.5563 -0.0699
  947MOL0     H30621   8.088   7.886  11.191  2.2001 -1.0511  0.8730
  947MOL0     H30622   8.189   8.017  11.123  0.2303  0.4719 -0.8444
  947MOL0     H30623   8.000   8.162  11.106  0.1600 -2.9986 -2.2039
  947MOL0     H30624   7.880   8.059  11.171  0.2335  1.0848 -0.9179
  947MOL0     H30625   7.986   8.053  11.381 -0.2990  0.3338 -0.1279
  947MOL0     H30626   8.103   8.177  11.318  0.8851  0.0538  1.2913
  947MOL0     H30627   7.922   8.339  11.318  0.6606  0.8984  1.0946
  947MOL0     H30628   7.928   8.251  11.468  1.0232 -0.3556 -0.5544
  947MOL0     H30629   7.715   8.250  11.243  1.0284 -0.3713 -1.1599
  947MOL0     H30630   7.724   8.116  11.372 -0.4587  0.7848 -0.0159
  947MOL0     H30631   7.658   8.409  11.408 -0.8198 -0.6182  1.0579
  947MOL0     H30632   7.692   8.299  11.531  1.1489 -1.8471  0.0692
  947MOL0     H30633   7.488   8.233  11.313 -1.2039  1.0971  0.4312
  947MOL0     H30634   7.476   8.178  11.483  3.5842 -1.8724 -1.5032
  947MOL0     H30635   7.453   8.486  11.229 -2.7804  0.9242 -1.8313
  947MOL0     H30636   7.130   8.605  11.282 -0.0524 -0.6778  1.2304
  947MOL0     H30637   7.270   8.667  11.187 -2.4843  0.4301 -1.9054
  947MOL0     H30638   7.163   8.780  11.447 -2.3507 -3.2345 -1.6539
  947MOL0     H30639   7.324   8.821  11.380 -0.2371  0.8372 -1.9738
  947MOL0     H30640   7.229   8.923  11.184 -0.4787  1.8404  0.8340
  947MOL0     H30641   7.076   8.848  11.195 -1.4754  0.0323  1.0931
  947MOL0     H30642   7.031   9.057  11.275 -0.4935 -1.2340 -1.3661
  947MOL0     H30643   7.034   8.954  11.416  0.8177  0.7726 -0.2952
  947MOL0     H30644   6.951   9.209  11.404 -0.5670 -4.6543  1.9927
  947MOL0     H30645   6.841   9.416  11.412  1.8054  0.0372 -0.8943
  947MOL0     H30646   6.903   9.543  11.502 -0.2178 -0.0826 -3.5317
  947MOL0     H30647   6.805   9.406  11.582 -0.6177 -0.8043 -0.7427
  947MOL0     H30648   7.125   9.477  11.989  0.3923 -0.2680 -0.0715
  947MOL0     H30649   7.116   9.584  12.204  2.7158 -4.1670 -3.3104
  947MOL0     H30650   7.143   9.724  12.380 -2.0024 -1.8128 -1.7404
  947MOL0     H30651   7.109   9.885  12.437 -1.4643 -0.9457  2.0589
  947MOL0     H30652   6.902   9.706  12.308  0.0644  1.0386 -1.3171
  947MOL0     H30653   6.933   9.726  12.482 -1.1576  2.1554  0.6539
  947MOL0     H30654   6.860   9.962  12.312 -0.3002 -0.3193  0.2681
  947MOL0     H30655   6.876   9.950  12.493 -0.0031 -0.3455  0.9140
  947MOL0     H30656   6.705   9.823  12.530 -2.3053 -0.7672  0.2910
  947MOL0     H30657   6.685   9.772  12.367 -2.0789  1.6082 -1.4204
  947MOL0     H30658   6.677  10.069  12.407 -0.3682  1.0790 -0.1283
  947MOL0     H30659   6.590   9.987  12.288  1.8810 -0.0684 -0.0634
  947MOL0     H30660   6.519   9.964  12.588  0.1329  0.4694  0.5070
  947MOL0     H30661   6.419   9.897  12.451 -1.2288 -0.1282  1.7574
  947MOL0     H30662   6.313  10.096  12.517 -0.0361  1.0257 -0.2383
  947MOL0     H30663   6.400  10.116  12.363  0.6019 -4.7783 -1.1535
  947MOL0     H30664   6.585  10.219  12.478  1.5134 -3.2262  1.6658
  947MOL0     H30665   6.514  10.190  12.638  1.3838  1.8132  0.1194
  947MOL0     H30666   7.139   9.979  11.992 -0.8706 -0.4520 -1.1068
  947MOL0     H30667   7.142   9.851  11.781 -1.1643 -0.4560  0.2374
  947MOL0     H30668   7.302   9.385  11.709 -0.8755 -0.7823  1.4655
  947MOL0     H30669   7.337   9.176  11.586 -0.3855 -0.7036  0.3053
  947MOL0     H30670   8.354   7.656  10.882  0.2903 -0.8726 -0.0900
  947MOL0     H30671   8.396   7.567  10.656  0.4043 -0.2496  1.5555
  947MOL0     H30672   8.326   7.358  10.343 -1.1353 -0.8013 -0.3479
  947MOL0     H30673   8.413   7.227  10.161  2.1991 -0.9575 -2.2387
  947MOL0     H30674   8.536   7.357   9.753  0.4183  0.5885 -0.3051
  947MOL0     H30675   8.666   7.416   9.856  1.4503  0.5090 -3.2849
  947MOL0     H30676   8.601   7.116   9.787  0.5245 -0.3732 -2.0653
  947MOL0     H30677   8.743   7.160   9.858 -0.2235  1.4471  0.1325
  947MOL0     H30678   8.641   7.231   9.578 -0.2528 -1.4090 -1.6958
  947MOL0     H30679   8.807   7.270   9.645  0.3320 -1.3191  1.5778
  947MOL0     H30680   8.821   7.097   9.486 -1.5998 -0.4503 -0.0652
  947MOL0     H30681   8.684   7.010   9.572 -1.0537  0.5260  2.4232
  947MOL0     H30682   8.996   6.871   9.807  1.1385 -1.1298 -1.9660
  947MOL0     H30683   8.524   7.586   9.955 -3.0297  2.4475 -0.0301
  947MOL0     H30684   8.521   7.790  10.057  0.4799 -4.2911 -0.2440
  947MOL0     H30685   8.408   7.811  10.187 -2.7479 -3.1267 -1.6237
  947MOL0     H30686   8.580   7.774  10.225  0.0376 -0.4408  1.6664
  948MOL0     O30687  11.283  10.350   5.382 -0.6137  0.7201 -0.2608
  948MOL0     C30688  11.210  10.328   5.484  0.4010 -0.5916  0.3675
  948MOL0     O30689  11.110  10.232   5.485 -0.0459  0.2906 -0.2248
  948MOL0     C30690  11.111  10.130   5.395  0.1593  0.4193 -0.3982
  948MOL0     C30691  10.993  10.086   5.341 -0.1500 -0.2533  0.6355
  948MOL0     C30692  10.993   9.975   5.252 -0.0349 -0.5487 -0.1343
  948MOL0     C30693  11.118   9.909   5.216  0.3517 -0.0630  1.5619
  948MOL0     O30694  11.104   9.796   5.140 -0.0086  0.2697 -0.2890
  948MOL0     C30695  11.208   9.755   5.049 -0.3358  0.7027  0.2314
  948MOL0     C30696  11.181   9.619   4.987 -0.3794  1.4427  0.0039
  948MOL0     C30697  11.180   9.522   5.101  0.0407 -0.4778  0.3796
  948MOL0     C30698  11.126   9.386   5.065 -0.3970  0.0533 -0.3564
  948MOL0     C30699  11.045   9.322   5.177  0.0863 -0.2209  0.7779
  948MOL0     C30700  10.977   9.202   5.122  0.5609 -0.2538  0.0169
  948MOL0     C30701  10.902   9.123   5.230 -0.1305  0.2381 -0.7238
  948MOL0     C30702  10.827   9.014   5.164 -0.1340 -0.9711 -0.5836
  948MOL0     N30703  10.902   8.921   5.090  0.2579 -0.8236 -0.0909
  948MOL0     C30704  10.867   8.868   4.968  1.4942  0.9886  0.3102
  948MOL0     C30705  10.943   8.748   4.961 -0.2747 -1.3117  0.2125
  948MOL0     C30706  10.942   8.664   4.842 -0.4871  0.4033  0.6135
  948MOL0     C30707  10.807   8.585   4.834  0.5119  0.4561  0.3068
  948MOL0     C30708  10.823   8.432   4.862  0.7289  0.3567  0.8000
  948MOL0     C30709  10.933   8.381   4.772 -0.2108 -0.5675 -0.6055
  948MOL0     O30710  10.896   8.250   4.732  0.2840  0.2626 -0.8090
  948MOL0     C30711  10.935   8.148   4.821 -0.2686 -0.7031 -0.5108
  948MOL0     C30712  10.903   8.017   4.795  0.1257 -0.9788  0.2912
  948MOL0     C30713  10.932   7.906   4.867  1.9143  0.5583  0.5371
  948MOL0     C30714  10.869   7.782   4.811  0.5858  0.9716 -0.0428
  948MOL0     C30715  11.024   7.918   4.970  0.3679  0.0019  0.9766
  948MOL0     C30716  11.078   7.798   5.043  0.1714  0.6810  0.1674
  948MOL0     O30717  11.107   7.822   5.180  0.0088 -0.3100 -0.0787
  948MOL0     C30718  11.152   7.717   5.255 -0.1841 -0.2169 -0.3112
  948MOL0     C30719  11.256   7.629   5.222 -0.1901 -0.1881  0.1020
  948MOL0     C30720  11.289   7.517   5.301  0.1680  0.3113 -0.5922
  948MOL0     C30721  11.236   7.493   5.423 -0.9421 -1.2432 -0.4666
  948MOL0     O30722  11.272   7.392   5.508 -0.1518 -0.3241 -0.2471
  948MOL0     C30723  11.374   7.285   5.474  0.8437 -0.4749 -0.7341
  948MOL0     C30724  11.373   7.179   5.585 -0.4293 -0.6917 -0.2585
  948MOL0     C30725  11.236   7.121   5.602  0.6940  0.2496 -0.1621
  948MOL0     C30726  11.249   7.039   5.737 -0.0852  0.0218 -0.3347
  948MOL0     C30727  11.118   6.964   5.777  0.3474  0.4405 -0.4958
  948MOL0     C30728  11.125   6.904   5.912 -0.0667 -0.2283  0.3019
  948MOL0     C30729  10.995   6.845   5.965  1.6235  0.8643 -0.2105
  948MOL0     C30730  11.034   6.781   6.101 -0.1177 -0.2674  0.1230
  948MOL0    Cl30731  11.000   6.902   6.226  0.2534  0.1252 -0.3098
  948MOL0     C30732  11.129   7.579   5.451  0.3447 -0.4243  0.7891
  948MOL0     C30733  11.090   7.688   5.375  0.6500  0.0805  0.5781
  948MOL0     O30734  11.089   7.688   4.991 -0.1845 -0.2388  0.3031
  948MOL0     C30735  11.058   8.045   5.009 -0.2763 -0.6757  1.0122
  948MOL0     C30736  11.017   8.154   4.942 -0.5241 -0.3360  0.6292
  948MOL0     N30737  11.002   8.729   5.076 -0.1873  0.3266  0.1014
  948MOL0     N30738  10.984   8.828   5.157  0.5539 -0.1012 -0.6154
  948MOL0     C30739  11.234   9.954   5.275  1.1629 -1.6715 -0.1539
  948MOL0     C30740  11.230  10.060   5.359 -0.4532  1.3075 -0.5173
  948MOL0     C30741  11.210  10.423   5.602  0.2833  0.7654 -0.2946
  948MOL0     C30742  11.097  10.417   5.684 -0.6580  0.0612 -0.7848
  948MOL0     C30743  11.090  10.511   5.787  0.8153 -0.1549 -0.4738
  948MOL0     C30744  11.186  10.609   5.805  0.8071 -0.0799 -0.4978
  948MOL0     O30745  11.167  10.702   5.899  0.9632 -0.5436 -0.1471
  948MOL0     C30746  11.118  10.828   5.840  0.7414  0.4159 -0.0907
  948MOL0     C30747  11.078  10.922   5.948  0.4131 -0.0254 -0.8508
  948MOL0     C30748  11.015  11.054   5.896 -0.0325 -0.4050  0.5280
  948MOL0     C30749  10.910  11.098   5.994  0.0391 -0.8802 -0.2181
  948MOL0     C30750  10.951  11.137   6.129  0.6449 -1.1118 -0.4472
  948MOL0     C30751  10.983  11.174   6.243 -0.0508  1.2233  0.4469
  948MOL0     C30752  11.300  10.607   5.722 -0.1998  0.6703  0.0367
  948MOL0     C30753  11.313  10.512   5.623  0.2699 -1.1775 -0.3373
  948MOL0     C30754  11.440  10.520   5.542 -0.2373  0.2570 -0.4763
  948MOL0     H30755  10.902  10.137   5.372 -1.1762  0.9727 -3.6391
  948MOL0     H30756  10.901   9.944   5.203 -2.2922 -1.0484  3.9606
  948MOL0     H30757  11.308   9.746   5.092 -0.1192 -2.3522 -0.6260
  948MOL0     H30758  11.218   9.817   4.959  1.8650  0.7890  0.5001
  948MOL0     H30759  11.084   9.607   4.938  0.1527 -1.5847 -0.4810
  948MOL0     H30760  11.259   9.599   4.913  0.1025  1.5502  0.4761
  948MOL0     H30761  11.288   9.521   5.116  0.4929  1.5394 -2.0876
  948MOL0     H30762  11.128   9.564   5.188 -0.1594  2.5319 -1.0535
  948MOL0     H30763  11.070   9.399   4.972  1.4986 -0.1279 -1.5864
  948MOL0     H30764  11.206   9.320   5.029  1.0386  2.6413 -2.2657
  948MOL0     H30765  10.975   9.399   5.210  0.8687  1.9534 -2.1512
  948MOL0     H30766  11.122   9.303   5.251  0.1255 -0.9663  0.5518
  948MOL0     H30767  10.900   9.239   5.054 -0.4929 -0.1152  1.2703
  948MOL0     H30768  11.054   9.144   5.069  0.0317  0.2430 -1.3498
  948MOL0     H30769  10.840   9.184   5.295  2.5729 -0.8658  3.2443
  948MOL0     H30770  10.974   9.072   5.295 -1.9286 -2.7392 -0.8802
  948MOL0     H30771  10.781   8.952   5.241 -3.5611 -0.7339 -2.2663
  948MOL0     H30772  10.757   9.072   5.103  2.1480  0.7236 -1.7617
  948MOL0     H30773  10.806   8.921   4.895  0.0974 -0.2180  0.5512
  948MOL0     H30774  11.036   8.608   4.839 -1.2083 -0.8394 -1.5868
  948MOL0     H30775  10.939   8.732   4.756 -0.2022  1.2421  1.2510
  948MOL0     H30776  10.735   8.618   4.909 -2.8058  1.3692 -2.9687
  948MOL0     H30777  10.741   8.597   4.747 -0.9266  2.3299  1.5824
  948MOL0     H30778  10.830   8.406   4.968  1.1680  0.9964  0.9328
  948MOL0     H30779  10.727   8.384   4.841  1.5861 -3.0063  3.6077
  948MOL0     H30780  10.944   8.445   4.684 -1.2448 -0.2607 -0.5187
  948MOL0     H30781  11.032   8.380   4.819  0.1388 -3.2673 -1.2291
  948MOL0     H30782  10.832   8.004   4.714 -2.2241  1.4806  1.7572
  948MOL0     H30783  10.764   7.806   4.797  0.3598  0.7594  1.1907
  948MOL0     H30784  10.878   7.706   4.889  1.0803  1.2029  0.1327
  948MOL0     H30785  10.914   7.753   4.715  2.3128  1.5782  0.5289
  948MOL0     H30786  11.323   7.659   5.142  0.1135  0.9860  0.7611
  948MOL0     H30787  11.369   7.452   5.268 -1.9381 -3.4578  1.0817
  948MOL0     H30788  11.357   7.235   5.378 -0.0024  1.5359 -1.6999
  948MOL0     H30789  11.475   7.327   5.473 -0.1271  2.1234  0.3167
  948MOL0     H30790  11.436   7.092   5.563 -0.2288 -0.7284  0.4316
  948MOL0     H30791  11.428   7.222   5.669  1.7262  0.2646 -2.0386
  948MOL0     H30792  11.217   7.052   5.519 -0.5060 -1.1692  1.2469
  948MOL0     H30793  11.152   7.191   5.606 -2.1200 -2.8953  0.5176
  948MOL0     H30794  11.268   7.110   5.818  3.9054  2.3435 -2.9423
  948MOL0     H30795  11.339   6.977   5.736  1.1462  1.3557  4.0868
  948MOL0     H30796  11.034   7.034   5.777 -0.7269 -0.7783  1.5889
  948MOL0     H30797  11.109   6.893   5.694 -1.2844  3.2118 -2.8866
  948MOL0     H30798  11.147   6.997   5.966 -1.6059  1.6131 -1.9958
  948MOL0     H30799  11.206   6.831   5.914  0.3091  0.0574 -1.9448
  948MOL0     H30800  10.948   6.770   5.900 -0.5832  1.4989  0.5865
  948MOL0     H30801  10.923   6.924   5.986 -0.5618 -1.2702  0.7851
  948MOL0     H30802  11.140   6.755   6.107  0.1598  0.8005  0.0654
  948MOL0     H30803  10.964   6.701   6.126 -1.4750  0.3337 -1.6273
  948MOL0     H30804  11.084   7.569   5.549 -1.7544  0.5485 -0.0235
  948MOL0     H30805  10.996   7.730   5.409  0.7491 -0.0777  1.0575
  948MOL0     H30806  11.113   8.051   5.103  0.3925  0.1350  0.5869
  948MOL0     H30807  11.056   8.248   4.978  0.0908 -0.9406  1.5797
  948MOL0     H30808  11.331   9.905   5.279  4.0371  3.3445 -1.0266
  948MOL0     H30809  11.320  10.083   5.416  0.7289 -0.5908 -1.5072
  948MOL0     H30810  11.018  10.343   5.678  0.6663 -1.9866  3.2706
  948MOL0     H30811  11.010  10.505   5.861  1.9786 -1.2594  0.7373
  948MOL0     H30812  11.201  10.867   5.780  2.0242 -0.4047  1.1128
  948MOL0     H30813  11.023  10.814   5.788 -0.9623  2.6410  2.1865
  948MOL0     H30814  11.159  10.950   6.017 -1.1316  0.5248  0.8180
  948MOL0     H30815  11.011  10.872   6.018  0.0816  1.2726 -0.2032
  948MOL0     H30816  11.098  11.124   5.886 -0.2909  0.0753  1.5357
  948MOL0     H30817  10.962  11.037   5.802 -0.3627 -0.1873  0.6734
  948MOL0     H30818  10.845  11.011   6.010  2.4482 -2.8608 -0.5474
  948MOL0     H30819  10.854  11.177   5.944  1.5999 -0.6764 -1.7254
  948MOL0     H30820  11.039  11.221   6.321  1.4174  0.2285  0.0198
  948MOL0     H30821  11.376  10.684   5.720  4.6566 -3.5364 -1.9198
  948MOL0     H30822  11.436  10.586   5.455 -1.8866 -1.3457 -1.7039
  948MOL0     H30823  11.518  10.549   5.613 -1.0274 -0.2999  0.6580
  948MOL0     H30824  11.468  10.423   5.499  1.3659  1.0752 -1.3790
  949MOL0     O30825   0.523   1.873   7.585 -0.6389 -0.0263  0.3153
  949MOL0     C30826   0.599   1.968   7.606 -1.6013  0.0251  0.4550
  949MOL0     O30827   0.729   1.985   7.559  0.7266 -0.1042  0.2553
  949MOL0     C30828   0.794   1.891   7.477  1.0577 -0.1512 -0.3699
  949MOL0     C30829   0.802   1.752   7.485  0.5379 -0.3496  0.1788
  949MOL0     C30830   0.870   1.680   7.393 -0.4132 -0.3183  0.4609
  949MOL0     C30831   0.944   1.749   7.290 -0.4126 -0.2876 -0.3600
  949MOL0     O30832   1.001   1.662   7.201 -0.2350  0.0015  1.4984
  949MOL0     C30833   1.090   1.727   7.104 -1.1901  0.0536  0.5140
  949MOL0     C30834   1.186   1.625   7.027  0.4324 -0.2224  0.3282
  949MOL0     C30835   1.263   1.535   7.132 -1.4491  0.1870  0.0448
  949MOL0     C30836   1.370   1.445   7.072 -0.1476 -0.2161 -0.1866
  949MOL0     C30837   1.452   1.360   7.178 -0.1046  0.6504 -0.5816
  949MOL0     C30838   1.565   1.267   7.113  0.1839  0.0575  0.3127
  949MOL0     C30839   1.686   1.322   7.024 -0.3493  0.3924  0.4071
  949MOL0     C30840   1.751   1.446   7.081  0.0953  1.0481 -0.1592
  949MOL0     N30841   1.808   1.413   7.209  0.0757  0.1826 -0.5007
  949MOL0     C30842   1.927   1.336   7.237 -0.1584 -1.1431  0.2184
  949MOL0     C30843   1.942   1.334   7.370 -0.1429  0.3341 -0.3778
  949MOL0     C30844   2.067   1.286   7.443  0.2569  0.1460  0.0112
  949MOL0     C30845   2.041   1.291   7.595  0.0639  0.1658 -0.2662
  949MOL0     C30846   2.163   1.228   7.654  0.6731 -0.1023 -0.4521
  949MOL0     C30847   2.124   1.189   7.797 -0.2457  0.1680  0.5384
  949MOL0     O30848   2.096   1.310   7.870 -0.2582 -0.0813  0.4550
  949MOL0     C30849   2.015   1.312   7.977 -0.5891  0.3882  0.1613
  949MOL0     C30850   1.982   1.199   8.052  0.3816 -0.4009 -1.5319
  949MOL0     C30851   1.889   1.205   8.157 -0.3926 -0.5030 -0.1053
  949MOL0     C30852   1.856   1.082   8.239 -0.1454  0.2757  0.3667
  949MOL0     C30853   1.821   1.331   8.193  0.1531  0.1134  0.0568
  949MOL0     C30854   1.738   1.361   8.301  0.4423  0.8532 -1.3129
  949MOL0     O30855   1.748   1.278   8.404  0.3375 -0.2313 -0.1614
  949MOL0     C30856   1.656   1.288   8.499  0.2822 -0.7485 -0.1411
  949MOL0     C30857   1.644   1.400   8.584  0.2185  0.2474  0.8675
  949MOL0     C30858   1.534   1.405   8.676  0.1495  0.2891  0.5497
  949MOL0     C30859   1.447   1.296   8.670  0.0962 -0.5267 -1.2146
  949MOL0     O30860   1.339   1.311   8.757  0.5616  0.3484  0.1043
  949MOL0     C30861   1.213   1.274   8.707 -0.6893 -0.5103  0.3197
  949MOL0     C30862   1.108   1.266   8.817 -0.9599  0.7695  0.3271
  949MOL0     C30863   1.139   1.140   8.903 -0.4903  0.2233 -0.8101
  949MOL0     C30864   1.034   1.137   9.020  0.0761  0.1997  0.6309
  949MOL0     C30865   1.088   1.170   9.160 -0.6544 -0.4075  0.7610
  949MOL0     C30866   1.156   1.047   9.219 -0.5856 -1.0253  0.0063
  949MOL0     C30867   1.272   1.089   9.314 -0.3191 -1.1824 -0.8458
  949MOL0     C30868   1.257   1.035   9.452 -0.0514  0.4042  0.3912
  949MOL0    Cl30869   1.123   1.112   9.517 -0.1861 -0.1026  0.1641
  949MOL0     C30870   1.464   1.182   8.580 -0.2218  0.2349  0.6207
  949MOL0     C30871   1.565   1.185   8.500  0.1762 -0.1867  0.4877
  949MOL0     O30872   1.663   1.457   8.294 -0.1822 -0.7575  0.5393
  949MOL0     C30873   1.853   1.436   8.107 -0.2755  0.3437 -0.5431
  949MOL0     C30874   1.946   1.424   8.004  0.1396  1.1031 -1.1817
  949MOL0     N30875   1.836   1.403   7.430 -0.6349  0.0678 -0.3168
  949MOL0     N30876   1.759   1.450   7.332  0.0379 -0.2270  0.3307
  949MOL0     C30877   0.934   1.890   7.292  0.2233  0.1497  0.5181
  949MOL0     C30878   0.863   1.959   7.380 -1.0596  0.2962 -0.2142
  949MOL0     C30879   0.560   2.084   7.697 -0.3286  0.4504  0.3955
  949MOL0     C30880   0.642   2.200   7.710  0.8684 -0.5636 -0.2514
  949MOL0     C30881   0.615   2.313   7.788  0.4381  0.5386 -0.2237
  949MOL0     C30882   0.498   2.323   7.862  0.1016  0.5240  0.1547
  949MOL0     O30883   0.453   2.426   7.939  0.3442 -0.2584 -0.7965
  949MOL0     C30884   0.530   2.550   7.952  0.5057 -0.0978 -0.2042
  949MOL0     C30885   0.511   2.637   7.818  0.2994 -0.4191 -0.2694
  949MOL0     C30886   0.372   2.617   7.749 -0.2117 -0.1154 -1.3564
  949MOL0     C30887   0.255   2.658   7.850  0.4249 -0.6961  1.1133
  949MOL0     C30888   0.281   2.788   7.889 -1.0395  0.7286  0.3071
  949MOL0     C30889   0.300   2.901   7.929 -0.9460  0.4304 -0.0101
  949MOL0     C30890   0.416   2.204   7.862  0.3342 -0.2162  0.1494
  949MOL0     C30891   0.452   2.090   7.783  0.5669  0.1673 -0.3903
  949MOL0     C30892   0.364   1.969   7.808 -0.0273  0.6696 -0.8095
  949MOL0     H30893   0.749   1.697   7.563 -1.6080  1.8980  0.4280
  949MOL0     H30894   0.863   1.573   7.409 -3.3411 -0.4538 -0.9895
  949MOL0     H30895   1.149   1.799   7.161 -2.0205  1.1930 -0.0224
  949MOL0     H30896   1.029   1.786   7.034  0.6067 -0.0222 -1.2195
  949MOL0     H30897   1.124   1.550   6.978  0.3489 -1.2100  1.8834
  949MOL0     H30898   1.239   1.682   6.949 -0.6569 -1.0649 -1.0773
  949MOL0     H30899   1.324   1.595   7.201 -0.4472 -0.9786  0.2268
  949MOL0     H30900   1.194   1.475   7.193  1.0074 -1.2070  1.6541
  949MOL0     H30901   1.326   1.373   7.003  0.5324  0.0476 -0.9137
  949MOL0     H30902   1.449   1.505   7.024 -0.9982  0.3909 -0.8565
  949MOL0     H30903   1.374   1.301   7.227  2.0570 -1.2180  0.7931
  949MOL0     H30904   1.503   1.431   7.244  0.8659  0.4469 -1.0961
  949MOL0     H30905   1.613   1.206   7.189  0.7122  0.9039  0.6804
  949MOL0     H30906   1.508   1.199   7.050  1.4025 -0.6400 -0.0849
  949MOL0     H30907   1.637   1.342   6.928  0.7866 -2.0820 -0.7725
  949MOL0     H30908   1.753   1.236   7.011 -0.0592  0.8275 -1.1765
  949MOL0     H30909   1.842   1.476   7.028  0.0976 -0.1339 -0.8538
  949MOL0     H30910   1.689   1.535   7.093 -0.7937  0.1821  2.4659
  949MOL0     H30911   1.999   1.288   7.171 -3.1303 -2.6000 -2.1614
  949MOL0     H30912   2.141   1.365   7.430 -1.1852  2.0711  2.4372
  949MOL0     H30913   2.111   1.200   7.392  1.1035 -0.8644  2.2787
  949MOL0     H30914   2.018   1.394   7.624 -0.0905  1.5717 -4.6234
  949MOL0     H30915   1.955   1.226   7.610 -0.7207  0.6221 -2.4171
  949MOL0     H30916   2.185   1.129   7.612 -0.3443 -0.4780 -0.1269
  949MOL0     H30917   2.252   1.292   7.651  1.7531 -0.7663  5.3446
  949MOL0     H30918   2.036   1.125   7.786 -1.2457  1.3571  1.2933
  949MOL0     H30919   2.205   1.128   7.839  1.2165  0.8852 -1.1446
  949MOL0     H30920   2.035   1.104   8.044 -0.1972 -1.1730  2.0197
  949MOL0     H30921   1.892   0.993   8.185  0.7716  0.2161  1.0434
  949MOL0     H30922   1.750   1.063   8.259  0.4679 -2.0771  1.8415
  949MOL0     H30923   1.921   1.097   8.325  0.5881 -0.1697 -0.0958
  949MOL0     H30924   1.719   1.477   8.572 -0.9935  0.9967 -4.3545
  949MOL0     H30925   1.537   1.485   8.749  2.6691 -0.2915  1.1971
  949MOL0     H30926   1.184   1.343   8.628  0.2076 -0.3078  0.1596
  949MOL0     H30927   1.216   1.179   8.652 -1.5222 -0.7898  0.7369
  949MOL0     H30928   1.137   1.347   8.886  2.1304 -0.0012  0.0889
  949MOL0     H30929   1.004   1.277   8.784 -0.2673  0.4992 -2.1550
  949MOL0     H30930   1.245   1.147   8.927  0.1290 -0.2333 -3.1521
  949MOL0     H30931   1.131   1.052   8.838  1.1433  1.7445 -3.2237
  949MOL0     H30932   1.002   1.033   9.027 -1.3926  0.6596  1.1270
  949MOL0     H30933   0.951   1.202   8.990  0.6090 -0.1751 -1.9422
  949MOL0     H30934   1.166   1.243   9.137 -1.4009  0.9710  2.3639
  949MOL0     H30935   1.012   1.227   9.214  1.1140  2.3159  0.5489
  949MOL0     H30936   1.192   0.982   9.139 -3.6480 -4.2487  0.9707
  949MOL0     H30937   1.080   0.984   9.266 -1.9062  1.7650  1.8913
  949MOL0     H30938   1.290   1.197   9.314  2.8878 -1.5449 -3.6621
  949MOL0     H30939   1.366   1.043   9.280  0.1409 -0.4156 -0.6386
  949MOL0     H30940   1.337   1.066   9.520 -1.4396 -0.7745  2.6723
  949MOL0     H30941   1.244   0.927   9.453  0.5888  0.3195  0.2611
  949MOL0     H30942   1.402   1.093   8.581  0.4455 -0.3946 -2.8618
  949MOL0     H30943   1.580   1.102   8.430  3.8935  0.5035  0.2368
  949MOL0     H30944   1.811   1.535   8.120  0.3276  0.3047  2.6378
  949MOL0     H30945   1.955   1.511   7.940 -1.7677  2.0307 -0.3014
  949MOL0     H30946   0.991   1.941   7.214  1.2489 -1.8255 -0.0898
  949MOL0     H30947   0.863   2.067   7.373  1.2224  0.4455  1.0423
  949MOL0     H30948   0.743   2.197   7.670  0.6908 -0.0059 -0.7529
  949MOL0     H30949   0.696   2.386   7.790  3.0916 -2.1116 -1.7791
  949MOL0     H30950   0.501   2.604   8.043 -2.8001 -0.0098 -1.1846
  949MOL0     H30951   0.638   2.533   7.959  0.7256 -0.3809 -3.0794
  949MOL0     H30952   0.590   2.585   7.762 -0.6565  0.6564 -2.7905
  949MOL0     H30953   0.529   2.744   7.835  0.2506 -0.5589  0.7164
  949MOL0     H30954   0.377   2.691   7.668  2.2339 -0.1104 -1.2558
  949MOL0     H30955   0.350   2.519   7.706 -1.4537 -0.8567  0.8669
  949MOL0     H30956   0.267   2.602   7.944 -1.7623 -1.6252  0.8809
  949MOL0     H30957   0.156   2.637   7.811  1.2883 -0.2318 -1.4917
  949MOL0     H30958   0.299   2.997   7.977 -1.1380 -0.0311  0.9345
  949MOL0     H30959   0.330   2.210   7.927  0.1272  1.6440 -0.2349
  949MOL0     H30960   0.373   1.945   7.914 -1.8463 -0.1249 -0.8042
  949MOL0     H30961   0.258   1.986   7.786 -0.9060  0.1577  2.4868
  949MOL0     H30962   0.390   1.875   7.758 -1.2294  2.3571 -5.0069
  950MOL0     O30963   5.722   3.092   7.820  0.0668  0.3314 -0.2824
  950MOL0     C30964   5.750   3.058   7.936 -0.1713 -0.0345  0.4123
  950MOL0     O30965   5.839   2.955   7.966  0.7530 -0.2848 -0.7746
  950MOL0     C30966   5.885   2.865   7.883 -0.4068  0.7896  0.6012
  950MOL0     C30967   5.916   2.736   7.941  0.1638  0.0055  0.1662
  950MOL0     C30968   5.982   2.641   7.855  0.5754  0.7150 -0.0331
  950MOL0     C30969   6.000   2.671   7.713 -0.1022 -0.3517 -1.2802
  950MOL0     O30970   6.050   2.582   7.621  0.3227  0.0355  0.0766
  950MOL0     C30971   6.143   2.478   7.659  0.2978  0.2548 -0.5775
  950MOL0     C30972   6.146   2.362   7.549  0.5586 -0.6088 -0.6021
  950MOL0     C30973   6.019   2.269   7.572 -0.2469  0.1751  0.7233
  950MOL0     C30974   6.018   2.165   7.469 -0.3377  0.3861  0.3095
  950MOL0     C30975   5.902   2.059   7.485  0.3538  0.0221 -0.2561
  950MOL0     C30976   5.919   1.953   7.597 -1.0298 -0.6928  0.4288
  950MOL0     C30977   5.849   1.824   7.568  0.5449  0.3583  0.6433
  950MOL0     C30978   5.703   1.847   7.527 -0.6893 -0.0776  0.0708
  950MOL0     N30979   5.638   1.718   7.501 -0.2003 -0.5105 -0.4434
  950MOL0     C30980   5.505   1.711   7.501 -0.5035  0.4534 -0.4588
  950MOL0     C30981   5.470   1.582   7.503  0.0094 -0.0013  0.0432
  950MOL0     C30982   5.328   1.534   7.502 -0.1725 -0.6170  0.7819
  950MOL0     C30983   5.271   1.488   7.634 -0.9387  0.5804  0.0868
  950MOL0     C30984   5.123   1.457   7.614 -1.0692  0.2084  0.3597
  950MOL0     C30985   5.082   1.320   7.631  1.1638  0.4113 -0.1117
  950MOL0     O30986   4.939   1.333   7.638 -1.4555  0.7024 -0.3080
  950MOL0     C30987   4.852   1.235   7.575  0.2899 -0.8154 -0.0519
  950MOL0     C30988   4.897   1.123   7.496  0.6033 -0.9745 -0.4944
  950MOL0     C30989   4.799   1.055   7.430 -0.6088 -0.6040 -0.5280
  950MOL0     C30990   4.856   0.936   7.356 -0.7048 -0.9130  0.1090
  950MOL0     C30991   4.663   1.091   7.432  0.9699  0.3464  0.4368
  950MOL0     C30992   4.550   1.025   7.359 -0.8706  0.3035 -0.9146
  950MOL0     O30993   4.425   1.059   7.399  1.0169 -0.6164  0.7423
  950MOL0     C30994   4.319   0.971   7.363  0.2019  0.5688  0.0361
  950MOL0     C30995   4.218   0.939   7.450  0.8163  0.0018  0.0510
  950MOL0     C30996   4.096   0.883   7.413 -0.1541 -0.8251  0.0267
  950MOL0     C30997   4.078   0.843   7.281  0.6275  1.0736  0.4243
  950MOL0     O30998   3.955   0.785   7.245 -0.1242  0.2786  0.8118
  950MOL0     C30999   3.905   0.779   7.110 -0.6339  0.5546  0.3211
  950MOL0     C31000   3.789   0.681   7.097  0.8574  0.0428  0.6297
  950MOL0     C31001   3.814   0.539   7.142 -0.0447 -0.6961 -0.2518
  950MOL0     C31002   3.877   0.451   7.032  0.4800  1.0934  0.1001
  950MOL0     C31003   3.965   0.333   7.093 -0.7160  0.3472  0.3147
  950MOL0     C31004   4.083   0.390   7.163 -0.1785  0.0479  0.8672
  950MOL0     C31005   4.176   0.459   7.064  0.0399  0.7143 -0.0926
  950MOL0     C31006   4.312   0.478   7.124 -0.3892 -0.5246  0.0577
  950MOL0    Cl31007   4.436   0.587   7.042 -0.2748  0.2605  0.5711
  950MOL0     C31008   4.188   0.851   7.193  0.1669 -0.5075 -0.4533
  950MOL0     C31009   4.301   0.914   7.236 -0.7429 -1.1654  0.6020
  950MOL0     O31010   4.580   0.932   7.277  0.1204 -0.1810 -0.1392
  950MOL0     C31011   4.619   1.193   7.519 -0.1108 -0.0850  1.3105
  950MOL0     C31012   4.718   1.257   7.592  1.0600  0.1208 -0.3100
  950MOL0     N31013   5.588   1.518   7.510  0.9271  0.1988  0.1410
  950MOL0     N31014   5.691   1.595   7.513  0.5351  1.0355 -1.0366
  950MOL0     C31015   5.979   2.798   7.670  0.1328  0.1188 -0.7934
  950MOL0     C31016   5.933   2.903   7.753  0.2012  0.0481 -0.0275
  950MOL0     C31017   5.695   3.139   8.044 -0.5087  0.5541  0.2692
  950MOL0     C31018   5.716   3.092   8.171 -0.6603  0.6128  0.6224
  950MOL0     C31019   5.658   3.153   8.282 -0.2577  0.2251 -0.7958
  950MOL0     C31020   5.598   3.276   8.281  0.2310 -0.8684  0.4289
  950MOL0     O31021   5.563   3.332   8.396 -0.0211  0.5075 -0.5680
  950MOL0     C31022   5.521   3.473   8.386  0.9002  0.0346 -0.1948
  950MOL0     C31023   5.471   3.540   8.516  0.5190 -0.7128  0.0883
  950MOL0     C31024   5.406   3.671   8.475  0.1576 -0.6473 -0.5623
  950MOL0     C31025   5.367   3.766   8.593  0.0398  0.4806  0.1632
  950MOL0     C31026   5.449   3.880   8.594  0.0088 -0.4733 -0.1643
  950MOL0     C31027   5.521   3.977   8.585 -0.7757  0.2330  0.8739
  950MOL0     C31028   5.577   3.332   8.147 -0.0988  0.3543  0.2378
  950MOL0     C31029   5.632   3.267   8.033 -0.2471  0.7805  0.6972
  950MOL0     C31030   5.614   3.337   7.903 -0.4978 -0.1494 -0.2132
  950MOL0     H31031   5.891   2.709   8.043 -0.5767 -0.0525 -0.0219
  950MOL0     H31032   5.987   2.541   7.895 -2.2949  0.7283  0.5738
  950MOL0     H31033   6.107   2.440   7.755  0.3698 -0.2713 -0.7545
  950MOL0     H31034   6.241   2.509   7.696  0.1085  2.1532 -1.5634
  950MOL0     H31035   6.169   2.402   7.450  3.9608 -3.0845 -0.9885
  950MOL0     H31036   6.233   2.296   7.554  0.5914 -0.6737 -1.8516
  950MOL0     H31037   6.011   2.222   7.671 -2.9759  2.1436  1.5672
  950MOL0     H31038   5.925   2.318   7.545 -0.7667 -1.8330 -1.4778
  950MOL0     H31039   6.001   2.224   7.379 -1.6997 -0.3630  0.0489
  950MOL0     H31040   6.119   2.123   7.474 -0.1699  0.7362 -0.0537
  950MOL0     H31041   5.888   2.018   7.385 -3.6126  0.5065 -0.0525
  950MOL0     H31042   5.806   2.107   7.506 -0.3753 -1.0081 -1.1080
  950MOL0     H31043   6.020   1.916   7.615 -1.9682 -2.7479  1.8074
  950MOL0     H31044   5.901   2.004   7.693 -1.5604 -2.6227  1.4029
  950MOL0     H31045   5.850   1.762   7.658 -1.1991  1.5683  1.5560
  950MOL0     H31046   5.897   1.764   7.491 -0.4417 -2.1105  1.8410
  950MOL0     H31047   5.643   1.909   7.593 -2.3978 -0.8052 -0.7341
  950MOL0     H31048   5.690   1.898   7.431 -0.1954  1.6703  0.8860
  950MOL0     H31049   5.439   1.797   7.510  0.4272  1.2213 -0.7709
  950MOL0     H31050   5.331   1.448   7.434 -1.0075 -1.5795  1.9188
  950MOL0     H31051   5.266   1.615   7.463 -0.5796 -1.3825 -0.2073
  950MOL0     H31052   5.328   1.403   7.674  0.0127  0.2722 -1.8013
  950MOL0     H31053   5.278   1.567   7.710  2.4737 -0.1532  0.7081
  950MOL0     H31054   5.084   1.525   7.691 -2.7834 -0.3393  0.0222
  950MOL0     H31055   5.095   1.490   7.513  0.4846  2.1186  0.4842
  950MOL0     H31056   5.122   1.268   7.543 -2.5459  0.5796 -2.0955
  950MOL0     H31057   5.122   1.286   7.727 -1.2492  0.1379  0.8544
  950MOL0     H31058   5.002   1.095   7.489  0.6626 -0.3168 -3.3750
  950MOL0     H31059   4.960   0.927   7.389  0.5820  2.7592 -2.2709
  950MOL0     H31060   4.858   0.967   7.251 -2.1714 -1.5387 -0.1234
  950MOL0     H31061   4.807   0.843   7.385  1.3337 -2.1892 -0.3250
  950MOL0     H31062   4.216   0.967   7.555 -0.7322 -1.0649  0.3558
  950MOL0     H31063   4.014   0.871   7.483 -1.5763  5.2237 -0.0672
  950MOL0     H31064   3.875   0.875   7.067 -0.1888 -0.2705 -1.9204
  950MOL0     H31065   3.982   0.733   7.049 -0.8457  0.5872  0.0278
  950MOL0     H31066   3.708   0.717   7.162  0.0415 -1.2942  0.3869
  950MOL0     H31067   3.733   0.677   7.003 -1.7377 -1.6383  2.1109
  950MOL0     H31068   3.714   0.513   7.179  0.9849 -0.8837  2.7341
  950MOL0     H31069   3.873   0.542   7.234 -0.8561  0.6095  0.2551
  950MOL0     H31070   3.922   0.519   6.959 -0.4861  0.4074 -1.1644
  950MOL0     H31071   3.792   0.405   6.981  0.3170  0.2664  1.0722
  950MOL0     H31072   3.907   0.258   7.147 -0.2692 -2.2904 -2.5455
  950MOL0     H31073   3.992   0.270   7.007 -2.7359 -0.9130  0.5395
  950MOL0     H31074   4.140   0.305   7.202  0.0922  0.8532  2.3074
  950MOL0     H31075   4.059   0.447   7.253 -2.2205  2.3752 -0.9901
  950MOL0     H31076   4.127   0.552   7.034 -1.1151 -0.2585 -1.3733
  950MOL0     H31077   4.184   0.396   6.975  2.4250 -0.3910  0.8194
  950MOL0     H31078   4.355   0.381   7.153  0.5699 -0.0229  0.3576
  950MOL0     H31079   4.295   0.528   7.219 -0.0713  1.1057 -0.7039
  950MOL0     H31080   4.192   0.814   7.091  0.9616  0.8485 -0.9386
  950MOL0     H31081   4.376   0.939   7.162 -2.7044 -0.9356 -1.4186
  950MOL0     H31082   4.520   1.228   7.545 -0.3349 -0.3311  0.7884
  950MOL0     H31083   4.692   1.350   7.642  2.9358  0.4160  0.1952
  950MOL0     H31084   6.015   2.831   7.573 -2.0865 -1.5637 -2.2825
  950MOL0     H31085   5.925   3.008   7.729  0.6274  1.2448  4.2416
  950MOL0     H31086   5.762   2.996   8.192 -1.6262  0.0959  0.4574
  950MOL0     H31087   5.659   3.104   8.378 -2.3921 -0.2809 -0.9719
  950MOL0     H31088   5.598   3.540   8.347  2.0270 -0.0364  1.7948
  950MOL0     H31089   5.440   3.469   8.313 -0.5126 -1.2129  1.3699
  950MOL0     H31090   5.557   3.559   8.581  1.3554  0.4719 -1.2930
  950MOL0     H31091   5.404   3.482   8.580 -0.2965 -0.1048 -0.1984
  950MOL0     H31092   5.473   3.731   8.414 -1.1837  1.6000  0.0617
  950MOL0     H31093   5.326   3.644   8.405  0.6719  1.0726 -1.8735
  950MOL0     H31094   5.361   3.709   8.687 -2.1408  0.1672 -0.1166
  950MOL0     H31095   5.263   3.786   8.569  0.1566  0.6758 -0.1745
  950MOL0     H31096   5.601   4.047   8.573 -1.9539  1.3422 -0.9892
  950MOL0     H31097   5.536   3.431   8.131 -1.2579 -0.5427 -3.1797
  950MOL0     H31098   5.706   3.330   7.844 -1.3894  1.1274 -1.8329
  950MOL0     H31099   5.526   3.296   7.853 -0.6723  0.3296 -0.2952
  950MOL0     H31100   5.590   3.440   7.931 -0.4772 -0.6437  1.7714
  951MOL0     O31101   5.950   2.236   9.519 -0.5925  0.1892  0.2436
  951MOL0     C31102   5.932   2.159   9.429  0.7917  0.1422 -0.7469
  951MOL0     O31103   5.816   2.080   9.410  0.3561 -0.4953 -0.5766
  951MOL0     C31104   5.715   2.101   9.502  0.8623 -0.1431  0.8032
  951MOL0     C31105   5.606   2.190   9.477  0.3750 -0.8900  0.1964
  951MOL0     C31106   5.501   2.205   9.563  0.8239 -0.8378 -0.0707
  951MOL0     C31107   5.486   2.122   9.675 -1.4831 -0.5294 -0.7956
  951MOL0     O31108   5.375   2.131   9.761 -0.4464  0.7435  0.6099
  951MOL0     C31109   5.333   2.007   9.827  0.4515  0.1992 -0.1708
  951MOL0     C31110   5.233   2.043   9.941 -0.1366 -0.9249  0.1853
  951MOL0     C31111   5.285   2.152  10.029 -0.8208  0.3120  0.2393
  951MOL0     C31112   5.242   2.146  10.187  0.0778 -0.0239  0.6836
  951MOL0     C31113   5.099   2.194  10.224  0.1183 -0.1907  0.3071
  951MOL0     C31114   4.997   2.095  10.171  0.8396  0.2892  0.2188
  951MOL0     C31115   4.854   2.141  10.208 -0.6105 -1.3300  0.0005
  951MOL0     C31116   4.744   2.044  10.167 -0.1213  0.1142  0.4415
  951MOL0     N31117   4.728   2.035  10.013  0.4247 -0.0217 -0.3122
  951MOL0     C31118   4.729   1.917   9.934  0.3390 -0.0248  0.0910
  951MOL0     C31119   4.677   1.952   9.811 -0.2026 -0.1428 -0.3156
  951MOL0     C31120   4.682   1.859   9.690 -1.0711  1.1064  0.4009
  951MOL0     C31121   4.578   1.870   9.594  0.4563  0.9645  0.4580
  951MOL0     C31122   4.617   1.790   9.472  0.7728 -0.4577 -0.4763
  951MOL0     C31123   4.495   1.772   9.371  0.4748 -0.9674  0.8733
  951MOL0     O31124   4.396   1.682   9.423 -0.0161  0.3355  0.6499
  951MOL0     C31125   4.335   1.587   9.344  0.2055  1.2397  0.4831
  951MOL0     C31126   4.236   1.502   9.408 -0.6086  0.8738 -1.0134
  951MOL0     C31127   4.179   1.404   9.342  0.4117 -0.5278  0.3196
  951MOL0     C31128   4.073   1.339   9.437 -1.1173 -0.1512  0.7012
  951MOL0     C31129   4.202   1.381   9.207  0.6342 -0.7539 -0.1484
  951MOL0     C31130   4.127   1.272   9.137 -0.3205 -0.7926  0.3622
  951MOL0     O31131   4.162   1.270   8.998  0.0322  0.6918 -0.4408
  951MOL0     C31132   4.066   1.210   8.918  0.5456  0.0326 -0.9186
  951MOL0     C31133   3.941   1.273   8.895  0.1682 -0.1802  0.3019
  951MOL0     C31134   3.844   1.214   8.816  0.4944 -0.0200 -0.4323
  951MOL0     C31135   3.876   1.083   8.753 -0.6456  0.5621  0.1723
  951MOL0     O31136   3.807   1.016   8.657 -0.2293  0.1771 -0.0686
  951MOL0     C31137   3.672   1.064   8.627  0.1346 -0.2441 -0.8936
  951MOL0     C31138   3.674   1.193   8.546 -0.3309 -0.0113  0.1619
  951MOL0     C31139   3.571   1.304   8.572 -0.5536  0.7928 -1.0100
  951MOL0     C31140   3.611   1.428   8.480  0.0612 -0.8146 -0.6763
  951MOL0     C31141   3.532   1.552   8.497 -0.7538  1.3545 -0.7773
  951MOL0     C31142   3.387   1.521   8.524  0.2642  0.9297  0.8617
  951MOL0     C31143   3.316   1.662   8.498 -0.1663  1.1660  1.2833
  951MOL0     C31144   3.168   1.650   8.530  0.7567  0.7011 -0.2805
  951MOL0    Cl31145   3.081   1.537   8.416  0.2286 -0.0078 -0.3469
  951MOL0     C31146   4.005   1.022   8.775 -0.5475 -0.0929 -0.0488
  951MOL0     C31147   4.100   1.091   8.856 -0.1360  0.1455  0.4253
  951MOL0     O31148   4.037   1.218   9.187 -0.0909  0.4996 -1.0996
  951MOL0     C31149   4.297   1.454   9.138  0.7027 -0.4415  0.4582
  951MOL0     C31150   4.367   1.557   9.207  0.2617  0.5905  0.3928
  951MOL0     N31151   4.651   2.090   9.821  0.0102 -0.7235 -0.5465
  951MOL0     N31152   4.692   2.139   9.930 -0.3416  0.1468 -0.5511
  951MOL0     C31153   5.597   2.043   9.706 -0.3314  0.0419 -0.4328
  951MOL0     C31154   5.706   2.029   9.616  0.5825  0.4528 -0.5936
  951MOL0     C31155   6.022   2.154   9.320 -0.1555 -0.3704  0.4974
  951MOL0     C31156   6.149   2.106   9.331 -0.0877  0.0876  0.6273
  951MOL0     C31157   6.246   2.096   9.230  0.0853  0.6843  0.5282
  951MOL0     C31158   6.217   2.158   9.109 -0.3698  0.1112 -0.4922
  951MOL0     O31159   6.302   2.152   8.998 -0.6390 -0.4108 -0.7766
  951MOL0     C31160   6.445   2.120   9.023  0.4794  0.0672  0.4977
  951MOL0     C31161   6.525   2.137   8.886  0.0788  0.0360 -0.6183
  951MOL0     C31162   6.479   2.022   8.789  0.4972  0.4018  0.2351
  951MOL0     C31163   6.566   1.998   8.668  0.8409  0.1163  0.4169
  951MOL0     C31164   6.527   1.869   8.598 -0.0753 -0.6271 -1.1717
  951MOL0     C31165   6.507   1.764   8.548  0.0442 -0.1310 -0.3854
  951MOL0     C31166   6.087   2.190   9.086  0.7888 -0.3397  0.5956
  951MOL0     C31167   5.987   2.205   9.188 -0.8057 -0.0536 -0.2061
  951MOL0     C31168   5.859   2.278   9.155 -0.4693 -1.3793 -0.0821
  951MOL0     H31169   5.609   2.264   9.398  2.6755 -0.8409  0.2414
  951MOL0     H31170   5.412   2.261   9.534  1.1940  0.5478  1.3186
  951MOL0     H31171   5.412   1.944   9.867  1.8936  1.0918 -1.5115
  951MOL0     H31172   5.279   1.946   9.754  3.2448 -3.1742  0.3362
  951MOL0     H31173   5.151   2.086   9.882 -0.1108  0.0461  0.8338
  951MOL0     H31174   5.201   1.957  10.000 -2.4990 -2.1944 -2.6383
  951MOL0     H31175   5.392   2.166  10.010 -1.2523  1.4708 -1.5905
  951MOL0     H31176   5.246   2.246   9.988 -0.1121  0.2588 -0.5941
  951MOL0     H31177   5.261   2.048  10.231  2.0693  0.6053  1.3292
  951MOL0     H31178   5.309   2.215  10.239  0.0235  1.9534 -1.6905
  951MOL0     H31179   5.080   2.290  10.175 -1.8408 -0.6325  0.1380
  951MOL0     H31180   5.100   2.211  10.332  1.9512  1.1688  0.1390
  951MOL0     H31181   5.018   2.073  10.065  3.8034 -0.2053  0.8247
  951MOL0     H31182   5.025   2.014  10.239 -2.2104 -0.5970  0.6068
  951MOL0     H31183   4.838   2.239  10.162  0.9121 -2.0412 -2.2040
  951MOL0     H31184   4.848   2.158  10.316  0.8328  4.2308 -0.4504
  951MOL0     H31185   4.788   1.948  10.194 -0.3899 -0.0116  0.4343
  951MOL0     H31186   4.653   2.061  10.225  0.2660 -0.6033  1.2686
  951MOL0     H31187   4.793   1.832   9.953  2.6075  1.1100 -1.8907
  951MOL0     H31188   4.670   1.757   9.728  0.5228  1.6446  2.5482
  951MOL0     H31189   4.783   1.875   9.650 -1.1145 -1.2545 -0.8657
  951MOL0     H31190   4.480   1.849   9.639 -0.3486 -0.8023 -1.9186
  951MOL0     H31191   4.575   1.977   9.571  1.4037  1.1238  1.0341
  951MOL0     H31192   4.697   1.842   9.419  0.5364  0.2386 -0.1663
  951MOL0     H31193   4.656   1.692   9.501 -1.9136 -1.9864 -1.5974
  951MOL0     H31194   4.448   1.861   9.330  0.5710 -1.3057  0.0017
  951MOL0     H31195   4.565   1.732   9.297  1.1226 -1.9388  1.9742
  951MOL0     H31196   4.236   1.506   9.516 -0.0014 -1.1412 -0.8931
  951MOL0     H31197   4.105   1.374   9.536  0.9154  3.0790 -0.9042
  951MOL0     H31198   4.082   1.230   9.436 -0.1935 -0.1202  2.1795
  951MOL0     H31199   3.970   1.369   9.418 -0.9086 -0.2349 -0.6412
  951MOL0     H31200   3.910   1.368   8.937  0.4523 -0.3465  0.9072
  951MOL0     H31201   3.756   1.270   8.786  0.3377 -0.6634 -1.2087
  951MOL0     H31202   3.617   0.991   8.566  0.9518 -1.0762 -0.6456
  951MOL0     H31203   3.614   1.065   8.720 -0.3037 -2.6514 -1.0712
  951MOL0     H31204   3.775   1.232   8.556 -0.0374 -0.2955 -1.3349
  951MOL0     H31205   3.663   1.156   8.443  0.1980  2.8257 -1.0075
  951MOL0     H31206   3.564   1.320   8.680  0.7003 -0.1290 -0.7583
  951MOL0     H31207   3.477   1.271   8.528 -0.4997  1.0347 -1.3146
  951MOL0     H31208   3.605   1.403   8.374  3.3075  0.8598 -1.3917
  951MOL0     H31209   3.716   1.456   8.491  0.0891 -1.4637  0.8985
  951MOL0     H31210   3.575   1.614   8.576  0.6883  1.1514 -1.3839
  951MOL0     H31211   3.553   1.624   8.419  0.2669  0.7352 -1.0981
  951MOL0     H31212   3.366   1.484   8.624 -0.5966  0.2363  0.4391
  951MOL0     H31213   3.357   1.447   8.449 -1.2710  2.6998 -0.3521
  951MOL0     H31214   3.336   1.684   8.393  0.3957 -0.7974  0.9369
  951MOL0     H31215   3.372   1.729   8.565  2.3572 -1.9621  2.6074
  951MOL0     H31216   3.120   1.747   8.518  0.4798  0.6460  0.3198
  951MOL0     H31217   3.162   1.616   8.634  0.7635 -2.6540 -1.2571
  951MOL0     H31218   4.038   0.936   8.717  1.0763  2.5568 -3.4617
  951MOL0     H31219   4.193   1.048   8.891 -0.4832  0.4253  1.7584
  951MOL0     H31220   4.302   1.438   9.031 -1.6197 -0.2925  0.2840
  951MOL0     H31221   4.434   1.615   9.144 -3.0213  2.2835 -1.8207
  951MOL0     H31222   5.600   1.972   9.788 -0.7936  0.0692 -0.3895
  951MOL0     H31223   5.773   1.946   9.637 -0.7346 -0.0818  1.9220
  951MOL0     H31224   6.199   2.080   9.423 -0.7192  0.4844  1.0928
  951MOL0     H31225   6.339   2.042   9.247 -0.1934  0.6060  1.9873
  951MOL0     H31226   6.486   2.176   9.107  0.2869  0.5342  0.2887
  951MOL0     H31227   6.455   2.019   9.065  4.0882  0.3554  0.6528
  951MOL0     H31228   6.630   2.124   8.914 -0.4566  0.0769  1.6025
  951MOL0     H31229   6.517   2.236   8.841  0.4811 -0.5268 -1.9843
  951MOL0     H31230   6.468   1.927   8.842 -0.9113  1.1167  1.3032
  951MOL0     H31231   6.379   2.048   8.753  1.4074  0.7930 -2.1961
  951MOL0     H31232   6.673   2.006   8.690  0.7759  1.6584  0.3341
  951MOL0     H31233   6.544   2.079   8.597 -0.2457  1.2501  1.9731
  951MOL0     H31234   6.484   1.667   8.510 -0.1090 -0.9699  1.7522
  951MOL0     H31235   6.062   2.227   8.987 -1.7106  3.0226  2.2822
  951MOL0     H31236   5.777   2.216   9.119 -0.3601 -0.3386 -2.2242
  951MOL0     H31237   5.822   2.331   9.243  0.7034 -0.6775  0.0128
  951MOL0     H31238   5.868   2.349   9.073  1.7832 -1.7214 -0.2016
  952MOL0     O31239   9.540   4.206   0.407 -0.0119 -0.5499 -0.3082
  952MOL0     C31240   9.474   4.300   0.437  0.9278  0.3710  0.2103
  952MOL0     O31241   9.522   4.426   0.453 -0.1615  0.1879 -0.1347
  952MOL0     C31242   9.653   4.440   0.488 -0.2732 -0.4757  1.3199
  952MOL0     C31243   9.761   4.388   0.416 -0.2497  0.2011  0.6663
  952MOL0     C31244   9.889   4.380   0.470 -0.9833 -0.2782 -0.0101
  952MOL0     C31245   9.911   4.443   0.589  0.2034  1.3328  0.2325
  952MOL0     O31246  10.047   4.459   0.620  0.5248 -0.5033 -0.0199
  952MOL0     C31247  10.083   4.447   0.759 -0.5835  0.0580  0.0532
  952MOL0     C31248  10.227   4.485   0.767  0.4822 -0.1130  0.4708
  952MOL0     C31249  10.325   4.391   0.683  0.2595 -0.5472 -0.3395
  952MOL0     C31250  10.339   4.244   0.734 -1.1845 -1.4444 -1.0174
  952MOL0     C31251  10.359   4.242   0.891  0.8352 -0.0492  0.5978
  952MOL0     C31252  10.366   4.090   0.918 -0.3173  0.4861  0.9477
  952MOL0     C31253  10.374   4.069   1.073 -0.7048  0.6009 -0.3552
  952MOL0     C31254  10.503   4.120   1.154 -0.2012 -0.3074  0.9059
  952MOL0     N31255  10.634   4.073   1.113 -0.0963 -1.2262  0.6531
  952MOL0     C31256  10.709   4.091   1.000 -0.0742  0.5148  0.3238
  952MOL0     C31257  10.808   3.999   1.007  0.3742  0.1757  0.0809
  952MOL0     C31258  10.887   3.968   0.882 -0.2056  0.5401  0.2196
  952MOL0     C31259  10.804   3.886   0.791  0.0181 -0.5202 -0.3832
  952MOL0     C31260  10.876   3.852   0.662 -0.8560  0.9561  0.0794
  952MOL0     C31261  10.782   3.801   0.554  0.0670 -1.0216 -0.2490
  952MOL0     O31262  10.711   3.915   0.509  0.2902  0.7492  0.4568
  952MOL0     C31263  10.629   3.882   0.403  0.4722 -0.4498  0.3047
  952MOL0     C31264  10.573   3.994   0.327 -0.8990 -0.3724  0.1172
  952MOL0     C31265  10.508   3.977   0.198 -0.3044  0.8425 -0.2540
  952MOL0     C31266  10.464   4.108   0.142 -0.2121 -0.0548  0.6286
  952MOL0     C31267  10.478   3.845   0.152 -0.8745 -1.2210  0.3825
  952MOL0     C31268  10.426   3.808   0.024  0.6275 -2.0074  1.0028
  952MOL0     O31269  10.361   3.696   0.024 -0.6235 -0.3429 -0.2501
  952MOL0     C31270  10.246   3.676  -0.045  0.0501 -0.1002 -0.6228
  952MOL0     C31271  10.244   3.579  -0.143  0.8402  0.6106  0.3339
  952MOL0     C31272  10.127   3.549  -0.216 -0.6550  0.2846 -0.7890
  952MOL0     C31273  10.015   3.630  -0.189  0.0044  0.8159  0.5316
  952MOL0     O31274   9.899   3.602  -0.260  0.6038  0.0448  0.2423
  952MOL0     C31275   9.875   3.484  -0.343 -0.4984 -0.0142  0.3632
  952MOL0     C31276   9.743   3.525  -0.419 -0.7800  0.1488  0.3394
  952MOL0     C31277   9.649   3.411  -0.456  1.0240 -0.0843 -0.1762
  952MOL0     C31278   9.510   3.470  -0.506  0.2582 -0.8930  0.3082
  952MOL0     C31279   9.405   3.370  -0.514  1.1222  0.4698  0.0371
  952MOL0     C31280   9.369   3.292  -0.399 -0.2133  0.3601 -1.4228
  952MOL0     C31281   9.251   3.201  -0.416 -0.1078  0.3100  0.3182
  952MOL0     C31282   9.177   3.172  -0.285 -0.6263  0.7584  0.3042
  952MOL0    Cl31283   9.072   3.034  -0.290  0.1579  0.0554 -0.0052
  952MOL0     C31284  10.018   3.728  -0.088  0.3622  0.4994 -0.3725
  952MOL0     C31285  10.131   3.749  -0.016 -0.2677 -0.5447  0.4276
  952MOL0     O31286  10.423   3.886  -0.069 -0.5318  0.0585 -1.4049
  952MOL0     C31287  10.524   3.743   0.231  0.1212 -0.4482  0.7633
  952MOL0     C31288  10.597   3.757   0.349  0.1171  0.1103  0.2060
  952MOL0     N31289  10.797   3.933   1.124 -0.7368  0.3716 -0.3701
  952MOL0     N31290  10.703   3.984   1.190  0.8676 -0.4998 -0.3868
  952MOL0     C31291   9.807   4.515   0.654 -0.3043  0.3278  0.6415
  952MOL0     C31292   9.678   4.499   0.614  0.4391 -0.4542 -0.3891
  952MOL0     C31293   9.328   4.272   0.469  0.6243  0.1814  0.8122
  952MOL0     C31294   9.266   4.353   0.567 -0.7403  0.1182 -0.6611
  952MOL0     C31295   9.134   4.332   0.598 -0.1180  0.0828  0.1519
  952MOL0     C31296   9.056   4.239   0.526  0.4645  0.6878 -0.2364
  952MOL0     O31297   8.919   4.234   0.559 -0.3619 -0.2472  0.2480
  952MOL0     C31298   8.855   4.111   0.524 -0.0558  0.3796 -1.1687
  952MOL0     C31299   8.700   4.129   0.517 -0.0519 -0.0393  0.4001
  952MOL0     C31300   8.609   4.025   0.458  0.0725  0.4052 -0.2817
  952MOL0     C31301   8.458   4.042   0.484  0.0789 -0.5248  0.3728
  952MOL0     C31302   8.406   4.166   0.416  0.7461  0.9003 -0.6708
  952MOL0     C31303   8.380   4.275   0.357  0.0551  0.7512  0.0133
  952MOL0     C31304   9.114   4.164   0.434 -0.9405 -0.5715 -0.2532
  952MOL0     C31305   9.250   4.165   0.405 -0.8579  0.1341  0.5041
  952MOL0     C31306   9.301   4.092   0.285 -0.8904  0.2542  1.1093
  952MOL0     H31307   9.742   4.341   0.319  3.0856  0.8769 -0.4455
  952MOL0     H31308   9.974   4.339   0.414 -3.1664 -3.3444 -1.3993
  952MOL0     H31309  10.072   4.347   0.802 -1.3896  1.4217  3.3454
  952MOL0     H31310  10.026   4.518   0.819  0.7830  1.4475 -0.2331
  952MOL0     H31311  10.238   4.587   0.728  2.3616 -0.5994 -0.3963
  952MOL0     H31312  10.258   4.502   0.871  2.8414 -0.0719 -0.1796
  952MOL0     H31313  10.280   4.382   0.584  0.5531  0.7892 -0.6126
  952MOL0     H31314  10.419   4.448   0.686 -0.9815  1.6724  3.0453
  952MOL0     H31315  10.242   4.192   0.728 -2.5520  0.2457  3.0645
  952MOL0     H31316  10.425   4.195   0.688  2.4662  1.7090  1.8235
  952MOL0     H31317  10.276   4.291   0.942  0.8145 -0.1766  0.6858
  952MOL0     H31318  10.455   4.289   0.914 -0.7481  3.1952  1.1768
  952MOL0     H31319  10.274   4.043   0.881  0.1793 -0.9667  1.4837
  952MOL0     H31320  10.440   4.032   0.864 -0.4521  0.4502  0.8010
  952MOL0     H31321  10.366   3.961   1.085  0.7431  0.6298  1.1917
  952MOL0     H31322  10.285   4.112   1.120 -1.1577 -1.6060  0.9299
  952MOL0     H31323  10.504   4.230   1.152 -1.8711 -0.2814  0.8319
  952MOL0     H31324  10.480   4.081   1.253 -1.7712 -1.9292 -0.0510
  952MOL0     H31325  10.690   4.161   0.918  0.4967 -2.6431 -2.7631
  952MOL0     H31326  10.987   3.933   0.908 -0.1167  1.9637  2.0528
  952MOL0     H31327  10.901   4.061   0.826 -0.8669 -1.3410 -3.3316
  952MOL0     H31328  10.784   3.796   0.848  2.0345 -1.9926 -1.8437
  952MOL0     H31329  10.704   3.930   0.778  0.2053  0.2929  0.7926
  952MOL0     H31330  10.936   3.938   0.631 -0.9817  0.5183 -1.4216
  952MOL0     H31331  10.956   3.782   0.689 -1.1006  1.2574  1.7330
  952MOL0     H31332  10.834   3.761   0.467 -1.0849  0.1134 -1.5164
  952MOL0     H31333  10.710   3.748   0.617 -0.4802  1.6206  1.5549
  952MOL0     H31334  10.595   4.096   0.358  2.0469  0.2739 -3.3470
  952MOL0     H31335  10.419   4.089   0.045  0.6800 -1.2144  0.4129
  952MOL0     H31336  10.537   4.189   0.148  1.1595 -1.3381  3.9414
  952MOL0     H31337  10.388   4.155   0.204 -1.2982  2.3662 -2.2973
  952MOL0     H31338  10.333   3.521  -0.164 -0.2518 -1.4773  1.1430
  952MOL0     H31339  10.127   3.462  -0.281 -1.4515  0.8449 -1.5677
  952MOL0     H31340   9.958   3.461  -0.410  0.1565  1.1295  0.7474
  952MOL0     H31341   9.873   3.396  -0.278  2.6617 -2.2618 -2.2718
  952MOL0     H31342   9.698   3.602  -0.355  0.7229  1.1391  0.2585
  952MOL0     H31343   9.759   3.580  -0.512 -2.2477 -2.5156 -1.6097
  952MOL0     H31344   9.619   3.354  -0.367 -1.8440 -0.3244 -1.1911
  952MOL0     H31345   9.692   3.336  -0.523  0.3982 -2.6673  2.1127
  952MOL0     H31346   9.533   3.497  -0.609  1.4021 -1.2016  0.4746
  952MOL0     H31347   9.489   3.568  -0.461  0.3412 -1.9332  2.7232
  952MOL0     H31348   9.318   3.430  -0.543  1.4109 -0.1623 -2.3375
  952MOL0     H31349   9.427   3.309  -0.602 -0.7393 -1.3445  0.7636
  952MOL0     H31350   9.374   3.366  -0.318 -0.7263 -0.0084 -1.0468
  952MOL0     H31351   9.456   3.229  -0.378  0.3544  1.5897  0.1211
  952MOL0     H31352   9.288   3.106  -0.458 -1.9748 -0.5642  0.5487
  952MOL0     H31353   9.169   3.241  -0.477 -1.0418 -0.8913  0.7407
  952MOL0     H31354   9.115   3.251  -0.241 -3.4046 -0.7681 -0.6043
  952MOL0     H31355   9.247   3.147  -0.205 -1.7487 -2.7349  0.3823
  952MOL0     H31356   9.933   3.794  -0.072  2.0369  2.6913 -0.0511
  952MOL0     H31357  10.125   3.838   0.046  0.1827 -0.7484  0.7743
  952MOL0     H31358  10.514   3.645   0.187  3.1215 -0.9366  0.9751
  952MOL0     H31359  10.633   3.663   0.390  0.6964  0.8114  1.3528
  952MOL0     H31360   9.828   4.562   0.750  0.4735 -1.8072  1.5882
  952MOL0     H31361   9.594   4.540   0.667  1.2990 -2.5176  2.8482
  952MOL0     H31362   9.314   4.440   0.611 -1.3905 -0.6830  1.8038
  952MOL0     H31363   9.082   4.404   0.660 -0.6133 -0.5281  0.4631
  952MOL0     H31364   8.881   4.075   0.424 -1.1107  0.7052 -1.5743
  952MOL0     H31365   8.883   4.042   0.604 -0.6673  0.7188 -0.6503
  952MOL0     H31366   8.681   4.219   0.457 -0.0164 -0.0493  0.3732
  952MOL0     H31367   8.661   4.136   0.619 -0.4724  1.8656  0.1446
  952MOL0     H31368   8.624   4.015   0.350 -0.0764  1.3475 -0.3999
  952MOL0     H31369   8.640   3.936   0.512  1.5770  0.3048 -1.2422
  952MOL0     H31370   8.444   4.057   0.591 -2.8106 -0.1007  0.0309
  952MOL0     H31371   8.400   3.961   0.439 -0.1559  1.5560 -3.5078
  952MOL0     H31372   8.327   4.362   0.323 -3.3601 -1.9607 -2.3977
  952MOL0     H31373   9.060   4.083   0.387 -2.3925  0.0918  0.2068
  952MOL0     H31374   9.384   4.023   0.301  0.3914  0.8396 -2.1070
  952MOL0     H31375   9.217   4.039   0.238 -2.1151  0.0608  3.3567
  952MOL0     H31376   9.343   4.169   0.220  0.3069 -1.5344 -0.3437
  953MOL0     O31377   0.977   9.535   6.725 -0.0995  0.5398  0.2561
  953MOL0     C31378   0.908   9.458   6.783  0.7906 -0.5375  0.0923
  953MOL0     O31379   0.845   9.359   6.719  0.1808 -0.1356 -0.8843
  953MOL0     C31380   0.861   9.329   6.587 -0.2874 -0.0597  0.3178
  953MOL0     C31381   0.739   9.311   6.508  0.1987  0.7750 -0.9450
  953MOL0     C31382   0.760   9.286   6.371  0.3246  0.3007 -0.3559
  953MOL0     C31383   0.877   9.282   6.300 -0.1963 -0.5871 -0.3524
  953MOL0     O31384   0.860   9.246   6.164 -0.5223 -0.3625 -0.1433
  953MOL0     C31385   0.983   9.236   6.086  0.0676 -0.0892 -0.7399
  953MOL0     C31386   1.043   9.100   6.106  0.4126 -0.7858  0.2793
  953MOL0     C31387   0.956   8.986   6.054  0.1810  0.2917  0.0257
  953MOL0     C31388   1.026   8.852   6.085  0.3494 -0.1998  0.9005
  953MOL0     C31389   0.938   8.735   6.041  0.9065  0.2746 -0.3361
  953MOL0     C31390   1.001   8.605   6.101 -0.2614  0.3603  0.0928
  953MOL0     C31391   0.932   8.487   6.026  0.2349  0.7351 -0.7418
  953MOL0     C31392   1.002   8.356   6.052  0.4447  0.3710  0.5378
  953MOL0     N31393   0.926   8.251   5.994  0.0569  0.0503 -0.4647
  953MOL0     C31394   0.819   8.183   6.045 -0.4390  2.0135  0.4124
  953MOL0     C31395   0.791   8.083   5.949  0.5173  0.7384  0.8183
  953MOL0     C31396   0.688   7.975   5.944  1.0534 -0.5077  0.3040
  953MOL0     C31397   0.690   7.902   6.088  0.3009  0.1550  0.4629
  953MOL0     C31398   0.637   7.759   6.054  0.6035 -1.1395  0.7468
  953MOL0     C31399   0.629   7.667   6.175 -0.4447 -0.6491 -0.5352
  953MOL0     O31400   0.540   7.557   6.155 -0.0510  0.2227  0.6979
  953MOL0     C31401   0.532   7.459   6.248 -0.2603  0.6846  0.6367
  953MOL0     C31402   0.544   7.480   6.386 -1.0817  1.4530  0.2149
  953MOL0     C31403   0.513   7.384   6.489  0.3005 -1.0011  1.0308
  953MOL0     C31404   0.511   7.431   6.634  0.7393 -0.7503 -0.2914
  953MOL0     C31405   0.465   7.252   6.446 -0.6352  0.8012 -0.9217
  953MOL0     C31406   0.435   7.144   6.542  0.3385 -0.3688  0.6647
  953MOL0     O31407   0.424   7.018   6.488  1.0308  0.1858  0.4612
  953MOL0     C31408   0.408   6.914   6.572 -0.0930  0.7242 -0.7608
  953MOL0     C31409   0.299   6.829   6.558 -0.5195 -0.5268  0.0089
  953MOL0     C31410   0.275   6.720   6.638 -0.2469  0.0982 -0.5585
  953MOL0     C31411   0.354   6.681   6.741 -0.3353  0.0003 -0.0664
  953MOL0     O31412   0.342   6.557   6.806  0.5342 -0.2625  0.2945
  953MOL0     C31413   0.408   6.537   6.928 -0.4088  0.5507  1.3136
  953MOL0     C31414   0.548   6.475   6.904  0.2226 -0.4183  0.1648
  953MOL0     C31415   0.576   6.355   7.010 -0.6423 -0.6167 -0.5167
  953MOL0     C31416   0.728   6.332   7.014  0.6007  0.0385  0.1541
  953MOL0     C31417   0.780   6.267   6.884  0.8106  0.3008 -0.1840
  953MOL0     C31418   0.895   6.170   6.909  0.1939  0.5397 -0.5886
  953MOL0     C31419   0.952   6.106   6.790 -0.2458  0.7319 -0.1748
  953MOL0     C31420   0.851   6.031   6.699  0.5677  0.6852  0.5869
  953MOL0    Cl31421   0.724   5.944   6.793 -0.1466  0.3173  0.3647
  953MOL0     C31422   0.465   6.764   6.763  0.5912  0.8885 -0.5542
  953MOL0     C31423   0.497   6.873   6.681  0.1907 -0.5211  0.9598
  953MOL0     O31424   0.434   7.166   6.661 -0.3972 -0.9673  0.1705
  953MOL0     C31425   0.460   7.229   6.308 -0.4752  0.0176  0.0951
  953MOL0     C31426   0.488   7.328   6.214 -0.5000 -0.5004 -0.0293
  953MOL0     N31427   0.884   8.092   5.845  0.0833  0.3484 -0.3866
  953MOL0     N31428   0.958   8.197   5.871 -0.1619  0.2675 -0.1403
  953MOL0     C31429   0.997   9.298   6.384  0.3449  0.8276 -0.3791
  953MOL0     C31430   0.986   9.325   6.523  0.0243  0.8512  0.6525
  953MOL0     C31431   0.910   9.456   6.930  0.2158  0.2367  0.4423
  953MOL0     C31432   0.803   9.394   7.003 -0.8965  0.3920  0.1727
  953MOL0     C31433   0.791   9.403   7.144 -0.4795  0.5495  0.3146
  953MOL0     C31434   0.883   9.471   7.215 -0.1003 -1.3053  0.3931
  953MOL0     O31435   0.857   9.499   7.347 -0.0612 -0.7593 -0.9754
  953MOL0     C31436   0.965   9.556   7.424 -0.0561 -0.0956  0.1917
  953MOL0     C31437   0.934   9.548   7.570  0.0061  0.4884  1.2133
  953MOL0     C31438   0.814   9.625   7.616  1.1523 -1.2094 -0.2333
  953MOL0     C31439   0.682   9.553   7.636 -0.1960  0.9541 -0.6517
  953MOL0     C31440   0.691   9.467   7.756  0.9802 -0.0848  0.7860
  953MOL0     C31441   0.709   9.396   7.842  0.0477 -0.7657 -0.1841
  953MOL0     C31442   0.995   9.523   7.147 -1.0206  0.1832 -0.1634
  953MOL0     C31443   1.012   9.516   7.010 -0.9633 -0.1860 -0.5106
  953MOL0     C31444   1.137   9.570   6.953 -0.0447  0.4287 -0.3055
  953MOL0     H31445   0.639   9.298   6.547 -0.5266  0.4199 -2.8217
  953MOL0     H31446   0.668   9.259   6.321  0.4895 -0.2572 -0.3627
  953MOL0     H31447   1.052   9.310   6.128 -0.2478 -1.3650  2.3205
  953MOL0     H31448   0.950   9.253   5.983 -4.7018  1.2396  0.7268
  953MOL0     H31449   1.143   9.106   6.062  0.3262  0.8970  0.2170
  953MOL0     H31450   1.064   9.084   6.212  1.5316  1.2369  0.4260
  953MOL0     H31451   0.857   8.989   6.099 -0.9169 -3.2329 -1.7869
  953MOL0     H31452   0.945   8.985   5.945 -0.7155 -2.8115  0.0487
  953MOL0     H31453   1.125   8.842   6.041 -0.4692  1.8645 -1.7330
  953MOL0     H31454   1.044   8.853   6.193  1.5971 -0.2714  0.7026
  953MOL0     H31455   0.927   8.728   5.932  1.1821 -0.7047 -0.3146
  953MOL0     H31456   0.835   8.750   6.077 -0.3040 -1.4960 -2.7491
  953MOL0     H31457   1.108   8.611   6.078  0.7913 -0.0663  4.0867
  953MOL0     H31458   0.991   8.601   6.210 -3.5941 -1.2528 -0.1323
  953MOL0     H31459   0.905   8.501   5.921 -3.8160 -2.4289 -0.3607
  953MOL0     H31460   0.844   8.487   6.091 -0.4575  0.9704 -1.6738
  953MOL0     H31461   1.094   8.364   5.995 -1.2773  1.1004 -2.3289
  953MOL0     H31462   1.012   8.333   6.159 -2.0638  1.7932  1.1635
  953MOL0     H31463   0.764   8.185   6.139 -1.2229 -0.4408  0.0968
  953MOL0     H31464   0.712   7.912   5.858 -0.0751 -1.1229  0.4156
  953MOL0     H31465   0.587   8.018   5.938  0.1563 -2.5665 -0.3699
  953MOL0     H31466   0.792   7.906   6.129 -0.1928  3.2209  1.6599
  953MOL0     H31467   0.628   7.946   6.167 -3.1520 -1.3150 -1.2240
  953MOL0     H31468   0.541   7.773   6.004  0.0574  2.1914  2.4434
  953MOL0     H31469   0.709   7.711   5.988  0.5179 -1.4094  0.8464
  953MOL0     H31470   0.731   7.631   6.189 -0.0878  0.8903  1.0628
  953MOL0     H31471   0.594   7.727   6.259 -1.0773  1.4915 -2.2444
  953MOL0     H31472   0.568   7.584   6.408  0.0562  1.0843  0.7873
  953MOL0     H31473   0.541   7.535   6.646 -2.9647  0.4181 -0.0584
  953MOL0     H31474   0.576   7.368   6.695 -2.1978 -0.9752  2.9044
  953MOL0     H31475   0.411   7.414   6.674 -0.0753 -2.1024 -2.6781
  953MOL0     H31476   0.234   6.857   6.476 -0.0304  0.1838 -0.1470
  953MOL0     H31477   0.181   6.666   6.628  0.8816 -1.7149 -2.1161
  953MOL0     H31478   0.413   6.623   6.996  1.7301 -0.0966  2.0484
  953MOL0     H31479   0.351   6.462   6.984 -2.1074  1.9234  1.5334
  953MOL0     H31480   0.541   6.428   6.806 -1.2308 -1.0899  0.5568
  953MOL0     H31481   0.621   6.556   6.904 -2.2331  1.9514 -1.5749
  953MOL0     H31482   0.534   6.256   6.988  3.5849 -2.6240 -0.6119
  953MOL0     H31483   0.550   6.388   7.111  5.6227 -1.1574  1.7540
  953MOL0     H31484   0.754   6.269   7.100 -0.3590  2.9859  2.7855
  953MOL0     H31485   0.782   6.426   7.018 -1.9973  1.5946  1.7801
  953MOL0     H31486   0.699   6.213   6.834  2.1185  1.4504 -3.8649
  953MOL0     H31487   0.799   6.351   6.817 -3.3814 -0.0678 -2.1512
  953MOL0     H31488   0.872   6.088   6.977  2.0511 -0.7476 -1.4282
  953MOL0     H31489   0.978   6.229   6.949  0.4566  0.5564 -1.1439
  953MOL0     H31490   1.042   6.048   6.813 -0.9150  0.1961  1.1872
  953MOL0     H31491   0.999   6.188   6.735  0.7364  1.9393  2.2890
  953MOL0     H31492   0.898   5.957   6.633 -0.2052  1.7185 -1.2044
  953MOL0     H31493   0.800   6.099   6.630 -2.5910 -2.9902 -1.1300
  953MOL0     H31494   0.551   6.747   6.827  0.5320 -3.0114 -1.2600
  953MOL0     H31495   0.588   6.929   6.699 -1.5800  2.6169  0.9433
  953MOL0     H31496   0.440   7.129   6.271 -0.6129 -0.0758  0.4209
  953MOL0     H31497   0.475   7.306   6.108  5.5749 -3.3660 -0.6194
  953MOL0     H31498   1.096   9.292   6.340  0.0359  0.0117 -0.9974
  953MOL0     H31499   1.077   9.343   6.579 -0.3989  1.4994  1.1506
  953MOL0     H31500   0.722   9.355   6.942 -1.2940 -0.4208  1.1989
  953MOL0     H31501   0.700   9.364   7.190  0.2935  1.8886  3.1632
  953MOL0     H31502   1.053   9.494   7.403 -0.6500 -1.4161  1.3694
  953MOL0     H31503   0.988   9.661   7.406  7.3278 -1.0245  1.1908
  953MOL0     H31504   1.025   9.586   7.617 -0.6967  0.7492  2.4060
  953MOL0     H31505   0.921   9.440   7.588  0.8866  0.2733  0.6229
  953MOL0     H31506   0.837   9.676   7.710 -1.6195 -0.0081 -0.1329
  953MOL0     H31507   0.807   9.705   7.542 -0.2953  0.0020  1.1510
  953MOL0     H31508   0.669   9.486   7.551 -2.9270 -0.0119  0.4305
  953MOL0     H31509   0.595   9.618   7.634 -2.0237 -0.9076  3.7957
  953MOL0     H31510   0.743   9.340   7.926  0.4164  0.3932  0.4649
  953MOL0     H31511   1.071   9.576   7.203 -0.8580 -1.2676  1.0386
  953MOL0     H31512   1.182   9.496   6.886  0.7683 -0.3347  1.0269
  953MOL0     H31513   1.125   9.663   6.897 -0.5578  0.5395 -0.0171
  953MOL0     H31514   1.217   9.587   7.026 -0.7830  0.6144  0.4786
  954MOL0     O31515   3.265   7.114   8.496 -0.3118  0.9837 -0.0939
  954MOL0     C31516   3.365   7.115   8.426  0.5996  0.3481  0.6773
  954MOL0     O31517   3.490   7.142   8.467  0.2166 -0.3750 -0.3744
  954MOL0     C31518   3.495   7.224   8.571 -0.4236  0.0601 -0.6382
  954MOL0     C31519   3.484   7.366   8.566 -0.9872  0.5493  0.0682
  954MOL0     C31520   3.485   7.449   8.672  0.5679  0.4029 -1.4486
  954MOL0     C31521   3.495   7.395   8.805 -0.3581 -0.3601 -1.1372
  954MOL0     O31522   3.509   7.489   8.907 -0.2427 -0.1055  0.1904
  954MOL0     C31523   3.523   7.626   8.882 -0.1544  0.6109 -0.4263
  954MOL0     C31524   3.596   7.698   8.999 -0.0920 -0.0978 -0.3221
  954MOL0     C31525   3.650   7.853   8.982 -0.2580 -0.4602  0.1020
  954MOL0     C31526   3.774   7.875   8.897  0.1380 -0.0925 -0.1223
  954MOL0     C31527   3.818   8.011   8.887  0.1378  0.4088  0.3059
  954MOL0     C31528   3.953   8.030   8.817 -0.6031  0.2475 -1.0085
  954MOL0     C31529   3.981   8.178   8.779 -0.7752  0.3086 -0.5239
  954MOL0     C31530   3.982   8.249   8.911 -0.1688 -0.6370 -0.4498
  954MOL0     N31531   4.041   8.385   8.913 -0.2261  0.4414  0.0628
  954MOL0     C31532   3.965   8.499   8.896  0.5096  0.0174 -0.0060
  954MOL0     C31533   4.050   8.604   8.892  1.1280  0.2831 -1.3595
  954MOL0     C31534   4.003   8.750   8.877 -0.2599 -0.3949  0.3361
  954MOL0     C31535   4.001   8.840   8.991 -0.9450 -1.1115  0.2725
  954MOL0     C31536   3.930   8.975   8.949 -0.1751  0.4243  0.8786
  954MOL0     C31537   3.873   9.039   9.076 -0.4349 -0.4675 -1.1889
  954MOL0     O31538   3.984   9.046   9.170 -0.2401  0.4544 -0.0048
  954MOL0     C31539   3.968   9.129   9.280 -1.1249  0.5429  0.0123
  954MOL0     C31540   3.977   9.265   9.264 -0.7261  0.2093  0.0348
  954MOL0     C31541   3.960   9.358   9.365 -0.0155 -1.0173 -0.1359
  954MOL0     C31542   3.994   9.502   9.347  0.2155 -0.2558 -0.3458
  954MOL0     C31543   3.918   9.313   9.492  0.1699  0.0160  0.7969
  954MOL0     C31544   3.901   9.408   9.607 -0.1976  0.0879 -1.1924
  954MOL0     O31545   3.983   9.514   9.631 -0.5297 -1.0220  0.2535
  954MOL0     C31546   3.980   9.594   9.750 -0.3651  0.4553 -0.1473
  954MOL0     C31547   3.914   9.569   9.870  0.0280  0.1373 -0.0351
  954MOL0     C31548   3.936   9.646   9.983  0.0766 -0.5994  0.0128
  954MOL0     C31549   4.019   9.753   9.981 -0.3759  0.4332 -1.0668
  954MOL0     O31550   4.016   9.843  10.088  1.0816 -0.3248 -0.9379
  954MOL0     C31551   4.128   9.927  10.117 -0.0500 -0.0354  0.2669
  954MOL0     C31552   4.100   9.982  10.264  0.3115 -0.7383 -0.0061
  954MOL0     C31553   4.088  10.136  10.258 -0.4995  0.4416  0.0348
  954MOL0     C31554   4.055  10.188  10.394  0.5028  0.2149 -0.2113
  954MOL0     C31555   4.067  10.339  10.417 -0.0618  0.5196  0.4560
  954MOL0     C31556   4.220  10.389  10.384  0.8536  0.6135 -0.4703
  954MOL0     C31557   4.336  10.326  10.464  0.6296  0.7179  0.3499
  954MOL0     C31558   4.458  10.419  10.465  0.2148  0.0948  0.0566
  954MOL0    Cl31559   4.438  10.585  10.519  0.4477  0.0429 -0.2557
  954MOL0     C31560   4.080   9.787   9.863  0.1380 -0.6184  0.6369
  954MOL0     C31561   4.065   9.708   9.742  0.3211 -0.5328 -0.8418
  954MOL0     O31562   3.813   9.374   9.681  0.0211  0.2025  0.0487
  954MOL0     C31563   3.912   9.175   9.509 -0.0637 -0.2947  0.6500
  954MOL0     C31564   3.945   9.083   9.403 -1.1529 -0.1010 -0.7097
  954MOL0     N31565   4.171   8.557   8.944 -0.9440 -0.3094 -0.0668
  954MOL0     N31566   4.164   8.429   8.958 -0.0083  0.2942 -0.1230
  954MOL0     C31567   3.481   7.252   8.816 -0.0225 -0.3744 -0.6775
  954MOL0     C31568   3.491   7.168   8.705  1.2017 -0.0322 -0.6319
  954MOL0     C31569   3.349   7.076   8.282 -0.2275 -0.4083 -0.3031
  954MOL0     C31570   3.220   7.030   8.240 -0.3270  0.3343  0.6890
  954MOL0     C31571   3.199   7.004   8.113  0.4273 -0.1006  0.4776
  954MOL0     C31572   3.296   7.007   8.011  0.2088  0.1674  0.0541
  954MOL0     O31573   3.271   6.973   7.881  0.1334  0.1226 -0.0390
  954MOL0     C31574   3.173   7.056   7.810 -0.6236 -0.7551  0.0428
  954MOL0     C31575   3.247   7.140   7.704  0.7830  0.7740  0.2071
  954MOL0     C31576   3.264   7.055   7.578  0.0780  0.5904 -0.0648
  954MOL0     C31577   3.342   7.120   7.459  0.4289 -0.1433  0.1858
  954MOL0     C31578   3.488   7.119   7.497 -0.3646 -0.3355 -0.2267
  954MOL0     C31579   3.612   7.128   7.505 -0.1512 -0.5131  0.1759
  954MOL0     C31580   3.424   7.036   8.044 -0.8138  0.9400  0.1731
  954MOL0     C31581   3.452   7.073   8.180  0.5193 -0.2253  0.2771
  954MOL0     C31582   3.592   7.113   8.194 -0.3290 -0.0452 -0.8025
  954MOL0     H31583   3.494   7.416   8.470 -1.9339  1.3233  0.3600
  954MOL0     H31584   3.480   7.553   8.642 -1.0135  0.5461 -0.8039
  954MOL0     H31585   3.425   7.669   8.856  0.9511  3.0242 -0.9094
  954MOL0     H31586   3.594   7.636   8.800 -0.5678 -5.2573 -1.9239
  954MOL0     H31587   3.534   7.721   9.087 -0.3264  1.8543 -0.9522
  954MOL0     H31588   3.675   7.629   9.029 -0.2521  0.0470  0.4830
  954MOL0     H31589   3.571   7.925   8.955 -0.1722 -1.0356 -1.7618
  954MOL0     H31590   3.671   7.887   9.084 -1.7433 -0.0083  0.2880
  954MOL0     H31591   3.857   7.818   8.940  0.0340  0.8780  1.4561
  954MOL0     H31592   3.750   7.844   8.795 -0.4670 -1.4423  0.3975
  954MOL0     H31593   3.808   8.064   8.982  1.3572  1.0729  0.0795
  954MOL0     H31594   3.747   8.066   8.825  0.1483  2.2845  1.8560
  954MOL0     H31595   4.024   7.989   8.889 -1.3598 -0.6117 -0.7306
  954MOL0     H31596   3.952   7.971   8.724 -1.4785  0.3534 -1.0740
  954MOL0     H31597   3.904   8.209   8.708  0.2531 -4.8630 -4.4178
  954MOL0     H31598   4.074   8.195   8.724  0.5079 -1.4674  0.9789
  954MOL0     H31599   3.880   8.256   8.948  0.4845 -1.7414  1.7166
  954MOL0     H31600   4.042   8.193   8.984  2.0489  1.2874 -0.6770
  954MOL0     H31601   3.857   8.503   8.883  0.4653 -0.0352  0.3354
  954MOL0     H31602   3.903   8.758   8.833  0.7067 -0.1533 -1.9594
  954MOL0     H31603   4.074   8.793   8.805  0.0923  0.1414  0.9958
  954MOL0     H31604   3.947   8.775   9.060 -2.1792  0.7963  1.2209
  954MOL0     H31605   4.104   8.868   9.013 -0.2865  0.6348 -3.9961
  954MOL0     H31606   4.003   9.030   8.889 -1.7690  1.5840 -0.0975
  954MOL0     H31607   3.849   8.963   8.876  0.0308 -0.2784  0.7604
  954MOL0     H31608   3.835   9.141   9.064  0.6794  0.6766  3.1693
  954MOL0     H31609   3.789   8.976   9.106  0.7865 -1.4063  0.5023
  954MOL0     H31610   4.010   9.306   9.169  1.4225  0.2056  0.7275
  954MOL0     H31611   4.000   9.522   9.240 -0.1086  0.6571 -0.1963
  954MOL0     H31612   4.084   9.537   9.399  0.4411  0.0432 -0.9368
  954MOL0     H31613   3.918   9.571   9.384  0.5222  0.4896 -1.0717
  954MOL0     H31614   3.835   9.496   9.882 -0.5078  0.8415  0.8255
  954MOL0     H31615   3.879   9.620  10.072 -0.3291 -1.3976 -0.4652
  954MOL0     H31616   4.219   9.866  10.123 -0.6169 -1.2901 -2.7646
  954MOL0     H31617   4.150  10.009  10.048  1.4022 -0.5383  0.0959
  954MOL0     H31618   4.011   9.945  10.316 -0.9950  1.8405 -0.2224
  954MOL0     H31619   4.186   9.950  10.324  0.7062  0.6848  0.2292
  954MOL0     H31620   4.003  10.171  10.200  0.6365  1.5976 -0.9786
  954MOL0     H31621   4.186  10.174  10.227  0.8640 -1.6493  1.4727
  954MOL0     H31622   4.116  10.137  10.469 -2.1902 -2.0057  0.6678
  954MOL0     H31623   3.958  10.145  10.422  1.5235 -3.1945 -1.4639
  954MOL0     H31624   3.998  10.395  10.353 -3.6161  1.7090  4.8777
  954MOL0     H31625   4.038  10.360  10.520  1.4099 -2.3734  1.5850
  954MOL0     H31626   4.211  10.496  10.406 -4.3279  0.0855  1.1974
  954MOL0     H31627   4.250  10.377  10.279  2.1982 -0.4209 -0.0044
  954MOL0     H31628   4.357  10.228  10.418  1.5941  0.4075  1.3823
  954MOL0     H31629   4.313  10.298  10.567 -1.2932  0.5991 -0.0799
  954MOL0     H31630   4.495  10.420  10.362  1.2445  0.0941  0.4184
  954MOL0     H31631   4.527  10.374  10.536 -2.6648 -3.7512  0.7398
  954MOL0     H31632   4.151   9.868   9.852  0.9182 -1.3377  0.2234
  954MOL0     H31633   4.113   9.728   9.646  3.0603 -0.3324  0.4616
  954MOL0     H31634   3.886   9.133   9.606 -1.8079 -0.4736  0.1422
  954MOL0     H31635   3.954   8.977   9.423  0.1356  0.4418  2.1287
  954MOL0     H31636   3.480   7.208   8.916  2.5517  0.7160 -0.0859
  954MOL0     H31637   3.511   7.062   8.718 -0.2438 -0.1465  0.9411
  954MOL0     H31638   3.142   7.022   8.315 -0.1541  2.8269  1.2252
  954MOL0     H31639   3.106   6.966   8.072  0.7702  1.1325 -1.6058
  954MOL0     H31640   3.092   6.997   7.765  0.7871 -2.0958 -0.8701
  954MOL0     H31641   3.116   7.124   7.872 -1.5079 -0.7204 -0.7853
  954MOL0     H31642   3.348   7.170   7.735  0.5358  1.9192 -0.0554
  954MOL0     H31643   3.189   7.232   7.693  0.7531  1.2547  3.3053
  954MOL0     H31644   3.305   6.961   7.616 -0.1320 -0.0828 -1.4366
  954MOL0     H31645   3.165   7.032   7.538 -1.2973  3.4033  1.4240
  954MOL0     H31646   3.303   7.220   7.440 -1.7299 -1.3404 -2.3538
  954MOL0     H31647   3.320   7.058   7.372  0.1216 -0.9141  0.7943
  954MOL0     H31648   3.712   7.153   7.534 -1.5941  0.2320  5.6644
  954MOL0     H31649   3.495   7.029   7.963 -1.7855  0.3920 -0.6647
  954MOL0     H31650   3.657   7.095   8.108  1.7974  0.0887  0.6981
  954MOL0     H31651   3.599   7.220   8.215  1.6894  0.1867 -2.2621
  954MOL0     H31652   3.633   7.063   8.282  0.6349  2.5848  0.3219
  955MOL0     O31653  11.442   8.006   7.164  1.0412  0.1707  0.2895
  955MOL0     C31654  11.481   7.946   7.064  0.0281  0.3980 -0.1851
  955MOL0     O31655  11.614   7.929   7.025 -0.3404 -0.3650  0.4764
  955MOL0     C31656  11.702   8.015   7.094 -0.8472  0.9703 -0.1999
  955MOL0     C31657  11.764   7.959   7.205 -0.6848  0.2762 -0.3890
  955MOL0     C31658  11.835   8.039   7.291  0.6076 -0.5956 -0.3049
  955MOL0     C31659  11.843   8.183   7.267 -0.0802  0.0548  0.7344
  955MOL0     O31660  11.932   8.251   7.354  0.8594  0.4254 -0.2393
  955MOL0     C31661  11.944   8.396   7.352 -0.0272 -0.3056  0.1796
  955MOL0     C31662  11.825   8.459   7.434 -0.1759 -0.0107  0.0953
  955MOL0     C31663  11.832   8.612   7.444 -0.0278 -0.0128 -0.5925
  955MOL0     C31664  11.794   8.666   7.587  0.2282  0.3274  1.0353
  955MOL0     C31665  11.784   8.814   7.602  0.6542 -0.2225 -0.7835
  955MOL0     C31666  11.664   8.871   7.523 -0.8489  0.8558  0.1068
  955MOL0     C31667  11.620   9.002   7.592 -0.0513 -0.3411 -0.4416
  955MOL0     C31668  11.515   9.074   7.525  0.4119  0.4624 -1.4589
  955MOL0     N31669  11.480   9.189   7.604  0.0493  0.7744 -0.4728
  955MOL0     C31670  11.395   9.178   7.716 -0.8104 -0.5645 -0.4449
  955MOL0     C31671  11.370   9.309   7.748  0.4763  1.0722 -0.5068
  955MOL0     C31672  11.295   9.351   7.867  1.3372 -0.8505  0.2013
  955MOL0     C31673  11.142   9.332   7.852  0.8730 -0.2367 -0.2863
  955MOL0     C31674  11.081   9.396   7.724  0.3358  0.1352  0.4791
  955MOL0     C31675  11.102   9.537   7.700 -0.6183 -0.5084  0.0819
  955MOL0     O31676  11.037   9.620   7.795  0.4977 -0.0547 -0.6223
  955MOL0     C31677  10.909   9.670   7.770 -0.3648 -0.7379  1.8630
  955MOL0     C31678  10.814   9.642   7.665 -1.3167  0.1778  0.5031
  955MOL0     C31679  10.691   9.690   7.674  0.4327  0.6962 -0.5875
  955MOL0     C31680  10.585   9.652   7.574 -0.2361  0.8944  0.6481
  955MOL0     C31681  10.652   9.772   7.780 -0.2764 -0.3903 -0.2321
  955MOL0     C31682  10.521   9.837   7.794  0.4219 -0.0730  0.1359
  955MOL0     O31683  10.464   9.838   7.916  0.7116  0.5188 -0.1903
  955MOL0     C31684  10.339   9.893   7.930  0.3520 -0.3488 -0.2734
  955MOL0     C31685  10.322  10.037   7.954 -0.5603  1.2912 -0.5165
  955MOL0     C31686  10.192  10.082   7.968  1.4820  0.1337 -0.2530
  955MOL0     C31687  10.081   9.996   7.984  0.5246  0.3655 -0.7247
  955MOL0     O31688   9.955  10.054   7.997 -0.3414 -0.6589 -0.0500
  955MOL0     C31689   9.850  10.025   7.908 -0.2414 -0.1125  0.5362
  955MOL0     C31690   9.731  10.039   8.005  0.6754  0.0678 -0.1870
  955MOL0     C31691   9.667  10.181   8.018 -0.5263  0.5108 -0.0883
  955MOL0     C31692   9.598  10.216   8.157 -0.7304 -0.9796 -0.5999
  955MOL0     C31693   9.516  10.345   8.160  0.5370 -0.3566 -0.9690
  955MOL0     C31694   9.443  10.356   8.293  0.5540 -0.2587 -0.2921
  955MOL0     C31695   9.377  10.489   8.309  1.0051 -0.7499  0.2033
  955MOL0     C31696   9.338  10.521   8.459 -0.0165  0.6106 -0.0743
  955MOL0    Cl31697   9.221  10.394   8.499  0.0643 -0.1412 -0.2607
  955MOL0     C31698  10.100   9.864   7.976 -0.7036 -0.0448 -0.5189
  955MOL0     C31699  10.230   9.808   7.948 -0.3756 -0.4222 -0.1446
  955MOL0     O31700  10.481   9.899   7.692  0.4332 -1.0781 -0.6663
  955MOL0     C31701  10.750   9.810   7.866  0.3788 -0.8747 -0.4666
  955MOL0     C31702  10.871   9.755   7.866 -1.5149 -0.0464 -0.6109
  955MOL0     N31703  11.438   9.397   7.666  0.8306  0.5527 -0.3056
  955MOL0     N31704  11.490   9.323   7.574  0.8622  0.4098 -1.4324
  955MOL0     C31705  11.775   8.237   7.157  0.3109  0.0006 -0.6332
  955MOL0     C31706  11.713   8.154   7.061  0.5447 -0.3346 -0.0508
  955MOL0     C31707  11.393   7.857   6.974  1.0190 -0.1111 -0.9416
  955MOL0     C31708  11.445   7.767   6.882  0.1568  1.1091 -0.3613
  955MOL0     C31709  11.366   7.694   6.791  0.5226  0.2047  0.7150
  955MOL0     C31710  11.224   7.711   6.784 -0.3021  0.2406 -0.3972
  955MOL0     O31711  11.130   7.644   6.708 -0.1144 -0.2587 -0.3611
  955MOL0     C31712  11.180   7.554   6.608  0.2717  0.1520  0.1249
  955MOL0     C31713  11.246   7.630   6.496 -0.1041  0.4731  0.0616
  955MOL0     C31714  11.148   7.707   6.414 -0.5547  0.5012 -0.1010
  955MOL0     C31715  11.216   7.785   6.303  0.1581  0.3715  0.6179
  955MOL0     C31716  11.120   7.835   6.210  0.2251 -0.6284  0.1345
  955MOL0     C31717  11.057   7.893   6.128 -0.6204 -0.5764  0.6385
  955MOL0     C31718  11.174   7.795   6.878 -1.1915 -1.5388 -0.7968
  955MOL0     C31719  11.247   7.873   6.976 -0.4893 -0.2370 -0.1652
  955MOL0     C31720  11.186   7.948   7.086  0.1272 -0.4976  0.8454
  955MOL0     H31721  11.767   7.855   7.237  1.3167  0.4968  0.2922
  955MOL0     H31722  11.883   7.986   7.373  1.0085 -2.6113 -1.7682
  955MOL0     H31723  11.951   8.434   7.250 -0.7388  0.8150  0.5264
  955MOL0     H31724  12.036   8.427   7.401 -0.0116  2.7345 -1.5447
  955MOL0     H31725  11.736   8.435   7.376 -0.7664 -1.6014  1.5787
  955MOL0     H31726  11.815   8.404   7.528 -1.2423  0.1150  0.0666
  955MOL0     H31727  11.938   8.629   7.421  1.0188 -2.1921  2.0957
  955MOL0     H31728  11.774   8.654   7.361 -1.5235  0.2443  0.5510
  955MOL0     H31729  11.693   8.629   7.608 -0.8464  1.1525 -2.1566
  955MOL0     H31730  11.861   8.630   7.666  1.5946 -0.7487 -0.5651
  955MOL0     H31731  11.879   8.860   7.576 -0.6267  0.8773 -3.9656
  955MOL0     H31732  11.773   8.843   7.707 -5.0549  1.4808 -1.5142
  955MOL0     H31733  11.695   8.889   7.420 -1.5184 -1.6778 -0.6146
  955MOL0     H31734  11.579   8.803   7.510 -0.9451  1.1873 -1.0406
  955MOL0     H31735  11.710   9.064   7.599 -0.4384  0.5192 -2.4296
  955MOL0     H31736  11.594   8.984   7.696 -1.0719  2.7145 -0.0732
  955MOL0     H31737  11.553   9.106   7.427 -1.2615 -1.6730 -2.9001
  955MOL0     H31738  11.423   9.018   7.507 -0.8623  2.2226 -0.7675
  955MOL0     H31739  11.356   9.089   7.764 -0.8049 -0.5669 -0.4446
  955MOL0     H31740  11.313   9.457   7.886  0.5598 -0.5587 -0.6385
  955MOL0     H31741  11.333   9.300   7.956  0.5251  0.0846  1.1092
  955MOL0     H31742  11.135   9.223   7.850  3.1047 -0.4476  0.5153
  955MOL0     H31743  11.089   9.370   7.940  2.4307  0.5827  0.3341
  955MOL0     H31744  11.137   9.349   7.642  2.1053 -1.0473  2.2752
  955MOL0     H31745  10.979   9.362   7.707  0.5020  0.5806 -1.8575
  955MOL0     H31746  11.206   9.562   7.720  0.2559 -3.8213  0.2316
  955MOL0     H31747  11.083   9.579   7.601  0.7393  2.0150  0.8103
  955MOL0     H31748  10.862   9.574   7.594 -2.3835 -0.6409  0.5447
  955MOL0     H31749  10.606   9.713   7.486 -0.2208 -0.2791 -0.1846
  955MOL0     H31750  10.486   9.672   7.616 -0.3176  0.9337  0.4374
  955MOL0     H31751  10.600   9.546   7.548  1.7107  0.9878  1.1834
  955MOL0     H31752  10.409  10.100   7.964  0.8679 -0.8463  1.7977
  955MOL0     H31753  10.169  10.187   7.984 -2.4593 -0.7445  1.0009
  955MOL0     H31754   9.824  10.100   7.832 -1.6918  2.1953  3.1461
  955MOL0     H31755   9.860   9.925   7.865  4.0899  0.3681  0.0533
  955MOL0     H31756   9.657   9.965   7.974  1.0986 -0.9429  1.1030
  955MOL0     H31757   9.758  10.001   8.104  0.8994  0.3667 -0.1315
  955MOL0     H31758   9.592  10.180   7.938 -0.4435  2.3674 -0.2203
  955MOL0     H31759   9.746  10.251   7.992  2.8289 -2.0035  2.4293
  955MOL0     H31760   9.683  10.230   8.225  1.5137  0.2394 -3.4199
  955MOL0     H31761   9.544  10.126   8.187 -0.1439 -0.6228  1.7399
  955MOL0     H31762   9.582  10.429   8.138 -3.0085  1.9443 -3.8987
  955MOL0     H31763   9.446  10.328   8.078 -2.8147  1.3015  1.3494
  955MOL0     H31764   9.510  10.345   8.379  0.7234 -0.3612 -0.4363
  955MOL0     H31765   9.371  10.275   8.286  1.2275 -0.9793  0.8521
  955MOL0     H31766   9.291  10.500   8.241 -2.2542 -1.5247  3.8328
  955MOL0     H31767   9.445  10.569   8.278  0.5665 -1.7168 -3.8872
  955MOL0     H31768   9.292  10.618   8.482  0.8954  0.6860  1.5833
  955MOL0     H31769   9.415  10.517   8.537 -0.9374 -1.6188  0.8169
  955MOL0     H31770  10.023   9.790   7.992  1.7139 -2.6822 -0.2340
  955MOL0     H31771  10.232   9.700   7.936 -2.9448 -0.4429 -0.9079
  955MOL0     H31772  10.739   9.895   7.933  1.3124 -2.8419  2.3554
  955MOL0     H31773  10.947   9.776   7.940  0.6366 -4.0841 -1.3935
  955MOL0     H31774  11.773   8.345   7.149  3.5858  0.0883 -1.6815
  955MOL0     H31775  11.665   8.212   6.983  1.2585 -1.1236 -1.1079
  955MOL0     H31776  11.550   7.742   6.894 -0.1564  0.1241  0.4521
  955MOL0     H31777  11.417   7.607   6.751 -1.1466 -0.1515 -0.7649
  955MOL0     H31778  11.247   7.476   6.646 -3.4293 -2.4532  1.8975
  955MOL0     H31779  11.097   7.503   6.560  0.1035 -0.5068  1.0831
  955MOL0     H31780  11.285   7.549   6.433 -1.6139  0.5738 -1.0681
  955MOL0     H31781  11.322   7.700   6.531 -2.2540  0.8478  4.9050
  955MOL0     H31782  11.066   7.646   6.373  0.5293 -1.5821  0.6624
  955MOL0     H31783  11.093   7.767   6.487 -2.0720 -1.7043  0.7062
  955MOL0     H31784  11.291   7.722   6.254  0.0936  0.3236  0.5800
  955MOL0     H31785  11.270   7.861   6.360 -1.3955 -0.4987  3.4737
  955MOL0     H31786  11.000   7.935   6.048  2.5241 -3.6421 -3.6101
  955MOL0     H31787  11.066   7.805   6.890 -1.2409 -2.3871 -0.4179
  955MOL0     H31788  11.215   7.899   7.180 -0.6690 -4.7722 -0.9185
  955MOL0     H31789  11.210   8.054   7.079 -1.0139 -0.3666 -2.8672
  955MOL0     H31790  11.077   7.946   7.085 -0.0298  2.8916  0.4524
  956MOL0     O31791   2.292   1.427   9.858  0.7187 -0.5540  0.2472
  956MOL0     C31792   2.256   1.468   9.747  0.7184  0.4807 -0.1593
  956MOL0     O31793   2.124   1.449   9.690  0.5136  0.2542  0.6356
  956MOL0     C31794   2.026   1.399   9.775  0.4556 -0.6937  0.8349
  956MOL0     C31795   1.943   1.287   9.746 -0.5265  0.3246 -0.2818
  956MOL0     C31796   1.820   1.269   9.808 -0.2359  0.1758  0.1878
  956MOL0     C31797   1.769   1.353   9.907 -0.3413  0.5490 -0.5212
  956MOL0     O31798   1.660   1.331   9.986  0.3255 -0.6908 -0.2675
  956MOL0     C31799   1.626   1.193   9.997 -0.0367 -0.3440 -0.1651
  956MOL0     C31800   1.541   1.177  10.118  0.7840  0.0487 -1.0620
  956MOL0     C31801   1.612   1.209  10.249 -0.9549 -0.3598  0.2565
  956MOL0     C31802   1.587   1.097  10.352  0.0137 -0.1535 -1.0996
  956MOL0     C31803   1.635   1.137  10.495 -0.4323  0.2740  0.9090
  956MOL0     C31804   1.609   1.019  10.587 -0.0056  0.0155  0.2001
  956MOL0     C31805   1.596   1.065  10.734  0.0939 -0.6760  0.3575
  956MOL0     C31806   1.474   1.169  10.761  0.3069  0.8325 -1.0737
  956MOL0     N31807   1.340   1.104  10.776 -0.5567 -0.1990  0.9016
  956MOL0     C31808   1.257   1.102  10.882  1.0335  0.2998 -0.4541
  956MOL0     C31809   1.159   1.011  10.850 -0.6294  0.5990  0.0494
  956MOL0     C31810   1.042   0.965  10.939 -0.3399  0.3349  0.2345
  956MOL0     C31811   0.912   1.002  10.869 -0.4563  0.4110 -0.4090
  956MOL0     C31812   0.782   0.965  10.945  0.3654 -0.8979 -0.1360
  956MOL0     C31813   0.769   1.002  11.093  0.4492  0.0683 -0.0921
  956MOL0     O31814   0.758   1.144  11.101 -0.0777  0.0941 -0.6145
  956MOL0     C31815   0.683   1.179  11.204  0.3658  0.3100 -1.1800
  956MOL0     C31816   0.742   1.229  11.322 -0.4840 -0.7886  0.5924
  956MOL0     C31817   0.671   1.242  11.442 -1.0414  0.0588  0.0160
  956MOL0     C31818   0.740   1.306  11.562  0.2694  0.4634 -0.0565
  956MOL0     C31819   0.534   1.205  11.439  0.8607  0.3050  0.0732
  956MOL0     C31820   0.441   1.228  11.557 -0.3996  0.2850  0.3489
  956MOL0     O31821   0.343   1.130  11.576 -0.2814  0.1571  0.0589
  956MOL0     C31822   0.323   1.091  11.709  0.7524 -1.3114 -0.5903
  956MOL0     C31823   0.409   1.117  11.816  0.5011 -0.2418 -0.4123
  956MOL0     C31824   0.367   1.082  11.952  0.1708 -0.2105 -0.2552
  956MOL0     C31825   0.246   1.013  11.973 -0.6408 -0.2707  0.1889
  956MOL0     O31826   0.213   0.982  12.100  0.4242  0.2674 -0.3454
  956MOL0     C31827   0.278   0.869  12.160 -0.0462  0.2118 -1.4282
  956MOL0     C31828   0.288   0.900  12.310  0.6944  0.5985  0.2779
  956MOL0     C31829   0.341   0.780  12.398  0.7243  1.0894 -0.7731
  956MOL0     C31830   0.341   0.814  12.545 -0.1061  0.1332  0.2512
  956MOL0     C31831   0.367   0.688  12.629 -0.4941  1.0922 -0.1409
  956MOL0     C31832   0.515   0.639  12.633 -0.3441 -0.1105 -0.0446
  956MOL0     C31833   0.552   0.531  12.730  0.0077 -0.1637 -0.9540
  956MOL0     C31834   0.510   0.563  12.876 -0.1267  0.6177  0.4484
  956MOL0    Cl31835   0.562   0.421  12.952  0.0355  0.1574  0.3078
  956MOL0     C31836   0.168   0.997  11.864 -0.0968  0.6444 -0.8422
  956MOL0     C31837   0.194   1.046  11.736 -0.2133 -0.2482 -0.4352
  956MOL0     O31838   0.438   1.339  11.601 -0.1090 -0.2712 -0.1441
  956MOL0     C31839   0.474   1.148  11.328 -0.7130  0.1233  0.8762
  956MOL0     C31840   0.545   1.141  11.207 -0.6120  0.3996  0.4574
  956MOL0     N31841   1.182   0.955  10.723  0.8534  0.6256  0.0576
  956MOL0     N31842   1.296   1.017  10.688 -0.2735 -0.0526  0.0227
  956MOL0     C31843   1.851   1.466   9.939  0.7348 -0.3478 -0.4833
  956MOL0     C31844   1.972   1.491   9.874 -0.5173  0.1881  0.6074
  956MOL0     C31845   2.371   1.512   9.654 -0.1991  0.3981 -0.2268
  956MOL0     C31846   2.498   1.475   9.690 -0.1322  0.1504 -0.4053
  956MOL0     C31847   2.602   1.510   9.615  0.1571  0.9856 -0.0619
  956MOL0     C31848   2.591   1.581   9.498  0.0015 -0.4782 -0.9182
  956MOL0     O31849   2.711   1.591   9.424 -0.0794 -0.1687  0.3357
  956MOL0     C31850   2.722   1.674   9.313  0.1624 -0.3944  0.3120
  956MOL0     C31851   2.785   1.804   9.337 -0.5291 -0.8975  0.1359
  956MOL0     C31852   2.944   1.800   9.344  0.5104  0.4210 -0.2791
  956MOL0     C31853   2.995   1.936   9.357 -0.1675  0.2808 -0.9809
  956MOL0     C31854   3.133   1.911   9.407 -0.1339 -0.8053  0.0152
  956MOL0     C31855   3.253   1.882   9.439  1.0986  0.4679 -0.2331
  956MOL0     C31856   2.461   1.625   9.460 -0.0541  0.1494 -0.5224
  956MOL0     C31857   2.348   1.593   9.539 -1.1419  0.2157 -0.7772
  956MOL0     C31858   2.216   1.655   9.502  0.3540 -0.1721  0.2244
  956MOL0     H31859   1.977   1.226   9.663 -0.5870 -0.9707  0.6283
  956MOL0     H31860   1.757   1.197   9.756  0.9462  1.1583 -2.8659
  956MOL0     H31861   1.706   1.119   9.991 -2.8770 -3.7100  0.2436
  956MOL0     H31862   1.575   1.170   9.903  1.9990 -0.4009 -1.3204
  956MOL0     H31863   1.459   1.248  10.120  1.9494  1.4537 -1.2977
  956MOL0     H31864   1.504   1.074  10.127 -1.4254  0.8573 -0.5331
  956MOL0     H31865   1.718   1.217  10.225 -0.8947  1.4262  0.9226
  956MOL0     H31866   1.590   1.306  10.294  1.8464 -0.7978  2.8393
  956MOL0     H31867   1.482   1.071  10.340 -0.1867  1.5026 -3.8079
  956MOL0     H31868   1.636   1.007  10.316 -0.4591  0.2877 -2.9671
  956MOL0     H31869   1.570   1.222  10.517 -0.7060  0.6183 -1.0510
  956MOL0     H31870   1.741   1.164  10.492 -0.7271  1.6216 -3.5614
  956MOL0     H31871   1.514   0.965  10.580  0.1558 -0.3333  0.6224
  956MOL0     H31872   1.691   0.946  10.582 -0.0306 -0.0283  0.4117
  956MOL0     H31873   1.691   1.108  10.765 -0.8832  1.7500  0.2069
  956MOL0     H31874   1.574   0.982  10.802 -0.8200 -0.5202  0.2703
  956MOL0     H31875   1.499   1.204  10.862 -1.2556 -3.6881  1.1735
  956MOL0     H31876   1.459   1.246  10.685 -2.2783 -0.4554 -1.9968
  956MOL0     H31877   1.267   1.157  10.975  0.7254  0.1411 -0.3275
  956MOL0     H31878   1.047   0.988  11.045 -0.8347 -1.6488  0.7371
  956MOL0     H31879   1.050   0.856  10.929  2.3808  0.4815  0.0839
  956MOL0     H31880   0.908   1.107  10.839 -0.6515  0.3867 -0.4747
  956MOL0     H31881   0.917   0.938  10.780 -1.4474 -2.6894  1.6210
  956MOL0     H31882   0.684   1.002  10.914  0.3980  0.8306  1.5826
  956MOL0     H31883   0.777   0.856  10.942  1.1066 -0.9243 -1.4131
  956MOL0     H31884   0.693   0.938  11.139  1.4719 -0.8655  0.3567
  956MOL0     H31885   0.863   0.975  11.141  0.0826 -1.7724 -0.3154
  956MOL0     H31886   0.850   1.245  11.315 -0.2741 -2.4568 -1.0348
  956MOL0     H31887   0.688   1.400  11.582 -1.4957 -0.3985 -0.3375
  956MOL0     H31888   0.845   1.328  11.544  0.3422 -1.4786 -2.4966
  956MOL0     H31889   0.725   1.254  11.657  0.2337  0.5893  0.0072
  956MOL0     H31890   0.509   1.154  11.797  1.4706 -2.3580  0.2006
  956MOL0     H31891   0.442   1.116  12.023 -0.6509 -1.7961  1.4752
  956MOL0     H31892   0.215   0.785  12.131 -0.7286  1.0118 -2.3330
  956MOL0     H31893   0.376   0.839  12.121 -0.6575 -1.9767 -1.3906
  956MOL0     H31894   0.360   0.981  12.327  1.7849 -1.0280  4.6528
  956MOL0     H31895   0.193   0.935  12.352  0.3547 -1.2430  1.1492
  956MOL0     H31896   0.437   0.751  12.356  1.2444 -1.4280  1.8230
  956MOL0     H31897   0.271   0.699  12.375  0.1736  1.2909  0.1520
  956MOL0     H31898   0.238   0.844  12.562 -0.2553  0.8066 -1.6169
  956MOL0     H31899   0.410   0.896  12.567 -0.5470  1.7291 -3.4570
  956MOL0     H31900   0.315   0.695  12.725 -0.9661  0.6007 -0.3602
  956MOL0     H31901   0.298   0.618  12.583  0.9367 -0.8572  0.5411
  956MOL0     H31902   0.570   0.731  12.657  2.9597 -2.1445  0.8797
  956MOL0     H31903   0.545   0.607  12.533 -2.0447  0.1571 -0.6724
  956MOL0     H31904   0.661   0.524  12.731 -0.0347 -3.2887  1.4678
  956MOL0     H31905   0.507   0.438  12.694 -0.3639 -0.4967  0.3075
  956MOL0     H31906   0.401   0.573  12.884 -0.3365 -1.7209  1.6458
  956MOL0     H31907   0.558   0.650  12.920  2.3958 -1.8772  3.0616
  956MOL0     H31908   0.068   0.961  11.882 -1.5492  3.7842 -1.9047
  956MOL0     H31909   0.118   1.036  11.658  0.8717 -2.1810 -1.3177
  956MOL0     H31910   0.375   1.103  11.321 -1.0215  1.0364 -1.6824
  956MOL0     H31911   0.493   1.098  11.122  1.3727 -4.4016  1.3275
  956MOL0     H31912   1.824   1.524  10.028 -1.2266  0.7329 -1.7110
  956MOL0     H31913   2.027   1.583   9.890 -1.1658  0.8074 -0.5721
  956MOL0     H31914   2.514   1.418   9.781 -5.1620 -1.5693 -0.3054
  956MOL0     H31915   2.697   1.467   9.644  0.0344 -0.2668 -1.4023
  956MOL0     H31916   2.789   1.621   9.245  1.3554 -3.0209  3.3080
  956MOL0     H31917   2.626   1.703   9.269  1.2175  2.4918 -0.3332
  956MOL0     H31918   2.736   1.846   9.426  0.2525 -0.2961  0.2921
  956MOL0     H31919   2.760   1.861   9.247 -2.4303 -2.3908 -0.3404
  956MOL0     H31920   2.976   1.725   9.417 -1.1842  0.5458  0.6485
  956MOL0     H31921   2.970   1.761   9.245 -1.9796 -1.9175 -0.1432
  956MOL0     H31922   2.935   1.992   9.429 -0.9746 -1.7114 -0.0018
  956MOL0     H31923   2.981   1.981   9.258 -1.2978 -2.4865 -2.1944
  956MOL0     H31924   3.348   1.851   9.478  0.2680 -1.2906  0.4646
  956MOL0     H31925   2.432   1.688   9.377  3.9378  1.4310 -1.1797
  956MOL0     H31926   2.170   1.595   9.423  1.7697 -4.1199  2.1091
  956MOL0     H31927   2.151   1.678   9.587 -2.0536  1.2493 -1.8702
  956MOL0     H31928   2.227   1.757   9.465  1.9028 -0.3349  0.1402
  957MOL0     O31929   9.573   2.574   3.973 -0.0835 -0.9266 -0.4016
  957MOL0     C31930   9.662   2.634   3.901  1.0578  0.5756  0.2552
  957MOL0     O31931   9.648   2.667   3.773 -0.2355  0.6125 -0.2221
  957MOL0     C31932   9.532   2.670   3.702  0.0671 -0.8842 -0.3092
  957MOL0     C31933   9.513   2.781   3.624 -1.2204  1.0487 -0.8662
  957MOL0     C31934   9.386   2.802   3.565  0.5393 -0.6205 -0.6633
  957MOL0     C31935   9.281   2.711   3.566  0.5435 -0.0403  0.2234
  957MOL0     O31936   9.171   2.715   3.486  0.0031  0.3730  0.3245
  957MOL0     C31937   9.156   2.840   3.411  0.2993  0.7554 -0.0226
  957MOL0     C31938   9.009   2.824   3.360 -0.5984  0.0123 -0.2840
  957MOL0     C31939   9.003   2.899   3.225 -0.3310 -0.4279  0.9405
  957MOL0     C31940   8.856   2.927   3.173  0.0661  0.0031 -0.0425
  957MOL0     C31941   8.849   3.027   3.052  0.1085 -0.3929  0.1540
  957MOL0     C31942   8.953   3.009   2.937  0.7543  0.2886  0.1955
  957MOL0     C31943   8.951   2.859   2.893 -0.1664 -0.9225  0.5929
  957MOL0     C31944   8.991   2.829   2.751 -0.4871  0.4159  0.6140
  957MOL0     N31945   8.998   2.681   2.736 -0.1622 -0.3117 -0.0397
  957MOL0     C31946   8.887   2.596   2.720  0.7859 -0.2363 -0.7543
  957MOL0     C31947   8.937   2.476   2.670  0.1536 -0.5822 -0.5514
  957MOL0     C31948   8.851   2.344   2.631 -0.2546 -0.2064 -0.2770
  957MOL0     C31949   8.923   2.252   2.535  0.3171 -0.6964  0.6323
  957MOL0     C31950   8.895   2.099   2.547  0.4180  1.1701 -0.3810
  957MOL0     C31951   8.754   2.047   2.512 -0.2276  0.7050 -0.0918
  957MOL0     O31952   8.722   2.075   2.375  0.7820 -0.4838  0.6751
  957MOL0     C31953   8.637   2.005   2.292  0.2326  0.1110  0.4221
  957MOL0     C31954   8.557   1.888   2.321  0.0543  0.6600  0.4906
  957MOL0     C31955   8.461   1.835   2.234 -0.5675  0.1340  0.2954
  957MOL0     C31956   8.390   1.706   2.284 -0.5088 -1.0605 -0.7242
  957MOL0     C31957   8.459   1.894   2.104 -0.2218 -0.1065  0.1243
  957MOL0     C31958   8.355   1.849   1.995  0.2583 -0.6341  0.3840
  957MOL0     O31959   8.368   1.923   1.873  0.6564  0.3463 -0.6472
  957MOL0     C31960   8.274   1.916   1.778  0.7781 -0.3514 -1.2229
  957MOL0     C31961   8.143   1.861   1.784  0.6336 -0.6266  0.4742
  957MOL0     C31962   8.054   1.863   1.673 -0.6932 -0.2093 -0.4302
  957MOL0     C31963   8.096   1.922   1.551  0.3841  0.6297 -0.2976
  957MOL0     O31964   8.012   1.926   1.434 -0.6809  0.2249  0.0453
  957MOL0     C31965   7.946   1.800   1.400  1.4080 -0.5234  0.1921
  957MOL0     C31966   7.941   1.795   1.241 -1.3487  0.4501 -0.0947
  957MOL0     C31967   7.819   1.869   1.189  0.0578 -0.4340  0.7817
  957MOL0     C31968   7.826   1.908   1.050 -0.5812  0.7371  0.0486
  957MOL0     C31969   7.676   1.943   1.012  0.5691 -0.4173 -0.7929
  957MOL0     C31970   7.679   1.965   0.861  0.8235  0.6192 -0.1637
  957MOL0     C31971   7.537   2.026   0.832  0.9777 -0.1970  0.0044
  957MOL0     C31972   7.410   1.935   0.852 -0.0407 -0.7640 -0.4538
  957MOL0    Cl31973   7.264   1.999   0.789 -0.0930  0.1264  0.2460
  957MOL0     C31974   8.222   1.991   1.541 -0.3834 -0.3810  0.2676
  957MOL0     C31975   8.303   1.992   1.660  0.2163  0.4936 -0.1915
  957MOL0     O31976   8.283   1.747   2.007 -0.3614 -0.1983 -0.8464
  957MOL0     C31977   8.550   1.999   2.070  0.1792  0.3983 -0.6832
  957MOL0     C31978   8.629   2.065   2.168 -0.2467 -0.1077 -0.7617
  957MOL0     N31979   9.073   2.490   2.662 -0.2256  0.5604 -0.1630
  957MOL0     N31980   9.108   2.615   2.709 -0.5140  1.1471  0.0238
  957MOL0     C31981   9.302   2.596   3.648  0.8630  0.2499 -0.6307
  957MOL0     C31982   9.422   2.584   3.725  0.6843  0.8898  1.1152
  957MOL0     C31983   9.783   2.695   3.964  0.0327 -0.0811 -0.1629
  957MOL0     C31984   9.815   2.825   3.937  0.3661  0.5986  0.2103
  957MOL0     C31985   9.905   2.906   4.006  0.5874  0.3771 -0.0793
  957MOL0     C31986   9.972   2.848   4.115  0.5992  0.0243  0.4721
  957MOL0     O31987  10.071   2.909   4.183 -0.0092 -0.5167 -0.3328
  957MOL0     C31988  10.107   3.047   4.154 -0.3569  0.0387 -0.0365
  957MOL0     C31989  10.256   3.070   4.176 -0.2776 -0.7000  0.5186
  957MOL0     C31990  10.295   3.071   4.325 -0.5892  0.5228 -0.1707
  957MOL0     C31991  10.206   3.168   4.411 -0.4743 -0.5081  0.3596
  957MOL0     C31992  10.173   3.302   4.358 -0.2928  0.5181  0.3426
  957MOL0     C31993  10.159   3.408   4.302  0.1288  0.3340 -0.1334
  957MOL0     C31994   9.963   2.710   4.131  0.3830 -0.3546  0.5319
  957MOL0     C31995   9.871   2.630   4.061  0.2556  0.8930 -0.6880
  957MOL0     C31996   9.870   2.485   4.102 -0.6099  0.2782  0.2566
  957MOL0     H31997   9.593   2.854   3.621  2.0126 -2.2475 -1.3615
  957MOL0     H31998   9.378   2.900   3.519  0.7231 -0.5967 -0.6441
  957MOL0     H31999   9.220   2.850   3.323 -1.7650 -1.2308 -1.9013
  957MOL0     H32000   9.173   2.930   3.469 -3.4237  0.6087  1.5997
  957MOL0     H32001   8.981   2.719   3.345 -0.2472  0.1643 -2.4178
  957MOL0     H32002   8.938   2.874   3.425  0.5888  2.3995 -0.7136
  957MOL0     H32003   9.050   2.998   3.237 -1.4141  0.2219  0.0565
  957MOL0     H32004   9.061   2.836   3.156  1.0743  1.9646 -0.2196
  957MOL0     H32005   8.812   2.828   3.160  0.7774 -0.4549  1.0169
  957MOL0     H32006   8.799   2.970   3.255 -0.2022 -1.1881  0.4061
  957MOL0     H32007   8.872   3.125   3.094  0.5089  0.9102 -2.8403
  957MOL0     H32008   8.750   3.026   3.006 -0.2398  0.3250  0.8705
  957MOL0     H32009   8.922   3.071   2.853 -0.6956 -0.9365 -0.2355
  957MOL0     H32010   9.058   3.029   2.957  1.1589  0.6308 -1.9956
  957MOL0     H32011   8.849   2.822   2.906 -0.2328  0.2652  5.2681
  957MOL0     H32012   9.016   2.799   2.957  0.1453 -1.7219 -0.4514
  957MOL0     H32013   8.925   2.876   2.676 -3.1585  0.7875  3.0022
  957MOL0     H32014   9.092   2.866   2.732 -0.9253  0.9563 -0.7853
  957MOL0     H32015   8.785   2.628   2.741  0.0044 -2.7844 -0.2906
  957MOL0     H32016   8.757   2.383   2.590  0.6853  0.2390 -2.1294
  957MOL0     H32017   8.837   2.291   2.725  1.2096  0.0531  0.1169
  957MOL0     H32018   8.895   2.277   2.432 -0.3105 -0.6547  0.8078
  957MOL0     H32019   9.031   2.263   2.543  0.6929 -2.3197 -1.3157
  957MOL0     H32020   8.967   2.043   2.487  1.5787 -0.8903  2.6961
  957MOL0     H32021   8.903   2.063   2.650 -2.8279  0.4700 -0.2494
  957MOL0     H32022   8.764   1.939   2.523  3.6353  0.6424 -2.5919
  957MOL0     H32023   8.677   2.078   2.584 -1.0543 -1.9706  0.3032
  957MOL0     H32024   8.574   1.840   2.417  0.7571 -2.4108 -1.0315
  957MOL0     H32025   8.290   1.712   2.241 -1.4644 -0.4674  1.4118
  957MOL0     H32026   8.391   1.689   2.392  2.5768  0.0056 -0.4893
  957MOL0     H32027   8.434   1.628   2.222 -0.5970 -1.7694  0.0868
  957MOL0     H32028   8.097   1.832   1.878 -0.1324 -2.0182 -0.2921
  957MOL0     H32029   7.952   1.828   1.683 -0.3878 -1.7819 -2.1927
  957MOL0     H32030   8.001   1.718   1.447 -0.2349 -0.8970  1.5844
  957MOL0     H32031   7.840   1.805   1.428  0.3701 -0.0302 -3.3636
  957MOL0     H32032   8.035   1.830   1.197 -0.2269  0.6276  2.2864
  957MOL0     H32033   7.938   1.689   1.215 -0.9115 -0.3308  2.6779
  957MOL0     H32034   7.803   1.963   1.244 -2.2895 -0.5419  0.4067
  957MOL0     H32035   7.740   1.798   1.215 -1.0194  0.2187 -0.5090
  957MOL0     H32036   7.867   1.823   0.993  0.5619  1.6314 -0.5088
  957MOL0     H32037   7.896   1.992   1.044 -1.2464  1.3292  0.5311
  957MOL0     H32038   7.597   1.871   1.036 -2.1403  1.9835 -1.9599
  957MOL0     H32039   7.644   2.036   1.059  1.6873 -0.8109  0.8496
  957MOL0     H32040   7.690   1.880   0.793 -0.6683 -0.0786  0.4234
  957MOL0     H32041   7.756   2.041   0.847  0.4248  1.5045  2.0445
  957MOL0     H32042   7.536   2.079   0.736  0.4946  1.8155  1.0622
  957MOL0     H32043   7.512   2.101   0.907  0.0247 -1.0406  0.5649
  957MOL0     H32044   7.408   1.911   0.959  0.8569 -1.6791 -0.6194
  957MOL0     H32045   7.427   1.839   0.801  3.3862  0.4729 -1.9032
  957MOL0     H32046   8.260   2.030   1.447  0.3081  2.2966  1.5613
  957MOL0     H32047   8.398   2.046   1.656 -0.6692  2.1364 -0.1521
  957MOL0     H32048   8.564   2.044   1.972 -2.0803  1.3199 -0.6434
  957MOL0     H32049   8.706   2.136   2.139  0.5369 -1.0945 -1.1576
  957MOL0     H32050   9.224   2.521   3.646 -0.7308  1.8341 -2.8920
  957MOL0     H32051   9.432   2.494   3.786 -0.0226  1.5540  2.2446
  957MOL0     H32052   9.742   2.874   3.873 -3.0167 -2.5321  1.2764
  957MOL0     H32053   9.909   3.011   3.976  0.9552 -0.3918 -3.0206
  957MOL0     H32054  10.094   3.061   4.046 -1.4521 -0.3650  0.0319
  957MOL0     H32055  10.041   3.118   4.204  1.0368  1.6753 -0.4269
  957MOL0     H32056  10.283   3.169   4.138  0.6874 -0.5370  1.5661
  957MOL0     H32057  10.308   2.986   4.129 -1.6680 -2.3430  1.7743
  957MOL0     H32058  10.291   2.968   4.363  0.2248  0.1426 -1.0757
  957MOL0     H32059  10.395   3.111   4.342 -1.1609  1.3045  1.6633
  957MOL0     H32060  10.249   3.165   4.512 -0.1992 -0.2942  0.2496
  957MOL0     H32061  10.109   3.118   4.421  0.6933 -2.8227  0.8519
  957MOL0     H32062  10.168   3.510   4.269 -2.1372  1.0883  1.2828
  957MOL0     H32063  10.027   2.671   4.209 -1.1038 -0.2576  1.8477
  957MOL0     H32064   9.963   2.438   4.069 -1.4941 -2.6730  1.5715
  957MOL0     H32065   9.868   2.479   4.211  0.0476  2.4188  0.4200
  957MOL0     H32066   9.788   2.418   4.072  0.0731 -0.4449 -0.0554
  958MOL0     O32067  11.366   9.693   8.890 -0.2223 -0.3884 -0.1564
  958MOL0     C32068  11.455   9.775   8.870 -0.4101  0.3477  1.0381
  958MOL0     O32069  11.554   9.754   8.773  0.1762  0.4943 -0.9248
  958MOL0     C32070  11.584   9.621   8.741  0.1762  0.0889  0.1360
  958MOL0     C32071  11.528   9.570   8.627 -0.0831  0.2004  0.2796
  958MOL0     C32072  11.560   9.446   8.578 -0.7570  0.1530 -1.4282
  958MOL0     C32073  11.646   9.373   8.663 -0.0575  0.6026  0.8454
  958MOL0     O32074  11.677   9.247   8.618 -1.0980  1.3169 -0.5355
  958MOL0     C32075  11.747   9.236   8.497  0.0000  0.4223  0.5827
  958MOL0     C32076  11.829   9.103   8.484  0.2282  0.4339 -0.1191
  958MOL0     C32077  11.757   8.973   8.523 -0.0196 -0.2901 -0.7008
  958MOL0     C32078  11.719   8.889   8.410 -0.2828 -0.1195 -0.0248
  958MOL0     C32079  11.634   8.770   8.454  0.7310 -0.5270  0.6788
  958MOL0     C32080  11.639   8.657   8.347 -0.2541 -0.8982 -0.0830
  958MOL0     C32081  11.532   8.543   8.372 -0.1956  0.3868  0.2008
  958MOL0     C32082  11.536   8.457   8.248  0.4663 -0.2846  0.6428
  958MOL0     N32083  11.466   8.320   8.264 -0.2361  0.1682  0.7597
  958MOL0     C32084  11.529   8.202   8.218  0.3013 -0.0741  0.4176
  958MOL0     C32085  11.456   8.105   8.278  0.2994 -0.2207 -0.1201
  958MOL0     C32086  11.469   7.959   8.258 -0.4947 -0.6181  0.4297
  958MOL0     C32087  11.499   7.895   8.400 -0.0270  0.1851  1.3272
  958MOL0     C32088  11.515   7.742   8.385  0.5697 -0.1373  0.9040
  958MOL0     C32089  11.570   7.669   8.514 -0.3584  0.0903  0.0775
  958MOL0     O32090  11.465   7.618   8.599 -0.5085 -0.6667 -0.4451
  958MOL0     C32091  11.417   7.493   8.579 -0.6835 -0.0391 -0.1982
  958MOL0     C32092  11.436   7.411   8.465 -0.2261  0.2701 -0.0551
  958MOL0     C32093  11.389   7.277   8.455 -0.7531  0.0065 -0.0939
  958MOL0     C32094  11.414   7.200   8.318 -0.1543  0.1157  0.2960
  958MOL0     C32095  11.319   7.218   8.565  0.3141  0.0812  0.1300
  958MOL0     C32096  11.260   7.083   8.555 -1.4665  0.4605  0.6764
  958MOL0     O32097  11.271   7.028   8.673 -0.0379 -0.8591  0.4357
  958MOL0     C32098  11.197   6.924   8.720  0.5686  0.3613  0.2012
  958MOL0     C32099  11.152   6.939   8.853 -0.0125  0.4204 -0.1895
  958MOL0     C32100  11.092   6.833   8.923  1.2844  0.6066 -0.2858
  958MOL0     C32101  11.075   6.706   8.860  1.0873 -0.2043  1.3111
  958MOL0     O32102  11.019   6.601   8.929  0.9567 -0.2101  0.6102
  958MOL0     C32103  11.018   6.582   9.072  0.1224  0.3816  0.4631
  958MOL0     C32104  10.887   6.554   9.124 -0.2738  0.4269 -0.6166
  958MOL0     C32105  10.830   6.421   9.066 -0.2440 -0.5203 -0.4031
  958MOL0     C32106  10.677   6.418   9.079  0.1228  2.1724  0.0837
  958MOL0     C32107  10.622   6.284   9.010  0.1272  1.0008 -0.4627
  958MOL0     C32108  10.662   6.144   9.082 -0.1927 -0.5157  1.0407
  958MOL0     C32109  10.655   6.150   9.238 -0.1776  0.9267 -0.2968
  958MOL0     C32110  10.693   6.010   9.294 -0.2989  0.0488 -0.6176
  958MOL0    Cl32111  10.567   5.873   9.263  0.0152 -0.1792  0.8097
  958MOL0     C32112  11.117   6.689   8.729  0.0702  0.2389 -0.0464
  958MOL0     C32113  11.178   6.793   8.666  1.1466 -0.3857 -0.0978
  958MOL0     O32114  11.203   7.032   8.461  0.2577 -0.9973 -0.1920
  958MOL0     C32115  11.310   7.289   8.674  0.4069 -0.4553 -0.1997
  958MOL0     C32116  11.358   7.419   8.686  0.2644 -0.9664 -0.5010
  958MOL0     N32117  11.344   8.164   8.318 -0.0027  0.0446 -0.5078
  958MOL0     N32118  11.356   8.293   8.323 -0.5911 -0.8667  0.4030
  958MOL0     C32119  11.709   9.423   8.775 -1.4520 -0.2772  0.3063
  958MOL0     C32120  11.672   9.544   8.818  0.4421 -0.0418  0.3202
  958MOL0     C32121  11.451   9.908   8.931 -0.0486 -0.5090  0.0966
  958MOL0     C32122  11.530  10.004   8.868 -0.1106  0.3989  0.3068
  958MOL0     C32123  11.543  10.133   8.921 -0.6564  0.4632 -0.3525
  958MOL0     C32124  11.479  10.171   9.042  0.7682  0.2184  1.1816
  958MOL0     O32125  11.486  10.290   9.109 -0.2171 -0.6553 -0.4852
  958MOL0     C32126  11.558  10.398   9.049  0.3431  0.8332 -0.6635
  958MOL0     C32127  11.479  10.530   9.081 -0.1744  1.0390  0.4888
  958MOL0     C32128  11.438  10.540   9.225  0.6869  0.6498  0.6136
  958MOL0     C32129  11.489  10.664   9.288 -0.1139 -0.5730  0.1136
  958MOL0     C32130  11.455  10.698   9.418  0.1238  0.0464 -0.0915
  958MOL0     C32131  11.425  10.764   9.520 -0.0396  0.3086 -0.1477
  958MOL0     C32132  11.405  10.071   9.098  0.5200  0.7221  0.3762
  958MOL0     C32133  11.389   9.940   9.048  0.3373  0.5548 -0.0152
  958MOL0     C32134  11.317   9.842   9.138  0.1895  0.9491 -0.2515
  958MOL0     H32135  11.452   9.626   8.572  2.1097  1.8312 -1.2715
  958MOL0     H32136  11.519   9.391   8.494 -2.2940 -1.1714  0.1252
  958MOL0     H32137  11.806   9.328   8.493 -0.8181  1.0514  2.0517
  958MOL0     H32138  11.673   9.247   8.417 -1.1378  2.0326  1.7658
  958MOL0     H32139  11.869   9.094   8.383  1.7120  0.6316  0.4337
  958MOL0     H32140  11.911   9.117   8.554 -1.5129 -0.6200  2.2902
  958MOL0     H32141  11.817   8.917   8.596  0.5394  0.6792 -0.3946
  958MOL0     H32142  11.668   8.998   8.581  0.3971 -0.8078  0.1930
  958MOL0     H32143  11.676   8.945   8.326  0.2102 -0.0611 -0.2453
  958MOL0     H32144  11.810   8.847   8.365 -0.9243 -1.2796 -0.2683
  958MOL0     H32145  11.534   8.806   8.480  1.4353  1.9103  0.2195
  958MOL0     H32146  11.678   8.724   8.544 -1.9218 -2.6664  1.0176
  958MOL0     H32147  11.624   8.699   8.247 -2.7899  2.1486  1.3514
  958MOL0     H32148  11.732   8.602   8.362 -0.4246 -1.8159 -2.1332
  958MOL0     H32149  11.430   8.581   8.371  0.4573  2.4113 -2.1279
  958MOL0     H32150  11.560   8.486   8.461  1.4619 -0.3259 -0.7231
  958MOL0     H32151  11.476   8.517   8.179  1.1931  0.8799  1.0076
  958MOL0     H32152  11.637   8.440   8.211 -0.2608 -1.0317 -1.1171
  958MOL0     H32153  11.606   8.174   8.148 -0.4148  0.7214 -0.7260
  958MOL0     H32154  11.542   7.942   8.179 -1.3272 -1.4531 -0.1885
  958MOL0     H32155  11.370   7.933   8.219 -0.8438  1.3762 -0.1035
  958MOL0     H32156  11.587   7.936   8.451 -0.1259  1.5414  0.4630
  958MOL0     H32157  11.415   7.919   8.466 -0.6318 -3.1876  1.9571
  958MOL0     H32158  11.427   7.690   8.345  1.2650  0.2848 -1.3073
  958MOL0     H32159  11.581   7.731   8.299  0.4030 -2.4948  1.0051
  958MOL0     H32160  11.626   7.580   8.484 -0.0688 -0.0400  0.9611
  958MOL0     H32161  11.639   7.738   8.562  1.6470 -0.4317 -1.8886
  958MOL0     H32162  11.496   7.444   8.381 -0.6688  2.3373  0.3996
  958MOL0     H32163  11.323   7.186   8.259 -0.1943  0.4417  0.2805
  958MOL0     H32164  11.461   7.101   8.327 -0.8066 -0.8917 -4.4340
  958MOL0     H32165  11.479   7.256   8.250 -0.9241 -0.3760 -0.8810
  958MOL0     H32166  11.163   7.035   8.902  3.3127  0.7941 -1.4024
  958MOL0     H32167  11.051   6.840   9.023 -1.2080 -2.4578 -0.9497
  958MOL0     H32168  11.080   6.492   9.082  0.2904 -0.7090 -5.8969
  958MOL0     H32169  11.064   6.670   9.117  0.7194  0.5815 -0.5142
  958MOL0     H32170  10.899   6.540   9.231  1.1806 -3.9632 -1.1611
  958MOL0     H32171  10.824   6.639   9.097 -1.9911  0.4328  2.9479
  958MOL0     H32172  10.875   6.335   9.118  0.1319 -0.3120 -0.3819
  958MOL0     H32173  10.848   6.420   8.958  0.7806 -0.6475 -0.2426
  958MOL0     H32174  10.626   6.505   9.035 -1.1780  0.3981 -2.1535
  958MOL0     H32175  10.652   6.420   9.185 -0.9686 -1.8850  0.0763
  958MOL0     H32176  10.513   6.292   9.005  0.0173  1.8271  1.7966
  958MOL0     H32177  10.651   6.271   8.906 -0.9915 -3.5557 -0.4339
  958MOL0     H32178  10.767   6.122   9.063  0.5584  2.4580  1.4142
  958MOL0     H32179  10.585   6.079   9.038  0.1472  1.0858 -2.1990
  958MOL0     H32180  10.554   6.172   9.274  1.0732 -1.5956  6.2946
  958MOL0     H32181  10.714   6.229   9.286 -1.7441  0.3851  2.8587
  958MOL0     H32182  10.714   6.015   9.402  2.7977 -0.4673 -1.1073
  958MOL0     H32183  10.783   5.988   9.237  0.6342  1.5325  0.2066
  958MOL0     H32184  11.112   6.596   8.673 -1.1134 -1.6981  3.0574
  958MOL0     H32185  11.225   6.774   8.570 -1.6300 -1.8530 -1.2941
  958MOL0     H32186  11.276   7.238   8.764  1.1523  0.1504  0.4297
  958MOL0     H32187  11.338   7.471   8.779  2.4028 -2.6487  0.9884
  958MOL0     H32188  11.776   9.363   8.835 -0.6792 -0.5554 -0.8039
  958MOL0     H32189  11.720   9.585   8.906 -0.6317  2.3296 -0.1190
  958MOL0     H32190  11.581   9.984   8.774 -3.9586  1.2489 -2.1784
  958MOL0     H32191  11.603  10.201   8.862 -0.1100 -0.2192 -0.5937
  958MOL0     H32192  11.660  10.390   9.088 -0.4680 -0.4487  1.3060
  958MOL0     H32193  11.576  10.388   8.941 -1.3215 -3.7353 -0.7412
  958MOL0     H32194  11.396  10.538   9.011  0.0525 -1.2008 -0.1034
  958MOL0     H32195  11.543  10.610   9.043  2.4380 -0.9738  0.3713
  958MOL0     H32196  11.330  10.548   9.236  0.5582  0.1429 -0.2155
  958MOL0     H32197  11.474  10.453   9.281 -2.3075 -0.1038  1.5356
  958MOL0     H32198  11.458  10.742   9.218 -1.8632 -0.4517  0.9647
  958MOL0     H32199  11.598  10.665   9.283 -0.0757  0.4776  0.8181
  958MOL0     H32200  11.398  10.804   9.616  0.0150 -1.0003  0.4261
  958MOL0     H32201  11.349  10.098   9.188 -3.3179  2.1627 -2.1724
  958MOL0     H32202  11.211   9.837   9.109 -0.9673 -0.7385  3.6855
  958MOL0     H32203  11.354   9.740   9.145 -3.7162 -0.7772 -2.0382
  958MOL0     H32204  11.310   9.877   9.241 -1.1134 -0.1404  0.0595
  959MOL0     O32205   8.087   0.102   5.137 -0.3835  0.2513  0.0018
  959MOL0     C32206   8.158   0.027   5.068 -0.3569 -0.5391  0.4944
  959MOL0     O32207   8.139  -0.103   5.053  0.8600 -0.2001  0.2389
  959MOL0     C32208   8.041  -0.159   5.137 -0.6138  0.8732 -0.4169
  959MOL0     C32209   8.074  -0.222   5.250  0.1974  0.1105  0.2364
  959MOL0     C32210   7.975  -0.279   5.325 -1.0403  0.8186  0.2223
  959MOL0     C32211   7.839  -0.286   5.293 -0.4656  1.1725  0.1357
  959MOL0     O32212   7.760  -0.352   5.384  0.1080  0.3018 -0.0573
  959MOL0     C32213   7.628  -0.368   5.340 -0.5006  0.9078 -0.8847
  959MOL0     C32214   7.614  -0.487   5.246 -0.0111 -0.0339 -0.4129
  959MOL0     C32215   7.600  -0.612   5.335 -0.6311 -0.1712  0.0119
  959MOL0     C32216   7.587  -0.745   5.257  0.7842  1.0658 -0.0969
  959MOL0     C32217   7.448  -0.768   5.192 -0.2349 -0.4042 -0.0499
  959MOL0     C32218   7.326  -0.755   5.288 -0.5791 -0.0746  0.4805
  959MOL0     C32219   7.194  -0.791   5.208  0.6984  0.3153 -0.3724
  959MOL0     C32220   7.127  -0.676   5.147 -0.9802  0.3461 -0.2185
  959MOL0     N32221   7.012  -0.706   5.050  0.3725 -0.4989 -0.2803
  959MOL0     C32222   6.920  -0.807   5.077 -0.1602  0.2550 -0.4206
  959MOL0     C32223   6.884  -0.860   4.958  1.3598  0.1012  0.5120
  959MOL0     C32224   6.807  -0.992   4.951 -0.5350  0.1731  0.0742
  959MOL0     C32225   6.769  -1.060   4.826  0.7343 -0.4430 -0.3790
  959MOL0     C32226   6.672  -1.177   4.853  0.5841 -0.3950  0.3714
  959MOL0     C32227   6.640  -1.260   4.731  0.1335  0.4355  0.2487
  959MOL0     O32228   6.528  -1.357   4.750  0.3595  0.3947  0.6165
  959MOL0     C32229   6.457  -1.385   4.635  0.6123  0.7028  0.2581
  959MOL0     C32230   6.320  -1.418   4.661  0.1740  0.9356  0.4099
  959MOL0     C32231   6.236  -1.470   4.563 -0.0181  0.0096  0.7496
  959MOL0     C32232   6.093  -1.496   4.610  0.3090  0.0971 -0.3408
  959MOL0     C32233   6.289  -1.490   4.427 -0.0514 -0.6587 -0.5302
  959MOL0     C32234   6.207  -1.553   4.313  0.9565  0.2838 -0.4007
  959MOL0     O32235   6.075  -1.555   4.329 -0.6057  0.5342  0.1479
  959MOL0     C32236   6.003  -1.592   4.222  0.1386 -0.1054  0.9290
  959MOL0     C32237   5.894  -1.514   4.188  0.0452 -0.8537  0.1196
  959MOL0     C32238   5.793  -1.550   4.092  0.3468  0.0564 -0.5508
  959MOL0     C32239   5.796  -1.676   4.033 -0.7682 -0.5974  0.5389
  959MOL0     O32240   5.711  -1.713   3.934 -0.7101 -1.0082 -0.1758
  959MOL0     C32241   5.662  -1.846   3.912  0.5289  0.7053 -0.0136
  959MOL0     C32242   5.653  -1.942   4.033  0.0598 -0.0079 -0.1140
  959MOL0     C32243   5.527  -1.904   4.109 -0.4105 -0.0908  0.0501
  959MOL0     C32244   5.510  -2.000   4.221 -0.0158  0.7553  0.4044
  959MOL0     C32245   5.574  -1.958   4.354 -0.3446 -0.1835  0.3232
  959MOL0     C32246   5.562  -2.084   4.452 -0.1385  0.1624 -0.7609
  959MOL0     C32247   5.609  -2.037   4.586 -0.2189 -1.1817 -0.1469
  959MOL0     C32248   5.593  -2.140   4.692  0.6816 -0.1552 -0.7302
  959MOL0    Cl32249   5.411  -2.176   4.697 -0.2537 -0.0569 -0.2177
  959MOL0     C32250   5.911  -1.753   4.062  0.2136 -0.2504 -0.2276
  959MOL0     C32251   6.008  -1.717   4.155  0.1510 -0.3876 -0.3322
  959MOL0     O32252   6.272  -1.608   4.226 -0.0512 -0.1233  0.0543
  959MOL0     C32253   6.422  -1.450   4.401  0.1729 -0.4908 -0.2103
  959MOL0     C32254   6.501  -1.401   4.503  0.4213 -0.4193 -0.2391
  959MOL0     N32255   6.952  -0.785   4.860  0.0826 -0.3300 -0.9451
  959MOL0     N32256   7.027  -0.697   4.915  0.5896  0.2237 -0.2339
  959MOL0     C32257   7.810  -0.234   5.163  0.9350 -0.1112 -0.9591
  959MOL0     C32258   7.918  -0.184   5.089  0.2744 -1.1123 -0.0118
  959MOL0     C32259   8.277   0.074   4.987  1.4185 -0.2142 -0.1593
  959MOL0     C32260   8.311   0.000   4.872 -0.8439 -0.5644 -0.4154
  959MOL0     C32261   8.428   0.044   4.799 -0.0818  0.5261  0.1721
  959MOL0     C32262   8.481   0.161   4.830 -0.5191 -0.3020  0.8503
  959MOL0     O32263   8.581   0.212   4.750 -0.1594 -0.5126  0.0857
  959MOL0     C32264   8.619   0.357   4.761  0.1807 -0.4466 -0.7763
  959MOL0     C32265   8.755   0.366   4.825 -1.5943  0.3916 -0.4495
  959MOL0     C32266   8.808   0.515   4.817  0.8774  0.0145  0.2813
  959MOL0     C32267   8.949   0.518   4.863 -0.3690  0.5217  0.8725
  959MOL0     C32268   9.045   0.470   4.751  0.0632  0.3882 -0.2109
  959MOL0     C32269   9.113   0.425   4.657 -0.3572  0.2600 -0.6370
  959MOL0     C32270   8.457   0.224   4.948  0.6140 -0.3760  0.7246
  959MOL0     C32271   8.357   0.183   5.035 -0.8263 -0.0488  0.8865
  959MOL0     C32272   8.338   0.253   5.164 -0.0807  0.2929  0.2555
  959MOL0     H32273   8.173  -0.223   5.297  0.5211 -3.4479 -0.1947
  959MOL0     H32274   8.016  -0.317   5.418  1.9387  1.3590 -0.7629
  959MOL0     H32275   7.598  -0.274   5.293  3.7234  2.1810 -1.4047
  959MOL0     H32276   7.571  -0.382   5.433  0.2401  0.0058 -0.5459
  959MOL0     H32277   7.522  -0.474   5.189 -1.1697  0.0561  1.3874
  959MOL0     H32278   7.700  -0.507   5.181 -0.4116 -1.8434 -0.4107
  959MOL0     H32279   7.679  -0.622   5.411 -0.6508  2.3365  0.4481
  959MOL0     H32280   7.516  -0.605   5.404 -0.3451  0.2242  0.3251
  959MOL0     H32281   7.673  -0.729   5.192  1.6856  2.4527  1.3557
  959MOL0     H32282   7.617  -0.829   5.321  1.0883  0.0055 -1.5825
  959MOL0     H32283   7.451  -0.867   5.145 -0.1057  0.2756 -1.5356
  959MOL0     H32284   7.447  -0.683   5.123  3.9019  0.5539  0.8158
  959MOL0     H32285   7.327  -0.818   5.377 -1.0185 -1.1502 -0.2650
  959MOL0     H32286   7.311  -0.653   5.326 -1.4562 -0.0332  0.0588
  959MOL0     H32287   7.115  -0.841   5.264  0.9010 -1.4324 -1.5942
  959MOL0     H32288   7.223  -0.873   5.142  2.0691 -1.0869  1.8485
  959MOL0     H32289   7.082  -0.618   5.229 -1.4754 -1.3632  0.7536
  959MOL0     H32290   7.203  -0.629   5.083 -0.3891  0.5250  0.5925
  959MOL0     H32291   6.879  -0.836   5.174 -0.5980  0.7111 -0.4651
  959MOL0     H32292   6.714  -0.990   5.008 -0.4344 -2.8273  0.5089
  959MOL0     H32293   6.869  -1.064   5.005  0.6613  1.0379 -0.0908
  959MOL0     H32294   6.715  -0.984   4.769  2.2996  2.6618  1.9857
  959MOL0     H32295   6.866  -1.094   4.786  1.3016  1.9344 -1.1999
  959MOL0     H32296   6.722  -1.250   4.918  0.1861 -0.2136  0.8901
  959MOL0     H32297   6.579  -1.147   4.902  0.7767  1.5764 -0.3898
  959MOL0     H32298   6.627  -1.203   4.638 -0.7018  0.5193  0.4125
  959MOL0     H32299   6.731  -1.311   4.697  0.7154  1.7581 -0.2596
  959MOL0     H32300   6.299  -1.404   4.767  0.7855  1.2549  0.4950
  959MOL0     H32301   6.019  -1.427   4.568 -0.8073 -1.3429 -0.8185
  959MOL0     H32302   6.093  -1.488   4.719 -2.7512 -1.5967 -0.1173
  959MOL0     H32303   6.061  -1.600   4.600  1.9410 -0.6490  1.4497
  959MOL0     H32304   5.881  -1.416   4.232 -1.9510  1.3036 -4.6007
  959MOL0     H32305   5.714  -1.476   4.078 -3.7337 -3.8200 -0.2391
  959MOL0     H32306   5.571  -1.830   3.854 -0.0071  1.7275  1.0652
  959MOL0     H32307   5.734  -1.896   3.846 -2.1017 -3.3086 -0.1827
  959MOL0     H32308   5.630  -2.045   4.006 -2.6061  0.8461 -1.4991
  959MOL0     H32309   5.744  -1.939   4.092  2.4528 -0.9079 -3.4722
  959MOL0     H32310   5.444  -1.923   4.040  1.4159  1.3659 -2.7200
  959MOL0     H32311   5.520  -1.800   4.142  1.7448  0.1232 -0.0293
  959MOL0     H32312   5.561  -2.095   4.204  0.4470  1.0603  0.0365
  959MOL0     H32313   5.409  -2.034   4.244  0.7637 -0.0306  2.9779
  959MOL0     H32314   5.676  -1.918   4.352 -0.8359  1.2757  1.9749
  959MOL0     H32315   5.525  -1.868   4.392  0.9457 -0.9061  4.1818
  959MOL0     H32316   5.627  -2.166   4.422 -0.5849 -1.5889  2.5545
  959MOL0     H32317   5.458  -2.115   4.463  0.7521 -3.1732 -0.8084
  959MOL0     H32318   5.564  -1.945   4.624  2.9518  1.0124 -1.3655
  959MOL0     H32319   5.713  -2.007   4.572  0.0045 -0.7023  2.1067
  959MOL0     H32320   5.641  -2.099   4.781  2.0051 -1.5523 -0.7687
  959MOL0     H32321   5.642  -2.234   4.667  2.1835  0.6453 -0.9243
  959MOL0     H32322   5.911  -1.852   4.016 -0.8403 -2.0259  3.2323
  959MOL0     H32323   6.090  -1.785   4.176 -1.1469 -1.7022  0.6244
  959MOL0     H32324   6.465  -1.451   4.301  1.8205 -1.3639  0.4854
  959MOL0     H32325   6.606  -1.374   4.497  1.8569 -3.8220  4.2528
  959MOL0     H32326   7.709  -0.225   5.125  0.2850 -3.9947 -0.5347
  959MOL0     H32327   7.903  -0.149   4.987  0.0412  1.5961  0.8643
  959MOL0     H32328   8.247  -0.076   4.828 -3.4102  0.7930  0.7118
  959MOL0     H32329   8.462  -0.011   4.712  0.9896 -2.5823  2.3626
  959MOL0     H32330   8.624   0.396   4.658  2.4317 -2.5724 -1.5844
  959MOL0     H32331   8.543   0.422   4.805  0.4527 -1.2154  0.8958
  959MOL0     H32332   8.833   0.305   4.779  1.0021  2.3182  1.0901
  959MOL0     H32333   8.740   0.344   4.931 -2.2306  3.7080  0.2596
  959MOL0     H32334   8.813   0.555   4.715 -2.0956  3.7855  1.3658
  959MOL0     H32335   8.736   0.564   4.883 -0.7706 -2.1480  0.2253
  959MOL0     H32336   8.962   0.439   4.939 -1.0286 -2.8309 -2.2373
  959MOL0     H32337   8.981   0.615   4.904  0.9692  1.2537 -1.7146
  959MOL0     H32338   9.182   0.393   4.582  2.7554  1.7942  1.3443
  959MOL0     H32339   8.515   0.312   4.975 -0.5765 -0.0339  2.2899
  959MOL0     H32340   8.237   0.290   5.186  0.2461  0.7586  0.9986
  959MOL0     H32341   8.353   0.193   5.253 -1.4497  1.0536  1.0394
  959MOL0     H32342   8.406   0.338   5.174  1.4501 -1.0022  1.1455
  960MOL0     O32343   8.079   1.084   0.182  0.3629 -0.1585  0.1188
  960MOL0     C32344   8.135   1.058   0.283  0.0834 -0.1681  0.1542
  960MOL0     O32345   8.173   0.929   0.326 -0.3162  0.2441  0.6088
  960MOL0     C32346   8.122   0.828   0.248 -0.0298 -0.6308 -0.2613
  960MOL0     C32347   7.994   0.784   0.265  0.0090 -0.6661 -0.0115
  960MOL0     C32348   7.956   0.666   0.209  0.1884  0.6349  0.4819
  960MOL0     C32349   8.033   0.598   0.112 -0.1816  0.7653 -1.0532
  960MOL0     O32350   7.981   0.496   0.040  0.0929  0.3910  0.2234
  960MOL0     C32351   8.024   0.362   0.081  0.3682  0.1953  0.6214
  960MOL0     C32352   8.039   0.270  -0.041  0.4023  0.4914 -0.3420
  960MOL0     C32353   7.909   0.241  -0.124  0.2434  0.2770 -1.4182
  960MOL0     C32354   7.779   0.232  -0.041 -0.4479 -0.1209  0.2427
  960MOL0     C32355   7.788   0.121   0.076  0.4356  0.2344  0.6958
  960MOL0     C32356   7.806  -0.017   0.030 -0.4092  0.1671 -0.2740
  960MOL0     C32357   7.664  -0.075   0.014 -0.0217 -0.2515  0.0866
  960MOL0     C32358   7.652  -0.192  -0.082 -0.1481  0.0784 -0.5608
  960MOL0     N32359   7.771  -0.278  -0.056 -0.4002  0.1843  1.2457
  960MOL0     C32360   7.859  -0.320  -0.157 -0.6472 -0.8354  0.1555
  960MOL0     C32361   7.950  -0.392  -0.091  0.9877 -0.0111 -0.5231
  960MOL0     C32362   8.068  -0.453  -0.147  0.7508 -0.3856  0.3800
  960MOL0     C32363   8.182  -0.347  -0.147 -0.7539  0.0849  0.0590
  960MOL0     C32364   8.309  -0.410  -0.204 -0.1741 -0.2871  0.2127
  960MOL0     C32365   8.376  -0.514  -0.108 -0.5695 -0.3530 -0.1863
  960MOL0     O32366   8.487  -0.582  -0.168 -0.3044  0.4262 -0.9014
  960MOL0     C32367   8.482  -0.649  -0.285  0.2837  0.5251 -0.8036
  960MOL0     C32368   8.588  -0.612  -0.373 -0.0242  0.3821 -0.1381
  960MOL0     C32369   8.583  -0.659  -0.511  0.8251 -0.4227 -1.7326
  960MOL0     C32370   8.690  -0.633  -0.601 -0.6005  0.0826 -0.0918
  960MOL0     C32371   8.474  -0.740  -0.547  0.3114  0.0280  0.6927
  960MOL0     C32372   8.455  -0.818  -0.665  0.7068  0.3964 -0.2687
  960MOL0     O32373   8.338  -0.778  -0.735 -0.5709 -0.1083  0.5563
  960MOL0     C32374   8.317  -0.844  -0.852  0.0544  0.7400 -0.6744
  960MOL0     C32375   8.266  -0.981  -0.847  0.1383  0.5307  1.0366
  960MOL0     C32376   8.249  -1.063  -0.955  0.2329  0.5776  0.5813
  960MOL0     C32377   8.285  -1.022  -1.081 -0.7809 -0.4912 -0.0704
  960MOL0     O32378   8.289  -1.099  -1.200  0.2253 -0.9816 -0.0398
  960MOL0     C32379   8.250  -1.235  -1.190 -0.7311 -0.8265  0.1905
  960MOL0     C32380   8.291  -1.306  -1.318  0.1030  0.0487 -0.5348
  960MOL0     C32381   8.197  -1.268  -1.431  0.8708 -0.0245  1.5493
  960MOL0     C32382   8.262  -1.320  -1.564 -0.2653 -0.4417  0.4397
  960MOL0     C32383   8.174  -1.306  -1.693 -0.8190 -0.0936 -0.9699
  960MOL0     C32384   8.157  -1.437  -1.770 -0.3563  0.4324  0.4153
  960MOL0     C32385   8.070  -1.539  -1.681 -0.6386 -0.3833 -0.9358
  960MOL0     C32386   8.058  -1.671  -1.753  0.6949 -0.9003 -0.7010
  960MOL0    Cl32387   8.216  -1.738  -1.768 -0.1208  0.0399 -0.0240
  960MOL0     C32388   8.334  -0.889  -1.086  0.3177  0.0000  0.0633
  960MOL0     C32389   8.359  -0.806  -0.974 -0.6121 -0.3157  0.2038
  960MOL0     O32390   8.550  -0.886  -0.708 -0.9456 -0.3374 -0.0946
  960MOL0     C32391   8.365  -0.750  -0.453  0.3846  0.0445  0.4633
  960MOL0     C32392   8.367  -0.710  -0.328 -0.2232  0.6951  0.6862
  960MOL0     N32393   7.910  -0.405   0.040 -0.6644  0.0147  0.0909
  960MOL0     N32394   7.812  -0.332   0.067 -0.1639 -0.6995 -0.0326
  960MOL0     C32395   8.165   0.645   0.088 -0.5359 -0.0126  0.6673
  960MOL0     C32396   8.212   0.758   0.164  0.6338  1.3200  0.6214
  960MOL0     C32397   8.174   1.157   0.392  0.3076 -0.0025  1.1827
  960MOL0     C32398   8.187   1.107   0.521  0.1484 -0.1216  0.0268
  960MOL0     C32399   8.228   1.191   0.624 -0.1999 -0.1645 -0.0216
  960MOL0     C32400   8.259   1.332   0.591  0.8748 -0.2133  0.2103
  960MOL0     O32401   8.288   1.419   0.691 -0.0199  0.6883  0.0177
  960MOL0     C32402   8.170   1.475   0.750 -0.8225 -0.0702  0.2098
  960MOL0     C32403   8.174   1.623   0.719  0.5089 -0.1718  0.5946
  960MOL0     C32404   8.063   1.707   0.780 -0.1902  0.0657  0.0280
  960MOL0     C32405   8.068   1.865   0.768  0.2070  0.9796  0.1986
  960MOL0     C32406   7.981   1.895   0.661  0.4721 -0.4192  0.9871
  960MOL0     C32407   7.891   1.920   0.572 -0.4610  0.2594 -0.4913
  960MOL0     C32408   8.237   1.377   0.461 -0.8650 -0.0545  0.3024
  960MOL0     C32409   8.200   1.293   0.362 -0.7295 -0.9672 -0.1166
  960MOL0     C32410   8.186   1.346   0.226  0.1453  0.9840 -0.2021
  960MOL0     H32411   7.928   0.828   0.339  0.8952 -1.4703  1.3023
  960MOL0     H32412   7.858   0.622   0.225 -1.6392  3.1377 -2.5806
  960MOL0     H32413   7.972   0.303   0.158  1.5112 -2.6198 -0.5980
  960MOL0     H32414   8.117   0.387   0.134 -0.7595 -0.4184  3.0643
  960MOL0     H32415   8.117   0.309  -0.107 -0.6097  0.1885 -1.7954
  960MOL0     H32416   8.072   0.176   0.003  0.0489  2.1652  3.9150
  960MOL0     H32417   7.892   0.331  -0.185 -3.7309  2.5263  2.3736
  960MOL0     H32418   7.909   0.141  -0.167 -2.4446 -0.5798  0.3094
  960MOL0     H32419   7.774   0.332   0.004 -2.2750  0.0134 -0.1866
  960MOL0     H32420   7.684   0.206  -0.087  0.3341 -1.3639 -0.7332
  960MOL0     H32421   7.691   0.129   0.125 -0.0830 -0.4515 -0.2011
  960MOL0     H32422   7.873   0.143   0.142  1.8921  0.7468 -1.2462
  960MOL0     H32423   7.870  -0.015  -0.059  1.0157  1.6440  0.7171
  960MOL0     H32424   7.855  -0.083   0.101 -0.1464 -1.4121 -1.8406
  960MOL0     H32425   7.592   0.004  -0.012  0.4919 -0.4675 -2.1723
  960MOL0     H32426   7.632  -0.125   0.106  0.3385  0.2689  0.5015
  960MOL0     H32427   7.559  -0.249  -0.070 -0.1580  0.3431  0.8344
  960MOL0     H32428   7.662  -0.155  -0.184  3.9726  1.4773  0.1614
  960MOL0     H32429   7.858  -0.294  -0.262  0.3148 -2.1666 -0.2057
  960MOL0     H32430   8.040  -0.493  -0.245 -2.5710  0.2988  0.9059
  960MOL0     H32431   8.102  -0.542  -0.093  0.4262 -0.8165 -0.1155
  960MOL0     H32432   8.140  -0.260  -0.200 -0.2419  0.9767  1.0870
  960MOL0     H32433   8.193  -0.302  -0.048 -4.9998  0.9317  0.3554
  960MOL0     H32434   8.281  -0.457  -0.298 -3.2507  0.7102  0.5237
  960MOL0     H32435   8.374  -0.325  -0.226 -0.0817 -1.0921 -3.0540
  960MOL0     H32436   8.405  -0.450  -0.024 -1.3022  1.4390 -1.2313
  960MOL0     H32437   8.299  -0.587  -0.081 -0.1468 -0.0375  2.0610
  960MOL0     H32438   8.667  -0.551  -0.332  1.8635 -0.7609 -1.9157
  960MOL0     H32439   8.778  -0.687  -0.565 -0.3482  1.0396  0.7501
  960MOL0     H32440   8.730  -0.532  -0.605  3.1189 -1.2180  0.4994
  960MOL0     H32441   8.668  -0.668  -0.703 -0.7492  1.5647 -0.5831
  960MOL0     H32442   8.248  -1.028  -0.750 -0.4012  1.0773  1.2053
  960MOL0     H32443   8.213  -1.165  -0.940 -1.7952  1.5524  3.1757
  960MOL0     H32444   8.305  -1.275  -1.104 -2.2596 -1.0657  1.0975
  960MOL0     H32445   8.144  -1.239  -1.165 -1.0259  3.8897  0.4945
  960MOL0     H32446   8.391  -1.276  -1.348  0.4569  0.2685  0.7774
  960MOL0     H32447   8.302  -1.414  -1.304  1.1246  0.1528 -0.4821
  960MOL0     H32448   8.185  -1.160  -1.443  1.4139 -0.1730 -0.9378
  960MOL0     H32449   8.097  -1.310  -1.418  0.5595  0.6513  1.3342
  960MOL0     H32450   8.302  -1.421  -1.552  0.9947  0.2534  2.5913
  960MOL0     H32451   8.348  -1.252  -1.560  0.2445 -1.1258  2.0937
  960MOL0     H32452   8.072  -1.272  -1.671 -0.2630  1.3651 -0.5635
  960MOL0     H32453   8.231  -1.240  -1.758 -0.1809  1.0897  0.7203
  960MOL0     H32454   8.252  -1.480  -1.802 -1.3628  0.7836 -3.4825
  960MOL0     H32455   8.104  -1.427  -1.865  0.6490  0.9325 -0.1020
  960MOL0     H32456   7.970  -1.501  -1.662 -0.3635  1.3724 -2.7405
  960MOL0     H32457   8.123  -1.552  -1.585 -0.3454  0.7844 -0.9291
  960MOL0     H32458   7.998  -1.669  -1.844 -1.0521  0.2366  0.4186
  960MOL0     H32459   8.010  -1.744  -1.687  1.6108 -2.3054 -1.5342
  960MOL0     H32460   8.356  -0.852  -1.186  0.5447 -0.7056 -0.1514
  960MOL0     H32461   8.401  -0.706  -0.985  0.4334 -0.9481 -2.3960
  960MOL0     H32462   8.266  -0.792  -0.469  1.3623 -1.4543 -2.4845
  960MOL0     H32463   8.291  -0.721  -0.252 -1.0426  4.1647  0.5284
  960MOL0     H32464   8.230   0.607   0.009  1.3178 -1.2861  2.6980
  960MOL0     H32465   8.316   0.786   0.174  1.5932 -2.7019  5.5265
  960MOL0     H32466   8.160   1.007   0.554  2.3532  0.4504  4.1824
  960MOL0     H32467   8.231   1.148   0.724 -0.1164 -3.2348 -1.2167
  960MOL0     H32468   8.083   1.437   0.697  0.9921  0.8148 -3.7397
  960MOL0     H32469   8.179   1.459   0.858 -0.4980 -1.1500  0.0346
  960MOL0     H32470   8.167   1.647   0.612 -1.8215  1.2895  1.0094
  960MOL0     H32471   8.271   1.654   0.761  0.7151 -0.1977  0.1461
  960MOL0     H32472   7.970   1.675   0.734 -0.9522  2.7340 -0.4519
  960MOL0     H32473   8.068   1.688   0.888  4.0260 -1.1453 -0.1772
  960MOL0     H32474   8.170   1.901   0.755 -0.1031  1.8133  0.0707
  960MOL0     H32475   8.037   1.911   0.863 -2.4458  0.3032 -0.2622
  960MOL0     H32476   7.816   1.942   0.499 -2.6287 -2.8673  0.5909
  960MOL0     H32477   8.258   1.483   0.445  3.0071 -0.4548  1.5823
  960MOL0     H32478   8.235   1.276   0.159 -0.6805 -0.4943  0.6846
  960MOL0     H32479   8.082   1.348   0.192 -0.2546 -1.1917  0.7162
  960MOL0     H32480   8.217   1.451   0.222  2.0650  0.6215  2.3321
  961MOL0     O32481   0.938   5.574   5.821 -0.1041  0.6808  0.0183
  961MOL0     C32482   0.876   5.653   5.754 -0.0833 -0.4225  0.9311
  961MOL0     O32483   0.803   5.765   5.804  0.2859 -0.6179  0.3868
  961MOL0     C32484   0.848   5.810   5.924 -0.0150 -0.9364 -0.0951
  961MOL0     C32485   0.980   5.855   5.929 -0.2656 -0.6846  0.1702
  961MOL0     C32486   1.032   5.911   6.046 -0.2374  0.2220  0.3791
  961MOL0     C32487   0.954   5.930   6.162  0.2585  0.8839 -0.3846
  961MOL0     O32488   1.005   5.987   6.275  0.2664 -0.2325 -0.1829
  961MOL0     C32489   1.153   6.025   6.265 -0.6443 -0.3464  0.7893
  961MOL0     C32490   1.172   6.098   6.400  0.0394  0.5411 -0.2031
  961MOL0     C32491   1.317   6.118   6.423 -0.7382 -0.3730  0.2841
  961MOL0     C32492   1.330   6.194   6.557  0.3785  0.1632  0.9803
  961MOL0     C32493   1.473   6.229   6.593  0.9236  0.1126 -0.3712
  961MOL0     C32494   1.533   6.337   6.503 -0.8110 -0.6599  0.8864
  961MOL0     C32495   1.694   6.363   6.534  0.0439  0.0673  0.7350
  961MOL0     C32496   1.725   6.487   6.447 -0.4145 -0.4104  0.3854
  961MOL0     N32497   1.822   6.453   6.339 -0.0224 -0.0218  0.4591
  961MOL0     C32498   1.808   6.350   6.244 -0.3726 -0.0464 -0.2586
  961MOL0     C32499   1.938   6.330   6.207  0.2794 -0.3626 -0.1881
  961MOL0     C32500   1.976   6.222   6.116  0.2770  0.3087  0.5541
  961MOL0     C32501   1.900   6.212   5.982  0.1623  0.1685  0.3811
  961MOL0     C32502   1.893   6.061   5.921  0.4857 -0.3048 -0.4187
  961MOL0     C32503   2.006   6.025   5.823 -1.1730 -1.0231  0.6182
  961MOL0     O32504   1.980   5.887   5.785  0.1305  0.6563 -0.1817
  961MOL0     C32505   2.078   5.823   5.705 -0.3167 -0.0990  0.3065
  961MOL0     C32506   2.216   5.847   5.686  0.2946 -0.9453 -0.8402
  961MOL0     C32507   2.300   5.771   5.604  1.0456  0.6544  1.7353
  961MOL0     C32508   2.450   5.770   5.616  1.0202  0.0352  0.1670
  961MOL0     C32509   2.232   5.673   5.522  0.7594  0.3135 -0.7001
  961MOL0     C32510   2.301   5.563   5.440 -0.0393  0.0057  0.7875
  961MOL0     O32511   2.229   5.446   5.405  0.3154  0.1510 -0.1391
  961MOL0     C32512   2.244   5.385   5.281  0.4722 -0.1867 -0.1116
  961MOL0     C32513   2.287   5.440   5.162  0.0946  0.1964  0.1370
  961MOL0     C32514   2.307   5.366   5.048  1.0588  0.3681  0.3431
  961MOL0     C32515   2.263   5.231   5.038 -0.0651  0.0349 -0.8801
  961MOL0     O32516   2.266   5.145   4.935 -0.1212  0.3438  0.2764
  961MOL0     C32517   2.339   5.185   4.814 -0.8997  1.0298  0.2472
  961MOL0     C32518   2.405   5.063   4.737 -0.0939 -0.0465  0.5909
  961MOL0     C32519   2.295   4.968   4.674  0.0057  0.1423 -0.3919
  961MOL0     C32520   2.315   4.824   4.704  0.0487 -0.1174  0.0664
  961MOL0     C32521   2.431   4.745   4.639 -0.6853 -0.3562 -0.5491
  961MOL0     C32522   2.387   4.603   4.600 -0.3626 -1.1445  0.0541
  961MOL0     C32523   2.496   4.496   4.612  0.6944  0.2559  0.1066
  961MOL0     C32524   2.496   4.426   4.470 -0.3971  0.1901  0.1139
  961MOL0    Cl32525   2.349   4.335   4.431  0.3818  0.6200  0.4537
  961MOL0     C32526   2.202   5.180   5.142 -0.1669 -0.2058 -0.2602
  961MOL0     C32527   2.201   5.249   5.268  1.0482 -0.8473 -1.3964
  961MOL0     O32528   2.406   5.592   5.385  0.3437 -0.3065 -0.2560
  961MOL0     C32529   2.096   5.660   5.527  0.1972 -0.3339  1.4458
  961MOL0     C32530   2.024   5.730   5.620  0.0099 -0.1357  0.0461
  961MOL0     N32531   2.027   6.411   6.276 -0.0183  0.3122  1.0822
  961MOL0     N32532   1.957   6.488   6.345 -0.2638 -0.8898 -0.4136
  961MOL0     C32533   0.814   5.888   6.153  0.4939  0.3720 -0.0191
  961MOL0     C32534   0.763   5.827   6.039  0.0901 -0.3433  0.0411
  961MOL0     C32535   0.857   5.623   5.606  0.1985  0.0990 -0.4960
  961MOL0     C32536   0.741   5.664   5.546 -0.1553 -0.3600 -0.4356
  961MOL0     C32537   0.713   5.629   5.416  0.2198  0.2238  0.0609
  961MOL0     C32538   0.799   5.545   5.354 -0.0795 -0.1758 -0.1495
  961MOL0     O32539   0.762   5.486   5.245  0.5663 -0.3566  0.5878
  961MOL0     C32540   0.713   5.562   5.134  0.3547 -0.2060 -0.0433
  961MOL0     C32541   0.751   5.504   4.995  0.0049 -0.0901  0.0566
  961MOL0     C32542   0.764   5.619   4.908 -0.7173 -0.9542  0.1308
  961MOL0     C32543   0.771   5.581   4.762  0.5028 -0.0895  0.5275
  961MOL0     C32544   0.735   5.694   4.683  0.7754  0.0691 -0.1018
  961MOL0     C32545   0.706   5.788   4.619  0.6093 -1.4255  0.6058
  961MOL0     C32546   0.924   5.512   5.407  0.6083 -1.3969 -0.3686
  961MOL0     C32547   0.957   5.557   5.535 -0.4320 -0.0883 -0.6879
  961MOL0     C32548   1.097   5.535   5.586 -0.5207  0.0572 -0.5336
  961MOL0     H32549   1.040   5.846   5.839  0.0254 -2.8237  0.5424
  961MOL0     H32550   1.135   5.940   6.031 -0.0491 -0.3468  0.5823
  961MOL0     H32551   1.174   6.109   6.197  1.5337  0.7092  2.6112
  961MOL0     H32552   1.231   5.951   6.245  3.2878  2.8905  2.5613
  961MOL0     H32553   1.128   6.195   6.377 -2.0310 -0.8095 -2.4647
  961MOL0     H32554   1.123   6.052   6.487 -0.3689  0.6165 -0.3895
  961MOL0     H32555   1.356   6.017   6.438 -0.3383 -0.1560  0.6954
  961MOL0     H32556   1.364   6.176   6.343 -0.9264  1.8178  1.6843
  961MOL0     H32557   1.277   6.289   6.548 -1.0278 -0.6689  0.1539
  961MOL0     H32558   1.280   6.134   6.634 -0.3995  0.6407  0.8510
  961MOL0     H32559   1.531   6.137   6.576 -0.0354 -0.7736  0.9558
  961MOL0     H32560   1.473   6.249   6.701 -0.6599 -0.0619 -0.3267
  961MOL0     H32561   1.536   6.321   6.395  1.5690  2.6900  0.2890
  961MOL0     H32562   1.468   6.421   6.530 -0.2691  0.2857 -0.6274
  961MOL0     H32563   1.737   6.266   6.507 -1.1026 -0.8761  2.1394
  961MOL0     H32564   1.717   6.379   6.640 -0.9804  0.9261  0.8507
  961MOL0     H32565   1.634   6.514   6.393 -1.6559 -3.6788  0.5922
  961MOL0     H32566   1.763   6.576   6.499  1.5152  0.1358 -1.7984
  961MOL0     H32567   1.718   6.298   6.212 -0.2599  0.5859 -1.6898
  961MOL0     H32568   1.959   6.127   6.166  3.5040 -1.4322 -1.2983
  961MOL0     H32569   2.084   6.207   6.106 -0.0458 -1.8289 -0.3146
  961MOL0     H32570   1.798   6.250   5.994  0.2313  0.6943 -0.5893
  961MOL0     H32571   1.948   6.284   5.915  0.6863  0.8468  1.4571
  961MOL0     H32572   1.878   5.993   6.005 -2.1695  0.7580  0.0586
  961MOL0     H32573   1.804   6.051   5.858  1.3616 -3.8890 -1.3124
  961MOL0     H32574   1.995   6.093   5.738  0.8200 -1.8475 -0.3578
  961MOL0     H32575   2.100   6.036   5.878 -0.2092  0.1435 -1.1748
  961MOL0     H32576   2.249   5.937   5.737 -1.3530 -1.1058  0.6163
  961MOL0     H32577   2.507   5.793   5.526  2.5108 -0.4968  0.9326
  961MOL0     H32578   2.478   5.673   5.659  4.1671  1.9063  2.7278
  961MOL0     H32579   2.473   5.849   5.688 -0.0736  2.2833 -1.8572
  961MOL0     H32580   2.310   5.545   5.148  0.9235 -0.0427 -0.3882
  961MOL0     H32581   2.345   5.406   4.955 -1.2991  0.2964 -0.7171
  961MOL0     H32582   2.263   5.231   4.750 -2.3841  1.1634  2.0403
  961MOL0     H32583   2.422   5.253   4.836 -0.3980 -0.2512  2.6171
  961MOL0     H32584   2.471   5.119   4.669  0.8977 -1.0587  0.6822
  961MOL0     H32585   2.472   5.002   4.798 -0.3953 -0.3932  0.5763
  961MOL0     H32586   2.293   4.985   4.566  1.4129 -1.9803 -0.8333
  961MOL0     H32587   2.198   4.994   4.717 -0.2291 -1.2406 -0.0288
  961MOL0     H32588   2.224   4.771   4.676 -1.5824  2.2896  0.5125
  961MOL0     H32589   2.319   4.819   4.813 -0.7309  1.5209  0.2089
  961MOL0     H32590   2.474   4.797   4.553  1.3509  2.2455  1.8521
  961MOL0     H32591   2.506   4.732   4.717  1.7274  1.5145 -2.3818
  961MOL0     H32592   2.366   4.609   4.493  0.7351 -0.5234 -0.1441
  961MOL0     H32593   2.290   4.574   4.643 -0.5744  1.7363  1.8191
  961MOL0     H32594   2.485   4.424   4.694 -1.0982 -2.7081 -2.4901
  961MOL0     H32595   2.584   4.558   4.630  0.6405  0.0006  1.3155
  961MOL0     H32596   2.584   4.360   4.473  0.6513  1.4499  4.1844
  961MOL0     H32597   2.510   4.497   4.388  1.0242  1.7147  1.5808
  961MOL0     H32598   2.188   5.073   5.150  3.3313 -0.7061  0.7036
  961MOL0     H32599   2.157   5.206   5.357  1.0202 -1.2917 -1.6256
  961MOL0     H32600   2.033   5.597   5.465 -0.3098  0.3570  1.2461
  961MOL0     H32601   1.916   5.733   5.612  0.1186  3.3638 -4.2732
  961MOL0     H32602   0.742   5.906   6.231  2.2329  1.1694  1.4939
  961MOL0     H32603   0.664   5.782   6.034  1.7147 -4.3144  0.2338
  961MOL0     H32604   0.673   5.720   5.609  2.2011  0.3414  1.6660
  961MOL0     H32605   0.615   5.645   5.373  0.5022 -2.3403 -1.7814
  961MOL0     H32606   0.604   5.569   5.132  0.4171  1.3911  0.1965
  961MOL0     H32607   0.755   5.663   5.141  0.3290 -0.2400  0.7238
  961MOL0     H32608   0.668   5.441   4.961 -0.2536  0.8921 -1.2351
  961MOL0     H32609   0.832   5.433   5.010 -0.1596 -0.0517  1.2453
  961MOL0     H32610   0.675   5.681   4.921 -0.2505 -0.1047 -0.6137
  961MOL0     H32611   0.850   5.686   4.920 -1.9645  0.8749 -0.7445
  961MOL0     H32612   0.680   5.521   4.746 -0.3048  1.5241 -1.2242
  961MOL0     H32613   0.865   5.541   4.723  1.7125  2.7007  0.3965
  961MOL0     H32614   0.682   5.882   4.574  2.2278 -0.6362  1.3325
  961MOL0     H32615   1.005   5.473   5.346  2.4503  1.5178  0.0277
  961MOL0     H32616   1.095   5.439   5.640 -0.9590 -0.6106 -1.6973
  961MOL0     H32617   1.175   5.524   5.510 -0.7483 -5.0417 -0.4098
  961MOL0     H32618   1.125   5.614   5.656  0.6713 -0.6048 -0.2449
  962MOL0     O32619   1.293   5.824   4.294 -0.0162  0.8159  0.0389
  962MOL0     C32620   1.252   5.925   4.350 -1.3194  0.1879 -0.1033
  962MOL0     O32621   1.196   6.029   4.285 -0.5447  0.1989 -0.0066
  962MOL0     C32622   1.209   6.024   4.150  0.0356  0.1675 -0.2582
  962MOL0     C32623   1.281   6.122   4.080  0.0091 -0.7033 -0.8549
  962MOL0     C32624   1.293   6.125   3.937  0.3718  0.0747 -0.4725
  962MOL0     C32625   1.218   6.024   3.866 -1.1108 -1.0381 -0.7335
  962MOL0     O32626   1.233   6.039   3.732  0.0298 -0.5751 -0.0140
  962MOL0     C32627   1.131   5.973   3.660 -0.5082 -0.2081  1.0305
  962MOL0     C32628   1.134   6.016   3.510 -0.5331 -0.8389  0.5475
  962MOL0     C32629   1.213   5.937   3.409 -0.4929  0.0838  0.6811
  962MOL0     C32630   1.353   5.890   3.463  0.2124 -0.2310 -0.5847
  962MOL0     C32631   1.452   5.842   3.352  0.4685 -0.1449 -0.6765
  962MOL0     C32632   1.381   5.736   3.263 -0.8558  0.1400 -0.0073
  962MOL0     C32633   1.481   5.682   3.168 -0.1946  0.0941  0.1097
  962MOL0     C32634   1.444   5.544   3.126  0.4719 -0.4245  0.5013
  962MOL0     N32635   1.325   5.533   3.041  0.5106 -0.3761 -0.4036
  962MOL0     C32636   1.204   5.538   3.100  0.3415  0.6698 -0.0807
  962MOL0     C32637   1.108   5.517   3.001 -0.1976  0.3809 -0.0851
  962MOL0     C32638   0.975   5.567   3.019  0.3881 -0.0374 -0.3894
  962MOL0     C32639   0.900   5.588   2.885 -0.5307 -0.9076  0.1340
  962MOL0     C32640   0.747   5.634   2.903 -0.6526  0.3661  0.9344
  962MOL0     C32641   0.679   5.668   2.772 -0.0643 -0.7527 -0.2132
  962MOL0     O32642   0.559   5.740   2.810  0.4364 -0.4887 -1.2259
  962MOL0     C32643   0.500   5.777   2.694  0.7118  0.0488 -0.5296
  962MOL0     C32644   0.464   5.693   2.591  0.7118 -0.2578 -0.6057
  962MOL0     C32645   0.416   5.753   2.465 -0.3774 -0.2188 -0.5643
  962MOL0     C32646   0.359   5.649   2.361  0.3918  0.4269  1.0887
  962MOL0     C32647   0.406   5.898   2.449  0.0744  0.4827  0.6577
  962MOL0     C32648   0.357   5.963   2.326 -0.0768 -0.6357 -0.4599
  962MOL0     O32649   0.304   6.089   2.343 -0.1982  0.5798 -0.0167
  962MOL0     C32650   0.298   6.162   2.221 -0.2190  0.2292 -0.1622
  962MOL0     C32651   0.379   6.267   2.200  0.3770 -0.0314  0.5812
  962MOL0     C32652   0.366   6.347   2.085  0.7994 -0.3859 -0.5413
  962MOL0     C32653   0.268   6.314   1.985  0.5805  0.2755 -0.0275
  962MOL0     O32654   0.256   6.396   1.883 -0.8103 -0.4964 -0.3092
  962MOL0     C32655   0.250   6.333   1.756 -0.3500 -0.3873  0.0311
  962MOL0     C32656   0.235   6.432   1.643  0.0223  0.8189 -0.8654
  962MOL0     C32657   0.098   6.496   1.630  0.3965  0.0724 -0.4811
  962MOL0     C32658   0.098   6.620   1.537 -0.1603  0.6356 -0.1239
  962MOL0     C32659   0.185   6.614   1.410  0.6814 -0.1938  0.3371
  962MOL0     C32660   0.177   6.752   1.327  0.0074 -1.2008  0.4341
  962MOL0     C32661   0.240   6.882   1.375  0.2852 -0.2429  0.5667
  962MOL0     C32662   0.392   6.883   1.380  0.1233 -0.1854  0.2184
  962MOL0    Cl32663   0.461   6.822   1.535  0.1685  0.2253 -0.3410
  962MOL0     C32664   0.193   6.201   2.007 -0.5407  0.2194 -0.4021
  962MOL0     C32665   0.198   6.137   2.128  0.9794 -0.0641 -1.1549
  962MOL0     O32666   0.383   5.909   2.222  0.7396 -0.4221  0.1164
  962MOL0     C32667   0.444   5.974   2.562  0.1252  0.1334 -0.2593
  962MOL0     C32668   0.483   5.917   2.678 -0.8647  0.1581 -0.4718
  962MOL0     N32669   1.181   5.491   2.886 -0.3235 -0.1868  0.1228
  962MOL0     N32670   1.310   5.497   2.916 -0.0540 -0.3549  0.2086
  962MOL0     C32671   1.136   5.934   3.937 -0.8159 -0.8006 -0.5995
  962MOL0     C32672   1.125   5.937   4.073  0.3823 -0.3759 -0.4202
  962MOL0     C32673   1.262   5.935   4.497  0.7821  0.3504 -0.3181
  962MOL0     C32674   1.331   6.045   4.553  0.4627  0.4582  0.1278
  962MOL0     C32675   1.357   6.051   4.689  0.8949 -0.4221  0.3075
  962MOL0     C32676   1.300   5.966   4.777  0.1998  0.3634  0.1456
  962MOL0     O32677   1.305   5.988   4.914 -0.2270 -0.3543 -0.5531
  962MOL0     C32678   1.435   6.005   4.975 -0.3854  0.3881  0.6425
  962MOL0     C32679   1.448   6.150   5.022  0.4177 -1.1265 -0.1687
  962MOL0     C32680   1.338   6.174   5.127 -0.1619 -0.9199 -0.6733
  962MOL0     C32681   1.333   6.322   5.163 -0.1238 -0.0325  0.0911
  962MOL0     C32682   1.259   6.363   5.277 -0.4271  0.2115 -0.4478
  962MOL0     C32683   1.203   6.390   5.385 -0.0938 -0.3347  0.1758
  962MOL0     C32684   1.226   5.865   4.718  0.2563  0.0761 -0.3694
  962MOL0     C32685   1.214   5.841   4.581 -0.1921  0.4071 -0.7091
  962MOL0     C32686   1.126   5.736   4.518 -0.8425 -0.2698 -0.7579
  962MOL0     H32687   1.340   6.186   4.144  1.8760 -3.2790  0.1876
  962MOL0     H32688   1.351   6.200   3.886  2.4739  0.1347  1.8140
  962MOL0     H32689   1.040   6.018   3.699 -0.9560  3.2555 -3.3168
  962MOL0     H32690   1.147   5.864   3.665  1.1542 -0.0171  0.3824
  962MOL0     H32691   1.031   6.031   3.478  0.1642  0.7600 -1.1664
  962MOL0     H32692   1.188   6.111   3.502 -1.7635 -0.0641  1.2067
  962MOL0     H32693   1.146   5.858   3.373 -1.6757  1.1660  0.4177
  962MOL0     H32694   1.224   5.996   3.318  0.3742 -2.5175 -1.0252
  962MOL0     H32695   1.406   5.972   3.512  0.4444 -0.4178 -0.5237
  962MOL0     H32696   1.345   5.804   3.530 -0.0234 -1.1389 -1.7493
  962MOL0     H32697   1.539   5.794   3.398 -0.6678  0.2330  2.0918
  962MOL0     H32698   1.490   5.922   3.288 -3.2682 -0.6416 -3.8355
  962MOL0     H32699   1.334   5.658   3.324  0.5549 -0.7902 -0.0651
  962MOL0     H32700   1.309   5.793   3.203 -0.1641 -1.4805 -2.5280
  962MOL0     H32701   1.576   5.669   3.220 -0.0523  0.2342 -0.1100
  962MOL0     H32702   1.497   5.749   3.082  1.7381  1.0754  1.1690
  962MOL0     H32703   1.525   5.503   3.066 -0.8873  1.6752 -3.0907
  962MOL0     H32704   1.430   5.477   3.211  2.2742 -1.5996 -0.0686
  962MOL0     H32705   1.178   5.575   3.198 -2.4009  0.5938 -0.7112
  962MOL0     H32706   0.987   5.649   3.089  1.3448 -2.0837  1.9862
  962MOL0     H32707   0.930   5.487   3.078 -1.1631  2.1859  1.6182
  962MOL0     H32708   0.965   5.658   2.831 -2.3795  1.8639  1.2472
  962MOL0     H32709   0.903   5.500   2.821 -2.1935  0.6591 -2.2845
  962MOL0     H32710   0.686   5.552   2.941  0.8485 -2.1640 -1.7048
  962MOL0     H32711   0.735   5.718   2.972 -2.5792  0.9742 -0.0749
  962MOL0     H32712   0.738   5.741   2.715  2.6342 -0.2360  2.9617
  962MOL0     H32713   0.651   5.579   2.714  0.2423  0.1407 -1.7996
  962MOL0     H32714   0.462   5.585   2.602 -2.7007 -0.0978  1.7344
  962MOL0     H32715   0.294   5.690   2.283 -1.8533 -0.5098  2.3520
  962MOL0     H32716   0.282   5.590   2.412  0.3719  0.3424  0.9622
  962MOL0     H32717   0.431   5.575   2.324 -0.0437 -0.2855  1.6339
  962MOL0     H32718   0.451   6.279   2.280  1.5433 -4.3229  0.4460
  962MOL0     H32719   0.424   6.436   2.063 -0.6681  0.2585 -2.0637
  962MOL0     H32720   0.345   6.280   1.743 -0.7789 -1.0382 -0.5186
  962MOL0     H32721   0.167   6.261   1.751 -1.7615  1.1474  0.5506
  962MOL0     H32722   0.313   6.505   1.667  3.8111 -2.8422 -0.6995
  962MOL0     H32723   0.248   6.391   1.543  2.0789  2.8919 -1.5339
  962MOL0     H32724   0.058   6.523   1.728 -1.7367 -0.6061 -1.1028
  962MOL0     H32725   0.024   6.427   1.589 -0.0190 -0.4651  1.0830
  962MOL0     H32726   0.138   6.703   1.597 -1.4398 -1.5440  4.1186
  962MOL0     H32727  -0.008   6.642   1.525 -0.5067  0.0520  1.6651
  962MOL0     H32728   0.291   6.601   1.435  0.0375 -2.6851  2.0006
  962MOL0     H32729   0.159   6.534   1.341  2.3232  0.6953 -1.4182
  962MOL0     H32730   0.073   6.774   1.299  0.6194  2.4888  0.4912
  962MOL0     H32731   0.227   6.728   1.233  2.3193  1.9311  0.6968
  962MOL0     H32732   0.193   6.921   1.465  0.8054  2.1088 -0.1046
  962MOL0     H32733   0.222   6.963   1.303  1.5610 -0.0601  0.4271
  962MOL0     H32734   0.424   6.987   1.368  1.8608 -0.5886  0.9618
  962MOL0     H32735   0.436   6.838   1.290  1.3752  1.0623  0.1696
  962MOL0     H32736   0.105   6.183   1.946 -1.3085  2.7480 -0.1564
  962MOL0     H32737   0.120   6.069   2.161  0.2489  0.3864 -1.9054
  962MOL0     H32738   0.439   6.082   2.559 -1.6387  0.1213  0.6002
  962MOL0     H32739   0.499   5.988   2.759 -1.8610 -0.2347  0.0898
  962MOL0     H32740   1.080   5.851   3.896  2.1617 -2.1042 -2.3393
  962MOL0     H32741   1.053   5.870   4.120  1.8449 -1.3007  0.5895
  962MOL0     H32742   1.369   6.124   4.489  0.6175  0.6477  0.4511
  962MOL0     H32743   1.422   6.129   4.728 -0.5344  0.7030  0.5037
  962MOL0     H32744   1.442   5.935   5.059  0.8697  0.2055  0.4040
  962MOL0     H32745   1.516   5.975   4.908  0.2153  2.4266  0.3817
  962MOL0     H32746   1.438   6.221   4.939  1.7436 -2.5482 -1.6064
  962MOL0     H32747   1.542   6.155   5.078 -0.8594  2.6524  2.0433
  962MOL0     H32748   1.237   6.141   5.098 -0.4310 -0.9540  0.2708
  962MOL0     H32749   1.379   6.123   5.214  0.6300  0.6948 -0.0524
  962MOL0     H32750   1.294   6.378   5.078  0.0759  0.3535  0.2518
  962MOL0     H32751   1.428   6.362   5.198  0.0404  0.1980 -0.6107
  962MOL0     H32752   1.154   6.408   5.479  2.1748  0.0710  1.3391
  962MOL0     H32753   1.168   5.799   4.782 -0.6921 -0.2559 -1.5291
  962MOL0     H32754   1.041   5.776   4.463 -0.3962 -1.5061 -2.4329
  962MOL0     H32755   1.186   5.669   4.456  0.0451 -0.7418  0.5477
  962MOL0     H32756   1.088   5.676   4.602  1.4393 -0.4814  0.2035
  963MOL0     O32757   6.677  11.013   9.069 -0.3648  0.0115 -0.6545
  963MOL0     C32758   6.618  11.117   9.093  0.2035  0.1929 -0.3079
  963MOL0     O32759   6.624  11.236   9.016 -0.1283  0.6224 -0.2181
  963MOL0     C32760   6.696  11.245   8.902 -0.3321 -0.2040  0.8355
  963MOL0     C32761   6.649  11.271   8.782 -0.0778  0.0001  0.0854
  963MOL0     C32762   6.725  11.287   8.664 -0.2249 -0.4037  0.2292
  963MOL0     C32763   6.867  11.265   8.659 -0.3625  0.0044 -0.5629
  963MOL0     O32764   6.952  11.252   8.549 -0.2485  0.4037  0.5547
  963MOL0     C32765   6.887  11.307   8.426  0.3844 -0.5011  0.1930
  963MOL0     C32766   6.861  11.459   8.422 -0.2476 -0.3606 -0.0664
  963MOL0     C32767   6.993  11.533   8.398  0.2828  0.7604  0.1786
  963MOL0     C32768   6.970  11.681   8.422 -0.1821 -0.0534  0.0569
  963MOL0     C32769   7.092  11.767   8.376 -0.2409  0.7829  0.1739
  963MOL0     C32770   7.081  11.810   8.230 -1.1159  0.3471 -0.1284
  963MOL0     C32771   7.211  11.883   8.186 -1.1016  0.3198 -0.0654
  963MOL0     C32772   7.246  12.014   8.264 -0.4778 -0.4476 -0.8060
  963MOL0     N32773   7.361  12.067   8.195 -0.0444 -0.5313  0.3540
  963MOL0     C32774   7.358  12.126   8.065  0.0869 -0.5140 -0.0390
  963MOL0     C32775   7.483  12.164   8.045 -0.9143 -0.4588 -0.9848
  963MOL0     C32776   7.527  12.220   7.913 -0.2797 -0.3791 -0.3706
  963MOL0     C32777   7.657  12.299   7.927 -0.0035 -0.2418  0.0654
  963MOL0     C32778   7.783  12.222   7.943 -0.2602  0.0613  0.2860
  963MOL0     C32779   7.794  12.089   7.868 -0.2419  1.0941  0.5840
  963MOL0     O32780   7.779  12.117   7.726 -0.3459 -0.0684  0.0991
  963MOL0     C32781   7.753  12.012   7.645  0.2365 -0.1343 -0.3581
  963MOL0     C32782   7.729  12.041   7.515  0.4386 -0.9441  0.4324
  963MOL0     C32783   7.687  11.947   7.419 -0.1566 -0.8126 -0.3621
  963MOL0     C32784   7.647  11.996   7.280  0.1937 -0.2041 -0.5429
  963MOL0     C32785   7.688  11.809   7.460  0.7176  0.1526 -0.3281
  963MOL0     C32786   7.649  11.695   7.369  0.1907 -0.4738 -0.8372
  963MOL0     O32787   7.590  11.724   7.242 -0.0505  0.9843  0.1476
  963MOL0     C32788   7.553  11.610   7.171  0.4149 -0.7102 -0.2535
  963MOL0     C32789   7.449  11.517   7.210 -0.6227  0.3345 -0.0315
  963MOL0     C32790   7.408  11.412   7.132  0.3401  0.1009 -0.5130
  963MOL0     C32791   7.471  11.399   7.005 -0.7726  0.6714 -0.5709
  963MOL0     O32792   7.432  11.289   6.934 -0.2953 -0.1624 -0.8418
  963MOL0     C32793   7.511  11.261   6.822 -0.0885 -0.0695 -0.9338
  963MOL0     C32794   7.457  11.128   6.762 -0.1121 -0.2312 -0.7408
  963MOL0     C32795   7.437  11.021   6.871  0.2272  0.5413  0.1764
  963MOL0     C32796   7.388  10.898   6.804  0.5630 -0.2084 -0.4453
  963MOL0     C32797   7.323  10.808   6.914  0.4093  0.3841  0.1455
  963MOL0     C32798   7.418  10.774   7.024  0.5075 -0.0942 -0.2302
  963MOL0     C32799   7.353  10.676   7.119  0.2582  0.4050 -0.2088
  963MOL0     C32800   7.244  10.754   7.198 -0.4865 -0.3155  0.0806
  963MOL0    Cl32801   7.186  10.657   7.330 -0.0444  0.4668  0.3468
  963MOL0     C32802   7.581  11.483   6.963 -0.5485  0.1497 -0.4753
  963MOL0     C32803   7.611  11.587   7.048  0.1095 -0.1723 -0.1689
  963MOL0     O32804   7.641  11.586   7.427 -0.1075 -0.7721  0.1029
  963MOL0     C32805   7.709  11.779   7.595  0.4411 -0.1444 -0.5519
  963MOL0     C32806   7.739  11.876   7.690  0.1960  0.3811  0.4738
  963MOL0     N32807   7.561  12.123   8.150  0.7146 -0.4032 -0.5198
  963MOL0     N32808   7.491  12.066   8.238 -0.8149 -0.0657 -0.2159
  963MOL0     C32809   6.913  11.234   8.789  1.1226  0.5955  0.3745
  963MOL0     C32810   6.835  11.222   8.904  0.6210  0.2380  0.6078
  963MOL0     C32811   6.562  11.136   9.238 -0.0267  0.7594  0.0848
  963MOL0     C32812   6.497  11.252   9.260 -0.0780  0.1204  0.5885
  963MOL0     C32813   6.449  11.289   9.391  0.1924 -0.2005  0.3125
  963MOL0     C32814   6.449  11.198   9.494  0.1331 -0.4934  0.1666
  963MOL0     O32815   6.401  11.235   9.616 -0.9115 -0.8141 -0.6755
  963MOL0     C32816   6.269  11.177   9.639  0.7347 -0.2528 -0.8292
  963MOL0     C32817   6.161  11.290   9.627 -0.5656 -0.6325 -0.1517
  963MOL0     C32818   6.028  11.260   9.701  0.0362 -0.0736 -0.2372
  963MOL0     C32819   5.934  11.165   9.631  0.0231 -0.0855 -0.4152
  963MOL0     C32820   5.887  11.215   9.499 -0.0065  0.0639 -0.8114
  963MOL0     C32821   5.877  11.264   9.382  0.1271  0.3618  0.3349
  963MOL0     C32822   6.509  11.073   9.468 -0.0655 -0.7410  0.9740
  963MOL0     C32823   6.572  11.043   9.349  0.3897  0.1231 -0.0394
  963MOL0     C32824   6.642  10.913   9.350  0.7595  0.4695 -0.2362
  963MOL0     H32825   6.543  11.293   8.773 -0.0052 -0.4566 -2.7046
  963MOL0     H32826   6.676  11.306   8.570 -0.6934 -2.9754 -0.1197
  963MOL0     H32827   6.793  11.252   8.417 -0.7047  0.9202  2.0410
  963MOL0     H32828   6.937  11.290   8.330 -0.7436  3.0099 -1.1786
  963MOL0     H32829   6.785  11.478   8.347  0.2850  2.0447 -0.0795
  963MOL0     H32830   6.816  11.487   8.518 -5.6589 -0.1487 -2.2995
  963MOL0     H32831   7.075  11.490   8.456  0.6365  0.0873 -0.7959
  963MOL0     H32832   7.019  11.514   8.293 -0.0142 -1.0415  0.4017
  963MOL0     H32833   6.882  11.711   8.364  0.0607 -0.8147 -0.7305
  963MOL0     H32834   6.949  11.701   8.527  1.6491 -0.2233  0.4822
  963MOL0     H32835   7.180  11.704   8.391 -2.1551 -2.3679 -0.8615
  963MOL0     H32836   7.091  11.856   8.440  1.1808  2.2431 -1.6866
  963MOL0     H32837   7.072  11.717   8.174 -2.2947  0.7898 -0.7111
  963MOL0     H32838   6.985  11.859   8.210 -1.5104  0.6417  2.1257
  963MOL0     H32839   7.201  11.907   8.080 -3.2655 -0.3438 -0.0438
  963MOL0     H32840   7.287  11.806   8.203 -0.9699 -0.3143 -3.0915
  963MOL0     H32841   7.157  12.077   8.264 -0.9427 -1.0244  1.0438
  963MOL0     H32842   7.278  11.994   8.367 -2.0773  3.0767  0.5225
  963MOL0     H32843   7.276  12.126   7.994  0.1513  0.1428 -0.1150
  963MOL0     H32844   7.449  12.287   7.877  0.7075  0.1735 -1.5734
  963MOL0     H32845   7.530  12.138   7.841  1.4743 -1.2054  0.5668
  963MOL0     H32846   7.658  12.356   7.833 -2.9087  0.7685  0.5377
  963MOL0     H32847   7.642  12.372   8.007 -3.6316 -2.6831  1.8454
  963MOL0     H32848   7.870  12.284   7.919 -0.2134  0.0050  0.3108
  963MOL0     H32849   7.794  12.190   8.047  2.1334 -1.4706 -0.3702
  963MOL0     H32850   7.896  12.059   7.894  0.0275  1.9863  0.5900
  963MOL0     H32851   7.721  12.015   7.903 -0.7364  0.8944 -0.8104
  963MOL0     H32852   7.750  12.142   7.484  2.2463  0.2397  4.7493
  963MOL0     H32853   7.679  12.098   7.258 -0.0643  0.3664  1.5493
  963MOL0     H32854   7.539  11.985   7.276 -0.0170  1.7949 -1.0624
  963MOL0     H32855   7.693  11.927   7.208  0.4107  0.4723 -1.0666
  963MOL0     H32856   7.398  11.528   7.305 -1.9416 -1.5989 -0.4470
  963MOL0     H32857   7.321  11.362   7.174  0.4061  2.5068  2.8402
  963MOL0     H32858   7.494  11.336   6.745  0.1135  2.6485  1.5120
  963MOL0     H32859   7.619  11.246   6.832 -0.2101 -0.0582  0.5954
  963MOL0     H32860   7.359  11.146   6.719 -2.8131 -0.9394  4.3299
  963MOL0     H32861   7.529  11.091   6.688 -0.3454  0.2358 -1.2052
  963MOL0     H32862   7.372  11.050   6.954 -0.0281 -0.3927  0.3047
  963MOL0     H32863   7.539  11.006   6.908  0.5528 -1.0581 -1.2757
  963MOL0     H32864   7.474  10.844   6.763  1.5995  0.6198  0.5634
  963MOL0     H32865   7.321  10.929   6.723 -0.3213  0.8827  0.6574
  963MOL0     H32866   7.229  10.859   6.940 -1.9236 -3.2093 -0.4523
  963MOL0     H32867   7.300  10.713   6.865  3.4648  0.5559 -1.8708
  963MOL0     H32868   7.462  10.866   7.065  2.2271  0.1290 -2.3880
  963MOL0     H32869   7.512  10.733   6.987  0.7822 -0.1276  0.4771
  963MOL0     H32870   7.436  10.641   7.180  1.1029  0.1182 -1.4798
  963MOL0     H32871   7.299  10.592   7.073 -0.0290  0.0379  0.7632
  963MOL0     H32872   7.157  10.786   7.139 -0.6215  1.3450  1.1320
  963MOL0     H32873   7.289  10.846   7.236  1.5623 -0.1045 -2.5471
  963MOL0     H32874   7.641  11.470   6.874  0.5547 -1.2108  0.4234
  963MOL0     H32875   7.681  11.661   7.010  1.4540  0.8443  3.8010
  963MOL0     H32876   7.688  11.680   7.635 -2.5872  0.8857  0.6856
  963MOL0     H32877   7.776  11.845   7.788  2.1276  0.1171 -0.2929
  963MOL0     H32878   7.017  11.205   8.803  0.8421  0.4202  2.3351
  963MOL0     H32879   6.879  11.210   9.003  1.0498 -2.5363  0.1810
  963MOL0     H32880   6.495  11.331   9.185  0.7616  0.7694  1.2369
  963MOL0     H32881   6.406  11.387   9.408 -0.0264 -0.1865 -0.2864
  963MOL0     H32882   6.239  11.101   9.566 -2.4460 -0.9149  0.9812
  963MOL0     H32883   6.272  11.138   9.742 -0.8833  2.4821  0.3570
  963MOL0     H32884   6.141  11.328   9.527 -0.9880 -0.0487  0.1443
  963MOL0     H32885   6.208  11.377   9.675  0.3530 -0.0003 -2.0819
  963MOL0     H32886   6.040  11.218   9.801 -0.6432  3.9311  1.7399
  963MOL0     H32887   5.973  11.352   9.720 -0.0700 -0.4697  1.5991
  963MOL0     H32888   5.844  11.151   9.692 -0.7506  0.4116 -1.4223
  963MOL0     H32889   5.987  11.069   9.630  1.4364  0.4344  3.9356
  963MOL0     H32890   5.872  11.308   9.285  2.0147  0.6329  0.3190
  963MOL0     H32891   6.506  10.997   9.545  4.0208 -3.7915 -1.4572
  963MOL0     H32892   6.735  10.915   9.406  0.4736 -3.3135  0.6330
  963MOL0     H32893   6.581  10.835   9.397  3.3045 -0.8460  1.0769
  963MOL0     H32894   6.651  10.868   9.250 -2.1256 -0.8493 -0.0142
  964MOL0     O32895   1.435   1.432   2.271  0.9149 -0.5400 -0.5371
  964MOL0     C32896   1.517   1.499   2.327  0.6476 -0.0644  0.1040
  964MOL0     O32897   1.646   1.517   2.292  0.4349 -0.0194  0.1191
  964MOL0     C32898   1.706   1.433   2.210 -0.4467 -0.3125 -0.8360
  964MOL0     C32899   1.695   1.295   2.246  0.0727  0.1109  0.2734
  964MOL0     C32900   1.772   1.201   2.171 -0.1135 -0.2867 -0.7313
  964MOL0     C32901   1.867   1.244   2.072  1.0424  0.1156 -0.6379
  964MOL0     O32902   1.932   1.143   2.007  0.3709  0.6180 -0.1976
  964MOL0     C32903   2.047   1.156   1.918 -0.7156  0.0226  0.0553
  964MOL0     C32904   2.067   1.027   1.846  0.5011 -0.4007 -0.5781
  964MOL0     C32905   2.195   1.013   1.770  0.2674 -0.1672 -0.8017
  964MOL0     C32906   2.182   0.917   1.650 -1.1958  0.6371  0.1766
  964MOL0     C32907   2.326   0.886   1.608 -0.1126 -0.4685  0.0238
  964MOL0     C32908   2.360   0.767   1.526  1.2462 -0.1413 -0.6119
  964MOL0     C32909   2.247   0.660   1.506 -0.1617 -1.0305  0.4195
  964MOL0     C32910   2.289   0.568   1.395 -0.1745  0.4760  0.3008
  964MOL0     N32911   2.207   0.446   1.390 -0.3952  0.1440  1.1334
  964MOL0     C32912   2.109   0.410   1.479 -0.3043 -0.7776  0.8224
  964MOL0     C32913   2.047   0.299   1.422 -0.1141 -0.7501 -0.2604
  964MOL0     C32914   1.950   0.211   1.490  1.0613 -0.5187  0.0639
  964MOL0     C32915   1.921   0.079   1.407  0.7618 -0.0159  1.2543
  964MOL0     C32916   1.820  -0.016   1.488 -0.0052 -0.4185  0.4426
  964MOL0     C32917   1.843  -0.157   1.465 -1.0412  0.4709  0.6013
  964MOL0     O32918   1.966  -0.180   1.530 -0.1813 -0.0663 -0.4255
  964MOL0     C32919   2.009  -0.310   1.542  0.3909  0.2327 -1.0710
  964MOL0     C32920   2.145  -0.319   1.529  0.4719 -0.2185  0.4529
  964MOL0     C32921   2.209  -0.446   1.535  0.0684  0.1011 -0.1648
  964MOL0     C32922   2.360  -0.451   1.527  0.2923  0.1791 -0.0071
  964MOL0     C32923   2.122  -0.567   1.545 -0.6474 -0.3666  0.0939
  964MOL0     C32924   2.175  -0.707   1.552  0.3594  0.6124 -0.3946
  964MOL0     O32925   2.279  -0.743   1.470 -0.6085  0.6788  0.0463
  964MOL0     C32926   2.315  -0.872   1.481  0.5564  0.9609 -0.2132
  964MOL0     C32927   2.368  -0.911   1.600 -0.6844 -0.0454  0.1739
  964MOL0     C32928   2.418  -1.042   1.617 -0.6011  0.2155 -0.0435
  964MOL0     C32929   2.408  -1.137   1.508 -0.6912 -0.2577 -0.9633
  964MOL0     O32930   2.427  -1.270   1.508  0.0602 -0.6312  1.1492
  964MOL0     C32931   2.465  -1.328   1.625  0.6493  0.0918 -0.3561
  964MOL0     C32932   2.466  -1.478   1.584 -0.0654  0.4394  0.4472
  964MOL0     C32933   2.530  -1.562   1.703  0.4239  0.9994 -0.2769
  964MOL0     C32934   2.464  -1.550   1.841  0.2849 -0.0115 -0.1723
  964MOL0     C32935   2.517  -1.652   1.939  0.8896 -0.2044 -0.1760
  964MOL0     C32936   2.665  -1.651   1.969  0.0252 -0.2986 -0.1348
  964MOL0     C32937   2.704  -1.697   2.111 -0.3004  0.4914 -0.1065
  964MOL0     C32938   2.857  -1.699   2.132  0.5202  0.1317  0.4235
  964MOL0    Cl32939   2.921  -1.539   2.147  0.3481 -0.3718  0.1490
  964MOL0     C32940   2.358  -1.084   1.388 -1.3845 -0.7182  0.7033
  964MOL0     C32941   2.308  -0.959   1.373 -0.5463 -0.2981 -0.5584
  964MOL0     O32942   2.104  -0.784   1.626 -0.8682  0.5526  0.3031
  964MOL0     C32943   1.982  -0.549   1.547  0.9238  1.2775 -0.5361
  964MOL0     C32944   1.933  -0.417   1.547  0.6769  0.0327  0.1656
  964MOL0     N32945   2.112   0.279   1.299 -0.1205  0.4028  0.9584
  964MOL0     N32946   2.207   0.362   1.285 -0.2600 -0.2524 -0.5211
  964MOL0     C32947   1.874   1.381   2.037 -0.3718 -0.5962 -0.4877
  964MOL0     C32948   1.802   1.474   2.115 -0.1136 -0.1704  0.6090
  964MOL0     C32949   1.470   1.540   2.459  0.3621  0.5585 -0.2635
  964MOL0     C32950   1.388   1.446   2.530 -0.6960  0.9859  0.4734
  964MOL0     C32951   1.330   1.475   2.655 -0.8986  0.0208 -0.6197
  964MOL0     C32952   1.355   1.591   2.712  0.6131 -0.2447 -0.3169
  964MOL0     O32953   1.292   1.609   2.842  0.6018  0.0079 -0.1895
  964MOL0     C32954   1.284   1.746   2.891 -0.2356 -0.8022  0.0099
  964MOL0     C32955   1.203   1.749   3.015  0.9321  0.4244 -0.3805
  964MOL0     C32956   1.276   1.669   3.125 -0.3478  0.8877  0.5936
  964MOL0     C32957   1.229   1.523   3.140  0.5853  0.3502 -0.3055
  964MOL0     C32958   1.094   1.517   3.202 -0.0054 -0.6745 -0.8101
  964MOL0     C32959   0.995   1.510   3.266 -1.2915 -0.5151 -0.1401
  964MOL0     C32960   1.429   1.693   2.644  1.1288 -0.1633 -1.1030
  964MOL0     C32961   1.487   1.663   2.522  0.1470 -0.0929  0.2372
  964MOL0     C32962   1.581   1.766   2.465  0.1298  0.3400  0.4218
  964MOL0     H32963   1.621   1.274   2.322 -1.6317  0.4938 -1.2225
  964MOL0     H32964   1.769   1.094   2.186 -1.2055  0.0584  2.2268
  964MOL0     H32965   2.137   1.187   1.972 -0.8869  3.7384 -1.5401
  964MOL0     H32966   2.027   1.226   1.837 -1.2141 -2.8694 -2.5001
  964MOL0     H32967   2.060   0.946   1.918  1.4605  2.1473  2.6102
  964MOL0     H32968   1.984   1.007   1.777  0.1009 -0.4573 -0.0794
  964MOL0     H32969   2.253   1.100   1.737  3.0936 -0.9665  1.6240
  964MOL0     H32970   2.258   0.967   1.847  0.3348  0.5956 -0.3940
  964MOL0     H32971   2.125   0.829   1.680 -0.5146  0.8383  2.2202
  964MOL0     H32972   2.140   0.967   1.562 -3.9113 -2.8245 -0.7173
  964MOL0     H32973   2.382   0.877   1.702  0.6482 -3.0821 -0.5948
  964MOL0     H32974   2.367   0.979   1.568 -4.1730  1.1762 -0.7270
  964MOL0     H32975   2.393   0.800   1.427 -1.8260  1.1989 -1.3188
  964MOL0     H32976   2.437   0.710   1.579  0.0828 -0.4542  0.7989
  964MOL0     H32977   2.150   0.705   1.484 -0.7571 -0.9594  2.9151
  964MOL0     H32978   2.247   0.592   1.592  2.5124 -4.3032 -1.9272
  964MOL0     H32979   2.273   0.620   1.300  1.5342  0.8460  0.1873
  964MOL0     H32980   2.397   0.554   1.409  0.1631  2.5258  0.0592
  964MOL0     H32981   2.083   0.455   1.574  0.0405  0.3529  0.4005
  964MOL0     H32982   1.860   0.272   1.506 -0.6997 -2.7814 -0.5839
  964MOL0     H32983   1.992   0.184   1.587  2.6362 -3.2603 -1.2617
  964MOL0     H32984   1.889   0.093   1.304 -2.6974 -1.5143  1.9645
  964MOL0     H32985   2.018   0.029   1.401 -0.0061 -1.4196 -0.1387
  964MOL0     H32986   1.813   0.001   1.596 -0.6377 -1.3011  0.5569
  964MOL0     H32987   1.719   0.004   1.452  0.1211  0.5626  0.6093
  964MOL0     H32988   1.759  -0.212   1.506 -2.4766  2.1660  0.0551
  964MOL0     H32989   1.837  -0.179   1.358 -0.5547 -2.1089  1.0326
  964MOL0     H32990   2.204  -0.228   1.536  2.9720 -1.7892  1.1410
  964MOL0     H32991   2.398  -0.530   1.594 -3.8025 -0.9914  1.2451
  964MOL0     H32992   2.411  -0.360   1.560  0.6902 -0.4349  1.1325
  964MOL0     H32993   2.384  -0.477   1.424  0.8597 -1.0056  0.3988
  964MOL0     H32994   2.385  -0.833   1.674  0.0474 -0.2255  0.2065
  964MOL0     H32995   2.447  -1.074   1.717 -0.4229  1.8627  0.4598
  964MOL0     H32996   2.568  -1.294   1.639  1.2271 -2.0382  0.9179
  964MOL0     H32997   2.400  -1.318   1.712 -0.1064  1.0427 -0.9990
  964MOL0     H32998   2.367  -1.525   1.574  0.6702 -1.0136 -0.2639
  964MOL0     H32999   2.527  -1.495   1.495  4.5005  3.0575  2.7010
  964MOL0     H33000   2.632  -1.525   1.715 -0.0750  3.0979 -2.0044
  964MOL0     H33001   2.528  -1.670   1.682  0.1860  0.1905  3.2445
  964MOL0     H33002   2.358  -1.573   1.822  0.8225 -1.0167 -2.3022
  964MOL0     H33003   2.468  -1.451   1.888 -1.5542 -1.6344  3.8947
  964MOL0     H33004   2.466  -1.625   2.031 -0.5129 -1.6242 -0.4946
  964MOL0     H33005   2.478  -1.750   1.912 -0.1976 -0.5100  2.3210
  964MOL0     H33006   2.698  -1.550   1.943  0.5727 -0.5641 -0.4842
  964MOL0     H33007   2.724  -1.712   1.900 -2.2206 -1.2389 -1.3271
  964MOL0     H33008   2.663  -1.798   2.122 -1.0987  0.9632  1.6834
  964MOL0     H33009   2.644  -1.631   2.174  1.9891  3.3980 -0.7860
  964MOL0     H33010   2.894  -1.740   2.037 -0.7769  2.7784 -1.3594
  964MOL0     H33011   2.889  -1.766   2.212 -1.8410  1.9818  3.0855
  964MOL0     H33012   2.359  -1.150   1.301  0.9763  0.0708  0.0623
  964MOL0     H33013   2.295  -0.912   1.277 -2.3114  1.3504  0.4282
  964MOL0     H33014   1.918  -0.637   1.545  1.1613  1.1105 -1.3430
  964MOL0     H33015   1.825  -0.419   1.538  0.7500  0.1678 -0.8269
  964MOL0     H33016   1.945   1.419   1.963  1.3839  1.8653  2.2488
  964MOL0     H33017   1.804   1.576   2.077 -1.9846 -0.2159  0.2749
  964MOL0     H33018   1.357   1.350   2.490  1.3285  0.0993  0.8717
  964MOL0     H33019   1.271   1.397   2.703 -2.8299  2.7942  1.8768
  964MOL0     H33020   1.386   1.778   2.915 -0.6855  0.0838  0.7627
  964MOL0     H33021   1.237   1.809   2.815 -2.0986 -1.1010  0.8741
  964MOL0     H33022   1.102   1.712   2.997  1.1814 -4.2842  5.1735
  964MOL0     H33023   1.209   1.858   3.028  0.8562  0.4830 -0.8295
  964MOL0     H33024   1.384   1.681   3.114 -0.1758 -1.7394 -1.8084
  964MOL0     H33025   1.262   1.717   3.222  0.0304  1.3641  0.4172
  964MOL0     H33026   1.300   1.462   3.197 -0.3690  0.6847  1.3130
  964MOL0     H33027   1.226   1.471   3.044  2.9342 -0.0032 -0.2336
  964MOL0     H33028   0.916   1.506   3.339 -1.0067  1.2403  0.3245
  964MOL0     H33029   1.436   1.791   2.691  1.7775  0.0163 -1.5535
  964MOL0     H33030   1.559   1.781   2.359  0.5288 -0.0352  0.2815
  964MOL0     H33031   1.575   1.863   2.514  1.0575  0.3457  0.5360
  964MOL0     H33032   1.685   1.737   2.477  0.3381  0.9734  0.1671
  965MOL0     O33033   8.978   0.865   5.442  0.5870 -0.2007 -0.8212
  965MOL0     C33034   8.971   0.984   5.429 -0.1983 -0.7435  0.6683
  965MOL0     O33035   8.855   1.046   5.394  0.2514 -0.2381  0.3459
  965MOL0     C33036   8.755   0.960   5.364  0.4018  0.2666 -0.4644
  965MOL0     C33037   8.638   0.948   5.440 -0.2391  0.3191 -0.4771
  965MOL0     C33038   8.530   0.883   5.382  0.4514 -0.0057 -0.1268
  965MOL0     C33039   8.542   0.811   5.259 -0.2987  0.3518  0.1257
  965MOL0     O33040   8.444   0.720   5.217  1.1490  0.1785 -0.0568
  965MOL0     C33041   8.332   0.689   5.302 -0.0567  0.0540 -0.1473
  965MOL0     C33042   8.243   0.590   5.229  0.2617 -0.4707  0.3440
  965MOL0     C33043   8.092   0.598   5.264 -0.0254  0.0216 -0.4577
  965MOL0     C33044   8.011   0.654   5.150  0.1765  0.7803 -0.2617
  965MOL0     C33045   7.986   0.802   5.164 -0.0935 -0.8838 -0.4837
  965MOL0     C33046   7.879   0.850   5.067  0.4268  0.4758 -0.5547
  965MOL0     C33047   7.943   0.869   4.930 -0.1662  0.6262 -0.1213
  965MOL0     C33048   7.849   0.868   4.809 -0.2897 -0.1999  0.1036
  965MOL0     N33049   7.790   0.998   4.763 -0.3389 -0.1513  0.0189
  965MOL0     C33050   7.875   1.096   4.735 -0.4246  0.6735 -0.5981
  965MOL0     C33051   7.793   1.189   4.681 -0.1706  0.2865  0.9304
  965MOL0     C33052   7.829   1.333   4.656  0.3815 -0.9685  0.1718
  965MOL0     C33053   7.829   1.366   4.509  0.3496  0.8009  0.0559
  965MOL0     C33054   7.810   1.516   4.499 -0.2878 -0.2048  0.0377
  965MOL0     C33055   7.849   1.564   4.356 -0.0122  0.1136 -0.7922
  965MOL0     O33056   7.940   1.685   4.358  0.4145  0.1424 -0.7006
  965MOL0     C33057   7.883   1.808   4.347  0.8789 -0.5946  0.5044
  965MOL0     C33058   7.959   1.916   4.296 -0.1503  0.7173  0.0668
  965MOL0     C33059   7.910   2.049   4.269 -0.6320 -0.4734  0.1793
  965MOL0     C33060   7.994   2.165   4.233 -0.4108  0.4899 -0.8621
  965MOL0     C33061   7.778   2.071   4.316 -0.4334 -0.2571 -1.0711
  965MOL0     C33062   7.709   2.204   4.294  1.0406 -0.5324 -0.3825
  965MOL0     O33063   7.589   2.216   4.371 -0.4095 -0.0106  0.7411
  965MOL0     C33064   7.517   2.330   4.358 -0.4271  0.2296 -0.1617
  965MOL0     C33065   7.521   2.411   4.468  0.8624 -0.4281 -0.0696
  965MOL0     C33066   7.435   2.524   4.476  0.2044 -0.3172  0.9154
  965MOL0     C33067   7.340   2.543   4.377  0.4439 -0.3004 -0.0216
  965MOL0     O33068   7.245   2.642   4.384 -0.2523 -0.3440 -0.0017
  965MOL0     C33069   7.241   2.719   4.498  0.3609 -0.1412  0.2774
  965MOL0     C33070   7.118   2.815   4.472 -0.4459 -0.2466 -0.5273
  965MOL0     C33071   7.085   2.900   4.601  0.3408  0.0828  0.0862
  965MOL0     C33072   6.978   3.002   4.581  0.0858 -0.7955  0.3992
  965MOL0     C33073   6.865   2.991   4.688  0.2399 -0.6132 -0.4830
  965MOL0     C33074   6.769   3.116   4.687 -0.4113  0.0445 -0.9185
  965MOL0     C33075   6.674   3.118   4.814 -0.5689  0.1675  0.9273
  965MOL0     C33076   6.748   3.123   4.945 -0.0064 -0.8262  0.3443
  965MOL0    Cl33077   6.899   3.211   4.934  0.0915 -0.7081  0.3659
  965MOL0     C33078   7.344   2.457   4.268  1.3840 -0.8917 -0.0248
  965MOL0     C33079   7.418   2.343   4.263  0.2219 -0.2897 -0.3162
  965MOL0     O33080   7.754   2.306   4.235 -0.2285  0.0889  0.2478
  965MOL0     C33081   7.698   1.968   4.371 -0.0704  0.0978 -0.1870
  965MOL0     C33082   7.751   1.841   4.390 -0.7357  0.4601 -0.3173
  965MOL0     N33083   7.667   1.137   4.667 -0.0154  0.3891  0.4668
  965MOL0     N33084   7.664   1.024   4.725  0.3868 -0.2967  0.6827
  965MOL0     C33085   8.656   0.823   5.181 -0.7001  0.5361  0.2098
  965MOL0     C33086   8.767   0.900   5.234  0.1046  0.3350  0.3013
  965MOL0     C33087   9.101   1.067   5.466  0.5622 -0.1070  0.7674
  965MOL0     C33088   9.214   0.999   5.518  0.0478 -0.6539 -0.1566
  965MOL0     C33089   9.320   1.068   5.575 -0.7196 -0.0473 -0.9877
  965MOL0     C33090   9.321   1.207   5.567 -0.2632  0.1438  0.1589
  965MOL0     O33091   9.427   1.285   5.597 -0.5070  0.1635 -0.0334
  965MOL0     C33092   9.543   1.240   5.673  0.6082  0.3049 -0.3604
  965MOL0     C33093   9.504   1.190   5.815  0.1574  0.1804 -0.0282
  965MOL0     C33094   9.394   1.269   5.888  0.1101 -0.4209  0.1244
  965MOL0     C33095   9.397   1.238   6.039 -0.1699 -0.0174  0.7318
  965MOL0     C33096   9.382   1.095   6.071 -0.1025  0.6084  0.3042
  965MOL0     C33097   9.382   0.976   6.100 -0.1357 -0.1491 -1.0016
  965MOL0     C33098   9.211   1.276   5.517 -0.0908 -0.5290 -0.3038
  965MOL0     C33099   9.099   1.211   5.468 -0.6172  0.5698  0.0478
  965MOL0     C33100   8.994   1.300   5.426  0.4301 -0.5473  0.4213
  965MOL0     H33101   8.626   0.999   5.535  2.7281 -1.7251  1.1541
  965MOL0     H33102   8.439   0.883   5.442  0.8231  0.6459  0.4545
  965MOL0     H33103   8.288   0.784   5.333 -0.8950 -0.1783 -0.5861
  965MOL0     H33104   8.374   0.636   5.388  3.0532  1.4090 -0.6784
  965MOL0     H33105   8.250   0.606   5.121  2.0909 -1.0684  0.3388
  965MOL0     H33106   8.273   0.489   5.260  0.1146 -0.4074  0.7014
  965MOL0     H33107   8.063   0.494   5.284  4.0805 -1.2890 -0.1796
  965MOL0     H33108   8.084   0.648   5.361 -0.2587  0.6364 -0.7948
  965MOL0     H33109   8.052   0.633   5.051  0.9386 -0.3414  0.2788
  965MOL0     H33110   7.914   0.605   5.145 -1.0725  2.8277  1.6934
  965MOL0     H33111   8.081   0.856   5.165  0.6398 -2.1229 -1.2225
  965MOL0     H33112   7.936   0.816   5.261 -3.2544 -3.0254 -1.6164
  965MOL0     H33113   7.809   0.766   5.058  2.0615 -1.4403  2.6402
  965MOL0     H33114   7.830   0.931   5.122 -1.3152 -0.6576 -0.3743
  965MOL0     H33115   8.021   0.792   4.921  3.8439  4.3024 -0.1947
  965MOL0     H33116   7.976   0.972   4.913 -0.3857  1.0125  1.6235
  965MOL0     H33117   7.882   0.825   4.714 -3.8724  3.8219 -3.4036
  965MOL0     H33118   7.753   0.823   4.836 -2.0662  3.2985  0.1722
  965MOL0     H33119   7.982   1.108   4.745 -0.0060 -2.2974 -0.5211
  965MOL0     H33120   7.927   1.359   4.697  1.2026  0.1401 -2.2392
  965MOL0     H33121   7.755   1.394   4.707  0.4089 -1.9958  1.4723
  965MOL0     H33122   7.922   1.334   4.463  0.5108 -0.9688  1.5071
  965MOL0     H33123   7.759   1.317   4.441 -0.9325  3.0285 -0.3564
  965MOL0     H33124   7.709   1.552   4.517 -0.1604  0.0078  0.3404
  965MOL0     H33125   7.869   1.571   4.573  3.9044 -2.1934 -1.4776
  965MOL0     H33126   7.896   1.479   4.306 -0.5029 -1.5336  1.3695
  965MOL0     H33127   7.760   1.591   4.301  0.0797 -0.7706 -1.4014
  965MOL0     H33128   8.058   1.893   4.259 -1.2726 -1.5916 -1.7505
  965MOL0     H33129   7.972   2.220   4.141  0.2134  4.8354  1.3093
  965MOL0     H33130   8.095   2.127   4.213 -0.2709 -0.5806  1.6036
  965MOL0     H33131   7.988   2.238   4.314 -1.3896 -1.1997  0.6577
  965MOL0     H33132   7.592   2.398   4.549 -0.1054  0.4297  0.9473
  965MOL0     H33133   7.446   2.579   4.569 -0.1567 -0.2714  0.9324
  965MOL0     H33134   7.209   2.669   4.590 -2.3435 -1.5552 -1.3107
  965MOL0     H33135   7.329   2.785   4.499  0.2185  0.0638  2.0585
  965MOL0     H33136   7.148   2.880   4.389 -4.6813  2.7484 -0.0573
  965MOL0     H33137   7.028   2.764   4.436  0.0778 -1.5071 -0.1125
  965MOL0     H33138   7.178   2.944   4.637  0.9152  0.7822 -2.1063
  965MOL0     H33139   7.047   2.821   4.667 -1.7460 -0.4025 -1.5838
  965MOL0     H33140   6.928   2.984   4.486  0.8269  1.2237 -0.4162
  965MOL0     H33141   7.026   3.100   4.584  4.6297 -2.7092 -0.7220
  965MOL0     H33142   6.807   2.898   4.686 -4.0526  1.4619  4.5999
  965MOL0     H33143   6.915   2.993   4.785  0.5196  4.6332 -0.4588
  965MOL0     H33144   6.706   3.116   4.597  1.5132  1.1522 -2.3548
  965MOL0     H33145   6.834   3.203   4.669 -3.2487  2.2704 -1.2308
  965MOL0     H33146   6.619   3.024   4.813  2.6336 -1.8788 -0.8544
  965MOL0     H33147   6.603   3.200   4.799 -0.1135  0.2661 -1.0476
  965MOL0     H33148   6.777   3.023   4.978  1.8194 -0.0544  1.2362
  965MOL0     H33149   6.678   3.177   5.009 -3.2781 -2.0987 -1.9146
  965MOL0     H33150   7.276   2.484   4.188  1.0034  1.4309  1.0208
  965MOL0     H33151   7.405   2.267   4.187 -4.8093  0.4213 -0.5327
  965MOL0     H33152   7.592   1.979   4.391 -0.4184 -1.3448 -1.0700
  965MOL0     H33153   7.688   1.771   4.445  0.1529 -0.1656 -0.0657
  965MOL0     H33154   8.658   0.762   5.091  0.7348  2.6265 -1.2665
  965MOL0     H33155   8.853   0.914   5.170 -0.5519  1.5239 -0.3586
  965MOL0     H33156   9.224   0.892   5.529  2.8589 -0.3738  0.8996
  965MOL0     H33157   9.411   1.020   5.612  0.2778  0.4360 -2.6614
  965MOL0     H33158   9.607   1.168   5.621 -0.0645 -0.3097 -0.3501
  965MOL0     H33159   9.604   1.328   5.695 -0.5269  1.1198 -0.4192
  965MOL0     H33160   9.601   1.195   5.866  0.5260 -3.3243 -0.1262
  965MOL0     H33161   9.475   1.085   5.821  2.7523 -0.5504  1.2773
  965MOL0     H33162   9.399   1.377   5.873 -2.1015  0.2909  3.4264
  965MOL0     H33163   9.293   1.240   5.855  0.3279  1.3901 -2.3775
  965MOL0     H33164   9.312   1.291   6.081 -1.4289  0.9851 -2.7166
  965MOL0     H33165   9.486   1.280   6.087 -0.0995 -1.0788  1.5626
  965MOL0     H33166   9.372   0.876   6.137 -0.7396  0.6117  1.0432
  965MOL0     H33167   9.210   1.384   5.531 -0.2983 -0.8003  2.2400
  965MOL0     H33168   8.898   1.287   5.476  0.5087  1.0288  1.0499
  965MOL0     H33169   9.018   1.404   5.450 -0.0581 -0.7404  1.8288
  965MOL0     H33170   8.983   1.280   5.319 -1.3412 -0.7126  0.6038
  966MOL0     O33171   4.641   2.617   5.636  0.2702  0.4807  0.1532
  966MOL0     C33172   4.657   2.739   5.645  0.2420 -1.0662 -0.4794
  966MOL0     O33173   4.552   2.829   5.673 -0.9826 -0.7559 -0.6000
  966MOL0     C33174   4.426   2.773   5.684 -0.1985 -0.0648 -0.6850
  966MOL0     C33175   4.344   2.752   5.576  0.5287  0.8321 -0.3964
  966MOL0     C33176   4.211   2.706   5.591  0.6925 -0.0963 -0.2468
  966MOL0     C33177   4.154   2.678   5.718 -0.2751 -0.3220 -0.1616
  966MOL0     O33178   4.021   2.648   5.748 -0.2718 -0.6662 -0.4305
  966MOL0     C33179   3.950   2.575   5.638  0.0848 -0.2056  0.1238
  966MOL0     C33180   3.994   2.426   5.621 -0.1622 -0.6942  0.4529
  966MOL0     C33181   3.873   2.354   5.547 -0.4110 -0.7921  0.0732
  966MOL0     C33182   3.929   2.215   5.512  0.0318 -0.2224  0.2798
  966MOL0     C33183   3.820   2.112   5.516 -0.6766  0.0318  0.9907
  966MOL0     C33184   3.875   1.976   5.492 -0.3937 -0.0738 -0.5804
  966MOL0     C33185   3.952   1.961   5.357  0.3781  0.0930  0.1206
  966MOL0     C33186   3.994   1.819   5.319  0.1441 -0.1933 -0.2713
  966MOL0     N33187   3.884   1.734   5.298 -0.3445 -0.0383  0.5358
  966MOL0     C33188   3.831   1.728   5.174  0.1118  0.0692 -0.3610
  966MOL0     C33189   3.740   1.641   5.188 -0.4325  1.1948  0.1408
  966MOL0     C33190   3.675   1.585   5.066  0.6703  0.6331  0.0362
  966MOL0     C33191   3.732   1.460   5.022 -0.7455  0.4115 -0.0257
  966MOL0     C33192   3.658   1.392   4.893 -0.5010 -0.1091 -0.2762
  966MOL0     C33193   3.657   1.498   4.774  0.4479  0.0579  0.3922
  966MOL0     O33194   3.587   1.437   4.663 -0.6053 -0.2962 -0.5483
  966MOL0     C33195   3.656   1.356   4.571  0.1298  0.8068  0.0938
  966MOL0     C33196   3.782   1.299   4.597 -0.0853  0.5897  0.8528
  966MOL0     C33197   3.850   1.225   4.497 -0.9033  0.3446 -0.6855
  966MOL0     C33198   3.979   1.160   4.538  0.2752 -0.1912  1.0159
  966MOL0     C33199   3.803   1.215   4.367  1.6169 -0.8372 -0.3062
  966MOL0     C33200   3.882   1.145   4.251  0.0920  0.6115 -0.2923
  966MOL0     O33201   3.845   1.190   4.130 -0.0016  0.5486  0.3034
  966MOL0     C33202   3.899   1.132   4.018  0.2026 -0.3389  0.5296
  966MOL0     C33203   4.044   1.110   4.001  0.0112 -0.8507  0.8017
  966MOL0     C33204   4.097   1.054   3.880 -0.2143 -0.9858 -0.6270
  966MOL0     C33205   4.013   1.031   3.771 -0.8109  0.8418  0.7116
  966MOL0     O33206   4.046   0.975   3.653 -0.5144  0.6048 -0.1210
  966MOL0     C33207   4.191   0.959   3.625  0.4080  0.8551 -0.4092
  966MOL0     C33208   4.224   0.898   3.489 -0.4459  0.3697  1.4721
  966MOL0     C33209   4.170   0.985   3.372 -0.6186 -1.0314 -0.3121
  966MOL0     C33210   4.119   0.910   3.259 -0.7211  0.5197 -0.4404
  966MOL0     C33211   4.146   0.946   3.118 -0.2611  0.7758 -0.3320
  966MOL0     C33212   4.106   0.846   3.014  0.0414  0.4262 -0.2010
  966MOL0     C33213   4.082   0.897   2.868 -1.2661  0.1853 -0.9633
  966MOL0     C33214   4.006   0.793   2.785  1.4956  0.3006  0.5371
  966MOL0    Cl33215   3.974   0.831   2.615 -0.6040  0.2240 -0.4067
  966MOL0     C33216   3.878   1.057   3.791 -0.0302  0.4208  0.0557
  966MOL0     C33217   3.818   1.109   3.904 -0.2758  0.2639  0.8224
  966MOL0     O33218   3.959   1.049   4.268  0.5945 -0.4983  0.0045
  966MOL0     C33219   3.681   1.287   4.338 -1.4297 -0.1904  0.3896
  966MOL0     C33220   3.606   1.339   4.439  0.6522 -0.6143 -0.3652
  966MOL0     N33221   3.738   1.581   5.313 -0.6113  0.2172 -0.2761
  966MOL0     N33222   3.834   1.636   5.384  1.2444 -0.0842  0.1058
  966MOL0     C33223   4.244   2.695   5.828 -1.1495 -0.3684  0.0439
  966MOL0     C33224   4.383   2.736   5.809  0.8443  0.7382 -0.0338
  966MOL0     C33225   4.801   2.786   5.622  0.3057  0.2964  0.2371
  966MOL0     C33226   4.879   2.713   5.532 -0.0093  0.6162  0.3323
  966MOL0     C33227   5.016   2.729   5.501  0.4991  0.5970 -0.0190
  966MOL0     C33228   5.073   2.842   5.556  0.0402  0.2437 -0.6072
  966MOL0     O33229   5.210   2.864   5.526  0.6054 -0.0563 -0.4281
  966MOL0     C33230   5.269   2.986   5.559 -0.3021 -0.1097 -0.3554
  966MOL0     C33231   5.312   2.971   5.715  0.9892 -0.0166  0.3743
  966MOL0     C33232   5.352   3.108   5.774  0.4150  0.0705  0.5070
  966MOL0     C33233   5.358   3.120   5.923  0.4821 -0.5235 -0.5258
  966MOL0     C33234   5.358   3.259   5.974  0.4276 -0.0737  0.4770
  966MOL0     C33235   5.370   3.376   6.017 -0.2076 -0.4161  0.6807
  966MOL0     C33236   4.994   2.937   5.645 -0.6550  0.4559  0.2449
  966MOL0     C33237   4.861   2.894   5.681 -1.0287  0.4900  0.0356
  966MOL0     C33238   4.794   2.974   5.784  0.6074  0.7284  0.5551
  966MOL0     H33239   4.382   2.761   5.474  1.4731 -0.3544 -0.1620
  966MOL0     H33240   4.164   2.687   5.495  0.0189 -1.6188  0.3606
  966MOL0     H33241   3.973   2.631   5.547 -1.9437  3.0029  1.4040
  966MOL0     H33242   3.842   2.573   5.656 -0.0041 -1.3853 -0.5090
  966MOL0     H33243   4.069   2.422   5.542  0.1671 -0.1867  0.7299
  966MOL0     H33244   4.025   2.375   5.713 -0.2089 -0.9716  0.3159
  966MOL0     H33245   3.785   2.367   5.610  0.2600 -1.0279  1.0820
  966MOL0     H33246   3.855   2.411   5.455 -1.0638 -0.2583  0.5231
  966MOL0     H33247   3.973   2.222   5.412 -1.4315  1.2096 -0.3220
  966MOL0     H33248   4.016   2.188   5.572  1.3476  3.4015  0.2548
  966MOL0     H33249   3.744   2.128   5.439  0.4886 -0.8588 -0.3980
  966MOL0     H33250   3.778   2.103   5.616 -0.4355 -1.1200  1.0088
  966MOL0     H33251   3.946   1.950   5.571 -1.3339 -0.2124  0.2427
  966MOL0     H33252   3.797   1.899   5.499 -0.4977  0.1100  0.4490
  966MOL0     H33253   4.044   2.019   5.349 -0.1277  0.9413  0.3655
  966MOL0     H33254   3.891   1.999   5.274 -1.0606 -2.3275 -0.0263
  966MOL0     H33255   4.056   1.819   5.229  0.3580 -0.8676 -0.1301
  966MOL0     H33256   4.054   1.779   5.402 -1.8833  1.6285  2.2304
  966MOL0     H33257   3.865   1.783   5.086  2.2753 -1.6098 -0.6511
  966MOL0     H33258   3.682   1.653   4.981 -0.0721  1.2651  0.4718
  966MOL0     H33259   3.571   1.560   5.089  0.4703  0.7035 -0.7862
  966MOL0     H33260   3.840   1.468   5.003 -0.7159  0.6106  0.2206
  966MOL0     H33261   3.719   1.397   5.110 -1.5476  0.4055 -0.1430
  966MOL0     H33262   3.714   1.301   4.867  1.0330  0.6584  0.2118
  966MOL0     H33263   3.560   1.353   4.922 -0.4500 -0.6339 -0.7894
  966MOL0     H33264   3.599   1.586   4.803  2.7433  1.7607  0.0464
  966MOL0     H33265   3.757   1.529   4.745  1.1292 -1.9143  0.4726
  966MOL0     H33266   3.838   1.319   4.687  1.1290 -0.2565  0.3141
  966MOL0     H33267   4.004   1.196   4.639  0.8735 -0.0745  0.8314
  966MOL0     H33268   4.061   1.183   4.470 -0.2427  0.5095  0.6196
  966MOL0     H33269   3.949   1.055   4.546 -1.2475  0.2950  2.1308
  966MOL0     H33270   4.124   1.120   4.074 -1.1236 -3.1667  2.4927
  966MOL0     H33271   4.198   1.017   3.891 -0.3376 -1.3223 -0.6226
  966MOL0     H33272   4.234   1.059   3.636  0.9259  0.4682  1.6912
  966MOL0     H33273   4.239   0.893   3.698  2.1277  0.2933 -1.9841
  966MOL0     H33274   4.333   0.901   3.477 -0.5827  0.3037 -0.0203
  966MOL0     H33275   4.199   0.792   3.484  3.0813 -0.5918  1.3484
  966MOL0     H33276   4.259   1.035   3.332 -0.2934 -1.1583  0.2359
  966MOL0     H33277   4.111   1.069   3.408  1.8786  0.1166  1.4093
  966MOL0     H33278   4.010   0.903   3.272 -0.6665 -0.1267 -0.2922
  966MOL0     H33279   4.170   0.814   3.271 -3.3666 -0.8517  0.7414
  966MOL0     H33280   4.095   1.040   3.093  0.7489  0.5354 -3.7695
  966MOL0     H33281   4.253   0.961   3.105  0.6582 -3.4126  0.9568
  966MOL0     H33282   4.014   0.802   3.054 -0.7636  0.3087 -2.0522
  966MOL0     H33283   4.179   0.765   3.016 -0.0758  0.3236 -0.1089
  966MOL0     H33284   4.176   0.927   2.821 -1.7328  0.6603 -1.6227
  966MOL0     H33285   4.023   0.989   2.859  0.9001  1.5833 -1.6282
  966MOL0     H33286   3.907   0.770   2.828 -2.0568  4.1405 -4.4315
  966MOL0     H33287   4.066   0.702   2.777 -0.1309 -0.8689  1.0755
  966MOL0     H33288   3.826   1.043   3.696  4.3182 -2.8176 -2.2245
  966MOL0     H33289   3.714   1.133   3.918  0.7228  3.6408  4.2196
  966MOL0     H33290   3.642   1.296   4.237  0.7489 -0.8048 -0.5616
  966MOL0     H33291   3.508   1.382   4.424 -0.2987 -1.1788  3.2143
  966MOL0     H33292   4.209   2.665   5.926 -1.1413  0.9655  0.4800
  966MOL0     H33293   4.452   2.751   5.891  0.4940  0.2394  0.3599
  966MOL0     H33294   4.831   2.630   5.483  0.5106 -0.3124  1.3589
  966MOL0     H33295   5.071   2.670   5.428 -1.5580  0.9896 -1.9848
  966MOL0     H33296   5.352   3.007   5.490 -0.0822 -0.4296 -0.1922
  966MOL0     H33297   5.198   3.068   5.545 -0.3721  0.1018  1.0796
  966MOL0     H33298   5.386   2.892   5.725 -2.1731 -3.5976 -1.7390
  966MOL0     H33299   5.227   2.936   5.774 -1.0544  3.4549 -0.2555
  966MOL0     H33300   5.454   3.133   5.743 -0.9320  0.6613 -4.1680
  966MOL0     H33301   5.285   3.186   5.737  0.6604 -0.6021 -1.4626
  966MOL0     H33302   5.440   3.056   5.958  0.1731 -0.7646 -0.2323
  966MOL0     H33303   5.262   3.081   5.959 -0.5557  0.3218 -2.2272
  966MOL0     H33304   5.361   3.480   6.041  3.8836  0.9909 -2.7484
  966MOL0     H33305   5.032   3.022   5.701  0.2639  0.0688  0.2357
  966MOL0     H33306   4.711   3.022   5.730 -1.2295 -1.6127  1.1249
  966MOL0     H33307   4.750   2.910   5.861 -1.1559 -1.2181 -1.9278
  966MOL0     H33308   4.857   3.054   5.825  2.0366 -0.1225  0.0675
  967MOL0     O33309  10.924   8.431   2.761 -0.2207 -0.3828 -0.5045
  967MOL0     C33310  11.023   8.394   2.701  0.2607 -0.4467 -1.2176
  967MOL0     O33311  11.151   8.373   2.756 -0.7922  0.2665  0.2259
  967MOL0     C33312  11.150   8.336   2.882 -1.0345  0.1398  0.1914
  967MOL0     C33313  11.249   8.390   2.957  0.7279 -0.0066 -0.5588
  967MOL0     C33314  11.243   8.359   3.098  0.7428 -0.6441 -0.0175
  967MOL0     C33315  11.154   8.260   3.148  0.3314 -0.5148 -0.3246
  967MOL0     O33316  11.149   8.214   3.272  0.4172  1.0001 -0.4038
  967MOL0     C33317  11.208   8.301   3.370 -0.0988 -1.0793  1.1313
  967MOL0     C33318  11.141   8.270   3.505 -0.1833  0.2671  0.2100
  967MOL0     C33319  11.148   8.125   3.549 -0.3817 -0.1569  0.3426
  967MOL0     C33320  11.294   8.056   3.545 -0.1532 -0.7396  0.2375
  967MOL0     C33321  11.384   8.108   3.653 -0.5880  0.8621 -0.3046
  967MOL0     C33322  11.528   8.089   3.629  0.0210  0.8154 -0.2341
  967MOL0     C33323  11.549   7.939   3.624 -0.1149  1.0024 -0.2275
  967MOL0     C33324  11.570   7.878   3.764 -0.2218 -0.2473  0.7053
  967MOL0     N33325  11.447   7.834   3.842 -0.3525 -0.2552 -0.3368
  967MOL0     C33326  11.368   7.728   3.804 -1.0213  0.0377  0.4418
  967MOL0     C33327  11.286   7.714   3.905  0.3337  1.1846  0.8010
  967MOL0     C33328  11.175   7.605   3.911 -0.6316  0.1054  0.1110
  967MOL0     C33329  11.067   7.654   4.006  0.2225  0.2802  0.0113
  967MOL0     C33330  10.933   7.581   3.979  0.6734 -0.3892  1.0598
  967MOL0     C33331  10.824   7.635   4.067  1.4814 -0.3443 -0.8387
  967MOL0     O33332  10.854   7.594   4.202  0.4194  0.2684 -0.7738
  967MOL0     C33333  10.801   7.477   4.238 -0.1417  0.7187 -0.1896
  967MOL0     C33334  10.826   7.456   4.376 -0.5189  0.2182  0.1741
  967MOL0     C33335  10.806   7.339   4.438 -0.2386 -0.1003 -0.7842
  967MOL0     C33336  10.867   7.324   4.575  1.0970  0.6914 -0.3593
  967MOL0     C33337  10.751   7.231   4.368 -0.4900  0.1826  0.2681
  967MOL0     C33338  10.726   7.090   4.404 -0.4429 -0.2804 -0.4301
  967MOL0     O33339  10.824   7.050   4.493 -0.1196 -0.5502  0.0437
  967MOL0     C33340  10.828   6.918   4.539 -0.0367  0.3865  0.8708
  967MOL0     C33341  10.903   6.908   4.654 -0.0472  1.1135 -0.3530
  967MOL0     C33342  10.899   6.784   4.729 -0.8255 -0.4708  0.3289
  967MOL0     C33343  10.831   6.674   4.681 -0.2793 -0.1421  0.2839
  967MOL0     O33344  10.827   6.546   4.738  0.5043  0.1975 -0.9627
  967MOL0     C33345  10.924   6.519   4.839  0.7060 -0.9771  0.5278
  967MOL0     C33346  10.934   6.367   4.855  0.8606  0.4094 -0.3517
  967MOL0     C33347  10.802   6.301   4.903  0.6462  0.1356  0.7927
  967MOL0     C33348  10.795   6.147   4.890 -0.7046  0.2379 -0.7548
  967MOL0     C33349  10.915   6.064   4.965  0.1394 -0.5623  0.1168
  967MOL0     C33350  10.958   6.113   5.110  0.9012  1.1309  0.9533
  967MOL0     C33351  11.097   6.058   5.125 -0.5042 -0.0058 -0.8065
  967MOL0     C33352  11.155   6.089   5.260  0.1996  0.1069  0.3116
  967MOL0    Cl33353  11.176   6.267   5.284 -0.0934  0.1312  0.3251
  967MOL0     C33354  10.773   6.678   4.552 -0.5601 -0.0428 -0.6037
  967MOL0     C33355  10.771   6.803   4.487  0.1243  0.2334  0.3731
  967MOL0     O33356  10.628   7.023   4.363 -0.3915  0.3043 -0.4449
  967MOL0     C33357  10.711   7.255   4.234  0.2968  0.0048  0.1233
  967MOL0     C33358  10.737   7.376   4.166  0.7220 -0.3068 -0.1206
  967MOL0     N33359  11.313   7.809   3.999 -0.5895 -0.0208  0.0605
  967MOL0     N33360  11.412   7.888   3.961 -0.7363 -0.0240  0.8769
  967MOL0     C33361  11.059   8.204   3.062  0.0400 -0.3149 -0.2497
  967MOL0     C33362  11.065   8.237   2.926  0.6626  0.4632  0.5254
  967MOL0     C33363  11.013   8.399   2.557  0.3716  0.3382 -0.6767
  967MOL0     C33364  11.126   8.422   2.473 -0.3398  0.6206 -0.1303
  967MOL0     C33365  11.120   8.408   2.331 -0.6013  0.6034 -0.8839
  967MOL0     C33366  10.995   8.394   2.272  0.0365  0.2777  0.4826
  967MOL0     O33367  10.983   8.394   2.133 -0.9159  0.0330 -0.4150
  967MOL0     C33368  10.989   8.533   2.087 -0.4900 -0.4948 -0.0592
  967MOL0     C33369  10.919   8.536   1.952  0.0562  0.0464  0.0398
  967MOL0     C33370  11.010   8.483   1.838  0.4922 -0.0695 -0.3885
  967MOL0     C33371  11.076   8.604   1.767 -0.2805  0.1684 -0.5511
  967MOL0     C33372  11.169   8.559   1.664  0.3765  0.7476 -0.0900
  967MOL0     C33373  11.253   8.530   1.581 -0.0271 -0.8091  0.5593
  967MOL0     C33374  10.879   8.387   2.346 -0.3444 -0.7206 -0.0138
  967MOL0     C33375  10.880   8.387   2.490 -0.9753 -0.2036 -0.1209
  967MOL0     C33376  10.755   8.362   2.563 -0.2925  0.0188  1.4497
  967MOL0     H33377  11.327   8.451   2.913  0.1500  1.2824  0.1382
  967MOL0     H33378  11.319   8.395   3.167 -0.9905  3.6675 -0.0698
  967MOL0     H33379  11.181   8.403   3.343  3.2924 -0.0756  0.9990
  967MOL0     H33380  11.317   8.299   3.377  0.0913  2.1580  0.3869
  967MOL0     H33381  11.184   8.337   3.580 -0.0992 -0.1396  0.5272
  967MOL0     H33382  11.034   8.296   3.497 -0.4468 -0.1851  1.9317
  967MOL0     H33383  11.095   8.116   3.644 -2.3168  0.5020 -0.6293
  967MOL0     H33384  11.103   8.067   3.468  0.3681  1.5253 -1.3619
  967MOL0     H33385  11.274   7.949   3.555  1.4010 -1.1608 -0.8375
  967MOL0     H33386  11.344   8.075   3.450 -0.0521 -0.3805  0.3639
  967MOL0     H33387  11.362   8.074   3.754  1.9273  3.2698  1.1835
  967MOL0     H33388  11.367   8.216   3.651  2.7550  1.5313  1.0461
  967MOL0     H33389  11.543   8.129   3.529 -0.8125 -1.1875 -1.2155
  967MOL0     H33390  11.576   8.152   3.705  0.6125  2.3925 -1.8444
  967MOL0     H33391  11.637   7.909   3.565 -0.4819  2.3594 -1.5147
  967MOL0     H33392  11.468   7.883   3.577  1.3781 -1.4484 -0.1208
  967MOL0     H33393  11.643   7.798   3.752  3.3551  3.0596 -2.8439
  967MOL0     H33394  11.616   7.952   3.830 -4.6386  0.6919  3.1077
  967MOL0     H33395  11.365   7.671   3.712  4.2666 -2.5021  1.4736
  967MOL0     H33396  11.222   7.519   3.959 -0.5479  0.0184 -0.1256
  967MOL0     H33397  11.139   7.583   3.810  0.7679  0.2803 -0.4521
  967MOL0     H33398  11.086   7.647   4.114  1.0043 -2.1334 -0.2342
  967MOL0     H33399  11.052   7.761   3.987  0.9551  0.1705 -1.2799
  967MOL0     H33400  10.902   7.602   3.877  1.0726 -2.0484  0.5630
  967MOL0     H33401  10.940   7.472   3.987  0.9459 -0.3070  2.1070
  967MOL0     H33402  10.814   7.744   4.064  1.6433 -0.3540 -1.9515
  967MOL0     H33403  10.729   7.596   4.029  0.5261  0.6294  0.4280
  967MOL0     H33404  10.876   7.538   4.427  0.0729 -0.8001  1.2644
  967MOL0     H33405  10.812   7.253   4.638  0.9012 -1.9498 -3.2570
  967MOL0     H33406  10.870   7.424   4.619 -0.6979 -0.1146  1.7513
  967MOL0     H33407  10.962   7.270   4.566  1.3996  0.8867  1.3262
  967MOL0     H33408  10.945   7.001   4.689 -2.3588  1.6250  1.3736
  967MOL0     H33409  10.966   6.778   4.815  3.9228 -0.4480 -2.9794
  967MOL0     H33410  11.027   6.545   4.815  1.4381 -4.7320 -1.1403
  967MOL0     H33411  10.893   6.563   4.934 -0.0525 -1.4392  0.5058
  967MOL0     H33412  10.971   6.321   4.762 -2.2492 -2.8306 -0.2188
  967MOL0     H33413  11.014   6.338   4.923  0.5927 -0.2712 -0.3142
  967MOL0     H33414  10.712   6.339   4.854  0.1260 -1.1227  0.7147
  967MOL0     H33415  10.784   6.328   5.008  0.3144 -0.0216  0.7799
  967MOL0     H33416  10.804   6.120   4.784 -1.5950 -1.3637 -0.4670
  967MOL0     H33417  10.693   6.114   4.914  0.2327 -0.8960  2.0780
  967MOL0     H33418  10.899   5.956   4.964 -0.0208 -0.5369 -0.3927
  967MOL0     H33419  10.995   6.079   4.893 -0.6512  0.0944 -0.6504
  967MOL0     H33420  10.882   6.083   5.183 -1.9280  0.9891 -1.8389
  967MOL0     H33421  10.978   6.220   5.104  1.3316  0.9928 -0.7020
  967MOL0     H33422  11.164   6.089   5.044  0.3012 -0.3593 -0.2841
  967MOL0     H33423  11.092   5.949   5.114  1.1249 -0.1594 -0.2335
  967MOL0     H33424  11.236   6.023   5.290 -0.3920  0.0726  1.9355
  967MOL0     H33425  11.080   6.061   5.335  1.5421 -0.5708  1.4452
  967MOL0     H33426  10.728   6.590   4.508 -4.1411  0.3020  1.9064
  967MOL0     H33427  10.737   6.791   4.384 -2.6300 -3.1587  1.4866
  967MOL0     H33428  10.659   7.185   4.169  1.9914  0.1919 -1.5266
  967MOL0     H33429  10.707   7.388   4.063 -0.7613 -1.6435  0.1239
  967MOL0     H33430  10.996   8.127   3.105 -0.5006 -0.5686 -1.4565
  967MOL0     H33431  10.984   8.206   2.860  2.4213 -1.7095 -0.7608
  967MOL0     H33432  11.217   8.429   2.531 -1.2770 -1.8890  1.8754
  967MOL0     H33433  11.214   8.420   2.278  0.2283  0.0764  0.4380
  967MOL0     H33434  10.945   8.610   2.152 -1.5790 -0.1088 -1.2017
  967MOL0     H33435  11.094   8.561   2.072 -0.9219  2.4119  1.5344
  967MOL0     H33436  10.889   8.636   1.920  1.6377  0.0399 -1.6127
  967MOL0     H33437  10.827   8.478   1.961 -1.3787  1.8283 -1.9928
  967MOL0     H33438  11.082   8.404   1.864  2.2347  1.3369 -0.6967
  967MOL0     H33439  10.946   8.434   1.764 -0.2518 -0.5326  0.5404
  967MOL0     H33440  11.120   8.667   1.845 -2.3163 -0.2443  1.0190
  967MOL0     H33441  11.010   8.678   1.722  0.7712  1.5727  0.1343
  967MOL0     H33442  11.322   8.506   1.502 -0.5804  2.0868 -0.9382
  967MOL0     H33443  10.781   8.377   2.302 -0.5200  0.8029 -0.0476
  967MOL0     H33444  10.759   8.285   2.641 -0.6908  0.2375  1.6935
  967MOL0     H33445  10.741   8.460   2.610  3.7243  0.4150  2.2205
  967MOL0     H33446  10.666   8.351   2.501 -0.7943 -1.0268  2.3177
  968MOL0     O33447  10.203   8.655   7.520 -0.4756 -0.0601  0.7229
  968MOL0     C33448  10.283   8.683   7.611 -0.2958  0.8506 -0.4745
  968MOL0     O33449  10.284   8.794   7.687  0.5831 -0.0561 -1.0232
  968MOL0     C33450  10.212   8.906   7.657  0.0774 -0.9019  0.2356
  968MOL0     C33451  10.211   8.987   7.773 -0.5891  0.0523  0.6140
  968MOL0     C33452  10.176   9.122   7.761 -0.9530  0.3450  0.7440
  968MOL0     C33453  10.113   9.180   7.649  0.8415 -0.2073 -0.2656
  968MOL0     O33454  10.060   9.312   7.662 -0.0856  0.3861 -0.7988
  968MOL0     C33455   9.997   9.369   7.540  0.8943 -0.1377 -0.2251
  968MOL0     C33456   9.904   9.487   7.580  0.7110 -1.1073  0.5200
  968MOL0     C33457   9.979   9.612   7.630 -0.0919  1.4560 -0.6435
  968MOL0     C33458  10.071   9.665   7.531 -0.2929  0.1395  0.4150
  968MOL0     C33459  10.111   9.814   7.539 -0.6236 -0.2443 -0.1032
  968MOL0     C33460  10.003   9.905   7.485  0.1143  0.0655 -0.6927
  968MOL0     C33461  10.058  10.046   7.466 -0.3412 -0.4828  0.4321
  968MOL0     C33462  10.049  10.134   7.589 -0.2536 -0.4622  0.2155
  968MOL0     N33463  10.114  10.269   7.573 -0.2357  0.2051 -0.0454
  968MOL0     C33464  10.196  10.298   7.461  1.1035 -0.5216 -0.7540
  968MOL0     C33465  10.209  10.438   7.469 -0.8093  0.5695  1.2136
  968MOL0     C33466  10.300  10.505   7.357  1.2790  0.1143  0.3938
  968MOL0     C33467  10.335  10.654   7.387 -0.4400 -0.5367  0.2861
  968MOL0     C33468  10.359  10.754   7.263  0.0625 -0.3626 -0.3683
  968MOL0     C33469  10.468  10.716   7.156  0.5419  0.2152  0.5991
  968MOL0     O33470  10.453  10.579   7.121 -0.3001 -0.1262  0.4458
  968MOL0     C33471  10.553  10.535   7.044 -0.2316 -0.5176 -0.2953
  968MOL0     C33472  10.554  10.555   6.908  0.6585 -0.3692 -0.1373
  968MOL0     C33473  10.652  10.502   6.826  0.1651  0.1103 -0.7702
  968MOL0     C33474  10.633  10.528   6.677 -0.0583 -0.4055 -0.3072
  968MOL0     C33475  10.759  10.430   6.898 -0.0041  0.0668  0.7737
  968MOL0     C33476  10.873  10.368   6.817  0.3944 -0.1892 -0.1695
  968MOL0     O33477  10.886  10.400   6.692  0.3209  0.3983 -0.3490
  968MOL0     C33478  11.001  10.393   6.625 -0.3365  0.2280  1.2941
  968MOL0     C33479  11.128  10.357   6.677 -0.6969  0.0603  0.8554
  968MOL0     C33480  11.241  10.358   6.594 -0.2166 -0.1658  0.4549
  968MOL0     C33481  11.228  10.386   6.457 -0.1986  0.3260 -1.0238
  968MOL0     O33482  11.319  10.356   6.363  0.2087  0.0579  0.1730
  968MOL0     C33483  11.401  10.244   6.393 -0.0123 -0.3709  0.7361
  968MOL0     C33484  11.447  10.177   6.262 -0.3035 -0.0584  0.0840
  968MOL0     C33485  11.499  10.286   6.176 -0.6068  0.3871  0.2911
  968MOL0     C33486  11.625  10.354   6.225 -0.7095 -0.1726 -0.7766
  968MOL0     C33487  11.719  10.395   6.110 -0.0055 -0.0958  0.1528
  968MOL0     C33488  11.808  10.286   6.049  0.2125 -0.0733  0.4692
  968MOL0     C33489  11.901  10.331   5.941  0.5544  0.0159 -0.7425
  968MOL0     C33490  12.013  10.221   5.920 -0.1604  0.1930  0.3055
  968MOL0    Cl33491  12.126  10.244   6.059 -0.4351 -0.1909 -0.4569
  968MOL0     C33492  11.103  10.434   6.411 -0.8165 -0.1464 -0.1828
  968MOL0     C33493  10.987  10.426   6.489  0.1874 -0.3773 -0.0688
  968MOL0     O33494  10.916  10.268   6.869 -0.2907 -0.8419  0.4877
  968MOL0     C33495  10.763  10.417   7.036 -0.4718  0.3482  0.3425
  968MOL0     C33496  10.648  10.455   7.111  0.2544  0.1184 -0.0027
  968MOL0     N33497  10.143  10.485   7.579  0.3278  0.0472  0.5183
  968MOL0     N33498  10.078  10.387   7.640  0.1752  0.1395  1.4214
  968MOL0     C33499  10.134   9.104   7.534  0.5521  0.0904  0.1587
  968MOL0     C33500  10.178   8.969   7.535 -0.4589  0.3651  0.7778
  968MOL0     C33501  10.395   8.588   7.644 -0.0145 -0.0104 -0.0532
  968MOL0     C33502  10.370   8.450   7.606 -0.9037 -0.5660 -0.1217
  968MOL0     C33503  10.452   8.350   7.647  0.6455  0.0888  1.0871
  968MOL0     C33504  10.566   8.375   7.713 -0.0458 -0.0560 -0.3123
  968MOL0     O33505  10.656   8.274   7.717 -1.0526  0.0779  0.4876
  968MOL0     C33506  10.650   8.207   7.848 -0.2404 -0.2820 -0.3440
  968MOL0     C33507  10.788   8.193   7.911  0.6678 -0.1905 -1.2213
  968MOL0     C33508  10.894   8.147   7.811 -0.0490 -0.0373  0.9734
  968MOL0     C33509  10.871   7.995   7.759 -0.1261 -0.0587 -0.2093
  968MOL0     C33510  10.864   7.900   7.870 -0.6783  0.9596  0.9513
  968MOL0     C33511  10.851   7.827   7.963  0.3610  0.0437 -0.2640
  968MOL0     C33512  10.594   8.503   7.753 -0.1147 -0.6945 -0.1112
  968MOL0     C33513  10.514   8.612   7.721  0.1721  0.5685  0.3336
  968MOL0     C33514  10.577   8.742   7.762  1.1331  0.0813  0.0687
  968MOL0     H33515  10.235   8.945   7.870 -1.3837  2.0773  1.7574
  968MOL0     H33516  10.193   9.181   7.850 -1.6434  2.9133 -0.7022
  968MOL0     H33517   9.928   9.298   7.495 -3.9571  1.4076  3.8472
  968MOL0     H33518  10.072   9.410   7.472  1.6556  3.0501  2.2585
  968MOL0     H33519   9.841   9.510   7.493  1.5354  0.3570  0.2697
  968MOL0     H33520   9.836   9.444   7.655 -1.8843  0.8073 -0.5722
  968MOL0     H33521   9.894   9.676   7.655 -1.2536  0.2678 -1.4629
  968MOL0     H33522  10.029   9.589   7.725  2.1684  0.8082 -1.9179
  968MOL0     H33523  10.160   9.604   7.545 -0.7667 -0.5525  0.4784
  968MOL0     H33524  10.031   9.652   7.429  1.4078  1.3883 -0.4623
  968MOL0     H33525  10.201   9.826   7.479 -1.3251  0.6461 -1.0255
  968MOL0     H33526  10.137   9.850   7.639 -1.8367 -0.2399  0.2295
  968MOL0     H33527   9.968   9.868   7.388 -2.4292 -0.0882  0.2190
  968MOL0     H33528   9.919   9.916   7.554 -0.7925  2.0540 -2.0365
  968MOL0     H33529  10.023  10.101   7.378  1.6303 -1.3198 -0.9450
  968MOL0     H33530  10.166  10.035   7.455 -0.0436  2.0772  0.0680
  968MOL0     H33531   9.948  10.154   7.626  0.9612 -0.1933  3.8228
  968MOL0     H33532  10.091  10.080   7.675 -3.3682 -2.0870  0.8846
  968MOL0     H33533  10.232  10.225   7.389  0.3157 -0.2437 -1.4550
  968MOL0     H33534  10.249  10.500   7.260  2.3744  3.0153 -0.4426
  968MOL0     H33535  10.392  10.445   7.362 -0.8800 -3.5413  0.0023
  968MOL0     H33536  10.242  10.690   7.433  0.3809  1.0644  0.7650
  968MOL0     H33537  10.418  10.663   7.457  3.8405 -1.7725 -4.0935
  968MOL0     H33538  10.267  10.765   7.205  0.4831 -2.4834 -1.5508
  968MOL0     H33539  10.391  10.847   7.311 -0.3225 -0.8492  0.8715
  968MOL0     H33540  10.460  10.771   7.062 -1.8837 -1.3626 -0.2287
  968MOL0     H33541  10.570  10.728   7.195  1.3626 -0.7798 -1.0842
  968MOL0     H33542  10.479  10.618   6.861 -0.1533 -0.9343  0.3794
  968MOL0     H33543  10.720  10.565   6.621  0.1222  2.7011  1.7560
  968MOL0     H33544  10.559  10.606   6.659 -1.1553 -1.5317 -0.7993
  968MOL0     H33545  10.592  10.435   6.637 -3.7175  1.7073 -1.9178
  968MOL0     H33546  11.139  10.327   6.781  1.2370 -1.4587  0.2759
  968MOL0     H33547  11.341  10.338   6.629 -0.7895 -0.1647  2.1761
  968MOL0     H33548  11.487  10.281   6.450 -3.1496  3.8627  3.3076
  968MOL0     H33549  11.355  10.172   6.461 -0.7030 -1.2272 -0.6059
  968MOL0     H33550  11.528  10.108   6.288 -1.8995 -0.8914  3.2916
  968MOL0     H33551  11.370  10.130   6.201 -2.1978  3.0426 -0.1730
  968MOL0     H33552  11.415  10.354   6.161 -0.5659  0.4332  0.2764
  968MOL0     H33553  11.529  10.231   6.087 -0.6496 -1.7021  1.4940
  968MOL0     H33554  11.674  10.284   6.293 -0.7196  0.6622  0.1096
  968MOL0     H33555  11.585  10.436   6.286 -3.0264 -1.6344 -0.1884
  968MOL0     H33556  11.658  10.433   6.028 -2.8703  1.7350  2.9028
  968MOL0     H33557  11.787  10.474   6.140  1.9133 -1.9311  0.8961
  968MOL0     H33558  11.750  10.201   6.013 -1.6571  0.9830  0.8972
  968MOL0     H33559  11.877  10.255   6.128  3.2998  2.9724 -0.7571
  968MOL0     H33560  11.943  10.429   5.963  1.2468 -0.7190  1.4597
  968MOL0     H33561  11.848  10.345   5.846 -2.4024  0.0639  0.7787
  968MOL0     H33562  12.067  10.235   5.826 -0.8727 -1.0354 -0.3225
  968MOL0     H33563  11.949  10.132   5.927 -4.1666  2.8069  0.4350
  968MOL0     H33564  11.103  10.475   6.311 -0.6773  5.5097  1.7860
  968MOL0     H33565  10.884  10.440   6.458 -0.1180 -3.1398 -0.5960
  968MOL0     H33566  10.838  10.363   7.092  1.9864  0.2348 -2.8304
  968MOL0     H33567  10.632  10.427   7.215 -3.2468  0.1711 -0.4301
  968MOL0     H33568  10.115   9.141   7.434  1.0946  0.2538  0.1115
  968MOL0     H33569  10.199   8.906   7.448  0.7485  1.1463  0.4726
  968MOL0     H33570  10.276   8.437   7.553  0.0680  3.1698 -3.2474
  968MOL0     H33571  10.418   8.251   7.619 -2.8778  1.4537  0.0490
  968MOL0     H33572  10.597   8.265   7.924 -0.8558  1.3771 -1.9579
  968MOL0     H33573  10.595   8.113   7.836  0.1632 -0.6823  0.8049
  968MOL0     H33574  10.790   8.133   8.002 -1.1898  0.8749 -0.3995
  968MOL0     H33575  10.816   8.288   7.958 -1.1250 -1.9768  4.1628
  968MOL0     H33576  10.893   8.216   7.726  2.2099  1.8444  2.3573
  968MOL0     H33577  10.997   8.157   7.847  1.6855 -1.1081 -3.1872
  968MOL0     H33578  10.955   7.958   7.699  1.9363  0.8986  1.9331
  968MOL0     H33579  10.778   7.983   7.703  1.2958  0.1217 -2.7437
  968MOL0     H33580  10.856   7.747   8.035  1.1721 -0.3320 -0.7241
  968MOL0     H33581  10.689   8.525   7.802  1.6168 -1.4088 -2.9123
  968MOL0     H33582  10.509   8.827   7.751 -0.4197 -0.7596  2.4271
  968MOL0     H33583  10.616   8.726   7.863 -1.4990 -5.4803  0.5694
  968MOL0     H33584  10.668   8.759   7.703  2.2592 -1.4513  1.2743
  969MOL0     O33585   2.711   1.290   4.593 -0.7616 -0.0237 -0.4489
  969MOL0     C33586   2.608   1.229   4.618  0.2663 -0.8053  0.0606
  969MOL0     O33587   2.577   1.161   4.731  0.9091 -0.0675 -0.3016
  969MOL0     C33588   2.651   1.188   4.837 -0.3540 -0.3399 -0.5914
  969MOL0     C33589   2.788   1.147   4.848  0.2343 -0.1865  0.2625
  969MOL0     C33590   2.859   1.184   4.954  0.1578 -0.0576  0.1264
  969MOL0     C33591   2.807   1.275   5.049 -0.2296  0.1468 -0.3898
  969MOL0     O33592   2.871   1.320   5.166 -0.6733 -0.8812  0.7298
  969MOL0     C33593   3.000   1.274   5.193 -0.3998  0.3197 -0.0233
  969MOL0     C33594   3.050   1.365   5.312  0.9302  0.8113  0.3539
  969MOL0     C33595   3.180   1.326   5.374 -0.4416 -0.2209  0.0503
  969MOL0     C33596   3.298   1.349   5.272  0.0240  0.5951 -0.3118
  969MOL0     C33597   3.433   1.356   5.353  0.2976 -0.1931  0.1331
  969MOL0     C33598   3.486   1.217   5.387  0.4737  0.1452  0.2785
  969MOL0     C33599   3.633   1.215   5.421  1.0490  0.1803  0.2300
  969MOL0     C33600   3.660   1.136   5.555  0.0573 -0.1491  0.4842
  969MOL0     N33601   3.628   0.998   5.544 -0.0342  0.8694  0.0612
  969MOL0     C33602   3.703   0.892   5.480 -0.5055 -0.6182  1.0037
  969MOL0     C33603   3.627   0.774   5.488 -0.4930 -0.2702  1.0489
  969MOL0     C33604   3.656   0.642   5.423  0.1249  0.5218 -0.2747
  969MOL0     C33605   3.639   0.662   5.274 -0.1257  0.2937 -0.0442
  969MOL0     C33606   3.717   0.570   5.185 -0.4902  0.7449 -0.7692
  969MOL0     C33607   3.656   0.558   5.049 -0.5401 -0.4660  0.6196
  969MOL0     O33608   3.529   0.493   5.059  0.0050 -0.3275  0.4090
  969MOL0     C33609   3.491   0.427   4.944 -1.0242  0.5766  0.0341
  969MOL0     C33610   3.529   0.467   4.813  0.4072  0.2785 -0.3254
  969MOL0     C33611   3.482   0.403   4.698 -0.0613  0.5387 -0.5683
  969MOL0     C33612   3.527   0.462   4.567  0.2901  0.4148  0.9465
  969MOL0     C33613   3.377   0.308   4.716 -0.1200  0.5561 -0.2074
  969MOL0     C33614   3.328   0.221   4.611  0.3515  1.3185 -0.4969
  969MOL0     O33615   3.216   0.147   4.631  0.8332  0.0743  0.2562
  969MOL0     C33616   3.195   0.037   4.553  0.2715  2.0550  0.0175
  969MOL0     C33617   3.176  -0.088   4.617  0.7317 -0.6673  0.2947
  969MOL0     C33618   3.157  -0.207   4.542 -0.7581  0.7497  0.3504
  969MOL0     C33619   3.140  -0.208   4.403  0.0101 -1.0374 -0.3686
  969MOL0     O33620   3.113  -0.320   4.320 -1.4180 -0.0380  0.2605
  969MOL0     C33621   3.158  -0.456   4.366  1.1959  0.1884 -0.4200
  969MOL0     C33622   3.182  -0.549   4.245  0.2018 -0.2487  0.8354
  969MOL0     C33623   3.047  -0.549   4.173 -0.1142  0.1180  0.6508
  969MOL0     C33624   3.040  -0.641   4.049 -0.4906  0.9431 -0.3508
  969MOL0     C33625   2.939  -0.580   3.948  0.4450 -0.3607  1.1144
  969MOL0     C33626   2.880  -0.695   3.859 -0.3995  0.9479  0.7252
  969MOL0     C33627   2.988  -0.753   3.760 -0.0077  0.4595 -0.0198
  969MOL0     C33628   2.934  -0.859   3.666  0.4556 -0.2988 -0.2531
  969MOL0    Cl33629   2.919  -1.014   3.761  0.1097 -0.5594  0.1287
  969MOL0     C33630   3.142  -0.083   4.345 -0.4498  0.2606  0.1943
  969MOL0     C33631   3.179   0.035   4.410 -0.2795 -0.3832  0.0916
  969MOL0     O33632   3.410   0.205   4.519 -0.9183  0.0357  0.0481
  969MOL0     C33633   3.323   0.280   4.848 -0.3525 -1.3195  0.4035
  969MOL0     C33634   3.385   0.350   4.954 -0.5065  0.6322 -0.4423
  969MOL0     N33635   3.521   0.805   5.577  0.2432  0.0072 -0.3450
  969MOL0     N33636   3.518   0.933   5.604  0.7653  0.3438  0.3893
  969MOL0     C33637   2.682   1.327   5.033 -0.3357  0.9518 -0.1993
  969MOL0     C33638   2.603   1.274   4.929 -0.1661 -0.2281 -0.8120
  969MOL0     C33639   2.513   1.217   4.503 -0.1481 -1.6435 -1.0007
  969MOL0     C33640   2.511   1.320   4.406 -0.0919  0.4189 -0.1322
  969MOL0     C33641   2.424   1.316   4.292 -0.9852  0.2304 -0.5099
  969MOL0     C33642   2.332   1.210   4.276 -0.7526  0.1097 -0.3919
  969MOL0     O33643   2.246   1.229   4.173 -1.0851 -0.4158 -0.3993
  969MOL0     C33644   2.124   1.157   4.187  0.7923  0.2050 -0.0483
  969MOL0     C33645   2.033   1.196   4.070  0.4925 -1.1519 -0.2016
  969MOL0     C33646   2.108   1.237   3.934  0.5661  0.1086  0.5251
  969MOL0     C33647   2.192   1.126   3.863 -0.5332  0.9884  0.3695
  969MOL0     C33648   2.100   1.013   3.853 -0.3169 -0.2745  0.8355
  969MOL0     C33649   2.031   0.919   3.848  0.6851 -0.1340  0.2166
  969MOL0     C33650   2.327   1.108   4.372 -0.9727 -1.1221 -0.2388
  969MOL0     C33651   2.422   1.106   4.479 -0.0317  1.1249 -0.8331
  969MOL0     C33652   2.410   0.991   4.574  0.7191 -0.7001  0.1249
  969MOL0     H33653   2.838   1.080   4.780 -1.6655  0.3688 -1.8069
  969MOL0     H33654   2.954   1.133   4.962  0.3627 -0.0810 -1.9044
  969MOL0     H33655   3.062   1.287   5.104 -2.9729 -0.2147 -2.0155
  969MOL0     H33656   3.008   1.165   5.195  0.0935  0.3621  1.3772
  969MOL0     H33657   3.054   1.466   5.271  1.8321  0.5539 -0.2158
  969MOL0     H33658   2.985   1.362   5.400  2.0328 -2.3057  1.1963
  969MOL0     H33659   3.216   1.379   5.463 -0.0046 -3.0836  1.7166
  969MOL0     H33660   3.175   1.219   5.393  1.3809  0.0572  2.5478
  969MOL0     H33661   3.299   1.263   5.204 -1.3329 -0.7081  1.2179
  969MOL0     H33662   3.298   1.434   5.204  0.5460  0.1774 -0.8465
  969MOL0     H33663   3.433   1.434   5.430 -0.0191 -0.9944  0.9573
  969MOL0     H33664   3.504   1.402   5.283  2.1397  2.3185  3.3319
  969MOL0     H33665   3.432   1.182   5.475  0.8384  1.8826  1.2284
  969MOL0     H33666   3.469   1.138   5.313  1.4660 -2.1599  2.3749
  969MOL0     H33667   3.667   1.319   5.432 -1.4031  0.9741  0.8924
  969MOL0     H33668   3.688   1.167   5.339 -2.2284  0.5561 -2.4206
  969MOL0     H33669   3.767   1.143   5.577 -0.3032  3.0717  1.6121
  969MOL0     H33670   3.616   1.182   5.644 -1.4958  1.4085 -1.0248
  969MOL0     H33671   3.781   0.916   5.408 -0.0345  0.0374  1.7173
  969MOL0     H33672   3.595   0.555   5.451  1.1908 -0.2763 -0.3677
  969MOL0     H33673   3.762   0.620   5.437  0.4103  1.5993 -0.6263
  969MOL0     H33674   3.532   0.651   5.257  0.1342 -1.2214 -0.7933
  969MOL0     H33675   3.668   0.761   5.237 -0.0590  1.0250  1.8320
  969MOL0     H33676   3.820   0.607   5.176  1.2517 -2.9993  1.1967
  969MOL0     H33677   3.710   0.470   5.229 -0.8811  1.1498  0.1206
  969MOL0     H33678   3.652   0.660   5.011 -0.9174  0.0296  1.9297
  969MOL0     H33679   3.717   0.493   4.986  0.5735  0.0529  1.1322
  969MOL0     H33680   3.609   0.539   4.797  0.5841 -0.1877 -1.6561
  969MOL0     H33681   3.608   0.535   4.577 -0.2653  1.6902 -2.4227
  969MOL0     H33682   3.441   0.506   4.514  0.8757 -1.0436 -1.3395
  969MOL0     H33683   3.566   0.390   4.495  0.9543  2.5746 -0.9661
  969MOL0     H33684   3.172  -0.089   4.726  0.5518 -1.6754  0.2890
  969MOL0     H33685   3.147  -0.303   4.593 -0.7967 -0.1366 -1.2575
  969MOL0     H33686   3.239  -0.444   4.438 -0.4442 -0.3482  1.5925
  969MOL0     H33687   3.066  -0.493   4.411  1.7268 -0.0675  0.4731
  969MOL0     H33688   3.269  -0.516   4.187 -0.1622 -2.0684 -0.8587
  969MOL0     H33689   3.205  -0.651   4.277  1.3623 -0.5906 -0.9291
  969MOL0     H33690   3.024  -0.448   4.137 -1.5150 -0.8248 -1.2784
  969MOL0     H33691   2.967  -0.587   4.236  1.4624 -2.7170  1.0846
  969MOL0     H33692   3.006  -0.741   4.080 -1.0993  1.1114 -0.4672
  969MOL0     H33693   3.138  -0.659   4.004 -1.4460 -0.4681 -2.0025
  969MOL0     H33694   2.856  -0.552   4.013  3.7222 -0.6930  5.9546
  969MOL0     H33695   2.995  -0.499   3.900  0.1929  0.5909  2.4075
  969MOL0     H33696   2.787  -0.657   3.814  0.2238 -1.7832 -3.4361
  969MOL0     H33697   2.845  -0.775   3.924  1.1549 -1.7124 -1.5187
  969MOL0     H33698   3.067  -0.791   3.826 -0.7302  1.2471  1.3461
  969MOL0     H33699   3.032  -0.668   3.706 -2.7055  1.3598 -0.9701
  969MOL0     H33700   2.995  -0.870   3.576  0.4320 -0.6145 -0.2303
  969MOL0     H33701   2.830  -0.837   3.638 -0.5656 -0.8948  2.7194
  969MOL0     H33702   3.114  -0.075   4.241 -1.5082 -3.2222  0.0948
  969MOL0     H33703   3.185   0.129   4.357 -5.6089 -0.9983 -2.2986
  969MOL0     H33704   3.233   0.224   4.872 -0.9446 -0.7713 -0.4982
  969MOL0     H33705   3.336   0.345   5.050  0.8680 -3.0903  0.2264
  969MOL0     H33706   2.653   1.408   5.099  0.5468  1.5635 -0.5547
  969MOL0     H33707   2.510   1.322   4.901  1.9053  3.1869 -2.5643
  969MOL0     H33708   2.586   1.397   4.418  1.0801 -0.8363  0.9985
  969MOL0     H33709   2.429   1.381   4.205 -2.2265  0.1956 -0.6305
  969MOL0     H33710   2.141   1.050   4.178 -0.2788  0.0504 -0.4180
  969MOL0     H33711   2.077   1.177   4.284 -2.0103  2.2820 -1.6691
  969MOL0     H33712   1.976   1.287   4.089  1.3762 -0.5079 -0.5718
  969MOL0     H33713   1.961   1.116   4.050  2.3497 -2.3543 -2.5624
  969MOL0     H33714   2.037   1.274   3.859  2.0195  0.9046 -0.5223
  969MOL0     H33715   2.181   1.318   3.946  0.3368  0.3184  0.4990
  969MOL0     H33716   2.288   1.093   3.904  0.2901 -1.8555 -3.3143
  969MOL0     H33717   2.211   1.158   3.760 -1.4203 -0.7735 -0.3822
  969MOL0     H33718   1.947   0.854   3.839  0.9614 -0.4988  0.2548
  969MOL0     H33719   2.258   1.028   4.347  0.3270 -2.5092  0.4381
  969MOL0     H33720   2.346   0.996   4.662 -1.2358 -4.1696 -0.9099
  969MOL0     H33721   2.351   0.909   4.533 -0.3177 -0.9846  2.0597
  969MOL0     H33722   2.505   0.944   4.603  0.8404 -0.4913  0.0709
  970MOL0     O33723   3.119   3.794   1.508  1.1576  0.6435  0.1983
  970MOL0     C33724   3.019   3.787   1.443 -0.1400  1.0105  0.4757
  970MOL0     O33725   2.989   3.702   1.341 -0.3902 -0.2667  0.1628
  970MOL0     C33726   3.094   3.617   1.321  0.4978  0.9601 -0.0183
  970MOL0     C33727   3.111   3.490   1.375 -0.9998  0.4052 -0.3253
  970MOL0     C33728   3.203   3.402   1.318 -0.7104  0.5145 -0.0117
  970MOL0     C33729   3.306   3.447   1.233  0.5359  0.5836 -0.6508
  970MOL0     O33730   3.403   3.369   1.193 -0.3981  0.9716  0.1566
  970MOL0     C33731   3.468   3.286   1.290  0.1707  0.4329  0.5621
  970MOL0     C33732   3.590   3.371   1.339 -0.1247 -0.1759  1.1228
  970MOL0     C33733   3.548   3.494   1.410  0.3698  0.5194 -0.1245
  970MOL0     C33734   3.661   3.532   1.501 -0.2036  0.0282 -0.5169
  970MOL0     C33735   3.626   3.650   1.580 -0.0107 -0.6172 -0.0133
  970MOL0     C33736   3.514   3.642   1.676  0.3870 -0.6855 -0.4129
  970MOL0     C33737   3.477   3.782   1.736 -0.4802  0.4793  0.0790
  970MOL0     C33738   3.354   3.785   1.827 -0.5770  0.4204  0.1735
  970MOL0     N33739   3.371   3.918   1.889  0.0358  0.0815 -0.3567
  970MOL0     C33740   3.437   3.946   2.010  0.4165  0.5572  0.0800
  970MOL0     C33741   3.441   4.077   2.017 -0.6326 -0.3789  0.1142
  970MOL0     C33742   3.514   4.160   2.122  1.0375 -0.1197  0.0993
  970MOL0     C33743   3.410   4.226   2.217 -0.0310  0.5170  0.0775
  970MOL0     C33744   3.483   4.287   2.336 -0.0007  0.0517 -0.6758
  970MOL0     C33745   3.563   4.413   2.297  0.2524  1.7115 -0.4088
  970MOL0     O33746   3.631   4.478   2.403  0.1759  0.8834  1.0922
  970MOL0     C33747   3.745   4.418   2.446 -0.2872 -0.5455 -0.7510
  970MOL0     C33748   3.825   4.317   2.380 -0.4272  0.0969 -0.7627
  970MOL0     C33749   3.940   4.275   2.448 -0.0586  0.2091 -0.1589
  970MOL0     C33750   4.021   4.187   2.358 -0.1621  0.7349  0.1438
  970MOL0     C33751   3.971   4.310   2.582 -0.6695  0.1641 -0.2226
  970MOL0     C33752   4.076   4.245   2.648 -0.0615  0.8177 -0.2262
  970MOL0     O33753   4.149   4.318   2.741  1.0032 -0.0919  0.2035
  970MOL0     C33754   4.276   4.272   2.763  0.2556 -0.1859  0.2443
  970MOL0     C33755   4.321   4.292   2.894 -0.7831 -0.3361  0.0992
  970MOL0     C33756   4.458   4.266   2.925 -0.4325 -0.3309  0.3604
  970MOL0     C33757   4.549   4.208   2.832 -0.9073 -0.6754  0.2001
  970MOL0     O33758   4.691   4.196   2.847  0.0113 -0.0917 -0.1255
  970MOL0     C33759   4.754   4.303   2.916 -1.1677 -0.5304  1.2306
  970MOL0     C33760   4.793   4.246   3.052 -0.4031 -0.2981  0.2918
  970MOL0     C33761   4.913   4.152   3.049 -0.9824 -0.0834  0.3738
  970MOL0     C33762   4.973   4.151   3.191 -0.8645  0.0701 -0.3577
  970MOL0     C33763   5.106   4.072   3.185  0.5209 -0.2488 -0.3757
  970MOL0     C33764   5.173   4.054   3.318 -0.1634  0.1911 -0.7834
  970MOL0     C33765   5.327   4.037   3.297  0.4453 -0.2228 -0.3597
  970MOL0     C33766   5.397   3.926   3.384  0.8022 -0.2363  0.2270
  970MOL0    Cl33767   5.337   3.757   3.362 -0.1194  0.0024 -0.3989
  970MOL0     C33768   4.497   4.182   2.708  0.2417 -0.1202  0.1364
  970MOL0     C33769   4.359   4.209   2.669  0.1134  0.5631 -0.5664
  970MOL0     O33770   4.085   4.124   2.625 -0.4743 -0.8109 -0.1053
  970MOL0     C33771   3.912   4.425   2.627 -0.0697  0.0133 -0.8498
  970MOL0     C33772   3.797   4.478   2.569 -0.0333 -0.0018  0.0953
  970MOL0     N33773   3.383   4.129   1.900  0.3604  0.2649 -0.2520
  970MOL0     N33774   3.346   4.034   1.819 -0.3981  0.7834  0.1263
  970MOL0     C33775   3.285   3.575   1.179 -0.3197  0.0049 -0.3990
  970MOL0     C33776   3.187   3.655   1.230  0.5690 -0.5901  0.1575
  970MOL0     C33777   2.925   3.904   1.450 -0.7191  1.6373 -0.6035
  970MOL0     C33778   2.830   3.920   1.340  0.4022  0.0645 -0.4821
  970MOL0     C33779   2.737   4.021   1.351 -0.4110 -1.0057  0.7051
  970MOL0     C33780   2.744   4.122   1.451 -0.2942 -0.7619 -0.5029
  970MOL0     O33781   2.652   4.230   1.446 -0.4430 -0.8642 -0.8878
  970MOL0     C33782   2.635   4.320   1.564 -1.0782 -0.2335  0.6081
  970MOL0     C33783   2.541   4.445   1.537 -0.2174  0.0515  0.5464
  970MOL0     C33784   2.531   4.544   1.653  0.8372 -0.2619  0.0388
  970MOL0     C33785   2.398   4.515   1.724 -0.1460 -0.7330 -0.2126
  970MOL0     C33786   2.374   4.611   1.830  1.0752 -0.4749  0.9759
  970MOL0     C33787   2.343   4.691   1.920 -0.1189  0.2681  0.7415
  970MOL0     C33788   2.830   4.094   1.552 -0.0738  0.2553  0.2395
  970MOL0     C33789   2.930   3.994   1.555  0.3690 -0.1546  0.0377
  970MOL0     C33790   3.020   3.981   1.677  0.3912  0.7399 -0.0365
  970MOL0     H33791   3.045   3.457   1.455 -0.1032  0.0657  0.2839
  970MOL0     H33792   3.212   3.309   1.373  0.9667  0.8261  0.2708
  970MOL0     H33793   3.512   3.203   1.233 -3.1849 -1.4577  0.4569
  970MOL0     H33794   3.411   3.248   1.375  1.3994 -2.5619  0.1711
  970MOL0     H33795   3.658   3.308   1.398  4.2170  2.1090 -0.9311
  970MOL0     H33796   3.657   3.384   1.254 -0.5696 -1.7358  0.4999
  970MOL0     H33797   3.538   3.575   1.338  0.9830  2.0020  1.3923
  970MOL0     H33798   3.458   3.481   1.471 -0.3568  0.3808 -1.1996
  970MOL0     H33799   3.689   3.453   1.571  1.7835  1.3478  0.2789
  970MOL0     H33800   3.760   3.546   1.458  0.8748 -2.2041  1.0243
  970MOL0     H33801   3.609   3.734   1.512  1.6706  1.0086  1.4424
  970MOL0     H33802   3.715   3.677   1.638  0.4024  1.8071 -1.6187
  970MOL0     H33803   3.425   3.589   1.642 -1.1994  1.3223  0.4358
  970MOL0     H33804   3.546   3.580   1.760  0.2094 -0.2703 -0.0400
  970MOL0     H33805   3.464   3.867   1.667  2.7114  0.8203 -0.2350
  970MOL0     H33806   3.567   3.804   1.793  0.1820 -0.8082 -0.4328
  970MOL0     H33807   3.261   3.764   1.773 -0.0311 -0.4609 -0.4642
  970MOL0     H33808   3.364   3.710   1.906  2.8887 -0.0090 -0.5177
  970MOL0     H33809   3.492   3.871   2.066  1.8518  1.6557  0.2243
  970MOL0     H33810   3.573   4.232   2.064  1.9097 -0.1106  0.9910
  970MOL0     H33811   3.579   4.098   2.184 -0.4109 -0.5120  1.2787
  970MOL0     H33812   3.356   4.304   2.161 -1.6354 -0.9328 -0.4880
  970MOL0     H33813   3.336   4.155   2.253 -0.2608  0.0314 -1.2747
  970MOL0     H33814   3.413   4.320   2.414  1.5055  0.4381  0.5576
  970MOL0     H33815   3.555   4.210   2.366  1.8937  2.0215  0.0514
  970MOL0     H33816   3.630   4.390   2.214 -0.7054 -2.4683 -0.2044
  970MOL0     H33817   3.498   4.493   2.260 -0.9346  1.2258  0.5607
  970MOL0     H33818   3.806   4.298   2.274  1.1418  0.4723 -1.1301
  970MOL0     H33819   3.978   4.088   2.343  2.4767 -0.3571 -0.8116
  970MOL0     H33820   4.125   4.181   2.390  0.5933  0.6395 -2.1574
  970MOL0     H33821   4.026   4.231   2.258  1.5051 -0.6583 -0.4309
  970MOL0     H33822   4.249   4.334   2.964  0.1760 -2.8135  2.7667
  970MOL0     H33823   4.497   4.285   3.024  0.4043 -0.6805  0.1125
  970MOL0     H33824   4.846   4.343   2.873 -1.2598 -1.9906 -0.4621
  970MOL0     H33825   4.692   4.391   2.933  1.0745  1.2158  0.7445
  970MOL0     H33826   4.813   4.336   3.110  0.5513 -0.5836  0.4291
  970MOL0     H33827   4.708   4.191   3.093  1.0451 -2.4247  0.6236
  970MOL0     H33828   4.984   4.180   2.971  1.5557  2.6620  3.3301
  970MOL0     H33829   4.879   4.049   3.041  1.2007 -0.7347 -1.4029
  970MOL0     H33830   4.906   4.102   3.264 -1.2175 -0.5664 -1.0960
  970MOL0     H33831   4.993   4.250   3.233  1.2877 -0.3300 -0.3407
  970MOL0     H33832   5.096   3.971   3.145 -1.5073 -1.4125  2.6966
  970MOL0     H33833   5.173   4.136   3.127  1.1917 -1.7380 -1.3030
  970MOL0     H33834   5.125   3.960   3.348  0.4875 -0.0991 -0.6374
  970MOL0     H33835   5.149   4.130   3.392  2.9544 -2.7888  3.7866
  970MOL0     H33836   5.370   4.135   3.318 -1.2636  0.1440  1.7957
  970MOL0     H33837   5.349   4.019   3.191  2.4923  0.2354 -0.0476
  970MOL0     H33838   5.395   3.962   3.487  2.1296 -1.0983  0.5757
  970MOL0     H33839   5.503   3.914   3.357  0.4693 -1.0775 -0.7917
  970MOL0     H33840   4.561   4.139   2.632 -1.5914 -1.1795 -0.8627
  970MOL0     H33841   4.330   4.199   2.565  1.2898  1.5886 -1.0243
  970MOL0     H33842   3.954   4.465   2.719  0.8350 -0.8354 -0.8813
  970MOL0     H33843   3.742   4.557   2.620  0.3017  0.1092  0.2924
  970MOL0     H33844   3.353   3.595   1.097 -0.3056  0.4233 -0.2880
  970MOL0     H33845   3.192   3.757   1.194 -0.9429 -0.8040 -0.6994
  970MOL0     H33846   2.833   3.865   1.246 -3.2656  1.7162 -1.7419
  970MOL0     H33847   2.672   4.050   1.269  0.5051 -1.8723 -0.3731
  970MOL0     H33848   2.597   4.265   1.651  1.6233 -1.4845  1.1162
  970MOL0     H33849   2.728   4.358   1.607 -0.5689  0.4369 -0.9997
  970MOL0     H33850   2.446   4.409   1.497  0.0887 -0.0161 -0.1450
  970MOL0     H33851   2.581   4.494   1.447 -1.1590 -1.3843 -0.7139
  970MOL0     H33852   2.612   4.527   1.724  3.1130  1.6378 -1.9465
  970MOL0     H33853   2.532   4.648   1.620 -2.0583  0.8146  2.7668
  970MOL0     H33854   2.411   4.417   1.770 -0.1078 -0.3905  0.5223
  970MOL0     H33855   2.313   4.532   1.657 -2.5398  1.8106  3.1317
  970MOL0     H33856   2.332   4.762   2.000  0.5254 -0.1221  1.1884
  970MOL0     H33857   2.824   4.161   1.637 -1.6760 -2.4423  2.4352
  970MOL0     H33858   3.006   4.071   1.737  2.6596  0.2803  1.2920
  970MOL0     H33859   2.997   3.894   1.737 -1.9325  3.0605  2.7251
  970MOL0     H33860   3.127   3.988   1.654  0.3303 -1.2770 -1.1214
  971MOL0     O33861   2.827  10.471   1.451 -0.5449 -0.6449  0.6124
  971MOL0     C33862   2.769  10.560   1.392 -0.4786 -0.1549  0.3470
  971MOL0     O33863   2.709  10.540   1.270 -0.8979  0.8118  0.5311
  971MOL0     C33864   2.746  10.431   1.201  0.1480 -0.2616  0.1477
  971MOL0     C33865   2.630  10.352   1.166  0.0103 -0.0512  0.5358
  971MOL0     C33866   2.640  10.233   1.095  0.8626  0.3006  0.1427
  971MOL0     C33867   2.773  10.185   1.064  0.1104  0.1575  0.3463
  971MOL0     O33868   2.800  10.071   0.987 -0.1431 -0.4691 -0.0590
  971MOL0     C33869   2.706  10.053   0.880 -0.6106 -0.6241  0.3591
  971MOL0     C33870   2.752   9.942   0.784 -0.0035  0.4683 -0.8714
  971MOL0     C33871   2.668   9.944   0.660  0.3294  0.0967  0.0792
  971MOL0     C33872   2.707   9.827   0.558 -0.4177 -0.3822 -0.2326
  971MOL0     C33873   2.616   9.702   0.576 -0.2596  0.4632  0.2800
  971MOL0     C33874   2.642   9.598   0.472 -1.1005 -0.1143  0.4106
  971MOL0     C33875   2.567   9.460   0.461 -0.6741 -0.2855 -0.6318
  971MOL0     C33876   2.598   9.385   0.589  0.1707 -0.0342  0.1348
  971MOL0     N33877   2.709   9.290   0.571 -0.1804  0.3834  0.0849
  971MOL0     C33878   2.682   9.158   0.536 -1.0985  0.4263 -0.2962
  971MOL0     C33879   2.807   9.111   0.521 -0.1787  0.6443  0.1720
  971MOL0     C33880   2.842   8.964   0.506 -0.8204  0.8957  0.4268
  971MOL0     C33881   2.800   8.881   0.627 -1.0828  0.4040 -0.0657
  971MOL0     C33882   2.883   8.897   0.760  0.1405 -0.6372 -0.7164
  971MOL0     C33883   3.027   8.855   0.738 -0.7171 -0.0475 -0.7235
  971MOL0     O33884   3.108   8.863   0.859 -0.5241 -0.5585  0.6342
  971MOL0     C33885   3.159   8.989   0.895 -1.0424  0.5469 -0.2986
  971MOL0     C33886   3.185   9.098   0.817  0.1612 -0.0729  0.3239
  971MOL0     C33887   3.243   9.220   0.859  0.2929 -0.3352 -1.0185
  971MOL0     C33888   3.268   9.333   0.755 -0.6776  0.1893 -0.1827
  971MOL0     C33889   3.295   9.226   0.997 -0.1193 -0.3608 -0.5781
  971MOL0     C33890   3.385   9.328   1.056 -0.4650  0.2212  0.5829
  971MOL0     O33891   3.412   9.449   0.984 -0.5779 -0.7122  0.1531
  971MOL0     C33892   3.483   9.550   1.049  0.2468  0.5251  0.0065
  971MOL0     C33893   3.420   9.639   1.143 -0.6629 -0.4059 -0.5299
  971MOL0     C33894   3.498   9.744   1.190  0.1296  0.1740 -0.2056
  971MOL0     C33895   3.634   9.766   1.144 -0.5733  0.5109 -0.4070
  971MOL0     O33896   3.714   9.879   1.152  0.8725 -1.1302 -0.8553
  971MOL0     C33897   3.655   9.992   1.226 -0.1233 -2.0326 -0.1692
  971MOL0     C33898   3.759  10.105   1.225 -0.0861 -0.5284  0.0742
  971MOL0     C33899   3.794  10.150   1.082  0.1708 -0.2658  0.1320
  971MOL0     C33900   3.887  10.276   1.081  0.1797  0.1521  1.4682
  971MOL0     C33901   3.904  10.339   0.938 -0.5951 -0.0250  0.3669
  971MOL0     C33902   3.804  10.440   0.891 -0.1695  0.1757 -0.2191
  971MOL0     C33903   3.853  10.531   0.778 -0.1190 -0.6002  0.2424
  971MOL0     C33904   3.904  10.458   0.659 -0.3641 -0.1651  1.0932
  971MOL0    Cl33905   3.931  10.585   0.537  0.3462  0.2232  0.2747
  971MOL0     C33906   3.684   9.674   1.056  0.2679  0.7494 -0.2021
  971MOL0     C33907   3.606   9.563   1.003 -0.3916 -0.1038  0.5108
  971MOL0     O33908   3.433   9.306   1.171  0.0335 -0.6107 -0.1947
  971MOL0     C33909   3.257   9.118   1.077  0.2307 -0.6854  0.1768
  971MOL0     C33910   3.183   9.009   1.031 -0.7088  1.2007  0.3155
  971MOL0     N33911   2.900   9.209   0.548 -0.3742 -0.0773 -0.7124
  971MOL0     N33912   2.841   9.321   0.578  0.4767 -0.1262  0.7358
  971MOL0     C33913   2.884  10.270   1.109  0.1082 -0.0659  0.3216
  971MOL0     C33914   2.879  10.388   1.183  0.0479 -0.2785  0.4786
  971MOL0     C33915   2.756  10.688   1.471  0.2632  0.4964  0.1820
  971MOL0     C33916   2.641  10.768   1.441 -0.3567 -0.2043 -0.0754
  971MOL0     C33917   2.605  10.878   1.520 -0.7463  0.2528 -0.1641
  971MOL0     C33918   2.694  10.919   1.615  0.9941  0.1718 -0.3524
  971MOL0     O33919   2.648  11.025   1.681  0.8081 -0.2587 -0.1081
  971MOL0     C33920   2.718  11.122   1.747  0.2088 -0.1030  0.3580
  971MOL0     C33921   2.681  11.271   1.721 -0.5476 -0.6234  0.1756
  971MOL0     C33922   2.734  11.359   1.841  0.7259  0.6621 -0.1696
  971MOL0     C33923   2.881  11.346   1.875 -0.6284  0.6663 -0.0165
  971MOL0     C33924   2.922  11.453   1.967 -0.0813 -0.1924 -1.0164
  971MOL0     C33925   2.959  11.531   2.049 -0.4524 -0.9122  0.2557
  971MOL0     C33926   2.811  10.854   1.628  0.2999 -0.3499  0.2372
  971MOL0     C33927   2.846  10.735   1.563 -0.0012  0.4052 -0.1682
  971MOL0     C33928   2.972  10.663   1.595  0.1479  0.4695 -0.3528
  971MOL0     H33929   2.537  10.394   1.203 -0.7558  0.7899 -2.1057
  971MOL0     H33930   2.554  10.180   1.056  1.9131 -0.7745 -0.7636
  971MOL0     H33931   2.702  10.144   0.819  0.1204  0.0033  1.2011
  971MOL0     H33932   2.603  10.043   0.916 -0.9299  1.1065  0.0474
  971MOL0     H33933   2.856   9.955   0.754  0.3345  0.4626  0.2521
  971MOL0     H33934   2.741   9.846   0.836 -2.3599  0.3756 -1.4011
  971MOL0     H33935   2.566   9.943   0.700 -0.0984  3.2456 -0.6812
  971MOL0     H33936   2.682  10.041   0.611 -0.3007 -0.7201 -1.8186
  971MOL0     H33937   2.683   9.855   0.455  0.1825  1.0761  0.0028
  971MOL0     H33938   2.813   9.801   0.552 -0.5999 -0.9278 -1.3852
  971MOL0     H33939   2.515   9.740   0.559  0.4105  0.9400 -3.6320
  971MOL0     H33940   2.634   9.653   0.672  0.2596  1.4139  0.6737
  971MOL0     H33941   2.623   9.641   0.373  1.2821  1.4937  0.5781
  971MOL0     H33942   2.747   9.571   0.461 -0.5159  2.7365 -2.3998
  971MOL0     H33943   2.586   9.398   0.372 -3.2985  1.3328 -2.4602
  971MOL0     H33944   2.461   9.481   0.447 -0.3330  2.5968  0.4809
  971MOL0     H33945   2.613   9.445   0.679 -2.1747  0.4364  0.2629
  971MOL0     H33946   2.518   9.314   0.613 -0.1785  1.2076  3.1562
  971MOL0     H33947   2.588   9.107   0.517 -2.7230  2.5465  1.3803
  971MOL0     H33948   2.950   8.958   0.490 -0.9025 -1.0365  0.3350
  971MOL0     H33949   2.798   8.924   0.414 -1.4170  0.6320  0.8220
  971MOL0     H33950   2.702   8.912   0.664 -0.3515  0.8379  1.5797
  971MOL0     H33951   2.786   8.776   0.600 -0.4507  0.0830  0.8191
  971MOL0     H33952   2.876   9.000   0.797 -1.3065 -1.8555  2.8350
  971MOL0     H33953   2.847   8.828   0.836 -2.9865 -0.2688 -1.7359
  971MOL0     H33954   3.026   8.749   0.711 -2.0283  0.1157 -1.4169
  971MOL0     H33955   3.092   8.912   0.672  0.2713  0.7926  0.9313
  971MOL0     H33956   3.150   9.097   0.714 -0.8615  0.7157  0.6447
  971MOL0     H33957   3.249   9.433   0.793 -4.7212  0.0437 -1.4089
  971MOL0     H33958   3.197   9.325   0.673 -0.5865  1.4083 -0.3927
  971MOL0     H33959   3.364   9.325   0.703 -0.2782 -0.3935  0.6096
  971MOL0     H33960   3.317   9.630   1.178 -1.0661  5.3632  0.7923
  971MOL0     H33961   3.449   9.812   1.259 -1.0770 -1.0630  0.1933
  971MOL0     H33962   3.560  10.027   1.185  1.3763  0.4052 -1.8850
  971MOL0     H33963   3.655   9.954   1.329  1.6034 -1.3424  0.1307
  971MOL0     H33964   3.733  10.188   1.291 -2.1129 -1.0185 -0.0258
  971MOL0     H33965   3.848  10.053   1.262  0.2493 -1.1944 -1.5748
  971MOL0     H33966   3.696  10.170   1.038 -0.0678  0.0898  0.8160
  971MOL0     H33967   3.841  10.070   1.024 -4.4042 -1.4540 -2.4442
  971MOL0     H33968   3.982  10.248   1.128  1.1797  1.7975  0.4975
  971MOL0     H33969   3.842  10.346   1.151  0.6999 -0.4303  2.4090
  971MOL0     H33970   3.989  10.407   0.951  0.5380 -1.2389 -0.3953
  971MOL0     H33971   3.921  10.262   0.862  0.2039  1.3946 -0.9409
  971MOL0     H33972   3.766  10.502   0.972  1.3983  1.5129 -0.4764
  971MOL0     H33973   3.728  10.370   0.853 -1.4843  2.0161 -1.1005
  971MOL0     H33974   3.928  10.604   0.811  0.7632 -0.7769 -1.2642
  971MOL0     H33975   3.768  10.589   0.743 -0.4107 -0.4087  1.2529
  971MOL0     H33976   3.824  10.396   0.618 -3.1832  2.2524  2.5710
  971MOL0     H33977   3.988  10.389   0.672 -1.4807 -1.8732 -0.2975
  971MOL0     H33978   3.788   9.688   1.029 -0.6677  0.7324 -4.6596
  971MOL0     H33979   3.651   9.488   0.938  0.1290 -0.3668  1.1708
  971MOL0     H33980   3.280   9.115   1.183  5.2927 -0.6456 -0.7003
  971MOL0     H33981   3.153   8.934   1.104  1.4567 -0.0762 -0.0237
  971MOL0     H33982   2.981  10.238   1.072 -1.3976 -1.6823 -2.6011
  971MOL0     H33983   2.960  10.448   1.223 -0.3418 -1.9808  4.3020
  971MOL0     H33984   2.565  10.729   1.374  0.6177 -0.7171 -0.9092
  971MOL0     H33985   2.514  10.932   1.496 -3.0992 -1.9901  2.8196
  971MOL0     H33986   2.718  11.100   1.854 -0.9775  3.6368  1.2752
  971MOL0     H33987   2.818  11.098   1.709  0.2811  1.0652 -0.2458
  971MOL0     H33988   2.572  11.282   1.722 -0.7546 -2.4180  1.1641
  971MOL0     H33989   2.730  11.300   1.627  3.5944 -2.6330  1.4584
  971MOL0     H33990   2.713  11.461   1.806 -3.5031 -1.1810 -4.1231
  971MOL0     H33991   2.675  11.352   1.932  2.8280 -0.3838  1.1987
  971MOL0     H33992   2.945  11.349   1.786  1.0496 -2.2224  0.9531
  971MOL0     H33993   2.897  11.250   1.925 -0.6907  1.5826  1.8535
  971MOL0     H33994   3.006  11.609   2.106  0.8033  0.1913 -2.1556
  971MOL0     H33995   2.874  10.879   1.713  1.4735 -0.4652 -0.5678
  971MOL0     H33996   3.038  10.739   1.639 -2.4200  1.8651  1.3210
  971MOL0     H33997   2.952  10.587   1.671 -3.1628  0.4216 -1.1449
  971MOL0     H33998   3.019  10.631   1.502 -0.9790 -0.1104 -0.7344
  972MOL0     O33999   6.312   2.786   1.651 -0.0089 -0.2454 -0.0185
  972MOL0     C34000   6.256   2.685   1.609 -0.0335 -0.1073 -0.0097
  972MOL0     O34001   6.157   2.691   1.512 -0.8425  0.0926 -0.7325
  972MOL0     C34002   6.139   2.808   1.441 -0.3729 -1.0916 -0.0806
  972MOL0     C34003   6.240   2.901   1.400 -0.1187 -0.3739  0.6412
  972MOL0     C34004   6.199   3.020   1.340  0.3898 -0.6920  0.4223
  972MOL0     C34005   6.064   3.055   1.306  0.2900 -0.1234  0.0377
  972MOL0     O34006   6.018   3.175   1.257 -0.1604 -0.1124  0.1170
  972MOL0     C34007   6.071   3.200   1.124  0.5291 -0.1957 -0.7267
  972MOL0     C34008   6.017   3.328   1.068 -0.2678  0.3905 -0.5027
  972MOL0     C34009   6.073   3.344   0.929  0.9305 -0.6166 -0.0224
  972MOL0     C34010   6.031   3.484   0.882 -0.3528  0.6135 -0.3842
  972MOL0     C34011   6.035   3.523   0.737  0.2472 -0.1078 -0.6779
  972MOL0     C34012   6.169   3.484   0.676 -0.1374  0.9481 -0.4925
  972MOL0     C34013   6.196   3.569   0.553 -0.7384 -0.3175 -0.1292
  972MOL0     C34014   6.153   3.482   0.435 -0.5971  0.7800 -0.1825
  972MOL0     N34015   6.156   3.552   0.311  0.3689 -0.4840  0.2441
  972MOL0     C34016   6.258   3.618   0.260  0.7446  0.3147  0.2865
  972MOL0     C34017   6.206   3.662   0.136 -0.7489 -0.1532 -0.5496
  972MOL0     C34018   6.279   3.758   0.047  0.3899  0.1188 -1.0373
  972MOL0     C34019   6.352   3.863   0.131 -0.0760  0.1736 -0.4848
  972MOL0     C34020   6.380   3.984   0.048 -0.4168  0.0290 -0.3028
  972MOL0     C34021   6.481   3.949  -0.067  0.0815  0.0711  0.2544
  972MOL0     O34022   6.508   4.075  -0.134 -0.3554 -0.1792  0.0389
  972MOL0     C34023   6.595   4.063  -0.243 -0.1821 -0.1883  0.1007
  972MOL0     C34024   6.654   4.182  -0.297  0.2290  0.8717  0.2358
  972MOL0     C34025   6.750   4.185  -0.398  0.8849  0.2743 -0.1295
  972MOL0     C34026   6.772   4.327  -0.449 -1.0257  0.2607  0.1782
  972MOL0     C34027   6.791   4.062  -0.449 -0.1228  0.4824  0.6881
  972MOL0     C34028   6.908   4.042  -0.548  0.8989  0.1373  0.1073
  972MOL0     O34029   6.987   4.147  -0.580 -0.6703  0.5267  0.0591
  972MOL0     C34030   7.089   4.126  -0.674 -0.0295 -0.0897 -0.4581
  972MOL0     C34031   7.044   4.136  -0.806 -0.1602  0.1249  0.2570
  972MOL0     C34032   7.144   4.111  -0.902 -0.2938 -0.1788  0.4382
  972MOL0     C34033   7.275   4.066  -0.871  0.8717 -0.3951 -0.1106
  972MOL0     O34034   7.369   4.023  -0.962 -0.0869  0.5462  0.0855
  972MOL0     C34035   7.341   3.943  -1.076 -0.1650 -0.4479  0.0952
  972MOL0     C34036   7.437   3.826  -1.108  0.1638  0.3191  1.9979
  972MOL0     C34037   7.479   3.753  -0.993  0.9394  0.0481 -0.4526
  972MOL0     C34038   7.362   3.681  -0.924 -0.1928 -0.4520 -0.3212
  972MOL0     C34039   7.393   3.538  -0.880  0.0145 -0.7063  0.5386
  972MOL0     C34040   7.487   3.528  -0.759 -0.0600  1.0527  0.7972
  972MOL0     C34041   7.437   3.594  -0.636  0.1056 -0.5942 -1.0090
  972MOL0     C34042   7.471   3.546  -0.501  0.0229 -1.2993 -0.1884
  972MOL0    Cl34043   7.388   3.391  -0.465  0.3262 -0.3625  0.0780
  972MOL0     C34044   7.304   4.056  -0.736 -0.0478  0.3239 -0.5879
  972MOL0     C34045   7.217   4.095  -0.637 -0.4826  0.3077  0.1659
  972MOL0     O34046   6.929   3.924  -0.585 -0.1230  0.3197 -0.0145
  972MOL0     C34047   6.721   3.943  -0.408  0.0123 -0.4355  0.1372
  972MOL0     C34048   6.629   3.938  -0.306  0.7729 -0.5446  0.0711
  972MOL0     N34049   6.078   3.623   0.116  0.6046 -0.0506 -0.0836
  972MOL0     N34050   6.047   3.553   0.222 -0.2841  1.0277 -0.4712
  972MOL0     C34051   5.969   2.971   1.358 -0.8082  0.1170 -0.2358
  972MOL0     C34052   6.014   2.849   1.424  0.5009 -0.2425  0.3030
  972MOL0     C34053   6.252   2.559   1.679 -0.3826 -0.3646 -1.1553
  972MOL0     C34054   6.142   2.475   1.664  0.5169 -0.2324 -0.4842
  972MOL0     C34055   6.125   2.349   1.732 -0.3177 -0.8050 -0.2569
  972MOL0     C34056   6.223   2.308   1.815  0.1542 -0.2735  0.2135
  972MOL0     O34057   6.236   2.179   1.862  0.4843  0.5473 -0.7080
  972MOL0     C34058   6.125   2.148   1.957  0.0351  0.1509  0.4207
  972MOL0     C34059   6.174   2.206   2.095 -0.2638 -0.1383 -0.3818
  972MOL0     C34060   6.301   2.128   2.139  0.4450  0.0472 -0.0472
  972MOL0     C34061   6.326   2.174   2.282 -0.0203  0.4900 -1.2332
  972MOL0     C34062   6.463   2.202   2.311 -1.1966  0.4752 -0.7091
  972MOL0     C34063   6.576   2.241   2.324 -0.3836 -0.1559  0.4707
  972MOL0     C34064   6.337   2.388   1.825  0.2835 -0.4609 -0.0141
  972MOL0     C34065   6.363   2.508   1.760 -0.6174  0.2880  0.8799
  972MOL0     C34066   6.486   2.591   1.788  0.1137 -0.3823  0.1999
  972MOL0     H34067   6.347   2.883   1.404  0.3909  2.3631  1.5805
  972MOL0     H34068   6.279   3.089   1.315 -0.3988  0.9062  2.1160
  972MOL0     H34069   6.051   3.111   1.063 -1.6421 -0.3030  0.0607
  972MOL0     H34070   6.180   3.209   1.133  0.4872 -0.7843  0.5674
  972MOL0     H34071   5.909   3.330   1.082 -0.1683  0.7740  0.2582
  972MOL0     H34072   6.060   3.409   1.128 -2.7632  0.1217  1.8111
  972MOL0     H34073   6.181   3.333   0.920  0.9311 -0.0987 -0.6868
  972MOL0     H34074   6.034   3.263   0.867  2.1635 -0.8551 -0.5079
  972MOL0     H34075   5.928   3.504   0.911 -0.4833  0.6946 -0.8839
  972MOL0     H34076   6.087   3.556   0.942 -2.7069  2.3186 -0.0977
  972MOL0     H34077   6.032   3.631   0.722  2.3154  0.2962  1.2725
  972MOL0     H34078   5.953   3.473   0.685 -0.0473 -0.4526  0.0980
  972MOL0     H34079   6.257   3.482   0.741 -2.1496 -0.1703  2.3920
  972MOL0     H34080   6.150   3.379   0.653  0.3612  1.3380 -2.9835
  972MOL0     H34081   6.305   3.579   0.550 -0.9303  2.7412  0.0269
  972MOL0     H34082   6.150   3.667   0.535  1.5018  0.6005 -1.3010
  972MOL0     H34083   6.221   3.397   0.433 -0.7355  0.4969  2.8674
  972MOL0     H34084   6.057   3.432   0.450 -0.1692 -0.2808 -0.8570
  972MOL0     H34085   6.361   3.616   0.296  0.6032  3.1613  1.0705
  972MOL0     H34086   6.207   3.817  -0.010 -0.8664  2.5245  2.7068
  972MOL0     H34087   6.349   3.696  -0.009 -1.6323 -0.9263 -2.5678
  972MOL0     H34088   6.283   3.895   0.211  2.7894  2.2918  1.3289
  972MOL0     H34089   6.439   3.815   0.176 -0.0357  1.1576  0.5236
  972MOL0     H34090   6.278   4.011   0.019 -1.5216 -2.4099  1.0524
  972MOL0     H34091   6.414   4.062   0.118 -2.3641  0.9502 -0.3000
  972MOL0     H34092   6.561   3.886  -0.029  2.3656  1.9351 -1.1823
  972MOL0     H34093   6.421   3.893  -0.140 -1.6628  2.3525 -0.1988
  972MOL0     H34094   6.625   4.274  -0.247 -0.7255  0.7590 -0.0878
  972MOL0     H34095   6.881   4.339  -0.453 -1.2627  3.4503  0.4463
  972MOL0     H34096   6.730   4.402  -0.381 -1.1119 -0.0628  0.4863
  972MOL0     H34097   6.736   4.341  -0.551 -0.9690 -0.2253  0.0903
  972MOL0     H34098   6.947   4.167  -0.843  0.4994  3.3559  0.9633
  972MOL0     H34099   7.116   4.124  -1.007 -0.3821  2.2290  0.6986
  972MOL0     H34100   7.236   3.912  -1.066 -0.0372 -1.0982 -0.4789
  972MOL0     H34101   7.338   4.009  -1.163  2.7937 -1.7166 -1.1035
  972MOL0     H34102   7.382   3.756  -1.173  0.0095 -1.8349  4.2967
  972MOL0     H34103   7.521   3.864  -1.167 -0.4268 -0.8425  0.3173
  972MOL0     H34104   7.526   3.817  -0.918 -0.7682 -0.0435  0.7495
  972MOL0     H34105   7.563   3.683  -1.002  3.2008  1.5998  4.6924
  972MOL0     H34106   7.280   3.683  -0.996  1.6575  1.5425 -2.5285
  972MOL0     H34107   7.338   3.739  -0.834  1.4758 -0.1452 -0.0379
  972MOL0     H34108   7.296   3.490  -0.863 -0.6806 -0.2635 -1.8282
  972MOL0     H34109   7.450   3.486  -0.957 -0.6309 -1.5461  0.6098
  972MOL0     H34110   7.590   3.556  -0.785  1.6776 -3.0649  2.3839
  972MOL0     H34111   7.496   3.422  -0.732  3.4806  1.4840  1.8574
  972MOL0     H34112   7.330   3.617  -0.640  0.3369  2.8606  3.8039
  972MOL0     H34113   7.480   3.695  -0.641 -2.7989  0.7255 -1.5504
  972MOL0     H34114   7.433   3.628  -0.440 -0.1802  0.6378 -2.7631
  972MOL0     H34115   7.580   3.544  -0.488  0.2160 -0.2632 -1.4726
  972MOL0     H34116   7.404   4.039  -0.698 -0.5206  1.3634  1.2259
  972MOL0     H34117   7.251   4.101  -0.534  1.3154 -1.6619 -0.2240
  972MOL0     H34118   6.747   3.843  -0.440  2.0314 -0.2505  1.0781
  972MOL0     H34119   6.579   3.844  -0.283  1.0937  0.0688  3.7539
  972MOL0     H34120   5.868   3.009   1.345  0.0429  2.8616  0.5837
  972MOL0     H34121   5.938   2.781   1.460  0.7880 -0.1687  1.0532
  972MOL0     H34122   6.058   2.512   1.605  2.7599  3.5154 -1.6750
  972MOL0     H34123   6.045   2.278   1.711  3.3187 -4.5237 -3.4694
  972MOL0     H34124   6.028   2.194   1.937 -0.7946 -2.4185 -2.2495
  972MOL0     H34125   6.109   2.040   1.953  1.6121 -0.0631 -1.1876
  972MOL0     H34126   6.091   2.194   2.165  0.4317 -1.3961  0.2579
  972MOL0     H34127   6.186   2.315   2.102 -2.8910  0.1033  3.8145
  972MOL0     H34128   6.282   2.021   2.142 -0.0345  0.1317  0.0660
  972MOL0     H34129   6.387   2.154   2.078  0.1313 -0.9458 -0.9235
  972MOL0     H34130   6.294   2.101   2.357 -3.1499  0.2038 -2.7014
  972MOL0     H34131   6.268   2.263   2.307  3.9786  1.9827  5.3289
  972MOL0     H34132   6.669   2.285   2.352  0.6677 -1.3725 -0.9391
  972MOL0     H34133   6.423   2.346   1.876 -0.5655 -1.2227  0.8421
  972MOL0     H34134   6.566   2.537   1.839  2.0182  3.2939  1.5317
  972MOL0     H34135   6.532   2.626   1.695 -0.4630  2.3208  0.8205
  972MOL0     H34136   6.458   2.682   1.843  1.9218  2.1318 -2.6889
  973MOL0     O34137   1.025   3.527   5.414  0.9497 -0.7817  0.1214
  973MOL0     C34138   0.984   3.571   5.526 -0.1627 -0.2423 -0.4868
  973MOL0     O34139   1.003   3.510   5.654 -0.7786  0.3281 -0.0877
  973MOL0     C34140   1.072   3.392   5.648 -0.0719 -0.0855 -0.2071
  973MOL0     C34141   1.011   3.268   5.628 -0.6475  0.0441 -0.3892
  973MOL0     C34142   1.099   3.154   5.650 -0.4879  0.8109  0.1642
  973MOL0     C34143   1.234   3.152   5.688  0.8756  0.2710 -0.1025
  973MOL0     O34144   1.306   3.030   5.705 -0.9679 -0.1209  0.1714
  973MOL0     C34145   1.390   3.003   5.595 -0.0996 -0.3191 -0.1480
  973MOL0     C34146   1.476   2.889   5.648  0.2904 -0.3886 -0.6080
  973MOL0     C34147   1.557   2.846   5.518 -0.2258  0.7450 -0.9413
  973MOL0     C34148   1.632   2.712   5.561 -0.0287  0.6893  0.1622
  973MOL0     C34149   1.724   2.663   5.441  0.4577 -0.1468 -0.3342
  973MOL0     C34150   1.789   2.773   5.349  0.3109 -0.0767  0.9631
  973MOL0     C34151   1.893   2.851   5.422 -1.0843 -1.0044  0.2387
  973MOL0     C34152   1.979   2.958   5.340  0.6310 -0.7247 -0.2394
  973MOL0     N34153   1.896   3.047   5.249  0.2913  0.0030  0.6577
  973MOL0     C34154   1.849   3.178   5.258 -0.9522 -0.5324 -1.1721
  973MOL0     C34155   1.796   3.215   5.142 -0.2284 -0.8872 -0.3262
  973MOL0     C34156   1.734   3.348   5.113  0.3782 -0.1165 -0.1210
  973MOL0     C34157   1.582   3.359   5.123  0.6847 -0.0131  0.0011
  973MOL0     C34158   1.541   3.502   5.104 -0.1982  0.7802  0.2682
  973MOL0     C34159   1.385   3.527   5.126 -0.6672 -0.1583  0.6499
  973MOL0     O34160   1.343   3.645   5.049 -0.1238 -0.1509  0.2334
  973MOL0     C34161   1.225   3.684   5.057  1.3384 -0.1156 -0.4007
  973MOL0     C34162   1.196   3.811   5.001 -1.3422  1.1483  0.5673
  973MOL0     C34163   1.064   3.856   4.995 -0.2510 -0.3049 -0.1242
  973MOL0     C34164   1.036   3.973   4.911 -0.7337 -0.0572  1.0301
  973MOL0     C34165   0.957   3.780   5.040  0.2798  0.3080 -0.1509
  973MOL0     C34166   0.813   3.826   5.038 -0.3184 -0.8762  0.3963
  973MOL0     O34167   0.729   3.755   4.950  0.4653  0.0977 -0.1739
  973MOL0     C34168   0.596   3.794   4.942 -0.1825  0.1478  0.4586
  973MOL0     C34169   0.509   3.840   5.035 -0.4612 -0.6679 -1.1818
  973MOL0     C34170   0.379   3.875   5.004  0.0974 -0.6100  0.6281
  973MOL0     C34171   0.333   3.867   4.880  0.0924  0.4301  0.7108
  973MOL0     O34172   0.212   3.924   4.864  0.3052 -0.0215 -0.0937
  973MOL0     C34173   0.147   3.935   4.741  0.0543  0.1158 -0.0199
  973MOL0     C34174   0.192   4.045   4.651  0.3561  0.0767  0.3311
  973MOL0     C34175   0.150   4.005   4.515  0.3490  0.0718 -0.2043
  973MOL0     C34176   0.154   4.108   4.408 -0.1284 -1.1174 -0.3298
  973MOL0     C34177   0.045   4.209   4.398 -1.0521  0.3440 -0.7147
  973MOL0     C34178  -0.097   4.158   4.352 -0.5644 -0.1020  0.1998
  973MOL0     C34179  -0.201   4.269   4.344 -0.6459  0.5251 -0.4226
  973MOL0     C34180  -0.266   4.289   4.483 -0.8697  0.2890 -0.6129
  973MOL0    Cl34181  -0.256   4.456   4.525  0.3990  0.0169  0.1105
  973MOL0     C34182   0.418   3.823   4.775 -0.3630 -1.2788 -0.3682
  973MOL0     C34183   0.548   3.783   4.807  0.7758  0.2225 -0.9471
  973MOL0     O34184   0.786   3.926   5.103 -0.5851  0.5162  0.1552
  973MOL0     C34185   0.984   3.657   5.094  0.0071 -0.4150 -0.2935
  973MOL0     C34186   1.116   3.613   5.107 -0.3479 -1.2855 -0.4578
  973MOL0     N34187   1.812   3.107   5.055  0.1863 -0.4428  0.7046
  973MOL0     N34188   1.867   3.012   5.121 -0.8326  0.7359  0.1813
  973MOL0     C34189   1.291   3.281   5.704  0.9963 -0.2212 -0.1552
  973MOL0     C34190   1.211   3.395   5.686  0.9716 -0.5533  0.2761
  973MOL0     C34191   0.923   3.702   5.543 -0.0106  1.2303  0.6561
  973MOL0     C34192   0.869   3.773   5.436 -0.3168  0.2301  0.0981
  973MOL0     C34193   0.798   3.890   5.461  0.9489  0.7809  0.5624
  973MOL0     C34194   0.780   3.938   5.588  0.4814 -0.1944 -0.2359
  973MOL0     O34195   0.692   4.031   5.625 -0.5678 -0.4008 -0.0806
  973MOL0     C34196   0.711   4.166   5.595  0.1927  0.1368 -0.3629
  973MOL0     C34197   0.639   4.194   5.460 -0.4261  1.2224 -0.0228
  973MOL0     C34198   0.493   4.162   5.474  0.0117 -0.0034  1.7817
  973MOL0     C34199   0.430   4.180   5.331 -0.2446 -0.2870  0.6902
  973MOL0     C34200   0.434   4.317   5.279 -0.5834 -0.5454  0.3976
  973MOL0     C34201   0.421   4.421   5.228 -0.1084 -0.7843  0.5487
  973MOL0     C34202   0.846   3.877   5.695 -0.0884  0.5907 -0.8698
  973MOL0     C34203   0.928   3.769   5.668  0.6002  0.6810 -0.0007
  973MOL0     C34204   1.037   3.734   5.778 -0.1688 -0.1859  1.0695
  973MOL0     H34205   0.905   3.263   5.603 -0.8625 -4.4733  0.5247
  973MOL0     H34206   1.057   3.055   5.641 -1.9439  1.2135  1.9097
  973MOL0     H34207   1.457   3.083   5.562  0.4111  1.1329  3.7953
  973MOL0     H34208   1.334   2.967   5.508  4.4014 -3.4916 -2.0897
  973MOL0     H34209   1.551   2.912   5.725  1.2031 -2.3352 -0.8500
  973MOL0     H34210   1.426   2.804   5.695 -0.4225  0.7697  0.7986
  973MOL0     H34211   1.492   2.829   5.432  0.3951  0.7149 -1.4125
  973MOL0     H34212   1.625   2.923   5.480  0.5983 -0.6914 -2.4669
  973MOL0     H34213   1.698   2.735   5.645 -0.9827  2.7894  0.4134
  973MOL0     H34214   1.574   2.627   5.599  1.8305 -1.5651 -1.7693
  973MOL0     H34215   1.657   2.617   5.368  1.4344  1.2788 -2.2589
  973MOL0     H34216   1.794   2.586   5.474  2.4469  0.4264 -2.8917
  973MOL0     H34217   1.823   2.720   5.260 -3.7843 -0.0189 -0.8880
  973MOL0     H34218   1.721   2.848   5.306  0.7049  1.2477  2.5269
  973MOL0     H34219   1.952   2.774   5.473 -0.3088 -2.2043 -2.3224
  973MOL0     H34220   1.845   2.906   5.504  0.5797  0.3653  0.3517
  973MOL0     H34221   2.029   3.025   5.410  0.7181  0.4760 -1.4182
  973MOL0     H34222   2.046   2.904   5.273 -1.9288 -0.4577 -3.2768
  973MOL0     H34223   1.855   3.240   5.346  1.6315  2.4642 -3.2189
  973MOL0     H34224   1.750   3.384   5.011 -1.9306  0.3883 -0.3484
  973MOL0     H34225   1.778   3.420   5.184  1.4473  0.4885 -1.3559
  973MOL0     H34226   1.544   3.290   5.047  0.2660  1.0870 -0.8002
  973MOL0     H34227   1.540   3.336   5.221 -1.0410  2.0921 -0.1668
  973MOL0     H34228   1.594   3.558   5.181  1.3486 -0.5751  0.2430
  973MOL0     H34229   1.572   3.527   5.002  0.2298 -2.6726 -0.5968
  973MOL0     H34230   1.343   3.441   5.074  4.1652 -1.6911 -1.2591
  973MOL0     H34231   1.356   3.527   5.232 -0.8699 -0.7231  0.5978
  973MOL0     H34232   1.275   3.879   4.971 -3.3610  2.0197 -3.4069
  973MOL0     H34233   0.949   3.960   4.846  0.2693  0.8909 -0.5792
  973MOL0     H34234   1.124   3.987   4.848  3.9488 -5.4431  5.3354
  973MOL0     H34235   1.020   4.072   4.955  1.8265  0.6225  0.5644
  973MOL0     H34236   0.542   3.855   5.138  3.1038 -2.9402 -1.7887
  973MOL0     H34237   0.303   3.907   5.075 -0.0423 -0.3562  0.3629
  973MOL0     H34238   0.156   3.840   4.688  1.2821  0.7894 -1.0645
  973MOL0     H34239   0.047   3.971   4.768  0.4134  0.8072  0.4301
  973MOL0     H34240   0.137   4.134   4.682  0.8457 -0.2762  2.4060
  973MOL0     H34241   0.296   4.072   4.671  0.4548  0.4401 -0.6332
  973MOL0     H34242   0.051   3.960   4.514 -0.0812  0.7838 -3.6856
  973MOL0     H34243   0.211   3.923   4.475 -0.0745 -1.7461  2.6169
  973MOL0     H34244   0.158   4.062   4.309 -4.6429 -0.2145 -1.1581
  973MOL0     H34245   0.247   4.163   4.423 -0.5718 -0.2651 -0.6156
  973MOL0     H34246   0.038   4.265   4.492  2.1409 -1.4548  0.7237
  973MOL0     H34247   0.074   4.280   4.320  1.9849 -0.7771 -0.7333
  973MOL0     H34248  -0.129   4.088   4.430  0.8690  1.3006  2.1558
  973MOL0     H34249  -0.092   4.105   4.257  3.2813  1.1141 -0.4622
  973MOL0     H34250  -0.283   4.233   4.280 -0.9893 -0.0721  0.3470
  973MOL0     H34251  -0.146   4.359   4.315  0.6847  0.1474  0.8484
  973MOL0     H34252  -0.212   4.233   4.560  0.9004  1.6103 -0.8075
  973MOL0     H34253  -0.369   4.255   4.495 -0.4005 -0.6126  1.2486
  973MOL0     H34254   0.396   3.829   4.669  1.2962 -1.3520 -0.7398
  973MOL0     H34255   0.633   3.759   4.744  3.5431 -0.6838  2.7831
  973MOL0     H34256   0.898   3.604   5.134 -2.2765  1.8066 -1.9516
  973MOL0     H34257   1.151   3.525   5.160  1.4919  1.4095  3.2444
  973MOL0     H34258   1.393   3.304   5.734  0.9756  0.5296 -0.6356
  973MOL0     H34259   1.251   3.495   5.703 -1.9496  1.0112 -1.1600
  973MOL0     H34260   0.902   3.746   5.336 -1.1110 -0.3588 -0.0129
  973MOL0     H34261   0.749   3.927   5.372  1.5987 -2.3420 -1.2147
  973MOL0     H34262   0.667   4.226   5.676  2.2773 -0.1027  1.0276
  973MOL0     H34263   0.819   4.183   5.596  0.7462 -2.8406  0.8871
  973MOL0     H34264   0.686   4.123   5.392  0.0999 -0.1564  1.7179
  973MOL0     H34265   0.653   4.297   5.426 -0.3218  0.4398 -2.6153
  973MOL0     H34266   0.481   4.058   5.504  2.4935 -0.1734  2.3802
  973MOL0     H34267   0.437   4.231   5.538 -1.4162  1.6271 -1.0314
  973MOL0     H34268   0.322   4.163   5.338 -0.2823  0.5346  2.7288
  973MOL0     H34269   0.473   4.108   5.261 -2.4682  0.3943 -1.5025
  973MOL0     H34270   0.395   4.513   5.181 -1.4726 -0.3968  1.9508
  973MOL0     H34271   0.830   3.906   5.799  0.0386 -2.1592 -0.0063
  973MOL0     H34272   1.132   3.712   5.729  1.0556  2.7092  1.9353
  973MOL0     H34273   1.061   3.832   5.821  1.0239  0.4203 -0.8181
  973MOL0     H34274   0.998   3.672   5.859  1.5036 -2.8338 -0.0306
  974MOL0     O34275  11.543   5.908   4.846 -0.6212 -0.5286 -0.4463
  974MOL0     C34276  11.604   5.810   4.895  0.4876 -0.4084  0.5137
  974MOL0     O34277  11.693   5.727   4.828 -0.4382 -0.3364  0.4895
  974MOL0     C34278  11.704   5.749   4.697  0.3936 -0.8181 -0.1066
  974MOL0     C34279  11.606   5.708   4.603 -0.2015 -0.4491 -0.2056
  974MOL0     C34280  11.624   5.725   4.470 -0.4729 -0.7507  0.1875
  974MOL0     C34281  11.746   5.779   4.420 -0.8501 -1.0658 -0.3372
  974MOL0     O34282  11.772   5.777   4.287 -0.6493  0.3670  0.2002
  974MOL0     C34283  11.909   5.793   4.234  1.2124  0.2564 -0.5475
  974MOL0     C34284  12.001   5.678   4.280  0.1038  0.9036  0.6002
  974MOL0     C34285  11.975   5.531   4.221 -0.2875 -0.8091 -0.4254
  974MOL0     C34286  11.972   5.527   4.061  0.7687 -0.2813 -0.2956
  974MOL0     C34287  11.903   5.402   4.015  0.0737  0.9271 -0.0024
  974MOL0     C34288  11.893   5.410   3.858 -0.0150  0.2172  0.5124
  974MOL0     C34289  11.816   5.296   3.780  0.2189 -0.2427  0.4057
  974MOL0     C34290  11.864   5.157   3.813  0.0490 -0.1923  0.1036
  974MOL0     N34291  12.014   5.134   3.819 -0.4447  0.4431 -0.3257
  974MOL0     C34292  12.079   5.059   3.923  0.6829 -1.3990  0.9598
  974MOL0     C34293  12.210   5.063   3.894 -0.3585  0.7381  1.7539
  974MOL0     C34294  12.329   5.017   3.966  0.6461 -0.2434  0.3120
  974MOL0     C34295  12.363   5.111   4.085  0.1597  1.4255  0.6440
  974MOL0     C34296  12.353   5.255   4.042 -0.3027 -0.3178 -0.1142
  974MOL0     C34297  12.461   5.296   3.945  0.1142  0.1660  0.5344
  974MOL0     O34298  12.448   5.439   3.937  0.2751 -0.1167 -0.2628
  974MOL0     C34299  12.373   5.500   3.841  0.1951 -0.0843 -0.1920
  974MOL0     C34300  12.318   5.447   3.720  0.2296 -0.1929  0.1471
  974MOL0     C34301  12.215   5.514   3.654 -0.1781  0.1086 -0.1679
  974MOL0     C34302  12.151   5.430   3.544 -1.2925 -0.0318  0.0312
  974MOL0     C34303  12.158   5.631   3.713  0.1198 -0.1421 -0.0955
  974MOL0     C34304  12.036   5.699   3.645  0.5501 -0.4176 -1.1028
  974MOL0     O34305  12.024   5.708   3.508  1.0461 -0.0847 -0.6531
  974MOL0     C34306  11.905   5.753   3.448  0.9612 -0.3873 -0.5232
  974MOL0     C34307  11.844   5.670   3.352  0.2353 -0.0233 -0.2816
  974MOL0     C34308  11.724   5.704   3.287  0.1367 -0.5179 -0.2167
  974MOL0     C34309  11.658   5.817   3.326  0.0963 -0.1002 -0.1562
  974MOL0     O34310  11.533   5.827   3.272  1.2805  0.5369 -0.1180
  974MOL0     C34311  11.440   5.901   3.354 -0.8529 -0.1104  0.3012
  974MOL0     C34312  11.301   5.911   3.291 -0.7925  0.3327 -1.0891
  974MOL0     C34313  11.222   5.784   3.315 -0.0192  0.9861  0.3937
  974MOL0     C34314  11.146   5.810   3.445  0.3086 -0.0288 -0.0516
  974MOL0     C34315  11.081   5.675   3.489  0.0357 -0.6267  0.7582
  974MOL0     C34316  10.997   5.684   3.616  0.0489  0.0467 -0.4598
  974MOL0     C34317  10.857   5.736   3.598  0.7422 -1.1921  0.1396
  974MOL0     C34318  10.790   5.775   3.729 -0.0528 -1.5078 -0.0407
  974MOL0    Cl34319  10.791   5.648   3.852  0.1585  0.7474 -0.1022
  974MOL0     C34320  11.725   5.912   3.402  0.8226 -0.0081 -0.3677
  974MOL0     C34321  11.856   5.876   3.455  0.4471  0.3686  0.4983
  974MOL0     O34322  11.946   5.726   3.722 -0.4751  0.8883 -0.1298
  974MOL0     C34323  12.218   5.688   3.824 -0.0920 -0.8007 -0.8351
  974MOL0     C34324  12.324   5.622   3.885 -0.0389  0.7843 -1.1703
  974MOL0     N34325  12.213   5.118   3.769 -0.1985  0.1927 -0.2180
  974MOL0     N34326  12.099   5.157   3.717 -0.8129 -0.2681 -0.3409
  974MOL0     C34327  11.841   5.827   4.516 -0.4655 -0.7089 -0.1465
  974MOL0     C34328  11.820   5.814   4.657 -0.1339 -0.0749 -1.0520
  974MOL0     C34329  11.589   5.806   5.039 -0.6588  0.6184 -0.3623
  974MOL0     C34330  11.616   5.688   5.096  0.6226 -0.5430 -0.1064
  974MOL0     C34331  11.613   5.668   5.238 -0.8625 -0.1052 -0.2201
  974MOL0     C34332  11.578   5.773   5.324  0.0767  0.5394  0.6368
  974MOL0     O34333  11.564   5.762   5.462  0.2601  0.7525 -0.2251
  974MOL0     C34334  11.647   5.649   5.524  0.3990 -0.5288 -0.5956
  974MOL0     C34335  11.610   5.615   5.663  0.0762 -0.6157  0.0025
  974MOL0     C34336  11.460   5.563   5.654 -0.6290  0.1501  0.6038
  974MOL0     C34337  11.383   5.562   5.778 -0.1169 -1.2643 -0.4255
  974MOL0     C34338  11.432   5.487   5.890 -0.3232 -0.3845  0.7455
  974MOL0     C34339  11.478   5.444   5.992 -0.8167 -0.4465 -0.1706
  974MOL0     C34340  11.537   5.887   5.263  0.5675  1.3410  0.4529
  974MOL0     C34341  11.549   5.915   5.125 -0.3253  0.3051  0.3037
  974MOL0     C34342  11.508   6.057   5.084  0.4927  0.3632 -0.1245
  974MOL0     H34343  11.508   5.677   4.636 -0.0521  0.5357  1.2448
  974MOL0     H34344  11.560   5.674   4.399  2.1651 -2.1464 -1.3701
  974MOL0     H34345  11.942   5.895   4.255  1.8061  1.0053 -4.3133
  974MOL0     H34346  11.920   5.804   4.125 -0.9386 -1.6936 -1.0549
  974MOL0     H34347  12.106   5.692   4.253  1.4784 -2.9054  3.1728
  974MOL0     H34348  12.011   5.676   4.389  3.1909  0.8125  0.4004
  974MOL0     H34349  12.047   5.466   4.272 -0.5083  0.0382  1.0072
  974MOL0     H34350  11.872   5.508   4.250 -0.9622 -0.0374 -2.0714
  974MOL0     H34351  11.915   5.615   4.030 -0.3701 -1.0547 -0.4414
  974MOL0     H34352  12.072   5.524   4.017 -0.0393 -2.2462 -2.1568
  974MOL0     H34353  11.803   5.396   4.059  1.4626 -0.5220  3.2600
  974MOL0     H34354  11.969   5.327   4.059 -3.3760 -0.2933  3.6884
  974MOL0     H34355  11.855   5.511   3.844  1.5982  1.0033  1.4947
  974MOL0     H34356  11.994   5.399   3.816 -0.7310 -2.2442 -0.7856
  974MOL0     H34357  11.842   5.310   3.675  0.8817  0.3345  0.6386
  974MOL0     H34358  11.709   5.308   3.799  0.8140 -0.1065  4.6771
  974MOL0     H34359  11.832   5.124   3.912  2.1367 -0.1232  0.8515
  974MOL0     H34360  11.817   5.094   3.738  1.9768 -0.0860 -1.2800
  974MOL0     H34361  12.033   5.017   4.012 -3.4020  0.9672  0.2416
  974MOL0     H34362  12.408   5.006   3.891 -2.1791  0.8749 -3.1202
  974MOL0     H34363  12.304   4.919   4.008  0.6985 -1.7729 -2.9179
  974MOL0     H34364  12.292   5.075   4.160 -4.2845 -1.5635 -4.3130
  974MOL0     H34365  12.466   5.110   4.121  0.6124 -2.6722 -0.2849
  974MOL0     H34366  12.255   5.276   3.998  0.1777  1.2101 -0.5274
  974MOL0     H34367  12.357   5.316   4.132 -1.5762 -0.3122 -0.0515
  974MOL0     H34368  12.562   5.270   3.977  1.0311  0.6879 -1.7351
  974MOL0     H34369  12.451   5.249   3.847  0.9808 -1.9223  1.4021
  974MOL0     H34370  12.358   5.352   3.687  3.3554 -0.5599  4.1337
  974MOL0     H34371  12.190   5.329   3.537  0.0664  0.4015  0.8984
  974MOL0     H34372  12.171   5.471   3.445  1.0354 -2.3925 -0.5577
  974MOL0     H34373  12.041   5.425   3.548 -1.3824  0.0200 -1.7957
  974MOL0     H34374  11.890   5.572   3.340 -1.7179 -0.8912 -0.9990
  974MOL0     H34375  11.670   5.643   3.216  1.4488 -0.8502 -0.9580
  974MOL0     H34376  11.429   5.855   3.452 -2.1361 -1.9952 -0.6553
  974MOL0     H34377  11.471   6.005   3.363 -1.2565  0.0141  0.2677
  974MOL0     H34378  11.252   6.002   3.328 -0.1933  0.7280 -1.2654
  974MOL0     H34379  11.310   5.931   3.184  0.2822  2.2330 -0.6846
  974MOL0     H34380  11.288   5.697   3.326 -0.0328  0.0395 -4.6105
  974MOL0     H34381  11.165   5.760   3.225  2.8098  0.2609 -1.2987
  974MOL0     H34382  11.095   5.907   3.442  2.1744  1.0314  0.4355
  974MOL0     H34383  11.211   5.836   3.530 -0.1699  1.5238 -0.1158
  974MOL0     H34384  11.027   5.638   3.402  0.7135  1.6089 -0.6923
  974MOL0     H34385  11.163   5.611   3.521  1.3527 -0.9272 -2.7843
  974MOL0     H34386  11.055   5.748   3.682 -1.0782  1.9894 -1.2650
  974MOL0     H34387  10.987   5.581   3.653 -0.4547  0.1463 -0.2980
  974MOL0     H34388  10.794   5.659   3.552  1.7837 -2.1888  0.3335
  974MOL0     H34389  10.869   5.827   3.539  1.1110 -0.7966  0.8146
  974MOL0     H34390  10.685   5.794   3.705  0.3154 -2.5927 -2.8490
  974MOL0     H34391  10.825   5.871   3.767 -2.2324 -1.1745  1.2988
  974MOL0     H34392  11.684   6.010   3.423  1.5782  0.0576  0.8892
  974MOL0     H34393  11.912   5.951   3.511  1.2448  1.1013 -1.2110
  974MOL0     H34394  12.182   5.782   3.863  4.6373  0.5612  0.9229
  974MOL0     H34395  12.360   5.653   3.983 -2.0604 -0.9201  0.1990
  974MOL0     H34396  11.929   5.884   4.486 -0.4183 -1.2506 -1.0905
  974MOL0     H34397  11.898   5.853   4.722 -0.2581  1.9808 -2.0776
  974MOL0     H34398  11.640   5.596   5.043 -1.4572 -0.5563 -1.1073
  974MOL0     H34399  11.638   5.571   5.280  1.2582  1.1505  1.6854
  974MOL0     H34400  11.642   5.552   5.474 -0.6459 -1.3081  0.9321
  974MOL0     H34401  11.750   5.678   5.545  0.4791 -1.8212  0.9316
  974MOL0     H34402  11.613   5.705   5.725  2.5280  0.5992 -1.6958
  974MOL0     H34403  11.679   5.545   5.712  0.9456 -0.7856 -1.3977
  974MOL0     H34404  11.415   5.630   5.580 -0.1406  2.6772  2.4595
  974MOL0     H34405  11.457   5.462   5.612 -1.4424  0.3925  0.0663
  974MOL0     H34406  11.287   5.525   5.738 -0.5317 -0.4619 -0.2003
  974MOL0     H34407  11.363   5.665   5.808 -4.3741 -1.4820 -1.7907
  974MOL0     H34408  11.510   5.409   6.088 -0.2902  1.1609  0.2794
  974MOL0     H34409  11.503   5.967   5.327 -3.2518 -1.9806  3.1299
  974MOL0     H34410  11.426   6.071   5.013  0.7311  0.8849 -0.3035
  974MOL0     H34411  11.476   6.114   5.172 -0.2212  0.1932 -0.2736
  974MOL0     H34412  11.601   6.100   5.046  1.2704  0.1254  1.4198
  975MOL0     O34413   1.628   5.732   0.528 -0.3982 -0.6508 -0.7637
  975MOL0     C34414   1.681   5.629   0.577  0.3388 -0.8989  0.0585
  975MOL0     O34415   1.629   5.499   0.577 -0.0617 -0.1465  0.4017
  975MOL0     C34416   1.556   5.471   0.467  0.9452 -0.5088 -0.0465
  975MOL0     C34417   1.458   5.379   0.488  1.0518 -0.5474 -0.5003
  975MOL0     C34418   1.367   5.338   0.391  0.8149  0.6806  0.3074
  975MOL0     C34419   1.377   5.388   0.265 -0.2133  0.3868 -0.2100
  975MOL0     O34420   1.293   5.335   0.179  0.2535 -0.1365  0.0784
  975MOL0     C34421   1.317   5.363   0.041  1.1980  0.3676  0.8143
  975MOL0     C34422   1.197   5.310  -0.040 -0.8901 -0.5810 -0.2064
  975MOL0     C34423   1.197   5.363  -0.187  0.2246  0.0823  0.7787
  975MOL0     C34424   1.273   5.267  -0.282  0.1027  0.1629 -0.3217
  975MOL0     C34425   1.269   5.302  -0.432 -1.0905 -0.6095  0.3319
  975MOL0     C34426   1.129   5.325  -0.495 -0.4009  0.0694  0.0005
  975MOL0     C34427   1.149   5.382  -0.634 -0.8536  0.4825  0.3016
  975MOL0     C34428   1.015   5.394  -0.708  0.1698  0.0501  0.3855
  975MOL0     N34429   0.966   5.528  -0.720 -0.1382  0.3350  0.9454
  975MOL0     C34430   0.916   5.604  -0.621 -0.7300 -0.6967  0.6362
  975MOL0     C34431   0.864   5.716  -0.680 -0.6739  0.3324 -0.2733
  975MOL0     C34432   0.793   5.824  -0.607 -0.9707  0.0921 -1.1156
  975MOL0     C34433   0.880   5.946  -0.578  1.0836  0.6600 -0.2112
  975MOL0     C34434   1.002   5.920  -0.491  1.3701  0.8126  0.3229
  975MOL0     C34435   1.106   6.019  -0.547  0.3863  0.2329 -0.5988
  975MOL0     O34436   1.240   5.979  -0.510 -0.5031  0.1296  0.1942
  975MOL0     C34437   1.302   5.878  -0.580 -0.5562  0.5779  1.2097
  975MOL0     C34438   1.263   5.811  -0.700  0.2883 -1.0453 -0.1022
  975MOL0     C34439   1.332   5.696  -0.754 -0.6690 -0.7517  0.5657
  975MOL0     C34440   1.283   5.644  -0.886  0.9773  0.8673  0.6970
  975MOL0     C34441   1.443   5.638  -0.686 -0.9221 -0.9821 -0.1545
  975MOL0     C34442   1.522   5.517  -0.723  0.5732  0.5525  0.3436
  975MOL0     O34443   1.489   5.455  -0.841 -0.0160 -0.2714 -0.1319
  975MOL0     C34444   1.576   5.362  -0.893  0.7110 -0.9106  0.5808
  975MOL0     C34445   1.692   5.395  -0.950 -1.0839 -0.7795 -0.0545
  975MOL0     C34446   1.774   5.287  -0.994 -0.1689  0.1786 -0.0816
  975MOL0     C34447   1.732   5.150  -0.984 -0.7083 -0.4557 -0.4754
  975MOL0     O34448   1.814   5.051  -1.026  0.0784 -0.3503 -0.5313
  975MOL0     C34449   1.873   4.966  -0.922  0.2361 -0.5062 -0.3957
  975MOL0     C34450   2.012   4.918  -0.975 -0.7072 -0.6497  0.0068
  975MOL0     C34451   2.067   4.813  -0.891 -0.2910  1.0071  0.7793
  975MOL0     C34452   2.211   4.773  -0.935  0.3129 -0.0755 -0.1982
  975MOL0     C34453   2.274   4.657  -0.850 -0.3179 -0.7728  1.0047
  975MOL0     C34454   2.197   4.523  -0.887  0.3762  0.8258  0.6010
  975MOL0     C34455   2.285   4.406  -0.837 -0.1815 -0.0167 -0.8430
  975MOL0     C34456   2.240   4.260  -0.869  0.4861 -0.1232  0.1810
  975MOL0    Cl34457   2.355   4.143  -0.808  0.2245 -0.1620  0.3986
  975MOL0     C34458   1.609   5.126  -0.932  0.5786 -0.2382 -0.2763
  975MOL0     C34459   1.529   5.231  -0.882  0.0086  1.0200 -0.5638
  975MOL0     O34460   1.610   5.477  -0.649 -0.6423 -0.4334  0.5016
  975MOL0     C34461   1.490   5.717  -0.579 -0.3709  0.3252  0.2211
  975MOL0     C34462   1.422   5.828  -0.532  0.3603 -0.5287  0.3474
  975MOL0     N34463   0.889   5.702  -0.814  0.6167 -0.4690 -0.6636
  975MOL0     N34464   0.941   5.591  -0.836 -0.0308 -0.1964  0.2707
  975MOL0     C34465   1.483   5.478   0.237  0.2523  0.2979 -1.1587
  975MOL0     C34466   1.568   5.519   0.336  0.1866 -0.1464  0.3544
  975MOL0     C34467   1.806   5.656   0.653 -1.0830  0.7798  0.5443
  975MOL0     C34468   1.893   5.543   0.683 -0.0072 -0.2630  0.7109
  975MOL0     C34469   2.015   5.555   0.746 -0.3580  1.1658 -0.1331
  975MOL0     C34470   2.071   5.681   0.768 -0.4916  0.3690 -0.4814
  975MOL0     O34471   2.193   5.705   0.814  0.0027  0.1133  0.8652
  975MOL0     C34472   2.288   5.596   0.821  0.2602 -0.2950 -0.3929
  975MOL0     C34473   2.418   5.632   0.748 -0.3082  0.0630 -0.7734
  975MOL0     C34474   2.487   5.752   0.825 -0.1431 -0.3319 -0.4376
  975MOL0     C34475   2.602   5.824   0.756  0.0584  0.3660  0.5782
  975MOL0     C34476   2.722   5.745   0.737  0.1591 -0.0506  0.5825
  975MOL0     C34477   2.813   5.659   0.728  1.3488 -0.8322 -0.1759
  975MOL0     C34478   2.002   5.793   0.728 -0.7872 -0.1658  0.1824
  975MOL0     C34479   1.865   5.780   0.687 -0.2252  0.4587  0.1857
  975MOL0     C34480   1.790   5.910   0.672 -0.2214  0.2946 -0.1555
  975MOL0     H34481   1.447   5.358   0.594 -0.1165  0.6739 -0.3543
  975MOL0     H34482   1.292   5.261   0.409  3.5373 -2.1596  0.3356
  975MOL0     H34483   1.400   5.310  -0.005 -0.9937 -1.6379 -1.0910
  975MOL0     H34484   1.318   5.470   0.016 -0.2060 -0.1263 -1.6921
  975MOL0     H34485   1.182   5.203  -0.052  1.9880 -0.8075 -2.9756
  975MOL0     H34486   1.107   5.347   0.010 -3.4562 -0.7814 -4.1393
  975MOL0     H34487   1.093   5.350  -0.217  0.9176 -2.1068 -0.9891
  975MOL0     H34488   1.233   5.466  -0.185 -0.9765  0.5056  1.3201
  975MOL0     H34489   1.378   5.254  -0.255 -0.0032  1.4907  0.8316
  975MOL0     H34490   1.228   5.167  -0.274  0.8816 -0.0998  1.2623
  975MOL0     H34491   1.317   5.222  -0.489 -0.9013 -1.8348  2.1159
  975MOL0     H34492   1.338   5.386  -0.442  0.5734 -1.8212  1.1220
  975MOL0     H34493   1.069   5.233  -0.494 -1.4203  0.7293  0.5304
  975MOL0     H34494   1.069   5.400  -0.443  1.1338  0.9299  0.5929
  975MOL0     H34495   1.214   5.318  -0.694 -0.6918  0.5229  0.4325
  975MOL0     H34496   1.203   5.477  -0.624 -2.1233  1.3721 -0.8516
  975MOL0     H34497   1.030   5.367  -0.813 -0.7232  1.0041 -0.0069
  975MOL0     H34498   0.944   5.318  -0.675  1.4728 -1.5412 -0.3227
  975MOL0     H34499   0.913   5.573  -0.517 -2.1454 -0.1842  0.7681
  975MOL0     H34500   0.773   5.779  -0.509  2.1759 -0.9326 -0.8284
  975MOL0     H34501   0.699   5.841  -0.660 -1.8456  0.6936  0.5746
  975MOL0     H34502   0.897   5.984  -0.680  0.3864  0.1628 -0.5277
  975MOL0     H34503   0.816   6.015  -0.523 -1.2543 -1.8086  0.3835
  975MOL0     H34504   0.978   5.955  -0.390 -2.3404 -2.0752  0.6190
  975MOL0     H34505   1.035   5.816  -0.482 -4.4766 -1.3052  1.8532
  975MOL0     H34506   1.091   6.040  -0.654  3.2578  5.6991 -0.2615
  975MOL0     H34507   1.084   6.120  -0.513 -2.4552  0.0936 -1.7178
  975MOL0     H34508   1.187   5.864  -0.756  1.5863 -0.5821 -1.4716
  975MOL0     H34509   1.247   5.543  -0.868  2.8378 -0.2407 -1.4063
  975MOL0     H34510   1.344   5.659  -0.975  1.4678  2.6151  1.2840
  975MOL0     H34511   1.190   5.695  -0.915 -0.1049 -1.8094 -0.8964
  975MOL0     H34512   1.723   5.497  -0.974 -2.6026 -0.5850 -1.4267
  975MOL0     H34513   1.871   5.297  -1.041  0.2374 -2.2952  0.1050
  975MOL0     H34514   1.888   5.018  -0.827 -2.9076  0.7996 -0.4856
  975MOL0     H34515   1.804   4.888  -0.890 -1.1114  0.5762 -0.5657
  975MOL0     H34516   1.998   4.892  -1.081 -0.2630  2.7549 -1.0127
  975MOL0     H34517   2.082   5.002  -0.981  1.2517 -2.3057 -1.9359
  975MOL0     H34518   1.995   4.732  -0.901 -1.1556  1.5908  1.9936
  975MOL0     H34519   2.063   4.838  -0.785 -1.2319  0.4634  0.8799
  975MOL0     H34520   2.276   4.858  -0.915  2.7089 -1.9817  0.5285
  975MOL0     H34521   2.217   4.754  -1.043  0.1500  1.0162 -0.4172
  975MOL0     H34522   2.378   4.654  -0.884 -1.4147  0.1591 -3.0205
  975MOL0     H34523   2.264   4.680  -0.744 -0.8150 -1.9159  1.2099
  975MOL0     H34524   2.163   4.517  -0.990 -1.2339 -3.4050  1.1725
  975MOL0     H34525   2.105   4.514  -0.828  0.5079 -1.6254  0.5251
  975MOL0     H34526   2.293   4.415  -0.729  1.7922 -0.3129 -0.9184
  975MOL0     H34527   2.388   4.416  -0.874  1.9988 -2.6020  3.7305
  975MOL0     H34528   2.238   4.242  -0.977  0.9215  0.7636  0.0180
  975MOL0     H34529   2.140   4.239  -0.829 -0.2435  1.7837 -0.5470
  975MOL0     H34530   1.598   5.019  -0.941 -2.1387  0.0318 -0.9810
  975MOL0     H34531   1.426   5.223  -0.849 -0.2844 -0.9124 -1.7815
  975MOL0     H34532   1.585   5.683  -0.539  1.4772  2.9218 -1.5995
  975MOL0     H34533   1.464   5.889  -0.453  0.5149 -0.4987  0.2425
  975MOL0     H34534   1.509   5.500   0.134 -1.3730  0.3404 -1.5865
  975MOL0     H34535   1.647   5.587   0.306  0.7222 -1.0110 -0.2524
  975MOL0     H34536   1.868   5.448   0.638 -0.2021  0.6633 -1.2607
  975MOL0     H34537   2.069   5.464   0.773 -1.0193  1.6577  3.4687
  975MOL0     H34538   2.304   5.578   0.927  0.6843 -1.5174 -0.6485
  975MOL0     H34539   2.261   5.506   0.766 -1.8795  0.2109 -0.2461
  975MOL0     H34540   2.389   5.657   0.646  0.8463 -0.8042 -1.3346
  975MOL0     H34541   2.495   5.556   0.735 -0.2918  0.2444 -1.7920
  975MOL0     H34542   2.414   5.830   0.845 -0.8587 -1.1748  0.3572
  975MOL0     H34543   2.535   5.729   0.920 -0.3142  1.0971  0.0182
  975MOL0     H34544   2.622   5.904   0.828  1.9885  0.8838 -0.4574
  975MOL0     H34545   2.574   5.863   0.658 -1.1575 -0.1949  0.6855
  975MOL0     H34546   2.896   5.594   0.709  1.9919  0.2724 -1.2923
  975MOL0     H34547   2.054   5.886   0.707  1.2365 -1.9838 -4.0343
  975MOL0     H34548   1.687   5.912   0.709 -0.0509  3.4961  0.4134
  975MOL0     H34549   1.837   5.983   0.738  0.0775 -0.3898  0.4095
  975MOL0     H34550   1.796   5.933   0.565 -4.4717  0.8494 -0.4289
  976MOL0     O34551   2.160   2.877   6.160  0.2045 -0.2658 -0.0514
  976MOL0     C34552   2.039   2.855   6.126  0.1523 -0.4623  0.5529
  976MOL0     O34553   1.943   2.781   6.185  0.3360 -0.5145 -0.1201
  976MOL0     C34554   1.976   2.725   6.311  0.1297 -1.1833 -0.2648
  976MOL0     C34555   1.936   2.790   6.431 -0.5717  0.0590 -0.2790
  976MOL0     C34556   1.986   2.735   6.549 -1.3171 -0.1980  0.6517
  976MOL0     C34557   2.072   2.625   6.556  0.3044  0.4353 -0.5149
  976MOL0     O34558   2.123   2.558   6.666  0.0848  0.0041 -0.0717
  976MOL0     C34559   2.139   2.633   6.794 -1.2019 -0.4829  0.4925
  976MOL0     C34560   2.039   2.577   6.894  0.3661 -0.1984  0.6824
  976MOL0     C34561   2.040   2.617   7.040  0.0713  0.2730 -0.1907
  976MOL0     C34562   1.903   2.615   7.102 -0.0493  0.9747 -0.5065
  976MOL0     C34563   1.888   2.670   7.241 -0.0203  0.8164 -0.3652
  976MOL0     C34564   1.912   2.824   7.259  0.6109 -0.5024  0.4022
  976MOL0     C34565   1.894   2.868   7.409 -0.9885 -0.0122  0.5122
  976MOL0     C34566   2.014   2.820   7.488  0.0427 -1.0468 -0.6765
  976MOL0     N34567   2.137   2.873   7.432  1.1202 -0.5975 -0.0265
  976MOL0     C34568   2.224   2.804   7.347 -0.6504 -0.6032 -1.3171
  976MOL0     C34569   2.312   2.892   7.306 -0.3176  0.4463 -0.4165
  976MOL0     C34570   2.426   2.870   7.202  0.3129 -0.5155 -0.9191
  976MOL0     C34571   2.381   2.935   7.074 -0.2467 -1.5394 -0.9673
  976MOL0     C34572   2.440   2.877   6.950  0.2872  0.5613 -0.4198
  976MOL0     C34573   2.405   2.955   6.820  0.0776 -0.9396 -0.0120
  976MOL0     O34574   2.269   2.955   6.818  0.2152  0.0392  0.3860
  976MOL0     C34575   2.218   3.029   6.721 -0.2179 -0.2819 -0.0045
  976MOL0     C34576   2.213   3.160   6.749  0.2108 -0.2887 -0.6037
  976MOL0     C34577   2.174   3.260   6.657  0.0720  0.5009 -0.5106
  976MOL0     C34578   2.180   3.398   6.705  0.7619 -0.1147 -0.6402
  976MOL0     C34579   2.155   3.221   6.522 -0.7042  0.1394 -0.8371
  976MOL0     C34580   2.133   3.312   6.403  0.0007  0.2761 -0.8963
  976MOL0     O34581   2.090   3.254   6.282 -0.5985 -0.1887  0.0001
  976MOL0     C34582   2.063   3.349   6.180  1.2099  0.7582  0.1536
  976MOL0     C34583   2.121   3.337   6.053  0.0734 -0.9735  0.4542
  976MOL0     C34584   2.095   3.433   5.951 -0.3956  0.5542 -1.5525
  976MOL0     C34585   2.011   3.543   5.969 -0.2734  0.2634  1.2633
  976MOL0     O34586   2.007   3.632   5.863  1.1467 -0.0184 -0.1077
  976MOL0     C34587   1.893   3.722   5.870  0.4994 -0.1742 -0.3447
  976MOL0     C34588   1.878   3.821   5.760 -0.1030 -0.5657 -0.6614
  976MOL0     C34589   1.832   3.765   5.622 -0.0988 -0.6298  0.3767
  976MOL0     C34590   1.949   3.721   5.536  0.4975 -1.3759  0.7572
  976MOL0     C34591   1.891   3.697   5.389 -0.1108  0.1954  0.1726
  976MOL0     C34592   2.002   3.637   5.301 -0.4051  0.6289 -0.3285
  976MOL0     C34593   1.957   3.657   5.153 -0.1706  0.3907 -0.3666
  976MOL0     C34594   1.988   3.797   5.094  0.5056 -0.5051  0.0011
  976MOL0    Cl34595   1.928   3.795   4.925 -0.0382 -0.3047  0.1150
  976MOL0     C34596   1.950   3.551   6.092 -0.3502 -0.6888  0.1381
  976MOL0     C34597   1.967   3.454   6.194  0.0650 -0.5619 -0.1736
  976MOL0     O34598   2.171   3.425   6.415 -0.1737 -0.6974  0.2217
  976MOL0     C34599   2.154   3.075   6.496 -0.7977  0.5036 -0.8606
  976MOL0     C34600   2.186   2.982   6.597  0.1548  0.3095  1.1183
  976MOL0     N34601   2.277   3.007   7.365  0.0880 -0.3116  0.7884
  976MOL0     N34602   2.167   3.012   7.436 -0.0154  0.2168  0.1796
  976MOL0     C34603   2.104   2.563   6.436 -0.2976 -0.6994  0.8988
  976MOL0     C34604   2.060   2.615   6.313  0.5385  0.3340 -1.1062
  976MOL0     C34605   2.005   2.930   6.010  0.4124 -0.1126 -0.3912
  976MOL0     C34606   2.072   2.899   5.887 -0.2228 -0.4000 -0.8769
  976MOL0     C34607   2.042   2.965   5.774 -0.1205  0.4245 -0.1383
  976MOL0     C34608   1.944   3.061   5.776 -0.0277 -0.0138  1.0277
  976MOL0     O34609   1.913   3.132   5.660 -0.5693 -0.0613 -0.0596
  976MOL0     C34610   1.931   3.270   5.683  0.5944 -0.3298 -0.8839
  976MOL0     C34611   1.818   3.351   5.738  0.1183  0.1417  0.5941
  976MOL0     C34612   1.676   3.300   5.691 -0.1844  0.3864  0.8778
  976MOL0     C34613   1.653   3.347   5.545 -0.0309  0.0710  0.3580
  976MOL0     C34614   1.563   3.461   5.554 -0.0058  0.0498  0.7633
  976MOL0     C34615   1.499   3.565   5.553 -0.5455  1.0550 -0.4938
  976MOL0     C34616   1.865   3.079   5.888 -0.1051 -1.1283 -0.8276
  976MOL0     C34617   1.900   3.022   6.007  0.0314  0.0873 -0.0125
  976MOL0     C34618   1.822   3.060   6.127  1.0749 -0.2085 -0.6858
  976MOL0     H34619   1.877   2.881   6.424  0.5001  0.7089 -1.2503
  976MOL0     H34620   1.969   2.783   6.645 -0.1176  4.3691 -1.1562
  976MOL0     H34621   2.149   2.738   6.765  2.0056 -0.7417  0.2683
  976MOL0     H34622   2.242   2.612   6.826 -2.1687 -2.3421  2.6651
  976MOL0     H34623   1.940   2.596   6.851  1.3981  0.6634 -1.4911
  976MOL0     H34624   2.058   2.469   6.896  1.9199 -0.0018 -0.8425
  976MOL0     H34625   2.109   2.547   7.088  1.0368  1.1630 -0.2192
  976MOL0     H34626   2.089   2.715   7.040 -0.7861  0.7651 -2.6283
  976MOL0     H34627   1.833   2.660   7.031  1.2424 -1.8660 -3.8578
  976MOL0     H34628   1.873   2.510   7.104 -0.7235  1.1670  0.0145
  976MOL0     H34629   1.955   2.608   7.302  0.3191  0.3228 -1.2118
  976MOL0     H34630   1.786   2.650   7.274  0.4835  1.3028  1.5951
  976MOL0     H34631   1.995   2.870   7.203 -1.7411  1.8362 -1.4317
  976MOL0     H34632   1.825   2.871   7.213  2.0576 -0.6968 -2.8206
  976MOL0     H34633   1.799   2.829   7.447 -0.2780  0.0763  2.4870
  976MOL0     H34634   1.892   2.977   7.408  1.3300  0.1578 -3.0910
  976MOL0     H34635   1.991   2.865   7.585 -0.4782 -0.0406 -1.2607
  976MOL0     H34636   2.029   2.711   7.491 -0.9852 -1.1784  1.1258
  976MOL0     H34637   2.215   2.699   7.323 -1.7031 -0.8179 -0.0793
  976MOL0     H34638   2.442   2.764   7.179 -0.6511 -0.7903 -0.3742
  976MOL0     H34639   2.516   2.925   7.232  0.3351  0.5459 -2.7073
  976MOL0     H34640   2.273   2.949   7.069  0.2117  3.3770 -2.0390
  976MOL0     H34641   2.426   3.034   7.079  1.9487 -2.4736 -1.0076
  976MOL0     H34642   2.550   2.873   6.956  0.3775 -2.9979 -1.7948
  976MOL0     H34643   2.409   2.774   6.933 -0.4712  0.4618  1.4045
  976MOL0     H34644   2.445   3.057   6.824 -2.1046 -0.0786  1.5346
  976MOL0     H34645   2.445   2.906   6.731 -0.6524 -1.7083  0.0736
  976MOL0     H34646   2.233   3.187   6.852 -2.1459  0.6025 -0.3097
  976MOL0     H34647   2.280   3.433   6.677  1.0522  1.3647  1.9554
  976MOL0     H34648   2.176   3.409   6.814 -1.6805  2.5918 -0.8747
  976MOL0     H34649   2.102   3.469   6.675 -1.7730 -0.9553  3.2086
  976MOL0     H34650   2.196   3.264   6.024 -0.5092 -0.5594 -2.3919
  976MOL0     H34651   2.164   3.432   5.867  2.2528  2.0618  0.4630
  976MOL0     H34652   1.798   3.669   5.852 -0.2070  1.5375 -1.9709
  976MOL0     H34653   1.905   3.776   5.964  0.2864 -1.6860  0.5855
  976MOL0     H34654   1.794   3.887   5.782  0.8549  0.0750  1.3196
  976MOL0     H34655   1.958   3.896   5.765 -0.4642 -0.1296 -1.3707
  976MOL0     H34656   1.784   3.839   5.558  1.1987 -2.7638 -3.4124
  976MOL0     H34657   1.745   3.699   5.629 -1.7624  0.5885 -4.8802
  976MOL0     H34658   1.973   3.623   5.579  0.8833 -0.9092  1.6408
  976MOL0     H34659   2.030   3.795   5.529 -0.3262 -0.6501 -2.3958
  976MOL0     H34660   1.806   3.628   5.394 -0.0681  0.1493  0.2587
  976MOL0     H34661   1.853   3.787   5.341  0.2136  0.6221  0.7048
  976MOL0     H34662   2.016   3.532   5.328  1.0434  0.6815 -0.7481
  976MOL0     H34663   2.092   3.691   5.332 -0.1137  0.2503 -0.5064
  976MOL0     H34664   1.849   3.639   5.148 -0.7692  3.6238 -1.2421
  976MOL0     H34665   1.998   3.580   5.087 -0.9003  0.9567 -1.5155
  976MOL0     H34666   2.096   3.814   5.086  0.8495 -2.6872 -1.0687
  976MOL0     H34667   1.946   3.873   5.160 -0.7604 -1.8909  0.8606
  976MOL0     H34668   1.878   3.629   6.114  3.6021  3.4096  0.0102
  976MOL0     H34669   1.918   3.465   6.291 -1.8812  0.4106 -1.1992
  976MOL0     H34670   2.151   3.026   6.399  2.5031 -4.6919  1.1936
  976MOL0     H34671   2.197   2.874   6.583 -4.9152 -0.2460 -0.3819
  976MOL0     H34672   2.169   2.477   6.442 -0.6330 -0.9379  1.1175
  976MOL0     H34673   2.081   2.565   6.219 -2.7949  0.5928 -2.1180
  976MOL0     H34674   2.146   2.821   5.873  1.3748  1.1998 -1.8802
  976MOL0     H34675   2.095   2.936   5.684 -2.4718 -2.4490 -0.7641
  976MOL0     H34676   2.013   3.298   5.750 -0.5696  1.2712 -0.0538
  976MOL0     H34677   1.963   3.320   5.591 -1.4262  4.9266  0.9189
  976MOL0     H34678   1.829   3.457   5.714  1.9387 -0.2207 -0.2540
  976MOL0     H34679   1.819   3.345   5.848 -1.6615  3.1590  0.8964
  976MOL0     H34680   1.655   3.193   5.699 -3.3195  0.9640  1.8188
  976MOL0     H34681   1.612   3.339   5.770 -0.0754  2.1836  0.1146
  976MOL0     H34682   1.604   3.264   5.494 -0.8813  1.3627 -1.0036
  976MOL0     H34683   1.746   3.382   5.500 -0.1639  1.1842  0.9222
  976MOL0     H34684   1.444   3.657   5.545 -1.1223  0.8323  0.7214
  976MOL0     H34685   1.776   3.140   5.897  1.0037  0.3661  0.7695
  976MOL0     H34686   1.752   2.984   6.161  3.5569 -2.1512  0.3668
  976MOL0     H34687   1.887   3.072   6.215 -0.7125  0.0850  0.6611
  976MOL0     H34688   1.773   3.158   6.121 -2.2681 -1.5177  2.0371
  977MOL0     O34689   0.156   7.986  11.217  0.2642  0.1661  0.9390
  977MOL0     C34690   0.148   8.101  11.239 -0.4412  0.1188  0.5526
  977MOL0     O34691   0.216   8.198  11.165  0.7708  0.5136  0.7109
  977MOL0     C34692   0.334   8.153  11.098  0.0620 -0.0177 -0.2402
  977MOL0     C34693   0.327   8.098  10.969 -0.2393 -0.1207  0.3712
  977MOL0     C34694   0.441   8.078  10.890 -0.3805  0.3026  0.5403
  977MOL0     C34695   0.564   8.083  10.952  0.5693  0.0568 -0.3562
  977MOL0     O34696   0.683   8.065  10.891 -0.6139 -0.3160 -0.4162
  977MOL0     C34697   0.689   8.118  10.758  0.1326  0.1726  0.3042
  977MOL0     C34698   0.833   8.176  10.730  0.3667  0.0810  0.1871
  977MOL0     C34699   0.854   8.201  10.582  0.1109  0.3960 -0.0903
  977MOL0     C34700   0.986   8.268  10.558  0.8913 -0.6432 -0.8015
  977MOL0     C34701   0.991   8.323  10.421  0.2781 -1.0247  0.4030
  977MOL0     C34702   1.106   8.424  10.409 -0.5767 -0.5311 -0.9610
  977MOL0     C34703   1.112   8.516  10.286 -0.2870  1.5276  0.4590
  977MOL0     C34704   1.000   8.623  10.289 -0.2531 -0.6226  0.3602
  977MOL0     N34705   0.983   8.686  10.154  0.4426 -0.6169  0.5336
  977MOL0     C34706   0.875   8.756  10.115 -0.5378 -0.5409  0.2110
  977MOL0     C34707   0.905   8.799   9.988 -0.7879  0.3403  0.1821
  977MOL0     C34708   0.799   8.869   9.899 -0.6864  1.0064  0.0193
  977MOL0     C34709   0.686   8.947   9.971 -0.0843  0.1880 -0.1402
  977MOL0     C34710   0.599   9.040   9.886  0.2494 -0.9228 -1.1316
  977MOL0     C34711   0.469   9.096   9.970 -0.3327 -0.3483 -0.5564
  977MOL0     O34712   0.375   8.984   9.984  0.2770 -0.1093  0.3848
  977MOL0     C34713   0.271   8.998  10.073 -0.4130 -0.6896 -0.3415
  977MOL0     C34714   0.190   8.885  10.097  0.1723  0.0872 -0.0565
  977MOL0     C34715   0.093   8.886  10.197 -0.7577  0.1546  0.1364
  977MOL0     C34716   0.046   8.749  10.250 -0.6370  0.2306 -0.4060
  977MOL0     C34717   0.063   9.007  10.264 -0.6461 -0.4717 -0.1441
  977MOL0     C34718  -0.015   9.006  10.385  0.6801  0.1705 -0.0027
  977MOL0     O34719  -0.144   8.956  10.387 -0.5454  0.3304 -0.1107
  977MOL0     C34720  -0.205   8.934  10.509  0.4674  0.0093 -0.6011
  977MOL0     C34721  -0.250   9.031  10.602  0.8178  1.7016  0.5682
  977MOL0     C34722  -0.315   9.002  10.723  0.1306  0.2587 -0.8303
  977MOL0     C34723  -0.331   8.863  10.756  0.7976 -1.0077 -0.7588
  977MOL0     O34724  -0.381   8.833  10.884 -0.3349 -0.0061  0.3943
  977MOL0     C34725  -0.514   8.875  10.890 -0.8435 -1.1254 -0.7695
  977MOL0     C34726  -0.522   8.987  11.003  0.1878 -0.4686 -0.2286
  977MOL0     C34727  -0.660   8.995  11.070  0.2602 -0.1554 -0.0369
  977MOL0     C34728  -0.662   9.076  11.200 -1.3665 -0.0224  1.4886
  977MOL0     C34729  -0.803   9.073  11.266  0.5426  1.0075 -0.3922
  977MOL0     C34730  -0.924   9.104  11.176  0.4733  0.5513 -0.3500
  977MOL0     C34731  -0.910   9.250  11.121  0.4331  0.5616 -0.0441
  977MOL0     C34732  -1.003   9.282  11.004  0.1944 -0.5357 -0.4248
  977MOL0    Cl34733  -1.178   9.295  11.062 -0.6094  0.1426  0.2262
  977MOL0     C34734  -0.284   8.763  10.672  0.1383  0.2845  0.3197
  977MOL0     C34735  -0.225   8.796  10.555  0.1883  0.8261 -1.1701
  977MOL0     O34736   0.040   9.050  10.483 -0.6412 -0.1478  0.4550
  977MOL0     C34737   0.134   9.131  10.232  0.8000  1.2051 -0.5668
  977MOL0     C34738   0.239   9.124  10.148  0.1599 -0.3192 -0.0214
  977MOL0     N34739   1.026   8.745   9.948 -0.1671 -0.2217 -0.0331
  977MOL0     N34740   1.072   8.689  10.052  0.5959 -0.7603 -0.3396
  977MOL0     C34741   0.570   8.118  11.088 -0.0997 -0.9362 -0.1279
  977MOL0     C34742   0.460   8.163  11.164 -1.7013 -0.5677  0.3122
  977MOL0     C34743   0.058   8.142  11.348 -0.6453 -0.6221  0.0220
  977MOL0     C34744   0.012   8.277  11.341  0.7443  0.2323 -0.0827
  977MOL0     C34745  -0.098   8.326  11.428 -0.0792  0.0162  0.4840
  977MOL0     C34746  -0.149   8.231  11.524 -0.4951  0.2967  0.8328
  977MOL0     O34747  -0.239   8.279  11.618  0.5131 -0.1133  0.0812
  977MOL0     C34748  -0.352   8.193  11.651 -1.2512  0.2168 -0.0324
  977MOL0     C34749  -0.472   8.213  11.560 -0.0222  0.2372 -0.0917
  977MOL0     C34750  -0.575   8.098  11.573  0.2395 -0.9666 -0.6054
  977MOL0     C34751  -0.715   8.121  11.507 -0.3559 -0.1495  1.1235
  977MOL0     C34752  -0.701   8.091  11.365  0.7550 -0.1685  0.4973
  977MOL0     C34753  -0.698   8.026  11.257  1.0561  0.0186  0.0593
  977MOL0     C34754  -0.086   8.113  11.535 -0.0871 -0.2981  0.9555
  977MOL0     C34755   0.011   8.054  11.452  0.1534 -0.3197  1.4311
  977MOL0     C34756   0.056   7.910  11.476 -0.5982  0.0102 -1.3023
  977MOL0     H34757   0.228   8.093  10.924 -0.8224 -2.3466  1.7393
  977MOL0     H34758   0.433   8.063  10.783 -2.0525 -1.0127  0.8030
  977MOL0     H34759   0.623   8.203  10.740 -1.9569 -1.5668 -0.6559
  977MOL0     H34760   0.669   8.032  10.694 -0.0118 -0.0473  0.6422
  977MOL0     H34761   0.840   8.267  10.790  1.1730  0.2084 -0.0915
  977MOL0     H34762   0.913   8.107  10.757 -1.9332 -3.1089 -0.4887
  977MOL0     H34763   0.858   8.107  10.526 -2.2985  0.6063 -0.7234
  977MOL0     H34764   0.762   8.252  10.553 -0.0176  0.3698  0.2587
  977MOL0     H34765   1.000   8.346  10.633  1.9432 -2.8762  1.4695
  977MOL0     H34766   1.070   8.198  10.556  1.3024 -0.1514 -2.7535
  977MOL0     H34767   0.897   8.370  10.391  0.3493 -0.1334  1.4900
  977MOL0     H34768   1.010   8.240  10.354 -1.9838 -1.0999 -0.2229
  977MOL0     H34769   1.117   8.480  10.502  1.3925 -2.6931  0.2234
  977MOL0     H34770   1.201   8.371  10.419  0.6947  2.1036  3.6580
  977MOL0     H34771   1.106   8.455  10.196  1.0028  3.7757 -1.2414
  977MOL0     H34772   1.214   8.554  10.288  1.6092 -2.8917  2.0070
  977MOL0     H34773   0.903   8.582  10.318 -1.2153  0.4183 -1.2773
  977MOL0     H34774   1.021   8.697  10.367  1.1891  0.1012 -0.6618
  977MOL0     H34775   0.779   8.769  10.165 -1.3454 -2.3972 -0.7558
  977MOL0     H34776   0.751   8.791   9.839 -1.8718  0.1499  2.0150
  977MOL0     H34777   0.851   8.931   9.825  1.6616  0.5226  1.1549
  977MOL0     H34778   0.622   8.872  10.019  0.3639  0.7162  1.3303
  977MOL0     H34779   0.740   8.999  10.050  0.9570  0.1693 -0.8218
  977MOL0     H34780   0.654   9.131   9.861 -0.6650  0.1854  0.6662
  977MOL0     H34781   0.568   8.992   9.793 -4.2609  0.1069 -0.4087
  977MOL0     H34782   0.502   9.131  10.068  1.3035 -1.4969 -0.6564
  977MOL0     H34783   0.427   9.182   9.917 -1.2003 -0.1504  0.4212
  977MOL0     H34784   0.211   8.797  10.037  1.2943 -0.3795  0.9801
  977MOL0     H34785   0.117   8.671  10.221 -0.1161  0.3653  0.4587
  977MOL0     H34786  -0.055   8.729  10.214 -1.1621  1.0261  0.5762
  977MOL0     H34787   0.028   8.751  10.358 -1.3849  1.2839 -0.5343
  977MOL0     H34788  -0.246   9.136  10.577  2.4653  1.2784 -1.1594
  977MOL0     H34789  -0.352   9.076  10.794  1.2902  0.3816 -0.3328
  977MOL0     H34790  -0.553   8.928  10.802  0.9448  1.8233  0.0672
  977MOL0     H34791  -0.578   8.791  10.917 -0.8791 -0.1615  2.5400
  977MOL0     H34792  -0.437   8.972  11.069  1.6200  0.1608 -1.8531
  977MOL0     H34793  -0.512   9.079  10.945  2.4343 -0.3959  0.1785
  977MOL0     H34794  -0.686   8.893  11.097 -1.9677 -0.0507 -1.5125
  977MOL0     H34795  -0.732   9.037  10.999  0.8153  1.1368  0.1426
  977MOL0     H34796  -0.640   9.182  11.184 -0.5681  0.1716  3.5855
  977MOL0     H34797  -0.588   9.046  11.274 -2.1362  1.0832  2.7574
  977MOL0     H34798  -0.818   8.972  11.305  1.4010  1.5511  1.4998
  977MOL0     H34799  -0.797   9.132  11.358 -1.2681 -2.9042  2.5294
  977MOL0     H34800  -1.019   9.104  11.232  0.3276  1.6386 -0.5850
  977MOL0     H34801  -0.933   9.031  11.096  1.1042  4.2506 -4.1139
  977MOL0     H34802  -0.811   9.274  11.080  1.4470  0.3584  2.1532
  977MOL0     H34803  -0.936   9.325  11.197 -0.0224  0.2455  0.1122
  977MOL0     H34804  -0.991   9.195  10.940 -0.3287 -1.8187  1.1460
  977MOL0     H34805  -0.966   9.377  10.964  0.9743  0.2904  2.0349
  977MOL0     H34806  -0.278   8.663  10.715  0.8339  1.4286  3.0418
  977MOL0     H34807  -0.172   8.721  10.497  2.3938  1.7058 -0.4375
  977MOL0     H34808   0.112   9.219  10.292  0.0447  0.2424  0.6190
  977MOL0     H34809   0.297   9.213  10.126 -0.5493 -0.0040 -0.6796
  977MOL0     H34810   0.670   8.120  11.130 -1.4458  1.6249  3.4875
  977MOL0     H34811   0.472   8.202  11.265 -0.8711 -2.6300  1.0444
  977MOL0     H34812   0.065   8.341  11.271  5.0094 -2.5465  0.2687
  977MOL0     H34813  -0.120   8.432  11.429  2.4954  1.0478  7.6504
  977MOL0     H34814  -0.327   8.087  11.661  0.8230  0.6530 -0.2158
  977MOL0     H34815  -0.377   8.239  11.747  1.6407  4.1013 -0.8922
  977MOL0     H34816  -0.434   8.216  11.457  1.1816  1.7250  0.3564
  977MOL0     H34817  -0.512   8.308  11.595 -3.1577 -0.9954 -0.0675
  977MOL0     H34818  -0.533   8.002  11.544 -0.2715 -1.7582  1.1556
  977MOL0     H34819  -0.588   8.090  11.681  2.0197  0.6828 -0.2340
  977MOL0     H34820  -0.764   8.217  11.523 -4.3928 -1.9800  0.9996
  977MOL0     H34821  -0.781   8.049  11.556 -1.4439  0.5759  0.7495
  977MOL0     H34822  -0.698   7.974  11.163 -0.6575  1.0341 -0.5423
  977MOL0     H34823  -0.124   8.053  11.617 -0.1797 -0.4946  0.7697
  977MOL0     H34824   0.165   7.903  11.475 -0.2625  1.3019  3.1807
  977MOL0     H34825   0.026   7.872  11.574  0.8383 -1.1000 -1.2559
  977MOL0     H34826   0.005   7.843  11.406 -4.5178 -0.3927  1.5595
  978MOL0     O34827   3.620   3.813  10.010  0.5881  0.3359 -0.7778
  978MOL0     C34828   3.545   3.809   9.914  0.4636  0.1150  0.7386
  978MOL0     O34829   3.443   3.721   9.902  0.1157 -0.5375  0.0022
  978MOL0     C34830   3.425   3.634  10.004  0.9193 -0.1065  0.0206
  978MOL0     C34831   3.325   3.645  10.094  1.4541 -0.4882 -0.7788
  978MOL0     C34832   3.293   3.542  10.187  0.0091 -1.2541  0.4738
  978MOL0     C34833   3.376   3.430  10.198 -0.8484  0.9810 -0.6342
  978MOL0     O34834   3.354   3.340  10.299  0.7192 -0.0259  0.1809
  978MOL0     C34835   3.450   3.241  10.337  0.4927  0.7397  0.0534
  978MOL0     C34836   3.405   3.165  10.473 -0.3673  0.1352  0.5326
  978MOL0     C34837   3.477   3.033  10.478  0.8982  0.2001 -0.3025
  978MOL0     C34838   3.450   2.961  10.617 -1.0423  0.1692  0.3809
  978MOL0     C34839   3.557   2.859  10.645 -0.3919  0.8599  0.9192
  978MOL0     C34840   3.534   2.796  10.788 -0.3876  0.3847  0.2094
  978MOL0     C34841   3.615   2.669  10.822 -0.0527 -0.9311  0.1707
  978MOL0     C34842   3.588   2.547  10.732 -0.1504  0.4666 -0.0216
  978MOL0     N34843   3.674   2.436  10.770 -1.3942  0.7234 -0.0155
  978MOL0     C34844   3.664   2.366  10.887 -1.2747 -0.7340  0.0305
  978MOL0     C34845   3.763   2.281  10.883  0.2977  0.2041 -0.3188
  978MOL0     C34846   3.782   2.175  10.985  0.2105  0.7121 -0.4926
  978MOL0     C34847   3.929   2.202  11.039  0.1476  0.0812 -0.5533
  978MOL0     C34848   3.976   2.102  11.144 -0.3228 -0.4125  0.5024
  978MOL0     C34849   4.120   2.120  11.200  0.0064  0.5949 -0.5033
  978MOL0     O34850   4.131   2.253  11.269  0.5041  0.0335  0.1771
  978MOL0     C34851   4.182   2.366  11.211 -0.0752 -0.1693  0.0815
  978MOL0     C34852   4.212   2.485  11.285  0.3489 -0.7201  0.1824
  978MOL0     C34853   4.285   2.588  11.228 -0.3652  0.5717 -0.6809
  978MOL0     C34854   4.332   2.705  11.310  0.2006  0.1596 -0.3823
  978MOL0     C34855   4.331   2.589  11.087  0.6142 -0.2758  0.1925
  978MOL0     C34856   4.397   2.708  11.025 -0.7047  0.0043  0.2173
  978MOL0     O34857   4.496   2.669  10.939 -0.6213 -0.9974 -0.3374
  978MOL0     C34858   4.566   2.762  10.869  0.8036  0.0733 -0.9039
  978MOL0     C34859   4.656   2.842  10.934 -0.1224 -0.6001 -0.0343
  978MOL0     C34860   4.717   2.937  10.852 -0.0665  0.1021  0.4400
  978MOL0     C34861   4.696   2.952  10.719 -0.3528 -0.3642  0.6751
  978MOL0     O34862   4.759   3.057  10.663 -0.2351  0.6816 -0.5553
  978MOL0     C34863   4.737   3.086  10.525 -0.3455 -0.4085  0.5049
  978MOL0     C34864   4.844   3.183  10.471 -0.2886 -0.5768  0.0188
  978MOL0     C34865   4.841   3.327  10.524  1.3484 -0.5227  0.2618
  978MOL0     C34866   4.771   3.424  10.427 -0.4125 -0.2207 -0.0036
  978MOL0     C34867   4.740   3.563  10.481  0.3479  0.2746  0.5924
  978MOL0     C34868   4.877   3.634  10.481 -0.1424 -0.0543  0.7017
  978MOL0     C34869   4.873   3.775  10.547  0.6862 -0.8097 -0.0361
  978MOL0     C34870   4.795   3.879  10.469  0.4027  0.2811 -0.2509
  978MOL0    Cl34871   4.881   3.873  10.316  0.2829 -0.1301  0.1197
  978MOL0     C34872   4.610   2.866  10.654 -0.0726 -1.1446 -0.1589
  978MOL0     C34873   4.548   2.772  10.726 -1.0421 -0.2543 -0.4254
  978MOL0     O34874   4.359   2.819  11.042  0.3053 -0.0650  0.2424
  978MOL0     C34875   4.302   2.470  11.011  0.2300  0.3919  0.2549
  978MOL0     C34876   4.231   2.365  11.078  0.0869  0.2886  0.4311
  978MOL0     N34877   3.839   2.289  10.765  0.3594  0.1800 -0.6101
  978MOL0     N34878   3.781   2.379  10.692  1.3377  0.6812 -0.3852
  978MOL0     C34879   3.487   3.423  10.109 -0.0072  0.1212  1.2459
  978MOL0     C34880   3.502   3.522  10.007 -0.9086 -0.0298  0.3020
  978MOL0     C34881   3.552   3.915   9.801 -0.1544  0.9226 -1.5203
  978MOL0     C34882   3.431   3.945   9.742  1.2411 -0.2028 -0.6695
  978MOL0     C34883   3.408   4.063   9.665 -0.6157  0.8507  0.0537
  978MOL0     C34884   3.511   4.155   9.641 -0.1496  0.7355 -0.3780
  978MOL0     O34885   3.498   4.273   9.571 -0.6530  0.4827  0.5359
  978MOL0     C34886   3.366   4.333   9.565  0.1135 -0.0469 -0.3376
  978MOL0     C34887   3.378   4.481   9.523 -0.0547 -0.6092  0.5255
  978MOL0     C34888   3.403   4.487   9.375  0.2841 -0.4844  0.2511
  978MOL0     C34889   3.490   4.610   9.336  0.5846  1.1853 -0.0624
  978MOL0     C34890   3.432   4.738   9.357  0.0537 -0.6869  2.1767
  978MOL0     C34891   3.392   4.852   9.370  0.3484 -0.4591 -0.7580
  978MOL0     C34892   3.640   4.116   9.686 -0.2493 -0.3053  0.9900
  978MOL0     C34893   3.662   4.002   9.763 -0.7453  1.4457  1.4334
  978MOL0     C34894   3.802   3.982   9.831 -0.4863 -0.1345 -0.5989
  978MOL0     H34895   3.261   3.733  10.088  1.4858 -0.5085 -1.6459
  978MOL0     H34896   3.203   3.556  10.246 -2.3441  1.0933 -3.2488
  978MOL0     H34897   3.543   3.295  10.354  1.9820 -1.5193 -0.4432
  978MOL0     H34898   3.479   3.170  10.259  2.0308  0.4235  0.8623
  978MOL0     H34899   3.419   3.220  10.566 -1.7914  0.3635  0.6262
  978MOL0     H34900   3.297   3.147  10.469 -0.1614 -1.5874  1.6207
  978MOL0     H34901   3.449   2.968  10.395 -0.8458 -0.9860  1.1316
  978MOL0     H34902   3.583   3.063  10.475  1.3595 -1.3429 -3.5274
  978MOL0     H34903   3.429   3.029  10.700 -0.1632 -2.8000  3.2492
  978MOL0     H34904   3.358   2.904  10.602  0.3771 -1.9219 -1.0675
  978MOL0     H34905   3.652   2.911  10.639  0.3489 -0.4859  0.5917
  978MOL0     H34906   3.551   2.786  10.563 -0.7264  2.0192 -0.1276
  978MOL0     H34907   3.558   2.874  10.861 -2.7078  1.1773  0.2321
  978MOL0     H34908   3.427   2.773  10.796 -0.4497  1.3381  3.0845
  978MOL0     H34909   3.600   2.656  10.929  2.5475  3.4220  1.3202
  978MOL0     H34910   3.723   2.677  10.807 -0.4082 -0.4607 -2.8450
  978MOL0     H34911   3.487   2.507  10.739 -0.6201  1.8456  1.5987
  978MOL0     H34912   3.615   2.558  10.626 -1.8009 -0.5705 -0.5821
  978MOL0     H34913   3.592   2.384  10.967  0.7764  0.8665  1.6148
  978MOL0     H34914   3.781   2.077  10.937 -3.3372 -0.0281  0.7200
  978MOL0     H34915   3.704   2.163  11.062 -0.4460  1.8295 -0.9587
  978MOL0     H34916   4.002   2.195  10.958 -1.5275  0.8146 -2.1847
  978MOL0     H34917   3.929   2.307  11.072  0.9331  0.1650 -0.8099
  978MOL0     H34918   3.899   2.115  11.221 -4.2803  3.7444 -3.5031
  978MOL0     H34919   3.975   2.005  11.094 -0.3996 -0.0785 -0.1512
  978MOL0     H34920   4.117   2.037  11.271 -0.8274 -1.6103 -2.9418
  978MOL0     H34921   4.211   2.102  11.141  1.9740  0.1251  2.4921
  978MOL0     H34922   4.192   2.489  11.391  2.2189 -0.9875  0.5888
  978MOL0     H34923   4.262   2.788  11.298 -2.9893 -2.3384 -0.7345
  978MOL0     H34924   4.434   2.739  11.290  0.3484  0.0508  0.1676
  978MOL0     H34925   4.328   2.673  11.415  1.6108 -2.7451 -1.0983
  978MOL0     H34926   4.664   2.854  11.041 -1.7863 -1.6660  0.2588
  978MOL0     H34927   4.785   3.001  10.908  0.0792 -0.0512  0.4408
  978MOL0     H34928   4.750   2.998  10.462 -0.8151  1.1476 -1.9300
  978MOL0     H34929   4.638   3.132  10.511 -0.4052 -0.3017  1.2261
  978MOL0     H34930   4.939   3.141  10.506  0.0317  1.8155  2.4692
  978MOL0     H34931   4.854   3.183  10.363  0.8384 -0.2111  0.1080
  978MOL0     H34932   4.947   3.348  10.538  1.2258  1.8547 -1.6271
  978MOL0     H34933   4.791   3.339  10.620 -1.3650 -2.9040 -0.7046
  978MOL0     H34934   4.677   3.376  10.397 -1.4932  1.1453  1.0243
  978MOL0     H34935   4.839   3.440  10.344  0.3447 -1.5689  0.3250
  978MOL0     H34936   4.667   3.607  10.414  0.2532  0.0610  0.5540
  978MOL0     H34937   4.699   3.568  10.583  0.0602  0.0773  0.4875
  978MOL0     H34938   4.902   3.642  10.375 -0.6666 -0.7492  0.5260
  978MOL0     H34939   4.951   3.572  10.534 -1.8436 -1.5822  1.3747
  978MOL0     H34940   4.974   3.815  10.561  0.4005 -0.2473  0.5062
  978MOL0     H34941   4.832   3.763  10.648  1.1704 -1.1947  0.1184
  978MOL0     H34942   4.811   3.974  10.520  0.1116 -0.9391  2.3024
  978MOL0     H34943   4.689   3.854  10.468  0.5684 -0.4614 -0.6610
  978MOL0     H34944   4.575   2.875  10.551 -5.6242  1.6492  1.5317
  978MOL0     H34945   4.487   2.706  10.665 -1.0712 -1.4503  0.8333
  978MOL0     H34946   4.315   2.463  10.904  0.6428 -2.0287  0.4179
  978MOL0     H34947   4.193   2.289  11.009 -0.0605  0.7913 -0.0513
  978MOL0     H34948   3.561   3.344  10.118 -1.2881 -1.3292 -0.1503
  978MOL0     H34949   3.581   3.509   9.934 -2.5882  3.7706 -2.5467
  978MOL0     H34950   3.342   3.885   9.754  2.7596 -2.4463 -0.1084
  978MOL0     H34951   3.315   4.091   9.616 -0.2264  0.5467 -0.8783
  978MOL0     H34952   3.303   4.289   9.488 -1.6257  2.3414 -0.4026
  978MOL0     H34953   3.310   4.318   9.659  1.4657  0.6217  0.6112
  978MOL0     H34954   3.463   4.527   9.573  0.9473  1.1855 -2.5172
  978MOL0     H34955   3.291   4.541   9.553 -1.1986 -0.5717 -2.4868
  978MOL0     H34956   3.454   4.397   9.340 -0.9046 -0.6389 -1.1715
  978MOL0     H34957   3.305   4.489   9.326  1.0713  1.0309 -1.3640
  978MOL0     H34958   3.531   4.593   9.236 -1.4039 -3.3464 -0.3387
  978MOL0     H34959   3.579   4.596   9.398 -0.7969 -1.8439  1.4596
  978MOL0     H34960   3.361   4.955   9.378 -1.9004 -1.1551  0.2807
  978MOL0     H34961   3.730   4.169   9.657 -0.2545 -1.5850 -1.6537
  978MOL0     H34962   3.888   4.004   9.766  0.9335  0.7971  1.4601
  978MOL0     H34963   3.812   4.048   9.918 -0.6941 -1.7220  0.6757
  978MOL0     H34964   3.799   3.878   9.864 -2.7411  0.1897  0.3823
  979MOL0     O34965   8.021   9.271  10.856  0.1774  0.1393 -0.7645
  979MOL0     C34966   7.943   9.353  10.882 -0.2628 -0.3710 -0.0994
  979MOL0     O34967   7.960   9.482  10.838 -0.4630  0.9089  0.0685
  979MOL0     C34968   8.069   9.513  10.760  0.2956  0.6628 -0.3584
  979MOL0     C34969   8.193   9.557  10.811 -0.2112 -0.9989 -0.0168
  979MOL0     C34970   8.298   9.598  10.723  0.3129 -0.7197 -0.9942
  979MOL0     C34971   8.287   9.586  10.589  0.3064  0.4398  0.7650
  979MOL0     O34972   8.385   9.612  10.498  0.4114 -0.1910 -0.0466
  979MOL0     C34973   8.504   9.692  10.529 -0.0399  0.7432  0.1749
  979MOL0     C34974   8.448   9.832  10.556  0.5533 -0.5397 -0.7196
  979MOL0     C34975   8.558   9.939  10.553  0.6650  0.6703  0.5144
  979MOL0     C34976   8.512  10.070  10.487  0.2587 -0.0447 -0.4029
  979MOL0     C34977   8.631  10.168  10.451  0.0593 -0.3918 -0.4905
  979MOL0     C34978   8.693  10.255  10.569  0.2737 -0.0162 -0.0373
  979MOL0     C34979   8.757  10.385  10.518 -0.3325 -0.4307 -0.5482
  979MOL0     C34980   8.650  10.495  10.522 -0.0692  0.5431 -0.3479
  979MOL0     N34981   8.698  10.630  10.513 -0.3360 -0.9074 -0.3207
  979MOL0     C34982   8.747  10.700  10.615  0.2456  0.2927 -0.3446
  979MOL0     C34983   8.774  10.830  10.560  0.1219  0.7264  0.0285
  979MOL0     C34984   8.821  10.959  10.623  0.6232 -0.1958  1.0173
  979MOL0     C34985   8.848  11.071  10.520 -0.3784 -0.9093 -0.5141
  979MOL0     C34986   8.902  11.211  10.582 -0.6167  0.3891 -0.6165
  979MOL0     C34987   9.047  11.205  10.628 -0.5633  0.5848  0.0932
  979MOL0     O34988   9.057  11.105  10.731 -0.3535 -0.8396  0.2816
  979MOL0     C34989   9.081  11.153  10.853 -0.5344  1.0855  0.5830
  979MOL0     C34990   9.010  11.119  10.963 -0.7042  0.8141 -0.3393
  979MOL0     C34991   9.050  11.169  11.091 -0.0605  0.5396  0.0711
  979MOL0     C34992   8.961  11.124  11.198 -0.0046  0.1347 -0.4210
  979MOL0     C34993   9.163  11.247  11.114  0.0010 -0.7093  0.5587
  979MOL0     C34994   9.200  11.293  11.246 -0.1247 -0.2300 -0.4028
  979MOL0     O34995   9.094  11.306  11.335  0.3316 -0.3562  0.3292
  979MOL0     C34996   9.118  11.378  11.448 -0.2104  0.0040  0.5923
  979MOL0     C34997   9.145  11.517  11.446  0.8379  0.4270  0.3424
  979MOL0     C34998   9.166  11.584  11.565 -0.3416  0.5744 -0.5176
  979MOL0     C34999   9.154  11.524  11.695 -0.1058  0.0260  0.2415
  979MOL0     O35000   9.146  11.602  11.803  0.7036 -0.2371  0.4082
  979MOL0     C35001   9.197  11.554  11.933  0.8831 -0.7421  0.2805
  979MOL0     C35002   9.238  11.667  12.023  0.5305 -0.6077  0.6918
  979MOL0     C35003   9.259  11.620  12.155  0.5835 -0.5847 -0.5362
  979MOL0     C35004   9.293  11.738  12.242 -0.6045  0.0506  0.6037
  979MOL0     C35005   9.283  11.708  12.384 -0.6900 -0.1939 -0.1079
  979MOL0     C35006   9.321  11.820  12.488  0.7710  0.2288  1.1384
  979MOL0     C35007   9.373  11.772  12.631 -0.2189  0.1637 -0.1051
  979MOL0     C35008   9.382  11.874  12.733 -0.6766 -0.3832 -0.2373
  979MOL0    Cl35009   9.514  11.987  12.692 -0.2654 -0.2461  0.2124
  979MOL0     C35010   9.127  11.384  11.694 -0.4601 -0.9932  0.1287
  979MOL0     C35011   9.112  11.311  11.574  0.7295  0.1115 -0.1882
  979MOL0     O35012   9.316  11.326  11.264  0.5607 -0.2261  0.1042
  979MOL0     C35013   9.234  11.286  10.992  0.5903 -0.4864 -0.1403
  979MOL0     C35014   9.192  11.232  10.868 -0.3717 -1.2470 -0.2077
  979MOL0     N35015   8.719  10.828  10.433  0.5055 -0.1952  0.3911
  979MOL0     N35016   8.671  10.710  10.407 -0.9367 -1.1269  0.8867
  979MOL0     C35017   8.154   9.547  10.534  0.4553 -0.1023  0.5075
  979MOL0     C35018   8.054   9.506  10.622 -0.1363  0.3562 -0.2665
  979MOL0     C35019   7.827   9.320  10.966 -0.5427  0.4398  0.6660
  979MOL0     C35020   7.732   9.417  10.996  0.4040 -0.6298 -0.6079
  979MOL0     C35021   7.618   9.390  11.066  0.7315 -0.7861 -0.4233
  979MOL0     C35022   7.609   9.260  11.124 -0.6723  1.0186  1.1867
  979MOL0     O35023   7.507   9.211  11.203 -0.2010 -0.0282 -0.0755
  979MOL0     C35024   7.422   9.310  11.266  1.3698 -0.5082  0.6596
  979MOL0     C35025   7.292   9.353  11.192 -0.7144 -0.1334 -0.4962
  979MOL0     C35026   7.226   9.474  11.262 -0.9133  1.0443  0.1555
  979MOL0     C35027   7.107   9.535  11.191 -0.6444  0.4797  0.4178
  979MOL0     C35028   7.153   9.616  11.074  0.5544  1.2556 -0.5259
  979MOL0     C35029   7.189   9.679  10.973  0.4112 -0.8541  0.4293
  979MOL0     C35030   7.702   9.164  11.097 -0.0302 -0.0318  0.5634
  979MOL0     C35031   7.814   9.189  11.023  0.2946 -0.2359  0.4470
  979MOL0     C35032   7.902   9.067  10.990  0.3668 -0.0275 -0.3016
  979MOL0     H35033   8.213   9.540  10.916  6.2185  0.9609 -0.4691
  979MOL0     H35034   8.402   9.595  10.753  0.0348  1.9783  0.5249
  979MOL0     H35035   8.562   9.688  10.437 -0.0328  3.6503 -0.0409
  979MOL0     H35036   8.556   9.655  10.618 -0.8779 -0.4092  0.2138
  979MOL0     H35037   8.369   9.862  10.486 -2.0848  1.1745  2.6559
  979MOL0     H35038   8.394   9.848  10.650 -1.5795 -0.5136 -1.8893
  979MOL0     H35039   8.582   9.969  10.655  2.3674  1.0920  0.0193
  979MOL0     H35040   8.643   9.902  10.496  0.7253  1.1412  0.2992
  979MOL0     H35041   8.452  10.040  10.400  2.0308  2.9526 -2.8875
  979MOL0     H35042   8.439  10.115  10.554 -1.3260 -0.2817 -1.8921
  979MOL0     H35043   8.596  10.236  10.373 -0.6830  0.4813  0.5803
  979MOL0     H35044   8.713  10.104  10.415  1.5863  2.1642 -1.8712
  979MOL0     H35045   8.602  10.282  10.624 -0.6612 -0.2203 -1.4299
  979MOL0     H35046   8.764  10.201  10.632 -0.2247  0.4728  0.9606
  979MOL0     H35047   8.797  10.374  10.417  2.6746  0.6479  0.4074
  979MOL0     H35048   8.844  10.418  10.575 -0.0077  1.2412 -1.9376
  979MOL0     H35049   8.592  10.487  10.430  1.2826  0.8898 -1.2699
  979MOL0     H35050   8.591  10.492  10.614  0.0485  0.7569 -0.2643
  979MOL0     H35051   8.766  10.663  10.716  1.1977  0.5445 -0.4214
  979MOL0     H35052   8.909  10.934  10.683 -0.0216  3.2823  3.7898
  979MOL0     H35053   8.750  10.994  10.699 -1.7598  4.5817 -2.8346
  979MOL0     H35054   8.924  11.027  10.455  0.5712 -2.1259  1.3354
  979MOL0     H35055   8.761  11.107  10.464 -2.0376  0.3628  2.6069
  979MOL0     H35056   8.865  11.295  10.523 -2.5272  1.3242  1.7530
  979MOL0     H35057   8.844  11.233  10.672  1.1971  0.7816  0.5239
  979MOL0     H35058   9.104  11.177  10.540 -2.8578  0.0193 -1.2891
  979MOL0     H35059   9.075  11.304  10.667  1.0598  0.0763  0.2783
  979MOL0     H35060   8.939  11.038  10.952 -3.0886  2.5250  1.4129
  979MOL0     H35061   8.889  11.201  11.230 -0.1510  1.4542 -3.5864
  979MOL0     H35062   9.020  11.078  11.278 -3.7721 -2.9249  0.9427
  979MOL0     H35063   8.902  11.042  11.157  2.7547 -2.0084 -0.3813
  979MOL0     H35064   9.135  11.577  11.356 -2.7979  0.4633  0.6317
  979MOL0     H35065   9.178  11.692  11.562  0.8629  0.4998  0.6000
  979MOL0     H35066   9.117  11.498  11.982 -1.2028  1.1063 -0.8514
  979MOL0     H35067   9.277  11.481  11.915 -0.4173 -2.4375  1.0807
  979MOL0     H35068   9.332  11.706  11.985  0.0988  2.0472  2.1104
  979MOL0     H35069   9.158  11.742  12.018  1.8998  0.8013 -2.3178
  979MOL0     H35070   9.328  11.535  12.165  0.3828 -1.1011 -2.9240
  979MOL0     H35071   9.163  11.580  12.187  1.4892 -0.8588  2.0921
  979MOL0     H35072   9.225  11.820  12.217  3.2453  4.0983  1.9143
  979MOL0     H35073   9.394  11.772  12.214 -0.7854  1.1825  1.2486
  979MOL0     H35074   9.193  11.650  12.405 -0.5218 -0.6587 -0.6438
  979MOL0     H35075   9.362  11.635  12.402 -1.5105 -0.6655  1.7535
  979MOL0     H35076   9.227  11.876  12.495  1.1740  0.9076  1.2594
  979MOL0     H35077   9.396  11.885  12.442 -0.3233  0.5855 -0.2270
  979MOL0     H35078   9.473  11.737  12.603  1.0897  2.2695  1.5854
  979MOL0     H35079   9.315  11.688  12.670  2.3394 -1.3609  0.7144
  979MOL0     H35080   9.383  11.828  12.832  2.2161 -1.2400 -0.5693
  979MOL0     H35081   9.292  11.934  12.720 -1.6697 -1.7993 -0.1651
  979MOL0     H35082   9.105  11.327  11.784 -2.5397 -2.1420 -1.0554
  979MOL0     H35083   9.085  11.205  11.576 -0.0973  0.1926  4.2962
  979MOL0     H35084   9.321  11.350  10.980  1.9092 -2.3364 -0.8979
  979MOL0     H35085   9.252  11.271  10.787 -2.6369  1.0846 -0.8924
  979MOL0     H35086   8.131   9.540  10.428 -0.7614 -2.9329  0.8747
  979MOL0     H35087   7.964   9.462  10.581 -0.5414  1.7742 -0.9461
  979MOL0     H35088   7.738   9.513  10.947  1.1093  0.0652  0.8010
  979MOL0     H35089   7.528   9.449  11.054 -1.1614 -2.8278  2.5319
  979MOL0     H35090   7.387   9.266  11.360  0.2956 -3.2102 -0.9087
  979MOL0     H35091   7.482   9.399  11.288 -0.9793  1.2119  0.5070
  979MOL0     H35092   7.227   9.265  11.180 -1.8371  0.9126 -2.5263
  979MOL0     H35093   7.329   9.381  11.093  0.1164  1.7325  0.3002
  979MOL0     H35094   7.184   9.437  11.356  2.0296 -1.9939  0.4630
  979MOL0     H35095   7.302   9.548  11.285  1.4859 -0.7809 -1.3581
  979MOL0     H35096   7.048   9.587  11.267  1.3744  2.7707  0.5416
  979MOL0     H35097   7.052   9.444  11.165 -0.8361  0.4352  0.9808
  979MOL0     H35098   7.211   9.740  10.888  1.1881  0.3009  1.4244
  979MOL0     H35099   7.694   9.069  11.148 -0.1407  0.3428  1.2522
  979MOL0     H35100   7.875   8.972  11.036  2.7454 -0.1187  1.0453
  979MOL0     H35101   7.919   9.051  10.883 -2.5499  2.6494 -1.3243
  979MOL0     H35102   8.001   9.085  11.032  0.4112  0.5258 -0.6259
  980MOL0     O35103   8.428   0.310   8.178  0.5264  0.8631 -0.3991
  980MOL0     C35104   8.322   0.248   8.188 -0.0845 -0.1669 -0.3467
  980MOL0     O35105   8.220   0.293   8.250  0.1955  1.1546  0.1162
  980MOL0     C35106   8.211   0.427   8.275 -0.3289  0.1890  0.5378
  980MOL0     C35107   8.282   0.486   8.380 -0.5584 -0.0346  0.1043
  980MOL0     C35108   8.260   0.615   8.423 -1.0191  0.3366 -0.9113
  980MOL0     C35109   8.159   0.690   8.356  0.0588 -0.0820  0.0380
  980MOL0     O35110   8.119   0.813   8.395 -0.5475  0.0750  0.1759
  980MOL0     C35111   8.170   0.867   8.515  0.5071  0.6261  0.4739
  980MOL0     C35112   8.306   0.919   8.479  0.4037  0.0996  0.6053
  980MOL0     C35113   8.297   1.023   8.363 -0.3462 -1.1761 -0.3989
  980MOL0     C35114   8.307   0.972   8.219  0.0639  0.0329  0.5437
  980MOL0     C35115   8.341   1.065   8.115  0.8504 -0.1206 -0.0129
  980MOL0     C35116   8.430   1.021   7.994  0.0342 -0.3473  0.1725
  980MOL0     C35117   8.462   1.128   7.885 -0.0290 -0.2083  0.5786
  980MOL0     C35118   8.344   1.132   7.787  0.5679  0.0310 -0.0219
  980MOL0     N35119   8.367   1.214   7.668  0.7645 -0.1133 -1.6023
  980MOL0     C35120   8.376   1.204   7.524 -0.3227  0.4922  0.1471
  980MOL0     C35121   8.368   1.330   7.478 -0.3146 -0.7164  0.0422
  980MOL0     C35122   8.381   1.366   7.329  0.4882 -0.1384 -0.2042
  980MOL0     C35123   8.518   1.440   7.318  0.2382 -0.5511  0.1722
  980MOL0     C35124   8.547   1.503   7.192  0.5538 -0.3723  0.5401
  980MOL0     C35125   8.502   1.435   7.062 -0.3177 -0.5837  0.1401
  980MOL0     O35126   8.591   1.498   6.963 -0.6030 -0.6235  0.4640
  980MOL0     C35127   8.639   1.409   6.866 -0.2396  0.2179  0.6381
  980MOL0     C35128   8.764   1.366   6.864 -0.2408  1.0178 -0.1493
  980MOL0     C35129   8.806   1.265   6.771  0.4621  0.2654 -1.1883
  980MOL0     C35130   8.940   1.207   6.783  0.0365  0.4852 -0.4245
  980MOL0     C35131   8.722   1.220   6.673  1.0461  0.2378  0.7211
  980MOL0     C35132   8.756   1.117   6.571 -0.5738  0.7441  1.1151
  980MOL0     O35133   8.852   1.023   6.606 -0.4646 -0.1368  0.4952
  980MOL0     C35134   8.933   0.965   6.508 -0.2391  0.3635 -0.1261
  980MOL0     C35135   8.988   1.029   6.401  0.1403 -0.2304 -0.3646
  980MOL0     C35136   9.090   0.973   6.329  0.5430 -0.1315  0.3586
  980MOL0     C35137   9.126   0.836   6.346 -0.0964  1.0316  0.6192
  980MOL0     O35138   9.227   0.772   6.278  0.2745 -0.1669 -0.4074
  980MOL0     C35139   9.206   0.627   6.277 -0.4541  0.2068  1.2132
  980MOL0     C35140   9.300   0.564   6.179 -0.0216 -0.6044  0.1928
  980MOL0     C35141   9.227   0.524   6.049  0.1783  1.1943 -0.3053
  980MOL0     C35142   9.223   0.639   5.948 -0.4273  1.2233 -0.0853
  980MOL0     C35143   9.104   0.733   5.973  0.3695 -1.1053 -0.5958
  980MOL0     C35144   9.099   0.837   5.860 -0.1429  0.5111 -0.0543
  980MOL0     C35145   8.967   0.932   5.856  0.4473  1.2483  0.8284
  980MOL0     C35146   8.955   1.031   5.974  0.1773  0.6321  0.9797
  980MOL0    Cl35147   9.022   1.184   5.918  0.1018 -0.2212  0.3140
  980MOL0     C35148   9.069   0.770   6.454  0.6843 -0.0479 -0.8802
  980MOL0     C35149   8.976   0.839   6.537 -0.5406  1.0015 -0.6507
  980MOL0     O35150   8.681   1.104   6.476  0.0927 -0.6730 -0.4251
  980MOL0     C35151   8.594   1.269   6.683  0.0942 -0.0964  1.2038
  980MOL0     C35152   8.552   1.365   6.775 -0.7601 -0.1656 -0.6375
  980MOL0     N35153   8.356   1.421   7.584  0.4875 -0.1557 -0.0648
  980MOL0     N35154   8.355   1.354   7.691 -0.1257  0.1004 -0.2257
  980MOL0     C35155   8.086   0.632   8.250 -0.1182 -0.3505  0.8425
  980MOL0     C35156   8.118   0.505   8.209  0.3182 -0.1986 -0.8569
  980MOL0     C35157   8.317   0.102   8.138  0.2705  0.2291  0.7348
  980MOL0     C35158   8.438   0.026   8.136  0.5570 -0.1520 -0.4751
  980MOL0     C35159   8.435  -0.116   8.106  0.7144 -0.4218 -0.0927
  980MOL0     C35160   8.317  -0.169   8.057 -0.6914  0.1991  0.6902
  980MOL0     O35161   8.310  -0.298   8.018  0.4366 -0.3383  0.6751
  980MOL0     C35162   8.244  -0.313   7.892 -0.0479  0.3311  0.8922
  980MOL0     C35163   8.302  -0.443   7.859  0.0662 -0.4025  0.4783
  980MOL0     C35164   8.307  -0.452   7.708  0.4948  0.1846 -0.4058
  980MOL0     C35165   8.300  -0.582   7.636  0.6059  0.0341  0.2034
  980MOL0     C35166   8.190  -0.677   7.661  0.6528 -1.2296 -0.6159
  980MOL0     C35167   8.099  -0.752   7.681  0.2990  0.1051 -0.3782
  980MOL0     C35168   8.201  -0.085   8.043 -0.6617 -0.2564 -0.5299
  980MOL0     C35169   8.196   0.047   8.088  0.7125 -0.6612  0.7037
  980MOL0     C35170   8.061   0.111   8.063 -0.3075  0.6284  0.6474
  980MOL0     H35171   8.345   0.419   8.438 -0.0902  1.7717  1.7676
  980MOL0     H35172   8.320   0.649   8.507 -2.0168 -1.0929  0.4384
  980MOL0     H35173   8.162   0.793   8.595 -2.3840 -1.5994 -1.6512
  980MOL0     H35174   8.097   0.943   8.545 -1.2249 -1.7085  2.6513
  980MOL0     H35175   8.348   0.973   8.564  1.4625  0.9918 -0.4558
  980MOL0     H35176   8.386   0.850   8.451  1.7264  2.5541 -2.2590
  980MOL0     H35177   8.201   1.072   8.380  0.3297 -0.4656  1.5759
  980MOL0     H35178   8.377   1.096   8.380  0.1632 -2.1907  2.0005
  980MOL0     H35179   8.355   0.874   8.213 -1.7263 -0.8796  0.5637
  980MOL0     H35180   8.206   0.940   8.191  1.5502 -1.9591 -3.4290
  980MOL0     H35181   8.406   1.141   8.161  2.2500 -0.3025 -1.5914
  980MOL0     H35182   8.252   1.115   8.076 -1.0355 -2.3488  1.1460
  980MOL0     H35183   8.525   0.981   8.033 -0.6567 -3.2896 -0.9054
  980MOL0     H35184   8.387   0.931   7.950 -3.7193  0.5018  1.7377
  980MOL0     H35185   8.559   1.116   7.835  0.0028  1.3701  0.1954
  980MOL0     H35186   8.476   1.226   7.931  1.6828 -0.4921  0.7110
  980MOL0     H35187   8.319   1.029   7.761  0.3577  0.1932 -0.4597
  980MOL0     H35188   8.253   1.160   7.841  0.0917 -0.4551 -0.5720
  980MOL0     H35189   8.376   1.108   7.472 -2.5735  0.5092  0.0106
  980MOL0     H35190   8.294   1.419   7.290 -1.2982 -2.8014 -0.1116
  980MOL0     H35191   8.404   1.275   7.272  1.5182  1.5302 -2.6303
  980MOL0     H35192   8.511   1.520   7.392 -0.9934 -1.0513  0.6160
  980MOL0     H35193   8.602   1.374   7.342  0.1912 -1.0572 -0.9929
  980MOL0     H35194   8.507   1.603   7.211  3.6246  1.0175  0.2582
  980MOL0     H35195   8.653   1.526   7.179  0.5814 -1.2280 -0.9156
  980MOL0     H35196   8.527   1.329   7.046  1.6375  0.3715 -5.2713
  980MOL0     H35197   8.400   1.462   7.037  0.4602  1.9037 -0.6074
  980MOL0     H35198   8.833   1.390   6.945  0.0822 -1.1085  0.2829
  980MOL0     H35199   8.998   1.196   6.690 -0.2612 -0.4968 -0.5055
  980MOL0     H35200   8.920   1.115   6.838 -0.6897  0.4189 -0.7910
  980MOL0     H35201   9.002   1.263   6.854 -0.1717  0.5788 -0.3170
  980MOL0     H35202   8.960   1.132   6.378  0.5123 -0.1565 -0.4904
  980MOL0     H35203   9.132   1.041   6.256  0.5042 -0.8741 -0.3787
  980MOL0     H35204   9.237   0.580   6.371  1.7653  0.7202  0.7995
  980MOL0     H35205   9.107   0.584   6.261  0.4874 -1.1458 -1.9084
  980MOL0     H35206   9.386   0.628   6.157 -1.4592  0.5053 -2.8226
  980MOL0     H35207   9.341   0.470   6.217 -1.4718 -1.1902  0.3715
  980MOL0     H35208   9.122   0.497   6.062 -1.1068  3.8632 -3.4722
  980MOL0     H35209   9.279   0.439   6.003 -4.8827 -0.0350 -4.8262
  980MOL0     H35210   9.215   0.595   5.848  1.2283 -1.4141  0.8253
  980MOL0     H35211   9.316   0.697   5.954 -0.5922  1.4998 -0.2190
  980MOL0     H35212   9.010   0.677   5.980 -1.8416  2.3551 -0.3327
  980MOL0     H35213   9.121   0.788   6.066 -2.1730 -0.8890 -0.1989
  980MOL0     H35214   9.115   0.790   5.763  0.8827  1.7138 -0.4842
  980MOL0     H35215   9.183   0.900   5.888  1.5687 -1.1879 -1.1187
  980MOL0     H35216   8.891   0.854   5.857  0.8835  0.8154  0.7441
  980MOL0     H35217   8.958   0.988   5.762 -3.0620  0.2712  0.4531
  980MOL0     H35218   9.012   1.001   6.062  0.8773 -1.8926 -0.2479
  980MOL0     H35219   8.850   1.035   6.003 -0.5858  3.3792 -1.6469
  980MOL0     H35220   9.103   0.674   6.491 -2.1829 -0.4248  1.2029
  980MOL0     H35221   8.953   0.794   6.633  2.4875 -1.0306 -0.7559
  980MOL0     H35222   8.525   1.231   6.608  2.1446  0.2605 -0.9993
  980MOL0     H35223   8.448   1.394   6.780 -0.7141 -0.1940  1.5573
  980MOL0     H35224   8.005   0.685   8.199  1.0070  0.3172 -0.3110
  980MOL0     H35225   8.056   0.461   8.132 -3.9158  0.5111  1.8313
  980MOL0     H35226   8.534   0.075   8.152  1.1209 -1.9219  2.1716
  980MOL0     H35227   8.521  -0.179   8.121 -0.8554 -2.8507 -0.7195
  980MOL0     H35228   8.136  -0.324   7.906 -0.1964  0.8248  0.1551
  980MOL0     H35229   8.259  -0.227   7.827 -2.6917  2.2505  2.6236
  980MOL0     H35230   8.244  -0.520   7.909  2.8939 -0.3205  4.3527
  980MOL0     H35231   8.406  -0.462   7.890  1.1635 -1.0981 -3.1193
  980MOL0     H35232   8.227  -0.388   7.672  0.9208  0.5591 -0.7047
  980MOL0     H35233   8.395  -0.397   7.674  0.2745 -0.1676 -1.5685
  980MOL0     H35234   8.387  -0.642   7.667 -0.2814 -0.1245  2.6177
  980MOL0     H35235   8.305  -0.569   7.528 -2.8949 -1.8146 -0.3119
  980MOL0     H35236   8.020  -0.824   7.690 -0.8195  0.9416 -2.7955
  980MOL0     H35237   8.107  -0.131   8.012 -0.8543  1.4707 -2.6900
  980MOL0     H35238   8.027   0.094   7.961 -1.7906  2.6552  0.7489
  980MOL0     H35239   7.984   0.072   8.131 -0.8386 -0.0711 -0.3407
  980MOL0     H35240   8.075   0.219   8.058  1.2544  0.3978 -3.1046
  981MOL0     O35241   7.185   6.623   1.092 -0.0500  0.0832  0.3524
  981MOL0     C35242   7.243   6.562   0.999 -0.3763 -0.0265 -0.3359
  981MOL0     O35243   7.183   6.497   0.894  1.3263 -0.3485  0.2758
  981MOL0     C35244   7.069   6.551   0.853  0.4099 -0.8644 -0.3585
  981MOL0     C35245   6.944   6.545   0.914  0.8249 -0.5707 -0.9553
  981MOL0     C35246   6.829   6.606   0.853  0.3273 -0.7048 -0.5282
  981MOL0     C35247   6.840   6.688   0.738  0.3034 -0.4152 -0.3692
  981MOL0     O35248   6.735   6.765   0.698 -0.0600 -0.2516  0.0972
  981MOL0     C35249   6.739   6.900   0.740  0.1456  0.1016 -0.0827
  981MOL0     C35250   6.592   6.948   0.771  0.2538  0.4845  0.3091
  981MOL0     C35251   6.522   6.855   0.877  1.2136 -0.4544  0.4282
  981MOL0     C35252   6.422   6.760   0.802 -0.2180  0.4624 -0.2687
  981MOL0     C35253   6.328   6.717   0.916  0.5036  0.9184  0.7478
  981MOL0     C35254   6.213   6.825   0.939  0.2146 -0.5720 -0.0287
  981MOL0     C35255   6.137   6.778   1.059  0.0933  0.1207  0.4078
  981MOL0     C35256   6.022   6.874   1.102 -1.0748 -0.3643  0.8602
  981MOL0     N35257   5.900   6.844   1.034  0.5286 -0.4667 -0.5698
  981MOL0     C35258   5.857   6.895   0.913  0.2643  0.8035  0.8870
  981MOL0     C35259   5.720   6.856   0.908 -1.2304 -1.1075 -0.8512
  981MOL0     C35260   5.632   6.870   0.786 -0.2636 -0.3202  0.1769
  981MOL0     C35261   5.619   6.729   0.716 -0.4362 -0.9933 -0.9696
  981MOL0     C35262   5.551   6.759   0.584 -0.6775  0.0928  0.0383
  981MOL0     C35263   5.402   6.748   0.578  1.3963  0.1058 -0.7229
  981MOL0     O35264   5.362   6.653   0.672 -1.0275  0.0188 -0.4486
  981MOL0     C35265   5.268   6.684   0.762  0.5967 -0.1816 -0.4512
  981MOL0     C35266   5.279   6.631   0.895 -0.2798 -0.4115  0.4399
  981MOL0     C35267   5.185   6.669   0.994 -0.6409  0.2114 -0.4711
  981MOL0     C35268   5.186   6.611   1.134 -0.1238  0.1007 -0.1208
  981MOL0     C35269   5.080   6.769   0.966  0.5410 -0.3686 -0.7492
  981MOL0     C35270   4.985   6.837   1.063  0.4490 -0.6616 -0.4895
  981MOL0     O35271   4.938   6.957   1.020  0.4951 -0.7718 -0.2924
  981MOL0     C35272   4.854   7.014   1.124  0.8870  0.1585 -0.0137
  981MOL0     C35273   4.718   6.975   1.137  0.0984 -0.4055 -0.2957
  981MOL0     C35274   4.654   7.015   1.253 -0.2090  0.0999 -0.4872
  981MOL0     C35275   4.712   7.115   1.341 -0.1534  0.5957  0.6950
  981MOL0     O35276   4.636   7.138   1.456  0.2514 -0.3778  0.0024
  981MOL0     C35277   4.658   7.265   1.526  0.5299 -0.0713 -0.2692
  981MOL0     C35278   4.644   7.385   1.436  0.8926  0.4813  0.0296
  981MOL0     C35279   4.508   7.398   1.358 -1.1902  0.1291 -0.7366
  981MOL0     C35280   4.513   7.504   1.258  0.0737 -0.4921 -0.2395
  981MOL0     C35281   4.380   7.539   1.207  0.3410  0.4801  0.0145
  981MOL0     C35282   4.378   7.639   1.092  0.7978  0.1171 -0.4839
  981MOL0     C35283   4.232   7.683   1.076  0.8130  0.7251 -0.2204
  981MOL0     C35284   4.175   7.612   0.960 -0.0011 -0.1423 -0.6703
  981MOL0    Cl35285   3.997   7.604   1.002  0.1017  0.3864  0.3087
  981MOL0     C35286   4.839   7.167   1.316 -0.2859  1.0259 -0.0950
  981MOL0     C35287   4.907   7.114   1.202  0.0397 -0.0362 -0.4428
  981MOL0     O35288   4.955   6.779   1.163 -0.0555  0.7341  0.3342
  981MOL0     C35289   5.074   6.811   0.832 -0.6927  0.5151 -0.0665
  981MOL0     C35290   5.156   6.758   0.735  0.4977  0.2147 -0.2616
  981MOL0     N35291   5.687   6.798   1.030 -0.0471  0.3130 -0.6126
  981MOL0     N35292   5.784   6.818   1.111  0.1607  0.2629  0.2535
  981MOL0     C35293   6.964   6.696   0.681 -1.1352  0.1204 -0.5158
  981MOL0     C35294   7.075   6.619   0.734  0.3186 -0.6259 -0.4305
  981MOL0     C35295   7.387   6.535   1.025  0.2336 -0.3450  0.2209
  981MOL0     C35296   7.460   6.648   1.019  0.6357 -0.2753 -0.6380
  981MOL0     C35297   7.596   6.651   1.041 -0.1263 -0.0826  0.9529
  981MOL0     C35298   7.664   6.527   1.073 -0.1487 -0.9745  0.3703
  981MOL0     O35299   7.801   6.534   1.101 -0.0971 -0.4484 -0.6665
  981MOL0     C35300   7.879   6.450   1.015  0.0793  0.4610 -0.0323
  981MOL0     C35301   8.020   6.506   1.028  0.6825  0.3432 -0.4401
  981MOL0     C35302   8.120   6.463   0.917  0.5808 -0.5967 -0.0355
  981MOL0     C35303   8.251   6.542   0.916  0.8384  0.6914 -0.1517
  981MOL0     C35304   8.331   6.505   0.803  0.6905 -0.4907 -0.3038
  981MOL0     C35305   8.397   6.468   0.705  0.2850 -0.6260  0.4553
  981MOL0     C35306   7.584   6.418   1.079  0.0744 -0.7585 -0.2021
  981MOL0     C35307   7.446   6.409   1.058  0.2142 -0.4209  0.0203
  981MOL0     C35308   7.384   6.273   1.077 -0.2795 -0.1932 -0.0243
  981MOL0     H35309   6.947   6.485   1.005  1.1497 -1.0122 -1.2538
  981MOL0     H35310   6.732   6.601   0.902  1.0497 -1.0964  0.9272
  981MOL0     H35311   6.777   6.954   0.653 -0.2180 -0.0551 -0.3393
  981MOL0     H35312   6.797   6.916   0.832  1.2811  4.0801 -1.2867
  981MOL0     H35313   6.575   7.047   0.816  1.6037  0.7778  0.2037
  981MOL0     H35314   6.543   6.947   0.673  2.0554 -0.6166 -0.6224
  981MOL0     H35315   6.586   6.800   0.947 -2.6994 -3.4182  2.0986
  981MOL0     H35316   6.466   6.923   0.943 -0.2702 -1.1979 -0.0243
  981MOL0     H35317   6.367   6.818   0.727 -2.2585  1.9852  2.2561
  981MOL0     H35318   6.477   6.676   0.757 -3.3408 -2.6306  1.1848
  981MOL0     H35319   6.394   6.704   1.003  1.8953  1.1657 -0.2493
  981MOL0     H35320   6.274   6.625   0.892 -1.7435  2.2546  0.3498
  981MOL0     H35321   6.265   6.916   0.970  2.8681 -2.4768  1.5225
  981MOL0     H35322   6.149   6.833   0.851  2.1499 -0.8784 -1.5110
  981MOL0     H35323   6.210   6.775   1.141  1.7838 -2.3093 -1.0598
  981MOL0     H35324   6.082   6.684   1.051 -2.5086  1.5628  0.0835
  981MOL0     H35325   6.006   6.871   1.210 -1.2679  0.5214  0.8649
  981MOL0     H35326   6.054   6.978   1.084 -0.3279 -0.8349 -0.7958
  981MOL0     H35327   5.922   6.948   0.844 -0.0444 -0.2211 -0.2275
  981MOL0     H35328   5.657   6.956   0.722 -1.5557  0.4743  0.6871
  981MOL0     H35329   5.530   6.903   0.811 -0.5909  1.0871 -2.6382
  981MOL0     H35330   5.721   6.690   0.705 -0.0508 -0.0975 -0.6185
  981MOL0     H35331   5.570   6.663   0.789  3.1078  1.3999  4.1746
  981MOL0     H35332   5.583   6.855   0.544  2.0064  0.1798  2.1454
  981MOL0     H35333   5.586   6.676   0.522 -0.7780 -1.7222  2.2767
  981MOL0     H35334   5.359   6.847   0.599  4.9788  1.7431 -0.4509
  981MOL0     H35335   5.356   6.717   0.483  0.3895  0.0035 -0.2103
  981MOL0     H35336   5.349   6.554   0.926  1.2370  0.9758  0.5773
  981MOL0     H35337   5.100   6.548   1.158  0.4914 -0.1441  1.5948
  981MOL0     H35338   5.188   6.694   1.206 -0.7662  0.0536 -0.0403
  981MOL0     H35339   5.275   6.550   1.150  0.9469  1.5833 -0.2609
  981MOL0     H35340   4.677   6.891   1.083  0.4682 -1.1291  0.5349
  981MOL0     H35341   4.553   6.989   1.284 -0.5870  2.7495  0.7854
  981MOL0     H35342   4.585   7.281   1.606 -0.1211 -1.4547 -0.5452
  981MOL0     H35343   4.755   7.269   1.576  0.2257  0.1069  0.3194
  981MOL0     H35344   4.668   7.471   1.499 -0.9481 -0.6105  2.4212
  981MOL0     H35345   4.721   7.391   1.359 -0.3271 -0.2709 -1.2870
  981MOL0     H35346   4.422   7.418   1.424 -3.3046  0.4031 -3.4142
  981MOL0     H35347   4.490   7.309   1.298  0.2132 -1.6970  1.3844
  981MOL0     H35348   4.578   7.481   1.173  0.9048  1.5377 -0.2249
  981MOL0     H35349   4.568   7.589   1.300  2.3494 -2.9584  2.1835
  981MOL0     H35350   4.334   7.444   1.178  0.6788  0.7319 -1.4587
  981MOL0     H35351   4.318   7.579   1.288 -0.0174  2.8400 -1.3255
  981MOL0     H35352   4.416   7.598   0.998  0.4290  2.0200 -1.5184
  981MOL0     H35353   4.443   7.723   1.120 -1.2620  1.1615  1.5448
  981MOL0     H35354   4.229   7.792   1.067 -1.1281  0.7657  0.4648
  981MOL0     H35355   4.172   7.653   1.162 -0.5260  1.7038 -0.7756
  981MOL0     H35356   4.222   7.513   0.958  1.8579  0.2526  5.0564
  981MOL0     H35357   4.189   7.675   0.871  2.1569  2.5276  1.3692
  981MOL0     H35358   4.903   7.233   1.375  2.0782 -1.2352  0.0294
  981MOL0     H35359   5.008   7.149   1.180  1.4594 -3.4095  0.0413
  981MOL0     H35360   4.998   6.880   0.798 -0.2111 -0.0474 -2.5290
  981MOL0     H35361   5.132   6.768   0.630 -1.6865  1.6001  0.2902
  981MOL0     H35362   6.982   6.771   0.605 -0.0860 -0.5446 -0.9491
  981MOL0     H35363   7.168   6.638   0.682  0.2759  1.0114  0.0637
  981MOL0     H35364   7.427   6.747   0.988  3.0524  0.6689 -0.4262
  981MOL0     H35365   7.647   6.743   1.014  3.2466 -1.9925  0.3071
  981MOL0     H35366   7.871   6.343   1.038 -2.8488 -0.1908 -3.1427
  981MOL0     H35367   7.843   6.454   0.911 -0.4000 -1.0914  0.0445
  981MOL0     H35368   8.068   6.484   1.123 -3.3871 -0.0933  1.7212
  981MOL0     H35369   8.010   6.614   1.017  2.1361  0.6130  0.6366
  981MOL0     H35370   8.155   6.359   0.922  1.5274 -0.2782  0.2078
  981MOL0     H35371   8.061   6.481   0.827 -3.2017  3.0648  2.7412
  981MOL0     H35372   8.304   6.526   1.010 -2.3544 -0.4719  1.5744
  981MOL0     H35373   8.221   6.647   0.910  2.7355  1.3122  0.5123
  981MOL0     H35374   8.436   6.433   0.611  2.4131 -1.2295  1.5053
  981MOL0     H35375   7.647   6.333   1.104  0.1438 -0.6015  0.1645
  981MOL0     H35376   7.459   6.199   1.107 -1.7397 -1.6324  0.2170
  981MOL0     H35377   7.306   6.286   1.152 -3.2129 -4.9755 -1.7700
  981MOL0     H35378   7.337   6.244   0.982  1.1723 -0.0384 -0.8272
  982MOL0     O35379   6.918   4.872   5.304  0.4771  0.3078  0.3077
  982MOL0     C35380   6.885   4.919   5.191  0.2355  0.3336 -1.2679
  982MOL0     O35381   6.802   4.860   5.095  0.2292 -0.2678  0.2009
  982MOL0     C35382   6.725   4.753   5.132 -0.5431 -0.3715 -0.4862
  982MOL0     C35383   6.581   4.754   5.128  0.5323 -1.0357  0.5782
  982MOL0     C35384   6.502   4.637   5.157 -0.3619 -0.0310 -0.1519
  982MOL0     C35385   6.564   4.516   5.185 -0.1133  0.4584  0.1769
  982MOL0     O35386   6.494   4.398   5.197 -0.2824  0.7647  0.1860
  982MOL0     C35387   6.422   4.377   5.320  0.5503  0.4265 -0.4913
  982MOL0     C35388   6.493   4.311   5.445  0.0836  0.2137 -0.6096
  982MOL0     C35389   6.547   4.173   5.407 -0.5494  0.1904 -0.3654
  982MOL0     C35390   6.505   4.069   5.518  0.6997  0.1372 -0.2536
  982MOL0     C35391   6.595   3.944   5.513 -0.0096 -0.5309  0.3224
  982MOL0     C35392   6.569   3.846   5.397 -0.8184 -1.2297  0.1488
  982MOL0     C35393   6.699   3.823   5.315 -0.3424  0.4953  0.8222
  982MOL0     C35394   6.789   3.706   5.353 -0.5415  0.2822 -0.7239
  982MOL0     N35395   6.738   3.576   5.311  0.2477  0.1572 -0.3651
  982MOL0     C35396   6.754   3.468   5.383 -0.6547  1.4261  1.4683
  982MOL0     C35397   6.730   3.375   5.290  0.1548  0.5444  0.2490
  982MOL0     C35398   6.738   3.235   5.330  0.4677  0.0927  0.8261
  982MOL0     C35399   6.607   3.178   5.380  0.7277 -0.8349  0.5900
  982MOL0     C35400   6.579   3.038   5.347 -0.0858 -0.7691  0.3429
  982MOL0     C35401   6.681   2.943   5.402  0.1544 -1.0905  0.0140
  982MOL0     O35402   6.661   2.821   5.322 -0.1564 -0.1129  0.4707
  982MOL0     C35403   6.752   2.724   5.335 -0.7382  0.2054  1.0477
  982MOL0     C35404   6.771   2.636   5.235 -0.4168  1.5304 -0.9469
  982MOL0     C35405   6.866   2.535   5.233 -0.7053  0.2038  0.6051
  982MOL0     C35406   6.872   2.454   5.101  0.3193 -0.1937 -0.8577
  982MOL0     C35407   6.938   2.502   5.348 -0.5704 -0.1364  1.0709
  982MOL0     C35408   7.019   2.382   5.365  0.7821 -0.5585 -0.8142
  982MOL0     O35409   7.130   2.399   5.437 -0.5870  0.8776 -0.0365
  982MOL0     C35410   7.196   2.277   5.468 -0.6483  0.0652 -0.6124
  982MOL0     C35411   7.133   2.191   5.559 -0.0440 -0.0365  0.1715
  982MOL0     C35412   7.196   2.073   5.586  0.0508 -0.2158 -0.2285
  982MOL0     C35413   7.317   2.037   5.535 -0.0519  0.3494 -0.4028
  982MOL0     O35414   7.360   1.912   5.543  0.2285  0.1460 -1.5822
  982MOL0     C35415   7.350   1.857   5.681  0.8144  0.2987 -0.4140
  982MOL0     C35416   7.442   1.740   5.708  0.3956  1.3103 -0.0271
  982MOL0     C35417   7.424   1.676   5.846  0.4969 -0.3547  0.2586
  982MOL0     C35418   7.519   1.551   5.834  0.1495  0.5659 -0.6712
  982MOL0     C35419   7.521   1.485   5.979 -1.9262 -0.6338  0.4060
  982MOL0     C35420   7.608   1.363   5.968  0.8054 -0.5636  0.1471
  982MOL0     C35421   7.634   1.296   6.104  0.7949 -0.3279 -0.4292
  982MOL0     C35422   7.744   1.208   6.084 -1.0793 -0.0946  0.1294
  982MOL0    Cl35423   7.898   1.304   6.066  0.5580 -0.0903  0.2084
  982MOL0     C35424   7.380   2.120   5.451  0.0482 -0.2039  1.0955
  982MOL0     C35425   7.322   2.243   5.422  0.1588 -0.0243  0.5688
  982MOL0     O35426   6.990   2.283   5.304 -0.2776 -1.1622 -0.1469
  982MOL0     C35427   6.937   2.599   5.453  0.4353 -0.2526 -0.7150
  982MOL0     C35428   6.841   2.712   5.440 -0.4665  0.0654 -0.1813
  982MOL0     N35429   6.676   3.424   5.170 -0.1019  0.8899 -0.2609
  982MOL0     N35430   6.669   3.553   5.195  0.2021 -0.3656  0.8302
  982MOL0     C35431   6.705   4.520   5.213  0.2190 -0.2075  0.1372
  982MOL0     C35432   6.783   4.637   5.174  0.4891  0.9388  0.5862
  982MOL0     C35433   6.955   5.035   5.132 -0.1947 -0.0637 -1.5223
  982MOL0     C35434   6.986   5.031   4.992 -0.2889  0.3651  0.3802
  982MOL0     C35435   7.061   5.127   4.928  0.0835 -0.7480 -0.2143
  982MOL0     C35436   7.117   5.228   5.006 -0.5294  1.1580  1.8580
  982MOL0     O35437   7.211   5.314   4.959 -0.4329 -0.2982  0.6255
  982MOL0     C35438   7.205   5.378   4.827  0.0585 -0.7599  0.1200
  982MOL0     C35439   7.082   5.466   4.798 -0.1862 -0.3128  0.3754
  982MOL0     C35440   7.040   5.573   4.905 -0.5123  0.0588 -0.0445
  982MOL0     C35441   7.143   5.679   4.921  1.0547 -0.0986 -0.1146
  982MOL0     C35442   7.092   5.770   5.022  0.7386  0.3172 -0.3167
  982MOL0     C35443   7.033   5.814   5.117  0.6669  0.0207  0.1153
  982MOL0     C35444   7.086   5.238   5.136 -0.3300 -0.3492 -0.5009
  982MOL0     C35445   7.005   5.151   5.211  0.9692 -0.1516 -1.0047
  982MOL0     C35446   6.986   5.173   5.349 -0.8922 -0.8931 -0.0043
  982MOL0     H35447   6.519   4.843   5.117 -1.2938 -2.2333  0.6728
  982MOL0     H35448   6.394   4.637   5.145 -0.4844  2.6867  0.3028
  982MOL0     H35449   6.348   4.297   5.312  1.1722 -1.2477  5.4208
  982MOL0     H35450   6.385   4.475   5.350  0.9404  1.5126 -3.3074
  982MOL0     H35451   6.578   4.371   5.478 -0.2245  0.0310  0.5353
  982MOL0     H35452   6.413   4.295   5.517 -1.7196  0.2636 -2.4891
  982MOL0     H35453   6.506   4.154   5.307 -1.3332  1.2127 -0.2581
  982MOL0     H35454   6.655   4.190   5.410 -0.1157 -2.2186  0.0860
  982MOL0     H35455   6.507   4.118   5.616  1.9046 -1.4507  0.5613
  982MOL0     H35456   6.401   4.039   5.497 -0.7568  3.7494  1.0190
  982MOL0     H35457   6.580   3.892   5.609  3.9602 -1.7003  0.4680
  982MOL0     H35458   6.701   3.969   5.505  0.3203 -2.4602 -3.9783
  982MOL0     H35459   6.527   3.751   5.432  0.0186 -1.0667  1.6659
  982MOL0     H35460   6.504   3.903   5.330  1.5303  1.3669 -0.0614
  982MOL0     H35461   6.761   3.912   5.306 -0.3239  0.4394  0.3939
  982MOL0     H35462   6.671   3.813   5.210 -2.4404  4.5990  0.7873
  982MOL0     H35463   6.890   3.710   5.310 -0.1207  1.1619  0.2830
  982MOL0     H35464   6.803   3.712   5.461 -0.1681  0.4383 -0.7789
  982MOL0     H35465   6.794   3.468   5.484  0.5181 -0.1797  1.0494
  982MOL0     H35466   6.803   3.222   5.417  2.4585 -1.5781 -0.7953
  982MOL0     H35467   6.772   3.169   5.250 -2.0539  1.9308 -1.9814
  982MOL0     H35468   6.587   3.196   5.486 -0.5848  0.9483  0.0933
  982MOL0     H35469   6.530   3.234   5.326 -0.5886 -0.8128  2.3666
  982MOL0     H35470   6.480   3.023   5.393 -0.1438  0.3613  0.6111
  982MOL0     H35471   6.567   3.028   5.239 -2.6961  2.8765  0.1083
  982MOL0     H35472   6.783   2.980   5.390  0.4651 -0.6312  3.2400
  982MOL0     H35473   6.664   2.931   5.509 -0.5449  0.4239  0.0955
  982MOL0     H35474   6.698   2.643   5.154 -2.2098 -2.2795  0.1220
  982MOL0     H35475   6.816   2.363   5.121 -1.6292  1.3794  1.4505
  982MOL0     H35476   6.970   2.410   5.081  0.1436 -0.4086 -1.2588
  982MOL0     H35477   6.855   2.518   5.014  0.5909  1.1862  0.0690
  982MOL0     H35478   7.035   2.205   5.605 -1.0360  0.8132 -2.0862
  982MOL0     H35479   7.138   2.008   5.651 -2.8758  0.3885 -2.0359
  982MOL0     H35480   7.354   1.938   5.753  0.9469 -1.8527  2.1513
  982MOL0     H35481   7.248   1.818   5.694 -0.0730  2.0395 -1.7264
  982MOL0     H35482   7.437   1.664   5.629 -0.4651  2.3643 -1.0230
  982MOL0     H35483   7.542   1.783   5.714  0.8552  0.1561  4.1202
  982MOL0     H35484   7.320   1.642   5.859 -0.2737  2.1304  1.2439
  982MOL0     H35485   7.463   1.747   5.920  1.1149  2.9643 -2.9726
  982MOL0     H35486   7.620   1.578   5.802  0.3567 -0.2181 -0.6994
  982MOL0     H35487   7.476   1.482   5.761 -0.8361 -0.4577  0.8106
  982MOL0     H35488   7.574   1.551   6.049 -0.9803 -0.7264 -0.2120
  982MOL0     H35489   7.421   1.471   6.020 -1.9171  1.9226  1.5310
  982MOL0     H35490   7.702   1.378   5.914 -0.6520  1.4295 -2.0407
  982MOL0     H35491   7.550   1.297   5.902 -0.2863 -0.5823  1.0959
  982MOL0     H35492   7.554   1.236   6.148  1.1211  0.8029  1.8725
  982MOL0     H35493   7.658   1.381   6.168 -0.1249  1.7031 -2.6429
  982MOL0     H35494   7.719   1.148   5.996 -2.2345  2.4418 -1.4035
  982MOL0     H35495   7.749   1.140   6.170  3.2970  2.3336  2.1282
  982MOL0     H35496   7.467   2.082   5.398 -0.4374  1.2203 -0.8328
  982MOL0     H35497   7.369   2.313   5.354  0.6078  0.9348  1.8296
  982MOL0     H35498   6.997   2.587   5.543 -2.5672  0.0701  1.5072
  982MOL0     H35499   6.831   2.781   5.523 -0.3114  4.3723 -3.4005
  982MOL0     H35500   6.749   4.442   5.275 -0.0921  2.0699  3.4879
  982MOL0     H35501   6.890   4.638   5.194  0.8868 -1.0436 -1.1104
  982MOL0     H35502   6.962   4.941   4.937  2.1699 -0.0200 -0.1748
  982MOL0     H35503   7.093   5.094   4.830  1.5273 -2.4469  0.7711
  982MOL0     H35504   7.293   5.439   4.804  0.1898 -0.7803  0.5554
  982MOL0     H35505   7.205   5.298   4.751  3.7716 -0.4978 -0.3484
  982MOL0     H35506   6.996   5.398   4.799 -0.2644 -0.2193  1.5325
  982MOL0     H35507   7.086   5.511   4.699  0.1162  2.3659  1.5215
  982MOL0     H35508   6.950   5.622   4.865 -0.2257  0.9904  0.4455
  982MOL0     H35509   7.003   5.532   4.999 -1.3798 -0.4148 -0.5727
  982MOL0     H35510   7.149   5.743   4.832  1.1833 -0.7856 -0.6035
  982MOL0     H35511   7.241   5.648   4.959  1.1577 -0.7663 -0.8987
  982MOL0     H35512   6.967   5.851   5.193  0.1902 -0.9206  0.1858
  982MOL0     H35513   7.140   5.319   5.184  3.4604 -0.2946 -4.2382
  982MOL0     H35514   7.077   5.174   5.410 -0.1113 -0.9431 -1.1313
  982MOL0     H35515   6.942   5.271   5.368 -1.8393 -1.2862 -0.1114
  982MOL0     H35516   6.917   5.098   5.389 -1.9777  0.8476  1.5255
  983MOL0     O35517   4.421   4.129   4.005  0.3907 -0.5211 -0.1472
  983MOL0     C35518   4.313   4.148   4.071 -1.4555  0.0087 -0.0574
  983MOL0     O35519   4.189   4.090   4.049 -0.1272 -1.0686 -0.1095
  983MOL0     C35520   4.166   3.984   3.961 -0.2116  0.0838 -0.0866
  983MOL0     C35521   4.035   3.963   3.915 -0.6115 -0.2321 -0.3149
  983MOL0     C35522   3.999   3.856   3.842 -0.5080 -0.5269  0.0342
  983MOL0     C35523   4.091   3.749   3.804  0.3239 -0.7964 -0.7639
  983MOL0     O35524   4.070   3.633   3.741  0.7104 -0.3976  0.3607
  983MOL0     C35525   3.933   3.610   3.695 -0.7301 -0.4649  0.5118
  983MOL0     C35526   3.922   3.475   3.620 -0.3519 -0.1977  0.0267
  983MOL0     C35527   3.980   3.515   3.478  0.0255  0.3426  0.8954
  983MOL0     C35528   3.991   3.391   3.386  0.4838 -0.1356  0.4627
  983MOL0     C35529   4.120   3.323   3.414  0.6612  1.0027 -0.5871
  983MOL0     C35530   4.144   3.229   3.295 -0.3821 -0.9146  1.0000
  983MOL0     C35531   4.285   3.163   3.282 -0.5856  0.1319 -0.1657
  983MOL0     C35532   4.293   3.032   3.359  0.1926 -0.1772 -0.8823
  983MOL0     N35533   4.420   2.956   3.343  0.0048 -0.6894  0.2457
  983MOL0     C35534   4.538   2.996   3.290  0.0720  0.1460  0.1109
  983MOL0     C35535   4.629   2.903   3.332  0.2275 -0.2941  0.2776
  983MOL0     C35536   4.765   2.922   3.272  0.1491  0.1743 -0.3879
  983MOL0     C35537   4.851   2.809   3.298 -0.6734  0.6354 -0.7364
  983MOL0     C35538   4.833   2.701   3.190  0.5912  0.0820  0.4213
  983MOL0     C35539   4.911   2.574   3.224  0.2940 -0.0373 -0.0565
  983MOL0     O35540   5.049   2.586   3.206 -0.0099  0.8922  0.2361
  983MOL0     C35541   5.132   2.476   3.203  0.3455  0.5995  0.3870
  983MOL0     C35542   5.259   2.495   3.162  0.5228  0.6594 -0.1667
  983MOL0     C35543   5.351   2.391   3.158  0.6675 -0.1516  0.4892
  983MOL0     C35544   5.487   2.423   3.112 -0.1145  0.4274  0.4532
  983MOL0     C35545   5.312   2.266   3.183  0.5472  0.5643 -0.8852
  983MOL0     C35546   5.399   2.143   3.180 -0.3854 -0.1420 -0.1534
  983MOL0     O35547   5.332   2.021   3.178 -0.0838  0.0025  0.0098
  983MOL0     C35548   5.402   1.898   3.158 -0.3050 -1.1138  0.0380
  983MOL0     C35549   5.441   1.821   3.273 -0.3170 -0.4605  0.9490
  983MOL0     C35550   5.498   1.696   3.239  0.2526 -0.1336  0.5628
  983MOL0     C35551   5.528   1.659   3.103 -0.8557  0.3903  0.5151
  983MOL0     O35552   5.614   1.558   3.065  0.5798  0.6164  0.5931
  983MOL0     C35553   5.673   1.482   3.172 -0.1126 -0.5842 -0.2320
  983MOL0     C35554   5.745   1.355   3.113 -0.5086  0.7762 -0.1532
  983MOL0     C35555   5.875   1.389   3.047  0.0315  1.5508 -0.5427
  983MOL0     C35556   5.974   1.278   3.087  0.1306  0.9118 -0.4485
  983MOL0     C35557   6.115   1.307   3.029  0.1481  0.1474  0.5413
  983MOL0     C35558   6.200   1.189   3.033 -0.9028  1.4500  1.1306
  983MOL0     C35559   6.321   1.221   2.936 -0.4888  0.1837 -0.1337
  983MOL0     C35560   6.421   1.326   2.980  0.4367  0.0625  0.6490
  983MOL0    Cl35561   6.522   1.274   3.117 -0.4956 -0.0615 -0.4204
  983MOL0     C35562   5.502   1.740   2.997 -0.0808 -0.5762  0.1632
  983MOL0     C35563   5.425   1.858   3.026 -0.0024  0.5413  0.8351
  983MOL0     O35564   5.522   2.155   3.185 -0.0838 -0.3668 -0.2126
  983MOL0     C35565   5.178   2.247   3.225  0.0650  0.4601 -0.3900
  983MOL0     C35566   5.092   2.352   3.249  0.9153 -0.0998  0.3025
  983MOL0     N35567   4.567   2.807   3.405  0.4491  0.6128 -0.1690
  983MOL0     N35568   4.442   2.850   3.418 -0.6553  0.0005 -0.3808
  983MOL0     C35569   4.223   3.774   3.840  0.0041 -0.1275  0.4169
  983MOL0     C35570   4.268   3.883   3.923 -0.0409  0.3551  0.3282
  983MOL0     C35571   4.323   4.242   4.188  0.9984 -0.5385  0.5099
  983MOL0     C35572   4.229   4.348   4.191  0.0298  0.4065  0.4892
  983MOL0     C35573   4.207   4.409   4.313  0.2236  0.9196 -1.2742
  983MOL0     C35574   4.300   4.394   4.415 -0.8157 -0.2706 -1.1267
  983MOL0     O35575   4.275   4.481   4.519  0.1994 -0.1579  0.3420
  983MOL0     C35576   4.357   4.462   4.635  0.5729  0.0156 -0.6369
  983MOL0     C35577   4.339   4.580   4.734  0.7931  0.2660  0.3083
  983MOL0     C35578   4.350   4.718   4.663 -0.2858 -0.8126 -0.2455
  983MOL0     C35579   4.484   4.791   4.697  0.5727 -0.4161 -0.0566
  983MOL0     C35580   4.610   4.742   4.638 -0.1582 -0.4704  0.4638
  983MOL0     C35581   4.703   4.685   4.584  0.4626  0.1417 -0.1488
  983MOL0     C35582   4.402   4.298   4.408  0.4661 -0.7220 -0.1510
  983MOL0     C35583   4.413   4.220   4.294  0.4489  0.0808 -0.2761
  983MOL0     C35584   4.524   4.121   4.299  0.8305 -0.0781 -0.3918
  983MOL0     H35585   3.977   4.041   3.964  1.0015  0.5163  0.4597
  983MOL0     H35586   3.894   3.859   3.814 -0.5077  1.2554  0.1147
  983MOL0     H35587   3.903   3.700   3.641 -0.1711 -1.1663 -1.0464
  983MOL0     H35588   3.872   3.598   3.784 -1.1235  3.9515  1.0541
  983MOL0     H35589   3.974   3.392   3.668 -0.0715 -0.6940 -1.0959
  983MOL0     H35590   3.819   3.442   3.605 -1.5229  2.9511  0.4482
  983MOL0     H35591   3.919   3.589   3.425  0.7788  1.0399  0.9639
  983MOL0     H35592   4.076   3.565   3.497 -0.5002  1.6238  0.3127
  983MOL0     H35593   3.906   3.322   3.379  2.6360 -2.9883  0.7955
  983MOL0     H35594   3.998   3.430   3.284  1.1560 -1.9160 -0.2023
  983MOL0     H35595   4.129   3.272   3.510 -1.3724 -0.1931 -0.9715
  983MOL0     H35596   4.198   3.399   3.401  0.1907  1.9596  1.7325
  983MOL0     H35597   4.059   3.162   3.308  0.4822 -1.6045  3.7156
  983MOL0     H35598   4.136   3.288   3.204  0.8290 -1.6677  0.3713
  983MOL0     H35599   4.357   3.243   3.299 -1.2011  0.3122  1.8024
  983MOL0     H35600   4.297   3.123   3.181 -0.8986 -0.6707  0.1055
  983MOL0     H35601   4.283   3.061   3.464  1.1816  1.9797 -1.3303
  983MOL0     H35602   4.209   2.974   3.321  2.3172 -1.3470 -4.3080
  983MOL0     H35603   4.560   3.084   3.230 -1.2649  0.3954 -0.0283
  983MOL0     H35604   4.805   3.005   3.330 -1.3975  1.0694 -0.5364
  983MOL0     H35605   4.773   2.965   3.171  0.3806  0.5615 -0.2066
  983MOL0     H35606   4.955   2.844   3.290  0.3090 -0.8662  3.2291
  983MOL0     H35607   4.849   2.761   3.396  0.9604  0.5180 -0.7235
  983MOL0     H35608   4.733   2.657   3.194  1.6286 -2.8101 -1.5041
  983MOL0     H35609   4.844   2.743   3.089  0.3322  2.9174  1.4758
  983MOL0     H35610   4.894   2.549   3.329  3.1371 -1.0391  0.2486
  983MOL0     H35611   4.864   2.493   3.167  2.3246 -1.2479 -0.0809
  983MOL0     H35612   5.292   2.592   3.127  2.1578 -0.3583 -1.5979
  983MOL0     H35613   5.491   2.523   3.068 -1.6939  0.2661 -0.1275
  983MOL0     H35614   5.524   2.347   3.043  1.0057  2.3171 -1.1464
  983MOL0     H35615   5.559   2.425   3.194 -0.4835 -0.9290  0.8235
  983MOL0     H35616   5.419   1.849   3.376  1.1676 -1.0059  1.4398
  983MOL0     H35617   5.524   1.636   3.326  2.0611 -0.9639 -0.5026
  983MOL0     H35618   5.747   1.539   3.228 -3.4486  2.9251  1.0219
  983MOL0     H35619   5.585   1.448   3.226 -0.6235  1.5419  0.3336
  983MOL0     H35620   5.743   1.267   3.179 -1.1818 -1.8392 -3.3664
  983MOL0     H35621   5.680   1.306   3.039 -0.0881 -1.0740  0.6274
  983MOL0     H35622   5.916   1.487   3.075 -1.1585  1.9543 -0.1370
  983MOL0     H35623   5.868   1.382   2.938 -0.2475 -2.3743 -0.4209
  983MOL0     H35624   5.922   1.185   3.061 -1.9580  1.0306  2.7626
  983MOL0     H35625   5.977   1.278   3.196 -1.1711 -1.9099 -0.3285
  983MOL0     H35626   6.114   1.348   2.927  2.9300  4.4554  1.9862
  983MOL0     H35627   6.153   1.386   3.095 -2.6044 -0.3802  2.9325
  983MOL0     H35628   6.152   1.098   2.996  2.8804 -0.6872  1.0436
  983MOL0     H35629   6.238   1.174   3.135  3.0327 -4.0301 -0.6913
  983MOL0     H35630   6.276   1.249   2.841 -0.2367  1.2371  0.0460
  983MOL0     H35631   6.381   1.130   2.921  0.0251  0.2279  1.4408
  983MOL0     H35632   6.369   1.420   3.001  3.4495  1.9185  0.3498
  983MOL0     H35633   6.482   1.356   2.894 -0.3803  0.9402  0.3708
  983MOL0     H35634   5.543   1.715   2.900 -3.6648 -1.8256 -1.1844
  983MOL0     H35635   5.396   1.926   2.947  1.1072 -1.7014 -1.6778
  983MOL0     H35636   5.135   2.152   3.257  1.4229 -0.3965 -1.0305
  983MOL0     H35637   4.991   2.335   3.285  0.4249  5.2046  2.3741
  983MOL0     H35638   4.295   3.696   3.819 -1.4160 -1.6361  0.8830
  983MOL0     H35639   4.372   3.910   3.932  0.5548 -1.4490 -0.6081
  983MOL0     H35640   4.168   4.361   4.103  2.8266 -1.1275 -1.8348
  983MOL0     H35641   4.118   4.469   4.327  1.3465  1.8676  3.8755
  983MOL0     H35642   4.325   4.374   4.692  2.9881  0.1465  1.1001
  983MOL0     H35643   4.462   4.436   4.617  0.1988 -2.3644  0.1928
  983MOL0     H35644   4.414   4.570   4.813  0.9165  1.3634  0.3528
  983MOL0     H35645   4.240   4.575   4.779  0.8220 -1.1350  0.2428
  983MOL0     H35646   4.342   4.715   4.554  0.6286 -0.4272 -0.3353
  983MOL0     H35647   4.273   4.790   4.694  1.2045  0.6588  0.1988
  983MOL0     H35648   4.493   4.789   4.806 -1.0126 -3.1293  0.1082
  983MOL0     H35649   4.466   4.894   4.665  4.7482  0.4124 -0.2554
  983MOL0     H35650   4.785   4.640   4.532  0.2098  1.1652 -1.5004
  983MOL0     H35651   4.465   4.268   4.491  2.4868 -0.4864 -1.5204
  983MOL0     H35652   4.486   4.019   4.309  1.4652 -0.1198  2.0356
  983MOL0     H35653   4.575   4.115   4.202 -3.8320 -2.0918 -3.0351
  983MOL0     H35654   4.598   4.133   4.378 -0.7939 -1.2327  1.3998
  984MOL0     O35655  10.688   7.993   2.813  1.2283 -0.0900  0.0144
  984MOL0     C35656  10.571   8.014   2.773 -0.1867 -0.3626 -0.4170
  984MOL0     O35657  10.489   8.126   2.796 -0.1208  0.0937 -0.4162
  984MOL0     C35658  10.527   8.239   2.856 -0.2446 -0.4718 -0.5265
  984MOL0     C35659  10.442   8.350   2.848  0.1581  0.0971  0.2120
  984MOL0     C35660  10.468   8.469   2.911  0.3143 -0.0899 -0.3442
  984MOL0     C35661  10.577   8.490   2.990  0.6400 -0.7489 -0.5867
  984MOL0     O35662  10.596   8.609   3.051 -0.7424  0.4709 -0.4258
  984MOL0     C35663  10.720   8.644   3.106  0.0312  0.0858  0.5302
  984MOL0     C35664  10.723   8.785   3.170 -0.2055  0.2743  0.4636
  984MOL0     C35665  10.612   8.826   3.264 -0.6477 -0.1244 -0.6940
  984MOL0     C35666  10.642   8.967   3.325 -0.5569 -0.2625 -1.1662
  984MOL0     C35667  10.524   9.017   3.416  0.3350 -0.1652 -0.9195
  984MOL0     C35668  10.555   8.985   3.565 -0.3449 -0.7508 -0.9532
  984MOL0     C35669  10.429   9.004   3.639 -0.1182 -0.0696  0.7314
  984MOL0     C35670  10.455   8.967   3.785 -0.1575 -0.8701  0.3322
  984MOL0     N35671  10.560   9.051   3.852  0.6628 -0.0443  0.3362
  984MOL0     C35672  10.553   9.183   3.876  0.5738  0.2946  0.0694
  984MOL0     C35673  10.671   9.216   3.931 -0.0544 -0.4831 -0.1199
  984MOL0     C35674  10.719   9.355   3.978 -0.6707 -0.0472  0.4679
  984MOL0     C35675  10.673   9.467   3.893  0.0588 -0.2159 -0.7106
  984MOL0     C35676  10.736   9.478   3.754  0.1328  0.4576  0.7059
  984MOL0     C35677  10.658   9.402   3.650 -0.0939  0.0269 -0.3982
  984MOL0     O35678  10.719   9.422   3.523  0.2384 -0.4243  0.1970
  984MOL0     C35679  10.826   9.358   3.473 -0.5573  0.3064 -0.1387
  984MOL0     C35680  10.899   9.259   3.545 -0.3639 -0.1807 -0.6619
  984MOL0     C35681  11.009   9.204   3.488 -0.9012  0.2140 -0.1725
  984MOL0     C35682  11.073   9.100   3.571 -0.2800  0.2718  0.4683
  984MOL0     C35683  11.049   9.245   3.355  0.6014 -0.2800 -0.3335
  984MOL0     C35684  11.166   9.198   3.289  0.5412  0.4900  0.5462
  984MOL0     O35685  11.139   9.122   3.172  0.2709 -0.4602  0.0059
  984MOL0     C35686  11.209   9.008   3.157  0.7065  0.1836  1.7067
  984MOL0     C35687  11.143   8.883   3.155  0.3356 -0.5518 -0.4420
  984MOL0     C35688  11.213   8.765   3.111  0.1255  0.8517 -0.2464
  984MOL0     C35689  11.350   8.767   3.098 -0.8257 -0.1000  0.0658
  984MOL0     O35690  11.430   8.658   3.089 -0.2088  0.1213 -0.1584
  984MOL0     C35691  11.546   8.645   3.163  0.6566 -0.7175 -0.1490
  984MOL0     C35692  11.665   8.593   3.077  0.4556 -0.7973 -0.4617
  984MOL0     C35693  11.627   8.453   3.024 -0.3881 -0.7537  0.3921
  984MOL0     C35694  11.726   8.344   3.056 -0.1170 -0.1933  0.4407
  984MOL0     C35695  11.724   8.330   3.206  0.2364  1.3453 -0.1009
  984MOL0     C35696  11.767   8.175   3.233 -0.6770 -0.1187 -0.0949
  984MOL0     C35697  11.912   8.156   3.263 -0.5711  0.1903  0.8797
  984MOL0     C35698  11.939   8.197   3.415  0.2549  0.4102  0.0971
  984MOL0    Cl35699  12.101   8.169   3.473 -0.4503 -0.3980 -0.3322
  984MOL0     C35700  11.407   8.897   3.094 -1.0128  0.7386  0.2704
  984MOL0     C35701  11.340   9.010   3.123  0.0415 -0.5442 -0.0383
  984MOL0     O35702  11.283   9.219   3.341 -0.0510  0.3191  0.3740
  984MOL0     C35703  10.980   9.341   3.288  0.3358 -0.8905 -0.0882
  984MOL0     C35704  10.873   9.399   3.347  0.7213 -0.9314 -0.2760
  984MOL0     N35705  10.738   9.095   3.945 -0.0685  0.2634  0.0633
  984MOL0     N35706  10.675   9.004   3.896 -0.0616  0.1808 -0.2877
  984MOL0     C35707  10.664   8.388   2.992 -0.9404 -0.0611  0.0879
  984MOL0     C35708  10.644   8.263   2.922 -0.3453  0.2298 -0.2444
  984MOL0     C35709  10.520   7.905   2.679  0.5418 -0.2073 -0.4410
  984MOL0     C35710  10.541   7.766   2.700  0.6287 -0.7014  0.2377
  984MOL0     C35711  10.497   7.678   2.604 -0.0504  0.5330  0.2230
  984MOL0     C35712  10.435   7.710   2.493 -0.2778  0.4075  0.8244
  984MOL0     O35713  10.409   7.608   2.397  0.2905  0.0508  0.2129
  984MOL0     C35714  10.383   7.632   2.256 -0.6403  0.3108 -0.0308
  984MOL0     C35715  10.477   7.727   2.187 -0.4279  0.5828  0.0398
  984MOL0     C35716  10.482   7.689   2.041  0.2573 -0.1902 -0.2103
  984MOL0     C35717  10.551   7.806   1.963  0.3787  0.3693  0.3789
  984MOL0     C35718  10.555   7.777   1.819 -0.4114  0.3193 -0.2607
  984MOL0     C35719  10.550   7.716   1.711 -0.2473  0.7984  0.5545
  984MOL0     C35720  10.401   7.841   2.470 -0.3785  0.0493  0.6276
  984MOL0     C35721  10.438   7.943   2.566  0.3903  0.1681 -0.4043
  984MOL0     C35722  10.391   8.081   2.532  0.1678  0.2139 -0.5407
  984MOL0     H35723  10.344   8.339   2.802 -0.3583  1.5754  0.9062
  984MOL0     H35724  10.395   8.549   2.911 -1.8964 -1.9781  0.2778
  984MOL0     H35725  10.799   8.619   3.034 -1.8511 -3.1925 -0.5740
  984MOL0     H35726  10.732   8.577   3.191  1.9932  1.6451  1.5700
  984MOL0     H35727  10.821   8.796   3.218 -0.9115  0.9274  1.8030
  984MOL0     H35728  10.723   8.858   3.089 -0.8823 -2.5524 -2.2525
  984MOL0     H35729  10.524   8.830   3.198 -0.3348 -1.6195 -1.2522
  984MOL0     H35730  10.605   8.745   3.337  1.9750 -1.8321 -2.1863
  984MOL0     H35731  10.733   8.973   3.386 -1.0551 -2.2018 -0.1637
  984MOL0     H35732  10.658   9.044   3.249 -1.5642  0.2502 -0.8661
  984MOL0     H35733  10.434   8.970   3.375  1.7326 -2.9319 -1.0533
  984MOL0     H35734  10.518   9.126   3.402 -0.2437 -0.3989 -2.9189
  984MOL0     H35735  10.569   8.877   3.557 -1.5484 -0.8731 -1.6452
  984MOL0     H35736  10.645   9.037   3.599 -3.4298  3.9704  0.9802
  984MOL0     H35737  10.365   8.930   3.590 -3.1925  2.4027  0.6721
  984MOL0     H35738  10.401   9.109   3.625  2.7550  0.6561 -0.2663
  984MOL0     H35739  10.357   8.961   3.833 -1.5220 -2.3652 -2.3946
  984MOL0     H35740  10.495   8.865   3.779  0.0764 -0.6850 -3.6621
  984MOL0     H35741  10.465   9.242   3.852  1.2616  1.2493 -0.1933
  984MOL0     H35742  10.827   9.357   3.958 -1.0718 -1.5877 -2.5572
  984MOL0     H35743  10.687   9.380   4.079  1.7113  0.4820  1.1410
  984MOL0     H35744  10.565   9.463   3.874 -0.4387 -3.8660  1.8632
  984MOL0     H35745  10.697   9.559   3.948 -1.9078  1.6213 -2.7318
  984MOL0     H35746  10.750   9.585   3.739  0.8980  0.3031  0.2950
  984MOL0     H35747  10.837   9.438   3.746  0.5744  1.9166 -2.8576
  984MOL0     H35748  10.652   9.294   3.666 -2.0146 -0.2644 -2.4989
  984MOL0     H35749  10.558   9.448   3.648  0.1617  0.5798 -0.9395
  984MOL0     H35750  10.856   9.238   3.642  1.7194 -5.2187 -0.5461
  984MOL0     H35751  11.158   9.048   3.526  0.1284  1.6689 -0.4449
  984MOL0     H35752  10.991   9.029   3.590 -0.6661  0.8219  0.8886
  984MOL0     H35753  11.108   9.140   3.666 -2.0621  2.8234  0.1764
  984MOL0     H35754  11.036   8.871   3.170  0.2392 -0.3911 -0.9716
  984MOL0     H35755  11.173   8.664   3.101 -2.0259  1.0016  4.2760
  984MOL0     H35756  11.583   8.744   3.194 -0.5333  0.6696 -2.8712
  984MOL0     H35757  11.520   8.580   3.247  1.5177 -1.2277 -0.2594
  984MOL0     H35758  11.683   8.658   2.991  1.2387 -0.2368  0.1086
  984MOL0     H35759  11.751   8.594   3.144 -1.1949 -0.7935  1.7603
  984MOL0     H35760  11.619   8.452   2.915 -1.1266 -0.6549  0.4435
  984MOL0     H35761  11.526   8.426   3.055 -0.5990  0.1641  0.5212
  984MOL0     H35762  11.828   8.372   3.029  0.0035  0.8424  1.8885
  984MOL0     H35763  11.697   8.255   2.999 -1.8693  1.8976 -2.2389
  984MOL0     H35764  11.791   8.401   3.256 -0.5701  2.5227 -0.6612
  984MOL0     H35765  11.630   8.346   3.259  1.7390 -0.2039  3.3619
  984MOL0     H35766  11.739   8.108   3.151  2.9393 -1.1187 -0.6871
  984MOL0     H35767  11.706   8.143   3.318 -3.3663 -1.7492 -2.4405
  984MOL0     H35768  11.960   8.237   3.208  0.5149 -1.1727 -0.2426
  984MOL0     H35769  11.937   8.052   3.244 -2.6180 -0.2035  0.0738
  984MOL0     H35770  11.869   8.139   3.475  1.7924 -2.8122 -1.0213
  984MOL0     H35771  11.927   8.303   3.439  2.6834  0.1389  3.0561
  984MOL0     H35772  11.513   8.911   3.074 -1.4132  4.2156  0.0214
  984MOL0     H35773  11.394   9.104   3.119  0.4211 -0.7572 -0.0580
  984MOL0     H35774  11.001   9.371   3.186  0.0173  4.5430  1.1354
  984MOL0     H35775  10.810   9.476   3.303 -0.7127  0.9910  4.5107
  984MOL0     H35776  10.766   8.394   3.030 -1.3035  1.8285  0.9076
  984MOL0     H35777  10.720   8.188   2.939  1.9159  2.3874 -0.3382
  984MOL0     H35778  10.587   7.732   2.793  1.4500  4.9525  2.3346
  984MOL0     H35779  10.523   7.574   2.621  1.2949  0.9267  0.7643
  984MOL0     H35780  10.405   7.532   2.217 -3.1322 -1.4684  2.6696
  984MOL0     H35781  10.276   7.651   2.239 -0.5923 -1.3455 -2.6152
  984MOL0     H35782  10.575   7.701   2.227  0.1923 -1.0389 -2.3096
  984MOL0     H35783  10.440   7.830   2.191  0.2137  0.7789  1.2867
  984MOL0     H35784  10.538   7.595   2.028  0.4348 -0.3617  1.5093
  984MOL0     H35785  10.383   7.678   1.997 -0.5260  4.4455 -0.0570
  984MOL0     H35786  10.653   7.821   2.002  0.9762 -0.3767 -0.8358
  984MOL0     H35787  10.497   7.901   1.972  3.0573  2.0117  0.6591
  984MOL0     H35788  10.567   7.665   1.619 -1.4935 -2.2408  1.8862
  984MOL0     H35789  10.343   7.871   2.383  0.9104 -1.0983 -0.6899
  984MOL0     H35790  10.476   8.147   2.512 -1.9600  2.4199 -3.0885
  984MOL0     H35791  10.329   8.087   2.442 -1.1536 -2.2865  0.1154
  984MOL0     H35792  10.330   8.108   2.619  0.2654 -0.4035 -0.2809
  985MOL0     O35793   1.493   8.765   2.723  0.4186 -0.0744 -0.1155
  985MOL0     C35794   1.379   8.720   2.715 -0.3263  0.3923  0.8386
  985MOL0     O35795   1.279   8.776   2.646  0.0489  0.0966 -0.0370
  985MOL0     C35796   1.280   8.907   2.601 -0.2339  0.0115  0.8596
  985MOL0     C35797   1.386   9.002   2.593  0.3687  0.2207  0.2687
  985MOL0     C35798   1.369   9.129   2.551 -0.4359 -1.3040 -0.5076
  985MOL0     C35799   1.241   9.175   2.526 -0.4079  0.5520 -0.4698
  985MOL0     O35800   1.229   9.304   2.488  0.0678 -1.5691 -0.5226
  985MOL0     C35801   1.120   9.359   2.413 -0.1360  0.7036  1.3228
  985MOL0     C35802   1.118   9.302   2.268  0.5133 -0.5580 -0.7039
  985MOL0     C35803   1.220   9.382   2.189  0.0326 -0.3055 -0.4653
  985MOL0     C35804   1.214   9.332   2.043 -0.2707  0.7876 -0.3797
  985MOL0     C35805   1.103   9.413   1.953  0.6596  1.0334 -0.2977
  985MOL0     C35806   1.147   9.545   1.889 -0.3962 -1.0035  0.4838
  985MOL0     C35807   1.038   9.600   1.789  0.1414  0.7464  0.0284
  985MOL0     C35808   1.074   9.553   1.644  0.6530 -0.6864 -1.0748
  985MOL0     N35809   0.950   9.513   1.585 -0.4499  0.0302  0.4528
  985MOL0     C35810   0.865   9.581   1.497  0.5275  0.4764 -0.1832
  985MOL0     C35811   0.767   9.512   1.452  0.1606  0.1252  0.5318
  985MOL0     C35812   0.657   9.549   1.357  0.8582 -0.0069 -0.0669
  985MOL0     C35813   0.526   9.533   1.441 -0.5859  0.4525  0.7328
  985MOL0     C35814   0.409   9.581   1.353  0.5048  0.7926 -1.1904
  985MOL0     C35815   0.276   9.539   1.415  0.0271  0.8854 -1.3856
  985MOL0     O35816   0.171   9.605   1.352 -0.3399 -0.7478  0.0590
  985MOL0     C35817   0.054   9.542   1.346  0.6512 -0.1500 -0.1948
  985MOL0     C35818   0.007   9.463   1.450 -0.4219 -0.7629 -0.2338
  985MOL0     C35819  -0.119   9.419   1.460 -0.9947  1.1122 -0.2184
  985MOL0     C35820  -0.151   9.312   1.573 -0.2528 -1.0094 -0.0182
  985MOL0     C35821  -0.212   9.459   1.364  0.2266  0.2237  0.5166
  985MOL0     C35822  -0.361   9.426   1.369 -1.3200  0.5144 -0.7345
  985MOL0     O35823  -0.441   9.468   1.276 -0.1128 -0.5042  0.5515
  985MOL0     C35824  -0.576   9.428   1.280 -0.0239  0.5360 -0.5250
  985MOL0     C35825  -0.678   9.518   1.290  0.4306 -0.1677  0.1082
  985MOL0     C35826  -0.822   9.482   1.270 -0.7227 -0.7389  0.7596
  985MOL0     C35827  -0.849   9.343   1.234  0.0103 -0.0787  0.4298
  985MOL0     O35828  -0.976   9.302   1.192 -0.0787  0.6736 -0.2561
  985MOL0     C35829  -0.991   9.321   1.050  0.7625  0.0319  0.0490
  985MOL0     C35830  -1.039   9.182   0.989  1.2909 -0.4804 -0.0348
  985MOL0     C35831  -1.011   9.153   0.841 -0.1723  0.2462 -1.0502
  985MOL0     C35832  -0.871   9.099   0.816  1.1104 -0.1156 -1.3208
  985MOL0     C35833  -0.853   9.027   0.684 -0.9247 -0.2670  0.1286
  985MOL0     C35834  -0.709   8.978   0.666  0.2052 -0.0151 -1.3744
  985MOL0     C35835  -0.681   8.888   0.541 -0.6171 -0.2189 -0.1011
  985MOL0     C35836  -0.536   8.887   0.502 -1.2599 -0.1500 -0.1526
  985MOL0    Cl35837  -0.492   9.040   0.408 -0.1439 -0.3778 -0.2816
  985MOL0     C35838  -0.745   9.255   1.223 -1.7362  0.0925 -0.0680
  985MOL0     C35839  -0.610   9.297   1.252  0.1536  0.0959 -0.3804
  985MOL0     O35840  -0.398   9.367   1.471  0.4521  0.7029  1.1343
  985MOL0     C35841  -0.168   9.524   1.250  0.0237  0.7318 -0.1659
  985MOL0     C35842  -0.042   9.566   1.238 -0.1558  0.7877  0.4920
  985MOL0     N35843   0.784   9.391   1.519 -0.0476  0.5277 -0.0257
  985MOL0     N35844   0.885   9.392   1.599  0.6933 -0.1516 -0.0627
  985MOL0     C35845   1.131   9.091   2.536 -0.2535  0.7571  0.1503
  985MOL0     C35846   1.157   8.955   2.567  0.2311 -0.0196  0.2903
  985MOL0     C35847   1.356   8.594   2.793  0.3906 -0.4788 -1.2490
  985MOL0     C35848   1.231   8.525   2.768  0.0659 -0.1446 -0.4940
  985MOL0     C35849   1.210   8.390   2.808 -0.0619 -0.0909  0.5767
  985MOL0     C35850   1.303   8.329   2.881 -0.8512  0.5927 -0.5103
  985MOL0     O35851   1.272   8.202   2.917  0.0996  0.7434  0.8653
  985MOL0     C35852   1.339   8.092   2.856 -0.6146 -0.8443 -0.2857
  985MOL0     C35853   1.288   7.959   2.896  0.4770  0.3033  0.4217
  985MOL0     C35854   1.375   7.885   3.002  0.2602 -0.0711  0.2634
  985MOL0     C35855   1.301   7.763   3.050 -0.4034  0.0053  0.3857
  985MOL0     C35856   1.351   7.709   3.171  0.0230 -0.2685  0.0893
  985MOL0     C35857   1.384   7.662   3.275 -0.0976  0.3294 -0.5529
  985MOL0     C35858   1.416   8.391   2.932 -0.0704 -0.2840  0.0579
  985MOL0     C35859   1.445   8.523   2.886  0.1062  0.2528  0.6254
  985MOL0     C35860   1.566   8.590   2.936 -0.3321 -0.0524  0.5530
  985MOL0     H35861   1.487   8.962   2.600 -0.5381 -2.0754  1.1862
  985MOL0     H35862   1.451   9.199   2.561 -0.4020 -1.3292 -0.6111
  985MOL0     H35863   1.113   9.466   2.393 -3.4337 -0.0382 -2.9766
  985MOL0     H35864   1.028   9.340   2.469 -1.5240  2.2033 -0.3192
  985MOL0     H35865   1.128   9.194   2.269  1.0548 -0.7496  4.8791
  985MOL0     H35866   1.019   9.324   2.226 -1.7064 -0.9798  3.6487
  985MOL0     H35867   1.186   9.486   2.185  0.2101 -0.2888 -3.4556
  985MOL0     H35868   1.319   9.378   2.237 -0.3015  2.8163  0.7245
  985MOL0     H35869   1.311   9.352   1.997  0.1092 -1.5374 -0.7075
  985MOL0     H35870   1.194   9.225   2.035 -1.3288  0.5637  3.4430
  985MOL0     H35871   1.007   9.425   2.003  0.6095  1.6760 -0.5385
  985MOL0     H35872   1.083   9.347   1.868  0.0985  2.3806 -1.2514
  985MOL0     H35873   1.168   9.624   1.961  0.7255  0.2238 -1.1100
  985MOL0     H35874   1.241   9.523   1.838  0.6796  1.4467  1.2859
  985MOL0     H35875   1.029   9.709   1.784  0.7370  0.8206  0.4941
  985MOL0     H35876   0.940   9.557   1.812  0.7580 -1.8552 -1.7275
  985MOL0     H35877   1.121   9.640   1.595 -0.8858  1.2495  0.6860
  985MOL0     H35878   1.137   9.464   1.649  0.7299 -0.7023 -2.0468
  985MOL0     H35879   0.888   9.680   1.459  1.0990  0.1957 -0.5860
  985MOL0     H35880   0.648   9.483   1.270 -0.7051  1.9969 -1.5179
  985MOL0     H35881   0.676   9.654   1.332 -3.2106  0.7276 -0.6785
  985MOL0     H35882   0.513   9.430   1.476 -1.4532  0.3455  0.1341
  985MOL0     H35883   0.526   9.598   1.529  0.0896 -3.0338  3.5440
  985MOL0     H35884   0.419   9.690   1.352 -0.6083  0.9979  1.2499
  985MOL0     H35885   0.421   9.532   1.256  0.7060 -1.3806 -0.1313
  985MOL0     H35886   0.264   9.430   1.413 -5.6531  0.9765  3.1227
  985MOL0     H35887   0.285   9.566   1.521  0.5621  0.6215 -1.3574
  985MOL0     H35888   0.080   9.451   1.529 -0.4238  2.2314  0.3129
  985MOL0     H35889  -0.226   9.344   1.646 -3.2047 -1.6006 -2.6069
  985MOL0     H35890  -0.064   9.280   1.632  2.1772  3.8580 -0.4055
  985MOL0     H35891  -0.186   9.222   1.522 -3.9280  1.1236 -1.6981
  985MOL0     H35892  -0.652   9.622   1.300 -0.8536 -0.0179  2.7059
  985MOL0     H35893  -0.902   9.555   1.275 -0.2817 -0.3477  2.7997
  985MOL0     H35894  -1.072   9.390   1.024 -0.1434 -0.3823  1.6755
  985MOL0     H35895  -0.890   9.340   1.013  1.7153 -2.0167  1.4059
  985MOL0     H35896  -0.993   9.100   1.046  1.4953 -0.3689 -0.0383
  985MOL0     H35897  -1.145   9.165   1.012  1.2860  0.4292  0.6484
  985MOL0     H35898  -1.012   9.251   0.792 -0.5391  1.4501  1.2129
  985MOL0     H35899  -1.092   9.091   0.800 -0.8124  0.6169 -0.3687
  985MOL0     H35900  -0.869   9.019   0.891 -0.0378 -0.5976 -1.7922
  985MOL0     H35901  -0.795   9.174   0.840  0.9137 -0.7630  1.8747
  985MOL0     H35902  -0.929   8.949   0.673 -1.3475  0.4775 -3.4151
  985MOL0     H35903  -0.871   9.099   0.603  1.9989  1.2626  0.6802
  985MOL0     H35904  -0.690   8.907   0.747 -3.8028  0.4310  0.2185
  985MOL0     H35905  -0.646   9.067   0.675 -0.3283  0.2246  0.4228
  985MOL0     H35906  -0.737   8.938   0.461 -0.9679 -1.6398 -0.7868
  985MOL0     H35907  -0.720   8.786   0.553 -1.2333 -0.0251 -0.4244
  985MOL0     H35908  -0.496   8.820   0.425  1.6461  2.1432 -0.8177
  985MOL0     H35909  -0.489   8.864   0.598 -2.6734  1.6842  1.0452
  985MOL0     H35910  -0.749   9.161   1.169  0.7136 -0.4837  0.6300
  985MOL0     H35911  -0.536   9.220   1.236 -0.2717 -0.2572 -0.6975
  985MOL0     H35912  -0.243   9.549   1.176 -1.0098  1.6575  1.1499
  985MOL0     H35913   0.003   9.630   1.162  2.6348 -0.3207  1.1072
  985MOL0     H35914   1.027   9.120   2.523 -1.4300 -2.3745  1.4711
  985MOL0     H35915   1.067   8.898   2.589 -0.7184  0.8952 -1.0982
  985MOL0     H35916   1.154   8.576   2.710 -1.6214 -0.8251  1.0447
  985MOL0     H35917   1.115   8.344   2.782  0.1582 -0.7879  0.9837
  985MOL0     H35918   1.332   8.106   2.748  2.5729 -0.2933 -0.5328
  985MOL0     H35919   1.446   8.104   2.876 -0.4772 -0.1472 -1.3455
  985MOL0     H35920   1.293   7.898   2.806  2.3236 -0.4418  0.9720
  985MOL0     H35921   1.183   7.969   2.926 -0.3035  0.3740 -2.1065
  985MOL0     H35922   1.464   7.847   2.951  1.0374  3.0353 -0.9226
  985MOL0     H35923   1.394   7.947   3.090 -3.7250  0.6751  0.7569
  985MOL0     H35924   1.313   7.683   2.977  0.9301 -0.2493  0.8529
  985MOL0     H35925   1.193   7.781   3.059 -1.5226 -5.5532  1.6036
  985MOL0     H35926   1.418   7.630   3.372 -1.9270  0.3125  0.1203
  985MOL0     H35927   1.480   8.325   2.989 -0.5430 -1.6913 -0.9749
  985MOL0     H35928   1.617   8.528   3.010  2.6868  0.5663 -0.8331
  985MOL0     H35929   1.642   8.619   2.862 -1.1611 -1.8733 -1.0900
  985MOL0     H35930   1.531   8.675   2.995 -0.7570 -0.3968  0.8037
  986MOL0     O35931   9.795   4.175  10.980  0.1193 -0.0664  0.5946
  986MOL0     C35932   9.754   4.164  11.092  0.5169 -0.6090 -0.7672
  986MOL0     O35933   9.814   4.104  11.191 -0.5911  0.6788 -0.2267
  986MOL0     C35934   9.916   4.022  11.159  0.7645  0.2488 -0.2398
  986MOL0     C35935  10.038   4.071  11.132 -0.6682  1.0226 -0.4514
  986MOL0     C35936  10.140   3.987  11.084 -0.4941 -0.1686 -0.1880
  986MOL0     C35937  10.120   3.850  11.071  0.0256 -0.5093 -0.7846
  986MOL0     O35938  10.217   3.761  11.048 -0.1086  0.1272 -0.4214
  986MOL0     C35939  10.351   3.783  11.100  0.3280  0.3895  0.8078
  986MOL0     C35940  10.423   3.650  11.105  0.5645 -0.5763 -0.2571
  986MOL0     C35941  10.547   3.648  11.177 -0.5103 -1.4277  0.0863
  986MOL0     C35942  10.666   3.723  11.126  0.5312 -0.1041  0.2579
  986MOL0     C35943  10.791   3.721  11.210 -0.1471  0.7805  0.0143
  986MOL0     C35944  10.777   3.738  11.354  0.1360  0.6561 -1.0365
  986MOL0     C35945  10.794   3.609  11.430  0.1372 -0.1054 -0.7021
  986MOL0     C35946  10.778   3.630  11.573 -0.0665  0.4330 -0.4499
  986MOL0     N35947  10.810   3.501  11.643 -0.0699  0.0655 -1.0715
  986MOL0     C35948  10.723   3.397  11.669  0.4340  0.1087 -0.3764
  986MOL0     C35949  10.794   3.317  11.756 -0.1248 -0.8738 -0.4766
  986MOL0     C35950  10.737   3.190  11.818  0.4148  0.2201 -0.7332
  986MOL0     C35951  10.755   3.081  11.717  0.3100  0.0868 -0.4004
  986MOL0     C35952  10.746   2.946  11.784 -0.7031 -0.3758  0.3397
  986MOL0     C35953  10.775   2.832  11.692 -0.7003  0.2883  0.1348
  986MOL0     O35954  10.654   2.786  11.636  0.0747 -0.3731  0.1568
  986MOL0     C35955  10.668   2.697  11.531 -0.9074 -0.2577  0.1116
  986MOL0     C35956  10.554   2.615  11.516  0.2854  0.2414  0.8075
  986MOL0     C35957  10.568   2.510  11.433  0.2236 -0.0171  0.2647
  986MOL0     C35958  10.446   2.409  11.421 -0.1569  0.1940 -0.4934
  986MOL0     C35959  10.682   2.478  11.347  0.0232  0.2322  0.3807
  986MOL0     C35960  10.710   2.377  11.243  0.5496  0.0714 -0.3347
  986MOL0     O35961  10.835   2.324  11.239  0.7317 -0.0471 -0.0984
  986MOL0     C35962  10.883   2.245  11.137  0.1216  0.3143 -0.5865
  986MOL0     C35963  10.818   2.128  11.101  0.0236 -0.5728  0.7896
  986MOL0     C35964  10.881   2.041  11.020  0.8670  1.0569  0.6830
  986MOL0     C35965  10.986   2.067  10.942 -0.9679  0.3460 -0.4000
  986MOL0     O35966  11.027   1.971  10.848  0.0946 -0.5525 -0.3161
  986MOL0     C35967  11.140   2.001  10.764 -0.0528  0.2520  0.9565
  986MOL0     C35968  11.170   1.881  10.670  0.5486 -0.5995 -0.1733
  986MOL0     C35969  11.213   1.758  10.755  0.3048 -1.0438  0.0537
  986MOL0     C35970  11.188   1.638  10.659 -0.5485  1.4265 -0.0355
  986MOL0     C35971  11.302   1.623  10.557 -0.2551 -0.4078 -1.5144
  986MOL0     C35972  11.442   1.584  10.613 -0.4409 -0.0994  0.2333
  986MOL0     C35973  11.452   1.465  10.708 -0.1015 -0.1617  0.7386
  986MOL0     C35974  11.407   1.326  10.642 -0.3028 -0.5796  0.8720
  986MOL0    Cl35975  11.526   1.282  10.521 -0.2392 -0.4290 -0.3834
  986MOL0     C35976  11.046   2.194  10.964  0.2519  1.6426  0.1688
  986MOL0     C35977  10.999   2.278  11.064 -0.6787  0.8626  0.2045
  986MOL0     O35978  10.618   2.358  11.163 -1.0471  0.8350  0.0523
  986MOL0     C35979  10.788   2.573  11.354 -0.1818  0.0655  0.7977
  986MOL0     C35980  10.778   2.687  11.440 -0.2653  0.7246 -0.5772
  986MOL0     N35981  10.917   3.380  11.780 -1.0332 -0.3964  0.3145
  986MOL0     N35982  10.922   3.492  11.726  0.6162 -0.4634  0.4487
  986MOL0     C35983   9.996   3.800  11.097 -0.6174 -0.2266 -0.4430
  986MOL0     C35984   9.901   3.888  11.145  1.1763  0.0130 -1.0886
  986MOL0     C35985   9.617   4.209  11.119 -0.1717  0.5810 -0.3841
  986MOL0     C35986   9.528   4.123  11.185  1.3459 -0.8326  1.1695
  986MOL0     C35987   9.393   4.160  11.203  0.4412 -0.6117 -0.2483
  986MOL0     C35988   9.345   4.281  11.146 -0.0535 -0.0450  0.0484
  986MOL0     O35989   9.211   4.326  11.146  0.1800 -0.8950  0.1952
  986MOL0     C35990   9.106   4.249  11.211 -0.0317  0.4764 -0.3010
  986MOL0     C35991   9.067   4.118  11.129  0.2494 -0.2175  0.2401
  986MOL0     C35992   9.007   4.166  10.997  0.0141  1.1272  0.1833
  986MOL0     C35993   8.955   4.043  10.918  0.4160  0.2321  0.1705
  986MOL0     C35994   8.876   4.089  10.808  0.1696  0.0160  0.4797
  986MOL0     C35995   8.815   4.122  10.708  0.1615 -0.0695  0.8653
  986MOL0     C35996   9.436   4.356  11.074 -1.1699  0.4548 -0.4621
  986MOL0     C35997   9.573   4.333  11.072 -0.3639  0.8261 -0.1862
  986MOL0     C35998   9.658   4.430  10.988  0.6761 -0.3240 -0.6050
  986MOL0     H35999  10.064   4.175  11.151  2.1992 -0.0687  2.3762
  986MOL0     H36000  10.240   4.024  11.060  0.0591 -0.8289  1.0047
  986MOL0     H36001  10.356   3.825  11.201  2.6748  3.1817 -0.3287
  986MOL0     H36002  10.400   3.857  11.037 -0.9467  3.2722  2.9630
  986MOL0     H36003  10.346   3.592  11.157  0.6735  1.6677  2.6679
  986MOL0     H36004  10.441   3.615  11.003  1.4916 -0.6154 -0.0841
  986MOL0     H36005  10.519   3.678  11.279 -2.8868 -0.1401 -0.8816
  986MOL0     H36006  10.570   3.542  11.189  0.5449 -1.1463  0.6806
  986MOL0     H36007  10.682   3.690  11.023 -0.2631 -2.1269  0.7377
  986MOL0     H36008  10.644   3.830  11.126  2.2095  0.2737  0.7332
  986MOL0     H36009  10.850   3.803  11.170  2.1533 -1.1600 -0.7997
  986MOL0     H36010  10.849   3.629  11.198 -1.1120  0.1172  0.2465
  986MOL0     H36011  10.844   3.817  11.390  1.9736 -2.5796  3.6560
  986MOL0     H36012  10.676   3.770  11.384  0.4181 -0.7505  1.8179
  986MOL0     H36013  10.883   3.551  11.405  0.4767  0.4890 -0.8819
  986MOL0     H36014  10.720   3.534  11.399  0.8629 -1.4811  0.7156
  986MOL0     H36015  10.848   3.701  11.619 -2.4343  0.8093  2.9209
  986MOL0     H36016  10.674   3.658  11.591  0.2851  1.8025 -0.4712
  986MOL0     H36017  10.629   3.375  11.620  1.2600  1.6867 -2.8365
  986MOL0     H36018  10.629   3.201  11.834  0.6560  2.4301 -0.3145
  986MOL0     H36019  10.786   3.168  11.913  1.1347  3.4565 -0.2377
  986MOL0     H36020  10.686   3.097  11.634 -0.3393  0.4991  0.2058
  986MOL0     H36021  10.854   3.104  11.676  1.4244 -0.9839  1.5339
  986MOL0     H36022  10.825   2.944  11.860  1.0562  1.1526 -1.3497
  986MOL0     H36023  10.646   2.940  11.828 -0.9334  2.8773  0.5191
  986MOL0     H36024  10.862   2.847  11.628 -0.0542  0.6344  1.0865
  986MOL0     H36025  10.809   2.750  11.756 -0.5588 -0.5561 -0.9815
  986MOL0     H36026  10.465   2.621  11.577 -1.8183  4.6900 -2.2213
  986MOL0     H36027  10.423   2.372  11.521 -2.0822 -1.8425 -1.5778
  986MOL0     H36028  10.479   2.312  11.382  1.5945  0.6074 -0.1323
  986MOL0     H36029  10.357   2.449  11.370  1.7304  2.9361 -1.8747
  986MOL0     H36030  10.727   2.087  11.143  0.2830 -2.2394 -0.1588
  986MOL0     H36031  10.840   1.940  11.020 -2.8321  2.3739 -0.4051
  986MOL0     H36032  11.122   2.087  10.698  1.6162 -2.5253 -3.5299
  986MOL0     H36033  11.231   2.020  10.822  1.9876 -1.0336 -1.6386
  986MOL0     H36034  11.074   1.862  10.620  0.4089  2.5458 -1.3350
  986MOL0     H36035  11.239   1.918  10.594  0.8492 -2.8348 -1.0582
  986MOL0     H36036  11.156   1.760  10.849  1.3080  2.9942  0.7678
  986MOL0     H36037  11.320   1.776  10.770  0.3011 -1.6379  0.8649
  986MOL0     H36038  11.094   1.636  10.604  1.6598  0.3103 -4.1910
  986MOL0     H36039  11.177   1.552  10.726 -0.5055  3.1238  2.2709
  986MOL0     H36040  11.273   1.558  10.474  2.0116  0.3429 -3.0007
  986MOL0     H36041  11.314   1.723  10.514 -1.3636  0.3546 -0.1188
  986MOL0     H36042  11.475   1.663  10.682  2.7256 -2.1137  1.2400
  986MOL0     H36043  11.502   1.574  10.522  0.7723  1.8327  0.7497
  986MOL0     H36044  11.384   1.490  10.790  0.5990 -1.9990  1.9423
  986MOL0     H36045  11.555   1.461  10.747  0.0302 -0.4261  0.3698
  986MOL0     H36046  11.306   1.348  10.607  0.6412  1.3516 -0.8026
  986MOL0     H36047  11.410   1.252  10.723  0.4248  0.6867  2.0337
  986MOL0     H36048  11.143   2.213  10.919  1.3070  0.9358  2.0163
  986MOL0     H36049  11.036   2.375  11.093 -2.5647  0.8312  3.2433
  986MOL0     H36050  10.871   2.571  11.285 -0.4376  1.3239  0.4207
  986MOL0     H36051  10.860   2.758  11.440  1.0176 -0.7009 -0.7338
  986MOL0     H36052   9.979   3.693  11.096  1.0549 -0.5173 -0.6018
  986MOL0     H36053   9.816   3.832  11.180  2.3483  0.3851  2.7793
  986MOL0     H36054   9.571   4.028  11.214  1.0139 -0.8251  1.7189
  986MOL0     H36055   9.324   4.087  11.243 -0.6796  1.7720  2.5754
  986MOL0     H36056   9.135   4.226  11.313  0.7933  2.2160 -0.1114
  986MOL0     H36057   9.014   4.307  11.222  0.4965  1.4662 -0.9617
  986MOL0     H36058   8.986   4.066  11.180 -3.2794  2.7777 -1.7729
  986MOL0     H36059   9.156   4.057  11.111 -0.2373 -1.3534  1.6047
  986MOL0     H36060   8.926   4.235  11.024  0.9710  1.9908  0.9211
  986MOL0     H36061   9.072   4.215  10.924 -2.3926  0.7335 -2.4079
  986MOL0     H36062   8.892   3.976  10.977 -0.6315 -0.5050 -1.7160
  986MOL0     H36063   9.035   3.982  10.875  1.1909  1.8724 -0.8132
  986MOL0     H36064   8.767   4.161  10.621 -0.7587  0.3344  1.5288
  986MOL0     H36065   9.393   4.441  11.021  1.8193  2.1912 -0.3279
  986MOL0     H36066   9.751   4.448  11.043 -0.7319 -2.0257  2.5848
  986MOL0     H36067   9.681   4.380  10.894 -2.0471 -2.8137 -0.0724
  986MOL0     H36068   9.605   4.523  10.967  3.4249  1.6904  0.6285
  987MOL0     O36069   5.610  10.054   2.692  1.0490 -0.1270 -0.1523
  987MOL0     C36070   5.640  10.115   2.590 -0.0859  1.0421  1.1034
  987MOL0     O36071   5.774  10.137   2.556  0.3439  0.0102 -0.7728
  987MOL0     C36072   5.864  10.137   2.651 -0.4518 -0.7492 -0.2038
  987MOL0     C36073   5.976  10.053   2.637  0.2350 -1.0098  0.3797
  987MOL0     C36074   6.090  10.040   2.729  1.3912 -0.1697 -0.3856
  987MOL0     C36075   6.093  10.125   2.840  0.0579  0.8121 -0.4043
  987MOL0     O36076   6.211  10.105   2.912 -0.6882  0.3066  0.8266
  987MOL0     C36077   6.237  10.197   3.011  0.4460 -0.3924 -0.4053
  987MOL0     C36078   6.387  10.198   3.046 -0.1540 -0.4987  0.8827
  987MOL0     C36079   6.475  10.241   2.932  0.5307 -0.0609 -0.1575
  987MOL0     C36080   6.621  10.201   2.959 -0.2523 -0.1437  0.0331
  987MOL0     C36081   6.703  10.253   2.841 -0.5425  0.5464 -0.6095
  987MOL0     C36082   6.847  10.219   2.867  0.1148 -0.1266  0.0679
  987MOL0     C36083   6.939  10.274   2.756 -0.4595  0.2896  0.1698
  987MOL0     C36084   6.938  10.197   2.619  0.0023 -0.2873  0.0707
  987MOL0     N36085   7.021  10.082   2.605  0.0458  0.1900  0.4703
  987MOL0     C36086   7.133  10.065   2.522 -0.4249  0.2461  0.1809
  987MOL0     C36087   7.164   9.940   2.562 -0.5651  0.4164  1.1998
  987MOL0     C36088   7.298   9.873   2.519  0.5862 -0.2613  1.1286
  987MOL0     C36089   7.278   9.777   2.410  1.4323  0.7776  0.2303
  987MOL0     C36090   7.212   9.849   2.289 -0.1799  0.0977 -0.1213
  987MOL0     C36091   7.183   9.752   2.174 -0.5420 -0.3277  0.6241
  987MOL0     O36092   7.308   9.694   2.145 -0.0897  0.2789  0.7107
  987MOL0     C36093   7.416   9.758   2.103 -0.0915 -0.9409  0.1978
  987MOL0     C36094   7.406   9.879   2.029 -0.1784 -0.0994  0.0786
  987MOL0     C36095   7.511   9.937   1.956 -0.2333  0.0193 -0.0922
  987MOL0     C36096   7.494  10.072   1.900 -0.1435  0.3275  0.2425
  987MOL0     C36097   7.638   9.875   1.961 -0.6101 -0.2213  0.4529
  987MOL0     C36098   7.763   9.910   1.892  0.0904  0.0064  0.1047
  987MOL0     O36099   7.881   9.881   1.947 -0.3197  0.2589 -0.0995
  987MOL0     C36100   8.012   9.895   1.894  0.5126 -0.2767  0.2672
  987MOL0     C36101   8.038   9.975   1.788  0.1599  0.0940 -0.3263
  987MOL0     C36102   8.165   9.990   1.726 -0.0572 -0.3543 -0.2809
  987MOL0     C36103   8.271   9.919   1.782  0.7550 -0.8278 -0.1101
  987MOL0     O36104   8.387   9.921   1.711  0.0839  0.4992 -0.4203
  987MOL0     C36105   8.495   9.832   1.743  0.4453  0.5222  0.5753
  987MOL0     C36106   8.603   9.846   1.641 -0.0608  0.8787  0.5377
  987MOL0     C36107   8.559   9.817   1.493  0.4924 -0.9189 -0.2811
  987MOL0     C36108   8.506   9.675   1.473  0.2438 -0.0860  0.0727
  987MOL0     C36109   8.499   9.620   1.330  0.7608 -0.6936 -0.3301
  987MOL0     C36110   8.403   9.502   1.330 -0.0680  0.8373  0.6150
  987MOL0     C36111   8.393   9.427   1.198  0.8837 -0.2602 -0.1905
  987MOL0     C36112   8.280   9.323   1.198 -0.3071  0.3181 -0.9903
  987MOL0    Cl36113   8.309   9.179   1.310  0.0614 -0.3977  0.2412
  987MOL0     C36114   8.250   9.835   1.894  0.6872  0.4572  0.2374
  987MOL0     C36115   8.122   9.825   1.950 -0.1008  0.4127  0.3853
  987MOL0     O36116   7.748   9.961   1.779 -0.1283  0.0300 -0.7284
  987MOL0     C36117   7.650   9.760   2.046 -0.2745  0.7538 -0.6134
  987MOL0     C36118   7.536   9.698   2.110 -0.5129 -0.5436 -0.1509
  987MOL0     N36119   7.087   9.896   2.670 -0.3490  0.7266  0.1724
  987MOL0     N36120   6.997   9.978   2.685 -0.0613  0.2903 -0.3808
  987MOL0     C36121   5.986  10.221   2.857 -0.9650 -0.0546 -0.6899
  987MOL0     C36122   5.880  10.233   2.761  0.1147  0.3117 -1.5346
  987MOL0     C36123   5.536  10.156   2.494 -0.1192 -0.1425 -0.6935
  987MOL0     C36124   5.585  10.216   2.380  0.7198  0.0714 -0.4880
  987MOL0     C36125   5.501  10.246   2.268  0.1384 -0.6482 -0.3052
  987MOL0     C36126   5.364  10.221   2.279 -0.1403 -0.4257  1.1553
  987MOL0     O36127   5.273  10.246   2.176 -0.5672 -0.4586  0.2075
  987MOL0     C36128   5.316  10.264   2.041  0.5376  0.6538  1.7433
  987MOL0     C36129   5.380  10.132   1.988  0.3900  0.6308  0.0685
  987MOL0     C36130   5.449  10.160   1.851 -0.3910  0.1674 -0.3266
  987MOL0     C36131   5.523  10.046   1.786 -0.0989 -0.3932  0.3710
  987MOL0     C36132   5.583  10.091   1.656  0.3277  0.7488 -0.3973
  987MOL0     C36133   5.640  10.128   1.558 -0.4997  0.2980  0.2312
  987MOL0     C36134   5.319  10.161   2.393 -0.5835 -0.3777  0.0746
  987MOL0     C36135   5.399  10.125   2.505  0.6123  0.1452  0.1822
  987MOL0     C36136   5.327  10.046   2.615 -1.0501  0.1988  0.2616
  987MOL0     H36137   5.967   9.989   2.551  0.7615  0.5672 -0.8916
  987MOL0     H36138   6.178   9.977   2.717  1.8597 -0.1026  2.0632
  987MOL0     H36139   6.173  10.174   3.097  1.5380 -3.8814 -0.3543
  987MOL0     H36140   6.214  10.299   2.981  0.5219 -0.4811 -0.7637
  987MOL0     H36141   6.411  10.274   3.121  0.8257  1.1113 -0.9672
  987MOL0     H36142   6.402  10.094   3.076 -1.9746 -0.7851  0.9108
  987MOL0     H36143   6.440  10.208   2.834 -4.1692 -0.6674  1.4412
  987MOL0     H36144   6.486  10.349   2.918 -1.3958  0.4010  1.4215
  987MOL0     H36145   6.655  10.253   3.049  2.8346 -1.7577 -0.0545
  987MOL0     H36146   6.638  10.093   2.955 -0.5556 -0.1533 -1.7905
  987MOL0     H36147   6.703  10.362   2.843  2.0678  0.5825  0.0741
  987MOL0     H36148   6.661  10.214   2.748 -0.5566 -0.5283 -0.1773
  987MOL0     H36149   6.883  10.273   2.954 -2.2483  1.8522 -0.0577
  987MOL0     H36150   6.863  10.112   2.884 -2.0039 -0.5416 -0.2075
  987MOL0     H36151   7.040  10.277   2.798 -0.1748  0.5431 -0.5199
  987MOL0     H36152   6.914  10.380   2.742  1.4162  0.6583 -0.7215
  987MOL0     H36153   6.835  10.172   2.594 -1.0775  1.5376  2.2907
  987MOL0     H36154   6.982  10.269   2.550 -0.8703  0.1919  0.0001
  987MOL0     H36155   7.178  10.127   2.445  0.9802  0.3188  1.0310
  987MOL0     H36156   7.341   9.822   2.606  0.4679 -2.0089  0.1908
  987MOL0     H36157   7.364   9.951   2.480 -0.7177 -0.1382 -0.9627
  987MOL0     H36158   7.369   9.722   2.386 -0.0586 -1.3668 -0.8764
  987MOL0     H36159   7.208   9.698   2.440 -2.5893  3.0454 -2.2915
  987MOL0     H36160   7.123   9.903   2.321 -1.1182 -1.9182  0.8100
  987MOL0     H36161   7.282   9.924   2.249  0.6924 -1.0198 -0.7467
  987MOL0     H36162   7.114   9.672   2.201 -0.2922 -0.9956 -0.6405
  987MOL0     H36163   7.147   9.808   2.088  1.3136 -0.5639 -0.3517
  987MOL0     H36164   7.307   9.924   2.021  0.4304  1.0955 -1.3318
  987MOL0     H36165   7.546  10.137   1.972  0.5866  0.9211 -0.8001
  987MOL0     H36166   7.394  10.116   1.893 -0.0031  0.5162 -0.6141
  987MOL0     H36167   7.539  10.084   1.801 -1.6483 -0.4853 -0.5719
  987MOL0     H36168   7.969  10.040   1.736 -0.9503 -1.4336 -0.8706
  987MOL0     H36169   8.175  10.057   1.641 -3.2453 -2.2885 -2.4545
  987MOL0     H36170   8.538   9.854   1.841  0.6205 -3.0304  1.4359
  987MOL0     H36171   8.460   9.729   1.751 -0.7683  0.9152  0.5683
  987MOL0     H36172   8.661   9.939   1.639  4.4647 -1.6345 -2.8570
  987MOL0     H36173   8.673   9.766   1.665 -2.2867 -1.7833 -1.2453
  987MOL0     H36174   8.645   9.845   1.432  2.5063 -3.7969  0.9906
  987MOL0     H36175   8.477   9.886   1.469  0.1619 -0.5660  1.7026
  987MOL0     H36176   8.403   9.682   1.511 -0.7048 -1.0830 -2.1426
  987MOL0     H36177   8.562   9.597   1.526 -0.4250 -0.3694  0.3745
  987MOL0     H36178   8.463   9.700   1.264  0.8316 -0.6295 -0.2925
  987MOL0     H36179   8.596   9.597   1.287  1.2645 -0.7623  0.8179
  987MOL0     H36180   8.304   9.545   1.345 -0.9295  1.1758 -4.4702
  987MOL0     H36181   8.430   9.444   1.419  1.7008  3.0582  1.6210
  987MOL0     H36182   8.486   9.373   1.178 -1.1543 -3.5828 -1.4302
  987MOL0     H36183   8.360   9.494   1.118  0.8984 -0.2972 -0.2273
  987MOL0     H36184   8.259   9.301   1.093 -4.5002 -0.4571 -0.1486
  987MOL0     H36185   8.185   9.363   1.233 -2.1741 -3.6157 -1.0678
  987MOL0     H36186   8.335   9.778   1.931  0.4484  0.3572  0.6426
  987MOL0     H36187   8.114   9.770   2.044 -1.7639 -2.5307 -1.3310
  987MOL0     H36188   7.744   9.705   2.052 -0.3855  0.6938  1.1001
  987MOL0     H36189   7.555   9.606   2.166  1.1899 -0.2093 -0.1070
  987MOL0     H36190   6.004  10.297   2.932  2.1877 -1.9073  0.6668
  987MOL0     H36191   5.806  10.309   2.783  1.2733  0.6370  1.8730
  987MOL0     H36192   5.690  10.241   2.370  0.3559  2.8253  1.2054
  987MOL0     H36193   5.548  10.305   2.190  0.5437 -0.2800  0.2095
  987MOL0     H36194   5.227  10.285   1.982  1.5791  5.2648  1.3854
  987MOL0     H36195   5.373  10.354   2.014 -0.4229  0.0492 -3.0288
  987MOL0     H36196   5.301  10.056   1.977 -0.0211  1.0592  0.0529
  987MOL0     H36197   5.460  10.095   2.053 -0.3249 -0.1984  0.5008
  987MOL0     H36198   5.373  10.192   1.780 -2.2689  0.3262  1.6589
  987MOL0     H36199   5.531  10.232   1.862  1.1668 -1.4225 -0.9759
  987MOL0     H36200   5.461   9.956   1.773  0.7101 -1.0519  0.9283
  987MOL0     H36201   5.594  10.005   1.858  2.2323  2.2623 -0.2275
  987MOL0     H36202   5.689  10.172   1.473  2.3516 -0.0009  1.6105
  987MOL0     H36203   5.213  10.142   2.379 -0.4763 -0.2296 -1.0837
  987MOL0     H36204   5.220  10.066   2.626 -1.3207 -1.0149 -0.0048
  987MOL0     H36205   5.339   9.942   2.583  2.9611  0.6683 -0.2009
  987MOL0     H36206   5.373  10.052   2.714 -1.4095  0.4545  0.4184
  988MOL0     O36207   1.657   9.810   0.642 -0.5152  0.1600 -0.2499
  988MOL0     C36208   1.541   9.763   0.631  1.3967 -0.7265  0.3932
  988MOL0     O36209   1.501   9.645   0.684 -1.0056  0.2874  0.4592
  988MOL0     C36210   1.585   9.539   0.692  0.0945  1.4983 -0.6270
  988MOL0     C36211   1.681   9.502   0.603  0.4690 -0.4426 -0.3180
  988MOL0     C36212   1.762   9.390   0.631  0.4169 -0.1152  0.1517
  988MOL0     C36213   1.736   9.304   0.727  0.4096 -0.2048  1.6402
  988MOL0     O36214   1.824   9.205   0.740  0.5202 -0.0504  0.0058
  988MOL0     C36215   1.762   9.084   0.779  0.1322 -0.5912  0.0337
  988MOL0     C36216   1.856   8.967   0.756  0.2677 -1.9984  1.1511
  988MOL0     C36217   1.898   8.941   0.614 -0.0083  0.1072  0.5795
  988MOL0     C36218   1.982   8.814   0.598 -0.2932 -0.4215 -0.2672
  988MOL0     C36219   1.985   8.762   0.452 -0.3358 -0.3693  0.1906
  988MOL0     C36220   2.078   8.851   0.365 -0.4101  0.2381 -1.2902
  988MOL0     C36221   2.077   8.826   0.214  0.4273  0.0376  0.5790
  988MOL0     C36222   1.948   8.877   0.148  0.7222  0.6978  1.0198
  988MOL0     N36223   1.920   9.019   0.168  0.4273  0.6571  0.3596
  988MOL0     C36224   1.846   9.072   0.261 -0.7566  0.1813  0.3262
  988MOL0     C36225   1.842   9.204   0.238  0.0014  0.9237  0.3019
  988MOL0     C36226   1.766   9.307   0.317  0.4850 -0.1363 -0.4020
  988MOL0     C36227   1.666   9.366   0.214 -0.1954 -0.3426 -0.0261
  988MOL0     C36228   1.715   9.491   0.127 -0.1431 -0.4693  0.7457
  988MOL0     C36229   1.631   9.484  -0.000 -0.8091  0.2826  1.0343
  988MOL0     O36230   1.657   9.596  -0.094  0.5923  0.6576  0.4232
  988MOL0     C36231   1.645   9.590  -0.234  0.1898  1.4677 -0.6054
  988MOL0     C36232   1.658   9.715  -0.295 -0.9525  0.2750 -0.3445
  988MOL0     C36233   1.633   9.733  -0.430  0.3747  1.1095 -1.0314
  988MOL0     C36234   1.673   9.874  -0.470 -0.5879 -1.1202  0.3858
  988MOL0     C36235   1.589   9.630  -0.509  0.0779  1.2088 -0.8502
  988MOL0     C36236   1.542   9.633  -0.648 -0.2356  0.6699 -0.5135
  988MOL0     O36237   1.543   9.511  -0.716 -0.7385 -0.4573 -0.0125
  988MOL0     C36238   1.501   9.504  -0.845 -0.7897  0.1072 -0.1397
  988MOL0     C36239   1.416   9.398  -0.870 -0.1435 -0.1502  0.0430
  988MOL0     C36240   1.347   9.374  -0.990  0.2729 -0.0761  0.1875
  988MOL0     C36241   1.359   9.477  -1.099  0.2965 -0.0447 -0.8181
  988MOL0     O36242   1.284   9.477  -1.213  0.7382 -0.2889  0.5697
  988MOL0     C36243   1.150   9.425  -1.218  0.5168  0.6828 -0.2831
  988MOL0     C36244   1.100   9.396  -1.353  0.0733 -1.1468  0.3593
  988MOL0     C36245   1.170   9.284  -1.423  0.7702  1.0050  0.5852
  988MOL0     C36246   1.105   9.228  -1.553 -0.0537  0.0370 -0.5106
  988MOL0     C36247   1.182   9.109  -1.613 -0.2633  0.2820 -0.1205
  988MOL0     C36248   1.114   9.056  -1.748 -0.1911 -0.2580  0.6830
  988MOL0     C36249   1.168   9.144  -1.871 -0.9219  0.7778 -0.6079
  988MOL0     C36250   1.070   9.134  -1.987 -0.3795  0.0252 -0.3388
  988MOL0    Cl36251   1.078   9.284  -2.074 -0.5682 -0.0509 -0.0685
  988MOL0     C36252   1.467   9.570  -1.077 -0.6471  1.1300  0.5311
  988MOL0     C36253   1.540   9.589  -0.951  0.7342  0.3589 -0.8732
  988MOL0     O36254   1.502   9.742  -0.695  0.1121 -0.1821 -0.5741
  988MOL0     C36255   1.579   9.498  -0.456 -0.2341  0.2410 -0.7368
  988MOL0     C36256   1.606   9.485  -0.320 -0.4596 -0.2982 -0.4042
  988MOL0     N36257   1.922   9.230   0.133  0.0787  0.0833  0.6664
  988MOL0     N36258   1.967   9.121   0.085 -0.0826 -0.5737  0.0725
  988MOL0     C36259   1.629   9.336   0.819  0.4846  0.0365  0.0216
  988MOL0     C36260   1.549   9.449   0.795 -0.9163  0.4461  0.1732
  988MOL0     C36261   1.433   9.851   0.582  0.2885  0.7205  0.4556
  988MOL0     C36262   1.303   9.822   0.632 -0.0745 -0.6377  0.0966
  988MOL0     C36263   1.196   9.895   0.580  1.1217 -0.2944 -0.1561
  988MOL0     C36264   1.214   9.998   0.479  0.0734  0.8786 -0.1525
  988MOL0     O36265   1.113  10.074   0.438 -1.0102  0.2050 -0.0915
  988MOL0     C36266   1.005  10.001   0.382 -0.1156 -0.2021  0.2939
  988MOL0     C36267   0.979  10.054   0.241  0.7546 -0.1514 -1.5302
  988MOL0     C36268   0.829  10.017   0.215  0.0790 -1.1953  0.3960
  988MOL0     C36269   0.778  10.054   0.077  0.1689 -1.1284  0.2425
  988MOL0     C36270   0.641  10.097   0.095  0.2737  0.5369 -0.0336
  988MOL0     C36271   0.521  10.111   0.081 -0.8635  0.7378 -0.7465
  988MOL0     C36272   1.342  10.019   0.429 -0.0155  0.8493  0.2128
  988MOL0     C36273   1.455   9.943   0.479  0.0762 -0.1288 -0.8981
  988MOL0     C36274   1.591   9.985   0.423 -0.0752 -0.2516 -0.6343
  988MOL0     H36275   1.701   9.554   0.510 -2.3007  0.2979 -0.5905
  988MOL0     H36276   1.845   9.377   0.562  4.3151  2.4796  3.8449
  988MOL0     H36277   1.680   9.064   0.711  1.4201 -2.0047 -1.1608
  988MOL0     H36278   1.748   9.098   0.887  0.8053 -1.0822  0.1911
  988MOL0     H36279   1.940   8.974   0.826  1.2306  2.3904 -0.1670
  988MOL0     H36280   1.809   8.876   0.795  2.8256 -1.7046  5.5567
  988MOL0     H36281   1.807   8.933   0.554 -0.6348  0.7177  1.4341
  988MOL0     H36282   1.963   9.024   0.584 -1.9551  2.2738  2.0304
  988MOL0     H36283   2.082   8.834   0.637 -1.4869  3.4615  1.3533
  988MOL0     H36284   1.941   8.727   0.650 -1.4746 -0.0860 -0.5919
  988MOL0     H36285   1.883   8.741   0.419 -0.4954 -0.3780  0.6819
  988MOL0     H36286   2.029   8.662   0.447  1.7072  0.2816  2.8913
  988MOL0     H36287   2.065   8.959   0.379 -0.1704  0.2878 -1.4462
  988MOL0     H36288   2.182   8.841   0.397  0.0292  0.0580 -2.7353
  988MOL0     H36289   2.091   8.722   0.185  1.7202  1.0424 -2.9075
  988MOL0     H36290   2.167   8.872   0.172 -0.1423  0.6789  0.0261
  988MOL0     H36291   1.946   8.854   0.041 -1.9629 -2.9495  1.6487
  988MOL0     H36292   1.869   8.814   0.189  2.2050 -2.7328 -0.9217
  988MOL0     H36293   1.791   9.032   0.346  0.2937 -3.2912 -0.4613
  988MOL0     H36294   1.825   9.394   0.349 -0.5688 -0.3752  2.3872
  988MOL0     H36295   1.724   9.263   0.407  0.6279  3.2429  1.5037
  988MOL0     H36296   1.632   9.288   0.144 -1.3903 -0.1302  0.2924
  988MOL0     H36297   1.586   9.397   0.281  1.8673  0.5244  2.1458
  988MOL0     H36298   1.694   9.586   0.178 -3.0130 -1.1721  1.0258
  988MOL0     H36299   1.823   9.482   0.110 -0.1108  0.5870  0.3286
  988MOL0     H36300   1.660   9.390  -0.048 -0.0345  0.1224  1.8110
  988MOL0     H36301   1.528   9.473   0.036 -0.9344  0.9531  0.8929
  988MOL0     H36302   1.702   9.788  -0.227 -0.9423 -2.1367  2.4689
  988MOL0     H36303   1.631   9.943  -0.396  1.7998 -0.1410  0.9456
  988MOL0     H36304   1.639   9.905  -0.569 -1.5036 -1.3215  0.6342
  988MOL0     H36305   1.780   9.898  -0.460 -1.2577  1.9029  1.4512
  988MOL0     H36306   1.400   9.322  -0.793 -1.1199  0.6154  0.6255
  988MOL0     H36307   1.274   9.293  -0.997 -2.8277  2.3394  1.8756
  988MOL0     H36308   1.146   9.341  -1.149  2.5546  0.4844 -0.3653
  988MOL0     H36309   1.078   9.501  -1.186  1.2934  1.1511  0.3949
  988MOL0     H36310   0.994   9.370  -1.341  0.0645 -0.7622  1.2349
  988MOL0     H36311   1.110   9.486  -1.414 -0.8497 -0.9252  0.5110
  988MOL0     H36312   1.174   9.201  -1.352 -0.5915  0.2509 -0.1566
  988MOL0     H36313   1.274   9.313  -1.440  0.5661  0.5830 -1.7090
  988MOL0     H36314   1.120   9.306  -1.628 -0.6021  2.1114  1.4203
  988MOL0     H36315   0.999   9.206  -1.542  0.0387 -1.5626 -2.2248
  988MOL0     H36316   1.289   9.121  -1.627  0.1869 -0.9590  1.8392
  988MOL0     H36317   1.176   9.028  -1.540  1.7593  1.9719  2.0694
  988MOL0     H36318   1.007   9.073  -1.734 -0.2555 -1.2577  1.5495
  988MOL0     H36319   1.138   8.950  -1.759 -4.7877 -1.5999  1.3995
  988MOL0     H36320   1.264   9.110  -1.911 -1.1465 -0.5850 -0.0416
  988MOL0     H36321   1.181   9.243  -1.827 -1.2844  0.2513  0.7461
  988MOL0     H36322   0.966   9.131  -1.951 -0.3264 -0.1296 -0.1934
  988MOL0     H36323   1.085   9.042  -2.044  1.9036 -0.7489  1.3489
  988MOL0     H36324   1.495   9.627  -1.165  2.4267  0.4120  0.9338
  988MOL0     H36325   1.608   9.672  -0.935  0.6815  0.0484  1.1991
  988MOL0     H36326   1.549   9.409  -0.509  0.3582 -0.8840  0.7556
  988MOL0     H36327   1.571   9.393  -0.274  2.0848 -1.3172 -0.3420
  988MOL0     H36328   1.610   9.279   0.909 -0.7952 -0.6984 -0.6808
  988MOL0     H36329   1.459   9.475   0.850 -3.0490 -0.8090 -2.4771
  988MOL0     H36330   1.281   9.752   0.713  0.6403  0.2264  1.0666
  988MOL0     H36331   1.099   9.880   0.625  1.2706  2.7196  1.4539
  988MOL0     H36332   1.032   9.895   0.385 -0.7984 -0.4321 -1.0459
  988MOL0     H36333   0.914  10.012   0.442 -1.7760 -0.9876 -1.9363
  988MOL0     H36334   1.043   9.996   0.174 -0.9946 -2.4546 -1.3346
  988MOL0     H36335   0.993  10.161   0.224 -0.7977  0.4870  0.6700
  988MOL0     H36336   0.818   9.909   0.219  2.2630 -1.5476 -1.3048
  988MOL0     H36337   0.774  10.070   0.294 -1.9340 -2.3795 -0.1483
  988MOL0     H36338   0.784   9.967   0.012 -0.1681 -1.9401  1.2776
  988MOL0     H36339   0.834  10.141   0.040 -1.6381  1.0186  2.2662
  988MOL0     H36340   0.419  10.142   0.089 -1.2243 -0.7790  1.8700
  988MOL0     H36341   1.343  10.089   0.346 -2.8812  0.2083 -0.4592
  988MOL0     H36342   1.652  10.015   0.509 -1.0893 -0.6122  0.2365
  988MOL0     H36343   1.645   9.906   0.370 -2.5402 -2.1573 -0.4684
  988MOL0     H36344   1.589  10.073   0.358  0.2337 -1.0711 -1.7785
  989MOL0     O36345   0.869   8.379   8.381 -0.1923 -0.8551  0.1624
  989MOL0     C36346   0.983   8.380   8.341 -0.1628  0.1511 -0.6529
  989MOL0     O36347   1.076   8.484   8.348  0.4095 -0.1417  0.0301
  989MOL0     C36348   1.066   8.590   8.433  0.4436  0.1264  0.5497
  989MOL0     C36349   1.140   8.708   8.404  0.0636  0.1627  0.6219
  989MOL0     C36350   1.146   8.817   8.485 -0.2226  0.4891  1.0788
  989MOL0     C36351   1.078   8.820   8.604  0.2374  0.4498  0.0862
  989MOL0     O36352   1.079   8.935   8.673 -0.5075  0.2230 -0.6865
  989MOL0     C36353   0.946   8.973   8.714  0.2050  1.0202 -0.0023
  989MOL0     C36354   0.954   9.119   8.761  0.2952 -0.0755  0.5362
  989MOL0     C36355   0.993   9.135   8.911  0.5267  0.1153 -0.0056
  989MOL0     C36356   1.134   9.169   8.925  0.0367  0.4346  0.5738
  989MOL0     C36357   1.165   9.200   9.072  0.0286  0.4075 -0.2121
  989MOL0     C36358   1.308   9.152   9.094  0.4149  0.0472 -0.6542
  989MOL0     C36359   1.354   9.185   9.240 -0.1113  0.6397 -1.0806
  989MOL0     C36360   1.500   9.251   9.252  0.1268 -0.1522 -0.5327
  989MOL0     N36361   1.525   9.316   9.378 -0.8141 -0.1956 -0.3392
  989MOL0     C36362   1.531   9.256   9.501  0.1474 -0.4581 -0.0015
  989MOL0     C36363   1.564   9.353   9.594 -0.0462  0.1629  0.3256
  989MOL0     C36364   1.579   9.334   9.745 -0.9692 -0.5228  0.1401
  989MOL0     C36365   1.480   9.420   9.805 -0.1254 -0.4426  0.2373
  989MOL0     C36366   1.468   9.410   9.955  0.2201  0.1875 -0.0779
  989MOL0     C36367   1.419   9.537  10.033  0.6866 -0.0319 -0.3920
  989MOL0     O36368   1.284   9.577   9.985 -0.3001  0.4105  0.7372
  989MOL0     C36369   1.248   9.707  10.001 -0.0605 -0.5988 -0.1836
  989MOL0     C36370   1.128   9.750   9.934 -0.3242 -0.7121 -0.0951
  989MOL0     C36371   1.084   9.880   9.939  0.0000 -0.0067  0.3273
  989MOL0     C36372   0.988   9.915   9.832  0.7075  0.7746 -0.2782
  989MOL0     C36373   1.153   9.981  10.010 -0.3011 -0.9996  0.1182
  989MOL0     C36374   1.115  10.122  10.008 -0.8454 -1.0575 -0.9824
  989MOL0     O36375   1.219  10.204   9.962 -0.0987 -0.1981 -0.6682
  989MOL0     C36376   1.197  10.335   9.973 -0.2248 -0.3832 -0.2860
  989MOL0     C36377   1.097  10.402   9.898 -0.4431 -0.9980  0.4414
  989MOL0     C36378   1.084  10.545   9.908  0.2592  1.0822 -1.0553
  989MOL0     C36379   1.168  10.610   9.992  0.2949  0.1625 -0.1175
  989MOL0     O36380   1.161  10.751  10.001  0.6129  0.4207 -0.7479
  989MOL0     C36381   1.028  10.810  10.023  0.4637 -0.2398 -0.1106
  989MOL0     C36382   0.988  10.797  10.169  0.2533  0.8050  0.9471
  989MOL0     C36383   1.089  10.862  10.271 -0.3272  0.8905  1.2288
  989MOL0     C36384   1.039  10.834  10.413 -0.7917  0.2884  0.2287
  989MOL0     C36385   1.128  10.884  10.529 -0.1821  0.1162  1.2777
  989MOL0     C36386   1.050  10.857  10.664  0.1971 -0.3262  0.3894
  989MOL0     C36387   1.074  10.720  10.740 -0.3736  0.0370  0.1952
  989MOL0     C36388   0.955  10.692  10.830 -0.5209  0.9801 -1.1521
  989MOL0    Cl36389   0.959  10.819  10.953  0.0296 -0.2588  0.5154
  989MOL0     C36390   1.273  10.548  10.057  1.0578 -0.3091  0.7605
  989MOL0     C36391   1.282  10.407  10.052 -1.2086  0.0655 -0.1824
  989MOL0     O36392   1.002  10.156  10.020  0.3639 -0.3277 -1.1157
  989MOL0     C36393   1.263   9.935  10.087  0.7153 -0.6844  0.2631
  989MOL0     C36394   1.308   9.803  10.087 -0.1755  0.6450  1.4515
  989MOL0     N36395   1.554   9.468   9.523 -0.2435  0.2395  0.1327
  989MOL0     N36396   1.537   9.446   9.402  0.4822  0.0605  0.4450
  989MOL0     C36397   1.004   8.708   8.640 -0.5434 -0.6630  0.3965
  989MOL0     C36398   0.997   8.598   8.557  0.3466  0.7012  0.5448
  989MOL0     C36399   1.037   8.267   8.267  0.7426  1.2568  0.5810
  989MOL0     C36400   1.153   8.284   8.195 -0.5841  0.2523  0.3984
  989MOL0     C36401   1.212   8.181   8.128 -0.0648 -0.2730  0.0060
  989MOL0     C36402   1.156   8.051   8.129  0.6128 -0.0921 -0.1175
  989MOL0     O36403   1.214   7.950   8.056 -0.3844 -0.1766 -0.3707
  989MOL0     C36404   1.338   7.891   8.111  0.1713 -0.2168  0.3936
  989MOL0     C36405   1.414   7.827   7.995 -0.5579  0.2604 -1.0464
  989MOL0     C36406   1.335   7.721   7.913  0.3771  0.7765  0.1143
  989MOL0     C36407   1.297   7.585   7.982  1.1429  0.2692  0.1288
  989MOL0     C36408   1.398   7.541   8.081 -0.0672 -0.5219  0.6999
  989MOL0     C36409   1.477   7.509   8.162  0.4415  0.7088  0.5706
  989MOL0     C36410   1.037   8.028   8.197 -0.0347 -0.1310  0.6530
  989MOL0     C36411   0.980   8.131   8.270 -0.0187 -0.3642  0.0065
  989MOL0     C36412   0.851   8.105   8.338  0.1000 -0.4879 -0.9922
  989MOL0     H36413   1.203   8.708   8.315  0.0110  3.8784  0.4292
  989MOL0     H36414   1.197   8.903   8.444 -2.3494  0.6689 -1.4676
  989MOL0     H36415   0.914   8.904   8.792 -0.6993 -1.8078 -2.6981
  989MOL0     H36416   0.888   8.968   8.622 -0.3059  0.8372  0.3239
  989MOL0     H36417   1.020   9.179   8.698  0.8168 -2.4945 -1.3486
  989MOL0     H36418   0.857   9.170   8.753 -0.4409 -1.6589 -1.1179
  989MOL0     H36419   0.933   9.214   8.956  1.7912 -0.8616  3.7723
  989MOL0     H36420   0.972   9.037   8.954  0.3825 -1.3310 -3.1640
  989MOL0     H36421   1.188   9.075   8.904 -1.8152  0.0300 -3.2346
  989MOL0     H36422   1.175   9.233   8.847 -1.6111  1.1102  0.2271
  989MOL0     H36423   1.094   9.151   9.139 -0.0856  0.3680 -0.3619
  989MOL0     H36424   1.161   9.308   9.088  0.4068  0.4857 -0.6186
  989MOL0     H36425   1.310   9.043   9.085 -0.4385 -0.2441  1.8700
  989MOL0     H36426   1.382   9.203   9.032  0.1798  0.1000 -0.8913
  989MOL0     H36427   1.343   9.091   9.294  1.6497  0.0140 -1.7343
  989MOL0     H36428   1.285   9.256   9.287 -0.9573 -2.8144  3.5168
  989MOL0     H36429   1.573   9.171   9.240  0.4415 -0.0384  0.5008
  989MOL0     H36430   1.513   9.329   9.177 -0.8327  1.2986  0.7394
  989MOL0     H36431   1.532   9.150   9.526  1.1733 -0.2344  0.9596
  989MOL0     H36432   1.677   9.374   9.773 -2.4702  1.2080  3.3852
  989MOL0     H36433   1.567   9.230   9.778  1.3520 -1.7228 -2.3782
  989MOL0     H36434   1.498   9.526   9.786  1.6584 -1.0975 -2.2048
  989MOL0     H36435   1.384   9.396   9.759 -0.8198  1.7807  0.4148
  989MOL0     H36436   1.395   9.331   9.976  0.6942  0.3267  2.4778
  989MOL0     H36437   1.562   9.391  10.008 -0.5448 -2.0710  0.5728
  989MOL0     H36438   1.433   9.526  10.141  1.0186 -3.0521 -0.6719
  989MOL0     H36439   1.477   9.625  10.002  0.3622  0.8298  1.2948
  989MOL0     H36440   1.087   9.679   9.862 -2.7146  1.9778 -1.5994
  989MOL0     H36441   0.896   9.950   9.879  1.1188 -0.1571  1.2990
  989MOL0     H36442   0.967   9.832   9.764  1.5269 -1.3332  1.9385
  989MOL0     H36443   1.016   9.996   9.764 -2.3417  2.1442 -0.0502
  989MOL0     H36444   1.014  10.354   9.848 -0.8653 -0.1069  0.2615
  989MOL0     H36445   0.994  10.576   9.856  0.6494 -3.0798 -4.9231
  989MOL0     H36446   1.032  10.916   9.993  5.5206 -0.5750 -1.6419
  989MOL0     H36447   0.956  10.760   9.958  0.5958 -0.6754  0.0761
  989MOL0     H36448   0.883  10.826  10.176 -0.6394 -0.9705 -2.6406
  989MOL0     H36449   0.996  10.691  10.193 -0.1469 -0.2109 -2.7238
  989MOL0     H36450   1.097  10.970  10.253  1.0767  0.4683 -1.1700
  989MOL0     H36451   1.190  10.823  10.260 -1.0408 -0.7074 -0.0656
  989MOL0     H36452   1.034  10.729  10.444  0.3670  1.4324  5.2440
  989MOL0     H36453   0.941  10.883  10.426 -0.0777  0.8517  5.3464
  989MOL0     H36454   1.216  10.818  10.534  2.4068  2.8183 -2.4366
  989MOL0     H36455   1.157  10.989  10.531 -2.2058  0.7748  4.8250
  989MOL0     H36456   0.941  10.862  10.651 -0.1267 -1.0512  2.4450
  989MOL0     H36457   1.069  10.941  10.732  0.9492 -1.7546  2.0164
  989MOL0     H36458   1.157  10.728  10.810 -1.0572 -2.6552  1.4601
  989MOL0     H36459   1.106  10.640  10.671 -0.8867 -2.4932  2.7077
  989MOL0     H36460   0.971  10.597  10.880  0.1783  0.2462 -2.6958
  989MOL0     H36461   0.856  10.684  10.783 -3.2799  2.3794  3.7218
  989MOL0     H36462   1.331  10.614  10.120  1.0176  0.0568  0.4174
  989MOL0     H36463   1.351  10.356  10.118 -1.7892 -2.2839 -1.2790
  989MOL0     H36464   1.293  10.004  10.165 -1.3221  1.4188 -0.7061
  989MOL0     H36465   1.382   9.768  10.159 -1.5111 -1.1700  2.0238
  989MOL0     H36466   0.971   8.702   8.743 -2.6241 -2.4553 -0.2898
  989MOL0     H36467   0.931   8.513   8.575  2.8959 -1.4191  0.3975
  989MOL0     H36468   1.188   8.385   8.177  0.5074  0.2725  2.3992
  989MOL0     H36469   1.308   8.196   8.080 -0.3199  1.6955  0.0009
  989MOL0     H36470   1.400   7.959   8.170 -3.3502  2.1215  1.7277
  989MOL0     H36471   1.314   7.812   8.182 -1.2173  0.7226  1.0100
  989MOL0     H36472   1.513   7.789   8.022 -1.7480 -1.2773  1.5246
  989MOL0     H36473   1.445   7.908   7.929 -0.1486 -0.4185 -1.7060
  989MOL0     H36474   1.243   7.770   7.879 -0.5491 -0.4045  0.8449
  989MOL0     H36475   1.397   7.692   7.827  3.2014 -1.1418  2.5876
  989MOL0     H36476   1.276   7.502   7.915 -0.3668  1.7387 -1.3248
  989MOL0     H36477   1.204   7.604   8.037  0.5265  0.3380 -0.9186
  989MOL0     H36478   1.544   7.470   8.236 -0.4189 -2.1450 -0.0235
  989MOL0     H36479   0.989   7.932   8.181 -1.0188  0.4712 -0.1531
  989MOL0     H36480   0.816   8.007   8.303 -0.6812  0.0136 -1.6398
  989MOL0     H36481   0.852   8.119   8.447 -1.8896 -1.7446 -0.7649
  989MOL0     H36482   0.774   8.168   8.294 -1.9311 -1.0153  1.5609
  990MOL0     O36483  10.817   3.518   6.551 -0.3797 -0.3552 -0.0698
  990MOL0     C36484  10.916   3.474   6.488 -0.3331 -0.8976 -0.2746
  990MOL0     O36485  10.979   3.363   6.527  0.0720  0.5997 -0.2971
  990MOL0     C36486  10.947   3.306   6.642 -0.3808  0.2318 -0.1378
  990MOL0     C36487  11.013   3.339   6.764 -0.3901  1.4380 -0.3129
  990MOL0     C36488  10.966   3.274   6.880 -0.0882  0.1004  0.8334
  990MOL0     C36489  10.859   3.188   6.881 -0.3266  0.4898  1.1307
  990MOL0     O36490  10.803   3.148   6.996 -0.1570  0.2487  0.3742
  990MOL0     C36491  10.762   3.011   7.020 -0.0860  0.5056 -0.2474
  990MOL0     C36492  10.724   3.005   7.171  0.5187 -0.8526 -0.7569
  990MOL0     C36493  10.581   3.054   7.199 -0.9819 -0.2128 -0.2250
  990MOL0     C36494  10.546   3.091   7.346 -0.6335  0.0554 -0.2860
  990MOL0     C36495  10.571   3.241   7.384 -0.8095  0.1383 -0.1905
  990MOL0     C36496  10.710   3.283   7.384 -0.0764  0.0225 -0.6702
  990MOL0     C36497  10.728   3.410   7.457  0.2258 -0.5421  0.4571
  990MOL0     C36498  10.871   3.466   7.432  0.0455 -0.3844 -0.3354
  990MOL0     N36499  10.918   3.578   7.522  0.3835  0.3384  0.3804
  990MOL0     C36500  10.956   3.703   7.473 -0.1642 -0.8610 -0.0615
  990MOL0     C36501  10.990   3.777   7.584  0.1054 -0.2955 -0.3644
  990MOL0     C36502  11.027   3.928   7.581  0.1494 -0.1326 -0.2163
  990MOL0     C36503  11.171   3.955   7.535  0.1170 -0.7460 -0.4846
  990MOL0     C36504  11.199   4.104   7.523 -0.3429  0.1698 -0.0992
  990MOL0     C36505  11.355   4.131   7.528  0.1409 -0.7917 -0.1484
  990MOL0     O36506  11.416   4.071   7.411  0.8725 -1.0565 -0.7412
  990MOL0     C36507  11.550   4.109   7.405 -0.2542  0.5482 -0.2557
  990MOL0     C36508  11.583   4.238   7.364  0.5449  0.1248  0.0331
  990MOL0     C36509  11.710   4.272   7.334 -0.1325 -0.8852 -0.5609
  990MOL0     C36510  11.742   4.413   7.311  0.7279  1.0014 -0.1387
  990MOL0     C36511  11.817   4.188   7.333 -0.2910 -0.0199 -0.4103
  990MOL0     C36512  11.953   4.223   7.285 -0.3553  0.3527 -0.8017
  990MOL0     O36513  11.961   4.283   7.159 -0.4967  0.5235  0.0424
  990MOL0     C36514  12.085   4.329   7.114 -0.1761 -0.4229 -0.3495
  990MOL0     C36515  12.094   4.345   6.979 -0.3349 -0.3228 -0.0655
  990MOL0     C36516  12.219   4.389   6.930 -0.9063 -0.1295 -0.4471
  990MOL0     C36517  12.337   4.408   7.006  0.6799 -0.4287 -0.5950
  990MOL0     O36518  12.458   4.453   6.954 -0.2778 -0.1621 -0.6350
  990MOL0     C36519  12.521   4.568   7.015 -0.2336 -0.2087  1.0842
  990MOL0     C36520  12.607   4.635   6.911 -0.4737 -0.3229  0.2508
  990MOL0     C36521  12.530   4.749   6.839 -0.7973  0.0135 -1.2357
  990MOL0     C36522  12.594   4.775   6.701 -0.0722  0.7354  0.0939
  990MOL0     C36523  12.691   4.889   6.666 -0.3755 -0.6976  1.2401
  990MOL0     C36524  12.645   5.031   6.680 -0.7011  0.0243 -0.4547
  990MOL0     C36525  12.607   5.087   6.542  0.9793 -0.8876 -0.0324
  990MOL0     C36526  12.538   5.214   6.545 -0.6088 -0.8096  0.6361
  990MOL0    Cl36527  12.371   5.195   6.595 -0.0922 -0.1040 -0.1241
  990MOL0     C36528  12.328   4.385   7.139  1.1293  0.2063 -0.2962
  990MOL0     C36529  12.195   4.355   7.196 -0.6003  0.0151 -0.0151
  990MOL0     O36530  12.047   4.160   7.338  0.2535 -0.3165 -0.4545
  990MOL0     C36531  11.786   4.057   7.385 -1.1194  0.0761 -0.4820
  990MOL0     C36532  11.660   4.017   7.413  0.8136 -0.2838 -0.0446
  990MOL0     N36533  10.987   3.684   7.692 -0.2410  0.1692 -0.7654
  990MOL0     N36534  10.935   3.564   7.652 -0.5337  0.3406 -1.7342
  990MOL0     C36535  10.800   3.148   6.760  0.9011 -0.0528  0.2121
  990MOL0     C36536  10.844   3.217   6.636 -0.6467 -0.4300 -0.4670
  990MOL0     C36537  10.959   3.560   6.364 -0.4561  0.4784 -0.0163
  990MOL0     C36538  10.856   3.634   6.290  0.9461 -0.6350 -0.4192
  990MOL0     C36539  10.900   3.709   6.179  0.4186 -0.9515 -0.7834
  990MOL0     C36540  11.039   3.716   6.148 -0.5756 -0.1149  0.7746
  990MOL0     O36541  11.088   3.786   6.036 -0.5361  0.6425 -1.2910
  990MOL0     C36542  10.996   3.878   5.973  0.1947  0.3633 -0.6391
  990MOL0     C36543  10.968   4.002   6.052  0.7855 -0.4621  0.2104
  990MOL0     C36544  11.084   4.079   6.095  0.5844  1.0160  0.3661
  990MOL0     C36545  11.056   4.172   6.211 -0.0232  0.5876  0.4103
  990MOL0     C36546  10.999   4.301   6.181  0.0132  0.1225 -0.3969
  990MOL0     C36547  10.950   4.412   6.161  1.1895  0.3054  0.3027
  990MOL0     C36548  11.132   3.642   6.222  0.1817 -0.3845  0.0282
  990MOL0     C36549  11.100   3.572   6.330 -0.8366 -0.2298  0.5520
  990MOL0     C36550  11.205   3.490   6.405 -0.2954 -0.0390  0.5908
  990MOL0     H36551  11.093   3.412   6.769  1.8561 -0.5106 -3.6375
  990MOL0     H36552  11.018   3.297   6.973  1.4992  3.8675 -0.8004
  990MOL0     H36553  10.840   2.938   6.995 -2.9780 -3.4073  1.0844
  990MOL0     H36554  10.677   2.983   6.957 -0.0972 -0.1594  0.0584
  990MOL0     H36555  10.733   2.900   7.201  2.4920 -0.5602 -0.1718
  990MOL0     H36556  10.789   3.069   7.230 -0.2798  1.5602 -2.3415
  990MOL0     H36557  10.577   3.146   7.140 -0.2702 -0.3777 -0.5325
  990MOL0     H36558  10.518   2.973   7.160 -0.6782 -1.8289  2.4053
  990MOL0     H36559  10.441   3.065   7.364 -0.1141 -1.7331  0.3633
  990MOL0     H36560  10.609   3.027   7.408 -1.7533 -1.4680 -0.6422
  990MOL0     H36561  10.532   3.264   7.483 -0.7243  1.7623 -0.5101
  990MOL0     H36562  10.511   3.295   7.310  0.1102 -3.0766 -3.6443
  990MOL0     H36563  10.778   3.221   7.444  1.8383  2.0202 -0.6362
  990MOL0     H36564  10.761   3.293   7.288  3.1106 -2.2106  0.5697
  990MOL0     H36565  10.726   3.409   7.567  1.9055 -2.2164  0.5275
  990MOL0     H36566  10.652   3.478   7.418  3.6008  0.8030 -4.7252
  990MOL0     H36567  10.932   3.382   7.465 -3.3697 -2.9755 -0.0917
  990MOL0     H36568  10.890   3.490   7.327 -0.3455 -4.2420 -1.4254
  990MOL0     H36569  10.947   3.730   7.368  3.4400 -0.7299 -0.4701
  990MOL0     H36570  11.005   3.955   7.684 -0.3651 -0.4517 -0.2379
  990MOL0     H36571  10.967   3.990   7.515  0.2671 -0.8710 -1.0478
  990MOL0     H36572  11.253   3.909   7.592 -0.2405  0.1096  0.7524
  990MOL0     H36573  11.180   3.932   7.429 -2.3598  0.8990 -1.1221
  990MOL0     H36574  11.170   4.139   7.424  3.6209  1.2265 -1.0932
  990MOL0     H36575  11.162   4.161   7.608  2.1936  0.2963  1.0199
  990MOL0     H36576  11.357   4.240   7.518 -3.1109 -0.7202 -1.4790
  990MOL0     H36577  11.412   4.099   7.615  2.3745 -0.4320 -1.3920
  990MOL0     H36578  11.498   4.305   7.362  1.4332  1.4409  2.4916
  990MOL0     H36579  11.755   4.432   7.203  1.9503  3.3563  0.3425
  990MOL0     H36580  11.838   4.447   7.352  0.4920  0.6244  0.7278
  990MOL0     H36581  11.655   4.474   7.336 -2.0855 -1.7305 -2.4377
  990MOL0     H36582  12.001   4.340   6.924  0.6255 -2.0261 -1.6175
  990MOL0     H36583  12.218   4.419   6.826  0.6027  1.9227  0.0719
  990MOL0     H36584  12.470   4.639   7.081  2.3108  2.7375  0.1582
  990MOL0     H36585  12.577   4.522   7.096 -4.2437 -2.4387  2.9011
  990MOL0     H36586  12.688   4.693   6.956 -1.7336  2.3085 -0.6783
  990MOL0     H36587  12.644   4.559   6.841 -0.8447 -0.5591  0.3075
  990MOL0     H36588  12.533   4.838   6.901 -2.6967  0.8150 -2.2231
  990MOL0     H36589  12.425   4.717   6.839 -0.5071 -1.1025  0.3528
  990MOL0     H36590  12.510   4.786   6.631  0.6002 -0.3773 -0.9465
  990MOL0     H36591  12.641   4.685   6.660  1.0743  2.8909 -3.8760
  990MOL0     H36592  12.786   4.882   6.720  1.1897  1.7885 -0.9636
  990MOL0     H36593  12.720   4.863   6.563  0.0407  0.2626  1.1099
  990MOL0     H36594  12.723   5.079   6.739 -0.2432 -2.8165  1.4564
  990MOL0     H36595  12.549   5.032   6.732 -0.8232 -2.2935 -0.5423
  990MOL0     H36596  12.545   5.008   6.498  0.9888 -3.0262  3.3453
  990MOL0     H36597  12.697   5.104   6.484  0.1412 -0.9069 -1.3747
  990MOL0     H36598  12.555   5.265   6.450 -3.1882  1.9914  1.4812
  990MOL0     H36599  12.579   5.282   6.620 -2.7888  2.1643 -0.6718
  990MOL0     H36600  12.406   4.411   7.210  0.9811  2.4555 -0.8957
  990MOL0     H36601  12.187   4.355   7.304  0.0936 -0.4808  0.0437
  990MOL0     H36602  11.859   3.977   7.391 -1.3870 -0.1876 -0.7741
  990MOL0     H36603  11.633   3.912   7.426 -1.6376  0.2761 -0.2297
  990MOL0     H36604  10.715   3.082   6.746  2.8091 -2.4165 -0.9036
  990MOL0     H36605  10.808   3.181   6.541  0.3001 -1.4720 -0.4658
  990MOL0     H36606  10.749   3.641   6.305  1.3660  3.6475  2.0087
  990MOL0     H36607  10.819   3.769   6.138  1.3448  0.7809 -0.1706
  990MOL0     H36608  11.049   3.910   5.883  0.4535  1.1077 -0.2389
  990MOL0     H36609  10.904   3.832   5.936  1.4529 -2.2385 -0.7376
  990MOL0     H36610  10.916   3.968   6.142 -1.4402  2.0346 -0.0008
  990MOL0     H36611  10.892   4.060   5.997 -0.0814  2.2485  3.8820
  990MOL0     H36612  11.156   4.007   6.134 -2.3613 -2.6693 -0.4560
  990MOL0     H36613  11.139   4.130   6.016  1.1358  1.6478  1.1429
  990MOL0     H36614  11.158   4.192   6.246  1.5649  2.2335 -4.3375
  990MOL0     H36615  10.992   4.129   6.288 -2.1436 -2.1636 -2.5924
  990MOL0     H36616  10.900   4.497   6.120  1.9771  0.5783 -0.1098
  990MOL0     H36617  11.234   3.641   6.184  0.0107  1.1395 -0.5396
  990MOL0     H36618  11.303   3.512   6.362 -0.7465 -1.4210 -1.2830
  990MOL0     H36619  11.206   3.504   6.513 -3.3646  0.1423  0.6801
  990MOL0     H36620  11.181   3.387   6.378  0.7798  0.6155 -3.6593
  991MOL0     O36621  10.774   2.164   1.724 -0.6124  0.4135  0.4186
  991MOL0     C36622  10.754   2.282   1.731  0.3349 -0.7586  0.2279
  991MOL0     O36623  10.630   2.342   1.715  0.6565 -0.2209  0.7700
  991MOL0     C36624  10.513   2.277   1.694 -0.3690  0.4101 -0.0072
  991MOL0     C36625  10.469   2.250   1.565 -0.0240 -0.5278  0.4457
  991MOL0     C36626  10.355   2.167   1.539 -0.2266 -0.8148 -0.7376
  991MOL0     C36627  10.283   2.113   1.647 -0.5545 -0.5960  0.3214
  991MOL0     O36628  10.172   2.037   1.632  0.5352  0.2659 -0.3089
  991MOL0     C36629  10.106   2.055   1.507  0.5431  0.3558 -0.0048
  991MOL0     C36630   9.967   1.977   1.518 -0.6435 -0.7587 -1.0978
  991MOL0     C36631   9.883   1.972   1.387  0.3564 -0.2511 -0.3321
  991MOL0     C36632   9.958   1.918   1.263 -0.5157 -0.3492  0.9394
  991MOL0     C36633   9.871   1.865   1.160  0.0377  0.2733 -0.4773
  991MOL0     C36634   9.954   1.824   1.038  0.1886  0.1340  0.0298
  991MOL0     C36635   9.875   1.731   0.950  0.0815  0.3577  0.7750
  991MOL0     C36636   9.760   1.794   0.871  0.0666  0.2890 -0.0006
  991MOL0     N36637   9.698   1.699   0.781  0.0295 -0.2983  0.2156
  991MOL0     C36638   9.567   1.674   0.786  0.6278  0.3044 -0.2839
  991MOL0     C36639   9.536   1.621   0.666  0.3403 -0.0314  0.4032
  991MOL0     C36640   9.408   1.573   0.624 -1.1729  0.3595  0.3550
  991MOL0     C36641   9.418   1.416   0.627 -0.8849 -0.1251  0.9830
  991MOL0     C36642   9.283   1.351   0.658 -0.3800  0.0328 -0.3172
  991MOL0     C36643   9.191   1.370   0.538 -0.4864 -0.8835  0.6566
  991MOL0     O36644   9.249   1.305   0.425  0.2341 -0.3244 -0.0855
  991MOL0     C36645   9.172   1.317   0.310 -0.0107  0.7276 -0.0799
  991MOL0     C36646   9.232   1.256   0.198  0.5482 -0.5164  0.3876
  991MOL0     C36647   9.182   1.282   0.064 -0.8237 -1.1202 -0.7986
  991MOL0     C36648   9.254   1.208  -0.051  0.1557 -0.2441  0.3894
  991MOL0     C36649   9.077   1.378   0.041  0.1154  0.0775  0.7371
  991MOL0     C36650   9.033   1.429  -0.091 -0.1363 -0.2442  0.6216
  991MOL0     O36651   8.934   1.525  -0.098  0.3517  0.7884  0.8692
  991MOL0     C36652   8.893   1.597  -0.212  0.7545 -0.5510  0.1567
  991MOL0     C36653   8.807   1.706  -0.179 -0.2290 -0.4153 -0.2185
  991MOL0     C36654   8.765   1.793  -0.281  0.9246  0.2434  0.5789
  991MOL0     C36655   8.819   1.793  -0.409  0.8756  0.7458  0.7669
  991MOL0     O36656   8.770   1.893  -0.487 -0.0085  0.6706  0.5083
  991MOL0     C36657   8.855   1.920  -0.606 -0.2403 -0.2603  0.2597
  991MOL0     C36658   8.802   2.020  -0.700 -0.5080 -0.0232  1.1748
  991MOL0     C36659   8.912   2.065  -0.798 -0.1988 -0.6458 -0.1852
  991MOL0     C36660   8.943   1.971  -0.911 -0.3994  0.1294  0.2332
  991MOL0     C36661   9.060   2.022  -0.994 -0.0617  0.0900  0.7113
  991MOL0     C36662   9.189   1.998  -0.925  0.8534 -0.6723  0.0284
  991MOL0     C36663   9.307   1.988  -1.023  0.2323 -0.1857  0.3872
  991MOL0     C36664   9.335   2.121  -1.094  0.2225  0.3427 -0.0162
  991MOL0    Cl36665   9.402   2.242  -0.970  0.5348 -0.2424 -0.3475
  991MOL0     C36666   8.912   1.694  -0.441 -1.2915  0.0129 -0.8121
  991MOL0     C36667   8.949   1.595  -0.343 -0.3271  0.3545 -0.4000
  991MOL0     O36668   9.098   1.387  -0.185 -0.0076 -0.0542 -0.5151
  991MOL0     C36669   9.010   1.428   0.151  1.1560 -0.5029 -0.5321
  991MOL0     C36670   9.060   1.398   0.281 -0.0938 -1.2458  0.1417
  991MOL0     N36671   9.652   1.605   0.600  0.3253 -0.6185  0.3823
  991MOL0     N36672   9.747   1.657   0.659 -0.0368  0.0711 -0.2372
  991MOL0     C36673  10.330   2.131   1.776  0.2990  0.2958 -0.1138
  991MOL0     C36674  10.434   2.222   1.799 -0.3798 -1.1249 -0.1101
  991MOL0     C36675  10.870   2.372   1.752 -0.0284  0.2132  0.0312
  991MOL0     C36676  10.865   2.498   1.681  0.4289  0.4333  0.4484
  991MOL0     C36677  10.973   2.582   1.685 -0.4750 -0.0460  0.0331
  991MOL0     C36678  11.078   2.558   1.776 -0.3056  0.0469 -0.4967
  991MOL0     O36679  11.174   2.659   1.801  0.5837 -0.8039  0.0302
  991MOL0     C36680  11.304   2.636   1.762 -0.0014  0.6931 -0.7056
  991MOL0     C36681  11.332   2.630   1.611  0.3019  0.2675  0.1966
  991MOL0     C36682  11.306   2.765   1.547  0.1946 -0.2368  0.5045
  991MOL0     C36683  11.334   2.769   1.400  0.2573 -0.2672 -0.1379
  991MOL0     C36684  11.303   2.897   1.330 -0.5097 -1.7402  0.6390
  991MOL0     C36685  11.271   3.002   1.278  1.2572  0.2018  0.3658
  991MOL0     C36686  11.079   2.447   1.845  0.2644 -0.5576 -0.6423
  991MOL0     C36687  10.979   2.355   1.847 -0.4446 -0.0098 -0.5081
  991MOL0     C36688  11.012   2.233   1.942 -0.8365 -0.4507 -0.0334
  991MOL0     H36689  10.525   2.298   1.486  0.4543  2.0355  2.2126
  991MOL0     H36690  10.334   2.171   1.433 -4.9517 -2.1971 -0.0914
  991MOL0     H36691  10.137   2.004   1.416 -0.2966 -2.3524  1.1148
  991MOL0     H36692  10.099   2.163   1.492  1.6532  0.5033  0.3916
  991MOL0     H36693   9.985   1.875   1.553 -0.1065 -0.7364 -1.3055
  991MOL0     H36694   9.907   2.034   1.590 -0.2786 -1.8074  0.0614
  991MOL0     H36695   9.811   1.896   1.421 -2.7473  1.8624 -1.7303
  991MOL0     H36696   9.831   2.067   1.375 -0.3674 -0.5244  0.5144
  991MOL0     H36697  10.017   2.002   1.227  0.5229 -0.8263  1.5008
  991MOL0     H36698  10.026   1.835   1.284 -1.0410 -1.5237 -1.5382
  991MOL0     H36699   9.794   1.936   1.128  0.2302  0.9446  0.5014
  991MOL0     H36700   9.815   1.781   1.203 -0.2156  0.9016  0.4633
  991MOL0     H36701   9.979   1.915   0.982 -1.3623  1.9447  2.1138
  991MOL0     H36702  10.047   1.774   1.065  2.2233  0.9105 -4.5435
  991MOL0     H36703   9.839   1.650   1.015 -0.8679 -1.2301 -1.5876
  991MOL0     H36704   9.944   1.682   0.881 -1.7628 -0.7478 -0.3566
  991MOL0     H36705   9.687   1.834   0.941  0.1444 -1.7463  1.3245
  991MOL0     H36706   9.805   1.881   0.822  1.5373 -0.2019  0.3965
  991MOL0     H36707   9.496   1.710   0.860 -1.8428  1.3349 -2.9477
  991MOL0     H36708   9.389   1.602   0.521  0.5811 -0.8558 -0.3729
  991MOL0     H36709   9.328   1.614   0.686 -0.8061  1.5457  0.0681
  991MOL0     H36710   9.466   1.384   0.534 -0.2174  4.6514 -0.5683
  991MOL0     H36711   9.489   1.391   0.707  0.9939  0.5453 -0.4148
  991MOL0     H36712   9.295   1.243   0.671 -0.4844 -0.1141 -1.3179
  991MOL0     H36713   9.228   1.397   0.741 -0.7973 -1.4675  0.2645
  991MOL0     H36714   9.101   1.312   0.559 -0.5221 -1.3920 -0.8081
  991MOL0     H36715   9.174   1.473   0.507 -0.6250 -1.3612 -0.9351
  991MOL0     H36716   9.317   1.191   0.210  1.9998  1.1211 -0.6128
  991MOL0     H36717   9.321   1.277  -0.104 -0.1229  0.8913  1.4560
  991MOL0     H36718   9.178   1.160  -0.112  1.6301 -1.7252 -0.3629
  991MOL0     H36719   9.311   1.123  -0.012  0.7163 -0.1191 -0.1335
  991MOL0     H36720   8.767   1.739  -0.084 -0.1961  0.9479 -0.6462
  991MOL0     H36721   8.682   1.862  -0.269  0.6916  0.0928 -0.1280
  991MOL0     H36722   8.951   1.949  -0.564 -1.5119  0.6853  2.7376
  991MOL0     H36723   8.865   1.831  -0.669 -0.0423  0.8959 -1.4277
  991MOL0     H36724   8.710   1.977  -0.741 -0.4769  1.1317 -0.1864
  991MOL0     H36725   8.767   2.100  -0.635  2.6866  1.7340  0.9535
  991MOL0     H36726   9.002   2.094  -0.744 -1.5130 -3.0679  3.7437
  991MOL0     H36727   8.871   2.160  -0.835 -4.0788  0.2332  5.1493
  991MOL0     H36728   8.853   1.956  -0.972  0.2452 -2.3745 -0.2345
  991MOL0     H36729   8.964   1.875  -0.864 -1.4001  0.5090  1.5163
  991MOL0     H36730   9.068   1.963  -1.086  2.1419  2.4116 -0.7342
  991MOL0     H36731   9.041   2.128  -1.014  0.8416  0.1710  0.1870
  991MOL0     H36732   9.178   1.905  -0.869 -0.9530  0.9176  2.5795
  991MOL0     H36733   9.216   2.071  -0.848 -0.5668  0.9027 -0.8741
  991MOL0     H36734   9.294   1.912  -1.101 -4.1152  1.3287 -0.6123
  991MOL0     H36735   9.381   1.949  -0.953 -2.8850  1.1530  4.8051
  991MOL0     H36736   9.246   2.152  -1.151  0.9139 -1.9653 -2.5376
  991MOL0     H36737   9.417   2.116  -1.167  0.2217 -1.2318  0.0620
  991MOL0     H36738   8.972   1.710  -0.530  1.1882  3.5940  1.2280
  991MOL0     H36739   9.022   1.520  -0.373  0.1641  1.0881 -1.0635
  991MOL0     H36740   8.919   1.486   0.144 -1.9074 -4.8011 -0.2558
  991MOL0     H36741   9.022   1.452   0.367  1.4957  0.0812  0.0578
  991MOL0     H36742  10.276   2.087   1.859  2.1448  1.4851  1.8472
  991MOL0     H36743  10.469   2.257   1.895 -3.5283 -1.3460  1.2316
  991MOL0     H36744  10.783   2.519   1.613  1.4886 -1.5866 -1.5789
  991MOL0     H36745  10.992   2.681   1.644  0.2431 -0.3799 -0.4648
  991MOL0     H36746  11.362   2.721   1.799 -1.4544  0.6485  1.9273
  991MOL0     H36747  11.341   2.543   1.806 -0.3993  0.7728 -0.1918
  991MOL0     H36748  11.265   2.551   1.575 -0.6882  0.2601  1.9300
  991MOL0     H36749  11.435   2.603   1.585  0.7516  0.5863  1.5282
  991MOL0     H36750  11.200   2.791   1.559 -0.2532 -1.9699  0.6721
  991MOL0     H36751  11.366   2.846   1.588 -3.3751  4.0582 -1.8569
  991MOL0     H36752  11.273   2.695   1.347 -0.8363 -1.4941  2.6251
  991MOL0     H36753  11.440   2.742   1.393  0.7503  0.7310  2.5117
  991MOL0     H36754  11.232   3.090   1.231  0.8709 -0.9374 -1.5344
  991MOL0     H36755  11.165   2.436   1.911  0.3964 -0.5424 -0.8126
  991MOL0     H36756  11.052   2.268   2.037  0.1252  0.8661 -0.8777
  991MOL0     H36757  10.926   2.166   1.950 -1.3798  0.3018  0.5128
  991MOL0     H36758  11.090   2.185   1.882 -0.4687  1.3503 -1.0585
  992MOL0     O36759   9.359   0.093  11.264  0.3842  0.4005  0.3270
  992MOL0     C36760   9.473   0.069  11.235 -0.9072 -0.4710 -0.9115
  992MOL0     O36761   9.578   0.080  11.325  1.3423  0.2101  0.1019
  992MOL0     C36762   9.550   0.142  11.443  1.2510 -0.5704 -0.0346
  992MOL0     C36763   9.543   0.077  11.563 -0.2191 -0.2153  0.5249
  992MOL0     C36764   9.506   0.136  11.679  0.0576 -0.4769  1.1115
  992MOL0     C36765   9.474   0.275  11.681 -0.1575  0.4789 -0.5491
  992MOL0     O36766   9.446   0.331  11.802  0.6501 -0.2854 -0.0549
  992MOL0     C36767   9.503   0.459  11.835  0.3594  0.5139 -0.3338
  992MOL0     C36768   9.388   0.549  11.863  0.5936  0.4172  0.6241
  992MOL0     C36769   9.435   0.677  11.943  0.7282  0.6926 -0.6145
  992MOL0     C36770   9.470   0.634  12.092 -0.4505 -0.2241  0.1315
  992MOL0     C36771   9.545   0.757  12.157  0.4762 -0.2453 -0.5025
  992MOL0     C36772   9.628   0.725  12.296  0.8821  0.3265  0.3544
  992MOL0     C36773   9.700   0.839  12.359  0.2225  0.2786  0.4155
  992MOL0     C36774   9.826   0.897  12.290  0.2396  0.0110  0.1388
  992MOL0     N36775   9.863   1.021  12.347 -0.1938  0.3303 -0.0635
  992MOL0     C36776   9.855   1.143  12.286 -0.1686 -0.6621 -0.7394
  992MOL0     C36777   9.908   1.234  12.378  0.1230  0.4084 -0.8471
  992MOL0     C36778   9.923   1.377  12.349 -0.8897 -0.0048 -0.6432
  992MOL0     C36779  10.067   1.421  12.310  1.2594  0.5570  0.2955
  992MOL0     C36780  10.151   1.440  12.438  0.2157  0.0997 -0.6450
  992MOL0     C36781  10.297   1.483  12.387 -0.6887  0.1801  0.5452
  992MOL0     O36782  10.304   1.623  12.348 -0.7379  0.5537  0.0323
  992MOL0     C36783  10.283   1.727  12.426 -0.7820  1.3902 -0.2131
  992MOL0     C36784  10.310   1.734  12.561  1.1274  0.6714 -0.4291
  992MOL0     C36785  10.301   1.844  12.642 -0.6659 -0.0658 -0.7158
  992MOL0     C36786  10.342   1.836  12.788  0.1602 -0.6625  0.3000
  992MOL0     C36787  10.265   1.970  12.576  0.3181  0.2957  0.1048
  992MOL0     C36788  10.266   2.101  12.648  0.2499  0.4281  0.7395
  992MOL0     O36789  10.195   2.193  12.577  0.0108  0.5883 -0.4388
  992MOL0     C36790  10.132   2.295  12.644  0.4719 -0.0695 -0.0170
  992MOL0     C36791  10.113   2.409  12.570  0.9203 -0.5424 -1.3995
  992MOL0     C36792  10.050   2.520  12.625  0.5810 -0.1520  0.0364
  992MOL0     C36793  10.000   2.519  12.761 -0.0128  0.1567  0.1952
  992MOL0     O36794   9.923   2.624  12.803  0.1337  0.1598 -0.1905
  992MOL0     C36795   9.996   2.718  12.885 -0.5836  0.4253  0.9642
  992MOL0     C36796   9.967   2.863  12.880  0.3466  0.0685  0.0801
  992MOL0     C36797  10.076   2.955  12.951  0.1301  0.3819 -0.2520
  992MOL0     C36798  10.050   3.105  12.959  0.4392 -0.8141  0.6615
  992MOL0     C36799  10.145   3.183  13.056 -0.0673 -0.7204 -0.0637
  992MOL0     C36800  10.126   3.333  13.031  0.0504 -0.0381 -0.6153
  992MOL0     C36801  10.015   3.380  13.133  0.3707  0.2194  0.0723
  992MOL0     C36802  10.030   3.534  13.160  0.4794  0.8838 -0.2514
  992MOL0    Cl36803   9.865   3.617  13.131  0.1118  0.0354  0.1822
  992MOL0     C36804  10.040   2.408  12.841  0.5185  0.3286 -0.9975
  992MOL0     C36805  10.098   2.297  12.783  1.1481  0.6384  0.4417
  992MOL0     O36806  10.323   2.133  12.750 -0.1774  0.3029 -0.2046
  992MOL0     C36807  10.238   1.967  12.437 -0.4549 -0.1357 -0.3195
  992MOL0     C36808  10.250   1.849  12.368  0.4019  1.2983 -0.2839
  992MOL0     N36809   9.955   1.165  12.490  0.2193  0.7421 -0.1898
  992MOL0     N36810   9.932   1.042  12.465  0.2697 -1.0238 -0.1045
  992MOL0     C36811   9.474   0.347  11.561  0.5742 -0.5308  0.0454
  992MOL0     C36812   9.509   0.279  11.441 -0.3560 -0.2586  0.6576
  992MOL0     C36813   9.502   0.039  11.091 -0.5155 -0.1013 -0.2700
  992MOL0     C36814   9.395   0.027  11.005  0.1098 -0.1907  0.1262
  992MOL0     C36815   9.413  -0.008  10.874 -0.5342  0.2476 -0.5224
  992MOL0     C36816   9.539  -0.026  10.817 -0.0015 -0.2291 -0.1566
  992MOL0     O36817   9.567  -0.084  10.692  0.1355 -0.0174 -0.3842
  992MOL0     C36818   9.473  -0.074  10.583 -0.5518 -0.0048 -0.0749
  992MOL0     C36819   9.536  -0.112  10.454 -0.8963  0.8999 -0.5477
  992MOL0     C36820   9.634  -0.233  10.480  0.2246  0.1103 -0.0317
  992MOL0     C36821   9.729  -0.265  10.359  0.4065 -0.3868  0.5470
  992MOL0     C36822   9.651  -0.331  10.254  0.1212  0.4548  0.0353
  992MOL0     C36823   9.579  -0.388  10.171  0.2272 -0.0298  0.0087
  992MOL0     C36824   9.643  -0.002  10.906  0.3788  0.1607 -0.3728
  992MOL0     C36825   9.631   0.041  11.039  0.3046 -0.0456 -0.0884
  992MOL0     C36826   9.754   0.088  11.119  0.4371  0.5273  0.0137
  992MOL0     H36827   9.542  -0.032  11.565  0.7101 -0.3048 -1.5151
  992MOL0     H36828   9.498   0.087  11.775 -1.1709  0.2982  1.4173
  992MOL0     H36829   9.573   0.492  11.758 -1.8230 -1.9354 -3.6407
  992MOL0     H36830   9.572   0.427  11.914  0.5711 -1.0321 -1.1114
  992MOL0     H36831   9.323   0.590  11.784 -3.5977  1.1127  4.0677
  992MOL0     H36832   9.313   0.493  11.919  1.8507 -2.4081 -0.3436
  992MOL0     H36833   9.525   0.720  11.899  0.4752  1.8590 -0.0224
  992MOL0     H36834   9.356   0.752  11.950  1.3379  1.2852  0.0899
  992MOL0     H36835   9.384   0.610  12.155 -0.8599  1.9015  0.4538
  992MOL0     H36836   9.533   0.545  12.089 -0.1154 -0.0377 -3.2493
  992MOL0     H36837   9.473   0.839  12.164 -0.0852 -0.3742 -3.3561
  992MOL0     H36838   9.619   0.787  12.081  0.2669  1.6777 -0.0014
  992MOL0     H36839   9.561   0.677  12.366  1.7769 -2.6176 -0.6526
  992MOL0     H36840   9.699   0.644  12.277 -1.8784 -2.3573  0.7906
  992MOL0     H36841   9.729   0.816  12.462 -2.7778  2.6380  1.9502
  992MOL0     H36842   9.621   0.914  12.366 -0.1221 -0.2322  3.4075
  992MOL0     H36843   9.912   0.830  12.301 -0.9215 -2.0594 -2.1644
  992MOL0     H36844   9.809   0.914  12.183  1.7806 -2.3425 -0.5774
  992MOL0     H36845   9.807   1.158  12.190 -3.9154  1.2030  1.2078
  992MOL0     H36846   9.889   1.442  12.430 -2.3052 -1.7716  0.2452
  992MOL0     H36847   9.861   1.421  12.270  2.6186  2.2961 -2.3823
  992MOL0     H36848  10.101   1.332  12.255 -2.0421 -1.8802  1.8228
  992MOL0     H36849  10.075   1.515  12.254  0.0740 -0.8159 -2.3936
  992MOL0     H36850  10.114   1.522  12.499 -4.4524 -1.7405 -0.5900
  992MOL0     H36851  10.154   1.348  12.498 -2.8746  0.2678 -0.0508
  992MOL0     H36852  10.366   1.466  12.470  1.8659  1.7679 -1.1244
  992MOL0     H36853  10.322   1.420  12.301 -2.8904  0.1953 -0.1654
  992MOL0     H36854  10.357   1.645  12.600 -2.4002 -0.2730  2.1714
  992MOL0     H36855  10.285   1.902  12.853 -0.9361 -0.3596 -0.9183
  992MOL0     H36856  10.450   1.855  12.789  0.3698 -0.5825 -3.9280
  992MOL0     H36857  10.316   1.734  12.821 -1.5565 -0.1108  0.7455
  992MOL0     H36858  10.135   2.422  12.464 -0.1596  0.0787 -1.5610
  992MOL0     H36859  10.036   2.610  12.566  2.1651 -0.5915 -1.0479
  992MOL0     H36860   9.983   2.683  12.988 -1.8039 -3.4597 -0.3195
  992MOL0     H36861  10.102   2.720  12.860 -0.7651 -2.9293 -0.7802
  992MOL0     H36862   9.969   2.881  12.772  0.7795  1.5253  0.3050
  992MOL0     H36863   9.871   2.871  12.932 -0.0696  0.1249 -0.6783
  992MOL0     H36864  10.173   2.941  12.901  0.2628  0.7777 -0.1085
  992MOL0     H36865  10.073   2.913  13.052 -5.2729 -0.1018 -0.3222
  992MOL0     H36866   9.948   3.130  12.988  0.3661 -0.4089  0.0840
  992MOL0     H36867  10.053   3.146  12.858  1.5803 -2.2119  0.0816
  992MOL0     H36868  10.134   3.155  13.161  1.6285 -2.8883 -0.3819
  992MOL0     H36869  10.249   3.160  13.031  0.5069 -1.0721  2.3855
  992MOL0     H36870  10.108   3.349  12.924  3.5537 -0.1644 -1.3540
  992MOL0     H36871  10.213   3.398  13.043  1.2504 -1.8287  0.8171
  992MOL0     H36872  10.036   3.327  13.226  2.5002  1.3485  0.2956
  992MOL0     H36873   9.918   3.363  13.086  0.0214  3.7229 -0.7459
  992MOL0     H36874  10.112   3.579  13.103 -0.7124 -0.7277 -3.5419
  992MOL0     H36875  10.054   3.525  13.266  0.3564  1.0506 -0.2093
  992MOL0     H36876  10.011   2.402  12.946 -0.1689 -2.7631 -1.2519
  992MOL0     H36877  10.115   2.209  12.844 -2.3520 -0.4820  0.0283
  992MOL0     H36878  10.211   2.049  12.373 -2.6106 -2.4689 -2.6322
  992MOL0     H36879  10.225   1.852  12.262  0.6952 -0.4265 -0.4230
  992MOL0     H36880   9.451   0.451  11.543  1.0022 -0.3727  0.3853
  992MOL0     H36881   9.504   0.330  11.345  2.0968 -1.0230  0.0615
  992MOL0     H36882   9.293   0.036  11.041 -0.1802  3.0006 -1.1303
  992MOL0     H36883   9.327  -0.037  10.814 -0.3857 -2.2943  0.3555
  992MOL0     H36884   9.398  -0.151  10.605 -1.9355  0.9975 -1.0495
  992MOL0     H36885   9.418   0.019  10.599 -1.2230 -1.0084  4.9049
  992MOL0     H36886   9.589  -0.030  10.405 -1.5164  0.5956 -1.7432
  992MOL0     H36887   9.467  -0.157  10.382  1.4449 -3.5699 -0.3988
  992MOL0     H36888   9.699  -0.210  10.565 -1.5849  0.0947  1.3939
  992MOL0     H36889   9.584  -0.322  10.520  2.7405 -0.5021  2.0167
  992MOL0     H36890   9.798  -0.340  10.400 -0.7541 -0.4903  2.4366
  992MOL0     H36891   9.773  -0.171  10.325 -0.5963 -0.7609 -1.9971
  992MOL0     H36892   9.525  -0.452  10.105  2.8961 -2.9513  0.3964
  992MOL0     H36893   9.743  -0.024  10.872 -0.2130 -0.0037 -2.1191
  992MOL0     H36894   9.723   0.175  11.177 -0.3801 -0.8760  1.7917
  992MOL0     H36895   9.776   0.005  11.187  0.8869 -0.7094 -1.5672
  992MOL0     H36896   9.827   0.109  11.040 -0.7909 -3.5831 -2.5412
  993MOL0     O36897   2.224   0.557  10.925  0.3437 -0.2806 -0.2577
  993MOL0     C36898   2.171   0.509  11.021  0.1773 -0.4895  0.7630
  993MOL0     O36899   2.226   0.492  11.138  0.4184 -0.9449 -0.0415
  993MOL0     C36900   2.354   0.545  11.163 -0.3285 -0.0016  0.5630
  993MOL0     C36901   2.479   0.494  11.126  0.1048 -0.0001  0.4738
  993MOL0     C36902   2.601   0.558  11.140  0.5871  0.3932 -0.6924
  993MOL0     C36903   2.605   0.674  11.208 -0.4402 -0.4966 -0.5245
  993MOL0     O36904   2.719   0.753  11.242  0.0035  0.7054  0.6552
  993MOL0     C36905   2.849   0.712  11.213  1.1320 -0.8155 -0.6788
  993MOL0     C36906   2.948   0.826  11.250  0.0435 -0.8142 -0.7150
  993MOL0     C36907   2.974   0.917  11.128  0.3070 -0.4699 -0.1269
  993MOL0     C36908   3.085   0.858  11.047  0.9776 -0.7245  0.0719
  993MOL0     C36909   3.078   0.906  10.903  0.9325 -0.5985 -0.1996
  993MOL0     C36910   3.125   1.053  10.881 -0.3841  0.7384 -0.2514
  993MOL0     C36911   3.067   1.119  10.752  0.3827 -0.2170  0.4319
  993MOL0     C36912   3.164   1.118  10.637 -0.8221 -0.1276 -0.0197
  993MOL0     N36913   3.301   1.165  10.671  0.8451  0.0683  0.2278
  993MOL0     C36914   3.417   1.100  10.679  1.0865  0.5900  0.6234
  993MOL0     C36915   3.522   1.182  10.710 -0.7104 -0.5392 -0.3273
  993MOL0     C36916   3.664   1.134  10.747  0.6577  0.3517 -1.1655
  993MOL0     C36917   3.665   1.093  10.895  0.0018  0.3435 -0.8261
  993MOL0     C36918   3.570   0.969  10.916  0.7389 -0.6026  0.0149
  993MOL0     C36919   3.629   0.869  11.007 -0.3270  0.1300  0.4150
  993MOL0     O36920   3.656   0.892  11.151  0.2635  0.4075 -0.1471
  993MOL0     C36921   3.600   1.003  11.206 -1.4382 -0.3775 -0.4538
  993MOL0     C36922   3.465   1.027  11.203  0.5307 -0.4785 -0.7363
  993MOL0     C36923   3.409   1.142  11.257 -0.2261 -0.4390 -0.5807
  993MOL0     C36924   3.257   1.161  11.248 -0.0995 -0.7256  0.6361
  993MOL0     C36925   3.494   1.248  11.308  1.2249 -0.3607 -1.2830
  993MOL0     C36926   3.448   1.375  11.381 -0.0326 -0.2523  1.0264
  993MOL0     O36927   3.512   1.495  11.352  0.3267  0.3427  0.5469
  993MOL0     C36928   3.474   1.614  11.422 -0.1137 -0.2104 -0.5787
  993MOL0     C36929   3.346   1.643  11.484 -0.4530 -0.7529  0.2682
  993MOL0     C36930   3.325   1.753  11.573  0.2215 -0.3116  0.1551
  993MOL0     C36931   3.428   1.848  11.598 -0.2625 -0.0564  0.0022
  993MOL0     O36932   3.419   1.953  11.683  0.6652  0.1457  0.5069
  993MOL0     C36933   3.299   2.025  11.689 -0.1271  0.1752  0.5200
  993MOL0     C36934   3.321   2.160  11.757 -0.0548 -1.1407 -0.0987
  993MOL0     C36935   3.180   2.233  11.770 -0.8890  0.1630  0.4393
  993MOL0     C36936   3.199   2.378  11.807  0.0372 -0.3267 -0.2220
  993MOL0     C36937   3.062   2.453  11.852  0.4091 -0.6483 -0.4993
  993MOL0     C36938   3.092   2.609  11.870 -0.5369  0.0530 -0.7043
  993MOL0     C36939   3.000   2.654  11.978  0.5299 -0.3493 -0.5707
  993MOL0     C36940   2.977   2.801  11.977  0.3470  0.6179  0.1717
  993MOL0    Cl36941   3.118   2.887  12.037 -0.3379 -0.2939  0.4439
  993MOL0     C36942   3.553   1.817  11.542  0.4741  0.2822  0.1939
  993MOL0     C36943   3.576   1.706  11.457  0.1751 -0.2435  0.2664
  993MOL0     O36944   3.366   1.356  11.471 -0.2740 -0.4641 -0.3041
  993MOL0     C36945   3.633   1.223  11.312  0.2857 -0.4217 -0.7388
  993MOL0     C36946   3.684   1.104  11.261  0.2459  0.4213  0.2196
  993MOL0     N36947   3.459   1.295  10.766  0.0552  0.6855 -0.6516
  993MOL0     N36948   3.336   1.286  10.732 -0.1265 -0.1900  0.1202
  993MOL0     C36949   2.488   0.733  11.266  0.1768  0.9383 -0.6396
  993MOL0     C36950   2.365   0.677  11.228 -0.7615  0.0999  0.2533
  993MOL0     C36951   2.033   0.466  11.013 -1.3997  0.8111  0.3078
  993MOL0     C36952   1.984   0.414  10.888 -0.3247 -0.0619  0.7898
  993MOL0     C36953   1.848   0.367  10.874 -0.2649  0.3936  0.0268
  993MOL0     C36954   1.768   0.374  10.983  0.1181 -0.3013 -0.8092
  993MOL0     O36955   1.638   0.349  10.950 -0.2371 -0.5486  0.5544
  993MOL0     C36956   1.558   0.316  11.062 -1.2185  0.4573  0.6858
  993MOL0     C36957   1.470   0.428  11.115  0.1399  0.8478  0.2615
  993MOL0     C36958   1.331   0.443  11.052 -0.4671  0.3561  0.5513
  993MOL0     C36959   1.326   0.480  10.898  0.2507  0.1544 -0.3042
  993MOL0     C36960   1.193   0.535  10.854  0.3060  0.0364 -0.2435
  993MOL0     C36961   1.096   0.575  10.804 -0.2261 -0.2492  0.0581
  993MOL0     C36962   1.819   0.417  11.111 -0.0937 -0.3220  0.9866
  993MOL0     C36963   1.949   0.471  11.121 -0.3644 -0.7551  0.6380
  993MOL0     C36964   1.971   0.532  11.259 -0.2157  0.0981  0.1059
  993MOL0     H36965   2.491   0.401  11.072  1.8653 -0.2619  1.2242
  993MOL0     H36966   2.691   0.520  11.092  2.5958  4.1203 -0.2219
  993MOL0     H36967   2.862   0.690  11.107 -2.2858  0.6836 -1.5301
  993MOL0     H36968   2.854   0.625  11.279 -0.7675 -0.0804  0.5154
  993MOL0     H36969   2.917   0.887  11.335  2.2633 -2.0586  1.1329
  993MOL0     H36970   3.047   0.790  11.282  1.0252  0.7521 -1.8344
  993MOL0     H36971   2.881   0.926  11.071  0.4388 -3.3662 -0.9340
  993MOL0     H36972   3.005   1.016  11.164 -2.7548  0.1684  1.1211
  993MOL0     H36973   3.180   0.887  11.092  0.0381  1.8243  0.5875
  993MOL0     H36974   3.068   0.751  11.039  1.0864 -0.7338 -0.0273
  993MOL0     H36975   2.979   0.889  10.860  1.1953 -3.9227  0.2512
  993MOL0     H36976   3.140   0.846  10.835  0.8597  1.1673 -1.9430
  993MOL0     H36977   3.100   1.115  10.968 -0.0885  2.1750 -1.1677
  993MOL0     H36978   3.234   1.057  10.882 -0.3772  0.8971 -1.3479
  993MOL0     H36979   3.045   1.224  10.776  1.4225 -0.2139  1.4635
  993MOL0     H36980   2.975   1.065  10.727 -0.6771  0.2269  2.9968
  993MOL0     H36981   3.171   1.012  10.610 -2.2683 -0.5173  1.0244
  993MOL0     H36982   3.137   1.190  10.561 -0.3926 -1.9505 -2.0052
  993MOL0     H36983   3.428   0.993  10.663  0.5424  0.5916  0.2086
  993MOL0     H36984   3.741   1.212  10.744 -0.5418  1.5605 -1.5158
  993MOL0     H36985   3.696   1.052  10.682  2.4501 -0.6237  0.8255
  993MOL0     H36986   3.768   1.068  10.924 -0.8050 -2.7216 -0.2167
  993MOL0     H36987   3.638   1.179  10.956 -1.9322 -1.7408  1.4779
  993MOL0     H36988   3.473   1.014  10.942  1.4357  0.5599  0.6811
  993MOL0     H36989   3.562   0.916  10.821 -0.3734  1.2554 -0.9975
  993MOL0     H36990   3.563   0.781  11.002 -0.7056  0.3295  1.5889
  993MOL0     H36991   3.729   0.845  10.970  1.3709  3.7712  2.1684
  993MOL0     H36992   3.404   0.952  11.153 -0.0014  1.2097 -2.7870
  993MOL0     H36993   3.208   1.092  11.317  0.1864 -0.1716  1.4143
  993MOL0     H36994   3.226   1.141  11.145  1.1722 -0.6007  0.2092
  993MOL0     H36995   3.224   1.261  11.278  4.0137  1.2841 -0.6686
  993MOL0     H36996   3.259   1.581  11.467 -2.5959  1.6343  1.7098
  993MOL0     H36997   3.226   1.767  11.614 -0.7906 -3.3009 -0.9983
  993MOL0     H36998   3.248   2.027  11.592  1.1231  0.8386 -0.1410
  993MOL0     H36999   3.219   1.971  11.741  0.0472  0.1911  0.8033
  993MOL0     H37000   3.359   2.158  11.859 -1.6892 -0.7229  0.5459
  993MOL0     H37001   3.403   2.221  11.718  0.3711 -2.2535 -1.0041
  993MOL0     H37002   3.122   2.176  11.842  0.1293 -2.4786 -0.6976
  993MOL0     H37003   3.132   2.224  11.672  0.2128  4.4391 -0.7334
  993MOL0     H37004   3.223   2.432  11.714  0.6423 -1.4894 -0.7585
  993MOL0     H37005   3.283   2.395  11.875  2.0506 -1.4944 -2.2438
  993MOL0     H37006   2.983   2.450  11.777 -0.9832  2.2407  0.7033
  993MOL0     H37007   3.034   2.412  11.950 -0.5252 -1.0845 -0.9345
  993MOL0     H37008   3.071   2.662  11.777  2.9354  2.1167 -0.5158
  993MOL0     H37009   3.197   2.636  11.887 -0.9596  0.1753  2.2607
  993MOL0     H37010   3.047   2.620  12.071 -0.8036  0.6137  0.4946
  993MOL0     H37011   2.903   2.604  11.970 -0.6216  2.0030 -2.5669
  993MOL0     H37012   2.892   2.823  12.042  0.3241  3.2257 -0.6080
  993MOL0     H37013   2.953   2.838  11.877  0.9880  0.7364  0.0519
  993MOL0     H37014   3.622   1.900  11.534  1.2477 -0.0198  2.9388
  993MOL0     H37015   3.673   1.698  11.409 -0.4173 -0.1963 -0.9837
  993MOL0     H37016   3.691   1.310  11.340 -1.9877  1.4113 -1.3998
  993MOL0     H37017   3.789   1.078  11.254 -0.3473 -1.7715 -1.9664
  993MOL0     H37018   2.488   0.822  11.328  3.7906  0.1639  0.6801
  993MOL0     H37019   2.270   0.721  11.255 -0.9167 -0.1183  0.0641
  993MOL0     H37020   2.053   0.397  10.806 -1.7324  2.6566 -1.1051
  993MOL0     H37021   1.815   0.338  10.775 -0.0844 -0.2761  0.1627
  993MOL0     H37022   1.498   0.228  11.038 -2.3672  1.8165 -1.7607
  993MOL0     H37023   1.621   0.288  11.147  0.5594 -0.7427 -0.9383
  993MOL0     H37024   1.523   0.524  11.104 -1.1164  1.6548  1.1362
  993MOL0     H37025   1.457   0.418  11.223 -0.1536  1.2237  0.2644
  993MOL0     H37026   1.273   0.352  11.064  2.0162 -1.8779 -2.4945
  993MOL0     H37027   1.269   0.516  11.105 -0.7448 -1.1688  2.4153
  993MOL0     H37028   1.349   0.391  10.839  1.3230 -0.8114  1.4866
  993MOL0     H37029   1.406   0.551  10.876  2.7916 -2.1368  1.0153
  993MOL0     H37030   1.015   0.625  10.754 -1.6813 -2.5004  0.0174
  993MOL0     H37031   1.761   0.431  11.201  0.1122  0.4027  1.0107
  993MOL0     H37032   1.880   0.545  11.319  0.1984  0.1991  0.7268
  993MOL0     H37033   2.042   0.474  11.318  0.6770  1.5529  0.5317
  993MOL0     H37034   2.005   0.636  11.255 -0.3979  0.1196 -1.0632
  994MOL0     O37035   8.009   9.960   4.692  0.8244 -0.1636 -0.4037
  994MOL0     C37036   7.950   9.856   4.676  0.3887  0.3315  0.1515
  994MOL0     O37037   7.928   9.801   4.556  0.4302 -0.1431 -0.0044
  994MOL0     C37038   7.976   9.853   4.439 -0.0191  0.3820 -0.1112
  994MOL0     C37039   8.102   9.913   4.430  0.0291 -0.3895  0.3117
  994MOL0     C37040   8.155   9.963   4.313 -0.3634  0.3778  1.0236
  994MOL0     C37041   8.083   9.960   4.186 -0.0534  1.1210  0.3955
  994MOL0     O37042   8.131  10.009   4.070 -0.1650 -0.0619  0.2026
  994MOL0     C37043   8.099   9.947   3.946 -0.3662  0.0748  0.1336
  994MOL0     C37044   8.186   9.826   3.907  0.4858  0.0104  0.0815
  994MOL0     C37045   8.189   9.714   4.008  0.1185  0.3692  0.2514
  994MOL0     C37046   8.089   9.600   3.975  0.9298  0.1275 -1.2897
  994MOL0     C37047   8.071   9.500   4.084  0.5580 -0.5740 -0.1446
  994MOL0     C37048   8.172   9.375   4.066  0.1395 -0.0307 -0.5916
  994MOL0     C37049   8.204   9.300   4.192  0.9981  0.6305 -0.3277
  994MOL0     C37050   8.078   9.269   4.276  0.6768  0.7619  1.1633
  994MOL0     N37051   7.979   9.187   4.207 -0.6205  0.3048  0.0418
  994MOL0     C37052   7.856   9.239   4.177 -0.3527 -0.1169 -0.6900
  994MOL0     C37053   7.800   9.148   4.099  0.7879  0.5147 -0.1511
  994MOL0     C37054   7.661   9.145   4.043 -0.0823 -0.4796 -0.0278
  994MOL0     C37055   7.558   9.224   4.104  0.2406  1.0733  0.3579
  994MOL0     C37056   7.533   9.193   4.250 -0.6317 -0.4053  1.0291
  994MOL0     C37057   7.487   9.053   4.269 -0.9444  0.3910  0.8851
  994MOL0     O37058   7.425   9.046   4.393  0.2839 -0.7408  0.1662
  994MOL0     C37059   7.490   9.008   4.507  0.5011  0.0636  0.9662
  994MOL0     C37060   7.449   9.064   4.632 -0.2117 -0.4063  0.0862
  994MOL0     C37061   7.478   8.993   4.749  0.2647 -0.6152  1.1173
  994MOL0     C37062   7.408   9.035   4.882  0.0332  0.1587 -1.1384
  994MOL0     C37063   7.568   8.880   4.739  0.0685  0.1624 -0.7385
  994MOL0     C37064   7.611   8.798   4.851  0.6860 -0.4208 -0.6915
  994MOL0     O37065   7.701   8.696   4.830 -0.4236  0.1479  0.0393
  994MOL0     C37066   7.724   8.595   4.923 -0.7019  0.3862  0.1959
  994MOL0     C37067   7.854   8.538   4.928  0.0023  0.1957  0.2130
  994MOL0     C37068   7.904   8.443   5.016  0.0398  0.3086 -0.5028
  994MOL0     C37069   7.813   8.396   5.116 -1.2269  0.6200 -0.4671
  994MOL0     O37070   7.857   8.297   5.203  0.5819  0.1976  0.3768
  994MOL0     C37071   7.803   8.299   5.337 -0.4045 -0.4565 -0.1342
  994MOL0     C37072   7.874   8.402   5.411  0.4381 -1.0264 -0.0085
  994MOL0     C37073   8.029   8.404   5.424  0.2204  0.1098 -0.0789
  994MOL0     C37074   8.069   8.502   5.530 -0.8391 -0.4488  0.4303
  994MOL0     C37075   8.217   8.530   5.515 -0.7785  0.9080 -0.7829
  994MOL0     C37076   8.316   8.415   5.526 -1.1034  0.3867  0.1609
  994MOL0     C37077   8.327   8.349   5.663  0.9389 -0.3943 -0.1781
  994MOL0     C37078   8.449   8.258   5.672 -0.0990  0.4134  0.3652
  994MOL0    Cl37079   8.457   8.142   5.812 -0.3283  0.1882  0.4782
  994MOL0     C37080   7.677   8.431   5.105 -0.4374 -0.1199  0.2929
  994MOL0     C37081   7.636   8.528   5.007  0.2700  1.0254 -0.3750
  994MOL0     O37082   7.563   8.817   4.960 -0.5835 -0.8616  0.1227
  994MOL0     C37083   7.609   8.830   4.619  1.1808  0.2280  0.6644
  994MOL0     C37084   7.584   8.899   4.502 -0.1584  0.6330  0.1989
  994MOL0     N37085   7.893   9.038   4.088  0.2246 -0.5569  0.0611
  994MOL0     N37086   7.997   9.065   4.154  0.3031 -0.3033  0.4762
  994MOL0     C37087   7.948   9.919   4.210  0.3101  0.1995 -0.2709
  994MOL0     C37088   7.901   9.853   4.327  1.2338  0.3412 -0.5138
  994MOL0     C37089   7.889   9.781   4.791  0.7755  0.2024  0.9816
  994MOL0     C37090   7.797   9.680   4.758 -0.1687 -0.1275 -0.2739
  994MOL0     C37091   7.731   9.608   4.862  0.2898 -0.3630  0.3349
  994MOL0     C37092   7.761   9.634   4.999  0.7336 -0.4026  0.0727
  994MOL0     O37093   7.692   9.541   5.080  0.6521  0.6157 -0.9591
  994MOL0     C37094   7.665   9.577   5.219 -0.0114  0.3848  0.5248
  994MOL0     C37095   7.551   9.505   5.289 -0.5762  0.2170  0.2750
  994MOL0     C37096   7.407   9.551   5.253 -0.2489 -1.0795 -1.2084
  994MOL0     C37097   7.368   9.682   5.331 -0.0828 -0.3764 -0.4820
  994MOL0     C37098   7.422   9.708   5.467 -0.3895  1.2467  0.2331
  994MOL0     C37099   7.482   9.716   5.570 -0.5838 -0.2077  0.8990
  994MOL0     C37100   7.851   9.737   5.036  0.2169 -0.6119  0.1653
  994MOL0     C37101   7.913   9.811   4.932  0.1371 -0.3118  0.3417
  994MOL0     C37102   8.009   9.931   4.972  0.1460  0.1372 -0.1268
  994MOL0     H37103   8.176   9.921   4.509 -0.4260 -2.4688  1.0002
  994MOL0     H37104   8.256  10.002   4.301 -1.4099  2.9920 -0.3683
  994MOL0     H37105   8.100  10.025   3.870 -1.2524  0.2977  0.3371
  994MOL0     H37106   7.996   9.909   3.949 -0.8909  1.4583  0.3351
  994MOL0     H37107   8.154   9.791   3.808  0.1478  2.9575 -0.9494
  994MOL0     H37108   8.291   9.858   3.904  1.1079 -1.8668  0.5675
  994MOL0     H37109   8.290   9.675   3.992  0.1797  0.5206  0.2644
  994MOL0     H37110   8.190   9.749   4.112 -1.1418 -1.6481  1.0180
  994MOL0     H37111   7.996   9.657   3.965  0.3751 -0.7531 -1.2203
  994MOL0     H37112   8.099   9.542   3.883 -4.9760 -2.1166 -0.9070
  994MOL0     H37113   7.968   9.464   4.089  0.7974 -1.3611 -0.7290
  994MOL0     H37114   8.081   9.557   4.177  1.8958 -2.2781  0.8195
  994MOL0     H37115   8.119   9.301   4.006 -0.0129 -1.1903  0.9180
  994MOL0     H37116   8.269   9.408   4.029 -0.7551  0.6576 -2.4787
  994MOL0     H37117   8.267   9.360   4.259  1.4668  0.1240 -0.3059
  994MOL0     H37118   8.261   9.209   4.168 -3.3028 -2.8243  1.2805
  994MOL0     H37119   8.105   9.220   4.369  1.9476 -0.7233  0.0649
  994MOL0     H37120   8.041   9.365   4.315 -1.9968 -0.7996  2.7810
  994MOL0     H37121   7.822   9.336   4.213  3.4896  0.6248  1.5276
  994MOL0     H37122   7.630   9.042   4.020  2.0170 -1.1324 -0.1465
  994MOL0     H37123   7.680   9.189   3.945 -2.6228 -0.9333 -0.7876
  994MOL0     H37124   7.585   9.330   4.112  1.7552  0.7984 -0.7775
  994MOL0     H37125   7.464   9.213   4.048  0.0027 -3.7651  1.3209
  994MOL0     H37126   7.628   9.193   4.304 -0.1696  1.5577  0.3194
  994MOL0     H37127   7.466   9.268   4.293 -0.5769 -0.8501  1.8999
  994MOL0     H37128   7.419   9.013   4.193  2.6754 -1.4130 -1.7462
  994MOL0     H37129   7.573   8.988   4.251  0.4316  1.7989  2.1172
  994MOL0     H37130   7.375   9.141   4.647 -0.6397 -0.5934 -1.0108
  994MOL0     H37131   7.322   8.968   4.878 -0.4926  0.7787 -0.4231
  994MOL0     H37132   7.389   9.143   4.882 -2.4893 -0.2166  0.5470
  994MOL0     H37133   7.465   9.014   4.974  0.8998 -4.0793 -2.4073
  994MOL0     H37134   7.929   8.586   4.866  4.6868 -3.6120  2.1942
  994MOL0     H37135   8.000   8.393   5.023 -0.8200 -1.2115  1.4034
  994MOL0     H37136   7.694   8.300   5.347 -0.3546 -1.4533  0.6273
  994MOL0     H37137   7.838   8.211   5.392 -3.1829 -1.5366  0.1037
  994MOL0     H37138   7.844   8.494   5.360 -2.2165 -1.2994  0.8989
  994MOL0     H37139   7.836   8.404   5.513  1.8055 -1.2927  0.5264
  994MOL0     H37140   8.069   8.415   5.322 -1.1445  0.0223 -0.6443
  994MOL0     H37141   8.068   8.307   5.458 -3.3052 -1.1502  0.8013
  994MOL0     H37142   8.062   8.443   5.622 -0.6065 -4.4953 -1.9021
  994MOL0     H37143   8.007   8.592   5.522  0.4127  0.3577 -0.6261
  994MOL0     H37144   8.223   8.572   5.414 -0.5298 -3.8763 -3.0049
  994MOL0     H37145   8.253   8.606   5.586  1.0222 -1.6767  1.2668
  994MOL0     H37146   8.414   8.460   5.512  0.5717 -3.3608 -1.2941
  994MOL0     H37147   8.300   8.327   5.463  1.4438 -1.0519  1.3853
  994MOL0     H37148   8.239   8.288   5.687 -1.2772  2.5267 -0.3815
  994MOL0     H37149   8.340   8.421   5.744 -2.2651  0.2673 -0.1381
  994MOL0     H37150   8.539   8.319   5.666  1.0989 -1.2197  0.9483
  994MOL0     H37151   8.455   8.198   5.581 -1.4612  2.1797 -0.9538
  994MOL0     H37152   7.594   8.389   5.162 -0.2400 -3.0963 -1.4439
  994MOL0     H37153   7.533   8.562   5.017 -0.3612 -1.3356  2.4236
  994MOL0     H37154   7.663   8.737   4.607 -2.2153 -1.9717  0.8157
  994MOL0     H37155   7.611   8.867   4.402 -1.5246  0.8445 -0.2637
  994MOL0     H37156   7.874   9.938   4.133  1.9767 -0.0070 -2.0146
  994MOL0     H37157   7.806   9.802   4.336  3.1758 -3.8476 -1.1397
  994MOL0     H37158   7.761   9.651   4.660  3.2969  3.3455 -2.9066
  994MOL0     H37159   7.670   9.528   4.821 -0.5392 -0.1065  1.0238
  994MOL0     H37160   7.761   9.573   5.272  0.5709 -0.5814 -0.5598
  994MOL0     H37161   7.651   9.686   5.216 -0.7100  0.2896 -2.3330
  994MOL0     H37162   7.554   9.506   5.398  2.6658  1.9034  0.2726
  994MOL0     H37163   7.555   9.402   5.250 -1.2428 -0.3939  1.7513
  994MOL0     H37164   7.392   9.567   5.146  0.4602  0.5706 -1.0957
  994MOL0     H37165   7.333   9.483   5.297  1.5391 -1.6457  1.0820
  994MOL0     H37166   7.261   9.680   5.356  0.4069 -1.0332  1.7305
  994MOL0     H37167   7.392   9.771   5.272  0.9405  1.1713  2.0962
  994MOL0     H37168   7.556   9.723   5.648 -0.8563 -1.3626  1.2866
  994MOL0     H37169   7.856   9.780   5.136 -1.9440  1.9636 -0.7029
  994MOL0     H37170   7.962  10.016   4.921  3.2689  2.4014  0.4770
  994MOL0     H37171   7.999   9.959   5.077  0.4868 -0.3928  0.0500
  994MOL0     H37172   8.112   9.908   4.941  0.3275 -1.8343  1.7011
  995MOL0     O37173   2.627   9.645   9.033 -0.1258  0.1600  0.7163
  995MOL0     C37174   2.644   9.753   8.984  0.7129  0.4806  0.5748
  995MOL0     O37175   2.543   9.852   9.001 -0.6153  0.0819 -0.6017
  995MOL0     C37176   2.423   9.801   9.050 -0.2801 -0.6364  1.3277
  995MOL0     C37177   2.348   9.725   8.959  0.6140  0.5405 -0.6230
  995MOL0     C37178   2.212   9.695   8.996 -0.3236  0.6972  0.0832
  995MOL0     C37179   2.162   9.730   9.123  0.2064 -0.3534 -0.1278
  995MOL0     O37180   2.043   9.692   9.186  0.4124  0.0411 -0.1797
  995MOL0     C37181   1.986   9.569   9.126  0.7541 -1.0686 -0.1599
  995MOL0     C37182   1.900   9.495   9.229 -0.0680  0.1945  0.4387
  995MOL0     C37183   1.986   9.437   9.334  0.2947  0.4325 -1.2897
  995MOL0     C37184   1.907   9.368   9.447  0.3478  0.8474 -0.3599
  995MOL0     C37185   1.991   9.272   9.537  0.0756 -0.4017  0.2991
  995MOL0     C37186   2.071   9.340   9.639  0.3505 -0.5128  0.2032
  995MOL0     C37187   2.137   9.231   9.720 -0.4751  0.3103 -0.0413
  995MOL0     C37188   2.233   9.266   9.833  0.2466 -0.5286  0.2852
  995MOL0     N37189   2.331   9.160   9.851  0.3830 -0.2084  0.4394
  995MOL0     C37190   2.441   9.174   9.781 -0.2816  0.3289 -0.0537
  995MOL0     C37191   2.530   9.089   9.846  0.0444 -0.6579  0.4344
  995MOL0     C37192   2.678   9.065   9.818  0.3444 -0.2078  0.0115
  995MOL0     C37193   2.709   8.950   9.707  0.3706 -0.1136  0.6166
  995MOL0     C37194   2.862   8.943   9.694 -0.3144 -0.2183  1.0889
  995MOL0     C37195   2.914   8.835   9.590  1.3900 -0.0867  0.5392
  995MOL0     O37196   3.051   8.846   9.567 -0.0174 -0.3757 -0.7839
  995MOL0     C37197   3.111   8.744   9.497 -0.1475 -0.2336 -0.2452
  995MOL0     C37198   3.054   8.646   9.428  0.5146 -0.2041  0.8346
  995MOL0     C37199   3.128   8.552   9.339 -0.1667 -0.1724 -0.1127
  995MOL0     C37200   3.049   8.439   9.282  0.0512 -0.4044 -0.5487
  995MOL0     C37201   3.266   8.569   9.342 -0.5958 -0.4200  0.8046
  995MOL0     C37202   3.363   8.473   9.276  0.1715 -0.1840  0.0737
  995MOL0     O37203   3.495   8.479   9.310 -0.3592  0.3830 -1.0466
  995MOL0     C37204   3.582   8.383   9.270  0.3347  0.9267  0.0841
  995MOL0     C37205   3.704   8.424   9.220  0.0845  0.6363 -0.1312
  995MOL0     C37206   3.808   8.322   9.216  0.0689  0.3233 -0.2135
  995MOL0     C37207   3.778   8.188   9.246 -0.0505 -0.6833  0.0978
  995MOL0     O37208   3.876   8.092   9.237  0.5563 -0.3706 -0.6363
  995MOL0     C37209   3.995   8.105   9.323  0.2457  0.6079  0.9318
  995MOL0     C37210   4.076   7.968   9.317  0.3584  0.4440  0.0717
  995MOL0     C37211   4.015   7.889   9.428 -0.0523  0.2150 -0.1799
  995MOL0     C37212   4.088   7.766   9.469  0.1155 -0.0262 -0.6168
  995MOL0     C37213   4.032   7.700   9.601  0.0415 -0.1429 -0.2983
  995MOL0     C37214   3.906   7.624   9.581  0.1816 -0.4005  0.1391
  995MOL0     C37215   3.862   7.546   9.716  0.0928 -0.1217 -0.3857
  995MOL0     C37216   3.961   7.428   9.753 -0.4329 -0.5055  0.3019
  995MOL0    Cl37217   3.960   7.304   9.631  0.0597 -0.2852  0.1698
  995MOL0     C37218   3.646   8.149   9.265  0.2389  0.0342  0.9386
  995MOL0     C37219   3.548   8.246   9.285  0.5073 -1.1397  0.3062
  995MOL0     O37220   3.321   8.408   9.182 -0.0066 -0.6931 -0.1360
  995MOL0     C37221   3.329   8.679   9.420 -0.7312  0.6517 -0.2447
  995MOL0     C37222   3.253   8.762   9.485  0.4811  0.0181  0.4831
  995MOL0     N37223   2.464   9.034   9.956  0.0136  0.2742  0.4303
  995MOL0     N37224   2.346   9.077   9.967 -0.5230 -0.9926 -0.1968
  995MOL0     C37225   2.242   9.805   9.213  1.0305  0.2215 -0.4741
  995MOL0     C37226   2.372   9.841   9.171  0.7132  0.2564  0.8825
  995MOL0     C37227   2.735   9.765   8.871  0.7665  0.0717 -0.4080
  995MOL0     C37228   2.798   9.889   8.863  0.7819  0.1201  0.7441
  995MOL0     C37229   2.873   9.917   8.746 -0.6988 -0.8748 -0.0677
  995MOL0     C37230   2.924   9.812   8.661  0.6712 -0.3886  0.1170
  995MOL0     O37231   3.015   9.827   8.559  0.7747 -0.3344  0.8181
  995MOL0     C37232   3.063   9.955   8.522 -0.2965 -0.1955  0.6573
  995MOL0     C37233   2.976  10.039   8.429 -0.0050 -0.0351 -0.1318
  995MOL0     C37234   2.958   9.968   8.289  0.9658 -0.5301  0.0045
  995MOL0     C37235   2.866  10.058   8.192  0.1715 -0.7986  1.0237
  995MOL0     C37236   2.949  10.156   8.117 -0.2594 -0.2131  0.4384
  995MOL0     C37237   3.010  10.246   8.077 -0.6864 -0.1205 -0.0911
  995MOL0     C37238   2.864   9.679   8.690 -0.4415 -0.0573 -0.3752
  995MOL0     C37239   2.767   9.661   8.783 -0.5012 -0.5735  0.3967
  995MOL0     C37240   2.693   9.528   8.788 -0.8830  0.6968  0.2374
  995MOL0     H37241   2.385   9.693   8.862  1.5826 -3.8785  0.9466
  995MOL0     H37242   2.150   9.636   8.929 -0.3632 -0.8591  1.4477
  995MOL0     H37243   2.069   9.502   9.101 -0.2409 -2.8999  1.1742
  995MOL0     H37244   1.940   9.600   9.032 -0.3123 -1.9916  0.0348
  995MOL0     H37245   1.828   9.568   9.269  4.0681  4.1702  1.4126
  995MOL0     H37246   1.850   9.413   9.176  0.5138 -0.0740  0.3000
  995MOL0     H37247   2.058   9.367   9.289  0.4066 -0.7429  0.6315
  995MOL0     H37248   2.052   9.515   9.375 -0.2294 -0.7837  2.1745
  995MOL0     H37249   1.859   9.446   9.507 -1.4109 -0.3541 -0.1266
  995MOL0     H37250   1.823   9.313   9.402  1.0667  0.4730 -1.2678
  995MOL0     H37251   2.057   9.219   9.468  1.0296  1.7273 -0.5045
  995MOL0     H37252   1.931   9.194   9.585  0.2571 -1.6356 -1.3840
  995MOL0     H37253   2.148   9.396   9.585 -1.8718  0.6426 -1.9979
  995MOL0     H37254   2.017   9.411   9.702  1.1544 -1.0488  1.5375
  995MOL0     H37255   2.199   9.180   9.645  1.3713 -0.6951  2.0528
  995MOL0     H37256   2.057   9.166   9.757  0.8328 -1.8318 -0.8167
  995MOL0     H37257   2.274   9.365   9.814  0.9053 -0.2430  2.8207
  995MOL0     H37258   2.176   9.276   9.926  0.6723 -0.6849  0.5685
  995MOL0     H37259   2.458   9.249   9.704  0.5564  1.8172  1.5230
  995MOL0     H37260   2.724   9.024   9.909  0.9381  1.1138  0.3298
  995MOL0     H37261   2.725   9.162   9.796  0.0156 -0.5396 -2.4294
  995MOL0     H37262   2.674   8.854   9.747 -1.2295  0.6618  1.1828
  995MOL0     H37263   2.652   8.960   9.615  0.3087 -0.9732  0.5510
  995MOL0     H37264   2.898   9.040   9.658 -4.8482  1.9404  1.6328
  995MOL0     H37265   2.902   8.924   9.794  2.2997  0.9902  0.3635
  995MOL0     H37266   2.889   8.736   9.631  0.9849  0.5793  1.9709
  995MOL0     H37267   2.865   8.850   9.494  0.5396 -1.3463  0.7422
  995MOL0     H37268   2.947   8.626   9.430  0.8891 -2.5317  0.9609
  995MOL0     H37269   2.943   8.442   9.306  0.4421 -0.8000  1.3511
  995MOL0     H37270   3.093   8.352   9.331  0.3125 -0.3292 -0.6461
  995MOL0     H37271   3.065   8.436   9.174  1.3113  3.4047 -0.6038
  995MOL0     H37272   3.737   8.527   9.209 -2.9849  1.7539  0.0373
  995MOL0     H37273   3.909   8.349   9.190  0.8247 -0.1231  2.0632
  995MOL0     H37274   4.059   8.182   9.278  0.6085  1.9669  3.5679
  995MOL0     H37275   3.963   8.140   9.421  1.0108 -0.8442  1.7432
  995MOL0     H37276   4.056   7.919   9.221 -0.4235 -3.4191  2.0157
  995MOL0     H37277   4.185   7.970   9.327  1.0473 -1.1077 -4.5382
  995MOL0     H37278   3.926   7.856   9.374 -2.3968  1.4076  2.6414
  995MOL0     H37279   3.989   7.949   9.516  2.9200  0.7150  0.4730
  995MOL0     H37280   4.192   7.788   9.495 -0.4340  0.0719  1.6855
  995MOL0     H37281   4.091   7.692   9.389  6.1403 -4.6454  2.9592
  995MOL0     H37282   4.109   7.633   9.640  1.0377  1.1363 -0.0096
  995MOL0     H37283   4.011   7.776   9.677 -0.3264  1.5083 -1.9851
  995MOL0     H37284   3.917   7.562   9.492 -3.6030  3.2493 -3.2910
  995MOL0     H37285   3.828   7.697   9.558 -2.4046 -2.6809  1.1452
  995MOL0     H37286   3.759   7.511   9.706  0.3467 -0.6764 -1.1939
  995MOL0     H37287   3.869   7.607   9.806  1.6825 -1.1509  0.2355
  995MOL0     H37288   3.922   7.378   9.842 -0.1712 -1.3342 -0.0387
  995MOL0     H37289   4.056   7.478   9.775 -2.1780  4.2585 -1.6509
  995MOL0     H37290   3.621   8.044   9.276 -0.3802  0.0991  0.1948
  995MOL0     H37291   3.454   8.215   9.330  0.6876  1.4464  2.7310
  995MOL0     H37292   3.437   8.686   9.418 -0.6917  0.3011  0.5628
  995MOL0     H37293   3.299   8.846   9.535 -0.9982  1.5868 -0.6602
  995MOL0     H37294   2.207   9.828   9.313 -0.1504  2.3936 -1.3223
  995MOL0     H37295   2.425   9.911   9.235  3.0130  0.5522 -1.2220
  995MOL0     H37296   2.766   9.976   8.919 -2.7923 -0.4850 -0.1034
  995MOL0     H37297   2.906  10.020   8.744 -0.4636 -0.8082  2.6294
  995MOL0     H37298   3.105  10.008   8.608 -4.2575  1.4100  1.8223
  995MOL0     H37299   3.144   9.928   8.453 -1.5669  0.5592 -1.2221
  995MOL0     H37300   3.028  10.134   8.413  1.0370 -0.5171  0.3757
  995MOL0     H37301   2.883  10.061   8.482  0.0193 -1.3692  0.4912
  995MOL0     H37302   3.048   9.932   8.237  0.7806 -0.1682 -0.5706
  995MOL0     H37303   2.896   9.878   8.297  1.5124 -0.7573  2.3173
  995MOL0     H37304   2.781  10.115   8.230  0.0345  1.5141 -2.3682
  995MOL0     H37305   2.819   9.992   8.119  0.1761  0.1431  0.1447
  995MOL0     H37306   3.068  10.320   8.026  2.4377  0.3580  3.6699
  995MOL0     H37307   2.890   9.598   8.623 -1.7483 -0.9446  0.1733
  995MOL0     H37308   2.584   9.537   8.787 -1.0906 -1.2985  0.9745
  995MOL0     H37309   2.710   9.460   8.704 -1.0367 -1.3377  1.7789
  995MOL0     H37310   2.726   9.465   8.871 -1.3968 -0.7845 -0.6413
  996MOL0     O37311   6.956   0.264   6.681  0.2770  0.3515  0.2566
  996MOL0     C37312   6.950   0.148   6.641 -0.1639  0.4801 -0.1038
  996MOL0     O37313   7.069   0.076   6.619 -0.6283  0.5013 -0.8403
  996MOL0     C37314   7.185   0.134   6.654  0.2633  0.3750 -0.2881
  996MOL0     C37315   7.270   0.194   6.561 -0.4366 -0.6639 -0.3193
  996MOL0     C37316   7.400   0.241   6.615  0.2445  0.4625 -0.0723
  996MOL0     C37317   7.436   0.214   6.748  0.4389 -0.4076 -0.5819
  996MOL0     O37318   7.553   0.267   6.802  0.3441  0.1440  0.1057
  996MOL0     C37319   7.602   0.401   6.758  0.0218 -0.1564  0.2974
  996MOL0     C37320   7.722   0.434   6.848 -0.7248  0.2249 -0.7197
  996MOL0     C37321   7.808   0.551   6.794  0.3780 -0.8982 -0.2637
  996MOL0     C37322   7.782   0.686   6.859  0.2520 -0.3101  0.9134
  996MOL0     C37323   7.883   0.704   6.973 -1.3025  0.7359  0.0377
  996MOL0     C37324   7.810   0.783   7.083 -0.9018 -1.3342 -0.7300
  996MOL0     C37325   7.892   0.790   7.212  0.2367 -0.2506  0.1363
  996MOL0     C37326   7.910   0.933   7.267  0.1438  0.2376  0.0483
  996MOL0     N37327   8.013   0.942   7.378 -0.1647  0.0644 -0.0271
  996MOL0     C37328   7.999   0.890   7.505 -0.7781 -0.4036  0.2443
  996MOL0     C37329   8.128   0.856   7.541 -0.3602 -0.8695 -0.1456
  996MOL0     C37330   8.170   0.790   7.665 -0.2068  0.2056 -0.4127
  996MOL0     C37331   8.155   0.645   7.639 -0.2489 -0.4430  0.7255
  996MOL0     C37332   8.199   0.575   7.762 -0.2896  0.1098 -0.1119
  996MOL0     C37333   8.196   0.424   7.734  1.2129  0.2658  0.2024
  996MOL0     O37334   8.264   0.362   7.846  0.1918 -0.0066  0.4893
  996MOL0     C37335   8.317   0.237   7.817  0.7898  0.8347  0.4371
  996MOL0     C37336   8.253   0.140   7.745 -0.1844  0.6048  0.1277
  996MOL0     C37337   8.317   0.025   7.707 -0.3124  0.1937  1.3616
  996MOL0     C37338   8.247  -0.072   7.600 -0.0145  0.1364 -0.0555
  996MOL0     C37339   8.450  -0.005   7.749  1.1397  0.1440 -0.6267
  996MOL0     C37340   8.533  -0.122   7.706 -0.0257  0.1130 -0.5022
  996MOL0     O37341   8.664  -0.115   7.742  0.1317  0.0498  0.1986
  996MOL0     C37342   8.751  -0.214   7.697  0.5541 -0.5336 -0.1370
  996MOL0     C37343   8.726  -0.346   7.732  0.0024  1.0111  1.0072
  996MOL0     C37344   8.815  -0.442   7.690  0.6836  0.0838  0.0508
  996MOL0     C37345   8.938  -0.406   7.626 -0.0053  0.0977  0.9999
  996MOL0     O37346   9.034  -0.501   7.587  0.2965 -0.3281 -0.3610
  996MOL0     C37347   8.984  -0.620   7.517  0.1985 -0.1540  0.5214
  996MOL0     C37348   9.096  -0.675   7.419 -0.5232 -0.4903 -0.0221
  996MOL0     C37349   9.114  -0.601   7.290  0.8164  0.5740 -0.6686
  996MOL0     C37350   9.192  -0.464   7.305 -0.5073  0.4587 -0.1864
  996MOL0     C37351   9.208  -0.391   7.181  0.6307 -0.4895  1.0837
  996MOL0     C37352   9.306  -0.467   7.095 -0.5165  0.2278 -0.2654
  996MOL0     C37353   9.332  -0.403   6.951  0.1435 -0.1732 -0.1490
  996MOL0     C37354   9.417  -0.497   6.865  0.1433 -0.1274  0.4876
  996MOL0    Cl37355   9.590  -0.506   6.918 -0.2256 -0.3229  0.0477
  996MOL0     C37356   8.961  -0.274   7.597  0.2621 -0.0428 -0.3812
  996MOL0     C37357   8.871  -0.175   7.637  0.3069  0.5805  0.2537
  996MOL0     O37358   8.493  -0.197   7.615 -0.3857  0.3168 -0.2503
  996MOL0     C37359   8.507   0.086   7.838  0.0004  0.1482  0.4831
  996MOL0     C37360   8.437   0.204   7.873 -1.4185  0.1231  0.6074
  996MOL0     N37361   8.212   0.908   7.444 -0.1308 -0.5247  0.9597
  996MOL0     N37362   8.146   0.968   7.348  0.3180  0.0150 -0.0536
  996MOL0     C37363   7.346   0.148   6.829 -0.3490 -0.1071  0.5886
  996MOL0     C37364   7.216   0.116   6.788 -0.9732  0.3213  0.1111
  996MOL0     C37365   6.821   0.075   6.602  0.2898 -0.0393 -0.1129
  996MOL0     C37366   6.832  -0.068   6.583 -0.2813 -0.2085 -0.0569
  996MOL0     C37367   6.723  -0.145   6.564  0.5007 -0.0755 -0.9072
  996MOL0     C37368   6.595  -0.084   6.534 -0.2846  0.4977 -0.7864
  996MOL0     O37369   6.482  -0.153   6.511 -0.3348  0.3966 -0.8503
  996MOL0     C37370   6.490  -0.290   6.547  0.0396 -0.2846  0.9479
  996MOL0     C37371   6.351  -0.354   6.541  0.1281 -0.6413  0.7445
  996MOL0     C37372   6.365  -0.512   6.570 -0.3861  0.1301 -0.3915
  996MOL0     C37373   6.228  -0.568   6.593 -0.1603  0.0619 -0.5613
  996MOL0     C37374   6.150  -0.592   6.469 -1.0311 -1.0320  0.1486
  996MOL0     C37375   6.069  -0.612   6.380 -0.6035  0.2771 -0.1418
  996MOL0     C37376   6.591   0.061   6.534 -0.6866 -0.1980  0.4492
  996MOL0     C37377   6.695   0.140   6.574  0.7116 -0.5257 -0.6333
  996MOL0     C37378   6.663   0.286   6.577 -0.2941  0.3751 -0.0089
  996MOL0     H37379   7.248   0.190   6.455  0.1299  1.5648 -0.5714
  996MOL0     H37380   7.465   0.285   6.540 -1.3765  0.3171 -1.6345
  996MOL0     H37381   7.526   0.479   6.770 -1.0530 -1.2229  0.6872
  996MOL0     H37382   7.621   0.385   6.651 -2.7464 -1.4677 -0.1059
  996MOL0     H37383   7.685   0.464   6.947 -2.8110  1.6014 -1.8610
  996MOL0     H37384   7.790   0.348   6.849  0.1626  0.9094  0.2508
  996MOL0     H37385   7.916   0.531   6.789  1.2478  2.6440  1.4308
  996MOL0     H37386   7.778   0.552   6.689 -4.5166  0.5586  0.8981
  996MOL0     H37387   7.786   0.759   6.777 -3.1259 -1.8087 -0.7803
  996MOL0     H37388   7.680   0.675   6.898  1.5461 -1.2199  4.4042
  996MOL0     H37389   7.966   0.769   6.942 -0.0734  1.0594  3.5654
  996MOL0     H37390   7.915   0.613   7.024  0.0624  1.5738  0.7408
  996MOL0     H37391   7.798   0.887   7.050 -1.6925 -1.4610 -0.8558
  996MOL0     H37392   7.712   0.746   7.113 -0.2662 -2.2011  0.3428
  996MOL0     H37393   7.993   0.755   7.186 -0.3015 -0.7280 -1.4459
  996MOL0     H37394   7.843   0.724   7.284  0.2223  2.3437  2.6628
  996MOL0     H37395   7.952   0.989   7.183  0.5432 -2.6013 -1.7745
  996MOL0     H37396   7.815   0.968   7.310 -0.0012 -1.4752  1.2239
  996MOL0     H37397   7.911   0.858   7.559 -1.1924 -0.4299 -0.4324
  996MOL0     H37398   8.107   0.833   7.743 -0.5501 -0.9868 -0.0073
  996MOL0     H37399   8.272   0.812   7.700 -0.4698  0.2730  0.3295
  996MOL0     H37400   8.058   0.624   7.594  2.6384 -2.6227 -5.7639
  996MOL0     H37401   8.213   0.616   7.551 -3.6348 -2.7008 -0.9368
  996MOL0     H37402   8.300   0.608   7.786 -1.6731  4.3030  0.7337
  996MOL0     H37403   8.131   0.599   7.844 -1.9373  3.2150 -2.1905
  996MOL0     H37404   8.092   0.395   7.719  1.2005  1.3348 -2.3953
  996MOL0     H37405   8.256   0.421   7.642  0.3963 -0.7241 -0.3275
  996MOL0     H37406   8.159   0.170   7.699 -0.3875  0.7097  0.6022
  996MOL0     H37407   8.145  -0.038   7.583 -0.3558 -0.8456 -0.0469
  996MOL0     H37408   8.246  -0.177   7.630  3.4350  0.6817  2.6214
  996MOL0     H37409   8.294  -0.063   7.502  0.4790 -2.3745 -0.1025
  996MOL0     H37410   8.633  -0.362   7.785 -0.5378  1.5179  0.2270
  996MOL0     H37411   8.801  -0.545   7.723  0.7234 -0.0542 -0.3469
  996MOL0     H37412   8.954  -0.691   7.595 -0.2642 -0.6722 -0.1178
  996MOL0     H37413   8.894  -0.592   7.462  0.2871 -0.4337  0.2296
  996MOL0     H37414   9.190  -0.675   7.475 -0.9585 -1.5732  0.7354
  996MOL0     H37415   9.071  -0.778   7.394 -1.3383  0.0159 -1.4041
  996MOL0     H37416   9.020  -0.586   7.237  0.3702 -1.3834 -0.4876
  996MOL0     H37417   9.168  -0.671   7.226  1.2724 -0.6564  0.9906
  996MOL0     H37418   9.282  -0.475   7.366 -0.0792 -2.9789 -1.2235
  996MOL0     H37419   9.122  -0.401   7.362  0.8018  1.4116  0.4253
  996MOL0     H37420   9.119  -0.378   7.120  1.4444 -0.6279 -0.1634
  996MOL0     H37421   9.254  -0.293   7.193  1.3866 -0.7468  0.3911
  996MOL0     H37422   9.264  -0.565   7.070 -0.2068  0.1657 -0.5582
  996MOL0     H37423   9.399  -0.489   7.148  0.1201 -1.9546 -2.1008
  996MOL0     H37424   9.379  -0.303   6.953  0.7768 -0.4319 -1.4159
  996MOL0     H37425   9.239  -0.387   6.897  0.1671 -0.1866 -0.1946
  996MOL0     H37426   9.420  -0.468   6.760 -0.0113 -4.3771 -0.8372
  996MOL0     H37427   9.375  -0.597   6.855 -1.4205  0.6708 -1.6191
  996MOL0     H37428   9.047  -0.258   7.532 -0.3851 -0.5184 -1.3766
  996MOL0     H37429   8.901  -0.074   7.612  1.6613  0.1153 -0.1103
  996MOL0     H37430   8.611   0.091   7.866 -0.0155  3.5345  0.3036
  996MOL0     H37431   8.481   0.282   7.934 -1.8097  0.4740  0.4437
  996MOL0     H37432   7.382   0.130   6.930  0.5513  1.6012  0.5974
  996MOL0     H37433   7.141   0.089   6.862  0.6046 -1.2547  1.2107
  996MOL0     H37434   6.931  -0.113   6.593  0.0273  0.4572 -0.0749
  996MOL0     H37435   6.737  -0.252   6.564  1.2578 -0.0032 -2.3877
  996MOL0     H37436   6.549  -0.341   6.470 -0.6055  0.7512 -0.2827
  996MOL0     H37437   6.541  -0.311   6.641  2.4676 -2.4698 -0.7307
  996MOL0     H37438   6.299  -0.340   6.446  0.0712  1.1918  1.0160
  996MOL0     H37439   6.279  -0.313   6.612 -0.5787 -0.4667 -0.0591
  996MOL0     H37440   6.409  -0.570   6.487  0.7858 -0.2310  0.4523
  996MOL0     H37441   6.424  -0.535   6.659 -2.4733  2.7177  1.8148
  996MOL0     H37442   6.177  -0.511   6.670  0.2297 -0.5723  0.1810
  996MOL0     H37443   6.226  -0.670   6.632 -3.1911 -1.5624 -4.2873
  996MOL0     H37444   5.988  -0.657   6.327 -0.9763  1.1857 -0.3645
  996MOL0     H37445   6.501   0.115   6.503 -0.1405 -0.1701 -1.1477
  996MOL0     H37446   6.568   0.307   6.628 -2.1328 -1.2896 -2.4895
  996MOL0     H37447   6.740   0.356   6.612  2.4108 -1.6242 -1.5632
  996MOL0     H37448   6.642   0.313   6.473 -1.4159  1.4146  0.4608
  997MOL0     O37449   0.909   3.306   3.426  0.3548  0.1340  0.4356
  997MOL0     C37450   0.819   3.282   3.502 -0.5551  0.4148 -0.2305
  997MOL0     O37451   0.712   3.363   3.531 -0.2941  0.0513  0.6954
  997MOL0     C37452   0.698   3.471   3.452  0.7356  0.2414  0.3463
  997MOL0     C37453   0.640   3.456   3.325 -0.6117  0.0672 -0.4537
  997MOL0     C37454   0.615   3.569   3.236 -1.0417 -0.1005  0.8470
  997MOL0     C37455   0.663   3.695   3.277  0.6317  0.7950 -0.0565
  997MOL0     O37456   0.625   3.806   3.206 -0.5073 -0.0616  0.1882
  997MOL0     C37457   0.703   3.833   3.080 -0.8429  0.5554 -0.3911
  997MOL0     C37458   0.671   3.970   3.035  0.5359  0.2108 -0.1711
  997MOL0     C37459   0.532   3.966   2.963  0.3890 -0.5313  0.4115
  997MOL0     C37460   0.479   4.098   2.932 -0.0608 -0.1584  0.8229
  997MOL0     C37461   0.354   4.066   2.842 -0.1783 -0.7712 -1.0526
  997MOL0     C37462   0.245   4.180   2.835  0.5215 -0.1979 -1.0275
  997MOL0     C37463   0.114   4.146   2.754  0.2647 -0.1606 -0.6450
  997MOL0     C37464  -0.000   4.078   2.823  0.3561  1.2471  0.6701
  997MOL0     N37465  -0.122   4.061   2.743 -0.4308 -0.0369 -0.3163
  997MOL0     C37466  -0.246   4.115   2.765  0.4479  0.1190 -0.4273
  997MOL0     C37467  -0.311   4.105   2.647  0.1075 -0.3345 -0.1038
  997MOL0     C37468  -0.453   4.156   2.621 -0.9768 -0.1227 -0.1614
  997MOL0     C37469  -0.549   4.068   2.690  0.1418 -0.0802 -0.8832
  997MOL0     C37470  -0.678   4.056   2.620 -0.5725  0.1781 -0.1231
  997MOL0     C37471  -0.767   3.937   2.660  0.1528 -0.3484  0.8368
  997MOL0     O37472  -0.797   3.942   2.796  0.6546  0.2750 -1.1640
  997MOL0     C37473  -0.930   3.918   2.828 -0.1392 -0.8401 -0.6035
  997MOL0     C37474  -0.962   3.836   2.929  0.5529  0.2806 -0.5134
  997MOL0     C37475  -1.093   3.819   2.977  0.0394  0.1384  1.2720
  997MOL0     C37476  -1.111   3.719   3.084 -0.0195 -1.2696  0.1720
  997MOL0     C37477  -1.200   3.886   2.919  0.2907 -0.6282  0.3172
  997MOL0     C37478  -1.352   3.874   2.950 -0.4700  0.7325 -0.1888
  997MOL0     O37479  -1.429   3.984   2.929 -0.1755 -0.3018 -0.5273
  997MOL0     C37480  -1.559   3.983   2.961 -0.0493  0.5454  0.4281
  997MOL0     C37481  -1.597   3.984   3.098  0.3467  0.3256  0.3410
  997MOL0     C37482  -1.739   4.013   3.128  0.0857  0.4097  0.4138
  997MOL0     C37483  -1.834   4.038   3.032  0.0401 -0.1599  0.8501
  997MOL0     O37484  -1.965   4.060   3.064 -0.1160  0.3878  0.4737
  997MOL0     C37485  -2.076   4.073   2.970 -0.3059 -0.4259 -0.1622
  997MOL0     C37486  -2.211   4.090   3.045 -0.3014 -0.2069 -0.5592
  997MOL0     C37487  -2.329   4.120   2.953  0.3738 -0.4157  0.8614
  997MOL0     C37488  -2.336   4.257   2.889 -0.3242  0.5094  0.1951
  997MOL0     C37489  -2.309   4.369   2.995  0.1678 -0.0455  0.0945
  997MOL0     C37490  -2.379   4.493   2.945 -0.1814 -0.0137  0.0228
  997MOL0     C37491  -2.327   4.606   3.035  0.0205  0.0016 -0.0624
  997MOL0     C37492  -2.414   4.726   3.011 -0.5372 -0.5452  0.2774
  997MOL0    Cl37493  -2.394   4.810   2.858  0.3695 -0.0677  0.6464
  997MOL0     C37494  -1.795   4.039   2.897  0.2320 -0.0307  0.5774
  997MOL0     C37495  -1.655   4.015   2.868  0.2655  0.3537  0.3822
  997MOL0     O37496  -1.398   3.760   2.975 -0.0912 -0.3227  0.8334
  997MOL0     C37497  -1.165   3.978   2.812 -0.4532  0.2680  0.5662
  997MOL0     C37498  -1.037   3.992   2.765 -0.3577  0.0618 -0.2334
  997MOL0     N37499  -0.231   4.038   2.559 -0.5214 -1.0317  0.2767
  997MOL0     N37500  -0.115   4.013   2.618  1.0013  0.0309 -0.0630
  997MOL0     C37501   0.731   3.710   3.394  0.6123 -0.9192 -0.6830
  997MOL0     C37502   0.750   3.603   3.479 -0.4947  0.2841  0.3232
  997MOL0     C37503   0.838   3.170   3.592 -0.2506  0.2990  0.4025
  997MOL0     C37504   0.954   3.152   3.672 -0.4444  0.4001 -0.6183
  997MOL0     C37505   0.974   3.045   3.764  0.0850  0.3944 -0.0933
  997MOL0     C37506   0.862   2.951   3.777  0.1191 -0.2449 -0.5349
  997MOL0     O37507   0.875   2.847   3.864  0.1971  0.1095  0.4423
  997MOL0     C37508   0.767   2.759   3.897 -0.6567  0.7432 -0.5072
  997MOL0     C37509   0.678   2.839   4.001 -0.1428 -0.3350  0.9160
  997MOL0     C37510   0.558   2.762   4.046  0.0980  0.1006  0.4222
  997MOL0     C37511   0.437   2.745   3.946  0.2828 -0.2047  1.0774
  997MOL0     C37512   0.395   2.861   3.877 -0.5707  0.0824 -0.3650
  997MOL0     C37513   0.346   2.961   3.831  0.3751  0.2662  1.0411
  997MOL0     C37514   0.744   2.974   3.698  0.1179  0.0937  0.2342
  997MOL0     C37515   0.727   3.081   3.611  0.0332 -0.4369  0.3430
  997MOL0     C37516   0.600   3.085   3.531 -0.4320 -1.1861  0.6160
  997MOL0     H37517   0.605   3.366   3.277  0.3957 -1.0342  0.8019
  997MOL0     H37518   0.571   3.583   3.138 -2.0259  2.6340  1.5933
  997MOL0     H37519   0.678   3.759   3.003 -0.2663  0.1796 -0.2229
  997MOL0     H37520   0.806   3.813   3.112 -1.5812 -2.3964  0.5227
  997MOL0     H37521   0.662   4.023   3.130 -1.9255 -1.1685  0.4407
  997MOL0     H37522   0.750   4.019   2.977  1.1569 -0.7709 -0.1698
  997MOL0     H37523   0.557   3.923   2.865 -1.6844 -3.3956  1.0280
  997MOL0     H37524   0.462   3.905   3.020 -0.2466 -1.4572 -1.2896
  997MOL0     H37525   0.446   4.158   3.017 -2.5022  0.5930 -0.5603
  997MOL0     H37526   0.557   4.147   2.872  3.2607 -2.4826  2.9115
  997MOL0     H37527   0.292   3.991   2.892 -1.4654 -0.8136 -2.6486
  997MOL0     H37528   0.373   4.018   2.746  2.0739 -2.2708  0.0476
  997MOL0     H37529   0.207   4.214   2.932 -2.5770 -1.4822 -1.6569
  997MOL0     H37530   0.305   4.263   2.797 -1.8439  4.1993  3.5308
  997MOL0     H37531   0.137   4.075   2.674 -3.4355 -0.5659 -1.5343
  997MOL0     H37532   0.067   4.241   2.725  1.1665  0.3637 -0.4368
  997MOL0     H37533   0.024   3.984   2.872 -4.4081 -0.4435  0.2733
  997MOL0     H37534  -0.035   4.154   2.894 -0.4731  1.3162  0.2032
  997MOL0     H37535  -0.274   4.177   2.849  2.5454 -1.3755  1.4728
  997MOL0     H37536  -0.464   4.156   2.512 -1.3359  2.3794 -0.1734
  997MOL0     H37537  -0.467   4.259   2.655  0.5960  0.1059 -0.1444
  997MOL0     H37538  -0.499   3.971   2.701 -0.2817 -0.3933 -1.7196
  997MOL0     H37539  -0.565   4.110   2.790 -0.7684  1.1050 -1.5071
  997MOL0     H37540  -0.736   4.148   2.638 -2.1016 -1.2895  3.3224
  997MOL0     H37541  -0.642   4.040   2.518  1.3068  0.6682  0.4157
  997MOL0     H37542  -0.856   3.941   2.596 -0.9932  0.1402  2.4178
  997MOL0     H37543  -0.725   3.837   2.642  0.5756  0.1957 -1.6782
  997MOL0     H37544  -0.885   3.785   2.985 -1.0274 -0.5890  0.9363
  997MOL0     H37545  -1.024   3.653   3.098 -0.4991 -1.9229  0.0894
  997MOL0     H37546  -1.202   3.660   3.075 -2.5721  2.6492 -3.1682
  997MOL0     H37547  -1.127   3.784   3.171 -1.2292 -0.2442 -0.7937
  997MOL0     H37548  -1.529   3.968   3.181  0.5379 -1.4477 -0.1162
  997MOL0     H37549  -1.778   4.018   3.229  0.5846 -4.7671  1.1392
  997MOL0     H37550  -2.071   4.165   2.910  1.4893 -2.5446 -3.5686
  997MOL0     H37551  -2.091   3.978   2.919 -2.1948 -0.2716  0.0271
  997MOL0     H37552  -2.226   3.990   3.086  1.3058 -0.1984  0.1369
  997MOL0     H37553  -2.199   4.157   3.131  1.5776  0.9684 -1.6596
  997MOL0     H37554  -2.419   4.112   3.014 -0.5625  0.5819 -0.3219
  997MOL0     H37555  -2.327   4.036   2.883  1.7619 -0.0538  0.4255
  997MOL0     H37556  -2.442   4.271   2.863  0.1510  1.8704 -1.1591
  997MOL0     H37557  -2.272   4.272   2.802 -0.8422 -0.6882 -0.4274
  997MOL0     H37558  -2.352   4.350   3.094 -1.7790 -0.0606 -0.7239
  997MOL0     H37559  -2.201   4.387   2.988  0.0901 -0.1760 -4.7572
  997MOL0     H37560  -2.486   4.471   2.952  0.2249 -3.2555 -2.1421
  997MOL0     H37561  -2.350   4.508   2.840  1.6183 -2.9495 -0.0102
  997MOL0     H37562  -2.225   4.638   3.008 -0.3421 -0.0117 -1.5690
  997MOL0     H37563  -2.346   4.586   3.140 -2.0455 -2.6135 -0.8261
  997MOL0     H37564  -2.387   4.808   3.079 -1.7182  0.9285 -0.9493
  997MOL0     H37565  -2.518   4.698   3.028 -0.5993 -1.3009 -1.2405
  997MOL0     H37566  -1.855   4.068   2.811 -0.9188 -2.4119  0.4745
  997MOL0     H37567  -1.633   4.032   2.763  0.2540  0.9106  0.4644
  997MOL0     H37568  -1.238   4.038   2.758 -0.7382 -2.1055 -1.8860
  997MOL0     H37569  -1.025   4.070   2.691 -1.0376 -1.0069 -1.4949
  997MOL0     H37570   0.758   3.811   3.424  2.0653 -1.7610  1.0215
  997MOL0     H37571   0.809   3.608   3.569 -1.4919 -1.6695  1.1377
  997MOL0     H37572   1.024   3.234   3.677 -2.5532  2.2861  4.2428
  997MOL0     H37573   1.066   3.048   3.823  0.7612  2.7312 -1.1666
  997MOL0     H37574   0.695   2.724   3.823 -0.7039  2.5969 -1.3970
  997MOL0     H37575   0.811   2.675   3.951 -3.4059  0.5796  1.6890
  997MOL0     H37576   0.642   2.939   3.976 -0.2718 -1.1018 -2.3322
  997MOL0     H37577   0.734   2.846   4.096 -3.0764 -0.4016  2.7660
  997MOL0     H37578   0.585   2.663   4.084 -1.0241 -1.8367 -3.3304
  997MOL0     H37579   0.512   2.814   4.131  2.4654  0.8075  1.3379
  997MOL0     H37580   0.356   2.700   4.005 -1.2976  1.6369  0.4295
  997MOL0     H37581   0.454   2.674   3.864  0.2792  0.5090  0.4420
  997MOL0     H37582   0.305   3.060   3.817 -0.6460  0.0788  2.4778
  997MOL0     H37583   0.662   2.903   3.706 -4.0226  4.5655  2.4148
  997MOL0     H37584   0.526   3.008   3.555 -1.7137 -0.3708 -0.5632
  997MOL0     H37585   0.545   3.179   3.540  1.8701  0.0916  2.5642
  997MOL0     H37586   0.634   3.093   3.427 -0.1960  3.4203  0.8546
  998MOL0     O37587   6.316   4.695   3.747 -0.0437  0.1662  0.3734
  998MOL0     C37588   6.318   4.584   3.802  0.0538  0.1196  0.6178
  998MOL0     O37589   6.204   4.525   3.848  0.0797  0.2860  0.0206
  998MOL0     C37590   6.089   4.586   3.878 -0.2338  0.3537 -0.3330
  998MOL0     C37591   6.057   4.719   3.872  0.8997  0.6874  0.7446
  998MOL0     C37592   5.922   4.762   3.901  0.2142 -0.8423 -0.1367
  998MOL0     C37593   5.823   4.665   3.935 -0.4307  0.0195  0.6626
  998MOL0     O37594   5.693   4.714   3.970  0.1214  1.1724  0.6871
  998MOL0     C37595   5.635   4.671   4.091  1.0394  0.3839  0.9070
  998MOL0     C37596   5.705   4.752   4.193  0.2492 -0.1114  0.3054
  998MOL0     C37597   5.659   4.691   4.326 -0.5112  0.0607 -0.2186
  998MOL0     C37598   5.701   4.785   4.437 -0.2935  0.1750 -0.0520
  998MOL0     C37599   5.649   4.735   4.578 -0.9694 -0.4469  0.3182
  998MOL0     C37600   5.499   4.709   4.581 -1.4298  0.1314  0.2378
  998MOL0     C37601   5.447   4.656   4.717  0.3166 -0.1357 -0.6018
  998MOL0     C37602   5.305   4.589   4.705 -0.5798  0.2769 -0.8047
  998MOL0     N37603   5.201   4.689   4.675 -0.2059  0.8412 -0.0700
  998MOL0     C37604   5.157   4.723   4.549 -0.7260  0.6650 -0.0012
  998MOL0     C37605   5.066   4.824   4.570  0.9850 -0.1230  0.5310
  998MOL0     C37606   4.982   4.895   4.461  0.1209  0.1869  0.2279
  998MOL0     C37607   4.907   5.013   4.511 -0.7037 -0.4398 -0.7744
  998MOL0     C37608   4.837   5.069   4.391  0.1356  0.1045 -0.1486
  998MOL0     C37609   4.727   5.173   4.443  0.5784 -0.0723 -0.0259
  998MOL0     O37610   4.795   5.286   4.515  0.4347  0.1242 -0.0753
  998MOL0     C37611   4.715   5.401   4.559 -0.7430  0.3009 -0.4871
  998MOL0     C37612   4.577   5.403   4.571 -0.1824 -0.2197 -0.1137
  998MOL0     C37613   4.513   5.516   4.622  0.6213  0.5835 -0.2824
  998MOL0     C37614   4.367   5.499   4.627  0.4302  0.0179 -0.3002
  998MOL0     C37615   4.582   5.634   4.668 -0.7089  0.8307  0.6888
  998MOL0     C37616   4.513   5.761   4.698  0.8106 -0.0624  0.6174
  998MOL0     O37617   4.592   5.872   4.701  0.6926 -0.2483 -0.3274
  998MOL0     C37618   4.545   5.999   4.669 -0.1538  0.6766 -1.2744
  998MOL0     C37619   4.618   6.110   4.723 -0.6415  0.9064  1.0372
  998MOL0     C37620   4.571   6.240   4.715 -0.1108 -0.5242  0.6243
  998MOL0     C37621   4.450   6.264   4.644 -0.6561 -0.2130 -0.1088
  998MOL0     O37622   4.375   6.379   4.658 -0.1433 -0.3481  0.5767
  998MOL0     C37623   4.440   6.499   4.620  0.1924  0.0685  0.1757
  998MOL0     C37624   4.410   6.537   4.476  0.2754 -0.2739 -0.4195
  998MOL0     C37625   4.475   6.447   4.374  0.0653 -0.0356 -0.2072
  998MOL0     C37626   4.517   6.510   4.238 -0.5562  0.0445 -0.7250
  998MOL0     C37627   4.415   6.501   4.128 -0.1666  0.0756 -0.4443
  998MOL0     C37628   4.474   6.527   3.984 -0.5829  0.6009 -0.5226
  998MOL0     C37629   4.372   6.486   3.870  1.3012 -0.2916 -0.6351
  998MOL0     C37630   4.400   6.564   3.740 -0.6005 -0.3948  0.6546
  998MOL0    Cl37631   4.556   6.512   3.660  0.5159  0.6429 -0.0577
  998MOL0     C37632   4.388   6.157   4.579  0.0268 -0.3171 -0.6217
  998MOL0     C37633   4.424   6.028   4.596 -0.1413 -0.1026 -0.5938
  998MOL0     O37634   4.396   5.764   4.729 -0.4473 -0.3211  0.1230
  998MOL0     C37635   4.726   5.621   4.662 -0.1942  0.0036 -0.5158
  998MOL0     C37636   4.786   5.510   4.609  0.0339  0.1511  0.2322
  998MOL0     N37637   5.052   4.830   4.712  0.0356 -0.2101 -0.5826
  998MOL0     N37638   5.138   4.761   4.767  1.0452 -0.3570  0.0453
  998MOL0     C37639   5.858   4.523   3.948  0.0575 -0.6008 -0.2951
  998MOL0     C37640   5.997   4.496   3.930  0.5088 -0.5208  1.4308
  998MOL0     C37641   6.446   4.514   3.820 -0.2820 -0.5080 -0.2612
  998MOL0     C37642   6.568   4.589   3.806  0.1694  0.8142  0.5268
  998MOL0     C37643   6.696   4.528   3.820  0.3751  0.5036 -0.2512
  998MOL0     C37644   6.707   4.394   3.870  0.9000 -0.4056  0.8414
  998MOL0     O37645   6.833   4.348   3.885 -0.5465 -0.1184  0.0942
  998MOL0     C37646   6.856   4.213   3.906  0.5084 -0.0642 -0.7297
  998MOL0     C37647   6.999   4.176   3.911 -0.7236  0.4375 -0.8739
  998MOL0     C37648   7.070   4.230   4.038 -0.4837  0.0682  0.8142
  998MOL0     C37649   7.107   4.121   4.136 -0.5329  0.0460 -0.2995
  998MOL0     C37650   7.159   4.190   4.261  0.0010  0.3958  0.1268
  998MOL0     C37651   7.215   4.241   4.350 -0.3905 -0.4808  0.1759
  998MOL0     C37652   6.588   4.322   3.876 -0.4662  0.0584 -1.2208
  998MOL0     C37653   6.457   4.372   3.847 -0.9246 -1.1634 -0.8036
  998MOL0     C37654   6.345   4.263   3.847  0.3862  0.1565  0.6952
  998MOL0     H37655   6.127   4.796   3.839  1.4160  0.9357  2.3005
  998MOL0     H37656   5.897   4.866   3.882  1.1510 -1.0943 -3.4864
  998MOL0     H37657   5.659   4.569   4.120  1.7086  0.9154  2.2821
  998MOL0     H37658   5.534   4.711   4.082  0.6580 -0.8974 -1.3065
  998MOL0     H37659   5.811   4.759   4.170  0.0027 -1.5689 -1.4710
  998MOL0     H37660   5.667   4.854   4.180  3.7751  1.3715  0.6057
  998MOL0     H37661   5.552   4.668   4.328 -0.8621  1.6006  0.0967
  998MOL0     H37662   5.708   4.593   4.336 -2.6258 -0.9895  0.5866
  998MOL0     H37663   5.807   4.809   4.435 -0.7926  2.5964 -0.0424
  998MOL0     H37664   5.645   4.875   4.413  0.4486  0.4657 -0.7400
  998MOL0     H37665   5.666   4.817   4.649  0.9240  0.9905 -1.6692
  998MOL0     H37666   5.709   4.650   4.611  0.5790  0.8575  1.0008
  998MOL0     H37667   5.445   4.796   4.542 -1.8298  0.0624  0.6207
  998MOL0     H37668   5.488   4.625   4.511 -4.7184  1.7160 -1.3690
  998MOL0     H37669   5.433   4.734   4.792 -2.9472 -3.3084  2.4873
  998MOL0     H37670   5.519   4.590   4.766  1.4101  0.4947 -1.3107
  998MOL0     H37671   5.297   4.509   4.631 -0.0905 -1.3974  0.8708
  998MOL0     H37672   5.290   4.545   4.804  3.4996  4.4144  2.0524
  998MOL0     H37673   5.189   4.701   4.448 -1.0512  1.4225 -0.2786
  998MOL0     H37674   4.924   4.816   4.412  1.2296  1.3335 -3.2208
  998MOL0     H37675   5.053   4.946   4.395 -0.7628  1.9567  0.5861
  998MOL0     H37676   4.841   4.987   4.595 -0.5166  0.6819 -0.2578
  998MOL0     H37677   4.975   5.087   4.555  0.1494 -0.0369 -2.6666
  998MOL0     H37678   4.915   5.113   4.329 -1.2506 -2.0896 -3.7027
  998MOL0     H37679   4.779   4.997   4.333 -2.5606  2.7210 -0.9561
  998MOL0     H37680   4.682   5.206   4.349  2.8347 -0.1203 -1.2041
  998MOL0     H37681   4.656   5.129   4.513  1.0983 -0.4720  0.2603
  998MOL0     H37682   4.531   5.311   4.535  2.5185 -0.0991 -4.5141
  998MOL0     H37683   4.327   5.401   4.601  0.8321 -0.5599  1.1310
  998MOL0     H37684   4.315   5.578   4.572  3.0489  0.4980 -2.2794
  998MOL0     H37685   4.343   5.507   4.734  0.5313  0.5710 -0.3151
  998MOL0     H37686   4.710   6.073   4.767 -0.8857 -1.8665 -0.5411
  998MOL0     H37687   4.613   6.328   4.764  0.2931 -1.0743  1.2948
  998MOL0     H37688   4.394   6.572   4.687 -0.8556 -0.4524  0.0339
  998MOL0     H37689   4.547   6.515   4.640 -0.0019  1.7897 -0.0416
  998MOL0     H37690   4.301   6.545   4.470  0.1411  0.1669  1.7576
  998MOL0     H37691   4.456   6.635   4.460  1.9457 -1.2393 -1.8406
  998MOL0     H37692   4.412   6.358   4.364  3.1539 -2.2947 -1.0618
  998MOL0     H37693   4.571   6.419   4.418  0.7118  1.7424 -0.4074
  998MOL0     H37694   4.602   6.460   4.191 -0.9010  1.1901 -2.6679
  998MOL0     H37695   4.538   6.617   4.251 -2.6767  0.3185  0.9439
  998MOL0     H37696   4.366   6.404   4.139 -1.5476  1.0525  5.0506
  998MOL0     H37697   4.342   6.580   4.147  1.2299  1.6203 -1.1810
  998MOL0     H37698   4.567   6.473   3.961 -2.1354 -2.5555  0.0158
  998MOL0     H37699   4.505   6.631   3.978 -0.0260  0.7473  2.8470
  998MOL0     H37700   4.274   6.511   3.912  2.5058 -1.0024  2.9983
  998MOL0     H37701   4.384   6.378   3.858 -2.2992 -1.4280  3.4212
  998MOL0     H37702   4.395   6.672   3.755 -5.1135  0.0294 -2.1435
  998MOL0     H37703   4.318   6.545   3.669 -0.4448 -1.2780  0.6929
  998MOL0     H37704   4.295   6.168   4.525  0.1180  0.4776 -0.6235
  998MOL0     H37705   4.351   5.954   4.566 -1.0018 -0.0806  1.3370
  998MOL0     H37706   4.786   5.706   4.692 -0.5516 -0.3985  1.4423
  998MOL0     H37707   4.893   5.506   4.592 -0.2857  0.7930 -2.3585
  998MOL0     H37708   5.785   4.444   3.963  1.6455 -1.7893  1.7005
  998MOL0     H37709   6.023   4.391   3.942  0.9865 -0.8444 -1.5130
  998MOL0     H37710   6.578   4.690   3.769 -2.0113 -0.3213 -3.7361
  998MOL0     H37711   6.782   4.587   3.790  0.9783  1.0972  2.3874
  998MOL0     H37712   6.803   4.176   3.994  1.0498  0.5824 -0.1220
  998MOL0     H37713   6.827   4.154   3.819  1.1403  0.5494 -1.3698
  998MOL0     H37714   7.032   4.216   3.816 -3.2564  3.2295 -0.7276
  998MOL0     H37715   6.998   4.067   3.917  1.7609  0.4210  0.4535
  998MOL0     H37716   7.160   4.277   3.997 -1.1313 -0.4377 -1.2718
  998MOL0     H37717   7.007   4.306   4.086  0.4882  1.0497  0.5783
  998MOL0     H37718   7.184   4.055   4.095 -1.2253 -0.2046 -1.2206
  998MOL0     H37719   7.018   4.062   4.157 -0.8885  0.0997 -1.5666
  998MOL0     H37720   7.249   4.287   4.441  2.1083 -1.5055 -0.1595
  998MOL0     H37721   6.597   4.217   3.903  3.8094  0.5219 -0.2022
  998MOL0     H37722   6.325   4.221   3.947 -1.9818 -0.7447 -0.0881
  998MOL0     H37723   6.244   4.289   3.813  0.9159  0.1025 -0.9783
  998MOL0     H37724   6.377   4.185   3.777 -2.7877 -0.9440  0.2941
  999MOL0     O37725   4.531   8.134   6.051  0.8600  0.4666  0.5263
  999MOL0     C37726   4.472   8.101   6.155 -1.2458 -0.5831 -0.8782
  999MOL0     O37727   4.523   8.018   6.250  0.0310  0.4262 -0.1685
  999MOL0     C37728   4.637   7.950   6.227  0.7829 -1.4881  0.3703
  999MOL0     C37729   4.761   8.013   6.229 -1.3805  0.2784 -0.1814
  999MOL0     C37730   4.879   7.936   6.213  0.6992  0.5938 -0.3211
  999MOL0     C37731   4.865   7.792   6.190 -0.2185 -0.6519 -0.3672
  999MOL0     O37732   4.973   7.710   6.189  0.6730 -0.9118  0.3309
  999MOL0     C37733   5.105   7.764   6.160 -0.0693  0.3240 -0.0256
  999MOL0     C37734   5.203   7.648   6.129  0.2498  1.1007  0.3996
  999MOL0     C37735   5.177   7.551   6.022 -0.4728  0.2017  0.7604
  999MOL0     C37736   5.232   7.592   5.878 -0.1699 -0.4190 -0.4640
  999MOL0     C37737   5.211   7.494   5.757 -0.3643  1.0493  0.2448
  999MOL0     C37738   5.068   7.462   5.718  0.0881 -0.3551 -0.2047
  999MOL0     C37739   5.029   7.333   5.784  0.2707 -0.8264  1.1819
  999MOL0     C37740   4.947   7.244   5.692  0.3383 -0.9063 -0.7217
  999MOL0     N37741   4.859   7.171   5.787  0.4713  0.1493  0.4165
  999MOL0     C37742   4.882   7.046   5.839 -0.2564  1.3768 -0.2437
  999MOL0     C37743   4.768   7.018   5.908 -0.3403 -0.8740  1.0480
  999MOL0     C37744   4.736   6.879   5.948 -0.2193 -0.0679 -0.7117
  999MOL0     C37745   4.778   6.861   6.092  0.6967  0.0009 -0.5294
  999MOL0     C37746   4.793   6.710   6.127  0.2141  0.1736 -0.9580
  999MOL0     C37747   4.711   6.603   6.072  0.1334 -0.0266  0.2418
  999MOL0     O37748   4.574   6.634   6.100 -1.0239 -0.2791 -0.0143
  999MOL0     C37749   4.479   6.548   6.067 -0.8875 -0.6392 -0.1577
  999MOL0     C37750   4.345   6.605   6.047 -0.0568  0.5851 -0.2682
  999MOL0     C37751   4.251   6.513   5.998  0.4381  0.3218 -0.5313
  999MOL0     C37752   4.119   6.581   5.966  0.0935  0.4658  0.3299
  999MOL0     C37753   4.276   6.372   5.980  0.5038 -0.6450 -0.4959
  999MOL0     C37754   4.171   6.281   5.934  0.9803 -0.1345  0.4836
  999MOL0     O37755   4.082   6.332   5.849  0.3587  0.4467 -0.2782
  999MOL0     C37756   4.013   6.237   5.781  1.7798  0.6150  0.5664
  999MOL0     C37757   3.874   6.244   5.789 -0.0669  0.2604  0.2557
  999MOL0     C37758   3.793   6.169   5.701  0.9044  0.4716  0.1289
  999MOL0     C37759   3.851   6.097   5.601  0.3239  0.2594  0.0801
  999MOL0     O37760   3.764   6.018   5.528  0.2727 -0.0918  1.3528
  999MOL0     C37761   3.821   5.912   5.461  0.4743 -0.0361  0.3974
  999MOL0     C37762   3.882   5.941   5.316 -0.6896 -0.6899 -0.4939
  999MOL0     C37763   3.990   5.846   5.275  0.5945  0.5994 -0.1870
  999MOL0     C37764   3.992   5.817   5.129 -0.7464  0.4947  0.6873
  999MOL0     C37765   4.099   5.718   5.092 -0.5580  0.1473  0.4356
  999MOL0     C37766   4.140   5.705   4.946  1.1344 -0.4204 -0.4850
  999MOL0     C37767   4.029   5.634   4.856 -1.2018 -0.8214 -0.0857
  999MOL0     C37768   4.003   5.496   4.917  0.6004 -0.2796 -0.2458
  999MOL0    Cl37769   3.909   5.406   4.801  0.2583 -0.6062  0.4200
  999MOL0     C37770   3.999   6.086   5.586 -0.1278  0.1004 -1.1897
  999MOL0     C37771   4.071   6.160   5.680  0.2332  0.0572  0.6281
  999MOL0     O37772   4.176   6.165   5.983  0.0359 -0.4589 -0.2686
  999MOL0     C37773   4.402   6.326   6.013 -0.2361  0.8990  0.6916
  999MOL0     C37774   4.503   6.412   6.054 -0.6106 -0.1045 -0.5798
  999MOL0     N37775   4.697   7.136   5.912 -0.1237 -0.3345  0.5687
  999MOL0     N37776   4.746   7.222   5.834 -0.4108 -0.7819  0.5152
  999MOL0     C37777   4.734   7.732   6.190 -0.7479 -0.8598  0.4180
  999MOL0     C37778   4.626   7.810   6.196 -1.1453 -0.6429 -0.7748
  999MOL0     C37779   4.324   8.153   6.168 -0.9213  0.1799 -0.4578
  999MOL0     C37780   4.248   8.090   6.266  0.2152 -0.0451 -0.4420
  999MOL0     C37781   4.115   8.133   6.285  0.4022 -0.4989  0.4424
  999MOL0     C37782   4.062   8.230   6.205  0.1597 -0.9456  0.2836
  999MOL0     O37783   3.936   8.283   6.209 -0.6173  1.0534 -1.0106
  999MOL0     C37784   3.829   8.199   6.259  0.3050  0.4715 -0.8855
  999MOL0     C37785   3.698   8.268   6.225 -0.8550  0.0779  0.2475
  999MOL0     C37786   3.584   8.169   6.240 -0.3205  0.6168 -0.2101
  999MOL0     C37787   3.443   8.218   6.196  0.8431  0.2767 -0.2605
  999MOL0     C37788   3.394   8.307   6.295 -0.3076 -0.4013  0.2952
  999MOL0     C37789   3.356   8.391   6.376 -0.0476  0.2942  1.1236
  999MOL0     C37790   4.144   8.303   6.116 -0.2041 -0.1877  0.3900
  999MOL0     C37791   4.275   8.268   6.105 -0.0301  0.1469 -0.1527
  999MOL0     C37792   4.357   8.375   6.037 -0.4096 -0.4615  0.0592
  999MOL0     H37793   4.771   8.120   6.235 -1.7134  0.5576 -3.2162
  999MOL0     H37794   4.978   7.979   6.224  2.8499 -4.1794  1.7152
  999MOL0     H37795   5.142   7.820   6.246  2.7238 -0.1708 -0.7941
  999MOL0     H37796   5.095   7.830   6.072 -2.2809 -1.2033 -0.9995
  999MOL0     H37797   5.302   7.688   6.103  1.4632 -1.2969  1.0335
  999MOL0     H37798   5.219   7.603   6.227  3.8908 -0.8959 -0.9152
  999MOL0     H37799   5.241   7.464   6.039 -1.7046 -0.8606  0.1113
  999MOL0     H37800   5.071   7.524   6.025 -0.1072 -1.3664  0.3164
  999MOL0     H37801   5.178   7.679   5.838 -1.3101 -0.9280 -0.0810
  999MOL0     H37802   5.341   7.602   5.887 -0.1910 -0.7747  0.2183
  999MOL0     H37803   5.267   7.401   5.769  0.3368  1.1187 -2.0519
  999MOL0     H37804   5.259   7.537   5.669  4.4107  1.6571  2.8186
  999MOL0     H37805   5.012   7.545   5.762 -0.4802 -1.0069  0.3008
  999MOL0     H37806   5.051   7.460   5.610  2.9055 -1.7962 -0.7118
  999MOL0     H37807   4.970   7.350   5.875 -1.0393 -0.6331  0.3270
  999MOL0     H37808   5.113   7.278   5.826  1.3180  1.1339  1.7827
  999MOL0     H37809   4.888   7.304   5.623 -0.7296 -0.1444  0.8026
  999MOL0     H37810   5.012   7.175   5.637  1.7551  0.6050 -1.0238
  999MOL0     H37811   4.965   6.981   5.813  0.3502  2.5118 -1.2345
  999MOL0     H37812   4.788   6.817   5.875  0.6033  0.0700 -0.2541
  999MOL0     H37813   4.628   6.865   5.949 -0.1414 -0.8538 -1.5303
  999MOL0     H37814   4.873   6.910   6.117  2.2179 -3.5392  1.4950
  999MOL0     H37815   4.692   6.897   6.150  1.6161  0.5390  0.5373
  999MOL0     H37816   4.897   6.688   6.099  0.4365  2.4618 -2.1576
  999MOL0     H37817   4.783   6.700   6.235 -1.7117 -1.4071 -1.2083
  999MOL0     H37818   4.726   6.601   5.964  0.0290  2.9543  0.0918
  999MOL0     H37819   4.745   6.508   6.116 -0.1118 -0.9871 -1.5479
  999MOL0     H37820   4.328   6.709   6.071 -0.0508  0.3452  0.8211
  999MOL0     H37821   4.096   6.583   5.859  2.1862 -0.9451 -0.2124
  999MOL0     H37822   4.126   6.683   6.003 -1.6606  1.0378 -0.8090
  999MOL0     H37823   4.038   6.537   6.025 -0.0149  1.2998  0.8126
  999MOL0     H37824   3.814   6.313   5.848 -0.0563  0.4296  0.0687
  999MOL0     H37825   3.687   6.157   5.719  0.7569  0.3134 -0.7994
  999MOL0     H37826   3.902   5.865   5.517  2.4294  1.2682 -1.1993
  999MOL0     H37827   3.745   5.835   5.442  0.1061  0.7584 -1.6158
  999MOL0     H37828   3.807   5.958   5.238 -1.9373 -0.1656  0.7689
  999MOL0     H37829   3.924   6.042   5.328 -3.2806  0.3169  0.9435
  999MOL0     H37830   3.959   5.746   5.306 -2.0368  1.1572 -0.8116
  999MOL0     H37831   4.083   5.890   5.312 -0.1488  1.5275  0.6403
  999MOL0     H37832   4.014   5.905   5.068 -2.3714 -0.0805 -0.8119
  999MOL0     H37833   3.903   5.781   5.078  0.0469  1.3064 -1.3974
  999MOL0     H37834   4.187   5.746   5.151 -0.9055 -0.4016  1.2368
  999MOL0     H37835   4.078   5.618   5.132 -2.4133  0.6197  0.6913
  999MOL0     H37836   4.244   5.671   4.945  1.5981  0.8736  0.5465
  999MOL0     H37837   4.152   5.810   4.917  1.4141  0.0221  1.1110
  999MOL0     H37838   4.059   5.619   4.751 -2.9399  3.2920 -1.3765
  999MOL0     H37839   3.930   5.680   4.861 -0.2520  1.3078  0.1250
  999MOL0     H37840   3.939   5.514   5.004 -1.3743  0.1173 -1.7163
  999MOL0     H37841   4.095   5.443   4.945  2.9553  2.2888 -2.4627
  999MOL0     H37842   4.054   6.010   5.531 -1.3496 -4.0754  2.7382
  999MOL0     H37843   4.175   6.180   5.657  0.4240 -0.1266  1.3107
  999MOL0     H37844   4.412   6.217   6.011 -2.0293  0.6971 -2.5670
  999MOL0     H37845   4.599   6.365   6.075 -0.5214  1.0006  1.7539
  999MOL0     H37846   4.723   7.624   6.180 -0.1200 -0.8300 -0.7383
  999MOL0     H37847   4.531   7.756   6.195 -0.2735 -2.3991  1.7899
  999MOL0     H37848   4.272   8.002   6.325 -1.9558 -2.3171 -2.7033
  999MOL0     H37849   4.065   8.082   6.367  2.3806 -1.5029  1.0993
  999MOL0     H37850   3.828   8.103   6.205 -2.3238 -0.4000  0.5313
  999MOL0     H37851   3.826   8.170   6.364 -0.0627 -3.1952 -1.7577
  999MOL0     H37852   3.703   8.288   6.117  0.7541 -2.9948 -0.3601
  999MOL0     H37853   3.669   8.357   6.282 -2.0801  0.0823 -0.3444
  999MOL0     H37854   3.597   8.074   6.188 -1.2506  0.8360 -0.8567
  999MOL0     H37855   3.578   8.135   6.344  1.0431  0.1516 -0.2755
  999MOL0     H37856   3.369   8.138   6.198 -0.3899  1.3401  3.0684
  999MOL0     H37857   3.434   8.249   6.091 -2.5924 -1.4222 -0.6033
  999MOL0     H37858   3.344   8.468   6.449 -0.8117 -0.5261  1.8974
  999MOL0     H37859   4.100   8.393   6.075 -0.6579  0.9667  3.1482
  999MOL0     H37860   4.305   8.471   6.045  0.9742  0.4237 -1.0814
  999MOL0     H37861   4.447   8.394   6.095  0.4904  0.4443 -1.5769
  999MOL0     H37862   4.393   8.354   5.936  0.0174  0.3803  0.0356
 1000MOL0     O37863   0.118   9.918   4.171  0.0252 -0.0164 -0.3301
 1000MOL0     C37864   0.144  10.036   4.158  0.4798 -0.4699 -0.0674
 1000MOL0     O37865   0.255  10.099   4.221 -0.2419  0.1370 -0.1380
 1000MOL0     C37866   0.358  10.026   4.263 -0.0224 -0.2968 -0.4095
 1000MOL0     C37867   0.457   9.991   4.175  1.3168 -0.6372  0.7412
 1000MOL0     C37868   0.574   9.948   4.228  0.1251 -0.4587  0.8101
 1000MOL0     C37869   0.604   9.928   4.360  0.8441  0.5583 -0.4987
 1000MOL0     O37870   0.721   9.874   4.400  0.4547 -0.7572 -0.0996
 1000MOL0     C37871   0.715   9.765   4.484  0.4502  0.6290  0.6106
 1000MOL0     C37872   0.859   9.723   4.525 -1.3294 -0.3524 -0.7206
 1000MOL0     C37873   0.932   9.665   4.415 -0.9794 -0.1348  1.1057
 1000MOL0     C37874   1.054   9.585   4.463  0.1242  0.5358  0.5735
 1000MOL0     C37875   1.121   9.503   4.350 -1.1632 -0.7070 -0.1519
 1000MOL0     C37876   1.260   9.458   4.387  0.2408  0.2149 -0.0970
 1000MOL0     C37877   1.330   9.404   4.264 -0.5174  0.0267 -0.3499
 1000MOL0     C37878   1.332   9.499   4.144  0.6135 -0.1603  0.2447
 1000MOL0     N37879   1.450   9.474   4.067 -0.4575  0.4318  0.1381
 1000MOL0     C37880   1.495   9.354   4.031 -0.0493 -0.2400 -0.2748
 1000MOL0     C37881   1.597   9.375   3.944  0.0148 -0.3413 -0.0682
 1000MOL0     C37882   1.663   9.264   3.867  0.0591 -0.4043  0.2392
 1000MOL0     C37883   1.818   9.294   3.871 -0.6748 -0.8957  0.3757
 1000MOL0     C37884   1.877   9.270   4.011 -0.9228 -0.5215  0.4041
 1000MOL0     C37885   2.032   9.272   4.003 -0.0259 -0.4782 -0.3688
 1000MOL0     O37886   2.096   9.191   4.105  0.6586  0.1184 -0.1457
 1000MOL0     C37887   2.234   9.194   4.105  0.2924 -0.0984 -0.4271
 1000MOL0     C37888   2.297   9.116   4.202 -0.3670 -0.4428 -0.5742
 1000MOL0     C37889   2.436   9.105   4.221  0.0935 -0.6753  0.9204
 1000MOL0     C37890   2.484   9.003   4.319 -0.7146  1.1508  0.1963
 1000MOL0     C37891   2.521   9.190   4.146 -0.0276 -0.1183 -0.1696
 1000MOL0     C37892   2.670   9.194   4.144 -0.1721 -1.1226 -0.5679
 1000MOL0     O37893   2.735   9.101   4.212 -0.3385 -0.4372 -0.7410
 1000MOL0     C37894   2.865   9.085   4.232 -0.5893  0.6226 -0.3276
 1000MOL0     C37895   2.973   9.132   4.148  0.0616  0.6734 -0.1611
 1000MOL0     C37896   3.106   9.092   4.177  0.1774 -0.1721  0.2969
 1000MOL0     C37897   3.134   9.006   4.282 -0.3799  1.3719 -0.1511
 1000MOL0     O37898   3.264   8.955   4.293  0.7689 -0.3851 -0.0519
 1000MOL0     C37899   3.284   8.830   4.354  0.3291 -0.7915  0.3181
 1000MOL0     C37900   3.428   8.785   4.291  0.5749  0.6616  0.1735
 1000MOL0     C37901   3.444   8.634   4.319  0.4883  0.0367  0.2178
 1000MOL0     C37902   3.367   8.531   4.239  0.6067  0.1603 -0.2714
 1000MOL0     C37903   3.384   8.390   4.292  0.2615 -0.6892  0.5504
 1000MOL0     C37904   3.528   8.331   4.294 -0.0345 -1.1169  0.1268
 1000MOL0     C37905   3.608   8.362   4.423 -0.0531  0.6287  0.3403
 1000MOL0     C37906   3.757   8.344   4.410 -0.1719 -0.9329  0.2925
 1000MOL0    Cl37907   3.824   8.179   4.346  0.2384 -0.5746  0.1006
 1000MOL0     C37908   3.034   8.964   4.366 -0.7112 -0.7109 -0.2580
 1000MOL0     C37909   2.900   9.009   4.348  0.8021  0.2193 -0.0639
 1000MOL0     O37910   2.722   9.274   4.068 -0.1390  0.1572 -0.2625
 1000MOL0     C37911   2.453   9.270   4.050  0.8003  0.4415 -0.0875
 1000MOL0     C37912   2.312   9.273   4.027  0.1087 -0.7412 -0.2512
 1000MOL0     N37913   1.627   9.509   3.955  0.1484  0.8125 -0.3336
 1000MOL0     N37914   1.542   9.573   4.021  0.1104 -0.0454 -1.0040
 1000MOL0     C37915   0.493   9.958   4.449 -0.0622  0.3820 -0.1792
 1000MOL0     C37916   0.378  10.014   4.400  0.3120  0.0478  1.1192
 1000MOL0     C37917   0.056  10.117   4.077 -0.7584 -0.4319  0.8047
 1000MOL0     C37918   0.050  10.255   4.094  0.2946 -0.7175  0.5823
 1000MOL0     C37919  -0.036  10.342   4.019  0.1821  0.3068 -0.1226
 1000MOL0     C37920  -0.129  10.281   3.936  0.2456  0.2027  0.8303
 1000MOL0     O37921  -0.218  10.358   3.861 -0.1604  0.2311 -0.3654
 1000MOL0     C37922  -0.225  10.508   3.858 -0.5729  0.1416  0.1313
 1000MOL0     C37923  -0.112  10.558   3.767  0.3000 -0.3592  0.3847
 1000MOL0     C37924  -0.074  10.478   3.639  0.4001 -0.3031  0.1159
 1000MOL0     C37925   0.010  10.569   3.550 -0.6996  0.1624  0.2696
 1000MOL0     C37926   0.146  10.551   3.592  0.7553 -0.0208  0.8711
 1000MOL0     C37927   0.263  10.540   3.627  0.0495 -0.2110 -1.0855
 1000MOL0     C37928  -0.110  10.146   3.913 -0.2619  0.0070  0.4130
 1000MOL0     C37929  -0.021  10.060   3.972 -0.0301 -0.3029  0.0946
 1000MOL0     C37930   0.032   9.936   3.904 -0.1324  0.2919 -0.0873
 1000MOL0     H37931   0.431   9.990   4.070 -0.6553  4.2543  0.9161
 1000MOL0     H37932   0.647   9.902   4.162  0.8590  0.4325  0.9836
 1000MOL0     H37933   0.668   9.678   4.439 -1.1062  0.2374  2.8062
 1000MOL0     H37934   0.664   9.784   4.579  0.7768 -1.5960  1.2783
 1000MOL0     H37935   0.922   9.803   4.564  1.2212 -1.1768 -2.8325
 1000MOL0     H37936   0.845   9.650   4.605  3.0999 -0.0509  0.5623
 1000MOL0     H37937   0.856   9.600   4.371 -1.6751  3.1604 -3.2739
 1000MOL0     H37938   0.957   9.734   4.334  1.3585  4.1915  5.0243
 1000MOL0     H37939   1.121   9.661   4.504  1.1135 -1.1519  2.2251
 1000MOL0     H37940   1.018   9.523   4.545 -0.1990  2.3716  1.8839
 1000MOL0     H37941   1.117   9.566   4.261  3.4501 -0.0955 -0.1644
 1000MOL0     H37942   1.067   9.411   4.326  1.1617 -2.3400  0.5211
 1000MOL0     H37943   1.305   9.551   4.423  0.5179  0.3203 -0.7145
 1000MOL0     H37944   1.247   9.381   4.464 -0.9306  1.6649  1.2112
 1000MOL0     H37945   1.305   9.300   4.238 -1.3415  0.0791  0.1797
 1000MOL0     H37946   1.436   9.390   4.286 -0.7252 -0.6498  0.2748
 1000MOL0     H37947   1.249   9.479   4.076  2.4673 -0.9479 -1.8927
 1000MOL0     H37948   1.327   9.603   4.178  1.8322 -0.3683  1.1141
 1000MOL0     H37949   1.461   9.257   4.064  1.6016 -0.0088  2.3434
 1000MOL0     H37950   1.625   9.280   3.765 -0.2304  2.5122  0.7039
 1000MOL0     H37951   1.638   9.166   3.908 -0.8294 -0.7321 -1.0025
 1000MOL0     H37952   1.859   9.229   3.794  0.1993  0.0291  0.0357
 1000MOL0     H37953   1.848   9.395   3.841  0.9414 -1.2208  0.8061
 1000MOL0     H37954   1.829   9.342   4.078 -1.5767  0.7025 -1.2857
 1000MOL0     H37955   1.842   9.169   4.034 -1.1650 -0.7034 -0.6661
 1000MOL0     H37956   2.053   9.240   3.900 -0.4879  0.8496 -0.9002
 1000MOL0     H37957   2.070   9.374   4.015  0.5753 -0.3820 -2.5957
 1000MOL0     H37958   2.251   9.042   4.268 -1.6516  0.5100 -0.3702
 1000MOL0     H37959   2.415   8.941   4.378 -0.9060  0.6518 -0.5335
 1000MOL0     H37960   2.558   9.042   4.390 -0.8881  3.3210 -0.7422
 1000MOL0     H37961   2.545   8.935   4.259  1.5626  1.2701  2.1824
 1000MOL0     H37962   2.956   9.213   4.078 -0.4372  1.0865  0.4154
 1000MOL0     H37963   3.185   9.119   4.109 -2.1848 -0.3369 -2.7333
 1000MOL0     H37964   3.283   8.836   4.463 -4.1433 -0.4318  0.4595
 1000MOL0     H37965   3.210   8.756   4.321  2.7448 -2.0320 -2.8052
 1000MOL0     H37966   3.438   8.802   4.183 -1.8853  0.3305 -0.1703
 1000MOL0     H37967   3.496   8.850   4.347  1.5749  0.5177 -0.8431
 1000MOL0     H37968   3.433   8.610   4.425  2.1201 -1.2110  0.1437
 1000MOL0     H37969   3.552   8.623   4.299  0.9833  2.5277  1.2167
 1000MOL0     H37970   3.372   8.533   4.130 -1.9578 -2.0987 -0.5169
 1000MOL0     H37971   3.264   8.565   4.251 -0.7782 -2.9507 -2.3590
 1000MOL0     H37972   3.353   8.378   4.396 -0.3486 -2.2019  0.2215
 1000MOL0     H37973   3.330   8.317   4.230  2.1241 -0.1280 -1.9175
 1000MOL0     H37974   3.589   8.373   4.214  1.8491  3.5273  3.5775
 1000MOL0     H37975   3.513   8.224   4.275 -1.8041 -1.3876  2.5599
 1000MOL0     H37976   3.573   8.291   4.499  1.6558 -0.3125  0.2824
 1000MOL0     H37977   3.589   8.464   4.458  0.5103  0.5207  0.9817
 1000MOL0     H37978   3.815   8.365   4.501  2.8264 -2.2085 -1.1815
 1000MOL0     H37979   3.802   8.411   4.337  1.8376  0.5123  2.6860
 1000MOL0     H37980   3.042   8.897   4.451 -2.3141  0.6393  1.0498
 1000MOL0     H37981   2.825   8.971   4.416  1.1171  0.4819  0.4365
 1000MOL0     H37982   2.518   9.308   3.971  0.3514 -0.1553 -0.7607
 1000MOL0     H37983   2.273   9.326   3.940 -0.7976 -0.5830  0.2395
 1000MOL0     H37984   0.505   9.951   4.557 -1.5506  0.1055 -0.0066
 1000MOL0     H37985   0.302  10.034   4.474 -0.0378  1.1525  0.4956
 1000MOL0     H37986   0.120  10.308   4.157  4.1709  1.2144 -4.6941
 1000MOL0     H37987  -0.054  10.447   4.038  1.7522 -0.0266  4.2091
 1000MOL0     H37988  -0.321  10.532   3.811 -0.7386 -0.5809  0.0952
 1000MOL0     H37989  -0.210  10.556   3.955  1.7805  0.0104 -0.1158
 1000MOL0     H37990  -0.027  10.562   3.836  0.8095  1.1627 -0.2850
 1000MOL0     H37991  -0.133  10.663   3.743  2.5305  0.0107 -0.2170
 1000MOL0     H37992  -0.020  10.391   3.677  2.3569  0.9225  0.2706
 1000MOL0     H37993  -0.162  10.448   3.581  0.4700 -1.7704  0.7210
 1000MOL0     H37994  -0.014  10.676   3.551  2.3015  0.9257  0.4701
 1000MOL0     H37995  -0.006  10.520   3.454 -3.4871  0.5761  0.4279
 1000MOL0     H37996   0.365  10.558   3.655 -0.6765  1.3944  0.6911
 1000MOL0     H37997  -0.156  10.117   3.819 -1.3453  4.0314 -0.4585
 1000MOL0     H37998   0.141   9.935   3.908 -0.0076 -1.2674 -2.1635
 1000MOL0     H37999  -0.003   9.840   3.943  0.2482  0.0612 -0.3089
 1000MOL0     H38000   0.009   9.934   3.797  1.6874 -1.6452 -0.5171
 1001MOL0     O38001   6.464   0.851  10.166  0.2061 -0.6438  0.0904
 1001MOL0     C38002   6.407   0.962  10.177  0.0961  0.7996 -0.3322
 1001MOL0     O38003   6.406   1.064  10.089  0.3117  0.7077  0.3492
 1001MOL0     C38004   6.482   1.066   9.970 -0.2886  0.1587  0.5826
 1001MOL0     C38005   6.432   1.144   9.869  0.4877 -0.0785 -0.9917
 1001MOL0     C38006   6.505   1.167   9.745 -0.5251 -0.4476 -0.6242
 1001MOL0     C38007   6.621   1.093   9.729  0.0853  0.3576 -0.7212
 1001MOL0     O38008   6.701   1.120   9.619 -0.1555 -0.5805  0.0551
 1001MOL0     C38009   6.804   1.030   9.581 -0.5864 -0.1339  0.4287
 1001MOL0     C38010   6.943   1.069   9.635  0.4796 -0.6836  0.0397
 1001MOL0     C38011   7.066   1.042   9.556  0.1567 -0.9446 -0.1038
 1001MOL0     C38012   7.069   0.907   9.494  0.1254  0.3923 -0.1152
 1001MOL0     C38013   7.210   0.872   9.430  0.1346  0.1028 -0.3436
 1001MOL0     C38014   7.213   0.730   9.358 -0.2331  0.5727 -0.1179
 1001MOL0     C38015   7.308   0.727   9.237  0.5178  0.0678 -0.6959
 1001MOL0     C38016   7.263   0.809   9.120  0.0100 -0.3400  0.6622
 1001MOL0     N38017   7.132   0.771   9.089  0.4916 -0.2809  0.3259
 1001MOL0     C38018   7.028   0.857   9.080  0.2797 -0.0185  0.0305
 1001MOL0     C38019   6.916   0.786   9.046  0.2995 -0.1768  0.2070
 1001MOL0     C38020   6.782   0.844   9.030 -0.0601 -0.2295 -1.7390
 1001MOL0     C38021   6.758   0.880   8.884 -0.0015 -0.9078 -0.5084
 1001MOL0     C38022   6.660   1.000   8.864 -0.8625  0.4626  0.0622
 1001MOL0     C38023   6.618   1.017   8.719 -0.5278 -0.5808  0.1568
 1001MOL0     O38024   6.730   1.058   8.636 -0.6178  0.1273  0.4140
 1001MOL0     C38025   6.711   1.083   8.497  0.3445 -0.6015 -0.1422
 1001MOL0     C38026   6.823   1.135   8.438 -0.8285  0.4051 -1.3624
 1001MOL0     C38027   6.819   1.158   8.299 -0.0778 -0.7375  0.3809
 1001MOL0     C38028   6.932   1.243   8.243 -0.1849  0.6077  0.1683
 1001MOL0     C38029   6.700   1.127   8.220 -0.5408  0.2168 -0.5268
 1001MOL0     C38030   6.689   1.138   8.075  0.4010  0.2102  0.3715
 1001MOL0     O38031   6.573   1.183   8.038  0.2582 -0.2327  0.5349
 1001MOL0     C38032   6.548   1.166   7.905 -0.4687 -0.7365 -0.8271
 1001MOL0     C38033   6.476   1.051   7.875 -0.2782 -0.0019  0.3664
 1001MOL0     C38034   6.452   1.032   7.738  0.1786 -0.5444 -0.5589
 1001MOL0     C38035   6.493   1.123   7.637 -0.5250 -0.3329 -0.0779
 1001MOL0     O38036   6.444   1.107   7.512 -0.2124 -0.4696 -0.1118
 1001MOL0     C38037   6.505   1.178   7.398  0.5081 -0.1862 -0.0286
 1001MOL0     C38038   6.467   1.122   7.260 -1.0130 -0.0633  0.3547
 1001MOL0     C38039   6.474   1.217   7.134  0.8197 -1.0802  0.2694
 1001MOL0     C38040   6.438   1.132   7.022  0.6004  1.1649  0.8277
 1001MOL0     C38041   6.435   1.202   6.888  0.0712  0.2223 -0.0305
 1001MOL0     C38042   6.413   1.122   6.757  0.2315 -0.9262 -0.6465
 1001MOL0     C38043   6.307   1.182   6.659  0.1147 -0.0099 -0.3115
 1001MOL0     C38044   6.162   1.159   6.706  0.0390 -0.3632  0.6629
 1001MOL0    Cl38045   6.104   1.257   6.849  0.1360 -0.0338 -0.4452
 1001MOL0     C38046   6.551   1.240   7.680  0.4692 -0.0773  1.2921
 1001MOL0     C38047   6.572   1.269   7.811 -0.2750 -0.3632  0.1448
 1001MOL0     O38048   6.777   1.086   8.000 -0.3125  0.4971  0.0014
 1001MOL0     C38049   6.590   1.082   8.288  0.6262  1.3815  0.3928
 1001MOL0     C38050   6.591   1.056   8.427 -0.4742 -0.5016 -0.1652
 1001MOL0     N38051   6.966   0.657   9.010 -0.3477 -0.3183 -0.5247
 1001MOL0     N38052   7.096   0.656   9.036 -0.3365 -0.1590 -0.1195
 1001MOL0     C38053   6.665   0.998   9.823 -0.6286 -0.8678  0.3089
 1001MOL0     C38054   6.596   0.992   9.940  0.1598 -0.6201 -0.0861
 1001MOL0     C38055   6.338   1.001  10.308  0.6554 -0.7682  1.0776
 1001MOL0     C38056   6.332   1.139  10.345 -0.7655 -1.3778  0.0552
 1001MOL0     C38057   6.266   1.176  10.463 -0.2831  0.3434 -0.0329
 1001MOL0     C38058   6.209   1.090  10.551 -0.0379  0.1094 -0.1289
 1001MOL0     O38059   6.141   1.115  10.665 -0.3920 -0.2471 -0.4727
 1001MOL0     C38060   6.122   1.254  10.702  0.0712  0.5613 -0.1424
 1001MOL0     C38061   6.006   1.265  10.791  0.5856 -0.8418  0.1816
 1001MOL0     C38062   5.952   1.405  10.766 -0.4004  0.6582  0.0547
 1001MOL0     C38063   5.835   1.436  10.870  0.1302 -0.8629  0.0682
 1001MOL0     C38064   5.717   1.383  10.823 -1.0022 -0.3221  0.4016
 1001MOL0     C38065   5.620   1.334  10.769 -0.1337  0.4203  0.2129
 1001MOL0     C38066   6.220   0.955  10.516 -0.1058 -0.4134 -0.8473
 1001MOL0     C38067   6.282   0.907  10.394  0.6734  0.2913 -0.0445
 1001MOL0     C38068   6.268   0.761  10.360  1.1516  0.7639 -0.0387
 1001MOL0     H38069   6.326   1.162   9.883  0.3229 -0.8664 -1.1711
 1001MOL0     H38070   6.469   1.235   9.668 -1.0293 -1.3999 -1.2522
 1001MOL0     H38071   6.803   1.053   9.474 -3.7020  0.6910  0.5554
 1001MOL0     H38072   6.790   0.924   9.605  1.4510 -0.2026  1.5079
 1001MOL0     H38073   6.943   1.177   9.656  0.2158 -0.9988  1.8838
 1001MOL0     H38074   6.959   1.036   9.738 -0.3085  2.4226  1.2782
 1001MOL0     H38075   7.071   1.117   9.477 -0.9106 -0.3883  0.3449
 1001MOL0     H38076   7.151   1.051   9.624 -0.3027 -2.6810  0.7739
 1001MOL0     H38077   7.044   0.830   9.568 -2.0792 -1.4787 -2.5870
 1001MOL0     H38078   6.992   0.885   9.419  2.6956 -1.3404 -2.4821
 1001MOL0     H38079   7.288   0.890   9.505  0.3197  2.8092 -1.0742
 1001MOL0     H38080   7.226   0.951   9.356  3.8783  1.4096  1.5764
 1001MOL0     H38081   7.239   0.659   9.437  0.4729  1.5782  0.5877
 1001MOL0     H38082   7.115   0.700   9.322  0.0300  1.2261 -1.4309
 1001MOL0     H38083   7.314   0.623   9.203  3.3627 -0.6905  1.7349
 1001MOL0     H38084   7.410   0.754   9.265 -0.3738  1.1256  1.7510
 1001MOL0     H38085   7.259   0.916   9.139 -1.2672  0.1676 -2.0381
 1001MOL0     H38086   7.332   0.782   9.039  1.2030  0.2519  1.4526
 1001MOL0     H38087   7.027   0.963   9.101  2.9009  0.2996 -1.0464
 1001MOL0     H38088   6.779   0.941   9.081  2.0125 -1.1307  0.2572
 1001MOL0     H38089   6.708   0.775   9.072  1.0128  0.4962  1.6604
 1001MOL0     H38090   6.856   0.909   8.843 -1.0433 -0.2065 -2.6696
 1001MOL0     H38091   6.724   0.787   8.838 -0.1305 -1.8468  1.3855
 1001MOL0     H38092   6.563   0.983   8.911 -1.0289  0.7727 -0.1616
 1001MOL0     H38093   6.699   1.090   8.912 -0.8237 -0.3111  1.5440
 1001MOL0     H38094   6.579   0.921   8.684 -0.5612  0.1579 -2.0170
 1001MOL0     H38095   6.543   1.095   8.734 -3.4440 -2.9946 -0.8838
 1001MOL0     H38096   6.904   1.169   8.501 -1.0672 -2.1427  0.4688
 1001MOL0     H38097   6.894   1.345   8.254  0.2617  0.6927  1.0104
 1001MOL0     H38098   6.962   1.229   8.139 -2.7586  1.8613 -0.8433
 1001MOL0     H38099   7.021   1.233   8.306  0.4803 -0.7054 -0.9316
 1001MOL0     H38100   6.442   0.980   7.950  0.2634 -0.3906  0.2530
 1001MOL0     H38101   6.387   0.948   7.716  1.8120 -2.7045  2.1783
 1001MOL0     H38102   6.477   1.283   7.409 -3.3924 -0.7865 -2.4517
 1001MOL0     H38103   6.614   1.172   7.400  0.6940  1.9917 -1.1114
 1001MOL0     H38104   6.526   1.033   7.237  0.1722  1.8331 -5.5357
 1001MOL0     H38105   6.366   1.081   7.277 -0.2120 -1.4521  2.0945
 1001MOL0     H38106   6.574   1.261   7.128  0.4654 -0.3746 -0.8789
 1001MOL0     H38107   6.410   1.304   7.149  2.9014  0.6127 -0.1978
 1001MOL0     H38108   6.335   1.095   7.028  0.1852  2.3784  5.6156
 1001MOL0     H38109   6.501   1.042   7.025 -2.6507 -1.4134 -1.2444
 1001MOL0     H38110   6.371   1.290   6.892  0.2577  0.3222  0.9462
 1001MOL0     H38111   6.529   1.257   6.883 -1.2674  2.7284  0.5379
 1001MOL0     H38112   6.388   1.017   6.772  1.4655 -0.8919  2.2671
 1001MOL0     H38113   6.512   1.119   6.710  0.0475 -1.3477 -1.0128
 1001MOL0     H38114   6.317   1.139   6.559 -0.8903  1.8267 -1.2523
 1001MOL0     H38115   6.312   1.291   6.655 -1.1030  0.0356 -1.1685
 1001MOL0     H38116   6.157   1.054   6.736 -0.4113 -1.5498 -3.1326
 1001MOL0     H38117   6.091   1.194   6.630  0.7234  4.1942  1.7784
 1001MOL0     H38118   6.597   1.300   7.602  2.9328 -1.9108  1.2370
 1001MOL0     H38119   6.626   1.358   7.843  0.4587 -0.6573 -0.2477
 1001MOL0     H38120   6.491   1.055   8.253  2.4776 -5.0015 -1.2874
 1001MOL0     H38121   6.505   1.012   8.476 -2.3456  4.0087  1.0653
 1001MOL0     H38122   6.761   0.946   9.820 -0.1703 -0.3702  3.0457
 1001MOL0     H38123   6.627   0.919  10.014 -2.7718 -2.2946 -0.3399
 1001MOL0     H38124   6.388   1.213  10.290 -2.2976 -0.3274 -0.1576
 1001MOL0     H38125   6.272   1.283  10.476  0.6653  0.3239 -0.2997
 1001MOL0     H38126   6.212   1.276  10.760  0.1619 -0.5258  0.1539
 1001MOL0     H38127   6.112   1.313  10.611  0.4535 -1.4753 -1.5893
 1001MOL0     H38128   6.040   1.250  10.893  1.5208  0.8028  0.1613
 1001MOL0     H38129   5.927   1.198  10.756  0.2724 -1.2636  1.6308
 1001MOL0     H38130   6.032   1.479  10.765 -1.7457  2.1647 -1.3514
 1001MOL0     H38131   5.903   1.407  10.668  0.3872 -0.7716 -0.4011
 1001MOL0     H38132   5.823   1.543  10.888 -0.3155 -0.5517 -1.9021
 1001MOL0     H38133   5.856   1.387  10.966 -0.9246 -2.1483 -0.3293
 1001MOL0     H38134   5.527   1.297  10.731  1.2464  0.0167 -3.1013
 1001MOL0     H38135   6.184   0.881  10.588  0.9611  0.2970  0.4590
 1001MOL0     H38136   6.233   0.765  10.256  1.2347  1.0031 -0.0572
 1001MOL0     H38137   6.369   0.721  10.362  0.2504 -1.7128  2.1301
 1001MOL0     H38138   6.190   0.706  10.414  1.8796  0.6379  0.9109
 1002MOL0     O38139   5.391  11.284   9.831 -0.3904  0.2271  0.7792
 1002MOL0     C38140   5.436  11.202   9.755 -0.5698 -0.7235  1.1255
 1002MOL0     O38141   5.530  11.232   9.652 -0.4443 -0.2430 -0.1335
 1002MOL0     C38142   5.558  11.362   9.626  0.2272 -0.0837  0.0181
 1002MOL0     C38143   5.655  11.439   9.691 -0.3814  0.5705  0.1054
 1002MOL0     C38144   5.699  11.560   9.636 -0.6820  0.6559 -0.3556
 1002MOL0     C38145   5.640  11.619   9.524 -0.1015  0.2820  0.1152
 1002MOL0     O38146   5.680  11.740   9.480 -0.1913  0.4533 -0.2302
 1002MOL0     C38147   5.812  11.746   9.429 -0.7479  0.0428  0.3796
 1002MOL0     C38148   5.809  11.822   9.292  1.4846 -0.0737 -0.0019
 1002MOL0     C38149   5.719  11.770   9.186 -0.1195 -0.4350  0.7866
 1002MOL0     C38150   5.668  11.894   9.096  0.2908 -0.2563 -0.4533
 1002MOL0     C38151   5.568  11.973   9.174  0.6526  0.1375 -1.0690
 1002MOL0     C38152   5.452  12.030   9.088  0.1889 -0.1248 -0.0173
 1002MOL0     C38153   5.517  12.119   8.980 -0.4802  0.5491 -0.1810
 1002MOL0     C38154   5.521  12.262   9.030 -1.0013  0.4238 -0.2412
 1002MOL0     N38155   5.513  12.350   8.918  0.4199 -0.3508  0.0730
 1002MOL0     C38156   5.443  12.471   8.914 -0.0999  0.4944  0.3752
 1002MOL0     C38157   5.483  12.536   8.796 -0.1426  0.9779 -0.4857
 1002MOL0     C38158   5.426  12.676   8.748  0.9862  1.2445  0.8011
 1002MOL0     C38159   5.408  12.686   8.595  0.3448  0.3946  0.5653
 1002MOL0     C38160   5.393  12.829   8.544 -0.3324 -0.2284 -0.2211
 1002MOL0     C38161   5.397  12.832   8.393 -0.1715 -0.2781 -0.4705
 1002MOL0     O38162   5.347  12.965   8.347  0.2012  0.5529 -0.5446
 1002MOL0     C38163   5.406  13.086   8.397 -0.6939 -0.0728  0.4525
 1002MOL0     C38164   5.322  13.183   8.450  1.0844 -0.5389  0.7925
 1002MOL0     C38165   5.388  13.305   8.494  0.0917 -0.5611 -0.3202
 1002MOL0     C38166   5.298  13.426   8.522  0.6434 -0.0209 -0.8684
 1002MOL0     C38167   5.531  13.319   8.502  0.2059 -0.0492  1.2957
 1002MOL0     C38168   5.602  13.429   8.573 -0.0855 -0.3748  0.6869
 1002MOL0     O38169   5.530  13.501   8.663  0.4696 -0.0916  0.4366
 1002MOL0     C38170   5.576  13.624   8.686  0.0852 -0.5430  0.1268
 1002MOL0     C38171   5.669  13.649   8.784 -0.8735  0.0894 -0.0162
 1002MOL0     C38172   5.722  13.777   8.805  0.0610  0.0736 -0.1378
 1002MOL0     C38173   5.661  13.886   8.741  0.6673 -0.3013 -0.2052
 1002MOL0     O38174   5.723  14.011   8.768  0.3153 -0.0061 -0.7151
 1002MOL0     C38175   5.652  14.132   8.733 -0.0372 -0.4008  0.5487
 1002MOL0     C38176   5.738  14.249   8.790 -0.5591 -0.3161  0.1266
 1002MOL0     C38177   5.669  14.380   8.807 -0.1984 -0.2616 -0.5362
 1002MOL0     C38178   5.603  14.426   8.679  0.3215  0.0427  0.3778
 1002MOL0     C38179   5.527  14.566   8.694  0.2516 -0.9458 -1.4137
 1002MOL0     C38180   5.610  14.693   8.719 -0.5697  0.0921 -0.0657
 1002MOL0     C38181   5.536  14.827   8.731 -0.2872 -0.2116 -0.4187
 1002MOL0     C38182   5.476  14.832   8.873  0.9280  0.2355  0.2202
 1002MOL0    Cl38183   5.370  14.987   8.898 -0.1150  0.0786  0.4684
 1002MOL0     C38184   5.553  13.858   8.654 -0.0166  0.4427 -0.3008
 1002MOL0     C38185   5.515  13.729   8.626  0.3866 -0.2191  0.1189
 1002MOL0     O38186   5.722  13.449   8.540  0.6022  0.2039  0.2283
 1002MOL0     C38187   5.607  13.219   8.433  0.3206 -0.6939 -0.9475
 1002MOL0     C38188   5.541  13.107   8.382 -0.2197 -0.1639 -0.4975
 1002MOL0     N38189   5.578  12.454   8.737  0.2991  0.6086  0.7101
 1002MOL0     N38190   5.603  12.357   8.816 -0.4283  0.1987  0.2435
 1002MOL0     C38191   5.541  11.546   9.456 -0.4809 -1.7110  0.1926
 1002MOL0     C38192   5.509  11.422   9.517 -0.0195 -0.2464  0.7644
 1002MOL0     C38193   5.398  11.062   9.765 -1.9900 -0.0212 -0.6072
 1002MOL0     C38194   5.477  10.958   9.707  0.4517 -0.2616  0.3021
 1002MOL0     C38195   5.447  10.811   9.723 -0.1871 -0.4142 -0.5536
 1002MOL0     C38196   5.356  10.769   9.819  0.4558 -1.0886  1.0299
 1002MOL0     O38197   5.336  10.632   9.834 -0.5612 -0.6612  0.9157
 1002MOL0     C38198   5.441  10.531   9.809  0.2981 -0.2826  0.3945
 1002MOL0     C38199   5.385  10.398   9.870 -0.9188 -0.6093 -0.6784
 1002MOL0     C38200   5.306  10.304   9.773 -0.0115  0.9608  1.8289
 1002MOL0     C38201   5.262  10.182   9.860  0.5567 -0.4618  0.1698
 1002MOL0     C38202   5.189  10.090   9.772 -1.1225  0.3184 -0.5062
 1002MOL0     C38203   5.147   9.992   9.704 -0.0251 -0.6134  0.3507
 1002MOL0     C38204   5.282  10.867   9.876 -0.6943 -0.2460  0.6513
 1002MOL0     C38205   5.300  11.007   9.850  0.1697 -0.3691  0.3951
 1002MOL0     C38206   5.210  11.085   9.929  0.4038 -0.1832 -0.0485
 1002MOL0     H38207   5.703  11.415   9.785  1.2054  0.7012 -0.6408
 1002MOL0     H38208   5.766  11.628   9.687 -1.9683  0.6152  1.4959
 1002MOL0     H38209   5.849  11.646   9.403 -0.1746  0.2306  0.4691
 1002MOL0     H38210   5.878  11.796   9.500 -1.5521  0.0521  1.1423
 1002MOL0     H38211   5.775  11.920   9.326  0.6410 -0.6295  0.7849
 1002MOL0     H38212   5.909  11.828   9.248  0.7518 -2.9266 -2.3588
 1002MOL0     H38213   5.764  11.694   9.122  1.4263  0.1026  1.2057
 1002MOL0     H38214   5.625  11.728   9.223  0.4703  0.1161  3.0408
 1002MOL0     H38215   5.748  11.953   9.050  0.8680 -1.4874 -1.0862
 1002MOL0     H38216   5.617  11.856   9.007  0.4614 -0.5020 -0.4479
 1002MOL0     H38217   5.618  12.054   9.227 -0.1594 -0.4607  0.6714
 1002MOL0     H38218   5.519  11.908   9.247  0.9809 -0.5598 -1.4536
 1002MOL0     H38219   5.395  11.948   9.044  0.0951 -0.1019  0.0626
 1002MOL0     H38220   5.376  12.081   9.148  0.5236 -0.5703  0.8095
 1002MOL0     H38221   5.446  12.118   8.897  0.4171 -3.3306 -1.0807
 1002MOL0     H38222   5.613  12.080   8.946 -2.5591 -3.0847 -2.5736
 1002MOL0     H38223   5.448  12.288   9.107  0.1736  2.0327  0.3886
 1002MOL0     H38224   5.613  12.270   9.089 -1.0749  0.1160 -0.0827
 1002MOL0     H38225   5.372  12.510   8.986 -1.3319  2.2432 -1.6721
 1002MOL0     H38226   5.485  12.756   8.792 -1.3114  2.6904  1.4049
 1002MOL0     H38227   5.322  12.691   8.778  0.0887  1.4772 -2.1042
 1002MOL0     H38228   5.498  12.635   8.561  0.7026  0.3585  1.5451
 1002MOL0     H38229   5.320  12.631   8.562  3.0636 -2.0198 -3.5909
 1002MOL0     H38230   5.297  12.874   8.571  0.0148  1.7431 -2.0145
 1002MOL0     H38231   5.473  12.896   8.578  0.1128 -2.2200  3.0702
 1002MOL0     H38232   5.502  12.817   8.364 -0.9503 -4.9622 -1.7059
 1002MOL0     H38233   5.340  12.741   8.376 -0.7685 -0.8406  3.4843
 1002MOL0     H38234   5.215  13.177   8.466  0.9856  1.1395  0.9118
 1002MOL0     H38235   5.340  13.515   8.475 -3.2386  1.0498 -2.7556
 1002MOL0     H38236   5.299  13.445   8.629 -1.3918  1.2813 -1.0201
 1002MOL0     H38237   5.191  13.420   8.498  0.2728 -1.6384  0.9318
 1002MOL0     H38238   5.709  13.564   8.839 -0.8770 -0.0337 -0.2060
 1002MOL0     H38239   5.798  13.801   8.879 -1.1891 -0.0102  1.2092
 1002MOL0     H38240   5.634  14.153   8.627  0.9689  3.7903  1.0140
 1002MOL0     H38241   5.550  14.128   8.772 -0.3618 -1.0313 -0.3273
 1002MOL0     H38242   5.790  14.210   8.878 -0.0650 -5.1639 -1.9825
 1002MOL0     H38243   5.818  14.264   8.717 -0.2158 -0.6201  0.4330
 1002MOL0     H38244   5.744  14.454   8.837 -0.8503  0.8760 -1.6271
 1002MOL0     H38245   5.593  14.374   8.884 -0.2216 -0.8001 -0.5958
 1002MOL0     H38246   5.526  14.354   8.650 -0.4232  1.0178 -0.1360
 1002MOL0     H38247   5.669  14.438   8.592 -0.0251  1.1559  0.2485
 1002MOL0     H38248   5.464  14.589   8.608 -0.1382 -0.2511 -0.9527
 1002MOL0     H38249   5.468  14.547   8.784  0.6262  0.1345 -0.9141
 1002MOL0     H38250   5.679  14.695   8.634  2.8188  0.9848  2.5125
 1002MOL0     H38251   5.665  14.689   8.814 -1.1414 -1.7294  0.2341
 1002MOL0     H38252   5.457  14.837   8.657 -0.0139  1.0338 -0.5689
 1002MOL0     H38253   5.598  14.917   8.726  0.8903 -1.0568 -2.2762
 1002MOL0     H38254   5.551  14.835   8.953  2.4582  2.8020 -1.1656
 1002MOL0     H38255   5.412  14.744   8.868 -0.9318  1.5616 -1.0034
 1002MOL0     H38256   5.492  13.938   8.613 -1.3088 -0.2250  0.2599
 1002MOL0     H38257   5.433  13.716   8.556  0.4411 -4.1480  0.5679
 1002MOL0     H38258   5.715  13.226   8.436  0.2056  3.9040  0.7490
 1002MOL0     H38259   5.598  13.028   8.335  0.0922 -0.9185  1.0600
 1002MOL0     H38260   5.503  11.590   9.364 -0.1331 -1.0146  0.3746
 1002MOL0     H38261   5.432  11.362   9.470  0.6309 -2.1985  2.0791
 1002MOL0     H38262   5.548  10.988   9.630  0.4887 -0.1257  0.3885
 1002MOL0     H38263   5.509  10.739   9.670  0.5883 -0.0747 -0.1278
 1002MOL0     H38264   5.445  10.522   9.700 -0.7676  1.7982  0.1295
 1002MOL0     H38265   5.536  10.568   9.848 -0.4955  1.5613  0.6911
 1002MOL0     H38266   5.311  10.420   9.948  2.1267  0.5744  2.1235
 1002MOL0     H38267   5.462  10.350   9.931  1.0551  4.3829  1.3196
 1002MOL0     H38268   5.224  10.367   9.738 -1.0479 -0.1657  2.1681
 1002MOL0     H38269   5.360  10.270   9.684 -1.3562  0.0282  1.3393
 1002MOL0     H38270   5.192  10.216   9.937  0.1151  0.1011 -0.4602
 1002MOL0     H38271   5.347  10.125   9.897 -0.2311 -0.2430  2.4891
 1002MOL0     H38272   5.095   9.921   9.643  0.4671 -0.5013 -0.2011
 1002MOL0     H38273   5.207  10.828   9.943  0.1833 -0.1717  1.7129
 1002MOL0     H38274   5.261  11.126  10.016 -0.6126 -0.8392  0.8773
 1002MOL0     H38275   5.163  11.160   9.864 -3.9498 -3.0981 -0.7376
 1002MOL0     H38276   5.132  11.020   9.970 -4.7517  3.3753 -2.9667
 1003MOL0     O38277   1.970   4.405  10.452 -0.4076  0.6531 -0.1987
 1003MOL0     C38278   2.044   4.321  10.399 -0.0763 -0.4075  0.1348
 1003MOL0     O38279   2.138   4.360  10.298  0.0791 -0.0107  0.5390
 1003MOL0     C38280   2.094   4.346  10.167  0.3396 -1.3604 -0.1633
 1003MOL0     C38281   2.196   4.352  10.069 -0.6415  0.1871  0.1378
 1003MOL0     C38282   2.156   4.338   9.938  0.5242 -0.6261 -0.2919
 1003MOL0     C38283   2.024   4.329   9.889 -0.0035  1.2103  0.1451
 1003MOL0     O38284   2.002   4.301   9.754  0.2000 -0.8936 -0.0348
 1003MOL0     C38285   2.013   4.419   9.679  0.5006  0.3752 -0.6696
 1003MOL0     C38286   1.891   4.505   9.703  0.2536 -0.8888 -1.1457
 1003MOL0     C38287   1.747   4.467   9.666 -0.3176  0.0967  1.2273
 1003MOL0     C38288   1.722   4.488   9.516 -0.1697 -0.3196  0.3521
 1003MOL0     C38289   1.592   4.420   9.460  0.1149  0.0191 -0.5130
 1003MOL0     C38290   1.592   4.419   9.305  0.8003  1.4985  0.5277
 1003MOL0     C38291   1.607   4.271   9.257 -0.8457  0.1099 -0.2886
 1003MOL0     C38292   1.607   4.252   9.097  1.2633  0.0559  0.4977
 1003MOL0     N38293   1.479   4.234   9.037  1.1139  0.0687  0.1088
 1003MOL0     C38294   1.438   4.104   9.012  0.0561 -0.3315  0.2766
 1003MOL0     C38295   1.307   4.111   8.983 -0.1197  0.1994  0.1519
 1003MOL0     C38296   1.208   3.996   8.963  0.2029 -0.0162  0.2008
 1003MOL0     C38297   1.095   4.034   8.864 -0.0194 -0.1112  0.7750
 1003MOL0     C38298   1.162   4.067   8.719 -0.3725 -0.0288 -0.5347
 1003MOL0     C38299   1.048   4.076   8.608  0.3776 -0.1792  0.3710
 1003MOL0     O38300   0.928   4.131   8.661  0.3767 -0.2447 -0.2502
 1003MOL0     C38301   0.832   4.148   8.565 -0.7694 -0.1931 -0.7599
 1003MOL0     C38302   0.849   4.253   8.473 -0.5909  0.5763 -0.3657
 1003MOL0     C38303   0.754   4.268   8.372  0.1607 -0.2282  1.1283
 1003MOL0     C38304   0.772   4.369   8.260 -0.4785  1.3068  0.3347
 1003MOL0     C38305   0.639   4.187   8.364 -0.0690  0.1096  0.1679
 1003MOL0     C38306   0.535   4.191   8.256 -0.5175 -0.4249  1.0156
 1003MOL0     O38307   0.411   4.145   8.287  1.0300  0.3230  0.8176
 1003MOL0     C38308   0.329   4.127   8.178  0.2065  0.4034  0.0035
 1003MOL0     C38309   0.281   4.236   8.112 -0.3069  0.0700 -0.2371
 1003MOL0     C38310   0.173   4.226   8.026  0.0700 -0.8224  0.1839
 1003MOL0     C38311   0.121   4.106   7.991 -0.9859  0.6203  0.8049
 1003MOL0     O38312   0.042   4.096   7.884 -0.0575 -0.5213  0.6902
 1003MOL0     C38313   0.030   3.984   7.801  0.3451 -0.6306 -0.6494
 1003MOL0     C38314  -0.098   3.912   7.835 -0.8709  0.1125 -1.2393
 1003MOL0     C38315  -0.111   3.789   7.760  0.3600  1.0402  0.5277
 1003MOL0     C38316  -0.197   3.683   7.832  0.7437 -0.1114  0.7352
 1003MOL0     C38317  -0.280   3.594   7.737  0.9399 -0.3323  0.2992
 1003MOL0     C38318  -0.186   3.525   7.638 -0.4204 -0.2911  0.5306
 1003MOL0     C38319  -0.233   3.392   7.589  0.9671  0.4132  0.5593
 1003MOL0     C38320  -0.139   3.317   7.495  1.3097 -0.2109  0.3871
 1003MOL0    Cl38321  -0.051   3.424   7.384 -0.0173 -0.4270 -0.4652
 1003MOL0     C38322   0.166   3.995   8.064  0.6761 -0.9215  0.6010
 1003MOL0     C38323   0.268   4.003   8.153 -0.3839 -0.5331 -0.3531
 1003MOL0     O38324   0.568   4.225   8.142 -0.1477  0.6438 -0.0896
 1003MOL0     C38325   0.629   4.082   8.461 -0.0844 -0.2507 -0.1863
 1003MOL0     C38326   0.730   4.066   8.554 -0.0444 -0.1013  0.0546
 1003MOL0     N38327   1.272   4.247   8.997  1.1270 -0.6382 -0.6167
 1003MOL0     N38328   1.377   4.319   9.029 -0.5508  0.2615  0.7359
 1003MOL0     C38329   1.922   4.329   9.984  0.2210  0.1380  0.4386
 1003MOL0     C38330   1.961   4.336  10.119  0.0820  0.1200  0.3015
 1003MOL0     C38331   2.034   4.177  10.450  0.0033  0.0816 -0.0213
 1003MOL0     C38332   2.116   4.081  10.393 -1.3515  0.2558 -0.8055
 1003MOL0     C38333   2.104   3.941  10.413 -0.5868  0.2910  0.9697
 1003MOL0     C38334   2.009   3.897  10.501  0.8536  0.8056  1.0526
 1003MOL0     O38335   1.997   3.760  10.535  0.6791 -0.6682 -0.2009
 1003MOL0     C38336   1.861   3.711  10.523  0.2849 -0.2036  0.5686
 1003MOL0     C38337   1.822   3.648  10.662 -0.6237 -0.9458  0.3822
 1003MOL0     C38338   1.683   3.574  10.682 -0.0285 -0.5552 -0.3783
 1003MOL0     C38339   1.700   3.458  10.787  0.0814  0.1013  0.4333
 1003MOL0     C38340   1.721   3.527  10.918  0.1797  0.4620  0.5191
 1003MOL0     C38341   1.722   3.586  11.030  0.2983 -0.4082  1.0137
 1003MOL0     C38342   1.927   3.995  10.567 -1.4454  0.4205 -1.6314
 1003MOL0     C38343   1.938   4.130  10.548  0.5777 -0.4826  0.4109
 1003MOL0     C38344   1.843   4.217  10.622 -0.7088  0.1373  1.5806
 1003MOL0     H38345   2.298   4.372  10.097 -0.8271  1.1236  0.1838
 1003MOL0     H38346   2.235   4.353   9.865  1.6717  1.5605  1.2954
 1003MOL0     H38347   2.018   4.392   9.573  1.0247  1.1326 -0.8476
 1003MOL0     H38348   2.102   4.476   9.709 -1.2175  2.6373  0.4622
 1003MOL0     H38349   1.892   4.531   9.809 -2.0961 -3.6339 -0.2996
 1003MOL0     H38350   1.925   4.595   9.652  0.7514  1.7688  3.3212
 1003MOL0     H38351   1.729   4.359   9.658  0.6507  0.0700 -2.4231
 1003MOL0     H38352   1.673   4.526   9.720  0.8022  1.2565  1.5318
 1003MOL0     H38353   1.728   4.596   9.500 -0.7234 -0.4364 -0.6891
 1003MOL0     H38354   1.801   4.443   9.457  1.1538  0.1769  1.6804
 1003MOL0     H38355   1.505   4.480   9.489  0.6133  2.2470 -3.1560
 1003MOL0     H38356   1.572   4.318   9.492 -1.2718  0.5956  0.5290
 1003MOL0     H38357   1.494   4.449   9.268  0.7166  1.4492  0.7075
 1003MOL0     H38358   1.678   4.473   9.265  3.1164 -0.6408  2.2897
 1003MOL0     H38359   1.532   4.207   9.305  1.4739  0.2066  4.0250
 1003MOL0     H38360   1.704   4.229   9.285 -2.6699 -3.1231  1.8571
 1003MOL0     H38361   1.654   4.340   9.053 -2.0490  0.9906 -1.4777
 1003MOL0     H38362   1.670   4.163   9.082 -1.3760 -1.7396 -0.6576
 1003MOL0     H38363   1.507   4.020   9.012 -0.4613 -0.7850 -1.2117
 1003MOL0     H38364   1.166   3.964   9.059 -0.8691 -2.1979 -0.9300
 1003MOL0     H38365   1.268   3.913   8.924 -0.2394 -0.5918  0.7346
 1003MOL0     H38366   1.030   3.946   8.864  0.8764 -0.9363 -3.2232
 1003MOL0     H38367   1.032   4.119   8.890  0.1731  0.4949 -0.6341
 1003MOL0     H38368   1.228   4.152   8.741  0.6584 -1.2991  1.5363
 1003MOL0     H38369   1.228   3.985   8.693  0.8065  0.1899  1.5506
 1003MOL0     H38370   1.087   4.140   8.528 -1.1929 -1.0204 -1.1462
 1003MOL0     H38371   1.024   3.984   8.553 -3.2203  0.5410  0.4701
 1003MOL0     H38372   0.938   4.312   8.487  0.5236 -1.5405  2.3306
 1003MOL0     H38373   0.681   4.429   8.247 -0.6114  0.6814 -2.1119
 1003MOL0     H38374   0.790   4.323   8.163 -0.7213  1.9594 -0.0321
 1003MOL0     H38375   0.855   4.434   8.289  1.2817  0.6609 -2.8631
 1003MOL0     H38376   0.320   4.337   8.122  2.6447 -1.0071  0.2431
 1003MOL0     H38377   0.138   4.317   7.980 -1.1069 -1.4574 -0.2078
 1003MOL0     H38378   0.014   4.025   7.701 -0.2864  0.6515 -0.0522
 1003MOL0     H38379   0.121   3.924   7.809  0.2488 -0.8149 -0.9375
 1003MOL0     H38380  -0.114   3.892   7.941  0.5836 -0.7425 -1.1437
 1003MOL0     H38381  -0.179   3.974   7.797 -1.6329  0.3880  0.7310
 1003MOL0     H38382  -0.023   3.741   7.718  0.9516  0.2648  2.5060
 1003MOL0     H38383  -0.167   3.816   7.670 -0.5778  1.5469  1.2380
 1003MOL0     H38384  -0.267   3.729   7.902 -1.3834 -0.8055 -0.8284
 1003MOL0     H38385  -0.130   3.619   7.891 -1.6157 -3.2787  0.2446
 1003MOL0     H38386  -0.340   3.513   7.778  1.1393 -0.9364 -0.5813
 1003MOL0     H38387  -0.357   3.653   7.686  0.8402  0.0664  0.8969
 1003MOL0     H38388  -0.088   3.513   7.686  0.0582  0.0978 -0.3421
 1003MOL0     H38389  -0.184   3.582   7.546  3.1155 -1.0422 -0.0208
 1003MOL0     H38390  -0.333   3.408   7.549  1.2935 -1.2796 -1.0727
 1003MOL0     H38391  -0.256   3.333   7.679  3.1633 -1.1852  0.1655
 1003MOL0     H38392  -0.193   3.244   7.434 -1.4821  1.1527  1.0760
 1003MOL0     H38393  -0.064   3.267   7.557  1.1046 -1.4481 -0.3250
 1003MOL0     H38394   0.121   3.899   8.042  1.1268 -0.5998 -1.9792
 1003MOL0     H38395   0.285   3.916   8.216  0.5150 -0.0478  0.0858
 1003MOL0     H38396   0.552   4.006   8.465 -0.8442  0.5704  1.8981
 1003MOL0     H38397   0.736   3.979   8.620 -1.7144 -0.4728 -0.2464
 1003MOL0     H38398   1.823   4.307   9.947  0.0966  0.0573  0.8196
 1003MOL0     H38399   1.875   4.338  10.185 -1.7756  3.4073 -1.9405
 1003MOL0     H38400   2.189   4.108  10.318  2.4469 -3.9213  0.9551
 1003MOL0     H38401   2.160   3.869  10.355 -0.6916 -0.4347  1.7418
 1003MOL0     H38402   1.786   3.790  10.512  0.5497 -0.0752 -0.3666
 1003MOL0     H38403   1.850   3.633  10.447  2.1325 -0.3707  0.4168
 1003MOL0     H38404   1.821   3.730  10.734 -0.7867  1.2088 -1.9629
 1003MOL0     H38405   1.903   3.579  10.689  2.0889  1.4599 -1.0730
 1003MOL0     H38406   1.607   3.646  10.716  0.1261 -0.0879 -0.9912
 1003MOL0     H38407   1.632   3.535  10.594 -0.8525  2.1787 -1.2229
 1003MOL0     H38408   1.788   3.398  10.761 -0.1457 -0.0152 -0.0718
 1003MOL0     H38409   1.609   3.399  10.776  0.7898 -0.5345 -4.0691
 1003MOL0     H38410   1.727   3.634  11.126  0.1272 -1.0565  1.3533
 1003MOL0     H38411   1.863   3.960  10.647  1.2558  0.2421  0.6077
 1003MOL0     H38412   1.884   4.296  10.685 -0.3356  2.4902 -1.3601
 1003MOL0     H38413   1.780   4.267  10.547  0.3708  1.6020  1.5983
 1003MOL0     H38414   1.786   4.159  10.694 -1.3011  2.4620  3.1058
 1004MOL0     O38415   7.729   4.594   5.113 -1.5908  0.2985 -0.2626
 1004MOL0     C38416   7.709   4.626   4.994  0.3331  0.0477 -0.4207
 1004MOL0     O38417   7.757   4.728   4.929 -0.4072  0.0667 -0.0310
 1004MOL0     C38418   7.817   4.826   5.001 -0.9133  0.8151 -0.1199
 1004MOL0     C38419   7.802   4.866   5.134  1.2669  0.6132  0.2754
 1004MOL0     C38420   7.864   4.977   5.188  0.7447 -0.6741 -1.3022
 1004MOL0     C38421   7.943   5.053   5.105 -0.3751 -0.8566 -0.2120
 1004MOL0     O38422   8.009   5.164   5.143 -0.0708 -0.1057  0.1627
 1004MOL0     C38423   8.098   5.139   5.258  0.5939 -1.0452  0.5472
 1004MOL0     C38424   8.172   5.269   5.283 -0.3214 -0.6228 -0.4189
 1004MOL0     C38425   8.278   5.265   5.395  0.2911 -0.4261 -0.1612
 1004MOL0     C38426   8.377   5.380   5.365 -0.3331 -0.5089 -0.4343
 1004MOL0     C38427   8.487   5.373   5.481  0.0113  0.3979  0.3047
 1004MOL0     C38428   8.543   5.520   5.500  0.2413  1.6182  0.5651
 1004MOL0     C38429   8.461   5.623   5.581 -0.2408  0.1220 -0.1284
 1004MOL0     C38430   8.513   5.759   5.598  0.2165  0.4126 -0.1564
 1004MOL0     N38431   8.661   5.776   5.608  0.4054  0.6059  0.4743
 1004MOL0     C38432   8.731   5.799   5.724 -0.0391  0.6924  0.2961
 1004MOL0     C38433   8.860   5.800   5.687  0.6205  0.0868 -0.2852
 1004MOL0     C38434   8.967   5.858   5.773  0.0775  1.5256  0.6725
 1004MOL0     C38435   9.061   5.749   5.845  0.5652  1.2178 -0.3272
 1004MOL0     C38436   8.988   5.649   5.938 -0.2492  0.5102  0.0514
 1004MOL0     C38437   8.920   5.719   6.052  0.5651  0.4606  0.9200
 1004MOL0     O38438   8.864   5.631   6.151  0.2504  0.2418 -0.5494
 1004MOL0     C38439   8.930   5.625   6.269  0.6166 -0.0849 -0.1705
 1004MOL0     C38440   8.861   5.595   6.387  0.7670 -0.4117  0.0985
 1004MOL0     C38441   8.930   5.561   6.508 -0.7803  0.6239  0.2296
 1004MOL0     C38442   8.852   5.498   6.611  0.0853  0.1593 -0.1238
 1004MOL0     C38443   9.070   5.560   6.509  0.0654 -0.0418 -0.3149
 1004MOL0     C38444   9.153   5.504   6.624 -0.1088 -0.1506  0.1023
 1004MOL0     O38445   9.277   5.447   6.592  0.8665 -0.0959  0.0539
 1004MOL0     C38446   9.362   5.403   6.691 -0.8078  0.4413  0.5792
 1004MOL0     C38447   9.499   5.429   6.692  0.3074  0.4233  0.5797
 1004MOL0     C38448   9.587   5.380   6.788  0.2419 -1.0821  0.7998
 1004MOL0     C38449   9.549   5.325   6.908  0.4420 -0.2332  1.1323
 1004MOL0     O38450   9.620   5.261   7.012  0.8047 -0.1685 -0.4892
 1004MOL0     C38451   9.764   5.262   7.006 -1.2712 -0.2486  0.2062
 1004MOL0     C38452   9.838   5.215   7.125  0.1638 -0.9912 -0.7016
 1004MOL0     C38453   9.794   5.070   7.165  0.1462 -0.5726  0.4324
 1004MOL0     C38454   9.839   4.962   7.071 -0.2988  0.2028  0.4900
 1004MOL0     C38455   9.814   4.833   7.145  0.5575 -0.2939  0.0364
 1004MOL0     C38456   9.826   4.723   7.043 -0.2521 -0.1010 -1.0725
 1004MOL0     C38457   9.783   4.598   7.107 -0.5006 -0.5606  0.7506
 1004MOL0     C38458   9.781   4.487   6.999 -0.5949 -0.2869 -0.0024
 1004MOL0    Cl38459   9.649   4.374   7.039  0.6530  0.2109  0.1301
 1004MOL0     C38460   9.403   5.299   6.907 -1.0004  0.3748 -0.4812
 1004MOL0     C38461   9.317   5.331   6.807  1.4855 -0.7453  0.3809
 1004MOL0     O38462   9.102   5.514   6.737 -0.4207 -0.0459  0.9020
 1004MOL0     C38463   9.133   5.605   6.394  0.6360 -1.4615 -0.4798
 1004MOL0     C38464   9.067   5.627   6.276  0.9901 -0.0430 -0.2979
 1004MOL0     N38465   8.866   5.789   5.544  0.0614  0.7722  0.2605
 1004MOL0     N38466   8.745   5.779   5.497  0.2714  0.1711  1.1678
 1004MOL0     C38467   7.972   5.012   4.974  0.3729 -0.0189 -0.0014
 1004MOL0     C38468   7.904   4.902   4.924  1.4231 -0.1354  0.5925
 1004MOL0     C38469   7.613   4.542   4.908 -0.7518 -0.6817  1.6113
 1004MOL0     C38470   7.640   4.535   4.763  0.2181 -0.4105 -0.7767
 1004MOL0     C38471   7.586   4.438   4.683 -0.0254  0.8268 -0.3096
 1004MOL0     C38472   7.491   4.347   4.740 -0.1202  0.5814  0.1624
 1004MOL0     O38473   7.421   4.254   4.660 -0.3101  0.3892  0.1469
 1004MOL0     C38474   7.411   4.123   4.730 -0.5215 -0.9782 -0.0186
 1004MOL0     C38475   7.330   4.016   4.648 -0.4209 -0.1291 -0.3006
 1004MOL0     C38476   7.409   3.956   4.533 -0.5791  0.0829  0.1627
 1004MOL0     C38477   7.319   3.865   4.450  0.8196 -0.2496  0.4011
 1004MOL0     C38478   7.390   3.771   4.377 -1.9011  0.5942  0.0326
 1004MOL0     C38479   7.459   3.689   4.312 -0.6025 -0.3944 -0.3292
 1004MOL0     C38480   7.455   4.371   4.872  0.7531 -0.5929  0.3944
 1004MOL0     C38481   7.514   4.461   4.956 -0.3193 -0.4961  0.4014
 1004MOL0     C38482   7.464   4.466   5.103 -0.4675  0.9987  0.1374
 1004MOL0     H38483   7.729   4.807   5.188  0.9830 -2.1284 -2.8282
 1004MOL0     H38484   7.853   5.010   5.291 -2.1025 -1.6388 -1.2165
 1004MOL0     H38485   8.171   5.061   5.236  0.9141 -0.5580 -0.1646
 1004MOL0     H38486   8.044   5.124   5.352  2.1778  3.3278  2.4174
 1004MOL0     H38487   8.217   5.304   5.190 -2.2340 -2.9957 -2.3846
 1004MOL0     H38488   8.109   5.357   5.301  2.5880  1.6599 -0.6596
 1004MOL0     H38489   8.231   5.273   5.493  0.1407 -1.0319 -0.1772
 1004MOL0     H38490   8.334   5.171   5.398 -0.4425 -0.8485  1.4895
 1004MOL0     H38491   8.424   5.364   5.268  3.1384 -0.7644  1.1332
 1004MOL0     H38492   8.321   5.474   5.373 -1.6846 -1.4178  1.4447
 1004MOL0     H38493   8.567   5.304   5.457  0.7058  1.8866 -1.9863
 1004MOL0     H38494   8.437   5.337   5.571 -5.1541  0.0694 -2.3121
 1004MOL0     H38495   8.642   5.510   5.546  0.4117  0.8372  0.0548
 1004MOL0     H38496   8.576   5.560   5.404 -1.5263 -1.5746 -1.5443
 1004MOL0     H38497   8.453   5.578   5.681  2.4446  0.4081  0.2950
 1004MOL0     H38498   8.369   5.631   5.522 -2.4141 -1.5499  2.7188
 1004MOL0     H38499   8.474   5.817   5.514 -2.8751 -1.2336 -0.0167
 1004MOL0     H38500   8.459   5.788   5.689 -4.4997 -0.2717 -2.4108
 1004MOL0     H38501   8.709   5.831   5.825 -1.6017  0.8615 -0.0620
 1004MOL0     H38502   8.922   5.931   5.841 -2.0497  1.8724 -1.0028
 1004MOL0     H38503   9.027   5.910   5.698  1.2088  0.4866  0.8374
 1004MOL0     H38504   9.127   5.697   5.775 -1.7823 -0.8193 -1.1427
 1004MOL0     H38505   9.130   5.803   5.911  4.1628  0.1643 -2.9136
 1004MOL0     H38506   8.919   5.586   5.880 -1.2194  1.1192  0.5263
 1004MOL0     H38507   9.060   5.577   5.977 -3.8814 -2.9700  1.0472
 1004MOL0     H38508   8.978   5.802   6.094 -0.2641  1.2813  0.4831
 1004MOL0     H38509   8.832   5.774   6.017 -0.7470 -0.9433  1.9126
 1004MOL0     H38510   8.754   5.583   6.371  0.5744  1.5086 -0.3145
 1004MOL0     H38511   8.833   5.549   6.707 -2.9340 -2.8693  1.1034
 1004MOL0     H38512   8.908   5.412   6.648  1.5396  1.0233 -0.2381
 1004MOL0     H38513   8.758   5.470   6.562  1.1838 -1.0704 -1.6292
 1004MOL0     H38514   9.526   5.486   6.603 -0.2263  1.5188  1.1150
 1004MOL0     H38515   9.692   5.399   6.767 -0.0873 -1.2098 -1.1798
 1004MOL0     H38516   9.793   5.205   6.917  0.1290 -1.0132  1.1105
 1004MOL0     H38517   9.802   5.362   6.984  0.6719 -0.8261  0.7766
 1004MOL0     H38518   9.946   5.224   7.111  0.3289 -1.2692  0.3009
 1004MOL0     H38519   9.809   5.281   7.207  1.0384 -2.3148  0.7330
 1004MOL0     H38520   9.686   5.072   7.178  0.1907 -0.7028  0.8557
 1004MOL0     H38521   9.819   5.037   7.267 -1.3285 -0.1293  0.9547
 1004MOL0     H38522   9.947   4.961   7.055  0.3108 -5.5209  2.5215
 1004MOL0     H38523   9.780   4.970   6.980  0.9325  1.9310 -0.1947
 1004MOL0     H38524   9.887   4.810   7.223  0.0907 -2.2175 -0.0481
 1004MOL0     H38525   9.710   4.835   7.179  0.9598 -0.6584  1.3702
 1004MOL0     H38526   9.932   4.715   7.017  1.6841  4.6138  3.4932
 1004MOL0     H38527   9.760   4.758   6.963 -3.6183  0.9795  1.9076
 1004MOL0     H38528   9.678   4.604   7.140 -0.6913 -0.5327  0.1498
 1004MOL0     H38529   9.840   4.581   7.199 -1.0391 -0.7724  1.0518
 1004MOL0     H38530   9.873   4.428   6.996 -1.2027 -2.0884  5.5838
 1004MOL0     H38531   9.755   4.539   6.906 -3.2604  0.5856  1.1282
 1004MOL0     H38532   9.368   5.259   7.002  0.6291 -2.0638 -0.8312
 1004MOL0     H38533   9.211   5.310   6.817  0.5741  2.6253 -0.5683
 1004MOL0     H38534   9.241   5.595   6.390  0.6046 -2.0508  0.0434
 1004MOL0     H38535   9.119   5.651   6.184  2.7589  1.4559  1.0120
 1004MOL0     H38536   8.032   5.069   4.905  0.2721 -0.5661 -0.5439
 1004MOL0     H38537   7.931   4.868   4.824 -1.0300 -0.6803  0.0442
 1004MOL0     H38538   7.722   4.592   4.718  0.0032  0.9547  0.5038
 1004MOL0     H38539   7.598   4.432   4.575  0.4589  0.6804 -0.2505
 1004MOL0     H38540   7.513   4.085   4.743 -1.9261 -5.1262  0.2467
 1004MOL0     H38541   7.354   4.128   4.823  0.2598 -0.0630  0.4270
 1004MOL0     H38542   7.238   4.060   4.608  1.0471  2.7369 -0.8124
 1004MOL0     H38543   7.307   3.929   4.710  1.7781 -1.8720 -1.7633
 1004MOL0     H38544   7.444   4.037   4.469  2.4726 -0.0402  1.5086
 1004MOL0     H38545   7.496   3.899   4.566 -0.5090  0.2251  0.2226
 1004MOL0     H38546   7.244   3.914   4.387  2.3002 -1.8972 -2.9207
 1004MOL0     H38547   7.260   3.810   4.523 -0.1113  3.2236  2.5087
 1004MOL0     H38548   7.508   3.607   4.265 -0.9880 -1.4362  1.0195
 1004MOL0     H38549   7.374   4.322   4.925 -0.3227 -1.6800 -2.1026
 1004MOL0     H38550   7.421   4.565   5.116 -1.8561  0.0682  3.8236
 1004MOL0     H38551   7.391   4.389   5.127  0.7603  0.4889  2.4884
 1004MOL0     H38552   7.551   4.457   5.169  1.7085  0.9733 -2.5598
 1005MOL0     O38553   4.306   3.794   5.693 -0.4669  0.3838 -0.0124
 1005MOL0     C38554   4.308   3.751   5.577  0.3177  0.9494  0.1690
 1005MOL0     O38555   4.391   3.793   5.482 -0.8615  0.0620  0.7204
 1005MOL0     C38556   4.456   3.912   5.486 -0.5219  0.7257  0.2417
 1005MOL0     C38557   4.595   3.914   5.508  0.7791 -0.3701  0.1992
 1005MOL0     C38558   4.656   4.033   5.521 -0.6516 -0.4040  0.6299
 1005MOL0     C38559   4.595   4.156   5.521  0.1306 -1.0836 -0.2720
 1005MOL0     O38560   4.676   4.269   5.510  0.1321  0.3535  0.5839
 1005MOL0     C38561   4.625   4.386   5.579  0.4000  0.1789  0.4378
 1005MOL0     C38562   4.718   4.507   5.603 -0.7117 -0.2044  0.6145
 1005MOL0     C38563   4.826   4.480   5.697  0.1025  0.1658 -0.0028
 1005MOL0     C38564   4.962   4.532   5.678  0.3323 -0.0672 -0.5296
 1005MOL0     C38565   5.070   4.483   5.769  0.5791  0.1990  0.1785
 1005MOL0     C38566   5.061   4.547   5.917 -0.7795 -0.9683 -0.2665
 1005MOL0     C38567   5.156   4.489   6.022  0.2026  0.6405  0.9466
 1005MOL0     C38568   5.123   4.549   6.161 -0.4940 -0.0275 -0.1862
 1005MOL0     N38569   5.046   4.456   6.240  1.0727  0.1509 -0.0911
 1005MOL0     C38570   4.915   4.421   6.218  0.2883  0.0670  0.8404
 1005MOL0     C38571   4.891   4.304   6.278 -0.1949  0.4842 -0.9997
 1005MOL0     C38572   4.754   4.238   6.295  0.8564  0.0156 -0.6391
 1005MOL0     C38573   4.718   4.174   6.430  0.0675 -0.3536 -0.5180
 1005MOL0     C38574   4.742   4.269   6.554 -0.2083  0.3427  0.2594
 1005MOL0     C38575   4.675   4.211   6.675 -0.0557 -1.3038  0.1392
 1005MOL0     O38576   4.707   4.075   6.702 -0.6575  0.2187  0.3890
 1005MOL0     C38577   4.614   3.996   6.752  0.0747  0.4965  0.1726
 1005MOL0     C38578   4.553   4.025   6.865  1.6567 -0.7692 -0.7160
 1005MOL0     C38579   4.464   3.936   6.925  0.0439  0.6015 -1.0248
 1005MOL0     C38580   4.397   3.987   7.055  0.6118 -0.4218 -0.4005
 1005MOL0     C38581   4.441   3.810   6.868 -0.7267 -1.3105 -0.1610
 1005MOL0     C38582   4.344   3.717   6.934  0.1356 -0.2790  0.4046
 1005MOL0     O38583   4.366   3.585   6.924  0.2894 -0.2061 -0.3443
 1005MOL0     C38584   4.258   3.518   6.979 -0.0922 -0.5839 -0.3059
 1005MOL0     C38585   4.287   3.428   7.083 -0.6010 -0.6389  0.7392
 1005MOL0     C38586   4.193   3.353   7.142 -0.2995 -0.3073 -0.6433
 1005MOL0     C38587   4.064   3.357   7.083 -0.4566  0.5089 -0.6428
 1005MOL0     O38588   3.974   3.281   7.141  0.2248  1.0807 -0.3880
 1005MOL0     C38589   3.894   3.347   7.244 -0.1690 -0.0517  0.6844
 1005MOL0     C38590   3.823   3.252   7.335  1.0894  0.3606 -0.2514
 1005MOL0     C38591   3.916   3.174   7.432  0.5508 -0.4916  0.2538
 1005MOL0     C38592   3.855   3.164   7.576  0.5842  0.4835  0.1632
 1005MOL0     C38593   3.938   3.079   7.666  0.0113  0.3162  1.0538
 1005MOL0     C38594   3.917   3.110   7.815 -0.5406  0.7116  0.0725
 1005MOL0     C38595   3.966   3.004   7.910 -0.1826 -0.1442 -0.4325
 1005MOL0     C38596   4.119   2.997   7.926 -0.5188  0.6912  0.3885
 1005MOL0    Cl38597   4.197   3.124   8.022  0.5840 -0.4385  0.4973
 1005MOL0     C38598   4.028   3.427   6.980  0.1695 -0.8808  0.2104
 1005MOL0     C38599   4.127   3.506   6.921 -1.7095 -0.5146  0.1333
 1005MOL0     O38600   4.232   3.767   6.964 -0.5564  0.3135  0.4200
 1005MOL0     C38601   4.518   3.773   6.753 -0.6273 -0.4424  0.1164
 1005MOL0     C38602   4.601   3.868   6.690  0.2592 -0.3296 -0.1785
 1005MOL0     N38603   5.004   4.285   6.349 -0.5838  1.0449  0.1473
 1005MOL0     N38604   5.094   4.371   6.333 -0.4496 -0.7396  1.6599
 1005MOL0     C38605   4.453   4.150   5.503 -0.3499 -0.0379 -0.4725
 1005MOL0     C38606   4.390   4.029   5.471  1.4273 -0.2651  0.1975
 1005MOL0     C38607   4.227   3.624   5.547  0.7429  0.2409 -0.2610
 1005MOL0     C38608   4.212   3.574   5.412  0.3567  0.0652 -0.3068
 1005MOL0     C38609   4.138   3.453   5.389 -0.1731 -0.4557 -0.4847
 1005MOL0     C38610   4.050   3.402   5.482  0.8786  0.6835  0.0713
 1005MOL0     O38611   3.961   3.298   5.449  0.3005 -0.2646  0.9637
 1005MOL0     C38612   3.900   3.300   5.313 -0.3855  0.1374  0.8411
 1005MOL0     C38613   3.746   3.287   5.326  0.3240 -0.6951  0.2868
 1005MOL0     C38614   3.680   3.384   5.427 -0.4536  0.4661  0.4702
 1005MOL0     C38615   3.666   3.325   5.561  0.9470 -0.4344 -0.6340
 1005MOL0     C38616   3.540   3.378   5.630 -0.5463 -0.9201 -0.3854
 1005MOL0     C38617   3.444   3.413   5.698 -0.1144 -0.4332  0.0082
 1005MOL0     C38618   4.064   3.449   5.610 -0.9655  0.0799 -0.1789
 1005MOL0     C38619   4.149   3.555   5.648  0.0262  0.0218  0.2309
 1005MOL0     C38620   4.138   3.587   5.796 -0.1303 -0.4113 -0.2426
 1005MOL0     H38621   4.661   3.827   5.504  5.6065  2.8897 -3.6918
 1005MOL0     H38622   4.763   4.040   5.541 -0.6256 -1.3759  0.8931
 1005MOL0     H38623   4.591   4.346   5.675 -1.1071 -1.5160 -0.7393
 1005MOL0     H38624   4.538   4.432   5.531  0.5559  2.2574  2.0148
 1005MOL0     H38625   4.763   4.545   5.511  0.0833  1.7574  1.7626
 1005MOL0     H38626   4.653   4.586   5.639 -0.7272  0.8963 -1.6376
 1005MOL0     H38627   4.788   4.516   5.794  0.2505 -1.6041  0.7479
 1005MOL0     H38628   4.836   4.371   5.703  0.5606 -0.3632 -5.5780
 1005MOL0     H38629   4.999   4.494   5.583  3.6635  3.0256 -0.7105
 1005MOL0     H38630   4.962   4.642   5.684  5.6534  0.1362  0.4031
 1005MOL0     H38631   5.170   4.494   5.725  1.1621 -0.2445  1.3387
 1005MOL0     H38632   5.075   4.376   5.791  1.6717 -0.2163 -1.8118
 1005MOL0     H38633   5.070   4.654   5.897 -0.4702 -1.3048 -2.0412
 1005MOL0     H38634   4.964   4.522   5.960 -0.5395 -1.9032 -0.2462
 1005MOL0     H38635   5.253   4.530   5.993  0.6090  0.0814  1.5058
 1005MOL0     H38636   5.161   4.380   6.021 -1.6700  0.4849  2.2053
 1005MOL0     H38637   5.219   4.570   6.209  0.5206 -2.0251 -1.2025
 1005MOL0     H38638   5.073   4.645   6.150 -0.6440 -0.1280 -0.3722
 1005MOL0     H38639   4.849   4.462   6.143  3.1792 -0.3249 -2.1537
 1005MOL0     H38640   4.745   4.147   6.234 -1.5223 -1.4270  1.6687
 1005MOL0     H38641   4.685   4.309   6.249 -0.0638 -0.6954 -0.3978
 1005MOL0     H38642   4.616   4.135   6.437 -0.4845  1.1282 -0.0867
 1005MOL0     H38643   4.793   4.098   6.456  1.7848  1.6329  0.6214
 1005MOL0     H38644   4.847   4.284   6.580 -0.3397  2.0496 -0.0548
 1005MOL0     H38645   4.704   4.371   6.538 -0.2654  0.1865 -0.7038
 1005MOL0     H38646   4.708   4.274   6.759 -1.1242  0.1093 -0.4610
 1005MOL0     H38647   4.566   4.217   6.675 -0.1074 -1.1231  2.4125
 1005MOL0     H38648   4.576   4.126   6.898  1.6684 -0.8589 -0.4443
 1005MOL0     H38649   4.289   3.977   7.060  0.5269  0.9335  2.8903
 1005MOL0     H38650   4.421   4.090   7.082  0.6795 -0.8998  1.5392
 1005MOL0     H38651   4.435   3.931   7.141 -0.0234  0.6401  0.6024
 1005MOL0     H38652   4.383   3.418   7.133 -0.0071 -1.8408 -0.5628
 1005MOL0     H38653   4.206   3.301   7.237 -0.7057  1.9018  0.6804
 1005MOL0     H38654   3.954   3.414   7.305  2.1156 -2.3997  1.1957
 1005MOL0     H38655   3.818   3.405   7.192  0.4001 -1.5696 -2.0064
 1005MOL0     H38656   3.752   3.321   7.382  1.1364 -0.0491  0.4295
 1005MOL0     H38657   3.768   3.184   7.271  0.6070  1.4870 -1.0590
 1005MOL0     H38658   4.019   3.210   7.443  2.1228 -4.4847  0.3809
 1005MOL0     H38659   3.937   3.071   7.404  0.3056 -1.0238  1.9088
 1005MOL0     H38660   3.748   3.142   7.569  0.1276  2.2200  1.0044
 1005MOL0     H38661   3.852   3.263   7.623  0.6857  1.1630 -1.1908
 1005MOL0     H38662   3.910   2.975   7.653 -0.8072  0.5899  0.5904
 1005MOL0     H38663   4.040   3.111   7.641 -0.8372  1.6362 -0.9505
 1005MOL0     H38664   3.808   3.113   7.826 -0.8333 -2.0028 -1.2754
 1005MOL0     H38665   3.958   3.205   7.850 -0.1873  1.5031 -2.3059
 1005MOL0     H38666   3.930   2.909   7.869  2.9864 -2.2273  1.2086
 1005MOL0     H38667   3.916   3.019   8.007 -1.7699  1.2652 -1.4185
 1005MOL0     H38668   4.167   2.989   7.828 -3.5804 -0.4462 -1.1436
 1005MOL0     H38669   4.141   2.902   7.976 -0.0854  0.6503  0.1234
 1005MOL0     H38670   3.926   3.434   6.942  0.8217  0.5404 -1.3974
 1005MOL0     H38671   4.094   3.561   6.834  0.6975  0.3701 -0.2963
 1005MOL0     H38672   4.514   3.667   6.728 -0.6574 -1.4537  3.8363
 1005MOL0     H38673   4.666   3.854   6.604  0.7619  3.6839 -0.6576
 1005MOL0     H38674   4.398   4.243   5.507  2.4125  1.6962  0.7231
 1005MOL0     H38675   4.285   4.039   5.445  1.5791 -0.6403 -0.5865
 1005MOL0     H38676   4.265   3.630   5.335 -0.8861 -0.1957 -1.3666
 1005MOL0     H38677   4.136   3.420   5.286  2.0882  3.0470 -1.8341
 1005MOL0     H38678   3.906   3.396   5.261  2.1305 -0.9997 -1.1391
 1005MOL0     H38679   3.941   3.216   5.257 -3.7934 -3.0029  2.6022
 1005MOL0     H38680   3.716   3.184   5.347 -1.1785 -0.2919  0.2237
 1005MOL0     H38681   3.705   3.294   5.225 -2.0193 -2.1933  1.0645
 1005MOL0     H38682   3.746   3.471   5.431 -0.9864  0.9350 -0.4583
 1005MOL0     H38683   3.584   3.414   5.384  0.0773 -0.9384 -1.8723
 1005MOL0     H38684   3.743   3.362   5.629 -2.5264 -0.9292  4.1061
 1005MOL0     H38685   3.664   3.216   5.569  2.4175 -0.3962  0.6761
 1005MOL0     H38686   3.361   3.457   5.750 -0.0507  1.4602 -1.3821
 1005MOL0     H38687   3.984   3.411   5.673 -0.9802 -0.0240 -0.2598
 1005MOL0     H38688   4.134   3.493   5.851 -0.5005  0.4219  1.2350
 1005MOL0     H38689   4.222   3.646   5.835  0.2657  0.8901 -2.8480
 1005MOL0     H38690   4.055   3.651   5.828 -0.8431 -2.5606  2.5916
 1006MOL0     O38691   1.187   3.023   0.330  0.5172  0.5451 -0.9893
 1006MOL0     C38692   1.216   2.927   0.405  0.1446 -0.0940  1.0428
 1006MOL0     O38693   1.304   2.945   0.505 -0.4653 -0.6901 -0.0839
 1006MOL0     C38694   1.348   3.066   0.540 -0.1167 -0.8155 -1.2827
 1006MOL0     C38695   1.330   3.111   0.671 -0.2104 -0.0891 -0.1653
 1006MOL0     C38696   1.384   3.240   0.722 -0.3037  0.2414 -0.6582
 1006MOL0     C38697   1.452   3.324   0.630 -0.2702 -0.8728 -0.4691
 1006MOL0     O38698   1.509   3.439   0.685 -0.7692 -0.4193  0.5494
 1006MOL0     C38699   1.524   3.551   0.602  0.8568 -0.2022 -0.1832
 1006MOL0     C38700   1.511   3.676   0.695  0.0484  1.1190 -0.3756
 1006MOL0     C38701   1.608   3.681   0.813 -0.4575  0.1224 -0.3775
 1006MOL0     C38702   1.542   3.670   0.950 -0.6620  0.2714  0.7765
 1006MOL0     C38703   1.635   3.700   1.065 -0.7085  0.1933  0.4797
 1006MOL0     C38704   1.560   3.689   1.202  0.0801 -0.4633  1.0005
 1006MOL0     C38705   1.658   3.713   1.313 -0.5647  0.5720 -1.0877
 1006MOL0     C38706   1.730   3.841   1.320 -0.6067 -0.5783  0.4588
 1006MOL0     N38707   1.807   3.872   1.438 -0.3375 -0.3020 -0.2666
 1006MOL0     C38708   1.756   3.904   1.563 -0.2810 -0.2682  0.4999
 1006MOL0     C38709   1.866   3.934   1.636  1.0967 -0.5316  0.6800
 1006MOL0     C38710   1.858   3.952   1.789  0.3873 -0.5778  0.7423
 1006MOL0     C38711   1.831   4.094   1.835  0.7773  0.8249  0.6275
 1006MOL0     C38712   1.933   4.186   1.776 -0.1270 -0.5239  0.4851
 1006MOL0     C38713   1.940   4.321   1.834  0.1323  0.7467  0.5894
 1006MOL0     O38714   1.966   4.316   1.976 -0.2945  0.3200 -0.5391
 1006MOL0     C38715   1.988   4.427   2.049  0.0791 -0.9436 -0.3118
 1006MOL0     C38716   1.940   4.554   2.027 -0.1676 -0.3693  0.4799
 1006MOL0     C38717   1.966   4.676   2.091  0.3383  0.7171  0.1602
 1006MOL0     C38718   1.909   4.808   2.040 -0.0171 -0.0462 -1.3817
 1006MOL0     C38719   2.040   4.658   2.212 -1.2370  0.9078 -0.3972
 1006MOL0     C38720   2.087   4.770   2.304 -0.0763  0.3982 -0.0074
 1006MOL0     O38721   2.050   4.904   2.272  0.2972 -0.4891  0.3082
 1006MOL0     C38722   2.061   5.010   2.356  0.0835 -0.5995  1.0888
 1006MOL0     C38723   2.095   5.142   2.306  0.6471  0.7787  0.1108
 1006MOL0     C38724   2.095   5.245   2.401 -0.4126 -0.0466  0.4055
 1006MOL0     C38725   2.075   5.228   2.537 -0.0933 -0.2439 -0.0527
 1006MOL0     O38726   2.095   5.329   2.630  0.4537  0.1818  0.0164
 1006MOL0     C38727   2.111   5.469   2.583 -0.5406 -0.0617 -0.2556
 1006MOL0     C38728   2.126   5.580   2.689 -0.5265 -0.8482 -0.5017
 1006MOL0     C38729   2.250   5.543   2.779 -0.1896  0.0854  0.5262
 1006MOL0     C38730   2.306   5.658   2.849 -0.1133  0.0820  0.6079
 1006MOL0     C38731   2.403   5.617   2.962 -0.2200  0.3054  0.6558
 1006MOL0     C38732   2.455   5.734   3.061  0.4806 -0.6326 -0.2345
 1006MOL0     C38733   2.348   5.801   3.152  0.3717  0.3350  0.5877
 1006MOL0     C38734   2.401   5.939   3.214 -0.5770  0.3348  0.6693
 1006MOL0    Cl38735   2.320   5.991   3.366  0.0767 -0.2962 -0.1169
 1006MOL0     C38736   2.048   5.105   2.581 -0.0479  0.3774 -0.8068
 1006MOL0     C38737   2.031   4.998   2.494  0.0128 -0.2950  1.1561
 1006MOL0     O38738   2.136   4.740   2.418  0.5453  0.4115  0.0746
 1006MOL0     C38739   2.071   4.527   2.253  0.2015  0.3708  0.0410
 1006MOL0     C38740   2.050   4.418   2.175  1.0016  0.7154  0.9977
 1006MOL0     N38741   1.979   3.932   1.558  0.2293  0.5439  0.0287
 1006MOL0     N38742   1.948   3.891   1.453 -0.0842  0.2113 -0.5929
 1006MOL0     C38743   1.481   3.274   0.504  1.0590  0.9358  0.1152
 1006MOL0     C38744   1.421   3.152   0.455 -1.4342  0.0203 -0.0719
 1006MOL0     C38745   1.162   2.788   0.378  0.1788  0.4526 -0.3887
 1006MOL0     C38746   1.221   2.692   0.458 -0.3667 -0.1740 -0.4787
 1006MOL0     C38747   1.190   2.558   0.440 -0.4579  0.5667  0.1855
 1006MOL0     C38748   1.083   2.518   0.353  0.9320  0.2866 -0.1560
 1006MOL0     O38749   1.052   2.391   0.332  0.6560 -0.6891 -0.7970
 1006MOL0     C38750   0.942   2.351   0.426 -0.0384  0.9906 -0.4613
 1006MOL0     C38751   0.945   2.205   0.459  0.1390 -0.3594 -0.0635
 1006MOL0     C38752   0.839   2.145   0.548 -0.0492 -0.2825  0.1141
 1006MOL0     C38753   0.855   1.992   0.553  0.6292  0.0766 -0.4698
 1006MOL0     C38754   0.988   1.939   0.605 -0.3971  0.6971 -0.2534
 1006MOL0     C38755   1.084   1.861   0.627 -0.2896  0.3927 -0.7150
 1006MOL0     C38756   1.003   2.614   0.291 -0.3475 -0.0576 -0.1727
 1006MOL0     C38757   1.045   2.755   0.296  0.1776  0.1748  0.0828
 1006MOL0     C38758   0.962   2.861   0.227 -0.6155 -1.0498 -0.8167
 1006MOL0     H38759   1.289   3.043   0.745  1.1171  0.1592  0.8328
 1006MOL0     H38760   1.383   3.256   0.829  2.2695  0.9029 -0.6771
 1006MOL0     H38761   1.448   3.565   0.525 -0.0409 -2.5578  0.1753
 1006MOL0     H38762   1.618   3.554   0.545  0.9043  1.0664 -0.0714
 1006MOL0     H38763   1.523   3.767   0.636  2.6775  3.0826  2.8399
 1006MOL0     H38764   1.410   3.664   0.737  0.9034  0.4962  1.6488
 1006MOL0     H38765   1.677   3.597   0.800 -0.9949 -0.3101 -0.4222
 1006MOL0     H38766   1.675   3.768   0.803 -1.3371  1.1750  2.1492
 1006MOL0     H38767   1.457   3.739   0.957 -0.4141  0.4377  2.3901
 1006MOL0     H38768   1.501   3.570   0.968 -0.4603 -0.1335 -0.8395
 1006MOL0     H38769   1.664   3.805   1.052  3.5183 -1.0241 -1.6788
 1006MOL0     H38770   1.728   3.641   1.062 -0.9586 -0.1569 -1.7961
 1006MOL0     H38771   1.479   3.763   1.205 -0.7241 -1.2912  0.2109
 1006MOL0     H38772   1.518   3.588   1.198 -0.9972 -0.0061 -1.9390
 1006MOL0     H38773   1.728   3.630   1.322 -0.7853  0.4282 -0.6951
 1006MOL0     H38774   1.599   3.707   1.405  3.1782 -1.0775  1.4471
 1006MOL0     H38775   1.797   3.838   1.234 -1.3738 -0.9854 -0.1407
 1006MOL0     H38776   1.657   3.920   1.301 -0.2804 -0.6017 -0.9763
 1006MOL0     H38777   1.651   3.897   1.587 -0.4969  1.6170  0.2849
 1006MOL0     H38778   1.938   3.906   1.847  0.2714  0.1669  1.5172
 1006MOL0     H38779   1.763   3.903   1.813  0.1745 -0.0565  0.9967
 1006MOL0     H38780   1.726   4.114   1.810  1.7096  0.5848 -4.8326
 1006MOL0     H38781   1.849   4.087   1.942 -0.4817  0.0186  0.8007
 1006MOL0     H38782   2.031   4.137   1.783 -0.4148 -1.1071  0.4741
 1006MOL0     H38783   1.906   4.186   1.670  2.7928  0.9176 -0.3727
 1006MOL0     H38784   2.020   4.376   1.784 -0.4579  0.1900 -1.0260
 1006MOL0     H38785   1.842   4.368   1.819  0.2961  1.7454  2.3618
 1006MOL0     H38786   1.885   4.576   1.936  0.0532  0.9618  0.6439
 1006MOL0     H38787   1.866   4.868   2.121  0.1670 -2.5049  0.6721
 1006MOL0     H38788   1.854   4.791   1.947  0.5157  2.5736 -2.2840
 1006MOL0     H38789   1.997   4.859   1.999  1.2276 -0.7492  0.2848
 1006MOL0     H38790   2.129   5.144   2.203  5.8773 -1.6595  1.4480
 1006MOL0     H38791   2.125   5.341   2.359  2.1614 -1.1595 -0.5396
 1006MOL0     H38792   2.194   5.472   2.511 -1.1272 -2.7950 -1.1524
 1006MOL0     H38793   2.024   5.496   2.523 -1.3306  1.5130  1.5202
 1006MOL0     H38794   2.146   5.667   2.626 -1.0599 -0.6940 -0.4558
 1006MOL0     H38795   2.035   5.575   2.750  1.1239  2.1536  2.5200
 1006MOL0     H38796   2.322   5.514   2.702  0.3916  1.8228  0.3726
 1006MOL0     H38797   2.232   5.458   2.846 -1.1153  0.6630  1.0176
 1006MOL0     H38798   2.226   5.717   2.896  0.3471  1.8018 -0.6828
 1006MOL0     H38799   2.354   5.728   2.781 -1.2225  0.0148 -0.2817
 1006MOL0     H38800   2.372   5.532   3.022  0.8320  0.1959  1.0544
 1006MOL0     H38801   2.490   5.576   2.910  1.4306  1.1699  2.6178
 1006MOL0     H38802   2.515   5.801   3.000  2.1824 -2.0306 -0.1607
 1006MOL0     H38803   2.528   5.683   3.125  0.3349 -1.1881 -0.5003
 1006MOL0     H38804   2.308   5.738   3.232 -2.2586  0.5630 -0.4529
 1006MOL0     H38805   2.266   5.849   3.099 -0.2975  1.9652  2.9512
 1006MOL0     H38806   2.388   6.021   3.143  0.1462 -1.5089 -1.7225
 1006MOL0     H38807   2.509   5.932   3.226 -0.0540 -0.1773 -3.0738
 1006MOL0     H38808   2.048   5.085   2.687  2.4831  3.4441 -0.0584
 1006MOL0     H38809   2.007   4.898   2.529 -2.4285 -0.8844 -1.8278
 1006MOL0     H38810   2.129   4.517   2.344  2.2108  5.4567 -0.3665
 1006MOL0     H38811   2.106   4.329   2.203  0.4884  0.5729  1.5976
 1006MOL0     H38812   1.537   3.331   0.430 -1.2334  1.2650 -1.4537
 1006MOL0     H38813   1.434   3.132   0.350 -1.5015  0.2198 -0.1182
 1006MOL0     H38814   1.307   2.720   0.518  0.7430 -1.6755 -1.2641
 1006MOL0     H38815   1.255   2.481   0.479  0.1402  1.0830  0.2284
 1006MOL0     H38816   0.950   2.407   0.520  1.0358 -0.2268  0.2062
 1006MOL0     H38817   0.843   2.369   0.382 -0.6537  0.9178  0.8153
 1006MOL0     H38818   1.043   2.179   0.500  0.7297  1.3765 -0.3115
 1006MOL0     H38819   0.943   2.163   0.357  1.0249  1.1342 -0.7156
 1006MOL0     H38820   0.856   2.186   0.648 -1.9298 -0.5241  0.5656
 1006MOL0     H38821   0.738   2.178   0.521  0.0311 -0.0355  0.1107
 1006MOL0     H38822   0.830   1.943   0.458 -1.5158  1.7420 -0.8665
 1006MOL0     H38823   0.789   1.963   0.634 -0.2604  2.6722 -0.1518
 1006MOL0     H38824   1.170   1.814   0.671  0.2235  0.6196 -1.4427
 1006MOL0     H38825   0.912   2.588   0.239 -0.8419  0.1442  0.5725
 1006MOL0     H38826   1.010   2.890   0.133 -0.3101  0.2129 -0.2883
 1006MOL0     H38827   0.864   2.820   0.201 -0.7605 -2.1520  1.2545
 1006MOL0     H38828   0.968   2.948   0.293 -0.0366 -2.2274  0.7518
 1007MOL0     O38829   1.310  10.593   5.136  0.3099  0.6320  0.2915
 1007MOL0     C38830   1.273  10.587   5.016 -0.2864 -0.2963  0.3708
 1007MOL0     O38831   1.329  10.660   4.916 -0.0036  0.8618 -0.4310
 1007MOL0     C38832   1.401  10.773   4.943 -0.0804  0.1823 -0.4594
 1007MOL0     C38833   1.519  10.804   4.874  0.0651 -0.2174  0.3383
 1007MOL0     C38834   1.574  10.929   4.865  0.5478 -0.4449 -0.4982
 1007MOL0     C38835   1.513  11.028   4.948  0.0856 -1.0866  0.7035
 1007MOL0     O38836   1.568  11.151   4.921  0.9453 -0.0810 -0.3885
 1007MOL0     C38837   1.543  11.269   5.015 -0.4370 -0.5408  0.3594
 1007MOL0     C38838   1.622  11.230   5.142 -0.0974  0.0981 -0.2061
 1007MOL0     C38839   1.586  11.334   5.252  0.5279  1.1082 -0.5620
 1007MOL0     C38840   1.685  11.321   5.375 -0.3533  0.6808 -0.5248
 1007MOL0     C38841   1.651  11.424   5.481 -0.4399 -0.6350  0.5189
 1007MOL0     C38842   1.756  11.415   5.590 -0.2964 -0.9056 -0.2892
 1007MOL0     C38843   1.738  11.505   5.712 -0.3968 -0.4630 -0.7088
 1007MOL0     C38844   1.630  11.434   5.797 -0.1252  0.7512  0.1017
 1007MOL0     N38845   1.591  11.518   5.921 -0.8368  0.4671 -0.5312
 1007MOL0     C38846   1.671  11.529   6.038 -0.4400  0.2469  0.5837
 1007MOL0     C38847   1.584  11.575   6.127  0.1817 -0.4318 -0.2122
 1007MOL0     C38848   1.607  11.568   6.276 -0.4858  0.1544  0.7546
 1007MOL0     C38849   1.469  11.545   6.352 -0.0141  0.2411  0.3594
 1007MOL0     C38850   1.488  11.540   6.502 -0.5113  0.6717  0.1430
 1007MOL0     C38851   1.559  11.656   6.561 -1.2877  0.7463  0.7652
 1007MOL0     O38852   1.465  11.762   6.571  0.2056 -0.7017 -0.0883
 1007MOL0     C38853   1.475  11.818   6.692  0.7322 -0.3995 -1.5896
 1007MOL0     C38854   1.575  11.906   6.730  1.2790 -0.0869  0.8269
 1007MOL0     C38855   1.582  11.962   6.856  0.5456  0.6170 -0.6571
 1007MOL0     C38856   1.685  12.069   6.876  0.7341  0.5785 -1.1341
 1007MOL0     C38857   1.486  11.920   6.956  0.5444  0.0292  0.6271
 1007MOL0     C38858   1.477  11.979   7.091  0.2172 -1.4926  0.1888
 1007MOL0     O38859   1.368  11.941   7.175 -0.2373  0.4777  0.1275
 1007MOL0     C38860   1.321  12.021   7.279  0.1619 -0.2112 -0.0389
 1007MOL0     C38861   1.326  11.983   7.413 -0.1339  0.1722 -0.2911
 1007MOL0     C38862   1.262  12.057   7.509  0.2014  0.4461  0.5670
 1007MOL0     C38863   1.192  12.170   7.476  0.5332 -0.6297 -0.4839
 1007MOL0     O38864   1.144  12.245   7.588  0.0020  0.2286  0.4206
 1007MOL0     C38865   1.069  12.355   7.567  0.3963 -0.4128 -0.1923
 1007MOL0     C38866   1.043  12.414   7.702  0.3878 -0.5637 -0.0408
 1007MOL0     C38867   0.944  12.326   7.795 -0.2270  0.8216  0.5861
 1007MOL0     C38868   0.868  12.409   7.896 -0.6026  0.0560 -0.9848
 1007MOL0     C38869   0.768  12.316   7.975 -0.9187  0.1794  0.1305
 1007MOL0     C38870   0.689  12.368   8.100  0.0091 -1.3826 -0.5595
 1007MOL0     C38871   0.604  12.498   8.060 -0.1892  0.3056 -0.1632
 1007MOL0     C38872   0.527  12.536   8.192  0.6236 -1.2623  0.6153
 1007MOL0    Cl38873   0.653  12.604   8.311  0.0082  0.2862  0.2493
 1007MOL0     C38874   1.193  12.221   7.345 -0.5003  0.1816  0.2790
 1007MOL0     C38875   1.261  12.143   7.256 -0.2893  0.2655  0.5547
 1007MOL0     O38876   1.556  12.073   7.120 -0.0664 -0.2450  0.4608
 1007MOL0     C38877   1.376  11.847   6.910 -0.8834 -0.6578  0.0226
 1007MOL0     C38878   1.383  11.784   6.783  0.4366 -0.0445  0.2911
 1007MOL0     N38879   1.461  11.598   6.058 -0.1174 -0.7994 -0.4085
 1007MOL0     N38880   1.465  11.566   5.938  0.9103 -0.6113  0.0900
 1007MOL0     C38881   1.417  10.993   5.039 -0.1787  0.1498 -0.6706
 1007MOL0     C38882   1.349  10.869   5.033  0.3128 -0.1987 -0.5698
 1007MOL0     C38883   1.190  10.473   4.990  1.6219  0.7225  0.9342
 1007MOL0     C38884   1.251  10.346   4.956  0.2624 -0.0120  0.3555
 1007MOL0     C38885   1.170  10.230   4.933 -0.8380  0.1154 -0.5650
 1007MOL0     C38886   1.033  10.250   4.936 -0.2660  0.6803 -1.1223
 1007MOL0     O38887   0.938  10.160   4.887 -0.5224 -0.0841 -0.1865
 1007MOL0     C38888   0.971  10.022   4.867  1.1398  0.2050  0.1945
 1007MOL0     C38889   0.859   9.955   4.782 -0.2409 -0.0036  0.2525
 1007MOL0     C38890   0.712  10.004   4.813 -0.9669  0.2438  0.3140
 1007MOL0     C38891   0.684   9.964   4.952  0.1133 -0.4475  0.0095
 1007MOL0     C38892   0.663  10.087   5.028 -0.4399 -0.1358 -0.2569
 1007MOL0     C38893   0.664  10.186   5.095  0.1867  1.2408  0.0949
 1007MOL0     C38894   0.980  10.365   4.974 -0.3907 -0.2506 -0.3812
 1007MOL0     C38895   1.049  10.480   5.006  0.5539 -0.5696 -1.2598
 1007MOL0     C38896   0.981  10.608   5.052  0.4222 -0.4032  1.2302
 1007MOL0     H38897   1.559  10.726   4.811 -0.8075 -0.1232 -0.3564
 1007MOL0     H38898   1.670  10.937   4.815 -0.2413 -2.2008 -2.3989
 1007MOL0     H38899   1.444  11.311   5.034 -0.1002  1.1492 -1.3514
 1007MOL0     H38900   1.594  11.356   4.973 -1.2150  0.6610  1.7924
 1007MOL0     H38901   1.597  11.131   5.180 -3.0066  0.1800 -1.5901
 1007MOL0     H38902   1.726  11.223   5.109  0.0222  0.9117 -0.0216
 1007MOL0     H38903   1.580  11.434   5.207  0.8967  0.5324 -1.9348
 1007MOL0     H38904   1.485  11.307   5.286  1.7369 -2.6366  0.4775
 1007MOL0     H38905   1.694  11.220   5.416 -3.2566  0.5824  0.0980
 1007MOL0     H38906   1.785  11.343   5.335 -0.8400  3.0333 -0.6315
 1007MOL0     H38907   1.552  11.403   5.522 -1.4510  1.0818 -0.8972
 1007MOL0     H38908   1.655  11.527   5.443  0.3490  0.0663  2.3937
 1007MOL0     H38909   1.776  11.315   5.630 -2.2511  0.1528  3.8215
 1007MOL0     H38910   1.848  11.443   5.538  0.1627 -2.9058 -0.6183
 1007MOL0     H38911   1.714  11.609   5.688 -2.4635 -0.4522  1.0914
 1007MOL0     H38912   1.830  11.494   5.769  0.0039 -0.9637 -1.4371
 1007MOL0     H38913   1.539  11.408   5.744  0.2694 -0.2992 -0.0816
 1007MOL0     H38914   1.669  11.343   5.845 -0.4164 -0.5043 -1.9383
 1007MOL0     H38915   1.770  11.495   6.065 -0.1873  0.9445  0.5687
 1007MOL0     H38916   1.657  11.662   6.301  2.6677 -0.8539 -1.1585
 1007MOL0     H38917   1.673  11.482   6.288  0.5507  0.5041 -1.7875
 1007MOL0     H38918   1.393  11.617   6.319 -2.0386 -1.3863  1.2728
 1007MOL0     H38919   1.430  11.447   6.322  1.4972 -0.1581 -0.3714
 1007MOL0     H38920   1.387  11.526   6.541 -0.3338 -2.6085 -0.3183
 1007MOL0     H38921   1.544  11.452   6.534  0.2771  1.4612  0.9994
 1007MOL0     H38922   1.610  11.628   6.653 -3.0270 -2.5268  0.8933
 1007MOL0     H38923   1.640  11.686   6.493 -0.1966 -0.0303  1.6840
 1007MOL0     H38924   1.637  11.941   6.649  1.0070 -3.4492 -1.0095
 1007MOL0     H38925   1.637  12.166   6.888  0.6287  0.3018  1.1324
 1007MOL0     H38926   1.750  12.090   6.791 -0.2904  3.8005 -1.2353
 1007MOL0     H38927   1.734  12.039   6.970 -1.3603  2.0540  0.5225
 1007MOL0     H38928   1.353  11.881   7.439 -0.8765 -1.1480 -3.9682
 1007MOL0     H38929   1.273  12.030   7.614 -0.5488  2.0720  1.0981
 1007MOL0     H38930   1.100  12.424   7.488 -2.5574  4.4740  2.4477
 1007MOL0     H38931   0.974  12.316   7.529 -0.1172 -0.6332  1.2746
 1007MOL0     H38932   1.136  12.426   7.758  1.3742  0.2287 -1.7859
 1007MOL0     H38933   0.997  12.510   7.679  4.5050  1.2778 -1.4998
 1007MOL0     H38934   1.001  12.247   7.844 -0.5296  0.6007  0.5806
 1007MOL0     H38935   0.868  12.278   7.733 -1.2893  0.9342  1.7508
 1007MOL0     H38936   0.815  12.490   7.846  0.4822  0.0062 -2.2708
 1007MOL0     H38937   0.955  12.449   7.950  0.1654 -0.4278 -1.8339
 1007MOL0     H38938   0.712  12.263   7.899  0.6216 -0.4627 -0.6011
 1007MOL0     H38939   0.826  12.232   8.013 -3.8615 -2.1102 -0.1171
 1007MOL0     H38940   0.750  12.389   8.188 -0.1087  0.6607 -0.9040
 1007MOL0     H38941   0.631  12.287   8.144  2.1596 -1.1889  2.9658
 1007MOL0     H38942   0.534  12.488   7.977 -0.7082 -0.6316  0.3831
 1007MOL0     H38943   0.671  12.578   8.025  2.8195 -0.5191  3.1300
 1007MOL0     H38944   0.469  12.452   8.231 -0.8316 -0.6069 -0.0604
 1007MOL0     H38945   0.454  12.611   8.161  1.2293  0.9315  3.9660
 1007MOL0     H38946   1.173  12.323   7.313  3.3441  0.2614 -2.5687
 1007MOL0     H38947   1.275  12.185   7.157  1.9160 -0.2770  0.5817
 1007MOL0     H38948   1.291  11.833   6.976 -0.8090  3.7137  1.4163
 1007MOL0     H38949   1.304  11.714   6.758 -1.5616  1.1611  2.7473
 1007MOL0     H38950   1.387  11.072   5.108 -2.3116 -0.1152 -1.1993
 1007MOL0     H38951   1.261  10.851   5.095 -0.3339  3.3102 -0.2929
 1007MOL0     H38952   1.358  10.336   4.947 -0.0380 -1.2933 -2.9616
 1007MOL0     H38953   1.231  10.146   4.903  0.3988  0.1680  1.5889
 1007MOL0     H38954   1.067   9.986   4.830  1.4553 -3.2639  3.7768
 1007MOL0     H38955   0.970   9.980   4.968 -1.0888  0.3937  0.2933
 1007MOL0     H38956   0.872   9.847   4.788  0.7043  0.1496  1.0937
 1007MOL0     H38957   0.874   9.975   4.675 -1.2824  1.1993  0.3051
 1007MOL0     H38958   0.703  10.112   4.795  3.6704  0.5847 -1.4089
 1007MOL0     H38959   0.653   9.949   4.740  0.5673  0.9654 -1.5708
 1007MOL0     H38960   0.754   9.893   4.996  1.2574 -0.7459 -2.1758
 1007MOL0     H38961   0.587   9.914   4.942 -0.4768  1.1382 -4.2625
 1007MOL0     H38962   0.678  10.285   5.133  2.9795  0.3660  1.6176
 1007MOL0     H38963   0.872  10.375   4.981 -0.4831 -2.0252  1.9558
 1007MOL0     H38964   0.876  10.593   5.076 -0.5481  1.0892 -1.6004
 1007MOL0     H38965   1.034  10.642   5.141  2.0257 -1.3499  0.6733
 1007MOL0     H38966   0.980  10.686   4.974  2.1832 -1.3597  0.1808
 1008MOL0     O38967   1.980   0.905   4.409 -0.2997  0.5868  0.7313
 1008MOL0     C38968   1.936   0.845   4.506 -0.0462  0.0269  1.2100
 1008MOL0     O38969   1.852   0.736   4.504  0.5964 -1.2494  0.1509
 1008MOL0     C38970   1.793   0.689   4.391  0.1585  0.2941 -0.6038
 1008MOL0     C38971   1.851   0.678   4.259 -0.3562  0.3806 -0.7160
 1008MOL0     C38972   1.776   0.627   4.152 -0.5380 -0.0401  0.5924
 1008MOL0     C38973   1.631   0.607   4.174 -0.1960 -0.2164 -1.3520
 1008MOL0     O38974   1.540   0.587   4.071 -0.1628  0.0067 -0.1318
 1008MOL0     C38975   1.581   0.583   3.932 -0.5890 -0.5330 -0.0401
 1008MOL0     C38976   1.445   0.632   3.864 -0.8113  0.3623  0.5306
 1008MOL0     C38977   1.446   0.608   3.708 -0.7104  0.9237  0.4479
 1008MOL0     C38978   1.452   0.451   3.675  0.2520 -0.1251 -0.7892
 1008MOL0     C38979   1.388   0.429   3.539  1.3481  1.2786 -0.0995
 1008MOL0     C38980   1.431   0.288   3.497 -0.7995 -0.6410 -0.3028
 1008MOL0     C38981   1.368   0.258   3.357 -0.1328 -0.2898  0.6525
 1008MOL0     C38982   1.465   0.300   3.241  0.9891 -0.4157 -0.2196
 1008MOL0     N38983   1.443   0.223   3.128  0.8094  0.4375  1.3951
 1008MOL0     C38984   1.480   0.091   3.099 -0.1990 -1.3992  0.9643
 1008MOL0     C38985   1.429   0.044   2.976 -0.5202 -0.3506  0.0966
 1008MOL0     C38986   1.455  -0.088   2.917  1.1747  0.6558  0.4624
 1008MOL0     C38987   1.519  -0.102   2.775 -1.1799 -1.4421  0.7473
 1008MOL0     C38988   1.654  -0.029   2.755  0.1053 -0.7273  0.4707
 1008MOL0     C38989   1.770  -0.129   2.759 -0.4340 -0.5007 -0.2934
 1008MOL0     O38990   1.750  -0.253   2.833 -0.7552 -0.3291  0.7266
 1008MOL0     C38991   1.773  -0.258   2.965  0.2665 -0.1039 -0.2404
 1008MOL0     C38992   1.796  -0.141   3.040  0.1128 -0.1999  0.4011
 1008MOL0     C38993   1.826  -0.139   3.172  0.4318 -0.0562 -0.1207
 1008MOL0     C38994   1.857   0.004   3.242  0.1143 -1.0842  0.8406
 1008MOL0     C38995   1.837  -0.258   3.245  0.3904 -0.2374 -0.0198
 1008MOL0     C38996   1.869  -0.279   3.387  0.4935 -0.6435  0.5308
 1008MOL0     O38997   1.912  -0.409   3.425  0.2311  0.5999  0.3561
 1008MOL0     C38998   1.939  -0.435   3.555  1.0995 -0.2328 -1.0025
 1008MOL0     C38999   1.830  -0.464   3.636 -0.2492  0.4641 -0.0877
 1008MOL0     C39000   1.852  -0.504   3.771  1.1711  0.4944  0.3880
 1008MOL0     C39001   1.980  -0.492   3.819 -0.4003  0.1695  0.1447
 1008MOL0     O39002   2.008  -0.533   3.949 -0.4063  0.2766 -0.3502
 1008MOL0     C39003   2.003  -0.681   3.975 -0.1193 -0.6345  0.3018
 1008MOL0     C39004   2.067  -0.782   3.871  0.4195  0.3853 -0.3431
 1008MOL0     C39005   2.041  -0.931   3.897 -0.4183 -0.5789  0.0801
 1008MOL0     C39006   2.051  -0.982   4.048 -0.2918 -0.4646 -0.7737
 1008MOL0     C39007   2.061  -1.136   4.052  0.0990  0.5440 -0.1368
 1008MOL0     C39008   2.072  -1.194   4.196  0.3152  1.2307 -0.5679
 1008MOL0     C39009   2.017  -1.337   4.203 -0.0270  0.9536 -0.0018
 1008MOL0     C39010   2.020  -1.381   4.347  0.2637  0.7171 -0.0199
 1008MOL0    Cl39011   2.176  -1.344   4.435 -0.0780 -0.4074 -0.0849
 1008MOL0     C39012   2.095  -0.463   3.733  0.7412  0.0560 -0.1223
 1008MOL0     C39013   2.074  -0.432   3.598 -1.2142  0.3809 -0.0707
 1008MOL0     O39014   1.827  -0.189   3.468 -0.1413  0.5349  0.2538
 1008MOL0     C39015   1.806  -0.384   3.177 -0.1657 -0.2345 -0.1897
 1008MOL0     C39016   1.780  -0.378   3.033  0.1103  0.4015 -0.1947
 1008MOL0     N39017   1.348   0.144   2.931  0.7002 -0.3385 -0.5697
 1008MOL0     N39018   1.360   0.251   3.016 -0.2437 -0.1425 -0.6543
 1008MOL0     C39019   1.572   0.621   4.300  0.3450 -0.0858  0.5809
 1008MOL0     C39020   1.656   0.658   4.407  0.4594  0.2030 -0.2907
 1008MOL0     C39021   1.988   0.904   4.635 -0.6112  0.5592  0.1727
 1008MOL0     C39022   2.070   1.012   4.627  0.2440 -0.3713  0.8355
 1008MOL0     C39023   2.114   1.090   4.731 -0.1496  0.5273  0.1517
 1008MOL0     C39024   2.076   1.046   4.861  0.2045  0.3982 -0.6391
 1008MOL0     O39025   2.096   1.115   4.976 -0.1834 -0.0111  0.5708
 1008MOL0     C39026   2.221   1.101   5.037 -0.5216 -0.2407  0.4050
 1008MOL0     C39027   2.235   1.225   5.142  0.0048 -0.5822  0.0031
 1008MOL0     C39028   2.136   1.212   5.265  0.5382  0.7133 -0.4686
 1008MOL0     C39029   2.089   1.357   5.299 -0.4904  0.6492 -0.3284
 1008MOL0     C39030   1.995   1.374   5.404 -0.3303  0.1792  0.0456
 1008MOL0     C39031   1.914   1.406   5.486 -0.0960 -0.3053 -0.0832
 1008MOL0     C39032   1.993   0.932   4.876 -0.3312 -0.4936 -0.5548
 1008MOL0     C39033   1.955   0.854   4.767 -0.5253  0.1237  0.8364
 1008MOL0     C39034   1.876   0.727   4.798 -0.2881 -0.0737  0.1324
 1008MOL0     H39035   1.954   0.706   4.241 -0.3554  0.2600 -0.9016
 1008MOL0     H39036   1.817   0.630   4.052 -0.2073 -0.5767  0.7063
 1008MOL0     H39037   1.604   0.480   3.903 -0.9645 -1.6185  3.0285
 1008MOL0     H39038   1.659   0.655   3.907 -0.0450 -0.7633  0.9465
 1008MOL0     H39039   1.364   0.567   3.898  1.1341 -2.8188 -0.3917
 1008MOL0     H39040   1.414   0.735   3.883  0.2774  0.8051 -0.0010
 1008MOL0     H39041   1.359   0.653   3.660 -1.2978  1.5807  2.0474
 1008MOL0     H39042   1.527   0.673   3.675  0.3722 -0.1880  0.8473
 1008MOL0     H39043   1.554   0.425   3.705 -0.9855 -4.2548  0.5995
 1008MOL0     H39044   1.394   0.383   3.738  0.3702  1.0144  0.5931
 1008MOL0     H39045   1.419   0.499   3.461  0.4949 -0.2916 -1.9436
 1008MOL0     H39046   1.280   0.441   3.552  0.7870 -1.4792 -1.4405
 1008MOL0     H39047   1.540   0.285   3.490 -0.5199  3.6433 -0.3957
 1008MOL0     H39048   1.406   0.215   3.574  1.2709 -1.1115 -0.0179
 1008MOL0     H39049   1.275   0.314   3.343 -1.0715 -1.6128  1.3014
 1008MOL0     H39050   1.359   0.149   3.359  0.4844 -0.3307  1.3507
 1008MOL0     H39051   1.438   0.405   3.227  2.0534 -0.2929 -1.6735
 1008MOL0     H39052   1.571   0.288   3.267  1.3613 -3.4519 -2.5497
 1008MOL0     H39053   1.532   0.030   3.172 -0.0172  0.8813  2.8580
 1008MOL0     H39054   1.357  -0.134   2.903  1.6333 -0.4183  0.6708
 1008MOL0     H39055   1.510  -0.152   2.987 -0.4435  0.3080  1.4660
 1008MOL0     H39056   1.515  -0.208   2.746 -1.9188 -1.3852  0.6194
 1008MOL0     H39057   1.453  -0.046   2.709 -0.4884 -3.1520 -1.5189
 1008MOL0     H39058   1.656   0.036   2.667 -0.3822  0.6849  1.4497
 1008MOL0     H39059   1.672   0.027   2.848  0.1748  0.1269 -0.0508
 1008MOL0     H39060   1.792  -0.147   2.654  1.9463  0.8290 -0.0831
 1008MOL0     H39061   1.864  -0.091   2.800  0.6239 -1.6691 -1.5125
 1008MOL0     H39062   1.804  -0.039   3.004 -2.7699  0.9581  2.6136
 1008MOL0     H39063   1.893   0.078   3.171 -0.4572 -1.9754 -0.4227
 1008MOL0     H39064   1.928   0.002   3.325  0.1546 -2.7518  0.8067
 1008MOL0     H39065   1.763   0.045   3.280  0.9572  3.6450 -1.4384
 1008MOL0     H39066   1.734  -0.477   3.588  0.5454 -5.8942 -0.7915
 1008MOL0     H39067   1.778  -0.536   3.843  1.2404  0.5700  0.4938
 1008MOL0     H39068   2.049  -0.693   4.073 -3.2223  0.9183  2.0879
 1008MOL0     H39069   1.897  -0.701   3.992 -0.3665  1.2433  1.1431
 1008MOL0     H39070   2.022  -0.767   3.772  0.0194 -0.3644 -0.2846
 1008MOL0     H39071   2.174  -0.759   3.866  1.1604 -2.6923 -0.4782
 1008MOL0     H39072   2.117  -0.982   3.836  2.2581  0.0047  2.6728
 1008MOL0     H39073   1.938  -0.946   3.864 -1.3385  2.5331  1.1795
 1008MOL0     H39074   1.966  -0.953   4.110  2.2210  3.4728  1.2778
 1008MOL0     H39075   2.133  -0.929   4.097 -0.6605  1.4365 -2.0480
 1008MOL0     H39076   1.976  -1.181   4.000  0.1556 -1.1594  1.1530
 1008MOL0     H39077   2.150  -1.171   3.998  0.4585  0.7394  0.3178
 1008MOL0     H39078   2.008  -1.130   4.258  0.5853 -0.4628  1.5682
 1008MOL0     H39079   2.169  -1.186   4.246 -0.4818 -0.7489  1.4621
 1008MOL0     H39080   2.074  -1.407   4.141 -1.5510 -1.3356  1.0426
 1008MOL0     H39081   1.916  -1.348   4.163  0.6827  1.8483 -2.1905
 1008MOL0     H39082   1.997  -1.487   4.337 -2.4281  1.4093 -2.4857
 1008MOL0     H39083   1.946  -1.323   4.402 -1.7164 -1.2853 -0.4435
 1008MOL0     H39084   2.191  -0.444   3.778  0.4281  0.0207  0.5618
 1008MOL0     H39085   2.157  -0.414   3.530 -0.4346 -1.4496  0.3352
 1008MOL0     H39086   1.805  -0.471   3.241 -0.5294  0.3385  0.6155
 1008MOL0     H39087   1.766  -0.474   2.984  2.7219 -0.1120 -0.0690
 1008MOL0     H39088   1.470   0.586   4.309  0.3580 -2.2554 -4.4339
 1008MOL0     H39089   1.619   0.676   4.507 -2.5975 -0.3427 -1.2367
 1008MOL0     H39090   2.109   1.052   4.533 -0.7279  0.0613  0.6070
 1008MOL0     H39091   2.161   1.184   4.706 -2.0763  1.1755 -1.2574
 1008MOL0     H39092   2.224   1.007   5.093  2.8015 -0.0676  0.7265
 1008MOL0     H39093   2.299   1.094   4.961 -0.3744 -5.1695  0.6980
 1008MOL0     H39094   2.219   1.321   5.091  1.6242  0.6882  1.7416
 1008MOL0     H39095   2.332   1.239   5.191 -1.4193 -0.1416  2.9403
 1008MOL0     H39096   2.049   1.150   5.244  1.1068 -0.0819 -0.5158
 1008MOL0     H39097   2.191   1.174   5.352 -3.1784 -1.3039  1.2099
 1008MOL0     H39098   2.055   1.404   5.206 -0.5810  3.6389  1.0689
 1008MOL0     H39099   2.176   1.407   5.344  1.2333 -3.7336  1.7724
 1008MOL0     H39100   1.853   1.435   5.569 -1.7356 -0.1640 -1.2847
 1008MOL0     H39101   1.966   0.907   4.978  3.4493 -4.8184 -0.2837
 1008MOL0     H39102   1.913   0.649   4.731  0.4135  2.6083 -2.8078
 1008MOL0     H39103   1.895   0.694   4.901  0.4214 -0.3237 -0.0761
 1008MOL0     H39104   1.767   0.737   4.792 -0.1011  1.0124 -3.1990
 1009MOL0     O39105   2.829   2.294  11.447  0.1709  0.1485  0.4010
 1009MOL0     C39106   2.736   2.379  11.437 -0.4141  0.1918 -1.3245
 1009MOL0     O39107   2.621   2.358  11.391  0.4189  0.0618  0.5837
 1009MOL0     C39108   2.569   2.247  11.337  0.2163 -0.0147  0.6681
 1009MOL0     C39109   2.631   2.120  11.331 -0.2894 -0.7473 -0.2971
 1009MOL0     C39110   2.581   2.020  11.256  0.3636 -1.2722  0.4021
 1009MOL0     C39111   2.464   2.037  11.187 -0.1509 -0.0877  0.1232
 1009MOL0     O39112   2.439   1.941  11.090  0.2059 -0.5775 -0.2767
 1009MOL0     C39113   2.309   1.918  11.041  0.6095 -0.4831  0.2752
 1009MOL0     C39114   2.304   1.777  10.983  0.7706  0.6989  0.0885
 1009MOL0     C39115   2.308   1.672  11.086  0.2375  0.5261 -1.1501
 1009MOL0     C39116   2.171   1.630  11.144  0.1161  0.4515 -0.3470
 1009MOL0     C39117   2.180   1.541  11.270  0.5527  0.1779  0.1163
 1009MOL0     C39118   2.053   1.558  11.347  0.0277 -0.2364 -0.1978
 1009MOL0     C39119   2.049   1.453  11.453 -0.6489 -0.2910  0.4158
 1009MOL0     C39120   1.957   1.332  11.424  0.3872  0.8442 -0.3560
 1009MOL0     N39121   1.808   1.352  11.440  0.4184 -0.0082 -0.4930
 1009MOL0     C39122   1.729   1.458  11.496  0.4449  0.0641  1.0349
 1009MOL0     C39123   1.604   1.409  11.507 -0.4449  0.7326  0.9132
 1009MOL0     C39124   1.476   1.479  11.542 -0.6484  1.3256  0.5390
 1009MOL0     C39125   1.378   1.500  11.429  0.1067 -0.3721 -0.0650
 1009MOL0     C39126   1.235   1.503  11.484 -0.5274  0.1758 -0.2536
 1009MOL0     C39127   1.138   1.531  11.370  0.4111  0.0617 -0.3563
 1009MOL0     O39128   1.012   1.561  11.421 -0.2306 -0.4620  0.0455
 1009MOL0     C39129   0.974   1.691  11.444  0.6307 -0.3583 -1.0341
 1009MOL0     C39130   1.002   1.751  11.569  0.3010 -0.4795  0.0805
 1009MOL0     C39131   0.930   1.868  11.615  0.4561  0.9247  0.4046
 1009MOL0     C39132   0.953   1.913  11.760 -0.2551 -0.0294  0.3412
 1009MOL0     C39133   0.851   1.936  11.520 -0.1584 -0.2409  0.2095
 1009MOL0     C39134   0.770   2.056  11.553 -0.0896  1.1156  0.7138
 1009MOL0     O39135   0.672   2.082  11.459 -0.5985 -0.4594 -0.1470
 1009MOL0     C39136   0.574   2.175  11.496  0.2852 -1.0468 -0.4008
 1009MOL0     C39137   0.481   2.148  11.599 -1.0182  0.0726  0.0487
 1009MOL0     C39138   0.375   2.238  11.627  0.5689  0.1943 -0.2950
 1009MOL0     C39139   0.379   2.367  11.573 -0.7270 -0.3338  0.3687
 1009MOL0     O39140   0.288   2.460  11.609 -0.2047 -1.0361  0.3258
 1009MOL0     C39141   0.311   2.604  11.598  0.0454  0.4788 -0.4052
 1009MOL0     C39142   0.189   2.680  11.658 -0.1783 -0.1508  0.2090
 1009MOL0     C39143   0.177   2.693  11.813 -0.2507  0.6371 -0.0999
 1009MOL0     C39144   0.085   2.807  11.838  0.3198 -0.3839  0.0104
 1009MOL0     C39145   0.061   2.815  11.994  0.3426 -0.1310 -0.5264
 1009MOL0     C39146  -0.006   2.946  12.042  0.8680 -0.0081 -0.1685
 1009MOL0     C39147   0.016   2.971  12.192 -1.3133 -0.8248  0.6620
 1009MOL0     C39148  -0.069   2.888  12.289  0.3782 -0.1997 -0.0541
 1009MOL0    Cl39149  -0.025   2.929  12.459 -0.0904  0.0531 -0.0322
 1009MOL0     C39150   0.475   2.400  11.472  0.3161  0.5273 -1.2849
 1009MOL0     C39151   0.570   2.303  11.438  0.4125  0.3704  0.6347
 1009MOL0     O39152   0.804   2.131  11.644  0.1613 -0.3341 -0.0142
 1009MOL0     C39153   0.835   1.880  11.392  0.2215 -0.4409  0.2158
 1009MOL0     C39154   0.898   1.760  11.354 -0.9891  0.1336  0.0170
 1009MOL0     N39155   1.607   1.273  11.477 -0.0730 -0.2233 -0.3752
 1009MOL0     N39156   1.728   1.243  11.434  0.1039  0.1550 -0.3295
 1009MOL0     C39157   2.390   2.162  11.204 -0.3629 -0.2174 -0.5043
 1009MOL0     C39158   2.440   2.257  11.286 -0.9237 -0.2004  0.6546
 1009MOL0     C39159   2.782   2.512  11.473 -0.3817  0.2033  0.1198
 1009MOL0     C39160   2.687   2.614  11.475 -0.1230 -0.4233 -0.6961
 1009MOL0     C39161   2.713   2.750  11.495 -0.2444 -0.4202  0.8425
 1009MOL0     C39162   2.845   2.800  11.509  0.5845  0.6194  0.8150
 1009MOL0     O39163   2.858   2.934  11.527  0.4211  0.2941 -0.1240
 1009MOL0     C39164   2.991   2.997  11.515 -0.0765  0.3995  0.2232
 1009MOL0     C39165   2.991   3.140  11.575 -0.1206 -0.2438  0.6249
 1009MOL0     C39166   2.994   3.118  11.725 -0.2650  0.2382 -0.5356
 1009MOL0     C39167   3.012   3.255  11.796 -0.0319  0.4850  0.5231
 1009MOL0     C39168   3.046   3.222  11.939 -0.1654 -0.1335  0.2740
 1009MOL0     C39169   3.089   3.197  12.048  0.1100  0.1649 -0.3233
 1009MOL0     C39170   2.946   2.701  11.502  0.1474 -0.5552 -0.5148
 1009MOL0     C39171   2.918   2.560  11.487 -1.0604  0.6693  0.5440
 1009MOL0     C39172   3.041   2.471  11.469 -0.0125 -0.4069 -0.0930
 1009MOL0     H39173   2.726   2.105  11.381 -1.1266  0.0938  1.6466
 1009MOL0     H39174   2.646   1.933  11.255  2.1992  0.0211 -1.7985
 1009MOL0     H39175   2.277   1.999  10.975  0.0317 -1.5643 -0.8062
 1009MOL0     H39176   2.235   1.924  11.122 -0.2544 -0.3929 -0.5091
 1009MOL0     H39177   2.214   1.748  10.928 -1.8567 -2.8178  5.3982
 1009MOL0     H39178   2.385   1.757  10.912 -0.4671 -1.9349 -0.6980
 1009MOL0     H39179   2.365   1.591  11.039  2.7602  2.3259 -1.3380
 1009MOL0     H39180   2.367   1.711  11.169 -1.6151 -0.9434  0.9663
 1009MOL0     H39181   2.115   1.718  11.178  1.9971  1.6398 -0.1698
 1009MOL0     H39182   2.110   1.571  11.074 -0.2855 -2.3106  2.1235
 1009MOL0     H39183   2.267   1.567  11.332 -1.9741  2.4178  3.0031
 1009MOL0     H39184   2.184   1.440  11.228  2.0417  0.3061 -0.1112
 1009MOL0     H39185   2.053   1.654  11.399  1.4622 -1.4191  2.1787
 1009MOL0     H39186   1.971   1.570  11.275 -0.9991  0.0600  0.9922
 1009MOL0     H39187   1.996   1.498  11.538 -1.7658 -1.1092  0.1837
 1009MOL0     H39188   2.150   1.424  11.482  0.6021  1.9336 -1.3769
 1009MOL0     H39189   1.966   1.291  11.323 -1.2315  0.7217 -0.4775
 1009MOL0     H39190   1.999   1.258  11.494 -1.3910 -1.9877 -2.0656
 1009MOL0     H39191   1.749   1.564  11.504  1.4342 -0.1470  1.4694
 1009MOL0     H39192   1.493   1.583  11.571  2.2053  2.3384 -3.8699
 1009MOL0     H39193   1.431   1.421  11.624  2.6722  2.0730  3.0982
 1009MOL0     H39194   1.404   1.596  11.385  0.1751 -0.2844  0.1618
 1009MOL0     H39195   1.376   1.428  11.346 -2.1549  2.2649 -2.4766
 1009MOL0     H39196   1.218   1.411  11.541  1.3905 -0.8841 -1.2593
 1009MOL0     H39197   1.229   1.588  11.551 -1.2791  1.5368 -1.9556
 1009MOL0     H39198   1.180   1.611  11.308  1.3833  1.7069  2.2547
 1009MOL0     H39199   1.122   1.444  11.307  1.5539 -0.4077 -0.0177
 1009MOL0     H39200   1.075   1.703  11.634 -1.2063  1.0378  3.1066
 1009MOL0     H39201   1.010   1.837  11.815 -0.4201 -2.6525 -2.8065
 1009MOL0     H39202   0.850   1.923  11.795 -0.2774 -2.2532  1.0278
 1009MOL0     H39203   1.002   2.011  11.765 -1.4213  0.6194 -0.4577
 1009MOL0     H39204   0.482   2.050  11.645 -1.7334  0.9648  2.1395
 1009MOL0     H39205   0.299   2.213  11.700  0.0963 -1.1476 -1.2171
 1009MOL0     H39206   0.405   2.637  11.643  1.6021 -0.1337 -2.9956
 1009MOL0     H39207   0.308   2.635  11.493 -1.5277  1.8669 -0.0017
 1009MOL0     H39208   0.211   2.777  11.613 -0.4522 -0.8323 -1.4683
 1009MOL0     H39209   0.099   2.631  11.620  0.0367  1.1529 -2.1407
 1009MOL0     H39210   0.277   2.704  11.856  0.4900 -0.0155 -1.5469
 1009MOL0     H39211   0.137   2.597  11.847  0.0411  1.1859  1.8884
 1009MOL0     H39212  -0.016   2.795  11.797 -0.3732 -2.2349  2.0256
 1009MOL0     H39213   0.126   2.900  11.799  1.6884 -1.4770 -1.2543
 1009MOL0     H39214   0.000   2.731  12.029  0.5907 -0.2943 -0.4863
 1009MOL0     H39215   0.163   2.798  12.030  0.0744 -0.3499  0.1394
 1009MOL0     H39216  -0.114   2.944  12.030  0.6952 -0.0544  1.2267
 1009MOL0     H39217   0.037   3.027  11.982 -1.3072  0.2034 -1.5138
 1009MOL0     H39218   0.014   3.078  12.215 -1.9774 -1.2294  2.6406
 1009MOL0     H39219   0.121   2.947  12.214 -1.2370  0.8995  2.4401
 1009MOL0     H39220  -0.053   2.780  12.292 -2.0181 -0.6020  1.2911
 1009MOL0     H39221  -0.177   2.890  12.270  0.9648 -2.8965 -5.5341
 1009MOL0     H39222   0.486   2.501  11.435 -0.6101  2.0811  2.2585
 1009MOL0     H39223   0.643   2.334  11.363  0.6277  2.9750  1.8088
 1009MOL0     H39224   0.764   1.919  11.319  1.0881 -2.1307 -1.6109
 1009MOL0     H39225   0.866   1.701  11.269 -0.0392  1.9856 -1.7213
 1009MOL0     H39226   2.299   2.183  11.149  1.0476 -2.3776 -4.0074
 1009MOL0     H39227   2.383   2.349  11.295 -0.8084  0.4684 -3.4539
 1009MOL0     H39228   2.587   2.575  11.458 -1.1664  2.3658 -1.5934
 1009MOL0     H39229   2.640   2.828  11.514  3.0743  2.3658  3.7297
 1009MOL0     H39230   3.076   2.944  11.559  2.0874  3.5366  0.1582
 1009MOL0     H39231   3.018   3.009  11.410  0.5333 -0.3340  0.2814
 1009MOL0     H39232   2.899   3.190  11.545  0.1339 -0.2406 -0.1882
 1009MOL0     H39233   3.080   3.200  11.549  1.1614 -1.5226  1.8973
 1009MOL0     H39234   2.900   3.072  11.757  0.4394 -2.6078 -2.1662
 1009MOL0     H39235   3.078   3.051  11.743  1.0131  2.1103  0.8956
 1009MOL0     H39236   2.923   3.317  11.781  0.8715  2.0513  1.3919
 1009MOL0     H39237   3.095   3.307  11.748 -0.1679 -1.1544 -1.6261
 1009MOL0     H39238   3.121   3.182  12.149 -1.1010  1.4340  0.2842
 1009MOL0     H39239   3.052   2.726  11.505 -0.8493  4.8834  0.1248
 1009MOL0     H39240   3.140   2.516  11.483 -0.5360  0.7588 -0.0524
 1009MOL0     H39241   3.042   2.380  11.530 -1.4128 -0.5185 -0.2022
 1009MOL0     H39242   3.059   2.440  11.365  0.4465 -1.0512  0.1719
 1010MOL0     O39243   5.447   4.490   2.701 -0.2856  0.3664 -0.1255
 1010MOL0     C39244   5.550   4.416   2.702  0.6020  0.3863 -1.3068
 1010MOL0     O39245   5.543   4.285   2.742 -0.6033 -0.7978  0.4458
 1010MOL0     C39246   5.427   4.209   2.731  0.3449  0.0578  0.6709
 1010MOL0     C39247   5.417   4.103   2.823 -0.6163  0.2078 -0.3143
 1010MOL0     C39248   5.304   4.017   2.821 -0.9017  0.5619  1.0472
 1010MOL0     C39249   5.201   4.042   2.721 -0.8076  0.5979  0.5063
 1010MOL0     O39250   5.094   3.957   2.729 -0.8928  0.6368  0.6114
 1010MOL0     C39251   4.989   3.955   2.633  1.2002 -0.3021  0.9594
 1010MOL0     C39252   5.023   3.914   2.484  0.2188  0.4930  0.1460
 1010MOL0     C39253   4.895   3.927   2.391 -0.3459 -0.2521 -0.2536
 1010MOL0     C39254   4.893   3.826   2.278  0.0262  0.1702  0.3335
 1010MOL0     C39255   4.794   3.846   2.166 -0.2141  0.1313 -0.2972
 1010MOL0     C39256   4.824   3.969   2.068  0.8647 -0.2192  0.8488
 1010MOL0     C39257   4.711   3.998   1.959  0.1027 -0.2789  0.6367
 1010MOL0     C39258   4.746   4.106   1.862 -0.0097 -0.3653 -0.5350
 1010MOL0     N39259   4.636   4.169   1.769 -1.0594  0.4856 -0.0190
 1010MOL0     C39260   4.503   4.182   1.808  0.6085  0.0988  0.6710
 1010MOL0     C39261   4.445   4.252   1.707 -1.4075  1.0708  0.1967
 1010MOL0     C39262   4.306   4.292   1.722 -0.6027  0.9439  0.5177
 1010MOL0     C39263   4.267   4.425   1.654  0.4908 -0.6290 -0.9815
 1010MOL0     C39264   4.121   4.436   1.627 -0.2092  0.4055 -0.3681
 1010MOL0     C39265   4.106   4.559   1.541 -0.3011 -0.6304 -0.0147
 1010MOL0     O39266   3.971   4.584   1.518 -0.0188 -0.1555 -0.7485
 1010MOL0     C39267   3.950   4.692   1.445  0.7218 -0.1965  1.2327
 1010MOL0     C39268   4.023   4.808   1.429  1.4304  0.2949 -0.0186
 1010MOL0     C39269   3.986   4.910   1.338 -0.5327  0.4008 -0.7035
 1010MOL0     C39270   4.067   5.037   1.343  0.1594 -0.2596 -0.2563
 1010MOL0     C39271   3.883   4.884   1.245  0.1934 -0.5052 -0.6583
 1010MOL0     C39272   3.854   4.965   1.124 -0.1343  0.3830 -0.0469
 1010MOL0     O39273   3.761   4.912   1.041  0.2776 -0.1400  0.3950
 1010MOL0     C39274   3.726   4.972   0.920 -0.3658  0.0092 -0.3127
 1010MOL0     C39275   3.821   5.010   0.823 -0.1136  0.4700 -0.4051
 1010MOL0     C39276   3.777   5.074   0.707  0.4505 -0.1482  0.5333
 1010MOL0     C39277   3.647   5.103   0.687  0.2906  1.2573  0.5841
 1010MOL0     O39278   3.627   5.163   0.563 -0.0388 -0.1970  0.7958
 1010MOL0     C39279   3.512   5.125   0.487  0.1246 -0.0578  1.0575
 1010MOL0     C39280   3.541   5.013   0.385  0.0241  0.1428  0.8225
 1010MOL0     C39281   3.405   4.949   0.341  0.5333  0.6809 -0.5449
 1010MOL0     C39282   3.418   4.844   0.228 -0.2632 -0.6168  0.5458
 1010MOL0     C39283   3.480   4.717   0.289  0.1518 -1.1730 -0.7934
 1010MOL0     C39284   3.470   4.614   0.177  1.0935  0.5745 -0.2729
 1010MOL0     C39285   3.550   4.486   0.229  0.1631  0.1000  0.1374
 1010MOL0     C39286   3.542   4.375   0.131 -0.2730 -0.3243 -0.3059
 1010MOL0    Cl39287   3.647   4.242   0.190 -0.3203  1.0186  0.5540
 1010MOL0     C39288   3.552   5.079   0.791  0.9067 -0.5495  0.5976
 1010MOL0     C39289   3.594   5.004   0.898 -0.6429 -0.4670 -0.6530
 1010MOL0     O39290   3.890   5.086   1.120 -0.6538  0.1360  0.2291
 1010MOL0     C39291   3.802   4.768   1.262 -0.3102  0.1726 -0.8901
 1010MOL0     C39292   3.829   4.680   1.371 -0.5052 -0.2485 -0.2557
 1010MOL0     N39293   4.536   4.272   1.605  0.4685  0.3266  1.1637
 1010MOL0     N39294   4.654   4.221   1.642 -0.6351 -0.6960  1.2160
 1010MOL0     C39295   5.209   4.147   2.634  0.3524 -0.3720 -0.6232
 1010MOL0     C39296   5.322   4.236   2.637  0.1287  0.3325 -1.6217
 1010MOL0     C39297   5.679   4.468   2.696 -0.1760 -0.7987  0.4081
 1010MOL0     C39298   5.768   4.449   2.798  0.7796 -0.1685  0.6998
 1010MOL0     C39299   5.887   4.521   2.816  0.4830  0.2816  0.4391
 1010MOL0     C39300   5.901   4.629   2.724 -0.4039 -0.2917 -0.6176
 1010MOL0     O39301   6.009   4.709   2.739  0.0353 -0.2020 -0.3999
 1010MOL0     C39302   5.999   4.847   2.779  0.4971 -0.0010  0.0833
 1010MOL0     C39303   6.067   4.862   2.914  0.6665 -0.5582  0.1748
 1010MOL0     C39304   6.109   5.002   2.956 -0.3206 -0.1488  0.2427
 1010MOL0     C39305   6.123   5.012   3.113 -0.5831  0.0043  0.5951
 1010MOL0     C39306   6.120   5.159   3.142  0.1031  0.1634 -0.7582
 1010MOL0     C39307   6.127   5.276   3.165  0.5075 -0.4552  0.0904
 1010MOL0     C39308   5.814   4.647   2.612  0.5519 -1.2719 -0.5316
 1010MOL0     C39309   5.709   4.564   2.594 -0.0266  0.0882  0.5295
 1010MOL0     C39310   5.621   4.597   2.470  1.2021  0.9603 -0.1230
 1010MOL0     H39311   5.492   4.100   2.901 -2.1194 -1.5790  1.1366
 1010MOL0     H39312   5.287   3.934   2.890 -0.5811  0.9009  1.5412
 1010MOL0     H39313   4.942   4.053   2.620  1.9677 -0.0267  0.1291
 1010MOL0     H39314   4.916   3.882   2.670  1.8948 -1.4088  0.2288
 1010MOL0     H39315   5.100   3.979   2.444  3.6849 -2.5935  1.2153
 1010MOL0     H39316   5.067   3.816   2.465  2.9313  1.7424 -0.4131
 1010MOL0     H39317   4.804   3.919   2.451 -2.7985  1.2833 -3.4075
 1010MOL0     H39318   4.901   4.024   2.341  1.1898 -1.2896 -2.2293
 1010MOL0     H39319   4.987   3.819   2.221 -1.3641  1.0281 -2.2121
 1010MOL0     H39320   4.859   3.737   2.331  0.6120  0.1359  0.6604
 1010MOL0     H39321   4.694   3.850   2.211 -1.2688 -2.7692 -2.0991
 1010MOL0     H39322   4.794   3.755   2.105  1.9694  0.6267 -1.1147
 1010MOL0     H39323   4.851   4.056   2.128  0.1238  0.5394  0.1084
 1010MOL0     H39324   4.912   3.928   2.018 -1.2580 -6.3879  1.3848
 1010MOL0     H39325   4.620   4.021   2.014 -1.4229  2.2253 -2.6187
 1010MOL0     H39326   4.689   3.910   1.897  2.1183 -0.1738 -0.3410
 1010MOL0     H39327   4.801   4.176   1.924  2.4101 -1.1363 -1.6730
 1010MOL0     H39328   4.819   4.069   1.790  3.0750 -1.7037  2.9670
 1010MOL0     H39329   4.453   4.158   1.902 -1.6600  2.1352  0.1022
 1010MOL0     H39330   4.277   4.285   1.827 -2.4465 -3.6525 -0.0587
 1010MOL0     H39331   4.241   4.215   1.679 -0.9562  2.1262 -1.1579
 1010MOL0     H39332   4.290   4.500   1.730 -1.6304 -3.0821  2.3964
 1010MOL0     H39333   4.330   4.434   1.565 -0.4776  1.8469 -1.4851
 1010MOL0     H39334   4.087   4.343   1.581 -0.9881  0.4396  0.1230
 1010MOL0     H39335   4.071   4.447   1.723  1.3183 -0.5130  0.5812
 1010MOL0     H39336   4.157   4.642   1.592 -1.2897  0.7477 -1.1662
 1010MOL0     H39337   4.154   4.544   1.444  0.8466  0.0848  0.4179
 1010MOL0     H39338   4.109   4.818   1.495  1.1172 -3.3070  1.1920
 1010MOL0     H39339   3.998   5.112   1.383  0.0768 -0.7346  0.5228
 1010MOL0     H39340   4.102   5.062   1.243 -2.0030  2.1244 -0.5253
 1010MOL0     H39341   4.150   5.042   1.415 -1.7474 -0.4510  2.0868
 1010MOL0     H39342   3.928   5.002   0.845 -0.7025  0.3505  3.0301
 1010MOL0     H39343   3.849   5.100   0.629  0.8009  2.1844  1.5498
 1010MOL0     H39344   3.430   5.091   0.551 -0.2284 -0.2449  0.5107
 1010MOL0     H39345   3.483   5.214   0.429 -0.1994 -0.6613  0.2745
 1010MOL0     H39346   3.590   5.062   0.300  1.8652 -1.1297  1.1076
 1010MOL0     H39347   3.612   4.936   0.417  3.3503  2.7077  0.1591
 1010MOL0     H39348   3.345   5.039   0.323  3.4246  2.7978 -0.2722
 1010MOL0     H39349   3.381   4.887   0.428  1.9243  1.2406  0.2784
 1010MOL0     H39350   3.491   4.866   0.149  0.8853 -3.5408  0.6375
 1010MOL0     H39351   3.316   4.830   0.191  0.8725 -2.9669 -2.0977
 1010MOL0     H39352   3.582   4.739   0.322 -0.5739  2.1360 -0.3983
 1010MOL0     H39353   3.418   4.680   0.372  0.2858 -0.2050 -0.2370
 1010MOL0     H39354   3.512   4.641   0.079  1.2467  0.5430 -0.2165
 1010MOL0     H39355   3.366   4.583   0.163  1.0282  1.2727 -1.5026
 1010MOL0     H39356   3.516   4.451   0.327 -3.0734  0.4193 -0.7818
 1010MOL0     H39357   3.649   4.533   0.237  0.1972 -0.1546  1.4598
 1010MOL0     H39358   3.588   4.404   0.035  4.0394 -2.3293  0.8838
 1010MOL0     H39359   3.437   4.349   0.119 -0.1522 -0.9418 -0.0730
 1010MOL0     H39360   3.453   5.121   0.781  0.9956 -0.3113  0.7127
 1010MOL0     H39361   3.535   4.970   0.983  1.7563  0.8560  1.6898
 1010MOL0     H39362   3.720   4.748   1.193  0.6685  4.7856 -3.8800
 1010MOL0     H39363   3.770   4.591   1.394  3.0429 -2.5397  0.7973
 1010MOL0     H39364   5.119   4.164   2.577 -1.2392 -1.8856  1.2651
 1010MOL0     H39365   5.330   4.320   2.570  1.7040  1.1481 -0.4857
 1010MOL0     H39366   5.752   4.378   2.878 -0.1519  0.9964  1.5822
 1010MOL0     H39367   5.967   4.497   2.886  1.6553 -1.0827 -1.2798
 1010MOL0     H39368   6.058   4.903   2.704 -1.3090  1.3442 -0.4117
 1010MOL0     H39369   5.896   4.884   2.774  0.4911  0.3938  2.1688
 1010MOL0     H39370   6.149   4.790   2.906  0.0199 -1.1486 -1.7666
 1010MOL0     H39371   6.004   4.823   2.994  0.1747 -2.3325 -0.9988
 1010MOL0     H39372   6.207   5.025   2.914 -0.6820  1.3983  0.1596
 1010MOL0     H39373   6.031   5.071   2.921  1.3070  0.8609 -1.5901
 1010MOL0     H39374   6.216   4.970   3.152  0.4151  1.4458 -0.1625
 1010MOL0     H39375   6.039   4.974   3.173  1.1538 -3.4675  1.1256
 1010MOL0     H39376   6.129   5.382   3.181  1.6011 -0.6054  1.1423
 1010MOL0     H39377   5.844   4.716   2.534  1.4505  0.2726  1.1051
 1010MOL0     H39378   5.562   4.505   2.466  0.0551  1.6878 -0.4069
 1010MOL0     H39379   5.547   4.677   2.480  0.8778  0.8863 -1.5846
 1010MOL0     H39380   5.670   4.604   2.372  1.7505 -0.1512  0.0587
 1011MOL0     O39381   1.343   4.800   2.248  0.0723  0.0873  0.6389
 1011MOL0     C39382   1.452   4.761   2.289 -0.3817  0.2859  0.5783
 1011MOL0     O39383   1.524   4.659   2.248  0.4253  0.3069 -0.0948
 1011MOL0     C39384   1.502   4.551   2.153  0.2353  0.5802 -0.3113
 1011MOL0     C39385   1.385   4.523   2.080  0.0862  0.3695  0.2316
 1011MOL0     C39386   1.367   4.410   2.000 -0.0862  0.5790 -0.4353
 1011MOL0     C39387   1.480   4.325   1.980 -0.3983 -0.1356  0.7267
 1011MOL0     O39388   1.472   4.214   1.892  0.5159  0.2465  0.0907
 1011MOL0     C39389   1.345   4.146   1.908  0.7769  0.7404 -0.4809
 1011MOL0     C39390   1.364   3.998   1.868  0.0650  0.3532 -0.3969
 1011MOL0     C39391   1.480   3.935   1.960 -0.2664  0.0543  0.7343
 1011MOL0     C39392   1.521   3.787   1.924  1.0920 -0.0096 -0.0373
 1011MOL0     C39393   1.614   3.721   2.022 -0.7664 -0.1746  1.0057
 1011MOL0     C39394   1.564   3.711   2.164  0.6137  0.7405 -0.8988
 1011MOL0     C39395   1.675   3.660   2.263 -0.6277  0.0423  1.2594
 1011MOL0     C39396   1.650   3.683   2.404  0.2442 -0.2313 -0.8643
 1011MOL0     N39397   1.753   3.640   2.504  0.1926 -0.6065 -0.1088
 1011MOL0     C39398   1.793   3.512   2.525 -0.8444 -0.3367  0.0897
 1011MOL0     C39399   1.875   3.515   2.630 -0.6216  0.9788 -0.0996
 1011MOL0     C39400   1.949   3.406   2.688 -1.1582  0.8089  0.8270
 1011MOL0     C39401   1.911   3.364   2.830 -0.3929 -0.0801  1.5191
 1011MOL0     C39402   1.999   3.245   2.869  0.0902 -0.1929  0.2893
 1011MOL0     C39403   1.953   3.194   3.008  0.1570  0.7353  0.2586
 1011MOL0     O39404   1.971   3.291   3.102 -0.1131 -0.9420  0.5955
 1011MOL0     C39405   1.932   3.274   3.231 -0.4522 -0.3548 -1.1504
 1011MOL0     C39406   1.883   3.153   3.294  0.3837  0.5408 -0.1570
 1011MOL0     C39407   1.876   3.156   3.435  1.2314  0.5344  0.0755
 1011MOL0     C39408   1.824   3.027   3.493 -0.9197 -0.2413 -0.2779
 1011MOL0     C39409   1.910   3.271   3.519  0.4078 -0.5304  1.4080
 1011MOL0     C39410   1.915   3.277   3.664 -0.6699  0.5822 -0.6063
 1011MOL0     O39411   1.912   3.162   3.730  0.2879  0.3141 -0.8670
 1011MOL0     C39412   1.862   3.185   3.855 -0.8765  0.1309  0.3729
 1011MOL0     C39413   1.938   3.167   3.967 -0.3000 -0.0298 -0.6973
 1011MOL0     C39414   1.879   3.190   4.092 -0.0620  0.6288 -0.0944
 1011MOL0     C39415   1.743   3.210   4.104 -0.3301  0.1729  0.2547
 1011MOL0     O39416   1.681   3.218   4.228  0.1958 -0.0141  0.0123
 1011MOL0     C39417   1.539   3.174   4.246  1.0441  0.6354  0.4268
 1011MOL0     C39418   1.425   3.282   4.236 -0.3682 -0.4490 -0.1373
 1011MOL0     C39419   1.294   3.244   4.289 -0.2919  0.2901  0.0720
 1011MOL0     C39420   1.184   3.353   4.267  0.0786 -0.0172 -0.3273
 1011MOL0     C39421   1.132   3.351   4.124  0.2458  0.0029  0.1296
 1011MOL0     C39422   0.979   3.377   4.125 -0.0757 -0.9803 -0.0972
 1011MOL0     C39423   0.909   3.329   3.996  0.4673 -0.0085  0.6482
 1011MOL0     C39424   0.770   3.265   4.010 -1.1034  0.1403  0.2382
 1011MOL0    Cl39425   0.652   3.379   4.077  0.2918 -0.6766  0.4158
 1011MOL0     C39426   1.667   3.224   3.992 -0.8661  1.1792  0.0875
 1011MOL0     C39427   1.719   3.199   3.867 -0.2205  0.4393  0.0300
 1011MOL0     O39428   1.916   3.391   3.715 -0.5257 -0.1676  0.0758
 1011MOL0     C39429   1.940   3.389   3.451 -0.1850  0.0757  0.2595
 1011MOL0     C39430   1.950   3.388   3.311  1.1472 -0.0289  0.3482
 1011MOL0     N39431   1.892   3.650   2.671 -1.0525  0.8028 -0.3383
 1011MOL0     N39432   1.809   3.719   2.601 -0.0767 -0.1729  0.6523
 1011MOL0     C39433   1.606   4.357   2.046 -0.1137 -0.2745 -0.9446
 1011MOL0     C39434   1.615   4.464   2.138  0.1388 -0.3804  0.2513
 1011MOL0     C39435   1.501   4.844   2.402 -1.2384 -0.3719 -0.3627
 1011MOL0     C39436   1.418   4.930   2.470 -0.0579 -0.5473 -0.1116
 1011MOL0     C39437   1.457   4.994   2.586  0.0708  0.0192  0.5381
 1011MOL0     C39438   1.592   4.993   2.630  0.2425 -0.4524  0.1752
 1011MOL0     O39439   1.620   5.055   2.748 -0.2679  0.6875 -0.0686
 1011MOL0     C39440   1.689   5.175   2.740  0.4075 -0.5908 -0.0551
 1011MOL0     C39441   1.609   5.302   2.721  0.1073  0.3013  1.0682
 1011MOL0     C39442   1.692   5.416   2.688 -0.5113 -0.4347 -0.3106
 1011MOL0     C39443   1.622   5.542   2.750 -0.2931  0.0886 -0.0753
 1011MOL0     C39444   1.695   5.667   2.727 -0.2271  0.5552  0.1580
 1011MOL0     C39445   1.762   5.767   2.700  0.6254  0.0018 -0.3811
 1011MOL0     C39446   1.673   4.908   2.570 -0.4905 -0.1216  0.8090
 1011MOL0     C39447   1.631   4.829   2.455  0.4046 -0.0984 -0.3422
 1011MOL0     C39448   1.744   4.733   2.401  0.2900  0.7195  1.3408
 1011MOL0     H39449   1.299   4.589   2.089 -0.0003  0.0503  2.2503
 1011MOL0     H39450   1.277   4.396   1.941 -0.3249 -1.8151  0.3907
 1011MOL0     H39451   1.266   4.183   1.842 -0.1882 -0.1010  0.1671
 1011MOL0     H39452   1.310   4.153   2.012  1.0001  1.2702 -0.4392
 1011MOL0     H39453   1.279   3.931   1.878  0.6362 -0.3266  0.0016
 1011MOL0     H39454   1.407   3.995   1.767  2.0658  0.4728  0.3898
 1011MOL0     H39455   1.570   3.996   1.966 -0.5991  0.4820  1.6987
 1011MOL0     H39456   1.438   3.932   2.061  1.2739  2.6113  1.5334
 1011MOL0     H39457   1.427   3.731   1.924  2.1529 -1.9258 -1.5007
 1011MOL0     H39458   1.544   3.783   1.817 -1.4947  1.1706 -0.7033
 1011MOL0     H39459   1.709   3.775   2.024 -1.0247  0.4710 -1.3781
 1011MOL0     H39460   1.640   3.624   1.978 -2.7262 -1.1623  1.8584
 1011MOL0     H39461   1.529   3.804   2.209 -2.1230 -1.3484  1.7565
 1011MOL0     H39462   1.484   3.637   2.176  2.3662 -1.0172  0.8240
 1011MOL0     H39463   1.764   3.718   2.237  0.5527 -0.7723  3.2393
 1011MOL0     H39464   1.690   3.556   2.233  1.1172 -0.3937  3.4242
 1011MOL0     H39465   1.642   3.792   2.412 -1.4517 -0.4547  2.5103
 1011MOL0     H39466   1.559   3.628   2.432  1.5423 -2.9294 -1.5519
 1011MOL0     H39467   1.770   3.424   2.467  1.1206 -0.2019 -0.9713
 1011MOL0     H39468   2.049   3.451   2.690 -1.0280  0.5926 -0.2009
 1011MOL0     H39469   1.953   3.315   2.628 -1.6603  0.8018  0.8019
 1011MOL0     H39470   1.920   3.454   2.893 -0.3410 -0.0028  1.4018
 1011MOL0     H39471   1.805   3.338   2.836 -0.8996  2.0270  2.6268
 1011MOL0     H39472   2.007   3.160   2.800  1.3073 -0.7729  1.1158
 1011MOL0     H39473   2.099   3.286   2.885 -0.0719  0.1129  0.5127
 1011MOL0     H39474   1.847   3.167   3.006  0.4115 -0.2893 -0.8264
 1011MOL0     H39475   2.023   3.116   3.039 -0.3323 -0.9611 -2.4647
 1011MOL0     H39476   1.873   3.068   3.228 -0.9304  1.5362 -1.2844
 1011MOL0     H39477   1.901   2.953   3.516 -3.7430 -2.9492  1.2337
 1011MOL0     H39478   1.760   2.974   3.421 -1.8290  0.6049 -0.1109
 1011MOL0     H39479   1.768   3.046   3.585  2.0330  0.2777  1.5455
 1011MOL0     H39480   2.047   3.164   3.968 -0.3275 -1.6214 -0.5184
 1011MOL0     H39481   1.940   3.185   4.182  0.9184 -0.2352 -0.7814
 1011MOL0     H39482   1.511   3.083   4.191 -4.1536  1.9281  0.3454
 1011MOL0     H39483   1.542   3.153   4.354  2.0886  1.4026  0.5571
 1011MOL0     H39484   1.467   3.376   4.273 -2.7803  0.1263  1.3128
 1011MOL0     H39485   1.406   3.305   4.131  0.5348  0.4971 -0.1058
 1011MOL0     H39486   1.326   3.230   4.393  2.8987  0.3952 -0.7885
 1011MOL0     H39487   1.271   3.148   4.243  0.6950 -0.8401  1.8013
 1011MOL0     H39488   1.210   3.458   4.282 -1.2321  1.0304 -4.1210
 1011MOL0     H39489   1.101   3.331   4.334 -0.3367 -1.7351 -1.3350
 1011MOL0     H39490   1.190   3.419   4.060 -1.1293  1.1832  0.0801
 1011MOL0     H39491   1.152   3.248   4.093  1.6915 -0.0412  1.1573
 1011MOL0     H39492   0.968   3.486   4.131  1.4595 -0.7496 -0.9353
 1011MOL0     H39493   0.930   3.332   4.212  0.3406  0.3601  0.8728
 1011MOL0     H39494   0.981   3.267   3.942  1.2685 -0.7570  2.4983
 1011MOL0     H39495   0.886   3.419   3.938  0.5715 -1.1818 -1.3067
 1011MOL0     H39496   0.774   3.175   4.073  1.0310  1.1017  1.5627
 1011MOL0     H39497   0.735   3.224   3.915  0.8992 -1.7617  0.2555
 1011MOL0     H39498   1.561   3.242   4.008 -1.2997 -0.6341 -0.4636
 1011MOL0     H39499   1.654   3.198   3.780 -1.7541 -0.0359  1.1531
 1011MOL0     H39500   1.961   3.481   3.503  1.3770 -0.3532  0.4364
 1011MOL0     H39501   1.988   3.477   3.263 -0.9633  2.8827  3.5677
 1011MOL0     H39502   1.693   4.295   2.029  0.2821  0.0051 -0.0064
 1011MOL0     H39503   1.711   4.487   2.183  0.5652  0.7244 -1.1810
 1011MOL0     H39504   1.314   4.930   2.441  0.1765 -2.4137 -1.1045
 1011MOL0     H39505   1.380   5.053   2.635  0.3119  2.0838 -1.3674
 1011MOL0     H39506   1.748   5.179   2.832  1.9326  0.2544 -1.0353
 1011MOL0     H39507   1.762   5.175   2.659 -0.4623  0.8025 -0.8715
 1011MOL0     H39508   1.539   5.325   2.802 -1.1204  1.9230 -0.3681
 1011MOL0     H39509   1.549   5.287   2.631  0.4697  1.5730  0.5857
 1011MOL0     H39510   1.796   5.408   2.722 -1.1562  1.3836  2.4089
 1011MOL0     H39511   1.680   5.435   2.581 -2.0602  1.2847  0.1252
 1011MOL0     H39512   1.596   5.522   2.855  0.5139  0.9728  0.3158
 1011MOL0     H39513   1.528   5.565   2.699 -1.2332  0.7268  1.8498
 1011MOL0     H39514   1.817   5.855   2.676  1.8879 -0.6213  0.0951
 1011MOL0     H39515   1.773   4.898   2.611 -1.3901 -2.4456  2.6767
 1011MOL0     H39516   1.844   4.758   2.438  0.5031  0.7922  0.7189
 1011MOL0     H39517   1.730   4.632   2.442  0.0759  0.3845  0.4611
 1011MOL0     H39518   1.742   4.730   2.292  1.4734 -0.1535  1.3226
 1012MOL0     O39519   2.340   4.106   5.628 -0.5558  0.3205  0.5837
 1012MOL0     C39520   2.371   4.221   5.594 -0.6020 -0.2213  0.5454
 1012MOL0     O39521   2.464   4.303   5.654 -1.0771  0.2101 -0.1696
 1012MOL0     C39522   2.478   4.279   5.788 -0.2828  0.3359  0.9336
 1012MOL0     C39523   2.599   4.244   5.844  0.6414 -0.0051  0.0571
 1012MOL0     C39524   2.616   4.232   5.984  0.4241 -0.3675 -0.5951
 1012MOL0     C39525   2.505   4.259   6.065 -0.1193  0.3177 -0.0355
 1012MOL0     O39526   2.518   4.262   6.200 -0.4090  0.0714  0.6132
 1012MOL0     C39527   2.619   4.353   6.261 -1.0600  0.3300 -0.0771
 1012MOL0     C39528   2.608   4.349   6.416 -0.0175 -0.0340 -0.4453
 1012MOL0     C39529   2.475   4.385   6.473 -0.7129  0.1042 -0.1741
 1012MOL0     C39530   2.490   4.462   6.603  0.1801  0.3702  0.3938
 1012MOL0     C39531   2.352   4.520   6.653  0.3491 -0.4557 -1.4742
 1012MOL0     C39532   2.357   4.559   6.803  0.2129  0.1475 -0.3223
 1012MOL0     C39533   2.238   4.643   6.836  0.5872  0.0612 -0.4944
 1012MOL0     C39534   2.240   4.671   6.991  0.6141 -0.8683  0.3252
 1012MOL0     N39535   2.235   4.562   7.084 -0.0708  0.5911  0.4463
 1012MOL0     C39536   2.335   4.474   7.126 -0.8714  0.1959 -0.0412
 1012MOL0     C39537   2.277   4.388   7.216  0.6374  0.7680 -0.4914
 1012MOL0     C39538   2.356   4.298   7.318  1.1845 -0.0608  0.7107
 1012MOL0     C39539   2.268   4.182   7.375  0.6790  0.1537  0.6266
 1012MOL0     C39540   2.174   4.233   7.481 -0.5314  0.2423  0.0784
 1012MOL0     C39541   2.044   4.151   7.493 -1.4687  0.6809 -0.3879
 1012MOL0     O39542   2.066   4.009   7.495  0.5786 -0.8816 -0.3610
 1012MOL0     C39543   2.139   3.950   7.592 -0.1701  0.4316 -0.3728
 1012MOL0     C39544   2.112   3.965   7.731 -0.2829  0.1639  0.3350
 1012MOL0     C39545   2.189   3.904   7.831  0.2697  0.2260 -0.1618
 1012MOL0     C39546   2.121   3.894   7.972 -1.0713 -0.4364  0.0058
 1012MOL0     C39547   2.309   3.852   7.792 -0.0896  0.6550  1.1731
 1012MOL0     C39548   2.393   3.790   7.891  0.0897  1.1071 -0.2911
 1012MOL0     O39549   2.456   3.669   7.857 -0.3637  0.0889 -0.0780
 1012MOL0     C39550   2.490   3.589   7.965 -0.6313 -1.0971  1.2373
 1012MOL0     C39551   2.594   3.504   7.951  0.3295  0.1579  0.4347
 1012MOL0     C39552   2.645   3.423   8.058 -1.0522  0.2249  0.1229
 1012MOL0     C39553   2.589   3.437   8.189  0.0000  1.0398 -0.3633
 1012MOL0     O39554   2.649   3.351   8.284  0.2212  0.0871  0.2030
 1012MOL0     C39555   2.572   3.329   8.401  0.1484 -0.0195  0.9165
 1012MOL0     C39556   2.622   3.213   8.477  0.9831  0.4457  0.0250
 1012MOL0     C39557   2.759   3.238   8.539 -0.4555 -0.2781 -0.2431
 1012MOL0     C39558   2.832   3.102   8.559  0.6806 -1.1016  0.4879
 1012MOL0     C39559   2.965   3.130   8.616 -0.8894 -0.5011  0.2281
 1012MOL0     C39560   3.064   3.009   8.624  0.3376 -0.2684  0.1096
 1012MOL0     C39561   3.202   3.056   8.660 -0.5960 -0.1800  0.0172
 1012MOL0     C39562   3.299   2.944   8.716  0.4751  0.2900 -0.5471
 1012MOL0    Cl39563   3.247   2.889   8.879  0.1693  0.3191 -0.1336
 1012MOL0     C39564   2.482   3.520   8.208  0.4462  0.1855 -0.6880
 1012MOL0     C39565   2.425   3.592   8.091 -0.0683  0.5165  0.2627
 1012MOL0     O39566   2.416   3.854   7.995  0.1954  0.8891  0.6754
 1012MOL0     C39567   2.338   3.833   7.651  0.0325  0.3411 -0.0908
 1012MOL0     C39568   2.260   3.885   7.550  0.4682 -0.6636  0.5172
 1012MOL0     N39569   2.142   4.420   7.214  0.1778 -0.2189 -0.1186
 1012MOL0     N39570   2.118   4.520   7.133 -0.1761 -0.2273 -0.2077
 1012MOL0     C39571   2.371   4.287   6.013 -0.6419  0.4662  0.5256
 1012MOL0     C39572   2.363   4.289   5.871  0.0284  0.4646 -0.0867
 1012MOL0     C39573   2.305   4.275   5.473 -0.5103 -1.7259  0.6448
 1012MOL0     C39574   2.346   4.403   5.433  0.4329  0.4902  0.7713
 1012MOL0     C39575   2.281   4.456   5.318 -0.7982  0.2332 -0.1311
 1012MOL0     C39576   2.172   4.395   5.247 -0.2193  0.7221  0.1608
 1012MOL0     O39577   2.112   4.439   5.129 -0.7738 -0.3661  0.0506
 1012MOL0     C39578   2.164   4.565   5.081 -0.3319  0.1322 -0.4459
 1012MOL0     C39579   2.105   4.609   4.947 -0.3269  0.2323  0.8557
 1012MOL0     C39580   1.956   4.595   4.936  0.7875 -0.0073  0.5258
 1012MOL0     C39581   1.875   4.621   5.073 -0.1580  0.6266  0.4877
 1012MOL0     C39582   1.734   4.631   5.044  1.0755  0.5047 -0.0112
 1012MOL0     C39583   1.616   4.632   5.021  0.1577  0.7390 -0.1128
 1012MOL0     C39584   2.139   4.268   5.293  1.0909 -0.0930 -0.5239
 1012MOL0     C39585   2.202   4.208   5.405  0.8231 -0.8313 -0.1014
 1012MOL0     C39586   2.137   4.082   5.448 -0.0804 -0.2991 -0.6044
 1012MOL0     H39587   2.681   4.234   5.773  1.5437 -0.1527  1.0982
 1012MOL0     H39588   2.717   4.207   6.015  0.8460  1.7320 -0.0813
 1012MOL0     H39589   2.610   4.452   6.215  1.1440  0.0890 -1.1634
 1012MOL0     H39590   2.719   4.319   6.234 -0.6793  1.7466 -0.5496
 1012MOL0     H39591   2.645   4.256   6.459  2.4636  1.9505  2.1449
 1012MOL0     H39592   2.680   4.421   6.457  2.0761  0.4195 -4.4193
 1012MOL0     H39593   2.431   4.453   6.399 -0.1862  0.4811 -0.1442
 1012MOL0     H39594   2.406   4.304   6.495 -4.1745  3.0767  0.9474
 1012MOL0     H39595   2.532   4.396   6.680  1.0699 -2.1416 -2.0877
 1012MOL0     H39596   2.555   4.547   6.583  0.3144 -0.2349 -2.0197
 1012MOL0     H39597   2.280   4.439   6.642 -0.7437  0.0951  0.9505
 1012MOL0     H39598   2.320   4.605   6.591 -0.2344 -1.0882 -2.0505
 1012MOL0     H39599   2.361   4.468   6.864 -6.1779 -2.1056 -2.3560
 1012MOL0     H39600   2.449   4.617   6.815  0.2411  0.1184 -0.3945
 1012MOL0     H39601   2.145   4.589   6.811 -0.4016  1.1264  0.7320
 1012MOL0     H39602   2.228   4.733   6.776  2.1438  0.0281 -0.8413
 1012MOL0     H39603   2.328   4.733   7.012 -0.8804  0.7430  2.2570
 1012MOL0     H39604   2.156   4.736   7.015 -0.7781 -2.2303 -0.6885
 1012MOL0     H39605   2.441   4.487   7.104 -1.0173  1.7358  0.0592
 1012MOL0     H39606   2.390   4.373   7.390 -0.1028  2.4810 -1.1697
 1012MOL0     H39607   2.439   4.245   7.271 -0.2093 -2.7948  1.0986
 1012MOL0     H39608   2.204   4.147   7.293  0.1705  2.1519  0.0966
 1012MOL0     H39609   2.334   4.102   7.409  1.8469  0.9134  0.2493
 1012MOL0     H39610   2.222   4.242   7.580  0.1974  1.1461 -0.3366
 1012MOL0     H39611   2.136   4.331   7.451  0.6793  1.0431  1.0323
 1012MOL0     H39612   1.984   4.176   7.581 -3.3733 -0.6265 -1.2494
 1012MOL0     H39613   1.989   4.170   7.401  0.9512  1.6933 -1.7140
 1012MOL0     H39614   2.022   4.021   7.755  0.2764  1.2616 -0.0775
 1012MOL0     H39615   2.125   3.989   8.026  1.2113  0.0445 -0.9072
 1012MOL0     H39616   2.166   3.812   8.029  1.0689 -1.9472 -3.5205
 1012MOL0     H39617   2.015   3.871   7.955 -0.5501 -1.6902 -1.8845
 1012MOL0     H39618   2.639   3.489   7.854  0.1427 -0.2816  0.4158
 1012MOL0     H39619   2.728   3.357   8.039 -1.9311 -0.4500 -1.6193
 1012MOL0     H39620   2.588   3.415   8.466  2.5752  1.9212 -1.9731
 1012MOL0     H39621   2.466   3.321   8.379  0.2581  0.0962  0.3509
 1012MOL0     H39622   2.550   3.180   8.553  2.1636 -3.0469 -0.2163
 1012MOL0     H39623   2.611   3.134   8.403  1.0038  0.4116  0.0579
 1012MOL0     H39624   2.730   3.282   8.634  0.7476 -1.6777  0.8118
 1012MOL0     H39625   2.825   3.307   8.485 -0.9364  1.3446  1.1551
 1012MOL0     H39626   2.852   3.061   8.460  1.4291 -1.5520  0.8119
 1012MOL0     H39627   2.766   3.037   8.619 -1.2518 -0.8180 -1.2398
 1012MOL0     H39628   3.009   3.209   8.555 -0.4161 -1.6544 -0.9687
 1012MOL0     H39629   2.943   3.161   8.719  1.5954 -0.1500  0.7194
 1012MOL0     H39630   3.065   2.956   8.528  3.1269  1.6168 -1.0389
 1012MOL0     H39631   3.026   2.933   8.692 -2.8575  0.7017 -0.4143
 1012MOL0     H39632   3.203   3.139   8.732  1.3963  2.2669 -2.5878
 1012MOL0     H39633   3.247   3.086   8.565 -0.7768  2.0790  0.5837
 1012MOL0     H39634   3.393   2.996   8.735  1.2233 -1.5588  1.1357
 1012MOL0     H39635   3.301   2.863   8.643 -0.9618 -1.8070  1.5838
 1012MOL0     H39636   2.434   3.527   8.305  1.0454  0.6274 -0.4117
 1012MOL0     H39637   2.342   3.661   8.100 -0.8487 -0.1942 -1.1291
 1012MOL0     H39638   2.429   3.786   7.617 -1.1882 -0.7034 -2.1552
 1012MOL0     H39639   2.279   3.880   7.443 -1.2935 -0.0738  0.1492
 1012MOL0     H39640   2.278   4.293   6.069 -1.8272  1.4107 -1.4531
 1012MOL0     H39641   2.264   4.309   5.832  0.3452  1.4150 -0.4392
 1012MOL0     H39642   2.439   4.442   5.471  1.5574  0.5351 -1.8410
 1012MOL0     H39643   2.320   4.551   5.282  1.0926  0.0089  1.1898
 1012MOL0     H39644   2.150   4.647   5.152  1.3035  1.0241 -1.0806
 1012MOL0     H39645   2.271   4.557   5.060 -0.3504 -2.9225  0.2275
 1012MOL0     H39646   2.164   4.559   4.870 -0.9126  2.8757 -1.4469
 1012MOL0     H39647   2.118   4.717   4.932 -1.3099 -0.0579 -3.1024
 1012MOL0     H39648   1.926   4.667   4.859 -0.2739 -0.0813  0.8572
 1012MOL0     H39649   1.938   4.493   4.901 -1.8976 -0.1981  2.1786
 1012MOL0     H39650   1.901   4.720   5.111  1.5145  1.2649 -2.0382
 1012MOL0     H39651   1.880   4.552   5.157  2.4336  0.0625 -0.0551
 1012MOL0     H39652   1.512   4.628   4.996  0.2801  0.9795 -0.6832
 1012MOL0     H39653   2.045   4.234   5.250 -0.6678  0.6231  2.4458
 1012MOL0     H39654   2.046   4.059   5.390 -1.4916 -2.0884  2.1039
 1012MOL0     H39655   2.207   3.998   5.438 -0.9081 -0.7952 -3.1703
 1012MOL0     H39656   2.100   4.094   5.550 -2.7053 -1.0777 -1.3922
 1013MOL0     O39657   1.192   1.992  10.146 -0.1202 -0.4414 -0.0960
 1013MOL0     C39658   1.088   2.005  10.209  0.2755 -0.2498  0.3654
 1013MOL0     O39659   1.074   1.963  10.340  0.1292  0.5019  0.7281
 1013MOL0     C39660   1.172   1.939  10.435  0.7658 -0.7016  0.7098
 1013MOL0     C39661   1.308   1.993  10.422  0.1475  0.3773  0.4409
 1013MOL0     C39662   1.401   1.954  10.512  0.3822 -0.2447  0.3825
 1013MOL0     C39663   1.374   1.877  10.626 -0.1440 -0.3027  0.4524
 1013MOL0     O39664   1.464   1.831  10.724 -0.4476  0.1973  0.1755
 1013MOL0     C39665   1.611   1.837  10.695 -0.3837 -0.7827 -0.2874
 1013MOL0     C39666   1.654   1.765  10.562  0.4513 -0.3219 -0.1164
 1013MOL0     C39667   1.808   1.763  10.556 -0.6602  0.1028  0.2087
 1013MOL0     C39668   1.858   1.693  10.424  0.4998  0.3384  0.6882
 1013MOL0     C39669   2.011   1.702  10.405  0.1222  0.4406  0.1525
 1013MOL0     C39670   2.061   1.623  10.284 -0.3206 -0.1143 -0.5162
 1013MOL0     C39671   2.221   1.626  10.270  0.5880 -0.3061 -0.1025
 1013MOL0     C39672   2.270   1.753  10.209 -0.3133  0.8196  0.0824
 1013MOL0     N39673   2.415   1.744  10.188  0.3639 -0.6621 -0.2580
 1013MOL0     C39674   2.473   1.659  10.103  0.7620  0.9368  0.1742
 1013MOL0     C39675   2.609   1.676  10.125  1.1114  0.1669 -0.3295
 1013MOL0     C39676   2.720   1.614  10.044 -0.1712 -1.0754 -0.1118
 1013MOL0     C39677   2.728   1.465  10.079 -0.3631 -0.0968 -0.8739
 1013MOL0     C39678   2.744   1.358   9.968  0.5213  0.2693 -0.0068
 1013MOL0     C39679   2.650   1.247  10.013 -0.2728 -0.6438  1.3006
 1013MOL0     O39680   2.686   1.137   9.922  0.4939  0.9380 -0.3660
 1013MOL0     C39681   2.581   1.055   9.879 -0.4054  0.1628 -0.4276
 1013MOL0     C39682   2.454   1.109   9.838  0.6374 -0.0839  0.1590
 1013MOL0     C39683   2.352   1.017   9.787 -0.8220 -0.1421 -0.7180
 1013MOL0     C39684   2.230   1.082   9.726 -0.3358 -0.3689 -0.1110
 1013MOL0     C39685   2.372   0.877   9.794  0.2214 -0.6147 -0.4440
 1013MOL0     C39686   2.276   0.780   9.735  0.7929 -0.3475  0.2075
 1013MOL0     O39687   2.292   0.652   9.764 -0.1493 -0.5238 -0.1060
 1013MOL0     C39688   2.208   0.549   9.727  0.0748 -0.1710  0.8716
 1013MOL0     C39689   2.180   0.452   9.820  0.4780  1.0506  0.1953
 1013MOL0     C39690   2.073   0.360   9.800 -0.9301 -0.8235 -0.2575
 1013MOL0     C39691   2.011   0.350   9.678 -0.7251 -0.0770  0.2127
 1013MOL0     O39692   1.905   0.265   9.646  0.1504  0.4024  0.1337
 1013MOL0     C39693   1.905   0.143   9.715  0.1637 -0.2387  0.3594
 1013MOL0     C39694   1.789   0.058   9.672  0.5105  0.2432  0.3720
 1013MOL0     C39695   1.662   0.131   9.699 -0.3089 -0.6796 -0.2178
 1013MOL0     C39696   1.529   0.044   9.720 -0.1934  0.3830  0.2049
 1013MOL0     C39697   1.425   0.057   9.599 -0.3733  0.2754 -0.1100
 1013MOL0     C39698   1.453  -0.034   9.483  0.8189  0.5517 -0.5361
 1013MOL0     C39699   1.397   0.015   9.358 -0.7754  0.4582  0.0744
 1013MOL0     C39700   1.449  -0.076   9.248 -0.8013 -0.6142 -0.5950
 1013MOL0    Cl39701   1.299  -0.120   9.148  0.0125 -0.0183  0.0365
 1013MOL0     C39702   2.041   0.444   9.582  0.1393 -0.1013 -0.1914
 1013MOL0     C39703   2.140   0.540   9.601 -0.9377 -0.1730 -0.4447
 1013MOL0     O39704   2.194   0.818   9.655  0.4689 -0.7753 -0.5813
 1013MOL0     C39705   2.489   0.823   9.844 -1.1233  0.2907  1.0992
 1013MOL0     C39706   2.596   0.918   9.875 -0.8880  0.6205 -0.3521
 1013MOL0     N39707   2.620   1.772  10.225  0.2837 -0.3528 -0.0874
 1013MOL0     N39708   2.508   1.822  10.248 -0.0351  0.0258 -0.8069
 1013MOL0     C39709   1.242   1.836  10.653  0.4230 -0.0986  0.6343
 1013MOL0     C39710   1.150   1.868  10.553  1.1513 -0.4574 -0.2679
 1013MOL0     C39711   0.991   2.095  10.154 -0.1724 -0.3335 -0.5743
 1013MOL0     C39712   0.921   2.170  10.251  0.1503  0.6058 -0.8827
 1013MOL0     C39713   0.837   2.270  10.215  0.6920 -1.4780  0.6475
 1013MOL0     C39714   0.833   2.317  10.076 -0.6417 -0.0829  0.0618
 1013MOL0     O39715   0.757   2.433  10.030  0.5197  0.4232  0.3558
 1013MOL0     C39716   0.665   2.488  10.127 -0.3198  0.7679 -0.5895
 1013MOL0     C39717   0.584   2.604  10.070 -0.4610 -0.2934 -1.4790
 1013MOL0     C39718   0.513   2.668  10.196 -0.1114 -0.1598 -0.9286
 1013MOL0     C39719   0.397   2.756  10.165 -0.1447  0.3050 -0.0994
 1013MOL0     C39720   0.433   2.854  10.068 -0.3152 -0.1721  0.1541
 1013MOL0     C39721   0.496   2.924   9.987  0.3043  0.2084 -0.0635
 1013MOL0     C39722   0.917   2.259   9.981 -0.2134 -0.0533 -0.2990
 1013MOL0     C39723   0.993   2.141  10.018  0.3359 -0.7277  0.3479
 1013MOL0     C39724   1.061   2.064   9.912 -0.7966  0.5155  0.1408
 1013MOL0     H39725   1.347   2.057  10.343  2.6314 -1.3692  0.1537
 1013MOL0     H39726   1.504   1.985  10.497 -0.1614  0.7836 -1.4496
 1013MOL0     H39727   1.667   1.789  10.776 -0.4258 -0.9547 -0.3611
 1013MOL0     H39728   1.632   1.944  10.699 -1.8102 -0.5112  1.8219
 1013MOL0     H39729   1.614   1.663  10.558 -1.4501  0.3449  0.7373
 1013MOL0     H39730   1.625   1.824  10.475  0.8201  2.0955  1.3236
 1013MOL0     H39731   1.846   1.866  10.560  4.5215 -1.4078 -1.7441
 1013MOL0     H39732   1.856   1.719  10.644 -1.6310  2.5711  2.0955
 1013MOL0     H39733   1.844   1.586  10.442 -0.6325  0.3493 -0.0428
 1013MOL0     H39734   1.812   1.721  10.329  1.7974  0.1819 -0.0126
 1013MOL0     H39735   2.056   1.676  10.501 -2.3739 -1.5366  0.9103
 1013MOL0     H39736   2.036   1.807  10.389  0.5590  0.2211 -0.7212
 1013MOL0     H39737   2.025   1.521  10.301 -2.0313  0.4227 -0.6788
 1013MOL0     H39738   2.021   1.651  10.186 -0.2315 -1.4343 -0.9508
 1013MOL0     H39739   2.246   1.534  10.217 -0.3285 -0.5538 -0.1166
 1013MOL0     H39740   2.265   1.610  10.369 -1.4506  0.0179  0.9078
 1013MOL0     H39741   2.217   1.782  10.118 -2.9673  3.2313  2.1967
 1013MOL0     H39742   2.240   1.842  10.267 -1.3567  0.1649  0.5755
 1013MOL0     H39743   2.433   1.584  10.035  3.7865  0.4944 -1.3037
 1013MOL0     H39744   2.807   1.670  10.082 -0.5407 -0.2484 -0.4683
 1013MOL0     H39745   2.707   1.622   9.936 -0.7308 -1.6176 -0.0866
 1013MOL0     H39746   2.820   1.453  10.137 -1.5942  1.3102  1.5534
 1013MOL0     H39747   2.653   1.441  10.155  1.0378 -0.5800  0.4046
 1013MOL0     H39748   2.720   1.395   9.868 -0.5720 -1.9200 -0.6148
 1013MOL0     H39749   2.847   1.322   9.968  1.4775  2.7223  1.5378
 1013MOL0     H39750   2.685   1.208  10.109  0.5071 -1.2411  0.7900
 1013MOL0     H39751   2.550   1.292  10.013 -0.6252 -1.3959  0.0520
 1013MOL0     H39752   2.441   1.216   9.822 -1.0889 -0.4161 -0.9119
 1013MOL0     H39753   2.236   1.190   9.744  0.7725 -0.2450 -1.0714
 1013MOL0     H39754   2.146   1.057   9.791  0.2559 -0.5091  0.6129
 1013MOL0     H39755   2.216   1.060   9.619 -3.5706  1.2562 -0.1305
 1013MOL0     H39756   2.241   0.463   9.909  2.5143 -2.3166 -0.6004
 1013MOL0     H39757   2.047   0.293   9.881 -1.1967  1.1016  1.2991
 1013MOL0     H39758   2.004   0.095   9.714  0.3966  0.1647 -2.3041
 1013MOL0     H39759   1.889   0.155   9.822  1.2225  0.0583  0.4945
 1013MOL0     H39760   1.791   0.042   9.563  1.1591 -0.8886  0.5273
 1013MOL0     H39761   1.781  -0.043   9.713  0.2170  0.1750  0.1546
 1013MOL0     H39762   1.646   0.199   9.615  1.3695  2.1362  1.5697
 1013MOL0     H39763   1.677   0.191   9.790  0.2857 -0.5391 -0.4060
 1013MOL0     H39764   1.496   0.101   9.807 -1.0490  2.4729 -1.3896
 1013MOL0     H39765   1.536  -0.063   9.741  2.3098 -0.4060 -3.5593
 1013MOL0     H39766   1.329   0.036   9.646  0.2901  1.8374  2.1312
 1013MOL0     H39767   1.409   0.156   9.557  0.5918  0.4483 -0.1100
 1013MOL0     H39768   1.407  -0.132   9.499 -0.8146  1.2039 -0.9928
 1013MOL0     H39769   1.561  -0.047   9.470  0.6861 -2.0700  0.3671
 1013MOL0     H39770   1.434   0.116   9.340  1.8355 -0.5370 -0.6486
 1013MOL0     H39771   1.288   0.013   9.363 -0.8933 -0.5746 -2.0446
 1013MOL0     H39772   1.502  -0.163   9.286 -2.6812 -1.0193  1.2467
 1013MOL0     H39773   1.516  -0.020   9.181  1.9532  0.3417  2.7048
 1013MOL0     H39774   1.994   0.449   9.485 -0.2339  0.3829  0.0074
 1013MOL0     H39775   2.163   0.607   9.518  1.4771  0.0794  0.3659
 1013MOL0     H39776   2.523   0.720   9.840  2.6570  1.3752 -2.5419
 1013MOL0     H39777   2.693   0.873   9.893 -2.4720 -4.1444 -2.2020
 1013MOL0     H39778   1.233   1.769  10.738  0.8583  0.5295  1.1961
 1013MOL0     H39779   1.050   1.825  10.556  1.7093 -1.7587  0.3909
 1013MOL0     H39780   0.935   2.159  10.358 -0.7653  2.0817 -0.5823
 1013MOL0     H39781   0.781   2.317  10.295 -1.2038 -3.4141  0.5574
 1013MOL0     H39782   0.589   2.418  10.165  3.2945 -2.2759  1.7153
 1013MOL0     H39783   0.728   2.534  10.204  2.5008 -3.8329  0.2446
 1013MOL0     H39784   0.503   2.572  10.004 -1.5531  0.0414 -0.3307
 1013MOL0     H39785   0.646   2.678  10.019 -3.0233  1.0755 -2.7407
 1013MOL0     H39786   0.476   2.589  10.262  1.1228 -0.0977 -0.1399
 1013MOL0     H39787   0.579   2.740  10.245  1.2173 -1.8992 -0.0506
 1013MOL0     H39788   0.358   2.807  10.253  1.5219  0.3273  0.6670
 1013MOL0     H39789   0.323   2.692  10.116  2.0485 -0.4276 -2.7515
 1013MOL0     H39790   0.553   2.979   9.916 -3.8800  2.9678 -1.6762
 1013MOL0     H39791   0.907   2.308   9.885  1.4275  1.6807  0.3573
 1013MOL0     H39792   1.024   2.083   9.810  0.4699 -0.5210 -0.5402
 1013MOL0     H39793   1.168   2.084   9.919 -0.4737 -1.1017  0.0787
 1013MOL0     H39794   1.037   1.959   9.931 -2.3796  0.7363 -0.4455
 1014MOL0     O39795  11.505   1.269   9.748  0.3662 -0.2836 -0.5004
 1014MOL0     C39796  11.475   1.187   9.667  0.3379 -0.8042 -0.1527
 1014MOL0     O39797  11.455   1.207   9.540  0.0965 -0.6010  0.1854
 1014MOL0     C39798  11.449   1.331   9.481  0.2742  0.6641  0.9047
 1014MOL0     C39799  11.379   1.444   9.532 -0.1169 -0.1955 -0.0912
 1014MOL0     C39800  11.371   1.557   9.459  0.8994 -0.4725 -0.0817
 1014MOL0     C39801  11.407   1.568   9.330  0.9927  0.1159 -0.2210
 1014MOL0     O39802  11.378   1.684   9.262  0.9961 -0.1246 -0.5038
 1014MOL0     C39803  11.314   1.667   9.131  0.1636 -0.7956 -0.1199
 1014MOL0     C39804  11.274   1.817   9.095 -0.2668  0.9859  0.3113
 1014MOL0     C39805  11.406   1.897   9.057  0.1084  1.0031 -0.7510
 1014MOL0     C39806  11.360   2.038   9.034 -0.0506  0.2828  0.7006
 1014MOL0     C39807  11.474   2.124   9.004  0.3342  0.2412  0.4514
 1014MOL0     C39808  11.479   2.255   9.099 -0.5600 -1.6511  0.1025
 1014MOL0     C39809  11.616   2.329   9.066 -0.0158  0.6434 -0.5066
 1014MOL0     C39810  11.628   2.387   8.924 -0.0648  0.0978 -0.1755
 1014MOL0     N39811  11.674   2.529   8.922  0.0113 -0.2499 -0.1189
 1014MOL0     C39812  11.802   2.562   8.934 -0.5697 -0.2006  0.7077
 1014MOL0     C39813  11.808   2.695   8.907  0.9505 -0.5720 -0.0714
 1014MOL0     C39814  11.931   2.771   8.920  0.8747  0.3024  1.1077
 1014MOL0     C39815  12.001   2.748   8.787  0.9134 -0.2877  0.1304
 1014MOL0     C39816  12.147   2.797   8.811  1.1185  0.4343  0.2281
 1014MOL0     C39817  12.244   2.771   8.699 -0.4757  0.4338 -0.7034
 1014MOL0     O39818  12.271   2.628   8.684 -0.8964  0.5051  0.1070
 1014MOL0     C39819  12.364   2.607   8.577  0.3572 -0.5590 -1.0491
 1014MOL0     C39820  12.495   2.650   8.581 -0.1131  1.4702  0.5980
 1014MOL0     C39821  12.576   2.624   8.468 -0.3069 -0.3958 -0.2382
 1014MOL0     C39822  12.719   2.674   8.474  0.1242  0.4990 -0.3569
 1014MOL0     C39823  12.521   2.566   8.350  0.1726  0.6793  0.1511
 1014MOL0     C39824  12.604   2.531   8.231 -0.6469 -0.2288 -0.4119
 1014MOL0     O39825  12.544   2.542   8.098 -0.4607 -0.3217 -0.0302
 1014MOL0     C39826  12.605   2.489   7.989  0.0724  1.0776  1.0295
 1014MOL0     C39827  12.659   2.571   7.896 -0.7173 -0.0903  0.4964
 1014MOL0     C39828  12.721   2.514   7.787 -1.2280 -0.4880  1.2174
 1014MOL0     C39829  12.726   2.374   7.770  0.1876 -0.2279  0.7106
 1014MOL0     O39830  12.783   2.335   7.646  0.0623  0.0213  0.5531
 1014MOL0     C39831  12.814   2.197   7.636  0.3426 -0.3205  1.5480
 1014MOL0     C39832  12.847   2.167   7.492  0.8482 -0.3115 -0.1251
 1014MOL0     C39833  12.915   2.031   7.461  0.3886  0.3999 -0.9381
 1014MOL0     C39834  12.941   2.027   7.309  0.0486  0.0147 -0.0844
 1014MOL0     C39835  13.056   1.931   7.264 -0.4310 -0.2422  0.0591
 1014MOL0     C39836  13.191   1.963   7.336  0.7761 -0.5766  0.2484
 1014MOL0     C39837  13.309   1.908   7.241  0.3669 -0.7918 -0.8625
 1014MOL0     C39838  13.312   1.981   7.111 -0.8275  0.0263 -0.1563
 1014MOL0    Cl39839  13.313   2.165   7.135  0.6455  0.3361 -0.2170
 1014MOL0     C39840  12.663   2.292   7.870 -0.1384 -0.4681 -0.2272
 1014MOL0     C39841  12.612   2.350   7.984 -0.4378  0.5013 -0.0333
 1014MOL0     O39842  12.730   2.514   8.247 -0.8858 -0.7828  1.1955
 1014MOL0     C39843  12.382   2.533   8.353  0.2515  0.5844  0.3480
 1014MOL0     C39844  12.312   2.546   8.466 -0.3203 -1.3351 -0.2672
 1014MOL0     N39845  11.675   2.743   8.893 -0.9816  0.1789  0.1167
 1014MOL0     N39846  11.598   2.643   8.896 -0.2046 -0.2218 -0.4780
 1014MOL0     C39847  11.464   1.459   9.270 -0.1098 -0.0516 -0.7551
 1014MOL0     C39848  11.488   1.347   9.346 -0.3608  0.9031 -0.2297
 1014MOL0     C39849  11.481   1.045   9.716 -0.2500  0.3746  0.6283
 1014MOL0     C39850  11.407   0.951   9.633 -1.1084  0.7358 -0.6797
 1014MOL0     C39851  11.403   0.815   9.688  0.3477 -0.4153 -0.5261
 1014MOL0     C39852  11.473   0.780   9.798  0.5548  0.7331  0.5865
 1014MOL0     O39853  11.482   0.650   9.848 -0.7174  1.0060  0.0114
 1014MOL0     C39854  11.391   0.543   9.832  0.6703 -0.6049 -0.0225
 1014MOL0     C39855  11.249   0.593   9.889  0.7239 -0.2946  0.8005
 1014MOL0     C39856  11.155   0.478   9.915 -0.5736  0.8766  0.8454
 1014MOL0     C39857  11.134   0.453  10.063 -0.6119  0.4826 -0.6341
 1014MOL0     C39858  11.060   0.315  10.077  0.3898  0.3258 -0.3177
 1014MOL0     C39859  11.006   0.203  10.095  0.9450 -0.4706 -0.6362
 1014MOL0     C39860  11.557   0.866   9.864  0.0045  0.3676  0.2479
 1014MOL0     C39861  11.565   1.002   9.826  0.1137 -0.3631 -0.4091
 1014MOL0     C39862  11.647   1.084   9.922 -0.8040 -0.2179  0.4563
 1014MOL0     H39863  11.321   1.433   9.622 -2.0426 -0.9835 -1.3602
 1014MOL0     H39864  11.329   1.636   9.521  1.5295 -0.4670  0.3493
 1014MOL0     H39865  11.221   1.609   9.130  0.8583 -1.9282 -1.2957
 1014MOL0     H39866  11.378   1.631   9.050 -0.1027  3.1170 -2.3616
 1014MOL0     H39867  11.206   1.801   9.011 -1.7123 -4.1365  2.0978
 1014MOL0     H39868  11.223   1.863   9.181 -0.3379  3.0580 -0.7759
 1014MOL0     H39869  11.484   1.887   9.134  2.0363 -3.5321 -2.9258
 1014MOL0     H39870  11.454   1.848   8.972 -1.0863 -1.9650  0.1539
 1014MOL0     H39871  11.286   2.054   8.954  0.2725  1.6703  0.6588
 1014MOL0     H39872  11.313   2.088   9.119  4.1505  3.1748  1.6004
 1014MOL0     H39873  11.475   2.144   8.896 -0.2345 -2.3949 -0.1322
 1014MOL0     H39874  11.566   2.066   9.016  0.8996  1.2015  0.7972
 1014MOL0     H39875  11.396   2.321   9.073  1.8656  0.6576 -2.4977
 1014MOL0     H39876  11.479   2.223   9.203  2.3311 -0.1818  0.6782
 1014MOL0     H39877  11.702   2.265   9.089  2.3968  2.9843 -2.4204
 1014MOL0     H39878  11.611   2.413   9.136 -2.8235 -0.0027  0.1962
 1014MOL0     H39879  11.696   2.331   8.860 -1.5219 -0.0575 -1.6747
 1014MOL0     H39880  11.532   2.393   8.871  0.7244  0.1352 -1.6540
 1014MOL0     H39881  11.885   2.495   8.955 -0.0385 -0.2855 -1.4811
 1014MOL0     H39882  11.991   2.732   9.003 -1.7004 -1.7524  2.1086
 1014MOL0     H39883  11.912   2.879   8.930  1.8225  0.8573 -1.9568
 1014MOL0     H39884  11.997   2.640   8.767  0.4682 -0.0702 -1.0318
 1014MOL0     H39885  11.947   2.794   8.704 -0.6190 -1.8394  0.2086
 1014MOL0     H39886  12.143   2.906   8.811  1.1506  0.4519 -1.0362
 1014MOL0     H39887  12.185   2.764   8.908 -0.6949 -0.0724  0.8038
 1014MOL0     H39888  12.204   2.806   8.603  0.2376 -3.6114 -2.6943
 1014MOL0     H39889  12.336   2.825   8.721  1.0806 -0.2043 -4.7746
 1014MOL0     H39890  12.535   2.694   8.672 -0.3705 -0.2549  1.5874
 1014MOL0     H39891  12.743   2.741   8.392  1.8494  1.5042  0.8931
 1014MOL0     H39892  12.788   2.589   8.478 -1.3254 -0.7459 -1.1919
 1014MOL0     H39893  12.737   2.721   8.571  4.0754 -0.2628 -0.5319
 1014MOL0     H39894  12.646   2.678   7.914  0.4188  0.8152 -3.2806
 1014MOL0     H39895  12.756   2.587   7.714 -2.4753  1.3606  2.3481
 1014MOL0     H39896  12.903   2.174   7.697  3.2611 -1.0138 -2.5853
 1014MOL0     H39897  12.732   2.138   7.679  1.1858 -0.1970  3.4686
 1014MOL0     H39898  12.752   2.189   7.443  0.1217  0.2699  1.4549
 1014MOL0     H39899  12.916   2.244   7.458  0.4399  0.3874  0.6003
 1014MOL0     H39900  12.845   1.950   7.484 -0.8468  1.3242 -1.3211
 1014MOL0     H39901  13.002   2.009   7.524 -1.8344  0.2615  2.3043
 1014MOL0     H39902  12.970   2.130   7.287  1.7809  0.0155  1.8984
 1014MOL0     H39903  12.850   2.012   7.250  0.4385 -0.7264 -0.5065
 1014MOL0     H39904  13.033   1.825   7.277  1.3673 -0.7075 -0.2949
 1014MOL0     H39905  13.062   1.957   7.158 -1.5179  0.4322  0.1518
 1014MOL0     H39906  13.203   1.929   7.439  0.3742  0.9512  0.8367
 1014MOL0     H39907  13.190   2.071   7.355  0.5984 -0.6902  0.9321
 1014MOL0     H39908  13.299   1.801   7.220  0.1096 -0.9584  0.0636
 1014MOL0     H39909  13.399   1.924   7.301  0.6666 -0.3035 -1.4235
 1014MOL0     H39910  13.227   1.954   7.048 -0.9774  0.5000 -0.1605
 1014MOL0     H39911  13.404   1.947   7.063  0.4728  2.8226  0.1196
 1014MOL0     H39912  12.665   2.183   7.872 -0.3274 -0.5113 -1.7757
 1014MOL0     H39913  12.574   2.285   8.063  2.1439 -0.6629  0.3722
 1014MOL0     H39914  12.343   2.489   8.261 -0.5102  1.2254  0.3513
 1014MOL0     H39915  12.217   2.497   8.487  0.4074 -1.9527  1.8020
 1014MOL0     H39916  11.488   1.445   9.165  1.2797 -2.2433 -0.2096
 1014MOL0     H39917  11.539   1.260   9.306  0.5500  1.0960  0.4755
 1014MOL0     H39918  11.363   0.979   9.538 -0.4531  2.7606 -0.4563
 1014MOL0     H39919  11.333   0.750   9.638 -1.0178  2.4729 -2.7115
 1014MOL0     H39920  11.368   0.525   9.727 -0.3799 -0.3022  0.1497
 1014MOL0     H39921  11.423   0.453   9.886 -0.4565 -0.1945  1.3907
 1014MOL0     H39922  11.205   0.660   9.814  2.4172  0.2790  0.2466
 1014MOL0     H39923  11.254   0.643   9.986 -0.4715 -1.8469  1.6854
 1014MOL0     H39924  11.055   0.493   9.873 -1.5348 -4.5693  0.4165
 1014MOL0     H39925  11.195   0.392   9.860 -3.3387  0.1793 -0.3113
 1014MOL0     H39926  11.083   0.538  10.110 -0.9262 -0.7205  1.3322
 1014MOL0     H39927  11.232   0.452  10.112  0.1367 -2.4624 -1.9289
 1014MOL0     H39928  10.959   0.107  10.083  0.2973 -0.0911 -1.2075
 1014MOL0     H39929  11.608   0.824   9.950  1.3636  1.3884 -0.0273
 1014MOL0     H39930  11.585   1.143   9.991  0.3814 -0.3897  1.7070
 1014MOL0     H39931  11.714   1.015   9.974  2.9749 -0.0603 -3.5526
 1014MOL0     H39932  11.730   1.144   9.883 -0.2990 -1.1799  0.0097
 1015MOL0     O39933   2.722  11.468   0.371  0.3714  0.3551 -0.2726
 1015MOL0     C39934   2.822  11.528   0.346  0.7288 -0.0239 -0.5564
 1015MOL0     O39935   2.880  11.542   0.222 -0.1335 -0.8770  0.4948
 1015MOL0     C39936   2.820  11.505   0.102 -0.1429 -1.2372  0.3158
 1015MOL0     C39937   2.686  11.520   0.070  0.7106 -1.0218  0.0827
 1015MOL0     C39938   2.623  11.471  -0.044  0.6127 -0.1822 -0.4445
 1015MOL0     C39939   2.694  11.384  -0.129 -0.0818 -0.1177 -0.3323
 1015MOL0     O39940   2.633  11.334  -0.241 -0.8025 -0.5520  0.2921
 1015MOL0     C39941   2.702  11.253  -0.330  0.5048  0.3873 -0.7898
 1015MOL0     C39942   2.627  11.235  -0.459  0.8013  0.2146  0.1625
 1015MOL0     C39943   2.664  11.113  -0.525 -0.1260 -0.1658 -0.3661
 1015MOL0     C39944   2.793  11.138  -0.602 -0.4277  0.4413 -0.2976
 1015MOL0     C39945   2.876  11.004  -0.621 -0.4675 -0.3140 -0.4378
 1015MOL0     C39946   3.007  11.029  -0.702  0.1901  0.3784 -0.0133
 1015MOL0     C39947   3.094  10.900  -0.736 -0.4662 -0.3419 -0.5167
 1015MOL0     C39948   3.155  10.828  -0.614 -0.7501  1.4981  0.0865
 1015MOL0     N39949   3.210  10.698  -0.656  0.8352 -0.0549  0.1977
 1015MOL0     C39950   3.125  10.594  -0.697  0.1222 -0.6099 -0.1721
 1015MOL0     C39951   3.217  10.497  -0.720  0.5496 -0.1494  0.1982
 1015MOL0     C39952   3.175  10.345  -0.750  0.0428 -0.5322  0.7917
 1015MOL0     C39953   3.144  10.279  -0.615  0.3193  0.1516  0.5477
 1015MOL0     C39954   3.275  10.235  -0.550 -0.7430 -0.1417 -0.2511
 1015MOL0     C39955   3.250  10.218  -0.399 -0.2141  0.6721  1.0380
 1015MOL0     O39956   3.354  10.129  -0.351 -0.5413  0.1592  0.0725
 1015MOL0     C39957   3.477  10.157  -0.300 -0.3838  0.1219  0.3560
 1015MOL0     C39958   3.538  10.051  -0.224  0.0921  0.6691  0.0072
 1015MOL0     C39959   3.672  10.063  -0.187 -0.5647 -0.0332  0.3465
 1015MOL0     C39960   3.727   9.936  -0.109 -0.5430  0.2668  0.2717
 1015MOL0     C39961   3.750  10.183  -0.213 -0.3113  0.0396  0.2605
 1015MOL0     C39962   3.889  10.206  -0.175  0.4221  0.4240  0.5285
 1015MOL0     O39963   3.934  10.333  -0.189  0.2272  0.1657  0.1354
 1015MOL0     C39964   4.068  10.361  -0.198 -0.0732  0.2966 -1.5904
 1015MOL0     C39965   4.152  10.331  -0.091 -0.6182 -0.7837 -0.3717
 1015MOL0     C39966   4.294  10.350  -0.091  0.0777 -0.3437 -0.1691
 1015MOL0     C39967   4.349  10.423  -0.198 -0.6564  0.0351  0.4439
 1015MOL0     O39968   4.474  10.480  -0.198 -0.1361 -0.6999  0.9471
 1015MOL0     C39969   4.593  10.408  -0.157 -0.1755  0.3637 -0.3907
 1015MOL0     C39970   4.721  10.486  -0.188  0.5481 -0.1724 -0.4572
 1015MOL0     C39971   4.725  10.602  -0.084 -0.1781 -0.8849 -0.3668
 1015MOL0     C39972   4.862  10.688  -0.079 -0.2256  0.6680 -0.3498
 1015MOL0     C39973   4.879  10.785   0.042 -0.7820 -0.0804 -0.0724
 1015MOL0     C39974   4.956  10.917   0.005  1.2149  1.1335  0.1056
 1015MOL0     C39975   5.100  10.907  -0.018  0.0438  0.1297 -0.3321
 1015MOL0     C39976   5.170  10.878   0.114  0.7311 -0.6571  0.5967
 1015MOL0    Cl39977   5.351  10.892   0.099  0.7355  0.0581 -0.1501
 1015MOL0     C39978   4.257  10.461  -0.304  0.5334 -0.1205  0.6778
 1015MOL0     C39979   4.125  10.423  -0.309  0.3073  0.4209  0.6696
 1015MOL0     O39980   3.965  10.116  -0.140  0.2487 -0.0916  0.7548
 1015MOL0     C39981   3.695  10.278  -0.305  0.6803  0.0566 -0.3297
 1015MOL0     C39982   3.559  10.267  -0.341 -0.7924  0.1244  0.6390
 1015MOL0     N39983   3.343  10.545  -0.702  0.0615  0.1494 -0.0587
 1015MOL0     N39984   3.342  10.654  -0.650  0.1127  0.1000  0.3377
 1015MOL0     C39985   2.827  11.369  -0.097 -0.2264  0.0942  0.3150
 1015MOL0     C39986   2.899  11.431   0.011  0.2112  0.7150  0.3688
 1015MOL0     C39987   2.901  11.601   0.456 -0.0610  0.0853 -0.3166
 1015MOL0     C39988   3.023  11.649   0.432  0.2638 -0.8994  0.4934
 1015MOL0     C39989   3.106  11.721   0.528  0.0235  0.6712 -0.5761
 1015MOL0     C39990   3.068  11.723   0.670 -0.9680  0.4420  0.7676
 1015MOL0     O39991   3.141  11.796   0.761 -0.6026 -0.1360  0.0563
 1015MOL0     C39992   3.092  11.816   0.896  0.5734 -0.3242 -0.2036
 1015MOL0     C39993   3.214  11.802   0.993  0.2952 -0.6710  0.4406
 1015MOL0     C39994   3.327  11.900   0.943  0.4194 -0.4942  0.1656
 1015MOL0     C39995   3.421  11.920   1.063 -0.7676  0.6068  0.8582
 1015MOL0     C39996   3.547  11.993   1.037  0.5585 -0.1058 -0.3146
 1015MOL0     C39997   3.640  12.064   1.012 -0.5339  0.0329 -0.8278
 1015MOL0     C39998   2.940  11.675   0.693  0.2396  0.3985  0.0195
 1015MOL0     C39999   2.855  11.620   0.592  0.0923  0.8311 -0.3732
 1015MOL0     C40000   2.723  11.570   0.636 -0.5666  0.7218  0.3938
 1015MOL0     H40001   2.631  11.568   0.151  2.4184 -0.2816  0.8726
 1015MOL0     H40002   2.518  11.496  -0.055  0.9843  1.7198 -0.0029
 1015MOL0     H40003   2.707  11.152  -0.288  3.2418  0.7564 -0.0778
 1015MOL0     H40004   2.804  11.281  -0.355 -0.5842  1.9293 -4.1225
 1015MOL0     H40005   2.520  11.228  -0.434  1.2330  2.5614  3.4208
 1015MOL0     H40006   2.628  11.327  -0.518 -1.0907  1.1842  1.5242
 1015MOL0     H40007   2.690  11.034  -0.453  2.7382  1.0823  0.0981
 1015MOL0     H40008   2.578  11.094  -0.589  0.6711  3.8541 -2.9743
 1015MOL0     H40009   2.768  11.189  -0.695  2.9117  0.2920 -1.3748
 1015MOL0     H40010   2.859  11.192  -0.534  0.4049  0.1154 -0.8374
 1015MOL0     H40011   2.822  10.930  -0.680 -1.0184  1.4862 -2.3209
 1015MOL0     H40012   2.904  10.963  -0.524  1.7417 -1.1747 -1.3820
 1015MOL0     H40013   2.984  11.069  -0.801  0.0588  0.5213  0.0748
 1015MOL0     H40014   3.071  11.103  -0.654  1.0873 -0.6029  0.3355
 1015MOL0     H40015   3.176  10.924  -0.804  0.1955  0.6592  0.5867
 1015MOL0     H40016   3.022  10.835  -0.786 -2.2101  0.0250  1.3968
 1015MOL0     H40017   3.250  10.875  -0.586 -0.1420  0.1610  0.3574
 1015MOL0     H40018   3.090  10.812  -0.528  0.8669 -0.0997  1.0769
 1015MOL0     H40019   3.017  10.589  -0.699  0.1626 -2.0458 -0.0558
 1015MOL0     H40020   3.262  10.303  -0.802  1.6803  0.8199  2.3232
 1015MOL0     H40021   3.092  10.341  -0.821  2.1408 -1.2640 -1.8058
 1015MOL0     H40022   3.072  10.331  -0.551  0.7749 -0.2467  1.4149
 1015MOL0     H40023   3.110  10.178  -0.643  3.7853 -0.4118 -2.3176
 1015MOL0     H40024   3.325  10.149  -0.597  0.5515 -0.6107  1.8619
 1015MOL0     H40025   3.348  10.315  -0.563  1.2748 -1.6702  0.9783
 1015MOL0     H40026   3.252  10.319  -0.356 -1.4647  0.8382  0.7348
 1015MOL0     H40027   3.156  10.162  -0.394  1.0658 -1.7856 -0.6652
 1015MOL0     H40028   3.471   9.971  -0.194  0.9721  0.3297  1.1755
 1015MOL0     H40029   3.810   9.969  -0.046 -0.4636  2.8372 -1.0550
 1015MOL0     H40030   3.762   9.871  -0.189 -0.4176 -1.8324  1.9548
 1015MOL0     H40031   3.645   9.891  -0.051 -0.7327 -1.9813 -1.6196
 1015MOL0     H40032   4.113  10.289   0.001 -0.2611  0.3622  0.3312
 1015MOL0     H40033   4.363  10.326  -0.011  0.6441  1.0014 -0.2292
 1015MOL0     H40034   4.601  10.403  -0.048  3.9061 -1.0211 -0.5769
 1015MOL0     H40035   4.605  10.307  -0.198  4.0253 -0.0933  1.4217
 1015MOL0     H40036   4.808  10.421  -0.171  0.1402 -1.8732 -3.9051
 1015MOL0     H40037   4.723  10.522  -0.291  0.9008 -0.2992 -0.4994
 1015MOL0     H40038   4.717  10.564   0.018 -1.8152 -0.6613 -0.3848
 1015MOL0     H40039   4.639  10.667  -0.103 -0.5891 -0.7695  1.6673
 1015MOL0     H40040   4.880  10.743  -0.172  1.4099  2.6676  1.0685
 1015MOL0     H40041   4.943  10.615  -0.065 -1.6186 -0.6217  1.3813
 1015MOL0     H40042   4.779  10.814   0.077 -1.4074 -3.1502  1.0179
 1015MOL0     H40043   4.933  10.723   0.113  1.8433  1.4013 -0.6515
 1015MOL0     H40044   4.943  10.991   0.084  1.2803  2.3213 -0.9564
 1015MOL0     H40045   4.902  10.956  -0.082 -1.8415 -0.7847  1.0036
 1015MOL0     H40046   5.133  11.003  -0.060 -0.3090 -0.2784 -1.5968
 1015MOL0     H40047   5.118  10.829  -0.092 -3.1733 -1.7806  0.6819
 1015MOL0     H40048   5.144  10.772   0.124 -3.2227 -0.1016 -1.7910
 1015MOL0     H40049   5.127  10.936   0.196 -3.0212 -2.2575 -0.0161
 1015MOL0     H40050   4.310  10.524  -0.374  1.3175 -0.9028  0.5497
 1015MOL0     H40051   4.055  10.459  -0.383  2.4890  2.2817 -0.6120
 1015MOL0     H40052   3.748  10.365  -0.342  1.7288 -0.2991  0.2689
 1015MOL0     H40053   3.529  10.344  -0.412  0.7652  1.2003  1.0954
 1015MOL0     H40054   2.886  11.298  -0.155 -1.3717 -1.0854  0.5222
 1015MOL0     H40055   3.003  11.402   0.024 -0.6392 -4.1484 -1.5165
 1015MOL0     H40056   3.064  11.640   0.331 -0.5992 -0.7026  0.1163
 1015MOL0     H40057   3.203  11.762   0.501 -0.3177  0.5583 -2.0742
 1015MOL0     H40058   3.052  11.918   0.905 -0.3761 -0.7995  1.5448
 1015MOL0     H40059   3.013  11.747   0.924  0.0174 -0.2158 -1.4709
 1015MOL0     H40060   3.224  11.693   0.989 -4.0593 -1.2317 -0.9138
 1015MOL0     H40061   3.185  11.822   1.096 -0.9649  1.6013 -0.2912
 1015MOL0     H40062   3.379  11.863   0.855 -2.0948  0.6476 -1.9352
 1015MOL0     H40063   3.285  11.994   0.907  1.3285  0.2500  0.9521
 1015MOL0     H40064   3.452  11.822   1.100 -1.5281  1.0766  2.8367
 1015MOL0     H40065   3.372  11.969   1.148 -1.3891  0.4815  0.5782
 1015MOL0     H40066   3.723  12.126   0.985  1.6085 -1.0726  2.5609
 1015MOL0     H40067   2.887  11.665   0.788 -0.9132 -0.6951 -0.7012
 1015MOL0     H40068   2.732  11.461   0.632  0.6352  0.7725  1.2577
 1015MOL0     H40069   2.695  11.599   0.737 -1.4887 -0.1079  0.3801
 1015MOL0     H40070   2.651  11.613   0.565 -0.5508  0.9355  0.5063
 1016MOL0     O40071  10.909   2.328  10.565  0.1065 -0.0266 -0.3518
 1016MOL0     C40072  10.898   2.206  10.587 -0.6684 -0.5407 -0.2650
 1016MOL0     O40073  10.960   2.106  10.506 -0.3267 -0.3851 -0.4442
 1016MOL0     C40074  11.070   2.149  10.444 -0.4587 -0.0917 -0.2258
 1016MOL0     C40075  11.090   2.083  10.325 -0.4053 -0.7676  0.5401
 1016MOL0     C40076  11.206   2.118  10.246 -1.1278 -0.8138 -0.3190
 1016MOL0     C40077  11.300   2.211  10.296 -1.6436  0.1890  0.4324
 1016MOL0     O40078  11.406   2.250  10.199  0.6874  0.2762  0.2632
 1016MOL0     C40079  11.509   2.338  10.233 -0.3405  1.0854 -0.6563
 1016MOL0     C40080  11.537   2.441  10.120  1.0696 -0.2809  0.5724
 1016MOL0     C40081  11.427   2.542  10.100  0.6544 -1.9748  0.0577
 1016MOL0     C40082  11.419   2.656  10.206  0.0925  0.2465 -0.9852
 1016MOL0     C40083  11.292   2.741  10.177  0.3260 -0.2018  0.3633
 1016MOL0     C40084  11.280   2.848  10.284 -0.3166  0.4612 -0.0845
 1016MOL0     C40085  11.180   2.961  10.246  0.4865  0.3634 -0.7029
 1016MOL0     C40086  11.166   3.002  10.094 -0.5723  0.3713  0.1162
 1016MOL0     N40087  11.097   3.129  10.069 -0.6499 -0.4792  0.7196
 1016MOL0     C40088  10.969   3.166  10.109 -0.7188  0.2056  0.5623
 1016MOL0     C40089  10.964   3.301  10.115  0.1063  0.7233  0.3259
 1016MOL0     C40090  10.844   3.382  10.148  0.4832  0.3495 -0.8030
 1016MOL0     C40091  10.856   3.441  10.285  0.0868 -0.6731 -0.9802
 1016MOL0     C40092  10.764   3.559  10.309 -1.3533  0.5563 -0.8948
 1016MOL0     C40093  10.618   3.512  10.308  0.4909 -0.2617 -0.3885
 1016MOL0     O40094  10.525   3.623  10.311 -0.0477 -0.3978  0.0778
 1016MOL0     C40095  10.551   3.737  10.388 -0.2603  0.5227  0.3148
 1016MOL0     C40096  10.545   3.728  10.538  0.2778 -0.3451 -0.1229
 1016MOL0     C40097  10.556   3.849  10.613 -0.3621 -0.1923 -0.7788
 1016MOL0     C40098  10.549   3.826  10.767 -0.5856  0.2899 -0.5945
 1016MOL0     C40099  10.577   3.983  10.553 -0.5820  0.5202 -0.6186
 1016MOL0     C40100  10.600   4.108  10.619  1.2236  0.0468 -0.1943
 1016MOL0     O40101  10.645   4.219  10.537  0.0530 -0.7891  0.3147
 1016MOL0     C40102  10.670   4.344  10.596  0.3384 -0.0325  0.3766
 1016MOL0     C40103  10.778   4.419  10.547  0.5374 -0.0432 -0.8526
 1016MOL0     C40104  10.786   4.558  10.586  0.4844  0.5130  0.8847
 1016MOL0     C40105  10.691   4.620  10.664  0.1624 -0.0704 -0.0057
 1016MOL0     O40106  10.689   4.751  10.712 -0.1836 -0.4282  0.3348
 1016MOL0     C40107  10.816   4.822  10.706  1.2333 -0.3005 -0.0172
 1016MOL0     C40108  10.770   4.968  10.748  0.5948 -0.0108 -0.6913
 1016MOL0     C40109  10.764   5.001  10.895 -0.0930 -0.3052  0.1844
 1016MOL0     C40110  10.906   5.037  10.962 -0.2094 -0.0860  0.3847
 1016MOL0     C40111  10.997   4.924  10.957  0.1377 -0.3540  0.9136
 1016MOL0     C40112  11.124   4.969  11.029 -0.3242  0.3459  1.2634
 1016MOL0     C40113  11.111   5.018  11.175 -0.4720 -0.6812  0.3558
 1016MOL0     C40114  11.244   5.028  11.252 -0.6527  0.3687 -0.6458
 1016MOL0    Cl40115  11.345   5.155  11.194 -0.4610  0.7186 -0.0989
 1016MOL0     C40116  10.580   4.542  10.700  0.8258 -0.4857 -0.6327
 1016MOL0     C40117  10.564   4.408  10.663 -0.3751  0.2037  0.4457
 1016MOL0     O40118  10.571   4.110  10.738  0.0473  0.7201  0.7601
 1016MOL0     C40119  10.588   3.979  10.417  0.4216  0.5814 -0.1610
 1016MOL0     C40120  10.571   3.863  10.334 -0.1119  0.1127  0.5633
 1016MOL0     N40121  11.089   3.344  10.087  1.1926 -0.1782  0.8417
 1016MOL0     N40122  11.163   3.251  10.050  0.9688  0.3299 -0.5286
 1016MOL0     C40123  11.284   2.270  10.425  0.1811  0.5850  0.1928
 1016MOL0     C40124  11.170   2.235  10.497  0.4709  0.2537  0.4099
 1016MOL0     C40125  10.783   2.172  10.667  1.3530 -0.0819 -0.1160
 1016MOL0     C40126  10.728   2.048  10.642 -0.9563  0.3007  0.0536
 1016MOL0     C40127  10.622   1.993  10.723 -0.7789 -0.3885  0.6300
 1016MOL0     C40128  10.557   2.077  10.815 -0.1416 -0.8895 -1.1639
 1016MOL0     O40129  10.431   2.045  10.871 -0.2298  0.1215  0.2731
 1016MOL0     C40130  10.375   1.918  10.840 -0.2153 -0.5200 -0.7979
 1016MOL0     C40131  10.443   1.819  10.917 -0.0244 -0.9316 -0.6138
 1016MOL0     C40132  10.430   1.664  10.881 -0.4259  0.4615  0.8695
 1016MOL0     C40133  10.293   1.601  10.901  0.1028 -0.4395 -0.5954
 1016MOL0     C40134  10.272   1.587  11.043 -0.2152 -0.0169  0.1295
 1016MOL0     C40135  10.253   1.576  11.163 -0.1934  0.4980  0.6620
 1016MOL0     C40136  10.611   2.200  10.839 -0.0106  0.1040  0.4066
 1016MOL0     C40137  10.715   2.255  10.765 -0.1105 -1.4078 -0.7059
 1016MOL0     C40138  10.755   2.396  10.805  0.0070  0.7802  0.4477
 1016MOL0     H40139  11.020   2.013  10.282 -1.7256  0.2282  1.0109
 1016MOL0     H40140  11.217   2.073  10.148 -2.9219 -0.1684 -0.8577
 1016MOL0     H40141  11.607   2.291  10.253 -2.0223 -1.0159  4.3834
 1016MOL0     H40142  11.481   2.384  10.328 -2.5199  1.8354 -1.6062
 1016MOL0     H40143  11.624   2.505  10.136  0.7871  0.5075 -0.9099
 1016MOL0     H40144  11.532   2.389  10.024  0.5484  0.5158  0.1612
 1016MOL0     H40145  11.429   2.575   9.996 -1.3531 -4.8370 -1.0332
 1016MOL0     H40146  11.329   2.497  10.119 -1.3734  2.5166  1.6220
 1016MOL0     H40147  11.420   2.607  10.304  0.0192 -2.6309 -2.3074
 1016MOL0     H40148  11.504   2.725  10.205  0.9089 -0.5376  1.9714
 1016MOL0     H40149  11.202   2.679  10.172  0.2529 -0.0838  0.2022
 1016MOL0     H40150  11.308   2.783  10.078  1.4401  1.6201  1.2536
 1016MOL0     H40151  11.249   2.789  10.371 -0.9133 -1.6405 -1.6415
 1016MOL0     H40152  11.382   2.887  10.295 -0.1213 -0.3642  1.3859
 1016MOL0     H40153  11.205   3.051  10.304 -0.6447 -1.8946  3.6974
 1016MOL0     H40154  11.080   2.937  10.284  1.0789  0.9393  1.3325
 1016MOL0     H40155  11.265   3.007  10.046 -1.9369  0.0838 -2.9929
 1016MOL0     H40156  11.124   2.914  10.044  1.5003 -1.4164  1.3650
 1016MOL0     H40157  10.880   3.105  10.125  0.1204 -1.4725 -0.8460
 1016MOL0     H40158  10.767   3.305  10.139  1.3824 -0.6987  0.1775
 1016MOL0     H40159  10.833   3.461  10.073  4.2716  1.6741 -0.1545
 1016MOL0     H40160  10.828   3.365  10.359 -0.1427  1.4484  1.2521
 1016MOL0     H40161  10.960   3.469  10.305  0.0618 -0.1045 -1.6035
 1016MOL0     H40162  10.785   3.605  10.406 -3.1615  1.3860 -0.8711
 1016MOL0     H40163  10.805   3.635  10.241  0.1527 -0.1363 -0.8172
 1016MOL0     H40164  10.587   3.455  10.220 -2.3035  0.3588  0.0978
 1016MOL0     H40165  10.589   3.452  10.395 -0.6905  1.5672  0.5356
 1016MOL0     H40166  10.528   3.643  10.604 -2.2312 -0.8827 -1.3183
 1016MOL0     H40167  10.473   3.897  10.800 -1.7313  0.1095 -2.6581
 1016MOL0     H40168  10.646   3.849  10.810 -1.2858  0.6916  0.7999
 1016MOL0     H40169  10.524   3.722  10.790 -1.5428  0.6361 -0.0566
 1016MOL0     H40170  10.856   4.356  10.504  0.1709 -3.3926  2.7580
 1016MOL0     H40171  10.876   4.604  10.548  0.7234  0.3524  1.2563
 1016MOL0     H40172  10.892   4.781  10.773  2.8024 -2.8072 -3.0976
 1016MOL0     H40173  10.846   4.823  10.601  1.4363 -1.7576  0.0066
 1016MOL0     H40174  10.834   5.041  10.697 -0.4453  2.9253  1.9132
 1016MOL0     H40175  10.665   4.992  10.730  0.0933 -3.2111 -2.9250
 1016MOL0     H40176  10.713   4.923  10.952  1.8049 -0.5862  1.6018
 1016MOL0     H40177  10.696   5.085  10.911  0.7321 -0.0900  3.1251
 1016MOL0     H40178  10.877   5.061  11.065 -1.3173  3.1351 -0.5561
 1016MOL0     H40179  10.944   5.135  10.933  1.3694 -0.4087  1.2728
 1016MOL0     H40180  10.957   4.828  10.993  1.5321 -1.9948 -1.5841
 1016MOL0     H40181  11.037   4.908  10.857  1.8742 -1.8336  1.7746
 1016MOL0     H40182  11.163   5.052  10.968  0.2756 -2.4064 -2.4489
 1016MOL0     H40183  11.203   4.893  11.027  1.5301  2.1584 -0.8801
 1016MOL0     H40184  11.042   4.951  11.225 -0.2538 -3.0122 -2.2286
 1016MOL0     H40185  11.083   5.124  11.170  4.2225  0.8266  0.6437
 1016MOL0     H40186  11.308   4.941  11.239 -0.7792  0.2586 -0.5282
 1016MOL0     H40187  11.213   5.042  11.356  0.2880  2.6486 -0.6083
 1016MOL0     H40188  10.504   4.584  10.765 -0.0269  1.4049 -2.7017
 1016MOL0     H40189  10.475   4.353  10.692  0.9373 -0.6404  3.1413
 1016MOL0     H40190  10.586   4.071  10.359 -2.6358  0.1474 -0.9388
 1016MOL0     H40191  10.581   3.890  10.229 -1.6448 -0.1302  0.3238
 1016MOL0     H40192  11.352   2.337  10.476  0.2790  0.1104  0.7042
 1016MOL0     H40193  11.161   2.286  10.593  1.1759  0.0076  0.6125
 1016MOL0     H40194  10.758   1.972  10.571  5.0180  2.4290 -0.2374
 1016MOL0     H40195  10.590   1.891  10.702  1.4848 -1.6677  2.9314
 1016MOL0     H40196  10.267   1.930  10.849 -0.5745 -3.6354 -0.1357
 1016MOL0     H40197  10.394   1.891  10.736  2.1019 -2.7580  0.0945
 1016MOL0     H40198  10.396   1.835  11.015  1.7822  0.0143  0.1460
 1016MOL0     H40199  10.547   1.851  10.923 -0.2323  0.2050 -2.4451
 1016MOL0     H40200  10.462   1.632  10.782 -0.1758  0.0178  1.0873
 1016MOL0     H40201  10.498   1.614  10.951  1.8487 -0.8899 -2.0869
 1016MOL0     H40202  10.294   1.500  10.861  3.4212  0.0815 -2.1861
 1016MOL0     H40203  10.217   1.659  10.849 -1.9415 -1.1900  1.3934
 1016MOL0     H40204  10.247   1.567  11.269 -2.1819 -1.0352  0.4890
 1016MOL0     H40205  10.569   2.263  10.916 -0.0160  1.0544 -0.3609
 1016MOL0     H40206  10.858   2.393  10.841  0.1445 -2.3389  0.0824
 1016MOL0     H40207  10.750   2.454  10.712 -1.3335 -0.4710 -0.3030
 1016MOL0     H40208  10.692   2.447  10.879  0.4518  0.8147  0.8059
 1017MOL0     O40209   0.232   6.775   5.559 -0.9206 -1.1079  0.2377
 1017MOL0     C40210   0.218   6.795   5.437  0.3124 -0.2115 -0.7837
 1017MOL0     O40211   0.316   6.782   5.342  0.2905  0.8476 -0.0855
 1017MOL0     C40212   0.441   6.771   5.396  0.5904 -0.2182 -0.0470
 1017MOL0     C40213   0.487   6.643   5.431 -0.2060  0.9721  0.5176
 1017MOL0     C40214   0.616   6.629   5.473 -0.3857 -0.7353 -0.1279
 1017MOL0     C40215   0.707   6.734   5.473 -0.3460  0.2275 -0.0724
 1017MOL0     O40216   0.826   6.706   5.536  0.3216  0.1536  0.2925
 1017MOL0     C40217   0.929   6.803   5.524 -0.1626 -0.9465  0.0822
 1017MOL0     C40218   1.067   6.743   5.576 -0.4301  0.3126 -0.8822
 1017MOL0     C40219   1.156   6.863   5.582  0.5461  0.0467  0.0220
 1017MOL0     C40220   1.307   6.813   5.589  0.6148 -0.4084 -1.5010
 1017MOL0     C40221   1.398   6.926   5.602  0.8783 -0.5982  0.3019
 1017MOL0     C40222   1.535   6.886   5.637 -0.2251 -0.1225 -0.5493
 1017MOL0     C40223   1.622   7.015   5.664 -0.0547 -0.1159  0.6353
 1017MOL0     C40224   1.688   7.095   5.542  0.8421 -0.2511  0.0748
 1017MOL0     N40225   1.766   7.202   5.585 -0.1420 -0.4038 -0.3077
 1017MOL0     C40226   1.877   7.202   5.666  0.7087 -0.6730 -0.0279
 1017MOL0     C40227   1.910   7.332   5.686 -1.1715  0.0904 -0.6707
 1017MOL0     C40228   2.037   7.393   5.760 -0.1386 -0.5440  0.3320
 1017MOL0     C40229   2.162   7.305   5.735 -0.2489 -0.1650  0.8038
 1017MOL0     C40230   2.185   7.200   5.839  0.0266  0.2479 -0.2793
 1017MOL0     C40231   2.250   7.064   5.791  0.0849  0.3929  0.0459
 1017MOL0     O40232   2.154   6.999   5.711  0.6356 -0.1238  0.2443
 1017MOL0     C40233   2.203   6.925   5.613 -0.6860  0.2813 -0.1634
 1017MOL0     C40234   2.171   6.968   5.480  0.4549  0.6761  0.7300
 1017MOL0     C40235   2.204   6.908   5.367 -0.5053 -0.5710  0.2891
 1017MOL0     C40236   2.171   6.965   5.236  0.2536  0.2853 -0.4567
 1017MOL0     C40237   2.277   6.785   5.382  0.7148 -0.3355 -0.5302
 1017MOL0     C40238   2.297   6.698   5.274  0.8884 -0.3207 -0.0432
 1017MOL0     O40239   2.422   6.642   5.258  0.1543 -0.1940 -0.5095
 1017MOL0     C40240   2.453   6.554   5.158 -0.6324 -0.1597  0.7209
 1017MOL0     C40241   2.524   6.582   5.043 -0.1368 -0.2677  0.5693
 1017MOL0     C40242   2.539   6.478   4.945 -0.0355 -0.0705 -0.9359
 1017MOL0     C40243   2.495   6.342   4.958  0.5174  1.3310  0.1765
 1017MOL0     O40244   2.498   6.252   4.859  0.3433  0.6779  0.5187
 1017MOL0     C40245   2.632   6.228   4.804  0.3739 -0.0751 -0.3587
 1017MOL0     C40246   2.682   6.084   4.829  0.2502 -0.5968 -0.1992
 1017MOL0     C40247   2.811   6.062   4.754 -0.3279 -0.3839  0.5492
 1017MOL0     C40248   2.853   5.910   4.764 -1.1622  0.2894  0.5008
 1017MOL0     C40249   2.800   5.813   4.655  0.1417  0.0529  0.0624
 1017MOL0     C40250   2.859   5.836   4.507  0.7043  0.5145  0.1567
 1017MOL0     C40251   2.778   5.751   4.410 -1.2367 -0.0280 -0.4146
 1017MOL0     C40252   2.847   5.761   4.278  0.6893 -0.4836  0.7635
 1017MOL0    Cl40253   2.753   5.667   4.150  0.3666 -0.4193  0.4898
 1017MOL0     C40254   2.437   6.321   5.090  0.4629 -0.1036  0.0728
 1017MOL0     C40255   2.418   6.426   5.184 -0.6506 -0.0117 -0.0824
 1017MOL0     O40256   2.196   6.671   5.212  0.1164 -0.0879  0.6256
 1017MOL0     C40257   2.306   6.732   5.508  0.4295  0.6152  0.2335
 1017MOL0     C40258   2.278   6.809   5.620  0.2830 -0.4362 -0.3111
 1017MOL0     N40259   1.817   7.402   5.610 -0.1988  0.3620  0.0648
 1017MOL0     N40260   1.732   7.325   5.555  0.4803  0.3504  0.3067
 1017MOL0     C40261   0.665   6.852   5.417 -0.2674 -0.8076  0.3792
 1017MOL0     C40262   0.532   6.879   5.383 -0.5026  0.2287  0.3468
 1017MOL0     C40263   0.081   6.826   5.400  0.4045 -0.7779 -0.4052
 1017MOL0     C40264   0.063   6.909   5.280 -0.3115 -0.4135  1.1519
 1017MOL0     C40265  -0.060   6.939   5.222 -0.9508 -0.8530 -0.1861
 1017MOL0     C40266  -0.179   6.892   5.275  0.1713  0.0488  1.1119
 1017MOL0     O40267  -0.295   6.924   5.218 -0.0002 -0.0638 -0.0107
 1017MOL0     C40268  -0.309   6.857   5.091 -0.1273 -0.4887 -0.6539
 1017MOL0     C40269  -0.373   6.719   5.117  0.0309  0.1336 -0.2078
 1017MOL0     C40270  -0.495   6.737   5.201 -0.0107  0.6495 -0.1822
 1017MOL0     C40271  -0.549   6.596   5.251  0.2576  0.7365 -0.4646
 1017MOL0     C40272  -0.693   6.599   5.291 -0.0105 -0.4344 -1.2142
 1017MOL0     C40273  -0.813   6.588   5.301  0.2837 -0.1332 -0.1636
 1017MOL0     C40274  -0.168   6.829   5.404  0.4114 -0.1894  0.3789
 1017MOL0     C40275  -0.054   6.791   5.462 -1.3239 -0.1056 -0.5829
 1017MOL0     C40276  -0.053   6.695   5.585 -0.2782 -0.5956 -0.4139
 1017MOL0     H40277   0.405   6.572   5.434 -0.0942  0.7421 -0.9394
 1017MOL0     H40278   0.651   6.532   5.509 -1.2370 -1.3435 -0.8835
 1017MOL0     H40279   0.906   6.892   5.583  0.8049 -1.2342  0.9253
 1017MOL0     H40280   0.938   6.840   5.422 -2.6395 -0.0763  0.1337
 1017MOL0     H40281   1.044   6.700   5.675  1.5287 -2.2427 -1.4177
 1017MOL0     H40282   1.094   6.660   5.509 -0.0869 -0.5789  0.3168
 1017MOL0     H40283   1.138   6.930   5.498 -0.7731 -1.6136 -1.0675
 1017MOL0     H40284   1.133   6.919   5.673 -3.2267  1.1869 -1.4524
 1017MOL0     H40285   1.341   6.757   5.677  3.4744  3.8136  0.4007
 1017MOL0     H40286   1.325   6.745   5.506  0.7786 -4.4863  1.5480
 1017MOL0     H40287   1.367   7.003   5.674  0.1653 -1.8358  1.3533
 1017MOL0     H40288   1.400   6.969   5.501  2.4579  1.6571  1.2204
 1017MOL0     H40289   1.533   6.833   5.733 -1.8382  0.5493 -0.1823
 1017MOL0     H40290   1.589   6.829   5.561 -0.1072 -0.3705 -0.2836
 1017MOL0     H40291   1.709   7.002   5.730  3.7996  1.5622 -3.5977
 1017MOL0     H40292   1.574   7.096   5.720  1.5066 -0.0495  1.9796
 1017MOL0     H40293   1.752   7.025   5.486  0.1858 -2.6787  2.1843
 1017MOL0     H40294   1.611   7.119   5.469  2.0923  0.7207 -0.9843
 1017MOL0     H40295   1.930   7.114   5.700  6.0160  1.4265 -1.7835
 1017MOL0     H40296   2.021   7.406   5.868  2.4113  1.1967  0.5807
 1017MOL0     H40297   2.059   7.491   5.719 -2.8234 -0.2500 -0.6024
 1017MOL0     H40298   2.149   7.263   5.635 -1.1982  0.8911  0.4549
 1017MOL0     H40299   2.242   7.378   5.723 -0.4102 -0.2661 -1.4767
 1017MOL0     H40300   2.276   7.225   5.894  0.0403  4.2463 -1.8178
 1017MOL0     H40301   2.102   7.188   5.910  2.6437 -1.6176  2.7494
 1017MOL0     H40302   2.340   7.074   5.729  0.6718 -2.0148  0.4203
 1017MOL0     H40303   2.276   6.999   5.875  2.0367 -0.9849 -1.5315
 1017MOL0     H40304   2.117   7.062   5.473 -1.4485 -0.3974  0.4250
 1017MOL0     H40305   2.135   7.068   5.247 -1.7997  0.0442 -3.5890
 1017MOL0     H40306   2.093   6.900   5.194 -0.2255  1.6281 -1.7429
 1017MOL0     H40307   2.259   6.977   5.172  2.1401 -1.4897  1.6336
 1017MOL0     H40308   2.561   6.681   5.019 -3.2015  0.9189  0.3088
 1017MOL0     H40309   2.564   6.508   4.843  1.0480 -1.9308 -1.2811
 1017MOL0     H40310   2.620   6.250   4.697 -0.8851 -0.6447 -0.3492
 1017MOL0     H40311   2.708   6.302   4.832 -1.2350  2.0353 -1.2234
 1017MOL0     H40312   2.703   6.052   4.931 -2.3928 -0.0580  0.5858
 1017MOL0     H40313   2.615   6.014   4.779 -0.4807 -0.1730  0.1842
 1017MOL0     H40314   2.901   6.108   4.793  0.5541 -1.6796  0.1164
 1017MOL0     H40315   2.801   6.090   4.649 -1.7954 -2.3477  0.1073
 1017MOL0     H40316   2.811   5.870   4.857 -2.3526  3.4426  1.4331
 1017MOL0     H40317   2.962   5.903   4.757 -1.1920  1.3050 -1.9882
 1017MOL0     H40318   2.818   5.711   4.691  1.3776  0.9846  2.2949
 1017MOL0     H40319   2.692   5.829   4.654  0.2871  1.1036 -0.6966
 1017MOL0     H40320   2.962   5.798   4.514  0.5256 -0.4714 -1.8886
 1017MOL0     H40321   2.841   5.942   4.487  2.5949  0.5560 -1.7159
 1017MOL0     H40322   2.678   5.796   4.405 -1.3076  0.0882  1.3948
 1017MOL0     H40323   2.768   5.648   4.445 -2.7286 -0.4256 -1.9060
 1017MOL0     H40324   2.955   5.744   4.290  1.1883  3.2971  3.4448
 1017MOL0     H40325   2.848   5.863   4.237  2.9926 -1.1959 -1.2559
 1017MOL0     H40326   2.405   6.219   5.106  3.6385 -1.3665 -0.6901
 1017MOL0     H40327   2.394   6.393   5.285 -1.7026  2.3261  0.5152
 1017MOL0     H40328   2.353   6.634   5.511  2.7691  1.6847  2.1517
 1017MOL0     H40329   2.298   6.782   5.724  0.1056 -0.3975 -0.2670
 1017MOL0     H40330   0.735   6.935   5.411 -2.0876  0.7286 -0.5992
 1017MOL0     H40331   0.502   6.978   5.350  1.7834  0.7844 -0.2547
 1017MOL0     H40332   0.158   6.933   5.233 -0.5699  1.6128  1.5790
 1017MOL0     H40333  -0.045   6.989   5.126  0.8948 -2.8893 -1.0407
 1017MOL0     H40334  -0.383   6.896   5.021  0.8235  1.1274 -0.8162
 1017MOL0     H40335  -0.218   6.853   5.031  0.0883  0.2796 -0.3929
 1017MOL0     H40336  -0.301   6.653   5.165 -1.1796 -0.3128  1.0678
 1017MOL0     H40337  -0.397   6.675   5.021  0.0291 -1.7647  0.6236
 1017MOL0     H40338  -0.480   6.796   5.292  3.4826  0.0160 -0.2241
 1017MOL0     H40339  -0.577   6.791   5.152 -1.6515 -2.2585 -0.8964
 1017MOL0     H40340  -0.486   6.558   5.332  1.8374  1.1846 -1.4314
 1017MOL0     H40341  -0.553   6.530   5.164  1.1368 -1.3021  0.9557
 1017MOL0     H40342  -0.912   6.603   5.338  0.0727  3.2110 -1.6655
 1017MOL0     H40343  -0.265   6.796   5.438 -2.1961  3.2656 -2.8355
 1017MOL0     H40344   0.041   6.642   5.601  0.5901  1.1407  0.5960
 1017MOL0     H40345  -0.074   6.758   5.672  0.2877 -0.1961 -0.5583
 1017MOL0     H40346  -0.132   6.621   5.571  0.5040 -1.5602  0.1369
 1018MOL0     O40347   8.962   0.106   6.674 -0.5934  0.8175 -0.0745
 1018MOL0     C40348   8.931  -0.012   6.661 -0.0588  0.0902  0.1171
 1018MOL0     O40349   8.885  -0.069   6.538 -0.1848 -0.5476 -0.6624
 1018MOL0     C40350   8.874   0.017   6.435 -1.0637 -0.4194 -0.5092
 1018MOL0     C40351   8.752   0.047   6.386  0.1894  0.1385 -0.2151
 1018MOL0     C40352   8.732   0.128   6.278 -0.0221  0.0259  0.5210
 1018MOL0     C40353   8.847   0.191   6.221  0.6005 -0.3475  0.9469
 1018MOL0     O40354   8.840   0.266   6.106  0.6767 -0.2297  0.5569
 1018MOL0     C40355   8.725   0.341   6.075 -0.3381  0.0619  0.2273
 1018MOL0     C40356   8.761   0.472   6.014  0.2523  0.6325 -0.1082
 1018MOL0     C40357   8.826   0.462   5.876  0.1087 -0.3267 -0.3700
 1018MOL0     C40358   8.746   0.543   5.760 -0.1525 -0.1500 -0.4188
 1018MOL0     C40359   8.836   0.592   5.638 -0.1788  0.1935  0.1533
 1018MOL0     C40360   8.891   0.466   5.565  0.5749  0.3611  0.3355
 1018MOL0     C40361   8.951   0.526   5.432 -0.3652 -0.4724 -0.0324
 1018MOL0     C40362   8.843   0.535   5.310  0.5276 -0.7749  0.2863
 1018MOL0     N40363   8.804   0.407   5.247 -0.5503 -0.3938 -0.0715
 1018MOL0     C40364   8.901   0.317   5.202  0.8128 -0.1953  0.9763
 1018MOL0     C40365   8.824   0.214   5.167 -0.3528  0.7588  1.1735
 1018MOL0     C40366   8.894   0.097   5.101  1.1136 -0.4277  0.3015
 1018MOL0     C40367   8.798   0.033   5.010  0.1182  0.6723 -0.3767
 1018MOL0     C40368   8.880  -0.049   4.901  0.3450 -0.3473 -0.1449
 1018MOL0     C40369   8.774  -0.133   4.819 -0.9581 -0.5931 -0.3499
 1018MOL0     O40370   8.848  -0.225   4.739 -0.1698  0.1752 -0.7953
 1018MOL0     C40371   8.772  -0.309   4.660  0.2254  0.3715  0.7916
 1018MOL0     C40372   8.821  -0.334   4.527  0.1761  0.3402 -0.1085
 1018MOL0     C40373   8.748  -0.408   4.441 -0.1911  0.6951  0.2486
 1018MOL0     C40374   8.777  -0.395   4.291  0.7020  0.3711 -0.7748
 1018MOL0     C40375   8.637  -0.488   4.488  0.4948 -0.9998  0.6079
 1018MOL0     C40376   8.554  -0.579   4.407 -0.0837  0.6538  0.2694
 1018MOL0     O40377   8.418  -0.563   4.400  1.0613  0.8449 -0.6166
 1018MOL0     C40378   8.343  -0.652   4.321 -0.1453  0.8375 -0.7238
 1018MOL0     C40379   8.349  -0.796   4.327  0.5916  0.2800  0.8788
 1018MOL0     C40380   8.253  -0.865   4.248 -0.1979 -0.0605  0.0386
 1018MOL0     C40381   8.163  -0.804   4.166 -0.3592 -0.2111  0.0840
 1018MOL0     O40382   8.074  -0.884   4.107 -0.0236  0.7410 -0.8516
 1018MOL0     C40383   8.118  -0.985   4.014  0.3804 -0.1353 -0.7442
 1018MOL0     C40384   7.992  -1.063   3.983 -0.1581 -0.4495  1.1113
 1018MOL0     C40385   8.011  -1.169   3.866  0.1647 -0.5368 -0.8184
 1018MOL0     C40386   7.881  -1.245   3.833  0.9107 -1.0607 -0.4395
 1018MOL0     C40387   7.905  -1.374   3.745 -0.4575 -0.4589 -0.4659
 1018MOL0     C40388   7.779  -1.422   3.676  0.1038  0.1208 -0.3011
 1018MOL0     C40389   7.796  -1.572   3.641 -0.4255 -0.0916 -0.3197
 1018MOL0     C40390   7.710  -1.613   3.525  0.7212  0.0818 -1.0227
 1018MOL0    Cl40391   7.544  -1.594   3.560  0.6693  0.3049  0.0535
 1018MOL0     C40392   8.145  -0.663   4.179 -0.3072 -0.3101  0.6127
 1018MOL0     C40393   8.237  -0.588   4.250 -1.0468 -1.1172  0.6062
 1018MOL0     O40394   8.620  -0.663   4.345  0.7816  0.1648 -0.1739
 1018MOL0     C40395   8.600  -0.464   4.617 -0.5465 -0.4727  0.6438
 1018MOL0     C40396   8.667  -0.382   4.700  0.8826  0.6576 -0.1202
 1018MOL0     N40397   8.691   0.241   5.186  0.8727  0.0435 -0.2997
 1018MOL0     N40398   8.680   0.358   5.235  0.5699  0.0069 -0.1751
 1018MOL0     C40399   8.974   0.159   6.265 -0.3343  0.2188 -0.3912
 1018MOL0     C40400   8.987   0.078   6.380 -0.0500  0.2652  0.1714
 1018MOL0     C40401   8.920  -0.103   6.779 -0.8095 -0.8379  0.0546
 1018MOL0     C40402   8.827  -0.205   6.777  1.0386 -0.2696 -0.5943
 1018MOL0     C40403   8.816  -0.298   6.877  0.8909 -0.4564  0.4676
 1018MOL0     C40404   8.888  -0.272   6.997 -0.3441  0.5902 -0.4072
 1018MOL0     O40405   8.851  -0.367   7.093 -0.4044 -0.1295  0.1434
 1018MOL0     C40406   8.845  -0.336   7.233  0.1331  0.1118  0.4309
 1018MOL0     C40407   8.749  -0.223   7.270 -0.5558  0.4415  0.1914
 1018MOL0     C40408   8.608  -0.233   7.206  1.1146  1.1405  0.1120
 1018MOL0     C40409   8.498  -0.164   7.278 -0.7529  1.1533 -0.7344
 1018MOL0     C40410   8.363  -0.159   7.212 -1.3400 -0.3444 -0.1549
 1018MOL0     C40411   8.251  -0.132   7.170 -0.5987 -0.3025  0.9604
 1018MOL0     C40412   8.966  -0.164   7.016 -0.2472 -0.5737 -0.5945
 1018MOL0     C40413   8.983  -0.077   6.907  0.3354  0.5677 -0.4423
 1018MOL0     C40414   9.057   0.042   6.946  0.0976 -0.0514  0.5404
 1018MOL0     H40415   8.668   0.006   6.442  0.1399 -0.1152 -0.4742
 1018MOL0     H40416   8.629   0.141   6.247 -0.6957 -1.8189  1.7989
 1018MOL0     H40417   8.674   0.391   6.158  0.9649  2.6061 -0.3996
 1018MOL0     H40418   8.648   0.280   6.027  0.0490  0.8888 -1.5193
 1018MOL0     H40419   8.670   0.533   6.005 -0.4649 -0.5584 -1.4941
 1018MOL0     H40420   8.836   0.523   6.075  0.8107  1.8037 -1.6885
 1018MOL0     H40421   8.928   0.501   5.884 -0.7512  1.6258  2.4054
 1018MOL0     H40422   8.834   0.360   5.837  1.4572  0.2806 -1.7566
 1018MOL0     H40423   8.662   0.484   5.720 -0.9370  0.8161 -0.2502
 1018MOL0     H40424   8.693   0.630   5.800 -3.0849 -2.0052  0.1008
 1018MOL0     H40425   8.921   0.650   5.673  0.0475 -0.5132  0.7982
 1018MOL0     H40426   8.778   0.639   5.558  2.9416 -1.8707 -3.6548
 1018MOL0     H40427   8.973   0.414   5.616  1.2515 -1.2538 -2.1755
 1018MOL0     H40428   8.814   0.394   5.536  0.8947 -1.3841  3.4009
 1018MOL0     H40429   9.026   0.461   5.387  1.8497  0.1400  2.4810
 1018MOL0     H40430   9.002   0.622   5.448  0.8444 -0.6318 -2.5345
 1018MOL0     H40431   8.758   0.596   5.343  1.1802  0.3344 -0.0218
 1018MOL0     H40432   8.889   0.594   5.230  2.3758 -2.7601 -0.2089
 1018MOL0     H40433   9.009   0.316   5.209  0.7745 -3.0792  2.9311
 1018MOL0     H40434   8.934   0.028   5.176  0.7587  0.7532  1.6195
 1018MOL0     H40435   8.968   0.135   5.029 -0.5161 -4.4515 -4.0434
 1018MOL0     H40436   8.737  -0.034   5.071  2.6261  0.2032  1.8035
 1018MOL0     H40437   8.738   0.106   4.955 -0.6275 -0.8892 -1.7051
 1018MOL0     H40438   8.939   0.022   4.844  0.7813 -0.8698 -0.3494
 1018MOL0     H40439   8.956  -0.105   4.956  1.4774  2.0725  0.8834
 1018MOL0     H40440   8.705  -0.185   4.886 -3.5021  0.3443 -2.0874
 1018MOL0     H40441   8.717  -0.070   4.750  0.6770 -1.1265 -2.2979
 1018MOL0     H40442   8.905  -0.271   4.497  0.4180 -0.4077 -1.0429
 1018MOL0     H40443   8.770  -0.491   4.239 -0.2448  0.6829 -1.2554
 1018MOL0     H40444   8.872  -0.345   4.271  1.2687  0.7140  2.2959
 1018MOL0     H40445   8.684  -0.343   4.263 -0.5095  1.4636  4.2422
 1018MOL0     H40446   8.424  -0.850   4.385  0.9988 -3.1916 -2.5096
 1018MOL0     H40447   8.251  -0.973   4.249 -0.7628 -0.0466  0.7716
 1018MOL0     H40448   8.169  -0.944   3.926 -0.4657 -1.7190 -2.0266
 1018MOL0     H40449   8.186  -1.046   4.073 -0.6143 -0.6112 -0.0603
 1018MOL0     H40450   7.966  -1.106   4.080  1.6245 -2.9684  0.5674
 1018MOL0     H40451   7.920  -0.987   3.950  0.5564 -0.3563 -0.2854
 1018MOL0     H40452   8.082  -1.246   3.895 -2.8136 -1.6983  5.1122
 1018MOL0     H40453   8.043  -1.109   3.781 -1.4344  2.2907  0.4302
 1018MOL0     H40454   7.814  -1.173   3.787  1.4473 -0.1421  0.1831
 1018MOL0     H40455   7.841  -1.274   3.931  0.1724  2.7759  0.5754
 1018MOL0     H40456   7.979  -1.368   3.664 -3.6221  0.4434 -3.5779
 1018MOL0     H40457   7.953  -1.442   3.816  0.4844  0.4987 -0.1567
 1018MOL0     H40458   7.746  -1.354   3.596 -1.6676 -0.9512 -0.5422
 1018MOL0     H40459   7.694  -1.422   3.745  2.4660  0.6852  2.8052
 1018MOL0     H40460   7.785  -1.631   3.732 -0.0144 -1.4652 -1.1321
 1018MOL0     H40461   7.901  -1.574   3.609 -0.2778 -0.0026  0.1570
 1018MOL0     H40462   7.727  -1.718   3.499 -2.6668 -0.6428 -0.8339
 1018MOL0     H40463   7.728  -1.550   3.438  0.4248 -0.1605 -1.2615
 1018MOL0     H40464   8.063  -0.613   4.128 -2.0785 -2.6793  0.9261
 1018MOL0     H40465   8.231  -0.480   4.248 -1.9287 -1.1430 -1.8189
 1018MOL0     H40466   8.523  -0.532   4.653  1.0977 -2.6488  0.2573
 1018MOL0     H40467   8.624  -0.366   4.799 -3.2777 -2.2063 -1.2422
 1018MOL0     H40468   9.057   0.219   6.228 -0.6073 -1.5087 -4.3111
 1018MOL0     H40469   9.082   0.041   6.418 -0.1895 -0.1999  0.0667
 1018MOL0     H40470   8.763  -0.241   6.697  0.3479 -4.9367  1.7117
 1018MOL0     H40471   8.759  -0.387   6.851 -0.4267  0.4226  0.2493
 1018MOL0     H40472   8.822  -0.429   7.285  1.7852  0.5470  2.0109
 1018MOL0     H40473   8.946  -0.301   7.253  0.1744  0.4505 -0.3056
 1018MOL0     H40474   8.777  -0.131   7.217 -0.6438 -0.6555 -1.8966
 1018MOL0     H40475   8.753  -0.206   7.378 -0.3142  2.0325 -0.0459
 1018MOL0     H40476   8.607  -0.205   7.100  2.5120 -1.8919 -0.8046
 1018MOL0     H40477   8.587  -0.341   7.204  4.2206  0.4668 -0.4969
 1018MOL0     H40478   8.539  -0.069   7.315  1.0204 -0.4015  1.5667
 1018MOL0     H40479   8.483  -0.217   7.373  1.0603  0.7233 -0.6397
 1018MOL0     H40480   8.156  -0.136   7.121  1.0105 -3.5577 -2.3688
 1018MOL0     H40481   9.001  -0.146   7.117  2.4136 -3.1243 -0.9237
 1018MOL0     H40482   9.116   0.073   6.859 -0.0469 -1.4227 -0.0710
 1018MOL0     H40483   8.995   0.130   6.964 -1.1128 -0.3812 -1.6160
 1018MOL0     H40484   9.135   0.025   7.021 -0.5326 -4.3122  0.4595
 1019MOL0     O40485   4.908  10.658   6.606 -0.9462 -0.1983 -0.7556
 1019MOL0     C40486   4.896  10.626   6.490 -0.9597  0.6124 -0.2514
 1019MOL0     O40487   4.927  10.712   6.391  1.2770 -0.7867 -0.2368
 1019MOL0     C40488   4.983  10.838   6.411 -0.7326  0.8562  0.3175
 1019MOL0     C40489   4.975  10.931   6.517  0.0376  0.4222 -0.0901
 1019MOL0     C40490   5.031  11.056   6.503  0.8211 -0.4800  0.1235
 1019MOL0     C40491   5.103  11.103   6.383 -0.0675 -0.3591 -0.3012
 1019MOL0     O40492   5.174  11.220   6.368  0.3799  0.1510 -0.0465
 1019MOL0     C40493   5.169  11.324   6.473 -0.4933 -0.7979 -0.8246
 1019MOL0     C40494   5.284  11.416   6.450  0.1246  1.1847 -0.2237
 1019MOL0     C40495   5.278  11.504   6.327  0.0989  0.5946  0.5002
 1019MOL0     C40496   5.405  11.564   6.275  0.0169 -0.6901  0.5643
 1019MOL0     C40497   5.396  11.631   6.131 -0.4318  0.0084 -0.3784
 1019MOL0     C40498   5.300  11.748   6.129 -0.0821 -0.0307  0.4597
 1019MOL0     C40499   5.270  11.809   5.992  0.0882  0.7812 -0.6038
 1019MOL0     C40500   5.140  11.880   5.989  0.1851 -0.9710  0.6738
 1019MOL0     N40501   5.114  11.967   6.103 -0.7627 -0.6198 -0.1490
 1019MOL0     C40502   5.198  12.074   6.153 -1.1733  0.8690  0.2229
 1019MOL0     C40503   5.144  12.101   6.272  0.8112 -0.0918  0.1171
 1019MOL0     C40504   5.202  12.205   6.361 -0.4049  0.0479 -0.4365
 1019MOL0     C40505   5.321  12.144   6.446 -0.7777  0.2009 -0.2991
 1019MOL0     C40506   5.358  12.229   6.559  0.1728 -0.7946  0.5811
 1019MOL0     C40507   5.463  12.163   6.652 -0.1277  0.6974 -0.1243
 1019MOL0     O40508   5.520  12.041   6.599  0.2030  0.8124 -0.9411
 1019MOL0     C40509   5.520  11.936   6.691  0.0007  0.2046 -0.2218
 1019MOL0     C40510   5.562  11.934   6.826 -0.4577  0.3516 -0.5646
 1019MOL0     C40511   5.572  11.819   6.909 -0.3786 -0.4669  0.7555
 1019MOL0     C40512   5.616  11.840   7.061 -0.5608 -0.3548  0.6986
 1019MOL0     C40513   5.541  11.694   6.838 -0.5230  0.2450 -0.1877
 1019MOL0     C40514   5.560  11.560   6.886  0.7909 -0.3132  0.7088
 1019MOL0     O40515   5.493  11.460   6.823 -0.3417  0.1642  0.1736
 1019MOL0     C40516   5.477  11.329   6.874 -0.5382  0.4779 -0.7868
 1019MOL0     C40517   5.397  11.307   6.986 -0.0389 -1.1055 -0.3335
 1019MOL0     C40518   5.369  11.178   7.026 -0.1292  0.0517 -1.5563
 1019MOL0     C40519   5.431  11.066   6.971 -0.1130  0.3250 -0.0172
 1019MOL0     O40520   5.405  10.937   7.009 -0.8412 -0.4524  0.5680
 1019MOL0     C40521   5.523  10.854   7.024  0.1308  0.4653 -0.0456
 1019MOL0     C40522   5.525  10.801   7.171 -0.2072 -0.0325 -0.3161
 1019MOL0     C40523   5.659  10.746   7.205 -0.4629  0.5546  0.5957
 1019MOL0     C40524   5.694  10.615   7.143  0.3113  0.3263  0.1109
 1019MOL0     C40525   5.809  10.553   7.221  0.1955  0.6117  0.5670
 1019MOL0     C40526   5.850  10.417   7.169 -0.8286 -0.0983 -1.1155
 1019MOL0     C40527   5.941  10.423   7.038 -0.2754 -0.0167  1.2967
 1019MOL0     C40528   6.088  10.424   7.077  0.4100 -0.0610 -0.3325
 1019MOL0    Cl40529   6.152  10.557   7.174 -0.1916  0.0571  0.1035
 1019MOL0     C40530   5.524  11.090   6.866 -0.2404 -0.4891 -0.2259
 1019MOL0     C40531   5.539  11.218   6.817  0.4212 -0.6109  0.8005
 1019MOL0     O40532   5.634  11.541   6.985 -0.1666  0.5801 -0.1931
 1019MOL0     C40533   5.484  11.702   6.710 -0.6852  0.7008  0.7295
 1019MOL0     C40534   5.468  11.815   6.640  0.7213 -0.1390 -0.3187
 1019MOL0     N40535   5.017  12.037   6.279 -0.6302 -0.5028  0.0911
 1019MOL0     N40536   5.011  11.948   6.184  0.2682 -0.2830  0.4580
 1019MOL0     C40537   5.098  11.017   6.277  0.1534 -0.2799  0.1507
 1019MOL0     C40538   5.042  10.889   6.288 -0.8251 -0.5805 -0.2425
 1019MOL0     C40539   4.834  10.505   6.450  0.0479 -0.6367 -0.4709
 1019MOL0     C40540   4.708  10.472   6.501 -0.5591  0.6665 -0.3495
 1019MOL0     C40541   4.637  10.366   6.452  0.3952 -0.8538 -0.2537
 1019MOL0     C40542   4.693  10.280   6.362  0.6534 -0.3104 -0.0014
 1019MOL0     O40543   4.627  10.170   6.313  0.5040 -0.9367 -0.3875
 1019MOL0     C40544   4.494  10.147   6.348 -0.7037  0.5342  0.6178
 1019MOL0     C40545   4.464  10.016   6.281  0.8011  0.6524  0.3385
 1019MOL0     C40546   4.520   9.886   6.354 -0.7560 -0.6054  0.3063
 1019MOL0     C40547   4.466   9.752   6.308  0.5057 -0.4152 -0.9186
 1019MOL0     C40548   4.495   9.722   6.164 -0.4631 -0.5956 -0.1449
 1019MOL0     C40549   4.518   9.692   6.049 -0.1001 -0.7608  0.1479
 1019MOL0     C40550   4.820  10.307   6.313  0.8101 -0.5363 -0.1356
 1019MOL0     C40551   4.887  10.418   6.351 -0.0496 -0.5828  0.1552
 1019MOL0     C40552   5.023  10.444   6.305 -0.6715 -0.3711  0.1895
 1019MOL0     H40553   4.925  10.898   6.608  1.8947  1.3188  1.3500
 1019MOL0     H40554   5.031  11.117   6.593  0.1712 -1.7392  1.0220
 1019MOL0     H40555   5.185  11.277   6.570  0.6060  1.0587 -0.0641
 1019MOL0     H40556   5.072  11.376   6.472 -1.1876 -2.0458 -2.2844
 1019MOL0     H40557   5.310  11.482   6.533 -1.9124 -0.3524  1.7706
 1019MOL0     H40558   5.376  11.356   6.448  0.3015  1.0466  3.8047
 1019MOL0     H40559   5.225  11.442   6.254 -0.0115 -2.5676  3.0744
 1019MOL0     H40560   5.207  11.585   6.343 -2.4003 -0.8400 -2.2203
 1019MOL0     H40561   5.436  11.641   6.346  0.8361  0.3094 -0.8264
 1019MOL0     H40562   5.480  11.485   6.274  0.4818 -0.2653 -1.2763
 1019MOL0     H40563   5.336  11.560   6.074 -0.6537  1.0129 -1.4205
 1019MOL0     H40564   5.499  11.654   6.102  0.4184 -1.7839  1.0161
 1019MOL0     H40565   5.209  11.726   6.186  0.5448 -2.1961  0.7160
 1019MOL0     H40566   5.356  11.827   6.180  0.7487 -1.1207  1.2825
 1019MOL0     H40567   5.276  11.729   5.918 -1.0904  0.2363 -0.1289
 1019MOL0     H40568   5.345  11.884   5.964  0.9849  0.1930  0.1769
 1019MOL0     H40569   5.124  11.938   5.898  0.5732 -0.3877  0.9781
 1019MOL0     H40570   5.072  11.796   5.970  1.3474 -1.8214  0.1364
 1019MOL0     H40571   5.282  12.113   6.098 -2.6456  3.1091 -0.5919
 1019MOL0     H40572   5.121  12.234   6.428 -1.5909 -2.5574 -0.6140
 1019MOL0     H40573   5.233  12.287   6.296 -2.8918  1.9497  0.6360
 1019MOL0     H40574   5.287  12.050   6.491 -0.4626  1.3902  2.6602
 1019MOL0     H40575   5.405  12.116   6.381 -0.4458 -2.1268  1.0027
 1019MOL0     H40576   5.404  12.322   6.525  1.0011 -1.9963 -1.8067
 1019MOL0     H40577   5.274  12.262   6.620  1.1501 -0.7198  1.9434
 1019MOL0     H40578   5.541  12.233   6.684 -1.1914  1.0775  1.7988
 1019MOL0     H40579   5.406  12.149   6.744  0.8180  0.8911  0.5116
 1019MOL0     H40580   5.578  12.031   6.872 -0.3878 -0.5230  1.3431
 1019MOL0     H40581   5.554  11.781   7.129  2.9530 -0.8280  3.8593
 1019MOL0     H40582   5.609  11.948   7.080  5.2677  0.9808 -2.2410
 1019MOL0     H40583   5.719  11.804   7.071 -0.5058 -0.6118 -0.5926
 1019MOL0     H40584   5.331  11.383   7.026  0.9894 -0.9777  1.2012
 1019MOL0     H40585   5.293  11.154   7.099 -0.8343  3.4882 -0.9894
 1019MOL0     H40586   5.529  10.767   6.958  3.2135 -0.5688  1.3573
 1019MOL0     H40587   5.621  10.900   7.005  1.4731 -3.2751 -3.7172
 1019MOL0     H40588   5.506  10.885   7.238  0.6770  1.7339 -2.1885
 1019MOL0     H40589   5.444  10.728   7.180  1.7450 -2.4916 -1.5097
 1019MOL0     H40590   5.669  10.741   7.314 -0.1795  2.9161  0.7246
 1019MOL0     H40591   5.728  10.824   7.171 -2.1235  0.8869 -2.2883
 1019MOL0     H40592   5.736  10.632   7.044  1.7515  3.7115  1.1176
 1019MOL0     H40593   5.603  10.555   7.148  0.6754 -0.4226 -1.6293
 1019MOL0     H40594   5.892  10.625   7.226 -1.4560  2.5168  1.8961
 1019MOL0     H40595   5.779  10.534   7.324  0.4798 -0.0080  0.5427
 1019MOL0     H40596   5.756  10.362   7.165  0.1193 -2.0487  1.2686
 1019MOL0     H40597   5.905  10.357   7.242  1.8408  2.1351 -1.1272
 1019MOL0     H40598   5.924  10.520   6.991 -1.7820 -0.8754 -0.0305
 1019MOL0     H40599   5.905  10.338   6.980  0.2077  1.6461 -1.6360
 1019MOL0     H40600   6.139  10.429   6.979 -0.2541 -1.4568 -0.7782
 1019MOL0     H40601   6.108  10.330   7.129 -3.1240 -1.2396 -0.8536
 1019MOL0     H40602   5.581  11.009   6.824  3.0442  0.7342  1.4879
 1019MOL0     H40603   5.619  11.230   6.744  4.5341 -3.3440  4.3299
 1019MOL0     H40604   5.449  11.613   6.657 -1.1753 -0.6104  3.0911
 1019MOL0     H40605   5.425  11.813   6.541 -1.1461  0.8263  0.4256
 1019MOL0     H40606   5.131  11.052   6.179  0.5171  3.0737  1.3323
 1019MOL0     H40607   5.041  10.823   6.202 -3.4412 -1.2176  0.1767
 1019MOL0     H40608   4.659  10.540   6.570  0.9098 -0.9769  2.5497
 1019MOL0     H40609   4.544  10.350   6.505  0.8203  1.3402  1.2885
 1019MOL0     H40610   4.480  10.156   6.456  1.0549  1.6347  0.8116
 1019MOL0     H40611   4.427  10.223   6.308 -1.5932 -0.6289 -0.1488
 1019MOL0     H40612   4.515  10.013   6.184  0.3099  0.0032  0.0891
 1019MOL0     H40613   4.356  10.003   6.270  0.5148  0.3615  2.9190
 1019MOL0     H40614   4.629   9.888   6.351 -0.7530 -0.8815  0.1866
 1019MOL0     H40615   4.497   9.888   6.461 -3.5736  0.0683 -0.2197
 1019MOL0     H40616   4.363   9.734   6.341  1.4278  0.0530  2.7118
 1019MOL0     H40617   4.516   9.671   6.361  2.0288  1.2532  0.3092
 1019MOL0     H40618   4.529   9.670   5.945  1.7043  2.0225 -0.3786
 1019MOL0     H40619   4.860  10.251   6.229 -2.8239 -1.5960 -1.3425
 1019MOL0     H40620   5.066  10.369   6.238 -0.8862  0.2380 -0.6582
 1019MOL0     H40621   5.036  10.538   6.251  2.9138 -2.1187 -2.4317
 1019MOL0     H40622   5.083  10.458   6.395 -1.9819 -0.9575  1.1875
 1020MOL0     O40623   4.037   3.654   8.991 -0.9143  0.0186 -0.9208
 1020MOL0     C40624   3.937   3.694   9.052  0.6761 -0.7237 -0.3100
 1020MOL0     O40625   3.815   3.685   9.005  0.5902  0.0973 -0.9417
 1020MOL0     C40626   3.795   3.636   8.880  1.4527 -0.0430  0.1589
 1020MOL0     C40627   3.750   3.507   8.883  0.7378  0.8290  0.1634
 1020MOL0     C40628   3.718   3.447   8.765  0.7526 -0.6629  0.3695
 1020MOL0     C40629   3.731   3.514   8.646 -0.0194  0.8374  0.2748
 1020MOL0     O40630   3.701   3.446   8.530  0.3064 -0.0938 -0.0906
 1020MOL0     C40631   3.596   3.504   8.454 -0.0238  0.3050  0.1398
 1020MOL0     C40632   3.468   3.425   8.475  0.1318  0.0725 -0.3630
 1020MOL0     C40633   3.371   3.462   8.359 -0.1189  0.0476 -0.1000
 1020MOL0     C40634   3.226   3.386   8.392 -0.0546  0.1690  0.0471
 1020MOL0     C40635   3.115   3.402   8.297  0.0171 -0.3209  0.0096
 1020MOL0     C40636   3.081   3.546   8.266  0.4594  0.4057  1.1223
 1020MOL0     C40637   2.943   3.551   8.186 -0.4458 -0.1283  0.4635
 1020MOL0     C40638   2.884   3.691   8.193 -0.2961  0.8477 -0.9011
 1020MOL0     N40639   2.967   3.784   8.117 -0.3554  0.7128 -0.2656
 1020MOL0     C40640   2.976   3.769   7.987 -0.0248 -1.1011  0.3028
 1020MOL0     C40641   3.061   3.864   7.941  0.2280  0.5289 -0.4091
 1020MOL0     C40642   3.101   3.909   7.805  0.7673  0.5129 -0.8563
 1020MOL0     C40643   2.986   3.881   7.698 -0.4950 -0.6497  0.4503
 1020MOL0     C40644   2.856   3.952   7.745 -0.5361  0.0161 -0.3273
 1020MOL0     C40645   2.754   3.949   7.632  0.8067 -1.0839  0.8552
 1020MOL0     O40646   2.630   3.999   7.682 -0.0132 -0.2950 -0.5647
 1020MOL0     C40647   2.616   4.137   7.702  0.0265 -1.0476 -0.0924
 1020MOL0     C40648   2.513   4.179   7.787 -0.5047  0.7416  0.7207
 1020MOL0     C40649   2.501   4.313   7.829 -0.5211  0.9434  0.8924
 1020MOL0     C40650   2.382   4.361   7.907  0.7454 -0.1264 -0.2822
 1020MOL0     C40651   2.595   4.412   7.787  0.1275  1.3864  0.1061
 1020MOL0     C40652   2.593   4.551   7.818  0.5056 -0.2382  0.3597
 1020MOL0     O40653   2.620   4.606   7.944 -0.5516  0.6303 -0.6287
 1020MOL0     C40654   2.603   4.734   7.985 -0.4678  0.2404  0.1335
 1020MOL0     C40655   2.542   4.830   7.905 -0.4373 -1.0155 -0.3086
 1020MOL0     C40656   2.525   4.956   7.959  0.9042 -0.4152 -0.1304
 1020MOL0     C40657   2.559   4.989   8.094  0.0687  0.1841  0.9981
 1020MOL0     O40658   2.536   5.103   8.166 -0.0358 -0.0861  0.3741
 1020MOL0     C40659   2.415   5.172   8.132 -0.4648  0.5908  1.3481
 1020MOL0     C40660   2.350   5.245   8.249  0.0415 -0.6922  0.5894
 1020MOL0     C40661   2.263   5.364   8.210  0.2667  0.1378  0.4492
 1020MOL0     C40662   2.127   5.328   8.149 -0.3520 -0.0603  0.3289
 1020MOL0     C40663   2.005   5.391   8.214 -0.4853 -0.1447  0.8404
 1020MOL0     C40664   1.882   5.341   8.143  0.2142  0.0737  0.4957
 1020MOL0     C40665   1.767   5.410   8.209 -0.1540 -0.5209 -0.5093
 1020MOL0     C40666   1.631   5.335   8.194  0.2817  0.4378 -0.0909
 1020MOL0    Cl40667   1.515   5.412   8.306  0.2867 -0.0213 -0.1660
 1020MOL0     C40668   2.625   4.892   8.167 -0.2784  0.2498  0.3465
 1020MOL0     C40669   2.640   4.759   8.111  0.4268 -0.5915  0.2666
 1020MOL0     O40670   2.545   4.614   7.723 -0.2093  0.2880  0.1247
 1020MOL0     C40671   2.693   4.374   7.706 -0.1903  1.0969  0.4717
 1020MOL0     C40672   2.707   4.237   7.662  0.0856 -0.5287  0.1975
 1020MOL0     N40673   3.110   3.929   8.047 -0.4097  0.4553  0.1781
 1020MOL0     N40674   3.057   3.879   8.158  0.3547 -0.2325 -0.0966
 1020MOL0     C40675   3.779   3.643   8.634  0.0295 -0.1654 -0.5332
 1020MOL0     C40676   3.811   3.707   8.759 -0.3700 -0.1547  0.6648
 1020MOL0     C40677   3.966   3.784   9.168  0.6369 -0.3644 -0.3322
 1020MOL0     C40678   3.898   3.907   9.188  0.5076  1.5693  0.0805
 1020MOL0     C40679   3.922   3.983   9.296  0.0189  0.6224 -0.7136
 1020MOL0     C40680   4.021   3.944   9.384  0.0474 -0.9762 -1.0403
 1020MOL0     O40681   4.070   4.017   9.497 -0.7142  0.5590 -0.3923
 1020MOL0     C40682   4.010   4.142   9.520 -0.1482 -0.9783  0.3568
 1020MOL0     C40683   4.077   4.261   9.451 -0.7434  0.6244 -0.3492
 1020MOL0     C40684   4.058   4.391   9.531 -0.1515 -0.0701  0.1225
 1020MOL0     C40685   4.129   4.507   9.470  0.9448 -0.5053 -0.3174
 1020MOL0     C40686   4.133   4.628   9.549  0.0390 -1.0016  0.9203
 1020MOL0     C40687   4.140   4.731   9.603 -0.1191 -0.4945  0.0261
 1020MOL0     C40688   4.093   3.834   9.371  0.2489 -0.0663 -0.7433
 1020MOL0     C40689   4.067   3.749   9.266 -0.0793  0.2760 -0.8510
 1020MOL0     C40690   4.148   3.610   9.263 -0.1075 -0.6037 -0.5579
 1020MOL0     H40691   3.720   3.473   8.982 -0.8720  0.4530 -0.4202
 1020MOL0     H40692   3.694   3.342   8.781  1.0529 -0.5935  1.3335
 1020MOL0     H40693   3.632   3.487   8.352 -0.1589  1.3013 -0.0788
 1020MOL0     H40694   3.575   3.610   8.473 -0.7671  0.0972  0.4894
 1020MOL0     H40695   3.479   3.317   8.489 -0.8627  0.2345  2.2002
 1020MOL0     H40696   3.420   3.458   8.568 -2.9417 -0.6992 -1.5344
 1020MOL0     H40697   3.351   3.570   8.354 -0.9007 -0.1188 -0.8517
 1020MOL0     H40698   3.407   3.435   8.259  1.9548  2.0421  0.0240
 1020MOL0     H40699   3.241   3.278   8.391  3.5856  0.5015 -2.6901
 1020MOL0     H40700   3.203   3.409   8.497  4.1910 -0.1205  1.2100
 1020MOL0     H40701   3.025   3.360   8.343 -1.6276  0.3204 -2.3809
 1020MOL0     H40702   3.136   3.351   8.203 -1.7688  1.8649 -1.7116
 1020MOL0     H40703   3.049   3.592   8.360 -1.0027  1.5807  0.0898
 1020MOL0     H40704   3.153   3.607   8.212 -0.6296 -0.2079 -1.1082
 1020MOL0     H40705   2.866   3.490   8.233  0.5349 -0.8502  1.1956
 1020MOL0     H40706   2.959   3.532   8.079  1.2653  3.8925 -0.1805
 1020MOL0     H40707   2.778   3.699   8.167 -1.1346  1.2276  2.1823
 1020MOL0     H40708   2.871   3.726   8.296 -1.5502 -0.8569 -0.4313
 1020MOL0     H40709   2.934   3.705   7.910 -3.1098  0.5218  0.4778
 1020MOL0     H40710   3.189   3.853   7.770 -0.4422 -2.4813  0.5418
 1020MOL0     H40711   3.123   4.016   7.802 -0.9336  0.8735 -1.5036
 1020MOL0     H40712   3.025   3.906   7.599  0.7949 -1.7587  0.6583
 1020MOL0     H40713   2.966   3.774   7.688  1.4775 -1.3283  2.9133
 1020MOL0     H40714   2.805   3.897   7.825  2.3153  0.0265  1.6601
 1020MOL0     H40715   2.883   4.052   7.782  2.5002 -1.5319  2.1186
 1020MOL0     H40716   2.800   4.003   7.548  2.0919  1.2382  2.9149
 1020MOL0     H40717   2.743   3.844   7.604 -1.3230 -0.5721 -0.4307
 1020MOL0     H40718   2.441   4.100   7.805  1.5297 -3.2752 -5.4176
 1020MOL0     H40719   2.416   4.444   7.970  4.1036 -0.8620 -0.9499
 1020MOL0     H40720   2.326   4.286   7.964 -0.9217 -2.3245 -4.3707
 1020MOL0     H40721   2.309   4.391   7.832  0.4127 -0.3511 -0.0540
 1020MOL0     H40722   2.501   4.828   7.805  2.2828  2.0127 -1.6636
 1020MOL0     H40723   2.474   5.033   7.902 -2.6633 -0.4288  2.6680
 1020MOL0     H40724   2.447   5.251   8.064 -1.4093  1.5319  1.9653
 1020MOL0     H40725   2.338   5.116   8.077 -1.2542  1.7975  1.1883
 1020MOL0     H40726   2.300   5.177   8.319 -1.0693 -1.7878 -1.1677
 1020MOL0     H40727   2.428   5.296   8.307 -1.3132 -0.7750  2.6071
 1020MOL0     H40728   2.323   5.413   8.133  1.7148  2.1147  2.7114
 1020MOL0     H40729   2.250   5.432   8.294 -3.8437 -0.0579  0.1821
 1020MOL0     H40730   2.115   5.220   8.142  1.3819 -0.1811 -2.7899
 1020MOL0     H40731   2.127   5.362   8.045 -1.9483 -0.8111  0.0637
 1020MOL0     H40732   2.014   5.375   8.322 -2.1381  2.0694  1.3900
 1020MOL0     H40733   2.004   5.500   8.198  2.3154 -0.1679 -0.0174
 1020MOL0     H40734   1.868   5.232   8.152  3.5446 -0.4932 -0.0008
 1020MOL0     H40735   1.886   5.365   8.037  0.3864 -1.5560  0.1012
 1020MOL0     H40736   1.762   5.515   8.180  0.3312  0.1768  1.7294
 1020MOL0     H40737   1.786   5.410   8.317  0.2296 -0.9716 -0.5758
 1020MOL0     H40738   1.641   5.231   8.224  0.0744  0.3317 -0.3819
 1020MOL0     H40739   1.599   5.325   8.090  2.5330  0.6156 -0.8477
 1020MOL0     H40740   2.648   4.893   8.273  1.3291  1.2367  0.0158
 1020MOL0     H40741   2.692   4.687   8.173  0.7544  1.5268  2.6248
 1020MOL0     H40742   2.771   4.446   7.682  2.6977 -1.1490  2.2657
 1020MOL0     H40743   2.789   4.199   7.601 -0.0356 -3.0210  1.4952
 1020MOL0     H40744   3.801   3.686   8.537 -0.5972 -0.4145 -0.7904
 1020MOL0     H40745   3.850   3.807   8.773  1.0237 -0.3773 -1.2227
 1020MOL0     H40746   3.831   3.934   9.107  0.6435 -2.1224 -1.4458
 1020MOL0     H40747   3.858   4.069   9.309  1.1633  1.0509  4.1391
 1020MOL0     H40748   3.904   4.138   9.495 -0.5198  1.1790  1.3998
 1020MOL0     H40749   4.025   4.159   9.627 -1.2099 -0.3422  0.4129
 1020MOL0     H40750   4.037   4.284   9.352 -1.5555 -0.6034 -0.3176
 1020MOL0     H40751   4.185   4.249   9.439 -1.0589 -1.0081 -1.9229
 1020MOL0     H40752   3.950   4.406   9.535 -0.1403  0.8326 -1.8264
 1020MOL0     H40753   4.088   4.386   9.636 -0.9196  1.6740  0.4472
 1020MOL0     H40754   4.075   4.526   9.377 -2.4686  1.2490  1.7738
 1020MOL0     H40755   4.228   4.471   9.444 -0.3634 -6.1878  1.2079
 1020MOL0     H40756   4.144   4.820   9.662  2.9337 -2.5622  3.3654
 1020MOL0     H40757   4.161   3.814   9.453 -0.7585 -0.2438  0.0784
 1020MOL0     H40758   4.203   3.598   9.169 -2.2262  0.3533 -2.0001
 1020MOL0     H40759   4.212   3.592   9.349  1.6615 -4.1221 -2.3831
 1020MOL0     H40760   4.087   3.520   9.273  1.1738 -1.2579  1.9902
 1021MOL0     O40761   1.858   2.072  10.721  0.5148  0.2681 -0.2044
 1021MOL0     C40762   1.911   2.069  10.830  0.1970  0.7575 -0.0587
 1021MOL0     O40763   2.048   2.083  10.849  0.5808 -0.5191  0.0405
 1021MOL0     C40764   2.124   2.115  10.742  0.5162 -0.3932  0.6052
 1021MOL0     C40765   2.220   2.031  10.699  0.5982  0.4713  0.4088
 1021MOL0     C40766   2.303   2.067  10.600  0.1124 -0.5803  0.4616
 1021MOL0     C40767   2.283   2.185  10.528 -0.6617 -0.1518  0.2738
 1021MOL0     O40768   2.355   2.229  10.423 -0.3124  0.4286  0.6072
 1021MOL0     C40769   2.466   2.146  10.384  0.2882 -0.8923  0.6362
 1021MOL0     C40770   2.539   2.187  10.251  0.8000  0.0600 -0.2671
 1021MOL0     C40771   2.435   2.256  10.160  0.5026  0.1033 -0.0386
 1021MOL0     C40772   2.309   2.170  10.117  0.3023 -0.2966  0.0749
 1021MOL0     C40773   2.350   2.043  10.028  0.1072  1.3158  0.3870
 1021MOL0     C40774   2.430   2.072   9.898 -0.5376 -0.4202 -0.6792
 1021MOL0     C40775   2.441   1.941   9.816  0.7799 -0.0850  0.4395
 1021MOL0     C40776   2.527   1.946   9.687  0.5313  0.0766 -0.1050
 1021MOL0     N40777   2.670   1.978   9.712  0.0129  0.3126  0.1266
 1021MOL0     C40778   2.768   1.889   9.749 -0.1695 -0.0924 -0.2494
 1021MOL0     C40779   2.886   1.956   9.739  0.0728  1.0584  1.0165
 1021MOL0     C40780   3.019   1.906   9.761 -0.7050  0.4044 -0.4744
 1021MOL0     C40781   3.039   1.891   9.907  0.5809 -0.2457  0.1574
 1021MOL0     C40782   3.139   1.786   9.950  0.6542 -0.1186  0.6128
 1021MOL0     C40783   3.080   1.631   9.935 -0.6708  0.2660 -0.1150
 1021MOL0     O40784   3.183   1.535   9.961  0.3299 -0.7180  0.2016
 1021MOL0     C40785   3.279   1.510   9.863 -1.2366  1.0305  0.5741
 1021MOL0     C40786   3.278   1.542   9.728  0.6383  0.6160  0.6700
 1021MOL0     C40787   3.360   1.476   9.643 -0.3489 -0.5453 -0.9946
 1021MOL0     C40788   3.345   1.511   9.495  0.1761 -0.3437 -0.0761
 1021MOL0     C40789   3.448   1.381   9.682  1.1127  0.1082  0.1643
 1021MOL0     C40790   3.542   1.301   9.597  0.3720  0.1063  0.5291
 1021MOL0     O40791   3.663   1.260   9.657  0.2609  0.0698 -0.3205
 1021MOL0     C40792   3.753   1.183   9.581  0.0998  0.1812  0.9931
 1021MOL0     C40793   3.831   1.093   9.652  0.7325 -0.0388  0.0315
 1021MOL0     C40794   3.918   1.009   9.581  0.1985  0.4028  0.6029
 1021MOL0     C40795   3.904   1.000   9.436 -0.2685  0.6972  0.4283
 1021MOL0     O40796   3.985   0.908   9.368 -0.7550 -0.5692  0.5248
 1021MOL0     C40797   3.956   0.886   9.232 -0.9257  1.2879  1.1067
 1021MOL0     C40798   4.027   0.768   9.185 -0.7839 -0.1797  0.7257
 1021MOL0     C40799   4.178   0.743   9.223 -0.3020 -1.0426 -1.0062
 1021MOL0     C40800   4.290   0.819   9.139  0.0991 -0.7380  0.5501
 1021MOL0     C40801   4.396   0.879   9.235 -0.3152 -0.4186 -0.1015
 1021MOL0     C40802   4.487   0.768   9.294 -0.2973  0.3312  0.3671
 1021MOL0     C40803   4.625   0.819   9.346  1.0586 -0.3202  0.4081
 1021MOL0     C40804   4.721   0.711   9.387 -0.0277 -0.3688  0.7416
 1021MOL0    Cl40805   4.878   0.792   9.443 -0.4708  0.2269  0.0112
 1021MOL0     C40806   3.821   1.095   9.367  0.3975  1.1547  0.1799
 1021MOL0     C40807   3.750   1.185   9.443 -0.1232  0.2679 -0.2758
 1021MOL0     O40808   3.493   1.243   9.503 -0.0063 -0.1315  0.6573
 1021MOL0     C40809   3.458   1.346   9.819 -0.6824 -1.0012  0.0853
 1021MOL0     C40810   3.378   1.425   9.910  0.2891 -0.9765 -0.2343
 1021MOL0     N40811   2.856   2.088   9.710  0.3651  0.7330 -0.5952
 1021MOL0     N40812   2.726   2.105   9.694 -0.6872  0.6594 -0.7770
 1021MOL0     C40813   2.185   2.269  10.566  0.8598 -0.6186 -0.2858
 1021MOL0     C40814   2.109   2.242  10.676  0.6252 -0.1922 -0.1128
 1021MOL0     C40815   1.832   2.031  10.944  0.4195  0.2957  0.1287
 1021MOL0     C40816   1.842   1.899  11.004  0.2096 -0.3801  0.2688
 1021MOL0     C40817   1.753   1.858  11.106  0.0138 -0.5330 -0.1677
 1021MOL0     C40818   1.654   1.946  11.152  0.5462 -0.0989 -0.4947
 1021MOL0     O40819   1.567   1.888  11.248 -0.5237 -0.1455  0.3095
 1021MOL0     C40820   1.444   1.963  11.281  0.7320 -0.1225  0.2763
 1021MOL0     C40821   1.335   1.939  11.171  0.1641 -0.7581  0.0911
 1021MOL0     C40822   1.189   1.941  11.233  0.3216  0.5854 -0.4490
 1021MOL0     C40823   1.158   2.083  11.278  0.2177 -1.4494  0.0481
 1021MOL0     C40824   1.101   2.158  11.162 -0.2265 -0.3217  0.2878
 1021MOL0     C40825   1.050   2.227  11.078  0.9132  0.2269 -0.2211
 1021MOL0     C40826   1.655   2.082  11.104 -0.1061  0.3005  0.0309
 1021MOL0     C40827   1.739   2.125  10.998 -0.0960 -0.5028 -0.4928
 1021MOL0     C40828   1.749   2.274  10.955 -0.2941 -0.0756 -0.1717
 1021MOL0     H40829   2.240   1.938  10.752  2.3215  0.9360  0.6311
 1021MOL0     H40830   2.382   1.997  10.578 -2.0222 -2.2127 -2.8794
 1021MOL0     H40831   2.427   2.046  10.361 -0.7466 -0.1342 -1.1281
 1021MOL0     H40832   2.533   2.155  10.470  2.2051 -2.8998 -0.5101
 1021MOL0     H40833   2.612   2.268  10.264 -1.9873  2.6558  0.3845
 1021MOL0     H40834   2.589   2.097  10.215 -0.3436 -1.1458  1.0387
 1021MOL0     H40835   2.397   2.341  10.217 -0.6982 -0.6620  0.3319
 1021MOL0     H40836   2.477   2.298  10.068 -2.4273  0.5329 -1.2962
 1021MOL0     H40837   2.247   2.128  10.197  1.7631 -1.6997  0.5054
 1021MOL0     H40838   2.251   2.233  10.048  0.4054 -0.6340 -0.3262
 1021MOL0     H40839   2.261   1.979  10.024  3.5616 -4.1334 -0.2507
 1021MOL0     H40840   2.413   1.977  10.089  1.3090 -0.0449 -2.1735
 1021MOL0     H40841   2.356   2.134   9.846 -1.4467 -0.1217  0.9024
 1021MOL0     H40842   2.525   2.123   9.910 -1.0717  0.2981  0.6809
 1021MOL0     H40843   2.341   1.913   9.784 -0.0969  2.5421  0.6397
 1021MOL0     H40844   2.473   1.866   9.890 -0.3765 -1.3612 -0.3127
 1021MOL0     H40845   2.514   1.856   9.626  1.6069 -1.8068  2.2665
 1021MOL0     H40846   2.491   2.028   9.623 -2.9871 -0.2921  1.2133
 1021MOL0     H40847   2.757   1.783   9.773  2.3246 -0.7913 -1.8143
 1021MOL0     H40848   3.094   1.975   9.721  0.0327 -0.8505 -1.3171
 1021MOL0     H40849   3.026   1.809   9.711  0.1750 -0.0093  0.4244
 1021MOL0     H40850   3.067   1.985   9.956 -0.0013  0.5138 -0.9274
 1021MOL0     H40851   2.947   1.856   9.955 -0.4398 -0.1565 -1.6647
 1021MOL0     H40852   3.232   1.790   9.893 -0.8657 -1.2072 -2.1268
 1021MOL0     H40853   3.171   1.818  10.050  0.5505  0.9491  0.3211
 1021MOL0     H40854   2.995   1.628  10.003  0.3745 -0.6729  1.2139
 1021MOL0     H40855   3.033   1.610   9.838 -2.2390 -1.9386  1.0332
 1021MOL0     H40856   3.203   1.614   9.694  0.1632 -0.1189  0.1515
 1021MOL0     H40857   3.411   1.593   9.465 -2.2566  2.1101  0.9648
 1021MOL0     H40858   3.240   1.529   9.471  0.2670 -1.1596 -1.2130
 1021MOL0     H40859   3.370   1.425   9.431  1.5490  0.7821 -1.1073
 1021MOL0     H40860   3.820   1.110   9.759  0.3097 -2.0047  0.3384
 1021MOL0     H40861   3.993   0.951   9.634  0.3659 -0.0714 -0.1451
 1021MOL0     H40862   3.850   0.889   9.204 -0.0600  2.8909 -2.6572
 1021MOL0     H40863   4.012   0.963   9.177  2.7837 -2.7971 -1.4604
 1021MOL0     H40864   3.964   0.683   9.214 -1.9612 -0.3504 -1.9687
 1021MOL0     H40865   4.022   0.763   9.076  0.8241 -1.1454  0.6597
 1021MOL0     H40866   4.191   0.634   9.222 -1.9786 -1.2740 -2.6466
 1021MOL0     H40867   4.190   0.769   9.328  0.2488 -3.5691 -0.3725
 1021MOL0     H40868   4.243   0.907   9.096 -1.2037 -0.9503  1.4649
 1021MOL0     H40869   4.326   0.753   9.060 -0.6468 -0.5853  0.0725
 1021MOL0     H40870   4.459   0.949   9.179 -2.3244  0.2302 -1.6698
 1021MOL0     H40871   4.352   0.936   9.318  1.8487 -1.3126  1.7668
 1021MOL0     H40872   4.505   0.697   9.213 -0.8284  1.0099 -0.3631
 1021MOL0     H40873   4.428   0.718   9.371 -3.2571 -0.5747 -2.3020
 1021MOL0     H40874   4.610   0.886   9.430 -0.8744  0.1041 -0.2270
 1021MOL0     H40875   4.677   0.883   9.274 -2.4306 -1.1214 -3.2001
 1021MOL0     H40876   4.724   0.640   9.303 -1.7045 -0.4197  0.6823
 1021MOL0     H40877   4.685   0.665   9.479 -1.6819  0.0792  0.3549
 1021MOL0     H40878   3.822   1.112   9.260  3.2056 -1.2898 -0.3345
 1021MOL0     H40879   3.686   1.262   9.402 -1.1798  0.9087  2.4061
 1021MOL0     H40880   3.522   1.264   9.852 -1.2087 -1.3377  0.2764
 1021MOL0     H40881   3.378   1.414  10.018 -1.9743 -0.5067 -0.1235
 1021MOL0     H40882   2.154   2.355  10.508 -0.6030 -0.0516  1.2439
 1021MOL0     H40883   2.026   2.309  10.697  0.1515 -0.0447 -2.2399
 1021MOL0     H40884   1.932   1.845  10.978  0.4600  1.2143 -2.6393
 1021MOL0     H40885   1.765   1.760  11.151 -0.0710 -1.0426 -1.2400
 1021MOL0     H40886   1.398   1.932  11.375 -2.3729  5.3827  1.0048
 1021MOL0     H40887   1.457   2.071  11.297 -2.2997  0.0963  2.2496
 1021MOL0     H40888   1.344   1.845  11.116  0.2550 -0.8281  0.2227
 1021MOL0     H40889   1.343   2.021  11.100 -0.5909 -2.8740 -2.5917
 1021MOL0     H40890   1.115   1.915  11.157 -0.2339  0.5983  0.0836
 1021MOL0     H40891   1.185   1.873  11.319 -1.3873 -2.0584 -2.4467
 1021MOL0     H40892   1.241   2.137  11.324 -0.1606 -1.0665  0.2875
 1021MOL0     H40893   1.067   2.081  11.339 -1.2672  0.4858 -1.9183
 1021MOL0     H40894   0.990   2.280  11.007  0.9453  2.4482  1.3060
 1021MOL0     H40895   1.584   2.154  11.142 -0.5126 -0.1651  0.1648
 1021MOL0     H40896   1.661   2.324  10.914  0.5425  0.7581 -1.0322
 1021MOL0     H40897   1.773   2.336  11.042  2.6282  2.2551 -2.4194
 1021MOL0     H40898   1.828   2.287  10.880 -2.4911  2.6685 -2.2128
 1022MOL0     O40899   2.801   8.983   5.229  0.0208 -0.1713  0.6688
 1022MOL0     C40900   2.819   9.105   5.255 -0.5456 -0.0456  0.9671
 1022MOL0     O40901   2.888   9.157   5.361 -0.2076 -0.2317  0.3444
 1022MOL0     C40902   2.944   9.076   5.460  0.0235 -0.7352 -0.3320
 1022MOL0     C40903   3.062   9.123   5.528  0.1607  0.9323  1.0081
 1022MOL0     C40904   3.110   9.048   5.640  0.5576 -0.6590 -0.2822
 1022MOL0     C40905   3.043   8.937   5.692  0.4641  0.7682 -0.5029
 1022MOL0     O40906   3.111   8.877   5.798  0.4355 -0.3965  1.0800
 1022MOL0     C40907   3.043   8.782   5.890 -0.0993 -0.2718  0.7402
 1022MOL0     C40908   3.089   8.646   5.837 -0.0404 -0.1338 -0.8831
 1022MOL0     C40909   3.030   8.526   5.918  0.9157  0.1092  0.5617
 1022MOL0     C40910   3.090   8.392   5.868  0.8475  0.4681 -0.4240
 1022MOL0     C40911   3.002   8.274   5.917 -0.2785  0.3312 -1.0650
 1022MOL0     C40912   3.070   8.140   5.865  0.3136  0.1486 -0.2986
 1022MOL0     C40913   3.192   8.094   5.940 -0.5746  0.5407  0.0252
 1022MOL0     C40914   3.230   7.954   5.886  0.4252 -0.0185  0.3460
 1022MOL0     N40915   3.341   7.888   5.952  0.0511 -0.9625  0.1793
 1022MOL0     C40916   3.327   7.799   6.058 -0.2349  0.4727 -0.1306
 1022MOL0     C40917   3.454   7.785   6.103  0.0995  0.9277  0.1560
 1022MOL0     C40918   3.489   7.698   6.229  0.6815  1.2547  0.8563
 1022MOL0     C40919   3.414   7.564   6.247  0.2111  0.5084 -0.0998
 1022MOL0     C40920   3.447   7.509   6.390 -0.3090  0.1284 -0.3218
 1022MOL0     C40921   3.596   7.482   6.418 -0.9966 -0.0000  0.4486
 1022MOL0     O40922   3.662   7.418   6.299 -0.2348 -0.8437  0.4535
 1022MOL0     C40923   3.657   7.284   6.277  0.2647  0.6935 -0.4339
 1022MOL0     C40924   3.578   7.193   6.346  0.4104 -0.5017  0.4881
 1022MOL0     C40925   3.602   7.066   6.334 -1.0185 -0.5210  0.5664
 1022MOL0     C40926   3.535   6.986   6.444  0.2163  0.0918 -0.2492
 1022MOL0     C40927   3.679   7.016   6.228  0.3453 -0.3307  0.6167
 1022MOL0     C40928   3.697   6.873   6.211 -0.2438  0.7363 -0.1408
 1022MOL0     O40929   3.720   6.815   6.093 -0.1875  0.2393  0.1736
 1022MOL0     C40930   3.708   6.685   6.076 -0.2479  0.5307  0.6272
 1022MOL0     C40931   3.783   6.584   6.142  0.0235  0.0495 -0.1054
 1022MOL0     C40932   3.755   6.445   6.111 -0.1653 -0.6781  0.3522
 1022MOL0     C40933   3.642   6.408   6.030 -0.9135  0.5637 -0.2683
 1022MOL0     O40934   3.610   6.271   6.025  0.3469 -0.3357  0.2900
 1022MOL0     C40935   3.490   6.236   5.963  0.4739 -0.3586 -0.1708
 1022MOL0     C40936   3.471   6.088   6.009  0.7483  0.5560 -0.2979
 1022MOL0     C40937   3.470   6.084   6.168 -0.1960 -0.1375  0.5167
 1022MOL0     C40938   3.327   6.100   6.230 -0.3773 -0.4020 -0.4013
 1022MOL0     C40939   3.308   6.032   6.366  1.0834  0.2039 -0.5261
 1022MOL0     C40940   3.162   6.024   6.413  0.2257 -0.3606 -0.4850
 1022MOL0     C40941   3.089   6.152   6.447  0.4769  0.1792 -0.0756
 1022MOL0     C40942   3.145   6.237   6.559  0.4381  0.8381  0.8583
 1022MOL0    Cl40943   3.164   6.131   6.702  0.3161 -0.3350 -0.1958
 1022MOL0     C40944   3.583   6.517   5.957 -0.0133 -0.0655 -0.5050
 1022MOL0     C40945   3.613   6.648   5.988 -1.6361 -0.8720  0.3274
 1022MOL0     O40946   3.713   6.816   6.319  0.0617  0.4286 -0.1495
 1022MOL0     C40947   3.752   7.103   6.148  0.6712 -0.1713 -0.5641
 1022MOL0     C40948   3.739   7.236   6.179  0.0270 -0.3338 -1.1112
 1022MOL0     N40949   3.533   7.856   6.010 -0.7430 -0.0990  0.9709
 1022MOL0     N40950   3.470   7.927   5.927 -0.1332  0.1204  0.4873
 1022MOL0     C40951   2.934   8.896   5.624  0.4097 -0.3302  0.0843
 1022MOL0     C40952   2.892   8.958   5.512 -0.7383  0.6169  1.0341
 1022MOL0     C40953   2.753   9.206   5.173  0.5217 -0.4723  0.1132
 1022MOL0     C40954   2.627   9.176   5.122  0.5158  0.5311 -0.5979
 1022MOL0     C40955   2.565   9.261   5.032  0.1241  0.9321 -0.1779
 1022MOL0     C40956   2.621   9.378   4.990 -0.0732 -0.7822  0.8188
 1022MOL0     O40957   2.584   9.453   4.886  0.2211  0.4857  0.5719
 1022MOL0     C40958   2.527   9.391   4.764  0.4208 -0.6025 -1.0530
 1022MOL0     C40959   2.562   9.487   4.651 -0.5364  0.2191  0.3487
 1022MOL0     C40960   2.519   9.469   4.498  0.3825  0.2173 -0.9374
 1022MOL0     C40961   2.559   9.575   4.408  0.1754 -0.2015  0.7363
 1022MOL0     C40962   2.494   9.567   4.272 -0.3101 -0.0055 -0.0210
 1022MOL0     C40963   2.442   9.587   4.165  0.6490  0.4153 -0.2008
 1022MOL0     C40964   2.743   9.405   5.039 -0.6560  0.3289 -0.3477
 1022MOL0     C40965   2.811   9.324   5.129 -0.0567 -0.5934  1.1401
 1022MOL0     C40966   2.950   9.374   5.183  0.8675  0.6664  0.6860
 1022MOL0     H40967   3.105   9.217   5.495 -2.6068  2.5495  1.7721
 1022MOL0     H40968   3.201   9.079   5.690  0.6728 -2.5208  0.7287
 1022MOL0     H40969   2.936   8.790   5.870 -0.1248 -0.4761  0.7988
 1022MOL0     H40970   3.060   8.802   5.996  2.3047  1.6321  0.0960
 1022MOL0     H40971   3.054   8.649   5.734 -3.2744  2.5784  0.1033
 1022MOL0     H40972   3.196   8.639   5.860 -0.4029  2.7136  2.5729
 1022MOL0     H40973   3.058   8.526   6.024 -0.2530 -2.2215  0.9468
 1022MOL0     H40974   2.921   8.528   5.923  0.8790  4.8408  2.8897
 1022MOL0     H40975   3.088   8.389   5.759 -0.6065 -1.0536 -0.4051
 1022MOL0     H40976   3.194   8.384   5.900  0.9519 -0.7438 -0.9951
 1022MOL0     H40977   2.903   8.282   5.871 -0.1403  1.2170 -1.2301
 1022MOL0     H40978   2.994   8.282   6.026  1.3558  0.7242 -0.9422
 1022MOL0     H40979   2.999   8.056   5.864  1.5195 -0.9385  1.0684
 1022MOL0     H40980   3.103   8.158   5.762  1.4436  0.5488  0.1161
 1022MOL0     H40981   3.179   8.093   6.049  1.0871  2.6294  0.3036
 1022MOL0     H40982   3.272   8.163   5.913  1.2831 -2.0575 -1.6873
 1022MOL0     H40983   3.140   7.892   5.880 -0.7344  1.6530 -0.1390
 1022MOL0     H40984   3.259   7.963   5.781  0.6748  2.3050  0.5704
 1022MOL0     H40985   3.236   7.758   6.099 -1.3337  1.3542 -1.6098
 1022MOL0     H40986   3.465   7.758   6.317  2.1980 -1.1212  3.0407
 1022MOL0     H40987   3.598   7.685   6.231  0.4196 -1.5250  1.2525
 1022MOL0     H40988   3.306   7.575   6.245  0.1721  0.0787 -0.5458
 1022MOL0     H40989   3.436   7.494   6.166  3.5077  1.5535 -0.2616
 1022MOL0     H40990   3.424   7.596   6.451  1.9966  0.8886 -0.4531
 1022MOL0     H40991   3.384   7.420   6.400 -0.8483  0.1753 -2.6565
 1022MOL0     H40992   3.650   7.570   6.451 -2.4461  0.8133  0.7554
 1022MOL0     H40993   3.599   7.416   6.505 -3.7219 -0.3276  0.4103
 1022MOL0     H40994   3.509   7.234   6.419  0.5752  0.4274  0.1352
 1022MOL0     H40995   3.621   6.953   6.503  1.5750  3.4665 -0.1480
 1022MOL0     H40996   3.474   6.904   6.405 -2.8545  2.9555 -1.9718
 1022MOL0     H40997   3.463   7.040   6.505  0.3180  2.7776 -2.3122
 1022MOL0     H40998   3.856   6.622   6.212  2.1691 -1.1751 -1.5808
 1022MOL0     H40999   3.813   6.364   6.154  1.9561 -0.8719 -2.5087
 1022MOL0     H41000   3.417   6.310   5.998  1.7956  2.1998 -2.4973
 1022MOL0     H41001   3.486   6.237   5.854 -1.1626  1.4238 -0.1515
 1022MOL0     H41002   3.376   6.050   5.970 -2.8138  3.8522  4.0554
 1022MOL0     H41003   3.560   6.037   5.972 -0.5111 -2.5567  0.6523
 1022MOL0     H41004   3.534   6.153   6.224  0.7276 -1.4001  1.0509
 1022MOL0     H41005   3.497   5.985   6.205 -0.0720 -0.8163 -1.3244
 1022MOL0     H41006   3.250   6.057   6.165 -1.2069 -1.6554  1.3278
 1022MOL0     H41007   3.301   6.205   6.247  0.8600 -0.3201  1.2700
 1022MOL0     H41008   3.356   5.933   6.364 -0.5115 -0.6062 -0.5818
 1022MOL0     H41009   3.367   6.099   6.429  2.0980  1.7868 -3.0111
 1022MOL0     H41010   3.154   5.958   6.500  1.3032 -0.5290 -0.4972
 1022MOL0     H41011   3.109   5.982   6.328  2.8203 -0.7416 -2.0178
 1022MOL0     H41012   2.983   6.132   6.465  0.6130  0.0535  0.6423
 1022MOL0     H41013   3.077   6.209   6.355 -3.8889 -1.6947 -0.9350
 1022MOL0     H41014   3.093   6.329   6.588  4.3910  3.8395 -0.6420
 1022MOL0     H41015   3.239   6.272   6.515 -1.1451  1.1780 -2.6254
 1022MOL0     H41016   3.514   6.502   5.875  1.4869  4.1843 -2.8652
 1022MOL0     H41017   3.574   6.725   5.922  1.8464 -0.6650 -1.7534
 1022MOL0     H41018   3.812   7.063   6.067 -1.1706 -1.6137 -1.2869
 1022MOL0     H41019   3.791   7.312   6.122  2.3970  1.1727  2.6353
 1022MOL0     H41020   2.873   8.811   5.648 -1.0582  0.7446  0.2762
 1022MOL0     H41021   2.799   8.914   5.477 -1.2097  0.7592  2.0917
 1022MOL0     H41022   2.590   9.083   5.164 -1.8886  1.0228 -1.5004
 1022MOL0     H41023   2.467   9.235   4.996  1.0165  0.0314 -2.1018
 1022MOL0     H41024   2.556   9.289   4.738 -2.5329 -1.5792 -0.8359
 1022MOL0     H41025   2.420   9.398   4.784  1.0844 -0.9357  3.8684
 1022MOL0     H41026   2.671   9.497   4.652 -0.1384 -2.8913  0.8618
 1022MOL0     H41027   2.532   9.586   4.686 -0.1660  0.6465 -0.5155
 1022MOL0     H41028   2.547   9.369   4.464 -1.5580 -0.3889 -0.8589
 1022MOL0     H41029   2.410   9.471   4.495  0.3346 -0.2011  0.0052
 1022MOL0     H41030   2.668   9.564   4.405  0.3148  0.1076  3.0455
 1022MOL0     H41031   2.529   9.676   4.437 -2.2644  0.9195 -4.3931
 1022MOL0     H41032   2.387   9.590   4.073  1.5080 -1.7691 -0.8536
 1022MOL0     H41033   2.798   9.496   5.017 -2.2563  1.0270 -1.6752
 1022MOL0     H41034   2.996   9.448   5.117  2.8450  1.9027  3.2637
 1022MOL0     H41035   2.943   9.413   5.285 -3.4403 -1.5529  1.4611
 1022MOL0     H41036   3.026   9.296   5.188  3.1118  2.5327 -1.5157
 1023MOL0     O41037   4.738   8.758   5.581  0.5543 -0.2980 -0.5536
 1023MOL0     C41038   4.674   8.710   5.676 -0.1450  0.1460 -0.1862
 1023MOL0     O41039   4.537   8.710   5.680  0.1620 -0.5856 -0.2883
 1023MOL0     C41040   4.476   8.777   5.568  0.1109  0.7873  0.1234
 1023MOL0     C41041   4.417   8.899   5.611 -0.6766 -0.6997  0.3139
 1023MOL0     C41042   4.353   8.987   5.515 -0.9176  0.6266 -0.7440
 1023MOL0     C41043   4.336   8.938   5.384  0.6753  0.4381 -0.4763
 1023MOL0     O41044   4.252   9.000   5.297 -0.6285  0.5369 -0.0066
 1023MOL0     C41045   4.299   9.016   5.158  0.3577 -0.3934  0.1093
 1023MOL0     C41046   4.247   9.146   5.102  0.1384 -0.1783  0.6903
 1023MOL0     C41047   4.114   9.124   5.033  0.6696 -0.4381 -0.5400
 1023MOL0     C41048   4.055   9.244   4.962  0.0281 -0.4532  0.1763
 1023MOL0     C41049   3.909   9.232   4.914 -0.5989  0.4119  0.2653
 1023MOL0     C41050   3.861   9.363   4.849  0.2073  1.0292  0.2018
 1023MOL0     C41051   3.743   9.335   4.749  0.3570 -0.3563  0.3946
 1023MOL0     C41052   3.623   9.278   4.821  1.2136  0.0013  0.6042
 1023MOL0     N41053   3.501   9.280   4.738  0.2048  0.2226  0.0246
 1023MOL0     C41054   3.489   9.284   4.601 -0.1219 -0.0847  0.3482
 1023MOL0     C41055   3.355   9.307   4.582 -0.6579 -0.8396  0.6276
 1023MOL0     C41056   3.290   9.315   4.453  0.5063  0.2495  0.4657
 1023MOL0     C41057   3.242   9.454   4.428  0.5128  0.7604  0.8940
 1023MOL0     C41058   3.204   9.469   4.277  0.5878  0.6151  0.5058
 1023MOL0     C41059   3.171   9.610   4.246  0.0519 -0.1077 -0.2745
 1023MOL0     O41060   3.164   9.629   4.101  0.4257  0.1945 -0.3309
 1023MOL0     C41061   3.044   9.623   4.035  0.1392  0.5185  0.5559
 1023MOL0     C41062   3.048   9.667   3.896  0.3672  0.3878  0.2692
 1023MOL0     C41063   2.925   9.698   3.822 -0.0543 -0.4161  0.2019
 1023MOL0     C41064   2.953   9.749   3.681 -0.7527  0.4674  0.1938
 1023MOL0     C41065   2.795   9.655   3.876 -1.4375 -0.5681 -0.2456
 1023MOL0     C41066   2.662   9.673   3.813  0.0133  0.5186  0.6469
 1023MOL0     O41067   2.562   9.595   3.844  0.0446  0.0724 -0.1016
 1023MOL0     C41068   2.436   9.620   3.820 -0.0274  0.0911  0.5202
 1023MOL0     C41069   2.386   9.748   3.863  0.1791 -0.4997 -1.8106
 1023MOL0     C41070   2.255   9.791   3.842 -0.5188 -0.5625 -0.4931
 1023MOL0     C41071   2.176   9.707   3.767  0.4506 -0.8699 -0.4717
 1023MOL0     O41072   2.042   9.726   3.760  0.0441 -0.9605  0.2458
 1023MOL0     C41073   1.979   9.736   3.633 -0.5626  0.2202 -0.7235
 1023MOL0     C41074   1.854   9.653   3.673  0.0373 -0.0031  0.0729
 1023MOL0     C41075   1.758   9.621   3.555 -0.4488 -0.3740 -0.1332
 1023MOL0     C41076   1.690   9.745   3.500  0.5650 -0.0356 -0.9095
 1023MOL0     C41077   1.598   9.717   3.382  0.3113 -0.0781  0.3812
 1023MOL0     C41078   1.531   9.849   3.337  0.2322  0.3060  0.3847
 1023MOL0     C41079   1.397   9.868   3.403  0.1283 -0.3186 -0.0160
 1023MOL0     C41080   1.286   9.768   3.376 -0.3721  0.0125  1.6756
 1023MOL0    Cl41081   1.127   9.864   3.374  0.5180 -0.3750 -0.0166
 1023MOL0     C41082   2.230   9.582   3.710  0.0367 -0.4379  0.4384
 1023MOL0     C41083   2.361   9.542   3.739  0.2944 -0.8451  0.2403
 1023MOL0     O41084   2.654   9.768   3.731 -0.4225 -0.1995  0.0765
 1023MOL0     C41085   2.805   9.611   4.015  0.6083 -0.7420 -0.6461
 1023MOL0     C41086   2.919   9.594   4.087  0.6042  0.7641 -0.4661
 1023MOL0     N41087   3.295   9.329   4.704  0.1744 -0.5074  0.3451
 1023MOL0     N41088   3.379   9.307   4.792 -0.6574 -0.0828 -0.4525
 1023MOL0     C41089   4.398   8.817   5.348 -0.6128  0.5771 -0.9235
 1023MOL0     C41090   4.470   8.726   5.441  0.6476 -0.3535 -0.0298
 1023MOL0     C41091   4.743   8.644   5.795 -0.0748  0.4540  0.0865
 1023MOL0     C41092   4.666   8.589   5.893  0.7554 -0.3743  0.1762
 1023MOL0     C41093   4.718   8.527   6.006 -0.2008 -0.3591  0.3681
 1023MOL0     C41094   4.859   8.528   6.021  0.0821  0.5793 -0.0019
 1023MOL0     O41095   4.900   8.446   6.128 -0.4196 -0.4657 -0.4940
 1023MOL0     C41096   5.033   8.388   6.138  0.8950  0.2121 -1.1084
 1023MOL0     C41097   5.136   8.494   6.204  0.3753  1.3559 -0.4418
 1023MOL0     C41098   5.283   8.462   6.173  0.4168  1.0388  0.2936
 1023MOL0     C41099   5.380   8.441   6.289 -0.5754  0.4890  0.6683
 1023MOL0     C41100   5.518   8.415   6.234 -0.4160  0.1030  0.6485
 1023MOL0     C41101   5.626   8.395   6.195 -0.3196  0.8284  0.3472
 1023MOL0     C41102   4.945   8.585   5.921 -0.1483  0.4349  0.3292
 1023MOL0     C41103   4.889   8.643   5.807 -0.2448  0.1182 -0.3348
 1023MOL0     C41104   4.985   8.678   5.688  0.1928 -0.0406  0.3783
 1023MOL0     H41105   4.404   8.915   5.718 -5.2045  1.0016 -0.2882
 1023MOL0     H41106   4.321   9.088   5.539  1.2094  1.0154  0.7595
 1023MOL0     H41107   4.274   8.929   5.095  2.7704  0.6762 -2.5416
 1023MOL0     H41108   4.407   9.028   5.152  0.3067 -0.4076 -1.0852
 1023MOL0     H41109   4.226   9.229   5.171 -1.8631  2.0529 -2.3495
 1023MOL0     H41110   4.319   9.184   5.028  0.6401  1.5792  1.9970
 1023MOL0     H41111   4.111   9.051   4.951 -2.2293  2.1219 -2.9953
 1023MOL0     H41112   4.046   9.097   5.114 -0.4590  2.5242 -0.4073
 1023MOL0     H41113   4.058   9.327   5.033  0.6602 -0.9967  0.7983
 1023MOL0     H41114   4.115   9.273   4.875  1.1146  1.3030  1.4478
 1023MOL0     H41115   3.849   9.201   5.000  0.8932  2.0821  2.0155
 1023MOL0     H41116   3.910   9.152   4.839 -1.6869 -0.0607  0.7368
 1023MOL0     H41117   3.818   9.430   4.925 -1.6120  0.2405 -0.0707
 1023MOL0     H41118   3.950   9.406   4.803  1.6493 -3.1569 -1.3240
 1023MOL0     H41119   3.765   9.263   4.670 -3.7973 -3.0924  1.4228
 1023MOL0     H41120   3.729   9.438   4.712  3.1895  1.1065  2.9674
 1023MOL0     H41121   3.635   9.169   4.823 -0.5559 -0.2306  0.5046
 1023MOL0     H41122   3.608   9.333   4.914  2.6881  1.5356 -0.0096
 1023MOL0     H41123   3.560   9.257   4.524 -1.2170  1.4804 -1.2779
 1023MOL0     H41124   3.207   9.244   4.439  0.7733  0.5752 -4.7858
 1023MOL0     H41125   3.355   9.277   4.374  0.4778  0.7946  0.1730
 1023MOL0     H41126   3.156   9.473   4.493  0.9162 -1.8409  2.3561
 1023MOL0     H41127   3.327   9.517   4.452  2.1112 -1.4376  1.3704
 1023MOL0     H41128   3.296   9.439   4.227  1.6037 -0.0125  2.6262
 1023MOL0     H41129   3.121   9.401   4.256  2.3852 -1.7895  0.8061
 1023MOL0     H41130   3.083   9.642   4.303 -0.2009  0.5260 -0.9969
 1023MOL0     H41131   3.253   9.672   4.284  0.4802 -0.3236 -0.8261
 1023MOL0     H41132   3.147   9.679   3.854  1.2698 -2.4556  1.3279
 1023MOL0     H41133   2.893   9.692   3.609  1.4045 -1.8323  0.0925
 1023MOL0     H41134   3.055   9.724   3.649  0.0531  2.2124  1.2285
 1023MOL0     H41135   2.947   9.859   3.675  0.9573  0.6224  0.8650
 1023MOL0     H41136   2.453   9.807   3.925 -2.2140  0.1861  0.2961
 1023MOL0     H41137   2.230   9.891   3.876 -1.2336 -0.5053 -1.1626
 1023MOL0     H41138   1.947   9.838   3.610 -0.3345  0.3522 -0.4672
 1023MOL0     H41139   2.034   9.690   3.551  2.0100 -0.5866  1.2999
 1023MOL0     H41140   1.898   9.558   3.706  1.4053  0.8250  0.6701
 1023MOL0     H41141   1.793   9.702   3.750  1.5580  0.8999  0.7397
 1023MOL0     H41142   1.690   9.540   3.581 -1.0522 -0.2992 -1.4032
 1023MOL0     H41143   1.808   9.574   3.469  0.7449 -1.0916  0.9200
 1023MOL0     H41144   1.767   9.806   3.451 -0.7242 -0.5166 -3.7486
 1023MOL0     H41145   1.642   9.790   3.587  0.9838 -0.5907 -0.3828
 1023MOL0     H41146   1.639   9.648   3.309 -0.8652 -0.2711 -0.1175
 1023MOL0     H41147   1.512   9.658   3.415 -0.6190 -1.0716 -3.3672
 1023MOL0     H41148   1.491   9.837   3.236 -3.2536  3.7480  1.1322
 1023MOL0     H41149   1.598   9.935   3.341  1.0348 -0.0823 -2.5083
 1023MOL0     H41150   1.363   9.966   3.369 -6.4801 -1.9863  0.3767
 1023MOL0     H41151   1.398   9.891   3.510 -1.2669 -1.7010  0.3250
 1023MOL0     H41152   1.297   9.688   3.449  1.5584  1.1621  2.7204
 1023MOL0     H41153   1.295   9.709   3.284 -0.4324  0.7348  1.1946
 1023MOL0     H41154   2.164   9.520   3.650  3.3201 -3.9171  0.0427
 1023MOL0     H41155   2.411   9.449   3.716 -0.7658 -1.6427  1.0965
 1023MOL0     H41156   2.716   9.584   4.071 -0.4028  0.0721 -1.8227
 1023MOL0     H41157   2.918   9.536   4.179  2.6217  0.3476 -0.6612
 1023MOL0     H41158   4.375   8.766   5.255 -1.6639 -3.0526  1.1098
 1023MOL0     H41159   4.520   8.634   5.410  3.8125  1.3351 -0.3800
 1023MOL0     H41160   4.559   8.580   5.876  0.6854 -3.9186  1.7297
 1023MOL0     H41161   4.665   8.477   6.087 -0.3965 -0.4538  0.1805
 1023MOL0     H41162   5.034   8.294   6.194 -0.4179  1.3796  1.0212
 1023MOL0     H41163   5.073   8.372   6.038 -0.1783  0.4068 -1.5817
 1023MOL0     H41164   5.128   8.491   6.313  2.6760  2.0423 -0.1879
 1023MOL0     H41165   5.120   8.594   6.164 -3.4348  0.7021 -0.8664
 1023MOL0     H41166   5.285   8.367   6.118 -0.9120  2.4154 -2.2895
 1023MOL0     H41167   5.325   8.543   6.114  0.2445  1.4310  0.7065
 1023MOL0     H41168   5.351   8.348   6.338  1.0178 -1.2640 -1.5642
 1023MOL0     H41169   5.376   8.532   6.350 -0.5840  0.9736 -0.0471
 1023MOL0     H41170   5.729   8.376   6.172 -0.2475  0.6339  0.8297
 1023MOL0     H41171   5.052   8.576   5.932  0.0181  0.2216 -1.2270
 1023MOL0     H41172   5.084   8.657   5.729 -0.5219  1.1554  2.9205
 1023MOL0     H41173   4.974   8.634   5.588 -4.7427  2.0936 -0.2895
 1023MOL0     H41174   4.979   8.786   5.676  1.0993 -0.2002 -2.1143
 1024MOL0     O41175   1.001   3.134  11.314  0.6378 -0.0500 -0.3090
 1024MOL0     C41176   1.086   3.153  11.402  0.7971  0.5908  0.4565
 1024MOL0     O41177   1.118   3.272  11.470  1.0891 -0.1183  0.2793
 1024MOL0     C41178   1.061   3.401  11.461  0.1416  0.0638  0.6042
 1024MOL0     C41179   1.104   3.493  11.561  0.3569 -0.0821  0.1689
 1024MOL0     C41180   1.045   3.623  11.551 -0.3976  0.8544 -0.6908
 1024MOL0     C41181   0.972   3.675  11.441 -0.9273  0.0168 -0.3765
 1024MOL0     O41182   0.931   3.803  11.423  0.3489  0.1796  0.0877
 1024MOL0     C41183   0.938   3.895  11.534 -0.3979 -0.3801  0.0498
 1024MOL0     C41184   0.831   3.876  11.634 -0.2908 -0.3997 -0.0484
 1024MOL0     C41185   0.702   3.920  11.571  0.1800  0.3736  0.4840
 1024MOL0     C41186   0.587   3.896  11.662 -0.5000  0.0600  0.9613
 1024MOL0     C41187   0.454   3.963  11.608 -0.7431  0.3264 -0.3852
 1024MOL0     C41188   0.323   3.912  11.685  0.1130 -0.5360 -0.8776
 1024MOL0     C41189   0.200   3.965  11.621  0.0879 -0.1052 -0.1583
 1024MOL0     C41190   0.162   3.890  11.490  0.4201  0.0229 -0.4251
 1024MOL0     N41191   0.051   3.801  11.516 -0.2899  0.2046  0.5700
 1024MOL0     C41192  -0.075   3.848  11.513  0.7366  0.5238 -1.2328
 1024MOL0     C41193  -0.152   3.731  11.532  0.7122 -0.2098  0.0848
 1024MOL0     C41194  -0.304   3.725  11.551 -0.1101  0.5826 -0.4300
 1024MOL0     C41195  -0.399   3.623  11.484  0.0934  0.4170 -0.7716
 1024MOL0     C41196  -0.355   3.477  11.502 -0.2094 -0.1171 -0.3720
 1024MOL0     C41197  -0.459   3.378  11.450  0.9079 -1.0700  0.0464
 1024MOL0     O41198  -0.517   3.417  11.328  0.4598  0.2359  0.6028
 1024MOL0     C41199  -0.458   3.411  11.206 -0.5406 -0.8053 -0.6605
 1024MOL0     C41200  -0.330   3.361  11.180 -0.0400  0.6495 -0.1976
 1024MOL0     C41201  -0.269   3.350  11.056 -0.2013 -0.6978 -0.1868
 1024MOL0     C41202  -0.142   3.267  11.054  0.1560  0.4146 -0.3785
 1024MOL0     C41203  -0.333   3.419  10.947  0.5334  0.4674 -0.0157
 1024MOL0     C41204  -0.272   3.425  10.810  0.1129  0.2301 -0.7069
 1024MOL0     O41205  -0.353   3.498  10.714 -0.6777  0.2455  0.4995
 1024MOL0     C41206  -0.308   3.527  10.588 -0.3256  0.9625 -0.3422
 1024MOL0     C41207  -0.370   3.487  10.474 -0.1706  0.1787 -0.1970
 1024MOL0     C41208  -0.323   3.530  10.350  0.0274 -0.7500 -0.8950
 1024MOL0     C41209  -0.201   3.593  10.344 -0.6480  0.1235  0.3499
 1024MOL0     O41210  -0.150   3.631  10.227 -1.2275  0.1324 -0.1483
 1024MOL0     C41211  -0.136   3.520  10.128  0.0432  0.7030  0.0587
 1024MOL0     C41212  -0.116   3.583   9.988 -0.5416  0.0722 -0.5268
 1024MOL0     C41213  -0.170   3.490   9.871  0.7596 -0.1428  0.8230
 1024MOL0     C41214  -0.140   3.339   9.897  0.9486 -0.7832  0.4147
 1024MOL0     C41215   0.002   3.308   9.859  0.6416 -0.0337 -0.5963
 1024MOL0     C41216   0.048   3.173   9.905 -0.0626  1.2234  0.5806
 1024MOL0     C41217   0.057   3.172  10.062 -0.5233 -0.5688  0.7013
 1024MOL0     C41218   0.126   3.044  10.113 -0.1409  0.6097 -0.5225
 1024MOL0    Cl41219   0.067   2.884  10.057 -0.7463 -0.1522 -0.1524
 1024MOL0     C41220  -0.132   3.626  10.458  0.5059 -0.1538 -0.3884
 1024MOL0     C41221  -0.185   3.599  10.579  0.9584 -0.5102 -0.1605
 1024MOL0     O41222  -0.168   3.362  10.788  0.0792 -0.4631 -0.0021
 1024MOL0     C41223  -0.465   3.473  10.970 -0.6333  0.5995 -0.4458
 1024MOL0     C41224  -0.530   3.458  11.099 -0.5598 -0.2705 -0.1281
 1024MOL0     N41225  -0.067   3.621  11.539  0.5162 -0.1424  0.7401
 1024MOL0     N41226   0.061   3.657  11.535  0.5605  0.1736  0.1617
 1024MOL0     C41227   0.947   3.578  11.343  0.4646 -0.2825  0.1331
 1024MOL0     C41228   0.984   3.444  11.345 -0.1773 -0.3590 -0.8141
 1024MOL0     C41229   1.157   3.032  11.445 -0.3245 -0.2134 -0.6166
 1024MOL0     C41230   1.209   3.030  11.580  0.3749 -0.1604  0.0561
 1024MOL0     C41231   1.289   2.927  11.625 -0.5492 -0.8817  0.3442
 1024MOL0     C41232   1.330   2.825  11.546  0.0153  0.1814  0.2357
 1024MOL0     O41233   1.420   2.728  11.591  0.6773  0.0389 -0.2172
 1024MOL0     C41234   1.528   2.764  11.676 -0.3232 -0.5477 -0.0727
 1024MOL0     C41235   1.512   2.706  11.817  0.8010 -0.6076  0.3219
 1024MOL0     C41236   1.593   2.781  11.931  0.3433  0.6099  0.2221
 1024MOL0     C41237   1.750   2.776  11.925  0.2259 -0.4589  0.0108
 1024MOL0     C41238   1.810   2.844  11.804  1.1353  0.2234 -0.1414
 1024MOL0     C41239   1.855   2.887  11.700 -0.4607  0.6680  0.2147
 1024MOL0     C41240   1.277   2.819  11.419 -0.8294  0.0156  1.1939
 1024MOL0     C41241   1.193   2.922  11.367  1.2067  0.3099  0.3476
 1024MOL0     C41242   1.150   2.909  11.232  0.3038 -0.2163 -0.1051
 1024MOL0     H41243   1.170   3.461  11.641  0.9857  1.8519  0.4805
 1024MOL0     H41244   1.062   3.665  11.649 -0.9640  0.3155 -0.3569
 1024MOL0     H41245   0.950   3.996  11.496  2.1942 -0.4534  0.4604
 1024MOL0     H41246   1.034   3.909  11.585 -0.3583  0.0926 -0.1527
 1024MOL0     H41247   0.830   3.773  11.670  0.7432 -0.4065 -0.0148
 1024MOL0     H41248   0.866   3.941  11.715  1.8105 -1.5533  0.0512
 1024MOL0     H41249   0.711   4.026  11.546  0.1069  0.4314  0.7067
 1024MOL0     H41250   0.676   3.865  11.480 -0.8995  2.0422 -0.2694
 1024MOL0     H41251   0.557   3.791  11.667  1.9545 -0.6431  2.4435
 1024MOL0     H41252   0.609   3.936  11.762 -0.0601  1.9636  0.1547
 1024MOL0     H41253   0.450   3.939  11.501  2.0419  3.0781 -1.2579
 1024MOL0     H41254   0.462   4.070  11.628 -2.0572  1.0312 -3.1524
 1024MOL0     H41255   0.313   3.803  11.688 -1.3942 -0.3910  1.4487
 1024MOL0     H41256   0.320   3.952  11.786 -2.6712 -0.2928 -0.9834
 1024MOL0     H41257   0.231   4.065  11.588 -0.0431  0.6031  1.7752
 1024MOL0     H41258   0.118   3.976  11.693  1.5590 -0.3105  1.6085
 1024MOL0     H41259   0.121   3.956  11.413 -0.8288 -0.1852  0.0451
 1024MOL0     H41260   0.253   3.834  11.464  0.7982  0.5937 -0.3629
 1024MOL0     H41261  -0.103   3.951  11.495 -1.6111  0.3900  1.0323
 1024MOL0     H41262  -0.350   3.823  11.538 -0.9544  0.5023  1.5634
 1024MOL0     H41263  -0.324   3.702  11.656 -2.6014 -3.4990 -1.5322
 1024MOL0     H41264  -0.498   3.644  11.526  1.6044  3.2310  1.7600
 1024MOL0     H41265  -0.392   3.639  11.375 -0.0222 -2.0010 -1.1738
 1024MOL0     H41266  -0.265   3.457  11.443 -0.4475 -1.1475 -0.4033
 1024MOL0     H41267  -0.347   3.449  11.607 -0.3029 -1.9337 -0.8163
 1024MOL0     H41268  -0.421   3.277  11.429  0.1963 -1.8239  2.0578
 1024MOL0     H41269  -0.543   3.371  11.519  0.6165 -1.9770 -0.3795
 1024MOL0     H41270  -0.285   3.318  11.268 -0.2167 -0.7662 -0.7742
 1024MOL0     H41271  -0.138   3.187  11.128  1.9825 -1.0446 -1.9455
 1024MOL0     H41272  -0.060   3.335  11.078 -0.1543  1.3793 -1.9082
 1024MOL0     H41273  -0.128   3.216  10.958  1.2215  1.7798 -0.9840
 1024MOL0     H41274  -0.462   3.433  10.496 -1.2996 -0.4785 -5.2190
 1024MOL0     H41275  -0.394   3.509  10.271 -1.1168  0.5950 -0.2555
 1024MOL0     H41276  -0.054   3.454  10.158 -0.3354 -0.9700 -2.3608
 1024MOL0     H41277  -0.227   3.460  10.128  0.4789 -0.1698  3.3878
 1024MOL0     H41278  -0.169   3.679   9.986  2.1096  1.7708  2.2281
 1024MOL0     H41279  -0.011   3.603   9.966  0.0970 -2.6087 -0.2235
 1024MOL0     H41280  -0.114   3.521   9.782 -1.6593 -0.3406 -0.8557
 1024MOL0     H41281  -0.277   3.494   9.847  0.8946 -1.5293 -0.1559
 1024MOL0     H41282  -0.209   3.287   9.829 -1.1485 -1.0173  2.5714
 1024MOL0     H41283  -0.170   3.308   9.998  2.6156 -3.8872  0.0944
 1024MOL0     H41284   0.035   3.326   9.756  3.3810 -1.4560 -0.0620
 1024MOL0     H41285   0.057   3.380   9.920  2.4511 -0.3207 -1.7942
 1024MOL0     H41286   0.148   3.149   9.868 -0.2722 -1.5943  1.5879
 1024MOL0     H41287  -0.016   3.096   9.861  3.7950 -0.8794 -1.8206
 1024MOL0     H41288  -0.046   3.173  10.100 -0.5813 -0.3541  0.5437
 1024MOL0     H41289   0.111   3.258  10.102  0.9610 -0.5708 -1.2004
 1024MOL0     H41290   0.125   3.029  10.221 -2.5347  1.4827 -0.3539
 1024MOL0     H41291   0.231   3.061  10.088 -1.1215  3.1285 -3.6653
 1024MOL0     H41292  -0.034   3.673  10.457  0.0271  1.1047  2.3267
 1024MOL0     H41293  -0.143   3.637  10.671 -0.6932 -0.1563  0.4817
 1024MOL0     H41294  -0.525   3.511  10.888  1.6707  0.6167 -2.2395
 1024MOL0     H41295  -0.633   3.472  11.130 -0.1510 -0.3509  1.3554
 1024MOL0     H41296   0.921   3.617  11.246 -3.6625 -2.9024 -0.0660
 1024MOL0     H41297   0.968   3.383  11.256 -3.9565 -2.3514  1.0433
 1024MOL0     H41298   1.184   3.113  11.645 -0.5413 -0.7828  0.5203
 1024MOL0     H41299   1.319   2.919  11.729 -1.5052 -3.1683  0.5043
 1024MOL0     H41300   1.622   2.724  11.639  0.1578  0.4322  0.0602
 1024MOL0     H41301   1.543   2.873  11.677  4.6581 -1.0351  1.2756
 1024MOL0     H41302   1.526   2.597  11.817  0.7338 -0.6325 -0.9808
 1024MOL0     H41303   1.406   2.726  11.833  0.5028  1.4076 -3.2385
 1024MOL0     H41304   1.558   2.884  11.920  0.9490  0.6735 -1.3760
 1024MOL0     H41305   1.571   2.738  12.029 -0.5721 -0.6429 -0.5078
 1024MOL0     H41306   1.783   2.671  11.928  0.1374 -0.6649 -2.8333
 1024MOL0     H41307   1.795   2.824  12.012  1.6351  0.6384 -1.2517
 1024MOL0     H41308   1.894   2.940  11.615  1.7394  0.9783  1.3401
 1024MOL0     H41309   1.307   2.733  11.359  3.3509  0.0550  2.8319
 1024MOL0     H41310   1.042   2.896  11.224 -0.0933 -1.6162  4.8240
 1024MOL0     H41311   1.170   3.007  11.187 -1.1726 -0.2515 -0.9178
 1024MOL0     H41312   1.201   2.837  11.166 -1.4064 -0.1532 -1.5725
  11.59177  11.59177  11.59177
